/*--------------------------------*- C++ -*----------------------------------*\
  =========                 |
  \\      /  F ield         | OpenFOAM: The Open Source CFD Toolbox
   \\    /   O peration     | Website:  https://openfoam.org
    \\  /    A nd           | Version:  6
     \\/     M anipulation  |
\*---------------------------------------------------------------------------*/
FoamFile
{
    version     2.0;
    format      ascii;
    class       volScalarField;
    location    "0.02";
    object      epsilon;
}
// * * * * * * * * * * * * * * * * * * * * * * * * * * * * * * * * * * * * * //

dimensions      [0 2 -3 0 0 0 0];

internalField   nonuniform List<scalar> 
3032
(
10.3501
10.3147
10.2796
10.245
10.2111
10.178
10.1458
10.1146
10.0845
10.0555
10.0277
10.0011
9.97568
9.95147
9.92845
9.90662
9.88595
9.86643
9.84803
9.83072
9.81446
9.79922
9.78497
9.77167
9.75928
9.74778
9.73711
9.72726
9.71818
9.70984
9.7022
9.69523
9.68891
9.6832
9.67807
9.6735
9.66946
9.66592
9.66286
9.66025
9.65808
9.65632
9.65495
9.65395
9.65331
9.65301
9.65302
9.65334
9.65395
5.80511
5.79031
5.77583
5.76172
5.74804
5.73481
5.72205
5.7098
5.69806
5.68684
5.67614
5.66595
5.65628
5.64711
5.63843
5.63023
5.62249
5.6152
5.60834
5.60189
5.59584
5.59017
5.58486
5.5799
5.57527
5.57096
5.56694
5.5632
5.55974
5.55653
5.55356
5.55082
5.5483
5.54599
5.54387
5.54193
5.54017
5.53857
5.53713
5.53584
5.53468
5.53366
5.53277
5.53199
5.53133
5.53078
5.53032
5.52996
5.52968
5.2197
5.20722
5.19515
5.18352
5.17236
5.16168
5.15149
5.1418
5.13261
5.1239
5.11569
5.10794
5.10065
5.0938
5.08737
5.08135
5.07572
5.07045
5.06553
5.06094
5.05667
5.05268
5.04898
5.04553
5.04233
5.03935
5.03659
5.03403
5.03165
5.02945
5.02742
5.02554
5.0238
5.02219
5.02071
5.01934
5.01809
5.01693
5.01588
5.01491
5.01402
5.01321
5.01248
5.01181
5.01121
5.01066
5.01018
5.00974
5.00936
5.0797
5.06705
5.05491
5.04332
5.03228
5.02181
5.0119
5.00256
4.99376
4.98551
4.97778
4.97056
4.96382
4.95754
4.9517
4.94627
4.94124
4.93658
4.93226
4.92826
4.92457
4.92116
4.91801
4.9151
4.91242
4.90995
4.90767
4.90557
4.90363
4.90185
4.90021
4.8987
4.89731
4.89603
4.89485
4.89377
4.89277
4.89185
4.891
4.89022
4.88951
4.88885
4.88825
4.88769
4.88718
4.88671
4.88628
4.88589
4.88553
5.04413
5.03043
5.01738
5.00499
4.99329
4.98225
4.97189
4.96217
4.9531
4.94463
4.93676
4.92944
4.92266
4.91639
4.9106
4.90525
4.90033
4.8958
4.89163
4.8878
4.8843
4.88108
4.87813
4.87543
4.87296
4.8707
4.86863
4.86674
4.86502
4.86344
4.86199
4.86067
4.85947
4.85836
4.85736
4.85643
4.85559
4.85482
4.85411
4.85346
4.85286
4.85232
4.85182
4.85136
4.85093
4.85055
4.85019
4.84986
4.84956
5.04074
5.02547
5.01102
4.9974
4.98461
4.97262
4.96143
4.95101
4.94132
4.93233
4.92401
4.91633
4.90925
4.90273
4.89674
4.89124
4.8862
4.88159
4.87737
4.87352
4.87001
4.86681
4.8639
4.86124
4.85883
4.85664
4.85465
4.85284
4.85119
4.8497
4.84835
4.84713
4.84601
4.845
4.84409
4.84326
4.8425
4.84182
4.8412
4.84063
4.84012
4.83965
4.83922
4.83883
4.83848
4.83815
4.83786
4.83759
4.83734
5.04941
5.03216
5.01595
5.00077
4.98659
4.9734
4.96115
4.94979
4.9393
4.92961
4.92069
4.91249
4.90495
4.89805
4.89173
4.88596
4.88069
4.87588
4.87151
4.86753
4.86392
4.86064
4.85766
4.85497
4.85253
4.85032
4.84832
4.84652
4.84489
4.84342
4.8421
4.8409
4.83983
4.83885
4.83798
4.83719
4.83648
4.83584
4.83527
4.83475
4.83428
4.83385
4.83347
4.83313
4.83282
4.83254
4.83228
4.83205
4.83185
4.83166
5.06411
5.04447
5.02615
5.00912
4.99332
4.97869
4.96519
4.95275
4.94131
4.9308
4.92116
4.91234
4.90427
4.8969
4.89018
4.88406
4.87849
4.87343
4.86884
4.86467
4.8609
4.85748
4.8544
4.85161
4.84909
4.84682
4.84477
4.84293
4.84127
4.83978
4.83844
4.83724
4.83616
4.83519
4.83432
4.83354
4.83284
4.83221
4.83165
4.83115
4.8307
4.8303
4.82994
4.82961
4.82932
4.82907
4.82883
4.82863
4.82844
4.82828
5.08299
5.06056
5.03979
5.02061
5.00294
4.98669
4.97177
4.9581
4.94559
4.93416
4.92372
4.91421
4.90554
4.89765
4.89048
4.88397
4.87807
4.87272
4.86787
4.86348
4.85952
4.85594
4.85271
4.8498
4.84717
4.84481
4.84268
4.84077
4.83906
4.83752
4.83614
4.8349
4.83379
4.8328
4.83191
4.83112
4.83041
4.82977
4.8292
4.8287
4.82825
4.82785
4.82749
4.82717
4.82688
4.82663
4.82641
4.82621
4.82603
4.82588
4.82574
5.1054
5.07976
5.0562
5.03458
5.0148
4.99673
4.98024
4.96521
4.95153
4.93909
4.92778
4.91752
4.90821
4.89976
4.89211
4.88518
4.87891
4.87325
4.86813
4.8635
4.85933
4.85557
4.85218
4.84913
4.84638
4.84391
4.84169
4.8397
4.83791
4.8363
4.83487
4.83358
4.83243
4.8314
4.83047
4.82965
4.82892
4.82826
4.82767
4.82715
4.82669
4.82627
4.8259
4.82557
4.82528
4.82502
4.82479
4.82459
4.82441
4.82425
4.82412
5.13087
5.10164
5.07495
5.05063
5.02852
5.00844
4.99022
4.97372
4.95877
4.94525
4.93302
4.92196
4.91196
4.90293
4.89477
4.88741
4.88076
4.87477
4.86936
4.86449
4.8601
4.85614
4.85259
4.84939
4.84651
4.84392
4.8416
4.83952
4.83765
4.83597
4.83447
4.83312
4.83192
4.83084
4.82988
4.82901
4.82824
4.82756
4.82694
4.8264
4.82591
4.82547
4.82509
4.82474
4.82443
4.82416
4.82392
4.8237
4.82352
4.82335
4.8232
5.15879
5.12562
5.09553
5.06828
5.04365
5.02141
5.00135
4.98328
4.96699
4.95233
4.93912
4.92723
4.91652
4.90688
4.89821
4.89039
4.88336
4.87703
4.87133
4.86621
4.86159
4.85745
4.85372
4.85037
4.84735
4.84465
4.84222
4.84004
4.83809
4.83633
4.83476
4.83335
4.83209
4.83096
4.82995
4.82904
4.82824
4.82751
4.82687
4.82629
4.82578
4.82531
4.8249
4.82454
4.82421
4.82392
4.82366
4.82343
4.82323
4.82305
4.82289
5.18825
5.15093
5.11724
5.08691
5.05964
5.03515
5.01317
4.99347
4.9758
4.95996
4.94575
4.93302
4.92159
4.91134
4.90213
4.89387
4.88645
4.87979
4.8738
4.86842
4.86359
4.85925
4.85535
4.85184
4.8487
4.84587
4.84334
4.84106
4.83902
4.83719
4.83554
4.83407
4.83275
4.83156
4.8305
4.82955
4.8287
4.82794
4.82726
4.82665
4.82611
4.82562
4.82518
4.82479
4.82444
4.82413
4.82385
4.8236
4.82338
4.82319
4.82302
5.21807
5.17652
5.1392
5.10574
5.0758
5.04904
5.02514
5.0038
4.98474
4.96773
4.95254
4.93897
4.92683
4.91598
4.90626
4.89756
4.88976
4.88277
4.87651
4.87088
4.86584
4.86131
4.85725
4.8536
4.85032
4.84738
4.84474
4.84237
4.84024
4.83833
4.83662
4.83508
4.8337
4.83246
4.83135
4.83036
4.82946
4.82866
4.82795
4.8273
4.82672
4.82621
4.82574
4.82533
4.82496
4.82462
4.82432
4.82405
4.82382
4.8236
4.82342
4.82325
5.24674
5.20112
5.16028
5.12381
5.0913
5.06235
5.0366
5.01369
4.99332
4.9752
4.95907
4.9447
4.9319
4.92048
4.91028
4.90117
4.89303
4.88574
4.87921
4.87337
4.86812
4.86343
4.85921
4.85543
4.85203
4.84898
4.84624
4.84379
4.84158
4.8396
4.83782
4.83622
4.83478
4.83349
4.83233
4.83129
4.83036
4.82952
4.82876
4.82809
4.82748
4.82693
4.82644
4.826
4.8256
4.82525
4.82493
4.82464
4.82438
4.82415
4.82395
4.82377
5.27319
5.22379
5.1797
5.14044
5.10554
5.07456
5.04709
5.02274
5.00115
4.982
4.96501
4.94993
4.93652
4.92459
4.91396
4.90449
4.89603
4.88848
4.88173
4.87568
4.87027
4.86542
4.86108
4.85718
4.85368
4.85053
4.84771
4.84518
4.8429
4.84085
4.83901
4.83736
4.83587
4.83453
4.83333
4.83225
4.83127
4.8304
4.82961
4.8289
4.82826
4.82769
4.82717
4.82671
4.82629
4.82591
4.82557
4.82526
4.82499
4.82474
4.82452
4.82433
5.29465
5.24216
5.1954
5.15383
5.11697
5.08432
5.05543
5.02989
5.00731
4.98733
4.96965
4.95399
4.9401
4.92777
4.91681
4.90705
4.89836
4.89061
4.88369
4.8775
4.87196
4.86701
4.86256
4.85858
4.85501
4.8518
4.84891
4.84632
4.84399
4.8419
4.84002
4.83832
4.8368
4.83542
4.83419
4.83307
4.83207
4.83116
4.83035
4.82962
4.82895
4.82836
4.82782
4.82733
4.82689
4.8265
4.82614
4.82582
4.82553
4.82527
4.82504
4.82483
5.30906
5.25448
5.20588
5.16273
5.12451
5.0907
5.06084
5.03448
5.01121
4.99067
4.97252
4.95647
4.94227
4.92968
4.91851
4.90859
4.89976
4.89189
4.88487
4.8786
4.873
4.86798
4.86349
4.85946
4.85585
4.85261
4.8497
4.84708
4.84472
4.84261
4.8407
4.83898
4.83744
4.83604
4.83479
4.83366
4.83264
4.83172
4.83089
4.83014
4.82946
4.82885
4.82829
4.8278
4.82734
4.82694
4.82657
4.82623
4.82593
4.82566
4.82542
4.82521
4.82503
5.31719
5.26141
5.21174
5.16764
5.1286
5.09409
5.06364
5.03678
5.01311
4.99223
4.97382
4.95755
4.94318
4.93046
4.91918
4.90918
4.90029
4.89237
4.88532
4.87903
4.87341
4.86838
4.86388
4.85985
4.85623
4.85299
4.85007
4.84745
4.8451
4.84298
4.84107
4.83935
4.8378
4.8364
4.83514
4.834
4.83298
4.83205
4.83121
4.83046
4.82978
4.82916
4.8286
4.8281
4.82764
4.82722
4.82685
4.82651
4.8262
4.82593
4.82568
4.82547
4.82528
4.82512
5.32017
5.26392
5.2138
5.16928
5.12987
5.09504
5.06431
5.03722
5.01336
4.99234
4.97381
4.95747
4.94305
4.93029
4.919
4.90899
4.9001
4.8922
4.88516
4.87889
4.87329
4.86829
4.86381
4.85981
4.85621
4.85299
4.85009
4.84749
4.84515
4.84305
4.84115
4.83944
4.8379
4.83652
4.83526
4.83413
4.83311
4.83219
4.83136
4.83061
4.82993
4.82931
4.82875
4.82825
4.82779
4.82738
4.827
4.82666
4.82636
4.82608
4.82583
4.82561
4.82542
4.82526
5.31918
5.26302
5.21292
5.1684
5.12895
5.09409
5.06333
5.03622
5.01235
4.99133
4.97282
4.9565
4.94211
4.92939
4.91815
4.90819
4.89935
4.8915
4.88452
4.8783
4.87276
4.86781
4.86338
4.85942
4.85587
4.85268
4.84982
4.84726
4.84495
4.84287
4.841
4.83932
4.8378
4.83643
4.8352
4.83408
4.83308
4.83217
4.83135
4.8306
4.82993
4.82932
4.82877
4.82828
4.82782
4.82742
4.82704
4.82671
4.82641
4.82613
4.82589
4.82567
4.82549
4.82533
5.31527
5.25962
5.2099
5.16567
5.12645
5.09177
5.06115
5.03418
5.01042
4.98951
4.9711
4.95489
4.94059
4.92797
4.91682
4.90694
4.8982
4.89043
4.88353
4.87739
4.87192
4.86703
4.86267
4.85877
4.85527
4.85214
4.84933
4.84681
4.84454
4.84251
4.84067
4.83902
4.83753
4.83619
4.83498
4.83389
4.8329
4.83201
4.83121
4.83048
4.82983
4.82923
4.82869
4.8282
4.82776
4.82736
4.827
4.82667
4.82638
4.82611
4.82587
4.82566
4.82548
4.82534
5.30934
5.25447
5.20539
5.16166
5.12284
5.08849
5.05815
5.03141
5.00787
4.98714
4.9689
4.95284
4.93868
4.92619
4.91516
4.9054
4.89676
4.8891
4.8823
4.87625
4.87086
4.86605
4.86176
4.85793
4.8545
4.85143
4.84868
4.84621
4.84399
4.842
4.84021
4.8386
4.83714
4.83583
4.83465
4.83359
4.83263
4.83176
4.83098
4.83027
4.82963
4.82906
4.82853
4.82806
4.82763
4.82724
4.82689
4.82657
4.82628
4.82603
4.8258
4.8256
4.82543
4.82529
5.30206
5.24817
5.19987
5.15678
5.11849
5.08457
5.0546
5.02818
5.0049
4.98441
4.96638
4.95051
4.93652
4.92419
4.9133
4.90367
4.89516
4.88761
4.88091
4.87496
4.86966
4.86494
4.86073
4.85698
4.85362
4.85061
4.84792
4.84551
4.84334
4.8414
4.83965
4.83808
4.83667
4.83539
4.83425
4.83321
4.83228
4.83144
4.83068
4.83
4.82938
4.82882
4.82832
4.82786
4.82745
4.82707
4.82673
4.82643
4.82615
4.8259
4.82568
4.82549
4.82534
4.82522
5.29394
5.24113
5.19372
5.15136
5.11367
5.08026
5.05072
5.02465
5.00169
4.98147
4.96367
4.94801
4.93421
4.92205
4.91131
4.90183
4.89344
4.88601
4.87942
4.87357
4.86837
4.86374
4.85962
4.85594
4.85265
4.84972
4.84709
4.84473
4.84262
4.84073
4.83903
4.8375
4.83613
4.8349
4.83379
4.83279
4.83188
4.83107
4.83034
4.82968
4.82908
4.82855
4.82806
4.82762
4.82722
4.82687
4.82654
4.82625
4.82599
4.82575
4.82554
4.82536
4.82522
4.82511
5.28533
5.23366
5.18719
5.14561
5.10858
5.07571
5.04663
5.02096
4.99833
4.97841
4.96087
4.94542
4.93183
4.91984
4.90927
4.89993
4.89167
4.88436
4.87789
4.87214
4.86704
4.8625
4.85846
4.85486
4.85164
4.84877
4.84621
4.84391
4.84186
4.84002
4.83837
4.83689
4.83555
4.83436
4.83329
4.83232
4.83145
4.83067
4.82996
4.82933
4.82876
4.82824
4.82778
4.82736
4.82698
4.82664
4.82633
4.82605
4.8258
4.82558
4.82538
4.82522
4.82508
4.82499
5.27647
5.22596
5.18046
5.13969
5.10334
5.07104
5.04245
5.01719
4.99491
4.97529
4.95801
4.9428
4.92941
4.9176
4.90719
4.898
4.88988
4.88269
4.87633
4.87068
4.86568
4.86123
4.85727
4.85374
4.8506
4.8478
4.8453
4.84307
4.84107
4.83928
4.83768
4.83624
4.83495
4.8338
4.83276
4.83183
4.831
4.83024
4.82957
4.82896
4.82841
4.82792
4.82748
4.82708
4.82672
4.8264
4.8261
4.82584
4.82561
4.8254
4.82521
4.82506
4.82494
4.82486
5.26734
5.21799
5.17349
5.13356
5.09791
5.06622
5.03813
5.0133
4.99139
4.97208
4.95507
4.9401
4.92691
4.91529
4.90505
4.896
4.88802
4.88095
4.8747
4.86917
4.86425
4.8599
4.85602
4.85258
4.84951
4.84678
4.84434
4.84217
4.84023
4.83849
4.83694
4.83555
4.83431
4.8332
4.8322
4.83131
4.8305
4.82978
4.82914
4.82856
4.82804
4.82757
4.82715
4.82678
4.82644
4.82613
4.82586
4.82561
4.82539
4.8252
4.82503
4.82489
4.82478
4.82471
5.25752
5.20943
5.16599
5.12697
5.09209
5.06104
5.0335
5.00913
4.98762
4.96865
4.95194
4.93722
4.92425
4.91283
4.90276
4.89387
4.88603
4.8791
4.87296
4.86754
4.86273
4.85847
4.85468
4.85132
4.84833
4.84567
4.8433
4.8412
4.83932
4.83764
4.83614
4.8348
4.83361
4.83254
4.83159
4.83073
4.82997
4.82928
4.82867
4.82812
4.82763
4.82719
4.8268
4.82644
4.82613
4.82584
4.82559
4.82536
4.82516
4.82498
4.82483
4.8247
4.8246
4.82454
5.24679
5.20007
5.1578
5.11978
5.08575
5.05542
5.02849
5.00464
4.98357
4.96497
4.94858
4.93414
4.92142
4.91021
4.90033
4.89161
4.88392
4.87713
4.87113
4.86582
4.86112
4.85695
4.85326
4.84999
4.84708
4.8445
4.84221
4.84017
4.83835
4.83674
4.8353
4.83401
4.83287
4.83185
4.83094
4.83013
4.8294
4.82876
4.82818
4.82767
4.82721
4.8268
4.82643
4.8261
4.82581
4.82555
4.82531
4.82511
4.82492
4.82476
4.82462
4.82451
4.82442
4.82437
5.23524
5.19
5.14902
5.11209
5.07899
5.04945
5.02318
4.9999
4.9793
4.96111
4.94507
4.93093
4.91846
4.90748
4.8978
4.88927
4.88174
4.8751
4.86923
4.86404
4.85945
4.8554
4.8518
4.84862
4.8458
4.8433
4.84108
4.83911
4.83737
4.83581
4.83443
4.83321
4.83211
4.83114
4.83028
4.82951
4.82883
4.82822
4.82768
4.8272
4.82677
4.82639
4.82606
4.82576
4.82549
4.82525
4.82504
4.82485
4.82468
4.82454
4.82442
4.82432
4.82424
4.8242
5.22298
5.17935
5.13973
5.10398
5.07189
5.0432
5.01765
4.99497
4.97489
4.95714
4.94147
4.92765
4.91546
4.90472
4.89525
4.8869
4.87954
4.87305
4.86732
4.86226
4.85778
4.85383
4.85034
4.84725
4.84452
4.8421
4.83996
4.83806
4.83638
4.83489
4.83357
4.8324
4.83136
4.83044
4.82962
4.8289
4.82826
4.82769
4.82719
4.82674
4.82635
4.826
4.82569
4.82541
4.82517
4.82496
4.82477
4.8246
4.82445
4.82433
4.82422
4.82413
4.82407
4.82403
5.21015
5.16821
5.13007
5.09558
5.06455
5.03677
5.01199
4.98996
4.97042
4.95313
4.93785
4.92437
4.91247
4.90198
4.89273
4.88457
4.87738
4.87104
4.86544
4.86051
4.85615
4.85231
4.84891
4.84592
4.84327
4.84093
4.83886
4.83703
4.83542
4.83399
4.83273
4.83161
4.83063
4.82976
4.82899
4.82831
4.82771
4.82718
4.82671
4.8263
4.82594
4.82562
4.82533
4.82509
4.82487
4.82468
4.82451
4.82436
4.82423
4.82412
4.82403
4.82395
4.8239
4.82387
5.19686
5.15673
5.12013
5.08697
5.05707
5.03025
5.00628
4.98493
4.96597
4.94917
4.9343
4.92116
4.90955
4.89932
4.89029
4.88233
4.8753
4.86911
4.86366
4.85884
4.8546
4.85086
4.84756
4.84465
4.84208
4.83982
4.83782
4.83606
4.83451
4.83314
4.83193
4.83087
4.82994
4.82911
4.82839
4.82775
4.82719
4.82669
4.82626
4.82588
4.82555
4.82526
4.825
4.82478
4.82458
4.82441
4.82426
4.82413
4.82402
4.82393
4.82385
4.82378
4.82374
4.82372
5.18326
5.145
5.11003
5.07826
5.04955
5.02374
5.00061
4.97998
4.96162
4.94531
4.93086
4.91808
4.90678
4.8968
4.88799
4.88022
4.87337
4.86733
4.862
4.8573
4.85316
4.84952
4.84631
4.84348
4.84099
4.83879
4.83686
4.83516
4.83367
4.83236
4.8312
4.83019
4.8293
4.82851
4.82783
4.82723
4.8267
4.82624
4.82584
4.82549
4.82518
4.82492
4.82469
4.82448
4.82431
4.82416
4.82403
4.82391
4.82382
4.82374
4.82367
4.82362
4.82358
4.82356
5.16945
5.13315
5.09987
5.06955
5.04208
5.0173
4.99506
4.97516
4.95742
4.94163
4.92762
4.9152
4.9042
4.89448
4.88589
4.87831
4.87161
4.86571
4.86051
4.85592
4.85188
4.84832
4.84519
4.84244
4.84001
4.83788
4.83601
4.83436
4.83292
4.83165
4.83054
4.82957
4.82872
4.82797
4.82732
4.82676
4.82626
4.82583
4.82545
4.82513
4.82485
4.8246
4.82439
4.82421
4.82405
4.82392
4.8238
4.8237
4.82362
4.82354
4.82349
4.82344
4.82341
4.8234
5.15554
5.12126
5.08973
5.06091
5.03471
5.01102
4.98968
4.97055
4.95344
4.93818
4.9246
4.91255
4.90186
4.89239
4.88401
4.87661
4.87007
4.8643
4.85921
4.85472
4.85077
4.84729
4.84423
4.84154
4.83917
4.83709
4.83527
4.83367
4.83227
4.83104
4.82997
4.82903
4.82821
4.8275
4.82687
4.82633
4.82586
4.82545
4.8251
4.82479
4.82453
4.8243
4.82411
4.82394
4.8238
4.82368
4.82357
4.82348
4.82341
4.82334
4.82329
4.82326
4.82323
4.82322
5.14163
5.10943
5.07968
5.0524
5.02751
5.00492
4.98452
4.96616
4.9497
4.93498
4.92185
4.91016
4.89977
4.89055
4.88239
4.87516
4.86876
4.86311
4.85813
4.85373
4.84985
4.84644
4.84344
4.84079
4.83847
4.83644
4.83465
4.83309
4.83172
4.83052
4.82947
4.82856
4.82777
4.82707
4.82647
4.82595
4.8255
4.82511
4.82477
4.82448
4.82423
4.82401
4.82383
4.82367
4.82354
4.82343
4.82333
4.82325
4.82318
4.82312
4.82308
4.82304
4.82301
4.823
5.12855
5.09833
5.0703
5.0445
5.02087
4.99935
4.97985
4.96224
4.9464
4.9322
4.91949
4.90815
4.89805
4.88906
4.88109
4.87401
4.86775
4.8622
4.8573
4.85298
4.84916
4.8458
4.84284
4.84024
4.83795
4.83594
4.83418
4.83264
4.83129
4.83011
4.82908
4.82818
4.8274
4.82672
4.82613
4.82562
4.82518
4.8248
4.82447
4.82419
4.82394
4.82373
4.82356
4.8234
4.82328
4.82317
4.82307
4.82299
4.82293
4.82287
4.82283
4.82279
4.82276
4.82275
5.11584
5.08756
5.06123
5.03688
5.01451
4.99406
4.97545
4.95859
4.94337
4.92967
4.91739
4.90639
4.89656
4.8878
4.88001
4.87308
4.86693
4.86148
4.85666
4.8524
4.84863
4.84531
4.84238
4.8398
4.83754
4.83555
4.8338
4.83227
4.83093
4.82976
4.82874
4.82785
4.82708
4.8264
4.82582
4.82531
4.82487
4.82449
4.82417
4.82389
4.82365
4.82344
4.82326
4.82311
4.82298
4.82287
4.82278
4.8227
4.82263
4.82257
4.82253
4.82249
4.82246
4.82244
5.10204
5.07588
5.05142
5.0287
5.00771
4.98844
4.97082
4.95479
4.94026
4.92713
4.9153
4.90468
4.89516
4.88664
4.87904
4.87227
4.86624
4.86089
4.85614
4.85193
4.84821
4.84492
4.84201
4.83945
4.8372
4.83522
4.83348
4.83195
4.83062
4.82945
4.82842
4.82753
4.82675
4.82608
4.82549
4.82498
4.82453
4.82415
4.82382
4.82354
4.82329
4.82308
4.8229
4.82275
4.82261
4.8225
4.8224
4.82232
4.82225
4.82218
4.82213
4.82209
4.82205
4.82202
5.11212
5.08704
5.06324
5.04084
5.01989
5.00043
4.98245
4.96593
4.95081
4.93703
4.92452
4.91321
4.903
4.89381
4.88556
4.87816
4.87155
4.86565
4.8604
4.85572
4.85156
4.84788
4.84461
4.84173
4.83917
4.83692
4.83494
4.83319
4.83166
4.83031
4.82913
4.8281
4.82719
4.8264
4.82571
4.82511
4.82459
4.82414
4.82374
4.8234
4.82311
4.82285
4.82263
4.82244
4.82228
4.82214
4.82201
4.82191
4.82181
4.82173
4.82166
4.8216
4.82155
4.82151
4.82147
5.09329
5.07098
5.04966
5.02943
5.01038
4.99255
4.97597
4.96063
4.9465
4.93356
4.92174
4.91098
4.90122
4.8924
4.88444
4.87728
4.87085
4.86509
4.85994
4.85533
4.85123
4.84758
4.84434
4.84146
4.83891
4.83665
4.83466
4.83289
4.83134
4.82998
4.82877
4.82772
4.82679
4.82598
4.82527
4.82465
4.82411
4.82363
4.82322
4.82286
4.82255
4.82228
4.82204
4.82184
4.82166
4.8215
4.82137
4.82125
4.82115
4.82105
4.82097
4.8209
4.82084
4.82078
4.82073
5.07324
5.05376
5.03497
5.01699
4.99991
4.9838
4.96869
4.95462
4.94157
4.92953
4.91846
4.90833
4.89908
4.89068
4.88305
4.87616
4.86994
4.86434
4.85931
4.8548
4.85076
4.84716
4.84394
4.84108
4.83853
4.83626
4.83426
4.83248
4.8309
4.82951
4.82829
4.8272
4.82625
4.82541
4.82468
4.82403
4.82346
4.82296
4.82253
4.82215
4.82181
4.82152
4.82126
4.82104
4.82084
4.82067
4.82052
4.82039
4.82027
4.82017
4.82007
4.81999
4.81992
4.81985
4.81979
5.05172
5.03501
5.01873
5.00299
4.98791
4.97357
4.96001
4.94727
4.93538
4.92432
4.9141
4.90467
4.89603
4.88811
4.8809
4.87434
4.86839
4.86301
4.85815
4.85377
4.84984
4.84631
4.84314
4.84031
4.83779
4.83554
4.83353
4.83174
4.83016
4.82875
4.82751
4.8264
4.82542
4.82456
4.8238
4.82313
4.82253
4.82201
4.82155
4.82115
4.82079
4.82048
4.8202
4.81996
4.81974
4.81955
4.81939
4.81924
4.81911
4.81899
4.81888
4.81879
4.8187
4.81862
4.81855
5.02822
5.01405
5.0001
4.98652
4.97339
4.96081
4.94883
4.9375
4.92685
4.91688
4.90761
4.89901
4.89107
4.88377
4.87708
4.87096
4.86539
4.86032
4.85572
4.85156
4.84781
4.84442
4.84138
4.83864
4.83619
4.83399
4.83202
4.83027
4.8287
4.8273
4.82606
4.82496
4.82397
4.8231
4.82233
4.82164
4.82103
4.82049
4.82001
4.81959
4.81922
4.81888
4.81859
4.81833
4.81809
4.81789
4.8177
4.81754
4.81739
4.81725
4.81713
4.81702
4.81692
4.81682
4.81674
5.00541
4.99306
4.98087
4.96894
4.95737
4.94624
4.93561
4.92551
4.91599
4.90705
4.8987
4.89093
4.88373
4.87709
4.87098
4.86538
4.86025
4.85558
4.85133
4.84747
4.84397
4.84081
4.83795
4.83538
4.83307
4.83099
4.82912
4.82745
4.82595
4.82461
4.82341
4.82234
4.82139
4.82053
4.81977
4.8191
4.81849
4.81796
4.81748
4.81705
4.81667
4.81633
4.81602
4.81575
4.8155
4.81528
4.81508
4.8149
4.81473
4.81458
4.81444
4.81431
4.81419
4.81408
4.81398
4.9857
4.97451
4.96346
4.95266
4.94218
4.93209
4.92246
4.9133
4.90466
4.89653
4.88894
4.88187
4.87531
4.86924
4.86366
4.85853
4.85384
4.84955
4.84564
4.84208
4.83886
4.83594
4.8333
4.83092
4.82877
4.82684
4.8251
4.82355
4.82215
4.8209
4.81977
4.81877
4.81787
4.81707
4.81636
4.81572
4.81515
4.81464
4.81418
4.81377
4.81341
4.81308
4.81279
4.81252
4.81229
4.81207
4.81188
4.8117
4.81154
4.81139
4.81125
4.81113
4.81101
4.8109
4.8108
4.96671
4.95639
4.94624
4.93634
4.92676
4.91756
4.90878
4.90046
4.89261
4.88524
4.87835
4.87195
4.86601
4.86053
4.85548
4.85085
4.84661
4.84274
4.83922
4.83601
4.83311
4.83048
4.82811
4.82598
4.82405
4.82233
4.82078
4.81939
4.81815
4.81704
4.81605
4.81517
4.81439
4.81369
4.81308
4.81253
4.81205
4.81162
4.81124
4.81091
4.81061
4.81035
4.81013
4.80993
4.80975
4.8096
4.80946
4.80935
4.80924
4.80915
4.80908
4.80901
4.80895
4.8089
4.80886
4.95108
4.9415
4.93213
4.92303
4.91426
4.90588
4.89791
4.89038
4.8833
4.87667
4.8705
4.86478
4.85949
4.85462
4.85016
4.84607
4.84234
4.83896
4.83588
4.83311
4.8306
4.82835
4.82633
4.82452
4.82291
4.82148
4.8202
4.81908
4.81809
4.81721
4.81645
4.81579
4.81521
4.81472
4.81429
4.81393
4.81363
4.81338
4.81318
4.81301
4.81289
4.81279
4.81273
4.81269
4.81267
4.81268
4.81271
4.81275
4.8128
4.81287
4.81296
4.81305
4.81316
4.81327
4.8134
4.94678
4.93791
4.92928
4.92097
4.91301
4.90544
4.89829
4.89157
4.88529
4.87945
4.87405
4.86907
4.8645
4.86032
4.85651
4.85306
4.84995
4.84715
4.84464
4.8424
4.84041
4.83865
4.8371
4.83575
4.83457
4.83356
4.8327
4.83196
4.83135
4.83085
4.83045
4.83014
4.82991
4.82975
4.82966
4.82963
4.82965
4.82971
4.82982
4.82997
4.83015
4.83037
4.83061
4.83087
4.83116
4.83147
4.8318
4.83215
4.83251
4.83289
4.83329
4.83369
4.83411
4.83454
4.83498
4.97056
4.96244
4.95461
4.94712
4.94001
4.93331
4.92704
4.9212
4.9158
4.91083
4.90628
4.90215
4.8984
4.89504
4.89202
4.88935
4.88698
4.88491
4.88311
4.88156
4.88025
4.87915
4.87824
4.87751
4.87695
4.87653
4.87625
4.87609
4.87605
4.8761
4.87624
4.87646
4.87676
4.87713
4.87755
4.87803
4.87856
4.87913
4.87974
4.88039
4.88107
4.88178
4.88251
4.88328
4.88406
4.88487
4.8857
4.88654
4.88741
4.88829
4.88919
4.8901
4.89103
4.89198
4.89294
5.05546
5.04814
5.04117
5.03457
5.0284
5.02265
5.01736
5.0125
5.0081
5.00413
5.00058
4.99743
4.99468
4.99229
4.99024
4.98852
4.9871
4.98596
4.98507
4.98443
4.984
4.98378
4.98374
4.98386
4.98413
4.98455
4.98508
4.98573
4.98649
4.98733
4.98826
4.98926
4.99033
4.99146
4.99265
4.99389
4.99517
4.99649
4.99785
4.99925
5.00068
5.00213
5.00362
5.00513
5.00666
5.00822
5.0098
5.0114
5.01302
5.01466
5.01632
5.018
5.0197
5.02142
5.02316
5.27167
5.26521
5.25916
5.25354
5.24839
5.24371
5.23951
5.23579
5.23253
5.22973
5.22737
5.22543
5.22388
5.2227
5.22187
5.22136
5.22116
5.22123
5.22156
5.22211
5.22289
5.22385
5.225
5.2263
5.22774
5.22932
5.23102
5.23282
5.23472
5.2367
5.23876
5.24089
5.24309
5.24534
5.24765
5.25
5.2524
5.25484
5.25731
5.25982
5.26236
5.26493
5.26752
5.27015
5.2728
5.27547
5.27817
5.2809
5.28365
5.28642
5.28922
5.29205
5.2949
5.29778
5.30069
5.80349
5.79786
5.79273
5.78812
5.78406
5.78056
5.77761
5.7752
5.77333
5.77196
5.77109
5.77068
5.7707
5.77113
5.77193
5.77309
5.77457
5.77635
5.7784
5.78069
5.78321
5.78592
5.78882
5.79189
5.7951
5.79844
5.80191
5.80548
5.80915
5.81291
5.81674
5.82065
5.82462
5.82865
5.83273
5.83686
5.84103
5.84525
5.8495
5.8538
5.85812
5.86248
5.86688
5.8713
5.87575
5.88024
5.88476
5.88931
5.89389
5.89851
5.90316
5.90784
5.91256
5.91732
5.92212
7.37562
7.37051
7.3661
7.36243
7.35952
7.35736
7.35595
7.35528
7.35532
7.35605
7.35741
7.35939
7.36195
7.36503
7.36861
7.37264
7.37709
7.38192
7.38709
7.39257
7.39834
7.40437
7.41062
7.41708
7.42372
7.43053
7.43749
7.44458
7.45179
7.45911
7.46653
7.47404
7.48164
7.4893
7.49704
7.50484
7.51269
7.52061
7.52858
7.5366
7.54466
7.55278
7.56095
7.56917
7.57743
7.58574
7.59411
7.60252
7.61099
7.61952
7.6281
7.63674
7.64544
7.65421
7.66304
16.3549
16.3552
16.3569
16.3599
16.3644
16.3704
16.3779
16.3867
16.397
16.4086
16.4215
16.4356
16.4508
16.4671
16.4843
16.5024
16.5212
16.5408
16.5611
16.5819
16.6033
16.6251
16.6473
16.6699
16.6928
16.716
16.7395
16.7632
16.7871
16.8111
16.8354
16.8597
16.8842
16.9089
16.9336
16.9584
16.9834
17.0084
17.0336
17.0588
17.0841
17.1095
17.135
17.1607
17.1864
17.2122
17.2382
17.2642
17.2904
17.3168
17.3432
17.3699
17.3966
17.4236
17.4507
)
;

boundaryField
{
    inlet
    {
        type            fixedValue;
        value           nonuniform 0();
    }
    outlet
    {
        type            zeroGradient;
    }
    upperWall
    {
        Cmu             0.09;
        kappa           0.41;
        E               9.8;
        type            epsilonWallFunction;
        value           nonuniform List<scalar> 
55
(
16.3549
16.3552
16.3569
16.3599
16.3644
16.3704
16.3779
16.3867
16.397
16.4086
16.4215
16.4356
16.4508
16.4671
16.4843
16.5024
16.5212
16.5408
16.5611
16.5819
16.6033
16.6251
16.6473
16.6699
16.6928
16.716
16.7395
16.7632
16.7871
16.8111
16.8354
16.8597
16.8842
16.9089
16.9336
16.9584
16.9834
17.0084
17.0336
17.0588
17.0841
17.1095
17.135
17.1607
17.1864
17.2122
17.2382
17.2642
17.2904
17.3168
17.3432
17.3699
17.3966
17.4236
17.4507
)
;
    }
    lowerWall
    {
        Cmu             0.09;
        kappa           0.41;
        E               9.8;
        type            epsilonWallFunction;
        value           nonuniform List<scalar> 
49
(
10.3501
10.3147
10.2796
10.245
10.2111
10.178
10.1458
10.1146
10.0845
10.0555
10.0277
10.0011
9.97568
9.95147
9.92845
9.90662
9.88595
9.86643
9.84803
9.83072
9.81446
9.79922
9.78497
9.77167
9.75928
9.74778
9.73711
9.72726
9.71818
9.70984
9.7022
9.69523
9.68891
9.6832
9.67807
9.6735
9.66946
9.66592
9.66286
9.66025
9.65808
9.65632
9.65495
9.65395
9.65331
9.65301
9.65302
9.65334
9.65395
)
;
    }
    frontAndBack
    {
        type            empty;
    }
    procBoundary3to1
    {
        type            processor;
        value           nonuniform List<scalar> 
62
(
9.65482
5.52951
5.00902
4.8852
4.84928
4.83712
4.83712
4.83149
4.82814
4.82814
4.82562
4.824
4.82308
4.82275
4.82287
4.82287
4.82311
4.82361
4.82416
4.82466
4.82466
4.82487
4.82487
4.82496
4.82511
4.82519
4.8252
4.82517
4.8251
4.82501
4.82491
4.82478
4.82464
4.82449
4.82432
4.82416
4.824
4.82385
4.8237
4.82355
4.82339
4.82321
4.82299
4.82273
4.82242
4.822
4.82143
4.82069
4.81974
4.81849
4.81666
4.81388
4.8107
4.80882
4.81353
4.83544
4.89392
5.02493
5.30362
5.92696
7.67195
17.478
)
;
    }
    procBoundary3to2
    {
        type            processor;
        value           nonuniform List<scalar> 
58
(
10.3856
5.82016
5.23253
5.09282
5.05844
5.05679
5.06769
5.08507
5.10711
5.13317
5.16277
5.19521
5.22948
5.26416
5.29754
5.32832
5.35331
5.37008
5.37952
5.38295
5.38173
5.37712
5.37015
5.36162
5.35212
5.34208
5.3318
5.32124
5.30997
5.29766
5.28442
5.27036
5.25561
5.24031
5.22459
5.20856
5.19237
5.17611
5.16078
5.14585
5.12967
5.12967
5.13824
5.11636
5.0932
5.06867
5.04244
5.01775
4.99689
4.97708
4.96076
4.95581
4.97891
5.06306
5.27848
5.80957
7.38137
16.3558
)
;
    }
}


// ************************************************************************* //
