/*--------------------------------*- C++ -*----------------------------------*\
  =========                 |
  \\      /  F ield         | OpenFOAM: The Open Source CFD Toolbox
   \\    /   O peration     | Website:  https://openfoam.org
    \\  /    A nd           | Version:  6
     \\/     M anipulation  |
\*---------------------------------------------------------------------------*/
FoamFile
{
    version     2.0;
    format      ascii;
    class       volScalarField;
    location    "0.02";
    object      k;
}
// * * * * * * * * * * * * * * * * * * * * * * * * * * * * * * * * * * * * * //

dimensions      [0 2 -2 0 0 0 0];

internalField   nonuniform List<scalar> 
3032
(
0.0571028
0.0569362
0.0567702
0.0566058
0.0564437
0.0562844
0.0561283
0.0559761
0.0558278
0.0556839
0.0555445
0.0554096
0.0552795
0.055154
0.0550332
0.0549171
0.0548056
0.0546986
0.0545959
0.0544975
0.0544033
0.0543131
0.0542268
0.0541441
0.0540651
0.0539894
0.053917
0.0538478
0.0537815
0.053718
0.0536573
0.0535991
0.0535432
0.0534897
0.0534384
0.0533891
0.0533417
0.0532961
0.0532523
0.0532101
0.0531694
0.0531301
0.0530922
0.0530556
0.0530201
0.0529857
0.0529524
0.05292
0.0528885
0.119609
0.11918
0.118759
0.118346
0.117942
0.117549
0.117168
0.116798
0.11644
0.116094
0.115761
0.115441
0.115133
0.114837
0.114553
0.114281
0.11402
0.11377
0.113531
0.113303
0.113084
0.112875
0.112676
0.112485
0.112302
0.112128
0.111961
0.111801
0.111648
0.111502
0.111362
0.111228
0.1111
0.110976
0.110858
0.110745
0.110636
0.110531
0.11043
0.110332
0.110239
0.110148
0.110061
0.109977
0.109895
0.109816
0.109739
0.109664
0.109592
0.150102
0.149589
0.149086
0.148595
0.148117
0.147653
0.147204
0.14677
0.146351
0.145948
0.145561
0.14519
0.144833
0.144492
0.144166
0.143853
0.143555
0.143269
0.142997
0.142736
0.142488
0.142251
0.142024
0.141808
0.141601
0.141404
0.141215
0.141035
0.140862
0.140697
0.140539
0.140388
0.140243
0.140104
0.13997
0.139842
0.139718
0.1396
0.139485
0.139375
0.139269
0.139166
0.139067
0.13897
0.138877
0.138786
0.138699
0.138613
0.13853
0.170123
0.16956
0.16901
0.168476
0.167958
0.167457
0.166974
0.166509
0.166062
0.165634
0.165224
0.164831
0.164456
0.164098
0.163756
0.16343
0.16312
0.162823
0.162541
0.162272
0.162016
0.161772
0.161539
0.161318
0.161106
0.160904
0.160712
0.160528
0.160352
0.160184
0.160024
0.15987
0.159723
0.159581
0.159446
0.159315
0.15919
0.15907
0.158954
0.158842
0.158733
0.158629
0.158528
0.15843
0.158335
0.158242
0.158152
0.158065
0.15798
0.184483
0.183882
0.183297
0.182732
0.182187
0.181663
0.181159
0.180677
0.180216
0.179775
0.179355
0.178955
0.178574
0.178212
0.177867
0.17754
0.177229
0.176933
0.176652
0.176386
0.176132
0.175891
0.175662
0.175444
0.175237
0.175039
0.174852
0.174672
0.174501
0.174338
0.174182
0.174033
0.173891
0.173754
0.173623
0.173498
0.173377
0.173261
0.173149
0.173041
0.172936
0.172836
0.172738
0.172644
0.172552
0.172463
0.172376
0.172291
0.172209
0.195075
0.194438
0.193823
0.193231
0.192664
0.192122
0.191604
0.191111
0.190641
0.190196
0.189773
0.189372
0.188992
0.188632
0.188291
0.187969
0.187664
0.187375
0.187101
0.186843
0.186598
0.186366
0.186146
0.185937
0.185739
0.185551
0.185372
0.185203
0.185041
0.184887
0.18474
0.1846
0.184467
0.184339
0.184216
0.184099
0.183986
0.183878
0.183773
0.183673
0.183576
0.183482
0.183392
0.183304
0.183219
0.183136
0.183055
0.182977
0.1829
0.202957
0.202281
0.201633
0.201014
0.200426
0.199866
0.199335
0.198833
0.198358
0.19791
0.197487
0.197088
0.196713
0.196359
0.196025
0.195711
0.195416
0.195137
0.194874
0.194627
0.194394
0.194173
0.193966
0.193769
0.193583
0.193408
0.193241
0.193083
0.192934
0.192791
0.192656
0.192527
0.192405
0.192288
0.192176
0.192069
0.191966
0.191868
0.191773
0.191682
0.191594
0.19151
0.191428
0.191349
0.191272
0.191197
0.191125
0.191054
0.190985
0.190918
0.208835
0.208113
0.207427
0.206778
0.206164
0.205584
0.205039
0.204527
0.204046
0.203595
0.203172
0.202777
0.202406
0.202059
0.201734
0.201429
0.201144
0.200877
0.200626
0.200392
0.200171
0.199964
0.199769
0.199586
0.199414
0.199252
0.199098
0.198954
0.198817
0.198687
0.198565
0.198448
0.198338
0.198232
0.198132
0.198036
0.197945
0.197857
0.197773
0.197693
0.197615
0.19754
0.197468
0.197399
0.197331
0.197266
0.197202
0.19714
0.197079
0.19702
0.213228
0.212451
0.211718
0.21103
0.210385
0.209782
0.209218
0.208692
0.208202
0.207746
0.207322
0.206927
0.20656
0.206219
0.205902
0.205606
0.205331
0.205075
0.204836
0.204614
0.204406
0.204212
0.20403
0.203861
0.203701
0.203552
0.203412
0.203281
0.203157
0.20304
0.20293
0.202825
0.202727
0.202633
0.202545
0.20246
0.20238
0.202303
0.20223
0.20216
0.202093
0.202028
0.201966
0.201905
0.201847
0.201791
0.201736
0.201683
0.201631
0.201581
0.201532
0.216529
0.215686
0.214898
0.214162
0.213479
0.212844
0.212256
0.211712
0.211209
0.210744
0.210315
0.209919
0.209553
0.209215
0.208903
0.208615
0.208348
0.208101
0.207873
0.207661
0.207465
0.207282
0.207113
0.206955
0.206808
0.206671
0.206543
0.206424
0.206312
0.206207
0.206108
0.206015
0.205928
0.205846
0.205768
0.205694
0.205624
0.205558
0.205495
0.205434
0.205377
0.205321
0.205268
0.205217
0.205168
0.205121
0.205075
0.20503
0.204987
0.204944
0.204903
0.219042
0.218122
0.217267
0.216476
0.215746
0.215073
0.214455
0.213887
0.213365
0.212887
0.212449
0.212047
0.211679
0.211342
0.211032
0.210748
0.210487
0.210247
0.210027
0.209824
0.209637
0.209464
0.209305
0.209157
0.209021
0.208894
0.208777
0.208667
0.208566
0.208471
0.208383
0.2083
0.208223
0.20815
0.208082
0.208018
0.207957
0.2079
0.207846
0.207794
0.207745
0.207698
0.207654
0.207611
0.20757
0.20753
0.207492
0.207455
0.207419
0.207384
0.207351
0.220993
0.219986
0.219057
0.218203
0.217419
0.216701
0.216046
0.215448
0.214904
0.214408
0.213956
0.213545
0.213171
0.212831
0.212521
0.212238
0.21198
0.211744
0.211529
0.211332
0.211152
0.210986
0.210835
0.210695
0.210567
0.210449
0.21034
0.210239
0.210146
0.21006
0.20998
0.209906
0.209837
0.209772
0.209712
0.209656
0.209603
0.209554
0.209507
0.209463
0.209421
0.209382
0.209344
0.209309
0.209274
0.209242
0.20921
0.20918
0.209151
0.209122
0.209095
0.222543
0.221444
0.220434
0.219511
0.218668
0.217901
0.217204
0.216573
0.216001
0.215483
0.215015
0.214591
0.214208
0.213862
0.213548
0.213263
0.213006
0.212772
0.212559
0.212366
0.21219
0.21203
0.211883
0.21175
0.211628
0.211516
0.211413
0.211319
0.211233
0.211153
0.21108
0.211012
0.210949
0.210891
0.210838
0.210788
0.210741
0.210698
0.210657
0.210619
0.210584
0.21055
0.210518
0.210488
0.21046
0.210433
0.210407
0.210382
0.210358
0.210335
0.210313
0.223798
0.222605
0.221513
0.220518
0.219614
0.218795
0.218055
0.217388
0.216786
0.216244
0.215757
0.215318
0.214924
0.214569
0.214249
0.213961
0.213701
0.213467
0.213255
0.213063
0.21289
0.212732
0.21259
0.21246
0.212342
0.212234
0.212136
0.212047
0.211965
0.21189
0.211822
0.211759
0.211701
0.211648
0.211599
0.211554
0.211512
0.211473
0.211438
0.211404
0.211373
0.211344
0.211317
0.211291
0.211267
0.211244
0.211223
0.211202
0.211183
0.211164
0.211146
0.211128
0.224819
0.223536
0.222365
0.221301
0.220337
0.219467
0.218684
0.21798
0.217348
0.216782
0.216275
0.21582
0.215414
0.215049
0.214722
0.214429
0.214166
0.21393
0.213717
0.213526
0.213353
0.213197
0.213056
0.212929
0.212813
0.212709
0.212614
0.212528
0.212449
0.212378
0.212312
0.212253
0.212199
0.212149
0.212104
0.212062
0.212024
0.211988
0.211956
0.211926
0.211898
0.211872
0.211849
0.211826
0.211805
0.211786
0.211768
0.21175
0.211734
0.211718
0.211703
0.211689
0.225651
0.224286
0.223042
0.221914
0.220895
0.219978
0.219154
0.218416
0.217755
0.217166
0.216639
0.21617
0.215751
0.215377
0.215043
0.214745
0.214478
0.214239
0.214025
0.213833
0.21366
0.213505
0.213365
0.213239
0.213126
0.213023
0.21293
0.212846
0.21277
0.212701
0.212638
0.212581
0.212529
0.212482
0.212439
0.212399
0.212364
0.212331
0.212301
0.212273
0.212248
0.212225
0.212203
0.212183
0.212165
0.212148
0.212132
0.212117
0.212103
0.212089
0.212077
0.212065
0.226261
0.224831
0.223529
0.222349
0.221285
0.220328
0.219471
0.218704
0.218021
0.217412
0.216869
0.216387
0.215958
0.215576
0.215237
0.214934
0.214664
0.214424
0.214209
0.214016
0.213844
0.213689
0.21355
0.213425
0.213313
0.213212
0.21312
0.213038
0.212963
0.212896
0.212835
0.21278
0.21273
0.212684
0.212643
0.212605
0.212571
0.21254
0.212512
0.212486
0.212462
0.212441
0.212421
0.212403
0.212386
0.21237
0.212356
0.212343
0.21233
0.212319
0.212308
0.212298
0.226638
0.225165
0.223825
0.222611
0.221516
0.220533
0.219653
0.218868
0.218168
0.217546
0.216993
0.216502
0.216067
0.215681
0.215337
0.215033
0.214761
0.21452
0.214305
0.214113
0.213941
0.213787
0.21365
0.213526
0.213415
0.213315
0.213225
0.213144
0.213071
0.213005
0.212946
0.212892
0.212843
0.212799
0.212759
0.212723
0.21269
0.212661
0.212634
0.212609
0.212587
0.212566
0.212548
0.212531
0.212515
0.212501
0.212488
0.212476
0.212464
0.212454
0.212444
0.212435
0.212427
0.226831
0.225337
0.223975
0.222742
0.221629
0.220631
0.219737
0.218941
0.218232
0.217602
0.217044
0.216549
0.21611
0.215722
0.215378
0.215072
0.214802
0.214561
0.214346
0.214156
0.213985
0.213833
0.213697
0.213575
0.213466
0.213367
0.213279
0.2132
0.213128
0.213064
0.213006
0.212953
0.212906
0.212863
0.212824
0.21279
0.212758
0.212729
0.212703
0.21268
0.212658
0.212639
0.212621
0.212605
0.212591
0.212577
0.212565
0.212554
0.212543
0.212534
0.212525
0.212517
0.212509
0.212502
0.226884
0.225383
0.224014
0.222773
0.221654
0.220649
0.21975
0.218949
0.218237
0.217605
0.217044
0.216548
0.21611
0.215722
0.215378
0.215074
0.214805
0.214566
0.214353
0.214164
0.213996
0.213846
0.213712
0.213592
0.213484
0.213388
0.213302
0.213224
0.213154
0.213091
0.213035
0.212984
0.212938
0.212896
0.212859
0.212825
0.212794
0.212767
0.212742
0.212719
0.212699
0.21268
0.212663
0.212648
0.212634
0.212622
0.21261
0.212599
0.21259
0.212581
0.212573
0.212565
0.212558
0.212552
0.226834
0.225338
0.223972
0.222733
0.221615
0.220611
0.219713
0.218912
0.218201
0.21757
0.217011
0.216516
0.21608
0.215694
0.215352
0.215051
0.214784
0.214547
0.214337
0.214151
0.213985
0.213838
0.213706
0.213588
0.213483
0.213389
0.213304
0.213228
0.21316
0.213099
0.213044
0.212995
0.21295
0.21291
0.212873
0.212841
0.212811
0.212785
0.212761
0.212739
0.212719
0.212702
0.212686
0.212671
0.212658
0.212646
0.212635
0.212625
0.212616
0.212608
0.212601
0.212594
0.212587
0.212581
0.22671
0.225228
0.223874
0.222643
0.221532
0.220534
0.219641
0.218845
0.218137
0.21751
0.216955
0.216464
0.21603
0.215648
0.21531
0.215011
0.214748
0.214514
0.214307
0.214124
0.213961
0.213816
0.213687
0.213572
0.213469
0.213377
0.213295
0.213221
0.213154
0.213095
0.213041
0.212993
0.21295
0.212911
0.212876
0.212845
0.212816
0.212791
0.212768
0.212747
0.212728
0.212711
0.212696
0.212682
0.21267
0.212659
0.212648
0.212639
0.212631
0.212623
0.212616
0.212609
0.212604
0.212598
0.226538
0.225075
0.223737
0.22252
0.22142
0.220432
0.219547
0.218757
0.218056
0.217434
0.216884
0.216398
0.215969
0.215591
0.215257
0.214962
0.214702
0.214472
0.214269
0.214089
0.213929
0.213787
0.21366
0.213548
0.213447
0.213357
0.213277
0.213205
0.213141
0.213083
0.213031
0.212985
0.212943
0.212905
0.212872
0.212841
0.212814
0.212789
0.212767
0.212748
0.21273
0.212714
0.212699
0.212686
0.212674
0.212664
0.212654
0.212645
0.212637
0.21263
0.212623
0.212617
0.212612
0.212607
0.226334
0.224894
0.223576
0.222375
0.22129
0.220313
0.219438
0.218658
0.217965
0.21735
0.216806
0.216326
0.215902
0.215528
0.215199
0.214908
0.214652
0.214426
0.214226
0.214048
0.213892
0.213752
0.213629
0.213519
0.21342
0.213333
0.213255
0.213185
0.213122
0.213066
0.213016
0.212971
0.212931
0.212895
0.212862
0.212833
0.212807
0.212783
0.212762
0.212743
0.212726
0.212711
0.212697
0.212685
0.212674
0.212664
0.212654
0.212646
0.212639
0.212632
0.212626
0.212621
0.212616
0.212611
0.226111
0.224697
0.2234
0.222219
0.221149
0.220186
0.219323
0.218553
0.217868
0.217261
0.216724
0.21625
0.215831
0.215463
0.215138
0.214852
0.214599
0.214376
0.21418
0.214006
0.213852
0.213716
0.213595
0.213487
0.213391
0.213306
0.21323
0.213162
0.213101
0.213047
0.212998
0.212955
0.212916
0.212881
0.21285
0.212822
0.212797
0.212774
0.212754
0.212736
0.21272
0.212705
0.212692
0.21268
0.21267
0.212661
0.212652
0.212644
0.212637
0.212631
0.212626
0.21262
0.212616
0.212612
0.225879
0.224492
0.223218
0.222056
0.221003
0.220054
0.219204
0.218445
0.217769
0.21717
0.21664
0.216173
0.21576
0.215396
0.215076
0.214794
0.214546
0.214327
0.214134
0.213963
0.213812
0.213678
0.21356
0.213454
0.213361
0.213278
0.213204
0.213138
0.213079
0.213026
0.212979
0.212937
0.212899
0.212866
0.212836
0.212809
0.212785
0.212763
0.212744
0.212727
0.212711
0.212698
0.212685
0.212674
0.212664
0.212655
0.212648
0.21264
0.212634
0.212628
0.212623
0.212618
0.212614
0.21261
0.225644
0.224284
0.223033
0.221891
0.220856
0.219922
0.219084
0.218336
0.217671
0.21708
0.216558
0.216096
0.21569
0.215331
0.215016
0.214738
0.214493
0.214278
0.214088
0.21392
0.213772
0.213641
0.213525
0.213422
0.21333
0.213249
0.213177
0.213113
0.213055
0.213004
0.212959
0.212918
0.212882
0.212849
0.212821
0.212795
0.212772
0.212751
0.212733
0.212716
0.212702
0.212689
0.212677
0.212667
0.212657
0.212649
0.212642
0.212635
0.212629
0.212624
0.212619
0.212615
0.212611
0.212608
0.225404
0.224071
0.222844
0.221723
0.220705
0.219787
0.218963
0.218226
0.217571
0.216989
0.216474
0.216019
0.215618
0.215265
0.214954
0.214681
0.21444
0.214228
0.214041
0.213876
0.213731
0.213602
0.213489
0.213388
0.213299
0.213219
0.213149
0.213087
0.213031
0.212981
0.212937
0.212898
0.212863
0.212832
0.212804
0.212779
0.212757
0.212738
0.21272
0.212705
0.212691
0.212679
0.212668
0.212658
0.212649
0.212642
0.212635
0.212629
0.212623
0.212618
0.212614
0.21261
0.212606
0.212603
0.225149
0.223845
0.222643
0.221544
0.220546
0.219644
0.218834
0.21811
0.217465
0.216893
0.216386
0.215938
0.215543
0.215196
0.21489
0.21462
0.214384
0.214175
0.213992
0.21383
0.213687
0.213562
0.21345
0.213352
0.213265
0.213188
0.213119
0.213058
0.213005
0.212957
0.212914
0.212876
0.212843
0.212813
0.212786
0.212762
0.212741
0.212723
0.212706
0.212692
0.212679
0.212667
0.212657
0.212648
0.21264
0.212633
0.212626
0.212621
0.212616
0.212611
0.212607
0.212604
0.212601
0.212598
0.22487
0.223597
0.222423
0.221349
0.220372
0.219489
0.218695
0.217985
0.217352
0.21679
0.216292
0.215852
0.215464
0.215122
0.214821
0.214557
0.214324
0.21412
0.21394
0.213781
0.213642
0.213518
0.21341
0.213314
0.213229
0.213154
0.213087
0.213029
0.212976
0.21293
0.212889
0.212853
0.21282
0.212792
0.212766
0.212744
0.212724
0.212706
0.212691
0.212677
0.212665
0.212654
0.212645
0.212636
0.212629
0.212622
0.212616
0.212611
0.212607
0.212603
0.212599
0.212596
0.212593
0.212591
0.224567
0.223329
0.222186
0.221139
0.220185
0.219323
0.218547
0.217852
0.217232
0.216681
0.216193
0.215761
0.21538
0.215045
0.21475
0.21449
0.214262
0.214062
0.213885
0.21373
0.213594
0.213473
0.213367
0.213274
0.213191
0.213118
0.213054
0.212997
0.212946
0.212902
0.212862
0.212827
0.212796
0.212769
0.212745
0.212724
0.212705
0.212688
0.212674
0.212661
0.212649
0.212639
0.212631
0.212623
0.212616
0.21261
0.212605
0.2126
0.212596
0.212593
0.212589
0.212587
0.212584
0.212582
0.224241
0.223041
0.221931
0.220913
0.219986
0.219145
0.218389
0.21771
0.217105
0.216566
0.216088
0.215666
0.215293
0.214964
0.214675
0.214421
0.214198
0.214001
0.213829
0.213677
0.213544
0.213426
0.213323
0.213232
0.213152
0.213081
0.213018
0.212963
0.212914
0.212872
0.212834
0.2128
0.212771
0.212745
0.212722
0.212702
0.212684
0.212668
0.212654
0.212642
0.212632
0.212623
0.212615
0.212608
0.212601
0.212596
0.212591
0.212587
0.212583
0.21258
0.212577
0.212575
0.212573
0.212571
0.223892
0.222732
0.221659
0.220673
0.219773
0.218957
0.218221
0.217561
0.216971
0.216445
0.215979
0.215566
0.215202
0.214881
0.214598
0.214349
0.214131
0.213939
0.21377
0.213622
0.213491
0.213377
0.213276
0.213188
0.21311
0.213041
0.212981
0.212927
0.21288
0.212839
0.212803
0.212771
0.212742
0.212718
0.212696
0.212677
0.21266
0.212645
0.212633
0.212621
0.212612
0.212603
0.212596
0.212589
0.212583
0.212579
0.212574
0.21257
0.212567
0.212564
0.212562
0.21256
0.212558
0.212556
0.22352
0.222404
0.221369
0.220418
0.219548
0.218758
0.218045
0.217404
0.21683
0.216319
0.215865
0.215462
0.215107
0.214793
0.214517
0.214274
0.214061
0.213873
0.213708
0.213564
0.213437
0.213325
0.213227
0.213141
0.213065
0.212998
0.21294
0.212888
0.212843
0.212803
0.212768
0.212738
0.212711
0.212687
0.212666
0.212648
0.212632
0.212619
0.212607
0.212596
0.212587
0.212579
0.212572
0.212566
0.212561
0.212556
0.212553
0.212549
0.212546
0.212543
0.212541
0.212539
0.212537
0.212535
0.223124
0.222055
0.221062
0.220146
0.219309
0.218547
0.217858
0.217237
0.216682
0.216185
0.215744
0.215353
0.215007
0.214701
0.214432
0.214195
0.213987
0.213803
0.213643
0.213501
0.213378
0.213269
0.213173
0.213089
0.213016
0.212951
0.212894
0.212845
0.212801
0.212762
0.212729
0.212699
0.212674
0.212651
0.212631
0.212614
0.212599
0.212586
0.212575
0.212565
0.212556
0.212549
0.212542
0.212536
0.212532
0.212527
0.212523
0.21252
0.212517
0.212515
0.212512
0.21251
0.212508
0.212506
0.222702
0.221682
0.220733
0.219857
0.219054
0.218322
0.217658
0.21706
0.216523
0.216043
0.215615
0.215236
0.214899
0.214602
0.21434
0.214109
0.213906
0.213727
0.213571
0.213433
0.213312
0.213206
0.213113
0.213031
0.21296
0.212897
0.212842
0.212793
0.212751
0.212714
0.212681
0.212653
0.212628
0.212606
0.212587
0.212571
0.212556
0.212544
0.212533
0.212523
0.212515
0.212508
0.212502
0.212496
0.212491
0.212487
0.212483
0.21248
0.212477
0.212474
0.212471
0.212469
0.212467
0.212465
0.222251
0.221284
0.220381
0.219547
0.218779
0.218079
0.217442
0.216867
0.21635
0.215887
0.215474
0.215107
0.214781
0.214492
0.214238
0.214013
0.213815
0.213641
0.213488
0.213354
0.213236
0.213133
0.213042
0.212962
0.212892
0.212831
0.212777
0.21273
0.212689
0.212653
0.212621
0.212594
0.21257
0.212548
0.21253
0.212514
0.2125
0.212488
0.212477
0.212467
0.212459
0.212452
0.212446
0.21244
0.212435
0.21243
0.212426
0.212422
0.212419
0.212416
0.212412
0.212409
0.212406
0.212403
0.221765
0.220853
0.22
0.219208
0.218479
0.217811
0.217204
0.216654
0.216158
0.215713
0.215315
0.21496
0.214645
0.214366
0.214118
0.2139
0.213708
0.213538
0.213389
0.213258
0.213143
0.213042
0.212953
0.212876
0.212807
0.212747
0.212695
0.212649
0.212608
0.212573
0.212542
0.212515
0.212491
0.21247
0.212452
0.212436
0.212422
0.212409
0.212398
0.212389
0.21238
0.212373
0.212366
0.212359
0.212354
0.212348
0.212343
0.212339
0.212334
0.21233
0.212326
0.212321
0.212317
0.212313
0.221266
0.220407
0.219602
0.218853
0.218162
0.217527
0.216948
0.216422
0.215947
0.21552
0.215137
0.214795
0.214491
0.21422
0.213981
0.213769
0.213581
0.213416
0.213271
0.213143
0.21303
0.212931
0.212844
0.212768
0.212701
0.212642
0.21259
0.212544
0.212504
0.212469
0.212438
0.212411
0.212387
0.212366
0.212347
0.212331
0.212316
0.212303
0.212292
0.212281
0.212272
0.212263
0.212255
0.212247
0.21224
0.212234
0.212227
0.212221
0.212215
0.212209
0.212203
0.212197
0.212191
0.212184
0.220729
0.219925
0.219168
0.218463
0.21781
0.217209
0.216658
0.216158
0.215704
0.215295
0.214928
0.214598
0.214305
0.214043
0.213811
0.213605
0.213423
0.213262
0.21312
0.212995
0.212884
0.212787
0.212702
0.212626
0.21256
0.212501
0.21245
0.212404
0.212364
0.212329
0.212298
0.21227
0.212245
0.212223
0.212204
0.212186
0.21217
0.212156
0.212143
0.212131
0.21212
0.212109
0.212099
0.21209
0.212081
0.212072
0.212063
0.212054
0.212046
0.212037
0.212028
0.212019
0.21201
0.212
0.220065
0.219321
0.218621
0.217965
0.217355
0.216792
0.216275
0.215803
0.215374
0.214986
0.214636
0.214322
0.21404
0.213789
0.213566
0.213367
0.21319
0.213034
0.212896
0.212773
0.212665
0.21257
0.212485
0.212411
0.212345
0.212286
0.212235
0.212189
0.212148
0.212112
0.212079
0.21205
0.212024
0.212001
0.211979
0.21196
0.211942
0.211925
0.21191
0.211895
0.211881
0.211867
0.211854
0.211842
0.211829
0.211816
0.211804
0.211791
0.211778
0.211765
0.211752
0.211738
0.211724
0.21171
0.219912
0.219207
0.218534
0.217895
0.217296
0.216736
0.216216
0.215737
0.215298
0.214897
0.214533
0.214203
0.213906
0.213639
0.2134
0.213186
0.212995
0.212826
0.212674
0.21254
0.212421
0.212315
0.212221
0.212138
0.212063
0.211997
0.211938
0.211886
0.211839
0.211796
0.211758
0.211724
0.211692
0.211663
0.211637
0.211612
0.211589
0.211568
0.211547
0.211527
0.211508
0.21149
0.211471
0.211453
0.211435
0.211417
0.211399
0.21138
0.211361
0.211342
0.211322
0.211302
0.211281
0.21126
0.211237
0.218669
0.218047
0.21745
0.216882
0.216344
0.21584
0.215369
0.214933
0.214532
0.214163
0.213827
0.213521
0.213243
0.212993
0.212768
0.212566
0.212384
0.212222
0.212076
0.211947
0.211831
0.211727
0.211634
0.211552
0.211477
0.21141
0.21135
0.211295
0.211246
0.211201
0.211159
0.211121
0.211085
0.211052
0.211021
0.210991
0.210962
0.210935
0.210908
0.210882
0.210856
0.21083
0.210804
0.210778
0.210752
0.210725
0.210698
0.21067
0.210642
0.210613
0.210583
0.210552
0.210521
0.210488
0.210454
0.216906
0.216374
0.215861
0.215368
0.214899
0.214456
0.21404
0.213653
0.213293
0.212962
0.212657
0.212379
0.212125
0.211894
0.211686
0.211497
0.211327
0.211173
0.211035
0.210911
0.210799
0.210698
0.210606
0.210524
0.210448
0.21038
0.210317
0.21026
0.210206
0.210157
0.21011
0.210066
0.210024
0.209984
0.209946
0.209908
0.209871
0.209835
0.209799
0.209763
0.209727
0.209691
0.209654
0.209616
0.209578
0.209539
0.2095
0.209459
0.209417
0.209374
0.209329
0.209284
0.209237
0.209188
0.209139
0.214196
0.213759
0.213333
0.212921
0.212526
0.21215
0.211795
0.211461
0.211149
0.21086
0.210592
0.210346
0.210119
0.209913
0.209724
0.209552
0.209395
0.209253
0.209124
0.209006
0.208899
0.208801
0.208711
0.208628
0.208552
0.208481
0.208415
0.208353
0.208294
0.208238
0.208184
0.208132
0.208082
0.208032
0.207983
0.207935
0.207886
0.207838
0.207789
0.20774
0.20769
0.207639
0.207587
0.207534
0.207479
0.207423
0.207366
0.207308
0.207247
0.207185
0.207122
0.207056
0.206989
0.20692
0.206848
0.209633
0.209291
0.208954
0.208625
0.208307
0.208002
0.207712
0.207437
0.207178
0.206936
0.20671
0.206501
0.206307
0.206128
0.205964
0.205812
0.205673
0.205545
0.205427
0.205318
0.205217
0.205124
0.205036
0.204954
0.204877
0.204803
0.204733
0.204665
0.2046
0.204536
0.204473
0.204412
0.20435
0.204289
0.204227
0.204165
0.204102
0.204039
0.203974
0.203908
0.20384
0.203771
0.203701
0.203628
0.203554
0.203478
0.2034
0.20332
0.203238
0.203153
0.203066
0.202977
0.202886
0.202792
0.202696
0.202589
0.202329
0.202071
0.201818
0.201572
0.201334
0.201106
0.20089
0.200685
0.200492
0.200312
0.200143
0.199986
0.199841
0.199705
0.19958
0.199464
0.199356
0.199255
0.19916
0.199072
0.198988
0.198908
0.198832
0.198759
0.198688
0.198619
0.19855
0.198483
0.198416
0.198349
0.198281
0.198213
0.198145
0.198074
0.198003
0.19793
0.197856
0.197779
0.197701
0.19762
0.197538
0.197453
0.197366
0.197277
0.197185
0.197091
0.196994
0.196894
0.196792
0.196688
0.196581
0.196471
0.196359
0.196244
0.194646
0.194444
0.194242
0.194043
0.193849
0.193661
0.19348
0.193307
0.193144
0.192989
0.192844
0.192707
0.19258
0.192461
0.19235
0.192246
0.192149
0.192058
0.191972
0.19189
0.191812
0.191738
0.191665
0.191595
0.191526
0.191458
0.191391
0.191324
0.191256
0.191187
0.191118
0.191047
0.190975
0.190901
0.190826
0.190748
0.190668
0.190586
0.190502
0.190415
0.190325
0.190233
0.190138
0.190041
0.189941
0.189838
0.189732
0.189623
0.189512
0.189398
0.18928
0.18916
0.189038
0.188912
0.188784
0.185258
0.185102
0.184946
0.184791
0.184639
0.184492
0.184351
0.184216
0.184087
0.183966
0.183851
0.183744
0.183643
0.183549
0.18346
0.183377
0.183298
0.183223
0.183152
0.183084
0.183018
0.182953
0.18289
0.182828
0.182765
0.182703
0.18264
0.182576
0.182511
0.182444
0.182376
0.182305
0.182233
0.182158
0.182081
0.182002
0.18192
0.181835
0.181747
0.181656
0.181563
0.181466
0.181367
0.181265
0.181159
0.181051
0.18094
0.180825
0.180708
0.180588
0.180464
0.180338
0.180209
0.180077
0.179942
0.174546
0.174428
0.17431
0.174192
0.174076
0.173964
0.173857
0.173754
0.173656
0.173564
0.173477
0.173395
0.173319
0.173247
0.173179
0.173115
0.173054
0.172996
0.17294
0.172885
0.172832
0.172779
0.172726
0.172673
0.172619
0.172564
0.172508
0.172451
0.172391
0.172329
0.172266
0.172199
0.17213
0.172059
0.171984
0.171907
0.171827
0.171744
0.171658
0.171568
0.171476
0.17138
0.171282
0.17118
0.171075
0.170967
0.170856
0.170742
0.170625
0.170504
0.170381
0.170255
0.170126
0.169994
0.169859
0.162637
0.162551
0.162464
0.162378
0.162293
0.162212
0.162133
0.162059
0.161988
0.161922
0.16186
0.161802
0.161747
0.161696
0.161648
0.161603
0.161559
0.161517
0.161476
0.161436
0.161395
0.161355
0.161314
0.161272
0.161228
0.161183
0.161136
0.161087
0.161036
0.160982
0.160926
0.160866
0.160804
0.160739
0.160671
0.1606
0.160526
0.160448
0.160368
0.160284
0.160197
0.160107
0.160014
0.159918
0.159818
0.159715
0.15961
0.159501
0.159389
0.159275
0.159157
0.159036
0.158913
0.158787
0.158658
0.149607
0.149548
0.149489
0.14943
0.149373
0.149317
0.149265
0.149215
0.149169
0.149126
0.149086
0.14905
0.149016
0.148984
0.148954
0.148926
0.148899
0.148873
0.148847
0.148821
0.148794
0.148767
0.148738
0.148708
0.148676
0.148642
0.148606
0.148568
0.148526
0.148483
0.148436
0.148386
0.148334
0.148278
0.148219
0.148157
0.148092
0.148024
0.147952
0.147878
0.1478
0.147719
0.147635
0.147548
0.147458
0.147364
0.147268
0.147169
0.147067
0.146962
0.146855
0.146744
0.146631
0.146515
0.146397
0.135416
0.135382
0.135346
0.135311
0.135277
0.135245
0.135215
0.135188
0.135163
0.135141
0.135121
0.135103
0.135088
0.135074
0.135061
0.135049
0.135038
0.135026
0.135015
0.135003
0.13499
0.134975
0.134959
0.134942
0.134922
0.1349
0.134875
0.134848
0.134819
0.134786
0.134751
0.134712
0.134671
0.134626
0.134579
0.134528
0.134474
0.134418
0.134358
0.134295
0.134229
0.134159
0.134087
0.134012
0.133935
0.133854
0.13377
0.133684
0.133595
0.133503
0.133409
0.133312
0.133212
0.13311
0.133006
0.119781
0.119766
0.119751
0.119735
0.119721
0.119709
0.119698
0.11969
0.119683
0.119678
0.119676
0.119675
0.119675
0.119676
0.119678
0.119681
0.119683
0.119686
0.119687
0.119688
0.119687
0.119685
0.119681
0.119675
0.119667
0.119657
0.119644
0.119629
0.119611
0.11959
0.119567
0.11954
0.119511
0.119478
0.119443
0.119405
0.119364
0.11932
0.119273
0.119223
0.11917
0.119114
0.119056
0.118995
0.118931
0.118865
0.118796
0.118724
0.11865
0.118574
0.118495
0.118414
0.118331
0.118245
0.118157
0.101826
0.101825
0.101824
0.101824
0.101825
0.101827
0.10183
0.101835
0.101842
0.101851
0.101861
0.101872
0.101884
0.101897
0.10191
0.101923
0.101936
0.101949
0.101961
0.101971
0.101981
0.101989
0.101995
0.101999
0.102001
0.102001
0.101998
0.101994
0.101986
0.101976
0.101964
0.101949
0.101931
0.101911
0.101887
0.101862
0.101833
0.101802
0.101769
0.101732
0.101693
0.101652
0.101608
0.101562
0.101514
0.101463
0.10141
0.101354
0.101297
0.101237
0.101175
0.101111
0.101045
0.100978
0.100908
0.0787331
0.0787335
0.0787344
0.0787363
0.0787394
0.078744
0.0787502
0.0787581
0.0787675
0.0787785
0.0787908
0.0788042
0.0788184
0.0788334
0.0788487
0.0788641
0.0788794
0.0788944
0.0789088
0.0789223
0.0789348
0.0789461
0.0789561
0.0789645
0.0789713
0.0789763
0.0789796
0.0789809
0.0789802
0.0789776
0.0789728
0.078966
0.0789571
0.0789461
0.078933
0.0789178
0.0789005
0.0788812
0.0788598
0.0788363
0.0788109
0.0787835
0.0787542
0.078723
0.0786899
0.078655
0.0786183
0.0785799
0.0785398
0.078498
0.0784546
0.0784097
0.0783632
0.0783151
0.0782657
0.0390955
0.0390587
0.0390234
0.0389899
0.0389582
0.0389285
0.0389007
0.0388748
0.0388508
0.0388286
0.0388082
0.0387892
0.0387718
0.0387557
0.0387407
0.0387268
0.0387137
0.0387015
0.0386898
0.0386787
0.0386679
0.0386575
0.0386472
0.0386371
0.038627
0.0386168
0.0386065
0.0385961
0.0385854
0.0385745
0.0385633
0.0385518
0.0385399
0.0385276
0.0385149
0.0385018
0.0384883
0.0384743
0.0384599
0.038445
0.0384296
0.0384137
0.0383974
0.0383805
0.0383632
0.0383454
0.0383272
0.0383084
0.0382892
0.0382696
0.0382494
0.0382288
0.0382078
0.0381863
0.0381643
)
;

boundaryField
{
    inlet
    {
        type            fixedValue;
        value           nonuniform 0();
    }
    outlet
    {
        type            zeroGradient;
    }
    upperWall
    {
        type            kqRWallFunction;
        value           nonuniform List<scalar> 
55
(
0.0390955
0.0390587
0.0390234
0.0389899
0.0389582
0.0389285
0.0389007
0.0388748
0.0388508
0.0388286
0.0388082
0.0387892
0.0387718
0.0387557
0.0387407
0.0387268
0.0387137
0.0387015
0.0386898
0.0386787
0.0386679
0.0386575
0.0386472
0.0386371
0.038627
0.0386168
0.0386065
0.0385961
0.0385854
0.0385745
0.0385633
0.0385518
0.0385399
0.0385276
0.0385149
0.0385018
0.0384883
0.0384743
0.0384599
0.038445
0.0384296
0.0384137
0.0383974
0.0383805
0.0383632
0.0383454
0.0383272
0.0383084
0.0382892
0.0382696
0.0382494
0.0382288
0.0382078
0.0381863
0.0381643
)
;
    }
    lowerWall
    {
        type            kqRWallFunction;
        value           nonuniform List<scalar> 
49
(
0.0571028
0.0569362
0.0567702
0.0566058
0.0564437
0.0562844
0.0561283
0.0559761
0.0558278
0.0556839
0.0555445
0.0554096
0.0552795
0.055154
0.0550332
0.0549171
0.0548056
0.0546986
0.0545959
0.0544975
0.0544033
0.0543131
0.0542268
0.0541441
0.0540651
0.0539894
0.053917
0.0538478
0.0537815
0.053718
0.0536573
0.0535991
0.0535432
0.0534897
0.0534384
0.0533891
0.0533417
0.0532961
0.0532523
0.0532101
0.0531694
0.0531301
0.0530922
0.0530556
0.0530201
0.0529857
0.0529524
0.05292
0.0528885
)
;
    }
    frontAndBack
    {
        type            empty;
    }
    procBoundary3to1
    {
        type            processor;
        value           nonuniform List<scalar> 
62
(
0.0528578
0.109521
0.138448
0.157896
0.172128
0.182825
0.182825
0.190852
0.196962
0.196962
0.201483
0.204863
0.207317
0.209068
0.210291
0.210291
0.211111
0.211675
0.212053
0.212288
0.212288
0.212419
0.212419
0.212495
0.212546
0.212576
0.212593
0.212602
0.212607
0.212608
0.212607
0.212604
0.212601
0.212595
0.212589
0.21258
0.212569
0.212554
0.212534
0.212505
0.212462
0.2124
0.212309
0.212178
0.21199
0.211695
0.211214
0.210419
0.209087
0.206775
0.202598
0.196126
0.188652
0.179804
0.169721
0.158526
0.146276
0.132899
0.118067