/*--------------------------------*- C++ -*----------------------------------*\
  =========                 |
  \\      /  F ield         | OpenFOAM: The Open Source CFD Toolbox
   \\    /   O peration     | Website:  https://openfoam.org
    \\  /    A nd           | Version:  6
     \\/     M anipulation  |
\*---------------------------------------------------------------------------*/
FoamFile
{
    version     2.0;
    format      ascii;
    class       volScalarField;
    location    "0.02";
    object      nut;
}
// * * * * * * * * * * * * * * * * * * * * * * * * * * * * * * * * * * * * * //

dimensions      [0 2 -1 0 0 0 0];

internalField   nonuniform List<scalar> 
3032
(
2.83539e-05
2.82854e-05
2.82168e-05
2.81483e-05
2.80802e-05
2.80127e-05
2.7946e-05
2.78803e-05
2.78156e-05
2.77522e-05
2.76899e-05
2.7629e-05
2.75694e-05
2.75112e-05
2.74544e-05
2.73989e-05
2.73447e-05
2.72919e-05
2.72404e-05
2.71901e-05
2.71411e-05
2.70932e-05
2.70465e-05
2.70008e-05
2.69562e-05
2.69125e-05
2.68698e-05
2.6828e-05
2.6787e-05
2.67468e-05
2.67073e-05
2.66685e-05
2.66304e-05
2.65928e-05
2.65558e-05
2.65194e-05
2.64834e-05
2.64479e-05
2.64128e-05
2.6378e-05
2.63436e-05
2.63095e-05
2.62757e-05
2.62421e-05
2.62088e-05
2.61757e-05
2.61427e-05
2.61099e-05
2.60772e-05
0.000221797
0.000220774
0.000219765
0.000218773
0.000217802
0.000216852
0.000215926
0.000215025
0.00021415
0.000213301
0.000212479
0.000211684
0.000210915
0.000210173
0.000209457
0.000208767
0.000208102
0.000207461
0.000206843
0.000206248
0.000205676
0.000205124
0.000204593
0.000204081
0.000203588
0.000203113
0.000202655
0.000202213
0.000201787
0.000201375
0.000200977
0.000200592
0.00020022
0.000199859
0.00019951
0.000199171
0.000198842
0.000198523
0.000198212
0.000197909
0.000197614
0.000197327
0.000197046
0.000196771
0.000196502
0.000196239
0.000195981
0.000195728
0.000195479
0.000388483
0.000386755
0.000385051
0.000383376
0.000381736
0.000380133
0.000378571
0.000377051
0.000375575
0.000374145
0.000372761
0.000371423
0.00037013
0.000368884
0.000367682
0.000366524
0.000365409
0.000364336
0.000363304
0.00036231
0.000361355
0.000360436
0.000359553
0.000358703
0.000357886
0.000357099
0.000356342
0.000355613
0.000354912
0.000354235
0.000353583
0.000352954
0.000352347
0.000351761
0.000351194
0.000350646
0.000350115
0.000349601
0.000349102
0.000348618
0.000348148
0.00034769
0.000347244
0.00034681
0.000346387
0.000345973
0.000345568
0.000345172
0.000344783
0.000512782
0.000510663
0.000508575
0.000506526
0.000504519
0.00050256
0.000500652
0.000498798
0.000496999
0.000495257
0.000493572
0.000491944
0.000490372
0.000488857
0.000487398
0.000485992
0.000484639
0.000483337
0.000482085
0.000480881
0.000479723
0.00047861
0.00047754
0.000476511
0.000475522
0.00047457
0.000473655
0.000472774
0.000471926
0.000471109
0.000470322
0.000469564
0.000468832
0.000468125
0.000467443
0.000466783
0.000466145
0.000465527
0.000464928
0.000464346
0.000463782
0.000463234
0.0004627
0.000462181
0.000461674
0.00046118
0.000460697
0.000460224
0.000459761
0.000607254
0.000604942
0.000602668
0.00060044
0.000598262
0.00059614
0.000594077
0.000592075
0.000590136
0.00058826
0.000586449
0.000584701
0.000583016
0.000581393
0.00057983
0.000578327
0.000576881
0.00057549
0.000574153
0.000572868
0.000571633
0.000570446
0.000569305
0.000568208
0.000567153
0.000566139
0.000565164
0.000564225
0.000563321
0.000562451
0.000561613
0.000560805
0.000560025
0.000559273
0.000558546
0.000557843
0.000557163
0.000556505
0.000555867
0.000555248
0.000554648
0.000554064
0.000553496
0.000552943
0.000552403
0.000551877
0.000551363
0.000550859
0.000550366
0.000679443
0.00067706
0.000674723
0.000672439
0.000670213
0.00066805
0.000665954
0.000663924
0.000661964
0.000660073
0.00065825
0.000656495
0.000654806
0.000653182
0.000651621
0.000650122
0.000648681
0.000647297
0.000645968
0.000644691
0.000643465
0.000642287
0.000641156
0.000640069
0.000639024
0.000638019
0.000637053
0.000636123
0.000635229
0.000634367
0.000633537
0.000632737
0.000631966
0.000631221
0.000630501
0.000629805
0.000629132
0.00062848
0.000627848
0.000627235
0.00062664
0.000626061
0.000625498
0.00062495
0.000624415
0.000623892
0.000623382
0.000622882
0.000622392
0.000734192
0.000731808
0.000729478
0.000727211
0.000725011
0.000722881
0.000720824
0.000718842
0.000716933
0.000715098
0.000713336
0.000711645
0.000710022
0.000708466
0.000706975
0.000705545
0.000704174
0.000702859
0.000701599
0.00070039
0.000699231
0.000698118
0.000697051
0.000696026
0.000695041
0.000694095
0.000693186
0.000692312
0.000691471
0.000690661
0.000689882
0.00068913
0.000688405
0.000687705
0.000687029
0.000686376
0.000685744
0.000685131
0.000684538
0.000683962
0.000683403
0.000682859
0.000682329
0.000681813
0.00068131
0.000680818
0.000680337
0.000679866
0.000679404
0.000678951
0.000775081
0.000772728
0.000770441
0.000768225
0.000766085
0.000764025
0.000762046
0.000760147
0.000758329
0.000756589
0.000754927
0.000753338
0.00075182
0.000750371
0.000748986
0.000747664
0.0007464
0.000745191
0.000744036
0.00074293
0.000741872
0.000740858
0.000739887
0.000738956
0.000738063
0.000737207
0.000736384
0.000735594
0.000734834
0.000734104
0.0007334
0.000732723
0.00073207
0.000731439
0.000730831
0.000730243
0.000729674
0.000729123
0.000728589
0.000728071
0.000727567
0.000727078
0.000726601
0.000726136
0.000725683
0.00072524
0.000724807
0.000724382
0.000723965
0.000723556
0.000805027
0.000802713
0.000800474
0.000798317
0.000796246
0.000794264
0.000792372
0.000790568
0.000788852
0.00078722
0.000785669
0.000784197
0.000782798
0.00078147
0.000780207
0.000779007
0.000777865
0.000776778
0.000775743
0.000774755
0.000773813
0.000772914
0.000772055
0.000771233
0.000770446
0.000769693
0.000768972
0.000768279
0.000767615
0.000766977
0.000766363
0.000765773
0.000765204
0.000764656
0.000764127
0.000763617
0.000763123
0.000762645
0.000762182
0.000761733
0.000761296
0.000760872
0.000760459
0.000760057
0.000759664
0.00075928
0.000758904
0.000758536
0.000758174
0.000757818
0.000757468
0.000826504
0.000824219
0.000822018
0.000819909
0.000817896
0.000815982
0.000814167
0.000812449
0.000810826
0.000809295
0.000807851
0.00080649
0.000805206
0.000803996
0.000802853
0.000801773
0.000800752
0.000799786
0.00079887
0.000798001
0.000797176
0.000796392
0.000795645
0.000794934
0.000794255
0.000793608
0.000792989
0.000792397
0.00079183
0.000791287
0.000790765
0.000790265
0.000789783
0.00078932
0.000788874
0.000788444
0.000788028
0.000787626
0.000787237
0.00078686
0.000786494
0.000786139
0.000785793
0.000785456
0.000785127
0.000784805
0.000784491
0.000784182
0.000783879
0.000783581
0.000783287
0.000841601
0.000839326
0.000837143
0.000835061
0.000833084
0.000831217
0.000829458
0.000827806
0.000826257
0.000824808
0.000823453
0.000822186
0.000821001
0.000819893
0.000818856
0.000817883
0.000816971
0.000816113
0.000815306
0.000814545
0.000813827
0.000813148
0.000812506
0.000811897
0.000811318
0.000810769
0.000810246
0.000809747
0.000809272
0.000808818
0.000808383
0.000807967
0.000807569
0.000807186
0.000806818
0.000806464
0.000806123
0.000805794
0.000805475
0.000805167
0.000804869
0.00080458
0.000804298
0.000804024
0.000803757
0.000803496
0.000803241
0.00080299
0.000802744
0.000802502
0.000802264
0.000852024
0.000849742
0.000847556
0.000845477
0.000843513
0.000841666
0.000839938
0.000838327
0.000836828
0.000835437
0.000834147
0.000832951
0.000831844
0.000830817
0.000829865
0.00082898
0.000828157
0.00082739
0.000826675
0.000826005
0.000825379
0.00082479
0.000824237
0.000823716
0.000823225
0.00082276
0.00082232
0.000821904
0.000821508
0.000821132
0.000820774
0.000820433
0.000820107
0.000819795
0.000819497
0.00081921
0.000818935
0.000818671
0.000818416
0.00081817
0.000817932
0.000817701
0.000817478
0.000817261
0.000817049
0.000816843
0.000816641
0.000816444
0.00081625
0.000816059
0.00081587
0.000859113
0.00085681
0.000854604
0.000852509
0.000850536
0.000848688
0.000846967
0.000845372
0.000843899
0.000842541
0.000841292
0.000840145
0.000839091
0.000838124
0.000837235
0.000836417
0.000835663
0.000834968
0.000834324
0.000833728
0.000833174
0.000832659
0.000832178
0.000831729
0.000831309
0.000830914
0.000830543
0.000830194
0.000829864
0.000829553
0.000829258
0.000828979
0.000828714
0.000828462
0.000828221
0.000827992
0.000827772
0.000827562
0.000827361
0.000827167
0.00082698
0.0008268
0.000826625
0.000826456
0.000826292
0.000826132
0.000825976
0.000825824
0.000825674
0.000825527
0.000825382
0.000863867
0.000861539
0.000859304
0.000857181
0.000855183
0.000853317
0.000851585
0.000849987
0.000848519
0.000847174
0.000845946
0.000844827
0.000843808
0.000842879
0.000842034
0.000841264
0.00084056
0.000839917
0.000839328
0.000838787
0.00083829
0.000837831
0.000837406
0.000837013
0.000836647
0.000836307
0.00083599
0.000835694
0.000835417
0.000835157
0.000834913
0.000834683
0.000834466
0.000834261
0.000834067
0.000833883
0.000833708
0.000833541
0.000833383
0.000833231
0.000833085
0.000832945
0.000832811
0.000832681
0.000832555
0.000832433
0.000832315
0.000832199
0.000832085
0.000831974
0.000831864
0.000831755
0.000867
0.000864649
0.000862385
0.000860229
0.0008582
0.000856306
0.000854552
0.000852938
0.000851462
0.000850116
0.000848895
0.000847788
0.000846787
0.000845883
0.000845066
0.000844328
0.00084366
0.000843054
0.000842504
0.000842004
0.000841548
0.00084113
0.000840748
0.000840397
0.000840073
0.000839775
0.000839499
0.000839243
0.000839006
0.000838785
0.000838579
0.000838387
0.000838207
0.000838038
0.00083788
0.000837731
0.00083759
0.000837458
0.000837332
0.000837212
0.000837099
0.00083699
0.000836886
0.000836787
0.000836691
0.000836598
0.000836509
0.000836422
0.000836337
0.000836254
0.000836171
0.00083609
0.00086905
0.000866685
0.000864396
0.000862211
0.00086015
0.000858225
0.000856445
0.00085481
0.000853318
0.000851964
0.00085074
0.000849637
0.000848645
0.000847755
0.000846956
0.000846239
0.000845596
0.000845018
0.000844497
0.000844027
0.000843601
0.000843216
0.000842866
0.000842546
0.000842255
0.000841988
0.000841743
0.000841518
0.000841311
0.00084112
0.000840944
0.00084078
0.000840629
0.000840488
0.000840357
0.000840234
0.00084012
0.000840013
0.000839912
0.000839817
0.000839728
0.000839643
0.000839563
0.000839486
0.000839413
0.000839343
0.000839275
0.00083921
0.000839147
0.000839085
0.000839023
0.000838962
0.000870208
0.000867846
0.000865546
0.000863342
0.000861258
0.00085931
0.000857507
0.000855853
0.000854346
0.000852982
0.000851752
0.000850649
0.000849661
0.00084878
0.000847993
0.000847291
0.000846665
0.000846107
0.000845607
0.000845159
0.000844757
0.000844394
0.000844068
0.000843772
0.000843504
0.000843261
0.000843039
0.000842837
0.000842652
0.000842483
0.000842328
0.000842186
0.000842055
0.000841934
0.000841823
0.00084172
0.000841625
0.000841536
0.000841454
0.000841377
0.000841306
0.000841238
0.000841175
0.000841115
0.000841059
0.000841005
0.000840954
0.000840905
0.000840857
0.000840811
0.000840765
0.000840719
0.000870741
0.000868394
0.000866096
0.000863886
0.000861791
0.000859831
0.000858015
0.00085635
0.000854834
0.000853463
0.000852231
0.000851128
0.000850144
0.000849269
0.000848492
0.000847802
0.00084719
0.000846646
0.000846162
0.000845731
0.000845346
0.000845001
0.000844692
0.000844414
0.000844164
0.000843938
0.000843733
0.000843548
0.000843379
0.000843226
0.000843087
0.00084296
0.000842844
0.000842738
0.00084264
0.000842551
0.00084247
0.000842395
0.000842325
0.000842261
0.000842202
0.000842147
0.000842096
0.000842048
0.000842004
0.000841961
0.000841922
0.000841884
0.000841847
0.000841812
0.000841777
0.000841742
0.000841706
0.000870894
0.000868568
0.000866282
0.000864077
0.000861982
0.000860018
0.000858199
0.000856529
0.000855011
0.000853639
0.000852408
0.000851308
0.00085033
0.000849462
0.000848694
0.000848015
0.000847414
0.000846883
0.000846412
0.000845995
0.000845624
0.000845294
0.000844999
0.000844735
0.000844499
0.000844286
0.000844094
0.000843922
0.000843766
0.000843625
0.000843497
0.000843382
0.000843277
0.000843182
0.000843095
0.000843016
0.000842945
0.000842879
0.000842819
0.000842765
0.000842715
0.000842669
0.000842626
0.000842587
0.000842551
0.000842517
0.000842485
0.000842455
0.000842427
0.000842399
0.000842372
0.000842345
0.000842318
0.000842289
0.000870813
0.000868512
0.000866243
0.000864049
0.000861962
0.000860003
0.000858188
0.000856522
0.000855006
0.000853639
0.000852413
0.000851319
0.000850348
0.000849489
0.00084873
0.000848061
0.000847471
0.000846952
0.000846493
0.000846088
0.000845729
0.000845411
0.000845128
0.000844876
0.000844651
0.00084445
0.000844269
0.000844107
0.000843961
0.00084383
0.000843711
0.000843605
0.000843509
0.000843422
0.000843344
0.000843273
0.000843209
0.000843151
0.000843098
0.000843051
0.000843007
0.000842968
0.000842932
0.000842899
0.000842869
0.000842841
0.000842815
0.000842791
0.000842768
0.000842747
0.000842725
0.000842704
0.000842681
0.000842658
0.000870589
0.000868313
0.000866064
0.000863887
0.000861814
0.000859867
0.000858061
0.000856404
0.000854897
0.000853537
0.000852319
0.000851234
0.000850272
0.000849422
0.000848674
0.000848015
0.000847436
0.000846927
0.00084648
0.000846086
0.000845738
0.00084543
0.000845158
0.000844916
0.000844701
0.000844509
0.000844337
0.000844184
0.000844046
0.000843923
0.000843813
0.000843714
0.000843625
0.000843545
0.000843473
0.000843409
0.000843351
0.000843299
0.000843252
0.00084321
0.000843172
0.000843138
0.000843107
0.000843079
0.000843053
0.00084303
0.000843009
0.000842989
0.00084297
0.000842953
0.000842935
0.000842918
0.000842899
0.00084288
0.000870281
0.000868028
0.000865802
0.000863645
0.000861589
0.000859659
0.000857867
0.000856223
0.000854727
0.000853379
0.000852172
0.000851097
0.000850145
0.000849306
0.000848567
0.000847919
0.000847351
0.000846852
0.000846415
0.000846031
0.000845693
0.000845395
0.000845132
0.000844899
0.000844692
0.000844509
0.000844345
0.000844199
0.000844069
0.000843953
0.000843849
0.000843756
0.000843674
0.0008436
0.000843533
0.000843474
0.000843421
0.000843374
0.000843332
0.000843294
0.000843261
0.000843231
0.000843204
0.00084318
0.000843158
0.000843138
0.00084312
0.000843104
0.000843089
0.000843074
0.00084306
0.000843045
0.00084303
0.000843013
0.000869927
0.000867697
0.000865493
0.000863358
0.000861324
0.000859412
0.000857638
0.000856009
0.000854528
0.000853193
0.000851998
0.000850935
0.000849994
0.000849165
0.000848437
0.000847799
0.00084724
0.000846752
0.000846324
0.000845949
0.00084562
0.000845331
0.000845076
0.000844851
0.000844652
0.000844476
0.000844319
0.00084418
0.000844056
0.000843946
0.000843848
0.000843761
0.000843683
0.000843614
0.000843553
0.000843498
0.00084345
0.000843407
0.000843369
0.000843335
0.000843305
0.000843278
0.000843254
0.000843233
0.000843215
0.000843198
0.000843183
0.000843169
0.000843157
0.000843145
0.000843133
0.00084312
0.000843107
0.000843091
0.000869552
0.000867344
0.000865164
0.000863052
0.00086104
0.000859149
0.000857394
0.000855783
0.000854318
0.000852997
0.000851815
0.000850764
0.000849834
0.000849016
0.000848298
0.00084767
0.000847121
0.000846641
0.000846222
0.000845856
0.000845535
0.000845253
0.000845006
0.000844788
0.000844596
0.000844426
0.000844275
0.000844142
0.000844024
0.000843919
0.000843826
0.000843744
0.000843671
0.000843606
0.000843549
0.000843498
0.000843453
0.000843414
0.000843379
0.000843348
0.000843321
0.000843298
0.000843277
0.000843258
0.000843242
0.000843228
0.000843215
0.000843204
0.000843193
0.000843183
0.000843173
0.000843163
0.00084315
0.000843136
0.000869175
0.000866988
0.000864831
0.000862743
0.000860754
0.000858885
0.00085715
0.000855557
0.000854108
0.000852802
0.000851633
0.000850594
0.000849676
0.000848869
0.000848161
0.000847542
0.000847001
0.00084653
0.000846119
0.00084576
0.000845446
0.000845171
0.000844931
0.000844719
0.000844533
0.000844369
0.000844224
0.000844095
0.000843982
0.000843882
0.000843793
0.000843715
0.000843646
0.000843585
0.000843531
0.000843484
0.000843443
0.000843406
0.000843374
0.000843346
0.000843322
0.0008433
0.000843282
0.000843266
0.000843252
0.000843239
0.000843229
0.000843219
0.00084321
0.000843202
0.000843193
0.000843184
0.000843173
0.000843159
0.000868806
0.000866639
0.000864505
0.000862441
0.000860475
0.000858628
0.000856914
0.000855339
0.000853907
0.000852615
0.00085146
0.000850433
0.000849526
0.000848729
0.00084803
0.000847419
0.000846887
0.000846423
0.000846019
0.000845667
0.00084536
0.000845091
0.000844856
0.00084465
0.000844469
0.00084431
0.000844169
0.000844046
0.000843937
0.00084384
0.000843756
0.000843681
0.000843615
0.000843558
0.000843507
0.000843462
0.000843424
0.00084339
0.00084336
0.000843335
0.000843312
0.000843293
0.000843277
0.000843262
0.00084325
0.000843239
0.00084323
0.000843222
0.000843215
0.000843208
0.000843201
0.000843193
0.000843183
0.00084317
0.000868454
0.000866307
0.000864195
0.000862154
0.000860211
0.000858385
0.00085669
0.000855134
0.000853718
0.000852441
0.000851299
0.000850284
0.000849388
0.000848599
0.000847909
0.000847307
0.000846782
0.000846325
0.000845927
0.000845581
0.000845279
0.000845016
0.000844785
0.000844584
0.000844407
0.000844252
0.000844116
0.000843996
0.000843891
0.000843798
0.000843716
0.000843645
0.000843582
0.000843527
0.000843479
0.000843437
0.0008434
0.000843369
0.000843341
0.000843317
0.000843297
0.00084328
0.000843265
0.000843252
0.000843241
0.000843232
0.000843224
0.000843217
0.000843211
0.000843205
0.000843199
0.000843192
0.000843183
0.00084317
0.000868114
0.000865986
0.000863896
0.000861877
0.000859955
0.000858151
0.000856475
0.000854937
0.000853537
0.000852275
0.000851146
0.000850143
0.000849257
0.000848478
0.000847796
0.000847201
0.000846682
0.000846231
0.000845839
0.000845498
0.000845202
0.000844943
0.000844717
0.00084452
0.000844347
0.000844196
0.000844063
0.000843946
0.000843844
0.000843754
0.000843675
0.000843606
0.000843546
0.000843493
0.000843447
0.000843407
0.000843373
0.000843343
0.000843317
0.000843295
0.000843277
0.000843261
0.000843247
0.000843236
0.000843226
0.000843218
0.000843211
0.000843206
0.0008432
0.000843195
0.00084319
0.000843184
0.000843176
0.000843164
0.000867764
0.000865656
0.000863588
0.000861592
0.000859693
0.00085791
0.000856256
0.000854736
0.000853354
0.000852107
0.000850992
0.000850001
0.000849126
0.000848356
0.000847683
0.000847095
0.000846583
0.000846138
0.000845752
0.000845416
0.000845124
0.000844869
0.000844648
0.000844454
0.000844285
0.000844137
0.000844007
0.000843893
0.000843794
0.000843706
0.00084363
0.000843563
0.000843505
0.000843455
0.000843411
0.000843373
0.00084334
0.000843312
0.000843288
0.000843267
0.00084325
0.000843235
0.000843223
0.000843212
0.000843204
0.000843197
0.000843191
0.000843186
0.000843182
0.000843177
0.000843173
0.000843167
0.00084316
0.000843149
0.000867383
0.000865298
0.000863254
0.000861283
0.00085941
0.000857652
0.00085602
0.000854522
0.000853159
0.00085193
0.00085083
0.000849852
0.000848988
0.000848229
0.000847564
0.000846985
0.00084648
0.000846041
0.00084566
0.000845329
0.000845042
0.000844791
0.000844574
0.000844384
0.000844218
0.000844073
0.000843946
0.000843835
0.000843738
0.000843653
0.000843579
0.000843514
0.000843458
0.000843409
0.000843367
0.000843331
0.0008433
0.000843273
0.00084325
0.000843231
0.000843214
0.000843201
0.000843189
0.00084318
0.000843172
0.000843166
0.000843161
0.000843157
0.000843153
0.000843149
0.000843145
0.00084314
0.000843134
0.000843124
0.000866957
0.000864898
0.000862882
0.000860941
0.000859096
0.000857366
0.00085576
0.000854286
0.000852945
0.000851735
0.000850652
0.000849689
0.000848838
0.000848091
0.000847436
0.000846865
0.000846367
0.000845935
0.00084556
0.000845234
0.000844951
0.000844705
0.000844491
0.000844304
0.000844142
0.000844
0.000843876
0.000843767
0.000843672
0.00084359
0.000843518
0.000843455
0.000843401
0.000843354
0.000843313
0.000843278
0.000843248
0.000843223
0.000843201
0.000843183
0.000843167
0.000843155
0.000843144
0.000843135
0.000843128
0.000843122
0.000843118
0.000843114
0.000843111
0.000843107
0.000843104
0.000843099
0.000843093
0.000843084
0.00086647
0.000864442
0.000862459
0.000860551
0.000858739
0.00085704
0.000855465
0.000854018
0.000852701
0.000851513
0.00085045
0.000849504
0.000848668
0.000847933
0.000847289
0.000846728
0.000846238
0.000845813
0.000845444
0.000845124
0.000844846
0.000844604
0.000844394
0.000844211
0.000844051
0.000843912
0.000843791
0.000843685
0.000843592
0.000843512
0.000843442
0.000843381
0.000843328
0.000843283
0.000843243
0.00084321
0.000843181
0.000843156
0.000843135
0.000843118
0.000843103
0.000843091
0.000843081
0.000843073
0.000843066
0.000843061
0.000843056
0.000843052
0.000843049
0.000843046
0.000843043
0.000843038
0.000843032
0.000843023
0.000865902
0.000863911
0.000861966
0.000860097
0.000858324
0.000856661
0.00085512
0.000853704
0.000852416
0.000851254
0.000850213
0.000849287
0.000848467
0.000847747
0.000847115
0.000846564
0.000846084
0.000845667
0.000845304
0.00084499
0.000844717
0.00084448
0.000844274
0.000844094
0.000843938
0.000843802
0.000843683
0.00084358
0.000843489
0.000843411
0.000843343
0.000843283
0.000843232
0.000843188
0.00084315
0.000843117
0.000843089
0.000843065
0.000843045
0.000843028
0.000843014
0.000843002
0.000842992
0.000842984
0.000842977
0.000842972
0.000842967
0.000842963
0.00084296
0.000842956
0.000842952
0.000842948
0.000842941
0.000842933
0.000865232
0.000863283
0.000861384
0.00085956
0.000857831
0.000856211
0.000854709
0.00085333
0.000852074
0.000850941
0.000849925
0.000849021
0.000848221
0.000847517
0.0008469
0.00084636
0.000845891
0.000845482
0.000845128
0.00084482
0.000844552
0.00084432
0.000844119
0.000843943
0.00084379
0.000843657
0.000843541
0.00084344
0.000843352
0.000843276
0.000843209
0.000843151
0.000843101
0.000843058
0.000843021
0.000842989
0.000842962
0.000842938
0.000842918
0.000842902
0.000842887
0.000842875
0.000842865
0.000842857
0.000842849
0.000842843
0.000842838
0.000842833
0.000842829
0.000842824
0.000842819
0.000842814
0.000842806
0.000842797
0.000864432
0.000862534
0.000860688
0.000858916
0.000857239
0.000855667
0.00085421
0.000852872
0.000851654
0.000850554
0.000849567
0.000848689
0.000847911
0.000847226
0.000846624
0.000846099
0.000845641
0.000845243
0.000844897
0.000844596
0.000844335
0.000844109
0.000843912
0.00084374
0.000843591
0.000843461
0.000843348
0.00084325
0.000843164
0.000843089
0.000843024
0.000842967
0.000842918
0.000842876
0.000842839
0.000842808
0.000842781
0.000842757
0.000842737
0.00084272
0.000842705
0.000842692
0.000842681
0.000842672
0.000842663
0.000842656
0.000842649
0.000842642
0.000842636
0.00084263
0.000842623
0.000842615
0.000842606
0.000842595
0.000863468
0.00086163
0.000859844
0.000858134
0.000856515
0.000854999
0.000853594
0.000852303
0.000851127
0.000850065
0.000849112
0.000848263
0.00084751
0.000846846
0.000846264
0.000845754
0.00084531
0.000844923
0.000844586
0.000844294
0.000844041
0.00084382
0.000843628
0.000843462
0.000843316
0.00084319
0.00084308
0.000842983
0.000842899
0.000842826
0.000842762
0.000842707
0.000842658
0.000842616
0.00084258
0.000842548
0.00084252
0.000842496
0.000842475
0.000842456
0.00084244
0.000842425
0.000842412
0.0008424
0.00084239
0.00084238
0.00084237
0.00084236
0.000842351
0.000842341
0.000842331
0.000842319
0.000842307
0.000842292
0.000862295
0.000860526
0.000858811
0.000857171
0.000855619
0.000854166
0.00085282
0.000851582
0.000850455
0.000849436
0.000848521
0.000847704
0.00084698
0.000846341
0.00084578
0.000845289
0.00084486
0.000844486
0.000844161
0.000843878
0.000843632
0.000843419
0.000843233
0.000843071
0.00084293
0.000842807
0.000842699
0.000842605
0.000842523
0.000842451
0.000842388
0.000842332
0.000842284
0.000842241
0.000842204
0.000842171
0.000842141
0.000842115
0.000842092
0.00084207
0.000842051
0.000842033
0.000842017
0.000842001
0.000841986
0.000841971
0.000841957
0.000841942
0.000841928
0.000841912
0.000841896
0.000841879
0.000841859
0.000841838
0.000860853
0.000859164
0.000857531
0.000855969
0.000854494
0.000853112
0.000851832
0.000850655
0.000849582
0.000848611
0.000847739
0.00084696
0.000846269
0.000845658
0.00084512
0.000844649
0.000844238
0.000843879
0.000843567
0.000843295
0.000843058
0.000842852
0.000842672
0.000842515
0.000842378
0.000842258
0.000842153
0.000842061
0.00084198
0.000841908
0.000841845
0.000841789
0.000841739
0.000841694
0.000841655
0.000841619
0.000841586
0.000841556
0.000841528
0.000841502
0.000841478
0.000841454
0.000841432
0.000841409
0.000841387
0.000841365
0.000841343
0.00084132
0.000841297
0.000841273
0.000841247
0.00084122
0.000841191
0.000841159
0.000859165
0.000857562
0.000856015
0.000854538
0.000853142
0.000851836
0.000850624
0.000849511
0.000848495
0.000847575
0.000846747
0.000846007
0.00084535
0.000844769
0.000844257
0.000843808
0.000843415
0.000843071
0.000842772
0.000842511
0.000842283
0.000842084
0.00084191
0.000841758
0.000841625
0.000841507
0.000841403
0.000841311
0.00084123
0.000841157
0.000841092
0.000841033
0.00084098
0.000840931
0.000840887
0.000840845
0.000840806
0.00084077
0.000840735
0.000840701
0.000840668
0.000840635
0.000840602
0.00084057
0.000840537
0.000840503
0.000840469
0.000840433
0.000840396
0.000840358
0.000840318
0.000840275
0.000840231
0.000840183
0.000857128
0.00085562
0.000854167
0.00085278
0.000851469
0.000850243
0.000849106
0.000848059
0.000847104
0.000846238
0.000845459
0.000844761
0.000844141
0.000843591
0.000843106
0.00084268
0.000842306
0.000841979
0.000841693
0.000841442
0.000841223
0.000841031
0.000840863
0.000840714
0.000840583
0.000840466
0.000840362
0.000840268
0.000840184
0.000840108
0.000840038
0.000839973
0.000839914
0.000839858
0.000839805
0.000839754
0.000839705
0.000839657
0.00083961
0.000839564
0.000839517
0.00083947
0.000839422
0.000839373
0.000839323
0.000839272
0.000839219
0.000839164
0.000839107
0.000839047
0.000838985
0.000838919
0.000838851
0.000838779
0.000854278
0.00085289
0.000851552
0.000850275
0.000849069
0.00084794
0.000846892
0.000845927
0.000845045
0.000844245
0.000843524
0.000842878
0.000842302
0.00084179
0.000841338
0.00084094
0.00084059
0.000840282
0.000840012
0.000839774
0.000839565
0.000839381
0.000839217
0.000839071
0.000838941
0.000838824
0.000838717
0.000838619
0.00083853
0.000838446
0.000838368
0.000838293
0.000838222
0.000838153
0.000838086
0.00083802
0.000837955
0.000837889
0.000837823
0.000837756
0.000837688
0.000837618
0.000837546
0.000837472
0.000837396
0.000837317
0.000837234
0.000837149
0.00083706
0.000836967
0.000836871
0.00083677
0.000836665
0.000836555
0.000851415
0.000850134
0.000848888
0.000847689
0.000846545
0.000845465
0.000844453
0.000843514
0.000842648
0.000841856
0.000841136
0.000840485
0.000839901
0.000839379
0.000838915
0.000838503
0.000838139
0.000837817
0.000837532
0.00083728
0.000837057
0.000836859
0.000836682
0.000836522
0.000836378
0.000836246
0.000836124
0.000836011
0.000835905
0.000835804
0.000835707
0.000835613
0.000835522
0.000835431
0.000835341
0.000835251
0.00083516
0.000835067
0.000834973
0.000834876
0.000834776
0.000834673
0.000834567
0.000834457
0.000834343
0.000834225
0.000834102
0.000833974
0.000833841
0.000833702
0.000833558
0.000833409
0.000833253
0.000833091
0.000832922
0.000844923
0.000843823
0.000842753
0.000841723
0.000840741
0.000839813
0.000838943
0.000838134
0.000837388
0.000836703
0.000836079
0.000835514
0.000835006
0.000834549
0.000834141
0.000833778
0.000833454
0.000833165
0.000832908
0.000832677
0.00083247
0.000832282
0.000832111
0.000831953
0.000831806
0.000831668
0.000831537
0.00083141
0.000831288
0.000831167
0.000831047
0.000830928
0.000830807
0.000830685
0.00083056
0.000830433
0.000830301
0.000830166
0.000830026
0.000829881
0.00082973
0.000829573
0.000829411
0.000829242
0.000829066
0.000828883
0.000828693
0.000828496
0.000828291
0.000828078
0.000827856
0.000827626
0.000827388
0.00082714
0.000826884
0.00083464
0.000833757
0.000832899
0.000832072
0.000831283
0.000830536
0.000829835
0.000829181
0.000828576
0.00082802
0.000827511
0.000827049
0.00082663
0.000826252
0.000825912
0.000825606
0.00082533
0.000825081
0.000824855
0.000824648
0.000824457
0.000824279
0.000824112
0.000823952
0.000823798
0.000823647
0.000823498
0.000823349
0.0008232
0.000823047
0.000822892
0.000822732
0.000822567
0.000822397
0.00082222
0.000822036
0.000821844
0.000821645
0.000821437
0.000821221
0.000820995
0.000820761
0.000820516
0.000820261
0.000819997
0.000819722
0.000819436
0.000819139
0.000818831
0.000818512
0.000818181
0.000817839
0.000817484
0.000817117
0.000816738
0.00081738
0.000816751
0.000816139
0.000815548
0.000814981
0.000814443
0.000813936
0.000813462
0.00081302
0.000812613
0.000812238
0.000811894
0.00081158
0.000811294
0.000811032
0.000810793
0.000810572
0.000810367
0.000810175
0.000809993
0.000809818
0.000809647
0.000809479
0.000809311
0.000809141
0.000808968
0.00080879
0.000808606
0.000808415
0.000808215
0.000808006
0.000807788
0.000807559
0.000807319
0.000807067
0.000806803
0.000806527
0.000806238
0.000805936
0.000805621
0.000805292
0.00080495
0.000804593
0.000804222
0.000803836
0.000803436
0.000803022
0.000802592
0.000802147
0.000801688
0.000801212
0.000800722
0.000800215
0.000799692
0.000799154
0.00078659
0.000786239
0.000785894
0.000785558
0.000785233
0.000784921
0.000784624
0.000784343
0.000784079
0.000783833
0.000783602
0.000783388
0.000783187
0.000783
0.000782823
0.000782654
0.000782491
0.000782332
0.000782174
0.000782015
0.000781852
0.000781685
0.00078151
0.000781327
0.000781133
0.000780927
0.000780709
0.000780477
0.000780231
0.00077997
0.000779693
0.000779399
0.000779089
0.000778761
0.000778417
0.000778055
0.000777674
0.000777276
0.00077686
0.000776425
0.000775973
0.000775501
0.000775012
0.000774503
0.000773977
0.000773431
0.000772867
0.000772285
0.000771683
0.000771063
0.000770425
0.000769767
0.000769091
0.000768396
0.000767682
0.000737961
0.000737889
0.000737813
0.000737732
0.00073765
0.000737567
0.000737485
0.000737405
0.000737328
0.000737253
0.000737181
0.00073711
0.00073704
0.000736969
0.000736896
0.000736819
0.000736736
0.000736646
0.000736546
0.000736434
0.00073631
0.000736171
0.000736016
0.000735844
0.000735654
0.000735444
0.000735215
0.000734965
0.000734694
0.000734402
0.000734088
0.000733751
0.000733393
0.000733013
0.00073261
0.000732185
0.000731737