/*--------------------------------*- C++ -*----------------------------------*\
  =========                 |
  \\      /  F ield         | OpenFOAM: The Open Source CFD Toolbox
   \\    /   O peration     | Website:  https://openfoam.org
    \\  /    A nd           | Version:  6
     \\/     M anipulation  |
\*---------------------------------------------------------------------------*/
FoamFile
{
    version     2.0;
    format      ascii;
    class       volScalarField;
    location    "0.02";
    object      p;
}
// * * * * * * * * * * * * * * * * * * * * * * * * * * * * * * * * * * * * * //

dimensions      [0 2 -2 0 0 0 0];

internalField   nonuniform List<scalar> 
3032
(
0.210318
0.211573
0.212661
0.213596
0.214389
0.21505
0.215591
0.216021
0.21635
0.216588
0.216742
0.216821
0.216833
0.216785
0.216683
0.216533
0.216341
0.216112
0.215851
0.215562
0.215249
0.214916
0.214566
0.214202
0.213826
0.213441
0.21305
0.212653
0.212253
0.211851
0.211449
0.211047
0.210647
0.21025
0.209856
0.209466
0.20908
0.2087
0.208325
0.207956
0.207593
0.207236
0.206886
0.206543
0.206206
0.205875
0.205552
0.205234
0.204923
0.206044
0.207478
0.208744
0.209855
0.210819
0.211649
0.212353
0.212942
0.213425
0.213811
0.214109
0.214326
0.21447
0.214548
0.214567
0.214533
0.214452
0.214328
0.214167
0.213973
0.213751
0.213503
0.213235
0.212947
0.212644
0.212329
0.212002
0.211667
0.211325
0.210979
0.210628
0.210275
0.209922
0.209568
0.209215
0.208864
0.208515
0.208169
0.207826
0.207487
0.207153
0.206823
0.206498
0.206178
0.205863
0.205554
0.20525
0.204951
0.204657
0.201958
0.203565
0.205003
0.206281
0.207409
0.208399
0.209258
0.209998
0.210627
0.211153
0.211586
0.211933
0.212202
0.2124
0.212534
0.212609
0.212632
0.212608
0.212542
0.212439
0.212302
0.212136
0.211945
0.211731
0.211498
0.211249
0.210985
0.210709
0.210423
0.210129
0.209829
0.209524
0.209215
0.208903
0.20859
0.208277
0.207963
0.20765
0.207339
0.20703
0.206724
0.20642
0.20612
0.205823
0.205531
0.205242
0.204957
0.204676
0.2044
0.199125
0.200838
0.20238
0.203761
0.204991
0.206081
0.207038
0.207874
0.208597
0.209215
0.209737
0.21017
0.210523
0.210801
0.211013
0.211164
0.211259
0.211305
0.211306
0.211267
0.211192
0.211085
0.21095
0.21079
0.210608
0.210408
0.21019
0.209959
0.209715
0.209462
0.209199
0.20893
0.208655
0.208376
0.208094
0.207809
0.207523
0.207237
0.206951
0.206665
0.20638
0.206098
0.205817
0.205539
0.205263
0.204991
0.204722
0.204456
0.204193
0.197082
0.198862
0.20047
0.201917
0.203212
0.204365
0.205386
0.206284
0.207069
0.207747
0.208328
0.20882
0.20923
0.209565
0.209831
0.210034
0.210181
0.210277
0.210326
0.210334
0.210304
0.210241
0.210148
0.210029
0.209886
0.209722
0.209541
0.209344
0.209133
0.20891
0.208678
0.208437
0.20819
0.207937
0.207679
0.207418
0.207154
0.206889
0.206623
0.206356
0.206089
0.205824
0.205559
0.205296
0.205035
0.204777
0.20452
0.204267
0.204015
0.195603
0.197423
0.19907
0.200555
0.201888
0.20308
0.20414
0.205076
0.205898
0.206615
0.207234
0.207764
0.208212
0.208584
0.208887
0.209128
0.209311
0.209442
0.209526
0.209568
0.209572
0.209541
0.20948
0.209391
0.209278
0.209144
0.20899
0.20882
0.208635
0.208438
0.20823
0.208012
0.207787
0.207555
0.207317
0.207076
0.20683
0.206583
0.206333
0.206083
0.205832
0.20558
0.20533
0.20508
0.204831
0.204584
0.204339
0.204096
0.203855
0.194585
0.196423
0.198088
0.199591
0.200941
0.20215
0.203228
0.204182
0.205024
0.205761
0.206401
0.206952
0.207422
0.207816
0.208142
0.208406
0.208613
0.208768
0.208876
0.208941
0.208968
0.208961
0.208923
0.208857
0.208766
0.208654
0.208521
0.208372
0.208208
0.20803
0.207841
0.207642
0.207434
0.20722
0.206999
0.206773
0.206544
0.206311
0.206075
0.205838
0.2056
0.205361
0.205123
0.204884
0.204646
0.20441
0.204174
0.20394
0.203707
0.203476
0.193942
0.195781
0.197447
0.198949
0.2003
0.20151
0.202589
0.203547
0.204393
0.205135
0.205781
0.20634
0.206819
0.207224
0.207561
0.207837
0.208057
0.208226
0.208348
0.208429
0.208472
0.20848
0.208458
0.208408
0.208333
0.208237
0.20812
0.207987
0.207838
0.207675
0.207501
0.207317
0.207124
0.206923
0.206716
0.206504
0.206287
0.206066
0.205843
0.205617
0.20539
0.205162
0.204933
0.204705
0.204476
0.204248
0.204021
0.203795
0.203571
0.203347
0.193592
0.195421
0.197074
0.198563
0.199901
0.201099
0.202168
0.203116
0.203954
0.20469
0.205332
0.205889
0.206366
0.206772
0.207111
0.207391
0.207616
0.207791
0.20792
0.208009
0.208061
0.208079
0.208067
0.208027
0.207964
0.207878
0.207774
0.207652
0.207514
0.207364
0.207201
0.207029
0.206847
0.206658
0.206462
0.20626
0.206054
0.205844
0.205631
0.205415
0.205197
0.204978
0.204758
0.204538
0.204318
0.204098
0.203878
0.20366
0.203442
0.203224
0.203008
0.193465
0.195272
0.196903
0.19837
0.199686
0.200863
0.201911
0.202841
0.203662
0.204383
0.205013
0.205559
0.206028
0.206427
0.206762
0.207039
0.207262
0.207438
0.207569
0.20766
0.207716
0.207739
0.207733
0.2077
0.207643
0.207566
0.207469
0.207355
0.207227
0.207085
0.206932
0.206768
0.206596
0.206416
0.206229
0.206036
0.205839
0.205638
0.205433
0.205226
0.205017
0.204806
0.204594
0.204381
0.204168
0.203955
0.203742
0.20353
0.203318
0.203107
0.202896
0.193493
0.195273
0.196875
0.198313
0.1996
0.200749
0.201771
0.202676
0.203475
0.204176
0.204787
0.205317
0.205773
0.20616
0.206486
0.206755
0.206973
0.207144
0.207273
0.207364
0.20742
0.207444
0.20744
0.207411
0.207359
0.207286
0.207195
0.207088
0.206966
0.206831
0.206684
0.206528
0.206363
0.206191
0.206012
0.205827
0.205637
0.205444
0.205247
0.205047
0.204845
0.204641
0.204436
0.20423
0.204023
0.203817
0.20361
0.203404
0.203198
0.202992
0.202787
0.193618
0.195367
0.196936
0.198341
0.199596
0.200713
0.201705
0.202582
0.203355
0.204032
0.204622
0.205133
0.205571
0.205944
0.206257
0.206516
0.206726
0.20689
0.207014
0.207102
0.207156
0.207179
0.207176
0.207148
0.207098
0.207029
0.206942
0.206838
0.206721
0.206592
0.206452
0.206301
0.206143
0.205977
0.205805
0.205627
0.205444
0.205257
0.205067
0.204874
0.204678
0.204481
0.204283
0.204083
0.203882
0.203681
0.203481
0.20328
0.203079
0.202879
0.202679
0.193789
0.195505
0.19704
0.198411
0.199631
0.200716
0.201676
0.202524
0.203269
0.203921
0.204488
0.204978
0.205398
0.205755
0.206055
0.206302
0.206502
0.206659
0.206777
0.206859
0.20691
0.206932
0.206928
0.2069
0.206852
0.206784
0.2067
0.2066
0.206487
0.206362
0.206227
0.206082
0.205929
0.205769
0.205603
0.205431
0.205255
0.205074
0.20489
0.204704
0.204514
0.204323
0.204131
0.203937
0.203742
0.203547
0.203351
0.203156
0.20296
0.202765
0.20257
0.193965
0.195648
0.197149
0.198485
0.199672
0.200724
0.201654
0.202472
0.20319
0.203817
0.204362
0.204832
0.205234
0.205575
0.205861
0.206096
0.206286
0.206435
0.206546
0.206624
0.206671
0.206691
0.206686
0.206658
0.20661
0.206544
0.206462
0.206366
0.206257
0.206136
0.206005
0.205865
0.205717
0.205563
0.205402
0.205236
0.205066
0.204892
0.204714
0.204533
0.20435
0.204165
0.203978
0.20379
0.203601
0.203411
0.203221
0.203031
0.20284
0.20265
0.20246
0.202269
0.194104
0.195756
0.197226
0.198531
0.199687
0.200709
0.20161
0.202402
0.203095
0.203699
0.204223
0.204674
0.20506
0.205386
0.205659
0.205884
0.206065
0.206206
0.206312
0.206385
0.20643
0.206447
0.206441
0.206414
0.206367
0.206303
0.206223
0.20613
0.206024
0.205908
0.205781
0.205646
0.205504
0.205355
0.2052
0.20504
0.204875
0.204707
0.204535
0.204361
0.204184
0.204005
0.203824
0.203641
0.203458
0.203273
0.203088
0.202903
0.202718
0.202532
0.202347
0.202161
0.194193
0.195815
0.197255
0.198531
0.199658
0.200653
0.201528
0.202295
0.202966
0.20355
0.204055
0.204489
0.20486
0.205174
0.205436
0.205651
0.205824
0.205959
0.20606
0.20613
0.206172
0.206189
0.206183
0.206156
0.206111
0.206049
0.205972
0.205882
0.205781
0.205669
0.205547
0.205418
0.205281
0.205137
0.204988
0.204834
0.204676
0.204514
0.204349
0.20418
0.20401
0.203837
0.203662
0.203485
0.203308
0.203129
0.20295
0.20277
0.20259
0.20241
0.202229
0.202049
0.19423
0.195823
0.197233
0.198481
0.199582
0.200551
0.201403
0.20215
0.202801
0.203367
0.203856
0.204276
0.204635
0.204938
0.205191
0.205399
0.205566
0.205697
0.205795
0.205863
0.205904
0.20592
0.205915
0.205889
0.205846
0.205788
0.205715
0.205629
0.205532
0.205425
0.205308
0.205184
0.205053
0.204916
0.204773
0.204625
0.204473
0.204318
0.204159
0.203997
0.203833
0.203666
0.203498
0.203327
0.203156
0.202983
0.202809
0.202635
0.202461
0.202286
0.20211
0.201935
0.194178
0.195747
0.197134
0.19836
0.199442
0.200393
0.201228
0.201959
0.202596
0.203149
0.203627
0.204038
0.204389
0.204685
0.204932
0.205136
0.2053
0.205429
0.205526
0.205593
0.205635
0.205652
0.205649
0.205626
0.205587
0.205531
0.205462
0.205381
0.205289
0.205187
0.205077
0.204958
0.204833
0.204701
0.204565
0.204423
0.204277
0.204128
0.203976
0.20382
0.203662
0.203502
0.203339
0.203175
0.203009
0.202842
0.202674
0.202505
0.202336
0.202166
0.201996
0.201825
0.201654
0.194057
0.195606
0.196976
0.198186
0.199252
0.20019
0.201013
0.201732
0.20236
0.202905
0.203376
0.20378
0.204126
0.204418
0.204662
0.204864
0.205028
0.205156
0.205253
0.205322
0.205366
0.205386
0.205385
0.205366
0.20533
0.205279
0.205215
0.205139
0.205052
0.204955
0.20485
0.204738
0.204618
0.204493
0.204362
0.204227
0.204087
0.203944
0.203798
0.203649
0.203497
0.203342
0.203186
0.203027
0.202867
0.202705
0.202543
0.20238
0.202216
0.202051
0.201885
0.201719
0.201552
0.201385
0.193886
0.195419
0.196774
0.197971
0.199026
0.199954
0.200768
0.201481
0.202102
0.202641
0.203107
0.203509
0.203851
0.204142
0.204386
0.204588
0.204752
0.204881
0.20498
0.205051
0.205097
0.205121
0.205124
0.205109
0.205078
0.205032
0.204973
0.204902
0.20482
0.204729
0.20463
0.204523
0.20441
0.20429
0.204166
0.204036
0.203903
0.203766
0.203626
0.203483
0.203337
0.203188
0.203037
0.202884
0.20273
0.202574
0.202417
0.202259
0.202099
0.201939
0.201779
0.201617
0.201454
0.201291
0.19368
0.195198
0.196542
0.197729
0.198776
0.199697
0.200505
0.201213
0.20183
0.202366
0.20283
0.203229
0.203571
0.203862
0.204106
0.204309
0.204475
0.204607
0.204709
0.204783
0.204832
0.20486
0.204867
0.204857
0.20483
0.20479
0.204736
0.204671
0.204595
0.20451
0.204416
0.204315
0.204207
0.204094
0.203975
0.203852
0.203725
0.203594
0.20346
0.203322
0.203182
0.203039
0.202894
0.202746
0.202597
0.202447
0.202295
0.202142
0.201987
0.201832
0.201676
0.201518
0.20136
0.2012
0.193452
0.194959
0.196293
0.197472
0.198512
0.199428
0.200232
0.200936
0.201551
0.202085
0.202548
0.202947
0.20329
0.203582
0.203828
0.204033
0.204201
0.204336
0.204441
0.204519
0.204573
0.204604
0.204616
0.204611
0.20459
0.204554
0.204506
0.204446
0.204376
0.204297
0.204209
0.204114
0.204012
0.203904
0.203792
0.203674
0.203553
0.203428
0.203299
0.203167
0.203032
0.202895
0.202755
0.202613
0.20247
0.202324
0.202177
0.202029
0.201879
0.201728
0.201576
0.201423
0.201268
0.201113
0.193214
0.194709
0.196035
0.197208
0.198243
0.199155
0.199956
0.200657
0.201271
0.201804
0.202268
0.202668
0.203011
0.203305
0.203553
0.203761
0.203932
0.204071
0.204179
0.204261
0.204319
0.204355
0.204372
0.204372
0.204356
0.204326
0.204283
0.204229
0.204164
0.204091
0.204009
0.203919
0.203823
0.203721
0.203614
0.203502
0.203387
0.203267
0.203144
0.203017
0.202888
0.202756
0.202622
0.202485
0.202346
0.202206
0.202064
0.20192
0.201775
0.201628
0.20148
0.201331
0.20118
0.201028
0.192972
0.194457
0.195775
0.196943
0.197973
0.198882
0.19968
0.200381
0.200993
0.201527
0.201991
0.202392
0.202738
0.203033
0.203284
0.203495
0.20367
0.203812
0.203924
0.20401
0.204072
0.204113
0.204135
0.20414
0.204129
0.204104
0.204067
0.204018
0.203959
0.203891
0.203815
0.203731
0.203641
0.203544
0.203443
0.203337
0.203226
0.203112
0.202994
0.202873
0.202749
0.202622
0.202492
0.202361
0.202227
0.202092
0.201954
0.201815
0.201674
0.201532
0.201387
0.201242
0.201095
0.200946
0.192731
0.194206
0.195518
0.19668
0.197706
0.198612
0.199409
0.200108
0.20072
0.201255
0.201719
0.202122
0.20247
0.202768
0.203022
0.203236
0.203414
0.203559
0.203676
0.203766
0.203832
0.203878
0.203905
0.203914
0.203909
0.203889
0.203857
0.203814
0.203761
0.203698
0.203627
0.203549
0.203464
0.203373
0.203277
0.203176
0.203071
0.202962
0.202849
0.202733
0.202614
0.202492
0.202367
0.20224
0.202111
0.20198
0.201848
0.201713
0.201576
0.201438
0.201297
0.201155
0.201012
0.200867
0.192492
0.193957
0.195262
0.196418
0.197441
0.198344
0.199139
0.199838
0.20045
0.200985
0.201451
0.201856
0.202206
0.202506
0.202763
0.20298
0.203162
0.203311
0.203432
0.203526
0.203597
0.203647
0.203679
0.203693
0.203693
0.203679
0.203652
0.203615
0.203567
0.20351
0.203444
0.203371
0.203292
0.203206
0.203115
0.203019
0.202919
0.202815
0.202707
0.202596
0.202482
0.202365
0.202245
0.202123
0.201998
0.201872
0.201743
0.201612
0.20148
0.201345
0.201209
0.20107
0.20093
0.200789
0.192252
0.193708
0.195006
0.196157
0.197176
0.198077
0.198871
0.199569
0.200182
0.200718
0.201186
0.201593
0.201945
0.202248
0.202508
0.202729
0.202914
0.203067
0.203192
0.203291
0.203366
0.203421
0.203458
0.203477
0.203482
0.203473
0.203452
0.20342
0.203377
0.203325
0.203265
0.203198
0.203123
0.203043
0.202957
0.202867
0.202771
0.202672
0.202569
0.202463
0.202353
0.202241
0.202125
0.202008
0.201888
0.201766
0.201641
0.201515
0.201386
0.201255
0.201123
0.200988
0.200851
0.200713
0.192017
0.193463
0.194754
0.1959
0.196915
0.197813
0.198606
0.199304
0.199917
0.200454
0.200923
0.201332
0.201687
0.201993
0.202256
0.20248
0.202669
0.202826
0.202954
0.203057
0.203137
0.203197
0.203238
0.203262
0.203272
0.203268
0.203253
0.203225
0.203188
0.203142
0.203087
0.203025
0.202956
0.20288
0.2028
0.202714
0.202624
0.202529
0.202431
0.202329
0.202224
0.202116
0.202006
0.201893
0.201777
0.201659
0.201539
0.201417
0.201292
0.201165
0.201036
0.200904
0.200771
0.200636
0.191783
0.193219
0.194502
0.195642
0.196653
0.197548
0.198339
0.199036
0.199649
0.200187
0.200658
0.201069
0.201426
0.201735
0.202001
0.202228
0.20242
0.202581
0.202713
0.202821
0.202905
0.202969
0.203015
0.203044
0.203059
0.20306
0.20305
0.203028
0.202996
0.202955
0.202906
0.202849
0.202785
0.202715
0.202639
0.202558
0.202473
0.202383
0.20229
0.202193
0.202093
0.201989
0.201883
0.201775
0.201663
0.20155
0.201434
0.201316
0.201195
0.201072
0.200947
0.200819
0.20069
0.200558
0.191546
0.192972
0.194246
0.19538
0.196387
0.197279
0.198068
0.198764
0.199377
0.199916
0.200388
0.200801
0.20116
0.201472
0.201741
0.201971
0.202167
0.202332
0.202468
0.20258
0.202669
0.202737
0.202788
0.202822
0.202842
0.202849
0.202844
0.202828
0.202801
0.202765
0.202721
0.20267
0.202611
0.202546
0.202476
0.2024
0.20232
0.202235
0.202147
0.202055
0.201959
0.201861
0.201759
0.201655
0.201549
0.20144
0.201328
0.201214
0.201098
0.200979
0.200857
0.200733
0.200607
0.20048
0.191307
0.192721
0.193986
0.195114
0.196116
0.197004
0.197791
0.198486
0.199099
0.199639
0.200112
0.200527
0.200889
0.201203
0.201475
0.201709
0.201908
0.202077
0.202218
0.202333
0.202427
0.2025
0.202556
0.202595
0.202621
0.202633
0.202633
0.202622
0.202602
0.202572
0.202533
0.202487
0.202434
0.202374
0.202309
0.202239
0.202163
0.202084
0.202001
0.201914
0.201823
0.20173
0.201633
0.201534
0.201432
0.201327
0.20122
0.20111
0.200998
0.200883
0.200766
0.200646
0.200524
0.2004
0.191063
0.192466
0.193721
0.194841
0.195838
0.196722
0.197507
0.198201
0.198814
0.199354
0.199829
0.200245
0.20061
0.200927
0.201202
0.201439
0.201643
0.201815
0.20196
0.20208
0.202178
0.202257
0.202318
0.202363
0.202394
0.202412
0.202417
0.202412
0.202397
0.202373
0.20234
0.2023
0.202252
0.202198
0.202139
0.202074
0.202004
0.20193
0.201852
0.20177
0.201684
0.201596
0.201504
0.20141
0.201313
0.201213
0.20111
0.201005
0.200897
0.200787
0.200673
0.200557
0.200439
0.200319
0.190815
0.192205
0.193449
0.194562
0.195552
0.196433
0.197214
0.197907
0.19852
0.199061
0.199537
0.199956
0.200322
0.200643
0.200921
0.201162
0.201369
0.201546
0.201695
0.20182
0.201923
0.202007
0.202074
0.202124
0.202161
0.202185
0.202197
0.202197
0.202188
0.20217
0.202143
0.202108
0.202067
0.202018
0.201964
0.201905
0.201841
0.201772
0.2017
0.201623
0.201543
0.20146
0.201373
0.201284
0.201192
0.201097
0.200999
0.200898
0.200795
0.200689
0.20058
0.200468
0.200354
0.200238
0.190562
0.191938
0.193171
0.194275
0.195259
0.196135
0.196914
0.197605
0.198218
0.198759
0.199237
0.199658
0.200027
0.20035
0.200632
0.200877
0.201088
0.201269
0.201423
0.201553
0.201662
0.201751
0.201823
0.20188
0.201922
0.201952
0.20197
0.201977
0.201974
0.201962
0.201941
0.201913
0.201877
0.201835
0.201786
0.201733
0.201675
0.201612
0.201545
0.201474
0.201399
0.201321
0.20124
0.201156
0.201069
0.200979
0.200886
0.20079
0.200691
0.20059
0.200485
0.200377
0.200268
0.200156
0.190305
0.191666
0.192888
0.193982
0.194959
0.19583
0.196606
0.197296
0.197908
0.19845
0.198929
0.199352
0.199724
0.20005
0.200335
0.200584
0.2008
0.200985
0.201144
0.201279
0.201393
0.201488
0.201566
0.201629
0.201678
0.201715
0.201739
0.201753
0.201756
0.20175
0.201735
0.201713
0.201683
0.201647
0.201605
0.201558
0.201505
0.201448
0.201387
0.201322
0.201253
0.201181
0.201105
0.201026
0.200945
0.20086
0.200772
0.200681
0.200587
0.200489
0.200389
0.200286
0.200181
0.200073
0.190047
0.191392
0.1926
0.193684
0.194654
0.19552
0.196292
0.196979
0.19759
0.198133
0.198613
0.199038
0.199412
0.199742
0.200031
0.200284
0.200504
0.200694
0.200858
0.200999
0.201119
0.20122
0.201304
0.201374
0.201429
0.201472
0.201503
0.201523
0.201533
0.201533
0.201525
0.201509
0.201486
0.201456
0.20142
0.201379
0.201333
0.201282
0.201227
0.201168
0.201105
0.201038
0.200969
0.200895
0.200819
0.200739
0.200656
0.20057
0.200481
0.200388
0.200293
0.200194
0.200093
0.19999
0.18979
0.191117
0.192311
0.193384
0.194345
0.195205
0.195972
0.196657
0.197267
0.19781
0.198291
0.198718
0.199095
0.199428
0.199721
0.199977
0.200202
0.200397
0.200567
0.200713
0.200839
0.200946
0.201037
0.201113
0.201176
0.201225
0.201263
0.20129
0.201306
0.201313
0.201311
0.201302
0.201285
0.201262
0.201233
0.201198
0.201159
0.201114
0.201065
0.201012
0.200955
0.200895
0.200831
0.200763
0.200692
0.200618
0.20054
0.200459
0.200375
0.200287
0.200196
0.200102
0.200005
0.199906
0.189531
0.190839
0.192018
0.193079
0.194031
0.194884
0.195647
0.196329
0.196937
0.197479
0.197961
0.19839
0.198769
0.199105
0.199402
0.199663
0.199893
0.200093
0.200268
0.200421
0.200553
0.200667
0.200765
0.200848
0.200917
0.200974
0.201018
0.201052
0.201075
0.201088
0.201093
0.201091
0.201081
0.201065
0.201043
0.201015
0.200982
0.200944
0.200901
0.200855
0.200804
0.200749
0.200691
0.200629
0.200564
0.200495
0.200423
0.200347
0.200268
0.200185
0.200099
0.200009
0.199917
0.199823
0.189282
0.190571
0.191735
0.192784
0.193727
0.194573
0.195331
0.196009
0.196616
0.197157
0.19764
0.19807
0.198452
0.198792
0.199092
0.199357
0.199591
0.199797
0.199978
0.200137
0.200275
0.200396
0.2005
0.20059
0.200666
0.200729
0.20078
0.20082
0.20085
0.20087
0.200882
0.200886
0.200883
0.200873
0.200858
0.200837
0.20081
0.200779
0.200743
0.200702
0.200657
0.200609
0.200556
0.2005
0.20044
0.200377
0.200309
0.200239
0.200164
0.200086
0.200005
0.19992
0.199832
0.199741
0.18904
0.190309
0.191457
0.192492
0.193424
0.194262
0.195014
0.195689
0.196293
0.196834
0.197317
0.197748
0.198133
0.198475
0.198779
0.199049
0.199288
0.199499
0.199686
0.199851
0.199996
0.200123
0.200234
0.20033
0.200413
0.200483
0.200541
0.200587
0.200624
0.200651
0.200669
0.20068
0.200684
0.200682
0.200673
0.200659
0.200639
0.200614
0.200584
0.20055
0.200512
0.200469
0.200422
0.200372
0.200317
0.200259
0.200197
0.200131
0.200062
0.199988
0.199911
0.199831
0.199747
0.199661
0.188776
0.190022
0.19115
0.192169
0.193089
0.193917
0.194662
0.195332
0.195933
0.196473
0.196957
0.19739
0.197777
0.198123
0.198432
0.198707
0.198952
0.19917
0.199363
0.199535
0.199688
0.199823
0.199942
0.200045
0.200136
0.200213
0.200278
0.200332
0.200377
0.200412
0.200438
0.200457
0.200469
0.200474
0.200473
0.200467
0.200454
0.200437
0.200414
0.200387
0.200355
0.200319
0.200279
0.200235
0.200186
0.200134
0.200077
0.200017
0.199953
0.199885
0.199813
0.199737
0.199658
0.199577
0.187137
0.188479
0.189697
0.190802
0.191803
0.192708
0.193525
0.194262
0.194927
0.195525
0.196064
0.196549
0.196984
0.197375
0.197726
0.19804
0.198322
0.198574
0.1988
0.199002
0.199183
0.199344
0.199488
0.199616
0.199728
0.199827
0.199913
0.199988
0.200051
0.200105
0.200149
0.200185
0.200213
0.200234
0.200248
0.200256
0.200258
0.200254
0.200245
0.20023
0.200211
0.200187
0.200158
0.200125
0.200087
0.200045
0.199999
0.199949
0.199895
0.199837
0.199774
0.199708
0.199637
0.199564
0.199487
0.186815
0.18812
0.189307
0.190386
0.191367
0.192256
0.193062
0.193791
0.194451
0.195047
0.195586
0.196073
0.196513
0.196909
0.197267
0.197589
0.19788
0.198142
0.198378
0.19859
0.198781
0.198954
0.199108
0.199247
0.19937
0.19948
0.199577
0.199663
0.199737
0.199802
0.199857
0.199904
0.199943
0.199974
0.199999
0.200017
0.200029
0.200035
0.200035
0.20003
0.200019
0.200004
0.199983
0.199958
0.199928
0.199894
0.199855
0.199812
0.199764
0.199712
0.199656
0.199596
0.199532
0.199464
0.199393
0.186389
0.187653
0.188807
0.18986
0.19082
0.191694
0.192489
0.193212
0.193869
0.194466
0.195008
0.1955
0.195947
0.196352
0.19672
0.197054
0.197357
0.197632
0.197882
0.198108
0.198313
0.1985
0.198668
0.198821
0.198958
0.199082
0.199193
0.199292
0.199381
0.199459
0.199528
0.199588
0.19964
0.199684
0.199721
0.199751
0.199775
0.199792
0.199803
0.199809
0.199808
0.199803
0.199792
0.199776
0.199755
0.199729
0.199699
0.199663
0.199623
0.199579
0.19953
0.199476
0.199419
0.199358
0.199293
0.185777
0.186997
0.188118
0.189145
0.190086
0.190948
0.191737
0.192458
0.193118
0.19372
0.194271
0.194775
0.195235
0.195655
0.19604
0.196391
0.196712
0.197006
0.197275
0.197521
0.197746
0.197951
0.198139
0.198311
0.198467
0.19861
0.198739
0.198857
0.198963
0.199059
0.199145
0.199221
0.19929
0.19935
0.199402
0.199447
0.199484
0.199515
0.19954
0.199558
0.19957
0.199576
0.199577
0.199572
0.199561
0.199546
0.199525
0.199499
0.199468
0.199432
0.199391
0.199346
0.199296
0.199242
0.199185
0.184806
0.18599
0.187086
0.188097
0.18903
0.189891
0.190684
0.191415
0.192088
0.192708
0.19328
0.193806
0.194291
0.194738
0.195149
0.195529
0.195879
0.196202
0.196499
0.196774
0.197027
0.197261
0.197476
0.197675
0.197858
0.198026
0.198181
0.198323
0.198453
0.198572
0.19868
0.198779
0.198868
0.198948
0.19902
0.199083
0.199139
0.199188
0.199229
0.199263
0.19929
0.199312
0.199326
0.199335
0.199337
0.199334
0.199325
0.19931
0.19929
0.199264
0.199233
0.199198
0.199157
0.199112
0.199063
0.183409
0.184578
0.185667
0.186682
0.187627
0.188506
0.189323
0.190082
0.190787
0.191443
0.192051
0.192617
0.193142
0.19363
0.194083
0.194504
0.194896
0.195259
0.195597
0.195911
0.196203
0.196474
0.196725
0.196959
0.197176
0.197377
0.197563
0.197736
0.197895
0.198042
0.198178
0.198303
0.198417
0.198521
0.198615
0.198701
0.198777
0.198845
0.198906
0.198958
0.199003
0.19904
0.199071
0.199094
0.199111
0.199121
0.199124
0.199121
0.199113
0.199098
0.199078
0.199052
0.199021
0.198986
0.198945
0.181999
0.183175
0.184279
0.185314
0.186284
0.187192
0.188042
0.188837
0.18958
0.190274
0.190923
0.191529
0.192096
0.192625
0.193119
0.19358
0.194012
0.194414
0.19479
0.195141
0.195468
0.195774
0.196059
0.196325
0.196573
0.196804
0.197019
0.197219
0.197406
0.197578
0.197739
0.197887
0.198023
0.198148
0.198263
0.198368
0.198463
0.198549
0.198626
0.198695
0.198755
0.198807
0.198851
0.198887
0.198916
0.198938
0.198953
0.198961
0.198962
0.198957
0.198946
0.198929
0.198906
0.198878
0.198844
0.180478
0.181676
0.182808
0.183876
0.184882
0.185829
0.18672
0.187557
0.188344
0.189083
0.189778
0.190429
0.191041
0.191614
0.192152
0.192657
0.19313
0.193573
0.193988
0.194377
0.194742
0.195083
0.195402
0.195701
0.195981
0.196243
0.196488
0.196716
0.196929
0.197128
0.197313
0.197484
0.197643
0.19779
0.197925
0.198049
0.198162
0.198266
0.19836
0.198444
0.198519
0.198585
0.198643
0.198692
0.198733
0.198766
0.198792
0.19881
0.198821
0.198825
0.198823
0.198814
0.198799
0.198778
0.198752
0.178906
0.180139
0.181309
0.182418
0.183467
0.184459
0.185397
0.186282
0.187116
0.187903
0.188645
0.189344
0.190002
0.190621
0.191203
0.191751
0.192266
0.192751
0.193205
0.193633
0.194034
0.194411
0.194765
0.195096
0.195408
0.1957
0.195974
0.19623
0.19647
0.196694
0.196903
0.197097
0.197278
0.197446
0.197601
0.197744
0.197875
0.197996
0.198106
0.198205
0.198295
0.198375
0.198446
0.198507
0.19856
0.198604
0.19864
0.198668
0.198688
0.198702
0.198708
0.198707
0.198699
0.198685
0.198665
0.177328
0.178604
0.179819
0.180974
0.182072
0.183113
0.184099
0.185033
0.185917
0.186753
0.187543
0.188289
0.188993
0.189657
0.190284
0.190875
0.191431
0.191956
0.192449
0.192914
0.193351
0.193763
0.19415
0.194514
0.194856
0.195178
0.19548
0.195763
0.196029
0.196277
0.19651
0.196727
0.196929
0.197117
0.197292
0.197453
0.197602
0.197739
0.197864
0.197979
0.198083
0.198176
0.198259
0.198332
0.198396
0.198451
0.198497
0.198534
0.198564
0.198585
0.1986
0.198606
0.198606
0.198598
0.198584
0.175775
0.177099
0.178363
0.179568
0.180715
0.181806
0.182843
0.183827
0.18476
0.185644
0.186481
0.187273
0.188023
0.188731
0.189401
0.190033
0.19063
0.191193
0.191724
0.192225
0.192697
0.193142
0.193562
0.193957
0.194329
0.194679
0.195008
0.195317
0.195608
0.19588
0.196135
0.196374
0.196597
0.196804
0.196997
0.197176
0.197342
0.197495
0.197635
0.197764
0.197881
0.197987
0.198082
0.198166
0.198241
0.198306
0.198361
0.198408
0.198446
0.198476
0.198498
0.198511
0.198518
0.198517
0.198508
0.174265
0.175639
0.176954
0.17821
0.179408
0.180549
0.181635
0.182668
0.183649
0.18458
0.185463
0.1863
0.187094
0.187845
0.188555
0.189227
0.189863
0.190463
0.19103
0.191566
0.192071
0.192549
0.192999
0.193424
0.193824
0.194201
0.194557
0.194891
0.195205
0.195501
0.195778
0.196037
0.19628
0.196506
0.196717
0.196913
0.197094
0.197262
0.197417
0.19756
0.197689
0.197807
0.197914
0.198009
0.198094
0.198168
0.198233
0.198288
0.198335
0.198372
0.198401
0.198422
0.198434
0.198439
0.198437
0.172797
0.174223
0.175589
0.176895
0.178143
0.179334
0.180469
0.181549
0.182577
0.183553
0.184481
0.185362
0.186197
0.186989
0.187739
0.18845
0.189122
0.189758
0.19036
0.190929
0.191467
0.191975
0.192455
0.192909
0.193337
0.19374
0.194121
0.194479
0.194816
0.195134
0.195432
0.195712
0.195973
0.196218
0.196445
0.196658
0.196855
0.197038
0.197206
0.197362
0.197504
0.197634
0.197751
0.197857
0.197952
0.198036
0.198109
0.198173
0.198227
0.198272
0.198308
0.198335
0.198354
0.198364
0.198367
0.171346
0.172824
0.174242
0.175599
0.176898
0.178137
0.17932
0.180447
0.181521
0.182542
0.183513
0.184436
0.185313
0.186145
0.186934
0.187682
0.188391
0.189062
0.189698
0.1903
0.190869
0.191408
0.191918
0.192399
0.192854
0.193284
0.193689
0.194071
0.194431
0.194771
0.19509
0.195389
0.195669
0.195932
0.196177
0.196405
0.196618
0.196815
0.196998
0.197166
0.197321
0.197462
0.197591
0.197707
0.197811
0.197904
0.197987
0.198059
0.198121
0.198173
0.198215
0.198249
0.198274
0.19829
0.198298
0.170006
0.171533
0.173
0.174405
0.175749
0.177034
0.178261
0.179432
0.180548
0.18161
0.182621
0.183584
0.184498
0.185367
0.186192
0.186974
0.187717
0.188421
0.189088
0.18972
0.190319
0.190886
0.191422
0.19193
0.19241
0.192863
0.193292
0.193696
0.194077
0.194437
0.194775
0.195093
0.195391
0.19567
0.195931
0.196174
0.196401
0.196612
0.196807
0.196988
0.197154
0.197306
0.197445
0.197571
0.197684
0.197786
0.197877
0.197956
0.198025
0.198084
0.198133
0.198173
0.198203
0.198224
0.198237
0.1691
0.170663
0.172163
0.173601
0.174977
0.176294
0.177552
0.178752
0.179897
0.180987
0.182026
0.183015
0.183955
0.184849
0.185698
0.186505
0.18727
0.187996
0.188684
0.189337
0.189955
0.190541
0.191096
0.191622
0.192118
0.192588
0.193032
0.193451
0.193847
0.19422
0.194571
0.194901
0.19521
0.195501
0.195772
0.196026
0.196262
0.196482
0.196686
0.196875
0.197049
0.197208
0.197354
0.197486
0.197605
0.197713
0.197809
0.197893
0.197967
0.19803
0.198083
0.198127
0.198161
0.198185
0.198201
)
;

boundaryField
{
    inlet
    {
        type            zeroGradient;
    }
    outlet
    {
        type            fixedValue;
        value           nonuniform 0();
    }
    upperWall
    {
        type            zeroGradient;
    }
    lowerWall
    {
        type            zeroGradient;
    }
    frontAndBack
    {
        type            empty;
    }
    procBoundary3to1
    {
        type            processor;
        value           nonuniform List<scalar> 
62
(
0.204618
0.204368
0.204127
0.203933
0.203766
0.203615
0.203615
0.203246
0.203124
0.203124
0.202792
0.202686
0.202582
0.202479
0.202375
0.202375
0.202079
0.201975
0.201868
0.201759
0.201759
0.201482
0.201482
0.201216
0.201127
0.20104
0.200956
0.200876
0.200797
0.200721
0.200646
0.200574
0.200501
0.200426
0.200351
0.200275
0.200198
0.20012
0.200042
0.199964
0.199885
0.199806
0.199726
0.199649
0.199573
0.199493
0.199408
0.199319
0.199225
0.199124
0.19901
0.198899
0.198806
0.198719
0.198639
0.198564
0.198494
0.198427
0.198362
0.198298
0.198242
0.198209
)
;
    }
    procBoundary3to2
    {
        type            processor;
        value           nonuniform List<scalar> 
58
(
0.208888
0.204432
0.20017
0.197231
0.195121
0.1936
0.192563
0.191916
0.191576
0.191467
0.19152
0.191673
0.191875
0.192082
0.19225
0.192367
0.192435
0.192407
0.192308
0.192155
0.191965
0.191753
0.191529
0.191301
0.191073
0.190846
0.190617
0.190393
0.190171
0.189946
0.18972
0.189491
0.189259
0.189024
0.188787
0.18855
0.188315
0.188079
0.187854
0.187636
0.187401
0.187401
0.18566
0.185383
0.185007
0.184449
0.183525
0.182157
0.180747
0.179209
0.177607
0.175989
0.17439
0.17283
0.17131
0.169806
0.168416
0.167474
)
;
    }
}


// ************************************************************************* //
