/*--------------------------------*- C++ -*----------------------------------*\
  =========                 |
  \\      /  F ield         | OpenFOAM: The Open Source CFD Toolbox
   \\    /   O peration     | Website:  https://openfoam.org
    \\  /    A nd           | Version:  6
     \\/     M anipulation  |
\*---------------------------------------------------------------------------*/
FoamFile
{
    version     2.0;
    format      ascii;
    class       surfaceScalarField;
    location    "0.02";
    object      phi;
}
// * * * * * * * * * * * * * * * * * * * * * * * * * * * * * * * * * * * * * //

dimensions      [0 3 -1 0 0 0 0];

internalField   nonuniform List<scalar> 
5952
(
3.2105e-07
-8.90801e-09
3.2963e-07
-8.58022e-09
3.37881e-07
-8.25082e-09
3.45802e-07
-7.92174e-09
3.53397e-07
-7.59465e-09
3.60668e-07
-7.27101e-09
3.6762e-07
-6.95209e-09
3.74259e-07
-6.63896e-09
3.80592e-07
-6.33252e-09
3.86625e-07
-6.03352e-09
3.92368e-07
-5.74254e-09
3.97828e-07
-5.46005e-09
4.03014e-07
-5.18641e-09
4.07936e-07
-4.92185e-09
4.12602e-07
-4.66653e-09
4.17023e-07
-4.42052e-09
4.21207e-07
-4.18383e-09
4.25163e-07
-3.95641e-09
4.28901e-07
-3.73815e-09
4.3243e-07
-3.52891e-09
4.35759e-07
-3.32852e-09
4.38896e-07
-3.13677e-09
4.41849e-07
-2.95344e-09
4.44627e-07
-2.77829e-09
4.47238e-07
-2.61108e-09
4.4969e-07
-2.45151e-09
4.51989e-07
-2.29934e-09
4.54144e-07
-2.1543e-09
4.5616e-07
-2.01609e-09
4.58044e-07
-1.88448e-09
4.59803e-07
-1.75917e-09
4.61443e-07
-1.63991e-09
4.6297e-07
-1.52644e-09
4.64388e-07
-1.41852e-09
4.65704e-07
-1.31588e-09
4.66922e-07
-1.21831e-09
4.68048e-07
-1.12556e-09
4.69085e-07
-1.03742e-09
4.70039e-07
-9.53674e-10
4.70913e-07
-8.7412e-10
4.71712e-07
-7.98562e-10
4.72438e-07
-7.26803e-10
4.73097e-07
-6.58671e-10
4.73691e-07
-5.93978e-10
4.74224e-07
-5.32559e-10
4.74698e-07
-4.74248e-10
4.75117e-07
-4.18876e-10
4.75483e-07
-3.66304e-10
-3.16382e-10
3.37066e-07
-1.82476e-08
3.46072e-07
-1.75869e-08
3.54744e-07
-1.6922e-08
3.63078e-07
-1.62567e-08
3.71078e-07
-1.55945e-08
3.78746e-07
-1.49385e-08
3.86085e-07
-1.42912e-08
3.93101e-07
-1.36548e-08
3.998e-07
-1.30313e-08
4.06188e-07
-1.24222e-08
4.12275e-07
-1.18288e-08
4.18067e-07
-1.12521e-08
4.23573e-07
-1.06929e-08
4.28803e-07
-1.01516e-08
4.33765e-07
-9.62878e-09
4.38469e-07
-9.1245e-09
4.42924e-07
-8.63887e-09
4.4714e-07
-8.17183e-09
4.51125e-07
-7.72322e-09
4.54888e-07
-7.2928e-09
4.5844e-07
-6.88025e-09
4.61789e-07
-6.48521e-09
4.64942e-07
-6.10723e-09
4.6791e-07
-5.74588e-09
4.707e-07
-5.40065e-09
4.73319e-07
-5.07105e-09
4.75776e-07
-4.75655e-09
4.78079e-07
-4.45661e-09
4.80233e-07
-4.17071e-09
4.82247e-07
-3.89829e-09
4.84127e-07
-3.63885e-09
4.85879e-07
-3.39184e-09
4.87509e-07
-3.15676e-09
4.89024e-07
-2.9331e-09
4.90428e-07
-2.72037e-09
4.91728e-07
-2.51809e-09
4.92928e-07
-2.3258e-09
4.94034e-07
-2.14304e-09
4.9505e-07
-1.96939e-09
4.9598e-07
-1.80442e-09
4.96829e-07
-1.64773e-09
4.97601e-07
-1.49893e-09
4.983e-07
-1.35766e-09
4.9893e-07
-1.22353e-09
4.99493e-07
-1.09623e-09
4.99994e-07
-9.75386e-10
5.00436e-07
-8.60697e-10
5.00822e-07
-7.51844e-10
-6.48531e-10
3.42862e-07
-2.77215e-08
3.51999e-07
-2.67239e-08
3.60797e-07
-2.57196e-08
3.69255e-07
-2.47145e-08
3.77374e-07
-2.37136e-08
3.85157e-07
-2.27216e-08
3.92608e-07
-2.17424e-08
3.99733e-07
-2.07794e-08
4.06537e-07
-1.98355e-08
4.13028e-07
-1.89129e-08
4.19212e-07
-1.80137e-08
4.251e-07
-1.71394e-08
4.30698e-07
-1.62912e-08
4.36016e-07
-1.54699e-08
4.41064e-07
-1.46761e-08
4.45849e-07
-1.39101e-08
4.50383e-07
-1.31721e-08
4.54673e-07
-1.24621e-08
4.58729e-07
-1.17797e-08
4.62561e-07
-1.11247e-08
4.66178e-07
-1.04966e-08
4.69587e-07
-9.89493e-09
4.72799e-07
-9.31898e-09
4.75821e-07
-8.76814e-09
4.78662e-07
-8.24168e-09
4.8133e-07
-7.73885e-09
4.83832e-07
-7.2589e-09
4.86177e-07
-6.80102e-09
4.88371e-07
-6.36443e-09
4.90421e-07
-5.94835e-09
4.92334e-07
-5.55197e-09
4.94116e-07
-5.17451e-09
4.95775e-07
-4.81521e-09
4.97315e-07
-4.47331e-09
4.98743e-07
-4.14808e-09
5.00064e-07
-3.83878e-09
5.01282e-07
-3.54474e-09
5.02405e-07
-3.26526e-09
5.03435e-07
-2.9997e-09
5.04378e-07
-2.74741e-09
5.05238e-07
-2.5078e-09
5.06019e-07
-2.28025e-09
5.06726e-07
-2.06422e-09
5.07362e-07
-1.85915e-09
5.0793e-07
-1.66451e-09
5.08434e-07
-1.4798e-09
5.08878e-07
-1.30452e-09
5.09264e-07
-1.13821e-09
-9.80399e-10
3.4704e-07
-3.72542e-08
3.56229e-07
-3.59123e-08
3.65071e-07
-3.45621e-08
3.73568e-07
-3.32114e-08
3.81722e-07
-3.1867e-08
3.89535e-07
-3.0535e-08
3.97013e-07
-2.92204e-08
4.04161e-07
-2.79278e-08
4.10987e-07
-2.6661e-08
4.17497e-07
-2.54229e-08
4.237e-07
-2.42163e-08
4.29603e-07
-2.3043e-08
4.35217e-07
-2.19047e-08
4.40549e-07
-2.08023e-08
4.4561e-07
-1.97367e-08
4.50408e-07
-1.87084e-08
4.54953e-07
-1.77174e-08
4.59255e-07
-1.67637e-08
4.63322e-07
-1.58469e-08
4.67164e-07
-1.49668e-08
4.7079e-07
-1.41226e-08
4.74209e-07
-1.33136e-08
4.77429e-07
-1.25391e-08
4.80459e-07
-1.17981e-08
4.83307e-07
-1.10898e-08
4.85981e-07
-1.04131e-08
4.88489e-07
-9.767e-09
4.90839e-07
-9.15049e-09
4.93037e-07
-8.56254e-09
4.9509e-07
-8.00207e-09
4.97007e-07
-7.46804e-09
4.98791e-07
-6.95943e-09
5.00451e-07
-6.47523e-09
5.01993e-07
-6.0144e-09
5.0342e-07
-5.576e-09
5.04741e-07
-5.15904e-09
5.05959e-07
-4.76262e-09
5.07079e-07
-4.38582e-09
5.08107e-07
-4.02776e-09
5.09047e-07
-3.68761e-09
5.09904e-07
-3.36452e-09
5.10682e-07
-3.05774e-09
5.11384e-07
-2.76648e-09
5.12015e-07
-2.49002e-09
5.12578e-07
-2.22763e-09
5.13077e-07
-1.97866e-09
5.13515e-07
-1.74243e-09
5.13895e-07
-1.51832e-09
-1.3057e-09
3.51077e-07
-4.68044e-08
3.60272e-07
-4.51067e-08
3.6911e-07
-4.34009e-08
3.77596e-07
-4.16965e-08
3.8573e-07
-4.00019e-08
3.9352e-07
-3.83243e-08
4.00969e-07
-3.66702e-08
4.08087e-07
-3.50449e-08
4.14879e-07
-3.34529e-08
4.21353e-07
-3.18979e-08
4.2752e-07
-3.0383e-08
4.33388e-07
-2.89104e-08
4.38965e-07
-2.74821e-08
4.44262e-07
-2.60992e-08
4.49288e-07
-2.47626e-08
4.54052e-07
-2.34728e-08
4.58565e-07
-2.22299e-08
4.62835e-07
-2.10338e-08
4.66872e-07
-1.9884e-08
4.70685e-07
-1.87799e-08
4.74283e-07
-1.77209e-08
4.77676e-07
-1.67059e-08
4.80871e-07
-1.5734e-08
4.83877e-07
-1.48041e-08
4.86702e-07
-1.3915e-08
4.89354e-07
-1.30655e-08
4.91841e-07
-1.22542e-08
4.94171e-07
-1.148e-08
4.9635e-07
-1.07415e-08
4.98385e-07
-1.00374e-08
5.00284e-07
-9.36645e-09
5.02051e-07
-8.72733e-09
5.03695e-07
-8.1188e-09
5.0522e-07
-7.5396e-09
5.06633e-07
-6.98852e-09
5.07938e-07
-6.46436e-09
5.09141e-07
-5.96598e-09
5.10248e-07
-5.49224e-09
5.11262e-07
-5.04205e-09
5.12189e-07
-4.61435e-09
5.13032e-07
-4.20813e-09
5.13797e-07
-3.82239e-09
5.14487e-07
-3.45617e-09
5.15105e-07
-3.10857e-09
5.15656e-07
-2.77869e-09
5.16143e-07
-2.46569e-09
5.1657e-07
-2.16874e-09
5.16939e-07
-1.88704e-09
-1.61984e-09
3.55527e-07
-5.63359e-08
3.64688e-07
-5.42675e-08
3.73481e-07
-5.21935e-08
3.81909e-07
-5.0125e-08
3.89979e-07
-4.80718e-08
3.97697e-07
-4.60424e-08
4.05071e-07
-4.4044e-08
4.12109e-07
-4.20827e-08
4.18819e-07
-4.01635e-08
4.25212e-07
-3.82906e-08
4.31296e-07
-3.64673e-08
4.37082e-07
-3.46962e-08
4.42579e-07
-3.29791e-08
4.47797e-07
-3.13175e-08
4.52747e-07
-2.97121e-08
4.57437e-07
-2.81634e-08
4.61879e-07
-2.66712e-08
4.6608e-07
-2.52355e-08
4.70052e-07
-2.38555e-08
4.73802e-07
-2.25305e-08
4.77341e-07
-2.12595e-08
4.80677e-07
-2.00414e-08
4.83818e-07
-1.8875e-08
4.86772e-07
-1.77588e-08
4.89549e-07
-1.66915e-08
4.92155e-07
-1.56716e-08
4.94598e-07
-1.46976e-08
4.96886e-07
-1.37679e-08
4.99026e-07
-1.2881e-08
5.01024e-07
-1.20354e-08
5.02887e-07
-1.12294e-08
5.04621e-07
-1.04616e-08
5.06233e-07
-9.7304e-09
5.07727e-07
-9.03442e-09
5.09111e-07
-8.37215e-09
5.10389e-07
-7.74219e-09
5.11566e-07
-7.14315e-09
5.12648e-07
-6.57369e-09
5.13638e-07
-6.03253e-09
5.14542e-07
-5.51837e-09
5.15364e-07
-5.03001e-09
5.16108e-07
-4.56627e-09
5.16778e-07
-4.12601e-09
5.17377e-07
-3.70812e-09
5.1791e-07
-3.31155e-09
5.1838e-07
-2.93527e-09
5.18789e-07
-2.57831e-09
5.19142e-07
-2.23971e-09
-1.91856e-09
3.60709e-07
-6.58092e-08
3.69793e-07
-6.33521e-08
3.78495e-07
-6.08952e-08
3.86821e-07
-5.84508e-08
3.94779e-07
-5.60298e-08
4.02378e-07
-5.36416e-08
4.09628e-07
-5.1294e-08
4.16539e-07
-4.89936e-08
4.23121e-07
-4.67457e-08
4.29385e-07
-4.45547e-08
4.35342e-07
-4.24241e-08
4.41002e-07
-4.03562e-08
4.46376e-07
-3.83532e-08
4.51475e-07
-3.6416e-08
4.56308e-07
-3.45455e-08
4.60887e-07
-3.27418e-08
4.6522e-07
-3.10047e-08
4.69318e-07
-2.93337e-08
4.73191e-07
-2.77281e-08
4.76847e-07
-2.61866e-08
4.80296e-07
-2.47082e-08
4.83546e-07
-2.32914e-08
4.86605e-07
-2.19347e-08
4.89483e-07
-2.06365e-08
4.92186e-07
-1.9395e-08
4.94723e-07
-1.82087e-08
4.97101e-07
-1.70756e-08
4.99327e-07
-1.5994e-08
5.01408e-07
-1.49621e-08
5.03351e-07
-1.3978e-08
5.05162e-07
-1.304e-08
5.06847e-07
-1.21464e-08
5.08411e-07
-1.12953e-08
5.09862e-07
-1.04851e-08
5.11204e-07
-9.71401e-09
5.12442e-07
-8.98051e-09
5.13582e-07
-8.28296e-09
5.14628e-07
-7.61981e-09
5.15585e-07
-6.98954e-09
5.16458e-07
-6.39071e-09
5.17249e-07
-5.82189e-09
5.17965e-07
-5.28173e-09
5.18608e-07
-4.76888e-09
5.19182e-07
-4.28211e-09
5.1969e-07
-3.82016e-09
5.20137e-07
-3.38185e-09
5.20525e-07
-2.96605e-09
5.20857e-07
-2.57165e-09
5.21136e-07
-2.19759e-09
-1.84287e-09
3.66851e-07
-7.51758e-08
3.7581e-07
-7.23107e-08
3.8437e-07
-6.94551e-08
3.92542e-07
-6.66225e-08
4.00336e-07
-6.38244e-08
4.07765e-07
-6.10708e-08
4.14841e-07
-5.83697e-08
4.21575e-07
-5.5728e-08
4.27981e-07
-5.3151e-08
4.34069e-07
-5.06431e-08
4.39852e-07
-4.82073e-08
4.45342e-07
-4.58462e-08
4.5055e-07
-4.35613e-08
4.55488e-07
-4.13535e-08
4.60166e-07
-3.92231e-08
4.64594e-07
-3.71702e-08
4.68783e-07
-3.51941e-08
4.72743e-07
-3.3294e-08
4.76484e-07
-3.14687e-08
4.80014e-07
-2.9717e-08
4.83343e-07
-2.80371e-08
4.8648e-07
-2.64275e-08
4.89431e-07
-2.48864e-08
4.92207e-07
-2.34117e-08
4.94813e-07
-2.20016e-08
4.97258e-07
-2.0654e-08
4.9955e-07
-1.93669e-08
5.01694e-07
-1.81381e-08
5.03698e-07
-1.69657e-08
5.05567e-07
-1.58476e-08
5.07309e-07
-1.47818e-08
5.08929e-07
-1.37662e-08
5.10432e-07
-1.27989e-08
5.11825e-07
-1.18779e-08
5.13112e-07
-1.10014e-08
5.14299e-07
-1.01674e-08
5.15391e-07
-9.37429e-09
5.16391e-07
-8.6202e-09
5.17305e-07
-7.90344e-09
5.18137e-07
-7.22237e-09
5.1889e-07
-6.5754e-09
5.19569e-07
-5.96098e-09
5.20178e-07
-5.37761e-09
5.2072e-07
-4.82387e-09
5.21198e-07
-4.29835e-09
5.21616e-07
-3.79971e-09
5.21977e-07
-3.32667e-09
5.22283e-07
-2.87799e-09
5.22538e-07
-2.45247e-09
-2.04894e-09
3.74139e-07
-8.43752e-08
3.82911e-07
-8.1083e-08
3.9127e-07
-7.78136e-08
3.99228e-07
-7.45813e-08
4.06802e-07
-7.1398e-08
4.14005e-07
-6.82737e-08
4.20852e-07
-6.52165e-08
4.27357e-07
-6.2233e-08
4.33534e-07
-5.93283e-08
4.39397e-07
-5.65062e-08
4.44959e-07
-5.37697e-08
4.50234e-07
-5.11205e-08
4.55232e-07
-4.85598e-08
4.59967e-07
-4.60881e-08
4.64449e-07
-4.37051e-08
4.68689e-07
-4.14105e-08
4.72698e-07
-3.92031e-08
4.76486e-07
-3.70816e-08
4.80062e-07
-3.50447e-08
4.83435e-07
-3.30904e-08
4.86615e-07
-3.12168e-08
4.89609e-07
-2.94219e-08
4.92426e-07
-2.77036e-08
4.95074e-07
-2.60596e-08
4.9756e-07
-2.44876e-08
4.99891e-07
-2.29853e-08
5.02075e-07
-2.15504e-08
5.04117e-07
-2.01805e-08
5.06025e-07
-1.88734e-08
5.07804e-07
-1.76266e-08
5.0946e-07
-1.64381e-08
5.11e-07
-1.53055e-08
5.12427e-07
-1.42266e-08
5.13749e-07
-1.31992e-08
5.14969e-07
-1.22214e-08
5.16092e-07
-1.12909e-08
5.17124e-07
-1.04059e-08
5.18068e-07
-9.56436e-09
5.18929e-07
-8.76441e-09
5.19711e-07
-8.00421e-09
5.20417e-07
-7.282e-09
5.21052e-07
-6.59608e-09
5.2162e-07
-5.94477e-09
5.22122e-07
-5.32649e-09
5.22564e-07
-4.73969e-09
5.22947e-07
-4.18289e-09
5.23275e-07
-3.65465e-09
5.2355e-07
-3.1536e-09
5.23776e-07
-2.6784e-09
5.23955e-07
-2.22779e-09
-1.80053e-09
3.82721e-07
-9.33329e-08
3.91234e-07
-8.95967e-08
3.99322e-07
-8.59009e-08
4.07001e-07
-8.22601e-08
4.14289e-07
-7.86861e-08
4.21204e-07
-7.51886e-08
4.27762e-07
-7.17752e-08
4.33982e-07
-6.84521e-08
4.39877e-07
-6.52235e-08
4.45463e-07
-6.20928e-08
4.50756e-07
-5.90621e-08
4.55768e-07
-5.61325e-08
4.60512e-07
-5.33044e-08
4.65002e-07
-5.05776e-08
4.69248e-07
-4.79514e-08
4.73262e-07
-4.54246e-08
4.77055e-07
-4.29955e-08
4.80636e-07
-4.06625e-08
4.84015e-07
-3.84234e-08
4.872e-07
-3.62761e-08
4.90202e-07
-3.42181e-08
4.93027e-07
-3.2247e-08
4.95683e-07
-3.03603e-08
4.98179e-07
-2.85553e-08
5.00521e-07
-2.68296e-08
5.02716e-07
-2.51805e-08
5.04771e-07
-2.36053e-08
5.06692e-07
-2.21015e-08
5.08485e-07
-2.06664e-08
5.10156e-07
-1.92976e-08
5.1171e-07
-1.79925e-08
5.13154e-07
-1.67488e-08
5.14491e-07
-1.55638e-08
5.15727e-07
-1.44354e-08
5.16867e-07
-1.33612e-08
5.17915e-07
-1.2339e-08
5.18876e-07
-1.13665e-08
5.19753e-07
-1.04417e-08
5.20551e-07
-9.56251e-09
5.21274e-07
-8.72691e-09
5.21925e-07
-7.93298e-09
5.22508e-07
-7.17885e-09
5.23026e-07
-6.46273e-09
5.23482e-07
-5.78285e-09
5.2388e-07
-5.13753e-09
5.24222e-07
-4.52517e-09
5.24512e-07
-3.94417e-09
5.24751e-07
-3.39305e-09
5.24943e-07
-2.87035e-09
5.2509e-07
-2.37468e-09
-1.90471e-09
3.92711e-07
-1.01959e-07
4.00881e-07
-9.77673e-08
4.08618e-07
-9.36374e-08
4.15942e-07
-8.95839e-08
4.22874e-07
-8.5618e-08
4.29434e-07
-8.17487e-08
4.35642e-07
-7.7983e-08
4.41515e-07
-7.43259e-08
4.47073e-07
-7.07809e-08
4.5233e-07
-6.73501e-08
4.57303e-07
-6.40348e-08
4.62005e-07
-6.08352e-08
4.66452e-07
-5.77507e-08
4.70654e-07
-5.47803e-08
4.74625e-07
-5.19224e-08
4.78376e-07
-4.91751e-08
4.81917e-07
-4.65361e-08
4.85257e-07
-4.40031e-08
4.88407e-07
-4.15733e-08
4.91375e-07
-3.92441e-08
4.9417e-07
-3.70126e-08
4.96798e-07
-3.48758e-08
4.99269e-07
-3.28309e-08
5.01589e-07
-3.0875e-08
5.03764e-07
-2.9005e-08
5.05802e-07
-2.72181e-08
5.07708e-07
-2.55114e-08
5.09488e-07
-2.38819e-08
5.11149e-07
-2.23268e-08
5.12695e-07
-2.08435e-08
5.14131e-07
-1.9429e-08
5.15463e-07
-1.80809e-08
5.16696e-07
-1.67964e-08
5.17833e-07
-1.5573e-08
5.1888e-07
-1.44082e-08
5.19841e-07
-1.32996e-08
5.20719e-07
-1.22448e-08
5.21519e-07
-1.12416e-08
5.22244e-07
-1.02878e-08
5.22899e-07
-9.38109e-09
5.23485e-07
-8.51952e-09
5.24007e-07
-7.70103e-09
5.24468e-07
-6.9237e-09
5.24871e-07
-6.18563e-09
5.25218e-07
-5.48501e-09
5.25513e-07
-4.82009e-09
5.25758e-07
-4.18918e-09
5.25956e-07
-3.59067e-09
5.26109e-07
-3.02298e-09
5.26219e-07
-2.48462e-09
-1.97415e-09
4.0418e-07
-1.1015e-07
4.11912e-07
-1.05499e-07
4.19209e-07
-1.00934e-07
4.26095e-07
-9.64705e-08
4.32595e-07
-9.21176e-08
4.3873e-07
-8.78837e-08
4.44521e-07
-8.37744e-08
4.49989e-07
-7.97937e-08
4.55152e-07
-7.59436e-08
4.60027e-07
-7.22253e-08
4.64631e-07
-6.86385e-08
4.68978e-07
-6.51824e-08
4.73082e-07
-6.18554e-08
4.76958e-07
-5.86554e-08
4.80615e-07
-5.55799e-08
4.84066e-07
-5.26261e-08
4.87321e-07
-4.9791e-08
4.90389e-07
-4.70715e-08
4.9328e-07
-4.44642e-08
4.96002e-07
-4.1966e-08
4.98563e-07
-3.95734e-08
5.0097e-07
-3.7283e-08
5.03231e-07
-3.50916e-08
5.05352e-07
-3.29958e-08
5.07339e-07
-3.09923e-08
5.09199e-07
-2.90779e-08
5.10937e-07
-2.72493e-08
5.12558e-07
-2.55035e-08
5.14069e-07
-2.38374e-08
5.15473e-07
-2.22479e-08
5.16776e-07
-2.07321e-08
5.17983e-07
-1.92872e-08
5.19097e-07
-1.79104e-08
5.20122e-07
-1.65988e-08
5.21064e-07
-1.53499e-08
5.21926e-07
-1.41611e-08
5.22711e-07
-1.30298e-08
5.23423e-07
-1.19537e-08
5.24065e-07
-1.09304e-08
5.24642e-07
-9.95748e-09
5.25155e-07
-9.03285e-09
5.25608e-07
-8.15435e-09
5.26005e-07
-7.31988e-09
5.26347e-07
-6.52747e-09
5.26637e-07
-5.77516e-09
5.26878e-07
-5.0611e-09
5.27072e-07
-4.38349e-09
5.27222e-07
-3.7406e-09
5.2733e-07
-3.13076e-09
5.27397e-07
-2.55238e-09
-2.00393e-09
4.17148e-07
-1.17792e-07
4.24336e-07
-1.12687e-07
4.31098e-07
-1.07697e-07
4.37461e-07
-1.02833e-07
4.43449e-07
-9.8106e-08
4.49087e-07
-9.35213e-08
4.54396e-07
-8.90834e-08
4.59397e-07
-8.47948e-08
4.64109e-07
-8.06561e-08
4.68551e-07
-7.66668e-08
4.72738e-07
-7.28256e-08
4.76686e-07
-6.91301e-08
4.80408e-07
-6.55775e-08
4.83917e-07
-6.21648e-08
4.87226e-07
-5.88882e-08
4.90344e-07
-5.57441e-08
4.93281e-07
-5.27288e-08
4.96048e-07
-4.98382e-08
4.98652e-07
-4.70684e-08
5.01102e-07
-4.44156e-08
5.03404e-07
-4.18759e-08
5.05567e-07
-3.94454e-08
5.07595e-07
-3.71203e-08
5.09496e-07
-3.48969e-08
5.11276e-07
-3.27717e-08
5.12939e-07
-3.0741e-08
5.14491e-07
-2.88014e-08
5.15937e-07
-2.69495e-08
5.17282e-07
-2.5182e-08
5.18529e-07
-2.34957e-08
5.19685e-07
-2.18874e-08
5.20752e-07
-2.03541e-08
5.21734e-07
-1.88928e-08
5.22636e-07
-1.75007e-08
5.23461e-07
-1.61748e-08
5.24212e-07
-1.49125e-08
5.24893e-07
-1.37111e-08
5.25508e-07
-1.2568e-08
5.26058e-07
-1.14809e-08
5.26548e-07
-1.04471e-08
5.2698e-07
-9.46451e-09
5.27356e-07
-8.53074e-09
5.2768e-07
-7.64364e-09
5.27953e-07
-6.80111e-09
5.28179e-07
-6.00111e-09
5.2836e-07
-5.24166e-09
5.28497e-07
-4.52088e-09
5.28594e-07
-3.83695e-09
5.28651e-07
-3.1881e-09
5.28671e-07
-2.57264e-09
-1.98897e-09
4.31572e-07
-1.24761e-07
4.38107e-07
-1.19222e-07
4.44237e-07
-1.13826e-07
4.49988e-07
-1.08585e-07
4.55386e-07
-1.03504e-07
4.60456e-07
-9.85906e-08
4.65218e-07
-9.3846e-08
4.69695e-07
-8.92713e-08
4.73904e-07
-8.48656e-08
4.77864e-07
-8.06269e-08
4.81591e-07
-7.65522e-08
4.85099e-07
-7.26379e-08
4.88401e-07
-6.888e-08
4.9151e-07
-6.5274e-08
4.94438e-07
-6.18154e-08
4.97193e-07
-5.84995e-08
4.99786e-07
-5.53217e-08
5.02225e-07
-5.22772e-08
5.04518e-07
-4.93615e-08
5.06672e-07
-4.657e-08
5.08695e-07
-4.38984e-08
5.10592e-07
-4.13422e-08
5.12369e-07
-3.88974e-08
5.14032e-07
-3.65599e-08
5.15586e-07
-3.43256e-08
5.17036e-07
-3.21909e-08
5.18386e-07
-3.01518e-08
5.19641e-07
-2.82049e-08
5.20806e-07
-2.63465e-08
5.21884e-07
-2.45733e-08
5.22878e-07
-2.2882e-08
5.23793e-07
-2.12693e-08
5.24633e-07
-1.97321e-08
5.25399e-07
-1.82674e-08
5.26097e-07
-1.68721e-08
5.26728e-07
-1.55436e-08
5.27296e-07
-1.42789e-08
5.27803e-07
-1.30754e-08
5.28253e-07
-1.19305e-08
5.28647e-07
-1.08417e-08
5.28989e-07
-9.80651e-09
5.29281e-07
-8.82262e-09
5.29525e-07
-7.88773e-09
5.29724e-07
-6.99965e-09
5.29879e-07
-6.15625e-09
5.29993e-07
-5.35547e-09
5.30067e-07
-4.59533e-09
5.30104e-07
-3.87395e-09
5.30105e-07
-3.18946e-09
5.30073e-07
-2.54012e-09
5.30008e-07
-1.92421e-09
-1.3401e-09
4.4734e-07
-1.30934e-07
4.53114e-07
-1.24996e-07
4.58516e-07
-1.19228e-07
4.63571e-07
-1.1364e-07
4.68304e-07
-1.08238e-07
4.72739e-07
-1.03025e-07
4.76896e-07
-9.8003e-08
4.80795e-07
-9.31704e-08
4.84455e-07
-8.85249e-08
4.87891e-07
-8.40629e-08
4.91118e-07
-7.97799e-08
4.94151e-07
-7.5671e-08
4.97002e-07
-7.17309e-08
4.99682e-07
-6.7954e-08
5.02201e-07
-6.43347e-08
5.04569e-07
-6.08674e-08
5.06794e-07
-5.75467e-08
5.08884e-07
-5.4367e-08
5.10846e-07
-5.13232e-08
5.12686e-07
-4.84101e-08
5.1441e-07
-4.56229e-08
5.16025e-07
-4.29567e-08
5.17534e-07
-4.0407e-08
5.18944e-07
-3.79695e-08
5.20258e-07
-3.56397e-08
5.21481e-07
-3.34137e-08
5.22617e-07
-3.12875e-08
5.23669e-07
-2.92571e-08
5.24641e-07
-2.73189e-08
5.25537e-07
-2.54694e-08
5.2636e-07
-2.37049e-08
5.27113e-07
-2.20223e-08
5.27799e-07
-2.04181e-08
5.28421e-07
-1.88893e-08
5.28982e-07
-1.74328e-08
5.29484e-07
-1.60456e-08
5.2993e-07
-1.47248e-08
5.30322e-07
-1.34677e-08
5.30663e-07
-1.22715e-08
5.30955e-07
-1.11337e-08
5.312e-07
-1.00517e-08
5.31401e-07
-9.02312e-09
5.31558e-07
-8.04556e-09
5.31676e-07
-7.11675e-09
5.31754e-07
-6.23449e-09
5.31795e-07
-5.39667e-09
5.31801e-07
-4.60123e-09
5.31773e-07
-3.84619e-09
5.31713e-07
-3.12965e-09
5.31623e-07
-2.44978e-09
5.31504e-07
-1.8048e-09
-1.19302e-09
4.9082e-07
-1.3637e-07
4.95884e-07
-1.3006e-07
5.00602e-07
-1.23946e-07
5.04999e-07
-1.18037e-07
5.09099e-07
-1.12338e-07
5.12924e-07
-1.06849e-07
5.16492e-07
-1.01572e-07
5.19824e-07
-9.65024e-08
5.22936e-07
-9.1637e-08
5.25844e-07
-8.69706e-08
5.28562e-07
-8.24974e-08
5.31102e-07
-7.82111e-08
5.33476e-07
-7.41051e-08
5.35695e-07
-7.01728e-08
5.37768e-07
-6.64076e-08
5.39703e-07
-6.2803e-08
5.41509e-07
-5.93526e-08
5.43193e-07
-5.60504e-08
5.4476e-07
-5.28905e-08
5.46217e-07
-4.98672e-08
5.47569e-07
-4.69751e-08
5.48822e-07
-4.42091e-08
5.49979e-07
-4.15642e-08
5.51045e-07
-3.90357e-08
5.52025e-07
-3.66191e-08
5.52921e-07
-3.43099e-08
5.53737e-07
-3.2104e-08
5.54477e-07
-2.99973e-08
5.55145e-07
-2.7986e-08
5.55742e-07
-2.60663e-08
5.56271e-07
-2.42347e-08
5.56737e-07
-2.24875e-08
5.5714e-07
-2.08215e-08
5.57484e-07
-1.92334e-08
5.57771e-07
-1.772e-08
5.58004e-07
-1.62782e-08
5.58184e-07
-1.49051e-08
5.58315e-07
-1.35979e-08
5.58397e-07
-1.23536e-08
5.58433e-07
-1.11698e-08
5.58425e-07
-1.00437e-08
5.58374e-07
-8.97281e-09
5.58284e-07
-7.95479e-09
5.58154e-07
-6.98724e-09
5.57988e-07
-6.06792e-09
5.57786e-07
-5.19463e-09
5.5755e-07
-4.36527e-09
5.57281e-07
-3.57781e-09
5.56982e-07
-2.83027e-09
5.56653e-07
-2.12076e-09
5.56295e-07
-1.44747e-09
-8.08614e-10
4.62882e-07
-1.40471e-07
4.66711e-07
-1.3389e-07
4.70289e-07
-1.27524e-07
4.73633e-07
-1.21381e-07
4.7676e-07
-1.15464e-07
4.79685e-07
-1.09775e-07
4.82425e-07
-1.04311e-07
4.84992e-07
-9.90695e-08
4.87399e-07
-9.40441e-08
4.89658e-07
-8.92292e-08
4.91778e-07
-8.46179e-08
4.9377e-07
-8.02028e-08
4.95642e-07
-7.59766e-08
4.974e-07
-7.19318e-08
4.99054e-07
-6.8061e-08
5.00608e-07
-6.43571e-08
5.02068e-07
-6.08131e-08
5.0344e-07
-5.74224e-08
5.04728e-07
-5.41786e-08
5.05937e-07
-5.10757e-08
5.0707e-07
-4.81079e-08
5.0813e-07
-4.52698e-08
5.09122e-07
-4.25561e-08
5.10048e-07
-3.99618e-08
5.10911e-07
-3.74822e-08
5.11714e-07
-3.51128e-08
5.1246e-07
-3.28492e-08
5.13149e-07
-3.06872e-08
5.13786e-07
-2.86228e-08
5.14372e-07
-2.66521e-08
5.14909e-07
-2.47716e-08
5.15399e-07
-2.29775e-08
5.15844e-07
-2.12664e-08
5.16245e-07
-1.9635e-08
5.16605e-07
-1.80801e-08
5.16926e-07
-1.65984e-08
5.17208e-07
-1.51871e-08
5.17453e-07
-1.38432e-08
5.17663e-07
-1.25638e-08
5.1784e-07
-1.13463e-08
5.17984e-07
-1.01879e-08
5.18097e-07
-9.08609e-09
5.18181e-07
-8.03847e-09
5.18236e-07
-7.04262e-09
5.18264e-07
-6.09622e-09
5.18267e-07
-5.19706e-09
5.18245e-07
-4.34298e-09
5.18199e-07
-3.53192e-09
5.1813e-07
-2.76186e-09
5.1804e-07
-2.03087e-09
5.1793e-07
-1.33708e-09
-6.78703e-10
4.35503e-07
-1.43491e-07
4.3834e-07
-1.36727e-07
4.41005e-07
-1.3019e-07
4.43512e-07
-1.23887e-07
4.4587e-07
-1.17823e-07
4.48091e-07
-1.11996e-07
4.50184e-07
-1.06405e-07
4.52158e-07
-1.01044e-07
4.54023e-07
-9.59088e-08
4.55786e-07
-9.09916e-08
4.57453e-07
-8.62851e-08
4.59031e-07
-8.17812e-08
4.60527e-07
-7.74721e-08
4.61944e-07
-7.33496e-08
4.63289e-07
-6.94058e-08
4.64565e-07
-6.56333e-08
4.65777e-07
-6.20245e-08
4.66927e-07
-5.85725e-08
4.68019e-07
-5.52707e-08
4.69056e-07
-5.21126e-08
4.70041e-07
-4.90924e-08
4.70975e-07
-4.62042e-08
4.71862e-07
-4.34428e-08
4.72703e-07
-4.08028e-08
4.735e-07
-3.82795e-08
4.74255e-07
-3.58681e-08
4.7497e-07
-3.35643e-08
4.75647e-07
-3.13637e-08
4.76286e-07
-2.92622e-08
4.7689e-07
-2.72559e-08
4.7746e-07
-2.53412e-08
4.77996e-07
-2.35142e-08
4.78502e-07
-2.17715e-08
4.78976e-07
-2.01098e-08
4.79422e-07
-1.85257e-08
4.7984e-07
-1.70162e-08
4.80231e-07
-1.5578e-08
4.80596e-07
-1.42084e-08
4.80936e-07
-1.29043e-08
4.81253e-07
-1.16632e-08
4.81548e-07
-1.04822e-08
4.8182e-07
-9.35878e-09
4.82072e-07
-8.29049e-09
4.82305e-07
-7.27489e-09
4.82518e-07
-6.30966e-09
4.82714e-07
-5.39254e-09
4.82892e-07
-4.52136e-09
4.83054e-07
-3.69401e-09
4.83201e-07
-2.90848e-09
4.83333e-07
-2.16279e-09
4.83451e-07
-1.45505e-09
4.83555e-07
-7.8343e-10
-1.46162e-10
4.08792e-07
-1.45664e-07
4.10855e-07
-1.38789e-07
4.12813e-07
-1.32148e-07
4.14673e-07
-1.25748e-07
4.16442e-07
-1.19592e-07
4.18126e-07
-1.1368e-07
4.1973e-07
-1.08009e-07
4.21259e-07
-1.02574e-07
4.22719e-07
-9.73688e-08
4.24114e-07
-9.23867e-08
4.25449e-07
-8.76195e-08
4.26726e-07
-8.30589e-08
4.27951e-07
-7.86965e-08
4.29125e-07
-7.45241e-08
4.30253e-07
-7.05334e-08
4.31336e-07
-6.67165e-08
4.32377e-07
-6.30658e-08
4.33379e-07
-5.95742e-08
4.34343e-07
-5.62347e-08
4.35271e-07
-5.30409e-08
4.36166e-07
-4.99865e-08
4.37027e-07
-4.70658e-08
4.37858e-07
-4.42731e-08
4.38658e-07
-4.16033e-08
4.3943e-07
-3.90514e-08
4.40174e-07
-3.66126e-08
4.40892e-07
-3.42823e-08
4.41585e-07
-3.20564e-08
4.42253e-07
-2.99305e-08
4.42898e-07
-2.79009e-08
4.43521e-07
-2.59635e-08
4.44122e-07
-2.41149e-08
4.44701e-07
-2.23515e-08
4.45261e-07
-2.06698e-08
4.45802e-07
-1.90665e-08
4.46325e-07
-1.75386e-08
4.46829e-07
-1.60828e-08
4.47317e-07
-1.46962e-08
4.47789e-07
-1.33761e-08
4.48245e-07
-1.21194e-08
4.48687e-07
-1.09237e-08
4.49114e-07
-9.78625e-09
4.49528e-07
-8.70457e-09
4.4993e-07
-7.67625e-09
4.50319e-07
-6.69893e-09
4.50697e-07
-5.77035e-09
4.51064e-07
-4.88833e-09
4.5142e-07
-4.05075e-09
4.51767e-07
-3.25556e-09
4.52105e-07
-2.50078e-09
4.52435e-07
-1.78452e-09
4.52756e-07
-1.10492e-09
4.5307e-07
-4.60181e-10
1.51427e-10
3.82935e-07
-1.47193e-07
3.84411e-07
-1.40265e-07
3.85836e-07
-1.33573e-07
3.87213e-07
-1.27125e-07
3.88543e-07
-1.20923e-07
3.8983e-07
-1.14966e-07
3.91075e-07
-1.09253e-07
3.9228e-07
-1.03779e-07
3.93448e-07
-9.85365e-08
3.9458e-07
-9.35191e-08
3.95679e-07
-8.87185e-08
3.96747e-07
-8.41264e-08
3.97785e-07
-7.97343e-08
3.98794e-07
-7.55337e-08
3.99777e-07
-7.15164e-08
4.00735e-07
-6.76743e-08
4.01669e-07
-6.39997e-08
4.0258e-07
-6.04853e-08
4.03469e-07
-5.71242e-08
4.04338e-07
-5.39096e-08
4.05187e-07
-5.08355e-08
4.06017e-07
-4.78958e-08
4.06829e-07
-4.5085e-08
4.07623e-07
-4.23978e-08
4.08401e-07
-3.98291e-08
4.09163e-07
-3.73742e-08
4.09909e-07
-3.50285e-08
4.1064e-07
-3.27876e-08
4.11357e-07
-3.06474e-08
4.1206e-07
-2.8604e-08
4.1275e-07
-2.66534e-08
4.13427e-07
-2.4792e-08
4.14092e-07
-2.30164e-08
4.14745e-07
-2.13229e-08
4.15387e-07
-1.97085e-08
4.16018e-07
-1.81698e-08
4.16639e-07
-1.67037e-08
4.1725e-07
-1.53074e-08
4.17852e-07
-1.39779e-08
4.18445e-07
-1.27125e-08
4.1903e-07
-1.15084e-08
4.19607e-07
-1.0363e-08
4.20176e-07
-9.27385e-09
4.20738e-07
-8.23852e-09
4.21294e-07
-7.25464e-09
4.21844e-07
-6.31994e-09
4.22387e-07
-5.43223e-09
4.22926e-07
-4.58938e-09
4.2346e-07
-3.78935e-09
4.23989e-07
-3.03015e-09
4.24515e-07
-2.30986e-09
4.25036e-07
-1.62663e-09
4.25555e-07
-9.78652e-10
-3.6418e-10
3.58123e-07
-1.48248e-07
3.59169e-07
-1.41311e-07
3.60206e-07
-1.3461e-07
3.61232e-07
-1.28151e-07
3.62247e-07
-1.21937e-07
3.6325e-07
-1.15969e-07
3.6424e-07
-1.10244e-07
3.65218e-07
-1.04757e-07
3.66183e-07
-9.95017e-08
3.67136e-07
-9.44718e-08
3.68076e-07
-8.96589e-08
3.69005e-07
-8.50549e-08
3.69921e-07
-8.06512e-08
3.70827e-07
-7.64394e-08
3.71722e-07
-7.24112e-08
3.72606e-07
-6.85587e-08
3.73481e-07
-6.48741e-08
3.74346e-07
-6.13501e-08
3.75201e-07
-5.79796e-08
3.76048e-07
-5.47562e-08
3.76885e-07
-5.16734e-08
3.77715e-07
-4.87254e-08
3.78537e-07
-4.59066e-08
3.79351e-07
-4.32117e-08
3.80157e-07
-4.06355e-08
3.80956e-07
-3.81734e-08
3.81748e-07
-3.58207e-08
3.82534e-07
-3.35732e-08
3.83313e-07
-3.14266e-08
3.84086e-07
-2.93769e-08
3.84853e-07
-2.74204e-08
3.85615e-07
-2.55534e-08
3.86371e-07
-2.37723e-08
3.87121e-07
-2.20737e-08
3.87867e-07
-2.04544e-08
3.88609e-07
-1.89111e-08
3.89346e-07
-1.74407e-08
3.90079e-07
-1.60403e-08
3.90808e-07
-1.47071e-08
3.91533e-07
-1.34381e-08
3.92256e-07
-1.22308e-08
3.92975e-07
-1.10825e-08
3.93692e-07
-9.99071e-09
3.94407e-07
-8.95304e-09
3.95119e-07
-7.96712e-09
3.9583e-07
-7.03067e-09
3.96539e-07
-6.1415e-09
3.97247e-07
-5.2975e-09
3.97954e-07
-4.4966e-09
3.98661e-07
-3.73683e-09
3.99368e-07
-3.01626e-09
4.00074e-07
-2.33303e-09
4.00781e-07
-1.68534e-09
-1.07142e-09
3.34522e-07
-1.48965e-07
3.35265e-07
-1.42054e-07
3.36029e-07
-1.35374e-07
3.36811e-07
-1.28933e-07
3.37607e-07
-1.22734e-07
3.38416e-07
-1.16778e-07
3.39234e-07
-1.11062e-07
3.4006e-07
-1.05583e-07
3.40893e-07
-1.00334e-07
3.4173e-07
-9.53089e-08
3.42571e-07
-9.04999e-08
3.43415e-07
-8.58988e-08
3.44261e-07
-8.14974e-08
3.45109e-07
-7.72873e-08
3.45958e-07
-7.32605e-08
3.46808e-07
-6.94089e-08
3.47659e-07
-6.5725e-08
3.4851e-07
-6.22014e-08
3.49362e-07
-5.88312e-08
3.50214e-07
-5.56079e-08
3.51065e-07
-5.25251e-08
3.51917e-07
-4.95771e-08
3.52768e-07
-4.67581e-08
3.5362e-07
-4.4063e-08
3.54471e-07
-4.14866e-08
3.55322e-07
-3.90243e-08
3.56172e-07
-3.66713e-08
3.57023e-07
-3.44235e-08
3.57873e-07
-3.22767e-08
3.58723e-07
-3.02269e-08
3.59573e-07
-2.82702e-08
3.60422e-07
-2.64031e-08
3.61272e-07
-2.4622e-08
3.62122e-07
-2.29235e-08
3.62972e-07
-2.13044e-08
3.63822e-07
-1.97613e-08
3.64673e-07
-1.82914e-08
3.65524e-07
-1.68915e-08
3.66376e-07
-1.55589e-08
3.67229e-07
-1.42908e-08
3.68082e-07
-1.30844e-08
3.68937e-07
-1.19373e-08
3.69793e-07
-1.08468e-08
3.70651e-07
-9.81065e-09
3.7151e-07
-8.82639e-09
3.72371e-07
-7.89179e-09
3.73234e-07
-7.00466e-09
3.741e-07
-6.16289e-09
3.74968e-07
-5.36443e-09
3.75838e-07
-4.60729e-09
3.76711e-07
-3.88955e-09
3.77588e-07
-3.20936e-09
3.78467e-07
-2.5649e-09
-1.95441e-09
3.12256e-07
-1.49455e-07
3.12795e-07
-1.42592e-07
3.13377e-07
-1.35956e-07
3.13997e-07
-1.29553e-07
3.14651e-07
-1.23388e-07
3.15335e-07
-1.17461e-07
3.16044e-07
-1.11772e-07
3.16777e-07
-1.06315e-07
3.17529e-07
-1.01087e-07
3.18299e-07
-9.60793e-08
3.19086e-07
-9.12861e-08
3.19886e-07
-8.66992e-08
3.20699e-07
-8.23104e-08
3.21524e-07
-7.81119e-08
3.22359e-07
-7.40955e-08
3.23203e-07
-7.02535e-08
3.24057e-07
-6.65784e-08
3.24918e-07
-6.3063e-08
3.25787e-07
-5.97004e-08
3.26664e-07
-5.64841e-08
3.27547e-07
-5.3408e-08
3.28436e-07
-5.04663e-08
3.29331e-07
-4.76533e-08
3.30232e-07
-4.49638e-08
3.31138e-07
-4.23928e-08
3.32049e-07
-3.99356e-08
3.32966e-07
-3.75877e-08
3.33887e-07
-3.53447e-08
3.34813e-07
-3.32025e-08
3.35743e-07
-3.11572e-08
3.36678e-07
-2.9205e-08
3.37617e-07
-2.73422e-08
3.3856e-07
-2.55654e-08
3.39508e-07
-2.38712e-08
3.4046e-07
-2.22563e-08
3.41416e-07
-2.07175e-08
3.42376e-07
-1.92517e-08
3.43341e-07
-1.78561e-08
3.4431e-07
-1.65278e-08
3.45283e-07
-1.5264e-08
3.4626e-07
-1.4062e-08
3.47242e-07
-1.29193e-08
3.48229e-07
-1.18334e-08
3.4922e-07
-1.08018e-08
3.50216e-07
-9.82227e-09
3.51217e-07
-8.89249e-09
3.52222e-07
-8.0103e-09
3.53233e-07
-7.17358e-09
3.54249e-07
-6.38029e-09
3.5527e-07
-5.62846e-09
3.56297e-07
-4.91616e-09
3.57329e-07
-4.24154e-09
3.58367e-07
-3.60279e-09
-2.99816e-09
2.91399e-07
-1.49802e-07
2.91811e-07
-1.43004e-07
2.9228e-07
-1.36426e-07
2.92803e-07
-1.30076e-07
2.93372e-07
-1.23957e-07
2.93984e-07
-1.18073e-07
2.94632e-07
-1.12421e-07
2.95315e-07
-1.06998e-07
2.96028e-07
-1.01799e-07
2.96768e-07
-9.68192e-08
2.97532e-07
-9.20507e-08
2.98319e-07
-8.74861e-08
2.99126e-07
-8.31178e-08
2.99953e-07