/*--------------------------------*- C++ -*----------------------------------*\
  =========                 |
  \\      /  F ield         | OpenFOAM: The Open Source CFD Toolbox
   \\    /   O peration     | Website:  https://openfoam.org
    \\  /    A nd           | Version:  6
     \\/     M anipulation  |
\*---------------------------------------------------------------------------*/
FoamFile
{
    version     2.0;
    format      ascii;
    class       volVectorField;
    location    "0.02";
    object      U;
}
// * * * * * * * * * * * * * * * * * * * * * * * * * * * * * * * * * * * * * //

dimensions      [0 1 -1 0 0 0 0];

internalField   nonuniform List<vector> 
3032
(
(0.287022 -0.00803095 0)
(0.29513 -0.0076813 -4.12836e-21)
(0.30295 -0.00733668 -4.11032e-21)
(0.310483 -0.00699852 -4.09044e-21)
(0.317728 -0.00666802 0)
(0.324688 -0.00634616 4.04614e-21)
(0.331365 -0.00603371 0)
(0.337765 -0.00573127 -3.99714e-21)
(0.343893 -0.00543929 -3.97133e-21)
(0.349754 -0.00515807 0)
(0.355356 -0.0048878 0)
(0.360706 -0.00462856 0)
(0.36581 -0.00438036 -3.86268e-21)
(0.370677 -0.00414311 0)
(0.375316 -0.00391665 0)
(0.379733 -0.00370079 0)
(0.383937 -0.00349528 0)
(0.387937 -0.00329983 0)
(0.39174 -0.00311415 0)
(0.395354 -0.00293789 0)
(0.398788 -0.00277073 0)
(0.402049 -0.0026123 3.61246e-21)
(0.405145 -0.00246227 0)
(0.408082 -0.00232026 0)
(0.410869 -0.00218592 -3.53263e-21)
(0.413511 -0.00205892 -3.50666e-21)
(0.416017 -0.00193889 0)
(0.418391 -0.00182551 3.45576e-21)
(0.420641 -0.00171846 -3.43084e-21)
(0.422772 -0.00161741 0)
(0.424791 -0.00152206 3.38209e-21)
(0.426701 -0.00143212 0)
(0.42851 -0.0013473 0)
(0.430222 -0.00126734 -3.31165e-21)
(0.431841 -0.00119199 0)
(0.433373 -0.00112098 3.26646e-21)
(0.434822 -0.0010541 0)
(0.436192 -0.000991112 -3.22263e-21)
(0.437487 -0.000931809 -3.20122e-21)
(0.438711 -0.00087599 -3.18012e-21)
(0.439868 -0.000823464 -6.31869e-21)
(0.440961 -0.00077405 6.27774e-21)
(0.441993 -0.000727574 0)
(0.442969 -0.000683871 0)
(0.44389 -0.000642782 0)
(0.444759 -0.000604154 6.11975e-21)
(0.44558 -0.000567844 6.08162e-21)
(0.446355 -0.000533717 -6.044e-21)
(0.447086 -0.000501649 0)
(0.301348 -0.0188878 5.01556e-21)
(0.309854 -0.0180858 -2.46921e-21)
(0.318068 -0.0172915 2.57355e-21)
(0.325988 -0.0165086 7.64494e-21)
(0.333614 -0.0157403 -5.07692e-21)
(0.340949 -0.0149894 -2.58213e-21)
(0.347993 -0.0142579 0)
(0.354752 -0.0135479 2.58075e-21)
(0.361229 -0.0128605 -2.50961e-21)
(0.36743 -0.0121968 0)
(0.373363 -0.0115577 0)
(0.379032 -0.0109434 0)
(0.384447 -0.0103542 2.55907e-21)
(0.389614 -0.00979009 0)
(0.394541 -0.00925091 -5.04126e-21)
(0.399236 -0.00873632 0)
(0.403708 -0.00824587 -5.01459e-21)
(0.407965 -0.007779 0)
(0.412014 -0.0073351 4.98419e-21)
(0.415864 -0.00691347 0)
(0.419523 -0.00651339 -4.95091e-21)
(0.422999 -0.00613407 2.4506e-21)
(0.426299 -0.00577475 0)
(0.429432 -0.0054346 4.89712e-21)
(0.432404 -0.00511283 2.4526e-21)
(0.435222 -0.00480864 2.44231e-21)
(0.437894 -0.00452124 0)
(0.440427 -0.00424983 2.39936e-21)
(0.442826 -0.00399367 2.4111e-21)
(0.445098 -0.003752 0)
(0.44725 -0.00352411 -2.39019e-21)
(0.449286 -0.00330929 4.74227e-21)
(0.451213 -0.00310689 0)
(0.453036 -0.00291624 2.35891e-21)
(0.454759 -0.00273673 0)
(0.456389 -0.00256778 -7.00134e-21)
(0.45793 -0.00240881 0)
(0.459385 -0.00225927 6.94142e-21)
(0.460761 -0.00211867 2.30752e-21)
(0.46206 -0.0019865 -2.28715e-21)
(0.463286 -0.0018623 -4.55547e-21)
(0.464444 -0.00174563 4.53668e-21)
(0.465537 -0.00163606 0)
(0.466568 -0.0015332 0)
(0.467542 -0.00143665 0)
(0.46846 -0.00134605 -1.34135e-20)
(0.469325 -0.00126106 -4.45634e-21)
(0.470142 -0.00118134 4.43703e-21)
(0.470911 -0.00110659 0)
(0.306543 -0.0315362 -7.37983e-21)
(0.315172 -0.0302159 7.4338e-21)
(0.323505 -0.0289064 3.71181e-21)
(0.331542 -0.0276138 -3.78955e-21)
(0.339282 -0.0263437 5.30441e-23)
(0.346727 -0.0251005 -3.77043e-21)
(0.353878 -0.0238882 0)
(0.360741 -0.0227099 -3.79703e-21)
(0.36732 -0.0215678 4.38483e-23)
(0.37362 -0.020464 0)
(0.379648 -0.0193998 0)
(0.38541 -0.0183759 3.82584e-21)
(0.390914 -0.0173929 0)
(0.396168 -0.0164508 0)
(0.401179 -0.0155495 -3.79836e-21)
(0.405955 -0.0146885 -7.65896e-21)
(0.410505 -0.0138672 3.85618e-21)
(0.414836 -0.0130847 0)
(0.418957 -0.0123402 -3.84594e-21)
(0.422876 -0.0116325 0)
(0.426601 -0.0109604 -3.78659e-21)
(0.43014 -0.0103229 -3.825e-21)
(0.433501 -0.0097185 7.59262e-21)
(0.43669 -0.00914607 3.76945e-21)
(0.439717 -0.00860427 0)
(0.442587 -0.00809182 -7.54457e-21)
(0.445307 -0.00760742 0)
(0.447886 -0.0071498 -1.12777e-20)
(0.450328 -0.00671772 -7.48914e-21)
(0.452641 -0.00630996 -7.4694e-21)
(0.454831 -0.00592534 7.44914e-21)
(0.456903 -0.00556271 -1.11546e-20)
(0.458863 -0.00522096 0)
(0.460717 -0.00489902 0)
(0.46247 -0.00459587 7.36394e-21)
(0.464126 -0.00431051 1.1022e-20)
(0.465692 -0.00404201 0)
(0.46717 -0.00378946 -3.6566e-21)
(0.468567 -0.00355201 0)
(0.469885 -0.00332882 1.08837e-20)
(0.471129 -0.00311911 1.35171e-23)
(0.472303 -0.00292215 -1.26708e-23)
(0.473411 -0.00273721 -7.18115e-21)
(0.474456 -0.00256362 0)
(0.475441 -0.00240074 7.134e-21)
(0.476369 -0.00224796 9.7576e-24)
(0.477245 -0.00210469 0)
(0.47807 -0.00197038 0)
(0.478847 -0.00184449 0)
(0.310306 -0.0446782 3.05844e-21)
(0.318986 -0.0428108 -3.08554e-21)
(0.327366 -0.0409587 -3.11003e-21)
(0.335443 -0.0391308 0)
(0.343219 -0.0373347 3.15171e-21)
(0.350695 -0.0355769 3.16915e-21)
(0.357875 -0.0338626 -6.30974e-21)
(0.364763 -0.0321961 3.19786e-21)
(0.371365 -0.030581 3.20938e-21)
(0.377686 -0.0290196 0)
(0.383733 -0.027514 0)
(0.389514 -0.0260652 -3.23406e-21)
(0.395035 -0.024674 0)
(0.400305 -0.0233404 0)
(0.405331 -0.0220642 6.49245e-21)
(0.410122 -0.0208447 6.49594e-21)
(0.414686 -0.0196812 0)
(0.419031 -0.0185723 0)
(0.423165 -0.0175169 0)
(0.427097 -0.0165134 0)
(0.430834 -0.0155602 6.48637e-21)
(0.434385 -0.0146556 -6.45103e-21)
(0.437756 -0.0137979 -6.47255e-21)
(0.440956 -0.0129853 -1.29019e-20)
(0.443992 -0.0122159 0)
(0.446872 -0.0114881 2.33255e-23)
(0.449602 -0.0107999 0)
(0.452188 -0.0101496 6.42073e-21)
(0.454638 -0.00953547 1.96824e-23)
(0.456959 -0.0089558 6.39481e-21)
(0.459155 -0.00840893 -6.38099e-21)
(0.461233 -0.00789324 1.65305e-23)
(0.463198 -0.00740719 0)
(0.465057 -0.00694926 -6.32206e-21)
(0.466813 -0.00651802 -6.32119e-21)
(0.468473 -0.00611207 -1.25976e-20)
(0.470042 -0.00573008 0)
(0.471523 -0.00537078 6.2611e-21)
(0.472921 -0.00503294 0)
(0.47424 -0.00471542 -1.24676e-20)
(0.475485 -0.00441708 6.2217e-21)
(0.47666 -0.00413688 -6.20431e-21)
(0.477768 -0.00387381 6.18673e-21)
(0.478812 -0.00362691 1.23222e-20)
(0.479796 -0.00339527 -6.15108e-21)
(0.480724 -0.00317802 6.13304e-21)
(0.481598 -0.00297434 0)
(0.482421 -0.00278343 -1.21808e-20)
(0.483196 -0.00260453 0)
(0.31396 -0.0578521 5.32198e-21)
(0.322653 -0.0554264 5.37681e-21)
(0.331035 -0.0530225 5.42696e-21)
(0.339107 -0.0506517 0)
(0.346871 -0.0483235 -5.51408e-21)
(0.35433 -0.0460461 0)
(0.361488 -0.0438261 1.12097e-20)
(0.368351 -0.0416689 0)
(0.374926 -0.0395788 -5.64176e-21)
(0.381218 -0.0375587 0)
(0.387235 -0.0356111 5.68571e-21)
(0.392985 -0.0337373 0)
(0.398475 -0.031938 0)
(0.403715 -0.0302133 0)
(0.408711 -0.0285628 0)
(0.413473 -0.0269857 0)
(0.418009 -0.0254807 0)
(0.422327 -0.0240463 0)
(0.426435 -0.0226809 5.76432e-21)
(0.430342 -0.0213824 0)
(0.434055 -0.0201488 0)
(0.437583 -0.0189779 5.78596e-21)
(0.440934 -0.0178675 0)
(0.444113 -0.0168153 5.77812e-21)
(0.447131 -0.0158189 5.75443e-21)
(0.449992 -0.0148761 5.76636e-21)
(0.452704 -0.0139845 0)
(0.455274 -0.0131418 0)
(0.457709 -0.0123459 5.7427e-21)
(0.460014 -0.0115945 -1.14389e-20)
(0.462196 -0.0108855 0)
(0.46426 -0.0102168 1.71148e-20)
(0.466212 -0.00958655 0)
(0.468058 -0.00899267 5.69116e-21)
(0.469803 -0.00843334 0)
(0.471451 -0.00790679 5.66736e-21)
(0.473008 -0.00741129 1.12909e-20)
(0.474479 -0.0069452 -5.64214e-21)
(0.475866 -0.00650695 0)
(0.477176 -0.00609503 5.6157e-21)
(0.478411 -0.00570802 -1.11892e-20)
(0.479576 -0.00534455 0)
(0.480674 -0.00500331 0)
(0.481709 -0.00468307 -1.11196e-20)
(0.482685 -0.00438264 0)
(0.483604 -0.0041009 1.10502e-20)
(0.48447 -0.00383678 0)
(0.485285 -0.00358926 1.10013e-20)
(0.486052 -0.00335736 0)
(0.318005 -0.0710166 -4.90193e-21)
(0.326676 -0.0680154 -4.95387e-21)
(0.335024 -0.0650454 -5.00148e-21)
(0.343052 -0.06212 -5.01581e-21)
(0.350762 -0.0592506 5.08452e-21)
(0.358162 -0.0564467 0)
(0.365255 -0.053716 -5.15264e-21)
(0.37205 -0.0510648 0)
(0.378553 -0.0484977 2.578e-23)
(0.384773 -0.0460182 0)
(0.390717 -0.0436289 -1.04764e-20)
(0.396394 -0.041331 0)
(0.401813 -0.0391254 5.26008e-21)
(0.406982 -0.0370118 0)
(0.411909 -0.0349896 0)
(0.416605 -0.0330575 1.05895e-20)
(0.421076 -0.0312141 0)
(0.425332 -0.0294573 0)
(0.429381 -0.0277849 -5.33157e-21)
(0.433231 -0.0261945 0)
(0.436891 -0.0246836 0)
(0.440367 -0.0232494 1.06373e-20)
(0.443669 -0.0218891 0)
(0.446802 -0.0206 -1.06329e-20)
(0.449775 -0.0193791 -5.32809e-21)
(0.452595 -0.0182237 0)
(0.455268 -0.017131 1.06122e-20)
(0.4578 -0.0160981 0)
(0.460199 -0.0151224 -1.05905e-20)
(0.462471 -0.0142011 2.11776e-20)
(0.464621 -0.0133318 0)
(0.466655 -0.0125118 -1.05685e-20)
(0.468579 -0.0117388 0)
(0.470398 -0.0110104 0)
(0.472117 -0.0103243 -1.04968e-20)
(0.473742 -0.00967837 0)
(0.475275 -0.00907051 -1.04736e-20)
(0.476724 -0.0084987 1.04378e-20)
(0.478091 -0.00796103 0)
(0.47938 -0.00745567 0)
(0.480597 -0.00698086 1.03849e-20)
(0.481744 -0.00653493 -1.03496e-20)
(0.482825 -0.00611629 -1.03262e-20)
(0.483844 -0.00572343 -1.03022e-20)
(0.484804 -0.00535489 0)
(0.485708 -0.0050093 -1.02622e-20)
(0.486559 -0.00468536 -1.02276e-20)
(0.487361 -0.00438181 0)
(0.488115 -0.00409746 0)
(0.322732 -0.0841415 0)
(0.331344 -0.0805425 4.62396e-21)
(0.339619 -0.0769883 -4.67044e-21)
(0.347561 -0.0734939 4.73198e-21)
(0.355176 -0.0700721 -9.50362e-21)
(0.362473 -0.0667335 0)
(0.369458 -0.0634863 9.63814e-21)
(0.376141 -0.0603374 -9.69579e-21)
(0.38253 -0.0572916 -4.85584e-21)
(0.388635 -0.0543526 0)
(0.394465 -0.0515227 4.93472e-21)
(0.400029 -0.0488031 0)
(0.405336 -0.0461941 -4.96794e-21)
(0.410397 -0.0436952 0)
(0.415219 -0.0413054 0)
(0.419812 -0.039023 -1.00043e-20)
(0.424185 -0.0368457 0)
(0.428346 -0.0347713 1.00032e-20)
(0.432305 -0.0327968 0)
(0.436068 -0.0309194 0)
(0.439645 -0.0291358 0)
(0.443043 -0.0274428 -2.00841e-20)
(0.446269 -0.0258371 -1.003e-20)
(0.449332 -0.0243154 1.00524e-20)
(0.452238 -0.0228741 1.00256e-20)
(0.454994 -0.0215101 0)
(0.457606 -0.0202199 -1.00352e-20)
(0.460082 -0.0190003 0)
(0.462427 -0.0178481 1.00163e-20)
(0.464648 -0.0167601 -1.83152e-23)
(0.46675 -0.0157333 0)
(0.468739 -0.0147647 0)
(0.47062 -0.0138515 9.94824e-21)
(0.472399 -0.012991 0)
(0.474079 -0.0121803 9.93223e-21)
(0.475668 -0.0114171 0)
(0.477167 -0.0106988 -9.88408e-21)
(0.478583 -0.0100231 -9.87845e-21)
(0.47992 -0.00938769 0)
(0.481181 -0.00879045 0)
(0.48237 -0.00822932 0)
(0.483491 -0.00770232 9.79769e-21)
(0.484548 -0.00720757 9.77613e-21)
(0.485544 -0.00674329 9.75408e-21)
(0.486482 -0.00630777 0)
(0.487366 -0.0058994 0)
(0.488198 -0.00551663 9.68524e-21)
(0.488981 -0.00515798 9.65434e-21)
(0.489718 -0.00482206 0)
(0.490411 -0.00450754 0)
(0.328352 -0.097173 0)
(0.336862 -0.0929515 -1.32748e-20)
(0.345017 -0.0887931 1.34097e-20)
(0.352827 -0.0847141 0)
(0.360301 -0.0807283 2.36139e-23)
(0.367449 -0.0768466 0)
(0.37428 -0.0730778 -9.24349e-21)
(0.380806 -0.0694286 9.29947e-21)
(0.387037 -0.0659038 9.34974e-21)
(0.392984 -0.0625067 0)
(0.398657 -0.0592391 0)
(0.404067 -0.0561017 0)
(0.409224 -0.0530945 -9.47638e-21)
(0.414137 -0.0502161 0)
(0.418817 -0.047465 9.52663e-21)
(0.423272 -0.0448387 0)
(0.427513 -0.0423346 0)
(0.431547 -0.0399494 -9.5991e-21)
(0.435384 -0.0376798 0)
(0.439032 -0.0355221 0)
(0.442498 -0.0334726 0)
(0.445791 -0.0315274 1.92308e-20)
(0.448917 -0.0296826 9.62657e-21)
(0.451885 -0.0279343 0)
(0.454701 -0.0262785 -1.85171e-23)
(0.457372 -0.0247113 0)
(0.459904 -0.023229 9.59552e-21)
(0.462304 -0.0218276 -9.58888e-21)
(0.464577 -0.0205036 9.58093e-21)
(0.46673 -0.0192532 -9.58712e-21)
(0.468768 -0.0180732 0)
(0.470697 -0.0169599 9.55007e-21)
(0.472521 -0.0159102 -1.35292e-23)
(0.474246 -0.0149209 0)
(0.475876 -0.013989 0)
(0.477416 -0.0131114 9.49529e-21)
(0.478871 -0.0122855 9.49081e-21)
(0.480245 -0.0115085 9.46311e-21)
(0.481541 -0.0107778 9.44598e-21)
(0.482765 -0.010091 -9.42821e-21)
(0.483918 -0.00944571 0)
(0.485006 -0.00883964 0)
(0.486032 -0.00827065 0)
(0.486998 -0.0077367 0)
(0.487908 -0.00723584 -1.86618e-20)
(0.488765 -0.00676621 0)
(0.489572 -0.00632603 0)
(0.490332 -0.00591363 -2.78064e-20)
(0.491047 -0.0055274 0)
(0.491719 -0.00516581 1.84433e-20)
(0.335037 -0.110043 -8.46911e-21)
(0.34339 -0.105173 1.71396e-20)
(0.351373 -0.100391 -8.66334e-21)
(0.358998 -0.0957119 -8.73113e-21)
(0.366278 -0.0911514 1.76212e-20)
(0.373225 -0.0867199 0)
(0.379853 -0.0824261 0)
(0.386173 -0.078276 0)
(0.392199 -0.0742738 0)
(0.397942 -0.0704222 -9.07583e-21)
(0.403415 -0.0667221 0)
(0.408629 -0.0631736 0)
(0.413594 -0.0597755 9.1965e-21)
(0.418322 -0.0565259 0)
(0.422822 -0.0534221 -1.84736e-20)
(0.427105 -0.050461 0)
(0.431179 -0.0476391 9.26361e-21)
(0.435054 -0.0449523 0)
(0.438739 -0.0423967 0)
(0.442241 -0.0399677 0)
(0.445569 -0.0376611 0)
(0.448731 -0.0354722 -9.32289e-21)
(0.451732 -0.0333965 0)
(0.454582 -0.0314295 -9.30848e-21)
(0.457286 -0.0295666 -1.545e-23)
(0.45985 -0.0278035 0)
(0.462282 -0.0261357 -9.31391e-21)
(0.464587 -0.024559 9.30754e-21)
(0.466771 -0.0230693 -9.2999e-21)
(0.468839 -0.0216624 0)
(0.470798 -0.0203344 0)
(0.472651 -0.0190815 -1.85281e-20)
(0.474404 -0.0179001 -9.25824e-21)
(0.476062 -0.0167866 0)
(0.47763 -0.0157375 0)
(0.479111 -0.0147496 -2.7631e-20)
(0.48051 -0.0138197 0)
(0.481831 -0.0129449 -2.75395e-20)
(0.483078 -0.0121221 -9.16963e-21)
(0.484255 -0.0113487 9.15245e-21)
(0.485365 -0.010622 1.82527e-20)
(0.486411 -0.00993951 0)
(0.487398 -0.00929873 0)
(0.488328 -0.0086974 0)
(0.489203 -0.00813333 1.36679e-23)
(0.490028 -0.00760443 -1.80629e-20)
(0.490805 -0.00710871 0)
(0.491536 -0.00664429 1.17365e-23)
(0.492224 -0.00620936 0)
(0.492871 -0.00580223 -1.79048e-20)
(0.49348 -0.00542127 -1.78499e-20)
(0.342929 -0.122665 2.1249e-24)
(0.351058 -0.117124 -3.16197e-24)
(0.358805 -0.111699 8.45708e-21)
(0.366184 -0.106408 8.54024e-21)
(0.373211 -0.101265 -1.72179e-20)
(0.379901 -0.0962804 0)
(0.38627 -0.091461 0)
(0.392333 -0.0868124 0)
(0.398104 -0.0823377 -8.82788e-21)
(0.403597 -0.0780383 1.11595e-23)
(0.408824 -0.0739141 0)
(0.413798 -0.0699639 0)
(0.41853 -0.0661853 0)
(0.423033 -0.0625753 0)
(0.427317 -0.0591302 1.36501e-23)
(0.431392 -0.0558459 0)
(0.435266 -0.0527178 -1.81192e-20)
(0.43895 -0.0497411 0)
(0.442453 -0.0469108 0)
(0.445781 -0.0442217 0)
(0.448944 -0.0416687 0)
(0.451947 -0.0392466 0)
(0.4548 -0.03695 9.09697e-21)
(0.457508 -0.0347739 1.82083e-20)
(0.460078 -0.0327132 -9.10941e-21)
(0.462515 -0.0307629 0)
(0.464827 -0.0289181 -1.81785e-20)
(0.467019 -0.027174 1.81675e-20)
(0.469096 -0.0255259 0)
(0.471063 -0.0239694 -1.81384e-20)
(0.472926 -0.0225002 1.81205e-20)
(0.474689 -0.0211139 2.7162e-20)
(0.476358 -0.0198066 0)
(0.477936 -0.0185743 0)
(0.479429 -0.0174133 0)
(0.480839 -0.0163198 1.80225e-20)
(0.482171 -0.0152905 1.79754e-20)
(0.48343 -0.0143221 3.5909e-20)
(0.484618 -0.0134112 0)
(0.485739 -0.0125549 -1.78826e-20)
(0.486797 -0.0117503 -1.53426e-23)
(0.487794 -0.0109945 -1.78147e-20)
(0.488735 -0.0102849 -1.77791e-20)
(0.489621 -0.00961903 0)
(0.490456 -0.00899437 3.54223e-20)
(0.491242 -0.00840865 3.53445e-20)
(0.491983 -0.00785969 0)
(0.49268 -0.00734538 1.75973e-20)
(0.493336 -0.00686376 0)
(0.493953 -0.00641294 0)
(0.494534 -0.00599114 1.74693e-20)
(0.352136 -0.134933 8.1426e-21)
(0.359964 -0.128702 1.99202e-24)
(0.3674 -0.122623 -8.32035e-21)
(0.374463 -0.116713 8.39738e-21)
(0.381172 -0.110985 1.91521e-24)
(0.387544 -0.105448 0)
(0.393597 -0.100107 0)
(0.399347 -0.0949667 8.63801e-21)
(0.404811 -0.0900284 8.69062e-21)
(0.410003 -0.085292 8.73274e-21)
(0.414938 -0.0807556 8.76184e-21)
(0.419629 -0.0764166 0)
(0.424089 -0.0722712 0)
(0.428328 -0.0683149 0)
(0.432358 -0.0645429 8.88006e-21)
(0.436189 -0.0609497 0)
(0.439832 -0.0575297 1.15536e-23)
(0.443293 -0.0542771 8.91613e-21)
(0.446584 -0.0511859 -8.92658e-21)
(0.44971 -0.0482501 0)
(0.452681 -0.0454636 1.78815e-20)
(0.455502 -0.0428206 -1.78897e-20)
(0.458182 -0.0403152 -2.68532e-20)
(0.460725 -0.0379414 -2.68547e-20)
(0.46314 -0.0356937 0)
(0.465431 -0.0335665 0)
(0.467603 -0.0315544 1.79031e-20)
(0.469664 -0.0296521 -1.78923e-20)
(0.471616 -0.0278546 0)
(0.473467 -0.0261568 1.78635e-20)
(0.475219 -0.024554 -1.78459e-20)
(0.476878 -0.0230417 -1.78263e-20)
(0.478449 -0.0216154 0)
(0.479935 -0.0202708 0)
(0.48134 -0.0190038 -1.77384e-20)
(0.482668 -0.0178105 0)
(0.483923 -0.0166871 -1.77024e-20)
(0.485108 -0.01563 -1.76731e-20)
(0.486228 -0.0146357 -1.76268e-20)
(0.487285 -0.0137008 1.76107e-20)
(0.488282 -0.0128223 -1.75777e-20)
(0.489222 -0.0119971 1.75436e-20)
(0.490109 -0.0112223 3.50034e-20)
(0.490945 -0.0104952 0)
(0.491732 -0.00981302 -1.74348e-20)
(0.492474 -0.00917337 -1.73967e-20)
(0.493173 -0.00857385 0)
(0.49383 -0.00801219 0)
(0.494449 -0.00748622 0)
(0.495032 -0.00699391 1.72253e-20)
(0.49558 -0.00653331 0)
(0.362728 -0.146722 0)
(0.370166 -0.139792 4.82864e-24)
(0.37721 -0.133055 0)
(0.38388 -0.126527 -1.6596e-20)
(0.390199 -0.120218 8.36686e-21)
(0.396186 -0.114135 0)
(0.401862 -0.108284 0)
(0.407243 -0.102664 -8.53928e-21)
(0.412347 -0.0972767 8.58132e-21)
(0.41719 -0.0921187 0)
(0.421787 -0.0871867 -8.66405e-21)
(0.426152 -0.0824759 -8.68952e-21)
(0.430297 -0.0779811 0)
(0.434235 -0.0736961 0)
(0.437976 -0.0696147 0)
(0.441531 -0.0657299 0)
(0.444909 -0.0620351 8.80657e-21)
(0.448119 -0.0585231 -8.81961e-21)
(0.451169 -0.0551871 8.83018e-21)
(0.454067 -0.0520201 -1.76554e-20)
(0.45682 -0.0490152 -3.53566e-20)
(0.459436 -0.0461657 1.76975e-20)
(0.46192 -0.043465 1.77022e-20)
(0.464278 -0.0409067 1.77035e-20)
(0.466517 -0.0384845 0)
(0.468642 -0.0361922 0)
(0.470658 -0.034024 0)
(0.472569 -0.0319741 0)
(0.474382 -0.030037 -1.76461e-20)
(0.4761 -0.0282074 0)
(0.477727 -0.02648 0)
(0.479269 -0.02485 0)
(0.480728 -0.0233125 1.7577e-20)
(0.482108 -0.021863 0)
(0.483415 -0.020497 1.74285e-23)
(0.48465 -0.0192103 0)
(0.485817 -0.0179988 1.74802e-20)
(0.48692 -0.0168588 0)
(0.487962 -0.0157863 1.74384e-20)
(0.488945 -0.0147779 0)
(0.489873 -0.0138302 0)
(0.490749 -0.0129399 0)
(0.491575 -0.012104 -1.73076e-20)
(0.492353 -0.0113193 0)
(0.493086 -0.0105833 0)
(0.493777 -0.00989299 -1.71869e-20)
(0.494428 -0.00924601 -1.71491e-20)
(0.495041 -0.00863987 -1.71103e-20)
(0.495617 -0.00807226 0)
(0.49616 -0.00754096 -9.53085e-24)
(0.496671 -0.00704389 0)
(0.374729 -0.157886 0)
(0.381678 -0.150261 5.79422e-24)
(0.388238 -0.142874 8.15106e-21)
(0.394435 -0.135739 8.22294e-21)
(0.40029 -0.128863 0)
(0.405825 -0.122253 8.35543e-21)
(0.41106 -0.115908 0)
(0.416016 -0.109829 0)
(0.420708 -0.104013 -8.50917e-21)
(0.425154 -0.0984546 1.70915e-20)
(0.429368 -0.0931483 0)
(0.433366 -0.0880875 8.6191e-21)
(0.437159 -0.0832647 0)
(0.440759 -0.0786723 0)
(0.444178 -0.0743022 0)
(0.447425 -0.0701463 0)
(0.450509 -0.0661963 0)
(0.45344 -0.0624441 0)
(0.456224 -0.0588817 -1.74837e-20)
(0.458869 -0.0555012 1.75202e-20)
(0.461383 -0.0522948 1.75328e-20)
(0.46377 -0.049255 1.75208e-20)
(0.466038 -0.0463745 -1.75258e-20)
(0.468192 -0.0436462 0)
(0.470237 -0.0410633 0)
(0.472178 -0.0386192 0)
(0.47402 -0.0363073 0)
(0.475768 -0.0341216 1.75063e-20)
(0.477425 -0.0320562 1.75145e-20)
(0.478996 -0.0301051 -1.74811e-20)
(0.480485 -0.028263 1.74654e-20)
(0.481896 -0.0265246 0)
(0.483232 -0.0248847 -3.48749e-20)
(0.484496 -0.0233384 0)
(0.485692 -0.0218811 1.74017e-20)
(0.486824 -0.0205083 1.73604e-20)
(0.487894 -0.0192156 -3.46855e-20)
(0.488905 -0.0179989 0)
(0.48986 -0.0168542 0)
(0.490762 -0.0157779 -1.72497e-20)
(0.491613 -0.0147661 1.72188e-20)
(0.492416 -0.0138156 -1.71868e-20)
(0.493173 -0.012923 1.71537e-20)
(0.493887 -0.0120852 0)
(0.49456 -0.0112991 0)
(0.495194 -0.0105619 1.13217e-23)
(0.495791 -0.00987095 1.70216e-20)
(0.496353 -0.00922356 1.04082e-23)
(0.496882 -0.0086173 0)
(0.49738 -0.00804982 -9.53599e-24)
(0.497848 -0.00751891 -1.68528e-20)
(0.388101 -0.168267 0)
(0.394457 -0.159968 -8.00634e-21)
(0.400442 -0.151954 -8.08981e-21)
(0.406082 -0.144237 0)
(0.411398 -0.136821 0)
(0.416414 -0.129708 -8.29771e-21)
(0.421149 -0.122898 0)
(0.425623 -0.116388 0)
(0.429854 -0.11017 0)
(0.433857 -0.104238 -1.69838e-20)
(0.437648 -0.0985845 0)
(0.44124 -0.0931999 0)
(0.444646 -0.088075 -1.71636e-20)
(0.447877 -0.0832002 0)
(0.450944 -0.0785657 -1.72538e-20)
(0.453855 -0.0741619 0)
(0.45662 -0.0699792 0)
(0.459247 -0.0660083 0)
(0.461743 -0.0622401 1.73866e-20)
(0.464114 -0.0586657 1.73838e-20)
(0.466367 -0.0552765 -1.73965e-20)
(0.468508 -0.0520642 -2.04104e-23)
(0.470541 -0.0490209 1.74315e-20)
(0.472473 -0.0461387 0)
(0.474308 -0.0434104 0)
(0.47605 -0.0408288 0)
(0.477704 -0.0383869 0)
(0.479274 -0.0360783 -1.74146e-20)
(0.480762 -0.0338965 -1.73841e-20)
(0.482174 -0.0318355 1.73904e-20)
(0.483513 -0.0298894 -1.73751e-20)
(0.484781 -0.0280526 -1.73395e-20)
(0.485983 -0.0263198 1.73388e-20)
(0.487121 -0.0246858 0)
(0.488197 -0.0231455 0)
(0.489216 -0.0216944 -1.64518e-23)
(0.490179 -0.0203278 1.59399e-23)
(0.49109 -0.0190414 -1.72041e-20)
(0.49195 -0.017831 1.71765e-20)
(0.492762 -0.0166927 1.43758e-23)
(0.493529 -0.0156227 -1.71314e-20)
(0.494252 -0.0146172 3.41858e-20)
(0.494934 -0.0136729 -1.70667e-20)
(0.495578 -0.0127865 0)
(0.496184 -0.0119548 -1.69857e-20)
(0.496755 -0.0111748 1.69615e-20)
(0.497292 -0.0104435 0)
(0.497799 -0.00975842 1.68865e-20)
(0.498275 -0.00911681 0)
(0.498723 -0.00851623 1.67885e-20)
(0.499144 -0.00795434 -1.67486e-20)
(0.49954 -0.00742889 0)
(0.402744 -0.177703 1.57942e-20)
(0.408403 -0.168771 0)
(0.413722 -0.16017 1.61409e-20)
(0.418723 -0.151909 0)
(0.423429 -0.143991 0)
(0.427862 -0.136415 1.65519e-20)
(0.432041 -0.129177 0)
(0.435984 -0.12227 1.67642e-20)
(0.439708 -0.115685 -1.68543e-20)
(0.443229 -0.109414 0)
(0.44656 -0.103445 -1.70066e-20)
(0.449714 -0.0977682 -1.70701e-20)
(0.452703 -0.0923709 1.71416e-20)
(0.455537 -0.0872422 0)
(0.458226 -0.0823706 3.44536e-20)
(0.460779 -0.077745 0)
(0.463203 -0.0733545 0)
(0.465506 -0.0691886 -1.73129e-20)
(0.467694 -0.0652371 0)
(0.469773 -0.0614901 -2.04871e-23)
(0.47175 -0.0579384 1.73867e-20)
(0.473628 -0.0545729 -2.0863e-23)
(0.475412 -0.0513848 0)
(0.477108 -0.0483661 0)
(0.47872 -0.0455086 0)
(0.48025 -0.0428048 0)
(0.481704 -0.0402475 -1.73789e-20)
(0.483083 -0.0378296 0)
(0.484393 -0.0355444 1.73816e-20)
(0.485635 -0.0333856 0)
(0.486813 -0.031347 0)
(0.487929 -0.0294227 1.73389e-20)
(0.488987 -0.0276071 1.73027e-20)
(0.489989 -0.0258948 0)
(0.490938 -0.0242806 0)
(0.491835 -0.0227595 -1.72567e-20)
(0.492684 -0.0213269 3.44482e-20)
(0.493486 -0.0199782 1.5676e-23)
(0.494244 -0.018709 -1.7179e-20)
(0.49496 -0.0175152 1.71504e-20)
(0.495636 -0.0163929 -1.71065e-20)
(0.496273 -0.0153382 -1.70895e-20)
(0.496874 -0.0143476 -1.70442e-20)
(0.497441 -0.0134175 0)
(0.497975 -0.0125448 5.09443e-20)
(0.498477 -0.0117262 3.38847e-20)
(0.49895 -0.0109588 0)
(0.499395 -0.0102397 0)
(0.499814 -0.00956631 0)
(0.500207 -0.00893592 -6.71894e-20)
(0.500577 -0.00834611 3.3524e-20)
(0.500925 -0.00779457 -3.34237e-20)
(0.418937 -0.186262 -3.01563e-20)
(0.423777 -0.17674 0)
(0.428321 -0.167595 -1.54208e-20)
(0.432588 -0.158833 0)
(0.436599 -0.150453 0)
(0.440374 -0.142451 -1.58345e-20)
(0.443928 -0.13482 0)
(0.44728 -0.127551 -1.60508e-20)
(0.450443 -0.120634 3.22749e-20)
(0.453432 -0.114054 0)
(0.456259 -0.1078 3.25885e-20)
(0.458934 -0.101859 1.63688e-20)
(0.46147 -0.0962165 0)
(0.463873 -0.0908596 0)
(0.466154 -0.0857754 -1.65281e-20)
(0.468319 -0.0809511 0)
(0.470375 -0.0763748 0)
(0.472329 -0.0720347 1.6636e-20)
(0.474187 -0.0679196 -1.66408e-20)
(0.475952 -0.0640188 -1.66848e-20)
(0.477631 -0.0603223 -1.66813e-20)
(0.479227 -0.0568202 -3.34146e-20)
(0.480744 -0.0535033 -1.67079e-20)
(0.482186 -0.0503628 0)
(0.483557 -0.0473903 0)
(0.48486 -0.0445777 0)
(0.486098 -0.0419174 1.67477e-20)
(0.487273 -0.0394021 -1.67247e-20)
(0.488389 -0.0370246 0)
(0.489449 -0.0347785 0)
(0.490453 -0.0326572 0)
(0.491406 -0.0306546 0)
(0.492309 -0.0287649 -1.89342e-23)
(0.493164 -0.0269825 0)
(0.493974 -0.025302 0)
(0.49474 -0.0237182 0)
(0.495465 -0.0222264 -3.32679e-20)
(0.49615 -0.0208216 1.63119e-23)
(0.496797 -0.0194996 0)
(0.497408 -0.0182559 3.31299e-20)
(0.497984 -0.0170865 1.65569e-20)
(0.498528 -0.0159874 0)
(0.499041 -0.014955 4.94932e-20)
(0.499523 -0.0139856 0)
(0.499978 -0.0130758 -3.29044e-20)
(0.500405 -0.0122224 -3.28467e-20)
(0.500807 -0.0114223 3.27636e-20)
(0.501185 -0.0106726 0)
(0.50154 -0.00997035 0)
(0.501874 -0.00931297 3.2596e-20)
(0.502186 -0.0086979 0)
(0.50248 -0.00812269 3.24595e-20)
(0.435735 -0.193305 1.59086e-20)
(0.439683 -0.183295 1.60903e-20)
(0.443389 -0.1737 0)
(0.44687 -0.164523 0)
(0.450142 -0.155761 0)
(0.453222 -0.147408 0)
(0.456123 -0.139454 0)
(0.458858 -0.131888 0)
(0.461441 -0.124696 -3.39545e-20)
(0.463881 -0.117864 -1.70489e-20)
(0.46619 -0.111377 -3.42565e-20)
(0.468377 -0.105219 0)
(0.470449 -0.0993763 0)
(0.472415 -0.0938331 0)
(0.474282 -0.0885754 0)
(0.476054 -0.0835893 -1.73584e-20)
(0.477739 -0.0788615 0)
(0.47934 -0.0743795 -1.74122e-20)
(0.480864 -0.0701312 1.74545e-20)
(0.482313 -0.0661051 0)
(0.483691 -0.0622906 2.27976e-23)
(0.485002 -0.0586772 3.49554e-20)
(0.48625 -0.0552553 3.49638e-20)
(0.487437 -0.0520154 0)
(0.488566 -0.048949 1.74697e-20)
(0.489639 -0.0460474 0)
(0.490659 -0.0433028 0)
(0.491628 -0.0407076 1.74692e-20)
(0.492549 -0.0382545 -1.7436e-20)
(0.493423 -0.0359366 0)
(0.494252 -0.0337473 0)
(0.495039 -0.0316803 0)
(0.495784 -0.0297295 -1.8954e-23)
(0.496491 -0.0278892 0)
(0.497159 -0.0261538 0)
(0.497792 -0.0245181 -1.72973e-20)
(0.49839 -0.0229771 1.72877e-20)
(0.498956 -0.0215259 5.17452e-20)
(0.499489 -0.0201598 0)
(0.499993 -0.0188746 -6.87627e-20)
(0.500468 -0.0176659 3.43024e-20)
(0.500915 -0.0165298 0)
(0.501337 -0.0154624 -3.41946e-20)
(0.501733 -0.0144601 0)
(0.502106 -0.0135193 0)
(0.502456 -0.0126367 0)
(0.502785 -0.0118092 -2.30108e-23)
(0.503093 -0.0110336 0)
(0.503382 -0.0103072 0)
(0.503653 -0.00962709 -3.36264e-20)
(0.503906 -0.00899073 0)
(0.504143 -0.00839559 0)
(0.451497 -0.198471 1.65375e-20)
(0.454581 -0.18811 -9.37548e-24)
(0.457481 -0.178191 1.68873e-20)
(0.46021 -0.168715 -1.70379e-20)
(0.46278 -0.159677 1.71735e-20)
(0.465203 -0.15107 0)
(0.467489 -0.142882 0)
(0.469647 -0.1351 0)
(0.471688 -0.127709 1.76043e-20)
(0.473619 -0.120693 2.01285e-23)
(0.475448 -0.114036 1.77457e-20)
(0.477183 -0.107721 0)
(0.478828 -0.101732 0)
(0.480391 -0.0960524 1.78699e-20)
(0.481876 -0.0906679 1.79038e-20)
(0.483288 -0.0855634 2.33761e-23)
(0.484632 -0.0807248 0)
(0.48591 -0.0761388 3.59639e-20)
(0.487128 -0.0717928 1.7982e-20)
(0.488287 -0.0676747 0)
(0.48939 -0.0637734 1.80161e-20)
(0.490441 -0.060078 -3.60074e-20)
(0.491441 -0.0565785 -1.8011e-20)
(0.492394 -0.0532653 -1.79804e-20)
(0.4933 -0.0501292 -1.79925e-20)
(0.494163 -0.0471617 0)
(0.494983 -0.0443545 1.79407e-20)
(0.495763 -0.0416998 0)
(0.496504 -0.0391902 1.79223e-20)
(0.497207 -0.0368186 0)
(0.497875 -0.0345783 -1.78533e-20)
(0.498509 -0.0324628 -1.78263e-20)
(0.499109 -0.030466 -1.88897e-23)
(0.499677 -0.028582 0)
(0.500216 -0.0268052 -1.77346e-20)
(0.500725 -0.0251302 1.77181e-20)
(0.501206 -0.0235519 0)
(0.50166 -0.0220653 -3.223e-23)
(0.502088 -0.0206657 3.51819e-20)
(0.502492 -0.0193488 3.51332e-20)
(0.502872 -0.0181101 -3.50509e-20)
(0.50323 -0.0169456 0)
(0.503566 -0.0158513 -3.48525e-20)
(0.503882 -0.0148236 0)
(0.504178 -0.0138589 0)
(0.504455 -0.0129538 -3.45817e-20)
(0.504715 -0.0121051 -3.45101e-20)
(0.504958 -0.0113096 0)
(0.505184 -0.0105643 3.42933e-20)
(0.505396 -0.00986664 6.84069e-20)
(0.505593 -0.00921373 0)
(0.505777 -0.00860309 0)
(0.505947 -0.00803225 0)
(0.46603 -0.202091 -3.41562e-20)
(0.4683 -0.191497 -1.72687e-20)
(0.470446 -0.181361 -1.74352e-20)
(0.472474 -0.171683 3.51526e-20)
(0.474391 -0.162459 -1.7719e-20)
(0.476205 -0.153679 0)
(0.477923 -0.145331 0)
(0.479551 -0.137401 -1.80152e-20)
(0.481094 -0.129872 0)
(0.482559 -0.122729 3.63518e-20)
(0.48395 -0.115954 1.82236e-20)
(0.485272 -0.10953 0)
(0.486529 -0.103438 0)
(0.487725 -0.0976641 -3.67223e-20)
(0.488865 -0.0921906 -1.84003e-20)
(0.48995 -0.0870027 1.84207e-20)
(0.490985 -0.0820858 0)
(0.491971 -0.0774262 -1.84441e-20)
(0.492911 -0.0730108 -1.8448e-20)
(0.493808 -0.0688273 0)
(0.494662 -0.064864 0)
(0.495477 -0.0611099 1.84333e-20)
(0.496254 -0.0575548 -1.83972e-20)
(0.496995 -0.0541888 1.84047e-20)
(0.4977 -0.0510025 0)
(0.498371 -0.0479872 0)
(0.49901 -0.0451346 -2.18539e-23)
(0.499618 -0.0424366 0)
(0.500196 -0.0398858 1.82614e-20)
(0.500745 -0.037475 -1.82302e-20)
(0.501265 -0.0351973 1.82168e-20)
(0.501759 -0.0330462 1.92776e-23)
(0.502227 -0.0310155 -3.62684e-20)
(0.502671 -0.0290993 0)
(0.50309 -0.0272917 1.80635e-20)
(0.503486 -0.0255875 0)
(0.50386 -0.0239814 0)
(0.504212 -0.0224683 -3.58647e-20)
(0.504544 -0.0210437 -3.5772e-20)
(0.504856 -0.0197029 0)
(0.505149 -0.0184417 -3.55507e-20)
(0.505425 -0.0172557 3.54519e-20)
(0.505682 -0.0161413 3.53771e-20)
(0.505924 -0.0150944 0)
(0.506149 -0.0141116 0)
(0.50636 -0.0131894 7.00949e-20)
(0.506555 -0.0123244 0)
(0.506738 -0.0115137 0)
(0.506907 -0.0107542 -3.4725e-20)
(0.507063 -0.010043 -3.46104e-20)
(0.507208 -0.00937744 0)
(0.507342 -0.0087549 -3.43592e-20)
(0.507465 -0.00817293 -3.42409e-20)
(0.507579 -0.00762911 -1.61542e-23)
(0.479259 -0.204467 1.71002e-23)
(0.480781 -0.193735 0)
(0.482232 -0.183469 0)
(0.483617 -0.17367 -3.59853e-20)
(0.484937 -0.164331 -1.81114e-20)
(0.486196 -0.155444 -1.82254e-20)
(0.487396 -0.146996 0)
(0.488541 -0.138973 1.84359e-20)
(0.489633 -0.131358 0)
(0.490675 -0.124133 -1.85748e-20)
(0.49167 -0.117282 -1.86281e-20)
(0.49262 -0.110786 0)
(0.493527 -0.104628 0)
(0.494393 -0.0987907 1.87341e-20)
(0.495221 -0.0932582 0)
(0.496013 -0.0880146 0)
(0.49677 -0.0830453 0)
(0.497493 -0.0783361 0)
(0.498184 -0.0738737 1.87472e-20)
(0.498845 -0.0696456 -1.87392e-20)