/*--------------------------------*- C++ -*----------------------------------*\
  =========                 |
  \\      /  F ield         | OpenFOAM: The Open Source CFD Toolbox
   \\    /   O peration     | Website:  https://openfoam.org
    \\  /    A nd           | Version:  6
     \\/     M anipulation  |
\*---------------------------------------------------------------------------*/
FoamFile
{
    version     2.0;
    format      ascii;
    class       volScalarField;
    location    "0.07";
    object      epsilon;
}
// * * * * * * * * * * * * * * * * * * * * * * * * * * * * * * * * * * * * * //

dimensions      [0 2 -3 0 0 0 0];

internalField   nonuniform List<scalar> 
12225
(
307.555
159.152
103.233
76.2281
60.9648
51.4561
45.0488
40.4256
36.9027
34.1086
31.8288
29.9306
28.3275
26.9601
25.795
24.8073
24.0148
23.5145
71.6102
59.7611
44.4179
34.3543
27.8135
23.371
20.2261
17.9121
16.1455
14.7522
13.624
12.6912
11.9069
11.2391
10.6667
10.1731
9.74733
9.36666
33.6137
34.404
29.2894
24.3869
20.539
17.6163
15.3907
13.6714
12.3171
11.2286
10.3372
9.59529
8.96922
8.4346
7.97408
7.57433
7.22478
6.9148
22.4945
24.1963
22.2209
19.541
17.0657
14.9859
13.2888
11.9116
10.7879
9.86204
9.09046
8.44027
7.88661
7.41067
6.99834
6.63857
6.32271
6.04525
18.0524
19.1649
18.2249
16.5945
14.8964
13.3508
12.0142
10.8813
9.92592
9.11883
8.43343
7.84747
7.34297
6.90552
6.52392
6.18907
5.89403
5.63555
15.9661
16.3993
15.7658
14.6418
13.3955
12.1986
11.1174
10.1681
9.34457
8.63302
8.0178
7.48424
7.01953
6.61285
6.25539
5.9398
5.66053
5.4156
14.9028
14.7888
14.1885
13.2992
12.3133
11.343
10.4424
9.63123
8.91199
8.27878
7.72264
7.23398
6.80372
6.42378
6.08726
5.78831
5.52253
5.28873
14.3403
13.8255
13.1591
12.3641
11.5222
10.6958
9.92023
9.21144
8.57343
8.00382
7.49724
7.04721
6.64716
6.29103
5.97335
5.68944
5.43585
5.21194
14.0386
13.2457
12.4866
11.7138
10.9451
10.206
9.5144
8.87926
8.30295
7.7838
7.31795
6.90062
6.52679
6.19172
5.89098
5.62079
5.3784
5.16354
13.8768
12.8992
12.0518
11.2671
10.5293
9.83959
9.20174
8.61762
8.08663
7.60627
7.17296
6.78258
6.43099
6.11416
5.8284
5.57053
5.33833
5.13177
13.7906
12.6955
11.7763
10.9667
10.2361
9.57104
8.96535
8.41485
7.91575
7.46411
7.05587
6.68701
6.35367
6.0522
5.77932
5.53225
5.30912
5.11003
13.7488
12.5881
11.6204
10.7866
10.0517
9.39553
8.8058
8.27431
7.79474
7.36171
6.97048
6.61676
6.29665
6.00661
5.74356
5.50491
5.28896
5.09585
13.7254
12.5235
11.5209
10.6659
9.92292
9.26856
8.68701
8.16715
7.70061
7.28076
6.90212
6.55999
6.25029
5.96948
5.71452
5.48293
5.2731
5.08516
13.7116
12.4831
11.4547
10.5811
9.82816
9.1714
8.59301
8.07989
7.62211
7.21191
6.84301
6.51025
6.20928
5.93644
5.68866
5.46346
5.25929
5.07619
13.7045
12.4608
11.4161
10.5286
9.76648
9.10528
8.52655
8.01615
7.56315
7.15894
6.79661
6.47054
6.17611
5.90947
5.66743
5.44751
5.24809
5.06914
13.7012
12.4503
11.3967
10.5009
9.73206
9.0666
8.48601
7.97582
7.52463
7.12335
6.76468
6.44266
6.15242
5.88993
5.65191
5.43578
5.23989
5.06404
13.7
12.4462
11.3887
10.4887
9.71625
9.04797
8.46561
7.9547
7.50373
7.10342
6.74628
6.42618
6.13808
5.87784
5.64209
5.42818
5.23439
5.06044
13.6996
12.4449
11.3863
10.4848
9.7109
9.04136
8.45803
7.94652
7.49528
7.09502
6.73817
6.41856
6.13109
5.87157
5.63656
5.4234
5.23033
5.05701
13.6998
12.4453
11.3869
10.4858
9.71217
9.04279
8.45949
7.94786
7.49636
7.09571
6.73837
6.41817
6.13004
5.86979
5.63401
5.42006
5.22617
5.05205
13.701
12.4493
11.3946
10.4973
9.72716
9.06042
8.47872
7.96762
7.51567
7.11374
6.75446
6.43184
6.14094
5.87772
5.63886
5.42178
5.22482
5.0478
13.7054
12.4634
11.4201
10.5334
9.77147
9.10988
8.53028
8.01867
7.56416
7.1582
6.79392
6.46573
6.169
5.8999
5.65528
5.43266
5.23046
5.04868
13.7204
12.5082
11.4949
10.6317
9.88406
9.22808
8.64715
8.12926
7.66532
7.24816
6.87194
6.53176
6.22343
5.94339
5.6886
5.45665
5.24598
5.05678
13.7671
12.6332
11.6844
10.8598
10.1264
9.46665
8.87041
8.33087
7.84261
7.40077
7.00089
6.63879
6.31061
6.01284
5.74236
5.4966
5.27384
5.07436
13.9007
12.9464
12.1091
11.3258
10.5849
9.88996
9.24593
8.65524
8.11755
7.63054
7.19066
6.79384
6.43588
6.11275
5.82076
5.55674
5.31852
5.10622
14.2608
13.6662
12.9748
12.1898
11.3728
10.5741
9.8233
9.13446
8.51144
7.95246
7.45291
7.00708
6.60904
6.25318
5.93441
5.64839
5.39201
5.16496
15.1942
15.2325
14.6359
13.695
12.6465
11.6177
10.6662
9.81244
9.05784
8.39532
7.81474
7.30549
6.85767
6.46251
6.11253
5.80148
5.52478
5.28135
17.6339
18.6188
17.7659
16.2593
14.6635
13.1879
11.8942
10.7854
9.84225
9.04027
8.35575
7.76821
7.26066
6.81932
6.43309
6.09315
5.79295
5.53026
24.706
26.4241
23.903
20.7819
17.999
15.7013
13.847
12.355
11.1467
10.1572
9.33675
8.64808
8.0633
7.56148
7.12677
6.74712
6.41359
6.1224
51.9674
47.7381
37.7999
30.1726
24.7569
20.8712
18.0263
15.8934
14.2514
12.9537
11.9036
11.0364
10.308
9.68717
9.1517
8.68515
8.27557
7.91704
251.832
137.365
90.785
67.1258
53.2999
44.5109
38.5534
34.2768
31.0497
28.5129
26.4539
24.7404
23.2869
22.0351
20.944
19.9835
19.1315
18.3734
0.15543
0.229582
0.400954
0.573205
0.725791
0.870409
1.0106
1.14807
1.28404
1.41959
1.5556
1.69275
1.8315
1.97209
2.11459
2.2589
2.40482
2.55206
2.70029
2.84914
2.99826
3.14739
3.29636
3.44523
3.59441
3.74486
3.89843
4.05845
4.21887
4.37316
4.52087
4.66143
4.79415
4.91822
5.03281
5.13709
5.23029
5.31167
5.38058
5.4365
5.479
5.5078
5.52275
5.52389
5.5114
5.4857
5.44741
5.39758
5.33782
5.27072
5.20042
5.13262
5.07207
5.01498
4.95388
4.88725
4.81515
4.7381
4.65672
4.57169
4.48369
4.3934
4.30148
4.20854
4.11517
4.02195
3.92937
3.83793
3.74804
3.6601
3.57445
3.49139
3.41117
3.33399
3.26003
3.1894
3.1222
3.05846
2.99821
2.94143
2.88808
2.83809
2.79138
2.74784
2.70736
2.6698
2.63504
2.60294
2.57334
2.5461
2.52109
2.49815
2.47716
2.45797
2.44046
2.42451
2.41001
2.39684
2.38489
2.37409
2.36432
2.35551
2.34758
2.34045
2.33403
2.32823
2.32323
2.31891
2.31517
2.31194
2.30916
2.30679
2.30478
2.3031
2.30172
2.3006
2.29974
2.2991
2.29867
2.29842
2.29835
2.29843
2.29867
2.29904
2.29954
2.30016
2.30089
2.30172
2.30265
2.30367
2.30477
2.30595
2.30721
2.30853
2.30992
2.31137
2.31287
2.31444
2.31605
2.31771
2.31942
2.32117
2.32297
2.3248
2.32668
2.32858
2.33053
2.3325
2.33451
2.33655
2.33862
2.34071
2.34282
2.34496
2.34713
2.34931
2.35151
2.35373
2.35595
2.35819
2.36043
2.36266
2.36488
2.36707
2.36922
2.37131
2.3733
2.37517
2.37685
2.37827
2.37933
2.37988
2.37969
2.37841
2.37547
2.36985
2.35966
2.34091
2.30596
2.23972
0.79522
0.506629
0.537261
0.61672
0.70868
0.801156
0.889078
0.970648
1.04577
1.11512
1.1796
1.24011
1.29742
1.35219
1.40491
1.45598
1.50571
1.55435
1.60209
1.64912
1.69559
1.74168
1.78759
1.83356
1.87988
1.92693
1.97519
2.02513
2.07708
2.12831
2.17801
2.2258
2.27133
2.31426
2.35426
2.391
2.42413
2.45336
2.4784
2.49902
2.51501
2.52624
2.53261
2.53411
2.5308
2.5228
2.51034
2.49376
2.4735
2.45013
2.42428
2.39655
2.36722
2.33671
2.30436
2.26999
2.23372
2.19579
2.15648
2.11605
2.0748
2.03298
1.99085
1.94867
1.90664
1.865
1.82392
1.78359
1.74416
1.70578
1.66857
1.63262
1.59803
1.56486
1.53316
1.50298
1.47432
1.4472
1.42162
1.39755
1.37497
1.35384
1.33411
1.31575
1.29869
1.28287
1.26824
1.25472
1.24227
1.23081
1.22028
1.21062
1.20177
1.19367
1.18627
1.17952
1.17336
1.16776
1.16266
1.15803
1.15383
1.15003
1.14658
1.14347
1.14066
1.13813
1.13594
1.13405
1.13239
1.13093
1.12966
1.12854
1.12757
1.12672
1.12599
1.12537
1.12484
1.1244
1.12404
1.12375
1.12352
1.12336
1.12325
1.1232
1.12319
1.12323
1.12331
1.12343
1.12358
1.12377
1.12399
1.12424
1.12452
1.12482
1.12515
1.1255
1.12587
1.12626
1.12667
1.12709
1.12754
1.128
1.12847
1.12897
1.12947
1.12999
1.13051
1.13106
1.13161
1.13217
1.13274
1.13333
1.13392
1.13452
1.13513
1.13574
1.13637
1.137
1.13764
1.13828
1.13893
1.13959
1.14025
1.14091
1.14157
1.14222
1.14287
1.14351
1.14412
1.14472
1.14527
1.14578
1.14622
1.14658
1.14684
1.14705
1.14734
1.14823
1.1517
1.16486
1.5609
0.783433
0.714036
0.739656
0.792903
0.855011
0.917861
0.977569
1.03258
1.08262
1.1281
1.16967
1.20804
1.24389
1.27781
1.3103
1.3418
1.37266
1.40319
1.43368
1.46434
1.49541
1.52706
1.55945
1.59275
1.62704
1.66242
1.6989
1.73618
1.77348
1.81035
1.84643
1.88138
1.9149
1.94665
1.97631
2.00355
2.02808
2.04961
2.06789
2.0827
2.09388
2.10131
2.10493
2.10473
2.10076
2.09312
2.08199
2.06757
2.05011
2.02987
2.00705
1.98208
1.95541
1.92702
1.89699
1.86552
1.83282
1.79913
1.76467
1.72968
1.69438
1.65897
1.62364
1.58858
1.55395
1.5199
1.48656
1.45406
1.42251
1.39198
1.36256
1.33431
1.30728
1.28151
1.25701
1.23379
1.21187
1.19122
1.17184
1.15368
1.13672
1.12093
1.10624
1.09263
1.08003
1.06839
1.05767
1.0478
1.03873
1.03041
1.02278
1.01581
1.00943
1.00361
0.998292
0.993449
0.989037
0.985022
0.981369
0.97805
0.975034
0.972297
0.969814
0.967563
0.965527
0.9637
0.962078
0.960639
0.95936
0.958221
0.957208
0.956308
0.955507
0.954797
0.954168
0.953612
0.953122
0.952692
0.952316
0.95199
0.951709
0.95147
0.951268
0.951102
0.950968
0.950863
0.950787
0.950735
0.950707
0.950702
0.950716
0.95075
0.950801
0.950868
0.950951
0.951048
0.951159
0.951282
0.951416
0.951562
0.951718
0.951883
0.952057
0.95224
0.95243
0.952628
0.952833
0.953044
0.953262
0.953485
0.953714
0.953947
0.954186
0.954429
0.954677
0.954929
0.955184
0.955443
0.955705
0.95597
0.956238
0.956507
0.956777
0.957046
0.957314
0.957579
0.957837
0.958087
0.958324
0.958544
0.958741
0.958908
0.959042
0.959146
0.959247
0.959451
0.960098
0.962219
0.969084
2.20352
1.0191
0.867569
0.852094
0.876214
0.915485
0.960088
1.00515
1.04823
1.0883
1.12514
1.15898
1.19024
1.2194
1.24698
1.27342
1.29915
1.32453
1.3499
1.37553
1.40167
1.42852
1.45625
1.48499
1.51481
1.54577
1.57783
1.61095
1.64483
1.67905
1.71325
1.7471
1.78026
1.81239
1.84315
1.87217
1.89912
1.92365
1.94548
1.9643
1.97989
1.99206
2.00065
2.00559
2.00683
2.0044
1.99836
1.98883
1.97596
1.95994
1.94095
1.91921
1.89532
1.86949
1.84188
1.81269
1.78214
1.75047
1.71791
1.68467
1.65098
1.61705
1.58306
1.5492
1.51564
1.48252
1.44998
1.41816
1.38716
1.35708
1.328
1.29999
1.2731
1.2474
1.2229
1.19962
1.17759
1.15679
1.13722
1.11885
1.10168
1.08565
1.07074
1.05689
1.04407
1.03223
1.0213
1.01125
1.00201
0.993543
0.985783
0.978685
0.9722
0.966281
0.960884
0.955966
0.951487
0.947411
0.943703
0.940331
0.937266
0.934481
0.93195
0.92965
0.927562
0.925666
0.92395
0.922402
0.921013
0.919765
0.918644
0.917636
0.916729
0.915912
0.915175
0.914512
0.913913
0.913374
0.912887
0.912448
0.912053
0.911697
0.911377
0.91109
0.910833
0.910603
0.910399
0.910218
0.910058
0.909917
0.909795
0.90969
0.909599
0.909523
0.909461
0.90941
0.909371
0.909342
0.909322
0.909311
0.909309
0.909314
0.909327
0.909345
0.90937
0.9094
0.909436
0.909476
0.909521
0.909569
0.909621
0.909677
0.909736
0.909798
0.909862
0.909929
0.909998
0.910068
0.910141
0.910215
0.910291
0.910367
0.910443
0.910519
0.910594
0.910666
0.910735
0.910798
0.910853
0.910898
0.910929
0.91094
0.910929
0.910892
0.910829
0.910761
0.91075
0.911003
0.91206
0.915325
2.766
1.22093
0.998038
0.949215
0.950934
0.972983
1.00391
1.03816
1.07279
1.10629
1.138
1.16774
1.19566
1.22203
1.24719
1.27151
1.29536
1.31907
1.34293
1.36723
1.3922
1.41803
1.44488
1.47286
1.50203
1.53241
1.56397
1.5966
1.63008
1.66406
1.69822
1.73223
1.76574
1.79838
1.82978
1.85954
1.8873
1.91268
1.93536
1.95502
1.97141
1.98431
1.99358
1.99911
2.00087
1.99886
1.99315
1.98386
1.97114
1.95516
1.93612
1.91447
1.89056
1.86461
1.83685
1.80752
1.77687
1.74513
1.71253
1.67931
1.64566
1.61179
1.57789
1.54413
1.51068
1.47768
1.44526
1.41355
1.38265
1.35265
1.32365
1.29571
1.26888
1.24322
1.21875
1.1955
1.17348
1.1527
1.13314
1.11479
1.09763
1.08162
1.06673
1.05292
1.04013
1.02833
1.01746
1.00747
0.9983
0.989901
0.982219
0.975203
0.968803
0.962971
0.957661
0.952829
0.948436
0.944443
0.940815
0.937519
0.934524
0.931804
0.929333
0.927087
0.925046
0.923191
0.921506
0.919977
0.918593
0.917342
0.916211
0.915186
0.914257
0.913413
0.912645
0.911946
0.911308
0.910726
0.910194
0.909706
0.909259
0.908848
0.908471
0.908123
0.907803
0.907509
0.907237
0.906985
0.906753
0.906539
0.90634
0.906156
0.905985
0.905827
0.905679
0.905542
0.905415
0.905296
0.905185
0.905081
0.904984
0.904893
0.904808
0.904727
0.904651
0.904579
0.904511
0.904446
0.904384
0.904325
0.904268
0.904214
0.904161
0.90411
0.90406
0.904011
0.903963
0.903916
0.90387
0.903824
0.903778
0.903731
0.903683
0.903634
0.903583
0.903528
0.903469
0.903404
0.90333
0.903245
0.903146
0.903028
0.902888
0.90272
0.902524
0.902309
0.902113
0.902059
0.902435
0.903898
3.25358
1.39488
1.10964
1.03281
1.01667
1.02545
1.04597
1.07205
1.10037
1.12911
1.15732
1.18455
1.2107
1.23586
1.26022
1.28405
1.30763
1.33124
1.35514
1.37959
1.40479
1.43095
1.4582
1.48664
1.51634
1.5473
1.57947
1.61277
1.64696
1.68174
1.71682
1.75183
1.78642
1.82018
1.8527
1.88357
1.91237
1.93871
1.96222
1.98257
1.99948
2.01275
2.02221
2.02777
2.0294
2.02713
2.02103
2.01125
1.99794
1.98132
1.96175
1.9396
1.91513
1.8886
1.86027
1.8304
1.79924
1.76703
1.734
1.70037
1.66635
1.63214
1.59791
1.56384
1.53008
1.49677
1.46404
1.43201
1.40078
1.37046
1.34111
1.31281
1.28563
1.2596
1.23476
1.21114
1.18875
1.16761
1.14769
1.12901
1.11152
1.09521
1.08003
1.06596
1.05294
1.04092
1.02986
1.0197
1.01038
1.00185
0.994065
0.986961
0.980489
0.9746
0.969247
0.964383
0.959967
0.95596
0.952323
0.949024
0.94603
0.943313
0.940847
0.938607
0.936571
0.934721
0.933038
0.931508
0.930116
0.928853
0.927706
0.926662
0.92571
0.924842
0.924047
0.923318
0.922649
0.922033
0.921466
0.920941
0.920455
0.920004
0.919584
0.919193
0.918828
0.918487
0.918167
0.917866
0.917583
0.917316
0.917063
0.916824
0.916597
0.91638
0.916174
0.915977
0.915788
0.915607
0.915432
0.915263
0.9151
0.914942
0.914788
0.914638
0.914492
0.914349
0.914208
0.91407
0.913934
0.9138
0.913667
0.913535
0.913404
0.913274
0.913145
0.913015
0.912886
0.912756
0.912626
0.912496
0.912364
0.912231
0.912096
0.911959
0.911818
0.911673
0.911523
0.911366
0.911199
0.911021
0.910827
0.910614
0.910376
0.910109
0.909808
0.909477
0.909134
0.908851
0.908788
0.909293
3.6697
1.54455
1.20535
1.10462
1.07378
1.07201
1.08445
1.10424
1.12774
1.15292
1.1786
1.20416
1.22933
1.25404
1.27835
1.30244
1.32649
1.35074
1.37541
1.40071
1.42684
1.45397
1.48224
1.51175
1.54256
1.57466
1.60801
1.6425
1.67792
1.714
1.7504
1.78679
1.82276
1.85787
1.89168
1.92373
1.95357
1.98077
2.00492
2.0257
2.04281
2.05604
2.06523
2.07032
2.0713
2.06823
2.06121
2.05042
2.03605
2.01847
1.99802
1.97498
1.94964
1.92228
1.89316
1.86256
1.83073
1.79791
1.76433
1.7302
1.69572
1.66108
1.62645
1.59199
1.55785
1.52417
1.49106
1.45864
1.42702
1.39628
1.36651
1.33778
1.31014
1.28365
1.25835
1.23426
1.21141
1.1898
1.16943
1.1503
1.13239
1.11567
1.10012
1.08568
1.07233
1.06
1.04866
1.03824
1.0287
1.01997
1.012
1.00475
0.998144
0.992143
0.986695
0.981752
0.977272
0.973212
0.969534
0.966201
0.963182
0.960446
0.957964
0.955713
0.953669
0.951812
0.950122
0.948585
0.947186
0.945912
0.944751
0.943692
0.942724
0.941837
0.941022
0.940272
0.939581
0.938941
0.938349
0.937798
0.937284
0.936805
0.936356
0.935935
0.935538
0.935164
0.93481
0.934475
0.934156
0.933852
0.933562
0.933284
0.933017
0.93276
0.932513
0.932273
0.932041
0.931815
0.931596
0.931381
0.931171
0.930966
0.930764
0.930565
0.930368
0.930175
0.929983
0.929793
0.929604
0.929416
0.929228
0.929042
0.928855
0.928669
0.928482
0.928295
0.928107
0.927918
0.927728
0.927537
0.927344
0.927149
0.926951
0.92675
0.926545
0.926335
0.926119
0.925895
0.925661
0.925414
0.92515
0.924866
0.924556
0.924214
0.923835
0.923416
0.922965
0.922521
0.922177
0.922151
4.01667
1.67188
1.28692
1.16582
1.12268
1.11229
1.11826
1.1331
1.15286
1.1753
1.19911
1.22353
1.24815
1.27279
1.29741
1.3221
1.34698
1.37222
1.39799
1.42449
1.45188
1.48032
1.50995
1.54084
1.57307
1.60662
1.64146
1.67747
1.71443
1.75207
1.79007
1.82805
1.86556
1.90214
1.93729
1.9705
2.00129
2.02917
2.05374
2.07463
2.09156
2.10433
2.11281
2.11696
2.11681
2.11246
2.10407
2.09186
2.07621
2.0574
2.03576
2.01158
1.98518
1.95684
1.92685
1.89546
1.86294
1.82951
1.7954
1.76081
1.72594
1.69094
1.65599
1.62124
1.58681
1.55285
1.51946
1.48675
1.45482
1.42375
1.39363
1.36453
1.33651
1.30961
1.28389
1.25937
1.23608
1.21403
1.19323
1.17367
1.15534
1.13822
1.12227
1.10747
1.09377
1.08112
1.06948
1.05879
1.04901
1.04006
1.0319
1.02448
1.01773
1.0116
1.00604
1.00101
0.996453
0.992331
0.988602
0.98523
0.982179
0.979418
0.976918
0.974653
0.972599
0.970735
0.969041
0.967499
0.966095
0.964816
0.963649
0.962582
0.961605
0.960708
0.959882
0.95912
0.958416
0.957762
0.957154
0.956588
0.956058
0.955561
0.955093
0.954653
0.954236
0.953841
0.953465
0.953107
0.952765
0.952437
0.952121
0.951818
0.951524
0.95124
0.950965
0.950696
0.950435
0.950179
0.949928
0.949682
0.949441
0.949202
0.948967
0.948734
0.948503
0.948274
0.948047
0.94782
0.947594
0.947369
0.947144
0.946918
0.946693
0.946467
0.94624
0.946012
0.945783
0.945552
0.94532
0.945086
0.94485
0.94461
0.944368
0.944122
0.943871
0.943615
0.943352
0.94308
0.942798
0.942502
0.942189
0.941854
0.941493
0.941098
0.940662
0.940182
0.939657
0.939108
0.938592
0.938272
4.29518
1.77773
1.35526
1.2171
1.16363
1.14609
1.14678
1.15763
1.17441
1.19471
1.21709
1.2407
1.26502
1.28978
1.31488
1.34032
1.36616
1.39252
1.41955
1.44739
1.4762
1.50612
1.53727
1.56974
1.60359
1.63881
1.67536
1.71312
1.75185
1.79129
1.83109
1.87083
1.91002
1.94815
1.98464
2.01895
2.05053
2.07888
2.10357
2.12422
2.14056
2.15242
2.15972
2.16245
2.1607
2.15463
2.14454
2.13071
2.11348
2.09318
2.07014
2.04468
2.01712
1.98776
1.95687
1.92473
1.89157
1.85763
1.8231
1.78819
1.75306
1.71787
1.68277
1.6479
1.61337
1.57931
1.54581
1.51298
1.48091
1.44968
1.41937
1.39005
1.36177
1.3346
1.30857
1.28373
1.2601
1.2377
1.21654
1.19662
1.17793
1.16045
1.14416
1.12903
1.11501
1.10207
1.09016
1.07923
1.06921
1.06006
1.05172
1.04414
1.03724
1.031
1.02534
1.02022
1.01559
1.01141
1.00764
1.00423
1.00115
0.998371
0.995857
0.993583
0.991525
0.989658
0.987965
0.986425
0.985024
0.983747
0.982581
0.981515
0.980537
0.979639
0.978811
0.978046
0.977338
0.976679
0.976066
0.975493
0.974956
0.974451
0.973974
0.973524
0.973097
0.972691
0.972303
0.971933
0.971577
0.971235
0.970905
0.970586
0.970277
0.969976
0.969683
0.969397
0.969118
0.968843
0.968573
0.968307
0.968045
0.967785
0.967528
0.967274
0.96702
0.966769
0.966518
0.966267
0.966017
0.965767
0.965517
0.965266
0.965015
0.964762
0.964509
0.964254
0.963997
0.963738
0.963478
0.963215
0.962949
0.96268
0.962408
0.962131
0.96185
0.961562
0.961267
0.960963
0.960648
0.960319
0.959973
0.959605
0.959209
0.95878
0.958309
0.957791
0.957222
0.956612
0.956002
0.955524
4.50454
1.86231
1.41081
1.25883
1.19682
1.17335
1.16968
1.17726
1.19163
1.21022
1.2315
1.25451
1.27868
1.30366
1.3293
1.35552
1.38235
1.40987
1.43818
1.46741
1.4977
1.52917
1.56195
1.59612
1.63174
1.66882
1.70729
1.74701
1.78775
1.82921
1.87102
1.91269
1.95367
1.99337
2.03117
2.06644
2.0986
2.1271
2.15151
2.17148
2.18675
2.19719
2.20279
2.20361
2.19984
2.19177
2.1797
2.16397
2.14495
2.12298
2.09842
2.07161
2.04287
2.01251
1.9808
1.94799
1.91433
1.88002
1.84526
1.81021
1.77503
1.73987
1.70484
1.67007
1.63566
1.60172
1.56834
1.53561
1.50361
1.47242
1.44211
1.41276
1.38441
1.35712
1.33095
1.30593
1.28209
1.25945
1.23804
1.21786
1.19889
1.18114
1.16458
1.14918
1.13491
1.12173
1.10959
1.09844
1.08823
1.0789
1.07041
1.06268
1.05567
1.04932
1.04358
1.03839
1.0337
1.02948
1.02567
1.02223
1.01914
1.01635
1.01383
1.01156
1.0095
1.00764
1.00595
1.00442
1.00303
1.00177
1.00061
0.999554
0.998584
0.997693
0.996872
0.996112
0.995408
0.994754
0.994143
0.993572
0.993036
0.992531
0.992054
0.991603
0.991174
0.990765
0.990374
0.989999
0.989639
0.989292
0.988956
0.98863
0.988314
0.988006
0.987705
0.98741
0.987121
0.986837
0.986557
0.98628
0.986007
0.985736
0.985468
0.985201
0.984935
0.98467
0.984406
0.984142
0.983878
0.983613
0.983348
0.983082
0.982816
0.982548
0.982278
0.982007
0.981734
0.981458
0.981181
0.9809
0.980617
0.98033
0.980039
0.979744
0.979443
0.979137
0.978822
0.978499
0.978164
0.977816
0.97745
0.977063
0.976648
0.976201
0.975712
0.975176
0.974588
0.973953
0.973301
0.972751
4.64315
1.92551
1.45382
1.29134
1.22256
1.19428
1.18705
1.19197
1.20438
1.2216
1.24201
1.2646
1.28872
1.31398
1.34016
1.36716
1.39496
1.42361
1.45319
1.4838
1.51558
1.54865
1.58312
1.6191
1.65664
1.69574
1.73635
1.77828
1.82128
1.86501
1.90902
1.95275
1.99557
2.03679
2.07572
2.11167
2.14403
2.17222
2.1958
2.21449
2.2281
2.23651
2.23985
2.23833
2.23222
2.22183
2.20754
2.18971
2.16874
2.14502
2.11891
2.09077
2.06092
2.02965
1.99725
1.96396
1.92998
1.89552
1.86073
1.82579
1.7908
1.75591
1.7212
1.68679
1.65275
1.61919
1.58617
1.55378
1.52208
1.49115
1.46106
1.43187
1.40364
1.37642
1.35027
1.32522
1.30132
1.27859
1.25706
1.23672
1.21759
1.19966
1.18291
1.16732
1.15286
1.13949
1.12718
1.11587
1.10551
1.09605
1.08743
1.0796
1.07249
1.06606
1.06026
1.05501
1.05029
1.04603
1.0422
1.03876
1.03566
1.03287
1.03035
1.02809
1.02604
1.0242
1.02253
1.02102
1.01965
1.0184
1.01726
1.01622
1.01527
1.01439
1.01358
1.01284
1.01215
1.0115
1.0109
1.01034
1.00981
1.00931
1.00884
1.0084
1.00798
1.00757
1.00718
1.00681
1.00645
1.00611
1.00577
1.00545
1.00513
1.00483
1.00452
1.00423
1.00394
1.00365
1.00337
1.00309
1.00281
1.00254
1.00227
1.00199
1.00172
1.00145
1.00118
1.00091
1.00065
1.00037
1.0001
0.999832
0.999558
0.999283
0.999007
0.998728
0.998447
0.998164
0.997879
0.99759
0.997299
0.997003
0.996704
0.9964
0.996091
0.995775
0.995452
0.995119
0.994776
0.994419
0.994045
0.99365
0.993229
0.992776
0.992285
0.991748
0.99116
0.990526
0.989871
0.989301
4.70904
1.96713
1.48454
1.31512
1.24141
1.20947
1.19946
1.2023
1.21319
1.22937
1.24915
1.27148
1.29565
1.32124
1.34799
1.37576
1.40452
1.43427
1.46509
1.49708
1.53036
1.56506
1.60131
1.63921
1.67883
1.72018
1.76319
1.80761
1.85313
1.89934
1.94568
1.9915
2.03606
2.07854
2.11816
2.15422
2.18615
2.21328
2.2352
2.25176
2.26291
2.26871
2.26935
2.2651
2.2563
2.24334
2.22662
2.20658
2.18362
2.15816
2.13057
2.1012
2.07039
2.03842
2.00554
1.97197
1.93792
1.90356
1.86902
1.83444
1.79992
1.76556
1.73144
1.69765
1.66426
1.63132
1.59892
1.5671
1.53595
1.50551
1.47585
1.44704
1.41912
1.39216
1.36621
1.3413
1.31749
1.29481
1.27328
1.25291
1.23372
1.21571
1.19886
1.18317
1.16859
1.15511
1.14268
1.13126
1.1208
1.11124
1.10254
1.09463
1.08747
1.08099
1.07514
1.06987
1.06512
1.06085
1.05702
1.05357
1.05048
1.0477
1.04521
1.04296
1.04094
1.03912
1.03748
1.03599
1.03465
1.03342
1.03231
1.03129
1.03036
1.02951
1.02872
1.028
1.02732
1.0267
1.02611
1.02557
1.02505
1.02457
1.02411
1.02368
1.02327
1.02287
1.0225
1.02213
1.02178
1.02145
1.02112
1.0208
1.02049
1.02019
1.01989
1.0196
1.01931
1.01903
1.01875
1.01848
1.0182
1.01793
1.01766
1.01739
1.01712
1.01686
1.01659
1.01632
1.01605
1.01578
1.01551
1.01524
1.01497
1.01469
1.01442
1.01414
1.01386
1.01357
1.01329
1.013
1.01271
1.01241
1.01211
1.01181
1.01149
1.01118
1.01085
1.01052
1.01018
1.00982
1.00945
1.00906
1.00864
1.00819
1.00771
1.00719
1.00662
1.006
1.00537
1.00481
4.70011
1.98707
1.50349
1.33097
1.25439
1.22007
1.20818
1.20958
1.21944
1.23496
1.25442
1.2767
1.3011
1.32714
1.35454
1.38314
1.41288
1.44377
1.47585
1.50925
1.54409
1.58051
1.61867
1.65868
1.70062
1.74451
1.79025
1.83747
1.88574
1.93453
1.98314
2.03081
2.07676
2.1198
2.15917
2.19422
2.22438
2.24924
2.26851
2.28211
2.29011
2.29267
2.29007
2.28268
2.27089
2.25516
2.23593
2.21366
2.18878
2.1617
2.13281
2.10244
2.07091
2.03848
2.0054
1.97185
1.93802
1.90404
1.87003
1.8361
1.80233
1.76878
1.73553
1.70263
1.67013
1.63808
1.60653
1.57554
1.54515
1.51542
1.48641
1.45818
1.43077
1.40425
1.37867
1.35407
1.33051
1.30801
1.28661
1.26634
1.24721
1.22921
1.21236
1.19664
1.18203
1.1685
1.15602
1.14454
1.13402
1.12442
1.11567
1.10773
1.10053
1.09403
1.08816
1.08288
1.07814
1.07387
1.07005
1.06662
1.06355
1.0608
1.05833
1.05611
1.05412
1.05234
1.05072
1.04927
1.04796
1.04677
1.04569
1.0447
1.0438
1.04297
1.04221
1.04151
1.04086
1.04026
1.0397
1.03917
1.03868
1.03821
1.03778
1.03736
1.03696
1.03658
1.03622
1.03587
1.03554
1.03521
1.0349
1.03459
1.03429
1.034
1.03371
1.03343
1.03315
1.03288
1.03261
1.03234
1.03208
1.03181
1.03155
1.03129
1.03103
1.03077
1.03051
1.03024
1.02998
1.02972
1.02945
1.02919
1.02892
1.02865
1.02838
1.02811
1.02784
1.02756
1.02728
1.02699
1.02671
1.02642
1.02612
1.02582
1.02552
1.02521
1.02489
1.02456
1.02423
1.02388
1.02352
1.02313
1.02273
1.0223
1.02183
1.02133
1.02079
1.02021
1.01962
1.01909
4.61395
1.98553
1.51163
1.34032
1.26322
1.22804
1.21533
1.21611
1.22558
1.24097
1.26052
1.28313
1.30805
1.3348
1.36307
1.39268
1.42358
1.45575
1.48927
1.52424
1.56081
1.59917
1.6395
1.68197
1.72663
1.77348
1.82236
1.87267
1.92378
1.97493
2.02525
2.07379
2.11957
2.16165
2.19927
2.2318
2.2588
2.28002
2.29536
2.30488
2.30878
2.30735
2.30097
2.29005
2.27506
2.25648
2.23478
2.21042
2.18382
2.15538
2.12548
2.09442
2.0625
2.02995
1.99699
1.96379
1.93048
1.8972
1.86402
1.83103
1.79828
1.76581
1.73369
1.70192
1.67056
1.63963
1.60917
1.57922
1.54982
1.52101
1.49285
1.46539
1.43868
1.41277
1.38772
1.36359
1.34041
1.31824
1.2971
1.27704
1.25807
1.2402
1.22344
1.20777
1.1932
1.17969
1.16722
1.15574
1.14522
1.13561
1.12685
1.11891
1.11171
1.10521
1.09936
1.09409
1.08936
1.08512
1.08133
1.07793
1.07489
1.07217
1.06974
1.06757
1.06562
1.06387
1.0623
1.06088
1.05961
1.05846
1.05741
1.05646
1.0556
1.0548
1.05407
1.0534
1.05278
1.05221
1.05167
1.05117
1.0507
1.05026
1.04984
1.04944
1.04907
1.04871
1.04836
1.04803
1.04771
1.0474
1.0471
1.04681
1.04653
1.04625
1.04598
1.04571
1.04545
1.04519
1.04493
1.04467
1.04442
1.04417
1.04392
1.04367
1.04342
1.04317
1.04292
1.04267
1.04241
1.04216
1.04191
1.04165
1.0414
1.04114
1.04088
1.04062
1.04035
1.04008
1.03982
1.03954
1.03927
1.03899
1.0387
1.03841
1.03812
1.03782
1.03752
1.0372
1.03688
1.03654
1.03619
1.03583
1.03544
1.03503
1.03459
1.03412
1.03362
1.03308
1.03254
1.03206
4.44584
1.96514
1.51133
1.34578
1.27081
1.23654
1.22433
1.22552
1.23546
1.25143
1.27173
1.29522
1.32118
1.34911
1.3787
1.40977
1.44225
1.47613
1.51149
1.54847
1.58724
1.62798
1.67092
1.71622
1.764
1.8143
1.8665
1.91982
1.97334
2.02603
2.07679
2.12453
2.16827
2.20717
2.24064
2.26828
2.2899
2.30551
2.31522
2.31929
2.31805
2.31188
2.30122
2.28653
2.26829
2.24696
2.22299
2.19682
2.16884
2.13942
2.10889
2.07753
2.0456
2.01331
1.98083
1.94831
1.91586
1.88357
1.8515
1.81972
1.78825
1.75711
1.72634
1.69594
1.66593
1.63633
1.60716
1.57845
1.55022
1.52252
1.49539
1.46887
1.44301
1.41788
1.39352
1.36999
1.34734
1.32562
1.30487
1.28513
1.26642
1.24877
1.23218
1.21666
1.2022
1.18877
1.17637
1.16495
1.15447
1.1449
1.13618
1.12826
1.1211
1.11463
1.10881
1.10358
1.09889
1.09469
1.09093
1.08758
1.08458
1.08191
1.07953
1.0774
1.0755
1.0738
1.07227
1.0709
1.06967
1.06856
1.06756
1.06665
1.06582
1.06506
1.06437
1.06373
1.06314
1.0626
1.06209
1.06162
1.06118
1.06076
1.06037
1.05999
1.05964
1.0593
1.05898
1.05867
1.05837
1.05808
1.0578
1.05753
1.05726
1.057
1.05674
1.05649
1.05624
1.056
1.05576
1.05552
1.05528
1.05504
1.0548
1.05457
1.05433
1.0541
1.05386
1.05362
1.05339
1.05315
1.05291
1.05267
1.05243
1.05218
1.05193
1.05169
1.05144
1.05118
1.05093
1.05067
1.05041
1.05014
1.04987
1.0496
1.04932
1.04904
1.04875
1.04845
1.04814
1.04782
1.0475
1.04715
1.04679
1.04641
1.046
1.04556
1.0451
1.04461
1.04413
1.0437
4.22716
1.93992
1.51009
1.35299
1.28229
1.25066
1.24039
1.24324
1.25478
1.27238
1.29439
1.31973
1.34765
1.37768
1.40949
1.44291
1.47787
1.51437
1.5525
1.59242
1.6343
1.67838
1.72487
1.77395
1.82574
1.88013
1.93576
1.99152
2.04615
2.09831
2.14675
2.19037
2.22836
2.26022
2.28574
2.30499
2.31815
2.32557
2.32761
2.32469
2.31722
2.30563
2.29034
2.27179
2.25038
2.22654
2.20064
2.17305
2.14412
2.11416
2.08345
2.05222
2.0207
1.98904
1.9574
1.9259
1.89461
1.8636
1.83292
1.8026
1.77264
1.74306
1.71386
1.68503
1.65658
1.62851
1.60082
1.57353
1.54666
1.52024
1.4943
1.46889
1.44406
1.41985
1.39633
1.37355
1.35156
1.33042
1.31018
1.29087
1.27253
1.2552
1.23887
1.22357
1.2093
1.19603
1.18375
1.17244
1.16206
1.15257
1.14392
1.13607
1.12897
1.12256
1.1168
1.11162
1.10699
1.10284
1.09915
1.09585
1.09291
1.0903
1.08797
1.08589
1.08404
1.08239
1.08092
1.0796
1.07842
1.07736
1.0764
1.07553
1.07474
1.07402
1.07336
1.07276
1.0722
1.07169
1.07121
1.07077
1.07036
1.06997
1.0696
1.06925
1.06892
1.0686
1.0683
1.06801
1.06773
1.06746
1.0672
1.06695
1.0667
1.06645
1.06621
1.06598
1.06575
1.06552
1.06529
1.06507
1.06484
1.06462
1.0644
1.06418
1.06396
1.06373
1.06351
1.06329
1.06307
1.06284
1.06262
1.06239
1.06216
1.06193
1.0617
1.06146
1.06123
1.06099
1.06075
1.0605
1.06025
1.06
1.05975
1.05949
1.05923
1.05896
1.05868
1.0584
1.05811
1.05781
1.0575
1.05718
1.05684
1.05648
1.05611
1.05571
1.05529
1.05485
1.05442
1.05405
3.96358
1.90745
1.50941
1.36458
1.30092
1.27426
1.26802
1.27445
1.28938
1.31035
1.33577
1.36461
1.39615
1.42993
1.46563
1.50307
1.5422
1.58302
1.62565
1.67023
1.71698
1.7661
1.81783
1.87232
1.92968
1.98825
2.0464
2.10253
2.15498
2.20224
2.24309
2.27679
2.30309
2.3222
2.33463
2.34106
2.34219
2.33867
2.33106
2.31984
2.30538
2.28803
2.26811
2.24591
2.22173
2.19585
2.16856
2.14012
2.1108
2.08082
2.05042
2.01978
1.98906
1.95841
1.92795
1.89775
1.86788
1.83839
1.8093
1.78061
1.75234
1.72446
1.69697
1.66985
1.64308
1.61666
1.59057
1.56482
1.53943
1.51441
1.48979
1.46561
1.44191
1.41874
1.39617
1.37425
1.35303
1.33257
1.31292
1.29414
1.27627
1.25933
1.24335
1.22834
1.21431
1.20126
1.18917
1.17802
1.16778
1.15841
1.14987
1.14212
1.13511
1.12879
1.12311
1.11801
1.11345
1.10938
1.10575
1.10252
1.09965
1.0971
1.09483
1.09282
1.09103
1.08944
1.08802
1.08676
1.08563
1.08461
1.0837
1.08287
1.08213
1.08145
1.08083
1.08027
1.07975
1.07927
1.07883
1.07841
1.07803
1.07767
1.07733
1.07701
1.07671
1.07642
1.07614
1.07587
1.07562
1.07537
1.07513
1.0749
1.07467
1.07444
1.07423
1.07401
1.0738
1.07359
1.07338
1.07317
1.07297
1.07277
1.07256
1.07236
1.07216
1.07195
1.07175
1.07155
1.07134
1.07113
1.07093
1.07072
1.07051
1.0703
1.07008
1.06987
1.06965
1.06943
1.0692
1.06898
1.06875
1.06852
1.06828
1.06805
1.0678
1.06756
1.0673
1.06704
1.06678
1.0665
1.06622
1.06592
1.06561
1.06529
1.06494
1.06459
1.06421
1.06383
1.06345
1.06314
3.66381
1.86548
1.50877
1.38107
1.32792
1.30914
1.30957
1.3221
1.34287
1.36959
1.40077
1.43542
1.47286
1.51263
1.55442
1.59807
1.64351
1.69076
1.7399
1.7911
1.84452