/*--------------------------------*- C++ -*----------------------------------*\
  =========                 |
  \\      /  F ield         | OpenFOAM: The Open Source CFD Toolbox
   \\    /   O peration     | Website:  https://openfoam.org
    \\  /    A nd           | Version:  6
     \\/     M anipulation  |
\*---------------------------------------------------------------------------*/
FoamFile
{
    version     2.0;
    format      ascii;
    class       volScalarField;
    location    "0.07";
    object      k;
}
// * * * * * * * * * * * * * * * * * * * * * * * * * * * * * * * * * * * * * //

dimensions      [0 2 -2 0 0 0 0];

internalField   nonuniform List<scalar> 
12225
(
0.24644
0.158844
0.119025
0.0972372
0.0837789
0.0748219
0.068472
0.0637009
0.0599413
0.056873
0.054306
0.0521206
0.0502378
0.0486024
0.0471832
0.0459615
0.0449646
0.0443178
0.339525
0.260141
0.208286
0.17535
0.153363
0.137816
0.126191
0.117079
0.109686
0.103539
0.0983377
0.0938762
0.0900098
0.0866325
0.0836729
0.0810712
0.0788204
0.0768828
0.347499
0.292347
0.248542
0.216258
0.192334
0.174203
0.160065
0.148723
0.139403
0.131597
0.124959
0.119246
0.114283
0.109939
0.106122
0.102754
0.0997994
0.0972558
0.351371
0.309044
0.271916
0.241986
0.218248
0.199343
0.184082
0.171554
0.161102
0.152258
0.144683
0.138129
0.132413
0.127394
0.122969
0.119051
0.115593
0.1126
0.353918
0.319274
0.287228
0.259883
0.237144
0.218342
0.202723
0.189628
0.178534
0.16904
0.160839
0.153698
0.147438
0.141919
0.137032
0.13269
0.128841
0.12549
0.355678
0.32604
0.297896
0.272974
0.25153
0.233276
0.21775
0.204488
0.193089
0.183224
0.174626
0.167088
0.16044
0.154553
0.149315
0.144644
0.140487
0.136849
0.356918
0.330718
0.305596
0.282819
0.26273
0.245239
0.230071
0.216906
0.205441
0.195412
0.186596
0.17881
0.171904
0.165756
0.16026
0.155339
0.150943
0.147076
0.357803
0.334035
0.311263
0.290329
0.271542
0.2549
0.240241
0.227344
0.215981
0.205944
0.197048
0.189137
0.182079
0.175759
0.170085
0.164984
0.16041
0.156368
0.358434
0.336411
0.315466
0.296087
0.278495
0.262712
0.248636
0.23611
0.224965
0.215034
0.206166
0.198227
0.191104
0.184691
0.178908
0.173688
0.16899
0.16482
0.358882
0.338112
0.318579
0.30049
0.283961
0.268998
0.255528
0.243433
0.232579
0.222835
0.214075
0.206187
0.199067
0.192628
0.186795
0.18151
0.176735
0.172479
0.359196
0.339321
0.320864
0.303825
0.288216
0.274008
0.261132
0.249489
0.23897
0.229466
0.220872
0.21309
0.206031
0.199617
0.193785
0.18848
0.183672
0.179367
0.359395
0.340096
0.32238
0.306107
0.291209
0.277617
0.26525
0.254018
0.243822
0.234566
0.226159
0.218511
0.211547
0.205197
0.199402
0.194115
0.189308
0.184991
0.359536
0.340655
0.323501
0.307844
0.293541
0.280488
0.268587
0.257744
0.247867
0.238867
0.230659
0.223166
0.216319
0.210055
0.20432
0.199073
0.19429
0.189979
0.359644
0.341089
0.324397
0.309272
0.295515
0.282978
0.271542
0.261104
0.251572
0.242859
0.234886
0.227584
0.220888
0.214743
0.209099
0.20392
0.199184
0.194899
0.35972
0.341396
0.325051
0.310351
0.297051
0.284971
0.273966
0.263921
0.254734
0.246321
0.238605
0.231518
0.225001
0.219001
0.213476
0.20839
0.203724
0.199487
0.359768
0.341591
0.325478
0.311079
0.298125
0.286406
0.275761
0.266056
0.257185
0.249054
0.241588
0.234718
0.228388
0.222546
0.217153
0.212175
0.207596
0.20342
0.359793
0.341698
0.325719
0.311502
0.298768
0.287294
0.276902
0.26745
0.25882
0.250915
0.243655
0.236969
0.230801
0.2251
0.219826
0.214949
0.210451
0.206337
0.359804
0.341741
0.325818
0.311681
0.299046
0.287687
0.277421
0.268097
0.259593
0.251809
0.24466
0.238076
0.231998
0.226375
0.221168
0.216345
0.211889
0.207805
0.359801
0.341728
0.325788
0.311625
0.298959
0.287562
0.277253
0.267884
0.259333
0.251501
0.244304
0.237671
0.231545
0.225874
0.220619
0.215748
0.211246
0.207115
0.359775
0.34162
0.325541
0.311187
0.298284
0.286618
0.276022
0.266359
0.257518
0.249405
0.241943
0.235062
0.228706
0.222825
0.217378
0.212333
0.207673
0.203402
0.359715
0.341374
0.325001
0.310264
0.29692
0.284786
0.27372
0.263604
0.254339
0.245836
0.238021
0.230825
0.224189
0.218062
0.212397
0.207163
0.202338
0.197929
0.359585
0.340848
0.323893
0.308458
0.294371
0.281506
0.269755
0.259019
0.249205
0.240227
0.232004
0.224462
0.217534
0.211162
0.205293
0.199889
0.194925
0.190406
0.359329
0.33983
0.321847
0.305285
0.290099
0.276233
0.263612
0.252141
0.241721
0.23225
0.223632
0.215778
0.208607
0.202047
0.196038
0.190528
0.185489
0.180923
0.358859
0.338004
0.318358
0.300145
0.283487
0.268392
0.254786
0.242551
0.231552
0.221654
0.21273
0.204665
0.197357
0.190718
0.184671
0.179157
0.174137
0.169611
0.35805
0.334905
0.312738
0.292274
0.273802
0.257337
0.242744
0.22983
0.218388
0.208223
0.199161
0.191053
0.183769
0.177201
0.171258
0.165868
0.160983
0.156601
0.356706
0.329796
0.303955
0.280593
0.260058
0.242237
0.226825
0.213472
0.201854
0.19169
0.182745
0.174828
0.167781
0.161474
0.155804
0.150689
0.146071
0.141945
0.354517
0.321327
0.290219
0.263322
0.2407
0.221821
0.206021
0.192693
0.181341
0.171577
0.163101
0.155679
0.14913
0.143311
0.138109
0.133436
0.12923
0.125482
0.3509
0.306589
0.267891
0.23705
0.212853
0.19376
0.178455
0.165952
0.155549
0.146755
0.139217
0.132679
0.126951
0.12189
0.117384
0.113348
0.109722
0.106491
0.342446
0.275926
0.227234
0.193472
0.169731
0.152474
0.139407
0.129117
0.120749
0.113778
0.107858
0.102758
0.0983086
0.0943893
0.0909079
0.0877941
0.0849958
0.0824923
0.259302
0.173108
0.131344
0.107399
0.0920934
0.08167
0.0742111
0.068618
0.0642423
0.0606959
0.0577396
0.0552209
0.0530387
0.051123
0.0494238
0.0479038
0.046535
0.0453002
0.00217537
0.00457771
0.00662604
0.00844003
0.0098845
0.0111597
0.0123297
0.0134256
0.0144679
0.0154718
0.0164484
0.0174058
0.0183492
0.0192819
0.0202052
0.0211197
0.0220248
0.0229198
0.0238033
0.0246741
0.025531
0.0263732
0.0272005
0.0280137
0.0288149
0.0296087
0.030403
0.0312101
0.0320346
0.0328184
0.0335606
0.0342604
0.034916
0.0355251
0.0360849
0.0365926
0.0370457
0.0374417
0.0377782
0.0380533
0.0382657
0.0384142
0.0384984
0.0385182
0.0384741
0.0383676
0.0382006
0.0379764
0.0376999
0.0373793
0.0370278
0.0366672
0.0363258
0.0360218
0.0357225
0.0354005
0.035051
0.0346749
0.0342742
0.0338518
0.0334104
0.0329531
0.0324828
0.0320024
0.0315147
0.0310224
0.0305282
0.0300345
0.0295437
0.0290581
0.0285796
0.0281102
0.0276516
0.0272053
0.0267727
0.0263548
0.0259527
0.025567
0.0251984
0.0248473
0.0245138
0.0241981
0.0238999
0.0236192
0.0233556
0.0231086
0.0228776
0.0226622
0.0224616
0.0222752
0.0221021
0.0219418
0.0217934
0.0216562
0.0215295
0.0214126
0.0213048
0.0212054
0.0211138
0.0210295
0.0209518
0.0208802
0.0208142
0.0207534
0.0206971
0.0206448
0.0205972
0.020554
0.0205146
0.0204783
0.0204449
0.0204141
0.0203855
0.0203589
0.0203341
0.020311
0.0202894
0.0202691
0.0202499
0.0202319
0.0202148
0.0201987
0.0201833
0.0201686
0.0201547
0.0201413
0.0201285
0.0201162
0.0201043
0.0200928
0.0200817
0.0200709
0.0200605
0.0200502
0.0200403
0.0200305
0.0200209
0.0200115
0.0200022
0.0199931
0.019984
0.0199751
0.0199662
0.0199574
0.0199486
0.0199398
0.0199311
0.0199223
0.0199136
0.0199048
0.019896
0.0198871
0.0198782
0.0198693
0.0198602
0.0198511
0.0198418
0.0198325
0.0198229
0.0198132
0.0198033
0.0197932
0.0197827
0.0197719
0.0197606
0.0197488
0.0197361
0.0197226
0.0197077
0.0196913
0.0196725
0.0196507
0.0196246
0.0195923
0.0195506
0.0194939
0.019412
0.0192828
0.0190643
0.018672
0.00638555
0.0140164
0.0179771
0.0210904
0.0238119
0.026261
0.0284861
0.0305239
0.0324109
0.0341822
0.0358694
0.0374988
0.0390912
0.0406625
0.0422241
0.0437835
0.0453458
0.0469132
0.0484865
0.0500651
0.0516472
0.0532302
0.0548109
0.0563855
0.0579497
0.0594986
0.0610268
0.0625289
0.0639832
0.0654
0.0667786
0.0681145
0.0694014
0.0706319
0.0717984
0.0728931
0.0739083
0.0748364
0.0756706
0.0764046
0.0770327
0.0775505
0.0779546
0.0782425
0.0784133
0.0784672
0.0784056
0.0782313
0.0779483
0.0775618
0.0770778
0.0765025
0.0758419
0.0751173
0.0743287
0.0734774
0.0725681
0.0716069
0.0706003
0.0695551
0.068478
0.0673756
0.0662542
0.06512
0.0639789
0.0628365
0.0616981
0.0605688
0.0594531
0.0583554
0.0572796
0.0562293
0.0552077
0.0542175
0.053261
0.0523404
0.0514571
0.0506123
0.0498069
0.0490414
0.0483159
0.0476301
0.0469837
0.046376
0.045806
0.0452726
0.0447745
0.0443103
0.0438785
0.0434774
0.0431056
0.0427613
0.042443
0.0421488
0.0418774
0.041627
0.0413963
0.0411837
0.0409879
0.0408077
0.0406417
0.0404889
0.0403481
0.0402184
0.0400986
0.0399878
0.039884
0.0397876
0.0396991
0.0396177
0.0395427
0.0394734
0.0394093
0.0393498
0.0392945
0.0392428
0.0391945
0.0391492
0.0391065
0.0390663
0.0390282
0.0389921
0.0389578
0.0389251
0.0388938
0.0388638
0.038835
0.0388073
0.0387805
0.0387545
0.0387294
0.0387048
0.0386809
0.0386576
0.0386347
0.0386122
0.03859
0.0385682
0.0385466
0.0385252
0.0385041
0.038483
0.0384621
0.0384413
0.0384205
0.0383998
0.038379
0.0383582
0.0383374
0.0383165
0.0382955
0.0382744
0.0382532
0.0382318
0.0382103
0.0381885
0.0381665
0.0381443
0.0381218
0.038099
0.0380758
0.0380521
0.038028
0.0380032
0.0379777
0.0379511
0.0379234
0.0378942
0.0378629
0.037829
0.0377916
0.0377494
0.0377004
0.0376415
0.0375679
0.0374709
0.0373334
0.0371272
0.0367716
0.0363059
0.010052
0.0206578
0.0259356
0.0298185
0.0331053
0.0360434
0.0387277
0.0412049
0.0435095
0.0456729
0.0477242
0.0496889
0.0515882
0.0534393
0.0552552
0.0570457
0.0588182
0.0605778
0.0623283
0.0640724
0.0658117
0.0675472
0.0692793
0.0710076
0.0727307
0.0744468
0.0761531
0.0778461
0.0795172
0.0811648
0.0827839
0.0843672
0.0859059
0.0873903
0.0888101
0.0901547
0.0914134
0.0925759
0.0936325
0.094574
0.0953927
0.0960818
0.0966359
0.097051
0.097325
0.0974569
0.0974475
0.0972991
0.097015
0.0966
0.0960592
0.095398
0.0946287
0.093768
0.0928206
0.0917929
0.0906922
0.0895267
0.0883048
0.0870346
0.0857246
0.0843827
0.0830167
0.0816342
0.0802423
0.078848
0.0774576
0.0760773
0.0747128
0.0733693
0.0720518
0.0707645
0.0695114
0.0682959
0.0671211
0.0659893
0.0649027
0.0638628
0.0628707
0.061927
0.0610321
0.0601858
0.0593876
0.0586367
0.0579321
0.0572725
0.0566563
0.0560819
0.0555474
0.055051
0.0545906
0.0541642
0.0537698
0.0534055
0.0530692
0.052759
0.0524731
0.0522097
0.0519671
0.0517437
0.0515379
0.0513484
0.0511738
0.0510128
0.0508643
0.050727
0.0505998
0.0504812
0.0503715
0.0502702
0.0501765
0.0500897
0.0500091
0.049934
0.0498641
0.0497986
0.0497373
0.0496797
0.0496253
0.049574
0.0495254
0.0494792
0.0494353
0.0493933
0.0493531
0.0493145
0.0492774
0.0492416
0.049207
0.0491734
0.0491408
0.049109
0.0490779
0.0490476
0.0490177
0.0489884
0.0489596
0.0489311
0.0489029
0.0488749
0.0488472
0.0488197
0.0487923
0.048765
0.0487378
0.0487106
0.0486833
0.0486561
0.0486287
0.0486013
0.0485738
0.0485461
0.0485182
0.0484902
0.0484619
0.0484334
0.0484046
0.0483755
0.048346
0.0483162
0.048286
0.0482552
0.0482238
0.0481917
0.0481587
0.0481247
0.0480893
0.0480522
0.0480129
0.0479707
0.0479248
0.0478736
0.0478153
0.0477468
0.0476632
0.0475563
0.0474111
0.0472026
0.0468751
0.0464302
0.0126462
0.0256903
0.0320503
0.0365497
0.0402392
0.0434777
0.0464182
0.0491336
0.0516661
0.054046
0.0562987
0.0584461
0.0605073
0.0624985
0.0644337
0.0663243
0.0681801
0.0700095
0.0718194
0.0736162
0.0754049
0.0771899
0.0789745
0.080761
0.0825506
0.084343
0.0861366
0.0879283
0.0897119
0.091483
0.0932351
0.0949595
0.0966461
0.0982835
0.0998594
0.101361
0.102777
0.104093
0.105298
0.106382
0.107333
0.108145
0.108809
0.109321
0.109678
0.109877
0.10992
0.109806
0.109541
0.109128
0.108572
0.107879
0.107069
0.106149
0.10513
0.104018
0.102824
0.101556
0.100224
0.0988367
0.0974038
0.0959339
0.0944356
0.0929171
0.0913864
0.0898509
0.0883179
0.0867941
0.0852859
0.0837991
0.0823392
0.0809111
0.0795192
0.0781677
0.0768598
0.0755985
0.0743863
0.0732249
0.072116
0.0710603
0.0700583
0.06911
0.0682151
0.0673728
0.066582
0.0658414
0.0651493
0.064504
0.0639035
0.0633456
0.0628283
0.0623491
0.0619061
0.0614967
0.061119
0.0607706
0.0604496
0.0601539
0.0598816
0.0596309
0.0594001
0.0591875
0.0589916
0.058811
0.0586445
0.0584906
0.0583482
0.0582161
0.0580933
0.0579798
0.0578746
0.0577769
0.0576861
0.0576014
0.0575222
0.0574481
0.0573785
0.057313
0.0572512
0.0571927
0.0571372
0.0570844
0.0570341
0.0569859
0.0569398
0.0568954
0.0568527
0.0568114
0.0567714
0.0567326
0.0566948
0.056658
0.0566219
0.0565866
0.0565519
0.0565178
0.0564841
0.0564509
0.056418
0.0563854
0.056353
0.0563208
0.0562887
0.0562567
0.0562248
0.0561929
0.056161
0.056129
0.0560969
0.0560647
0.0560324
0.0559999
0.0559672
0.0559343
0.0559011
0.0558677
0.0558339
0.0557998
0.0557653
0.0557304
0.055695
0.055659
0.0556224
0.055585
0.0555467
0.0555072
0.0554663
0.0554237
0.0553788
0.055331
0.0552793
0.0552223
0.0551582
0.055084
0.0549952
0.0548843
0.0547387
0.0545383
0.0542472
0.0538685
0.0147036
0.0295876
0.03683
0.0418562
0.0458943
0.0493788
0.0525077
0.0553809
0.0580541
0.0605631
0.0629337
0.0651869
0.0673404
0.0694098
0.0714093
0.0733514
0.0752475
0.0771081
0.0789425
0.0807595
0.0825667
0.0843706
0.0861767
0.0879892
0.0898106
0.0916418
0.0934819
0.0953279
0.0971747
0.099018
0.100851
0.102664
0.104446
0.106184
0.107866
0.109477
0.111003
0.11243
0.113744
0.114932
0.115983
0.116888
0.117639
0.118229
0.118653
0.118911
0.119002
0.118926
0.118688
0.118291
0.117741
0.117051
0.116232
0.115295
0.114249
0.113104
0.111869
0.110554
0.10917
0.107725
0.106229
0.104692
0.103123
0.101529
0.09992
0.0983032
0.0966864
0.0950767
0.0934809
0.0919051
0.0903554
0.0888371
0.0873551
0.0859139
0.0845171
0.0831683
0.0818703
0.0806252
0.0794348
0.0783004
0.0772226
0.0762017
0.0752376
0.0743294
0.0734764
0.072677
0.0719299
0.071233
0.0705843
0.0699817
0.0694229
0.0689055
0.068427
0.0679851
0.0675775
0.0672017
0.0668555
0.0665367
0.0662433
0.0659732
0.0657247
0.0654959
0.0652851
0.0650909
0.0649118
0.0647465
0.0645935
0.0644519
0.0643203
0.0641984
0.0640853
0.0639803
0.0638824
0.0637911
0.0637057
0.0636256
0.0635503
0.0634793
0.0634123
0.0633488
0.0632885
0.063231
0.0631762
0.0631237
0.0630733
0.0630248
0.0629781
0.0629328
0.062889
0.0628464
0.0628049
0.0627643
0.0627246
0.0626857
0.0626475
0.0626098
0.0625726
0.0625358
0.0624994
0.0624633
0.0624274
0.0623918
0.0623562
0.0623207
0.0622853
0.0622498
0.0622144
0.0621789
0.0621432
0.0621075
0.0620715
0.0620354
0.061999
0.0619624
0.0619256
0.0618884
0.0618508
0.0618129
0.0617746
0.0617358
0.0616965
0.0616566
0.061616
0.0615746
0.0615323
0.0614887
0.0614437
0.0613969
0.0613478
0.0612957
0.0612398
0.0611786
0.0611104
0.0610323
0.0609401
0.0608273
0.0606831
0.0604915
0.0602292
0.0599048
0.0163657
0.0326513
0.0406003
0.0460654
0.0504051
0.0541044
0.0573913
0.0603862
0.0631584
0.0657512
0.0681944
0.0705103
0.0727169
0.0748301
0.0768642
0.0788323
0.0807467
0.0826191
0.0844603
0.0862804
0.0880886
0.0898931
0.0917008
0.0935172
0.095346
0.0971892
0.0990464
0.100915
0.102792
0.104672
0.10655
0.108416
0.110258
0.112064
0.113819
0.115507
0.117113
0.118621
0.120017
0.121286
0.122416
0.123395
0.124216
0.12487
0.125354
0.125664
0.1258
0.125764
0.125559
0.125188
0.124663
0.123993
0.12319
0.122262
0.12122
0.120074
0.118834
0.11751
0.116112
0.114649
0.113132
0.11157
0.109971
0.108345
0.1067
0.105044
0.103384
0.101729
0.100085
0.0984584
0.0968558
0.0952829
0.0937448
0.0922464
0.0907918
0.0893849
0.0880288
0.0867262
0.0854791
0.0842892
0.0831573
0.0820841
0.0810696
0.0801132
0.0792143
0.0783715
0.0775834
0.076848
0.0761635
0.0755275
0.0749378
0.0743917
0.073887
0.073421
0.0729912
0.0725952
0.0722306
0.0718951
0.0715864
0.0713024
0.0710413
0.0708009
0.0705797
0.070376
0.0701882
0.0700149
0.0698548
0.0697066
0.069569
0.0694415
0.0693231
0.0692131
0.0691106
0.0690148
0.0689252
0.068841
0.0687619
0.0686873
0.0686167
0.0685498
0.0684862
0.0684256
0.0683676
0.0683122
0.0682589
0.0682075
0.068158
0.06811
0.0680635
0.0680182
0.0679741
0.0679309
0.0678887
0.0678472
0.0678064
0.0677662
0.0677265
0.0676872
0.0676483
0.0676097
0.0675713
0.0675331
0.067495
0.067457
0.067419
0.067381
0.067343
0.0673049
0.0672666
0.0672283
0.0671897
0.0671509
0.0671119
0.0670726
0.067033
0.0669931
0.0669528
0.0669121
0.066871
0.0668293
0.0667872
0.0667444
0.0667009
0.0666565
0.0666112
0.0665646
0.0665166
0.0664668
0.0664146
0.0663595
0.0663005
0.0662365
0.0661654
0.0660849
0.065991
0.0658777
0.0657362
0.0655538
0.0653156
0.0650334
0.0177092
0.0350624
0.0435683
0.0493868
0.0539769
0.0578587
0.0612795
0.0643739
0.0672216
0.0698731
0.0723627
0.0747154
0.0769508
0.0790855
0.0811342
0.0831105
0.0850272
0.0868965
0.0887301
0.0905389
0.0923331
0.094122
0.0959136
0.0977144
0.0995294
0.101361
0.103211
0.105077
0.106957
0.108847
0.110743
0.112635
0.114512
0.11636
0.118163
0.119905
0.12157
0.123141
0.1246
0.125933
0.127126
0.128168
0.129047
0.129758
0.130294
0.130654
0.130836
0.130842
0.130675
0.130342
0.129854
0.12922
0.128449
0.127551
0.126536
0.125415
0.124197
0.122892
0.12151
0.120062
0.118555
0.117
0.115405
0.11378
0.112132
0.110469
0.108799
0.10713
0.105469
0.103822
0.102195
0.100596
0.099029
0.0974994
0.0960118
0.0945703
0.0931784
0.0918392
0.0905552
0.0893283
0.0881597
0.0870504
0.0860006
0.0850101
0.0840783
0.0832043
0.0823864
0.0816231
0.0809124
0.080252
0.0796397
0.0790728
0.0785489
0.0780654
0.0776197
0.0772093
0.0768316
0.0764842
0.0761649
0.0758714
0.0756016
0.0753536
0.0751254
0.0749154
0.074722
0.0745436
0.0743789
0.0742266
0.0740855
0.0739545
0.0738329
0.0737199
0.0736145
0.073516
0.0734238
0.0733373
0.0732558
0.073179
0.0731063
0.0730373
0.0729717
0.0729091
0.0728493
0.072792
0.0727369
0.0726838
0.0726325
0.0725828
0.0725346
0.0724876
0.0724418
0.072397
0.0723531
0.07231
0.0722676
0.0722257
0.0721844
0.0721435
0.0721029
0.0720626
0.0720226
0.0719827
0.071943
0.0719033
0.0718636
0.0718239
0.0717842
0.0717443
0.0717043
0.0716642
0.0716238
0.0715833
0.0715424
0.0715013
0.0714599
0.0714181
0.0713759
0.0713333
0.0712903
0.0712467
0.0712026
0.0711579
0.0711124
0.071066
0.0710186
0.0709701
0.07092
0.0708682
0.070814
0.0707569
0.0706961
0.0706302
0.0705576
0.070476
0.0703817
0.0702696
0.0701321
0.0699594
0.0697421
0.0694941
0.0187809
0.0369322
0.045868
0.0519618
0.0567501
0.0607791
0.064309
0.0674833
0.0703888
0.0730817
0.0756003
0.0779725
0.0802196
0.0823594
0.0844071
0.0863767
0.0882813
0.0901335
0.0919454
0.0937283
0.0954933
0.0972503
0.0990083
0.100775
0.102556
0.104356
0.106177
0.108017
0.109877
0.111756
0.113648
0.115545
0.117436
0.119307
0.121141
0.122922
0.12463
0.126249
0.127759
0.129145
0.130392
0.131487
0.13242
0.133182
0.133769
0.134177
0.134406
0.134458
0.134337
0.134053
0.133613
0.133027
0.132304
0.131454
0.130486
0.12941
0.128237
0.126976
0.125636
0.124226
0.122757
0.121236
0.119673
0.118075
0.116451
0.114809
0.113156
0.1115
0.109847
0.108205
0.10658
0.104978
0.103405
0.101866
0.100366
0.0989096
0.0975009
0.096143
0.0948388
0.0935906
0.0924001
0.0912685
0.0901964
0.0891838
0.0882304
0.0873354
0.0864975
0.0857152
0.0849865
0.0843094
0.0836816
0.0831005
0.0825636
0.0820682
0.0816119
0.0811919
0.0808056
0.0804507
0.0801246
0.0798252
0.0795502
0.0792976
0.0790655
0.078852
0.0786555
0.0784745
0.0783076
0.0781533
0.0780104
0.0778779
0.0777549
0.0776406
0.0775339
0.0774343
0.077341
0.0772534
0.077171
0.0770931
0.0770195
0.0769496
0.0768831
0.0768197
0.076759
0.0767008
0.0766449
0.076591
0.0765388
0.0764883
0.0764393
0.0763915
0.0763449
0.0762992
0.0762545
0.0762105
0.0761673
0.0761246
0.0760824
0.0760406
0.0759992
0.075958
0.0759171
0.0758763
0.0758356
0.075795
0.0757544
0.0757137
0.075673
0.0756322
0.0755913
0.0755501
0.0755088
0.0754672
0.0754253
0.0753832
0.0753407
0.0752978
0.0752546
0.0752109
0.0751667
0.075122
0.0750768
0.0750309
0.0749842
0.0749367
0.0748882
0.0748385
0.0747873
0.0747343
0.0746791
0.074621
0.0745593
0.0744927
0.0744197
0.0743382
0.0742448
0.0741351
0.0740029
0.0738405
0.0736423
0.0734227
0.019609
0.0383309
0.0475878
0.053887
0.0588242
0.0629648
0.0665777
0.069812
0.0727593
0.0754793
0.0780134
0.0803917
0.0826372
0.0847687
0.086802
0.0887516
0.0906307
0.0924521
0.094228
0.0959702
0.0976902
0.0993986
0.101105
0.102819
0.104547
0.106295
0.108066
0.109861
0.111682
0.113529
0.1154
0.117285
0.119175
0.121054
0.122906
0.124712
0.126454
0.128111
0.129665
0.131098
0.132393
0.133537
0.13452
0.135332
0.135969
0.136428
0.136707
0.136811
0.136747
0.136521
0.136141
0.135617
0.134956
0.13417
0.133266
0.132256
0.131147
0.129949
0.128673
0.127325
0.125915
0.124452
0.122943
0.121396
0.11982
0.118222
0.116608
0.114988
0.113366
0.11175
0.110147
0.108563
0.107003
0.105474
0.10398
0.102527
0.101117
0.0997564
0.0984467
0.0971911
0.0959917
0.0948499
0.0937667
0.0927426
0.0917774
0.0908706
0.0900211
0.0892276
0.0884883
0.0878012
0.0871641
0.0865745
0.08603
0.0855278
0.0850654
0.08464
0.0842492
0.0838904
0.0835611
0.0832589
0.0829817
0.0827273
0.0824937
0.0822792
0.082082
0.0819005
0.0817332
0.0815788
0.081436
0.0813036
0.0811807
0.0810665
0.0809601
0.0808606
0.0807675
0.08068
0.0805977
0.08052
0.0804464
0.0803767
0.0803103
0.0802469
0.0801863
0.0801282
0.0800723
0.0800183
0.0799662
0.0799156
0.0798665
0.0798187
0.079772
0.0797262
0.0796814
0.0796373
0.0795939
0.079551
0.0795087
0.0794667
0.0794251
0.0793837
0.0793426
0.0793016
0.0792606
0.0792198
0.0791789
0.079138
0.079097
0.0790559
0.0790146
0.0789732
0.0789315
0.0788896
0.0788474
0.0788049
0.078762
0.0787188
0.0786752
0.0786311
0.0785866
0.0785415
0.0784959
0.0784496
0.0784026
0.0783547
0.0783058
0.0782557
0.0782042
0.0781509
0.0780954
0.0780372
0.0779755
0.0779092
0.0778368
0.0777564
0.0776651
0.077559
0.0774331
0.0772815
0.077101
0.0769059
0.0202093
0.0393036
0.0487876
0.0552316
0.060273
0.0644918
0.0681624
0.0714377
0.0744114
0.0771458
0.079684
0.0820576
0.0842908
0.086403
0.0884107
0.0903283
0.0921694
0.0939468
0.0956728
0.0973595
0.0990187
0.100662
0.1023
0.103942
0.105598
0.107275
0.108976
0.110706
0.112469
0.114269
0.116102
0.117961
0.119835
0.121711
0.12357
0.125394
0.127161
0.12885
0.130442
0.131917
0.133258
0.13445
0.135483
0.136346
0.137034
0.137545
0.137883
0.13805
0.138052
0.137896
0.137589
0.13714
0.136558
0.13585
0.135028
0.134099
0.133073
0.131958
0.130763
0.129497
0.128166
0.12678
0.125346
0.123871
0.122362
0.120827
0.119274
0.117707
0.116136
0.114565
0.113003
0.111454
0.109925
0.108422
0.10695
0.105514
0.104118
0.102768
0.101465
0.100215
0.0990177
0.0978764
0.0967923
0.095766
0.0947977
0.0938872
0.0930337
0.092236
0.0914925
0.0908014
0.0901606
0.0895677
0.0890202
0.0885155
0.0880511
0.0876243
0.0872324
0.0868729
0.0865433
0.0862412
0.0859644
0.0857107
0.085478
0.0852646
0.0850686
0.0848884
0.0847225
0.0845696
0.0844283
0.0842975
0.0841762
0.0840634
0.0839583
0.0838602
0.0837683
0.0836821
0.0836009
0.0835243
0.0834518
0.083383
0.0833176
0.0832551
0.0831954
0.083138
0.0830829
0.0830297
0.0829782
0.0829284
0.0828799
0.0828326
0.0827865
0.0827413
0.082697
0.0826534
0.0826105
0.0825681
0.0825262
0.0824846
0.0824434
0.0824024
0.0823617
0.082321
0.0822805
0.0822399
0.0821994
0.0821588
0.0821182
0.0820774
0.0820364
0.0819952
0.0819539
0.0819122
0.0818703
0.0818281
0.0817855
0.0817425
0.0816992
0.0816554
0.0816111
0.0815663
0.0815209
0.0814749
0.0814281
0.0813805
0.0813319
0.0812821
0.081231
0.0811782
0.0811233
0.0810657
0.0810048
0.0809396
0.0808687
0.0807904
0.0807022
0.0806007
0.0804819
0.0803413
0.0801775
0.0800041
0.0205896
0.0398808
0.0495112
0.0560487
0.0611567
0.0654248
0.0691314
0.0724307
0.0754181
0.0781564
0.0806898
0.0830506
0.0852634
0.0873479
0.0893209
0.0911969
0.0929893
0.0947109
0.0963742
0.0979914
0.0995747
0.101136
0.102688
0.104241
0.105806
0.107391
0.109004
0.11065
0.112339
0.114074
0.115853
0.117672
0.119518
0.121379
0.123235
0.125067
0.126853
0.128569
0.130193
0.131708
0.133095
0.134331
0.135411
0.136326
0.137072
0.137648
0.138055
0.138297
0.138378
0.138304
0.138084
0.137724
0.137234
0.136622
0.135896
0.135065
0.134138
0.133122
0.132026
0.130858
0.129624
0.128332
0.126989
0.125603
0.124179
0.122725
0.121247
0.119753
0.118248
0.116738
0.115231
0.113733
0.11225
0.110787
0.10935
0.107945
0.106576
0.105248
0.103964
0.102729
0.101545
0.100413
0.0993371
0.0983169
0.0973533
0.0964463
0.0955955
0.0947998
0.0940579
0.0933681
0.0927285
0.0921369
0.0915907
0.0910875
0.0906247
0.0901997
0.0898099
0.0894526
0.0891254
0.0888259
0.0885518
0.0883008
0.0880711
0.0878605
0.0876675
0.0874902
0.0873273
0.0871773
0.0870389
0.0869109
0.0867922
0.086682
0.0865794
0.0864836
0.086394
0.0863098
0.0862307
0.086156
0.0860854
0.0860184
0.0859546
0.0858938
0.0858356
0.0857798
0.085726
0.0856742
0.0856241
0.0855755
0.0855282
0.0854822
0.0854372
0.0853931
0.0853498
0.0853073
0.0852654
0.085224
0.0851831
0.0851425
0.0851022
0.0850621
0.0850223
0.0849825
0.0849428
0.0849032
0.0848635
0.0848238
0.0847839
0.084744
0.0847038
0.0846635
0.0846229
0.0845821
0.084541
0.0844996
0.0844578
0.0844157
0.0843731
0.0843301
0.0842867
0.0842427
0.0841981
0.0841529
0.084107
0.0840603
0.0840126
0.0839638
0.0839137
0.083862
0.0838083
0.083752
0.0836927
0.0836293
0.0835607
0.0834853
0.083401
0.0833049
0.0831937
0.0830643
0.0829163
0.0827622
0.0207527
0.0400852
0.0497941
0.0563846
0.0615306
0.0658268
0.0695531
0.0728648
0.075857
0.0785928
0.0811164
0.0834598
0.0856478
0.0876999
0.0896326
0.0914603
0.0931962
0.0948529
0.0964429
0.0979785
0.0994726
0.100938
0.102387
0.103834
0.105289
0.106764
0.108268
0.109813
0.111409
0.113061
0.11477
0.116532
0.118337
0.120169
0.122009
0.123837
0.125634
0.12737
0.129019
0.130562
0.131983
0.133267
0.134401
0.135379
0.136194
0.136846
0.137336
0.137664
0.137837
0.13786
0.13774
0.137485
0.137101
0.136598
0.135983
0.135265
0.134451
0.13355
0.132567
0.131511
0.130388
0.129205
0.127968
0.126685
0.12536
0.124001
0.122613
0.121204
0.119779
0.118344
0.116907
0.115472
0.114046
0.112636
0.111246
0.109883
0.108552
0.107256
0.106001
0.104791
0.103628
0.102515
0.101455
0.100448
0.099496
0.0985989
0.0977567
0.0969685
0.0962334
0.0955497
0.0949157
0.0943293
0.0937882
0.09329
0.092832
0.0924118
0.0920267
0.0916742
0.0913518
0.091057
0.0907875
0.0905413
0.0903161
0.0901101
0.0899215
0.0897487
0.08959
0.0894441
0.0893097
0.0891856
0.0890707
0.088964
0.0888647
0.0887721
0.0886855
0.0886043
0.088528
0.088456
0.0883879
0.0883233
0.0882619
0.0882033
0.0881473
0.0880935
0.0880418
0.0879919
0.0879436
0.0878968
0.0878512
0.0878069
0.0877635
0.087721
0.0876793
0.0876383
0.0875979
0.0875579
0.0875184
0.0874792
0.0874403
0.0874017
0.0873631
0.0873247
0.0872864
0.087248
0.0872097
0.0871712
0.0871327
0.087094
0.0870551
0.0870161
0.0869768
0.0869372
0.0868974
0.0868573
0.0868168
0.0867759
0.0867346
0.086693
0.0866508
0.0866081
0.0865649
0.0865211
0.0864765
0.0864312
0.086385
0.0863377
0.0862891
0.086239
0.086187
0.0861327
0.0860755
0.0860146
0.0859489
0.0858771
0.0857973
0.0857072
0.0856041
0.0854858
0.0853527
0.0852161
0.0206971
0.0399355
0.04967
0.056286
0.0614527
0.0657653
0.069504
0.0728234
0.0758184
0.0785512
0.0810652
0.083392
0.0855557
0.0875754
0.0894668
0.0912441
0.0929199
0.0945066
0.0960165
0.097462
0.0988563
0.100213
0.101546
0.10287
0.104199
0.105546
0.106923
0.108348
0.109831
0.111381
0.113
0.114686
0.116432
0.118215
0.120019
0.121822
0.123603
0.125337
0.127001
0.128573
0.130034
0.13137
0.132567
0.133617
0.134513
0.135253
0.135837
0.136266
0.136545
0.136678
0.136671
0.136533
0.136269
0.135889
0.135398
0.134805
0.134117
0.133341
0.132483
0.131552
0.130551
0.129488
0.128369
0.1272
0.125986
0.124733
0.123447
0.122134
0.1208
0.119451
0.118093
0.116732
0.115375
0.114028
0.112695
0.111384
0.110099
0.108845
0.107628
0.10645
0.105316
0.104229
0.103191
0.102205
0.10127
0.100389
0.0995605
0.0987848
0.0980609
0.0973876
0.0967631
0.0961856
0.0956529
0.0951626
0.0947123
0.0942995
0.0939216
0.093576
0.0932604
0.0929722
0.0927092
0.0924693
0.0922502
0.0920502
0.0918673
0.0917
0.0915467
0.091406
0.0912766
0.0911573
0.0910469
0.0909445
0.0908494
0.0907608
0.0906779
0.0906003
0.0905274
0.0904587
0.0903937
0.0903322
0.0902736
0.0902178
0.0901644
0.0901132
0.0900639
0.0900164
0.0899704
0.0899259
0.0898825
0.0898402
0.0897989
0.0897584
0.0897187
0.0896796
0.089641
0.0896029
0.0895652
0.0895278
0.0894907
0.0894538
0.089417
0.0893803
0.0893436
0.089307
0.0892703
0.0892335
0.0891966
0.0891596
0.0891224
0.089085
0.0890474
0.0890095
0.0889714
0.0889329
0.0888941
0.0888549
0.0888153
0.0887753
0.0887349
0.088694
0.0886525
0.0886104
0.0885677
0.0885242
0.0884798
0.0884345
0.0883879
0.0883399
0.0882902
0.0882383
0.0881837
0.0881258
0.0880636
0.0879958
0.0879211
0.0878373
0.0877426
0.0876352
0.0875161
0.0873954
0.0204164
0.0394486
0.0491734
0.0558035
0.0609879
0.0653181
0.0690725
0.0724048
0.0754086
0.0781452
0.0806569
0.0829743
0.0851204
0.0871135
0.0889687
0.0906992
0.0923172
0.0938345
0.095263
0.0966154
0.0979048
0.0991458
0.100354
0.101545
0.102734
0.103938
0.105172
0.106458
0.107809
0.109232
0.110732
0.112308
0.113951
0.115649
0.117385
0.119139
0.120888
0.12261
0.12428
0.125877
0.12738
0.128772
0.130038
0.131169
0.132156
0.132995
0.133685
0.134227
0.134623
0.134878
0.134997
0.134986
0.134854
0.134605
0.134248
0.133789
0.133236
0.132594
0.131871
0.131071
0.130201
0.129267
0.128274
0.127226
0.126131
0.124992
0.123816
0.122608
0.121373
0.120119
0.118849
0.117571
0.116291
0.115014
0.113747
0.112496
0.111265
0.110061
0.108888
0.10775
0.106652
0.105597
0.104588
0.103627
0.102716
0.101855
0.101045
0.100286
0.0995774
0.0989181
0.0983066
0.0977412
0.0972198
0.0967402
0.0963
0.0958969
0.0955282
0.0951916
0.0948845
0.0946046
0.0943496
0.0941173
0.0939057
0.0937128
0.0935368
0.0933761
0.0932291
0.0930944
0.0929708
0.092857
0.0927519
0.0926546
0.0925642
0.0924801
0.0924017
0.0923282
0.0922592
0.0921943
0.092133
0.0920749
0.0920197
0.0919671
0.0919167
0.0918685
0.0918221
0.0917773
0.091734
0.091692
0.0916512
0.0916114
0.0915724
0.0915343
0.0914968
0.09146
0.0914236
0.0913877
0.0913521
0.0913168
0.0912818
0.0912469
0.0912121
0.0911775
0.0911428
0.0911082
0.0910735
0.0910387
0.0910038
0.0909688
0.0909336
0.0908981
0.0908625
0.0908266
0.0907904
0.0907539
0.0907171
0.09068
0.0906424
0.0906045
0.0905661
0.0905273
0.0904879
0.0904479
0.0904073
0.090366
0.0903239
0.0902809
0.0902367
0.0901912
0.0901441
0.090095
0.0900435
0.089989
0.0899306
0.0898674
0.089798
0.0897209
0.0896345
0.0895377
0.0894318
0.0893257
0.0199046
0.0386276
0.0483397
0.0549951
0.0602121
0.0645754
0.0683613
0.0717218
0.0747497
0.0775049
0.0800288
0.0823506
0.0844925