/*--------------------------------*- C++ -*----------------------------------*\
  =========                 |
  \\      /  F ield         | OpenFOAM: The Open Source CFD Toolbox
   \\    /   O peration     | Website:  https://openfoam.org
    \\  /    A nd           | Version:  6
     \\/     M anipulation  |
\*---------------------------------------------------------------------------*/
FoamFile
{
    version     2.0;
    format      ascii;
    class       volScalarField;
    location    "0.07";
    object      nut;
}
// * * * * * * * * * * * * * * * * * * * * * * * * * * * * * * * * * * * * * //

dimensions      [0 2 -1 0 0 0 0];

internalField   nonuniform List<scalar> 
12225
(
1.77723e-05
1.42683e-05
1.2351e-05
1.11633e-05
1.03617e-05
9.79182e-06
9.36668e-06
9.03393e-06
8.76268e-06
8.53475e-06
8.33907e-06
8.16858e-06
8.01855e-06
7.88563e-06
7.76751e-06
7.66391e-06
7.57712e-06
7.5173e-06
0.000144881
0.000101916
8.79035e-05
8.05515e-05
7.61074e-05
7.3142e-05
7.08578e-05
6.88738e-05
6.70642e-05
6.54024e-05
6.38818e-05
6.24959e-05
6.12382e-05
6.00999e-05
5.90719e-05
5.81464e-05
5.73633e-05
5.67958e-05
0.00032332
0.000223579
0.000189816
0.000172597
0.000162097
0.000155038
0.000149822
0.000145608
0.000141997
0.000138807
0.000135949
0.000133375
0.000131054
0.000128969
0.000127109
0.000125458
0.000124072
0.00012311
0.000493966
0.00035525
0.000299468
0.000269696
0.000251199
0.000238651
0.000229498
0.000222369
0.000216525
0.00021156
0.000207248
0.00020345
0.000200083
0.000197099
0.000194463
0.000192147
0.000190196
0.000188757
0.000624473
0.0004787
0.000407408
0.000366297
0.000339771
0.000321374
0.00030786
0.000297419
0.000289011
0.000282021
0.000276072
0.000270926
0.000266432
0.0002625
0.000259046
0.000256031
0.000253477
0.000251493
0.000713116
0.000583388
0.000506589
0.000458027
0.000425073
0.000401488
0.000383843
0.000370119
0.000359087
0.000349979
0.0003423
0.000335724
0.000330035
0.000325094
0.000320771
0.000317008
0.000313802
0.000311226
0.000769328
0.000665618
0.000592383
0.000541292
0.00050453
0.00047719
0.000456214
0.000439649
0.00042623
0.000415125
0.000405772
0.000397786
0.000390903
0.000384936
0.000379725
0.00037519
0.000371303
0.000368109
0.000803475
0.000726346
0.000662631
0.000613567
0.000575945
0.000546727
0.00052362
0.000504989
0.000489688
0.000476916
0.000466106
0.000456854
0.000448874
0.000441934
0.000435871
0.000430584
0.000426026
0.000422218
0.000823643
0.000768966
0.000717308
0.000673573
0.000637764
0.00060862
0.000584773
0.000565062
0.00054858
0.000534644
0.000522739
0.000512484
0.000503593
0.000495821
0.000489008
0.000483044
0.000477873
0.000473492
0.000835331
0.000797629
0.000757923
0.000721257
0.000689223
0.000661857
0.00063863
0.000618889
0.00060203
0.000587541
0.000575011
0.000564116
0.000554579
0.000546189
0.000538794
0.000532286
0.000526604
0.000521732
0.000842022
0.000816228
0.000786821
0.000757553
0.000730375
0.00070601
0.000684533
0.000665729
0.000649288
0.000634894
0.000622261
0.000611133
0.000601286
0.000592552
0.000584796
0.000577924
0.000571878
0.000566633
0.000845512
0.000826965
0.000804929
0.000781816
0.000759295
0.000738265
0.000719094
0.000701842
0.000686415
0.000672659
0.000660398
0.000649448
0.000639656
0.00063089
0.000623044
0.00061604
0.000609833
0.000604401
0.000847623
0.000833966
0.00081754
0.000799662
0.000781523
0.00076394
0.000747382
0.000732065
0.000718048
0.000705304
0.000693745
0.000683276
0.0006738
0.000665228
0.000657484
0.000650512
0.000644283
0.000638774
0.000848985
0.000838795
0.000826819
0.000813569
0.000799703
0.000785799
0.000772273
0.000759392
0.000747295
0.000736037
0.000725622
0.000716025
0.000707207
0.000699123
0.000691733
0.000685007
0.000678929
0.000673481
0.000849786
0.000841805
0.000832968
0.000823334
0.000813143
0.000802693
0.000792252
0.00078203
0.000772174
0.000762777
0.000753891
0.000745539
0.000737725
0.000730445
0.000723691
0.000717459
0.000711749
0.00070654
0.000850211
0.000843479
0.000836578
0.000829393
0.000821927
0.00081426
0.000806499
0.000798757
0.000791129
0.000783694
0.000776508
0.000769612
0.000763032
0.000756787
0.000750892
0.000745364
0.000740213
0.000735416
0.000850411
0.000844288
0.000838403
0.00083261
0.000826821
0.000821
0.000815149
0.000809289
0.000803454
0.000797681
0.000792004
0.000786454
0.000781059
0.000775844
0.000770834
0.000766052
0.000761514
0.000757192
0.000850482
0.000844585
0.000839095
0.000833874
0.000828818
0.000823855
0.000818938
0.000814046
0.000809173
0.000804326
0.000799517
0.000794763
0.000790083
0.0007855
0.000781038
0.000776719
0.00077256
0.000768526
0.000850461
0.000844496
0.000838889
0.000833499
0.000828226
0.000823007
0.000817808
0.000812617
0.000807437
0.000802281
0.000797165
0.000792109
0.000787134
0.000782262
0.000777515
0.000772918
0.000768485
0.000764185
0.000850263
0.00084369
0.00083706
0.000830245
0.000823221
0.000816023
0.000808723
0.000801399
0.000794127
0.000786966
0.000779968
0.000773167
0.000766591
0.000760259
0.00075419
0.0007484
0.000742899
0.000737653
0.000849706
0.000841524
0.000832423
0.000822498
0.000812009
0.000801251
0.000790485
0.000779912
0.000769673
0.000759854
0.000750502
0.000741637
0.00073326
0.000725364
0.000717938
0.000710975
0.000704465
0.000698366
0.000848161
0.000835933
0.000821376
0.000805437
0.000789039
0.000772871
0.00075737
0.00074277
0.000729166
0.00071657
0.000704942
0.00069422
0.000684332
0.000675209
0.000666787
0.000659016
0.000651857
0.000645255
0.000844083
0.000822724
0.000797875
0.00077238
0.000747961
0.000725435
0.000705065
0.000686815
0.000670519
0.000655961
0.000642922
0.000631203
0.000620626
0.00061104
0.000602324
0.000594384
0.000587153
0.000580563
0.000833784
0.000794215
0.000753288
0.000715872
0.000683317
0.000655519
0.00063189
0.000611743
0.000594449
0.000579481
0.000566413
0.000554902
0.00054468
0.000535535
0.000527304
0.000519864
0.000513136
0.000507051
0.000809067
0.000738646
0.000678423
0.000630706
0.000593266
0.000563643
0.000539863
0.000520444
0.000504309
0.000490679
0.000478989
0.000468827
0.000459884
0.000451933
0.000444802
0.000438372
0.000432564
0.00042733
0.000753674
0.000642632
0.000568123
0.000517407
0.000481295
0.000454573
0.000434123
0.000417972
0.000404848
0.000393915
0.00038461
0.000376545
0.000369445
0.000363118
0.000357422
0.000352261
0.000347579
0.000343352
0.000641457
0.000499097
0.000426685
0.00038381
0.000355596
0.000335794
0.000321167
0.000309842
0.000300704
0.000293075
0.000286529
0.00028079
0.000275674
0.000271056
0.000266849
0.000262993
0.000259459
0.00025625
0.000448546
0.00032015
0.000270213
0.000243352
0.000226545
0.000215197
0.000206988
0.000200615
0.000195359
0.000190833
0.000186822
0.0001832
0.000179888
0.000176835
0.000174007
0.000171378
0.000168939
0.000166705
0.000203094
0.000143536
0.000122941
0.000111652
0.000104729
0.000100251
9.70303e-05
9.44042e-05
9.20777e-05
8.99417e-05
8.79574e-05
8.61078e-05
8.43825e-05
8.27734e-05
8.12726e-05
7.98723e-05
7.85669e-05
7.73582e-05
2.40294e-05
1.96336e-05
1.71021e-05
1.5465e-05
1.4321e-05
1.34866e-05
1.28563e-05
1.23628e-05
1.19627e-05
1.16284e-05
1.13423e-05
1.10928e-05
1.08722e-05
1.06748e-05
1.04968e-05
1.0335e-05
1.01872e-05
1.0052e-05
2.74013e-06
8.21489e-06
9.85498e-06
1.11846e-05
1.21155e-05
1.28773e-05
1.35383e-05
1.41299e-05
1.46715e-05
1.51761e-05
1.56529e-05
1.61079e-05
1.65452e-05
1.69673e-05
1.73757e-05
1.77713e-05
1.81545e-05
1.85256e-05
1.88845e-05
1.92314e-05
1.95662e-05
1.98892e-05
2.02005e-05
2.05005e-05
2.07897e-05
2.10691e-05
2.13395e-05
2.16009e-05
2.18919e-05
2.21658e-05
2.24223e-05
2.26625e-05
2.28866e-05
2.30943e-05
2.32853e-05
2.34592e-05
2.36153e-05
2.37532e-05
2.38723e-05
2.39722e-05
2.40525e-05
2.41129e-05
2.4153e-05
2.41729e-05
2.41723e-05
2.41513e-05
2.41098e-05
2.40475e-05
2.3964e-05
2.3858e-05
2.37279e-05
2.35754e-05
2.34146e-05
2.32865e-05
2.31836e-05
2.30779e-05
2.29633e-05
2.28386e-05
2.27038e-05
2.25595e-05
2.24064e-05
2.22451e-05
2.20766e-05
2.19017e-05
2.17211e-05
2.15357e-05
2.13463e-05
2.11538e-05
2.0959e-05
2.07627e-05
2.05658e-05
2.03692e-05
2.01735e-05
1.99796e-05
1.97881e-05
1.95998e-05
1.94154e-05
1.92353e-05
1.90602e-05
1.88904e-05
1.87264e-05
1.85685e-05
1.84169e-05
1.82719e-05
1.81334e-05
1.80015e-05
1.78763e-05
1.77576e-05
1.76452e-05
1.75391e-05
1.74391e-05
1.73448e-05
1.7256e-05
1.71724e-05
1.70938e-05
1.70199e-05
1.69504e-05
1.68849e-05
1.68232e-05
1.6765e-05
1.67101e-05
1.66582e-05
1.6609e-05
1.65623e-05
1.65179e-05
1.64754e-05
1.64348e-05
1.63965e-05
1.636e-05
1.6325e-05
1.62914e-05
1.6259e-05
1.62276e-05
1.61971e-05
1.61675e-05
1.61385e-05
1.61102e-05
1.60824e-05
1.60551e-05
1.60283e-05
1.60017e-05
1.59755e-05
1.59496e-05
1.59239e-05
1.58984e-05
1.5873e-05
1.58478e-05
1.58226e-05
1.57976e-05
1.57726e-05
1.57477e-05
1.57227e-05
1.56978e-05
1.56728e-05
1.56478e-05
1.56228e-05
1.55976e-05
1.55725e-05
1.55472e-05
1.55218e-05
1.54964e-05
1.54708e-05
1.54451e-05
1.54192e-05
1.53932e-05
1.53671e-05
1.53408e-05
1.53144e-05
1.52878e-05
1.5261e-05
1.5234e-05
1.52069e-05
1.51795e-05
1.5152e-05
1.51243e-05
1.50963e-05
1.50681e-05
1.50397e-05
1.50111e-05
1.49822e-05
1.4953e-05
1.49236e-05
1.48938e-05
1.48638e-05
1.48333e-05
1.48025e-05
1.47711e-05
1.47393e-05
1.47067e-05
1.46733e-05
1.46389e-05
1.46031e-05
1.45655e-05
1.45253e-05
1.44814e-05
1.44318e-05
1.43725e-05
1.42955e-05
1.41851e-05
1.40098e-05
4.61478e-06
3.49002e-05
5.41375e-05
6.4912e-05
7.20077e-05
7.74723e-05
8.21428e-05
8.63897e-05
9.0404e-05
9.43021e-05
9.81648e-05
0.000102051
0.000106003
0.000110051
0.000114213
0.000118498
0.000122906
0.000127434
0.000132068
0.000136792
0.000141584
0.000146416
0.000151254
0.000156057
0.000160774
0.000165344
0.000169697
0.00017376
0.000177387
0.000180869
0.000184271
0.000187602
0.000190853
0.000194013
0.000197068
0.000200003
0.000202802
0.000205451
0.000207934
0.000210238
0.00021235
0.000214258
0.000215952
0.000217421
0.000218658
0.000219652
0.000220396
0.000220876
0.000221077
0.000220978
0.000220556
0.000219789
0.000218687
0.000217329
0.000215777
0.000214056
0.000212181
0.000210165
0.000208022
0.000205766
0.000203408
0.000200962
0.00019844
0.000195855
0.000193218
0.000190541
0.000187837
0.000185117
0.000182391
0.000179672
0.00017697
0.000174294
0.000171655
0.000169062
0.000166523
0.000164045
0.000161637
0.000159303
0.00015705
0.000154882
0.000152802
0.000150813
0.000148917
0.000147115
0.000145406
0.000143791
0.000142267
0.000140833
0.000139486
0.000138223
0.000137042
0.000135937
0.000134907
0.000133946
0.000133051
0.000132217
0.000131442
0.000130719
0.000130047
0.000129421
0.000128838
0.000128294
0.000127786
0.000127311
0.000126866
0.000126446
0.000126033
0.000125634
0.000125259
0.000124906
0.000124574
0.000124261
0.000123965
0.000123683
0.000123416
0.00012316
0.000122914
0.000122678
0.000122451
0.00012223
0.000122016
0.000121808
0.000121606
0.000121407
0.000121213
0.000121022
0.000120834
0.000120649
0.000120466
0.000120284
0.000120105
0.000119926
0.000119749
0.000119572
0.000119395
0.000119219
0.000119043
0.000118868
0.000118691
0.000118515
0.000118338
0.000118161
0.000117982
0.000117803
0.000117624
0.000117443
0.000117261
0.000117078
0.000116894
0.000116709
0.000116522
0.000116334
0.000116144
0.000115953
0.00011576
0.000115565
0.000115369
0.00011517
0.00011497
0.000114767
0.000114562
0.000114354
0.000114143
0.000113929
0.00011371
0.000113486
0.000113256
0.000113018
0.000112771
0.000112511
0.000112234
0.000111934
0.0001116
0.000111218
0.000110757
0.000110167
0.000109332
0.000108043
0.000105664
0.000101841
5.82599e-06
4.90242e-05
8.47842e-05
0.000108189
0.000124399
0.000136748
0.000147065
0.000156312
0.000165002
0.000173414
0.000181707
0.000189975
0.000198272
0.000206624
0.000215041
0.00022352
0.000232049
0.000240607
0.00024917
0.000257711
0.000266199
0.000274599
0.000282875
0.000290991
0.000298904
0.000306574
0.000313962
0.000321032
0.000327771
0.000334312
0.0003407
0.000346942
0.000353029
0.000358941
0.000364653
0.000370139
0.000375372
0.000380324
0.000384968
0.000389278
0.00039323
0.000396801
0.000399971
0.000402722
0.000405037
0.000406904
0.00040831
0.000409243
0.000409694
0.000409655
0.000409122
0.000408097
0.000406601
0.000404682
0.000402389
0.000399755
0.00039681
0.000393575
0.000390076
0.000386334
0.000382373
0.000378215
0.000373883
0.000369399
0.000364787
0.000360069
0.000355267
0.000350404
0.0003455
0.000340579
0.000335659
0.000330763
0.000325909
0.000321116
0.000316402
0.000311783
0.000307274
0.000302888
0.000298638
0.000294535
0.000290585
0.000286797
0.000283176
0.000279725
0.000276445
0.000273338
0.000270401
0.000267633
0.000265029
0.000262585
0.000260297
0.000258156
0.000256158
0.000254295
0.00025256
0.000250945
0.000249442
0.000248046
0.000246748
0.000245541
0.000244419
0.000243375
0.000242403
0.000241498
0.000240652
0.000239859
0.00023911
0.000238392
0.000237713
0.000237073
0.000236471
0.000235903
0.000235365
0.000234856
0.000234373
0.000233912
0.000233472
0.000233051
0.000232647
0.000232257
0.000231881
0.000231518
0.000231164
0.000230821
0.000230486
0.000230158
0.000229837
0.000229522
0.000229212
0.000228906
0.000228603
0.000228304
0.000228007
0.000227713
0.00022742
0.000227128
0.000226837
0.000226547
0.000226257
0.000225967
0.000225676
0.000225385
0.000225093
0.0002248
0.000224506
0.00022421
0.000223913
0.000223614
0.000223314
0.000223011
0.000222706
0.000222399
0.000222089
0.000221777
0.000221462
0.000221144
0.000220823
0.000220499
0.000220171
0.000219839
0.000219503
0.000219162
0.000218815
0.000218462
0.000218102
0.000217733
0.000217352
0.000216959
0.000216547
0.000216114
0.00021565
0.000215146
0.000214585
0.000213941
0.000213169
0.000212192
0.000210853
0.000208862
0.000205519
0.000200208
6.53202e-06
5.82859e-05
0.000106562
0.000141098
0.000166315
0.000185834
0.00020198
0.000216157
0.000229191
0.000241558
0.000253531
0.000265263
0.000276837
0.000288294
0.000299647
0.000310897
0.000322032
0.000333037
0.000343894
0.000354583
0.000365086
0.000375384
0.00038546
0.000395297
0.000404878
0.000414187
0.000423211
0.000431936
0.000440374
0.0004486
0.000456646
0.000464517
0.000472202
0.000479679
0.000486924
0.000493905
0.000500589
0.000506942
0.000512931
0.000518522
0.000523682
0.000528383
0.000532597
0.0005363
0.000539471
0.000542092
0.000544149
0.000545632
0.000546535
0.000546853
0.00054659
0.000545753
0.000544358
0.000542444
0.000540047
0.0005372
0.000533931
0.000530269
0.00052624
0.000521871
0.000517192
0.000512229
0.00050701
0.000501563
0.000495918
0.000490103
0.000484146
0.000478076
0.000471922
0.000465711
0.000459472
0.000453231
0.000447016
0.000440851
0.000434761
0.00042877
0.000422897
0.000417164
0.000411588
0.000406184
0.000400966
0.000395945
0.00039113
0.000386528
0.000382143
0.000377977
0.000374031
0.000370303
0.00036679
0.000363487
0.000360389
0.000357487
0.000354775
0.000352244
0.000349884
0.000347687
0.000345642
0.000343742
0.000341975
0.000340333
0.000338808
0.00033739
0.000336071
0.000334843
0.000333698
0.000332629
0.000331626
0.00033068
0.000329784
0.000328942
0.000328149
0.000327402
0.000326696
0.000326028
0.000325394
0.000324792
0.000324217
0.000323669
0.000323143
0.000322638
0.000322152
0.000321682
0.000321228
0.000320787
0.000320358
0.000319939
0.000319531
0.00031913
0.000318737
0.000318351
0.00031797
0.000317593
0.000317221
0.000316852
0.000316485
0.000316121
0.000315758
0.000315397
0.000315036
0.000314675
0.000314315
0.000313954
0.000313592
0.000313229
0.000312866
0.0003125
0.000312133
0.000311764
0.000311392
0.000311019
0.000310642
0.000310263
0.000309881
0.000309495
0.000309106
0.000308714
0.000308318
0.000307917
0.000307512
0.000307102
0.000306686
0.000306265
0.000305836
0.0003054
0.000304954
0.000304496
0.000304025
0.000303537
0.000303027
0.000302489
0.000301914
0.000301288
0.000300593
0.000299797
0.000298851
0.00029767
0.000296096
0.00029385
0.000290384
0.000285323
7.0346e-06
6.45315e-05
0.00012232
0.000166111
0.000199347
0.000225537
0.000247169
0.000265888
0.000282745
0.000298394
0.000313234
0.000327503
0.000341339
0.000354817
0.000367977
0.000380836
0.000393402
0.000405673
0.000417648
0.000429327
0.000440708
0.000451793
0.000462585
0.000473087
0.000483303
0.000493236
0.000502887
0.000512255
0.000521364
0.000530276
0.000539021
0.000547607
0.000556027
0.000564263
0.00057229
0.000580077
0.00058759
0.00059479
0.000601639
0.000608098
0.000614128
0.000619692
0.000624756
0.000629289
0.000633265
0.000636659
0.000639453
0.000641632
0.000643188
0.000644115
0.000644415
0.000644083
0.000643142
0.000641622
0.000639554
0.000636963
0.000633878
0.000630326
0.000626336
0.000621934
0.000617151
0.000612016
0.000606559
0.000600812
0.000594805
0.000588571
0.000582141
0.000575548
0.000568823
0.000561999
0.000555108
0.000548181
0.00054125
0.000534344
0.000527493
0.000520725
0.000514064
0.000507537
0.000501165
0.000494968
0.000488964
0.000483168
0.000477593
0.000472248
0.000467142
0.000462278
0.00045766
0.000453286
0.000449157
0.000445267
0.000441611
0.000438182
0.000434973
0.000431973
0.000429175
0.000426567
0.000424139
0.00042188
0.00041978
0.000417829
0.000416015
0.000414329
0.000412762
0.000411304
0.000409946
0.00040868
0.000407495
0.000406384
0.000405336
0.000404352
0.000403427
0.000402555
0.000401733
0.000400955
0.000400219
0.000399519
0.000398853
0.000398217
0.000397609
0.000397025
0.000396464
0.000395924
0.000395402
0.000394896
0.000394405
0.000393927
0.00039346
0.000393004
0.000392557
0.000392118
0.000391686
0.00039126
0.000390839
0.000390422
0.000390009
0.000389599
0.000389192
0.000388785
0.00038838
0.000387976
0.000387572
0.000387168
0.000386763
0.000386358
0.000385951
0.000385543
0.000385133
0.00038472
0.000384306
0.000383889
0.000383469
0.000383046
0.000382619
0.000382189
0.000381755
0.000381318
0.000380875
0.000380428
0.000379976
0.000379519
0.000379055
0.000378585
0.000378106
0.000377619
0.000377121
0.00037661
0.000376083
0.000375538
0.000374968
0.000374367
0.000373725
0.000373027
0.000372254
0.000371372
0.000370331
0.000369049
0.000367381
0.000365086
0.000361777
0.000357311
7.40885e-06
6.87869e-05
0.000133696
0.000184915
0.000224912
0.000256918
0.000283409
0.000306127
0.000326261
0.000344598
0.000361649
0.000377741
0.000393076
0.000407781
0.000421933
0.00043558
0.000448753
0.000461475
0.000473766
0.000485644
0.000497129
0.000508243
0.000519007
0.000529444
0.000539575
0.00054942
0.000558994
0.000568306
0.000577398
0.000586333
0.000595148
0.000603858
0.000612465
0.000620955
0.000629307
0.000637492
0.000645474
0.000653213
0.000660664
0.000667784
0.000674527
0.000680847
0.000686702
0.000692054
0.000696864
0.000701104
0.000704745
0.000707766
0.000710153
0.000711894
0.000712971
0.000713389
0.00071317
0.000712336
0.00071091
0.000708914
0.000706372
0.00070331
0.000699754
0.000695732
0.000691272
0.000686404
0.000681159
0.000675569
0.000669665
0.000663482
0.000657052
0.000650409
0.000643588
0.000636623
0.000629549
0.000622399
0.000615208
0.000608009
0.000600834
0.000593715
0.00058668
0.000579759
0.000572976
0.000566356
0.00055992
0.000553687
0.000547672
0.000541889
0.000536348
0.000531057
0.00052602
0.00052124
0.000516717
0.000512447
0.000508428
0.000504652
0.000501113
0.000497802
0.000494708
0.000491823
0.000489135
0.000486632
0.000484305
0.000482141
0.00048013
0.00047826
0.000476523
0.000474906
0.000473402
0.000472
0.00047069
0.000469465
0.000468314
0.000467233
0.000466218
0.000465262
0.000464362
0.000463511
0.000462705
0.00046194
0.000461213
0.00046052
0.000459857
0.000459222
0.000458612
0.000458026
0.000457459
0.000456911
0.00045638
0.000455863
0.000455359
0.000454868
0.000454387
0.000453914
0.00045345
0.000452993
0.000452542
0.000452096
0.000451654
0.000451216
0.00045078
0.000450347
0.000449915
0.000449484
0.000449054
0.000448624
0.000448193
0.000447762
0.000447329
0.000446895
0.00044646
0.000446022
0.000445581
0.000445139
0.000444693
0.000444243
0.000443791
0.000443334
0.000442874
0.000442409
0.00044194
0.000441466
0.000440986
0.0004405
0.000440008
0.000439508
0.000439
0.000438483
0.000437954
0.000437411
0.000436853
0.000436274
0.000435669
0.000435031
0.000434351
0.000433613
0.000432797
0.000431871
0.000430786
0.000429466
0.000427783
0.000425545
0.000422487
0.000418612
7.69144e-06
7.16345e-05
0.000141733
0.000198725
0.000244198
0.000281048
0.000311648
0.000337754
0.000360621
0.000381122
0.000399858
0.000417231
0.000433511
0.000448876
0.000463447
0.000477307
0.000490517
0.000503125
0.000515173
0.000526702
0.000537752
0.000548363
0.000558577
0.000568432
0.000577969
0.000587223
0.000596224
0.000604995
0.0006136
0.000622112
0.000630578
0.000639025
0.000647465
0.000655891
0.000664288
0.000672628
0.000680876
0.000688988
0.000696916
0.000704608
0.000712009
0.000719066
0.000725724
0.000731934
0.000737649
0.000742828
0.000747433
0.000751434
0.000754809
0.000757514
0.000759546
0.000760916
0.000761635
0.000761715
0.000761172
0.000760025
0.000758292
0.000755996
0.000753162
0.000749815
0.000745982
0.000741693
0.000736977
0.000731867
0.000726393
0.00072059
0.000714492
0.000708133
0.000701548
0.000694774
0.000687847
0.000680801
0.000673673
0.000666498
0.000659312
0.000652146
0.000645035
0.000638007
0.000631094
0.00062432
0.000617711
0.000611288
0.000605071
0.000599075
0.000593314
0.000587797
0.000582533
0.000577526
0.000572777
0.000568286
0.000564051
0.000560067
0.000556326
0.000552823
0.000549546
0.000546487
0.000543634
0.000540977
0.000538505
0.000536205
0.000534067
0.00053208
0.000530233
0.000528515
0.000526916
0.000525427
0.000524038
0.00052274
0.000521523
0.00052038
0.000519308
0.0005183
0.00051735
0.000516453
0.000515605
0.0005148
0.000514035
0.000513306
0.00051261
0.000511944
0.000511305
0.00051069
0.000510097
0.000509523
0.000508968
0.000508428
0.000507903
0.000507391
0.000506889
0.000506398
0.000505915
0.00050544
0.000504972
0.000504509
0.000504051
0.000503597
0.000503146
0.000502697
0.000502251
0.000501805
0.000501361
0.000500916
0.000500472
0.000500027
0.00049958
0.000499133
0.000498683
0.000498232
0.000497778
0.000497321
0.000496861
0.000496398
0.000495932
0.000495461
0.000494987
0.000494508
0.000494024
0.000493535
0.00049304
0.00049254
0.000492032
0.000491517
0.000490994
0.00049046
0.000489915
0.000489356
0.00048878
0.000488184
0.000487561
0.000486905
0.000486206
0.00048545
0.000484616
0.000483673
0.000482578
0.00048126
0.000479613
0.000477484
0.0004747
0.000471341
7.90329e-06
7.34257e-05
0.000147133
0.000208438
0.000258178
0.000298905
0.000332845
0.000361715
0.000386788
0.000408987
0.000428972
0.000447208
0.000464021
0.000479637
0.000494221
0.000507891
0.000520738
0.000532835
0.00054425
0.000555042
0.000565273
0.000575
0.000584284
0.000593183
0.000601753
0.000610047
0.000618114
0.000625995
0.000633778
0.000641551
0.000649376
0.000657296
0.000665332
0.00067349
0.000681759
0.000690115
0.000698522
0.000706932
0.00071529
0.000723536
0.000731605
0.00073943
0.000746946
0.000754089
0.0007608
0.000767025
0.000772714
0.000777821
0.000782285
0.000786099
0.000789254
0.000791747
0.000793579
0.000794755
0.000795285
0.000795181
0.000794458
0.000793136
0.000791236
0.00078878
0.000785796
0.000782309
0.00077835
0.000773949
0.000769137
0.000763949
0.000758417
0.000752578
0.000746466
0.000740119
0.000733572
0.000726864
0.00072003
0.000713107
0.000706133
0.000699142
0.000692169
0.000685246
0.000678406
0.000671677
0.000665086
0.000658657
0.000652414
0.000646374
0.000640553
0.000634964
0.000629618
0.00062452
0.000619676
0.000615085
0.000610749
0.000606662
0.000602821
0.000599218
0.000595845
0.000592692
0.000589751
0.00058701
0.000584458
0.000582083
0.000579875
0.000577823
0.000575914
0.00057414
0.000572489
0.000570952
0.000569519
0.00056818
0.000566928
0.000565753
0.000564651
0.000563615
0.000562639
0.000561718
0.000560847
0.000560022
0.000559238
0.000558491
0.000557778
0.000557096
0.000556442
0.000555814
0.000555208
0.000554622
0.000554056
0.000553505
0.00055297
0.000552448
0.000551938
0.000551438
0.000550947
0.000550464
0.000549988
0.000549519
0.000549054
0.000548593
0.000548136
0.000547682
0.000547229
0.000546778
0.000546328
0.000545878
0.000545429
0.000544978
0.000544527
0.000544074
0.00054362
0.000543163
0.000542704
0.000542243
0.000541778
0.00054131
0.000540839
0.000540363
0.000539884
0.000539399
0.000538911
0.000538416
0.000537916
0.00053741
0.000536897
0.000536377
0.000535848
0.000535308
0.000534757
0.000534193
0.000533611
0.000533009
0.000532381
0.00053172
0.000531017
0.000530257
0.000529422
0.000528483
0.0005274
0.000526112
0.00052453
0.000522537
0.00052002
0.0005171
8.05694e-06
7.43833e-05
0.000150387
0.000214726
0.000267634
0.00031133
0.000347873
0.000378909
0.000405696
0.000429176
0.000450045
0.000468812
0.000485845
0.000501415
0.000515722
0.000528916
0.000541118
0.000552426
0.000562927
0.000572704
0.000581835
0.000590398
0.000598469
0.000606127
0.000613446
0.000620499
0.000627354
0.000634074
0.00064078
0.000647578
0.000654549
0.000661753
0.000669225
0.000676983
0.000685022
0.000693323
0.000701845
0.000710538
0.000719338
0.000728171
0.000736961
0.000745625
0.000754083
0.000762254
0.000770066
0.000777453
0.00078431
0.000790605
0.000796299
0.000801367
0.000805788
0.000809548
0.000812639
0.00081506
0.000816812
0.000817903
0.000818344
0.00081815
0.00081734
0.000815934
0.000813957
0.000811435
0.000808394
0.000804866
0.000800881
0.000796473
0.000791675
0.000786522
0.00078105
0.000775296
0.000769298
0.000763092
0.000756718
0.000750212
0.000743612
0.000736955
0.000730278
0.000723614
0.000716998
0.00071046
0.000704029
0.000697734
0.000691597
0.000685641
0.000679883
0.000674339
0.000669021
0.000663939
0.000659099
0.000654504
0.000650154
0.00064605
0.000642186
0.000638557
0.000635157
0.000631976
0.000629006
0.000626237
0.000623657
0.000621256
0.000619024
0.000616948
0.000615018
0.000613223
0.000611554
0.00061
0.000608552
0.000607201
0.000605938
0.000604754
0.000603643
0.000602599
0.000601617
0.00060069
0.000599814
0.000598983
0.000598195
0.000597445
0.000596729
0.000596044
0.000595388
0.000594757
0.000594149
0.000593562
0.000592994
0.000592443
0.000591907
0.000591385
0.000590874
0.000590374
0.000589884
0.000589401
0.000588926
0.000588457
0.000587993
0.000587533
0.000587077
0.000586624
0.000586173
0.000585723
0.000585274
0.000584826
0.000584378
0.000583929
0.00058348
0.000583029
0.000582576
0.000582122
0.000581665
0.000581205
0.000580742
0.000580276
0.000579807
0.000579333
0.000578856
0.000578374
0.000577887
0.000577394
0.000576896
0.000576392
0.000575881
0.000575363
0.000574836
0.000574299
0.00057375
0.000573188
0.000572609
0.00057201
0.000571386
0.00057073
0.000570033
0.000569282
0.000568459
0.000567539
0.000566485
0.000565245
0.000563746
0.000561898
0.000559634
0.000557084
8.16006e-06
7.46543e-05
0.000151842
0.000218098
0.000273187
0.000319024
0.000357492
0.000390142
0.000418196
0.00044259
0.000464035
0.000483066
0.000500083
0.000515388
0.000529212
0.000541731
0.000553091
0.000563413
0.000572803
0.000581362
0.000589186
0.00059637
0.000603011
0.000609203
0.000615043
0.000620624
0.000626036
0.000631378
0.000636804
0.000642442
0.000648396
0.000654746
0.000661546
0.000668824
0.000676585
0.00068481
0.000693457
0.000702465
0.000711759
0.000721252
0.00073085
0.000740447
0.000749956
0.000759265
0.000768253
0.000776852
0.000784992
0.000792614
0.00079967
0.000806119
0.000811929
0.000817077
0.000821547
0.000825329
0.000828419
0.000830821
0.00083254
0.000833588
0.000833982
0.000833739
0.000832882
0.000831436
0.000829427
0.000826885
0.00082384
0.000820326
0.000816376
0.000812024
0.000807308
0.000802264
0.000796931
0.000791345
0.000785547
0.000779574
0.000773465
0.000767258
0.000760991
0.000754699
0.000748417
0.00074218
0.000736017
0.000729957
0.000724028
0.000718253
0.000712652
0.000707243
0.000702041
0.000697056
0.000692298
0.000687772
0.000683481
0.000679424
0.0006756
0.000672005
0.000668632
0.000665475
0.000662525
0.000659772
0.000657208
0.00065482
0.000652599
0.000650534
0.000648615
0.00064683
0.000645171
0.000643626
0.000642188
0.000640846
0.000639592
0.000638418
0.000637317
0.000636283
0.000635309
0.000634391
0.000633523
0.000632702
0.000631921
0.000631179
0.000630471
0.000629794
0.000629145
0.000628522
0.000627921
0.000627342
0.000626781
0.000626237
0.000625708
0.000625193
0.000624689
0.000624196
0.000623713
0.000623237
0.000622769
0.000622307
0.00062185
0.000621397
0.000620948
0.000620502
0.000620058
0.000619615
0.000619174
0.000618733
0.000618292
0.000617851
0.000617408
0.000616965
0.00061652
0.000616072
0.000615623
0.00061517
0.000614715
0.000614257
0.000613795
0.000613329
0.000612859
0.000612384
0.000611905
0.000611421
0.000610931
0.000610434
0.000609931
0.000609421
0.000608902
0.000608374
0.000607834
0.000607281
0.000606712
0.000606123
0.00060551
0.000604867
0.000604184
0.000603451
0.00060265
0.00060176
0.000600747
0.000599567
0.000598161
0.000596461
0.00059443
0.000592195
8.21726e-06
7.43404e-05
0.000151753
0.000218943
0.000275334
0.000322568
0.000362347
0.000396117
0.000425041
0.00045003
0.000471795
0.00049088
0.000507704
0.000522589
0.000535788
0.000547499
0.000557887
0.000567089
0.000575231
0.000582427
0.000588792
0.000594435
0.000599472
0.000604017
0.000608187
0.0006121
0.000615871
0.000619654
0.000623632
0.000627962
0.000632775
0.000638175
0.000644236
0.000651001
0.000658481
0.000666656
0.000675479
0.000684874
0.000694748
0.000705002
0.00071553
0.000726152
0.000736766
0.000747263
0.000757535
0.000767487
0.000777034
0.000786104
0.000794633
0.00080257
0.000809871
0.000816504
0.000822444
0.000827676
0.00083219
0.000835983
0.00083906
0.000841428
0.0008431
0.000844094
0.000844431
0.000844134
0.000843229
0.000841745
0.000839714
0.000837167
0.000834138
0.000830663
0.000826779
0.000822522
0.000817931
0.000813044
0.000807902
0.000802542
0.000797005
0.00079133
0.000785554
0.000779715
0.000773849
0.000767992
0.000762175
0.00075643
0.000750784
0.000745264
0.000739892
0.000734687
0.000729667
0.000724845
0.000720231
0.000715832
0.000711654
0.000707698
0.000703964
0.000700449
0.000697149
0.000694057
0.000691165
0.000688467
0.000685951
0.000683609
0.00068143
0.000679405
0.000677522
0.000675772
0.000674145
0.000672631
0.000671222
0.000669908
0.000668681
0.000667533
0.000666457
0.000665446
0.000664494
0.000663597
0.00066275
0.000661947
0.000661186
0.000660461
0.00065977
0.00065911
0.000658477
0.000657869
0.000657284
0.000656719
0.000656173
0.000655643