/*--------------------------------*- C++ -*----------------------------------*\
  =========                 |
  \\      /  F ield         | OpenFOAM: The Open Source CFD Toolbox
   \\    /   O peration     | Website:  https://openfoam.org
    \\  /    A nd           | Version:  6
     \\/     M anipulation  |
\*---------------------------------------------------------------------------*/
FoamFile
{
    version     2.0;
    format      ascii;
    class       volScalarField;
    location    "0.07";
    object      p;
}
// * * * * * * * * * * * * * * * * * * * * * * * * * * * * * * * * * * * * * //

dimensions      [0 2 -2 0 0 0 0];

internalField   nonuniform List<scalar> 
12225
(
0.341084
0.0886835
0.0106887
0.000216163
-0.00428102
-0.00887297
-0.0114506
-0.0129243
-0.0143349
-0.015836
-0.0173649
-0.0189516
-0.0206641
-0.0225572
-0.0247605
-0.0274738
-0.0316366
-0.0379697
-0.0407622
-0.0105392
-0.009642
-0.00316376
-0.00379801
-0.00779199
-0.0106212
-0.0124242
-0.0140489
-0.0156677
-0.0172695
-0.0189102
-0.0206679
-0.0226099
-0.0248642
-0.0275846
-0.0314504
-0.0362959
-0.0777714
-0.00680672
-0.00502733
-0.0026852
-0.00353528
-0.00713
-0.00991786
-0.011849
-0.0135968
-0.0153084
-0.0169893
-0.0187004
-0.0205188
-0.0225108
-0.0247883
-0.0274384
-0.0308532
-0.0342756
-0.0323991
0.00642089
-0.00155365
-0.00283391
-0.00386163
-0.00697305
-0.00955758
-0.0114803
-0.0132624
-0.0150145
-0.0167413
-0.0184971
-0.0203503
-0.0223587
-0.024606
-0.0271208
-0.0300578
-0.0327307
-0.0119735
0.006383
-0.00201688
-0.00354788
-0.0044315
-0.00708952
-0.00944695
-0.0113115
-0.013077
-0.0148264
-0.0165624
-0.0183299
-0.0201849
-0.022172
-0.0243433
-0.0266876
-0.0292231
-0.0314595
-0.00959898
0.00211524
-0.00317724
-0.0042455
-0.00503663
-0.00731516
-0.00945916
-0.0112505
-0.0129753
-0.0146966
-0.0164165
-0.0181703
-0.0200007
-0.0219383
-0.0240079
-0.0261765
-0.0283968
-0.0303432
-0.00943618
-0.000766048
-0.00388117
-0.00481547
-0.00561573
-0.00758305
-0.00953192
-0.0112428
-0.0129131
-0.0145904
-0.0162763
-0.0179967
-0.0197821
-0.02165
-0.0236059
-0.0256078
-0.027587
-0.0293425
-0.00840699
-0.00234114
-0.00435487
-0.00530926
-0.00614357
-0.00785827
-0.009632
-0.0112583
-0.0128651
-0.014487
-0.0161247
-0.0177956
-0.0195195
-0.0213037
-0.0231413
-0.0249908
-0.0267871
-0.0284169
-0.00736312
-0.00343313
-0.00479817
-0.00574455
-0.00660305
-0.00811583
-0.00973419
-0.011274
-0.0128109
-0.0143689
-0.0159467
-0.0175549
-0.0192043
-0.020895
-0.0226143
-0.0243261
-0.02598
-0.0275186
-0.00671336
-0.00429607
-0.00522196
-0.00611738
-0.0069857
-0.00833766
-0.00981794
-0.0112702
-0.0127325
-0.0142192
-0.0157275
-0.0172619
-0.0188265
-0.0204172
-0.0220196
-0.0236055
-0.0251411
-0.0266006
-0.0063824
-0.00495717
-0.00560436
-0.00643095
-0.00729324
-0.00851482
-0.00987077
-0.0112343
-0.0126176
-0.0140268
-0.0154573
-0.0169088
-0.0183808
-0.0198668
-0.0213537
-0.0228209
-0.0242483
-0.0256262
-0.00624903
-0.00540744
-0.00590909
-0.00666956
-0.00751117
-0.00863129
-0.00988213
-0.0111624
-0.0124692
-0.0138022
-0.0151548
-0.0165237
-0.0179055
-0.0192931
-0.0206749
-0.0220364
-0.023366
-0.0246596
-0.00620937
-0.00575527
-0.00615793
-0.00685585
-0.00766898
-0.00869918
-0.00985367
-0.0110522
-0.0122807
-0.0135343
-0.0148048
-0.0160867
-0.0173749
-0.0186619
-0.0199386
-0.0211951
-0.0224253
-0.0236251
-0.00623359
-0.00604584
-0.00638187
-0.00701121
-0.00777942
-0.00871626
-0.00976669
-0.01087
-0.012005
-0.0131623
-0.0143326
-0.0155084
-0.0166835
-0.0178507
-0.019003
-0.020134
-0.0212405
-0.0223178
-0.00629149
-0.0062562
-0.00655233
-0.00710962
-0.0078143
-0.00865349
-0.0095918
-0.010585
-0.0116091
-0.0126511
-0.0137006
-0.0147489
-0.0157888
-0.0168139
-0.0178185
-0.0187985
-0.0197511
-0.0206709
-0.00632728
-0.0063618
-0.00662848
-0.00711331
-0.00773919
-0.00847538
-0.00929424
-0.0101633
-0.0110589
-0.0119661
-0.0128732
-0.013771
-0.0146519
-0.0155099
-0.0163402
-0.0171394
-0.0179034
-0.0186269
-0.00626366
-0.00631991
-0.00655506
-0.00696808
-0.00750592
-0.00813438
-0.00882828
-0.00956199
-0.0103138
-0.0110678
-0.0118119
-0.0125365
-0.0132341
-0.0138988
-0.0145263
-0.0151133
-0.0156542
-0.0161451
-0.00600859
-0.00606295
-0.00625976
-0.00660177
-0.00704982
-0.00757065
-0.00813954
-0.00873389
-0.00933356
-0.00992254
-0.0104887
-0.0110227
-0.0115175
-0.0119677
-0.0123694
-0.0127197
-0.0130126
-0.0132474
-0.00546112
-0.00549902
-0.00564762
-0.00592078
-0.00628652
-0.00670947
-0.00716361
-0.00762655
-0.00807805
-0.00850203
-0.00888684
-0.00922404
-0.0095075
-0.00973301
-0.00989784
-0.0100003
-0.0100349
-0.0100055
-0.00473164
-0.00472998
-0.0048235
-0.00505815
-0.00538917
-0.00576895
-0.00616968
-0.00656518
-0.00693135
-0.00725174
-0.00751622
-0.00771802
-0.00785274
-0.00791794
-0.00791268
-0.00783686
-0.00768683
-0.00746853
-0.00410637
-0.00400172
-0.00401948
-0.00424901
-0.00458213
-0.00495805
-0.00535507
-0.00573733
-0.00607259
-0.00634488
-0.00654673
-0.00667321
-0.00672158
-0.00669125
-0.00658305
-0.00639848
-0.00613551
-0.00580106
-0.00366942
-0.00326085
-0.00315263
-0.00342857
-0.0037927
-0.00419435
-0.00463177
-0.00504352
-0.00538502
-0.00564502
-0.00582051
-0.00590836
-0.00590765
-0.00582002
-0.00564826
-0.00539545
-0.00506129
-0.00465309
-0.0036523
-0.00252681
-0.00223081
-0.00261027
-0.00300526
-0.00346019
-0.00398928
-0.00447012
-0.00484718
-0.0051231
-0.0053006
-0.00537757
-0.00535533
-0.00523828
-0.00503134
-0.00473915
-0.00436311
-0.00391018
-0.00406022
-0.0016481
-0.00128787
-0.0018354
-0.00219589
-0.00273543
-0.00342198
-0.0040093
-0.00444509
-0.00475984
-0.00496152
-0.00504793
-0.00502367
-0.00489678
-0.00467449
-0.00436303
-0.00396558
-0.00348824
-0.0042459
0.00038423
-5.06228e-05
-0.00107403
-0.00132937
-0.00201252
-0.00293709
-0.00366412
-0.00417648
-0.00454798
-0.00478949
-0.00489827
-0.00488397
-0.00475931
-0.00453408
-0.0042161
-0.00381048
-0.00332232
-0.00594309
0.00484653
0.00226243
-2.24602e-05
-0.00031605
-0.00129924
-0.00255593
-0.00345097
-0.00405366
-0.00449323
-0.00478163
-0.00491716
-0.0049169
-0.00479925
-0.00457669
-0.00425868
-0.00385228
-0.00336201
-0.0229418
0.00689536
0.0045217
0.00138313
0.000868573
-0.000669486
-0.00234724
-0.00342813
-0.00412737
-0.00463359
-0.00496143
-0.00511515
-0.00512217
-0.00500716
-0.00478512
-0.00446683
-0.00406114
-0.00357204
-0.0670683
-0.00639702
0.000474371
0.00154846
0.0016712
-0.000476179
-0.00255162
-0.00377034
-0.00452935
-0.00506726
-0.00540101
-0.00554451
-0.00553695
-0.00540866
-0.00517574
-0.00484911
-0.0044392
-0.00395053
-0.0466948
-0.0162368
-0.00943931
-0.00071448
0.00116922
-0.00128893
-0.00348933
-0.00462656
-0.0053009
-0.00578042
-0.0060635
-0.00616012
-0.00611397
-0.00595695
-0.00570335
-0.00536147
-0.00494086
-0.00445904
0.317626
0.0979381
0.0209182
0.00796602
0.00287662
-0.00195611
-0.00457741
-0.00552223
-0.00595589
-0.00627118
-0.00645149
-0.00648175
-0.0063927
-0.006209
-0.00593897
-0.00558517
-0.0051468
-0.0046103
-0.0696913
-0.0700621
-0.0705925
-0.0712779
-0.0721419
-0.0731914
-0.0744222
-0.0758229
-0.0773763
-0.0790581
-0.0808361
-0.0826708
-0.0845149
-0.0863149
-0.088012
-0.0895433
-0.0908441
-0.0918487
-0.0924931
-0.092716
-0.0924604
-0.0916747
-0.0903149
-0.0883475
-0.0857518
-0.0825211
-0.0786405
-0.0740591
-0.0687196
-0.0626252
-0.0558226
-0.0483553
-0.0402666
-0.0316036
-0.0224181
-0.0127669
-0.00271234
0.00767923
0.0183377
0.0291906
0.0401642
0.0511844
0.0621786
0.073076
0.0838092
0.094315
0.104535
0.114416
0.123912
0.132983
0.141603
0.149759
0.157462
0.164692
0.171412
0.177613
0.183293
0.18846
0.193124
0.197301
0.201009
0.204269
0.207103
0.209535
0.21159
0.213296
0.214677
0.21576
0.21657
0.217134
0.217475
0.217618
0.217584
0.217395
0.217071
0.216631
0.216091
0.215467
0.214775
0.214027
0.213234
0.212408
0.211557
0.21069
0.209814
0.208936
0.20806
0.207191
0.206334
0.20549
0.204664
0.203857
0.20307
0.202306
0.201564
0.200846
0.200152
0.199481
0.198835
0.198213
0.197614
0.197038
0.196486
0.195955
0.195448
0.194963
0.1945
0.194053
0.193622
0.193208
0.192811
0.192431
0.192066
0.191717
0.191383
0.191062
0.190754
0.190458
0.190174
0.189901
0.189638
0.189385
0.18914
0.188904
0.188676
0.188455
0.188241
0.188034
0.187832
0.187636
0.187445
0.187259
0.187077
0.186899
0.186725
0.186554
0.186387
0.186222
0.18606
0.1859
0.185743
0.185587
0.185433
0.185281
0.18513
0.18498
0.18483
0.184682
0.184534
0.184387
0.184241
0.184095
0.183949
0.183804
0.183659
0.183514
0.183371
0.183228
0.183086
0.182945
0.182807
0.182671
0.182538
0.18241
0.182288
0.182174
0.18207
0.18198
0.181909
0.181864
0.181852
0.181888
0.181991
0.182188
0.182526
0.18308
0.184003
0.18553
0.188426
0.192899
-0.0671578
-0.0681963
-0.0689167
-0.069244
-0.0696239
-0.0702638
-0.0711931
-0.0723999
-0.0738615
-0.0755457
-0.0774109
-0.0794074
-0.0814781
-0.08356
-0.0855854
-0.0874837
-0.0891834
-0.0906132
-0.0917042
-0.0923909
-0.092612
-0.0923114
-0.0914385
-0.0899483
-0.0878001
-0.0849531
-0.0813738
-0.0770703
-0.0720907
-0.0664588
-0.0601718
-0.0532416
-0.0456937
-0.0375637
-0.0288949
-0.019738
-0.0101494
-0.000190843
0.0100718
0.0205698
0.0312326
0.0419891
0.0527688
0.063503
0.0741258
0.0845751
0.0947936
0.104729
0.114336
0.123573
0.132399
0.14077
0.148635
0.15599
0.162852
0.169221
0.175096
0.180482
0.185386
0.189823
0.193805
0.197352
0.200482
0.203217
0.20558
0.207594
0.209282
0.21067
0.211782
0.21264
0.213268
0.213688
0.213922
0.213991
0.213913
0.213707
0.21339
0.212977
0.212483
0.211921
0.211303
0.210639
0.20994
0.209213
0.208468
0.20771
0.206945
0.206178
0.205414
0.204657
0.203909
0.203174
0.202453
0.201748
0.20106
0.200391
0.199742
0.199112
0.198502
0.197913
0.197344
0.196796
0.196267
0.195759
0.19527
0.194799
0.194346
0.193913
0.193497
0.193097
0.192713
0.192344
0.191989
0.191648
0.191321
0.191006
0.190704
0.190413
0.190133
0.189864
0.189604
0.189353
0.189111
0.188878
0.188651
0.188432
0.18822
0.188013
0.187813
0.187617
0.187427
0.187241
0.18706
0.186883
0.186709
0.186539
0.186372
0.186207
0.186045
0.185886
0.185728
0.185573
0.185419
0.185267
0.185115
0.184965
0.184816
0.184668
0.18452
0.184373
0.184227
0.184081
0.183935
0.18379
0.183645
0.183501
0.183357
0.183214
0.183073
0.182933
0.182794
0.182659
0.182527
0.182399
0.182278
0.182164
0.182062
0.181974
0.181905
0.181862
0.181853
0.181893
0.182
0.182201
0.182541
0.183087
0.183978
0.185384
0.187945
0.191632
-0.063466
-0.0655755
-0.067583
-0.0686441
-0.0693094
-0.0700497
-0.0710193
-0.0722477
-0.0737278
-0.0754332
-0.0773232
-0.0793469
-0.0814468
-0.0835609
-0.0856241
-0.08757
-0.0893325
-0.0908465
-0.0920492
-0.092881
-0.0932861
-0.0932127
-0.0926143
-0.0914492
-0.0896801
-0.0872715
-0.0841941
-0.0804365
-0.0760055
-0.0709099
-0.0651572
-0.058762
-0.0517477
-0.0441454
-0.0359941
-0.0273395
-0.0182338
-0.00873446
0.00109644
0.0111936
0.0214894
0.0319155
0.0424036
0.0528866
0.0633001
0.073583
0.0836787
0.0935353
0.103107
0.112352
0.121232
0.129711
0.137757
0.145354
0.152492
0.159162
0.165359
0.171084
0.176343
0.181143
0.185499
0.189423
0.192934
0.196051
0.198793
0.201182
0.203239
0.204989
0.206452
0.207652
0.20861
0.209348
0.209886
0.210245
0.210444
0.210499
0.210429
0.210249
0.209973
0.209615
0.209188
0.208701
0.208167
0.207594
0.206989
0.206362
0.205717
0.205061
0.204398
0.203734
0.203072
0.202414
0.201764
0.201124
0.200496
0.199881
0.19928
0.198695
0.198125
0.197573
0.197037
0.196519
0.196017
0.195533
0.195066
0.194616
0.194182
0.193765
0.193364
0.192977
0.192605
0.192247
0.191902
0.19157
0.191251
0.190943
0.190647
0.190362
0.190087
0.189822
0.189566
0.189319
0.189081
0.18885
0.188626
0.188409
0.188198
0.187993
0.187794
0.1876
0.187411
0.187226
0.187046
0.186869
0.186696
0.186526
0.18636
0.186195
0.186034
0.185875
0.185718
0.185562
0.185408
0.185256
0.185105
0.184955
0.184806
0.184658
0.18451
0.184363
0.184217
0.184071
0.183925
0.18378
0.183635
0.183491
0.183348
0.183205
0.183064
0.182924
0.182786
0.182651
0.182519
0.182392
0.182271
0.182159
0.182058
0.181971
0.181904
0.181863
0.181857
0.1819
0.18201
0.182213
0.182552
0.183088
0.183935
0.185208
0.187353
0.189931
-0.0611767
-0.0641796
-0.0674658
-0.0695911
-0.0709667
-0.0721633
-0.0734278
-0.0748443
-0.0764407
-0.0782147
-0.0801425
-0.0821856
-0.0842961
-0.0864198
-0.0884985
-0.0904713
-0.0922767
-0.0938531
-0.0951399
-0.0960787
-0.0966136
-0.0966922
-0.0962662
-0.095292
-0.0937314
-0.0915517
-0.0887284
-0.0852476
-0.0811029
-0.0762937
-0.0708246
-0.0647078
-0.0579635
-0.0506202
-0.0427141
-0.0342891
-0.0253957
-0.0160901
-0.00643336
0.00350975
0.0136721
0.0239854
0.0343814
0.044793
0.0551554
0.065407
0.0754904
0.0853528
0.0949466
0.10423
0.113165
0.121725
0.129883
0.137617
0.144911
0.151753
0.15814
0.164068
0.169544
0.174572
0.179165
0.183334
0.187095
0.190466
0.193464
0.196111
0.198425
0.200429
0.202143
0.203589
0.204787
0.205759
0.206524
0.207101
0.207509
0.207766
0.207887
0.207889
0.207786
0.207591
0.207317
0.206976
0.206577
0.20613
0.205644
0.205126
0.204584
0.204022
0.203448
0.202864
0.202277
0.201688
0.201102
0.20052
0.199945
0.199379
0.198824
0.19828
0.197748
0.19723
0.196726
0.196236
0.195761
0.195301
0.194855
0.194424
0.194008
0.193607
0.19322
0.192847
0.192487
0.19214
0.191805
0.191483
0.191172
0.190872
0.190583
0.190304
0.190035
0.189775
0.189524
0.189281
0.189046
0.188818
0.188597
0.188383
0.188174
0.187972
0.187774
0.187582
0.187394
0.187211
0.187032
0.186856
0.186684
0.186515
0.186349
0.186185
0.186024
0.185865
0.185709
0.185554
0.1854
0.185248
0.185097
0.184947
0.184799
0.18465
0.184503
0.184356
0.18421
0.184064
0.183918
0.183773
0.183628
0.183484
0.183341
0.183198
0.183057
0.182917
0.182779
0.182644
0.182513
0.182386
0.182265
0.182152
0.182051
0.181964
0.181896
0.181854
0.181846
0.181886
0.18199
0.182184
0.182503
0.182998
0.183758
0.184841
0.186509
0.188213
-0.0615414
-0.0650167
-0.0690784
-0.072002
-0.0740301
-0.0757228
-0.0773564
-0.0790432
-0.0808343
-0.0827465
-0.084771
-0.0868808
-0.0890375
-0.0911944
-0.0932999
-0.0952987
-0.0971341
-0.0987481
-0.100083
-0.101083
-0.101693
-0.101861
-0.101539
-0.100681
-0.0992483
-0.0972059
-0.0945269
-0.0911921
-0.0871888
-0.0825118
-0.0771632
-0.0711531
-0.0645002
-0.057232
-0.0493843
-0.0410012
-0.0321335
-0.0228385
-0.0131785
-0.00321973
0.00696923
0.0173186
0.0277588
0.0382216
0.0486413
0.0589556
0.0691066
0.0790411
0.0887109
0.0980736
0.107094
0.115742
0.123994
0.131829
0.139232
0.146193
0.152706
0.158772
0.164392
0.169573
0.174325
0.17866
0.182592
0.186137
0.189313
0.192139
0.194634
0.196818
0.198712
0.200335
0.201708
0.202851
0.203784
0.204523
0.205089
0.205497
0.205764
0.205906
0.205936
0.205868
0.205715
0.205488
0.205197
0.204852
0.204461
0.204033
0.203574
0.203091
0.202589
0.202074
0.20155
0.20102
0.200488
0.199957
0.199428
0.198905
0.19839
0.197882
0.197384
0.196897
0.196421
0.195958
0.195507
0.195069
0.194644
0.194232
0.193832
0.193447
0.193074
0.192713
0.192365
0.192029
0.191705
0.191391
0.191089
0.190797
0.190515
0.190242
0.189979
0.189724
0.189477
0.189239
0.189008
0.188783
0.188565
0.188354
0.188148
0.187948
0.187752
0.187562
0.187376
0.187194
0.187016
0.186841
0.18667
0.186502
0.186337
0.186174
0.186014
0.185856
0.185699
0.185545
0.185392
0.18524
0.18509
0.18494
0.184791
0.184644
0.184496
0.18435
0.184203
0.184057
0.183912
0.183767
0.183622
0.183478
0.183335
0.183192
0.183051
0.182911
0.182773
0.182637
0.182505
0.182377
0.182256
0.182142
0.182039
0.18195
0.181879
0.181833
0.18182
0.181851
0.181942
0.182114
0.182398
0.182831
0.183475
0.184347
0.185582
0.186649
-0.0645126
-0.0681634
-0.0726019
-0.0760322
-0.0785528
-0.0806659
-0.0826409
-0.0845969
-0.0865956
-0.0886652
-0.0908076
-0.0930053
-0.0952279
-0.0974357
-0.0995827
-0.101619
-0.103491
-0.105145
-0.106525
-0.107576
-0.108244
-0.108476
-0.108222
-0.107436
-0.106076
-0.104103
-0.101488
-0.0982078
-0.0942449
-0.0895915
-0.0842474
-0.0782215
-0.0715322
-0.0642073
-0.0562837
-0.0478072
-0.0388312
-0.0294157
-0.0196261
-0.00953164
0.00079605
0.0112845
0.0218618
0.0324579
0.0430059
0.0534427
0.0637102
0.0737552
0.0835297
0.0929925
0.10211
0.110853
0.119198
0.127126
0.134625
0.141684
0.1483
0.154472
0.160203
0.165501
0.170373
0.174833
0.178893
0.182571
0.185882
0.188844
0.191477
0.1938
0.195832
0.197593
0.199102
0.200379
0.201443
0.202311
0.203002
0.203531
0.203916
0.20417
0.204309
0.204345
0.204291
0.204158
0.203956
0.203696
0.203386
0.203033
0.202646
0.20223
0.201791
0.201335
0.200866
0.200388
0.199904
0.199417
0.198931
0.198447
0.197967
0.197493
0.197026
0.196567
0.196118
0.19568
0.195251
0.194834
0.194429
0.194034
0.193652
0.193281
0.192922
0.192575
0.192239
0.191914
0.191599
0.191295
0.191001
0.190716
0.190441
0.190175
0.189918
0.189668
0.189427
0.189193
0.188965
0.188745
0.18853
0.188322
0.188119
0.187921
0.187728
0.18754
0.187355
0.187175
0.186999
0.186826
0.186656
0.186489
0.186324
0.186163
0.186003
0.185846
0.18569
0.185536
0.185383
0.185232
0.185082
0.184933
0.184785
0.184637
0.18449
0.184343
0.184197
0.184051
0.183906
0.183761
0.183616
0.183472
0.183329
0.183186
0.183044
0.182904
0.182765
0.182629
0.182496
0.182367
0.182244
0.182129
0.182023
0.18193
0.181855
0.181802
0.18178
0.181798
0.181869
0.182012
0.18225
0.182608
0.183125
0.18379
0.18466
0.185249
-0.0696414
-0.0732781
-0.0778135
-0.0815029
-0.0843418
-0.0867615
-0.0890074
-0.0911929
-0.0933812
-0.0956051
-0.0978726
-0.100173
-0.10248
-0.104761
-0.106973
-0.10907
-0.111001
-0.112713
-0.114152
-0.115263
-0.115991
-0.116282
-0.116085
-0.115348
-0.114029
-0.112084
-0.109481
-0.106193
-0.102199
-0.0974892
-0.0920619
-0.0859252
-0.0790982
-0.0716103
-0.063501
-0.0548197
-0.045624
-0.0359784
-0.0259532
-0.0156224
-0.0050619
0.00565197
0.0164442
0.0272423
0.0379779
0.0485872
0.0590118
0.0691983
0.0791007
0.0886801
0.0979044
0.106746
0.115184
0.1232
0.130783
0.137926
0.144626
0.150884
0.156703
0.16209
0.167056
0.171612
0.175772
0.179551
0.182967
0.186036
0.188777
0.191209
0.19335
0.195221
0.196839
0.198224
0.199394
0.200366
0.201159
0.201788
0.202269
0.202617
0.202845
0.202968
0.202997
0.202944
0.202819
0.202631
0.202389
0.202102
0.201777
0.20142
0.201036
0.200632
0.200212
0.19978
0.199339
0.198893
0.198445
0.197996
0.197549
0.197106
0.196669
0.196237
0.195814
0.195398
0.194992
0.194595
0.194208
0.193832
0.193466
0.19311
0.192765
0.19243
0.192106
0.191792
0.191487
0.191192
0.190907
0.190631
0.190363
0.190103
0.189852
0.189608
0.189372
0.189142
0.18892
0.188703
0.188492
0.188287
0.188087
0.187892
0.187701
0.187515
0.187333
0.187155
0.18698
0.186808
0.18664
0.186474
0.186311
0.18615
0.185992
0.185835
0.18568
0.185527
0.185375
0.185224
0.185074
0.184926
0.184778
0.18463
0.184483
0.184337
0.184191
0.184046
0.1839
0.183755
0.183611
0.183466
0.183323
0.18318
0.183037
0.182896
0.182757
0.18262
0.182486
0.182356
0.18223
0.182112
0.182003
0.181906
0.181824
0.181762
0.181728
0.18173
0.181777
0.181885
0.182069
0.182347
0.182736
0.183207
0.183771
0.183993
-0.076411
-0.0799045
-0.0843357
-0.0880839
-0.0910817
-0.0936912
-0.0961267
-0.0984896
-0.100838
-0.103205
-0.1056
-0.108015
-0.110429
-0.112808
-0.115115
-0.117303
-0.119325
-0.121127
-0.122654
-0.123851
-0.12466
-0.125025
-0.124891
-0.124204
-0.122916
-0.12098
-0.11836
-0.115025
-0.110952
-0.106128
-0.100549
-0.0942259
-0.0871776
-0.0794371
-0.0710484
-0.062066
-0.0525537
-0.0425827
-0.0322298
-0.0215755
-0.0107012
0.000311767
0.0113848
0.0224426
0.0334149
0.0442366
0.0548493
0.0652019
0.0752512
0.0849605
0.0942987
0.103241
0.111768
0.119866
0.127524
0.134739
0.141508
0.147833
0.153721
0.159179
0.164217
0.168848
0.173085
0.176944
0.180442
0.183595
0.186422
0.188941
0.19117
0.193129
0.194836
0.19631
0.197567
0.198626
0.199503
0.200215
0.200777
0.201204
0.201509
0.201705
0.201805
0.20182
0.201761
0.201636
0.201454
0.201224
0.200953
0.200648
0.200314
0.199956
0.19958
0.19919
0.198788
0.19838
0.197966
0.19755
0.197135
0.196721
0.196311
0.195905
0.195505
0.195113
0.194727
0.19435
0.193982
0.193623
0.193273
0.192932
0.192601
0.192279
0.191967
0.191664
0.19137
0.191084
0.190808
0.190539
0.190279
0.190027
0.189782
0.189544
0.189313
0.189088
0.18887
0.188658
0.188451
0.188249
0.188052
0.18786
0.187672
0.187489
0.187309
0.187133
0.18696
0.18679
0.186623
0.186459
0.186297
0.186137
0.185979
0.185824
0.18567
0.185517
0.185366
0.185216
0.185067
0.184918
0.184771
0.184624
0.184477
0.184331
0.184185
0.18404
0.183895
0.18375
0.183605
0.183461
0.183317
0.183173
0.183031
0.182889
0.182749
0.182611
0.182475
0.182343
0.182215
0.182093
0.18198
0.181876
0.181787
0.181715
0.181667
0.181649
0.181669
0.181737
0.181865
0.182059
0.182323
0.182618
0.182925
0.182866
-0.0842888
-0.087547
-0.0917269
-0.0953777
-0.0984017
-0.101098
-0.103648
-0.106137
-0.108616
-0.111114
-0.113639
-0.116182
-0.118724
-0.121232
-0.123668
-0.125988
-0.128142
-0.130075
-0.131732
-0.133053
-0.133979
-0.134448
-0.134402
-0.133782
-0.132534
-0.130607
-0.12796
-0.124557
-0.120372
-0.115389
-0.109607
-0.103033
-0.0956913
-0.0876194
-0.0788675
-0.0694975
-0.0595818
-0.0492003
-0.0384386
-0.0273845
-0.0161272
-0.00475332
0.00665412
0.0180156
0.0292594
0.0403209
0.0511434
0.061679
0.071886
0.0817298
0.0911824
0.100222
0.108832
0.117002
0.124725
0.131998
0.138822
0.145201
0.151141
0.156653
0.161746
0.166434
0.170731
0.174652
0.178214
0.181435
0.184331
0.18692
0.189222
0.191254
0.193035
0.194581
0.195912
0.197043
0.197992
0.198775
0.199406
0.1999
0.200271
0.200531
0.200693
0.200767
0.200765
0.200695
0.200567
0.200387
0.200165
0.199906
0.199616
0.199301
0.198965
0.198612
0.198247
0.197873
0.197492
0.197107
0.196721
0.196335
0.19595
0.195569
0.195193
0.194822
0.194457
0.1941
0.19375
0.193408
0.193073
0.192748
0.19243
0.192122
0.191821
0.191529
0.191246
0.19097
0.190703
0.190443
0.19019
0.189945
0.189707
0.189475
0.18925
0.18903
0.188817
0.188609
0.188406
0.188208
0.188015
0.187826
0.187641
0.18746
0.187283
0.187109
0.186938
0.18677
0.186605
0.186442
0.186281
0.186123
0.185967
0.185812
0.185659
0.185507
0.185357
0.185207
0.185059
0.184911
0.184764
0.184617
0.184471
0.184325
0.184179
0.184034
0.183889
0.183744
0.183599
0.183455
0.18331
0.183167
0.183023
0.182881
0.18274
0.1826
0.182463
0.182328
0.182198
0.182072
0.181953
0.181844
0.181745
0.181662
0.181598
0.181558
0.181548
0.181575
0.181644
0.181755
0.181902
0.182039
0.182132
0.181854
-0.0927351
-0.0956874
-0.0995042
-0.102936
-0.105879
-0.108578
-0.111179
-0.113752
-0.116338
-0.118959
-0.12162
-0.124311
-0.127008
-0.129681
-0.132289
-0.134787
-0.137123
-0.139239
-0.141077
-0.142574
-0.143665
-0.144283
-0.144363
-0.143842
-0.142658
-0.140754
-0.138083
-0.134603
-0.130286
-0.125114
-0.119082
-0.112202
-0.104502
-0.0960264
-0.0868339
-0.0769965
-0.0665976
-0.0557286
-0.0444856
-0.0329663
-0.0212687
-0.00948657
0.00229175
0.0139856
0.0255229
0.0368409
0.0478846
0.0586074
0.068971
0.0789443
0.0885032
0.0976297
0.106311
0.11454
0.122313
0.129629
0.136492
0.142909
0.148887
0.154436
0.159569
0.164299
0.168641
0.17261
0.176222
0.179496
0.182447
0.185094
0.187455
0.189548
0.19139
0.192998
0.194391
0.195585
0.196595
0.197438
0.198129
0.198682
0.19911
0.199426
0.199642
0.199769
0.199817
0.199797
0.199716
0.199582
0.199404
0.199187
0.198937
0.19866
0.198361
0.198044
0.197713
0.19737
0.19702
0.196664
0.196306
0.195946
0.195587
0.19523
0.194876
0.194526
0.194182
0.193843
0.193511
0.193186
0.192867
0.192557
0.192253
0.191958
0.19167
0.191389
0.191116
0.19085
0.190592
0.190341
0.190096
0.189858
0.189627
0.189402
0.189182
0.188969
0.18876
0.188557
0.188359
0.188165
0.187975
0.187789
0.187608
0.18743
0.187255
0.187083
0.186915
0.186749
0.186585
0.186424
0.186265
0.186108
0.185953
0.185799
0.185647
0.185497
0.185347
0.185198
0.18505
0.184903
0.184756
0.18461
0.184464
0.184319
0.184174
0.184028
0.183883
0.183738
0.183594
0.183449
0.183304
0.18316
0.183016
0.182873
0.182731
0.182589
0.18245
0.182313
0.182179
0.182049
0.181925
0.181808
0.181699
0.181603
0.181522
0.181459
0.181418
0.181402
0.181413
0.181444
0.181482
0.181478
0.181393
0.180945
-0.101208
-0.103796
-0.10716
-0.110277
-0.113056
-0.11569
-0.118294
-0.120921
-0.1236
-0.126346
-0.129156
-0.132019
-0.134907
-0.137787
-0.140617
-0.143346
-0.145922
-0.148282
-0.150363
-0.152096
-0.15341
-0.154233
-0.154491
-0.154113
-0.153028
-0.151173
-0.148491
-0.144937
-0.140477
-0.135088
-0.128768
-0.121532
-0.113412
-0.104464
-0.0947575
-0.0843775
-0.0734216
-0.0619969
-0.0502126
-0.038179
-0.0260023
-0.0137821
-0.00161046
0.0104315
0.0222714
0.0338469
0.0451059
0.0560057
0.0665121
0.0765987
0.0862461
0.0954407
0.104174
0.112443
0.120246
0.127588
0.134473
0.14091
0.146908
0.15248
0.157637
0.162395
0.166767
0.170771
0.174421
0.177735
0.180731
0.183424
0.185834
0.187977
0.18987
0.191532
0.192978
0.194224
0.195288
0.196184
0.196928
0.197532
0.19801
0.198376
0.19864
0.198814
0.198909
0.198932
0.198894
0.198802
0.198663
0.198485
0.198272
0.198031
0.197766
0.197482
0.197182
0.19687
0.196549
0.196221
0.195889
0.195554
0.195219
0.194885
0.194553
0.194224
0.1939
0.19358
0.193266
0.192957
0.192655
0.192359
0.19207
0.191787
0.191512
0.191243
0.190981
0.190725
0.190476
0.190234
0.189997
0.189767
0.189543
0.189324
0.189111
0.188903
0.1887
0.188502
0.188308
0.188118
0.187933
0.187751
0.187572
0.187397
0.187225
0.187056
0.18689
0.186726
0.186564
0.186405
0.186248
0.186092
0.185939
0.185786
0.185635
0.185485
0.185337
0.185189
0.185042
0.184895
0.184749
0.184603
0.184458
0.184313
0.184168
0.184023
0.183878
0.183733
0.183588
0.183443
0.183298
0.183153
0.183009
0.182864
0.182721
0.182578
0.182436
0.182297
0.182159
0.182025
0.181894
0.181769
0.181651
0.181541
0.181441
0.181354
0.181282
0.181223
0.181176
0.181132
0.181071
0.180943
0.180709
0.180128
-0.109161
-0.111334
-0.114174
-0.116901
-0.119452
-0.121972
-0.124546
-0.127209
-0.129978
-0.132858
-0.135841
-0.138908
-0.142029
-0.145166
-0.148272
-0.151295
-0.154175
-0.156846
-0.159238
-0.161276
-0.162881
-0.163972
-0.164467
-0.164283
-0.163342
-0.161568
-0.158899
-0.155278
-0.150667
-0.145041
-0.138397
-0.130753
-0.122154
-0.112667
-0.102376
-0.0913863
-0.0798147
-0.0677842
-0.0554174
-0.0428368
-0.0301571
-0.0174842
-0.00491353
0.00747189
0.0196012
0.0314153
0.0428665
0.0539172
0.0645387
0.0747103
0.0844179
0.0936531
0.102412
0.110695
0.118506
0.12585
0.132736
0.139174
0.145175
0.150752
0.155918
0.160689
0.165079
0.169104
0.17278
0.176124
0.179153
0.181883
0.184332
0.186516
0.188453
0.190159
0.191651
0.192944
0.194054
0.194997
0.195786
0.196436
0.19696
0.19737
0.197678
0.197894
0.19803
0.198094
0.198095
0.198041
0.197939
0.197796
0.197617
0.19741
0.197177
0.196923
0.196653
0.19637
0.196076
0.195775
0.195469
0.195159
0.194847
0.194536
0.194225
0.193917
0.193612
0.193311
0.193014
0.192722
0.192436
0.192155
0.19188
0.191611
0.191348
0.191091
0.190839
0.190594
0.190355
0.190122
0.189894
0.189672
0.189455
0.189243
0.189036
0.188834
0.188637
0.188444
0.188254
0.188069
0.187888
0.187709
0.187534
0.187363
0.187194
0.187027
0.186863
0.186702
0.186543
0.186385
0.18623
0.186076
0.185923
0.185772
0.185623
0.185474
0.185326
0.185179
0.185033
0.184887
0.184741
0.184596
0.184451
0.184306
0.184161
0.184017
0.183872
0.183727
0.183582
0.183437
0.183292
0.183146
0.183001
0.182856
0.182711
0.182566
0.182422
0.18228
0.182138
0.181999
0.181862
0.181728
0.181599
0.181475
0.181358
0.181247
0.181142
0.181042
0.18094
0.180824
0.180673
0.180438
0.180079
0.179391
-0.116042
-0.117757
-0.120016
-0.122297
-0.124574
-0.126949
-0.129475
-0.132169
-0.135037
-0.138074
-0.141261
-0.144574
-0.147977
-0.151426
-0.15487
-0.158251
-0.161504
-0.164556
-0.167331
-0.169745
-0.171711
-0.173138
-0.173932
-0.173999
-0.173248
-0.171594
-0.16896
-0.165282
-0.160513
-0.154625
-0.147618
-0.139518
-0.130384
-0.120301
-0.109372
-0.0977221
-0.0854894
-0.0728149
-0.0598393
-0.0466977
-0.0335145
-0.0204012
-0.00745458
0.00524348
0.0176256
0.0296381
0.0412393
0.052398
0.0630924
0.0733081
0.0830371
0.0922763
0.101027
0.109293
0.117082
0.124403
0.131266
0.137683
0.143666
0.149231
0.15439
0.159159
0.163552
0.167586
0.171277
0.17464
0.177693
0.18045
0.18293
0.185148
0.18712
0.188864
0.190395
0.191728
0.192879
0.193863
0.194693
0.195384
0.195949
0.196399
0.196746
0.197001
0.197175
0.197276
0.197313
0.197294
0.197226
0.197116
0.19697
0.196794
0.196591
0.196367
0.196125
0.19587
0.195603
0.195327
0.195045
0.194759
0.194471
0.194181
0.193892
0.193604
0.193318
0.193036
0.192757
0.192482
0.192211
0.191945
0.191684
0.191429
0.191178
0.190933
0.190693
0.190458
0.190229
0.190005
0.189786
0.189572
0.189363
0.189158
0.188958
0.188762
0.18857
0.188382
0.188198
0.188017
0.18784
0.187666
0.187495
0.187326
0.18716
0.186997
0.186836
0.186677
0.186519
0.186364
0.18621
0.186058
0.185907
0.185758
0.185609
0.185462
0.185315
0.185169
0.185023
0.184878
0.184733
0.184589
0.184444
0.1843
0.184155
0.184011
0.183866
0.183721
0.183576
0.183431
0.183285
0.183139
0.182993
0.182847
0.1827
0.182554
0.182408
0.182262
0.182117
0.181972
0.181829
0.181687
0.181547
0.181408
0.181272
0.181137
0.181001
0.180861
0.180707
0.180526
0.180294
0.179965
0.179501
0.178728
-0.121293
-0.122531
-0.12417
-0.125968
-0.127944
-0.130158
-0.132634
-0.13537
-0.138359
-0.141583
-0.145016
-0.148623
-0.152363
-0.156185
-0.160032
-0.163839
-0.167534
-0.171039
-0.174267
-0.177127
-0.179521
-0.181346
-0.182496
-0.182863
-0.182343
-0.180837
-0.178258
-0.174529
-0.169593
-0.163422
-0.15602
-0.147423
-0.137707
-0.126975
-0.115358
-0.103009
-0.0900874
-0.0767585
-0.0631803
-0.0494998
-0.0358489
-0.0223414
-0.00907309
0.00387821
0.0164512
0.0285994
0.0402889
0.0514964
0.0622077
0.0724152
0.0821173
0.0913165
0.100019
0.108232
0.115967
0.123235
0.130049
0.136422
0.142368
0.147901
0.153036
0.157787
0.162171
0.166202
0.169896
0.173268
0.176334
0.179111
0.181613
0.183857
0.185859
0.187634
0.189198
0.190566
0.191753
0.192773
0.19364
0.194368
0.194969
0.195455
0.195839
0.19613
0.196338
0.196473
0.196544
0.196558
0.196522
0.196444
0.196328
0.196181
0.196007
0.195811
0.195597
0.195367
0.195126
0.194876
0.194618
0.194355
0.194089
0.193821
0.193553
0.193285
0.193019
0.192755
0.192493
0.192235
0.19198
0.19173
0.191483
0.191241
0.191003
0.19077
0.190542
0.190318
0.190099
0.189884
0.189674
0.189468
0.189267
0.189069
0.188876
0.188686
0.188501
0.188318
0.188139
0.187963
0.187791
0.18762
0.187453
0.187288
0.187125
0.186965
0.186806
0.18665
0.186495
0.186342
0.18619
0.18604
0.18589
0.185742
0.185595
0.185449