/*--------------------------------*- C++ -*----------------------------------*\
  =========                 |
  \\      /  F ield         | OpenFOAM: The Open Source CFD Toolbox
   \\    /   O peration     | Website:  https://openfoam.org
    \\  /    A nd           | Version:  6
     \\/     M anipulation  |
\*---------------------------------------------------------------------------*/
FoamFile
{
    version     2.0;
    format      ascii;
    class       surfaceScalarField;
    location    "0.07";
    object      phi;
}
// * * * * * * * * * * * * * * * * * * * * * * * * * * * * * * * * * * * * * //

dimensions      [0 3 -1 0 0 0 0];

internalField   nonuniform List<scalar> 
24170
(
3.25677e-07
-6.83657e-09
3.19458e-07
6.21881e-09
3.15922e-07
3.53679e-09
3.08939e-07
6.98213e-09
3.02119e-07
6.8201e-09
2.973e-07
4.819e-09
2.94212e-07
3.08861e-09
2.92146e-07
2.06545e-09
2.90665e-07
1.48091e-09
2.89576e-07
1.08966e-09
2.88785e-07
7.90272e-10
2.88244e-07
5.41308e-10
2.87931e-07
3.13397e-10
2.87825e-07
1.06158e-10
2.8795e-07
-1.24987e-10
2.88357e-07
-4.07296e-10
2.89804e-07
-1.44746e-09
-3.46995e-09
2.93274e-07
3.50381e-07
-1.54927e-08
3.47841e-07
8.75879e-09
3.44142e-07
7.23605e-09
3.4237e-07
8.75404e-09
3.40309e-07
8.88074e-09
3.37975e-07
7.15372e-09
3.35826e-07
5.23701e-09
3.34067e-07
3.82447e-09
3.327e-07
2.8482e-09
3.31662e-07
2.12703e-09
3.30895e-07
1.55765e-09
3.30356e-07
1.08058e-09
3.30023e-07
6.46341e-10
3.2991e-07
2.18776e-10
3.30062e-07
-2.77043e-10
3.30574e-07
-9.19393e-10
3.31471e-07
-2.34419e-09
-4.59368e-09
3.32595e-07
3.63441e-07
-1.26822e-08
3.66592e-07
5.60774e-09
3.66804e-07
7.02473e-09
3.67054e-07
8.5039e-09
3.66794e-07
9.14057e-09
3.65951e-07
7.99672e-09
3.64853e-07
6.33468e-09
3.63778e-07
4.8999e-09
3.62857e-07
3.76844e-09
3.62129e-07
2.85542e-09
3.61592e-07
2.09495e-09
3.61238e-07
1.43467e-09
3.61063e-07
8.21446e-10
3.61077e-07
2.04034e-10
3.61305e-07
-5.04343e-10
3.61791e-07
-1.4053e-09
3.62375e-07
-2.92898e-09
-5.07212e-09
3.62854e-07
3.89246e-07
-9.3894e-09
3.91495e-07
3.35842e-09
3.92487e-07
6.03347e-09
3.93239e-07
7.75183e-09
3.93634e-07
8.74557e-09
3.93531e-07
8.09958e-09
3.93092e-07
6.77323e-09
3.92533e-07
5.4596e-09
3.91995e-07
4.30604e-09
3.9155e-07
3.30036e-09
3.91229e-07
2.41599e-09
3.91047e-07
1.61699e-09
3.91012e-07
8.56093e-10
3.91136e-07
7.98767e-11
3.91427e-07
-7.94864e-10
3.91884e-07
-1.86247e-09
3.92341e-07
-3.38657e-09
-5.33751e-09
3.92607e-07
4.18281e-07
-6.9574e-09
4.19458e-07
2.18153e-09
4.20408e-07
5.08345e-09
4.21266e-07
6.8934e-09
4.21956e-07
8.05574e-09
4.2228e-07
7.77523e-09
4.22288e-07
6.76504e-09
4.22127e-07
5.6211e-09
4.21917e-07
4.5162e-09
4.21733e-07
3.48395e-09
4.21621e-07
2.52823e-09
4.21607e-07
1.63056e-09
4.21709e-07
7.54202e-10
4.21937e-07
-1.48328e-10
4.2229e-07
-1.14695e-09
4.22742e-07
-2.31513e-09
4.23155e-07
-3.79914e-09
-5.5419e-09
4.23359e-07
4.49049e-07
-5.09784e-09
4.49658e-07
1.57295e-09
4.50467e-07
4.27393e-09
4.51332e-07
6.02878e-09
4.52164e-07
7.22328e-09
4.52748e-07
7.19163e-09
4.53067e-07
6.44608e-09
4.53213e-07
5.47455e-09
4.5328e-07
4.45011e-09
4.53332e-07
3.43142e-09
4.53418e-07
2.44255e-09
4.53568e-07
1.47984e-09
4.53804e-07
5.18496e-10
4.54134e-07
-4.78613e-10
4.54551e-07
-1.5638e-09
4.55022e-07
-2.78621e-09
4.55437e-07
-4.21374e-09
-5.77734e-09
4.55672e-07
4.81775e-07
-3.60067e-09
4.82115e-07
1.23249e-09
4.82793e-07
3.59588e-09
4.8362e-07
5.20177e-09
4.84509e-07
6.33487e-09
4.85246e-07
6.45405e-09
4.85781e-07
5.91146e-09
4.86163e-07
5.09201e-09
4.86458e-07
4.15555e-09
4.86718e-07
3.17133e-09
4.86986e-07
2.17485e-09
4.87292e-07
1.17359e-09
4.87656e-07
1.54136e-10
4.88087e-07
-9.08736e-10
4.88572e-07
-2.04932e-09
4.8908e-07
-3.2945e-09
4.89531e-07
-4.66415e-09
-6.09266e-09
4.89846e-07
5.16769e-07
-2.41194e-09
5.16966e-07
1.03621e-09
5.17529e-07
3.03206e-09
5.18297e-07
4.4343e-09
5.19189e-07
5.44288e-09
5.20011e-07
5.63194e-09
5.20692e-07
5.23044e-09
5.21252e-07
4.53205e-09
5.21731e-07
3.67649e-09
5.22168e-07
2.73408e-09
5.22598e-07
1.74524e-09
5.23047e-07
7.25003e-10
5.23531e-07
-3.30322e-10
5.24057e-07
-1.4345e-09
5.24613e-07
-2.6059e-09
5.25173e-07
-3.85392e-09
5.25681e-07
-5.17241e-09
-6.50745e-09
5.26096e-07
5.54232e-07
-1.51057e-09
5.54345e-07
9.23157e-10
5.54818e-07
2.559e-09
5.55522e-07
3.73081e-09
5.56389e-07
4.57596e-09
5.5725e-07
4.77099e-09
5.58026e-07
4.45422e-09
5.58716e-07
3.84248e-09
5.59339e-07
3.05271e-09
5.59923e-07
2.15054e-09
5.60491e-07
1.17678e-09
5.61065e-07
1.50977e-10
5.61658e-07
-9.2293e-10
5.62272e-07
-2.04896e-09
5.629e-07
-3.23292e-09
5.63518e-07
-4.47217e-09
5.64094e-07
-5.74901e-09
-7.02353e-09
5.6461e-07
5.9433e-07
-8.63094e-10
5.94406e-07
8.47542e-10
5.94816e-07
2.14917e-09
5.95462e-07
3.08444e-09
5.96291e-07
3.74673e-09
5.97162e-07
3.90032e-09
5.97996e-07
3.62045e-09
5.98776e-07
3.06206e-09
5.99509e-07
2.31959e-09
6.00209e-07
1.4508e-09
6.00892e-07
4.94106e-10
6.01571e-07
-5.28847e-10
6.02257e-07
-1.60868e-09
6.0295e-07
-2.74197e-09
6.03643e-07
-3.92565e-09
6.04321e-07
-5.14994e-09
6.04966e-07
-6.39406e-09
-7.63094e-09
6.05573e-07
6.37247e-07
-4.28504e-10
6.37318e-07
7.75948e-10
6.37692e-07
1.77507e-09
6.38294e-07
2.48226e-09
6.39084e-07
2.95772e-09
6.39947e-07
3.03718e-09
6.40811e-07
2.75614e-09
6.41651e-07
2.22181e-09
6.42463e-07
1.50796e-09
6.4325e-07
6.6331e-10
6.44022e-07
-2.77661e-10
6.44786e-07
-1.29301e-09
6.45548e-07
-2.36996e-09
6.46306e-07
-3.50003e-09
6.47055e-07
-4.67467e-09
6.47785e-07
-5.88071e-09
6.4849e-07
-7.09848e-09
-8.31087e-09
6.4917e-07
5.7385e-07
-1.95021e-10
5.7392e-07
7.05614e-10
5.74227e-07
1.46859e-09
5.74713e-07
1.99569e-09
5.75351e-07
2.31971e-09
5.76068e-07
2.32067e-09
5.76807e-07
2.01683e-09
5.77544e-07
1.48471e-09
5.7827e-07
7.82244e-10
5.78983e-07
-4.93208e-11
5.79684e-07
-9.79267e-10
5.80378e-07
-1.98638e-09
5.81064e-07
-3.05634e-09
5.81742e-07
-4.17806e-09
5.82408e-07
-5.34036e-09
5.83056e-07
-6.52914e-09
5.83685e-07
-7.72694e-09
-8.92349e-09
5.84297e-07
6.99659e-07
-3.8657e-11
6.99777e-07
5.8753e-10
7.00126e-07
1.12009e-09
7.00665e-07
1.45668e-09
7.01369e-07
1.61566e-09
7.02171e-07
1.51874e-09
7.03016e-07
1.17157e-09
7.03875e-07
6.25428e-10
7.04734e-07
-7.62107e-11
7.05585e-07
-9.00153e-10
7.06426e-07
-1.82022e-09
7.07256e-07
-2.81675e-09
7.08074e-07
-3.87491e-09
7.08879e-07
-4.98216e-09
7.09664e-07
-6.12609e-09
7.10428e-07
-7.29285e-09
7.11169e-07
-8.46807e-09
-9.64724e-09
7.11893e-07
8.53014e-07
3.19793e-11
8.53194e-07
4.07961e-10
8.536e-07
7.13409e-10
8.54201e-07
8.56032e-10
8.54973e-07
8.43857e-10
8.55858e-07
6.33652e-10
8.56805e-07
2.24549e-10
8.57782e-07
-3.51523e-10
8.58769e-07
-1.06342e-09
8.59755e-07
-1.8857e-09
8.60731e-07
-2.79712e-09
8.61695e-07
-3.78036e-09
8.62641e-07
-4.82112e-09
8.63566e-07
-5.90671e-09
8.64464e-07
-7.02473e-09
8.65334e-07
-8.16249e-09
8.66175e-07
-9.30859e-09
-1.04626e-08
8.6699e-07
1.03993e-06
2.01175e-11
1.04018e-06
1.58346e-10
1.04066e-06
2.35498e-10
1.04133e-06
1.83797e-10
1.04218e-06
1.79395e-12
1.04314e-06
-3.30211e-10
1.04418e-06
-8.14293e-10
1.04526e-06
-1.43202e-09
1.04636e-06
-2.1623e-09
1.04746e-06
-2.98657e-09
1.04855e-06
-3.88842e-09
1.04962e-06
-4.85343e-09
1.05067e-06
-5.86883e-09
1.05169e-06
-6.92281e-09
1.05267e-06
-8.00398e-09
1.0536e-06
-9.10121e-09
1.0545e-06
-1.02054e-08
-1.13184e-08
1.05536e-06
1.26776e-06
-5.78014e-11
1.26808e-06
-1.61061e-10
1.26863e-06
-3.15602e-10
1.26937e-06
-5.62306e-10
1.27028e-06
-9.08524e-10
1.27132e-06
-1.36258e-09
1.27243e-06
-1.92586e-09
1.27358e-06
-2.58875e-09
1.27476e-06
-3.33817e-09
1.27594e-06
-4.16151e-09
1.27709e-06
-5.04691e-09
1.27822e-06
-5.98319e-09
1.27931e-06
-6.95975e-09
1.28036e-06
-7.96643e-09
1.28135e-06
-8.99337e-09
1.28228e-06
-1.0031e-08
1.28314e-06
-1.10719e-08
-1.21184e-08
1.28394e-06
1.54544e-06
-1.78141e-10
1.54581e-06
-5.35198e-10
1.54642e-06
-9.24829e-10
1.54723e-06
-1.36737e-09
1.54819e-06
-1.87043e-09
1.54927e-06
-2.43904e-09
1.55041e-06
-3.07506e-09
1.5516e-06
-3.775e-09
1.55279e-06
-4.53255e-09
1.55397e-06
-5.34067e-09
1.55512e-06
-6.19198e-09
1.55621e-06
-7.07877e-09
1.55725e-06
-7.99313e-09
1.55821e-06
-8.92701e-09
1.55909e-06
-9.87231e-09
1.55988e-06
-1.0821e-08
1.56057e-06
-1.17669e-08
-1.27119e-08
1.56117e-06
1.8839e-06
-3.15297e-10
1.8843e-06
-9.31907e-10
1.88493e-06
-1.55715e-09
1.88576e-06
-2.19405e-09
1.88673e-06
-2.84434e-09
1.8878e-06
-3.5129e-09
1.88893e-06
-4.20375e-09
1.89008e-06
-4.9187e-09
1.8912e-06
-5.65807e-09
1.89228e-06
-6.42092e-09
1.8933e-06
-7.20491e-09
1.89422e-06
-8.00642e-09
1.89505e-06
-8.82081e-09
1.89577e-06
-9.64268e-09
1.89636e-06
-1.04661e-08
1.89682e-06
-1.12848e-08
1.89715e-06
-1.20939e-08
-1.28947e-08
1.89733e-06
2.29645e-06
-4.33001e-10
2.29681e-06
-1.29011e-09
2.2974e-06
-2.15224e-09
2.29819e-06
-2.98342e-09
2.29912e-06
-3.77167e-09
2.30013e-06
-4.52247e-09
2.30117e-06
-5.24108e-09
2.30218e-06
-5.93444e-09
2.30314e-06
-6.61132e-09
2.304e-06
-7.27902e-09
2.30473e-06
-7.942e-09
2.30533e-06
-8.60222e-09
2.30577e-06
-9.25963e-09
2.30604e-06
-9.91255e-09
2.30613e-06
-1.05581e-08
2.30604e-06
-1.11925e-08
2.30576e-06
-1.18124e-08
-1.24195e-08
2.30528e-06
1.68108e-06
-4.37943e-10
1.6812e-06
-1.41235e-09
1.6815e-06
-2.4513e-09
1.68194e-06
-3.42776e-09
1.68249e-06
-4.31829e-09
1.68309e-06
-5.12718e-09
1.68371e-06
-5.85399e-09
1.68428e-06
-6.51019e-09
1.68478e-06
-7.11468e-09
1.68519e-06
-7.68363e-09
1.68548e-06
-8.22832e-09
1.68563e-06
-8.75627e-09
1.68564e-06
-9.27193e-09
1.68551e-06
-9.77709e-09
1.68522e-06
-1.02715e-08
1.68478e-06
-1.07536e-08
1.68419e-06
-1.12213e-08
-1.16763e-08
1.68345e-06
1.46331e-06
-2.88597e-10
1.46324e-06
-1.34213e-09
1.46339e-06
-2.60025e-09
1.4637e-06
-3.74378e-09
1.46414e-06
-4.75981e-09
1.46466e-06
-5.64206e-09
1.46518e-06
-6.37376e-09
1.46565e-06
-6.97777e-09
1.46602e-06
-7.49128e-09
1.46628e-06
-7.94312e-09
1.46641e-06
-8.35345e-09
1.46639e-06
-8.73682e-09
1.46622e-06
-9.10283e-09
1.4659e-06
-9.45689e-09
1.46543e-06
-9.80128e-09
1.46481e-06
-1.01361e-08
1.46405e-06
-1.04605e-08
-1.07759e-08
1.46315e-06
1.27358e-06
1.48877e-10
1.27329e-06
-1.05631e-09
1.27335e-06
-2.65567e-09
1.27362e-06
-4.01783e-09
1.27407e-06
-5.20961e-09
1.27461e-06
-6.18689e-09
1.27515e-06
-6.90839e-09
1.2756e-06
-7.42969e-09
1.27593e-06
-7.82028e-09
1.27611e-06
-8.12638e-09
1.27614e-06
-8.37938e-09
1.276e-06
-8.60203e-09
1.27571e-06
-8.80919e-09
1.27526e-06
-9.0092e-09
1.27467e-06
-9.20597e-09
1.27393e-06
-9.4005e-09
1.27306e-06
-9.59214e-09
-9.78171e-09
1.27207e-06
1.1082e-06
1.04571e-09
1.1077e-06
-5.63574e-10
1.10775e-06
-2.70603e-09
1.10809e-06
-4.3555e-09
1.10866e-06
-5.78233e-09
1.10933e-06
-6.85283e-09
1.10994e-06
-7.51339e-09
1.1104e-06
-7.89327e-09
1.11069e-06
-8.11051e-09
1.11079e-06
-8.23165e-09
1.11071e-06
-8.3001e-09
1.11046e-06
-8.34632e-09
1.11004e-06
-8.38869e-09
1.10947e-06
-8.43646e-09
1.10875e-06
-8.49325e-09
1.10791e-06
-8.55939e-09
1.10695e-06
-8.63325e-09
-8.71417e-09
1.10589e-06
9.64002e-07
2.56509e-09
9.63372e-07
6.6613e-11
9.63535e-07
-2.86871e-09
9.6405e-07
-4.87073e-09
9.64841e-07
-6.57315e-09
9.65667e-07
-7.67887e-09
9.6633e-07
-8.17659e-09
9.66763e-07
-8.32648e-09
9.66959e-07
-8.30636e-09
9.66928e-07
-8.20086e-09
9.6669e-07
-8.06248e-09
9.6627e-07
-7.9256e-09
9.65689e-07
-7.80788e-09
9.64968e-07
-7.7157e-09
9.64125e-07
-7.64962e-09
9.63173e-07
-7.60732e-09
9.62124e-07
-7.5848e-09
-7.57915e-09
9.60989e-07
8.38106e-07
4.99395e-09
8.3761e-07
5.62811e-10
8.38068e-07
-3.32687e-09
8.38868e-07
-5.67073e-09
8.39919e-07
-7.62375e-09
8.40863e-07
-8.62311e-09
8.41492e-07
-8.80557e-09
8.41785e-07
-8.61888e-09
8.41777e-07
-8.29876e-09
8.41514e-07
-7.93793e-09
8.41041e-07
-7.58903e-09
8.40397e-07
-7.28197e-09
8.39616e-07
-7.02672e-09
8.38722e-07
-6.82198e-09
8.37735e-07
-6.66214e-09
8.36668e-07
-6.5404e-09
8.35532e-07
-6.44951e-09
-6.38373e-09
8.34337e-07
7.27605e-07
9.11748e-09
7.28007e-07
1.60574e-10
7.29067e-07
-4.38662e-09
7.30252e-07
-6.85583e-09
7.31526e-07
-8.89786e-09
7.32445e-07
-9.54246e-09
7.3286e-07
-9.22044e-09
7.32837e-07
-8.59578e-09
7.32478e-07
-7.93906e-09
7.31869e-07
-7.32893e-09
7.3108e-07
-6.80024e-09
7.30163e-07
-6.36515e-09
7.29154e-07
-6.01765e-09
7.28076e-07
-5.74426e-09
7.26945e-07
-5.5312e-09
7.25771e-07
-5.36654e-09
7.24562e-07
-5.23997e-09
-5.14307e-09
7.23321e-07
6.30198e-07
1.59262e-08
6.32661e-07
-2.30259e-09
6.3453e-07
-6.25523e-09
6.36147e-07
-8.47345e-09
6.37501e-07
-1.02511e-08
6.38127e-07
-1.01689e-08
6.38047e-07
-9.14084e-09
6.37472e-07
-8.01996e-09
6.36586e-07
-7.05361e-09
6.3552e-07
-6.26245e-09
6.34354e-07
-5.63442e-09
6.33137e-07
-5.14856e-09
6.31896e-07
-4.77688e-09
6.30645e-07
-4.49252e-09
6.29388e-07
-4.27439e-09
6.28128e-07
-4.10703e-09
6.26867e-07
-3.97863e-09
-3.87906e-09
6.25603e-07
5.47178e-07
2.32944e-08
5.5176e-07
-6.8847e-09
5.53367e-07
-7.86194e-09
5.54936e-07
-1.00419e-08
5.55849e-07
-1.11649e-08
5.55641e-07
-9.96013e-09
5.54614e-07
-8.11412e-09
5.53169e-07
-6.57558e-09
5.51572e-07
-5.45597e-09
5.49957e-07
-4.64795e-09
5.48384e-07
-4.0616e-09
5.46872e-07
-3.63624e-09
5.45421e-07
-3.32543e-09
5.44023e-07
-3.09472e-09
5.4267e-07
-2.92114e-09
5.41353e-07
-2.79049e-09
5.40067e-07
-2.69278e-09
-2.61947e-09
5.38808e-07
4.91609e-07
1.4446e-08
4.90661e-07
-5.93634e-09
4.87155e-07
-4.35593e-09
4.86082e-07
-8.96893e-09
4.84484e-07
-9.56663e-09
4.81946e-07
-7.42245e-09
4.7906e-07
-5.22792e-09
4.76275e-07
-3.79087e-09
4.73763e-07
-2.94393e-09
4.71538e-07
-2.42312e-09
4.6956e-07
-2.08305e-09
4.67777e-07
-1.85385e-09
4.66146e-07
-1.69481e-09
4.64632e-07
-1.5803e-09
4.63207e-07
-1.49586e-09
4.61852e-07
-1.4358e-09
4.6056e-07
-1.40076e-09
-1.43476e-09
4.59375e-07
4.34714e-07
4.28777e-07
4.24421e-07
4.15452e-07
4.05886e-07
3.98463e-07
3.93235e-07
3.89445e-07
3.86501e-07
3.84077e-07
3.81994e-07
3.80141e-07
3.78446e-07
3.76865e-07
3.7537e-07
3.73934e-07
3.72533e-07
3.71098e-07
1.06858e-08
-1.06858e-08
9.34983e-09
1.33598e-09
-1.7693e-10
9.52676e-09
-1.46398e-08
1.44629e-08
-3.19768e-08
1.7337e-08
-5.10481e-08
1.90713e-08
-7.12102e-08
2.01621e-08
-9.20635e-08
2.08533e-08
-1.13328e-07
2.12647e-08
-1.3478e-07
2.14522e-08
-1.56219e-07
2.14389e-08
-1.77454e-07
2.12343e-08
-1.98297e-07
2.08436e-08
-2.18569e-07
2.02718e-08
-2.38095e-07
1.95261e-08
-2.56711e-07
1.86163e-08
-2.74265e-07
1.75541e-08
-2.90618e-07
1.63529e-08
-3.05645e-07
1.50269e-08
-3.19236e-07
1.35905e-08
-3.31294e-07
1.2058e-08
-3.41737e-07
1.04429e-08
-3.50495e-07
8.75826e-09
-3.57511e-07
7.01621e-09
-3.6274e-07
5.22852e-09
-3.66149e-07
3.40931e-09
-3.67738e-07
1.58875e-09
-3.67566e-07
-1.71873e-10
-3.65741e-07
-1.82513e-09
-3.62357e-07
-3.38352e-09
-3.57479e-07
-4.87837e-09
-3.51154e-07
-6.3251e-09
-3.43425e-07
-7.72884e-09
-3.34335e-07
-9.08944e-09
-3.23931e-07
-1.04039e-08
-3.12264e-07
-1.16676e-08
-2.99388e-07
-1.28754e-08
-2.85367e-07
-1.40217e-08
-2.70266e-07
-1.51011e-08
-2.54157e-07
-1.61086e-08
-2.37117e-07
-1.70396e-08
-2.19227e-07
-1.78902e-08
-2.0057e-07
-1.86569e-08
-1.81233e-07
-1.9337e-08
-1.61305e-07
-1.99283e-08
-1.40876e-07
-2.04291e-08
-1.20038e-07
-2.08377e-08
-9.8886e-08
-2.11524e-08
-7.75146e-08
-2.13714e-08
-5.60212e-08
-2.14934e-08
-3.45004e-08
-2.15208e-08
-1.30141e-08
-2.14863e-08
8.42363e-09
-2.14378e-08
2.97599e-08
-2.13363e-08
5.09042e-08
-2.11443e-08
7.17859e-08
-2.08817e-08
9.23443e-08
-2.05583e-08
1.12525e-07
-2.01812e-08
1.32281e-07
-1.97556e-08
1.51567e-07
-1.92863e-08
1.70345e-07
-1.87777e-08
1.88579e-07
-1.8234e-08
2.06238e-07
-1.76593e-08
2.23296e-07
-1.70576e-08
2.39729e-07
-1.64331e-08
2.55518e-07
-1.57895e-08
2.70649e-07
-1.51309e-08
2.8511e-07
-1.44609e-08
2.98894e-07
-1.37835e-08
3.11996e-07
-1.31023e-08
3.24417e-07
-1.24208e-08
3.36159e-07
-1.17424e-08
3.4723e-07
-1.10705e-08
3.57638e-07
-1.0408e-08
3.67396e-07
-9.75788e-09
3.76518e-07
-9.12274e-09
3.85023e-07
-8.50496e-09
3.9293e-07
-7.90663e-09
4.0026e-07
-7.32954e-09
4.07035e-07
-6.77522e-09
4.1328e-07
-6.24485e-09
4.19019e-07
-5.73934e-09
4.24278e-07
-5.25931e-09
4.29083e-07
-4.80508e-09
4.3346e-07
-4.37674e-09
4.37434e-07
-3.97412e-09
4.41031e-07
-3.59686e-09
4.44275e-07
-3.2444e-09
4.47192e-07
-2.91604e-09
4.49802e-07
-2.61095e-09
4.52131e-07
-2.32818e-09
4.54197e-07
-2.06676e-09
4.56023e-07
-1.82563e-09
4.57627e-07
-1.60371e-09
4.59027e-07
-1.39988e-09
4.6024e-07
-1.21301e-09
4.61282e-07
-1.04198e-09
4.62167e-07
-8.85681e-10
4.6291e-07
-7.43044e-10
4.63523e-07
-6.13028e-10
4.64018e-07
-4.94639e-10
4.64405e-07
-3.86883e-10
4.64694e-07
-2.88669e-10
4.64892e-07
-1.98758e-10
4.65007e-07
-1.14936e-10
4.65038e-07
-3.03378e-11
4.64983e-07
5.42854e-11
4.64854e-07
1.29125e-10
4.64663e-07
1.91218e-10
4.6442e-07
2.42824e-10
4.64134e-07
2.86354e-10
4.6381e-07
3.2348e-10
4.63455e-07
3.55481e-10
4.63071e-07
3.83371e-10
4.62664e-07
4.07893e-10
4.62234e-07
4.29586e-10
4.61785e-07
4.4884e-10
4.61319e-07
4.65995e-10
4.60838e-07
4.81284e-10
4.60343e-07
4.94954e-10
4.59836e-07
5.07172e-10
4.59318e-07
5.18126e-10
4.5879e-07
5.27954e-10
4.58253e-07
5.36806e-10
4.57708e-07
5.44794e-10
4.57156e-07
5.52027e-10
4.56597e-07
5.58623e-10
4.56033e-07
5.64655e-10
4.55463e-07
5.70214e-10
4.54887e-07
5.75378e-10
4.54307e-07
5.80198e-10
4.53722e-07
5.84752e-10
4.53133e-07
5.89072e-10
4.5254e-07
5.93219e-10
4.51943e-07
5.97229e-10
4.51342e-07
6.01141e-10
4.50737e-07
6.04973e-10
4.50128e-07
6.08775e-10
4.49515e-07
6.12551e-10
4.48899e-07
6.1633e-10
4.48279e-07
6.20136e-10
4.47655e-07
6.23984e-10
4.47027e-07
6.27903e-10
4.46395e-07
6.31903e-10
4.45759e-07
6.36007e-10
4.45119e-07
6.40232e-10
4.44474e-07
6.44605e-10
4.43825e-07
6.49151e-10
4.43171e-07
6.53901e-10
4.42512e-07
6.58878e-10
4.41848e-07
6.64108e-10
4.41178e-07
6.69639e-10
4.40503e-07
6.75514e-10
4.39821e-07
6.81776e-10
4.39133e-07
6.88501e-10
4.38437e-07
6.95767e-10
4.37733e-07
7.03691e-10
4.37021e-07
7.12404e-10
4.36299e-07
7.22089e-10
4.35566e-07
7.32981e-10
4.3482e-07
7.45404e-10
4.34061e-07
7.59762e-10
4.33284e-07
7.76614e-10
4.32487e-07
7.96688e-10
4.31666e-07
8.20983e-10
4.30815e-07
8.50844e-10
4.29927e-07
8.88109e-10
4.28992e-07
9.35367e-10
4.27996e-07
9.9628e-10
4.2692e-07
1.07617e-09
4.25737e-07
1.18301e-09
4.24407e-07
1.32918e-09
4.22872e-07
1.53498e-09
4.21037e-07
1.83519e-09
4.18741e-07
2.29666e-09
4.15693e-07
3.04741e-09
4.11277e-07
4.41601e-09
4.04297e-07
6.97984e-09
3.91088e-07
1.32092e-08
2.3779e-08
3.67309e-07
-1.07957e-08
1.09861e-10
-2.39255e-08
1.44658e-08
-3.84101e-08
2.40114e-08
-5.47814e-08
3.08343e-08
-7.295e-08
3.55055e-08
-9.24547e-08
3.8576e-08
-1.12777e-07
4.04841e-08
-1.33454e-07
4.15309e-08
-1.54104e-07
4.19148e-08
-1.74417e-07
4.17645e-08
-1.94142e-07
4.11644e-08
-2.13081e-07
4.01731e-08
-2.31073e-07
3.8836e-08
-2.47993e-07
3.71918e-08
-2.63744e-07
3.52763e-08
-2.78251e-07
3.31234e-08
-2.91463e-07
3.0766e-08
-3.03345e-07
2.82351e-08
-3.13878e-07
2.55598e-08
-3.23055e-07
2.27673e-08
-3.30879e-07
1.98821e-08
-3.37363e-07
1.69271e-08
-3.42528e-07
1.3923e-08
-3.46401e-07
1.08897e-08
-3.4902e-07
7.84702e-09
-3.50427e-07
4.81629e-09
-3.50656e-07
1.81819e-09
-3.49689e-07
-1.13883e-09
-3.47454e-07
-4.0605e-09
-3.43891e-07
-6.94686e-09
-3.38979e-07
-9.78981e-09
-3.32724e-07
-1.25808e-08
-3.25142e-07
-1.53103e-08
-3.16264e-07
-1.79676e-08
-3.06127e-07
-2.05412e-08
-2.94775e-07
-2.30192e-08
-2.82261e-07
-2.53896e-08
-2.68642e-07
-2.76408e-08
-2.53981e-07
-2.97617e-08
-2.38347e-07
-3.17424e-08
-2.21813e-07
-3.35738e-08
-2.04455e-07
-3.52485e-08
-1.86352e-07
-3.67602e-08
-1.67584e-07
-3.81043e-08
-1.48235e-07
-3.92776e-08
-1.28386e-07
-4.02784e-08
-1.08117e-07
-4.11062e-08
-8.75079e-08
-4.17616e-08
-6.66328e-08
-4.22464e-08
-4.55619e-08
-4.25643e-08
-2.43597e-08
-4.2723e-08
-3.10685e-09
-4.27392e-08
1.80823e-08
-4.26269e-08
3.91312e-08
-4.23852e-08
6.00009e-08
-4.2014e-08
8.06414e-08
-4.15222e-08
1.01002e-07
-4.09192e-08
1.21035e-07
-4.02138e-08
1.40694e-07
-3.94146e-08
1.59937e-07
-3.85297e-08
1.78727e-07
-3.75672e-08
1.97028e-07
-3.6535e-08
2.14809e-07
-3.54409e-08
2.32044e-07
-3.42926e-08
2.48709e-07
-3.30975e-08
2.64782e-07
-3.18631e-08
2.80248e-07
-3.05968e-08
2.95093e-07
-2.93056e-08
3.09306e-07
-2.79967e-08
3.22881e-07
-2.66769e-08
3.35813e-07
-2.53529e-08
3.48102e-07
-2.40312e-08
3.59749e-07
-2.2718e-08
3.7076e-07
-2.14192e-08
3.81143e-07
-2.01404e-08
3.90907e-07
-1.88868e-08
4.00065e-07
-1.7663e-08
4.08632e-07
-1.64733e-08
4.16623e-07
-1.53214e-08
4.24059e-07
-1.42107e-08
4.30958e-07
-1.31437e-08
4.37341e-07
-1.21226e-08
4.43231e-07
-1.1149e-08
4.4865e-07
-1.0224e-08
4.53621e-07
-9.34808e-09
4.58168e-07
-8.52141e-09
4.62315e-07
-7.74366e-09
4.66085e-07
-7.01414e-09
4.69501e-07
-6.33185e-09
4.72585e-07
-5.69546e-09
4.75361e-07
-5.10346e-09
4.77848e-07
-4.55412e-09
4.80068e-07
-4.04559e-09
4.8204e-07
-3.57588e-09
4.83783e-07
-3.14292e-09
4.85315e-07
-2.74461e-09
4.86652e-07
-2.37882e-09
4.87809e-07
-2.04345e-09
4.88803e-07
-1.7364e-09
4.89645e-07
-1.45569e-09
4.9035e-07
-1.19934e-09
4.90929e-07
-9.6547e-10
4.91392e-07
-7.5215e-10
4.91751e-07
-5.57539e-10
4.92016e-07
-3.79767e-10
4.92202e-07
-2.1669e-10
4.92322e-07
-6.5506e-11
4.92377e-07
7.44272e-11
4.92366e-07
2.01326e-10
4.92294e-07
3.14793e-10
4.92165e-07
4.15752e-10
4.91983e-07
5.05452e-10
4.91753e-07
5.85143e-10
4.91481e-07
6.56043e-10
4.91169e-07
7.19217e-10
4.90823e-07
7.75624e-10
4.90446e-07
8.26056e-10
4.90041e-07
8.71197e-10
4.89611e-07
9.11652e-10
4.89158e-07
9.47943e-10
4.88684e-07
9.80526e-10
4.88193e-07
1.00981e-09
4.87684e-07
1.03617e-09
4.87161e-07
1.05993e-09
4.86625e-07
1.0814e-09
4.86076e-07
1.10085e-09
4.85516e-07
1.11851e-09
4.84946e-07
1.13462e-09
4.84367e-07
1.14938e-09
4.83779e-07
1.16297e-09
4.83184e-07
1.17556e-09
4.82581e-07
1.1873e-09
4.81972e-07
1.19832e-09
4.81357e-07
1.20874e-09
4.80735e-07
1.21867e-09
4.80108e-07
1.2282e-09
4.79476e-07
1.23742e-09
4.78838e-07
1.24639e-09
4.78195e-07
1.25518e-09
4.77548e-07
1.26386e-09
4.76895e-07
1.27248e-09
4.76238e-07
1.28108e-09
4.75577e-07
1.28972e-09
4.7491e-07
1.29842e-09
4.74239e-07
1.30726e-09
4.73563e-07
1.31627e-09
4.72882e-07
1.32549e-09
4.72196e-07
1.33498e-09
4.71505e-07
1.34481e-09
4.70809e-07
1.35501e-09
4.70107e-07
1.36566e-09
4.694e-07
1.37684e-09
4.68687e-07
1.38862e-09
4.67968e-07
1.40112e-09
4.67242e-07
1.41444e-09
4.66509e-07
1.42875e-09
4.65768e-07
1.44423e-09
4.6502e-07
1.46114e-09
4.64262e-07
1.4798e-09
4.63494e-07
1.50062e-09
4.62715e-07
1.52416e-09
4.61924e-07
1.55113e-09
4.61118e-07
1.58252e-09
4.60295e-07
1.61958e-09
4.59452e-07
1.66405e-09
4.58585e-07
1.71824e-09
4.57688e-07
1.78533e-09
4.56753e-07
1.86972e-09
4.55772e-07
1.97758e-09
4.5473e-07
2.11784e-09
4.5361e-07
2.30358e-09
4.52384e-07
2.55471e-09
4.51016e-07
2.90302e-09
4.4945e-07
3.40088e-09
4.47603e-07
4.14399e-09
4.45346e-07
5.30444e-09
4.42471e-07
7.29087e-09
4.38666e-07
1.07847e-08
4.33429e-07
1.8447e-08
3.28423e-08
4.24365e-07
-1.97684e-08
1.98783e-08
-3.78766e-08
3.2574e-08
-5.50202e-08
4.1155e-08
-7.18612e-08
4.76752e-08
-8.88499e-08
5.24942e-08
-1.06118e-07
5.58441e-08
-1.23589e-07
5.79547e-08
-1.41091e-07
5.90329e-08
-1.58428e-07
5.92527e-08
-1.75418e-07
5.87543e-08
-1.91902e-07
5.76484e-08
-2.07752e-07
5.60227e-08
-2.22865e-07
5.39494e-08
-2.37163e-07
5.14893e-08
-2.50582e-07
4.86955e-08
-2.63073e-07
4.56149e-08
-2.74597e-07
4.22897e-08
-2.8512e-07
3.87575e-08
-2.94612e-07
3.50518e-08
-3.03047e-07
3.12026e-08
-3.10401e-07
2.72365e-08
-3.16651e-07
2.31774e-08
-3.21775e-07
1.90469e-08
-3.2575e-07
1.48648e-08
-3.28553e-07
1.06493e-08
-3.30153e-07
6.41716e-09
-3.30518e-07
2.18227e-09
-3.2961e-07
-2.04653e-09
-3.27409e-07
-6.26141e-09
-3.23906e-07
-1.04497e-08
-3.19101e-07
-1.45953e-08
-3.13001e-07
-1.86804e-08
-3.05625e-07
-2.26862e-08
-2.96999e-07
-2.65935e-08
-2.87158e-07
-3.03828e-08
-2.76142e-07
-3.40345e-08
-2.64002e-07
-3.75298e-08
-2.50792e-07
-4.08505e-08
-2.36574e-07
-4.39799e-08
-2.21414e-07
-4.69027e-08
-2.05382e-07
-4.96058e-08
-1.88552e-07
-5.2078e-08
-1.71002e-07
-5.43107e-08
-1.52809e-07
-5.62974e-08
-1.34052e-07
-5.80342e-08
-1.14811e-07
-5.95195e-08
-9.51632e-08
-6.0754e-08
-7.51845e-08
-6.17404e-08
-5.49475e-08
-6.24834e-08
-3.45216e-08
-6.29902e-08
-1.39743e-08
-6.32703e-08
6.61962e-09
-6.33331e-08
2.71825e-08
-6.31898e-08
4.76494e-08
-6.28522e-08
6.79658e-08
-6.23304e-08
8.80793e-08
-6.16357e-08
1.0794e-07
-6.07802e-08
1.27502e-07
-5.97757e-08
1.46722e-07
-5.86342e-08
1.65559e-07
-5.73672e-08
1.83979e-07
-5.59864e-08
2.01947e-07
-5.45029e-08
2.19434e-07
-5.29279e-08
2.36413e-07
-5.12722e-08
2.52862e-07
-4.95466e-08
2.68761e-07
-4.77616e-08
2.84091e-07
-4.59274e-08
2.9884e-07
-4.40543e-08
3.12996e-07
-4.21523e-08
3.2655e-07
-4.0231e-08
3.39497e-07
-3.82999e-08
3.51834e-07
-3.63683e-08
3.63561e-07
-3.44451e-08
3.74681e-07
-3.25387e-08
3.85197e-07
-3.06573e-08
3.95119e-07
-2.88083e-08
4.04455e-07
-2.69988e-08
4.13216e-07
-2.5235e-08
4.21418e-07
-2.35229e-08
4.29074e-07
-2.18672e-08
4.36203e-07
-2.02723e-08
4.42822e-07
-1.87416e-08
4.48951e-07
-1.7278e-08
4.5461e-07
-1.58833e-08
4.59821e-07
-1.45589e-08
4.64605e-07
-1.33055e-08
4.68984e-07
-1.21228e-08
4.72981e-07
-1.10105e-08
4.76616e-07
-9.96731e-09
4.79912e-07
-8.99174e-09
4.82891e-07
-8.08183e-09
4.85572e-07
-7.23535e-09
4.87976e-07
-6.44977e-09
4.90123e-07
-5.72237e-09
4.9203e-07
-5.05028e-09
4.93716e-07
-4.43051e-09
4.95197e-07
-3.86004e-09
4.96489e-07
-3.33585e-09
4.97608e-07
-2.85495e-09
4.98567e-07
-2.4144e-09
4.99379e-07
-2.01134e-09
5.00056e-07
-1.64301e-09
5.00611e-07
-1.30674e-09
5.01053e-07
-9.99961e-10
5.01394e-07
-7.20293e-10
5.01643e-07
-4.65447e-10
5.0181e-07
-2.32589e-10
5.01903e-07
-1.9257e-11
5.01929e-07
1.75442e-10
5.01892e-07
3.52071e-10
5.01796e-07
5.11638e-10
5.01646e-07
6.55377e-10
5.01447e-07
7.84617e-10
5.01202e-07
9.0073e-10
5.00916e-07
1.00502e-09
5.00593e-07
1.09871e-09
5.00236e-07
1.18288e-09
4.99849e-07
1.25856e-09
4.99434e-07
1.32662e-09
4.98994e-07
1.38786e-09
4.98532e-07
1.443e-09
4.98049e-07
1.4927e-09
4.97547e-07
1.53753e-09
4.97029e-07
1.57803e-09
4.96496e-07
1.61467e-09
4.95949e-07
1.64789e-09
4.95389e-07
1.6781e-09
4.94818e-07
1.70565e-09
4.94237e-07
1.73088e-09
4.93646e-07
1.75408e-09
4.93046e-07
1.77552e-09
4.92438e-07
1.79545e-09
4.91822e-07
1.81409e-09
4.91199e-07
1.83164e-09
4.90569e-07
1.84826e-09
4.89933e-07
1.86413e-09
4.89291e-07
1.87938e-09
4.88644e-07
1.89414e-09
4.8799e-07
1.90851e-09
4.87332e-07
1.9226e-09
4.86668e-07
1.9365e-09
4.85998e-07
1.9503e-09
4.85324e-07
1.96406e-09
4.84645e-07
1.97786e-09
4.8396e-07
1.99178e-09
4.8327e-07
2.00589e-09
4.82576e-07
2.02026e-09
4.81876e-07
2.03498e-09
4.8117e-07
2.05013e-09
4.8046e-07
2.06581e-09
4.79743e-07
2.0821e-09
4.79021e-07
2.09911e-09
4.78292e-07
2.11699e-09
4.77558e-07
2.13588e-09
4.76816e-07
2.15596e-09
4.76067e-07
2.17744e-09
4.75311e-07
2.20063e-09
4.74546e-07
2.22587e-09
4.73773e-07
2.25363e-09
4.72989e-07
2.28451e-09
4.72193e-07
2.31931e-09
4.71386e-07
2.35907e-09
4.70563e-07
2.40516e-09
4.69723e-07
2.45941e-09
4.68863e-07
2.52428e-09
4.67978e-07
2.60307e-09
4.67063e-07
2.70029e-09
4.66111e-07
2.82216e-09
4.65111e-07
2.97737e-09
4.6405e-07
3.17837e-09
4.62911e-07
3.44327e-09
4.61666e-07
3.79931e-09
4.6028e-07
4.289e-09
4.587e-07
4.98102e-09
4.56849e-07
5.99498e-09
4.54614e-07
7.53947e-09
4.5185e-07
1.00551e-08
4.48356e-07
1.42787e-08
4.44402e-07
2.24003e-08
3.67369e-08
4.40508e-07
-2.16033e-08
4.14816e-08
-4.12507e-08
5.22214e-08
-5.93659e-08
5.92702e-08
-7.6418e-08
6.47273e-08
-9.28105e-08
6.88867e-08
-1.08803e-07
7.18369e-08
-1.24519e-07
7.36705e-08
-1.39982e-07
7.4496e-08
-1.55158e-07
7.44286e-08
-1.69984e-07
7.35798e-08
-1.84386e-07
7.20508e-08
-1.98294e-07
6.99306e-08
-2.11641e-07
6.72965e-08
-2.24367e-07
6.42153e-08
-2.36417e-07
6.07452e-08
-2.47739e-07
5.6937e-08
-2.58284e-07
5.28353e-08
-2.68006e-07
4.84791e-08
-2.76857e-07
4.3903e-08
-2.84792e-07
3.91372e-08
-2.91764e-07
3.4209e-08
-2.97729e-07
2.91426e-08
-3.02643e-07
2.39605e-08
-3.06462e-07
1.86833e-08
-3.09143e-07
1.33308e-08
-3.10648e-07
7.92171e-09
-3.10939e-07
2.47386e-09
-3.09991e-07
-2.99536e-09
-3.07784e-07
-8.46768e-09
-3.04312e-07
-1.39218e-08
-2.99574e-07
-1.93336e-08
-2.93577e-07
-2.46772e-08
-2.86338e-07
-2.99256e-08
-2.7788e-07
-3.5051e-08
-2.68237e-07
-4.00257e-08
-2.57449e-07
-4.48222e-08
-2.45565e-07
-4.94142e-08
-2.32639e-07
-5.37767e-08
-2.18732e-07
-5.78868e-08
-2.0391e-07
-6.17242e-08
-1.88245e-07
-6.52712e-08
-1.7181e-07
-6.85135e-08
-1.5468e-07
-7.14399e-08
-1.36935e-07
-7.40426e-08
-1.18652e-07
-7.63174e-08
-9.99082e-08
-7.82631e-08
-8.07808e-08
-7.98815e-08
-6.13438e-08
-8.11773e-08
-4.16691e-08
-8.2158e-08
-2.18259e-08
-8.28335e-08
-1.88178e-09
-8.32144e-08
1.80974e-08
-8.33124e-08
3.80494e-08
-8.31417e-08
5.79147e-08
-8.27175e-08
7.76388e-08
-8.20545e-08
9.71711e-08
-8.1168e-08
1.16465e-07
-8.00737e-08
1.35476e-07
-7.87868e-08
1.54164e-07
-7.73227e-08
1.72493e-07
-7.56963e-08
1.90429e-07
-7.39223e-08
2.07942e-07
-7.20151e-08
2.25002e-07
-6.99888e-08
2.41587e-07
-6.78571e-08
2.57674e-07
-6.56335e-08
2.73244e-07
-6.33312e-08
2.8828e-07
-6.09634e-08
3.02768e-07
-5.85426e-08
3.16697e-07
-5.60815e-08
3.30059e-07
-5.35924e-08
3.42846e-07
-5.10871e-08
3.55055e-07
-4.85773e-08
3.66684e-07
-4.60744e-08
3.77735e-07
-4.35892e-08
3.88209e-07
-4.1132e-08
3.98114e-07
-3.87127e-08
4.07455e-07
-3.63403e-08
4.16243e-07
-3.40232e-08
4.2449e-07
-3.1769e-08
4.32207e-07
-2.95845e-08
4.3941e-07
-2.74755e-08
4.46116e-07
-2.5447e-08
4.5234e-07
-2.35028e-08
4.58103e-07
-2.16461e-08
4.63423e-07
-1.9879e-08
4.6832e-07
-1.82027e-08
4.72815e-07
-1.66176e-08
4.76928e-07
-1.51235e-08
4.8068e-07
-1.37192e-08
4.84092e-07
-1.24032e-08
4.87183e-07
-1.11732e-08
4.89974e-07
-1.00266e-08
4.92485e-07
-8.96039e-09
4.94734e-07
-7.97122e-09
4.96739e-07
-7.05552e-09
4.98518e-07
-6.20957e-09
5.00087e-07
-5.42951e-09
5.01463e-07
-4.71151e-09
5.0266e-07
-4.05173e-09
5.03692e-07
-3.44634e-09
5.04572e-07
-2.89167e-09
5.05313e-07
-2.38411e-09
5.05927e-07
-1.9202e-09
5.06423e-07
-1.49666e-09
5.06813e-07
-1.11037e-09
5.07106e-07
-7.58399e-10
5.07311e-07
-4.37588e-10
5.07437e-07
-1.44897e-10
5.0749e-07
1.2197e-10
5.07478e-07
3.64725e-10
5.07404e-07
5.85012e-10
5.07275e-07
7.84512e-10
5.07095e-07
9.64875e-10
5.06868e-07
1.12773e-09
5.06598e-07
1.27468e-09
5.0629e-07
1.40721e-09
5.05946e-07
1.52671e-09
5.0557e-07
1.63446e-09
5.05165e-07
1.73163e-09
5.04734e-07
1.81927e-09
5.04278e-07
1.89837e-09
5.03801e-07
1.9698e-09
5.03304e-07
2.03435e-09
5.0279e-07