/*--------------------------------*- C++ -*----------------------------------*\
  =========                 |
  \\      /  F ield         | OpenFOAM: The Open Source CFD Toolbox
   \\    /   O peration     | Website:  https://openfoam.org
    \\  /    A nd           | Version:  6
     \\/     M anipulation  |
\*---------------------------------------------------------------------------*/
FoamFile
{
    version     2.0;
    format      ascii;
    class       volVectorField;
    location    "0.07";
    object      U;
}
// * * * * * * * * * * * * * * * * * * * * * * * * * * * * * * * * * * * * * //

dimensions      [0 1 -1 0 0 0 0];

internalField   nonuniform List<vector> 
12225
(
(0.948755 -0.405567 0)
(1.01276 -0.190684 0)
(1.01498 -0.0514329 0)
(0.983923 -0.00520544 0)
(0.956306 0.00443588 0)
(0.938448 0.00412005 0)
(0.926919 0.00244603 0)
(0.919094 0.00130968 0)
(0.91363 0.000720953 0)
(0.909696 0.000414438 0)
(0.906807 0.000224018 0)
(0.904739 7.7135e-05 0)
(0.903395 -6.24388e-05 0)
(0.902794 -0.000198841 0)
(0.902755 -0.000361831 0)
(0.903886 -0.000524476 0)
(0.905262 -0.00127431 0)
(0.915865 -0.00235156 0)
(1.03698 0.0761143 0)
(1.02004 0.053284 0)
(1.01152 0.0193241 0)
(1.00471 0.00889351 0)
(0.998692 0.00654691 0)
(0.99239 0.00505026 0)
(0.985796 0.00372997 0)
(0.979949 0.0027962 0)
(0.975359 0.00216581 0)
(0.971889 0.00169363 0)
(0.969285 0.00130408 0)
(0.967391 0.000959255 0)
(0.966117 0.000623819 0)
(0.965448 0.000279238 0)
(0.965455 -0.000146405 0)
(0.96646 -0.000716443 0)
(0.968233 -0.00233039 0)
(0.97193 -0.00499272 0)
(0.998331 0.0132022 0)
(0.995414 0.0118951 0)
(1.00102 0.00628668 0)
(1.00236 0.00633026 0)
(1.00203 0.00674678 0)
(1.00057 0.00596585 0)
(0.997824 0.00479838 0)
(0.994682 0.00379503 0)
(0.991884 0.00300774 0)
(0.989628 0.00236315 0)
(0.987904 0.00180914 0)
(0.986688 0.00130576 0)
(0.985961 0.000808131 0)
(0.985731 0.000269098 0)
(0.986029 -0.000406916 0)
(0.987016 -0.00134963 0)
(0.988468 -0.00321025 0)
(0.990341 -0.00630018 0)
(0.995105 -0.00696669 0)
(0.992551 0.00117073 0)
(0.998821 0.00376993 0)
(1.0013 0.00568398 0)
(1.00245 0.00666359 0)
(1.0029 0.00629019 0)
(1.00215 0.00536143 0)
(1.00074 0.00442703 0)
(0.999267 0.00359972 0)
(0.997989 0.00286156 0)
(0.997 0.0021879 0)
(0.996349 0.00154765 0)
(0.996064 0.000896197 0)
(0.99617 0.000177656 0)
(0.996682 -0.00070993 0)
(0.997659 -0.00190482 0)
(0.998883 -0.00385131 0)
(1.00005 -0.00666194 0)
(0.996672 -0.00696397 0)
(0.993894 0.000715396 0)
(0.998293 0.00352872 0)
(1.00057 0.0051973 0)
(1.00221 0.00626426 0)
(1.00352 0.00619186 0)
(1.0039 0.00552025 0)
(1.00362 0.00471829 0)
(1.00312 0.00391981 0)
(1.00262 0.00314472 0)
(1.00225 0.00239245 0)
(1.00208 0.00164404 0)
(1.00218 0.000860617 0)
(1.00256 -1.33801e-05 0)
(1.00325 -0.00107195 0)
(1.00423 -0.00243422 0)
(1.00533 -0.00437227 0)
(1.0062 -0.00689078 0)
(0.997831 -0.00418264 0)
(0.995236 0.00113207 0)
(0.998123 0.00319733 0)
(1.00009 0.00460856 0)
(1.00187 0.00568563 0)
(1.00355 0.00582165 0)
(1.00457 0.00537088 0)
(1.00502 0.00471129 0)
(1.00521 0.00397408 0)
(1.00531 0.00319926 0)
(1.00544 0.00240211 0)
(1.00569 0.00157436 0)
(1.00611 0.000685113 0)
(1.00673 -0.000314674 0)
(1.00756 -0.00150278 0)
(1.00857 -0.00296921 0)
(1.00961 -0.00486371 0)
(1.0104 -0.00714382 0)
(0.998456 -0.00261651 0)
(0.996297 0.000995678 0)
(0.998211 0.00269931 0)
(0.999881 0.00399453 0)
(1.00161 0.00503388 0)
(1.00339 0.00529432 0)
(1.00473 0.0050101 0)
(1.00565 0.00447444 0)
(1.00631 0.00380467 0)
(1.00686 0.0030481 0)
(1.00739 0.00222796 0)
(1.00797 0.00134356 0)
(1.00866 0.000372201 0)
(1.00947 -0.000725569 0)
(1.01043 -0.0020084 0)
(1.01148 -0.00353687 0)
(1.01252 -0.00538132 0)
(1.01333 -0.00748293 0)
(0.99889 -0.00178867 0)
(0.997209 0.000765726 0)
(0.998488 0.00225178 0)
(0.999877 0.00341975 0)
(1.00147 0.00436558 0)
(1.0032 0.00467971 0)
(1.00468 0.00450701 0)
(1.00586 0.00406582 0)
(1.00684 0.0034549 0)
(1.00771 0.0027209 0)
(1.00853 0.00188933 0)
(1.00937 0.000964165 0)
(1.01026 -6.99431e-05 0)
(1.01124 -0.0012421 0)
(1.01229 -0.00259266 0)
(1.01338 -0.00415733 0)
(1.01444 -0.00595935 0)
(1.01534 -0.00794201 0)
(0.99924 -0.00118942 0)
(0.997995 0.000639259 0)
(0.998856 0.00189539 0)
(1 0.00289585 0)
(1.00142 0.00370895 0)
(1.00304 0.00402119 0)
(1.00454 0.00390987 0)
(1.00586 0.00353058 0)
(1.00703 0.00296234 0)
(1.0081 0.00224662 0)
(1.00913 0.00140763 0)
(1.01015 0.000451729 0)
(1.0112 -0.000630369 0)
(1.01228 -0.00185825 0)
(1.01341 -0.00325689 0)
(1.01454 -0.0048436 0)
(1.01563 -0.00661716 0)
(1.01661 -0.00853249 0)
(0.999509 -0.000718907 0)
(0.998643 0.000582646 0)
(0.99924 0.00160037 0)
(1.0002 0.00241751 0)
(1.00144 0.0030783 0)
(1.00292 0.00334711 0)
(1.00438 0.00325428 0)
(1.00574 0.00290537 0)
(1.00701 0.00236057 0)
(1.0082 0.00165399 0)
(1.00936 0.000806578 0)
(1.0105 -0.000174548 0)
(1.01164 -0.00129412 0)
(1.0128 -0.00256387 0)
(1.01397 -0.00399726 0)
(1.01513 -0.00559962 0)
(1.01625 -0.0073597 0)
(1.0173 -0.00924693 0)
(0.9997 -0.000382834 0)
(0.999148 0.000540801 0)
(0.999598 0.00133713 0)
(1.00041 0.00197441 0)
(1.00151 0.00247702 0)
(1.00284 0.0026731 0)
(1.00422 0.00256406 0)
(1.00557 0.00221742 0)
(1.00686 0.00167661 0)
(1.00811 0.000967843 0)
(1.00933 0.000107919 0)
(1.01053 -0.00089635 0)
(1.01173 -0.00204655 0)
(1.01292 -0.00334862 0)
(1.0141 -0.00480828 0)
(1.01527 -0.00642422 0)
(1.0164 -0.00818331 0)
(1.01748 -0.0100682 0)
(0.999817 -0.000181229 0)
(0.999493 0.000493644 0)
(0.999876 0.00110854 0)
(1.0006 0.00159128 0)
(1.00159 0.00195208 0)
(1.0028 0.00206505 0)
(1.00409 0.00191787 0)
(1.00538 0.00155264 0)
(1.00665 0.000999814 0)
(1.00791 0.000278808 0)
(1.00914 -0.000597412 0)
(1.01035 -0.00162292 0)
(1.01155 -0.00279754 0)
(1.01274 -0.00412372 0)
(1.01391 -0.00560291 0)
(1.01506 -0.00723118 0)
(1.01617 -0.00899696 0)
(1.01725 -0.0108921 0)
(0.999897 -5.86555e-05 0)
(0.999747 0.000431081 0)
(1.0001 0.000883527 0)
(1.00076 0.00122312 0)
(1.00166 0.00144944 0)
(1.00275 0.00147217 0)
(1.00395 0.00127305 0)
(1.00517 0.000875832 0)
(1.0064 0.000300259 0)
(1.00763 -0.000440219 0)
(1.00884 -0.0013362 0)
(1.01003 -0.0023829 0)
(1.01121 -0.00357921 0)
(1.01237 -0.00492537 0)
(1.01351 -0.00642043 0)
(1.01462 -0.00805964 0)
(1.01569 -0.00983432 0)
(1.01674 -0.0117447 0)
(0.999954 9.73854e-06 0)
(0.999943 0.000334445 0)
(1.00029 0.000625609 0)
(1.0009 0.000816267 0)
(1.00171 0.000899407 0)
(1.00269 0.000815664 0)
(1.00378 0.000545296 0)
(1.00492 9.83671e-05 0)
(1.00607 -0.000514279 0)
(1.00723 -0.00128476 0)
(1.00838 -0.00220727 0)
(1.00952 -0.0032785 0)
(1.01064 -0.00449709 0)
(1.01174 -0.00586215 0)
(1.01281 -0.00737169 0)
(1.01385 -0.00902135 0)
(1.01485 -0.0108058 0)
(1.01582 -0.0127316 0)
(0.999989 2.37243e-05 0)
(1.00007 0.000191745 0)
(1.00042 0.000321795 0)
(1.00098 0.000360795 0)
(1.00172 0.000297249 0)
(1.0026 9.54806e-05 0)
(1.00357 -0.000262213 0)
(1.00459 -0.000774661 0)
(1.00565 -0.00143766 0)
(1.00671 -0.00224788 0)
(1.00776 -0.0032027 0)
(1.00881 -0.00430046 0)
(1.00983 -0.00554013 0)
(1.01082 -0.0069206 0)
(1.01178 -0.00843984 0)
(1.01271 -0.0100945 0)
(1.01359 -0.0118819 0)
(1.01444 -0.0138124 0)
(1.00001 -8.74965e-06 0)
(1.00014 5.84646e-07 0)
(1.00048 -3.37085e-05 0)
(1.001 -0.000148564 0)
(1.00166 -0.000357918 0)
(1.00243 -0.000682841 0)
(1.00329 -0.00113734 0)
(1.00419 -0.00172501 0)
(1.00511 -0.00244615 0)
(1.00604 -0.00330074 0)
(1.00696 -0.00428869 0)
(1.00787 -0.00540983 0)
(1.00875 -0.00666385 0)
(1.00959 -0.00804994 0)
(1.0104 -0.00956655 0)
(1.01115 -0.0112113 0)
(1.01186 -0.012983 0)
(1.01253 -0.0148929 0)
(1.00001 -7.45463e-05 0)
(1.00016 -0.000233247 0)
(1.00047 -0.000436998 0)
(1.00094 -0.000708444 0)
(1.00152 -0.00106075 0)
(1.00218 -0.00150755 0)
(1.00291 -0.0020596 0)
(1.00367 -0.0027226 0)
(1.00444 -0.00349972 0)
(1.00522 -0.00439328 0)
(1.00597 -0.00540502 0)
(1.0067 -0.00653606 0)
(1.00739 -0.00778683 0)
(1.00804 -0.009157 0)
(1.00863 -0.0106454 0)
(1.00918 -0.0122501 0)
(1.00966 -0.0139704 0)
(1.01008 -0.015816 0)
(1.00001 -0.00015807 0)
(1.00015 -0.000493428 0)
(1.00042 -0.000870441 0)
(1.00081 -0.00129982 0)
(1.00129 -0.00179036 0)
(1.00184 -0.00235156 0)
(1.00243 -0.00299194 0)
(1.00304 -0.00371804 0)
(1.00365 -0.00453498 0)
(1.00424 -0.00544698 0)
(1.00479 -0.0064573 0)
(1.00531 -0.00756821 0)
(1.00578 -0.00878088 0)
(1.00619 -0.0100955 0)
(1.00654 -0.011511 0)
(1.00682 -0.0130257 0)
(1.00704 -0.0146383 0)
(1.00718 -0.0163565 0)
(1.00001 -0.000242517 0)
(1.00011 -0.000752803 0)
(1.00031 -0.00130213 0)
(1.00061 -0.00188555 0)
(1.00099 -0.00250395 0)
(1.00142 -0.00316319 0)
(1.00187 -0.00386963 0)
(1.00233 -0.00463 0)
(1.00276 -0.00545132 0)
(1.00316 -0.00633994 0)
(1.00351 -0.00730092 0)
(1.0038 -0.00833792 0)
(1.00403 -0.00945317 0)
(1.00418 -0.0106475 0)
(1.00426 -0.0119206 0)
(1.00427 -0.0132706 0)
(1.00419 -0.0146964 0)
(1.00402 -0.0162031 0)
(1 -0.000284449 0)
(1.00002 -0.000915009 0)
(1.00014 -0.00160207 0)
(1.00036 -0.00230802 0)
(1.00066 -0.00302401 0)
(1.00101 -0.00375119 0)
(1.00138 -0.00449042 0)
(1.00174 -0.00524745 0)
(1.00207 -0.00603187 0)
(1.00234 -0.00685305 0)
(1.00255 -0.00771868 0)
(1.00268 -0.00863468 0)
(1.00274 -0.00960521 0)
(1.0027 -0.0106327 0)
(1.00258 -0.011718 0)
(1.00236 -0.0128605 0)
(1.00206 -0.0140591 0)
(1.00166 -0.015318 0)
(0.999975 -0.000247792 0)
(0.999855 -0.000943331 0)
(0.999861 -0.00175526 0)
(1.00003 -0.00257064 0)
(1.0003 -0.00337589 0)
(1.00063 -0.00416424 0)
(1.001 -0.00492506 0)
(1.00134 -0.00566415 0)
(1.00164 -0.00639662 0)
(1.00186 -0.00713675 0)
(1.002 -0.0078961 0)
(1.00203 -0.00868395 0)
(1.00197 -0.00950732 0)
(1.00181 -0.0103708 0)
(1.00154 -0.011277 0)
(1.00116 -0.0122265 0)
(1.0007 -0.0132191 0)
(1.00013 -0.0142584 0)
(0.999905 -8.21894e-05 0)
(0.999505 -0.000831073 0)
(0.999379 -0.00181123 0)
(0.999532 -0.00276375 0)
(0.999838 -0.00368751 0)
(1.00024 -0.00455391 0)
(1.00068 -0.00533271 0)
(1.00108 -0.00603755 0)
(1.0014 -0.00669674 0)
(1.0016 -0.00733316 0)
(1.00169 -0.0079646 0)
(1.00165 -0.00860562 0)
(1.00148 -0.00926716 0)
(1.00119 -0.00995655 0)
(1.00078 -0.0106782 0)
(1.00026 -0.0114342 0)
(0.999628 -0.0122251 0)
(0.998897 -0.0130539 0)
(0.999756 0.00026692 0)
(0.998862 -0.000606661 0)
(0.998628 -0.00182884 0)
(0.998873 -0.00295609 0)
(0.999319 -0.00404458 0)
(0.999899 -0.00500568 0)
(1.0005 -0.00578415 0)
(1.001 -0.00642201 0)
(1.00135 -0.00697318 0)
(1.00153 -0.00747355 0)
(1.00154 -0.00794976 0)
(1.00139 -0.00842316 0)
(1.00108 -0.00890906 0)
(1.00063 -0.00941723 0)
(1.00005 -0.00995341 0)
(0.999349 -0.0105204 0)
(0.998538 -0.0111191 0)
(0.997624 -0.0117516 0)
(0.999505 0.000917654 0)
(0.997826 -0.000362629 0)
(0.99762 -0.00193383 0)
(0.998131 -0.00325037 0)
(0.998852 -0.00453483 0)
(0.999719 -0.00557673 0)
(1.00053 -0.0063018 0)
(1.00112 -0.00681366 0)
(1.00145 -0.00720532 0)
(1.00153 -0.00752846 0)
(1.00139 -0.0078196 0)
(1.00104 -0.00810684 0)
(1.00052 -0.00840857 0)
(0.999841 -0.00873531 0)
(0.999029 -0.00909252 0)
(0.998096 -0.00948247 0)
(0.997059 -0.0099051 0)
(0.995929 -0.0103612 0)
(0.998975 0.00250921 0)
(0.996177 8.20222e-05 0)
(0.996444 -0.00217456 0)
(0.997513 -0.00374119 0)
(0.998637 -0.00522392 0)
(0.999854 -0.00627463 0)
(1.00085 -0.0068478 0)
(1.00141 -0.00714927 0)
(1.00157 -0.00731926 0)
(1.00139 -0.00742388 0)
(1.00094 -0.00750721 0)
(1.00027 -0.00760077 0)
(0.999417 -0.00772235 0)
(0.998415 -0.00787987 0)
(0.997293 -0.00807601 0)
(0.996068 -0.00831065 0)
(0.994756 -0.00858166 0)
(0.993372 -0.00888773 0)
(0.997452 0.00612801 0)
(0.99339 0.00144483 0)
(0.995174 -0.00221414 0)
(0.997304 -0.00436179 0)
(0.998933 -0.00608349 0)
(1.00044 -0.00701936 0)
(1.00142 -0.00730628 0)
(1.00168 -0.00730219 0)
(1.00138 -0.00719391 0)
(1.00069 -0.00705464 0)
(0.999714 -0.00692841 0)
(0.998537 -0.00684253 0)
(0.997212 -0.00680778 0)
(0.99578 -0.00682508 0)
(0.994268 -0.00689153 0)
(0.99269 -0.00700305 0)
(0.99106 -0.00715466 0)
(0.98939 -0.00734256 0)
(0.994436 0.0085792 0)
(0.989404 0.00225583 0)
(0.993987 -0.00204308 0)
(0.997752 -0.0049597 0)
(0.999949 -0.00695154 0)
(1.00146 -0.00760891 0)
(1.00194 -0.00746676 0)
(1.00137 -0.00708305 0)
(1.00014 -0.00667567 0)
(0.998568 -0.00630708 0)
(0.996797 -0.00600648 0)
(0.994915 -0.00578588 0)
(0.992978 -0.00564197 0)
(0.991018 -0.00556489 0)
(0.989048 -0.00554462 0)
(0.987072 -0.00557282 0)
(0.985093 -0.00564208 0)
(0.983116 -0.00574568 0)
(0.994525 -0.00666481 0)
(0.98945 -0.00857543 0)
(0.995353 -0.00537897 0)
(0.999722 -0.00635454 0)
(1.00187 -0.00780077 0)
(1.00248 -0.00781731 0)
(1.00135 -0.00709733 0)
(0.998992 -0.00631723 0)
(0.996135 -0.00566235 0)
(0.993195 -0.00514181 0)
(0.990311 -0.00474693 0)
(0.987526 -0.00446463 0)
(0.984854 -0.00427477 0)
(0.982287 -0.00415688 0)
(0.97981 -0.00409528 0)
(0.977405 -0.00407935 0)
(0.975059 -0.0041016 0)
(0.972765 -0.00414979 0)
(1.02649 -0.070235 0)
(1.01707 -0.0624188 0)
(1.01175 -0.0292715 0)
(1.00824 -0.0149577 0)
(1.00522 -0.0104529 0)
(1.00107 -0.00800594 0)
(0.995469 -0.00617998 0)
(0.989439 -0.00495035 0)
(0.98386 -0.00416715 0)
(0.978958 -0.00364864 0)
(0.974634 -0.00329263 0)
(0.970761 -0.00304997 0)
(0.967241 -0.00288917 0)
(0.963996 -0.00278688 0)
(0.960961 -0.00272775 0)
(0.958088 -0.00270408 0)
(0.955349 -0.00271416 0)
(0.952728 -0.0027793 0)
(0.966188 0.350229 0)
(1.02689 0.194259 0)
(1.03258 0.067893 0)
(1.00428 0.0152212 0)
(0.975791 -0.00133074 0)
(0.955442 -0.00440151 0)
(0.941199 -0.00370676 0)
(0.930766 -0.00258249 0)
(0.922852 -0.00179279 0)
(0.916571 -0.00133192 0)
(0.911299 -0.00107752 0)
(0.906665 -0.000941129 0)
(0.902467 -0.000871659 0)
(0.898586 -0.000840564 0)
(0.894939 -0.000832467 0)
(0.891463 -0.000841613 0)
(0.888098 -0.000863726 0)
(0.884801 -0.000948664 0)
(0.00469994 -0.0179259 -2.29629e-21)
(0.0106293 -0.00382502 2.15345e-21)
(0.00545618 0.00949634 0)
(-0.00582512 0.0166467 0)
(-0.0202982 0.0199157 0)
(-0.0366532 0.0215015 -1.84454e-21)
(-0.0541991 0.0223727 0)
(-0.0725204 0.0228918 0)
(-0.0913328 0.0231918 0)
(-0.110421 0.0233136 0)
(-0.129602 0.0232602 1.60586e-21)
(-0.148701 0.0230227 0)
(-0.167551 0.0225919 0)
(-0.185989 0.0219624 0)
(-0.203854 0.0211345 0)
(-0.220996 0.0201136 1.50004e-21)
(-0.237271 0.0189097 0)
(-0.252549 0.017536 0)
(-0.26671 0.0160083 0)
(-0.279648 0.0143433 0)
(-0.291269 0.012559 0)
(-0.30149 0.0106743 0)
(-0.310242 0.00870974 0)
(-0.317468 0.00668955 1.27658e-21)
(-0.323124 0.00464452 -1.22903e-21)
(-0.327184 0.00261599 1.17555e-21)
(-0.329614 0.000664187 1.11564e-21)
(-0.330359 -0.00114537 0)
(-0.329582 -0.00279179 0)
(-0.327404 -0.00431436 -8.88186e-22)
(-0.323856 -0.00575879 -7.97165e-22)
(-0.318981 -0.00714547 0)
(-0.31282 -0.00848265 0)
(-0.305407 -0.00977269 -4.78225e-22)
(-0.296782 -0.0110149 0)
(-0.286984 -0.0122069 0)
(-0.276061 -0.0133456 9.07045e-23)
(-0.264064 -0.0144276 0)
(-0.251048 -0.0154494 -2.04507e-22)
(-0.237075 -0.0164079 -7.2533e-22)
(-0.222209 -0.0173 0)
(-0.206521 -0.0181228 0)
(-0.190082 -0.0188738 0)
(-0.17297 -0.0195501 0)
(-0.155262 -0.0201485 0)
(-0.13704 -0.0206652 -2.88766e-21)
(-0.118384 -0.0210941 -3.28672e-21)
(-0.0993787 -0.0214259 -3.6952e-21)
(-0.0801108 -0.0216473 0)
(-0.0606671 -0.02174 4.53789e-21)
(-0.0411333 -0.0216804 0)
(-0.0215798 -0.0214442 -5.38712e-21)
(-0.00204284 -0.0210328 -5.62822e-21)
(0.0174537 -0.0205062 0)
(0.03685 -0.0199259 0)
(0.0560664 -0.0193114 0)
(0.0750413 -0.0186717 -5.80714e-21)
(0.0937217 -0.018013 0)
(0.11206 -0.01734 0)
(0.130015 -0.0166563 0)
(0.147547 -0.0159654 0)
(0.164621 -0.0152704 0)
(0.181206 -0.014574 0)
(0.197276 -0.0138791 0)
(0.212806 -0.0131882 0)
(0.227775 -0.0125039 5.54459e-21)
(0.242169 -0.0118285 0)
(0.255972 -0.0111643 0)
(0.269176 -0.0105133 -5.37066e-21)
(0.281775 -0.00987761 -5.30987e-21)
(0.293764 -0.00925892 0)
(0.305145 -0.00865891 5.18698e-21)
(0.315921 -0.00807907 -5.12564e-21)
(0.326098 -0.00752069 0)
(0.335684 -0.00698486 5.00462e-21)
(0.344692 -0.00647247 0)
(0.353136 -0.00598421 0)
(0.36103 -0.00552056 -4.83044e-21)
(0.368393 -0.00508178 0)
(0.375245 -0.00466795 4.72081e-21)
(0.381606 -0.00427893 0)
(0.387497 -0.00391442 -4.61707e-21)
(0.392942 -0.00357396 -4.56748e-21)
(0.397963 -0.00325691 -4.51942e-21)
(0.402584 -0.00296255 -8.94576e-21)
(0.406827 -0.00269002 8.85568e-21)
(0.410715 -0.00243837 0)
(0.414272 -0.00220663 0)
(0.41752 -0.00199372 0)
(0.42048 -0.00179859 8.52411e-21)
(0.423172 -0.00162014 8.44798e-21)
(0.425617 -0.00145731 -8.37438e-21)
(0.427834 -0.00130905 0)
(0.42984 -0.00117432 8.23432e-21)
(0.431653 -0.00105212 8.16767e-21)
(0.433288 -0.000941497 8.10312e-21)
(0.434762 -0.000841513 0)
(0.436087 -0.000751285 0)
(0.437276 -0.000669978 0)
(0.438343 -0.000596805 7.86412e-21)
(0.439298 -0.000531027 0)
(0.440151 -0.000471949 0)
(0.440912 -0.000418814 -7.70247e-21)
(0.441588 -0.000370908 0)
(0.442188 -0.000327224 0)
(0.442718 -0.000283131 -7.55373e-21)
(0.443163 -0.000236271 0)
(0.443537 -0.000192154 0)
(0.443851 -0.000155773 7.4155e-21)
(0.444116 -0.000127511 7.37157e-21)
(0.444341 -0.00010574 0)
(0.44453 -8.88194e-05 -7.28653e-21)
(0.444692 -7.54721e-05 0)
(0.444828 -6.47455e-05 7.20484e-21)
(0.444944 -5.59698e-05 0)
(0.445042 -4.86981e-05 7.12612e-21)
(0.445125 -4.26327e-05 7.08776e-21)
(0.445194 -3.75671e-05 0)
(0.445251 -3.33497e-05 0)
(0.445299 -2.98625e-05 0)
(0.445339 -2.70084e-05 0)
(0.445371 -2.47047e-05 0)
(0.445398 -2.28785e-05 0)
(0.44542 -2.14653e-05 0)
(0.445437 -2.04078e-05 6.80026e-21)
(0.445452 -1.96547e-05 -6.7663e-21)
(0.445465 -1.91602e-05 0)
(0.445475 -1.88837e-05 0)
(0.445484 -1.87894e-05 0)
(0.445493 -1.88458e-05 0)
(0.445501 -1.90255e-05 -1.32031e-20)
(0.445509 -1.93046e-05 0)
(0.445517 -1.96624e-05 1.30753e-20)
(0.445526 -2.00813e-05 -1.30122e-20)
(0.445535 -2.05458e-05 0)
(0.445545 -2.10433e-05 0)
(0.445556 -2.15627e-05 0)
(0.445568 -2.20944e-05 1.27642e-20)
(0.445581 -2.26302e-05 1.27032e-20)
(0.445595 -2.31629e-05 0)
(0.44561 -2.36851e-05 1.25824e-20)
(0.445626 -2.41902e-05 1.25225e-20)
(0.445643 -2.46711e-05 -1.2463e-20)
(0.445662 -2.51211e-05 0)
(0.445682 -2.55334e-05 0)
(0.445702 -2.59005e-05 -1.22862e-20)
(0.445723 -2.62143e-05 0)
(0.445746 -2.64659e-05 0)
(0.445768 -2.66461e-05 0)
(0.445792 -2.67454e-05 0)
(0.445815 -2.67533e-05 1.19974e-20)
(0.445839 -2.66572e-05 1.19404e-20)
(0.445862 -2.64427e-05 0)
(0.445885 -2.60923e-05 1.18274e-20)
(0.445907 -2.55838e-05 0)
(0.445927 -2.48886e-05 0)
(0.445945 -2.39697e-05 1.166e-20)
(0.445961 -2.27792e-05 0)
(0.445973 -2.12545e-05 1.155e-20)
(0.44598 -1.9313e-05 0)
(0.445982 -1.68464e-05 0)
(0.445975 -1.37119e-05 1.1388e-20)
(0.445959 -9.72057e-06 0)
(0.44593 -4.62149e-06 1.12826e-20)
(0.445884 1.92155e-06 0)
(0.445817 1.03623e-05 0)
(0.445721 2.13206e-05 0)
(0.445588 3.56555e-05 -1.1082e-20)
(0.445405 5.45797e-05 0)
(0.445156 7.98432e-05 1.09909e-20)
(0.444816 0.000114051 0)
(0.444353 0.000161207 0)
(0.443715 0.00022784 0)
(0.442822 0.000324905 0)
(0.441552 0.000473678 0)
(0.439653 0.000712069 0)
(0.436796 0.00114732 0)
(0.431631 0.00192478 -2.18885e-20)
(0.424214 0.00393872 0)
(0.401501 0.00688603 0)
(-0.00973441 -0.0115022 6.12596e-21)
(-0.0157058 0.012865 -4.72036e-21)
(-0.0267819 0.0299117 0)
(-0.0407037 0.0416851 2.32152e-21)
(-0.0563332 0.0491804 0)
(-0.073244 0.0537097 1.05155e-21)
(-0.0910822 0.0562927 -1.97927e-21)
(-0.109439 0.0575722 -1.92154e-21)
(-0.12794 0.0579248 0)
(-0.14628 0.0575648 -1.84727e-21)
(-0.164213 0.0566153 -9.32964e-22)
(-0.181541 0.0551533 0)
(-0.198105 0.0532352 0)
(-0.213779 0.0509102 0)
(-0.228462 0.0482253 0)
(-0.242078 0.0452275 -8.94199e-22)
(-0.254571 0.0419635 0)
(-0.265902 0.0384789 1.74334e-21)
(-0.276044 0.0348171 0)
(-0.284987 0.0310185 0)
(-0.292725 0.02712 -1.67436e-21)
(-0.299267 0.0231549 0)
(-0.304624 0.0191529 1.59916e-21)
(-0.308819 0.0151411 -7.6241e-22)
(-0.311877 0.0111459 7.31579e-22)
(-0.313827 0.00719843 -6.97034e-22)
(-0.314703 0.00333904 -6.58681e-22)
(-0.314554 -0.000383855 0)
(-0.313314 -0.00394724 0)
(-0.310881 -0.00736272 5.154e-22)
(-0.307236 -0.0106461 -5.33524e-22)
(-0.302376 -0.0138054 0)
(-0.296308 -0.0168409 0)
(-0.289052 -0.0197477 2.69596e-22)
(-0.280636 -0.0225181 0)
(-0.271095 -0.0251433 0)
(-0.260472 -0.0276139 -4.98314e-23)
(-0.248813 -0.0299207 0)
(-0.236172 -0.0320556 2.35705e-23)
(-0.222606 -0.0340113 3.87259e-22)
(-0.208178 -0.0357821 0)
(-0.192953 -0.0373638 0)
(-0.177 -0.0387538 1.50311e-21)
(-0.160391 -0.0399509 1.8513e-21)
(-0.143197 -0.0409557 2.20391e-21)
(-0.125493 -0.0417699 -1.11226e-21)
(-0.107351 -0.0423963 1.63015e-21)
(-0.088842 -0.0428381 5.0935e-21)
(-0.0700352 -0.0430988 -3.64371e-21)
(-0.0509955 -0.0431815 -2.17956e-21)
(-0.0317836 -0.0430877 0)
(-0.0124653 -0.0428159 2.5251e-21)
(0.006872 -0.0423664 -2.3048e-21)
(0.0261413 -0.0417592 0)
(0.0452883 -0.0410227 0)
(0.0642735 -0.0401774 0)
(0.0830523 -0.0392384 2.9804e-21)
(0.101579 -0.0382178 0)
(0.11981 -0.0371263 -5.92406e-21)
(0.137704 -0.0359735 0)
(0.155226 -0.0347685 -6.13032e-21)
(0.17234 -0.03352 0)
(0.189017 -0.0322362 6.28774e-21)
(0.205228 -0.030925 0)
(0.22095 -0.0295941 -6.40278e-21)
(0.236162 -0.0282507 3.12766e-21)
(0.250845 -0.0269018 0)
(0.264986 -0.0255541 6.50932e-21)
(0.278571 -0.0242138 3.34403e-21)
(0.291592 -0.0228869 3.34611e-21)
(0.304043 -0.021579 0)
(0.31592 -0.0202955 3.21442e-21)
(0.327224 -0.019041 3.33759e-21)
(0.337955 -0.01782 0)
(0.34812 -0.0166363 -3.32224e-21)
(0.357725 -0.0154936 6.53032e-21)
(0.366779 -0.0143945 0)
(0.375294 -0.0133417 3.28906e-21)
(0.383283 -0.0123369 0)
(0.390763 -0.0113816 -9.71887e-21)
(0.397748 -0.0104767 0)
(0.404258 -0.00962251 9.64132e-21)
(0.410311 -0.00881903 3.21721e-21)
(0.415927 -0.00806578 -3.15422e-21)
(0.421127 -0.00736191 -6.28472e-21)
(0.425932 -0.00670625 6.25998e-21)
(0.430363 -0.00609734 0)
(0.43444 -0.00553347 0)
(0.438186 -0.00501275 0)
(0.44162 -0.00453317 -1.85674e-20)
(0.444764 -0.0040926 -6.17406e-21)
(0.447636 -0.00368887 6.14144e-21)
(0.450255 -0.00331976 0)
(0.452641 -0.00298306 6.04139e-21)
(0.45481 -0.00267659 -6.04512e-21)
(0.456779 -0.00239818 -6.01366e-21)
(0.458564 -0.00214572 0)
(0.460179 -0.00191719 0)
(0.461639 -0.00171066 0)
(0.462957 -0.00152429 -5.89164e-21)
(0.464144 -0.00135635 0)
(0.465212 -0.00120516 1.16508e-20)
(0.466171 -0.00106906 1.73996e-20)
(0.467032 -0.000946398 -1.15402e-20)
(0.467804 -0.000835053 0)
(0.468496 -0.000731105 -5.71111e-21)
(0.469129 -0.000633422 0)
(0.469705 -0.000545576 -1.13267e-20)
(0.470224 -0.000469703 5.63348e-21)
(0.470686 -0.000404929 5.60813e-21)
(0.471096 -0.000349543 0)
(0.471458 -0.000302097 1.66855e-20)
(0.471777 -0.000261388 -1.10723e-20)
(0.472057 -0.000226387 -5.51377e-21)
(0.472303 -0.000196247 0)
(0.472518 -0.000170281 -5.4652e-21)
(0.472706 -0.000147933 -1.6321e-20)
(0.47287 -0.000128736 0)
(0.473014 -0.000112298 -1.07864e-20)
(0.473139 -9.82799e-05 -1.07404e-20)
(0.473247 -8.63877e-05 -1.06949e-20)
(0.473342 -7.6363e-05 0)
(0.473425 -6.79766e-05 0)
(0.473496 -6.10247e-05 0)
(0.473559 -5.53253e-05 5.25738e-21)
(0.473614 -5.07154e-05 5.23676e-21)
(0.473662 -4.70494e-05 0)
(0.473705 -4.4197e-05 1.03851e-20)
(0.473743 -4.20423e-05 1.03419e-20)
(0.473777 -4.04821e-05 0)
(0.473808 -3.94248e-05 1.02571e-20)
(0.473837 -3.87897e-05 2.0427e-20)
(0.473863 -3.85057e-05 -1.01719e-20)
(0.473889 -3.85105e-05 -1.01279e-20)
(0.473913 -3.87496e-05 0)
(0.473936 -3.9176e-05 0)
(0.473959 -3.97488e-05 0)
(0.473982 -4.04328e-05 -9.96135e-21)
(0.474005 -4.11971e-05 9.9182e-21)
(0.474029 -4.20151e-05 1.97545e-20)
(0.474053 -4.28625e-05 -9.83633e-21)
(0.474077 -4.37174e-05 9.79351e-21)
(0.474102 -4.4559e-05 9.75339e-21)
(0.474127 -4.53677e-05 0)
(0.474154 -4.61244e-05 0)
(0.474181 -4.68094e-05 -9.62819e-21)
(0.474209 -4.74023e-05 0)
(0.474237 -4.7882e-05 0)
(0.474266 -4.82262e-05 1.90107e-20)
(0.474296 -4.84113e-05 0)
(0.474326 -4.84118e-05 9.42271e-21)
(0.474356 -4.81985e-05 -9.38298e-21)
(0.474386 -4.77377e-05 0)
(0.474416 -4.69896e-05 9.30005e-21)
(0.474446 -4.59051e-05 0)
(0.474475 -4.44221e-05 0)
(0.474502 -4.24618e-05 -9.17919e-21)
(0.474527 -3.99225e-05 1.82763e-20)
(0.47455 -3.66725e-05 -9.09832e-21)
(0.47457 -3.25393e-05 0)
(0.474585 -2.72971e-05 0)
(0.474594 -2.06486e-05 8.97727e-21)
(0.474596 -1.22016e-05 0)
(0.474589 -1.43529e-06 8.89868e-21)
(0.474568 1.23469e-05 0)
(0.474532 3.00839e-05 0)
(0.474474 5.30556e-05 0)
(0.474388 8.3031e-05 8.7486e-21)
(0.474266 0.000122498 0)
(0.474094 0.000175034 -8.67947e-21)
(0.473858 0.000245927 0)
(0.473534 0.000343261 0)
(0.473088 0.000480045 1.7189e-20)
(0.472472 0.000677989 -1.71506e-20)
(0.471618 0.000977806 0)
(0.470398 0.00145347 0)
(0.468701 0.00229137 0)
(0.465982 0.00378814 5.18047e-20)
(0.46283 0.00726279 0)
(0.456017 0.0134 -3.55061e-20)
(-0.0158035 0.0193735 -1.7264e-22)
(-0.0271988 0.0435173 5.14813e-21)
(-0.0410074 0.0601149 0)
(-0.0560062 0.0723432 -3.49314e-21)
(-0.0711977 0.0809392 0)
(-0.086515 0.0865525 0)
(-0.102032 0.0898022 -2.23772e-23)
(-0.117668 0.0912001 1.37831e-21)
(-0.133257 0.0911395 1.36918e-21)
(-0.148626 0.0899116 1.3223e-21)
(-0.163622 0.0877299 0)
(-0.178117 0.0847555 0)
(-0.19201 0.0811166 -1.30703e-21)
(-0.20522 0.0769208 -2.59912e-21)
(-0.217685 0.0722621 2.58551e-21)
(-0.229354 0.067225 0)
(-0.240188 0.0618853 2.55477e-21)
(-0.250153 0.0563116 -1.24499e-21)
(-0.25922 0.0505648 0)
(-0.267364 0.044699 2.47736e-21)
(-0.27456 0.0387622 1.19359e-21)
(-0.280788 0.0327963 -2.39181e-21)
(-0.286024 0.0268386 -1.13835e-21)
(-0.290249 0.0209222 0)
(-0.29344 0.0150767 2.19752e-21)
(-0.29557 0.00932651 2.11311e-21)
(-0.296611 0.00368839 0)
(-0.296528 -0.00183605 1.90779e-21)
(-0.295293 -0.00724925 0)
(-0.292889 -0.0125396 1.65429e-21)
(-0.28931 -0.0176888 6.96892e-22)
(-0.284559 -0.0226774 0)
(-0.278645 -0.0274862 0)
(-0.271586 -0.0320961 0)
(-0.263409 -0.0364881 0)
(-0.254145 -0.0406439 0)
(-0.243833 -0.0445462 0)
(-0.232519 -0.0481791 2.64109e-22)
(-0.220254 -0.0515287 2.62445e-24)
(-0.207093 -0.0545831 0)
(-0.193097 -0.0573332 0)
(-0.178329 -0.0597728 0)
(-0.162858 -0.0618981 -1.95705e-22)
(-0.14675 -0.0637086 -1.24295e-21)
(-0.130078 -0.0652063 -2.7448e-21)
(-0.11291 -0.066396 3.20515e-21)
(-0.0953185 -0.067285 1.72825e-21)
(-0.0773707 -0.0678826 -2.16939e-21)
(-0.0591336 -0.0682005 2.14031e-22)
(-0.0406709 -0.0682527 -2.41439e-21)
(-0.022044 -0.0680557 0)
(-0.00331612 -0.067629 -2.83921e-21)
(0.0154427 -0.0669912 2.10657e-22)
(0.0341665 -0.0661578 0)
(0.0528009 -0.0651403 0)
(0.0712987 -0.0639537 3.45374e-21)
(0.0896134 -0.0626142 0)
(0.107701 -0.0611377 0)
(0.125519 -0.0595398 -3.64563e-21)
(0.143031 -0.0578352 -7.85217e-21)
(0.1602 -0.0560383 4.18515e-21)
(0.176995 -0.0541629 0)
(0.193387 -0.0522219 -4.34402e-21)
(0.209349 -0.0502281 0)
(0.224858 -0.0481935 -4.20709e-21)
(0.239893 -0.0461297 -4.53148e-21)
(0.254437 -0.0440478 8.92266e-21)
(0.268473 -0.0419583 4.39895e-21)
(0.28199 -0.0398712 0)
(0.294978 -0.0377963 -9.2019e-21)
(0.307429 -0.0357424 0)
(0.319339 -0.0337181 -1.41011e-20)
(0.330705 -0.0317313 -9.39859e-21)
(0.341526 -0.0297893 -9.4484e-21)
(0.351806 -0.0278987 9.49118e-21)
(0.36155 -0.0260654 -1.43587e-20)
(0.370763 -0.0242945 0)
(0.379455 -0.0225907 0)
(0.387636 -0.0209574 9.60048e-21)
(0.39532 -0.0193976 1.44714e-20)
(0.402519 -0.0179135 0)
(0.40925 -0.0165065 -4.85657e-21)
(0.415529 -0.0151771 0)
(0.421373 -0.0139253 1.4475e-20)
(0.426802 -0.0127506 6.58316e-23)
(0.431835 -0.0116516 -6.03338e-23)
(0.43649 -0.0106268 -9.59749e-21)
(0.440788 -0.00967387 0)
(0.444749 -0.00879039 9.56469e-21)
(0.448391 -0.00797355 4.20771e-23)
(0.451736 -0.00722033 0)
(0.4548 -0.00652755 0)
(0.457604 -0.0058919 0)
(0.460166 -0.00531004 -9.47703e-21)
(0.462501 -0.00477856 0)
(0.464628 -0.0042941 0)
(0.466561 -0.00385336 0)
(0.468316 -0.00345314 0)
(0.469906 -0.00309033 0)
(0.471346 -0.00276199 -9.26914e-21)
(0.472647 -0.00246528 0)
(0.473821 -0.00219753 -9.21783e-21)
(0.474879 -0.00195617 -9.1839e-21)
(0.475832 -0.00173877 9.14988e-21)
(0.476688 -0.00154312 0)
(0.477458 -0.00136723 9.08181e-21)
(0.478151 -0.00120852 0)
(0.478776 -0.00106483 9.01392e-21)
(0.479339 -0.000935591 -8.97924e-21)
(0.479845 -0.000820449 -2.68226e-20)
(0.480297 -0.000718609 0)
(0.480701 -0.00062899 -2.66194e-20)
(0.48106 -0.000550401 -8.83386e-21)
(0.481378 -0.000481641 0)
(0.48166 -0.000421578 -1.75431e-20)
(0.481909 -0.000369191 -1.7477e-20)
(0.482129 -0.00032358 2.61195e-20)
(0.482323 -0.00028395 0)
(0.482493 -0.000249606 8.64234e-21)
(0.482643 -0.000219936 8.60957e-21)
(0.482774 -0.000194398 2.57272e-20)
(0.48289 -0.000172512 0)
(0.482991 -0.000153852 0)
(0.48308 -0.000138034 0)
(0.483159 -0.000124716 8.44502e-21)
(0.483228 -0.000113592 0)
(0.483289 -0.000104386 0)
(0.483343 -9.68495e-05 -8.35111e-21)
(0.483392 -9.07629e-05 -8.31909e-21)
(0.483436 -8.59278e-05 0)
(0.483475 -8.21675e-05 0)
(0.483511 -7.93251e-05 -1.64465e-20)
(0.483545 -7.72612e-05 0)
(0.483576 -7.5853e-05 1.63188e-20)
(0.483605 -7.49922e-05 1.62538e-20)
(0.483633 -7.45839e-05 0)
(0.483661 -7.45456e-05 0)
(0.483687 -7.48051e-05 -1.60624e-20)
(0.483713 -7.52993e-05 -9.1381e-25)
(0.48374 -7.59732e-05 -8.80228e-25)
(0.483766 -7.6778e-05 0)
(0.483792 -7.76696e-05 -3.16136e-20)
(0.483819 -7.86076e-05 0)
(0.483846 -7.95539e-05 0)
(0.483873 -8.04721e-05 0)
(0.483901 -8.13264e-05 1.555e-20)
(0.48393 -8.20806e-05 0)
(0.483959 -8.26979e-05 -3.08404e-20)
(0.483988 -8.31399e-05 -1.53563e-20)
(0.484018 -8.33661e-05 0)
(0.484048 -8.33331e-05 -1.52267e-20)
(0.484078 -8.29931e-05 0)
(0.484109 -8.22912e-05 0)
(0.484139 -8.11633e-05 -4.50943e-20)
(0.484168 -7.95323e-05 2.99324e-20)
(0.484197 -7.73025e-05 0)
(0.484224 -7.43533e-05 2.96723e-20)
(0.484249 -7.05303e-05 -1.47718e-20)
(0.484272 -6.56346e-05 0)
(0.484292 -5.94077e-05 0)
(0.484306 -5.15118e-05 0)
(0.484316 -4.15039e-05 -4.3538e-20)
(0.484317 -2.87998e-05 0)
(0.484309 -1.26258e-05 -1.43854e-20)
(0.484289 8.04959e-06 0)
(0.484251 3.46135e-05 0)
(0.484193 6.8949e-05 0)
(0.484106 0.000113645 0)
(0.483983 0.000172321 0)
(0.483811 0.000250129 0)
(0.483573 0.000354605 -2.79486e-20)
(0.483247 0.000497086 0)
(0.482801 0.000695388 -1.38865e-20)
(0.482188 0.00097852 4.15628e-20)
(0.481344 0.001398 0)
(0.480158 0.00204489 0)
(0.478528 0.00312131 -2.77216e-20)
(0.476125 0.00496793 -2.78968e-20)
(0.473318 0.00870406 2.81334e-20)
(0.469372 0.0156012 2.86888e-20)
(-0.0166845 0.0581002 -9.94581e-21)