/*--------------------------------*- C++ -*----------------------------------*\
  =========                 |
  \\      /  F ield         | OpenFOAM: The Open Source CFD Toolbox
   \\    /   O peration     | Website:  https://openfoam.org
    \\  /    A nd           | Version:  6
     \\/     M anipulation  |
\*---------------------------------------------------------------------------*/
FoamFile
{
    version     2.0;
    format      ascii;
    class       volScalarField;
    location    "0.08";
    object      epsilon;
}
// * * * * * * * * * * * * * * * * * * * * * * * * * * * * * * * * * * * * * //

dimensions      [0 2 -3 0 0 0 0];

internalField   nonuniform List<scalar> 
3081
(
2.19248
2.16588
2.1415
2.11921
2.09886
2.08033
2.06349
2.04821
2.03438
2.02187
2.01059
2.00042
1.99126
1.98298
1.97565
1.96927
1.96369
1.95881
1.95454
1.95083
1.94761
1.94484
1.94247
1.94046
1.93878
1.9374
1.93629
1.93542
1.93477
1.93432
1.93406
1.93396
1.93402
1.93421
1.93454
1.93499
1.93555
1.93621
1.93696
1.9378
1.93873
1.93973
1.9408
1.94193
1.94313
1.94438
1.9457
1.94706
1.94847
1.94992
1.95142
1.95296
1.95454
1.95616
1.95781
1.95949
1.9612
1.03925
1.02808
1.01783
1.00846
0.999896
0.992088
0.98498
0.97852
0.972657
0.967344
0.962537
0.958193
0.954271
0.95074
0.947617
0.944919
0.942542
0.940443
0.938589
0.936952
0.935511
0.934244
0.933137
0.932171
0.931335
0.930615
0.93
0.92948
0.929047
0.928692
0.928409
0.92819
0.928032
0.927928
0.927874
0.927866
0.927901
0.927974
0.928084
0.928228
0.928403
0.928607
0.928838
0.929094
0.929374
0.929675
0.929998
0.93034
0.9307
0.931077
0.93147
0.931878
0.932301
0.932737
0.933186
0.933647
0.934118
0.866332
0.857552
0.849509
0.842154
0.835439
0.829317
0.823745
0.81868
0.81408
0.809909
0.80613
0.80271
0.799617
0.796826
0.794318
0.792081
0.790102
0.788343
0.786777
0.785384
0.784144
0.783043
0.782065
0.781198
0.78043
0.779752
0.779154
0.778629
0.778169
0.777768
0.777422
0.777123
0.776869
0.776656
0.776479
0.776335
0.776223
0.776138
0.77608
0.776045
0.776033
0.776041
0.776067
0.776111
0.776172
0.776247
0.776336
0.776438
0.776553
0.776678
0.776815
0.77696
0.777116
0.777279
0.777451
0.777629
0.777815
0.822888
0.814746
0.807295
0.800487
0.794278
0.788623
0.783479
0.778805
0.774564
0.770719
0.767235
0.764082
0.76123
0.758652
0.756327
0.754235
0.752361
0.750686
0.749187
0.747846
0.746645
0.745569
0.744605
0.743742
0.742969
0.742276
0.741655
0.741099
0.740601
0.740156
0.739759
0.739404
0.739088
0.738807
0.738558
0.738337
0.738143
0.737973
0.737825
0.737697
0.737587
0.737494
0.737417
0.737354
0.737304
0.737266
0.737239
0.737223
0.737215
0.737217
0.737227
0.737244
0.737268
0.737298
0.737334
0.737375
0.737422
0.816543
0.808524
0.80119
0.794496
0.788396
0.782845
0.7778
0.773221
0.769069
0.765308
0.761902
0.758821
0.756035
0.753517
0.751243
0.749191
0.747343
0.745682
0.74419
0.74285
0.741645
0.74056
0.739582
0.738701
0.737905
0.737187
0.736537
0.735948
0.735415
0.734931
0.734492
0.734093
0.73373
0.733399
0.733098
0.732823
0.732573
0.732344
0.732135
0.731944
0.73177
0.73161
0.731464
0.731331
0.731209
0.731097
0.730994
0.730901
0.730815
0.730736
0.730664
0.730599
0.730538
0.730482
0.730431
0.730384
0.730341
0.82452
0.816423
0.809026
0.802277
0.79613
0.790541
0.785467
0.780866
0.776697
0.772924
0.769512
0.766427
0.76364
0.761121
0.758847
0.756793
0.75494
0.753269
0.751764
0.750409
0.749187
0.748083
0.747085
0.746181
0.745361
0.744617
0.74394
0.743322
0.742759
0.742243
0.741771
0.741337
0.740937
0.740569
0.740229
0.739914
0.739622
0.73935
0.739097
0.738861
0.738639
0.738432
0.738237
0.738053
0.737879
0.737714
0.737558
0.73741
0.737268
0.737133
0.737003
0.736878
0.736757
0.736641
0.736528
0.736418
0.736312
0.830251
0.822714
0.815841
0.809587
0.803903
0.798748
0.794076
0.789849
0.786026
0.782573
0.779454
0.776638
0.774096
0.771802
0.76973
0.767861
0.766173
0.764651
0.763277
0.762036
0.760913
0.759896
0.758972
0.758132
0.757366
0.756667
0.756027
0.755439
0.754899
0.754402
0.753942
0.753515
0.753119
0.752751
0.752406
0.752083
0.75178
0.751495
0.751225
0.75097
0.750727
0.750496
0.750275
0.750064
0.749861
0.749666
0.749478
0.749295
0.749118
0.748946
0.748778
0.748614
0.748453
0.748295
0.74814
0.747988
0.846306
0.838611
0.831601
0.825222
0.819428
0.814175
0.80942
0.805121
0.801238
0.797733
0.794571
0.79172
0.789149
0.78683
0.784739
0.782852
0.781148
0.77961
0.778221
0.776966
0.775828
0.774796
0.773858
0.773003
0.772222
0.771507
0.770851
0.770248
0.769691
0.769176
0.768698
0.768253
0.767838
0.767449
0.767084
0.76674
0.766414
0.766106
0.765813
0.765534
0.765267
0.765011
0.764764
0.764526
0.764296
0.764073
0.763856
0.763644
0.763437
0.763235
0.763036
0.76284
0.762647
0.762457
0.762269
0.762084
0.854894
0.847746
0.841246
0.835348
0.830003
0.825169
0.820802
0.816861
0.813308
0.810107
0.807223
0.804626
0.802286
0.800178
0.798278
0.796563
0.795016
0.793618
0.792354
0.791209
0.790169
0.789222
0.78836
0.787571
0.786848
0.786183
0.785571
0.785004
0.784479
0.783991
0.783535
0.783108
0.782707
0.782329
0.781972
0.781633
0.78131
0.781003
0.780708
0.780424
0.780151
0.779888
0.779632
0.779383
0.779141
0.778905
0.778673
0.778446
0.778223
0.778003
0.777785
0.77757
0.777357
0.777146
0.776939
0.870547
0.863296
0.856701
0.850716
0.845296
0.840397
0.835974
0.831987
0.828396
0.825164
0.822256
0.819641
0.817289
0.815172
0.813266
0.811548
0.809998
0.808599
0.807334
0.806188
0.805148
0.804201
0.803338
0.802548
0.801824
0.801158
0.800544
0.799975
0.799447
0.798955
0.798495
0.798063
0.797657
0.797274
0.79691
0.796564
0.796234
0.795919
0.795615
0.795323
0.795041
0.794767
0.794501
0.794242
0.793988
0.79374
0.793497
0.793257
0.79302
0.792787
0.792555
0.792326
0.792099
0.791874
0.791653
0.885061
0.877733
0.871069
0.865022
0.859548
0.854602
0.850141
0.846123
0.842508
0.839258
0.836339
0.833716
0.83136
0.829244
0.82734
0.825628
0.824084
0.822692
0.821434
0.820296
0.819262
0.818323
0.817466
0.816682
0.815964
0.815303
0.814693
0.814128
0.813604
0.813114
0.812657
0.812227
0.811822
0.811439
0.811075
0.810729
0.810397
0.81008
0.809774
0.80948
0.809194
0.808917
0.808647
0.808383
0.808125
0.807871
0.807622
0.807376
0.807133
0.806893
0.806654
0.806418
0.806183
0.80595
0.805723
0.89816
0.890788
0.884082
0.878
0.872495
0.867524
0.863044
0.859012
0.855389
0.852136
0.849217
0.8466
0.844252
0.842145
0.840254
0.838555
0.837027
0.835649
0.834406
0.833282
0.832263
0.831337
0.830493
0.829723
0.829016
0.828366
0.827767
0.827212
0.826697
0.826216
0.825766
0.825343
0.824944
0.824567
0.824209
0.823867
0.82354
0.823226
0.822923
0.822631
0.822348
0.822072
0.821803
0.82154
0.821282
0.821029
0.820779
0.820533
0.820289
0.820048
0.819808
0.819569
0.819332
0.819097
0.818866
0.818647
0.909726
0.902333
0.89562
0.889529
0.884019
0.879046
0.874567
0.87054
0.866925
0.863684
0.860779
0.858178
0.855849
0.853763
0.851893
0.850217
0.848711
0.847356
0.846135
0.845032
0.844034
0.843128
0.842303
0.841551
0.840862
0.840229
0.839646
0.839106
0.838604
0.838137
0.8377
0.837289
0.836901
0.836534
0.836185
0.835853
0.835534
0.835228
0.834933
0.834648
0.834371
0.834101
0.833838
0.83358
0.833327
0.833078
0.832833
0.832591
0.83235
0.832112
0.831876
0.83164
0.831406
0.831173
0.830944
0.830721
0.912352
0.90565
0.899578
0.894089
0.889138
0.884682
0.880678
0.877088
0.873872
0.870995
0.868422
0.866122
0.864065
0.862226
0.86058
0.859104
0.857779
0.856586
0.855511
0.85454
0.853659
0.85286
0.852131
0.851465
0.850853
0.85029
0.84977
0.849287
0.848837
0.848416
0.84802
0.847648
0.847295
0.84696
0.84664
0.846334
0.846039
0.845755
0.84548
0.845214
0.844954
0.8447
0.844451
0.844207
0.843966
0.843729
0.843494
0.843261
0.84303
0.842801
0.842572
0.842344
0.842118
0.841895
0.841677
0.920821
0.914187
0.908173
0.902733
0.897828
0.893414
0.889452
0.885901
0.882725
0.879887
0.877353
0.875093
0.873075
0.871274
0.869666
0.868227
0.866937
0.865779
0.864737
0.863797
0.862947
0.862177
0.861476
0.860836
0.86025
0.859711
0.859214
0.858753
0.858324
0.857923
0.857547
0.857192
0.856857
0.856538
0.856234
0.855943
0.855663
0.855393
0.855132
0.854878
0.854631
0.854389
0.854152
0.853919
0.85369
0.853463
0.853239
0.853017
0.852797
0.852577
0.852358
0.852141
0.851924
0.85171
0.851501
0.927994
0.921458
0.915529
0.910164
0.905325
0.900973
0.897068
0.893572
0.890448
0.887661
0.885177
0.882965
0.880994
0.879239
0.877674
0.876277
0.875028
0.873908
0.872903
0.871998
0.871182
0.870444
0.869773
0.869163
0.868604
0.868091
0.867619
0.867181
0.866775
0.866395
0.866039
0.865703
0.865386
0.865085
0.864797
0.864522
0.864257
0.864002
0.863755
0.863514
0.86328
0.863051
0.862826
0.862605
0.862388
0.862173
0.861959
0.861748
0.861538
0.861329
0.86112
0.860913
0.860706
0.860502
0.860304
0.933669
0.927247
0.921426
0.916154
0.911399
0.907123
0.90329
0.899863
0.896804
0.894079
0.891655
0.889499
0.887583
0.885881
0.884366
0.883016
0.881812
0.880736
0.879773
0.878908
0.878131
0.877429
0.876793
0.876215
0.875688
0.875206
0.874762
0.874351
0.873971
0.873616
0.873284
0.872971
0.872675
0.872395
0.872128
0.871872
0.871626
0.871389
0.87116
0.870936
0.870719
0.870506
0.870298
0.870093
0.86989
0.86969
0.869492
0.869296
0.8691
0.868906
0.868712
0.868518
0.868326
0.868137
0.867955
0.931565
0.925819
0.920652
0.915992
0.911805
0.908055
0.904705
0.901719
0.899064
0.896705
0.894613
0.892758
0.891112
0.889652
0.888355
0.8872
0.886173
0.885255
0.884435
0.8837
0.883038
0.882441
0.881901
0.881409
0.88096
0.880549
0.88017
0.879819
0.879494
0.879189
0.878904
0.878634
0.87838
0.878137
0.877905
0.877683
0.877469
0.877262
0.877062
0.876866
0.876675
0.876488
0.876304
0.876123
0.875944
0.875766
0.87559
0.875416
0.875242
0.875068
0.874896
0.874725
0.874558
0.874398
0.929027
0.923962
0.919406
0.915317
0.911658
0.908392
0.905485
0.902904
0.900616
0.89859
0.896797
0.895212
0.893809
0.892566
0.891464
0.890486
0.889616
0.888842
0.88815
0.88753
0.886973
0.886471
0.886016
0.885603
0.885226
0.88488
0.884561
0.884266
0.883991
0.883734
0.883493
0.883265
0.88305
0.882844
0.882648
0.882459
0.882277
0.8821
0.881929
0.881762
0.881599
0.881439
0.881281
0.881126
0.880972
0.88082
0.880669
0.880519
0.880369
0.880221
0.880074
0.879932
0.879799
0.931222
0.926308
0.921876
0.917895
0.914332
0.911155
0.90833
0.905825
0.903608
0.901649
0.899921
0.898397
0.897052
0.895863
0.894814
0.893885
0.893064
0.892334
0.891686
0.891108
0.890591
0.890127
0.889709
0.889331
0.888987
0.888674
0.888386
0.888122
0.887877
0.887649
0.887435
0.887235
0.887046
0.886867
0.886696
0.886533
0.886376
0.886225
0.886078
0.885936
0.885797
0.885661
0.885528
0.885397
0.885268
0.88514
0.885013
0.884887
0.884763
0.884639
0.884518
0.884402
0.884298
0.932669
0.927899
0.923592
0.919721
0.916256
0.913169
0.910426
0.907998
0.905853
0.903962
0.902298
0.900834
0.899546
0.898413
0.897414
0.896535
0.89576
0.895075
0.894469
0.893931
0.893452
0.893025
0.892642
0.892298
0.891987
0.891705
0.891448
0.891212
0.890996
0.890795
0.890609
0.890435
0.890272
0.890118
0.889972
0.889834
0.889701
0.889574
0.889451
0.889332
0.889217
0.889105
0.888995
0.888887
0.888781
0.888677
0.888574
0.888472
0.888372
0.888272
0.888176
0.888086
0.888009
0.933515
0.928881
0.924696
0.920933
0.917566
0.914568
0.911908
0.909556
0.907482
0.905658
0.904057
0.902652
0.90142
0.90034
0.899393
0.898561
0.89783
0.897188
0.896622
0.896123
0.895681
0.895288
0.894939
0.894627
0.894346
0.894094
0.893865
0.893657
0.893467
0.893292
0.893131
0.892981
0.892842
0.892712
0.892589
0.892473
0.892363
0.892258
0.892157
0.89206
0.891967
0.891876
0.891788
0.891702
0.891618
0.891536
0.891455
0.891375
0.891297
0.89122
0.891147
0.89108
0.891029
0.933863
0.92936
0.925292
0.921634
0.918364
0.915453
0.912874
0.910598
0.908595
0.906837
0.905297
0.90395
0.902773
0.901744
0.900845
0.900059
0.899371
0.89877
0.898242
0.897779
0.897371
0.897012
0.896693
0.896411
0.896159
0.895933
0.895731
0.895548
0.895382
0.895231
0.895092
0.894965
0.894847
0.894738
0.894636
0.894541
0.894451
0.894365
0.894284
0.894207
0.894133
0.894062
0.893994
0.893927
0.893862
0.8938
0.893738
0.893678
0.893619
0.893563
0.89351
0.893465
0.893437
0.933786
0.92941
0.925455
0.921901
0.918725
0.915901
0.913403
0.911201
0.909267
0.907574
0.906094
0.904803
0.903678
0.902699
0.901847
0.901105
0.900458
0.899895
0.899403
0.898974
0.898599
0.898269
0.89798
0.897724
0.897498
0.897298
0.897119
0.896958
0.896814
0.896684
0.896566
0.896458
0.89636
0.896269
0.896185
0.896108
0.896035
0.895967
0.895903
0.895843
0.895786
0.895731
0.895679
0.89563
0.895582
0.895535
0.89549
0.895447
0.895405
0.895365
0.89533
0.895303
0.895294
0.933339
0.929087
0.925243
0.92179
0.918706
0.915969
0.91355
0.911421
0.909556
0.907926
0.906505
0.905269
0.904195
0.903263
0.902455
0.901754
0.901147
0.90062
0.900163
0.899765
0.89942
0.899118
0.898855
0.898624
0.898422
0.898243
0.898085
0.897945
0.89782
0.897709
0.897608
0.897518
0.897436
0.897361
0.897293
0.89723
0.897172
0.897119
0.897069
0.897023
0.896979
0.896939
0.8969
0.896864
0.896829
0.896796
0.896765
0.896735
0.896706
0.89668
0.896659
0.896646
0.896652
0.932562
0.92843
0.924696
0.921343
0.918352
0.915699
0.913359
0.911304
0.909506
0.907938
0.906574
0.905391
0.904366
0.90348
0.902714
0.902053
0.901482
0.90099
0.900564
0.900197
0.899879
0.899603
0.899364
0.899156
0.898974
0.898815
0.898676
0.898554
0.898445
0.898349
0.898264
0.898188
0.898119
0.898058
0.898002
0.897951
0.897905
0.897863
0.897825
0.897789
0.897757
0.897726
0.897698
0.897672
0.897648
0.897625
0.897603
0.897583
0.897565
0.897548
0.897537
0.897534
0.89755
0.931486
0.927472
0.923847
0.920595
0.917696
0.915129
0.912867
0.910884
0.909152
0.907645
0.906338
0.905206
0.904229
0.903386
0.902661
0.902037
0.901501
0.90104
0.900644
0.900304
0.900011
0.899759
0.899542
0.899354
0.899191
0.899049
0.898926
0.898819
0.898724
0.898641
0.898568
0.898503
0.898446
0.898394
0.898348
0.898307
0.89827
0.898236
0.898205
0.898177
0.898152
0.898129
0.898107
0.898088
0.89807
0.898053
0.898038
0.898024
0.898012
0.898001
0.897995
0.897998
0.898018
0.930059
0.926169
0.92266
0.919514
0.916714
0.914236
0.912057
0.910149
0.908486
0.907042
0.905792
0.904714
0.903785
0.902987
0.902303
0.901716
0.901215
0.900786
0.900419
0.900105
0.899837
0.899607
0.89941
0.899241
0.899095
0.89897
0.898861
0.898766
0.898684
0.898612
0.898549
0.898493
0.898444
0.8984
0.898361
0.898326
0.898294
0.898266
0.89824
0.898217
0.898195
0.898176
0.898158
0.898142
0.898126
0.898112
0.8981
0.898088
0.898077
0.898069
0.898064
0.898067
0.898087
0.928213
0.924457
0.921071
0.91804
0.915344
0.912963
0.910871
0.909042
0.907452
0.906074
0.904885
0.903861
0.902982
0.902229
0.901586
0.901037
0.900569
0.900171
0.899832
0.899543
0.899297
0.899087
0.898908
0.898755
0.898624
0.89851
0.898413
0.898328
0.898253
0.898188
0.898131
0.89808
0.898034
0.897993
0.897956
0.897923
0.897892
0.897863
0.897837
0.897812
0.897789
0.897768
0.897747
0.897727
0.897709
0.897691
0.897674
0.897657
0.897642
0.897628
0.897618
0.897614
0.897624
0.925984
0.922366
0.919109
0.916197
0.91361
0.911328
0.909326
0.90758
0.906064
0.904753
0.903624
0.902655
0.901826
0.901118
0.900514
0.900001
0.899565
0.899195
0.898881
0.898614
0.898388
0.898195
0.89803
0.897889
0.897768
0.897663
0.897572
0.897492
0.897421
0.897358
0.897302
0.897251
0.897204
0.897161
0.89712
0.897082
0.897046
0.897012
0.896979
0.896947
0.896916
0.896886
0.896856
0.896827
0.896799
0.89677
0.896742
0.896714
0.896687
0.896661
0.896637
0.896619
0.896613
0.923359
0.919884
0.91676
0.91397
0.911496
0.909316
0.907407
0.905745
0.904304
0.903062
0.901994
0.901079
0.900299
0.899634
0.899069
0.898589
0.898183
0.897839
0.897547
0.8973
0.897089
0.896909
0.896755
0.896623
0.896507
0.896407
0.896318
0.896238
0.896166
0.896101
0.89604
0.895983
0.89593
0.895879
0.895829
0.895782
0.895735
0.895689
0.895643
0.895598
0.895553
0.895508
0.895463
0.895417
0.895372
0.895326
0.89528
0.895233
0.895187
0.895141
0.895097
0.895057
0.895028
0.920321
0.916992
0.914004
0.91134
0.908981
0.906906
0.905092
0.903515
0.902152
0.900977
0.89997
0.89911
0.898377
0.897754
0.897225
0.896777
0.896398
0.896077
0.895804
0.895572
0.895374
0.895204
0.895057
0.894928
0.894814
0.894713
0.894621
0.894537
0.894459
0.894386
0.894316
0.894248
0.894182
0.894118
0.894054
0.89399
0.893927
0.893863
0.893798
0.893733
0.893668
0.893601
0.893534
0.893465
0.893396
0.893326
0.893254
0.893182
0.893109
0.893036
0.892963
0.892894
0.892834
0.916847
0.913667
0.910818
0.908283
0.906041
0.904073
0.902355
0.900864
0.899577
0.898471
0.897525
0.896717
0.89603
0.895447
0.894953
0.894534
0.894179
0.893877
0.89362
0.8934
0.89321
0.893045
0.8929
0.892771
0.892654
0.892547
0.892448
0.892354
0.892264
0.892177
0.892092
0.892008
0.891924
0.89184
0.891755
0.89167
0.891583
0.891495
0.891405
0.891313
0.89122
0.891125
0.891029
0.89093
0.89083
0.890727
0.890623
0.890517
0.89041
0.890301
0.890193
0.890086
0.889987
0.912908
0.90988
0.907172
0.904766
0.902644
0.900783
0.899162
0.897758
0.896547
0.895509
0.894621
0.893865
0.893222
0.892676
0.892213
0.89182
0.891485
0.8912
0.890954
0.890741
0.890555
0.890391
0.890243
0.890108
0.889983
0.889865
0.889753
0.889644
0.889536
0.88943
0.889324
0.889217
0.889109
0.888999
0.888887
0.888772
0.888656
0.888536
0.888414
0.888289
0.888161
0.88803
0.887897
0.887761
0.887621
0.887479
0.887335
0.887187
0.887037
0.886885
0.886732
0.886579
0.886433
0.908465
0.90559
0.903025
0.900751
0.898748
0.896995
0.895471
0.894152
0.893017
0.892045
0.891214
0.890507
0.889905
0.889394
0.888959
0.888588
0.88827
0.887995
0.887757
0.887547
0.88736
0.88719
0.887034
0.886888
0.886749
0.886615
0.886483
0.886353
0.886222
0.88609
0.885956
0.88582
0.88568
0.885538
0.885391
0.885241
0.885087
0.884929
0.884767
0.884601
0.884431
0.884257
0.884079
0.883897
0.883711
0.883521
0.883327
0.88313
0.882928
0.882724
0.882517
0.88231
0.882107
0.90347
0.900751
0.898329
0.896187
0.894304
0.892659
0.89123
0.889996
0.888935
0.888027
0.887251
0.886589
0.886025
0.885545
0.885133
0.88478
0.884474
0.884206
0.883969
0.883757
0.883563
0.883383
0.883213
0.88305
0.88289
0.882733
0.882576
0.882417
0.882256
0.882092
0.881923
0.881751
0.881573
0.88139
0.881203
0.881009
0.880811
0.880606
0.880397
0.880182
0.879962
0.879736
0.879505
0.879269
0.879028
0.878781
0.87853
0.878273
0.878012
0.877746
0.877476
0.877205
0.876935
0.897866
0.895303
0.893026
0.891015
0.889251
0.887713
0.886378
0.885227
0.884237
0.88339
0.882665
0.882046
0.881516
0.881061
0.880669
0.880328
0.880029
0.879762
0.879522
0.879301
0.879094
0.878897
0.878707
0.87852
0.878334
0.878147
0.877957
0.877763
0.877565
0.877361
0.877151
0.876934
0.876711
0.876481
0.876244
0.875999
0.875748
0.87549
0.875225
0.874953
0.874674
0.874388
0.874096
0.873797
0.873492
0.87318
0.872861
0.872537
0.872206
0.87187
0.871528
0.871182
0.870837
0.891583
0.889177
0.887044
0.885164
0.883518
0.882084
0.880841
0.87977
0.878848
0.878058
0.87738
0.876799
0.876298
0.875865
0.875486
0.875152
0.874854
0.874582
0.874332
0.874096
0.87387
0.87365
0.873432
0.873215
0.872995
0.872771
0.872541
0.872305
0.872062
0.871811
0.871552
0.871284
0.871007
0.870722
0.870427
0.870124
0.869812
0.869492
0.869163
0.868825
0.868479
0.868125
0.867763
0.867393
0.867014
0.866628
0.866234
0.865833
0.865423
0.865007
0.864583
0.864155
0.863723
0.884807
0.88255
0.880552
0.878794
0.877256
0.875919
0.87476
0.873759
0.872897
0.872156
0.871516
0.870964
0.870483
0.870062
0.869689
0.869353
0.869046
0.868761
0.868491
0.868232
0.867978
0.867725
0.867472
0.867214
0.866952
0.866682
0.866403
0.866116
0.865819
0.865511
0.865193
0.864865
0.864525
0.864175
0.863813
0.863442
0.863059
0.862667
0.862264
0.861851
0.861428
0.860995
0.860552
0.8601
0.859638
0.859167
0.858687
0.858197
0.857698
0.85719
0.856673
0.85615
0.855621
0.877347
0.875233
0.873366
0.871726
0.870293
0.869046
0.867964
0.867029
0.86622
0.86552
0.864912
0.864381
0.863914
0.863497
0.863121
0.862776
0.862453
0.862146
0.86185
0.861558
0.861268
0.860975
0.860677
0.860372
0.860058
0.859734
0.859399
0.859051
0.858692
0.858319
0.857934
0.857536
0.857125
0.856701
0.856265
0.855815
0.855354
0.85488
0.854395
0.853897
0.853388
0.852867
0.852335
0.851792
0.851237
0.850671
0.850095
0.849507
0.848909
0.8483
0.847681
0.847053
0.846417
0.86845
0.866493
0.864768
0.863256
0.861934
0.860784
0.859785
0.858918
0.858165
0.857509
0.856933
0.856424
0.855969
0.855556
0.855175
0.854818
0.854477
0.854146
0.853819
0.853492
0.853162
0.852825
0.852479
0.852123
0.851754
0.851371
0.850975
0.850564
0.850138
0.849697
0.849241
0.84877
0.848284
0.847783
0.847268
0.846738
0.846194
0.845636
0.845064
0.84448
0.843881
0.84327
0.842646
0.842009
0.84136
0.840698
0.840023
0.839336
0.838637
0.837926
0.837203
0.836469
0.835726
0.857693
0.855909
0.854339
0.852965
0.851765
0.850719
0.849809
0.849016
0.848323
0.847713
0.847172
0.846686
0.846244
0.845835
0.845449
0.84508
0.84472
0.844363
0.844006
0.843643
0.843272
0.84289
0.842495
0.842086
0.841661
0.84122
0.840762
0.840287
0.839795
0.839285
0.838758
0.838214
0.837654
0.837077
0.836483
0.835874
0.835249
0.834609
0.833954
0.833284
0.8326
0.831901
0.831188
0.830462
0.829722
0.828968
0.8282
0.82742
0.826626
0.825819
0.824999
0.824166
0.823323
0.844694
0.8431
0.841702
0.84048
0.839414
0.838485
0.837675
0.836965
0.83634
0.835785
0.835286
0.834831
0.834409
0.834011
0.833628
0.833253
0.832881
0.832506
0.832125
0.831733
0.831329
0.83091
0.830475
0.830022
0.829551
0.829061
0.828552
0.828024
0.827476
0.82691
0.826324
0.825721
0.825099
0.824459
0.823803
0.823129
0.822439
0.821733
0.821011
0.820274
0.819522
0.818755
0.817973
0.817177
0.816367
0.815544
0.814706
0.813855
0.81299
0.812112
0.811221
0.810318
0.809403
0.828975
0.827598
0.826396
0.825349
0.824439
0.823647
0.822955
0.822348
0.821811
0.821329
0.820891
0.820485
0.820102
0.819734
0.819373
0.819014
0.81865
0.818278
0.817895
0.817497
0.817083
0.816651
0.816201
0.81573
0.815238
0.814727
0.814194
0.813641
0.813068
0.812475
0.811863
0.811232
0.810582
0.809914
0.809229
0.808528
0.80781
0.807076
0.806326
0.805562
0.804782
0.803989
0.803182
0.802361
0.801527
0.800679
0.799819
0.798946
0.798061
0.797164
0.796255
0.795334
0.794403
0.809635
0.808513
0.807544
0.806708
0.805987
0.805365
0.804826
0.804354
0.803936
0.80356
0.803216
0.802893
0.802583
0.802279
0.801976
0.801667
0.801348
0.801017
0.800671
0.800307
0.799924
0.799521
0.799097
0.798652
0.798185
0.797697
0.797189
0.796659
0.79611
0.795541
0.794953
0.794346
0.793722
0.793081
0.792424
0.791751
0.791063
0.790361
0.789644
0.788914
0.788171
0.787416
0.786648
0.785869
0.785079
0.784277
0.783466
0.782643
0.781811
0.780969
0.780118
0.779258
0.77839
0.785588
0.784782
0.784103
0.783534
0.783059
0.782662
0.782329
0.782046
0.781803
0.781589
0.781394
0.781211
0.781032
0.780851
0.780665
0.780468
0.780257
0.78003
0.779785
0.779521
0.779236
0.77893
0.778603
0.778255
0.777885
0.777495
0.777085
0.776655
0.776206
0.775739
0.775255
0.774754
0.774238
0.773707
0.773162
0.772603
0.772032
0.771449
0.770854
0.770249
0.769633
0.769008
0.768374
0.767732
0.767081
0.766423
0.765757
0.765085
0.764406
0.763722
0.763031
0.762336
0.761637
0.761182
0.760724
0.760368
0.760099
0.759902
0.759765
0.759675
0.75962
0.759592
0.75958
0.759578
0.759578
0.759575
0.759565
0.759544
0.759508
0.759455
0.759384
0.759293
0.759181
0.759048
0.758893
0.758718
0.758521
0.758304
0.758068
0.757812
0.757538
0.757248
0.75694
0.756618
0.756281
0.75593
0.755567
0.755191
0.754805
0.754409
0.754003
0.753589
0.753167
0.752737
0.752301
0.751858
0.75141
0.750957
0.7505
0.750038
0.749573
0.749105
0.748634
0.748161
0.747686
0.747212
0.741861
0.741705
0.741633
0.741629
0.741681
0.741778
0.741909
0.742063
0.742233
0.742412
0.742592
0.742768
0.742937
0.743093
0.743234
0.743358
0.743463
0.743548
0.743611
0.743653
0.743674
0.743673
0.743651
0.743609
0.743548
0.743468
0.74337
0.743255
0.743124
0.742979
0.74282
0.742648
0.742464
0.74227
0.742066
0.741853
0.741632
0.741404
0.74117
0.74093
0.740685
0.740436
0.740184
0.739928
0.739671
0.739411
0.73915
0.738889
0.738628
0.738366
0.738106
0.737847
0.737592
0.727286
0.72743
0.727639
0.727902
0.728207
0.728544
0.728903
0.729276
0.729657
0.730038
0.730415
0.730782
0.731137
0.731476
0.731797
0.732098
0.732378
0.732637
0.732874
0.733088
0.733281
0.733453
0.733604
0.733735
0.733848
0.733942
0.73402
0.734082
0.73413
0.734164
0.734186
0.734197
0.734198
0.734191
0.734175
0.734152
0.734124
0.73409
0.734052
0.734011
0.733968
0.733922
0.733876
0.733829
0.733782
0.733736
0.733692
0.733649
0.733609
0.733572
0.733539
0.733511
0.733488
0.733476
0.719252
0.7197
0.720199
0.720738
0.721306
0.721895
0.722497
0.723104
0.723711
0.724311
0.724901
0.725477
0.726037
0.726577
0.727096
0.727593
0.728067
0.728519
0.728947
0.729353
0.729736
0.730098
0.73044
0.730762
0.731066
0.731352
0.731623
0.731879
0.732122
0.732352
0.732572
0.732782
0.732983
0.733177
0.733366
0.733549
0.733728
0.733903
0.734077
0.73425
0.734422
0.734594
0.734768
0.734944
0.735122
0.735304
0.735489
0.735679
0.735875
0.736076
0.736284
0.736499
0.736723
0.736957
0.720227
0.720998
0.721806
0.722641
0.723494
0.724357
0.725224
0.726088
0.726944
0.727788
0.728616
0.729425
0.730212
0.730978
0.731719
0.732435
0.733127
0.733794
0.734437
0.735055
0.735651
0.736225
0.736778
0.737312
0.737828
0.738326
0.738809
0.739279
0.739735
0.740181
0.740617
0.741044
0.741465
0.741879
0.742289
0.742696
0.7431
0.743503
0.743906
0.744309
0.744715
0.745123
0.745534
0.74595
0.746371
0.746797
0.74723
0.747671
0.748119
0.748576
0.749043
0.749519
0.750007
0.750507
0.734143
0.735273
0.736427
0.737596
0.738772
0.739948
0.741119
0.742278
0.743422
0.744547
0.74565
0.746729
0.747783
0.748809
0.749808
0.750779
0.751722
0.752639
0.753529
0.754393
0.755233
0.756051
0.756846
0.757622
0.758379
0.759119
0.759844
0.760556
0.761255
0.761944
0.762624
0.763296
0.763963
0.764625
0.765284
0.765941
0.766598
0.767256
0.767915
0.768577
0.769243
0.769914
0.770591
0.771274
0.771966
0.772665
0.773374
0.774094
0.774824
0.775565
0.776319
0.777087
0.777868
0.778665
0.768247
0.769807
0.771378
0.772951
0.77452
0.776079
0.777622
0.779145
0.780644
0.782117
0.783561
0.784974
0.786356
0.787706
0.789024
0.790309
0.791563
0.792787
0.793981
0.795147
0.796287
0.797401
0.798493
0.799563
0.800614
0.801647
0.802664
0.803668
0.80466
0.805642
0.806616
0.807583
0.808545
0.809504
0.810462
0.811419
0.812378
0.813339
0.814304
0.815275
0.816252
0.817236
0.81823
0.819233
0.820246
0.821271
0.822309
0.82336
0.824426
0.825507
0.826604
0.827718
0.828851
0.830002
0.838316
0.840449
0.842578
0.844697
0.846798
0.848876
0.850927
0.852948
0.854934
0.856884
0.858797
0.86067
0.862504
0.864298
0.866054
0.867771
0.869451
0.871095
0.872705
0.874282
0.87583
0.877349
0.878842
0.880312
0.88176
0.883189
0.884601
0.885999
0.887385
0.88876
0.890128
0.89149
0.892848
0.894205
0.895562
0.89692
0.898282
0.899649
0.901023
0.902406
0.903798
0.905201
0.906616
0.908045
0.909489
0.910949
0.912425
0.91392
0.915434
0.916969
0.918524
0.920102
0.921703
0.923329
0.987554
0.990595
0.993616
0.996609
0.999568
1.00249
1.00537
1.0082
1.01098
1.01371
1.01639
1.01902
1.02159
1.02411
1.02659
1.02901
1.03139
1.03372
1.03601
1.03826
1.04048
1.04266
1.0448
1.04692
1.04902
1.05109
1.05314
1.05518
1.0572
1.05922
1.06122
1.06322
1.06522
1.06722
1.06922
1.07123
1.07324
1.07526
1.07729
1.07934
1.0814
1.08348
1.08558
1.08769
1.08983
1.09199
1.09418
1.09639
1.09863
1.1009
1.10319
1.10552
1.10788
1.11028
1.39074
1.39582
1.40085
1.40582
1.41072
1.41556
1.42032
1.425
1.42961
1.43413
1.43857
1.44293
1.44721
1.45141
1.45554
1.45959
1.46357
1.46749
1.47135
1.47514
1.47889
1.48258
1.48623
1.48984
1.49342
1.49696
1.50048
1.50398
1.50747
1.51094
1.5144
1.51786
1.52132
1.52479
1.52826
1.53174
1.53524
1.53876
1.5423
1.54586
1.54945
1.55307
1.55673
1.56042
1.56414
1.56791
1.57172
1.57557
1.57947
1.58341
1.58741
1.59146
1.59556
1.59972
3.54422
3.56013
3.57575
3.59109
3.60614
3.6209
3.63536
3.64953
3.66342
3.67702
3.69035
3.70342
3.71622
3.72878
3.74109
3.75319
3.76507
3.77676
3.78825
3.79958
3.81075
3.82178
3.83268
3.84347
3.85416
3.86477
3.8753
3.88578
3.89622
3.90662
3.91701
3.9274
3.93778
3.94819
3.95862
3.9691
3.97962
3.9902
4.00084
4.01156
4.02236
4.03325
4.04424
4.05534
4.06654
4.07787
4.08931
4.10089
4.1126
4.12446
4.13646
4.14861
4.16092
4.17339
)
;

boundaryField
{
    inlet
    {
        type            fixedValue;
        value           nonuniform 0();
    }
    outlet
    {
        type            zeroGradient;
    }
    upperWall
    {
        Cmu             0.09;
        kappa           0.41;
        E               9.8;
        type            epsilonWallFunction;
        value           nonuniform List<scalar> 
54
(
3.54422
3.56013
3.57575
3.59109
3.60614
3.6209
3.63536
3.64953
3.66342
3.67702
3.69035
3.70342
3.71622
3.72878
3.74109
3.75319
3.76507
3.77676
3.78825
3.79958
3.81075
3.82178
3.83268
3.84347
3.85416
3.86477
3.8753
3.88578
3.89622
3.90662
3.91701
3.9274
3.93778
3.94819
3.95862
3.9691
3.97962
3.9902
4.00084
4.01156
4.02236
4.03325
4.04424
4.05534
4.06654
4.07787
4.08931
4.10089
4.1126
4.12446
4.13646
4.14861
4.16092
4.17339
)
;
    }
    lowerWall
    {
        Cmu             0.09;
        kappa           0.41;
        E               9.8;
        type            epsilonWallFunction;
        value           nonuniform List<scalar> 
57
(
2.19248
2.16588
2.1415
2.11921
2.09886
2.08033
2.06349
2.04821
2.03438
2.02187
2.01059
2.00042
1.99126
1.98298
1.97565
1.96927
1.96369
1.95881
1.95454
1.95083
1.94761
1.94484
1.94247
1.94046
1.93878
1.9374
1.93629
1.93542
1.93477
1.93432
1.93406
1.93396
1.93402
1.93421
1.93454
1.93499
1.93555
1.93621
1.93696
1.9378
1.93873
1.93973
1.9408
1.94193
1.94313
1.94438
1.9457
1.94706
1.94847
1.94992
1.95142
1.95296
1.95454
1.95616
1.95781
1.95949
1.9612
)
;
    }
    frontAndBack
    {
        type            empty;
    }
    procBoundary1to0
    {
        type            processor;
        value           nonuniform List<scalar> 
59
(
1.96294
0.934602
0.778007
0.737472
0.730302
0.736209
0.747838
0.761901
0.776733
0.791435
0.805504
0.805504
0.818413
0.830495
0.841457
0.851291
0.860105
0.867771
0.874238
0.879666
0.884192
0.887931
0.890977
0.893408
0.895284
0.896657
0.897566
0.898039
0.898106
0.897635
0.896607
0.894998
0.892773
0.889886
0.886283
0.881899
0.87666
0.870484
0.863284
0.855083
0.845771
0.834971
0.822467
0.808475
0.793461
0.777513
0.760933
0.746737
0.737343
0.737343