/*--------------------------------*- C++ -*----------------------------------*\
  =========                 |
  \\      /  F ield         | OpenFOAM: The Open Source CFD Toolbox
   \\    /   O peration     | Website:  https://openfoam.org
    \\  /    A nd           | Version:  6
     \\/     M anipulation  |
\*---------------------------------------------------------------------------*/
FoamFile
{
    version     2.0;
    format      ascii;
    class       volScalarField;
    location    "0.08";
    object      k;
}
// * * * * * * * * * * * * * * * * * * * * * * * * * * * * * * * * * * * * * //

dimensions      [0 2 -2 0 0 0 0];

internalField   nonuniform List<scalar> 
3081
(
0.0201793
0.0199899
0.0198144
0.0196521
0.0195023
0.0193642
0.0192372
0.0191204
0.0190131
0.0189147
0.0188244
0.0187417
0.0186657
0.0185957
0.0185316
0.0184741
0.018422
0.0183747
0.0183315
0.018292
0.0182559
0.0182227
0.0181922
0.0181641
0.0181381
0.0181141
0.0180918
0.0180711
0.0180517
0.0180336
0.0180166
0.0180006
0.0179856
0.0179714
0.0179579
0.0179451
0.0179329
0.0179212
0.01791
0.0178992
0.0178889
0.0178789
0.0178692
0.0178598
0.0178507
0.0178417
0.017833
0.0178245
0.0178161
0.0178078
0.0177996
0.0177916
0.0177836
0.0177757
0.0177678
0.01776
0.0177522
0.0389617
0.0385586
0.0381854
0.0378406
0.0375225
0.0372296
0.0369602
0.0367127
0.0364856
0.0362773
0.0360864
0.0359116
0.0357514
0.0356045
0.0354688
0.0353431
0.0352285
0.0351243
0.0350293
0.0349427
0.0348635
0.034791
0.0347245
0.0346633
0.0346069
0.0345547
0.0345063
0.0344613
0.0344194
0.0343802
0.0343434
0.0343088
0.0342761
0.0342452
0.0342159
0.0341879
0.0341612
0.0341356
0.034111
0.0340873
0.0340643
0.0340421
0.0340205
0.0339994
0.0339788
0.0339586
0.0339387
0.0339192
0.0339
0.0338809
0.0338621
0.0338434
0.0338248
0.0338063
0.0337878
0.0337693
0.0337509
0.0492921
0.0487925
0.0483297
0.0479017
0.0475068
0.0471428
0.0468078
0.0464999
0.0462172
0.0459578
0.04572
0.0455021
0.0453024
0.0451193
0.0449513
0.0447965
0.0446539
0.0445235
0.0444043
0.0442952
0.0441952
0.0441034
0.044019
0.0439411
0.0438692
0.0438026
0.0437407
0.0436832
0.0436294
0.0435791
0.0435318
0.0434873
0.0434453
0.0434054
0.0433675
0.0433314
0.0432968
0.0432637
0.0432318
0.043201
0.0431711
0.0431422
0.043114
0.0430865
0.0430596
0.0430332
0.0430073
0.0429817
0.0429565
0.0429315
0.0429068
0.0428822
0.0428578
0.0428334
0.0428091
0.0427849
0.0427606
0.056709
0.0561472
0.0556266
0.055145
0.0547003
0.0542903
0.0539129
0.0535659
0.0532473
0.0529548
0.0526867
0.0524409
0.0522157
0.0520092
0.0518199
0.051646
0.0514859
0.0513391
0.0512046
0.0510813
0.050968
0.0508639
0.0507679
0.0506794
0.0505974
0.0505214
0.0504508
0.0503849
0.0503233
0.0502656
0.0502113
0.0501601
0.0501117
0.0500657
0.050022
0.0499802
0.0499402
0.0499018
0.0498648
0.049829
0.0497943
0.0497606
0.0497277
0.0496956
0.0496642
0.0496333
0.0496029
0.049573
0.0495434
0.0495141
0.049485
0.0494562
0.0494274
0.0493988
0.0493702
0.0493417
0.0493131
0.0626611
0.0620541
0.0614913
0.0609705
0.0604894
0.0600459
0.0596375
0.0592619
0.058917
0.0586005
0.0583103
0.0580443
0.0578006
0.0575772
0.0573725
0.0571846
0.0570121
0.0568534
0.0567079
0.0565745
0.0564518
0.0563389
0.0562348
0.0561386
0.0560494
0.0559667
0.0558897
0.0558179
0.0557507
0.0556876
0.0556282
0.0555722
0.0555191
0.0554687
0.0554206
0.0553747
0.0553307
0.0552884
0.0552476
0.0552081
0.0551697
0.0551324
0.0550961
0.0550605
0.0550257
0.0549914
0.0549577
0.0549244
0.0548915
0.0548589
0.0548265
0.0547943
0.0547623
0.0547304
0.0546985
0.0546666
0.0546347
0.067657
0.0670162
0.0664219
0.0658716
0.0653633
0.0648945
0.0644629
0.064066
0.0637014
0.0633669
0.0630603
0.0627793
0.0625218
0.062286
0.06207
0.0618719
0.0616901
0.0615229
0.0613696
0.0612288
0.0610994
0.0609802
0.0608702
0.0607685
0.0606742
0.0605867
0.0605052
0.0604291
0.0603578
0.0602909
0.0602278
0.0601683
0.0601118
0.0600582
0.0600071
0.0599581
0.0599112
0.059866
0.0598224
0.0597802
0.0597392
0.0596993
0.0596603
0.0596222
0.0595848
0.059548
0.0595118
0.059476
0.0594406
0.0594055
0.0593707
0.0593361
0.0593016
0.0592672
0.0592328
0.0591984
0.059164
0.07127
0.0706525
0.0700807
0.0695524
0.069065
0.0686162
0.0682036
0.0678247
0.0674771
0.0671585
0.0668667
0.0665994
0.0663547
0.0661306
0.0659252
0.0657369
0.0655639
0.0654051
0.0652594
0.0651253
0.0650018
0.0648878
0.0647824
0.0646847
0.0645939
0.0645093
0.0644303
0.0643563
0.0642868
0.0642213
0.0641593
0.0641006
0.0640448
0.0639915
0.0639406
0.0638916
0.0638445
0.063799
0.0637549
0.0637121
0.0636704
0.0636296
0.0635897
0.0635506
0.063512
0.063474
0.0634365
0.0633994
0.0633626
0.063326
0.0632896
0.0632533
0.0632171
0.063181
0.0631448
0.0631086
0.0749491
0.0743157
0.0737291
0.0731869
0.0726867
0.0722261
0.0718027
0.0714139
0.0710574
0.0707307
0.0704316
0.0701578
0.0699072
0.0696779
0.0694679
0.0692755
0.069099
0.0689368
0.068788
0.0686511
0.0685251
0.0684087
0.0683011
0.0682014
0.0681087
0.0680223
0.0679416
0.0678661
0.067795
0.0677281
0.0676648
0.0676048
0.0675477
0.0674932
0.067441
0.0673909
0.0673426
0.067296
0.0672508
0.0672069
0.0671641
0.0671222
0.0670812
0.067041
0.0670014
0.0669623
0.0669237
0.0668855
0.0668476
0.0668099
0.0667724
0.0667351
0.0666977
0.0666605
0.0666232
0.0665858
0.0774969
0.0769014
0.0763509
0.075843
0.0753753
0.0749454
0.0745508
0.0741891
0.0738578
0.0735545
0.0732772
0.0730235
0.0727915
0.0725792
0.0723849
0.0722067
0.0720432
0.0718931
0.0717551
0.071628
0.0715107
0.0714023
0.0713018
0.0712084
0.0711214
0.0710401
0.070964
0.0708924
0.070825
0.0707612
0.0707007
0.0706432
0.0705882
0.0705356
0.0704851
0.0704364
0.0703893
0.0703437
0.0702993
0.0702561
0.0702138
0.0701724
0.0701317
0.0700916
0.0700521
0.070013
0.0699743
0.0699359
0.0698977
0.0698597
0.0698218
0.0697839
0.0697461
0.0697082
0.0696703
0.0802572
0.0796582
0.0791043
0.0785933
0.0781228
0.0776904
0.0772936
0.07693
0.0765972
0.0762928
0.0760145
0.0757602
0.0755278
0.0753153
0.0751209
0.0749429
0.0747797
0.0746299
0.0744923
0.0743656
0.0742487
0.0741406
0.0740405
0.0739475
0.0738609
0.07378
0.0737043
0.0736331
0.073566
0.0735025
0.0734423
0.0733851
0.0733304
0.073278
0.0732277
0.0731792
0.0731324
0.0730869
0.0730427
0.0729996
0.0729575
0.0729162
0.0728756
0.0728356
0.0727961
0.0727571
0.0727184
0.0726801
0.0726419
0.0726039
0.072566
0.0725282
0.0724903
0.0724524
0.0724144
0.0826435
0.082046
0.0814933
0.0809834
0.080514
0.0800826
0.079687
0.0793246
0.078993
0.07869
0.0784132
0.0781604
0.0779297
0.0777189
0.0775263
0.0773501
0.0771887
0.0770407
0.0769047
0.0767796
0.0766643
0.0765578
0.0764591
0.0763675
0.0762822
0.0762025
0.076128
0.0760579
0.0759919
0.0759295
0.0758703
0.075814
0.0757602
0.0757087
0.0756593
0.0756116
0.0755654
0.0755207
0.0754772
0.0754348
0.0753933
0.0753526
0.0753126
0.0752732
0.0752343
0.0751958
0.0751577
0.0751198
0.0750822
0.0750447
0.0750073
0.0749699
0.0749325
0.074895
0.0748575
0.0846945
0.0841028
0.0835555
0.0830505
0.0825856
0.0821586
0.081767
0.0814086
0.0810809
0.0807816
0.0805084
0.0802593
0.080032
0.0798247
0.0796354
0.0794625
0.0793042
0.0791592
0.0790262
0.0789038
0.0787911
0.0786871
0.0785908
0.0785014
0.0784183
0.0783407
0.078268
0.0781998
0.0781356
0.0780749
0.0780173
0.0779625
0.0779102
0.0778601
0.077812
0.0777656
0.0777207
0.0776772
0.0776349
0.0775936
0.0775532
0.0775136
0.0774747
0.0774363
0.0773984
0.0773609
0.0773237
0.0772868
0.07725
0.0772134
0.0771769
0.0771404
0.0771039
0.0770673
0.0770306
0.0769938
0.0864429
0.085861
0.0853227
0.084826
0.0843689
0.0839491
0.0835643
0.0832124
0.0828908
0.0825974
0.0823299
0.0820861
0.081864
0.0816616
0.0814771
0.0813088
0.0811549
0.0810141
0.080885
0.0807664
0.0806572
0.0805565
0.0804634
0.0803771
0.0802968
0.080222
0.0801519
0.0800862
0.0800243
0.0799659
0.0799104
0.0798577
0.0798074
0.0797592
0.0797129
0.0796683
0.0796251
0.0795832
0.0795425
0.0795028
0.0794639
0.0794257
0.0793882
0.0793512
0.0793147
0.0792785
0.0792427
0.0792071
0.0791716
0.0791363
0.079101
0.0790658
0.0790305
0.0789951
0.0789597
0.0789241
0.0873489
0.0868229
0.0863376
0.085891
0.0854811
0.0851056
0.0847623
0.084449
0.0841633
0.0839032
0.0836664
0.083451
0.083255
0.0830765
0.0829139
0.0827655
0.0826298
0.0825056
0.0823916
0.0822868
0.0821903
0.0821011
0.0820185
0.0819417
0.0818702
0.0818034
0.0817407
0.0816817
0.0816259
0.0815732
0.0815229
0.081475
0.0814292
0.0813851
0.0813426
0.0813015
0.0812617
0.0812229
0.081185
0.081148
0.0811117
0.0810759
0.0810407
0.0810059
0.0809714
0.0809372
0.0809032
0.0808693
0.0808356
0.0808019
0.0807682
0.0807345
0.0807007
0.0806668
0.0806327
0.0885912
0.0880806
0.0876095
0.087176
0.0867783
0.0864143
0.0860817
0.0857784
0.0855022
0.085251
0.0850227
0.0848153
0.0846268
0.0844555
0.0842997
0.0841577
0.0840281
0.0839095
0.0838009
0.0837012
0.0836095
0.0835248
0.0834465
0.0833739
0.0833063
0.0832431
0.0831839
0.0831282
0.0830757
0.083026
0.0829787
0.0829335
0.0828904
0.0828489
0.0828089
0.0827702
0.0827327
0.0826962
0.0826605
0.0826256
0.0825914
0.0825577
0.0825245
0.0824917
0.0824591
0.0824269
0.0823948
0.0823628
0.0823309
0.0822991
0.0822673
0.0822354
0.0822034
0.0821713
0.0821391
0.0896315
0.0891392
0.088685
0.0882673
0.0878841
0.0875336
0.0872136
0.0869221
0.086657
0.0864162
0.0861977
0.0859994
0.0858196
0.0856564
0.0855082
0.0853734
0.0852504
0.0851382
0.0850355
0.0849413
0.0848549
0.0847752
0.0847016
0.0846333
0.0845698
0.0845106
0.0844551
0.084403
0.0843538
0.0843073
0.084263
0.0842208
0.0841803
0.0841415
0.084104
0.0840678
0.0840326
0.0839984
0.0839649
0.0839322
0.0839
0.0838684
0.0838371
0.0838062
0.0837756
0.0837452
0.0837149
0.0836848
0.0836547
0.0836246
0.0835945
0.0835643
0.0835341
0.0835037
0.0834732
0.0904447
0.0899729
0.0895378
0.0891376
0.0887708
0.0884355
0.0881298
0.0878516
0.0875989
0.0873698
0.0871622
0.0869742
0.086804
0.0866499
0.0865102
0.0863832
0.0862677
0.0861625
0.0860665
0.0859787
0.0858981
0.0858241
0.0857558
0.0856926
0.0856339
0.0855792
0.085528
0.08548
0.0854347
0.0853919
0.0853512
0.0853124
0.0852752
0.0852395
0.0852051
0.0851719
0.0851396
0.0851081
0.0850774
0.0850473
0.0850177
0.0849886
0.0849598
0.0849314
0.0849032
0.0848752
0.0848473
0.0848195
0.0847917
0.0847639
0.0847361
0.0847083
0.0846803
0.0846522
0.0846239
0.0905839
0.0901683
0.0897865
0.0894367
0.0891173
0.0888264
0.0885622
0.0883226
0.0881057
0.0879096
0.0877325
0.0875725
0.087428
0.0872972
0.0871788
0.0870714
0.0869738
0.086885
0.0868041
0.0867301
0.0866623
0.0865999
0.0865423
0.086489
0.0864395
0.0863933
0.08635
0.0863092
0.0862708
0.0862343
0.0861996
0.0861664
0.0861346
0.0861039
0.0860743
0.0860456
0.0860177
0.0859904
0.0859637
0.0859375
0.0859117
0.0858862
0.085861
0.085836
0.0858112
0.0857865
0.0857619
0.0857373
0.0857127
0.0856881
0.0856634
0.0856386
0.0856137
0.0855886
0.0906259
0.0902624
0.0899299
0.0896266
0.0893507
0.0891006
0.0888742
0.0886697
0.0884853
0.0883191
0.0881695
0.0880348
0.0879133
0.0878036
0.0877044
0.0876147
0.0875334
0.0874596
0.0873924
0.087331
0.0872748
0.0872231
0.0871754
0.0871313
0.0870902
0.0870519
0.087016
0.0869822
0.0869502
0.0869199
0.086891
0.0868633
0.0868368
0.0868111
0.0867863
0.0867623
0.0867388
0.0867158
0.0866933
0.0866712
0.0866494
0.0866278
0.0866065
0.0865853
0.0865642
0.0865432
0.0865222
0.0865012
0.0864802
0.0864591
0.086438
0.0864167
0.0863954
0.0909473
0.0906022
0.0902867
0.0899993
0.0897384
0.0895021
0.0892888
0.0890966
0.0889237
0.0887685
0.0886291
0.0885041
0.0883918
0.0882907
0.0881998
0.0881179
0.0880441
0.0879773
0.0879168
0.0878618
0.0878117
0.0877659
0.0877239
0.0876851
0.0876493
0.087616
0.0875849
0.0875558
0.0875284
0.0875025
0.0874779
0.0874544
0.087432
0.0874104
0.0873896
0.0873694
0.0873498
0.0873307
0.087312
0.0872936
0.0872756
0.0872577
0.0872401
0.0872226
0.0872052
0.0871879
0.0871707
0.0871534
0.0871362
0.0871189
0.0871016
0.0870841
0.0870666
0.0911609
0.0908337
0.0905349
0.090263
0.0900166
0.0897939
0.0895933
0.0894131
0.0892515
0.0891068
0.0889774
0.0888618
0.0887584
0.0886659
0.0885829
0.0885086
0.088442
0.088382
0.0883281
0.0882793
0.0882352
0.088195
0.0881584
0.0881249
0.0880941
0.0880656
0.0880392
0.0880147
0.0879917
0.08797
0.0879496
0.0879302
0.0879118
0.0878941
0.0878772
0.0878608
0.087845
0.0878296
0.0878146
0.0877999
0.0877855
0.0877713
0.0877572
0.0877434
0.0877296
0.0877159
0.0877023
0.0876887
0.0876751
0.0876615
0.0876479
0.0876342
0.0876204
0.0912883
0.0909784
0.0906956
0.0904387
0.0902062
0.0899967
0.0898083
0.0896396
0.0894888
0.0893543
0.0892345
0.0891279
0.089033
0.0889486
0.0888734
0.0888064
0.0887466
0.0886932
0.0886454
0.0886026
0.0885641
0.0885293
0.0884979
0.0884693
0.0884432
0.0884193
0.0883973
0.088377
0.0883582
0.0883406
0.088324
0.0883085
0.0882938
0.0882798
0.0882665
0.0882537
0.0882413
0.0882294
0.0882178
0.0882066
0.0881955
0.0881847
0.0881741
0.0881636
0.0881532
0.0881429
0.0881326
0.0881224
0.0881122
0.0881021
0.0880919
0.0880816
0.0880714
0.0913459
0.0910524
0.090785
0.0905425
0.0903234
0.0901264
0.0899498
0.089792
0.0896515
0.0895267
0.089416
0.089318
0.0892312
0.0891545
0.0890866
0.0890264
0.0889731
0.0889258
0.0888839
0.0888466
0.0888133
0.0887836
0.0887569
0.0887329
0.0887112
0.0886915
0.0886736
0.0886572
0.0886421
0.0886282
0.0886152
0.0886032
0.0885918
0.0885812
0.0885711
0.0885615
0.0885523
0.0885435
0.0885351
0.0885268
0.0885189
0.0885111
0.0885035
0.088496
0.0884886
0.0884813
0.0884741
0.0884669
0.0884598
0.0884527
0.0884455
0.0884384
0.0884312
0.0913463
0.0910685
0.0908158
0.0905869
0.0903807
0.0901955
0.0900301
0.0898828
0.089752
0.0896363
0.0895342
0.0894442
0.0893651
0.0892955
0.0892344
0.0891806
0.0891334
0.0890918
0.0890552
0.089023
0.0889945
0.0889694
0.088947
0.0889272
0.0889095
0.0888936
0.0888793
0.0888664
0.0888547
0.088844
0.0888342
0.0888252
0.0888169
0.0888092
0.088802
0.0887952
0.0887887
0.0887827
0.0887768
0.0887713
0.0887659
0.0887607
0.0887557
0.0887508
0.088746
0.0887413
0.0887367
0.0887321
0.0887275
0.088723
0.0887185
0.088714
0.0887095
0.0912994
0.0910365
0.0907977
0.0905818
0.0903876
0.0902138
0.0900589
0.0899214
0.0897998
0.0896927
0.0895986
0.0895162
0.0894441
0.0893812
0.0893263
0.0892784
0.0892367
0.0892004
0.0891687
0.0891411
0.089117
0.0890959
0.0890775
0.0890613
0.0890471
0.0890346
0.0890235
0.0890136
0.0890049
0.088997
0.0889899
0.0889835
0.0889777
0.0889725
0.0889676
0.0889632
0.088959
0.0889552
0.0889516
0.0889482
0.088945
0.0889419
0.088939
0.0889362
0.0889334
0.0889308
0.0889282
0.0889257
0.0889232
0.0889208
0.0889183
0.0889159
0.0889135
0.0912127
0.0909639
0.0907383
0.0905346
0.0903519
0.0901887
0.0900438
0.0899155
0.0898026
0.0897035
0.0896169
0.0895414
0.0894758
0.089419
0.0893698
0.0893272
0.0892905
0.0892589
0.0892316
0.0892082
0.0891879
0.0891705
0.0891555
0.0891425
0.0891313
0.0891216
0.0891132
0.0891059
0.0890996
0.089094
0.0890892
0.0890849
0.0890812
0.0890778
0.0890749
0.0890723
0.0890699
0.0890678
0.0890659
0.0890641
0.0890625
0.089061
0.0890597
0.0890584
0.0890572
0.0890561
0.089055
0.089054
0.089053
0.0890521
0.0890511
0.0890502
0.0890493
0.0910922
0.0908567
0.0906435
0.0904515
0.0902795
0.0901264
0.0899907
0.0898711
0.0897662
0.0896746
0.0895949
0.0895258
0.0894662
0.0894148
0.0893708
0.089333
0.0893008
0.0892733
0.0892499
0.08923
0.0892131
0.0891988
0.0891866
0.0891764
0.0891677
0.0891603
0.0891541
0.0891489
0.0891444
0.0891407
0.0891375
0.0891349
0.0891326
0.0891307
0.0891291
0.0891278
0.0891266
0.0891257
0.0891249
0.0891242
0.0891237
0.0891232
0.0891228
0.0891225
0.0891223
0.0891221
0.0891219
0.0891218
0.0891216
0.0891216
0.0891215
0.0891214
0.0891214
0.0909337
0.0907115
0.0905106
0.09033
0.0901687
0.0900255
0.089899
0.0897879
0.0896909
0.0896065
0.0895335
0.0894706
0.0894167
0.0893706
0.0893314
0.0892982
0.0892701
0.0892464
0.0892265
0.0892099
0.0891959
0.0891844
0.0891747
0.0891668
0.0891602
0.0891548
0.0891503
0.0891467
0.0891437
0.0891413
0.0891394
0.0891378
0.0891366
0.0891356
0.0891349
0.0891343
0.0891338
0.0891335
0.0891333
0.0891332
0.0891331
0.0891331
0.0891331
0.0891331
0.0891332
0.0891333
0.0891334
0.0891335
0.0891336
0.0891337
0.0891338
0.089134
0.0891341
0.0907274
0.0905186
0.0903301
0.0901612
0.0900106
0.0898773
0.08976
0.0896574
0.0895681
0.0894908
0.0894244
0.0893674
0.089319
0.0892778
0.0892431
0.089214
0.0891896
0.0891693
0.0891524
0.0891385
0.089127
0.0891175
0.0891098
0.0891035
0.0890984
0.0890943
0.0890909
0.0890882
0.089086
0.0890842
0.0890827
0.0890815
0.0890805
0.0890796
0.0890789
0.0890782
0.0890776
0.0890771
0.0890765
0.089076
0.0890755
0.0890749
0.0890744
0.0890738
0.0890732
0.0890726
0.0890719
0.0890712
0.0890705
0.0890697
0.0890689
0.089068
0.0890672
0.0904748
0.0902793
0.0901033
0.0899458
0.0898059
0.0896824
0.0895741
0.0894796
0.0893978
0.0893273
0.089267
0.0892156
0.0891721
0.0891355
0.0891048
0.0890792
0.0890579
0.0890404
0.0890259
0.089014
0.0890043
0.0889964
0.0889899
0.0889845
0.0889802
0.0889765
0.0889735
0.0889709
0.0889686
0.0889666
0.0889648
0.0889631
0.0889615
0.0889599
0.0889583
0.0889566
0.088955
0.0889533
0.0889515
0.0889496
0.0889477
0.0889456
0.0889435
0.0889413
0.088939
0.0889366
0.0889342
0.0889316
0.088929
0.0889262
0.0889234
0.0889205
0.0889175
0.0901726
0.0899905
0.0898268
0.0896808
0.0895514
0.0894375
0.0893379
0.0892513
0.0891767
0.0891126
0.0890581
0.0890118
0.0889728
0.0889402
0.088913
0.0888904
0.0888717
0.0888563
0.0888436
0.0888332
0.0888246
0.0888174
0.0888114
0.0888063
0.088802
0.0887981
0.0887946
0.0887914
0.0887883
0.0887853
0.0887823
0.0887792
0.0887761
0.0887729
0.0887696
0.0887661
0.0887624
0.0887586
0.0887547
0.0887505
0.0887462
0.0887417
0.088737
0.0887322
0.0887272
0.088722
0.0887167
0.0887112
0.0887055
0.0886997
0.0886937
0.0886876
0.0886813
0.0898169
0.0896481
0.0894968
0.0893621
0.089243
0.0891385
0.0890474
0.0889685
0.0889007
0.0888427
0.0887935
0.0887519
0.088717
0.0886879
0.0886636
0.0886434
0.0886267
0.0886129
0.0886013
0.0885917
0.0885835
0.0885764
0.0885702
0.0885646
0.0885595
0.0885546
0.0885499
0.0885452
0.0885405
0.0885356
0.0885306
0.0885254
0.0885199
0.0885142
0.0885082
0.088502
0.0884954
0.0884886
0.0884815
0.0884741
0.0884664
0.0884584
0.0884502
0.0884417
0.088433
0.0884239
0.0884147
0.0884051
0.0883954
0.0883853
0.0883751
0.0883646
0.0883538
0.0894032
0.0892477
0.0891085
0.088985
0.088876
0.0887807
0.0886978
0.0886263
0.0885649
0.0885127
0.0884684
0.088431
0.0883997
0.0883735
0.0883516
0.0883333
0.0883179
0.0883049
0.0882939
0.0882843
0.0882758
0.0882681
0.0882609
0.0882541
0.0882474
0.0882407
0.0882339
0.088227
0.0882197
0.0882122
0.0882042
0.0881959
0.0881872
0.0881781
0.0881686
0.0881586
0.0881482
0.0881373
0.0881261
0.0881144
0.0881024
0.0880899
0.0880771
0.0880638
0.0880502
0.0880363
0.0880219
0.0880072
0.0879922
0.0879768
0.087961
0.0879449
0.0879285
0.0889258
0.0887834
0.0886564
0.0885438
0.0884448
0.0883583
0.0882834
0.0882188
0.0881636
0.0881165
0.0880767
0.0880431
0.0880147
0.0879909
0.0879708
0.0879536
0.087939
0.0879262
0.0879149
0.0879046
0.0878951
0.087886
0.087877
0.0878681
0.0878591
0.0878498
0.0878401
0.08783
0.0878193
0.0878082
0.0877964
0.0877841
0.0877712
0.0877577
0.0877436
0.0877289
0.0877136
0.0876978
0.0876813
0.0876644
0.0876468
0.0876288
0.0876102
0.0875911
0.0875715
0.0875514
0.0875309
0.0875098
0.0874883
0.0874663
0.0874438
0.0874209
0.0873974
0.0883781
0.0882488
0.0881336
0.0880317
0.0879424
0.0878645
0.0877971
0.0877391
0.0876895
0.0876472
0.0876113
0.0875808
0.0875549
0.0875328
0.0875137
0.0874972
0.0874825
0.0874692
0.0874568
0.0874451
0.0874337
0.0874223
0.0874108
0.087399
0.0873867
0.0873738
0.0873603
0.0873461
0.0873311
0.0873154
0.0872989
0.0872816
0.0872634
0.0872445
0.0872248
0.0872044
0.0871832
0.0871612
0.0871385
0.0871151
0.087091
0.0870662
0.0870407
0.0870146
0.0869878
0.0869603
0.0869323
0.0869036
0.0868743
0.0868444
0.0868138
0.0867827
0.0867509
0.0877523
0.0876357
0.0875321
0.0874407
0.0873606
0.0872909
0.0872306
0.0871787
0.0871342
0.0870961
0.0870635
0.0870355
0.0870114
0.0869903
0.0869717
0.0869548
0.0869393
0.0869247
0.0869105
0.0868965
0.0868823
0.0868679
0.0868528
0.0868371
0.0868206
0.0868033
0.086785
0.0867657
0.0867454
0.0867241
0.0867017
0.0866783
0.0866539
0.0866285
0.0866022
0.0865748
0.0865465
0.0865173
0.0864871
0.0864561
0.0864242
0.0863914
0.0863578
0.0863233
0.0862881
0.086252
0.0862151
0.0861774
0.086139
0.0860998
0.0860597
0.0860189
0.0859773
0.0870388
0.0869347
0.0868424
0.086761
0.0866898
0.0866278
0.0865741
0.0865277
0.0864877
0.0864531
0.0864232
0.086397
0.0863738
0.086353
0.0863339
0.086316
0.0862988
0.0862819
0.086265
0.0862478
0.08623
0.0862114
0.0861919
0.0861713
0.0861496
0.0861267
0.0861026
0.0860771
0.0860504
0.0860224
0.0859931
0.0859626
0.0859307
0.0858977
0.0858634
0.085828
0.0857914
0.0857537
0.0857148
0.0856749
0.0856339
0.0855918
0.0855488
0.0855046
0.0854595
0.0854134
0.0853663
0.0853182
0.0852692
0.0852191
0.0851681
0.0851161
0.0850632
0.0862264
0.0861344
0.0860529
0.0859811
0.0859182
0.0858633
0.0858155
0.085774
0.0857378
0.085706
0.0856779
0.0856527
0.0856297
0.0856082
0.0855878
0.0855679
0.0855481
0.085528
0.0855074
0.0854859
0.0854634
0.0854397
0.0854146
0.0853881
0.0853601
0.0853306
0.0852994
0.0852667
0.0852324
0.0851966
0.0851591
0.0851202
0.0850797
0.0850378
0.0849944
0.0849496
0.0849034
0.0848558
0.084807
0.0847568
0.0847053
0.0846526
0.0845986
0.0845434
0.084487
0.0844294
0.0843705
0.0843105
0.0842493
0.0841869
0.0841233
0.0840584
0.0839924
0.0853377
0.0852565
0.0851844
0.0851209
0.0850649
0.0850159
0.0849727
0.0849347
0.084901
0.0848707
0.0848431
0.0848175
0.0847934
0.08477
0.0847469
0.0847237
0.0846999
0.0846753
0.0846496
0.0846225
0.0845939
0.0845637
0.0845317
0.0844978
0.0844621
0.0844245
0.0843849
0.0843435
0.0843001
0.0842549
0.0842078
0.084159
0.0841083
0.0840559
0.0840018
0.083946
0.0838886
0.0838296
0.083769
0.0837068
0.0836431
0.0835779
0.0835113
0.0834431
0.0833735
0.0833025
0.08323
0.083156
0.0830807
0.0830038
0.0829256
0.0828458
0.0827646
0.0843457
0.0842743
0.0842107
0.0841543
0.0841043
0.0840598
0.0840202
0.0839846
0.0839521
0.0839221
0.0838939
0.0838668
0.0838402
0.0838136
0.0837866
0.0837588
0.0837298
0.0836993
0.0836672
0.0836332
0.0835972
0.083559
0.0835187
0.0834761
0.0834313
0.0833841
0.0833347
0.0832831
0.0832292
0.0831731
0.0831148
0.0830545
0.0829921
0.0829276
0.0828612
0.0827928
0.0827225
0.0826503
0.0825763
0.0825004
0.0824228
0.0823434
0.0822622
0.0821793
0.0820946
0.0820083
0.0819202
0.0818303
0.0817388
0.0816455
0.0815505
0.0814537
0.0813552
0.083144
0.0830827
0.0830279
0.0829788
0.0829348
0.082895
0.0828587
0.0828251
0.0827936
0.0827635
0.0827341
0.0827048
0.0826752
0.0826448
0.0826131
0.0825799
0.0825448
0.0825076
0.0824682
0.0824264
0.082382
0.082335
0.0822854
0.0822331
0.0821781
0.0821205
0.0820602
0.0819973
0.0819319
0.0818639
0.0817934
0.0817205
0.0816453
0.0815677
0.0814878
0.0814057
0.0813214
0.081235
0.0811464
0.0810558
0.080963
0.0808682
0.0807714
0.0806725
0.0805717
0.0804688
0.0803639
0.080257
0.0801481
0.0800371
0.0799242
0.0798091
0.079692
0.0816636
0.0816129
0.0815671
0.0815255
0.0814874
0.0814521
0.081419
0.0813873
0.0813564
0.0813256
0.0812945
0.0812626
0.0812293
0.0811943
0.0811573
0.081118
0.0810761
0.0810314
0.0809839
0.0809335
0.0808799
0.0808233
0.0807636
0.0807007
0.0806348
0.0805658
0.0804938
0.0804188
0.0803409
0.0802602
0.0801767
0.0800904
0.0800015
0.07991
0.0798159
0.0797193
0.0796202
0.0795187
0.0794148
0.0793085
0.0791998
0.0790889
0.0789756
0.07886
0.0787422
0.078622
0.0784996
0.0783749
0.0782478
0.0781185
0.0779867
0.0778527
0.0777162
0.0798332
0.0797937
0.0797575
0.0797238
0.079692
0.0796616
0.0796318
0.0796021
0.0795718
0.0795406
0.0795079
0.0794733
0.0794364
0.0793969
0.0793546
0.0793091
0.0792605
0.0792084
0.079153
0.0790939
0.0790314
0.0789653
0.0788956
0.0788224
0.0787458
0.0786657
0.0785823
0.0784956
0.0784057
0.0783127
0.0782166
0.0781175
0.0780155
0.0779106
0.0778029
0.0776925
0.0775793
0.0774635
0.077345
0.077224
0.0771004
0.0769742
0.0768455
0.0767142
0.0765805
0.0764442
0.0763054
0.076164
0.0760201
0.0758737
0.0757246
0.075573
0.0754187
0.077555
0.077528
0.0775025
0.0774779
0.0774537
0.0774292
0.0774039
0.0773773
0.077349
0.0773184
0.0772853
0.0772493
0.0772102
0.0771676
0.0771214
0.0770714
0.0770176
0.0769598
0.0768981
0.0768324
0.0767627
0.0766891
0.0766116
0.0765302
0.0764451
0.0763564
0.076264
0.0761681
0.0760689
0.0759662
0.0758604
0.0757513
0.0756392
0.075524
0.0754059
0.0752849
0.075161
0.0750344
0.0749049
0.0747728
0.074638
0.0745004
0.0743603
0.0742174
0.074072
0.0739239
0.0737731
0.0736197
0.0734637
0.0733049
0.0731435
0.0729793
0.0728124
0.0746362
0.0746235
0.0746106
0.074597
0.0745821
0.0745655
0.0745468
0.0745255
0.0745012
0.0744737
0.0744426
0.0744077
0.0743689
0.0743259
0.0742788
0.0742273
0.0741714
0.0741112
0.0740466
0.0739778
0.0739046
0.0738273
0.0737459
0.0736605
0.0735711
0.073478
0.0733811
0.0732807
0.0731768
0.0730694
0.0729588
0.0728449
0.0727279
0.0726079
0.0724849
0.072359
0.0722303
0.0720988
0.0719645
0.0718275
0.0716879
0.0715456
0.0714006
0.0712531
0.071103
0.0709502
0.0707949
0.070637
0.0704764
0.0703133
0.0701474
0.0699789
0.0698078
0.0707655
0.0707698
0.0707723
0.0707726
0.0707702
0.0707648
0.0707561
0.0707437
0.0707275
0.0707071
0.0706824
0.0706532
0.0706195
0.0705813
0.0705383
0.0704907
0.0704385
0.0703818
0.0703205
0.0702548
0.0701847
0.0701104
0.070032
0.0699496
0.0698634
0.0697733
0.0696797
0.0695826
0.069482
0.0693782
0.0692713
0.0691612
0.0690482
0.0689324
0.0688137
0.0686923
0.0685683
0.0684417
0.0683125
0.0681808
0.0680467
0.0679102
0.0677713
0.06763
0.0674863
0.0673404
0.067192
0.0670414
0.0668883
0.066733
0.0665753
0.0664152
0.0662527
0.0663486
0.0663706
0.0663895
0.0664049
0.0664166
0.0664242
0.0664276
0.0664265
0.0664208
0.0664104
0.0663952
0.0663752
0.0663503
0.0663205
0.0662859
0.0662465
0.0662024
0.0661537
0.0661005
0.0660429
0.065981
0.065915
0.065845
0.0657711
0.0656935
0.0656124
0.0655278
0.0654399
0.0653488
0.0652547
0.0651576
0.0650577
0.0649551
0.0648499
0.0647421
0.0646318
0.0645192
0.0644042
0.064287
0.0641675
0.0640459
0.0639222
0.0637963
0.0636684
0.0635384
0.0634064
0.0632724
0.0631363
0.0629983
0.0628582
0.0627162
0.0625721
0.0624259
0.0622033
0.0622373
0.0622672
0.0622929
0.0623141
0.0623306
0.0623423
0.0623491
0.0623509
0.0623477
0.0623394
0.062326
0.0623076
0.0622843
0.0622561
0.062223
0.0621853
0.062143
0.0620963
0.0620453
0.0619902
0.061931
0.061868
0.0618013
0.061731
0.0616574
0.0615804
0.0615004
0.0614173
0.0613314
0.0612427
0.0611514
0.0610576
0.0609613
0.0608627
0.0607618
0.0606588
0.0605536
0.0604463
0.0603371
0.0602259
0.0601128
0.0599978
0.0598809
0.0597622
0.0596417
0.0595194
0.0593953
0.0592694
0.0591417
0.0590123
0.0588811
0.0587481
0.0580346
0.058078
0.0581168
0.0581508
0.0581798
0.0582037
0.0582225
0.0582361
0.0582445
0.0582478
0.0582459
0.0582389
0.0582269
0.0582099
0.0581881
0.0581616
0.0581305
0.058095
0.0580552
0.0580113
0.0579633
0.0579116
0.0578562
0.0577972
0.0577349
0.0576694
0.0576009
0.0575293
0.057455
0.0573781
0.0572986
0.0572166
0.0571323
0.0570458
0.0569571
0.0568664
0.0567736
0.056679
0.0565824
0.0564841
0.056384
0.0562822
0.0561787
0.0560735
0.0559667
0.0558583
0.0557483
0.0556368
0.0555236
0.0554089
0.0552926
0.0551748
0.0550554
0.0549344
0.0538582
0.0539088
0.0539543
0.0539948
0.05403
0.0540599
0.0540846
0.0541041
0.0541182
0.0541272
0.0541311
0.05413
0.0541239
0.054113
0.0540974
0.0540773
0.0540528
0.054024
0.0539911
0.0539543
0.0539137
0.0538695
0.0538218
0.0537708
0.0537167
0.0536596
0.0535996
0.0535369
0.0534716
0.0534038
0.0533337
0.0532613
0.0531868
0.0531103
0.0530318
0.0529514
0.0528692
0.0527853
0.0526997
0.0526124
0.0525236
0.0524333
0.0523414
0.0522481
0.0521533
0.0520571
0.0519595
0.0518605
0.0517602
0.0516584
0.0515553
0.0514508
0.051345
0.0512377
0.0496663
0.049722
0.0497725
0.0498178
0.0498577
0.0498923
0.0499217
0.0499458
0.0499648
0.0499787
0.0499876
0.0499917
0.049991
0.0499857
0.0499759
0.0499617
0.0499434
0.049921
0.0498948
0.0498649
0.0498314
0.0497946
0.0497545
0.0497113
0.0496652
0.0496163
0.0495648
0.0495108
0.0494544
0.0493957
0.0493348
0.0492719
0.0492071
0.0491404
0.049072
0.0490018
0.04893
0.0488567
0.0487818
0.0487055
0.0486278
0.0485487
0.0484683
0.0483866
0.0483036
0.0482194
0.0481339
0.0480472
0.0479593
0.0478702
0.0477799
0.0476884
0.0475957
0.0475018
0.045423
0.0454819
0.0455356
0.0455839
0.0456271
0.045665
0.0456978
0.0457255
0.0457483
0.0457661
0.0457792
0.0457877
0.0457916
0.0457912
0.0457865
0.0457778
0.0457651
0.0457487
0.0457287
0.0457052
0.0456784
0.0456485
0.0456156
0.0455799
0.0455414
0.0455004
0.045457
0.0454113
0.0453634
0.0453135
0.0452616
0.0452078
0.0451523
0.0450951
0.0450364
0.0449761
0.0449143
0.0448512
0.0447867
0.0447209
0.0446539
0.0445857
0.0445163
0.0444458
0.0443741
0.0443014
0.0442275
0.0441527
0.0440767
0.0439997
0.0439217
0.0438426
0.0437625
0.0436814
0.041051
0.041111
0.041166
0.0412158
0.0412605
0.0413003
0.0413351
0.0413652
0.0413905
0.0414112
0.0414275
0.0414394
0.0414471
0.0414507
0.0414504
0.0414464
0.0414387
0.0414276
0.0414131
0.0413954
0.0413748
0.0413513
0.041325
0.0412962
0.0412649
0.0412313
0.0411956
0.0411577
0.0411179
0.0410762
0.0410328
0.0409877
0.040941
0.0408929
0.0408433
0.0407924
0.0407403
0.0406869
0.0406323
0.0405765
0.0405197
0.0404619
0.040403
0.0403431
0.0402823
0.0402205
0.0401578
0.0400941
0.0400296
0.0399641
0.0398978
0.0398306
0.0397624
0.0396935
0.0363976
0.0364565
0.0365105
0.0365598
0.0366043
0.0366441
0.0366794
0.0367103
0.0367368
0.0367591
0.0367773
0.0367915
0.0368019
0.0368086
0.0368117
0.0368115
0.0368079
0.0368013
0.0367916
0.0367791
0.036764
0.0367462
0.036726
0.0367035
0.0366788
0.0366521
0.0366234
0.0365929
0.0365607
0.0365268
0.0364914
0.0364545
0.0364163
0.0363767
0.036336
0.036294
0.0362509
0.0362068
0.0361617
0.0361156
0.0360685
0.0360206
0.0359718
0.0359221
0.0358716
0.0358203
0.0357682
0.0357154
0.0356618
0.0356074
0.0355522
0.0354964
0.0354397
0.0353824
0.0311343
0.0311887
0.0312388
0.0312846
0.0313262
0.0313637
0.0313972
0.0314268
0.0314525
0.0314746
0.0314931
0.0315081
0.0315198
0.0315283
0.0315337
0.0315361
0.0315358
0.0315327
0.031527
0.0315189
0.0315084
0.0314958
0.031481
0.0314643
0.0314458
0.0314254
0.0314035
0.0313799
0.0313549
0.0313285
0.0313008
0.0312719
0.0312418
0.0312106
0.0311784
0.0311452
0.0311111
0.0310761
0.0310402
0.0310036
0.0309662
0.030928