/*--------------------------------*- C++ -*----------------------------------*\
  =========                 |
  \\      /  F ield         | OpenFOAM: The Open Source CFD Toolbox
   \\    /   O peration     | Website:  https://openfoam.org
    \\  /    A nd           | Version:  6
     \\/     M anipulation  |
\*---------------------------------------------------------------------------*/
FoamFile
{
    version     2.0;
    format      ascii;
    class       volScalarField;
    location    "0.08";
    object      nut;
}
// * * * * * * * * * * * * * * * * * * * * * * * * * * * * * * * * * * * * * //

dimensions      [0 2 -1 0 0 0 0];

internalField   nonuniform List<scalar> 
3081
(
1.67155e-05
1.66046e-05
1.65e-05
1.64016e-05
1.63091e-05
1.62222e-05
1.61407e-05
1.60642e-05
1.59925e-05
1.59253e-05
1.58622e-05
1.58029e-05
1.57471e-05
1.56945e-05
1.56444e-05
1.55978e-05
1.55541e-05
1.55128e-05
1.54736e-05
1.54364e-05
1.54009e-05
1.53668e-05
1.53341e-05
1.53026e-05
1.52721e-05
1.52425e-05
1.52137e-05
1.51857e-05
1.51583e-05
1.51314e-05
1.5105e-05
1.5079e-05
1.50533e-05
1.5028e-05
1.50029e-05
1.4978e-05
1.49533e-05
1.49288e-05
1.49043e-05
1.488e-05
1.48557e-05
1.48314e-05
1.48072e-05
1.4783e-05
1.47588e-05
1.47345e-05
1.47102e-05
1.46858e-05
1.46613e-05
1.46368e-05
1.46121e-05
1.45874e-05
1.45625e-05
1.45376e-05
1.45125e-05
1.44872e-05
1.44618e-05
0.000131462
0.000130155
0.000128932
0.000127791
0.000126728
0.000125739
0.00012482
0.000123967
0.000123176
0.000122442
0.000121762
0.000121132
0.000120547
0.000120003
0.000119482
0.000118975
0.000118503
0.000118066
0.00011766
0.000117284
0.000116933
0.000116605
0.000116297
0.000116008
0.000115734
0.000115475
0.000115228
0.000114992
0.000114765
0.000114548
0.000114338
0.000114134
0.000113937
0.000113744
0.000113556
0.000113371
0.00011319
0.000113011
0.000112835
0.000112661
0.000112488
0.000112316
0.000112146
0.000111976
0.000111807
0.000111638
0.000111469
0.000111299
0.00011113
0.00011096
0.00011079
0.000110619
0.000110448
0.000110275
0.000110102
0.000109927
0.000109752
0.000252414
0.000249855
0.000247458
0.000245219
0.00024313
0.000241186
0.000239379
0.000237702
0.000236147
0.000234707
0.000233373
0.000232138
0.000230995
0.000229935
0.000228945
0.000228014
0.000227131
0.000226312
0.00022555
0.000224841
0.00022418
0.000223564
0.000222987
0.000222445
0.000221936
0.000221455
0.000220999
0.000220567
0.000220154
0.00021976
0.000219381
0.000219017
0.000218665
0.000218324
0.000217993
0.00021767
0.000217354
0.000217045
0.000216742
0.000216442
0.000216147
0.000215855
0.000215566
0.000215279
0.000214993
0.000214709
0.000214426
0.000214142
0.00021386
0.000213577
0.000213293
0.000213009
0.000212724
0.000212437
0.00021215
0.000211861
0.00021157
0.000351726
0.000348238
0.000344965
0.000341901
0.000339038
0.000336371
0.000333888
0.000331582
0.000329443
0.00032746
0.000325624
0.000323924
0.000322351
0.000320893
0.000319541
0.00031828
0.000317098
0.000315995
0.00031497
0.000314017
0.00031313
0.000312301
0.000311527
0.000310801
0.000310119
0.000309477
0.00030887
0.000308295
0.000307749
0.000307228
0.000306729
0.000306251
0.000305791
0.000305346
0.000304916
0.000304498
0.000304091
0.000303693
0.000303303
0.00030292
0.000302544
0.000302172
0.000301805
0.000301441
0.00030108
0.000300722
0.000300365
0.000300009
0.000299654
0.000299299
0.000298944
0.000298588
0.000298232
0.000297874
0.000297515
0.000297154
0.000296791
0.000432772
0.000428638
0.00042475
0.000421104
0.000417693
0.000414508
0.000411541
0.000408781
0.000406218
0.00040384
0.000401637
0.000399597
0.000397708
0.000395959
0.000394339
0.000392834
0.000391432
0.000390123
0.000388907
0.000387777
0.000386725
0.000385744
0.000384827
0.000383969
0.000383164
0.000382406
0.000381691
0.000381015
0.000380373
0.000379763
0.00037918
0.000378622
0.000378086
0.00037757
0.000377071
0.000376588
0.000376118
0.00037566
0.000375213
0.000374774
0.000374343
0.000373919
0.0003735
0.000373086
0.000372676
0.000372269
0.000371865
0.000371462
0.00037106
0.00037066
0.000370259
0.000369858
0.000369456
0.000369054
0.00036865
0.000368244
0.000367836
0.000499651
0.000495094
0.000490797
0.00048676
0.000482977
0.00047944
0.000476139
0.000473065
0.000470207
0.000467553
0.000465092
0.000462811
0.000460699
0.000458744
0.000456932
0.000455252
0.000453692
0.000452237
0.000450886
0.000449631
0.000448462
0.000447373
0.000446357
0.000445405
0.000444513
0.000443674
0.000442884
0.000442137
0.000441429
0.000440757
0.000440116
0.000439503
0.000438916
0.00043835
0.000437805
0.000437278
0.000436766
0.000436268
0.000435782
0.000435306
0.000434839
0.000434381
0.000433929
0.000433482
0.000433041
0.000432603
0.000432168
0.000431735
0.000431304
0.000430875
0.000430445
0.000430016
0.000429586
0.000429156
0.000428724
0.00042829
0.000427854
0.000550613
0.000546071
0.000541794
0.000537778
0.000534017
0.000530502
0.000527224
0.000524173
0.000521337
0.000518704
0.000516263
0.000514002
0.000511907
0.000509966
0.000508168
0.000506499
0.000504947
0.000503504
0.000502164
0.000500918
0.000499756
0.000498672
0.000497658
0.000496708
0.000495815
0.000494974
0.000494181
0.000493429
0.000492716
0.000492037
0.000491388
0.000490767
0.00049017
0.000489595
0.000489039
0.0004885
0.000487977
0.000487466
0.000486967
0.000486479
0.000485999
0.000485526
0.00048506
0.000484599
0.000484143
0.00048369
0.00048324
0.000482791
0.000482345
0.000481899
0.000481453
0.000481007
0.00048056
0.000480112
0.000479662
0.000479209
0.000597376
0.000592712
0.000588309
0.000584169
0.000580285
0.000576651
0.000573257
0.000570094
0.000567151
0.000564418
0.000561881
0.000559529
0.00055735
0.000555331
0.00055346
0.000551725
0.000550113
0.000548615
0.000547223
0.000545929
0.000544724
0.000543599
0.000542547
0.000541562
0.000540637
0.000539766
0.000538944
0.000538167
0.00053743
0.000536728
0.000536059
0.000535418
0.000534803
0.000534211
0.000533639
0.000533086
0.000532548
0.000532025
0.000531514
0.000531013
0.000530522
0.000530039
0.000529563
0.000529092
0.000528626
0.000528164
0.000527705
0.000527249
0.000526794
0.00052634
0.000525886
0.000525432
0.000524978
0.000524522
0.000524065
0.000523604
0.000632265
0.000627835
0.000623659
0.000619735
0.000616057
0.000612618
0.000609409
0.000606421
0.000603642
0.000601062
0.000598669
0.00059645
0.000594394
0.000592489
0.000590723
0.000589084
0.00058756
0.000586145
0.000584828
0.000583602
0.000582459
0.00058139
0.000580389
0.000579449
0.000578565
0.000577732
0.000576943
0.000576196
0.000575485
0.000574807
0.000574159
0.000573537
0.000572938
0.000572361
0.000571802
0.00057126
0.000570732
0.000570217
0.000569713
0.000569219
0.000568733
0.000568254
0.000567782
0.000567314
0.00056685
0.00056639
0.000565932
0.000565476
0.00056502
0.000564566
0.000564111
0.000563656
0.000563199
0.000562741
0.000562278
0.000665913
0.000661521
0.000657376
0.000653475
0.000649815
0.000646388
0.000643187
0.000640203
0.000637427
0.000634847
0.000632453
0.000630232
0.000628174
0.000626267
0.000624499
0.000622859
0.000621335
0.000619919
0.000618602
0.000617376
0.000616232
0.000615163
0.000614162
0.000613224
0.00061234
0.000611508
0.000610721
0.000609975
0.000609266
0.00060859
0.000607944
0.000607324
0.000606728
0.000606154
0.000605598
0.000605059
0.000604534
0.000604022
0.000603522
0.000603031
0.000602549
0.000602074
0.000601606
0.000601142
0.000600682
0.000600226
0.000599773
0.000599321
0.00059887
0.00059842
0.00059797
0.000597519
0.000597067
0.000596613
0.000596153
0.000694523
0.000690231
0.000686174
0.000682351
0.000678758
0.000675391
0.000672243
0.000669306
0.00066657
0.000664027
0.000661666
0.000659475
0.000657444
0.000655562
0.000653817
0.000652199
0.000650696
0.000649299
0.000648001
0.000646791
0.000645663
0.000644609
0.000643622
0.000642697
0.000641827
0.000641007
0.000640231
0.000639497
0.000638799
0.000638134
0.000637499
0.000636889
0.000636304
0.000635739
0.000635193
0.000634663
0.000634148
0.000633646
0.000633155
0.000632674
0.000632201
0.000631735
0.000631276
0.000630821
0.000630371
0.000629924
0.00062948
0.000629037
0.000628595
0.000628155
0.000627714
0.000627272
0.000626829
0.000626384
0.000625932
0.000718785
0.000714643
0.000710722
0.000707021
0.000703539
0.000700272
0.000697213
0.000694358
0.000691696
0.00068922
0.00068692
0.000684786
0.000682807
0.000680973
0.000679273
0.000677696
0.000676232
0.000674872
0.000673607
0.000672429
0.000671331
0.000670304
0.000669344
0.000668443
0.000667596
0.000666798
0.000666044
0.00066533
0.000664652
0.000664005
0.000663387
0.000662795
0.000662226
0.000661678
0.000661148
0.000660633
0.000660134
0.000659646
0.00065917
0.000658703
0.000658244
0.000657792
0.000657346
0.000656905
0.000656468
0.000656035
0.000655604
0.000655174
0.000654746
0.000654318
0.000653891
0.000653462
0.000653033
0.0006526
0.000652163
0.000651714
0.000739248
0.000735306
0.000731557
0.000728016
0.000724679
0.000721544
0.000718607
0.000715862
0.000713302
0.000710919
0.000708705
0.00070665
0.000704744
0.000702978
0.00070134
0.000699823
0.000698414
0.000697105
0.000695887
0.000694753
0.000693696
0.000692708
0.000691784
0.000690918
0.000690104
0.000689336
0.000688612
0.000687925
0.000687273
0.000686652
0.000686059
0.00068549
0.000684943
0.000684417
0.000683907
0.000683414
0.000682933
0.000682465
0.000682008
0.000681559
0.000681119
0.000680685
0.000680257
0.000679833
0.000679414
0.000678997
0.000678583
0.000678171
0.000677759
0.000677348
0.000676937
0.000676525
0.000676112
0.000675696
0.000675276
0.000674848
0.000752652
0.000749119
0.000745768
0.000742604
0.000739628
0.000736837
0.000734228
0.000731793
0.000729525
0.000727418
0.000725461
0.000723646
0.000721965
0.000720406
0.000718962
0.000717622
0.000716376
0.000715217
0.000714139
0.000713133
0.000712194
0.000711316
0.000710492
0.000709718
0.000708989
0.000708301
0.000707649
0.000707029
0.000706439
0.000705876
0.000705336
0.000704817
0.000704316
0.000703833
0.000703364
0.000702908
0.000702463
0.000702028
0.000701602
0.000701184
0.000700771
0.000700364
0.000699962
0.000699563
0.000699167
0.000698773
0.00069838
0.000697988
0.000697597
0.000697206
0.000696814
0.00069642
0.000696024
0.000695624
0.000695216
0.000767094
0.000763779
0.000760635
0.000757665
0.00075487
0.000752248
0.000749794
0.000747504
0.00074537
0.000743387
0.000741546
0.000739838
0.000738256
0.00073679
0.000735431
0.000734171
0.000733
0.000731911
0.000730897
0.000729952
0.00072907
0.000728245
0.000727471
0.000726745
0.000726061
0.000725415
0.000724803
0.000724222
0.000723668
0.000723139
0.000722633
0.000722146
0.000721676
0.000721222
0.000720782
0.000720354
0.000719936
0.000719528
0.000719127
0.000718734
0.000718346
0.000717963
0.000717585
0.000717209
0.000716836
0.000716465
0.000716096
0.000715727
0.000715358
0.000714989
0.000714619
0.000714247
0.000713874
0.000713495
0.00071311
0.000779146
0.000776076
0.000773163
0.00077041
0.000767818
0.000765385
0.000763108
0.000760981
0.000759
0.000757157
0.000755446
0.000753859
0.000752389
0.000751026
0.000749764
0.000748593
0.000747505
0.000746492
0.00074555
0.000744672
0.000743853
0.000743086
0.000742368
0.000741693
0.000741057
0.000740457
0.000739888
0.000739347
0.000738832
0.00073834
0.000737868
0.000737414
0.000736977
0.000736553
0.000736142
0.000735742
0.000735352
0.00073497
0.000734595
0.000734226
0.000733863
0.000733504
0.000733148
0.000732795
0.000732445
0.000732096
0.000731748
0.0007314
0.000731052
0.000730704
0.000730355
0.000730004
0.000729651
0.000729293
0.000728927
0.000788526
0.000785726
0.000783059
0.000780542
0.00077817
0.000775943
0.000773857
0.000771908
0.000770092
0.000768403
0.000766835
0.000765382
0.000764035
0.000762787
0.000761631
0.000760558
0.000759562
0.000758636
0.000757775
0.000756973
0.000756225
0.000755525
0.00075487
0.000754255
0.000753675
0.000753128
0.000752609
0.000752117
0.000751647
0.000751199
0.000750769
0.000750355
0.000749955
0.000749569
0.000749193
0.000748828
0.000748471
0.000748122
0.000747779
0.000747441
0.000747108
0.000746779
0.000746452
0.000746128
0.000745806
0.000745485
0.000745165
0.000744845
0.000744525
0.000744204
0.000743882
0.000743558
0.000743231
0.0007429
0.00074256
0.000792742
0.000790359
0.000788077
0.000785927
0.000783907
0.000782015
0.000780247
0.000778601
0.00077707
0.000775649
0.000774333
0.000773116
0.000771989
0.000770945
0.000769977
0.00076908
0.000768248
0.000767475
0.000766756
0.000766086
0.000765462
0.000764877
0.000764329
0.000763813
0.000763327
0.000762867
0.00076243
0.000762015
0.000761618
0.000761238
0.000760872
0.000760519
0.000760178
0.000759847
0.000759525
0.00075921
0.000758902
0.0007586
0.000758303
0.000758009
0.000757719
0.000757432
0.000757146
0.000756862
0.000756579
0.000756297
0.000756015
0.000755732
0.000755449
0.000755164
0.000754878
0.000754588
0.000754294
0.00075399
0.000795643
0.000793602
0.000791668
0.00078985
0.000788147
0.000786557
0.000785077
0.000783703
0.000782429
0.000781251
0.000780163
0.000779158
0.000778228
0.000777368
0.000776572
0.000775835
0.000775153
0.000774521
0.000773933
0.000773386
0.000772875
0.000772397
0.000771949
0.000771527
0.000771129
0.000770752
0.000770394
0.000770053
0.000769726
0.000769413
0.000769111
0.000768819
0.000768537
0.000768262
0.000767994
0.000767732
0.000767475
0.000767222
0.000766973
0.000766727
0.000766483
0.000766241
0.000766
0.00076576
0.00076552
0.000765281
0.000765041
0.0007648
0.000764559
0.000764315
0.000764069
0.000763817
0.000763554
0.000799408
0.000797562
0.000795826
0.000794197
0.000792675
0.000791256
0.000789938
0.000788716
0.000787586
0.000786543
0.000785581
0.000784695
0.000783879
0.000783125
0.000782429
0.000781788
0.000781196
0.000780649
0.000780143
0.000779673
0.000779236
0.000778829
0.000778449
0.000778092
0.000777756
0.000777439
0.000777139
0.000776854
0.000776582
0.000776322
0.000776072
0.000775831
0.000775598
0.000775372
0.000775152
0.000774937
0.000774726
0.000774519
0.000774316
0.000774115
0.000773916
0.000773718
0.000773522
0.000773326
0.000773131
0.000772936
0.000772741
0.000772545
0.000772348
0.000772149
0.000771947
0.000771739
0.00077152
0.000801923
0.00080027
0.00079872
0.000797272
0.000795922
0.000794668
0.000793504
0.000792428
0.000791435
0.000790521
0.000789682
0.000788911
0.000788203
0.000787553
0.000786954
0.000786405
0.000785901
0.000785437
0.000785009
0.000784615
0.00078425
0.000783912
0.000783597
0.000783303
0.000783028
0.00078277
0.000782527
0.000782296
0.000782078
0.000781869
0.00078167
0.000781478
0.000781293
0.000781114
0.000780941
0.000780772
0.000780607
0.000780445
0.000780286
0.000780129
0.000779974
0.00077982
0.000779667
0.000779515
0.000779363
0.000779212
0.00077906
0.000778908
0.000778755
0.0007786
0.000778442
0.000778277
0.0007781
0.000803437
0.000801971
0.000800601
0.000799325
0.000798139
0.000797039
0.000796022
0.000795084
0.000794221
0.00079343
0.000792706
0.000792044
0.000791439
0.000790887
0.000790382
0.000789921
0.000789499
0.000789114
0.000788762
0.000788439
0.000788142
0.000787869
0.000787616
0.000787383
0.000787165
0.000786962
0.000786772
0.000786594
0.000786425
0.000786266
0.000786114
0.000785969
0.000785829
0.000785695
0.000785566
0.00078544
0.000785317
0.000785198
0.00078508
0.000784965
0.000784851
0.000784738
0.000784626
0.000784514
0.000784403
0.000784293
0.000784182
0.00078407
0.000783958
0.000783844
0.000783727
0.000783603
0.000783466
0.000804151
0.000802863
0.000801664
0.00080055
0.000799519
0.000798565
0.000797686
0.000796877
0.000796136
0.00079546
0.000794844
0.000794284
0.000793776
0.000793315
0.000792897
0.000792518
0.000792174
0.000791863
0.000791581
0.000791324
0.000791091
0.000790878
0.000790683
0.000790505
0.000790341
0.000790189
0.000790048
0.000789917
0.000789795
0.00078968
0.000789571
0.000789469
0.000789371
0.000789277
0.000789187
0.000789101
0.000789017
0.000788935
0.000788855
0.000788777
0.0007887
0.000788624
0.000788549
0.000788474
0.0007884
0.000788325
0.000788251
0.000788176
0.000788101
0.000788024
0.000787943
0.000787856
0.000787753
0.000804224
0.000803104
0.000802066
0.000801105
0.000800218
0.0007994
0.000798648
0.00079796
0.000797332
0.000796762
0.000796246
0.00079578
0.000795361
0.000794984
0.000794647
0.000794343
0.000794072
0.000793828
0.000793609
0.000793413
0.000793238
0.00079308
0.000792938
0.000792809
0.000792693
0.000792587
0.00079249
0.000792402
0.00079232
0.000792245
0.000792175
0.00079211
0.000792048
0.00079199
0.000791935
0.000791883
0.000791832
0.000791784
0.000791737
0.000791691
0.000791646
0.000791601
0.000791558
0.000791514
0.000791471
0.000791428
0.000791385
0.000791341
0.000791297
0.000791251
0.000791202
0.000791146
0.000791074
0.000803782
0.000802819
0.00080193
0.00080111
0.000800357
0.000799665
0.000799031
0.000798453
0.000797929
0.000797456
0.000797031
0.000796651
0.000796313
0.000796013
0.000795748
0.000795513
0.000795306
0.000795123
0.000794962
0.000794821
0.000794696
0.000794587
0.000794491
0.000794406
0.000794332
0.000794266
0.000794208
0.000794156
0.000794109
0.000794068
0.000794031
0.000793997
0.000793966
0.000793938
0.000793912
0.000793888
0.000793865
0.000793844
0.000793823
0.000793804
0.000793785
0.000793766
0.000793748
0.00079373
0.000793712
0.000793694
0.000793676
0.000793657
0.000793638
0.000793618
0.000793594
0.000793562
0.000793514
0.000802925
0.000802106
0.000801354
0.000800665
0.000800033
0.000799456
0.000798929
0.000798452
0.000798022
0.000797637
0.000797295
0.000796992
0.000796727
0.000796495
0.000796294
0.000796119
0.000795969
0.00079584
0.00079573
0.000795636
0.000795556
0.000795489
0.000795432
0.000795385
0.000795346
0.000795313
0.000795287
0.000795265
0.000795247
0.000795233
0.000795222
0.000795214
0.000795207
0.000795202
0.000795199
0.000795197
0.000795195
0.000795195
0.000795195
0.000795195
0.000795195
0.000795196
0.000795196
0.000795197
0.000795197
0.000795198
0.000795197
0.000795197
0.000795196
0.000795193
0.000795187
0.000795173
0.000795143
0.000801731
0.000801044
0.000800416
0.000799844
0.000799322
0.000798848
0.000798418
0.000798031
0.000797686
0.00079738
0.000797111
0.000796877
0.000796676
0.000796504
0.000796359
0.000796237
0.000796135
0.000796052
0.000795984
0.00079593
0.000795887
0.000795855
0.000795831
0.000795814
0.000795803
0.000795797
0.000795795
0.000795797
0.000795801
0.000795808
0.000795816
0.000795826
0.000795837
0.000795848
0.000795861
0.000795873
0.000795886
0.000795899
0.000795912
0.000795925
0.000795937
0.00079595
0.000795962
0.000795974
0.000795985
0.000795996
0.000796006
0.000796016
0.000796025
0.000796033
0.000796037
0.000796034
0.000796015
0.00080017
0.000799607
0.000799097
0.000798635
0.000798216
0.000797839
0.0007975
0.000797198
0.000796931
0.000796699
0.000796499
0.000796329
0.000796186
0.000796069
0.000795974
0.000795899
0.000795841
0.000795797
0.000795767
0.000795747
0.000795736
0.000795732
0.000795735
0.000795742
0.000795754
0.000795768
0.000795785
0.000795804
0.000795824
0.000795845
0.000795866
0.000795888
0.000795909
0.000795931
0.000795952
0.000795973
0.000795993
0.000796012
0.000796031
0.00079605
0.000796067
0.000796084
0.0007961
0.000796116
0.00079613
0.000796144
0.000796157
0.00079617
0.000796181
0.000796191
0.000796197
0.000796196
0.000796181
0.000798127
0.000797685
0.000797286
0.000796929
0.00079661
0.000796324
0.000796071
0.000795849
0.000795656
0.000795492
0.000795355
0.000795243
0.000795153
0.000795084
0.000795033
0.000794998
0.000794976
0.000794965
0.000794964
0.00079497
0.000794983
0.000795
0.00079502
0.000795044
0.000795069
0.000795095
0.000795122
0.000795148
0.000795174
0.0007952
0.000795224
0.000795248
0.00079527
0.000795291
0.00079531
0.000795328
0.000795345
0.00079536
0.000795374
0.000795387
0.000795398
0.000795407
0.000795416
0.000795423
0.000795428
0.000795433
0.000795436
0.000795438
0.000795439
0.000795437
0.000795432
0.00079542
0.000795396
0.000795599
0.000795272
0.000794981
0.000794723
0.000794496
0.000794296
0.000794123
0.000793973
0.000793848
0.000793745
0.000793663
0.000793601
0.000793557
0.000793528
0.000793513
0.000793509
0.000793515
0.000793528
0.000793548
0.000793571
0.000793598
0.000793627
0.000793657
0.000793686
0.000793715
0.000793743
0.00079377
0.000793794
0.000793816
0.000793836
0.000793854
0.000793869
0.000793881
0.000793891
0.000793898
0.000793902
0.000793904
0.000793904
0.000793901
0.000793896
0.000793889
0.000793879
0.000793868
0.000793854
0.000793839
0.000793822
0.000793802
0.000793781
0.000793758
0.000793732
0.000793703
0.000793667
0.000793618
0.000792539
0.000792323
0.000792135
0.000791971
0.000791831
0.000791711
0.00079161
0.000791528
0.000791463
0.000791414
0.00079138
0.000791361
0.000791354
0.000791358
0.000791371
0.00079139
0.000791416
0.000791445
0.000791476
0.000791508
0.00079154
0.000791571
0.000791601
0.000791627
0.000791651
0.000791671
0.000791687
0.0007917
0.000791708
0.000791712
0.000791713
0.000791708
0.0007917
0.000791688
0.000791672
0.000791652
0.000791629
0.000791601
0.000791571
0.000791537
0.0007915
0.000791459
0.000791416
0.00079137
0.000791321
0.000791269
0.000791215
0.000791158
0.000791098
0.000791035
0.000790967
0.000790893
0.000790807
0.000788896
0.000788787
0.000788696
0.000788621
0.000788562
0.000788516
0.000788482
0.00078846
0.000788448
0.000788447
0.000788455
0.000788471
0.000788493
0.000788522
0.000788555
0.00078859
0.000788626
0.000788662
0.000788696
0.000788728
0.000788757
0.000788781
0.000788801
0.000788815
0.000788823
0.000788826
0.000788823
0.000788813
0.000788797
0.000788776
0.000788748
0.000788715
0.000788675
0.000788631
0.00078858
0.000788525
0.000788465
0.000788399
0.000788329
0.000788255
0.000788176
0.000788093
0.000788006
0.000787914
0.000787819
0.000787721
0.000787618
0.000787512
0.000787403
0.000787289
0.00078717
0.000787044
0.000786905
0.000784606
0.0007846
0.000784602
0.000784611
0.000784628
0.00078465
0.000784677
0.000784708
0.000784743
0.000784782
0.000784824
0.000784868
0.000784913
0.000784958
0.000785002
0.000785044
0.000785083
0.000785117
0.000785146
0.000785169
0.000785185
0.000785193
0.000785193
0.000785185
0.000785169
0.000785144
0.000785111
0.000785069
0.000785019
0.000784961
0.000784895
0.000784822
0.00078474
0.000784652
0.000784556
0.000784454
0.000784345
0.00078423
0.000784109
0.000783982
0.00078385
0.000783711
0.000783568
0.000783419
0.000783265
0.000783106
0.000782943
0.000782775
0.000782601
0.000782423
0.000782239
0.000782046
0.000781841
0.000779599
0.000779691
0.000779781
0.00077987
0.000779957
0.000780041
0.000780122
0.0007802
0.000780275
0.000780347
0.000780415
0.000780479
0.000780538
0.000780592
0.00078064
0.00078068
0.000780713
0.000780736
0.00078075
0.000780754
0.000780748
0.00078073
0.000780701
0.000780661
0.00078061
0.000780548
0.000780474
0.00078039
0.000780295
0.00078019
0.000780075
0.00077995
0.000779815
0.000779672
0.000779519
0.000779358
0.000779189
0.000779012
0.000778828
0.000778636
0.000778437
0.000778231
0.000778018
0.000777798
0.000777572
0.00077734
0.000777101
0.000776856
0.000776605
0.000776348
0.000776083
0.000775809
0.000775522
0.000773792
0.000773977
0.00077415
0.000774312
0.000774463
0.000774603
0.000774732
0.00077485
0.000774957
0.000775054
0.00077514
0.000775216
0.000775282
0.000775336
0.000775378
0.000775408
0.000775425
0.000775428
0.000775418
0.000775393
0.000775355
0.000775301
0.000775233
0.000775151
0.000775054
0.000774944
0.000774819
0.000774681
0.00077453
0.000774366
0.00077419
0.000774002
0.000773803
0.000773592
0.000773371
0.000773139
0.000772897
0.000772645
0.000772384
0.000772114
0.000771835
0.000771548
0.000771252
0.000770947
0.000770635
0.000770315
0.000769986
0.00076965
0.000769307
0.000768955
0.000768594
0.000768223
0.000767838
0.000767088
0.000767361
0.000767611
0.00076784
0.000768049
0.000768237
0.000768406
0.000768556
0.000768688
0.000768801
0.000768898
0.000768977
0.000769039
0.000769084
0.000769112
0.000769121
0.000769113
0.000769086
0.000769042
0.000768978
0.000768897
0.000768797
0.000768679
0.000768543
0.00076839
0.000768219
0.000768032
0.000767829
0.00076761
0.000767376
0.000767126
0.000766863
0.000766586
0.000766295
0.000765992
0.000765676
0.000765348
0.000765008
0.000764657
0.000764295
0.000763922
0.000763539
0.000763145
0.000762741
0.000762327
0.000761904
0.00076147
0.000761027
0.000760575
0.000760112
0.000759639
0.000759154
0.000758653
0.000759375
0.000759729
0.000760049
0.000760337
0.000760596
0.000760825
0.000761025
0.000761199
0.000761346
0.000761468
0.000761565
0.000761638
0.000761687
0.000761713
0.000761715
0.000761694
0.00076165
0.000761583
0.000761493
0.000761379
0.000761244
0.000761086
0.000760906
0.000760705
0.000760483
0.000760241
0.000759979
0.000759698
0.000759398
0.00075908
0.000758745
0.000758393
0.000758024
0.00075764
0.000757241
0.000756827
0.000756399
0.000755957
0.000755501
0.000755032
0.00075455
0.000754055
0.000753548
0.000753028
0.000752497
0.000751954
0.000751398
0.000750831
0.000750252
0.000749662
0.000749058
0.00074844
0.000747806
0.000750519
0.000750945
0.000751326
0.000751666
0.000751965
0.000752225
0.000752448
0.000752636
0.000752788
0.000752908
0.000752995
0.000753051
0.000753076
0.000753072
0.000753038
0.000752975
0.000752884
0.000752764
0.000752616
0.000752441
0.000752239
0.000752011
0.000751757
0.000751478
0.000751174
0.000750847
0.000750497
0.000750124
0.00074973
0.000749315
0.000748879
0.000748424
0.00074795
0.000747458
0.000746948
0.000746421
0.000745877
0.000745316
0.00074474
0.000744148
0.00074354
0.000742918
0.00074228
0.000741628
0.000740962
0.000740281
0.000739586
0.000738876
0.000738153
0.000737414
0.000736661
0.000735892
0.000735103
0.000740757
0.000741239
0.000741666
0.00074204
0.000742365
0.000742641
0.00074287
0.000743055
0.000743198
0.000743299
0.000743361
0.000743385
0.000743371
0.000743321
0.000743236
0.000743115
0.000742961
0.000742773
0.000742552
0.000742299
0.000742014
0.0007417
0.000741355
0.000740981
0.000740579
0.00074015
0.000739694
0.000739213
0.000738707
0.000738177
0.000737623
0.000737047
0.000736449
0.00073583
0.00073519
0.00073453
0.00073385
0.000733152
0.000732434
0.000731698
0.000730944
0.000730172
0.000729383
0.000728576
0.000727752
0.00072691
0.000726052
0.000725176
0.000724283
0.000723372
0.000722444
0.000721496
0.000720528
0.000729789
0.000730312
0.00073077
0.000731164
0.000731498
0.000731774
0.000731996
0.000732164
0.000732281
0.00073235
0.000732371
0.000732347
0.000732279
0.000732168
0.000732016
0.000731822
0.000731589
0.000731316
0.000731006
0.000730659
0.000730276
0.000729858
0.000729406
0.000728921
0.000728404
0.000727855
0.000727277
0.000726669
0.000726033
0.000725369
0.000724679
0.000723963
0.000723222
0.000722456
0.000721667
0.000720854
0.000720019
0.000719161
0.000718281
0.00071738
0.000716458
0.000715515
0.00071455
0.000713566
0.00071256
0.000711534
0.000710488
0.000709421
0.000708333
0.000707225
0.000706095
0.000704943
0.000703766
0.000716408
0.000716967
0.000717449
0.000717856
0.000718194
0.000718463
0.000718668
0.000718811
0.000718895
0.000718922
0.000718893
0.000718812
0.000718679
0.000718497
0.000718266
0.000717988
0.000717665
0.000717297
0.000716886
0.000716432
0.000715938
0.000715405
0.000714833
0.000714223
0.000713577
0.000712897
0.000712182
0.000711434
0.000710654
0.000709844
0.000709003
0.000708133
0.000707234
0.000706308
0.000705354
0.000704374
0.000703368
0.000702337
0.00070128
0.000700198
0.000699092
0.000697962
0.000696807
0.000695628
0.000694426
0.000693199
0.000691948
0.000690673
0.000689374
0.00068805
0.000686701
0.000685326
0.000683924
0.00069979
0.000700379
0.000700877
0.000701291
0.000701623
0.000701877
0.000702057
0.000702165
0.000702206
0.00070218
0.000702092
0.000701942
0.000701734
0.000701469
0.000701149
0.000700775
0.00070035
0.000699875
0.000699351
0.00069878
0.000698163
0.000697501
0.000696797
0.000696051
0.000695265
0.000694439
0.000693576
0.000692676
0.00069174
0.00069077
0.000689766
0.00068873
0.000687661
0.000686562
0.000685431
0.000684271
0.000683082
0.000681864
0.000680617
0.000679342
0.000678039
0.000676708
0.00067535
0.000673964
0.000672551
0.00067111
0.000669641
0.000668144
0.00066662
0.000665067
0.000663485
0.000661873
0.000660231
0.000679063
0.000679674
0.000680184
0.000680598
0.00068092
0.000681153
0.000681302
0.000681371
0.000681363
0.00068128
0.000681127
0.000680905
0.000680617
0.000680265
0.000679851
0.000679379
0.000678849
0.000678263
0.000677623
0.000676932
0.00067619
0.000675399
0.000674561
0.000673678
0.00067275
0.00067178
0.000670768
0.000669716
0.000668625
0.000667497
0.000666331
0.00066513
0.000663894
0.000662623
0.000661319
0.000659983
0.000658614
0.000657213
0.00065578
0.000654316
0.000652822
0.000651296
0.00064974
0.000648154
0.000646536
0.000644888
0.000643208
0.000641498
0.000639756
0.000637983
0.000636177
0.000634338
0.000632464
0.000653011
0.000653643
0.000654163
0.000654577
0.00065489
0.000655105
0.000655227
0.000655261
0.000655209
0.000655076
0.000654864
0.000654578
0.000654219
0.000653791
0.000653296
0.000652736
0.000652115
0.000651433
0.000650693
0.000649897
0.000649047
0.000648146
0.000647194
0.000646193
0.000645145
0.000644052
0.000642915
0.000641736
0.000640515
0.000639254
0.000637955
0.000636617
0.000635242
0.000633831
0.000632385
0.000630904
0.000629389
0.00062784
0.000626257
0.000624642
0.000622993
0.000621312
0.000619599
0.000617852
0.000616073
0.000614262
0.000612417
0.000610539
0.000608628
0.000606683
0.000604703
0.000602688
0.000600637
0.00061923
0.000619879
0.000620408
0.000620824
0.000621132
0.000621335
0.000621439
0.000621448
0.000621366
0.000621197
0.000620945
0.000620613
0.000620205
0.000619723
0.000619171
0.000618551
0.000617866
0.000617118
0.00061631
0.000615444
0.000614522
0.000613546
0.000612518
0.000611441
0.000610315
0.000609143
0.000607926
0.000606665
0.000605363
0.00060402
0.000602638
0.000601217
0.000599758
0.000598264
0.000596733
0.000595167
0.000593567
0.000591933
0.000590266
0.000588565
0.000586831
0.000585064
0.000583265
0.000581433
0.000579568
0.000577671
0.00057574
0.000573777
0.000571779
0.000569748
0.000567683
0.000565583
0.000563447
0.000573708
0.000574367
0.000574904
0.000575326
0.000575637
0.000575842
0.000575945
0.000575952
0.000575866
0.000575691
0.000575433
0.000575093
0.000574677
0.000574186
0.000573625
0.000572996
0.000572302
0.000571546
0.00057073
0.000569857
0.000568929
0.000567949
0.000566917
0.000565837
0.000564711
0.000563539
0.000562324
0.000561068
0.000559771