/*--------------------------------*- C++ -*----------------------------------*\
  =========                 |
  \\      /  F ield         | OpenFOAM: The Open Source CFD Toolbox
   \\    /   O peration     | Website:  https://openfoam.org
    \\  /    A nd           | Version:  6
     \\/     M anipulation  |
\*---------------------------------------------------------------------------*/
FoamFile
{
    version     2.0;
    format      ascii;
    class       volScalarField;
    location    "0.08";
    object      p;
}
// * * * * * * * * * * * * * * * * * * * * * * * * * * * * * * * * * * * * * //

dimensions      [0 2 -2 0 0 0 0];

internalField   nonuniform List<scalar> 
3081
(
0.203191
0.202345
0.201522
0.200723
0.19995
0.199203
0.198482
0.197789
0.197122
0.196483
0.195869
0.195283
0.194722
0.194188
0.193681
0.193194
0.192726
0.192278
0.19185
0.191442
0.191054
0.190684
0.190332
0.189996
0.189676
0.18937
0.189079
0.1888
0.188534
0.188279
0.188034
0.1878
0.187575
0.187358
0.187149
0.186948
0.186754
0.186565
0.186383
0.186206
0.186033
0.185865
0.1857
0.18554
0.185382
0.185227
0.185075
0.184925
0.184777
0.184631
0.184486
0.184343
0.184201
0.18406
0.183921
0.183782
0.183643
0.202416
0.201648
0.200896
0.200162
0.199448
0.198754
0.198082
0.197431
0.196804
0.196199
0.195618
0.195059
0.194522
0.194008
0.193514
0.193043
0.192592
0.192161
0.191749
0.191355
0.190978
0.190618
0.190274
0.189945
0.189631
0.189331
0.189044
0.188769
0.188506
0.188254
0.188012
0.18778
0.187557
0.187342
0.187134
0.186934
0.18674
0.186553
0.186371
0.186194
0.186022
0.185854
0.18569
0.185529
0.185371
0.185217
0.185064
0.184914
0.184766
0.18462
0.184475
0.184332
0.18419
0.184049
0.183909
0.18377
0.183632
0.201548
0.200867
0.200193
0.19953
0.19888
0.198244
0.197625
0.197023
0.196439
0.195873
0.195327
0.194799
0.194291
0.193801
0.193331
0.19288
0.192448
0.192034
0.191636
0.191255
0.19089
0.19054
0.190205
0.189885
0.189578
0.189285
0.189003
0.188733
0.188475
0.188226
0.187988
0.187758
0.187537
0.187324
0.187119
0.18692
0.186728
0.186541
0.18636
0.186184
0.186013
0.185845
0.185681
0.185521
0.185364
0.185209
0.185057
0.184907
0.184759
0.184613
0.184468
0.184325
0.184183
0.184042
0.183902
0.183763
0.183624
0.200713
0.200107
0.199504
0.198905
0.198314
0.197733
0.197163
0.196606
0.196063
0.195534
0.195022
0.194525
0.194044
0.19358
0.193132
0.192701
0.192287
0.191889
0.191506
0.191139
0.190786
0.190448
0.190123
0.189812
0.189514
0.189227
0.188952
0.188688
0.188435
0.188191
0.187956
0.18773
0.187512
0.187302
0.187099
0.186902
0.186712
0.186527
0.186347
0.186173
0.186002
0.185835
0.185673
0.185513
0.185356
0.185202
0.18505
0.184901
0.184753
0.184607
0.184462
0.184319
0.184177
0.184036
0.183896
0.183757
0.183619
0.199946
0.199405
0.198861
0.198318
0.197779
0.197245
0.196719
0.196202
0.195695
0.195201
0.194719
0.19425
0.193795
0.193355
0.192928
0.192517
0.19212
0.191738
0.19137
0.191016
0.190675
0.190348
0.190034
0.189732
0.189441
0.189162
0.188894
0.188636
0.188388
0.188149
0.187918
0.187696
0.187482
0.187275
0.187074
0.18688
0.186692
0.186509
0.186331
0.186158
0.185989
0.185823
0.185662
0.185503
0.185347
0.185193
0.185042
0.184893
0.184746
0.1846
0.184456
0.184313
0.184171
0.184031
0.183891
0.183752
0.183613
0.199225
0.19874
0.19825
0.197756
0.197262
0.196771
0.196284
0.195804
0.195331
0.194868
0.194415
0.193972
0.193542
0.193124
0.192718
0.192326
0.191946
0.19158
0.191226
0.190885
0.190557
0.190241
0.189937
0.189644
0.189362
0.18909
0.188829
0.188577
0.188335
0.188101
0.187875
0.187657
0.187447
0.187243
0.187046
0.186855
0.186669
0.186488
0.186312
0.186141
0.185973
0.185809
0.185649
0.185491
0.185336
0.185184
0.185033
0.184885
0.184738
0.184593
0.184449
0.184306
0.184165
0.184025
0.183885
0.183746
0.183608
0.198103
0.197659
0.19721
0.196758
0.196306
0.195855
0.195409
0.194968
0.194533
0.194107
0.19369
0.193283
0.192887
0.192501
0.192127
0.191765
0.191414
0.191075
0.190747
0.190431
0.190126
0.189832
0.189549
0.189275
0.189012
0.188758
0.188513
0.188276
0.188048
0.187827
0.187614
0.187408
0.187208
0.187014
0.186826
0.186643
0.186464
0.186291
0.186121
0.185956
0.185793
0.185634
0.185478
0.185324
0.185172
0.185023
0.184875
0.184729
0.184585
0.184442
0.1843
0.184158
0.184018
0.183879
0.183741
0.183603
0.197485
0.197085
0.196676
0.196262
0.195846
0.195429
0.195014
0.194603
0.194196
0.193796
0.193403
0.193019
0.192643
0.192277
0.191921
0.191575
0.19124
0.190915
0.190601
0.190297
0.190004
0.18972
0.189447
0.189182
0.188927
0.188681
0.188442
0.188212
0.18799
0.187774
0.187566
0.187364
0.187168
0.186978
0.186793
0.186613
0.186438
0.186267
0.186099
0.185936
0.185775
0.185618
0.185463
0.18531
0.18516
0.185012
0.184865
0.18472
0.184576
0.184434
0.184292
0.184152
0.184012
0.183873
0.183735
0.183597
0.196521
0.19615
0.195772
0.195389
0.195004
0.194619
0.194235
0.193855
0.19348
0.19311
0.192748
0.192393
0.192046
0.191708
0.191379
0.191059
0.190749
0.190448
0.190157
0.189875
0.189602
0.189338
0.189083
0.188836
0.188598
0.188367
0.188143
0.187927
0.187717
0.187514
0.187317
0.187125
0.186939
0.186758
0.186581
0.186408
0.18624
0.186075
0.185914
0.185755
0.1856
0.185447
0.185296
0.185147
0.184999
0.184854
0.18471
0.184567
0.184425
0.184284
0.184144
0.184005
0.183867
0.183729
0.183592
0.195966
0.19563
0.195284
0.194933
0.194578
0.194221
0.193864
0.19351
0.193158
0.192812
0.19247
0.192135
0.191807
0.191487
0.191175
0.19087
0.190575
0.190288
0.190009
0.189739
0.189477
0.189223
0.188978
0.18874
0.188509
0.188286
0.188069
0.187859
0.187655
0.187458
0.187265
0.187078
0.186896
0.186719
0.186546
0.186377
0.186211
0.186049
0.18589
0.185734
0.18558
0.185429
0.185279
0.185132
0.184986
0.184842
0.184699
0.184557
0.184416
0.184276
0.184136
0.183998
0.18386
0.183723
0.183586
0.195416
0.195113
0.194799
0.194477
0.19415
0.193821
0.19349
0.19316
0.192832
0.192507
0.192187
0.191872
0.191562
0.191259
0.190964
0.190675
0.190394
0.19012
0.189855
0.189597
0.189346
0.189103
0.188867
0.188638
0.188416
0.1882
0.187991
0.187787
0.18759
0.187397
0.187211
0.187028
0.186851
0.186677
0.186508
0.186342
0.18618
0.186021
0.185864
0.18571
0.185559
0.18541
0.185262
0.185116
0.184972
0.184829
0.184687
0.184546
0.184406
0.184267
0.184128
0.18399
0.183853
0.183716
0.18358
0.19487
0.194597
0.194313
0.19402
0.193721
0.193417
0.193111
0.192805
0.1925
0.192197
0.191897
0.191601
0.19131
0.191025
0.190746
0.190473
0.190207
0.189947
0.189694
0.189448
0.189209
0.188976
0.18875
0.188531
0.188317
0.188109
0.187908
0.187711
0.18752
0.187334
0.187152
0.186975
0.186802
0.186633
0.186468
0.186306
0.186147
0.18599
0.185837
0.185686
0.185536
0.185389
0.185243
0.185099
0.184956
0.184815
0.184674
0.184534
0.184395
0.184257
0.18412
0.183982
0.183846
0.183709
0.183573
0.183438
0.194325
0.194083
0.193827
0.193561
0.193288
0.19301
0.192729
0.192446
0.192163
0.191881
0.191601
0.191325
0.191052
0.190785
0.190522
0.190265
0.190013
0.189767
0.189528
0.189294
0.189066
0.188845
0.188629
0.188419
0.188214
0.188015
0.18782
0.187631
0.187447
0.187267
0.187091
0.186919
0.186751
0.186586
0.186425
0.186267
0.186111
0.185958
0.185808
0.185659
0.185512
0.185367
0.185223
0.185081
0.18494
0.1848
0.184661
0.184522
0.184384
0.184247
0.18411
0.183974
0.183838
0.183702
0.183567
0.183431
0.193568
0.193339
0.1931
0.192853
0.192599
0.192341
0.192081
0.19182
0.191559
0.1913
0.191043
0.190789
0.190538
0.190292
0.19005
0.189814
0.189582
0.189356
0.189135
0.188919
0.188708
0.188503
0.188302
0.188106
0.187916
0.187729
0.187548
0.18737
0.187196
0.187026
0.18686
0.186697
0.186537
0.18638
0.186226
0.186074
0.185924
0.185777
0.185631
0.185487
0.185344
0.185202
0.185062
0.184923
0.184784
0.184646
0.184509
0.184373
0.184237
0.184101
0.183966
0.18383
0.183695
0.18356
0.183425
0.193051
0.19285
0.192636
0.192414
0.192184
0.19195
0.191712
0.191473
0.191232
0.190993
0.190755
0.190519
0.190286
0.190056
0.189831
0.189609
0.189392
0.189179
0.18897
0.188766
0.188567
0.188372
0.188181
0.187995
0.187813
0.187635
0.187461
0.18729
0.187123
0.186959
0.186799
0.186641
0.186486
0.186333
0.186183
0.186035
0.185889
0.185744
0.185602
0.18546
0.18532
0.18518
0.185042
0.184905
0.184768
0.184632
0.184496
0.184361
0.184226
0.184091
0.183956
0.183822
0.183688
0.183553
0.183419
0.192522
0.192347
0.192159
0.191962
0.191757
0.191546
0.191331
0.191113
0.190894
0.190675
0.190456
0.190239
0.190024
0.189811
0.189602
0.189395
0.189192
0.188993
0.188798
0.188606
0.188419
0.188235
0.188055
0.187878
0.187705
0.187535
0.187369
0.187206
0.187046
0.186888
0.186734
0.186581
0.186432
0.186284
0.186138
0.185994
0.185851
0.18571
0.18557
0.185432
0.185294
0.185157
0.185021
0.184885
0.18475
0.184616
0.184482
0.184348
0.184214
0.18408
0.183947
0.183813
0.18368
0.183546
0.183412
0.192
0.19185
0.191687
0.191514
0.191332
0.191144
0.19095
0.190754
0.190556
0.190356
0.190157
0.189958
0.18976
0.189564
0.189371
0.18918
0.188992
0.188806
0.188624
0.188445
0.188269
0.188096
0.187926
0.187759
0.187595
0.187434
0.187276
0.18712
0.186967
0.186816
0.186667
0.186521
0.186376
0.186233
0.186091
0.185951
0.185813
0.185675
0.185538
0.185402
0.185267
0.185133
0.184999
0.184866
0.184733
0.1846
0.184467
0.184335
0.184202
0.18407
0.183937
0.183804
0.183672
0.183539
0.183405
0.191386
0.191245
0.191093
0.190933
0.190765
0.190592
0.190415
0.190236
0.190055
0.189873
0.189691
0.18951
0.189329
0.189151
0.188974
0.188799
0.188627
0.188457
0.188289
0.188124
0.187962
0.187802
0.187644
0.187489
0.187336
0.187185
0.187036
0.18689
0.186745
0.186602
0.186461
0.186321
0.186183
0.186046
0.18591
0.185774
0.18564
0.185507
0.185374
0.185241
0.185109
0.184977
0.184846
0.184715
0.184584
0.184452
0.184321
0.18419
0.184059
0.183927
0.183796
0.183664
0.183531
0.183398
0.19083
0.190699
0.190558
0.190409
0.190254
0.190096
0.189934
0.189769
0.189604
0.189438
0.189271
0.189106
0.188941
0.188778
0.188616
0.188455
0.188297
0.18814
0.187986
0.187833
0.187682
0.187533
0.187386
0.187241
0.187097
0.186956
0.186815
0.186677
0.186539
0.186403
0.186268
0.186134
0.186001
0.185869
0.185737
0.185606
0.185475
0.185345
0.185215
0.185086
0.184956
0.184827
0.184697
0.184568
0.184438
0.184308
0.184178
0.184048
0.183918
0.183787
0.183656
0.183524
0.183391
0.190441
0.190327
0.190204
0.190073
0.189935
0.189793
0.189647
0.189499
0.189348
0.189197
0.189045
0.188893
0.188741
0.18859
0.18844
0.188291
0.188144
0.187997
0.187852
0.187709
0.187567
0.187426
0.187287
0.187149
0.187013
0.186877
0.186743
0.18661
0.186478
0.186347
0.186216
0.186086
0.185957
0.185829
0.1857
0.185573
0.185445
0.185317
0.18519
0.185062
0.184935
0.184807
0.18468
0.184552
0.184424
0.184295
0.184167
0.184038
0.183908
0.183778
0.183648
0.183517
0.183385
0.190073
0.189977
0.18987
0.189755
0.189633
0.189507
0.189376
0.189242
0.189106
0.188968
0.188829
0.18869
0.18855
0.188411
0.188272
0.188134
0.187997
0.18786
0.187724
0.18759
0.187456
0.187323
0.187191
0.187061
0.186931
0.186801
0.186673
0.186545
0.186418
0.186292
0.186166
0.18604
0.185915
0.18579
0.185665
0.18554
0.185415
0.18529
0.185165
0.18504
0.184914
0.184789
0.184663
0.184536
0.18441
0.184283
0.184155
0.184027
0.183899
0.18377
0.18364
0.183509
0.183378
0.189727
0.189645
0.189554
0.189454
0.189347
0.189235
0.189118
0.188998
0.188875
0.18875
0.188623
0.188496
0.188368
0.18824
0.188112
0.187984
0.187856
0.187728
0.187601
0.187475
0.187349
0.187224
0.187099
0.186975
0.186851
0.186728
0.186605
0.186483
0.18636
0.186238
0.186116
0.185995
0.185873
0.185751
0.185629
0.185508
0.185385
0.185263
0.18514
0.185017
0.184894
0.18477
0.184646
0.184521
0.184396
0.18427
0.184144
0.184017
0.183889
0.183761
0.183632
0.183502
0.183372
0.189399
0.189332
0.189255
0.189169
0.189076
0.188977
0.188873
0.188765
0.188655
0.188542
0.188427
0.188311
0.188194
0.188076
0.187958
0.187839
0.18772
0.187602
0.187483
0.187365
0.187246
0.187128
0.18701
0.186892
0.186774
0.186657
0.186539
0.186422
0.186304
0.186186
0.186069
0.185951
0.185832
0.185714
0.185595
0.185476
0.185357
0.185237
0.185116
0.184995
0.184874
0.184752
0.184629
0.184506
0.184382
0.184258
0.184132
0.184007
0.18388
0.183753
0.183625
0.183496
0.183366
0.189089
0.189035
0.188971
0.188898
0.188818
0.188731
0.188639
0.188544
0.188445
0.188343
0.188239
0.188134
0.188027
0.187919
0.18781
0.1877
0.18759
0.18748
0.187369
0.187258
0.187147
0.187036
0.186924
0.186812
0.1867
0.186588
0.186475
0.186362
0.186249
0.186136
0.186022
0.185908
0.185793
0.185677
0.185562
0.185445
0.185328
0.185211
0.185092
0.184973
0.184854
0.184734
0.184613
0.184491
0.184369
0.184245
0.184121
0.183997
0.183871
0.183745
0.183617
0.183489
0.183359
0.188794
0.188753
0.188701
0.18864
0.188572
0.188497
0.188417
0.188332
0.188244
0.188153
0.188059
0.187964
0.187867
0.187768
0.187668
0.187567
0.187465
0.187363
0.18726
0.187156
0.187051
0.186946
0.186841
0.186735
0.186628
0.186521
0.186413
0.186305
0.186196
0.186087
0.185976
0.185866
0.185754
0.185642
0.185529
0.185415
0.185301
0.185185
0.185069
0.184952
0.184834
0.184716
0.184597
0.184476
0.184355
0.184233
0.18411
0.183987
0.183862
0.183736
0.18361
0.183482
0.183353
0.188515
0.188485
0.188444
0.188395
0.188337
0.188273
0.188204
0.18813
0.188052
0.187971
0.187887
0.187801
0.187713
0.187623
0.187532
0.187439
0.187345
0.18725
0.187154
0.187057
0.186959
0.18686
0.18676
0.18666
0.186558
0.186456
0.186353
0.186249
0.186144
0.186039
0.185932
0.185825
0.185716
0.185607
0.185497
0.185386
0.185273
0.18516
0.185046
0.184931
0.184815
0.184699
0.184581
0.184462
0.184342
0.184221
0.1841
0.183977
0.183853
0.183728
0.183602
0.183475
0.183347
0.188248
0.188229
0.188199
0.18816
0.188113
0.188059
0.188
0.187936
0.187868
0.187796
0.187722
0.187644
0.187565
0.187483
0.1874
0.187315
0.187229
0.187141
0.187051
0.186961
0.186869
0.186776
0.186682
0.186587
0.18649
0.186393
0.186294
0.186195
0.186094
0.185992
0.185889
0.185785
0.185679
0.185573
0.185465
0.185357
0.185247
0.185136
0.185024
0.184911
0.184797
0.184681
0.184565
0.184448
0.184329
0.18421
0.184089
0.183967
0.183844
0.18372
0.183595
0.183469
0.183341
0.187977
0.187968
0.187949
0.187921
0.187884
0.187841
0.187792
0.187737
0.187679
0.187617
0.187551
0.187483
0.187412
0.187339
0.187264
0.187187
0.187108
0.187027
0.186945
0.186861
0.186776
0.186689
0.1866
0.186511
0.186419
0.186327
0.186233
0.186137
0.186041
0.185943
0.185843
0.185742
0.18564
0.185537
0.185432
0.185326
0.185219
0.18511
0.185
0.184889
0.184777
0.184663
0.184548
0.184432
0.184315
0.184197
0.184077
0.183957
0.183835
0.183712
0.183587
0.183462
0.183335
0.187693
0.187695
0.187687
0.187669
0.187643
0.18761
0.187572
0.187528
0.18748
0.187427
0.187372
0.187313
0.187251
0.187187
0.18712
0.187051
0.18698
0.186907
0.186832
0.186755
0.186676
0.186596
0.186514
0.18643
0.186344
0.186256
0.186167
0.186076
0.185984
0.18589
0.185794
0.185697
0.185598
0.185498
0.185396
0.185293
0.185188
0.185082
0.184974
0.184865
0.184755
0.184643
0.18453
0.184416
0.1843
0.184183
0.184065
0.183946
0.183825
0.183703
0.183579
0.183454
0.183328
0.187402
0.187415
0.187418
0.187412
0.187397
0.187375
0.187347
0.187314
0.187276
0.187234
0.187188
0.187139
0.187087
0.187032
0.186974
0.186913
0.18685
0.186785
0.186717
0.186648
0.186576
0.186502
0.186425
0.186347
0.186267
0.186185
0.186101
0.186014
0.185926
0.185837
0.185745
0.185651
0.185556
0.185459
0.18536
0.18526
0.185158
0.185054
0.184949
0.184842
0.184733
0.184624
0.184512
0.184399
0.184285
0.18417
0.184053
0.183934
0.183814
0.183693
0.183571
0.183447
0.183321
0.187104
0.187129
0.187144
0.187149
0.187146
0.187135
0.187118
0.187096
0.187069
0.187037
0.187002
0.186963
0.18692
0.186874
0.186825
0.186773
0.186718
0.186661
0.186601
0.186538
0.186473
0.186406
0.186336
0.186264
0.186189
0.186112
0.186033
0.185952
0.185868
0.185783
0.185695
0.185605
0.185513
0.185419
0.185324
0.185226
0.185127
0.185026
0.184923
0.184818
0.184712
0.184604
0.184494
0.184383
0.18427
0.184156
0.18404
0.183923
0.183804
0.183684
0.183562
0.183439
0.183314
0.1868
0.186837
0.186864
0.18688
0.186889
0.18689
0.186885
0.186874
0.186858
0.186837
0.186812
0.186783
0.18675
0.186713
0.186674
0.186631
0.186584
0.186535
0.186483
0.186428
0.18637
0.186309
0.186246
0.186179
0.18611
0.186039
0.185965
0.185889
0.18581
0.185728
0.185644
0.185558
0.18547
0.18538
0.185287
0.185192
0.185096
0.184997
0.184896
0.184794
0.18469
0.184583
0.184476
0.184366
0.184255
0.184142
0.184027
0.183911
0.183794
0.183675
0.183554
0.183431
0.183308
0.186489
0.186538
0.186577
0.186606
0.186627
0.186641
0.186647
0.186648
0.186643
0.186633
0.186619
0.1866
0.186577
0.186551
0.18652
0.186486
0.186449
0.186408
0.186363
0.186316
0.186265
0.186211
0.186154
0.186094
0.186031
0.185965
0.185896
0.185825
0.18575
0.185673
0.185594
0.185511
0.185427
0.18534
0.18525
0.185158
0.185064
0.184968
0.18487
0.18477
0.184668
0.184563
0.184457
0.184349
0.18424
0.184128
0.184015
0.1839
0.183783
0.183665
0.183545
0.183424
0.183301
0.18617
0.186233
0.186285
0.186327
0.18636
0.186386
0.186405
0.186417
0.186424
0.186426
0.186422
0.186414
0.186402
0.186385
0.186364
0.18634
0.186311
0.186278
0.186242
0.186202
0.186159
0.186112
0.186062
0.186008
0.185951
0.185891
0.185827
0.18576
0.185691
0.185618
0.185543
0.185464
0.185383
0.1853
0.185213
0.185124
0.185033
0.18494
0.184844
0.184746
0.184646
0.184543
0.184439
0.184333
0.184224
0.184114
0.184002
0.183889
0.183773
0.183656
0.183537
0.183417
0.183294
0.185845
0.185921
0.185986
0.186041
0.186088
0.186126
0.186158
0.186183
0.186201
0.186215
0.186223
0.186226
0.186224
0.186218
0.186207
0.186191
0.186172
0.186148
0.18612
0.186088
0.186052
0.186012
0.185969
0.185921
0.18587
0.185816
0.185757
0.185696
0.185631
0.185563
0.185491
0.185417
0.18534
0.185259
0.185176
0.185091
0.185002
0.184911
0.184818
0.184722
0.184624
0.184523
0.184421
0.184316
0.184209
0.184101
0.18399
0.183877
0.183763
0.183647
0.183529
0.183409
0.183288
0.185512
0.185602
0.185681
0.18575
0.18581
0.185862
0.185906
0.185944
0.185975
0.186001
0.18602
0.186035
0.186044
0.186048
0.186047
0.186041
0.186031
0.186016
0.185996
0.185973
0.185944
0.185912
0.185875
0.185834
0.185789
0.18574
0.185688
0.185631
0.185571
0.185507
0.18544
0.18537
0.185296
0.185219
0.185139
0.185057
0.184971
0.184883
0.184792
0.184698
0.184602
0.184503
0.184403
0.1843
0.184194
0.184087
0.183978
0.183866
0.183753
0.183638
0.183521
0.183402
0.183281
0.185172
0.185276
0.185369
0.185452
0.185526
0.185592
0.18565
0.185701
0.185745
0.185783
0.185815
0.185841
0.185861
0.185876
0.185886
0.18589
0.185889
0.185883
0.185872
0.185856
0.185836
0.185811
0.185781
0.185747
0.185708
0.185665
0.185618
0.185566
0.185511
0.185452
0.185389
0.185323
0.185253
0.185179
0.185103
0.185023
0.18494
0.184854
0.184766
0.184674
0.18458
0.184484
0.184385
0.184283
0.18418
0.184074
0.183966
0.183856
0.183743
0.183629
0.183513
0.183395
0.183275
0.184824
0.184943
0.185051
0.185149
0.185238
0.185318
0.18539
0.185455
0.185512
0.185563
0.185607
0.185645
0.185677
0.185703
0.185723
0.185737
0.185746
0.185749
0.185747
0.18574
0.185727
0.185709
0.185687
0.185659
0.185627
0.18559
0.185548
0.185502
0.185451
0.185397
0.185338
0.185276
0.18521
0.18514
0.185067
0.18499
0.18491
0.184827
0.18474
0.184651
0.184559
0.184465
0.184367
0.184267
0.184165
0.184061
0.183954
0.183845
0.183734
0.183621
0.183506
0.183388
0.183269
0.184483
0.184617
0.18474
0.184853
0.184956
0.18505
0.185136
0.185214
0.185284
0.185348
0.185404
0.185454
0.185497
0.185534
0.185564
0.185589
0.185607
0.185619
0.185626
0.185627
0.185622
0.185611
0.185595
0.185574
0.185548
0.185517
0.18548
0.185439
0.185394
0.185344
0.185289
0.185231
0.185168
0.185102
0.185032
0.184958
0.18488
0.1848
0.184716
0.184629
0.184539
0.184446
0.18435
0.184252
0.184151
0.184048
0.183943
0.183835
0.183725
0.183613
0.183498
0.183382
0.183264
0.184139
0.184288
0.184426
0.184554
0.184672
0.18478
0.18488
0.184972
0.185056
0.185132
0.185201
0.185263
0.185318
0.185365
0.185406
0.185441
0.185469
0.18549
0.185505
0.185514
0.185517
0.185514
0.185505
0.185491
0.18547
0.185445
0.185414
0.185378
0.185337
0.185292
0.185241
0.185187
0.185128
0.185065
0.184998
0.184927
0.184852
0.184774
0.184692
0.184607
0.184519
0.184428
0.184334
0.184238
0.184138
0.184036
0.183932
0.183825
0.183716
0.183605
0.183491
0.183376
0.183259
0.183764
0.183931
0.184086
0.18423
0.184365
0.18449
0.184606
0.184713
0.184811
0.184902
0.184985
0.18506
0.185127
0.185187
0.18524
0.185285
0.185323
0.185354
0.185379
0.185397
0.185408
0.185413
0.185411
0.185404
0.18539
0.185371
0.185346
0.185315
0.185279
0.185238
0.185192
0.185142
0.185087
0.185027
0.184963
0.184895
0.184823
0.184748
0.184668
0.184586
0.1845
0.18441
0.184318
0.184223
0.184125
0.184024
0.183921
0.183816
0.183708
0.183597
0.183485
0.18337
0.183254
0.183353
0.18354
0.183715
0.183878
0.184032
0.184175
0.184309
0.184433
0.184548
0.184655
0.184753
0.184843
0.184924
0.184997
0.185062
0.18512
0.185169
0.185211
0.185246
0.185274
0.185294
0.185307
0.185314
0.185313
0.185307
0.185294
0.185275
0.18525
0.18522
0.185184
0.185142
0.185096
0.185045
0.184989
0.184928
0.184863
0.184794
0.184721
0.184645
0.184564
0.18448
0.184393
0.184302
0.184209
0.184112
0.184013
0.183911
0.183806
0.183699
0.18359
0.183479
0.183365
0.183249
0.182907
0.183117
0.183314
0.1835
0.183674
0.183838
0.183992
0.184136
0.184269
0.184394
0.184509
0.184614
0.184711
0.184799
0.184878
0.184948
0.18501
0.185064
0.185109
0.185147
0.185177
0.185199
0.185214
0.185222
0.185223
0.185216
0.185204
0.185185
0.18516
0.185129
0.185093
0.185051
0.185003
0.184951
0.184894
0.184832
0.184766
0.184696
0.184622
0.184543
0.184462
0.184376
0.184287
0.184195
0.1841
0.184002
0.183902
0.183798
0.183692
0.183584
0.183473
0.18336
0.183245
0.182427
0.182663
0.182886
0.183096
0.183295
0.183482
0.183658
0.183823
0.183977
0.184121
0.184254
0.184377
0.184491
0.184594
0.184688
0.184772
0.184847
0.184913
0.184971
0.185019
0.185059
0.185091
0.185115
0.185131
0.185139
0.18514
0.185134
0.185121
0.185102
0.185076
0.185045
0.185007
0.184964
0.184915
0.184862
0.184803
0.18474
0.184672
0.1846
0.184524
0.184445
0.184361
0.184274
0.184183
0.18409
0.183993
0.183893
0.183791
0.183686
0.183578
0.183468
0.183356
0.183242
0.181906
0.182172
0.182424
0.182663
0.182889
0.183102
0.183303
0.183492
0.183669
0.183834
0.183988
0.184131
0.184262
0.184383
0.184493
0.184592
0.184681
0.184761
0.18483
0.18489
0.184941
0.184983
0.185016
0.18504
0.185057
0.185065
0.185066
0.185059
0.185046
0.185025
0.184998
0.184965
0.184926
0.184882
0.184831
0.184776
0.184716
0.184651
0.184581
0.184507
0.184429
0.184347
0.184262
0.184173
0.18408
0.183985
0.183886
0.183785
0.18368
0.183574
0.183464
0.183353
0.183239
0.181336
0.181638
0.181924
0.182196
0.182453
0.182696
0.182926
0.183142
0.183344
0.183534
0.18371
0.183874
0.184025
0.184165
0.184292
0.184408
0.184512
0.184605
0.184688
0.18476
0.184823
0.184875
0.184917
0.184951
0.184976
0.184992
0.184999
0.184999
0.184991
0.184976
0.184955
0.184926
0.184891
0.18485
0.184803
0.184751
0.184693
0.184631
0.184564
0.184492
0.184416
0.184335
0.184251
0.184164
0.184073
0.183978
0.18388
0.18378
0.183676
0.18357
0.183462
0.183351
0.183238
0.180817
0.181154
0.181474
0.181777
0.182064
0.182336
0.182593
0.182834
0.18306
0.183272
0.183469
0.183652
0.183822
0.183978
0.184121
0.184251
0.184369
0.184475
0.18457
0.184653
0.184724
0.184786
0.184837
0.184878
0.18491
0.184932
0.184946
0.184951
0.184948
0.184938
0.18492
0.184895
0.184863
0.184825
0.184781
0.184732
0.184676
0.184616
0.18455
0.18448
0.184405
0.184326
0.184244
0.184157
0.184067
0.183973
0.183876
0.183776
0.183673
0.183568
0.18346
0.183349
0.183236
0.180419
0.180783
0.18113
0.181459
0.18177
0.182065
0.182342
0.182603
0.182848
0.183077
0.183291
0.183489
0.183672
0.183842
0.183997
0.184138
0.184266
0.184382
0.184485
0.184575
0.184655
0.184723
0.18478
0.184827
0.184864
0.184891
0.184909
0.184918
0.184919
0.184912
0.184897
0.184874
0.184845
0.184809
0.184767
0.184719
0.184665
0.184606
0.184542
0.184473
0.184399
0.184321
0.184239
0.184153
0.184063
0.18397
0.183874
0.183774
0.183672
0.183567
0.183459
0.183349
0.183236
0.180084
0.180474
0.180844
0.181195
0.181528
0.181842
0.182138
0.182416
0.182677
0.18292
0.183148
0.183359
0.183554
0.183734
0.183899
0.18405
0.184186
0.184309
0.184419
0.184517
0.184602
0.184676
0.184738
0.184789
0.18483
0.184861
0.184883
0.184895
0.184898
0.184893
0.184881
0.18486
0.184833
0.184799
0.184758
0.184711
0.184659
0.184601
0.184537
0.184469
0.184396
0.184319
0.184237
0.184151
0.184062
0.183969
0.183873
0.183774
0.183672
0.183567
0.183459
0.183349
0.183236
0.183122
0.1798
0.180213
0.180605
0.180976
0.181327
0.181658
0.18197
0.182263
0.182538
0.182794
0.183033
0.183255
0.18346
0.183649
0.183823
0.183981
0.184125
0.184254
0.18437
0.184473
0.184563
0.184641
0.184707
0.184762
0.184806
0.18484
0.184864
0.184879
0.184884
0.184881
0.18487
0.184852
0.184826
0.184793
0.184753
0.184707
0.184655
0.184598
0.184535
0.184467
0.184395
0.184318
0.184236
0.184151
0.184062
0.18397
0.183874
0.183774
0.183672
0.183567
0.18346
0.18335
0.183237
0.183123
0.17956
0.179993
0.180404
0.180792
0.18116
0.181506
0.181832
0.182138
0.182425
0.182692
0.182941
0.183172
0.183386
0.183583
0.183763
0.183928
0.184078
0.184213
0.184333
0.18444
0.184534
0.184616
0.184685
0.184743
0.18479
0.184826
0.184852
0.184869
0.184876
0.184874
0.184864
0.184847
0.184822
0.184789
0.184751
0.184705
0.184654
0.184597
0.184535
0.184467
0.184395
0.184318
0.184237
0.184152
0.184063
0.183971
0.183875
0.183776
0.183674
0.183569
0.183461
0.183351
0.183238
0.183124
0.179355
0.179806
0.180234
0.180638
0.18102
0.18138
0.181719
0.182036
0.182333
0.18261
0.182868
0.183107
0.183328
0.183531
0.183718
0.183888
0.184042
0.184182
0.184306
0.184417
0.184514
0.184599
0.184671
0.184731
0.18478
0.184818
0.184845
0.184863
0.184871
0.184871
0.184862
0.184845
0.184821
0.184789
0.184751
0.184706
0.184655
0.184598
0.184536
0.184469
0.184397
0.18432
0.184239
0.184154
0.184065
0.183973
0.183877
0.183777
0.183675
0.18357
0.183463
0.183352
0.18324
0.183125
0.179179
0.179647
0.18009
0.180509
0.180904
0.181276
0.181625
0.181953
0.182259
0.182544
0.182809
0.183055
0.183282
0.183491
0.183683
0.183858
0.184016
0.184159
0.184287
0.184401
0.184501
0.184588
0.184662
0.184723
0.184774
0.184813
0.184842
0.184861
0.18487
0.18487
0.184862
0.184846
0.184822
0.18479
0.184752
0.184708
0.184657
0.1846
0.184538
0.184471
0.184399
0.184322
0.184241
0.184156
0.184067
0.183975
0.183879
0.18378
0.183677
0.183572
0.183464
0.183354
0.183241
0.183127
0.179028
0.179511
0.179968
0.1804
0.180806
0.181189
0.181548
0.181884
0.182198
0.182491
0.182763
0.183015
0.183247
0.183461
0.183657
0.183836
0.183998
0.184144
0.184274
0.184391
0.184493
0.184581
0.184657
0.18472
0.184772
0.184812
0.184842
0.184861
0.184871
0.184872
0.184864
0.184848
0.184824
0.184793
0.184755
0.184711
0.18466
0.184603
0.184541
0.184474
0.184402
0.184325
0.184244
0.184159
0.18407
0.183977
0.183881
0.183782
0.183679
0.183574
0.183466
0.183356
0.183243
0.183128
0.1789
0.179397
0.179866
0.180309
0.180726
0.181118
0.181486
0.18183
0.182151
0.18245
0.182727
0.182984
0.183221
0.183439
0.183639
0.183821
0.183986
0.184134
0.184267
0.184385
0.184489
0.184579
0.184656
0.18472
0.184773
0.184814
0.184844
0.184864
0.184874
0.184875
0.184868
0.184852
0.184828
0.184797
0.184759
0.184715
0.184664
0.184607
0.184545
0.184478
0.184406
0.184329
0.184247
0.184162
0.184073
0.18398
0.183884
0.183784
0.183682
0.183576
0.183468
0.183358
0.183245
0.183129
0.178805
0.179313
0.179792
0.180244
0.180669
0.181068
0.181442
0.181792
0.182119
0.182423
0.182705
0.182966
0.183206
0.183427
0.18363
0.183814
0.183981
0.184132
0.184266
0.184386
0.18449
0.184581
0.184659
0.184724
0.184777
0.184819
0.18485
0.18487
0.18488
0.184882
0.184874
0.184858
0.184835
0.184804
0.184766
0.184721
0.18467
0.184613
0.184551
0.184483
0.184411
0.184334
0.184253
0.184167
0.184078
0.183985
0.183888
0.183789
0.183686
0.18358
0.183472
0.183361
0.183248
0.183133
0.178752
0.179266
0.179752
0.180209
0.180639
0.181043
0.181421
0.181774
0.182104
0.182411
0.182696
0.182959
0.183201
0.183424
0.183628
0.183814
0.183982
0.184134
0.184269
0.184389
0.184495
0.184586
0.184665
0.18473
0.184783
0.184825
0.184856
0.184877
0.184887
0.184888
0.184881
0.184865
0.184841
0.18481
0.184772
0.184727
0.184676
0.184619
0.184557
0.184489
0.184417
0.18434
0.184258
0.184173
0.184083
0.18399
0.183893
0.183794
0.183691
0.183585
0.183477
0.183366
0.183253
0.183137
)
;

boundaryField
{
    inlet
    {
        type            zeroGradient;
    }
    outlet
    {
        type            fixedValue;
        value           nonuniform 0();
    }
    upperWall
    {
        type            zeroGradient;
    }
    lowerWall
    {
        type            zeroGradient;
    }
    frontAndBack
    {
        type            empty;
    }
    procBoundary1to0
    {
        type            processor;
        value           nonuniform List<scalar> 
59
(
0.183506
0.183494
0.183487
0.183481
0.183476
0.183471
0.183465
0.18346
0.183455
0.183449
0.183443
0.183443
0.183302
0.183296
0.18329
0.183284
0.183278
0.183271
0.183265
0.183258
0.183252
0.183246
0.18324
0.183234
0.183229
0.183223
0.183218
0.183212
0.183207
0.1832
0.183194
0.183188
0.183182
0.183176
0.18317
0.183165
0.183159
0.183154
0.183149
0.183144
0.183139
0.183135
0.183131
0.183128
0.183125
0.183123
0.183122
0.183121
0.183121
0.183121
0.183005
0.183006
0.183007
0.183009
0.18301
0.183011
0.183012
0.183015
0.18302
)
;
    }
    procBoundary1to3
    {
        type            processor;
        value           nonuniform List<scalar> 
62
(
0.204057
0.203196
0.202235
0.201317
0.20048
0.199698
0.198536
0.198536
0.197873
0.196882
0.196882
0.19629
0.195706
0.195127
0.194552
0.193782
0.193782
0.193238
0.192682
0.192134
0.191513
0.191513
0.190951
0.190951
0.190542
0.190158
0.189795
0.189453
0.18913
0.188823
0.188531
0.188254
0.187972
0.187677
0.187375
0.187066
0.186749
0.186426
0.186095
0.185756
0.185409
0.185055
0.184692
0.184336
0.183976
0.183584
0.183153
0.182684
0.182177
0.181625
0.181019
0.180464
0.180035
0.179673
0.179366
0.179104
0.178879
0.178685
0.178518
0.178375
0.178268
0.178209
)
;
    }
}


// ************************************************************************* //
