/*--------------------------------*- C++ -*----------------------------------*\
  =========                 |
  \\      /  F ield         | OpenFOAM: The Open Source CFD Toolbox
   \\    /   O peration     | Website:  https://openfoam.org
    \\  /    A nd           | Version:  6
     \\/     M anipulation  |
\*---------------------------------------------------------------------------*/
FoamFile
{
    version     2.0;
    format      ascii;
    class       surfaceScalarField;
    location    "0.08";
    object      phi;
}
// * * * * * * * * * * * * * * * * * * * * * * * * * * * * * * * * * * * * * //

dimensions      [0 3 -1 0 0 0 0];

internalField   nonuniform List<scalar> 
6046
(
4.51999e-07
-2.51977e-09
4.54216e-07
-2.21747e-09
4.56155e-07
-1.93874e-09
4.57838e-07
-1.68253e-09
4.59285e-07
-1.44769e-09
4.60518e-07
-1.23303e-09
4.61556e-07
-1.03734e-09
4.62415e-07
-8.59359e-10
4.63113e-07
-6.97842e-10
4.63664e-07
-5.51555e-10
4.64083e-07
-4.19085e-10
4.64382e-07
-2.98898e-10
4.64571e-07
-1.88844e-10
4.64653e-07
-8.13731e-11
4.64626e-07
2.67945e-11
4.64501e-07
1.25009e-10
4.64295e-07
2.05591e-10
4.64024e-07
2.70766e-10
4.637e-07
3.24327e-10
4.63331e-07
3.68858e-10
4.62925e-07
4.06253e-10
4.62487e-07
4.37977e-10
4.62022e-07
4.65117e-10
4.61533e-07
4.88443e-10
4.61025e-07
5.08568e-10
4.60499e-07
5.25933e-10
4.59958e-07
5.4095e-10
4.59404e-07
5.53915e-10
4.58839e-07
5.65122e-10
4.58264e-07
5.74797e-10
4.57681e-07
5.83165e-10
4.57091e-07
5.90403e-10
4.56494e-07
5.96673e-10
4.55892e-07
6.02141e-10
4.55285e-07
6.06917e-10
4.54674e-07
6.11126e-10
4.54059e-07
6.14872e-10
4.53441e-07
6.18226e-10
4.52819e-07
6.21282e-10
4.52195e-07
6.24085e-10
4.51569e-07
6.26707e-10
4.50939e-07
6.29192e-10
4.50308e-07
6.31585e-10
4.49674e-07
6.3391e-10
4.49038e-07
6.36224e-10
4.48399e-07
6.38536e-10
4.47758e-07
6.40877e-10
4.47115e-07
6.43273e-10
4.46469e-07
6.45742e-10
4.45821e-07
6.48311e-10
4.4517e-07
6.5099e-10
4.44516e-07
6.53804e-10
4.43859e-07
6.56767e-10
4.43199e-07
6.5991e-10
4.42536e-07
6.63258e-10
4.41869e-07
6.66844e-10
6.70696e-10
4.74811e-07
-5.55559e-09
4.77517e-07
-4.9237e-09
4.79916e-07
-4.33825e-09
4.82031e-07
-3.79751e-09
4.83883e-07
-3.29956e-09
4.85492e-07
-2.84229e-09
4.86879e-07
-2.42351e-09
4.8806e-07
-2.04094e-09
4.89055e-07
-1.69229e-09
4.89878e-07
-1.37521e-09
4.90547e-07
-1.08731e-09
4.91074e-07
-8.26191e-10
4.91474e-07
-5.89447e-10
4.91767e-07
-3.74261e-10
4.91971e-07
-1.77052e-10
4.92092e-07
3.87054e-12
4.92131e-07
1.66922e-10
4.92091e-07
3.11073e-10
4.91977e-07
4.3755e-10
4.91798e-07
5.48196e-10
4.91559e-07
6.44868e-10
4.91268e-07
7.29304e-10
4.9093e-07
8.03113e-10
4.90551e-07
8.67657e-10
4.90135e-07
9.24107e-10
4.89688e-07
9.73488e-10
4.89212e-07
1.01668e-09
4.88712e-07
1.05444e-09
4.88189e-07
1.08745e-09
4.87648e-07
1.11631e-09
4.87089e-07
1.14153e-09
4.86516e-07
1.1636e-09
4.8593e-07
1.18293e-09
4.85332e-07
1.1999e-09
4.84724e-07
1.21484e-09
4.84107e-07
1.22805e-09
4.83482e-07
1.23979e-09
4.8285e-07
1.25028e-09
4.82212e-07
1.25974e-09
4.81568e-07
1.26834e-09
4.80918e-07
1.27623e-09
4.80264e-07
1.28356e-09
4.79605e-07
1.29042e-09
4.78942e-07
1.29695e-09
4.78275e-07
1.30321e-09
4.77604e-07
1.3093e-09
4.7693e-07
1.31528e-09
4.76252e-07
1.32122e-09
4.7557e-07
1.32717e-09
4.74885e-07
1.33319e-09
4.74197e-07
1.33932e-09
4.73505e-07
1.34563e-09
4.7281e-07
1.35214e-09
4.72111e-07
1.35893e-09
4.71408e-07
1.36603e-09
4.70701e-07
1.37352e-09
1.38146e-09
4.8203e-07
-8.82364e-09
4.8496e-07
-7.85412e-09
4.87575e-07
-6.95291e-09
4.89895e-07
-6.11783e-09
4.91942e-07
-5.34636e-09
4.93735e-07
-4.63572e-09
4.95295e-07
-3.98289e-09
4.96638e-07
-3.38476e-09
4.97784e-07
-2.8381e-09
4.98749e-07
-2.33962e-09
4.99547e-07
-1.88604e-09
5.00195e-07
-1.47409e-09
5.00706e-07
-1.10062e-09
5.01095e-07
-7.62616e-10
5.01374e-07
-4.565e-10
5.01557e-07
-1.78775e-10
5.01651e-07
7.23912e-11
5.01664e-07
2.97976e-10
5.01603e-07
4.99391e-10
5.01472e-07
6.78488e-10
5.0128e-07
8.37268e-10
5.01032e-07
9.77731e-10
5.00733e-07
1.10181e-09
5.00389e-07
1.2113e-09
5.00005e-07
1.30784e-09
4.99586e-07
1.39288e-09
4.99135e-07
1.46776e-09
4.98656e-07
1.53364e-09
4.98152e-07
1.59159e-09
4.97625e-07
1.64253e-09
4.9708e-07
1.68734e-09
4.96516e-07
1.72675e-09
4.95938e-07
1.76146e-09
4.95346e-07
1.79208e-09
4.94741e-07
1.81914e-09
4.94126e-07
1.84316e-09
4.93502e-07
1.86455e-09
4.92868e-07
1.8837e-09
4.92227e-07
1.90095e-09
4.91579e-07
1.91661e-09
4.90924e-07
1.93093e-09
4.90263e-07
1.94413e-09
4.89597e-07
1.95645e-09
4.88926e-07
1.96804e-09
4.8825e-07
1.97907e-09
4.8757e-07
1.98968e-09
4.86885e-07
1.99997e-09
4.86197e-07
2.01008e-09
4.85504e-07
2.02009e-09
4.84807e-07
2.03009e-09
4.84106e-07
2.04018e-09
4.83401e-07
2.05043e-09
4.82692e-07
2.06092e-09
4.81979e-07
2.07173e-09
4.81263e-07
2.08297e-09
4.80541e-07
2.09471e-09
2.10706e-09
4.86072e-07
-1.22197e-08
4.89129e-07
-1.09114e-08
4.91868e-07
-9.69217e-09
4.9431e-07
-8.55955e-09
4.96474e-07
-7.5106e-09
4.9838e-07
-6.542e-09
5.00048e-07
-5.65009e-09
5.01494e-07
-4.83101e-09
5.02736e-07
-4.08073e-09
5.03792e-07
-3.39514e-09
5.04676e-07
-2.7701e-09
5.05403e-07
-2.20149e-09
5.05988e-07
-1.68533e-09
5.06443e-07
-1.21774e-09
5.06781e-07
-7.94683e-10
5.07015e-07
-4.11971e-10
5.07153e-07
-6.61873e-11
5.07206e-07
2.45302e-10
5.0718e-07
5.24938e-10
5.07084e-07
7.75185e-10
5.06922e-07
9.98513e-10
5.06703e-07
1.19737e-09
5.0643e-07
1.37411e-09
5.06111e-07
1.53094e-09
5.05749e-07
1.66992e-09
5.05349e-07
1.79295e-09
5.04915e-07
1.90176e-09
5.0445e-07
1.9979e-09
5.03959e-07
2.08283e-09
5.03444e-07
2.15779e-09
5.02907e-07
2.22398e-09
5.02352e-07
2.28244e-09
5.01779e-07
2.33409e-09
5.01191e-07
2.37983e-09
5.0059e-07
2.42038e-09
4.99977e-07
2.45645e-09
4.99353e-07
2.48864e-09
4.98719e-07
2.5175e-09
4.98076e-07
2.54352e-09
4.97426e-07
2.56712e-09
4.96768e-07
2.58868e-09
4.96104e-07
2.60853e-09
4.95433e-07
2.62698e-09
4.94757e-07
2.64427e-09
4.94075e-07
2.66064e-09
4.93389e-07
2.67629e-09
4.92697e-07
2.6914e-09
4.92001e-07
2.70611e-09
4.91301e-07
2.7206e-09
4.90596e-07
2.73497e-09
4.89887e-07
2.74936e-09
4.89173e-07
2.76388e-09
4.88455e-07
2.77867e-09
4.87733e-07
2.7938e-09
4.87007e-07
2.80943e-09
4.86276e-07
2.82567e-09
2.84265e-09
4.89048e-07
-1.56769e-08
4.9217e-07
-1.40332e-08
4.94975e-07
-1.24981e-08
4.97485e-07
-1.1069e-08
4.99717e-07
-9.7427e-09
5.0169e-07
-8.5155e-09
5.03424e-07
-7.38323e-09
5.04934e-07
-6.34139e-09
5.06238e-07
-5.38525e-09
5.07353e-07
-4.50997e-09
5.08294e-07
-3.71061e-09
5.09075e-07
-2.98226e-09
5.09709e-07
-2.32007e-09
5.10211e-07
-1.71932e-09
5.10591e-07
-1.17525e-09
5.10863e-07
-6.83082e-10
5.11035e-07
-2.38434e-10
5.11118e-07
1.62525e-10
5.11119e-07
5.2325e-10
5.11047e-07
8.47028e-10
5.10909e-07
1.13699e-09
5.1071e-07
1.39614e-09
5.10457e-07
1.6273e-09
5.10155e-07
1.8332e-09
5.09808e-07
2.01631e-09
5.09422e-07
2.17895e-09
5.09001e-07
2.32328e-09
5.08548e-07
2.45123e-09
5.08066e-07
2.56459e-09
5.07559e-07
2.66497e-09
5.07029e-07
2.75387e-09
5.06479e-07
2.83261e-09
5.0591e-07
2.9024e-09
5.05326e-07
2.96433e-09
5.04727e-07
3.01939e-09
5.04115e-07
3.06846e-09
5.03491e-07
3.11234e-09
5.02857e-07
3.15173e-09
5.02213e-07
3.18726e-09
5.01561e-07
3.2195e-09
5.009e-07
3.24895e-09
5.00233e-07
3.27603e-09
4.99559e-07
3.30114e-09
4.98878e-07
3.32463e-09
4.98192e-07
3.3468e-09
4.97501e-07
3.36792e-09
4.96804e-07
3.38822e-09
4.96102e-07
3.40792e-09
4.95395e-07
3.4272e-09
4.94684e-07
3.44626e-09
4.93968e-07
3.46525e-09
4.93248e-07
3.48432e-09
4.92523e-07
3.50362e-09
4.91793e-07
3.52331e-09
4.91059e-07
3.54354e-09
4.9032e-07
3.56447e-09
3.58626e-09
4.91622e-07
4.94757e-07
-1.71687e-08
4.97583e-07
-1.53233e-08
5.00116e-07
-1.36023e-08
5.02376e-07
-1.20022e-08
5.04379e-07
-1.05189e-08
5.06144e-07
-9.14804e-09
5.07687e-07
-7.88449e-09
5.09025e-07
-6.72297e-09
5.10173e-07
-5.65795e-09
5.11146e-07
-4.6838e-09
5.11958e-07
-3.79483e-09
5.12624e-07
-2.98544e-09
5.13154e-07
-2.25008e-09
5.13562e-07
-1.58323e-09
5.13859e-07
-9.79494e-10
5.14054e-07
-4.33706e-10
5.14158e-07
5.88767e-11
5.14178e-07
5.02619e-10
5.14124e-07
9.01604e-10
5.14001e-07
1.25967e-09
5.13817e-07
1.58043e-09
5.13577e-07
1.86729e-09
5.13287e-07
2.12343e-09
5.12951e-07
2.35181e-09
5.12575e-07
2.5552e-09
5.12162e-07
2.73614e-09
5.11716e-07
2.89695e-09
5.11241e-07
3.03978e-09
5.10739e-07
3.16659e-09
5.10214e-07
3.27914e-09
5.09668e-07
3.37909e-09
5.09102e-07
3.46786e-09
5.0852e-07
3.54682e-09
5.07922e-07
3.61717e-09
5.0731e-07
3.67997e-09
5.06687e-07
3.73621e-09
5.06052e-07
3.78677e-09
5.05406e-07
3.83241e-09
5.04752e-07
3.87384e-09
5.04089e-07
3.91167e-09
5.03419e-07
3.94646e-09
5.02741e-07
3.97868e-09
5.02057e-07
4.00878e-09
5.01367e-07
4.03712e-09
5.00671e-07
4.06405e-09
4.99969e-07
4.08987e-09
4.99262e-07
4.11484e-09
4.9855e-07
4.13921e-09
4.97833e-07
4.16321e-09
4.97112e-07
4.18703e-09
4.96385e-07
4.21086e-09
4.95654e-07
4.2349e-09
4.94918e-07
4.25933e-09
4.94177e-07
4.28434e-09
4.93431e-07
4.3101e-09
4.33684e-09
4.97189e-07
-2.02728e-08
4.99992e-07
-1.81259e-08
5.0251e-07
-1.61204e-08
5.04761e-07
-1.42528e-08
5.06761e-07
-1.25189e-08
5.08526e-07
-1.09138e-08
5.10074e-07
-9.43211e-09
5.11419e-07
-8.06804e-09
5.12577e-07
-6.81549e-09
5.13561e-07
-5.66817e-09
5.14386e-07
-4.61973e-09
5.15064e-07
-3.66383e-09
5.15608e-07
-2.79417e-09
5.1603e-07
-2.00454e-09
5.16339e-07
-1.28885e-09
5.16547e-07
-6.41262e-10
5.16662e-07
-5.62596e-11
5.16693e-07
4.71317e-10
5.16648e-07
9.46304e-10
5.16535e-07
1.37322e-09
5.16359e-07
1.75629e-09
5.16127e-07
2.09951e-09
5.15844e-07
2.40655e-09
5.15514e-07
2.68087e-09
5.15144e-07
2.92566e-09
5.14736e-07
3.14386e-09
5.14295e-07
3.3382e-09
5.13824e-07
3.51116e-09
5.13325e-07
3.66504e-09
5.12802e-07
3.8019e-09
5.12258e-07
3.92367e-09
5.11694e-07
4.03205e-09
5.11112e-07
4.12862e-09
5.10514e-07
4.2148e-09
5.09902e-07
4.29188e-09
5.09278e-07
4.361e-09
5.08641e-07
4.42319e-09
5.07994e-07
4.4794e-09
5.07338e-07
4.53045e-09
5.06672e-07
4.57707e-09
5.05999e-07
4.61994e-09
5.05318e-07
4.65962e-09
5.0463e-07
4.69664e-09
5.03935e-07
4.73147e-09
5.03235e-07
4.7645e-09
5.02529e-07
4.7961e-09
5.01817e-07
4.8266e-09
5.011e-07
4.85628e-09
5.00378e-07
4.88543e-09
4.99651e-07
4.91428e-09
4.98918e-07
4.94307e-09
4.98181e-07
4.97202e-09
4.97439e-07
5.00134e-09
4.96692e-07
5.03126e-09
4.9594e-07
5.06199e-09
5.09379e-09
4.99618e-07
5.0236e-07
-2.08673e-08
5.04827e-07
-1.85874e-08
5.07035e-07
-1.64613e-08
5.09001e-07
-1.44845e-08
5.10739e-07
-1.2652e-08
5.12265e-07
-1.0958e-08
5.13593e-07
-9.39643e-09
5.14738e-07
-7.96058e-09
5.15714e-07
-6.64366e-09
5.16533e-07
-5.43867e-09
5.17208e-07
-4.33866e-09
5.1775e-07
-3.33662e-09
5.18171e-07
-2.4257e-09
5.18482e-07
-1.59915e-09
5.18691e-07
-8.50494e-10
5.18808e-07
-1.73506e-10
5.18842e-07
4.37656e-10
5.188e-07
9.88509e-10
5.18689e-07
1.48422e-09
5.18515e-07
1.92964e-09
5.18285e-07
2.32926e-09
5.18005e-07
2.68733e-09
5.17678e-07
3.00775e-09
5.17309e-07
3.29414e-09
5.16903e-07
3.54986e-09
5.16464e-07
3.77801e-09
5.15993e-07
3.98142e-09
5.15496e-07
4.1627e-09
5.14973e-07
4.32422e-09
5.14429e-07
4.46817e-09
5.13864e-07
4.59652e-09
5.13282e-07
4.71107e-09
5.12683e-07
4.81347e-09
5.1207e-07
4.90517e-09
5.11443e-07
4.98752e-09
5.10805e-07
5.0617e-09
5.10155e-07
5.1288e-09
5.09496e-07
5.18978e-09
5.08828e-07
5.2455e-09
5.08151e-07
5.29673e-09
5.07466e-07
5.34414e-09
5.06775e-07
5.38836e-09
5.06076e-07
5.4299e-09
5.05372e-07
5.46925e-09
5.04661e-07
5.50686e-09
5.03944e-07
5.54308e-09
5.03222e-07
5.57828e-09
5.02495e-07
5.61275e-09
5.01762e-07
5.6468e-09
5.01025e-07
5.6807e-09
5.00282e-07
5.71469e-09
4.99534e-07
5.74904e-09
4.98782e-07
5.78399e-09
4.98024e-07
5.81979e-09
5.85672e-09
5.04775e-07
-2.35116e-08
5.07157e-07
-2.097e-08
5.09293e-07
-1.85966e-08
5.11195e-07
-1.6387e-08
5.12879e-07
-1.43361e-08
5.14359e-07
-1.24378e-08
5.15648e-07
-1.06856e-08
5.1676e-07
-9.07255e-09
5.17708e-07
-7.59132e-09
5.18504e-07
-6.23441e-09
5.19159e-07
-4.99422e-09
5.19686e-07
-3.8632e-09
5.20094e-07
-2.83384e-09
5.20394e-07
-1.89882e-09
5.20594e-07
-1.05103e-09
5.20704e-07
-2.83642e-10
5.20732e-07
4.0984e-10
5.20685e-07
1.03553e-09
5.2057e-07
1.59921e-09
5.20393e-07
2.10628e-09
5.20161e-07
2.56179e-09
5.19878e-07
2.97045e-09
5.19549e-07
3.33663e-09
5.19179e-07
3.66439e-09
5.18771e-07
3.95748e-09
5.1833e-07
4.21935e-09
5.17858e-07
4.45318e-09
5.17359e-07
4.66189e-09
5.16835e-07
4.84815e-09
5.16289e-07
5.0144e-09
5.15722e-07
5.16286e-09
5.15138e-07
5.29557e-09
5.14537e-07
5.41435e-09
5.13921e-07
5.52088e-09
5.13292e-07
5.61666e-09
5.12651e-07
5.70304e-09
5.11998e-07
5.78125e-09
5.11336e-07
5.85237e-09
5.10664e-07
5.9174e-09
5.09983e-07
5.97719e-09
5.09295e-07
6.03253e-09
5.08599e-07
6.08412e-09
5.07896e-07
6.13257e-09
5.07187e-07
6.17843e-09
5.06472e-07
6.2222e-09
5.05751e-07
6.26431e-09
5.05024e-07
6.30516e-09
5.04291e-07
6.34512e-09
5.03554e-07
6.3845e-09
5.02811e-07
6.42363e-09
5.02063e-07
6.46279e-09
5.01309e-07
6.50226e-09
5.00551e-07
6.54233e-09
4.99788e-07
6.58328e-09
6.62541e-09
5.07287e-07
-2.60259e-08
5.09555e-07
-2.32374e-08
5.11588e-07
-2.06301e-08
5.13401e-07
-1.81998e-08
5.15006e-07
-1.59413e-08
5.16417e-07
-1.38484e-08
5.17645e-07
-1.19145e-08
5.18705e-07
-1.0132e-08
5.19607e-07
-8.4934e-09
5.20363e-07
-6.99065e-09
5.20985e-07
-5.61569e-09
5.21482e-07
-4.36039e-09
5.21865e-07
-3.21673e-09
5.22143e-07
-2.17679e-09
5.22325e-07
-1.23292e-09
5.22419e-07
-3.77725e-10
5.22433e-07
3.95847e-10
5.22374e-07
1.09451e-09
5.22248e-07
1.72455e-09
5.22063e-07
2.29192e-09
5.21822e-07
2.80216e-09
5.21532e-07
3.26045e-09
5.21197e-07
3.6716e-09
5.20822e-07
4.04005e-09
5.20409e-07
4.36997e-09
5.19964e-07
4.66512e-09
5.19488e-07
4.92903e-09
5.18985e-07
5.16491e-09
5.18457e-07
5.37571e-09
5.17907e-07
5.56413e-09
5.17338e-07
5.73264e-09
5.1675e-07
5.88346e-09
5.16145e-07
6.01865e-09
5.15526e-07
6.14004e-09
5.14894e-07
6.24932e-09
5.14249e-07
6.34798e-09
5.13592e-07
6.4374e-09
5.12926e-07
6.51878e-09
5.1225e-07
6.59323e-09
5.11566e-07
6.66171e-09
5.10873e-07
6.72511e-09
5.10173e-07
6.78421e-09
5.09466e-07
6.83969e-09
5.08752e-07
6.89219e-09
5.08032e-07
6.94225e-09
5.07306e-07
6.99037e-09
5.06574e-07
7.037e-09
5.05837e-07
7.08254e-09
5.05094e-07
7.12736e-09
5.04346e-07
7.17182e-09
5.03592e-07
7.21624e-09
5.02834e-07
7.26092e-09
5.0207e-07
7.30619e-09
5.01301e-07
7.35235e-09
7.39972e-09
5.09923e-07
-2.83801e-08
5.12047e-07
-2.53612e-08
5.13952e-07
-2.25352e-08
5.1565e-07
-1.98982e-08
5.17154e-07
-1.74448e-08
5.18474e-07
-1.51688e-08
5.19623e-07
-1.30634e-08
5.20612e-07
-1.11209e-08
5.21452e-07
-9.3333e-09
5.22154e-07
-7.69223e-09
5.22727e-07
-6.18918e-09
5.23182e-07
-4.81555e-09
5.23528e-07
-3.56283e-09
5.23774e-07
-2.42261e-09
5.23928e-07
-1.38672e-09
5.23998e-07
-4.47257e-10
5.2399e-07
4.03342e-10
5.23912e-07
1.1723e-09
5.2377e-07
1.8664e-09
5.2357e-07
2.49207e-09
5.23317e-07
3.05532e-09
5.23016e-07
3.56174e-09
5.22671e-07
4.01657e-09
5.22286e-07
4.42464e-09
5.21866e-07
4.79043e-09
5.21413e-07
5.11809e-09
5.2093e-07
5.41143e-09
5.20421e-07
5.67394e-09
5.19888e-07
5.90885e-09
5.19333e-07
6.1191e-09
5.18759e-07
6.30736e-09
5.18166e-07
6.47609e-09
5.17557e-07
6.62752e-09
5.16933e-07
6.76368e-09
5.16296e-07
6.88638e-09
5.15647e-07
6.99729e-09
5.14987e-07
7.0979e-09
5.14316e-07
7.18956e-09
5.13636e-07
7.27346e-09
5.12947e-07
7.35069e-09
5.12249e-07
7.42221e-09
5.11545e-07
7.48888e-09
5.10833e-07
7.55149e-09
5.10114e-07
7.6107e-09
5.0939e-07
7.66714e-09
5.08659e-07
7.72136e-09
5.07922e-07
7.77384e-09
5.07179e-07
7.82506e-09
5.06431e-07
7.87541e-09
5.05678e-07
7.92527e-09
5.04919e-07
7.97502e-09
5.04155e-07
8.02498e-09
5.03386e-07
8.07549e-09
5.02611e-07
8.1269e-09
8.17954e-09
5.12692e-07
-3.0547e-08
5.14647e-07
-2.73159e-08
5.164e-07
-2.42881e-08
5.17962e-07
-2.14597e-08
5.19342e-07
-1.88256e-08
5.20553e-07
-1.63796e-08
5.21604e-07
-1.41145e-08
5.22506e-07
-1.20227e-08
5.23268e-07
-1.00958e-08
5.23901e-07
-8.3251e-09
5.24414e-07
-6.70182e-09
5.24815e-07
-5.21691e-09
5.25114e-07
-3.86143e-09
5.25318e-07
-2.62653e-09
5.25435e-07
-1.50359e-09
5.25472e-07
-4.84252e-10
5.25436e-07
4.39516e-10
5.25332e-07
1.27536e-09
5.25168e-07
2.03056e-09
5.24948e-07
2.71192e-09
5.24678e-07
3.32591e-09
5.24361e-07
3.87849e-09
5.24002e-07
4.37528e-09
5.23606e-07
4.82146e-09
5.23174e-07
5.22186e-09
5.22711e-07
5.58091e-09
5.2222e-07
5.90273e-09
5.21703e-07
6.19108e-09
5.21162e-07
6.4494e-09
5.20601e-07
6.68091e-09
5.20019e-07
6.88845e-09
5.19421e-07
7.07471e-09
5.18806e-07
7.24207e-09
5.18177e-07
7.39273e-09
5.17535e-07
7.52867e-09
5.16881e-07
7.65168e-09
5.16215e-07
7.76339e-09
5.15539e-07
7.86524e-09
5.14854e-07
7.95856e-09
5.1416e-07
8.04451e-09
5.13459e-07
8.12415e-09
5.12749e-07
8.19843e-09
5.12032e-07
8.26817e-09
5.11309e-07
8.33414e-09
5.10579e-07
8.397e-09
5.09843e-07
8.45737e-09
5.09101e-07
8.51577e-09
5.08353e-07
8.57272e-09
5.076e-07
8.62865e-09
5.06841e-07
8.68398e-09
5.06077e-07
8.7391e-09
5.05308e-07
8.79439e-09
5.04533e-07
8.85018e-09
5.03753e-07
8.90687e-09
5.02968e-07
8.96479e-09
9.02436e-09
5.15593e-07
5.17356e-07
-2.90786e-08
5.18935e-07
-2.58672e-08
5.2034e-07
-2.28644e-08
5.21579e-07
-2.00651e-08
5.22663e-07
-1.74632e-08
5.236e-07
-1.50515e-08
5.244e-07
-1.28222e-08
5.25071e-07
-1.07669e-08
5.25622e-07
-8.87649e-09
5.26062e-07
-7.14187e-09
5.26399e-07
-5.55372e-09
5.2664e-07
-4.1027e-09
5.26793e-07
-2.7796e-09
5.26865e-07
-1.5754e-09
5.26862e-07
-4.81327e-10
5.26791e-07
5.1102e-10
5.26656e-07
1.40972e-09
5.26464e-07
2.22241e-09
5.2622e-07
2.95634e-09
5.25928e-07
3.61826e-09
5.25592e-07
4.21457e-09
5.25216e-07
4.75118e-09
5.24804e-07
5.23362e-09
5.24358e-07
5.66699e-09
5.23883e-07
6.05603e-09
5.23381e-07
6.4051e-09
5.22854e-07
6.71822e-09
5.22304e-07
6.99908e-09
5.21734e-07
7.25105e-09
5.21145e-07
7.47724e-09
5.20539e-07
7.68047e-09
5.19918e-07
7.86329e-09
5.19283e-07
8.02809e-09
5.18635e-07
8.17694e-09
5.17974e-07
8.31181e-09
5.17303e-07
8.4344e-09
5.16622e-07
8.5463e-09
5.15932e-07
8.64891e-09
5.15233e-07
8.7435e-09
5.14526e-07
8.83121e-09
5.13811e-07
8.91304e-09
5.1309e-07
8.98992e-09
5.12361e-07
9.06263e-09
5.11626e-07
9.13194e-09
5.10885e-07
9.19848e-09
5.10138e-07
9.26284e-09
5.09385e-07
9.32555e-09
5.08627e-07
9.3871e-09
5.07863e-07
9.44793e-09
5.07093e-07
9.50846e-09
5.06319e-07
9.5691e-09
5.05539e-07
9.6302e-09
5.04753e-07
9.69218e-09
5.03963e-07
9.75539e-09
9.82026e-09
5.20166e-07
-3.06294e-08
5.21552e-07
-2.72537e-08
5.22782e-07
-2.40944e-08
5.23864e-07
-2.11465e-08
5.24805e-07
-1.84041e-08
5.25613e-07
-1.586e-08
5.26297e-07
-1.35063e-08
5.26865e-07
-1.13343e-08
5.27323e-07
-9.33498e-09
5.2768e-07
-7.49885e-09
5.27943e-07
-5.81634e-09
5.28118e-07
-4.27782e-09
5.28212e-07
-2.87376e-09
5.28232e-07
-1.5948e-09
5.28182e-07
-4.31838e-10
5.28069e-07
6.239e-10
5.27898e-07
1.58081e-09
5.27674e-07
2.44689e-09
5.274e-07
3.2297e-09
5.27082e-07
3.93635e-09
5.26723e-07
4.57352e-09
5.26327e-07
5.14744e-09
5.25897e-07
5.66392e-09
5.25435e-07
6.12833e-09
5.24946e-07
6.54566e-09
5.2443e-07
6.92051e-09
5.23891e-07
7.25712e-09
5.23331e-07
7.55938e-09
5.22751e-07
7.83088e-09
5.22154e-07
8.07488e-09
5.2154e-07
8.29437e-09
5.20911e-07
8.49208e-09
5.20269e-07
8.67049e-09
5.19614e-07
8.83185e-09
5.18947e-07
8.97821e-09
5.1827e-07
9.11141e-09
5.17583e-07
9.23312e-09
5.16888e-07
9.34484e-09
5.16183e-07
9.44793e-09
5.15471e-07
9.54358e-09
5.14751e-07
9.63289e-09
5.14024e-07
9.71684e-09
5.1329e-07
9.79628e-09
5.1255e-07
9.872e-09
5.11804e-07
9.94471e-09
5.11052e-07
1.0015e-08
5.10294e-07
1.00835e-08
5.0953e-07
1.01507e-08
5.08761e-07
1.02171e-08
5.07987e-07
1.0283e-08
5.07207e-07
1.0349e-08
5.06421e-07
1.04155e-08
5.05631e-07
1.04827e-08
5.04835e-07
1.05512e-08
1.06214e-08
5.23062e-07
-3.19512e-08
5.24239e-07
-2.84315e-08
5.2528e-07
-2.51346e-08
5.26189e-07
-2.20557e-08
5.26974e-07
-1.9189e-08
5.27641e-07
-1.65275e-08
5.28198e-07
-1.40632e-08
5.28651e-07
-1.17873e-08
5.29007e-07
-9.69059e-09
5.29271e-07
-7.76354e-09
5.29451e-07
-5.99631e-09
5.29552e-07
-4.37903e-09
5.29581e-07
-2.90192e-09
5.29541e-07
-1.55532e-09
5.29439e-07
-3.29875e-10
5.2928e-07
7.8349e-10
5.29067e-07
1.79347e-09
5.28805e-07
2.70833e-09
5.28499e-07
3.53594e-09
5.28152e-07
4.28367e-09
5.27767e-07
4.95848e-09
5.27348e-07
5.56686e-09
5.26897e-07
6.11485e-09
5.26417e-07
6.60808e-09
5.25911e-07
7.05175e-09
5.25381e-07
7.45067e-09
5.24828e-07
7.80927e-09
5.24256e-07
8.13165e-09
5.23666e-07
8.42153e-09
5.23058e-07
8.68237e-09
5.22435e-07
8.91728e-09
5.21798e-07
9.12915e-09
5.21148e-07
9.32057e-09
5.20486e-07
9.4939e-09
5.19813e-07
9.65133e-09
5.19129e-07
9.79476e-09
5.18437e-07
9.92598e-09
5.17735e-07
1.00466e-08
5.17025e-07
1.01579e-08
5.16307e-07
1.02614e-08
5.15582e-07
1.03581e-08
5.1485e-07
1.0449e-08
5.14111e-07
1.05351e-08
5.13366e-07
1.06172e-08
5.12615e-07
1.0696e-08
5.11857e-07
1.07723e-08
5.11094e-07
1.08465e-08
5.10326e-07
1.09194e-08
5.09551e-07
1.09912e-08
5.08772e-07
1.10627e-08
5.07987e-07
1.1134e-08
5.07196e-07
1.12058e-08
5.06401e-07
1.12784e-08
5.056e-07
1.13521e-08
1.14275e-08
5.48552e-07
-3.28999e-08
5.4937e-07
-2.92502e-08
5.50064e-07
-2.58284e-08
5.50639e-07
-2.26303e-08
5.511e-07
-1.96502e-08
5.51453e-07
-1.6881e-08
5.51705e-07
-1.43149e-08
5.51861e-07
-1.1943e-08
5.51926e-07
-9.75613e-09
5.51907e-07
-7.7445e-09
5.51809e-07
-5.89814e-09
5.51637e-07
-4.20701e-09
5.51396e-07
-2.66109e-09
5.51092e-07
-1.25052e-09
5.50727e-07
3.43066e-11
5.50308e-07
1.20271e-09
5.49838e-07
2.26363e-09
5.49321e-07
3.22558e-09
5.4876e-07
4.09667e-09
5.48159e-07
4.88453e-09
5.47521e-07
5.59635e-09
5.46849e-07
6.23883e-09
5.46146e-07
6.81825e-09
5.45414e-07
7.34045e-09
5.44654e-07
7.81082e-09
5.43871e-07
8.23436e-09
5.43064e-07
8.61569e-09
5.42237e-07
8.95906e-09
5.4139e-07
9.26836e-09
5.40525e-07
9.54717e-09
5.39644e-07
9.79878e-09
5.38747e-07
1.00262e-08
5.37835e-07
1.0232e-08
5.3691e-07
1.04189e-08
5.35973e-07
1.0589e-08
5.35023e-07
1.07443e-08
5.34062e-07
1.08868e-08
5.33091e-07
1.10181e-08
5.32109e-07
1.11396e-08
5.31118e-07
1.12527e-08
5.30117e-07
1.13587e-08
5.29108e-07
1.14586e-08
5.28089e-07
1.15533e-08
5.27063e-07
1.16438e-08
5.26028e-07
1.17309e-08
5.24985e-07
1.18152e-08
5.23934e-07
1.18973e-08
5.22876e-07
1.1978e-08
5.21809e-07
1.20575e-08
5.20735e-07
1.21366e-08
5.19654e-07
1.22155e-08
5.18565e-07
1.22948e-08
5.17468e-07
1.23749e-08
5.16364e-07
1.24562e-08
1.25391e-08
5.12498e-07
5.13319e-07
-3.00711e-08
5.14047e-07
-2.65565e-08
5.14686e-07
-2.32695e-08
5.1524e-07
-2.02044e-08
5.15714e-07
-1.73544e-08
5.1611e-07
-1.47116e-08
5.16435e-07
-1.22672e-08
5.1669e-07
-1.0012e-08
5.16882e-07
-7.93616e-09
5.17014e-07
-6.02962e-09
5.17089e-07
-4.28221e-09
5.17111e-07
-2.68381e-09
5.17085e-07
-1.2244e-09
5.17014e-07
1.05794e-10
5.169e-07
1.31625e-09
5.16748e-07
2.41607e-09
5.16559e-07
3.41396e-09
5.16338e-07
4.31819e-09
5.16086e-07
5.13658e-09
5.15806e-07
5.87646e-09
5.155e-07
6.54473e-09
5.1517e-07
7.14783e-09
5.14819e-07
7.69173e-09
5.14448e-07
8.18199e-09
5.14058e-07
8.62375e-09
5.13652e-07
9.02176e-09
5.13231e-07
9.38041e-09
5.12796e-07
9.70369e-09
5.12348e-07
9.99532e-09
5.11888e-07
1.02587e-08
5.11417e-07
1.04968e-08
5.10936e-07
1.07126e-08
5.10447e-07
1.09085e-08
5.09949e-07
1.1087e-08
5.09443e-07
1.12501e-08
5.0893e-07
1.13998e-08
5.08411e-07
1.15377e-08
5.07885e-07
1.16654e-08
5.07353e-07
1.17843e-08
5.06816e-07
1.18958e-08
5.06274e-07
1.20008e-08
5.05727e-07
1.21004e-08
5.05175e-07
1.21956e-08
5.04619e-07
1.22871e-08
5.04058e-07
1.23757e-08
5.03493e-07
1.2462e-08
5.02925e-07
1.25466e-08
5.02352e-07
1.26301e-08
5.01776e-07
1.2713e-08
5.01196e-07
1.27957e-08
5.00612e-07
1.28787e-08
5.00024e-07
1.29624e-08
4.99433e-07
1.30473e-08
1.31337e-08
4.80748e-07
4.81525e-07
-2.73332e-08
4.82237e-07
-2.39823e-08
4.82889e-07
-2.0856e-08
4.83482e-07
-1.79474e-08
4.84019e-07
-1.52489e-08
4.84504e-07
-1.27518e-08
4.84939e-07
-1.04467e-08
4.85326e-07
-8.32386e-09
4.8567e-07
-6.37322e-09
4.85972e-07
-4.58453e-09
4.86236e-07
-2.9476e-09
4.86464e-07
-1.45232e-09
4.86658e-07
-8.88208e-11
4.86822e-07
1.15247e-09
4.86958e-07
2.28077e-09
4.87067e-07
3.3049e-09
4.87152e-07
4.23325e-09
4.87214e-07
5.07375e-09
4.87257e-07
5.83386e-09
4.87281e-07
6.52061e-09
4.87288e-07
7.14052e-09
4.8728e-07
7.6997e-09
4.87259e-07
8.20381e-09
4.87224e-07
8.65811e-09
4.87179e-07
9.06742e-09
4.87123e-07
9.43624e-09
4.87058e-07
9.76866e-09
4.86985e-07
1.00685e-08
4.86904e-07
1.03391e-08
4.86817e-07
1.05838e-08
4.86724e-07
1.08053e-08
4.86627e-07
1.10064e-08
4.86524e-07
1.11894e-08
4.86418e-07
1.13565e-08
4.86308e-07
1.15096e-08
4.86195e-07
1.16506e-08
4.86079e-07
1.1781e-08
4.85961e-07
1.19023e-08
4.85841e-07
1.20157e-08
4.8572e-07
1.21225e-08
4.85596e-07
1.22236e-08
4.85472e-07
1.23201e-08
4.85346e-07
1.24127e-08
4.8522e-07
1.25022e-08
4.85093e-07
1.25893e-08
4.84965e-07
1.26745e-08
4.84836e-07
1.27586e-08
4.84708e-07
1.28419e-08
4.84578e-07
1.29249e-08
4.84449e-07
1.30082e-08
4.84319e-07
1.3092e-08
4.8419e-07
1.3177e-08
1.32634e-08
4.52168e-07
-2.817e-08
4.52961e-07
-2.47757e-08
4.53713e-07
-2.16077e-08
4.54424e-07
-1.86591e-08
4.55098e-07
-1.59224e-08
4.55735e-07
-1.3389e-08
4.56338e-07
-1.10494e-08
4.56908e-07
-8.89414e-09
4.57448e-07
-6.91297e-09
4.57959e-07
-5.09569e-09
4.58444e-07
-3.43207e-09
4.58903e-07
-1.91199e-09
4.5934e-07
-5.25525e-10
4.59755e-07
7.36963e-10
4.60151e-07
1.88476e-09
4.6053e-07
2.92674e-09
4.60891e-07
3.87138e-09
4.61239e-07
4.72668e-09
4.61572e-07
5.50019e-09
4.61894e-07
6.19899e-09
4.62205e-07
6.8297e-09
4.62506e-07
7.39851e-09
4.62799e-07
7.91114e-09
4.63084e-07
8.37292e-09
4.63362e-07
8.78877e-09
4.63635e-07
9.16323e-09
4.63904e-07
9.50047e-09
4.64168e-07
9.80433e-09
4.64428e-07
1.00783e-08
4.64687e-07
1.03257e-08
4.64943e-07
1.05494e-08
4.65197e-07
1.0752e-08
4.6545e-07
1.09361e-08
4.65703e-07
1.11038e-08
4.65956e-07
1.12571e-08
4.66208e-07
1.13979e-08
4.66461e-07
1.15278e-08
4.66716e-07
1.16483e-08
4.66971e-07
1.17606e-08
4.67227e-07
1.1866e-08
4.67485e-07
1.19656e-08
4.67745e-07
1.20603e-08
4.68006e-07
1.2151e-08
4.6827e-07
1.22384e-08
4.68536e-07
1.23232e-08
4.68805e-07
1.24061e-08
4.69076e-07
1.24877e-08
4.69349e-07
1.25683e-08
4.69625e-07
1.26487e-08
4.69904e-07
1.27291e-08
4.70186e-07
1.281e-08
4.70472e-07
1.28919e-08
1.29751e-08
4.25678e-07
-2.9075e-08
4.26557e-07
-2.56544e-08
4.2741e-07
-2.24607e-08
4.28238e-07
-1.94875e-08
4.29043e-07
-1.6727e-08
4.29825e-07
-1.41709e-08
4.30585e-07
-1.18099e-08
4.31325e-07
-9.63424e-09
4.32046e-07
-7.63395e-09
4.3275e-07
-5.79879e-09
4.33436e-07
-4.11854e-09
4.34107e-07
-2.58306e-09
4.34764e-07
-1.18243e-09
4.35408e-07
9.30084e-11
4.3604e-07
1.25258e-09
4.36662e-07
2.30519e-09
4.37274e-07
3.25935e-09
4.37877e-07
4.1231e-09
4.38473e-07
4.90404e-09
4.39063e-07
5.6093e-09
4.39647e-07
6.24554e-09
4.40227e-07
6.819e-09
4.40802e-07
7.33546e-09
4.41375e-07
7.80028e-09
4.41945e-07
8.21844e-09
4.42514e-07
8.59452e-09
4.43082e-07
8.93273e-09
4.43649e-07
9.23697e-09
4.44217e-07
9.51079e-09
4.44785e-07
9.75745e-09
4.45354e-07
9.97994e-09
4.45925e-07
1.0181e-08
4.46499e-07
1.0363e-08
4.47074e-07
1.05283e-08
4.47652e-07
1.06789e-08
4.48234e-07
1.08166e-08
4.48818e-07
1.09431e-08
4.49406e-07
1.106e-08
4.49999e-07
1.11685e-08
4.50595e-07
1.12698e-08
4.51195e-07
1.13651e-08
4.518e-07
1.14553e-08
4.5241e-07
1.15413e-08
4.53024e-07
1.16239e-08
4.53644e-07
1.17038e-08
4.54268e-07
1.17816e-08
4.54898e-07
1.18579e-08
4.55533e-07
1.19333e-08
4.56174e-07
1.20081e-08
4.5682e-07
1.20829e-08
4.57472e-07
1.21581e-08
4.58129e-07
1.22341e-08
1.23113e-08
4.01787e-07
-3.00538e-08
4.02753e-07
-2.66206e-08
4.03707e-07
-2.34145e-08
4.04649e-07
-2.04292e-08
4.05579e-07
-1.7657e-08
4.06498e-07
-1.50896e-08
4.07406e-07
-1.27178e-08
4.08303e-07
-1.05319e-08
4.09191e-07
-8.52208e-09
4.10071e-07
-6.67806e-09
4.10942e-07
-4.98967e-09
4.11805e-07
-3.44678e-09
4.12662e-07
-2.03949e-09
4.13514e-07
-7.58139e-10
4.1436e-07
4.06581e-10
4.15201e-07
1.4636e-09
4.16039e-07
2.42143e-09
4.16874e-07
3.28814e-09
4.17707e-07
4.07133e-09
4.18538e-07
4.77817e-09
4.19368e-07
5.41534e-09
4.20198e-07
5.98909e-09
4.21028e-07
6.50524e-09
4.21859e-07
6.96919e-09
4.22692e-07
7.38592e-09
4.23526e-07
7.76005e-09
4.24363e-07
8.09584e-09
4.25203e-07
8.39718e-09
4.26046e-07
8.66767e-09
4.26893e-07
8.9106e-09
4.27744e-07
9.12897e-09
4.28599e-07
9.32552e-09
4.2946e-07
9.50275e-09
4.30325e-07
9.66293e-09
4.31196e-07
9.80812e-09
4.32072e-07
9.94019e-09
4.32955e-07
1.00608e-08
4.33843e-07
1.01715e-08
4.34738e-07
1.02736e-08
4.35639e-07
1.03684e-08
4.36547e-07
1.0457e-08
4.37463e-07
1.05403e-08
4.38385e-07
1.06192e-08
4.39314e-07
1.06946e-08
4.40251e-07
1.07671e-08
4.41195e-07
1.08374e-08
4.42147e-07
1.0906e-08
4.43107e-07
1.09735e-08
4.44075e-07
1.10404e-08
4.4505e-07
1.11072e-08
4.46034e-07
1.11741e-08
4.47027e-07
1.12418e-08
1.13105e-08
3.8025e-07
-3.11092e-08
3.81304e-07
-2.76747e-08
3.82356e-07
-2.44671e-08
3.83407e-07
-2.148e-08
3.84456e-07
-1.87059e-08
3.85503e-07
-1.61366e-08
3.86548e-07
-1.37629e-08
3.87592e-07
-1.15754e-08
3.88634e-07
-9.56401e-09
3.89674e-07
-7.71872e-09
3.90714e-07
-6.02935e-09
3.91753e-07
-4.48582e-09
3.92792e-07
-3.07825e-09
3.93831e-07
-1.79701e-09
3.9487e-07
-6.32813e-10
3.9591e-07
4.23264e-10
3.96952e-07
1.37972e-09
3.97996e-07
2.24462e-09
3.99041e-07
3.02557e-09
4.0009e-07
3.72973e-09
4.01141e-07
4.3638e-09
4.02196e-07
4.93402e-09
4.03255e-07
5.44624e-09
4.04319e-07
5.90585e-09
4.05387e-07
6.31786e-09
4.0646e-07
6.68689e-09
4.07539e-07
7.01722e-09
4.08623e-07
7.31276e-09
4.09714e-07
7.57712e-09
4.10811e-07
7.81361e-09
4.11914e-07
8.02524e-09
4.13025e-07
8.21477e-09
4.14143e-07
8.38471e-09
4.15269e-07
8.53735e-09
4.16402e-07
8.67476e-09
4.17543e-07
8.79882e-09
4.18693e-07
8.91123e-09
4.19851e-07
9.0135e-09
4.21018e-07
9.10703e-09
4.22193e-07
9.19303e-09
4.23377e-07
9.27264e-09
4.24571e-07
9.34684e-09
4.25773e-07
9.41651e-09
4.26985e-07
9.48247e-09
4.28207e-07
9.54541e-09
4.29438e-07
9.606e-09
4.3068e-07
9.6648e-09
4.31931e-07
9.72235e-09
4.33192e-07
9.77912e-09
4.34464e-07
9.83556e-09
4.35746e-07
9.89209e-09
4.37038e-07
9.94911e-09
1.0007e-08
3.60843e-07
-3.2242e-08
3.61983e-07
-2.88154e-08
3.63131e-07
-2.56151e-08
3.64286e-07
-2.26347e-08
3.65447e-07
-1.98669e-08
3.66614e-07
-1.73035e-08
3.67787e-07
-1.49354e-08
3.68964e-07
-1.27532e-08
3.70147e-07
-1.0747e-08
3.71336e-07
-8.90687e-09
3.72529e-07
-7.22258e-09
3.73727e-07
-5.68416e-09
3.74931e-07
-4.28174e-09
3.76139e-07
-3.00576e-09
3.77353e-07
-1.84695e-09