/*--------------------------------*- C++ -*----------------------------------*\
  =========                 |
  \\      /  F ield         | OpenFOAM: The Open Source CFD Toolbox
   \\    /   O peration     | Website:  https://openfoam.org
    \\  /    A nd           | Version:  6
     \\/     M anipulation  |
\*---------------------------------------------------------------------------*/
FoamFile
{
    version     2.0;
    format      ascii;
    class       volVectorField;
    location    "0.08";
    object      U;
}
// * * * * * * * * * * * * * * * * * * * * * * * * * * * * * * * * * * * * * //

dimensions      [0 1 -1 0 0 0 0];

internalField   nonuniform List<vector> 
3081
(
(0.424139 -0.00169007 8.31901e-21)
(0.426761 -0.00150632 8.24481e-21)
(0.429118 -0.00133931 8.17325e-21)
(0.43123 -0.00118796 0)
(0.433118 -0.00105116 0)
(0.4348 -0.000927855 0)
(0.436296 -0.000816981 7.91106e-21)
(0.437621 -0.000717527 0)
(0.438791 -0.000628515 0)
(0.439821 -0.000549014 -7.73645e-21)
(0.440725 -0.000478037 0)
(0.441514 -0.000414595 0)
(0.442199 -0.000357785 -7.57769e-21)
(0.442792 -0.00030291 0)
(0.443282 -0.000244829 0)
(0.443672 -0.000188252 7.43243e-21)
(0.443984 -0.000141304 7.38654e-21)
(0.444233 -0.000105674 0)
(0.444429 -7.91379e-05 -7.29827e-21)
(0.444582 -5.92715e-05 0)
(0.444701 -4.42464e-05 7.21413e-21)
(0.444791 -3.27227e-05 0)
(0.444856 -2.37608e-05 7.13359e-21)
(0.444902 -1.67315e-05 7.09453e-21)
(0.444931 -1.12131e-05 0)
(0.444946 -6.91067e-06 0)
(0.444949 -3.60835e-06 0)
(0.444944 -1.14015e-06 0)
(0.44493 6.2711e-07 0)
(0.44491 1.80444e-06 0)
(0.444886 2.48643e-06 0)
(0.444859 2.75448e-06 6.80496e-21)
(0.444829 2.67951e-06 -6.77107e-21)
(0.444797 2.32313e-06 0)
(0.444765 1.73838e-06 0)
(0.444733 9.70733e-07 0)
(0.444701 5.86336e-08 0)
(0.44467 -9.65417e-07 -1.32145e-20)
(0.444641 -2.07427e-06 0)
(0.444613 -3.24509e-06 1.30879e-20)
(0.444586 -4.45858e-06 -1.30254e-20)
(0.444562 -5.69825e-06 0)
(0.44454 -6.95044e-06 0)
(0.44452 -8.20319e-06 0)
(0.444503 -9.44611e-06 1.278e-20)
(0.444487 -1.06704e-05 1.27197e-20)
(0.444475 -1.18682e-05 0)
(0.444465 -1.30328e-05 1.26002e-20)
(0.444457 -1.41577e-05 1.25409e-20)
(0.444452 -1.5237e-05 -1.2482e-20)
(0.444449 -1.62651e-05 0)
(0.444448 -1.72361e-05 0)
(0.44445 -1.81431e-05 -1.2307e-20)
(0.444453 -1.89783e-05 0)
(0.444459 -1.97329e-05 0)
(0.444466 -2.03971e-05 0)
(0.444475 -2.09598e-05 0)
(0.445364 -0.00430006 6.1091e-21)
(0.44848 -0.00384642 -6.12676e-21)
(0.451305 -0.00343178 -6.09476e-21)
(0.453859 -0.00305398 0)
(0.456164 -0.00271077 0)
(0.458238 -0.00239988 0)
(0.460099 -0.00211903 -5.96972e-21)
(0.461765 -0.001866 0)
(0.463252 -0.0016386 1.17981e-20)
(0.464577 -0.00143469 1.76209e-20)
(0.465753 -0.00125211 -1.16848e-20)
(0.466794 -0.00108869 0)
(0.467714 -0.000942012 -5.78052e-21)
(0.468525 -0.000807367 0)
(0.469251 -0.000681662 -1.14657e-20)
(0.469904 -0.000568288 5.70151e-21)
(0.470482 -0.000471047 5.67539e-21)
(0.470987 -0.000389386 0)
(0.471425 -0.000320845 1.68848e-20)
(0.4718 -0.000263247 -1.12032e-20)
(0.47212 -0.000214842 -5.57874e-21)
(0.472391 -0.000174153 0)
(0.47262 -0.000139959 -5.52863e-21)
(0.47281 -0.00011128 -1.65091e-20)
(0.472968 -8.73134e-05 0)
(0.473098 -6.73919e-05 -1.09095e-20)
(0.473204 -5.09518e-05 -1.08625e-20)
(0.473288 -3.75121e-05 -1.08161e-20)
(0.473355 -2.66586e-05 0)
(0.473406 -1.8031e-05 0)
(0.473444 -1.13146e-05 0)
(0.473472 -6.2334e-06 5.31669e-21)
(0.47349 -2.54463e-06 5.29559e-21)
(0.473502 -3.51656e-08 0)
(0.473507 1.48149e-06 1.05022e-20)
(0.473508 2.16776e-06 1.04586e-20)
(0.473505 2.16454e-06 0)
(0.473499 1.59352e-06 1.03729e-20)
(0.473492 5.59375e-07 2.06588e-20)
(0.473483 -8.47927e-07 -1.02873e-20)
(0.473474 -2.55123e-06 -1.02437e-20)
(0.473464 -4.48425e-06 0)
(0.473455 -6.59037e-06 0)
(0.473447 -8.82096e-06 0)
(0.47344 -1.11342e-05 -1.00761e-20)
(0.473433 -1.3494e-05 1.00333e-20)
(0.473429 -1.58698e-05 1.99839e-20)
(0.473425 -1.82345e-05 -9.95074e-21)
(0.473424 -2.05645e-05 9.90815e-21)
(0.473424 -2.28384e-05 9.86756e-21)
(0.473427 -2.50366e-05 0)
(0.473431 -2.71398e-05 0)
(0.473437 -2.91282e-05 -9.74229e-21)
(0.473445 -3.09811e-05 0)
(0.473454 -3.26766e-05 0)
(0.473466 -3.41904e-05 1.9238e-20)
(0.473479 -3.54977e-05 0)
(0.452049 -0.00762833 -9.57391e-21)
(0.455386 -0.00685345 0)
(0.458424 -0.00614183 0)
(0.461184 -0.00549036 0)
(0.463685 -0.00489578 0)
(0.465945 -0.00435474 0)
(0.467983 -0.00386382 -9.39201e-21)
(0.469816 -0.00341959 0)
(0.47146 -0.00301868 -9.35249e-21)
(0.472931 -0.00265776 -9.32085e-21)
(0.474244 -0.00233357 9.28871e-21)
(0.475414 -0.00204293 0)
(0.476453 -0.00178284 9.22328e-21)
(0.477374 -0.00155063 0)
(0.47819 -0.00134308 9.15704e-21)
(0.478915 -0.00115704 -9.12383e-21)
(0.479558 -0.000991128 -2.72546e-20)
(0.480125 -0.000844742 0)
(0.480622 -0.000716762 -2.70508e-20)
(0.481056 -0.000605625 -8.97629e-21)
(0.481432 -0.000509603 0)
(0.481757 -0.000426962 -1.78284e-20)
(0.482035 -0.000356072 -1.77616e-20)
(0.482273 -0.000295463 2.65455e-20)
(0.482474 -0.000243835 0)
(0.482644 -0.000200046 8.78358e-21)
(0.482786 -0.000163097 8.75032e-21)
(0.482904 -0.000132109 2.61479e-20)
(0.483001 -0.000106313 0)
(0.48308 -8.5029e-05 0)
(0.483143 -6.76594e-05 0)
(0.483194 -5.36743e-05 8.5838e-21)
(0.483233 -4.2606e-05 0)
(0.483263 -3.40414e-05 0)
(0.483285 -2.76161e-05 -8.48881e-21)
(0.4833 -2.30105e-05 -8.45653e-21)
(0.483311 -1.99444e-05 0)
(0.483317 -1.81735e-05 0)
(0.483321 -1.7485e-05 -1.67199e-20)
(0.483322 -1.76947e-05 0)
(0.483321 -1.86431e-05 1.65914e-20)
(0.483319 -2.01923e-05 1.65264e-20)
(0.483317 -2.22233e-05 0)
(0.483314 -2.46335e-05 0)
(0.483312 -2.73346e-05 -1.63338e-20)
(0.48331 -3.025e-05 -6.42242e-25)
(0.483309 -3.33139e-05 -6.18071e-25)
(0.48331 -3.64687e-05 0)
(0.483311 -3.96638e-05 -3.21529e-20)
(0.483314 -4.2854e-05 0)
(0.483318 -4.59975e-05 0)
(0.483324 -4.90549e-05 0)
(0.483332 -5.19881e-05 1.58179e-20)
(0.483341 -5.47586e-05 0)
(0.483351 -5.73274e-05 -3.13748e-20)
(0.483364 -5.9653e-05 -1.56229e-20)
(0.483377 -6.16915e-05 0)
(0.455792 -0.0111206 -1.60174e-20)
(0.459253 -0.0100167 1.60095e-20)
(0.462413 -0.00899998 1.59971e-20)
(0.465293 -0.00806659 -1.59805e-20)
(0.467911 -0.00721234 -1.59599e-20)
(0.470284 -0.00643286 0)
(0.472431 -0.00572366 -7.93582e-21)
(0.474368 -0.00508022 0)
(0.476111 -0.00449802 0)
(0.477676 -0.0039726 -1.58087e-20)
(0.479078 -0.00349961 0)
(0.48033 -0.00307483 0)
(0.481447 -0.00269428 -1.5689e-20)
(0.482441 -0.00235419 0)
(0.483323 -0.00205064 0)
(0.484105 -0.00177971 0)
(0.484798 -0.00153839 3.10303e-20)
(0.48541 -0.00132453 0)
(0.485949 -0.00113603 3.08261e-20)
(0.486422 -0.000970696 1.53663e-20)
(0.486836 -0.000826322 1.53053e-20)
(0.487195 -0.000700757 7.68923e-24)
(0.487506 -0.00059196 1.52086e-20)
(0.487774 -0.000498041 -3.03053e-20)
(0.488004 -0.000417282 -1.50974e-20)
(0.4882 -0.000348129 0)
(0.488366 -0.000289195 -1.49926e-20)
(0.488506 -0.000239235 -2.98839e-20)
(0.488623 -0.000197145 0)
(0.48872 -0.000161938 0)
(0.4888 -0.000132737 0)
(0.488866 -0.00010876 -2.42827e-24)
(0.488918 -8.93131e-05 0)
(0.48896 -7.3781e-05 0)
(0.488993 -6.1618e-05 0)
(0.489018 -5.23425e-05 0)
(0.489037 -4.55308e-05 2.89276e-20)
(0.489051 -4.08109e-05 0)
(0.489061 -3.78573e-05 -2.87141e-20)
(0.489068 -3.63863e-05 0)
(0.489072 -3.61508e-05 -2.84996e-20)
(0.489075 -3.69363e-05 -1.41968e-20)
(0.489076 -3.85569e-05 2.82841e-20)
(0.489076 -4.08516e-05 -2.8176e-20)
(0.489077 -4.36811e-05 -1.40331e-20)
(0.489077 -4.69247e-05 1.39788e-20)
(0.489078 -5.04775e-05 -1.39253e-20)
(0.489079 -5.4248e-05 0)
(0.489082 -5.81556e-05 -1.38147e-20)
(0.489085 -6.21278e-05 0)
(0.48909 -6.60989e-05 0)
(0.489096 -7.00073e-05 0)
(0.489103 -7.37941e-05 -2.7188e-20)
(0.489111 -7.74016e-05 0)
(0.489121 -8.07717e-05 8.09077e-25)
(0.489132 -8.38444e-05 0)
(0.489145 -8.65563e-05 0)
(0.458562 -0.0147201 2.83434e-20)
(0.462085 -0.0132858 -1.42001e-20)
(0.465311 -0.0119617 -2.83509e-20)
(0.468257 -0.0107434 1.41914e-20)
(0.470942 -0.00962579 1.41811e-20)
(0.473382 -0.00860373 0)
(0.475595 -0.00767178 3.15653e-23)
(0.477596 -0.00682441 0)
(0.479402 -0.00605606 -1.40799e-20)
(0.481028 -0.00536124 1.40804e-20)
(0.482489 -0.00473453 0)
(0.483797 -0.0041707 0)
(0.484967 -0.00366474 1.39896e-20)
(0.48601 -0.00321186 -1.39392e-20)
(0.486938 -0.0028073 0)
(0.487763 -0.00244642 0)
(0.488493 -0.00212509 -1.38456e-20)
(0.48914 -0.00183983 0)
(0.489711 -0.00158751 -1.37617e-20)
(0.490213 -0.00136514 0)
(0.490653 -0.00116989 -1.3675e-20)
(0.491038 -0.000999102 1.36311e-20)
(0.491372 -0.000850242 -2.71602e-20)
(0.491662 -0.000720971 1.35422e-20)
(0.491912 -0.00060914 1.34973e-20)
(0.492127 -0.000512786 0)
(0.492311 -0.000430133 1.34069e-20)
(0.492467 -0.000359578 1.33615e-20)
(0.492598 -0.000299679 0)
(0.492709 -0.000249143 0)
(0.492801 -0.00020681 2.64423e-20)
(0.492877 -0.000171645 -1.31779e-20)
(0.49294 -0.000142724 2.62586e-20)
(0.49299 -0.000119222 0)
(0.493031 -0.000100407 0)
(0.493063 -8.56321e-05 0)
(0.493088 -7.43225e-05 -5.17768e-20)
(0.493107 -6.59735e-05 0)
(0.493121 -6.01413e-05 2.57013e-20)
(0.493132 -5.6437e-05 0)
(0.493139 -5.45211e-05 2.55114e-20)
(0.493144 -5.40974e-05 0)
(0.493148 -5.49082e-05 -2.532e-20)
(0.49315 -5.67296e-05 2.52237e-20)
(0.493152 -5.93673e-05 2.51271e-20)
(0.493153 -6.26523e-05 -2.503e-20)
(0.493154 -6.64374e-05 0)
(0.493156 -7.05939e-05 0)
(0.493158 -7.5008e-05 1.00075e-24)
(0.493161 -7.95781e-05 0)
(0.493165 -8.42119e-05 0)
(0.49317 -8.88239e-05 0)
(0.493176 -9.33332e-05 2.43394e-20)
(0.493184 -9.76614e-05 0)
(0.493192 -0.000101731 2.41387e-20)
(0.493202 -0.000105462 0)
(0.493212 -0.000108771 2.39358e-20)
(0.460979 -0.0183512 -1.29304e-20)
(0.464514 -0.0165912 0)
(0.467758 -0.0149632 1.29461e-20)
(0.470727 -0.0134624 0)
(0.473439 -0.0120829 -1.29117e-20)
(0.475909 -0.010819 0)
(0.478153 -0.00966431 2.83991e-23)
(0.480188 -0.00861248 0)
(0.482028 -0.00765703 1.29012e-20)
(0.483688 -0.00679147 0)
(0.485183 -0.00600943 0)
(0.486525 -0.00530468 0)
(0.487727 -0.00467123 0)
(0.488802 -0.00410329 1.27861e-20)
(0.48976 -0.00359527 0)
(0.490612 -0.00314173 0)
(0.491369 -0.00273767 2.53672e-20)
(0.49204 -0.00237856 0)
(0.492633 -0.00206029 0)
(0.493156 -0.00177909 0)
(0.493615 -0.00153142 2.50807e-20)
(0.494017 -0.00131401 0)
(0.494369 -0.00112379 2.49417e-20)
(0.494674 -0.000957949 0)
(0.494939 -0.00081388 -2.47725e-20)
(0.495167 -0.000689205 2.46933e-20)
(0.495363 -0.00058176 0)
(0.49553 -0.000489582 -2.4533e-20)
(0.495673 -0.000410897 0)
(0.495793 -0.000344106 0)
(0.495894 -0.000287772 -4.85824e-20)
(0.495977 -0.000240604 2.42056e-20)
(0.496047 -0.000201446 -2.41273e-20)
(0.496104 -0.000169268 0)
(0.49615 -0.000143148 0)
(0.496187 -0.000122269 0)
(0.496216 -0.000105907 4.75742e-20)
(0.496238 -9.34203e-05 0)
(0.496256 -8.42445e-05 -2.36143e-20)
(0.496269 -7.78831e-05 0)
(0.496278 -7.39008e-05 0)
(0.496285 -7.19173e-05 0)
(0.496289 -7.16001e-05 0)
(0.496292 -7.26598e-05 -2.31782e-20)
(0.496294 -7.48444e-05 0)
(0.496296 -7.7934e-05 2.30006e-20)
(0.496297 -8.17368e-05 -2.2911e-20)
(0.496298 -8.60847e-05 -2.2821e-20)
(0.496299 -9.0829e-05 2.27316e-20)
(0.496301 -9.58372e-05 0)
(0.496304 -0.000100989 0)
(0.496308 -0.000106174 0)
(0.496312 -0.000111289 0)
(0.496318 -0.000116234 0)
(0.496324 -0.000120911 0)
(0.496332 -0.000125221 0)
(0.49634 -0.000129061 -2.19921e-20)
(0.466817 -0.0198904 0)
(0.470038 -0.0179651 -2.40191e-20)
(0.472992 -0.0161871 0)
(0.475694 -0.0145502 1.20532e-20)
(0.478161 -0.0130478 0)
(0.480406 -0.011673 -1.19944e-20)
(0.482446 -0.0104187 0)
(0.484294 -0.00927743 2.40108e-20)
(0.485965 -0.00824195 2.39867e-20)
(0.487472 -0.00730494 -2.39573e-20)
(0.488827 -0.00645927 0)
(0.490044 -0.00569799 0)
(0.491134 -0.00501442 2.38413e-20)
(0.492107 -0.0044021 0)
(0.492975 -0.00385482 2.37449e-20)
(0.493746 -0.00336674 -2.29152e-23)
(0.494431 -0.00293248 -2.36345e-20)
(0.495037 -0.00254708 0)
(0.495572 -0.00220597 0)
(0.496043 -0.00190491 -2.34532e-20)
(0.496457 -0.00164 0)
(0.496819 -0.00140762 0)
(0.497134 -0.00120444 -2.32287e-20)
(0.497408 -0.00102739 2.31682e-20)
(0.497645 -0.00087368 -4.61797e-20)
(0.497849 -0.000740746 0)
(0.498024 -0.000626269 2.29462e-20)
(0.498174 -0.000528144 0)
(0.4983 -0.00044447 0)
(0.498407 -0.000373532 4.54313e-20)
(0.498496 -0.000313788 -2.26418e-20)
(0.49857 -0.000263854 0)
(0.498631 -0.000222489 0)
(0.49868 -0.000188586 0)
(0.49872 -0.000161158 0)
(0.498752 -0.000139328 -2.22501e-20)
(0.498777 -0.00012232 2.21673e-20)
(0.498796 -0.000109447 2.20901e-20)
(0.49881 -0.000100102 0)
(0.49882 -9.37551e-05 0)
(0.498828 -8.99381e-05 0)
(0.498832 -8.82432e-05 2.17626e-20)
(0.498835 -8.83133e-05 4.33618e-20)
(0.498837 -8.98371e-05 0)
(0.498838 -9.25422e-05 -6.45425e-20)
(0.498838 -9.61906e-05 2.1431e-20)
(0.498838 -0.000100573 2.13465e-20)
(0.498838 -0.000105506 0)
(0.498839 -0.000110823 -4.235e-20)
(0.49884 -0.000116376 0)
(0.498842 -0.00012203 0)
(0.498844 -0.000127656 0)
(0.498848 -0.000133134 0)
(0.498852 -0.000138346 -4.14824e-20)
(0.498857 -0.000143175 0)
(0.498863 -0.000147497 0)
(0.469136 -0.0231454 0)
(0.472296 -0.0209322 2.27335e-20)
(0.475199 -0.018885 0)
(0.47786 -0.0169975 2.27036e-20)
(0.480293 -0.0152626 0)
(0.482512 -0.0136726 2.27597e-20)
(0.48453 -0.0122198 0)
(0.486363 -0.0108962 -2.27336e-20)
(0.488022 -0.00969348 -4.53847e-20)
(0.48952 -0.00860365 2.26857e-20)
(0.490871 -0.0076187 0)
(0.492086 -0.00673083 -2.25877e-20)
(0.493175 -0.00593249 -2.25797e-20)
(0.49415 -0.00521641 0)
(0.49502 -0.00457561 -2.24905e-20)
(0.495796 -0.00400349 -2.24415e-20)
(0.496484 -0.00349388 2.2389e-20)
(0.497095 -0.00304105 -2.23092e-20)
(0.497634 -0.0026397 2.22486e-20)
(0.49811 -0.00228492 2.21866e-20)
(0.498529 -0.00197217 0)
(0.498895 -0.00169729 0)
(0.499215 -0.00145642 1.22143e-23)
(0.499494 -0.00124604 0)
(0.499735 -0.00106292 2.18696e-20)
(0.499944 -0.000904129 2.17912e-20)
(0.500123 -0.000766974 0)
(0.500276 -0.000649028 0)
(0.500406 -0.00054809 2.15821e-20)
(0.500515 -0.000462172 -2.15173e-20)
(0.500607 -0.000389482 0)
(0.500684 -0.000328411 0)
(0.500747 -0.000277513 0)
(0.500798 -0.000235495 2.12209e-20)
(0.50084 -0.000201202 2.11469e-20)
(0.500873 -0.000173607 0)
(0.500898 -0.000151796 -2.10005e-20)
(0.500918 -0.000134962 0)
(0.500932 -0.000122389 0)
(0.500943 -0.000113448 0)
(0.50095 -0.000107587 0)
(0.500954 -0.00010432 -2.0616e-20)
(0.500956 -0.000103221 -2.05376e-20)
(0.500957 -0.000103919 -4.09143e-20)
(0.500956 -0.000106089 4.07587e-20)
(0.500955 -0.000109444 4.05963e-20)
(0.500954 -0.000113735 4.04357e-20)
(0.500952 -0.00011874 0)
(0.500951 -0.000124261 8.02251e-20)
(0.50095 -0.000130121 0)
(0.500949 -0.000136158 0)
(0.500949 -0.00014222 0)
(0.50095 -0.000148166 0)
(0.500952 -0.000153857 3.92861e-20)
(0.500954 -0.000159156 0)
(0.500957 -0.000163924 0)
(0.474615 -0.0238313 2.16175e-20)
(0.477435 -0.0215256 0)
(0.480024 -0.0193967 -2.17127e-20)
(0.482395 -0.0174373 0)
(0.48456 -0.0156393 2.16716e-20)
(0.486534 -0.0139942 0)
(0.488328 -0.0124934 2.16597e-20)
(0.489955 -0.0111279 2.16837e-20)
(0.491427 -0.00988909 -2.16258e-20)
(0.492755 -0.00876806 0)
(0.493952 -0.00775626 4.31763e-20)
(0.495027 -0.00684535 0)
(0.49599 -0.0060273 0)
(0.496851 -0.00529438 0)
(0.497619 -0.00463929 0)
(0.498302 -0.00405512 0)
(0.498908 -0.00353545 2.13392e-20)
(0.499445 -0.00307429 -2.12809e-20)
(0.499919 -0.00266609 -2.12213e-20)
(0.500335 -0.00230573 0)
(0.500701 -0.00198849 0)
(0.501021 -0.00171003 1.23981e-23)
(0.5013 -0.00146636 0)
(0.501541 -0.00125383 2.08968e-20)
(0.50175 -0.00106912 -4.16739e-20)
(0.50193 -0.000909191 0)
(0.502083 -0.000771301 4.14016e-20)
(0.502214 -0.000652952 -6.19091e-20)
(0.502324 -0.000551889 0)
(0.502417 -0.000466075 -4.09968e-20)
(0.502494 -0.000393679 0)
(0.502558 -0.000333054 0)
(0.502609 -0.000282725 -2.02947e-20)
(0.502651 -0.000241373 -2.02238e-20)
(0.502683 -0.000207821 4.02973e-20)
(0.502709 -0.000181022 4.01539e-20)
(0.502728 -0.000160047 0)
(0.502741 -0.000144074 0)
(0.502751 -0.000132378 0)
(0.502757 -0.000124318 0)
(0.50276 -0.000119334 0)
(0.50276 -0.000116931 0)
(0.502759 -0.000116678 7.82425e-20)
(0.502757 -0.000118195 0)
(0.502754 -0.000121149 -2.69473e-24)
(0.50275 -0.000125248 -3.86627e-20)
(0.502747 -0.000130234 3.85051e-20)
(0.502743 -0.000135875 -3.83509e-20)
(0.502739 -0.000141965 0)
(0.502736 -0.000148316 0)
(0.502734 -0.000154754 0)
(0.502732 -0.000161115 0)
(0.50273 -0.000167241 3.75536e-20)
(0.50273 -0.000172978 0)
(0.50273 -0.000178168 3.72293e-20)
(0.47704 -0.026632 -5.86891e-23)
(0.479748 -0.0240805 -2.08067e-20)
(0.482237 -0.0217217 0)
(0.484519 -0.0195479 0)
(0.486607 -0.0175508 -4.17305e-20)
(0.488513 -0.0157213 0)
(0.490248 -0.0140503 -4.00843e-23)
(0.491823 -0.0125283 0)
(0.493251 -0.0111458 2.08419e-20)
(0.494541 -0.00989327 0)
(0.495705 -0.00876153 -2.07902e-20)
(0.496751 -0.00774148 0)
(0.49769 -0.00682438 0)
(0.498531 -0.00600182 -2.06603e-20)
(0.499281 -0.0052658 0)
(0.49995 -0.00460878 0)
(0.500544 -0.00402366 0)
(0.50107 -0.00350385 2.04727e-20)
(0.501535 -0.00304319 2.04174e-20)
(0.501944 -0.00263602 0)
(0.502304 -0.00227707 4.06059e-20)
(0.502618 -0.00196154 2.02567e-20)
(0.502892 -0.001685 -4.03684e-20)
(0.50313 -0.00144339 -2.0134e-20)
(0.503336 -0.00123302 -2.0052e-20)
(0.503513 -0.00105052 3.99984e-20)
(0.503665 -0.000892815 -1.61823e-23)
(0.503793 -0.000757137 3.97585e-20)
(0.503902 -0.000640967 3.96144e-20)
(0.503993 -0.000542033 7.89795e-20)
(0.504069 -0.000458288 -3.93516e-20)
(0.504131 -0.000387889 0)
(0.504181 -0.000329184 -3.90838e-20)
(0.504221 -0.000280693 -3.8948e-20)
(0.504253 -0.000241096 -3.88187e-20)
(0.504276 -0.000209213 -6.86434e-24)
(0.504294 -0.000183999 0)
(0.504306 -0.000164527 0)
(0.504314 -0.000149974 0)
(0.504318 -0.000139617 0)
(0.504319 -0.000132819 0)
(0.504317 -0.00012902 0)
(0.504314 -0.000127725 -7.53534e-20)
(0.50431 -0.000128505 0)
(0.504304 -0.000130978 -7.47627e-20)
(0.504298 -0.00013481 0)
(0.504291 -0.000139706 -7.41636e-20)
(0.504285 -0.000145402 0)
(0.504278 -0.000151664 3.67773e-20)
(0.504272 -0.000158277 0)
(0.504267 -0.000165044 -3.64701e-20)
(0.504262 -0.000171781 0)
(0.504257 -0.000178311 -7.23195e-20)
(0.504253 -0.000184463 0)
(0.50425 -0.000190061 -3.58458e-20)
(0.479596 -0.0293062 -2.01603e-20)
(0.482163 -0.0265235 2.01832e-20)
(0.484526 -0.0239481 0)
(0.486697 -0.021572 0)
(0.488685 -0.0193865 2.02132e-20)
(0.490502 -0.0173823 0)
(0.492159 -0.0155496 -4.03691e-20)
(0.493665 -0.0138786 0)
(0.495031 -0.0123591 0)
(0.496268 -0.0109811 0)
(0.497385 -0.00973464 -2.00977e-20)
(0.49839 -0.00861001 0)
(0.499294 -0.00759783 0)
(0.500103 -0.00668906 6.00398e-20)
(0.500827 -0.00587509 0)
(0.501472 -0.00514774 0)
(0.502045 -0.00449935 0)
(0.502554 -0.00392273 -5.94996e-20)
(0.503003 -0.00341118 -1.97906e-20)
(0.5034 -0.00295852 0)
(0.503748 -0.002559 -3.93564e-20)
(0.504052 -0.00220736 -3.92153e-20)
(0.504318 -0.00189876 7.82237e-20)
(0.504549 -0.00162875 -3.89829e-20)
(0.504748 -0.00139328 3.88839e-20)
(0.504919 -0.00118866 -1.8155e-23)
(0.505066 -0.00101152 -3.8638e-20)
(0.50519 -0.000858812 0)
(0.505295 -0.00072777 -3.83867e-20)
(0.505382 -0.000615895 -3.82591e-20)
(0.505455 -0.000520933 3.81303e-20)
(0.505514 -0.000440853 0)
(0.505561 -0.000373832 9.52862e-24)
(0.505599 -0.000318235 7.54651e-20)
(0.505628 -0.000272602 0)
(0.505649 -0.000235628 -3.74688e-20)
(0.505664 -0.000206154 0)
(0.505674 -0.000183148 0)
(0.505679 -0.000165698 0)
(0.50568 -0.000152998 0)
(0.505679 -0.000144336 0)
(0.505675 -0.000139086 0)
(0.505669 -0.000136697 3.64961e-20)
(0.505661 -0.000136685 0)
(0.505653 -0.000138623 3.62085e-20)
(0.505644 -0.000142137 -3.60605e-20)
(0.505634 -0.000146895 3.59168e-20)
(0.505625 -0.000152601 0)
(0.505615 -0.000158992 -3.5621e-20)
(0.505606 -0.000165829 0)
(0.505597 -0.000172892 1.61877e-24)
(0.505588 -0.000179978 0)
(0.50558 -0.000186892 1.35599e-24)
(0.505573 -0.000193445 0)
(0.505567 -0.000199448 0)
(0.48229 -0.0318282 1.95482e-20)
(0.484692 -0.0288308 0)
(0.486906 -0.0260538 0)
(0.488942 -0.0234889 -1.96071e-20)
(0.490811 -0.0211274 0)
(0.49252 -0.0189595 0)
(0.49408 -0.0169753 1.96515e-20)
(0.495501 -0.0151642 1.96042e-20)
(0.496792 -0.0135157 0)
(0.497961 -0.0120193 0)
(0.499018 -0.0106644 1.95814e-20)
(0.49997 -0.00944081 -3.90518e-20)
(0.500827 -0.00833848 0)
(0.501596 -0.00734783 -3.89772e-20)
(0.502284 -0.00645967 0)
(0.502897 -0.0056653 0)
(0.503443 -0.00495649 -3.86876e-20)
(0.503927 -0.00432554 3.86235e-20)
(0.504356 -0.00376524 3.84849e-20)
(0.504733 -0.00326894 0)
(0.505065 -0.00283044 0)
(0.505356 -0.00244407 3.81886e-20)
(0.505609 -0.00210457 -3.80749e-20)
(0.505828 -0.00180717 3.79594e-20)
(0.506018 -0.00154746 -3.78221e-20)
(0.506181 -0.00132144 -3.77238e-20)
(0.50632 -0.00112547 -3.75867e-20)
(0.506437 -0.000956245 -3.74667e-20)
(0.506536 -0.000810753 0)
(0.506618 -0.000686284 3.72225e-20)
(0.506686 -0.000580387 3.70983e-20)
(0.50674 -0.000490851 0)
(0.506784 -0.000415692 3.68559e-20)
(0.506817 -0.000353128 -8.9483e-24)
(0.506842 -0.000301563 3.65889e-20)
(0.50686 -0.000259574 0)
(0.506872 -0.000225889 0)
(0.506878 -0.000199382 0)
(0.50688 -0.000179052 0)
(0.506879 -0.000164011 0)
(0.506874 -0.000153478 0)
(0.506867 -0.000146764 -3.56512e-20)
(0.506858 -0.00014326 0)
(0.506847 -0.000142431 -3.5373e-20)
(0.506835 -0.000143808 0)
(0.506823 -0.000146975 3.50931e-20)
(0.50681 -0.000151564 0)
(0.506797 -0.000157251 0)
(0.506784 -0.000163745 -3.46586e-20)
(0.506771 -0.000170781 0)
(0.506759 -0.000178119 6.87332e-20)
(0.506747 -0.000185538 0)
(0.506735 -0.000192825 3.40705e-20)
(0.506724 -0.000199776 0)
(0.506714 -0.000206189 0)
(0.506704 -0.00021185 0)
(0.485119 -0.0341751 -5.34954e-23)
(0.487333 -0.030981 0)
(0.489378 -0.0280187 0)
(0.491261 -0.0252802 1.91924e-20)
(0.49299 -0.0227563 0)
(0.494575 -0.0204372 0)
(0.496023 -0.0183125 3.83081e-20)
(0.497344 -0.0163716 1.91103e-20)
(0.498544 -0.0146032 0)
(0.499634 -0.0129966 0)
(0.500619 -0.0115406 0)
(0.501508 -0.0102245 3.8201e-20)
(0.502309 -0.00903782 0)
(0.503028 -0.00797042 0)
(0.503671 -0.00701262 0)
(0.504246 -0.00615521 0)
(0.504757 -0.00538947 7.5629e-20)
(0.505211 -0.00470724 -3.76977e-20)
(0.505613 -0.00410087 -3.35835e-23)
(0.505967 -0.00356324 3.74953e-20)
(0.506278 -0.00308779 0)
(0.50655 -0.00266844 -3.72839e-20)
(0.506787 -0.00229958 0)
(0.506992 -0.00197609 3.70646e-20)
(0.507169 -0.00169326 3.69729e-20)
(0.507321 -0.00144683 0)
(0.50745 -0.00123286 3.67401e-20)
(0.507558 -0.00104782 7.32272e-20)
(0.507649 -0.000888477 0)
(0.507724 -0.000751919 -3.63805e-20)
(0.507786 -0.00063551 -7.25039e-20)
(0.507834 -0.000536871 0)
(0.507872 -0.000453865 0)
(0.507901 -0.00038457 -7.17575e-20)
(0.507921 -0.000327266 -8.3896e-24)
(0.507935 -0.000280414 0)
(0.507943 -0.000242641 0)
(0.507945 -0.000212726 0)
(0.507943 -0.000189584 -3.52299e-20)
(0.507938 -0.000172253 0)
(0.507929 -0.000159884 0)
(0.507919 -0.000151726 6.96624e-20)
(0.507906 -0.000147118 3.46932e-20)
(0.507892 -0.000145477 3.45597e-20)
(0.507877 -0.000146288 0)
(0.507861 -0.000149099 0)
(0.507844 -0.00015351 -3.41387e-20)
(0.507827 -0.000159166 0)
(0.507811 -0.000165748 -3.38529e-20)
(0.507794 -0.000172972 0)
(0.507778 -0.000180576 -3.3569e-20)
(0.507762 -0.000188321 0)
(0.507747 -0.000195979 -6.65516e-20)
(0.507732 -0.000203334 -6.62573e-20)
(0.507718 -0.000210167 6.59614e-20)
(0.507704 -0.000216258 0)
(0.490079 -0.0329549 3.74614e-20)
(0.491936 -0.0298251 0)
(0.493648 -0.0269291 0)
(0.495223 -0.0242577 -3.75412e-20)
(0.496668 -0.0218009 0)
(0.49799 -0.0195482 -3.76174e-20)
(0.499197 -0.0174885 -3.75987e-20)
(0.500295 -0.0156105 0)
(0.501293 -0.0139027 -3.74722e-20)
(0.502197 -0.0123538 0)
(0.503013 -0.0109526 0)
(0.503748 -0.00968812 3.73328e-20)
(0.504409 -0.00854982 0)
(0.505001 -0.00752757 0)
(0.50553 -0.00661172 0)
(0.506001 -0.00579313 -3.94486e-23)
(0.506419 -0.0050632 3.69874e-20)
(0.506788 -0.00441389 -3.6887e-20)
(0.507114 -0.00383772 -3.67844e-20)
(0.5074 -0.00332773 0)
(0.50765 -0.0028775 7.31193e-20)
(0.507868 -0.00248111 -3.64398e-20)
(0.508056 -0.00213314 -3.63545e-20)
(0.508218 -0.0018286 3.62216e-20)
(0.508356 -0.00156294 0)
(0.508473 -0.00133201 -3.59968e-20)
(0.508571 -0.00113205 -3.58984e-20)
(0.508652 -0.000959626 -3.5766e-20)
(0.508718 -0.000811634 0)
(0.508772 -0.000685268 3.55419e-20)
(0.508813 -0.000577996 0)
(0.508845 -0.000487538 0)
(0.508868 -0.000411844 7.03388e-20)
(0.508883 -0.000349075 -3.50492e-20)
(0.508891 -0.000297587 0)
(0.508894 -0.00025591 0)
(0.508892 -0.000222736 0)
(0.508886 -0.000196902 3.45375e-20)
(0.508876 -0.000177376 0)
(0.508864 -0.000163244 0)
(0.508849 -0.000153698 -3.41418e-20)
(0.508833 -0.000148026 -3.40077e-20)
(0.508815 -0.000145599 -6.77377e-20)
(0.508796 -0.000145863 6.74658e-20)
(0.508776 -0.000148331 -6.71917e-20)
(0.508756 -0.000152569 3.34603e-20)
(0.508735 -0.000158194 0)
(0.508715 -0.000164865 6.63608e-20)
(0.508694 -0.000172275 0)
(0.508674 -0.000180145 0)
(0.508654 -0.000188218 0)
(0.508635 -0.000196254 6.52177e-20)
(0.508616 -0.000204021 1.29852e-19)
(0.508598 -0.000211295 -6.46353e-20)
(0.508581 -0.000217841 -6.43395e-20)
(0.492914 -0.034736 -3.7065e-20)
(0.494567 -0.0314574 0)
(0.496094 -0.0284211 0)
(0.4975 -0.0256181 3.71284e-20)
(0.498792 -0.0230382 0)
(0.499976 -0.0206707 0)
(0.501058 -0.0185043 3.70294e-20)
(0.502044 -0.0165276 0)
(0.50294 -0.0147286 3.70395e-20)
(0.503753 -0.0130957 3.69371e-20)
(0.504487 -0.0116175 0)
(0.50515 -0.0102824 -3.68918e-20)
(0.505746 -0.00907972 0)
(0.506279 -0.0079988 0)
(0.506757 -0.00702965 0)
(0.507181 -0.00616277 -7.31494e-20)
(0.507558 -0.00538919 -3.64603e-20)
(0.507892 -0.00470053 0)
(0.508186 -0.00408895 0)
(0.508443 -0.0035472 0)
(0.508668 -0.00306853 -2.74227e-23)
(0.508863 -0.00264676 7.19325e-20)
(0.509031 -0.00227616 -3.58462e-20)
(0.509175 -0.00195153 -3.57586e-20)
(0.509297 -0.00166807 -3.56262e-20)
(0.5094 -0.00142141 7.10458e-20)
(0.509486 -0.00120759 3.53998e-20)
(0.509556 -0.001023 3.52997e-20)
(0.509613 -0.000864365 0)
(0.509657 -0.00072872 0)
(0.509691 -0.000613395 0)
(0.509715 -0.000515977 0)
(0.509731 -0.000434301 -6.93813e-20)
(0.50974 -0.000366419 -3.4562e-20)
(0.509743 -0.00031059 -3.4437e-20)
(0.50974 -0.000265255 0)
(0.509733 -0.000229025 0)
(0.509722 -0.000200666 0)
(0.509708 -0.000179079 0)
(0.509692 -0.000163292 0)
(0.509673 -0.000152444 0)
(0.509652 -0.000145776 0)
(0.50963 -0.000142616 6.67906e-20)
(0.509607 -0.000142374 -6.65178e-20)
(0.509584 -0.000144526 6.62427e-20)
(0.509559 -0.000148612 0)
(0.509535 -0.000154223 0)
(0.509511 -0.000160994 0)
(0.509486 -0.000168599 6.51171e-20)
(0.509462 -0.000176743 0)
(0.509439 -0.000185153 0)
(0.509416 -0.000193578 0)
(0.509393 -0.000201776 -6.39671e-20)
(0.509371 -0.000209511 0)
(0.50935 -0.000216545 1.26756e-19)
(0.495879 -0.0363441 0)
(0.497311 -0.0329332 3.55494e-20)
(0.498635 -0.029772 -3.55833e-20)
(0.499857 -0.0268513 0)
(0.500981 -0.0241612 0)
(0.502013 -0.0216907 -3.5627e-20)
(0.502957 -0.0194284 -7.29378e-23)
(0.503819 -0.0173626 0)
(0.504603 -0.0154813 -3.55931e-20)
(0.505315 -0.0137725 -3.56278e-20)
(0.505959 -0.0122243 3.55337e-20)
(0.50654 -0.0108252 0)
(0.507063 -0.00956391 -3.54491e-20)
(0.507531 -0.00842951 0)
(0.50795 -0.0074117 -3.53383e-20)
(0.508323 -0.00650063 3.53019e-20)
(0.508654 -0.00568706 3.52191e-20)
(0.508946 -0.00496227 0)
(0.509204 -0.00431815 0)
(0.509429 -0.00374715 0)
(0.509624 -0.00324226 -3.48663e-20)
(0.509794 -0.00279704 -6.95204e-20)
(0.509939 -0.00240554 6.93328e-20)
(0.510063 -0.0020623 0)
(0.510167 -0.00176234 3.4484e-20)
(0.510255 -0.00150109 -6.875e-20)
(0.510326 -0.00127441 -1.72998e-23)
(0.510383 -0.00107851 3.4165e-20)
(0.510429 -0.000909968 -3.40624e-20)
(0.510463 -0.000765686 3.39584e-20)
(0.510487 -0.000642857 0)
(0.510503 -0.000538953 0)
(0.510512 -0.000451698 3.36477e-20)
(0.510514 -0.000379047 3.35371e-20)
(0.51051 -0.000319167 3.34251e-20)
(0.510502 -0.00027042 0)
(0.510489 -0.000231342 0)
(0.510473 -0.000200629 0)
(0.510454 -0.000177125 0)
(0.510433 -0.000159802 0)
(0.510409 -0.000147749 0)
(0.510384 -0.000140163 6.52034e-20)
(0.510358 -0.000136334 -6.49602e-20)
(0.510331 -0.000135636 -6.47146e-20)
(0.510303 -0.000137514 6.44665e-20)
(0.510275 -0.000141482 0)
(0.510247 -0.000147105 0)
(0.510218 -0.000153999 0)
(0.51019 -0.00016182 -6.34545e-20)
(0.510162 -0.000170257 -6.31907e-20)
(0.510134 -0.000179025 0)
(0.510107 -0.000187861 6.26647e-20)
(0.51008 -0.000196515 0)
(0.510054 -0.000204744 0)
(0.510029 -0.000212305 -1.23723e-19)
(0.498846 -0.037698 0)
(0.500049 -0.0341783 -3.62218e-20)
(0.501164 -0.0309138 7.23816e-20)
(0.502195 -0.0278957 -3.61541e-20)
(0.503145 -0.0251138 -3.61509e-20)
(0.504018 -0.0225574 3.62122e-20)
(0.504819 -0.0202148 -3.61873e-20)
(0.50555 -0.0180743 0)
(0.506217 -0.0161237 6.21857e-23)
(0.506823 -0.0143508 3.60076e-20)
(0.507371 -0.0127435 -3.6012e-20)
(0.507866 -0.01129 3.59001e-20)
(0.508312 -0.00997878 3.58859e-20)
(0.508712 -0.00879875 3.57694e-20)
(0.509069 -0.0077393 4.24246e-23)
(0.509387 -0.00679035 0)
(0.509669 -0.00594239 0)
(0.509918 -0.00518648 3.53939e-20)
(0.510136 -0.00451425 0)
(0.510326 -0.00391792 -3.51872e-20)
(0.510491 -0.00339029 3.5081e-20)
(0.510633 -0.00292469 3.49984e-20)
(0.510755 -0.00251498 -2.344e-23)
(0.510857 -0.00215551 0)
(0.510942 -0.00184113 0)
(0.511013 -0.0015671 3.45436e-20)
(0.511069 -0.00132913 -1.68842e-23)
(0.511113 -0.0011233 -3.43083e-20)
(0.511146 -0.000946053 3.41888e-20)
(0.51117 -0.000794166 -3.40682e-20)
(0.511185 -0.000664725 0)
(0.511192 -0.0005551 0)
(0.511193 -0.000462921 0)
(0.511188 -0.00038606 0)
(0.511178 -0.000322604 0)
(0.511164 -0.000270845 0)
(0.511146 -0.000229254 0)
(0.511125 -0.00019647 0)
(0.511101 -0.000171281 0)
(0.511075 -0.000152613 0)
(0.511047 -0.000139512 -6.53272e-20)
(0.511018 -0.000131135 -6.50696e-20)
(0.510988 -0.000126738 1.29594e-19)
(0.510957 -0.000125663 1.29053e-19)
(0.510925 -0.00012733 -6.4257e-20)
(0.510893 -0.000131227 -6.39768e-20)
(0.510861 -0.0001369 0)
(0.510829 -0.000143946 0)
(0.510797 -0.000152005 0)
(0.510765 -0.000160754 1.25729e-19)
(0.510733 -0.000169897 0)
(0.510702 -0.000179163 -6.22983e-20)
(0.510672 -0.000188293 0)
(0.510642 -0.000197042 0)
(0.510613 -0.000205162 6.14351e-20)
(0.502605 -0.0351488 -3.62314e-20)
(0.50352 -0.031806 -3.63127e-20)
(0.504368 -0.0287136 7.25207e-20)
(0.505151 -0.0258617 7.24785e-20)
(0.505872 -0.0232393 3.61745e-20)