/*--------------------------------*- C++ -*----------------------------------*\
  =========                 |
  \\      /  F ield         | OpenFOAM: The Open Source CFD Toolbox
   \\    /   O peration     | Website:  https://openfoam.org
    \\  /    A nd           | Version:  6
     \\/     M anipulation  |
\*---------------------------------------------------------------------------*/
FoamFile
{
    version     2.0;
    format      ascii;
    class       volScalarField;
    location    "0.07";
    object      epsilon;
}
// * * * * * * * * * * * * * * * * * * * * * * * * * * * * * * * * * * * * * //

dimensions      [0 2 -3 0 0 0 0];

internalField   nonuniform List<scalar> 
3032
(
307.555
159.152
103.232
76.2278
60.9645
51.4557
45.0485
40.4252
36.9023
34.1082
31.8283
29.9301
28.327
26.9596
25.7945
24.8067
24.0141
23.5137
71.6101
59.761
44.4178
34.3543
27.8134
23.3709
20.226
17.912
16.1454
14.7521
13.6239
12.6911
11.9068
11.2389
10.6666
10.1729
9.74716
9.36642
33.6137
34.404
29.2893
24.3868
20.539
17.6163
15.3907
13.6714
12.3171
11.2285
10.3371
9.59525
8.96917
8.43454
7.97403
7.57427
7.22472
6.91472
22.4945
24.1962
22.2209
19.541
17.0657
14.9859
13.2888
11.9116
10.7879
9.86202
9.09044
8.44025
7.88659
7.41065
6.99832
6.63855
6.32268
6.04522
18.0524
19.1649
18.2249
16.5945
14.8964
13.3508
12.0142
10.8813
9.92591
9.11882
8.43342
7.84746
7.34296
6.90551
6.52391
6.18907
5.89402
5.63554
15.966
16.3993
15.7658
14.6418
13.3955
12.1986
11.1174
10.1681
9.34456
8.63302
8.0178
7.48424
7.01953
6.61285
6.25539
5.9398
5.66053
5.4156
14.9028
14.7888
14.1885
13.2992
12.3133
11.343
10.4424
9.63123
8.91199
8.27878
7.72264
7.23398
6.80372
6.42378
6.08727
5.78831
5.52253
5.28873
14.3403
13.8255
13.1591
12.3641
11.5222
10.6958
9.92023
9.21144
8.57343
8.00383
7.49724
7.04721
6.64716
6.29103
5.97335
5.68944
5.43586
5.21195
14.0386
13.2457
12.4866
11.7138
10.9451
10.206
9.5144
8.87926
8.30296
7.7838
7.31796
6.90062
6.5268
6.19172
5.89099
5.62079
5.3784
5.16355
13.8768
12.8992
12.0518
11.2671
10.5293
9.83959
9.20174
8.61762
8.08663
7.60627
7.17296
6.78258
6.43099
6.11416
5.8284
5.57053
5.33833
5.13178
13.7906
12.6955
11.7763
10.9667
10.2361
9.57104
8.96535
8.41485
7.91575
7.46411
7.05587
6.68701
6.35367
6.0522
5.77932
5.53226
5.30913
5.11003
13.7488
12.5881
11.6204
10.7866
10.0517
9.39553
8.8058
8.27432
7.79474
7.36172
6.97048
6.61677
6.29665
6.00662
5.74356
5.50491
5.28896
5.09586
13.7254
12.5235
11.5209
10.6659
9.92292
9.26856
8.68701
8.16715
7.70061
7.28076
6.90213
6.56
6.2503
5.96949
5.71452
5.48293
5.27311
5.08517
13.7116
12.4831
11.4547
10.5811
9.82817
9.1714
8.59301
8.07989
7.62211
7.21191
6.84301
6.51025
6.20929
5.93645
5.68866
5.46347
5.2593
5.0762
13.7045
12.4608
11.4161
10.5286
9.76648
9.10528
8.52655
8.01615
7.56315
7.15894
6.79661
6.47055
6.17612
5.90947
5.66743
5.44751
5.2481
5.06914
13.7012
12.4503
11.3967
10.5009
9.73206
9.0666
8.48601
7.97582
7.52463
7.12335
6.76468
6.44266
6.15242
5.88994
5.65191
5.43579
5.23989
5.06405
13.7
12.4462
11.3887
10.4887
9.71625
9.04797
8.46561
7.9547
7.50373
7.10342
6.74628
6.42618
6.13808
5.87785
5.64209
5.42819
5.2344
5.06045
13.6996
12.4449
11.3863
10.4848
9.7109
9.04136
8.45803
7.94652
7.49528
7.09502
6.73817
6.41856
6.13109
5.87157
5.63656
5.4234
5.23033
5.05701
13.6998
12.4453
11.3869
10.4858
9.71217
9.04279
8.45949
7.94786
7.49636
7.09571
6.73837
6.41817
6.13004
5.86979
5.63402
5.42006
5.22617
5.05205
13.701
12.4493
11.3946
10.4973
9.72716
9.06042
8.47872
7.96762
7.51567
7.11374
6.75446
6.43184
6.14094
5.87772
5.63886
5.42178
5.22482
5.0478
13.7054
12.4634
11.4201
10.5334
9.77147
9.10988
8.53028
8.01867
7.56416
7.1582
6.79392
6.46573
6.169
5.8999
5.65528
5.43266
5.23046
5.04868
13.7204
12.5082
11.4949
10.6317
9.88406
9.22808
8.64715
8.12926
7.66531
7.24816
6.87194
6.53176
6.22343
5.94339
5.6886
5.45665
5.24598
5.05678
13.7671
12.6332
11.6844
10.8598
10.1264
9.46665
8.87041
8.33087
7.84261
7.40077
7.00089
6.63879
6.31061
6.01284
5.74236
5.49659
5.27384
5.07436
13.9007
12.9464
12.1091
11.3258
10.5849
9.88996
9.24593
8.65524
8.11755
7.63054
7.19066
6.79383
6.43587
6.11275
5.82076
5.55674
5.31852
5.10622
14.2608
13.6662
12.9749
12.1898
11.3728
10.5741
9.8233
9.13446
8.51144
7.95246
7.45291
7.00708
6.60904
6.25318
5.9344
5.64839
5.39201
5.16496
15.1942
15.2325
14.6359
13.695
12.6466
11.6177
10.6662
9.81244
9.05784
8.39532
7.81474
7.30549
6.85767
6.46251
6.11253
5.80148
5.52478
5.28135
17.6339
18.6188
17.7659
16.2593
14.6635
13.1879
11.8942
10.7854
9.84225
9.04027
8.35576
7.76821
7.26067
6.81932
6.43309
6.09315
5.79295
5.53026
24.706
26.4242
23.903
20.782
17.999
15.7013
13.847
12.355
11.1467
10.1572
9.33676
8.6481
8.06332
7.5615
7.12679
6.74714
6.41361
6.12242
51.9674
47.7382
37.8
30.1726
24.757
20.8712
18.0263
15.8934
14.2515
12.9538
11.9036
11.0365
10.308
9.68723
9.15176
8.68522
8.27565
7.91714
251.832
137.365
90.7851
67.1259
53.3
44.5111
38.5536
34.277
31.0498
28.5131
26.454
24.7406
23.2871
22.0353
20.9442
19.9838
19.1317
18.3736
0.15543
0.229581
0.400951
0.573192
0.725768
0.870374
1.01056
1.14801
1.28396
1.4195
1.5555
1.69264
1.83138
1.97196
2.11445
2.25876
2.40467
2.55191
2.70013
2.84898
2.99811
3.14723
3.2962
3.44507
3.59424
3.74468
3.89823
4.05822
4.21863
4.37292
4.52062
4.66118
4.79389
4.91794
5.03252
5.13679
5.22997
5.31134
5.38024
5.43614
5.47864
5.50744
5.52241
5.52358
0.79522
0.506624
0.537256
0.616714
0.708672
0.801144
0.889062
0.970628
1.04575
1.11509
1.17957
1.24007
1.29738
1.35214
1.40486
1.45593
1.50566
1.55429
1.60204
1.64906
1.69553
1.74162
1.78752
1.83348
1.8798
1.92685
1.9751
2.02503
2.07697
2.12819
2.1779
2.22568
2.27121
2.31414
2.35415
2.39089
2.42402
2.45326
2.47831
2.49894
2.51495
2.52619
2.53258
2.5341
1.56085
0.78341
0.714018
0.73964
0.792886
0.854992
0.917839
0.977543
1.03255
1.08259
1.12806
1.16963
1.208
1.24384
1.27776
1.31024
1.34173
1.37259
1.40312
1.4336
1.46426
1.49532
1.52697
1.55936
1.59264
1.62694
1.66231
1.69878
1.73606
1.77336
1.81023
1.84631
1.88127
1.9148
1.94656
1.97624
2.0035
2.02805
2.0496
2.06791
2.08276
2.09397
2.10144
2.10509
2.2034
1.01906
0.867534
0.852063
0.876183
0.915452
0.960052
1.00511
1.04818
1.08825
1.12509
1.15892
1.19017
1.21933
1.2469
1.27333
1.29906
1.32444
1.3498
1.37543
1.40156
1.42841
1.45613
1.48486
1.51468
1.54563
1.57769
1.6108
1.64468
1.67891
1.71312
1.74697
1.78014
1.81229
1.84306
1.87211
1.89909
1.92367
1.94553
1.96441
1.98005
1.99228
2.00093
2.00591
2.7658
1.22085
0.997984
0.949167
0.950887
0.972934
1.00386
1.0381
1.07273
1.10622
1.13792
1.16766
1.19557
1.22193
1.24708
1.2714
1.29524
1.31894
1.3428
1.36709
1.39205
1.41788
1.44472
1.4727
1.50186
1.53224
1.56379
1.59643
1.62991
1.66389
1.69806
1.73208
1.76561
1.79827
1.82969
1.85949
1.88729
1.91273
1.93546
1.95519
1.97166
1.98464
1.99399
1.9996
3.25331
1.39478
1.10957
1.03274
1.0166
1.02538
1.0459
1.07197
1.10029
1.12902
1.15722
1.18444
1.21058
1.23573
1.26009
1.28391
1.30748
1.33108
1.35497
1.37941
1.40461
1.43076
1.458
1.48644
1.51614
1.54709
1.57927
1.61257
1.64676
1.68155
1.71663
1.75166
1.78626
1.82005
1.85261
1.88352
1.91237
1.93878
1.96236
1.98279
1.99981
2.01318
2.02275
2.02841
3.66937
1.54443
1.20526
1.10454
1.0737
1.07193
1.08436
1.10414
1.12764
1.1528
1.17847
1.20403
1.22919
1.25388
1.27819
1.30226
1.32631
1.35055
1.37521
1.4005
1.42662
1.45375
1.48202
1.51152
1.54232
1.57442
1.60777
1.64227
1.6777
1.71377
1.75019
1.78659
1.82258
1.85772
1.89157
1.92367
1.95357
1.98083
2.00508
2.02595
2.04318
2.05654
2.06587
2.07109
4.01629
1.67174
1.28681
1.16573
1.12259
1.11219
1.11816
1.13299
1.15274
1.17517
1.19897
1.22337
1.24798
1.2726
1.29722
1.3219
1.34677
1.37199
1.39776
1.42425
1.45164
1.48008
1.50969
1.54059
1.57281
1.60637
1.64121
1.67722
1.71418
1.75183
1.78984
1.82783
1.86537
1.90198
1.93716
1.97042
2.00126
2.02922
2.05388
2.07489
2.09195
2.10487
2.11351
2.11781
4.29476
1.77757
1.35514
1.21699
1.16352
1.14598
1.14666
1.1575
1.17427
1.19456
1.21693
1.24052
1.26482
1.28958
1.31467
1.34009
1.36592
1.39228
1.4193
1.44713
1.47594
1.50585
1.537
1.56947
1.60332
1.63855
1.6751
1.71286
1.75159
1.79104
1.83085
1.87061
1.90982
1.94797
1.9845
2.01885
2.05049
2.07891
2.10369
2.12446
2.14094
2.15297
2.16044
2.16335
4.5041
1.86215
1.41069
1.25872
1.19671
1.17323
1.16955
1.17712
1.19148
1.21006
1.23132
1.25432
1.27847
1.30344
1.32907
1.35528
1.38211
1.40962
1.43792
1.46715
1.49743
1.52891
1.56168
1.59586
1.63148
1.66856
1.70703
1.74675
1.7875
1.82897
1.87078
1.91246
1.95346
1.99318
2.03101
2.06632
2.09853
2.1271
2.1516
2.17168
2.18709
2.19771
2.2035
2.20452
4.6427
1.92534
1.45369
1.29122
1.22244
1.19415
1.18691
1.19182
1.20422
1.22143
1.24182
1.2644
1.2885
1.31375
1.33992
1.36691
1.39471
1.42335
1.45293
1.48354
1.51532
1.54839
1.58287
1.61885
1.65639
1.6955
1.73611
1.77804
1.82105
1.86478
1.9088
1.95254
1.99537
2.03661
2.07555
2.11153
2.14393
2.17218
2.19584
2.21464
2.22839
2.23697
2.24051
2.23922
4.70858
1.96696
1.48441
1.31499
1.24128
1.20934
1.19932
1.20215
1.21302
1.22919
1.24896
1.27127
1.29543
1.32101
1.34775
1.37552
1.40427
1.43402
1.46484
1.49683
1.53011
1.56482
1.60108
1.63898
1.67861
1.71997
1.76298
1.80741
1.85293
1.89915
1.94549
1.99132
2.03589
2.07837
2.118
2.15408
2.18604
2.21322
2.2352
2.25184
2.26312
2.26909
2.26993
2.26592
4.69967
1.9869
1.50336
1.33085
1.25426
1.21994
1.20804
1.20943
1.21928
1.23479
1.25423
1.27651
1.30089
1.32692
1.35432
1.38292
1.41266
1.44354
1.47563
1.50903
1.54387
1.5803
1.61847
1.65849
1.70045
1.74434
1.79008
1.83731
1.88559
1.93438
1.98299
2.03066
2.07662
2.11965
2.15903
2.19408
2.22426
2.24914
2.26846
2.28214
2.29025
2.29296
2.29056
2.2834
4.61353
1.98536
1.5115
1.3402
1.2631
1.22791
1.2152
1.21596
1.22543
1.2408
1.26035
1.28294
1.30785
1.3346
1.36286
1.39248
1.42337
1.45555
1.48907
1.52405
1.56063
1.599
1.63934
1.68182
1.72649
1.77336
1.82225
1.87256
1.92367
1.97483
2.02515
2.07368
2.11946
2.16154
2.19915
2.23168
2.25868
2.27992
2.29528
2.30486
2.30885
2.30755
2.30134
2.29066
4.44545
1.96498
1.5112
1.34567
1.27069
1.23642
1.22421
1.22538
1.23532
1.25128
1.27156
1.29505
1.32101
1.34893
1.37852
1.40959
1.44207
1.47595
1.51133
1.54832
1.58709
1.62785
1.6708
1.71612
1.76391
1.81422
1.86643
1.91976
1.97329
2.02598
2.07674
2.12448
2.16821
2.20711
2.24056
2.26819
2.28981
2.30541
2.31513
2.31923
2.31805
2.31199
2.3015
2.28703
4.22682
1.93976
1.50997
1.35288
1.28218
1.25054
1.24027
1.24312
1.25465
1.27224
1.29425
1.31958
1.3475
1.37752
1.40933
1.44276
1.47772
1.51422
1.55237
1.59229
1.63419
1.67829
1.72479
1.77389
1.82569
1.8801
1.93574
1.99151
2.04614
2.09832
2.14675
2.19037
2.22835
2.2602
2.28571
2.30494
2.31808
2.32548
2.32752
2.3246
2.31717
2.30566
2.29052
2.27217
3.96328
1.9073
1.50929
1.36447
1.30082
1.27416
1.26791
1.27433
1.28926
1.31022
1.33564
1.36447
1.39601
1.42979
1.46549
1.50294
1.54207
1.58291
1.62555
1.67014
1.7169
1.76605
1.81779
1.8723
1.92968
1.98827
2.04643
2.10257
2.15504
2.2023
2.24315
2.27685
2.30315
2.32224
2.33465
2.34105
2.34215
2.3386
2.33097
2.31973
2.30529
2.288
2.2682
2.24619
3.66355
1.86534
1.50865
1.38096
1.32781
1.30903
1.30946
1.32199
1.34276
1.36947
1.40065
1.4353
1.47274
1.51251
1.55431
1.59797
1.64341
1.69067
1.73984
1.79105
1.84449
1.90034
1.95875
2.01979
2.08234
2.14324
2.20055
2.25225
2.29653
2.33207
2.35823
2.37518
2.38369
2.38498
2.38041
2.37127
2.35861
2.34324
2.32569
2.30632
2.28536
2.26295
2.23923
2.21433
3.34256
1.81334
1.50715
1.40232
1.36424
1.35749
1.36858
1.39108
1.42147
1.4576
1.49808
1.54195
1.58856
1.63746
1.68834
1.74102
1.79543
1.85156
1.90946
1.96924
2.03097
2.09472
2.16041
2.22762
2.29121
2.34882
2.39802
2.43676
2.4637
2.47849
2.48182
2.47527
2.46094
2.44107
2.41767
2.39231
2.36608
2.3396
2.31316
2.2868
2.26044
2.23398
2.2073
2.18032
3.01713
1.75125
1.5045
1.42992
1.41373
1.42561
1.45378
1.49243
1.5383
1.58936
1.64426
1.70208
1.76216
1.82405
1.88745
1.95214
2.01801
2.08499
2.15304
2.22214
2.29218
2.36303
2.4343
2.49918
2.5546
2.5979
2.62697
2.64069
2.63923
2.62407
2.59775
2.5634
2.52422
2.48297
2.44177
2.40196
2.36424
2.32878
2.29541
2.26379
2.23351
2.20417
2.17546
2.14713
2.70511
1.68048
1.50395
1.47136
1.48862
1.53027
1.58598
1.65042
1.72048
1.79417
1.87019
1.94763
2.02586
2.10442
2.18298
2.26132
2.33924
2.41658
2.49315
2.56869
2.64279
2.71504
2.77685
2.82452
2.85553
2.86815
2.8619
2.83785
2.79852
2.74755
2.68912
2.62728
2.56545
2.50613
2.45086
2.40028
2.3544
2.31281
2.27485
2.23982
2.20703
2.17587
2.14589
2.11672
2.42559
1.60789
1.52018
1.55142
1.62294
1.71321
1.81305
1.91746
2.02342
2.12903
2.23308
2.33477
2.43356
2.52911
2.62118
2.70958
2.79412
2.87454
2.95063
3.0219
3.0868
3.13515
3.16413
3.17187
3.15762
3.12207
3.06752
2.99771
2.91735
2.83143
2.74461
2.66063
2.58214
2.5106
2.44648
2.38956
2.33911
2.29419
2.25378
2.21691
2.18273
2.15054
2.11979
2.0901
2.19871
1.55833
1.60083
1.73905
1.90271
2.07297
2.24168
2.40426
2.55805
2.70165
2.83447
2.95641
3.06762
3.16847
3.25934
3.34048
3.41217
3.47423
3.52742
3.56612
3.58199
3.57406
3.54203
3.48672
3.41038
3.31665
3.2103
3.09671
2.98125
2.8686
2.76241
2.66504
2.57763
2.50033
2.43256
2.37329
2.32127
2.27523
2.23395
2.19635
2.16155
2.12881
2.0976
2.06752
2.04284
1.61635
1.88958
2.22474
2.55056
2.84895
3.11399
3.34378
3.53883
3.70136
3.83443
3.94129
4.02506
4.08862
4.13466
4.16448
4.1804
4.18122
4.15901
4.11218
4.04167
3.94905
3.83677
3.70831
3.5681
3.42121
3.2729
3.1281
2.99086
2.86413
2.74963
2.64795
2.55877
2.48112
2.41367
2.35491
2.30336
2.25762
2.21644
2.17877
2.14376
2.11072
2.07917
2.04876
1.97025
2.08085
2.85399
3.58053
4.17307
4.62265
4.94626
5.16481
5.29887
5.3673
5.38595
5.36727
5.3207
5.25349
5.17312
5.07826
4.96575
4.83499
4.6886
4.52833
4.35629
4.17515
3.98824
3.79936
3.61265
3.43215
3.26144
3.10333
2.95965
2.8312
2.71789
2.61891
2.53294
2.45842
2.39367
2.33705
2.28704
2.2423
2.20169
2.16425
2.1292
2.09597
2.06411
2.03334
2.19855
4.29464
6.11678
7.39694
8.10873
8.37557
8.36011
8.18048
7.91244
7.60298
7.27978
6.95802
6.64508
6.34325
6.0492
5.76484
5.48935
5.22122
4.95968
4.70454
4.45629
4.21608
3.9856
3.76684
3.56184
3.37234
3.19959
3.04421
2.9061
2.78457
2.67841
2.58609
2.50592
2.43615
2.37509
2.32121
2.27311
2.2296
2.18968
2.15253
2.11748
2.08405
2.05187
2.0207
4.63338
11.8666
14.0593
14.3531
13.7229
12.7495
11.7166
10.7399
9.85808
9.07682
8.38888
7.78255
7.24538
6.76557
6.33228
5.93742
5.57452
5.2385
4.92565
4.63352
4.36064
4.10637
3.87059
3.65347
3.45522
3.27585
3.11507
2.9722
2.84619
2.7357
2.63915
2.55487
2.48118
2.41645
2.35918
2.30801
2.26177
2.21942
2.18014
2.14322
2.10813
2.07446
2.04192
2.01033
18.1667
15.3011
13.7519
12.7391
11.9184
11.1612
10.4316
9.72971
9.06462
8.44352
7.8696
7.34264
6.86015
6.41833
6.01285
5.63959
5.29496
4.97597
4.68028
4.40618
4.15252
3.91855
3.7038
3.50788
3.33036
3.17067
3.028
2.90131
2.78935
2.69074
2.60398
2.52755
2.46
2.39994
2.34609
2.29734
2.25269
2.21132
2.17254
2.13576
2.10056
2.0666
2.03366
2.00159
8.83086
8.36861
8.05338
7.86232
7.744
7.64157
7.51269
7.33858
7.11871
6.8619
6.57988
6.28386
5.98307
5.68438
5.39255
5.11076
4.84102
4.58462
4.34236
4.11479
3.90227
3.70503
3.52319
3.35669
3.20526
3.06843
2.94551
2.83561
2.73768
2.65057
2.57304
2.50389
2.44193
2.38605
2.33523
2.28857
2.24529
2.20471
2.16628
2.12953
2.09413
2.05981
2.0264
1.99381
6.66536
6.43028
6.22838
6.07051
5.95535
5.87111
5.80057
5.72759
5.64071
5.53383
5.40545
5.25725
5.09276
4.91627
4.73209
4.54417
4.35597
4.17034
3.98965
3.81577
3.65018
3.49397
3.34793
3.21251
3.08787
2.97392
2.87031
2.77648
2.69175
2.61528
2.54621
2.48364
2.42668
2.37449
2.32631
2.28143
2.23926
2.19928
2.16105
2.12422
2.08853
2.05377
2.01983
1.98665
5.84621
5.6619
5.49112
5.33887
5.20772
5.09674
5.00166
4.91636
4.83451
4.75064
4.66082
4.56281
4.45584
4.34038
4.2177
4.08957
3.95799
3.825
3.69254
3.56235
3.43596
3.3146
3.19923
3.09056
2.989
2.89471
2.80764
2.72754
2.65402
2.58658
2.52462
2.46755
2.41473
2.36556
2.31949
2.276
2.23463
2.19501
2.15681
2.11976
2.08367
2.0484
2.01386
1.98003
5.45404
5.28864
5.132
4.9858
4.85145
4.72944
4.619
4.5182
4.42448
4.33502
4.24723
4.159
4.06883
3.9759
3.87997
3.78131
3.68056
3.57861
3.47649
3.37524
3.2759
3.17937
3.08643
2.99768
2.91355
2.83428
2.75995
2.69047
2.62566
2.56521
2.50877
2.45593
2.40626
2.35935
2.3148
2.27224
2.23135
2.19183
2.15347
2.11606
2.07946
2.04359
2.00839
1.97387
5.2436
5.08841
4.94023
4.79954
4.66687
4.54255
4.42652
4.31821
4.21666
4.12061
4.02872
3.93967
3.85235
3.76588
3.67969
3.5935
3.5073
3.42129
3.33583
3.25139
3.16848
3.08762
3.00926
2.93379
2.86152
2.79263
2.72721
2.66523
2.60659
2.55111
2.49856
2.44867
2.40116
2.35573
2.31211
2.27003
2.22926
2.1896
2.15088
2.11297
2.07577
2.03923
2.00331
1.96805
5.12359
4.97558
4.83362
4.69779
4.5682
4.44499
4.32815
4.2175
4.11265
4.01307
3.91808
3.82699
3.7391
3.65379
3.57057
3.48907
3.40908
3.33049
3.25335
3.17776
3.10391
3.03201
2.96225
2.89483
2.82989
2.76751
2.70774
2.65055
2.59585
2.54353
2.49342
2.44532
2.39904
2.35438
2.31113
2.26911
2.22815
2.18811
2.14886
2.11032
2.07242
2.03514
1.99846
1.96242
5.05261
4.91052
4.77378
4.64233
4.51617
4.39529
4.27967
4.16922
4.06376
3.96303
3.86671
3.77441
3.68575
3.60032
3.51777
3.43781
3.36019
3.28475
3.21138
3.14003
3.07072
3.00345
2.93827
2.87522
2.81432
2.75559
2.69899
2.64447
2.59194
2.54131
2.49243
2.44516
2.39935
2.35484
2.31149
2.26916
2.22773
2.1871
2.14717
2.10788
2.06921
2.03113
1.99366
1.95683
5.00949
4.87265
4.74057
4.61318
4.49044
4.3723
4.25871
4.1496
4.04487
3.94438
3.84794
3.75535
3.66638
3.58077
3.4983
3.41874
3.3419
3.2676
3.19571
3.12613
3.05876
2.99355
2.93046
2.86942
2.81039
2.75333
2.69815
2.64478
2.59312
2.54307
2.49451
2.44732
2.40137
2.35654
2.31271
2.26978
2.22766
2.18626
2.14552
2.10542
2.06591
2.02699
1.9887
1.95107
4.9826
4.85051
4.7227
4.5991
4.47965
4.3643
4.253
4.14569
4.0423
3.94273
3.84686
3.75458
3.66574
3.58017
3.49772
3.41822
3.34154
3.26751
3.19601
3.12692
3.06013
2.99555
2.93307
2.87263
2.81412
2.75747
2.70257
2.64934
2.59766
2.54743
2.49854
2.45089
2.40436
2.35885
2.31426
2.27052
2.22753
2.18525
2.14363
2.10263
2.06225
2.02248
1.98336
1.94492
4.96532
4.83753
4.71359
4.59347
4.47711
4.36446
4.25546
4.15008
4.04824
3.94987
3.85491
3.76325
3.6748
3.58946
3.50709
3.4276
3.35086
3.27674
3.20514
3.13594
3.06903
3.00431
2.94168
2.88102
2.82226
2.76527
2.70996
2.65622
2.60396
2.55307
2.50344
2.45497
2.40757
2.36114
2.31561
2.27091
2.22696
2.18372
2.14115
2.09923
2.05796
2.01733
1.97738
1.93815
4.95476
4.83045
4.70971
4.59248
4.47872
4.36837
4.26139
4.15774
4.05735
3.96018
3.86615
3.7752
3.68725
3.60221
3.52
3.44052
3.36367
3.28936
3.21749
3.14794
3.08063
3.01544
2.95229
2.89106
2.83166
2.77398
2.71793
2.6634
2.61029
2.5585
2.50794
2.45851
2.41013
2.36271
2.31619
2.2705
2.22558
2.18139
2.13791
2.09511
2.05298
2.01155
1.97083
1.93086
4.94728
4.82603
4.70809
4.59342
4.48197
4.37369
4.26854
4.16647
4.06743
3.97138
3.87825
3.788
3.70054
3.61583
3.53377
3.4543
3.37732
3.30277
3.23054
3.16055
3.09271
3.02692
2.9631
2.90113
2.84094
2.78242
2.72547
2.67001
2.61594
2.56316
2.51158
2.46114
2.41173
2.3633
2.31577
2.26909
2.22322
2.17811
2.13373
2.09008
2.04715
2.00495
1.9635
1.92283
4.94138
4.82304
4.7078
4.59559
4.48637
4.3801
4.27674
4.17623
4.07854
3.98361
3.89139
3.80183
3.71489
3.63048
3.54857
3.46907
3.39192
3.31705
3.24437
3.17383
3.10532
3.03877
2.9741
2.91123
2.85005
2.7905
2.73248
2.6759
2.62068
2.56675
2.51401
2.4624
2.41184
2.36227
2.31363
2.26588
2.21897
2.17286
2.12754
2.08299
2.0392
1.9962
1.95399
1.91262
4.93697
4.82119
4.70831
4.59828
4.49106
4.38659
4.28483
4.18572
4.08924
3.99532
3.90392
3.81498
3.72847
3.64432
3.56249
3.4829
3.40551
3.33025
3.25705
3.18585
3.11658
3.04917
2.98354
2.91963
2.85735
2.79664
2.73741
2.67959
2.62312
2.56791
2.5139
2.46102
2.40922
2.35844
2.30862
2.25973
2.21172
2.16458
2.11827
2.07278
2.02813
1.9843
1.94133
4.93387
4.82006
4.70901
4.60068
4.49501
4.39194
4.29143
4.19342
4.09786
4.00471
3.91391
3.82541
3.73917
3.65513
3.57325
3.49346
3.41573
3.33998
3.26617
3.19424
3.12413
3.05577
2.98911
2.92409
2.86064
2.79869
2.73819
2.67907
2.62128
2.56474
2.50941
2.45523
2.40215
2.35012
2.29909
2.24904
2.19993
2.15173
2.10443
2.05802
2.01249
1.96785
1.92412
4.93147
4.81886
4.70894
4.60165
4.49692
4.3947
4.29492
4.19753
4.10247
4.00969
3.91914
3.83076
3.74452
3.66034
3.57819
3.49802
3.41978
3.34341
3.26886
3.19609
3.12505
3.05568
2.98793
2.92174
2.85707
2.79387
2.73208
2.67164
2.61252
2.55466
2.49801
2.44254
2.38819
2.33492
2.28272
2.23153
2.18134
2.13213
2.08388
2.03658
1.99023
1.94484
1.90041
4.92837
4.81613
4.70653
4.59951
4.49499
4.3929
4.29319
4.19579
4.10065
4.0077
3.91689
3.82817
3.74149
3.65679
3.57403
3.49317
3.41414
3.33691
3.26143
3.18765
3.11553
3.04502
2.97609
2.90868
2.84275
2.77825
2.71516
2.65341
2.59299
2.53383
2.47591
2.41919
2.36363
2.30921
2.25589
2.20365
2.15248
2.10234
2.05323
2.00514
1.95808
1.91204
1.86703
4.92277
4.80991
4.69965
4.59192
4.48664
4.38377
4.28322
4.18494
4.08886
3.99495
3.90313
3.81336
3.72558
3.63975
3.55582
3.47375
3.39348
3.31498
3.23821
3.16311
3.08966
3.01781
2.94752
2.87876
2.81148
2.74565
2.68123
2.61819
2.5565
2.49612
2.43701
2.37916
2.32252
2.26708
2.21281
2.15969
2.1077
2.05683
2.00706
1.95839
1.91082
1.86435
1.81898
4.9165
4.80159
4.68927
4.57946
4.4721
4.36714
4.26452
4.16419
4.06608
3.97015
3.87635
3.78463
3.69494
3.60724
3.52148
3.43762
3.35562
3.27543
3.19702
3.12034
3.04535
2.97203
2.90032
2.8302
2.76163
2.69457
2.62899
2.56485
2.50213
2.44079
2.3808
2.32213
2.26476
2.20866
2.1538
2.10018
2.04776
1.99654
1.94651
1.89765
1.84996
1.80345
1.75812
4.91422
4.79617
4.68076
4.56793
4.45764
4.34982
4.24443
4.14142
4.04074
3.94234
3.84618
3.7522
3.66037
3.57064
3.48295
3.39728
3.31357
3.23177
3.15186
3.07379
2.99751
2.92298
2.85017
2.77904
2.70954
2.64165
2.57532
2.51052
2.44721
2.38536
2.32494
2.26592
2.20827
2.15195
2.09696
2.04326
1.99083
1.93966
1.88974
1.84105
1.7936
1.74737
1.70237
4.91755
4.79488
4.67504
4.55799
4.44368
4.33205
4.22307
4.11668
4.01282
3.91146
3.81253
3.71599
3.62178
3.52985
3.44015
3.35264
3.26725
3.18395
3.10267
3.02337
2.94601
2.87053
2.79689
2.72505
2.65495
2.58656
2.51982
2.45471
2.39118
2.32919
2.26871
2.2097
2.15212
2.09595
2.04115
1.98771
1.93559
1.88478
1.83527
1.78703
1.74007
1.69437
1.64994
4.92881
4.80008
4.67458
4.55225
4.43303
4.31687
4.20369
4.09345
3.98606
3.88147
3.77961
3.68042
3.58382
3.48975
3.39815
3.30895
3.22208
3.13748
3.05509
2.97485
2.8967
2.82057
2.74642
2.67418
2.6038
2.53524
2.46842
2.40332
2.33988
2.27805
2.21779
2.15906
2.10182
2.04604
1.99168
1.93871
1.88711
1.83685
1.7879
1.74027
1.69393
1.64888
1.60513
4.95317
4.81729
4.68523
4.55691
4.43225
4.31115
4.19351
4.07924
3.96824
3.86043
3.7557
3.65397
3.55514
3.45913
3.36583
3.27518
3.18707
3.10144
3.01821
2.93728
2.8586
2.78208
2.70765
2.63525
2.56482
2.49628
2.42958
2.36465
2.30145
2.23992
2.18001
2.12167
2.06485
2.00953
1.95565
1.90318
1.8521
1.80238
1.75399
1.70693
1.66117
1.6167
1.57353
5.00382
4.8601
4.72099
4.58634
4.456
4.32982
4.20767
4.08938
3.97483
3.86388
3.7564
3.65225
3.55132
3.45348
3.35862
3.26663
3.1774
3.09083
3.00681
2.92526
2.84608
2.76917
2.69447
2.62188
2.55133
2.48275
2.41606
2.3512
2.28811
2.22672
2.16698
2.10883
2.05222
1.99712
1.94348
1.89126
1.84043
1.79096
1.74282
1.69601
1.65051
1.6063
1.56339
5.11185
4.95978
4.81321
4.67189
4.5356
4.4041
4.27719
4.15466
4.03632
3.92199
3.81149
3.70465
3.60131
3.50133
3.40456
3.31087
3.22011
3.13217
3.04693
2.96427
2.88409
2.80629
2.73076
2.65742
2.58617
2.51694
2.44965
2.38421
2.32056
2.25864
2.19838
2.13973
2.08263
2.02703
1.9729
1.92019
1.86887
1.81891
1.77028
1.72298
1.67698
1.63228
1.58888
5.35151
5.18974
5.03439
4.88509
4.7415
4.60331
4.47025
4.34205
4.21847
4.09928
3.98426
3.8732
3.76593
3.66225
3.56199
3.465
3.37111
3.28019
3.1921
3.1067
3.02388
2.94352
2.8655
2.78974
2.71612
2.64457
2.57498
2.50729
2.44141
2.37728
2.31483
2.254
2.19473
2.13698
2.0807
2.02586
1.97241
1.92034
1.86961
1.82022
1.77215
1.72539
1.67996
5.92988
5.75331
5.584
5.42145
5.26526
5.11507
4.97055
4.8314
4.69734
4.5681
4.44342
4.32308
4.20684
4.0945
3.98584
3.88069
3.77887
3.6802
3.58454
3.49173
3.40164
3.31414
3.2291
3.14642
3.06597
2.98767
2.91142
2.83714
2.76473
2.69413
2.62527
2.55808
2.49251
2.42851
2.36603
2.30504
2.24549
2.18738
2.13067
2.07535
2.02143
1.96888
1.91773
7.68919
7.47522
7.26905
7.07032
6.87883
6.69434
6.51656
6.34516
6.17981
6.02019
5.86599
5.71691
5.57265
5.43297
5.29759
5.16628
5.03882
4.91501
4.79466
4.67757
4.56359
4.45256
4.34433
4.23877
4.13575
4.03515
3.93687
3.8408
3.74686
3.65495
3.565
3.47695
3.39074
3.30631
3.22361
3.14262
3.0633
2.98564
2.90961
2.83523
2.76249
2.69142
2.62202
17.8869
17.4262
16.9807
16.5502
16.1344
15.7325
15.3437
14.9673
14.6025
14.2486
13.9047
13.5703
13.2447
12.9274
12.6179
12.3157
12.0204
11.7317
11.4491
11.1724
10.9013
10.6355
10.3748
10.119
9.86777
9.6211
9.37879
9.14071
8.90677
8.67688
8.45098
8.22902
8.01099
7.79689
7.58674
7.38059
7.1785
6.98057
6.78692
6.59767
6.413
6.23308
6.05812
)
;

boundaryField
{
    inlet
    {
        type            fixedValue;
        value           uniform 14.855;
    }
    outlet
    {
        type            zeroGradient;
    }
    upperWall
    {
        Cmu             0.09;
        kappa           0.41;
        E               9.8;
        type            epsilonWallFunction;
        value           nonuniform List<scalar> 
61
(
251.832
137.365
90.7851
67.1259
53.3
44.5111
38.5536
34.277
31.0498
28.5131
26.454
24.7406
23.2871
22.0353
20.9442
19.9838
19.1317
18.3736
17.8869
17.4262
16.9807
16.5502
16.1344
15.7325
15.3437
14.9673
14.6025
14.2486
13.9047
13.5703
13.2447
12.9274
12.6179
12.3157
12.0204
11.7317
11.4491
11.1724
10.9013
10.6355
10.3748
10.119
9.86777
9.6211
9.37879
9.14071
8.90677
8.67688
8.45098
8.22902
8.01099
7.79689
7.58674
7.38059
7.1785
6.98057
6.78692
6.59767
6.413
6.23308
6.05812
)
;
    }
    lowerWall
    {
        Cmu             0.09;
        kappa           0.41;
        E               9.8;
        type            epsilonWallFunction;
        value           nonuniform List<scalar> 
89
(
307.555
159.152
103.232
76.2278
60.9645
51.4557
45.0485
40.4252
36.9023
34.1082
31.8283
29.9301
28.327
26.9596
25.7945
24.8067
24.0141
23.5137
0.15543
0.79522
1.56085
2.2034
2.7658
3.25331
3.66937
4.01629
4.29476
4.5041
4.6427
4.70858
4.69967
4.61353
4.44545
4.22682
3.96328
3.66355
3.34256
3.01713
2.70511
2.42559
2.19871
2.04284
1.97025
2.19855
4.63338
0.15543
0.229581
0.400951
0.573192
0.725768
0.870374
1.01056
1.14801
1.28396
1.4195
1.5555
1.69264
1.83138
1.97196
2.11445
2.25876
2.40467
2.55191
2.70013
2.84898
2.99811
3.14723
3.2962
3.44507
3.59424
3.74468
3.89823
4.05822
4.21863
4.37292
4.52062
4.66118
4.79389
4.91794
5.03252
5.13679
5.22997
5.31134
5.38024
5.43614
5.47864
5.50744
5.52241
5.52358
)
;
    }
    frontAndBack
    {
        type            empty;
    }
    procBoundary2to3
    {
        type            processor;
        value           nonuniform List<scalar> 
58
(
5.51114
2.53078
2.10488
2.00715
2.00135
2.03004
2.07207
2.11768
2.16164
2.20082
2.23318
2.25722
2.27174
2.27582
2.26894
2.25092
2.22217
2.18827
2.15291
2.11889
2.08798
2.06102
2.03815
2.01907
2.00328
1.99023
1.9794
1.97016
1.96183
1.95406
1.94678
1.93992
1.93337
1.92699
1.92062
1.91408
1.90716
1.89963
1.89165
1.88296
1.87207
1.89922
1.89922
1.88131
1.85696
1.82307
1.77474
1.71398
1.65861
1.60678
1.56266
1.53167
1.52177
1.54678
1.63585
1.86799
2.55433
5.88833
)
;
    }
}


// ************************************************************************* //
