/*--------------------------------*- C++ -*----------------------------------*\
  =========                 |
  \\      /  F ield         | OpenFOAM: The Open Source CFD Toolbox
   \\    /   O peration     | Website:  https://openfoam.org
    \\  /    A nd           | Version:  6
     \\/     M anipulation  |
\*---------------------------------------------------------------------------*/
FoamFile
{
    version     2.0;
    format      ascii;
    class       volScalarField;
    location    "0.07";
    object      k;
}
// * * * * * * * * * * * * * * * * * * * * * * * * * * * * * * * * * * * * * //

dimensions      [0 2 -2 0 0 0 0];

internalField   nonuniform List<scalar> 
3032
(
0.24644
0.158844
0.119025
0.0972373
0.0837789
0.0748219
0.068472
0.0637008
0.0599413
0.0568729
0.0543059
0.0521206
0.0502377
0.0486023
0.0471833
0.0459616
0.0449648
0.0443183
0.339525
0.260142
0.208286
0.17535
0.153363
0.137816
0.126191
0.117079
0.109686
0.103539
0.0983376
0.093876
0.0900097
0.0866324
0.0836728
0.0810711
0.0788203
0.0768827
0.347499
0.292347
0.248542
0.216258
0.192334
0.174203
0.160065
0.148723
0.139403
0.131597
0.124959
0.119246
0.114283
0.109939
0.106122
0.102754
0.0997992
0.0972557
0.351371
0.309044
0.271916
0.241986
0.218248
0.199343
0.184082
0.171554
0.161102
0.152258
0.144683
0.138129
0.132413
0.127394
0.122969
0.119051
0.115593
0.1126
0.353918
0.319274
0.287228
0.259883
0.237144
0.218342
0.202723
0.189628
0.178534
0.16904
0.160839
0.153698
0.147437
0.141919
0.137032
0.13269
0.128841
0.12549
0.355678
0.32604
0.297896
0.272974
0.25153
0.233276
0.21775
0.204488
0.193089
0.183223
0.174626
0.167087
0.16044
0.154553
0.149315
0.144644
0.140487
0.136848
0.356918
0.330718
0.305596
0.282819
0.26273
0.245239
0.230071
0.216906
0.205441
0.195412
0.186596
0.17881
0.171904
0.165756
0.16026
0.155339
0.150943
0.147076
0.357803
0.334035
0.311263
0.290329
0.271542
0.2549
0.240241
0.227344
0.215981
0.205944
0.197048
0.189137
0.182079
0.175759
0.170085
0.164984
0.16041
0.156368
0.358434
0.336411
0.315466
0.296087
0.278495
0.262712
0.248636
0.23611
0.224965
0.215034
0.206166
0.198227
0.191103
0.184691
0.178908
0.173688
0.16899
0.16482
0.358882
0.338112
0.318579
0.30049
0.283961
0.268998
0.255528
0.243433
0.232579
0.222835
0.214075
0.206187
0.199067
0.192628
0.186795
0.18151
0.176735
0.172479
0.359196
0.339321
0.320864
0.303825
0.288216
0.274008
0.261132
0.249489
0.23897
0.229466
0.220872
0.21309
0.206031
0.199617
0.193785
0.18848
0.183672
0.179367
0.359395
0.340097
0.32238
0.306108
0.291209
0.277617
0.26525
0.254018
0.243822
0.234566
0.226159
0.218511
0.211547
0.205197
0.199402
0.194115
0.189308
0.184991
0.359536
0.340655
0.323501
0.307844
0.293541
0.280488
0.268587
0.257744
0.247867
0.238867
0.230659
0.223166
0.216319
0.210055
0.20432
0.199073
0.19429
0.189979
0.359644
0.341089
0.324397
0.309272
0.295515
0.282978
0.271542
0.261104
0.251572
0.242859
0.234886
0.227584
0.220888
0.214743
0.209099
0.20392
0.199184
0.194899
0.35972
0.341396
0.325051
0.310351
0.297051
0.284971
0.273966
0.263921
0.254734
0.246321
0.238605
0.231518
0.225001
0.219001
0.213476
0.20839
0.203724
0.199487
0.359768
0.341591
0.325478
0.311079
0.298125
0.286406
0.275761
0.266056
0.257185
0.249054
0.241588
0.234718
0.228388
0.222546
0.217153
0.212175
0.207596
0.20342
0.359793
0.341698
0.325719
0.311502
0.298768
0.287294
0.276902
0.26745
0.25882
0.250915
0.243655
0.236969
0.230801
0.2251
0.219826
0.214949
0.210451
0.206337
0.359804
0.341741
0.325818
0.311681
0.299046
0.287687
0.277421
0.268097
0.259593
0.251809
0.24466
0.238076
0.231998
0.226375
0.221168
0.216345
0.21189
0.207805
0.359801
0.341728
0.325788
0.311625
0.298959
0.287562
0.277253
0.267884
0.259333
0.251501
0.244304
0.237671
0.231545
0.225874
0.220619
0.215748
0.211246
0.207115
0.359775
0.34162
0.325541
0.311187
0.298284
0.286618
0.276022
0.266359
0.257518
0.249405
0.241943
0.235062
0.228706
0.222825
0.217378
0.212333
0.207673
0.203402
0.359715
0.341374
0.325001
0.310264
0.29692
0.284786
0.27372
0.263604
0.254339
0.245836
0.238021
0.230825
0.224189
0.218061
0.212397
0.207163
0.202338
0.197929
0.359585
0.340848
0.323893
0.308458
0.294371
0.281506
0.269755
0.259019
0.249205
0.240227
0.232004
0.224462
0.217534
0.211161
0.205293
0.199889
0.194925
0.190406
0.359329
0.33983
0.321847
0.305285
0.290099
0.276233
0.263612
0.252141
0.241721
0.23225
0.223632
0.215778
0.208607
0.202047
0.196037
0.190528
0.185489
0.180923
0.358859
0.338004
0.318358
0.300145
0.283487
0.268392
0.254786
0.242551
0.231552
0.221654
0.21273
0.204665
0.197357
0.190718
0.184671
0.179157
0.174136
0.169611
0.35805
0.334905
0.312737
0.292274
0.273802
0.257337
0.242744
0.22983
0.218388
0.208223
0.199161
0.191053
0.183769
0.177201
0.171258
0.165868
0.160983
0.156601
0.356706
0.329796
0.303955
0.280593
0.260058
0.242237
0.226824
0.213472
0.201854
0.19169
0.182745
0.174828
0.167781
0.161474
0.155804
0.150689
0.146071
0.141945
0.354517
0.321327
0.290219
0.263322
0.2407
0.221821
0.206021
0.192693
0.181341
0.171577
0.163101
0.155679
0.14913
0.143311
0.138109
0.133435
0.12923
0.125482
0.3509
0.306589
0.267891
0.23705
0.212853
0.19376
0.178455
0.165952
0.155549
0.146755
0.139216
0.132679
0.126951
0.121889
0.117384
0.113348
0.109722
0.106491
0.342446
0.275925
0.227234
0.193472
0.16973
0.152474
0.139407
0.129117
0.120749
0.113777
0.107858
0.102758
0.0983085
0.0943892
0.0909079
0.0877941
0.0849958
0.0824922
0.259302
0.173108
0.131344
0.107398
0.0920933
0.0816699
0.074211
0.0686179
0.0642423
0.0606958
0.0577395
0.0552208
0.0530386
0.0511229
0.0494237
0.0479036
0.0465348
0.0453001
0.00217535
0.00457769
0.006626
0.00843988
0.00988427
0.0111594
0.0123293
0.0134251
0.0144673
0.0154712
0.0164478
0.0174051
0.0183485
0.0192811
0.0202044
0.0211189
0.022024
0.022919
0.0238025
0.0246733
0.0255303
0.0263725
0.0271998
0.028013
0.0288142
0.029608
0.0304021
0.0312091
0.0320335
0.0328174
0.0335595
0.0342593
0.0349149
0.0355239
0.0360836
0.0365913
0.0370444
0.0374402
0.0377766
0.0380518
0.0382641
0.0384127
0.038497
0.0385169
0.00638552
0.0140162
0.0179767
0.0210898
0.0238111
0.02626
0.0284849
0.0305226
0.0324093
0.0341804
0.0358675
0.0374967
0.039089
0.0406602
0.0422216
0.043781
0.0453432
0.0469106
0.0484839
0.0500625
0.0516445
0.0532275
0.0548082
0.0563828
0.057947
0.0594959
0.0610241
0.0625262
0.0639804
0.0653971
0.0667757
0.0681116
0.0693983
0.0706287
0.0717952
0.0728898
0.0739049
0.074833
0.0756671
0.076401
0.0770291
0.077547
0.0779511
0.0782393
0.0100517
0.0206572
0.0259347
0.0298173
0.0331039
0.0360419
0.0387259
0.0412029
0.0435073
0.0456706
0.0477217
0.0496862
0.0515855
0.0534364
0.0552522
0.0570427
0.0588152
0.0605748
0.0623253
0.0640693
0.0658086
0.0675442
0.0692763
0.0710045
0.0727276
0.0744437
0.07615
0.0778429
0.079514
0.0811616
0.0827806
0.0843638
0.0859025
0.0873869
0.0888068
0.0901514
0.0914101
0.0925726
0.0936292
0.0945709
0.0953897
0.0960789
0.0966332
0.0970487
0.0126457
0.0256892
0.0320489
0.0365481
0.0402373
0.0434757
0.046416
0.0491312
0.0516634
0.0540432
0.0562957
0.058443
0.0605041
0.0624953
0.0644304
0.066321
0.0681768
0.0700061
0.0718161
0.0736128
0.0754016
0.0771865
0.0789712
0.0807577
0.0825472
0.0843396
0.0861332
0.0879249
0.0897084
0.0914796
0.0932317
0.0949562
0.0966428
0.0982802
0.0998563
0.101358
0.102774
0.10409
0.105296
0.10638
0.107331
0.108143
0.108808
0.10932
0.0147029
0.029586
0.0368281
0.0418541
0.045892
0.0493763
0.052505
0.055378
0.0580511
0.0605599
0.0629304
0.0651835
0.0673369
0.0694063
0.0714057
0.0733478
0.0752439
0.0771045
0.078939
0.080756
0.0825631
0.0843671
0.0861732
0.0879857
0.0898071
0.0916384
0.0934784
0.0953245
0.0971714
0.0990147
0.100847
0.10266
0.104443
0.106182
0.107864
0.109475
0.111001
0.112428
0.113743
0.114931
0.115983
0.116889
0.11764
0.11823
0.0163647
0.0326494
0.0405981
0.0460629
0.0504024
0.0541015
0.0573882
0.060383
0.063155
0.0657478
0.0681909
0.0705066
0.0727132
0.0748264
0.0768604
0.0788285
0.080743
0.0826154
0.0844566
0.0862767
0.088085
0.0898895
0.0916973
0.0935137
0.0953426
0.0971858
0.099043
0.100912
0.102788
0.104669
0.106547
0.108413
0.110256
0.112062
0.113817
0.115505
0.117112
0.118621
0.120017
0.121287
0.122417
0.123398
0.124219
0.124874
0.017708
0.0350602
0.0435657
0.049384
0.0539739
0.0578555
0.0612762
0.0643705
0.067218
0.0698694
0.0723589
0.0747116
0.076947
0.0790817
0.0811304
0.0831067
0.0850234
0.0868927
0.0887263
0.0905352
0.0923295
0.0941185
0.0959101
0.0977111
0.0995262
0.101358
0.103208
0.105074
0.106954
0.108845
0.110741
0.112633
0.11451
0.116358
0.118162
0.119905
0.12157
0.123141
0.124601
0.125935
0.127129
0.128171
0.129052
0.129764
0.0187796
0.0369299
0.0458652
0.0519587
0.0567469
0.0607757
0.0643055
0.0674797
0.0703851
0.0730779
0.0755965
0.0779686
0.0802157
0.0823555
0.0844032
0.0863728
0.0882775
0.0901298
0.0919418
0.0937248
0.0954899
0.097247
0.0990051
0.100772
0.102553
0.104353
0.106174
0.108015
0.109875
0.111754
0.113646
0.115544
0.117435
0.119306
0.12114
0.122921
0.12463
0.12625
0.127761
0.129148
0.130396
0.131492
0.132426
0.13319
0.0196076
0.0383285
0.0475849
0.0538839
0.0588209
0.0629613
0.0665741
0.0698084
0.0727555
0.0754755
0.0780095
0.0803878
0.0826334
0.0847649
0.0867983
0.0887479
0.0906271
0.0924486
0.0942246
0.095967
0.0976872
0.0993958
0.101103
0.102817
0.104545
0.106293
0.108064
0.109859
0.11168
0.113528
0.115399
0.117284
0.119174
0.121053
0.122905
0.124712
0.126455
0.128113
0.129667
0.131101
0.132397
0.133543
0.134527
0.135341
0.0202078
0.0393011
0.0487847
0.0552285
0.0602697
0.0644883
0.0681589
0.071434
0.0744077
0.0771421
0.0796803
0.0820539
0.0842872
0.0863994
0.0884071
0.0903249
0.0921661
0.0939437
0.0956698
0.0973567
0.0990162
0.10066
0.102298
0.103941
0.105597
0.107273
0.108975
0.110705
0.112469
0.114268
0.116101
0.11796
0.119835
0.121711
0.12357
0.125394
0.127161
0.128852
0.130444
0.13192
0.133262
0.134455
0.13549
0.136356
0.0205882
0.0398784
0.0495083
0.0560455
0.0611534
0.0654214
0.0691279
0.0724272
0.0754145
0.0781529
0.0806863
0.0830471
0.08526
0.0873446
0.0893177
0.0911938
0.0929864
0.0947082
0.0963717
0.0979891
0.0995728
0.101135
0.102687
0.10424
0.105805
0.107391
0.109004
0.11065
0.112339
0.114074
0.115853
0.117672
0.119519
0.121379
0.123236
0.125068
0.126853
0.12857
0.130195
0.13171
0.133098
0.134337
0.135418
0.136335
0.0207513
0.0400829
0.0497914
0.0563817
0.0615275
0.0658235
0.0695498
0.0728614
0.0758537
0.0785896
0.0811131
0.0834567
0.0856447
0.087697
0.0896298
0.0914577
0.0931938
0.0948508
0.096441
0.097977
0.0994713
0.100937
0.102387
0.103833
0.105289
0.106764
0.108269
0.109814
0.11141
0.113062
0.114771
0.116533
0.118338
0.120169
0.122009
0.123838
0.125635
0.127371
0.12902
0.130564
0.131986
0.133271
0.134408
0.135388
0.0206957
0.0399333
0.0496674
0.0562832
0.0614497
0.0657623
0.069501
0.0728204
0.0758153
0.0785482
0.0810623
0.0833892
0.0855531
0.0875728
0.0894645
0.091242
0.0929181
0.0945051
0.0960152
0.0974611
0.0988558
0.100213
0.101546
0.102871
0.1042
0.105547
0.106925
0.10835
0.109833
0.111383
0.113002
0.114688
0.116434
0.118217
0.12002
0.121823
0.123604
0.125338
0.127001
0.128574
0.130036
0.131373
0.132573
0.133625
0.020415
0.0394465
0.049171
0.0558009
0.0609852
0.0653154
0.0690698
0.0724021
0.0754059
0.0781426
0.0806544
0.0829719
0.0851182
0.0871115
0.0889668
0.0906976
0.0923158
0.0938334
0.0952624
0.0966151
0.097905
0.0991463
0.100355
0.101546
0.102736
0.10394
0.105174
0.106461
0.107812
0.109235
0.110735
0.11231
0.113954
0.115651
0.117387
0.11914
0.120889
0.12261
0.12428
0.125877
0.127381
0.128774
0.130042
0.131176
0.0199034
0.0386257
0.0483375
0.0549928
0.0602097
0.064573
0.0683588
0.0717194
0.0747473
0.0775026
0.0800266
0.0823485
0.0844906
0.08647
0.0883008
0.0899955
0.0915654
0.0930218
0.0943762
0.0956407
0.0968286
0.0979546
0.0990344
0.100085
0.101124
0.10217
0.103248
0.104375
0.105566
0.106829
0.108173
0.109598
0.111101
0.112675
0.114306
0.115978
0.11767
0.119361
0.121025
0.122639
0.124181
0.125632
0.126974
0.128195
0.0192298
0.0374147
0.0471403
0.0538606
0.0591476
0.0635786
0.0674276
0.0708459
0.0739253
0.0767253
0.079286
0.0816362
0.0837967
0.0857839
0.0876109
0.0892893
0.0908295
0.0922418
0.0935369
0.0947264
0.0958231
0.0968412
0.0977967
0.0987076
0.0995933
0.100475
0.10138
0.102323
0.103319
0.104381
0.105519
0.106742
0.108054
0.109453
0.110936
0.112489
0.114095
0.115733
0.117377
0.119001
0.120579
0.122088
0.123506
0.124817
0.0184102
0.0359831
0.0457341
0.0525564
0.0579532
0.06249
0.0664384
0.0699488
0.0731128
0.0759894
0.0786186
0.0810284
0.0832393
0.0852667
0.0871229
0.0888184
0.0903626
0.0917646
0.0930337
0.0941801
0.0952153
0.0961522
0.0970057
0.097793
0.0985336
0.0992527
0.0999674
0.100694
0.101449
0.102251
0.103118
0.104072
0.105127
0.106295
0.107581
0.108978
0.110472
0.112039
0.113651
0.115276
0.116883
0.118444
0.119932
0.121328
0.0174631
0.0344305
0.0442157
0.0511757
0.0567218
0.061403
0.0654873
0.0691248
0.0724071
0.0753936
0.0781245
0.080628
0.0829243
0.0850284
0.0869518
0.0887039
0.0902929
0.0917263
0.0930118
0.0941576
0.0951728
0.096068
0.0968558
0.0975516
0.0981723
0.0987328
0.0992477
0.0997349
0.100217
0.100723
0.101285
0.101938
0.102716
0.103642
0.104729
0.105972
0.107357
0.108856
0.110434
0.112054
0.113678
0.115273
0.116809
0.118263
0.0164262
0.0328252
0.0426332
0.0497488
0.0554728
0.060331
0.0645856
0.0683851
0.0718209
0.074953
0.077822
0.0804563
0.082876
0.0850955
0.0871256
0.0889743
0.090648
0.0921523
0.0934923
0.0946733
0.0957011
0.0965828
0.0973273
0.0979457
0.0984404
0.0988227
0.099109
0.0993237
0.0995017
0.0996885
0.0999364
0.100299
0.100823
0.10154
0.102464
0.10359
0.104894
0.106343
0.107893
0.109503
0.111129
0.112735
0.114289
0.115768
0.0153464
0.0312368
0.0410467
0.0483219
0.054244
0.0593086
0.0637679
0.0677664
0.0713942
0.074711
0.0777575
0.0805619
0.0831438
0.0855167
0.0876899
0.0896693
0.091459
0.0930612
0.0944777
0.0957096
0.0967583
0.0976265
0.0983185
0.0988226
0.0991445
0.099298
0.0993083
0.0992155
0.0990753
0.0989552
0.0989274
0.0990589
0.0994016
0.0999857
0.100818
0.101882
0.103145
0.104566
0.106094
0.107684
0.109292
0.110881
0.112419
0.113884
0.01428
0.0297454
0.0395541
0.0469984
0.053143
0.0584476
0.0631499
0.067388
0.0712494
0.0747922
0.0780563
0.0810688
0.0838474
0.0864036
0.0887438
0.0908709
0.0927849
0.0944841
0.0959654
0.0972251
0.0982595
0.099067
0.0996239
0.0999303
0.099999
0.0998573
0.099551
0.0991449
0.098719
0.0983606
0.0981522
0.0981612
0.0984314
0.0989795
0.0997969
0.100855
0.10211
0.103515
0.105018
0.106573
0.108137
0.109676
0.111163
0.112576
0.0132954
0.0284596
0.0383227
0.0459828
0.0523964
0.0579874
0.0629798
0.0675044
0.0716443
0.0754543
0.078971
0.0822179
0.0852094
0.0879527
0.0904503
0.0927006
0.0946996
0.0964407
0.0979166
0.0991194
0.10004
0.100648
0.100944
0.100945
0.100682
0.100209
0.0995975
0.0989386
0.0983285
0.0978591
0.0976068
0.0976231
0.0979314
0.0985286
0.0993895
0.100474
0.101734
0.10312
0.104582
0.106078
0.107572
0.109032
0.110435
0.111765
0.0124746
0.0275708
0.0376496
0.0456454
0.0524224
0.0583801
0.0637329
0.0686029
0.073065
0.0771669
0.0809393
0.0844009
0.0875617
0.0904254
0.0929916
0.0952561
0.0972125
0.0988523
0.10017
0.101143
0.101752
0.102004
0.101923
0.10155
0.100944
0.100187
0.0993716
0.0985979
0.0979595
0.0975337
0.0973738
0.0975057
0.0979292
0.0986226
0.0995493
0.100664
0.101919
0.103268
0.104667
0.10608
0.107477
0.108832
0.110127
0.11135
0.0119005
0.0274872
0.0381303
0.0467404
0.0540961
0.0605735
0.0663781
0.0716237
0.0763785
0.0806889
0.0845871
0.0880949
0.0912261
0.0939889
0.0963879
0.0984219
0.100091
0.101389
0.102293
0.102808
0.102954
0.102763
0.102284
0.101583
0.100741
0.0998503
0.099005
0.0982923
0.0977837
0.0975287
0.0975519
0.0978545
0.0984181
0.0992104
0.100191
0.101315
0.102541
0.103828
0.10514
0.106449
0.107728
0.108961
0.110132
0.111231
0.0116363
0.0292293
0.04135
0.0512506
0.0595432
0.0666063
0.0727104
0.0780277
0.0826756
0.0867426
0.0902946
0.0933788
0.0960285
0.0982673
0.100117
0.101577
0.102645
0.103328
0.103649
0.103634
0.103321
0.102762
0.10202
0.101168
0.100289
0.0994633
0.0987657
0.098257
0.0979795
0.0979549
0.098185
0.0986551
0.0993381
0.100199
0.101201
0.102303
0.103472
0.104673
0.105879
0.107066
0.108217
0.109316
0.110354
0.111324
0.0125572
0.0369211
0.0518283
0.0633547
0.0719895
0.0785395
0.0837014
0.0879008
0.0913865
0.0943119
0.0967729
0.0988293
0.100518
0.101862
0.102867
0.103555
0.103942
0.104044
0.103887
0.103502
0.102934
0.102233
0.101461
0.100681
0.0999571
0.0993494
0.0989062
0.0986621
0.0986359
0.0988307
0.0992362
0.0998313
0.100588
0.101475
0.102459
0.103509
0.104595
0.105692
0.106779
0.107837
0.108853
0.109816
0.110718
0.111556
0.0208228
0.052311
0.067826
0.0775148
0.0839463
0.088528
0.0920156
0.0947822
0.0970206
0.0988444
0.100326
0.101514
0.102438
0.103118
0.103565
0.103792
0.103813
0.103647
0.103317
0.102854
0.102298
0.101692
0.101085
0.100525
0.100057
0.0997208
0.0995441
0.0995444
0.0997271
0.100087
0.100609
0.101273
0.102054
0.102925
0.103859
0.104831
0.105819
0.106801
0.107762
0.108688
0.109569
0.110396
0.111166
0.111876
0.0476222
0.0543452
0.0629711
0.0716776
0.0792938
0.085416
0.0901202
0.0936719
0.0963494
0.0983767
0.0999143
0.101072
0.101924
0.10252
0.102895
0.103076
0.103088
0.102957
0.102711
0.102379
0.101998
0.101605
0.101236
0.10093
0.100716
0.10062
0.10066
0.100842
0.101168
0.101628
0.102209
0.102891
0.103655
0.104477
0.105338
0.106216
0.107094
0.107956
0.108789
0.109583
0.110331
0.111027
0.111668
0.112252
0.0764271
0.0769754
0.0785186
0.080939
0.0839738
0.0872395
0.0903843
0.0931921
0.0955767
0.0975337
0.0990982
0.100319
0.101245
0.10192
0.102382
0.102663
0.102793
0.102803
0.10272
0.102575
0.102399
0.102223
0.102077
0.101987
0.101975
0.102059
0.102249
0.102547
0.102952
0.103456
0.104044
0.104703
0.105415
0.106162
0.106927
0.107695
0.108452
0.109185
0.109884
0.110543
0.111155
0.111717
0.112227
0.112685
0.0959118
0.0949659
0.094416
0.0943227
0.0946959
0.0954643
0.0964994
0.0976629
0.0988386
0.099943
0.100925
0.101759
0.102439
0.102968
0.103359
0.103626
0.103789
0.103869
0.103886
0.103863
0.103826
0.103795
0.103793
0.103839
0.103947
0.104129
0.10439
0.104731
0.105149
0.105635
0.10618
0.106771
0.107394
0.108034
0.108679
0.109316
0.109934
0.110524
0.111079
0.111592
0.11206
0.112481
0.112853
0.113179
0.110814
0.109323
0.108024
0.106958
0.106157
0.105627
0.105343
0.105259
0.105321
0.105473
0.10567
0.105876
0.106063
0.106218
0.106331
0.106402
0.106435
0.106436
0.106417
0.10639
0.106369
0.106368
0.1064
0.106476
0.106606
0.106794
0.107043
0.107352
0.107717
0.10813
0.108582
0.109064
0.109563
0.110069
0.11057
0.111058
0.111523
0.111957
0.112356
0.112716
0.113033
0.113306
0.113536
0.113724
0.123383
0.121573
0.119886
0.118342
0.116961
0.115759
0.114738
0.113889
0.113194
0.112628
0.112167
0.111786
0.111464
0.111185
0.110937
0.110711
0.110504
0.110315
0.110146
0.110002
0.109888
0.10981
0.109773
0.109784
0.109845
0.109958
0.110122
0.110334
0.110589
0.110881
0.1112
0.111538
0.111885
0.112233
0.112572
0.112894
0.113193
0.113462
0.113698
0.113897
0.114058
0.114179
0.114263
0.114309
0.134483
0.132443
0.130501
0.128665
0.126947
0.125357
0.123902
0.122585
0.121403
0.120346
0.119405
0.118567
0.117819
0.117151
0.116552
0.116015
0.115534
0.115105
0.114726
0.114397
0.114118
0.11389
0.113713
0.113589
0.113516
0.113493
0.113517
0.113583
0.113685
0.113818
0.113972
0.11414
0.114314
0.114486
0.114648
0.114794
0.114917
0.115014
0.115081
0.115115
0.115115
0.115082
0.115016
0.114919
0.144499
0.142281
0.14015
0.138109
0.136165
0.134324
0.132591
0.130972
0.129467
0.128074
0.126792
0.125614
0.124535
0.123548
0.122647
0.121826
0.12108
0.120406
0.1198
0.119259
0.11878
0.118363
0.118005
0.117704
0.117457
0.117259
0.117107
0.116995
0.116916
0.116865
0.116834
0.116815
0.116801
0.116785
0.116761
0.116722
0.116665
0.116585
0.116479
0.116346
0.116184
0.115994
0.115778
0.115536
0.153619
0.151259
0.148981
0.146786
0.144677
0.142657
0.140731
0.138901
0.137171
0.135542
0.134012
0.132581
0.131247
0.130006
0.128854
0.127789
0.126806
0.125902
0.125074
0.124319
0.123633
0.123013
0.122456
0.121959
0.121516
0.121124
0.120777
0.120469
0.120194
0.119946
0.119717
0.119502
0.119292
0.119083
0.118868
0.118642
0.118402
0.118143
0.117864
0.117563
0.117239
0.116894
0.116527
0.116141
0.161934
0.159463
0.15707
0.154754
0.152518
0.150364
0.148294
0.14631
0.144414
0.142609
0.140894
0.13927
0.137737
0.136292
0.134935
0.133662
0.132472
0.131362
0.130329
0.12937
0.128482
0.127661
0.126904
0.126206
0.125563
0.124971
0.124422
0.123913
0.123437
0.122987
0.122558
0.122143
0.121737
0.121333
0.120927
0.120515
0.120092
0.119657
0.119206
0.118738
0.118254
0.117754
0.117238
0.11671
0.169489
0.166932
0.164449
0.16204
0.159706
0.157447
0.155266
0.153163
0.15114
0.149199
0.147341
0.145565
0.143872
0.142262
0.140734
0.139286
0.137917
0.136625
0.135406
0.13426
0.133183
0.132171
0.131221
0.130328
0.129489
0.128699
0.127953
0.127244
0.126569
0.12592
0.125293
0.124682
0.124082
0.123487
0.122894
0.122299
0.121698
0.121089
0.12047
0.11984
0.119199
0.118547
0.117886
0.117218
0.176299
0.173679
0.17113
0.16865
0.16624
0.1639
0.161632
0.159436
0.157313
0.155264
0.15329
0.151392
0.149569
0.147822
0.14615
0.144553
0.143028
0.141575
0.140192
0.138876
0.137625
0.136436
0.135305
0.134229
0.133204
0.132226
0.131289
0.130389
0.129522
0.128682
0.127865
0.127064
0.126277
0.125499
0.124725
0.123953
0.12318
0.122403
0.121622
0.120834
0.120041
0.119243
0.118441
0.117636
0.181888
0.179235
0.176646
0.174122
0.171662
0.169269
0.166941
0.164679
0.162485
0.160359
0.158302
0.156313
0.154394
0.152544
0.150763
0.149049
0.147403
0.145822
0.144306
0.142851
0.141457
0.14012
0.138836
0.137604
0.136419
0.135278
0.134177
0.13311
0.132075
0.131066
0.13008
0.129113
0.128159
0.127217
0.126282
0.125351
0.124424
0.123496
0.122568
0.121639
0.120708
0.119777
0.118847
0.117918
0.18685
0.184172
0.181555
0.178997
0.1765
0.174063
0.171687
0.169372
0.167118
0.164927
0.162799
0.160733
0.15873
0.156789
0.154912
0.153096
0.15134
0.149645
0.148008
0.146428
0.144903
0.14343
0.142007
0.140631
0.139298
0.138007
0.136752
0.135531
0.13434
0.133176
0.132033
0.13091
0.129802
0.128708
0.127622
0.126545
0.125473
0.124405
0.123341
0.122279
0.121219
0.120164
0.119113
0.118068
0.191754
0.189058
0.186417
0.183831
0.181299
0.178822
0.176401
0.174034
0.171723
0.169468
0.167269
0.165126
0.16304
0.161009
0.159033
0.157113
0.155247
0.153434
0.151674
0.149964
0.148304
0.14669
0.145122
0.143597
0.142111
0.140663
0.13925
0.137868
0.136515
0.135188
0.133883
0.132598
0.13133
0.130077
0.128836
0.127605
0.126384
0.12517
0.123963
0.122763
0.12157
0.120385
0.119208
0.118043
0.196339
0.193633
0.190976
0.188369
0.18581
0.183299
0.180838
0.178425
0.176062
0.173747
0.171481
0.169265
0.167097
0.164978
0.162907
0.160884
0.158909
0.15698
0.155097
0.153258
0.151463
0.149709
0.147995
0.146319
0.144679
0.143074
0.1415
0.139956
0.138439
0.136948
0.135478
0.134029
0.132599
0.131185
0.129786
0.1284
0.127026
0.125663
0.124312
0.122971
0.121642
0.120324
0.11902
0.200282
0.197575
0.194911
0.19229
0.18971
0.187173
0.184678
0.182225
0.179814
0.177445
0.175118
0.172833
0.170589
0.168387
0.166226
0.164106
0.162026
0.159985
0.157984
0.15602
0.154094
0.152204
0.150349
0.148527
0.146738
0.144979
0.143249
0.141546
0.13987
0.138217
0.136587
0.134978
0.133388
0.131816
0.130261
0.128723
0.127199
0.12569
0.124196
0.122717
0.121253
0.119805
0.118375
0.203213
0.200507
0.197838
0.195205
0.192608
0.190047
0.187521
0.185031
0.182576
0.180157
0.177772
0.175423
0.173108
0.170828
0.168582
0.16637
0.164192
0.162047
0.159935
0.157855
0.155807
0.153789
0.151802
0.149844
0.147914
0.146012
0.144136
0.142285
0.140459
0.138656
0.136875
0.135115
0.133376
0.131657
0.129956
0.128274
0.12661
0.124964
0.123336
0.121727
0.120137
0.118567
0.117018
0.204679
0.20196
0.199274
0.196618
0.193993
0.191399
0.188835
0.186302
0.183798
0.181325
0.17888
0.176466
0.17408
0.171724
0.169397
0.167098
0.164828
0.162586
0.160372
0.158185
0.156026
0.153893
0.151787
0.149707
0.147652
0.145622
0.143617
0.141635
0.139677
0.137742
0.135829
0.133937
0.132068
0.130219
0.128391
0.126584
0.124797
0.123032
0.121288
0.119566
0.117867
0.116191
0.114541
0.203941
0.20117
0.198429
0.195716
0.193032
0.190376
0.187748
0.185148
0.182576
0.180031
0.177513
0.175023
0.172559
0.170122
0.167712
0.165328
0.16297
0.160638
0.158332
0.156052
0.153797
0.151567
0.149362
0.147182
0.145026
0.142895
0.140787
0.138704
0.136643
0.134606
0.132593
0.130602
0.128634
0.126689
0.124767
0.122869
0.120993
0.119141
0.117314
0.115512
0.113736
0.111987
0.110266
0.200121
0.197248
0.194407
0.191598
0.18882
0.186074
0.183358
0.180673
0.178019
0.175395
0.1728
0.170235
0.167699
0.165193
0.162714
0.160265
0.157843
0.155449
0.153083
0.150744
0.148432
0.146147
0.143888
0.141655
0.139449
0.137268
0.135113
0.132983
0.130878
0.128799
0.126744
0.124714
0.122709
0.120729
0.118774
0.116845
0.11494
0.113063
0.111211
0.109387
0.107592
0.105826
0.104091
0.194551
0.191586
0.188658
0.185768
0.182915
0.180098
0.177318
0.174573
0.171864
0.169189
0.166548
0.163942
0.161369
0.158828
0.15632
0.153844
0.1514
0.148986
0.146603
0.14425
0.141927
0.139633
0.137368
0.135131
0.132923
0.130742
0.128589
0.126463
0.124363
0.122291
0.120245
0.118226
0.116233
0.114266
0.112326
0.110413
0.108527
0.106668
0.104837
0.103036
0.101263
0.0995221
0.0978129
0.186964
0.183934
0.180949
0.178009
0.175113
0.17226
0.16945
0.166682
0.163955
0.161268
0.15862
0.156012
0.153442
0.150908
0.148412
0.145951
0.143525
0.141134
0.138776
0.136452
0.134159
0.131899
0.129669
0.127471
0.125302
0.123163
0.121053
0.118972
0.116919
0.114894
0.112897
0.110927
0.108985
0.10707
0.105182
0.103322
0.10149
0.0996855
0.0979098
0.0961634
0.0944472
0.0927622
0.0911097
0.177473
0.174426
0.171432
0.16849
0.1656
0.16276
0.159969
0.157226
0.154529
0.151878
0.149272
0.146709
0.144187
0.141707
0.139268
0.136867
0.134504
0.132178
0.129888
0.127634
0.125414
0.123227
0.121073
0.118951
0.11686
0.1148
0.11277
0.11077
0.108798
0.106855
0.10494
0.103052
0.101193
0.0993605
0.0975557
0.0957783
0.0940285
0.0923067
0.0906133
0.0889489
0.0873143
0.0857105
0.0841388
0.166226
0.163223
0.16028
0.157397
0.154571
0.1518
0.149084
0.146421
0.143809
0.141246
0.13873
0.136262
0.133838
0.131458
0.12912
0.126823
0.124566
0.122347
0.120165
0.11802
0.115909
0.113833
0.11179
0.109779
0.1078
0.105851
0.103932
0.102042
0.100181
0.0983481
0.0965428
0.0947647
0.0930135
0.0912891
0.0895914
0.0879202
0.0862759
0.0846586
0.0830688
0.081507
0.079974
0.0784708
0.0769985
0.153363
0.150473
0.147648
0.144887
0.142188
0.139548
0.136965
0.134438
0.131963
0.12954
0.127166
0.12484
0.12256
0.120324
0.11813
0.115978
0.113865
0.111791
0.109753
0.107752
0.105785
0.103851
0.101949
0.100079
0.0982393
0.0964291
0.0946476
0.0928942
0.0911681
0.0894689
0.0877959
0.0861488
0.0845273
0.0829311
0.0813601
0.0798143
0.0782937
0.0767987
0.0753297
0.0738871
0.0724717
0.0710845
0.0697265
0.138942
0.136236
0.133599
0.131028
0.128518
0.126069
0.123676
0.121339
0.119055
0.116822
0.114636
0.112498
0.110404
0.108353
0.106344
0.104373
0.102441
0.100545
0.0986846
0.0968576
0.0950632
0.0933002
0.0915675
0.089864
0.0881889
0.0865412
0.0849203
0.0833252
0.0817554
0.0802104
0.0786896
0.0771927
0.0757192
0.074269
0.0728421
0.0714383
0.0700577
0.0687008
0.0673677
0.0660591
0.0647757
0.0635183
0.062288
0.1228
0.120356
0.117977
0.115661
0.113406
0.111207
0.109063
0.106971
0.104929
0.102934
0.100985
0.0990789
0.0972141
0.0953887
0.0936011
0.0918496
0.0901327
0.0884489
0.0867969
0.0851753
0.083583
0.082019
0.0804821
0.0789713
0.0774859
0.076025
0.0745879
0.0731739
0.0717824
0.0704129
0.0690649
0.0677382
0.0664324
0.0651474
0.0638831
0.0626395
0.0614167
0.060215
0.0590348
0.0578766
0.056741
0.055629
0.0545415
0.104224
0.102125
0.100085
0.0981016
0.0961725
0.0942947
0.0924656
0.0906827
0.0889436
0.0872459
0.0855878
0.0839671
0.0823821
0.0808311
0.0793124
0.0778247
0.0763665
0.0749365
0.0735336
0.0721566
0.0708044
0.0694762
0.0681709
0.0668879
0.0656262
0.0643854
0.0631646
0.0619634
0.0607813
0.0596179
0.0584728
0.0573457
0.0562364
0.0551449
0.054071
0.0530149
0.0519766
0.0509564
0.0499547
0.0489719
0.0480086
0.0470657
0.0461438
0.0807785
0.079159
0.077589
0.0760657
0.0745861
0.0731474
0.0717468
0.0703822
0.0690514
0.0677524
0.0664837
0.0652437
0.0640309
0.062844
0.0616819
0.0605432
0.0594271
0.0583325
0.0572584
0.0562041
0.0551687
0.0541515
0.0531519
0.0521691
0.0512026
0.0502519
0.0493166
0.0483961
0.0474901
0.0465983
0.0457205
0.0448563
0.0440056
0.0431684
0.0423445
0.0415339
0.0407368
0.0399533
0.0391837
0.0384281
0.0376871
0.036961
0.0362506
0.0444837
0.0436897
0.0429153
0.0421608
0.0414257
0.0407093
0.0400107
0.0393288
0.0386626
0.038011
0.0373731
0.0367478
0.0361343
0.0355318
0.0349397
0.0343571
0.0337836
0.0332185
0.0326613
0.0321116
0.0315689
0.0310327
0.0305028
0.0299788
0.0294604
0.0289474
0.0284395
0.0279365
0.0274383
0.0269447
0.0264557
0.0259713
0.0254913
0.025016
0.0245452
0.0240792
0.0236182
0.0231623
0.0227119
0.0222673
0.0218288
0.0213971
0.0209725
)
;

boundaryField
{
    inlet
    {
        type            fixedValue;
        value           uniform 0.375;
    }
    outlet
    {
        type            zeroGradient;
    }
    upperWall
    {
        type            kqRWallFunction;
        value           nonuniform List<scalar> 
61
(
0.259302
0.173108
0.131344
0.107398
0.0920933
0.0816699
0.074211
0.0686179
0.0642423
0.0606958
0.0577395
0.0552208
0.0530386
0.0511229
0.0494237
0.0479036
0.0465348
0.0453001
0.0444837
0.0436897
0.0429153
0.0421608
0.0414257
0.0407093
0.0400107
0.0393288
0.0386626
0.038011
0.0373731
0.0367478
0.0361343
0.0355318
0.0349397
0.0343571
0.0337836
0.0332185
0.0326613
0.0321116
0.0315689
0.0310327
0.0305028
0.0299788
0.0294604
0.0289474
0.0284395
0.0279365
0.0274383
0.0269447
0.0264557
0.0259713
0.0254913
0.025016
0.0245452
0.0240792
0.0236182
0.0231623
0.0227119
0.0222673
0.0218288
0.0213971
0.0209725
)
;
    }
    lowerWall
    {
        type            kqRWallFunction;
        value           nonuniform List<scalar> 
89
(
0.24644
0.158844
0.119025
0.0972373
0.0837789
0.0748219
0.068472
0.0637008
0.0599413
0.0568729
0.0543059
0.0521206
0.0502377
0.0486023
0.0471833
0.0459616
0.0449648
0.0443183
0.00217535
0.00638552
0.0100517
0.0126457
0.0147029
0.0163647
0.017708
0.0187796
0.0196076
0.0202078