/*--------------------------------*- C++ -*----------------------------------*\
  =========                 |
  \\      /  F ield         | OpenFOAM: The Open Source CFD Toolbox
   \\    /   O peration     | Website:  https://openfoam.org
    \\  /    A nd           | Version:  6
     \\/     M anipulation  |
\*---------------------------------------------------------------------------*/
FoamFile
{
    version     2.0;
    format      ascii;
    class       volScalarField;
    location    "0.07";
    object      nut;
}
// * * * * * * * * * * * * * * * * * * * * * * * * * * * * * * * * * * * * * //

dimensions      [0 2 -1 0 0 0 0];

internalField   nonuniform List<scalar> 
3032
(
1.77723e-05
1.42683e-05
1.23511e-05
1.11634e-05
1.03618e-05
9.79189e-06
9.36675e-06
9.034e-06
8.76276e-06
8.53483e-06
8.33917e-06
8.16869e-06
8.01866e-06
7.88576e-06
7.7677e-06
7.66414e-06
7.5774e-06
7.51774e-06
0.000144881
0.000101916
8.79037e-05
8.05517e-05
7.61076e-05
7.31422e-05
7.0858e-05
6.88741e-05
6.70645e-05
6.54027e-05
6.38822e-05
6.24963e-05
6.12387e-05
6.01005e-05
5.90725e-05
5.81472e-05
5.73641e-05
5.67971e-05
0.000323321
0.00022358
0.000189816
0.000172597
0.000162097
0.000155038
0.000149822
0.000145608
0.000141997
0.000138807
0.00013595
0.000133375
0.000131054
0.000128969
0.00012711
0.000125459
0.000124073
0.000123111
0.000493967
0.00035525
0.000299468
0.000269697
0.0002512
0.000238651
0.000229498
0.00022237
0.000216525
0.000211561
0.000207248
0.00020345
0.000200083
0.000197099
0.000194463
0.000192147
0.000190197
0.000188757
0.000624473
0.000478701
0.000407409
0.000366297
0.000339771
0.000321374
0.00030786
0.000297419
0.000289011
0.000282021
0.000276071
0.000270926
0.000266432
0.0002625
0.000259046
0.000256031
0.000253477
0.000251493
0.000713116
0.000583388
0.000506589
0.000458027
0.000425073
0.000401488
0.000383843
0.000370119
0.000359087
0.000349979
0.0003423
0.000335724
0.000330035
0.000325094
0.000320771
0.000317008
0.000313802
0.000311226
0.000769328
0.000665619
0.000592384
0.000541293
0.00050453
0.00047719
0.000456214
0.000439649
0.00042623
0.000415125
0.000405772
0.000397786
0.000390902
0.000384935
0.000379724
0.000375189
0.000371302
0.000368108
0.000803476
0.000726346
0.000662631
0.000613567
0.000575946
0.000546727
0.00052362
0.000504988
0.000489688
0.000476916
0.000466106
0.000456854
0.000448874
0.000441934
0.00043587
0.000430583
0.000426026
0.000422218
0.000823643
0.000768966
0.000717308
0.000673574
0.000637764
0.00060862
0.000584773
0.000565062
0.00054858
0.000534644
0.000522739
0.000512484
0.000503593
0.000495821
0.000489007
0.000483044
0.000477872
0.000473491
0.000835331
0.00079763
0.000757923
0.000721257
0.000689223
0.000661857
0.00063863
0.000618889
0.000602029
0.000587541
0.000575011
0.000564116
0.000554578
0.000546189
0.000538794
0.000532286
0.000526604
0.000521731
0.000842022
0.000816228
0.000786821
0.000757553
0.000730375
0.00070601
0.000684533
0.000665729
0.000649288
0.000634894
0.000622261
0.000611132
0.000601286
0.000592551
0.000584796
0.000577923
0.000571878
0.000566633
0.000845512
0.000826965
0.000804929
0.000781816
0.000759295
0.000738265
0.000719094
0.000701842
0.000686415
0.000672659
0.000660398
0.000649448
0.000639656
0.00063089
0.000623044
0.00061604
0.000609833
0.000604401
0.000847623
0.000833966
0.00081754
0.000799662
0.000781523
0.00076394
0.000747382
0.000732065
0.000718048
0.000705304
0.000693745
0.000683276
0.0006738
0.000665228
0.000657484
0.000650512
0.000644282
0.000638774
0.000848985
0.000838795
0.000826819
0.000813569
0.000799703
0.000785799
0.000772273
0.000759392
0.000747295
0.000736037
0.000725622
0.000716025
0.000707207
0.000699123
0.000691733
0.000685007
0.00067893
0.000673481
0.000849786
0.000841805
0.000832968
0.000823334
0.000813143
0.000802693
0.000792252
0.00078203
0.000772174
0.000762777
0.000753891
0.000745539
0.000737725
0.000730445
0.000723691
0.000717459
0.000711749
0.00070654
0.000850211
0.000843479
0.000836578
0.000829393
0.000821927
0.00081426
0.000806499
0.000798757
0.000791129
0.000783694
0.000776508
0.000769612
0.000763032
0.000756787
0.000750893
0.000745365
0.000740214
0.000735417
0.000850411
0.000844288
0.000838403
0.00083261
0.000826821
0.000821
0.000815149
0.000809289
0.000803455
0.000797681
0.000792004
0.000786454
0.000781059
0.000775844
0.000770834
0.000766052
0.000761514
0.000757192
0.000850482
0.000844585
0.000839095
0.000833874
0.000828818
0.000823855
0.000818938
0.000814046
0.000809173
0.000804326
0.000799517
0.000794763
0.000790083
0.0007855
0.000781038
0.000776719
0.00077256
0.000768526
0.000850461
0.000844496
0.000838889
0.000833499
0.000828226
0.000823007
0.000817808
0.000812617
0.000807437
0.000802281
0.000797165
0.000792109
0.000787134
0.000782262
0.000777515
0.000772918
0.000768485
0.000764185
0.000850263
0.00084369
0.00083706
0.000830245
0.000823221
0.000816023
0.000808723
0.000801399
0.000794126
0.000786966
0.000779968
0.000773167
0.00076659
0.000760259
0.00075419
0.0007484
0.000742899
0.000737653
0.000849706
0.000841524
0.000832423
0.000822498
0.000812009
0.000801251
0.000790485
0.000779912
0.000769673
0.000759854
0.000750502
0.000741637
0.00073326
0.000725363
0.000717938
0.000710975
0.000704464
0.000698365
0.000848161
0.000835933
0.000821376
0.000805437
0.000789039
0.000772871
0.00075737
0.00074277
0.000729166
0.000716569
0.000704941
0.00069422
0.000684332
0.000675209
0.000666786
0.000659015
0.000651857
0.000645255
0.000844083
0.000822724
0.000797875
0.00077238
0.000747961
0.000725435
0.000705064
0.000686815
0.000670519
0.00065596
0.000642922
0.000631203
0.000620625
0.00061104
0.000602324
0.000594384
0.000587153
0.000580562
0.000833784
0.000794215
0.000753288
0.000715871
0.000683316
0.000655519
0.00063189
0.000611743
0.000594449
0.000579481
0.000566412
0.000554902
0.00054468
0.000535535
0.000527303
0.000519864
0.000513135
0.00050705
0.000809067
0.000738646
0.000678422
0.000630706
0.000593266
0.000563643
0.000539863
0.000520444
0.000504308
0.000490678
0.000478989
0.000468827
0.000459884
0.000451932
0.000444802
0.000438372
0.000432564
0.000427329
0.000753674
0.000642632
0.000568122
0.000517407
0.000481294
0.000454573
0.000434123
0.000417972
0.000404848
0.000393915
0.00038461
0.000376544
0.000369445
0.000363117
0.000357421
0.000352261
0.000347579
0.000343352
0.000641456
0.000499096
0.000426684
0.00038381
0.000355596
0.000335794
0.000321166
0.000309842
0.000300704
0.000293075
0.000286528
0.000280789
0.000275673
0.000271055
0.000266848
0.000262992
0.000259458
0.000256249
0.000448546
0.00032015
0.000270213
0.000243352
0.000226545
0.000215196
0.000206988
0.000200614
0.000195358
0.000190833
0.000186822
0.000183199
0.000179887
0.000176835
0.000174006
0.000171377
0.000168938
0.000166704
0.000203094
0.000143536
0.000122941
0.000111652
0.000104728
0.000100251
9.703e-05
9.44039e-05
9.20773e-05
8.99413e-05
8.7957e-05
8.61073e-05
8.4382e-05
8.27728e-05
8.12719e-05
7.98716e-05
7.8566e-05
7.73571e-05
2.40294e-05
1.96336e-05
1.71021e-05
1.5465e-05
1.43209e-05
1.34865e-05
1.28563e-05
1.23628e-05
1.19626e-05
1.16283e-05
1.13422e-05
1.10927e-05
1.08721e-05
1.06747e-05
1.04966e-05
1.03348e-05
1.0187e-05
1.00518e-05
2.7401e-06
8.21485e-06
9.85494e-06
1.11845e-05
1.21153e-05
1.28771e-05
1.35381e-05
1.41297e-05
1.46712e-05
1.51758e-05
1.56526e-05
1.61076e-05
1.65449e-05
1.6967e-05
1.73755e-05
1.77711e-05
1.81544e-05
1.85254e-05
1.88844e-05
1.92313e-05
1.95662e-05
1.98892e-05
2.02005e-05
2.05005e-05
2.07897e-05
2.10691e-05
2.13395e-05
2.16007e-05
2.18917e-05
2.21656e-05
2.24221e-05
2.26623e-05
2.28863e-05
2.3094e-05
2.3285e-05
2.34589e-05
2.3615e-05
2.37528e-05
2.3872e-05
2.39719e-05
2.40522e-05
2.41125e-05
2.41528e-05
2.41727e-05
4.61475e-06
3.48991e-05
5.41353e-05
6.49087e-05
7.20037e-05
7.74676e-05
8.21373e-05
8.63837e-05
9.03973e-05
9.42948e-05
9.8157e-05
0.000102043
0.000105995
0.000110042
0.000114204
0.000118488
0.000122897
0.000127424
0.000132058
0.000136782
0.000141575
0.000146407
0.000151245
0.000156048
0.000160765
0.000165336
0.00016969
0.000173754
0.000177381
0.000180863
0.000184265
0.000187595
0.000190846
0.000194006
0.00019706
0.000199994
0.000202792
0.00020544
0.000207922
0.000210225
0.000212336
0.000214243
0.000215936
0.000217405
5.82587e-06
4.90224e-05
8.47803e-05
0.000108183
0.000124392
0.00013674
0.000147055
0.000156301
0.00016499
0.000173401
0.000181694
0.000189962
0.000198258
0.00020661
0.000215028
0.000223507
0.000232036
0.000240595
0.000249159
0.0002577
0.000266189
0.000274589
0.000282867
0.000290983
0.000298897
0.000306569
0.000313957
0.000321027
0.000327767
0.000334307
0.000340695
0.000346937
0.000353022
0.000358932
0.000364642
0.000370125
0.000375354
0.000380303
0.000384942
0.000389247
0.000393194
0.00039676
0.000399925
0.000402672
6.53184e-06
5.82836e-05
0.000106557
0.000141091
0.000166305
0.000185823
0.000201968
0.000216144
0.000229178
0.000241544
0.000253517
0.000265249
0.000276824
0.000288281
0.000299636
0.000310886
0.000322023
0.000333029
0.000343887
0.000354578
0.000365082
0.000375382
0.00038546
0.000395298
0.00040488
0.000414191
0.000423215
0.000431941
0.000440379
0.000448605
0.00045665
0.000464518
0.0004722
0.000479675
0.000486915
0.000493891
0.000500568
0.000506914
0.000512894
0.000518474
0.000523623
0.000528312
0.000532515
0.000536208
7.03436e-06
6.45287e-05
0.000122314
0.000166103
0.000199337
0.000225526
0.000247157
0.000265875
0.000282732
0.000298381
0.000313222
0.000327493
0.00034133
0.000354809
0.000367971
0.000380833
0.0003934
0.000405674
0.000417652
0.000429333
0.000440716
0.000451804
0.000462597
0.000473101
0.000483319
0.000493253
0.000502905
0.000512274
0.000521383
0.000530294
0.000539037
0.000547621
0.000556037
0.000564268
0.000572289
0.000580069
0.000587571
0.00059476
0.000601595
0.000608037
0.000614048
0.000619593
0.000624637
0.000629153
7.40856e-06
6.87839e-05
0.00013369
0.000184907
0.000224902
0.000256907
0.000283398
0.000306117
0.000326252
0.00034459
0.000361643
0.000377736
0.000393074
0.000407782
0.000421937
0.000435587
0.000448764
0.000461489
0.000473783
0.000485664
0.000497152
0.000508269
0.000519035
0.000529475
0.000539608
0.000549454
0.000559029
0.000568342
0.000577433
0.000586367
0.00059518
0.000603887
0.000612489
0.000620973
0.000629318
0.000637492
0.000645462
0.000653185
0.000660618
0.000667716
0.000674434
0.000680727
0.000686554
0.000691878
7.69112e-06
7.16313e-05
0.000141726
0.000198717
0.000244189
0.000281039
0.000311639
0.000337747
0.000360616
0.00038112
0.000399859
0.000417235
0.000433518
0.000448888
0.000463463
0.000477327
0.000490541
0.000503153
0.000515205
0.000526738
0.000537792
0.000548406
0.000558622
0.00056848
0.000578019
0.000587274
0.000596275
0.000605048
0.000613652
0.000622162
0.000630626
0.00063907
0.000647504
0.000655924
0.000664312
0.000672641
0.000680874
0.000688969
0.000696875
0.000704541
0.000711911
0.000718934
0.000725556
0.000731732
7.90295e-06
7.34226e-05
0.000147128
0.000208431
0.00025817
0.000298898
0.000332839
0.000361712
0.000386788
0.000408992
0.000428981
0.000447222
0.000464039
0.000479661
0.00049425
0.000507924
0.000520775
0.000532878
0.000544296
0.000555093
0.000565327
0.000575058
0.000584344
0.000593245
0.000601817
0.000610113
0.00061818
0.000626061
0.000633844
0.000641615
0.000649438
0.000657354
0.000665385
0.000673536
0.000681796
0.00069014
0.000698531
0.000706923
0.000715258
0.000723476
0.000731511
0.000739297
0.000746771
0.000753873
8.05658e-06
7.43803e-05
0.000150382
0.00021472
0.000267628
0.000311325
0.000347872
0.000378911
0.000405703
0.000429188
0.000450063
0.000468834
0.000485873
0.000501449
0.000515762
0.000528962
0.000541168
0.00055248
0.000562986
0.000572767
0.000581901
0.000590467
0.000598541
0.0006062
0.000613521
0.000620574
0.00062743
0.00063415
0.000640855
0.000647651
0.00065462
0.00066182
0.000669288
0.000677039
0.00068507
0.000693359
0.000701867
0.000710541
0.000719318
0.000728122
0.000736877
0.0007455
0.000753912
0.000762037
8.15969e-06
7.46516e-05
0.000151837
0.000218092
0.000273182
0.000319022
0.000357494
0.000390149
0.000418209
0.000442609
0.00046406
0.000483097
0.00050012
0.000515432
0.000529261
0.000541786
0.000553151
0.000563477
0.000572871
0.000581434
0.00058926
0.000596447
0.000603089
0.000609283
0.000615123
0.000620704
0.000626117
0.000631459
0.000636883
0.00064252
0.000648472
0.000654818
0.000661613
0.000668886
0.00067664
0.000684854
0.000693488
0.00070248
0.000711752
0.000721218
0.000730781
0.000740336
0.000749798
0.000759057
8.21689e-06
7.4338e-05
0.000151749
0.000218939
0.000275332
0.000322569
0.000362353
0.000396128
0.000425058
0.000450054
0.000471826
0.000490918
0.000507748
0.00052264
0.000535844
0.000547561
0.000557953
0.000567159
0.000575304
0.000582503
0.00058887
0.000594515
0.000599552
0.000604098
0.000608268
0.000612181
0.000615952
0.000619734
0.000623711
0.000628039
0.00063285
0.000638247
0.000644305
0.000651065
0.000658538
0.000666705
0.000675517
0.000684898
0.000694753
0.000704982
0.000715478
0.00072606
0.000736628
0.000747073
8.23079e-06
7.35132e-05
0.000150313
0.000217568
0.000274479
0.000322446
0.000362994
0.000397449
0.000426901
0.000452224
0.000474106
0.00049309
0.0005096
0.000523968
0.00053646
0.000547287
0.000556629
0.000564636
0.000571446
0.000577188
0.000581988
0.000585973
0.000589274
0.000592026
0.00059437
0.000596451
0.000598412
0.000600482
0.000602876
0.000605784
0.000609371
0.000613767
0.000619068
0.000625329
0.000632563
0.000640748
0.000649836
0.000659719
0.000670255
0.00068132
0.000692775
0.000704472
0.000716271
0.000728041
8.20229e-06
7.22334e-05
0.00014768
0.000214226
0.000270953
0.00031905
0.000359869
0.000394611
0.000424282
0.0004497
0.000471523
0.000490275
0.000506376
0.000520158
0.000531892
0.000541796
0.000550056
0.000556832
0.000562271
0.000566509
0.000569685
0.000571938
0.000573413
0.000574267
0.000574666
0.000574786
0.000574812
0.000575062
0.000575788
0.00057722
0.000579556
0.000582959
0.000587549
0.000593384
0.000600468
0.000608761
0.000618184
0.000628619
0.000639921
0.000651934
0.000664491
0.000677425
0.000690572
0.000703778
8.13036e-06
7.05376e-05
0.000143963
0.0002091
0.000265004
0.000312684
0.000353323
0.000387993
0.000417604
0.00044291
0.000464524
0.000482944
0.000498572
0.000511733
0.000522694
0.000531674
0.00053886
0.000544416
0.000548492
0.000551232
0.000552778
0.000553282
0.000552901
0.000551808
0.0005502
0.000548289
0.00054633
0.000544738
0.000543804
0.000543797
0.000544949
0.000547444
0.000551408
0.000556902
0.000563928
0.000572434
0.000582317
0.00059344
0.000605635
0.000618716
0.000632491
0.000646765
0.000661348
0.000676063
8.02011e-06
6.83341e-05
0.000139151
0.000202263
0.000256764
0.000303514
0.00034354
0.000377784
0.000407057
0.000432037
0.000453286
0.000471267
0.000486356
0.000498864
0.000509047
0.000517119
0.000523263
0.000527642
0.000530407
0.000531702
0.000531677
0.00053049
0.000528311
0.000525333
0.000521769
0.000517843
0.000514037
0.000510731
0.000508273
0.000506976
0.000507102
0.000508854
0.000512364
0.000517695
0.000524837
0.000533721
0.000544224
0.000556181
0.000569394
0.000583652
0.00059873
0.000614407
0.000630468
0.000646712
7.87372e-06
6.495e-05
0.000132453
0.000192985
0.000245566
0.000290914
0.000329913
0.000363378
0.000392019
0.000416438
0.000437139
0.000454542
0.000468995
0.00048079
0.000490168
0.000497334
0.000502464
0.000505717
0.00050724
0.000507179
0.000505684
0.000502917
0.000499063
0.00049433
0.000488962
0.000483257
0.000477858
0.000473159
0.000469535
0.000467321
0.000466794
0.000468164
0.000471561
0.00047704
0.000484578
0.000494085
0.000505416
0.000518377
0.000532744
0.000548274
0.000564716
0.000581822
0.000599354
0.000617091
7.69672e-06
6.1097e-05
0.000124724
0.000182192
0.000232371
0.00027583
0.000313323
0.000345558
0.000373155
0.000396647
0.00041649
0.000433064
0.000446693
0.000457645
0.000466149
0.000472397
0.000476558
0.000478781
0.000479207
0.000477977
0.000475237
0.000471149
0.0004659
0.000459708
0.000452821
0.000445916
0.000439504
0.000434007
0.000429815
0.000427265
0.000426635
0.000428127
0.000431864
0.000437888
0.000446161
0.000456575
0.000468958
0.00048309
0.000498717
0.000515567
0.000533364
0.000551837
0.000570733
0.000589815
7.49177e-06
5.71969e-05
0.000116629
0.000170682
0.000218074
0.000259221
0.000294757
0.000325299
0.000351403
0.000373558
0.000392182
0.000407636
0.000420224
0.000430202
0.000437787
0.00044316
0.000446481
0.000447889
0.000447518
0.000445498
0.000441969
0.000437087
0.000431037
0.000424038
0.000416552
0.00040935
0.000402858
0.000397484
0.000393598
0.000391521
0.000391509
0.000393751
0.000398355
0.000405351
0.000414687
0.000426233
0.000439795
0.000455127
0.000471952
0.000489977
0.000508911
0.000528472
0.0005484
0.000568459
7.26506e-06
5.34783e-05
0.000108538
0.000158841
0.000203007
0.000241316
0.000274311
0.00030256
0.000326593
0.000346882
0.000363843
0.000377827
0.000389131
0.000398002
0.000404645
0.000409229
0.000411899
0.000412779
0.000411986
0.000409637
0.000405857
0.00040079
0.000394617
0.00038759
0.000380648
0.000374203
0.000368652
0.000364364
0.000361673
0.000360866
0.000362177
0.000365775
0.000371756
0.000380133
0.000390832
0.000403701
0.000418522
0.000435028
0.000452927
0.000471916
0.000491704
0.000512012
0.000532592
0.000553218
7.02529e-06
5.01449e-05
0.000100787
0.000146966
0.000187318
0.000222063
0.000251738
0.000276934
0.000298213
0.000316074
0.000330945
0.00034318
0.000353067
0.000360834
0.000366663
0.000370698
0.000373055
0.000373832
0.00037312
0.000371007
0.000367596
0.000363002
0.000357386
0.000351688
0.000346303
0.000341586
0.000337876
0.000335493
0.000334731
0.00033585
0.000339062
0.000344518
0.000352291
0.000362365
0.000374638
0.000388929
0.000404997
0.000422563
0.000441333
0.000461012
0.000481322
0.000502008
0.000522845
0.000543633
6.7844e-06
4.7386e-05
9.36249e-05
0.00013511
0.000170747
0.000200913
0.000226303
0.000247636
0.000265556
0.000280603
0.000293206
0.000303698
0.000312329
0.000319282
0.00032469
0.000328647
0.000331224
0.000332475
0.000332448
0.000331198
0.000328799
0.00032533
0.000321675
0.000318194
0.000315171
0.000312896
0.000311658
0.000311741
0.000313413
0.000316912
0.000322428
0.000330078
0.000339897
0.000351827
0.000365728
0.000381393
0.000398567
0.000416973
0.000436331
0.000456372
0.000476852
0.000497549
0.000518272
0.000538854
6.55882e-06
4.5336e-05
8.69477e-05
0.00012266
0.000152245
0.000176645
0.000196895
0.000213886
0.000228308
0.000240674
0.000251346
0.000260574
0.000268519
0.000275279
0.000280908
0.000285434
0.000288864
0.000291202
0.000292442
0.000292603
0.000291797
0.000290799
0.000289836
0.000289133
0.000288927
0.000289474
0.00029104
0.00029389
0.000298272
0.000304396
0.000312408
0.000322376
0.000334277
0.000348009
0.000363397
0.000380218
0.000398223
0.000417154
0.000436764
0.000456824
0.000477132
0.000497509
0.000517802
0.00053788
6.36985e-06
4.39017e-05
7.96922e-05
0.000107826
0.000129988
0.000147972
0.000163078
0.000176176
0.000187824
0.00019837
0.000208013
0.000216857
0.000224941
0.00023226
0.000238781
0.000244466
0.000249262
0.000253139
0.00025601
0.000258179
0.000260137
0.000262009
0.000263959
0.000266184
0.000268907
0.000272373
0.000276836
0.000282538
0.000289693
0.000298457
0.000308914
0.00032107
0.000334847
0.000350105
0.000366654
0.000384275
0.000402743
0.000421838
0.000441355
0.000461114
0.000480956
0.000500746
0.000520367
0.000539721
6.23937e-06
4.20695e-05
6.92496e-05
8.83788e-05
0.000103262
0.000115911
0.000127343
0.000138076
0.000148363
0.00015831
0.000167938
0.000177217
0.000186084
0.000194455
0.000202231
0.000209346
0.000215684
0.000221267
0.000226435
0.000231327
0.00023603
0.000240669
0.000245408
0.000250441
0.000255987
0.000262278
0.00026954
0.000277972
0.000287727
0.000298892
0.000311486
0.000325457
0.000340692
0.000357034
0.000374301
0.0003923
0.000410843
0.000429753
0.000448875
0.00046807
0.000487222
0.000506234
0.000525021
0.00054351
6.18513e-06
3.69521e-05
5.39188e-05
6.60225e-05
7.64629e-05
8.63739e-05
9.61963e-05
0.000106093
0.000116095
0.000126169
0.00013624
0.000146213
0.000155982
0.000165429
0.000174384
0.000182861
0.000190956
0.00019874
0.000206219
0.000213456
0.00022055
0.000227634
0.000234871
0.000242449
0.000250566
0.000259419
0.000269181
0.000279989
0.000291927
0.000305017
0.000319228
0.000334473
0.00035063
0.000367549
0.000385074
0.000403046
0.000421319
0.00043976
0.000458252
0.000476697
0.000495013
0.000513131
0.000530991
0.000548541
6.45489e-06
2.8567e-05
3.95233e-05
4.88369e-05
5.75212e-05
6.62834e-05
7.54216e-05
8.5006e-05
9.49941e-05
0.000105291
0.00011578
0.000126336
0.000136846
0.000147215
0.000157433
0.000167418
0.000177135
0.000186598
0.000195843
0.00020494
0.000213987
0.000223111
0.000232459
0.00024219
0.000252462
0.000263416
0.000275166
0.000287785
0.000301302
0.000315696
0.000330907
0.000346843
0.000363387
0.000380415
0.000397799
0.000415416
0.000433157
0.000450924
0.000468634
0.000486218
0.000503619
0.000520789
0.000537689
0.00055428
8.42219e-06
2.07541e-05
2.94491e-05
3.7676e-05
4.62167e-05
5.53235e-05
6.50375e-05
7.52826e-05
8.59366e-05
9.68752e-05
0.000107986
0.000119172
0.000130349
0.000141451
0.000152442
0.000163293
0.000173995
0.000184564
0.000195038
0.000205484
0.000215987
0.000226653
0.000237596
0.000248934
0.000260774
0.000273206
0.00028629
0.000300053
0.000314489
0.000329556
0.000345188
0.000361297
0.000377787
0.000394555
0.000411502
0.000428535
0.000445573
0.000462545
0.000479392
0.000496066
0.000512528
0.000528745
0.000544691
0.000560339
1.12353e-05
1.73717e-05
2.59516e-05
3.6297e-05
4.74791e-05
5.88316e-05
7.0071e-05
8.11636e-05
9.21703e-05
0.000103158
0.000114168
0.000125214
0.00013629
0.00014738
0.000158471
0.000169555
0.000180634
0.000191726
0.000202862
0.000214094
0.000225484
0.000237107
0.00024904
0.000261358
0.000274124
0.000287384
0.000301161
0.000315454
0.000330236
0.00034546
0.000361061
0.000376963
0.000393084
0.000409343
0.000425663
0.000441974
0.000458213
0.00047433
0.00049028
0.000506032
0.000521557
0.000536835
0.000551848
0.000566575
5.95297e-05
6.37226e-05
6.88984e-05
7.49907e-05
8.1953e-05
8.96368e-05
9.78663e-05
0.00010651
0.00011549
0.000124769
0.000134325
0.000144139
0.000154194
0.000164467
0.000174941
0.000185602
0.000196442
0.000207466
0.000218688
0.000230133
0.000241835
0.000253835
0.000266171
0.000278881
0.000291991
0.000305514
0.000319446
0.000333768
0.000348444
0.000363422
0.000378644
0.000394044
0.000409554
0.000425108
0.000440645
0.000456111
0.000471458
0.000486648
0.000501651
0.000516441
0.000531002
0.000545319
0.000559381
0.000573175
0.000124212
0.000126226
0.000128813
0.000131901
0.000135518
0.000139703
0.000144484
0.000149875
0.00015587
0.000162451
0.000169593
0.000177268
0.000185446
0.000194094
0.000203181
0.000212681
0.000222569
0.00023283
0.000243455
0.00025444
0.000265789
0.000277508
0.000289603
0.000302077
0.000314926
0.000328138
0.00034169
0.000355549
0.000369673
0.000384011
0.000398507
0.000413106
0.000427747
0.000442378
0.000456949
0.000471415
0.000485741
0.000499895
0.000513856
0.000527606
0.000541133
0.000554429
0.000567487
0.000580297
0.000189043
0.000189978
0.000191261
0.000192852
0.000194758
0.000197016
0.000199683
0.000202824
0.000206499
0.000210754
0.000215619
0.000221107
0.000227218
0.000233943
0.000241262
0.000249154
0.000257593
0.000266556
0.000276019
0.000285962
0.000296365
0.000307211
0.00031848
0.000330151
0.000342199
0.000354593
0.000367297
0.000380269
0.000393461
0.000406824
0.000420304
0.000433849
0.000447408
0.000460933
0.000474382
0.000487719
0.000500912
0.000513938
0.000526778
0.000539419
0.000551854
0.000564076
0.000576082
0.000587865
0.000251209
0.000251519
0.000252055
0.000252805
0.000253778
0.000255
0.000256512
0.000258369
0.000260631
0.000263358
0.000266604
0.000270414
0.000274818
0.000279836
0.000285474
0.000291731
0.000298596
0.000306053
0.00031408
0.000322655
0.000331749
0.000341336
0.000351383
0.000361857
0.000372721
0.000383933
0.000395451
0.000407226
0.000419209
0.000431349
0.000443596
0.0004559
0.000468214
0.000480495
0.000492705
0.000504812
0.000516788
0.000528612
0.000540269
0.000551747
0.000563042
0.000574148
0.000585063
0.000595784
0.000310417
0.000310254
0.000310258
0.00031043
0.000310784
0.000311341
0.000312132
0.000313196
0.000314579
0.000316333
0.000318507
0.000321149
0.000324301
0.000327994
0.000332254
0.000337094
0.00034252
0.000348528
0.000355109
0.000362245
0.000369912
0.000378084
0.000386728
0.000395808
0.000405284
0.000415113
0.00042525
0.000435645
0.000446251
0.000457017
0.000467895
0.000478839
0.000489804
0.000500751
0.000511644
0.000522453
0.000533153
0.000543725
0.000554155
0.000564433
0.000574552
0.000584511
0.000594308
0.000603939
0.000366773
0.000366176
0.000365724
0.000365422
0.000365282
0.000365323
0.00036557
0.000366053
0.000366806
0.000367868
0.000369277
0.000371076
0.0003733
0.000375983
0.000379155
0.000382835
0.000387038
0.00039177
0.000397031
0.00040281
0.000409094
0.00041586
0.000423083
0.000430728
0.000438761
0.000447141
0.000455826
0.00046477
0.000473928
0.000483254
0.000492701
0.000502229
0.000511794
0.000521361
0.000530897
0.000540373
0.000549767
0.00055906
0.000568237
0.000577292
0.000586216
0.000595009
0.000603668
0.000612192
0.000420353
0.000419331
0.000418448
0.00041771
0.000417128
0.000416716
0.000416494
0.000416486
0.000416716
0.000417215
0.000418012
0.000419139
0.000420625
0.000422499
0.000424787
0.00042751
0.000430683
0.000434317
0.000438415
0.000442976
0.000447991
0.000453445
0.000459317
0.000465582
0.000472211
0.000479168
0.000486417
0.000493918
0.000501631
0.000509515
0.00051753
0.000525635
0.000533796
0.000541977
0.000550149
0.000558286
0.000566367
0.000574373
0.000582293
0.000590117
0.000597841
0.00060546
0.000612975
0.000620382
0.000471115
0.000469676
0.000468378
0.000467226
0.000466228
0.000465394
0.00046474
0.000464284
0.000464043
0.000464042
0.000464302
0.000464847
0.0004657
0.000466883
0.000468417
0.00047032
0.000472606
0.000475286
0.000478364
0.000481842
0.000485716
0.000489975
0.000494605
0.000499587
0.000504896
0.000510506
0.000516386
0.000522502
0.000528821
0.000535307
0.000541926
0.000548643
0.000555426
0.000562246
0.000569075
0.000575891
0.000582673
0.000589406
0.000596078
0.00060268
0.000609209
0.000615659
0.000622032
0.000628326
0.000518883
0.000517052
0.000515366
0.000513826
0.000512438
0.000511209
0.000510151
0.000509276
0.000508599
0.000508136
0.000507904
0.00050792
0.000508203
0.000508768
0.000509632
0.000510808
0.000512309
0.000514142
0.000516314
0.000518825
0.000521673
0.000524853
0.000528353
0.000532158
0.000536251
0.00054061
0.00054521
0.000550024
0.000555025
0.000560183
0.00056547
0.000570856
0.000576313
0.000581818
0.000587345
0.000592875
0.000598391
0.000603878
0.000609326
0.000614728
0.000620079
0.000625377
0.000630621
0.000635811
0.000563374
0.000561198
0.000559167
0.00055728
0.00055554
0.000553952
0.000552523
0.000551261
0.000550179
0.000549288
0.000548601
0.00054813
0.000547888
0.000547889
0.000548143
0.000548661
0.000549452
0.000550523
0.000551877
0.000553516
0.000555439
0.000557641
0.000560114
0.000562847
0.000565825
0.000569032
0.000572449
0.000576054
0.000579824
0.000583737
0.000587768
0.000591894
0.000596092
0.000600341
0.000604621
0.000608915
0.000613209
0.00061749
0.000621751
0.000625984
0.000630186
0.000634356
0.000638493
0.000642597
0.000600936
0.000598548
0.000596287
0.000594157
0.000592161
0.000590304
0.000588593
0.000587034
0.000585636
0.000584408
0.000583359
0.000582499
0.000581838
0.000581385
0.000581148
0.000581135
0.000581353
0.000581806
0.000582496
0.000583425
0.00058459
0.000585988
0.000587612
0.000589453
0.000591499
0.000593738
0.000596153
0.000598728
0.000601444
0.000604283
0.000607225
0.000610251
0.000613342
0.000616482
0.000619655
0.000622846
0.000626044
0.00062924
0.000632426
0.000635597
0.000638752
0.00064189
0.00064501
0.000648116
0.000635127
0.000632559
0.000630106
0.000627769
0.000625552
0.000623459
0.000621494
0.000619665
0.000617975
0.000616434
0.000615047
0.000613821
0.000612765
0.000611884
0.000611184
0.000610672
0.000610351
0.000610225
0.000610295
0.000610562
0.000611023
0.000611675
0.000612513
0.000613529
0.000614714
0.000616058
0.000617548
0.00061917
0.00062091
0.000622754
0.000624686
0.00062669
0.000628752
0.000630858
0.000632996
0.000635155
0.000637325
0.0006395
0.000641673
0.000643843
0.000646007
0.000648165
0.00065032
0.000652474
0.000669705
0.000666978
0.000664348
0.000661815
0.000659383
0.000657054
0.000654831
0.00065272
0.000650724
0.000648849
0.000647099
0.00064548
0.000643996
0.000642652
0.000641453
0.000640403
0.000639503
0.000638757
0.000638165
0.000637727
0.000637441
0.000637305
0.000637314
0.000637462
0.000637743
0.000638149
0.00063867
0.000639296
0.000640016
0.000640819
0.000641694
0.000642628
0.000643612
0.000644635
0.000645687
0.000646761
0.00064785
0.00064895
0.000650055
0.000651166
0.000652282
0.000653405
0.000654537
0.000655682
0.000702739
0.000699918
0.000697167
0.000694486
0.000691878
0.000689346
0.000686891
0.000684517
0.000682227
0.000680025
0.000677915
0.000675899
0.000673982
0.000672166
0.000670455
0.000668851
0.000667356
0.000665972
0.000664698
0.000663536
0.000662483
0.000661537
0.000660697
0.000659957
0.000659313
0.000658759
0.00065829
0.000657897
0.000657574
0.000657312
0.000657104
0.000656943
0.00065682
0.000656729
0.000656664
0.000656619
0.000656592
0.000656579
0.000656578
0.000656591
0.000656619
0.000656663
0.000656729
0.00073171
0.000728881
0.000726084
0.000723323
0.000720599
0.000717915
0.000715272
0.000712674
0.000710123
0.000707621
0.000705172
0.000702778
0.000700441
0.000698164
0.00069595
0.000693799
0.000691714
0.000689696
0.000687746
0.000685863
0.000684047
0.000682297
0.000680612
0.00067899
0.000677427
0.000675921
0.000674467
0.000673062
0.000671702
0.000670382
0.000669097
0.000667842
0.000666615
0.000665412
0.000664228
0.000663063
0.000661914
0.000660782
0.000659668
0.000658572
0.000657499
0.000656453
0.000655438
0.000753648
0.000750859
0.000748064
0.000745265
0.000742464
0.000739663
0.000736864
0.00073407
0.000731283
0.000728505
0.000725739
0.000722986
0.000720249
0.000717529
0.000714829
0.000712151
0.000709496
0.000706866
0.000704261
0.000701682
0.00069913
0.000696606
0.000694108
0.000691637
0.000689191
0.000686771
0.000684373
0.000681998
0.000679643
0.000677307
0.000674988
0.000672685
0.000670397
0.000668123
0.000665863