/*--------------------------------*- C++ -*----------------------------------*\
  =========                 |
  \\      /  F ield         | OpenFOAM: The Open Source CFD Toolbox
   \\    /   O peration     | Website:  https://openfoam.org
    \\  /    A nd           | Version:  6
     \\/     M anipulation  |
\*---------------------------------------------------------------------------*/
FoamFile
{
    version     2.0;
    format      ascii;
    class       volScalarField;
    location    "0.07";
    object      p;
}
// * * * * * * * * * * * * * * * * * * * * * * * * * * * * * * * * * * * * * //

dimensions      [0 2 -2 0 0 0 0];

internalField   nonuniform List<scalar> 
3032
(
0.339187
0.0867818
0.00878122
-0.00169682
-0.00619979
-0.0107985
-0.0133844
-0.0148683
-0.016291
-0.0178063
-0.0193515
-0.0209566
-0.0226894
-0.0246048
-0.0268323
-0.0295717
-0.0337627
-0.04013
-0.042659
-0.0124409
-0.0115493
-0.00507654
-0.00571655
-0.00971724
-0.0125547
-0.0143678
-0.0160046
-0.0176376
-0.0192556
-0.0209146
-0.0226926
-0.0246567
-0.0269351
-0.0296813
-0.033575
-0.0384522
-0.0796684
-0.00870836
-0.0069344
-0.00459756
-0.0054533
-0.00905467
-0.0118507
-0.0137919
-0.0155517
-0.0172773
-0.0189743
-0.0207035
-0.022542
-0.0245559
-0.026857
-0.0295325
-0.0329741
-0.0364254
-0.0342965
0.00451945
-0.00346013
-0.00474548
-0.00577873
-0.0088967
-0.0114893
-0.0134219
-0.0152158
-0.0169818
-0.0187244
-0.0204981
-0.022371
-0.0244009
-0.0266713
-0.0292106
-0.0321731
-0.0348726
-0.0138714
0.00448195
-0.00392242
-0.00545821
-0.00634718
-0.00901162
-0.011377
-0.0132512
-0.0150283
-0.0167913
-0.0185428
-0.0203277
-0.0222019
-0.0242098
-0.0264034
-0.0287714
-0.0313311
-0.0335924
-0.0114973
0.000214857
-0.00508144
-0.00615412
-0.00695038
-0.00923515
-0.0113869
-0.0131877
-0.0149238
-0.0166583
-0.0183932
-0.0201637
-0.0220128
-0.0239704
-0.0260615
-0.0282527
-0.0304962
-0.0324656
-0.0113346
-0.00266543
-0.00578365
-0.00672191
-0.00752702
-0.00950036
-0.0114567
-0.0131767
-0.014858
-0.0165479
-0.0182482
-0.0199847
-0.0217879
-0.023675
-0.0256514
-0.0276749
-0.0296762
-0.0314533
-0.0103051
-0.00423916
-0.00625522
-0.00721305
-0.00805187
-0.00977229
-0.0115532
-0.0131882
-0.0148054
-0.0164394
-0.0180907
-0.019777
-0.0215177
-0.0233201
-0.0251773
-0.0270473
-0.0288647
-0.0305151
-0.0092606
-0.00532947
-0.00669605
-0.0076453
-0.00850789
-0.010026
-0.0116511
-0.0131991
-0.0147458
-0.0163151
-0.0179058
-0.0195284
-0.0211936
-0.0229015
-0.0246392
-0.0263706
-0.0280448
-0.0296033
-0.00860989
-0.00619066
-0.00711732
-0.00801501
-0.00888694
-0.0102438
-0.0117303
-0.0131901
-0.0146614
-0.0161587
-0.0176789
-0.0192266
-0.020806
-0.0224127
-0.0240325
-0.0256372
-0.0271923
-0.0286715
-0.00827685
-0.00684902
-0.00749617
-0.00832439
-0.00918975
-0.0104157
-0.0117772
-0.0131476
-0.0145391
-0.0159579
-0.0173992
-0.0188629
-0.0203484
-0.0218493
-0.0233525
-0.0248375
-0.026284
-0.0276816
-0.00814157
-0.00729576
-0.00779641
-0.00855781
-0.00940184
-0.0105256
-0.0117813
-0.0130676
-0.0143815
-0.0157229
-0.0170851
-0.0184648
-0.0198588
-0.0212598
-0.0226566
-0.0240348
-0.0253828
-0.0266956
-0.00809958
-0.0076396
-0.00804035
-0.00873849
-0.00955338
-0.0105865
-0.011745
-0.0129485
-0.0141832
-0.0154438
-0.0167226
-0.0180139
-0.0193126
-0.0206116
-0.0219018
-0.0231736
-0.0244209
-0.0256394
-0.00811941
-0.00792562
-0.00825921
-0.00888821
-0.00965754
-0.0105966
-0.0116502
-0.0127575
-0.0138975
-0.0150606
-0.0162378
-0.0174216
-0.0186057
-0.0197834
-0.0209476
-0.0220923
-0.0232146
-0.0243091
-0.00817165
-0.00813123
-0.00842488
-0.00898145
-0.00968668
-0.0105274
-0.0114679
-0.0124641
-0.013492
-0.0145386
-0.0155935
-0.0166482
-0.0176955
-0.0187293
-0.0197441
-0.0207359
-0.0217023
-0.0226374
-0.00819978
-0.00823044
-0.00849488
-0.00897876
-0.00960463
-0.0103415
-0.0111617
-0.0120325
-0.0129306
-0.0138407
-0.0147515
-0.0156538
-0.0165401
-0.0174046
-0.0182425
-0.0190509
-0.0198262
-0.0205623
-0.00812627
-0.00817993
-0.00841324
-0.00882513
-0.00936236
-0.00999061
-0.0106846
-0.0114187
-0.0121713
-0.0129263
-0.0136719
-0.0143985
-0.0150987
-0.0157667
-0.0163983
-0.0169906
-0.0175392
-0.0180384
-0.00785899
-0.00791194
-0.00810731
-0.00844802
-0.00889479
-0.00941433
-0.00998189
-0.0105749
-0.0111731
-0.0117608
-0.0123256
-0.0128584
-0.013352
-0.0138013
-0.0142023
-0.0145526
-0.0148478
-0.0150846
-0.00729706
-0.00733493
-0.0074826
-0.00775428
-0.00811797
-0.00853839
-0.00898952
-0.00944901
-0.0098966
-0.0103163
-0.0106963
-0.0110283
-0.0113061
-0.0115256
-0.0116839
-0.0117799
-0.0118106
-0.0117753
-0.00655523
-0.00655448
-0.00664729
-0.00688012
-0.00720826
-0.00758424
-0.00798028
-0.00837024
-0.00873002
-0.00904316
-0.00929951
-0.00949228
-0.00961704
-0.00967132
-0.00965422
-0.0095662
-0.00940652
-0.00917657
-0.00592149
-0.00581797
-0.00583489
-0.00606215
-0.00639161
-0.00676261
-0.00715351
-0.00752849
-0.00785528
-0.00811793
-0.00830892
-0.00842329
-0.00845826
-0.00841321
-0.00828902
-0.00808776
-0.00781061
-0.00746019
-0.00547834
-0.00507097
-0.00496168
-0.00523487
-0.00559459
-0.00599034
-0.00642041
-0.00682341
-0.00715474
-0.00740312
-0.00756552
-0.00763878
-0.00762192
-0.00751656
-0.00732551
-0.00705245
-0.00670033
-0.00627281
-0.00545692
-0.00433261
-0.00403525
-0.00441147
-0.0048014
-0.00524959
-0.00577033
-0.00624124
-0.00660677
-0.00686953
-0.0070322
-0.00709264
-0.00705213
-0.00691506
-0.00668633
-0.00637117
-0.00597413
-0.00549946
-0.00586212
-0.00345101
-0.00308908
-0.00363291
-0.00398776
-0.00451989
-0.0051973
-0.00577378
-0.00619699
-0.00649738
-0.00668288
-0.00675125
-0.0067071
-0.00655843
-0.00631248
-0.00597593
-0.00555493
-0.00505403
-0.00604633
-0.00141689
-0.00184968
-0.00286896
-0.00311819
-0.00379339
-0.00470823
-0.00542374
-0.00592272
-0.00627895
-0.00650324
-0.00659283
-0.00655738
-0.0064096
-0.00615925
-0.00581451
-0.00538309
-0.00486978
-0.00774298
0.00304638
0.000464736
-0.00181565
-0.00210276
-0.00307763
-0.00432415
-0.00520716
-0.0057959
-0.00621953
-0.00648992
-0.00660537
-0.00658299
-0.00644118
-0.00619238
-0.00584624
-0.00541196
-0.00489491
-0.0247418
0.00509565
0.00272483
-0.000408953
-0.000916755
-0.0024462
-0.00411349
-0.005182
-0.00586687
-0.00635665
-0.00666591
-0.00679889
-0.00678307
-0.00664312
-0.00639397
-0.00604642
-0.00561087
-0.00509311
-0.0688686
-0.0081965
-0.001322
-0.000242914
-0.000113243
-0.00225182
-0.00431658
-0.00552268
-0.00626703
-0.00678816
-0.00710293
-0.00722524
-0.00719433
-0.00704054
-0.00677988
-0.00642314
-0.00598156
-0.00546186
-0.0484954
-0.0180363
-0.0112355
-0.00250546
-0.000614691
-0.00306393
-0.00525352
-0.00637796
-0.00703746
-0.0075
-0.00776385
-0.00783903
-0.00776922
-0.00758636
-0.00730462
-0.00693211
-0.00647849
-0.0059628
0.315825
0.0961386
0.0191222
0.00617523
0.00109293
-0.00373085
-0.00634128
-0.00727326
-0.007692
-0.0079902
-0.00815121
-0.00815991
-0.00804709
-0.00783741
-0.00753907
-0.0071545
-0.00668261
-0.00610995
-0.0722565
-0.0726272
-0.0731573
-0.0738419
-0.0747047
-0.0757525
-0.0769812
-0.0783796
-0.0799302
-0.0816088
-0.0833835
-0.0852145
-0.0870547
-0.0888506
-0.0905433
-0.0920701
-0.0933661
-0.0943658
-0.0950052
-0.0952228
-0.0949617
-0.0941703
-0.0928047
-0.090831
-0.0882289
-0.0849914
-0.0811038
-0.0765151
-0.071168
-0.0650655
-0.0582542
-0.0507777
-0.0426792
-0.0340057
-0.0248089
-0.0151457
-0.00507802
0.00532768
0.0160015
0.0268712
0.0378631
0.0489037
0.0599204
0.0708427
-0.0697232
-0.0707618
-0.0714821
-0.0718088
-0.0721878
-0.0728262
-0.0737536
-0.0749579
-0.0764167
-0.0780978
-0.0799595
-0.0819522
-0.0840189
-0.0860965
-0.0881175
-0.0900111
-0.0917059
-0.0931306
-0.0942163
-0.0948976
-0.095113
-0.0948065
-0.0939274
-0.0924309
-0.090276
-0.087422
-0.0838355
-0.0795243
-0.0745364
-0.0688959
-0.0625998
-0.0556599
-0.0481018
-0.0399608
-0.0312804
-0.0221109
-0.0125088
-0.00253576
0.00774261
0.0182577
0.028939
0.0397159
0.050518
0.061277
-0.0660318
-0.0681415
-0.0701489
-0.0712095
-0.0718739
-0.0726127
-0.0735804
-0.0748065
-0.0762839
-0.0779861
-0.0798725
-0.0818923
-0.0839881
-0.0860977
-0.0881561
-0.0900971
-0.0918543
-0.0933628
-0.0945598
-0.0953857
-0.0957845
-0.0957047
-0.0950995
-0.0939275
-0.0921511
-0.0897349
-0.0866495
-0.0828837
-0.0784439
-0.0733391
-0.0675766
-0.0611712
-0.0541459
-0.0465321
-0.0383684
-0.0297006
-0.0205807
-0.0110662
-0.00121893
0.00889581
0.0192106
0.0296573
0.0401679
0.0506757
-0.0637421
-0.0667449
-0.0700307
-0.0721553
-0.0735297
-0.0747247
-0.0759871
-0.0774011
-0.0789946
-0.0807651
-0.0826891
-0.084728
-0.086834
-0.0889529
-0.0910263
-0.0929937
-0.0947933
-0.0963636
-0.0976441
-0.0985763
-0.0991043
-0.0991758
-0.0987423
-0.0977604
-0.0961917
-0.0940037
-0.0911717
-0.0876818
-0.0835277
-0.0787085
-0.0732289
-0.067101
-0.060345
-0.0529892
-0.04507
-0.036631
-0.0277227
-0.0184011
-0.0087274
0.00123386
0.0114156
0.0217497
0.0321683
0.0426048
-0.0641044
-0.0675792
-0.0716401
-0.0745625
-0.0765891
-0.0782797
-0.0799108
-0.0815946
-0.0833823
-0.0852907
-0.0873108
-0.089416
-0.0915676
-0.093719
-0.0958187
-0.0978114
-0.0996403
-0.101248
-0.102576
-0.103568
-0.104171
-0.104331
-0.104
-0.103134
-0.101692
-0.0996404
-0.0969519
-0.0936073
-0.0895937
-0.084906
-0.0795461
-0.0735241
-0.0668587
-0.0595774
-0.0517158
-0.0433179
-0.0344346
-0.025123
-0.0154455
-0.00546814
0.00474044
0.0151107
0.0255735
0.0360609
-0.0670703
-0.0707204
-0.0751577
-0.0785864
-0.081105
-0.0832155
-0.0851874
-0.0871398
-0.0891344
-0.0911995
-0.093337
-0.0955294
-0.0977463
-0.0999478
-0.102088
-0.104118
-0.105983
-0.107629
-0.109001
-0.110044
-0.110703
-0.110926
-0.110663
-0.109868
-0.108498
-0.106516
-0.103891
-0.1006
-0.0966257
-0.0919609
-0.0866049
-0.0805665
-0.0738641
-0.0665254
-0.0585874
-0.0500956
-0.0411034
-0.0316709
-0.0218633
-0.01175
-0.00140257
0.00910667
0.0197063
0.0303268
-0.0721908
-0.0758266
-0.0803606
-0.0840481
-0.0868845
-0.089301
-0.0915432
-0.0937245
-0.095908
-0.0981268
-0.100389
-0.102683
-0.104984
-0.107258
-0.109462
-0.111551
-0.113474
-0.115178
-0.116608
-0.117711
-0.118429
-0.118711
-0.118503
-0.117757
-0.116427
-0.114472
-0.111858
-0.108558
-0.104553
-0.0998316
-0.0943919
-0.0882423
-0.0814017
-0.0738996
-0.0657755
-0.0570785
-0.0478663
-0.0382034
-0.0281601
-0.0178103
-0.00723009
0.00350437
0.0143185
0.0251406
-0.0789492
-0.0824418
-0.0868714
-0.0906174
-0.0936122
-0.0962182
-0.0986495
-0.101008
-0.103351
-0.105712
-0.108101
-0.110509
-0.112915
-0.115287
-0.117585
-0.119766
-0.121779
-0.123571
-0.125089
-0.126276
-0.127075
-0.12743
-0.127285
-0.126588
-0.125288
-0.123342
-0.120711
-0.117364
-0.113279
-0.108442
-0.102851
-0.0965143
-0.0894523
-0.0816974
-0.0732936
-0.0642954
-0.0547664
-0.0447781
-0.034407
-0.0237337
-0.0128399
-0.00180657
0.00928803
0.0203692
-0.0868133
-0.0900706
-0.0942488
-0.0978973
-0.100918
-0.10361
-0.106155
-0.108639
-0.111113
-0.113604
-0.116122
-0.118658
-0.121192
-0.123692
-0.126119
-0.12843
-0.130574
-0.132498
-0.134144
-0.135455
-0.13637
-0.136829
-0.136771
-0.13614
-0.134881
-0.132943
-0.130283
-0.126868
-0.122671
-0.117676
-0.11188
-0.105293
-0.0979374
-0.0898511
-0.0810841
-0.0716984
-0.0617661
-0.0513674
-0.0405875
-0.0295147
-0.018238
-0.00684407
0.0045845
0.0159689
-0.0952441
-0.0981954
-0.10201
-0.10544
-0.10838
-0.111074
-0.11367
-0.116238
-0.118818
-0.121432
-0.124086
-0.126768
-0.129457
-0.132121
-0.13472
-0.137208
-0.139533
-0.14164
-0.143467
-0.144953
-0.146032
-0.146639
-0.146708
-0.146175
-0.144979
-0.143063
-0.140379
-0.136888
-0.132558
-0.127373
-0.121328
-0.114434
-0.106721
-0.0982307
-0.0890233
-0.0791704
-0.0687552
-0.0578693
-0.0466085
-0.0350707
-0.023354
-0.011552
0.000247219
0.0119638
-0.103699
-0.106287
-0.10965
-0.112764
-0.11554
-0.11817
-0.120768
-0.123389
-0.126062
-0.1288
-0.131603
-0.134457
-0.137336
-0.140207
-0.143027
-0.145746
-0.148311
-0.15066
-0.15273
-0.154451
-0.155754
-0.156565
-0.156811
-0.15642
-0.155323
-0.153455
-0.150762
-0.147195
-0.142722
-0.137321
-0.130988
-0.123738
-0.115605
-0.106643
-0.0969217
-0.0865265
-0.0755548
-0.0641136
-0.052312
-0.0402602
-0.0280645
-0.0158243
-0.00363139
0.00843365
-0.111635
-0.113807
-0.116646
-0.119371
-0.121918
-0.124434
-0.127002
-0.129659
-0.132422
-0.135294
-0.13827
-0.141328
-0.14444
-0.147567
-0.150663
-0.153675
-0.156543
-0.159203
-0.161583
-0.163609
-0.165202
-0.16628
-0.166763
-0.166567
-0.165613
-0.163827
-0.161145
-0.157512
-0.152888
-0.147249
-0.140592
-0.132936
-0.124323
-0.114822
-0.104518
-0.0935132
-0.0819264
-0.0698797
-0.0574957
-0.0448968
-0.0321978
-0.0195044
-0.00691196
0.00549687
-0.118498
-0.120213
-0.12247
-0.124749
-0.127023
-0.129393
-0.131914
-0.134603
-0.137464
-0.140492
-0.143672
-0.146976
-0.150369
-0.153808
-0.157242
-0.160612
-0.163853
-0.166894
-0.169656
-0.172058
-0.174012
-0.175425
-0.176206
-0.176261
-0.175498
-0.17383
-0.171184
-0.167494
-0.162712
-0.156812
-0.149792
-0.141679
-0.132533
-0.122436
-0.111493
-0.0998293
-0.0875813
-0.0748906
-0.0618978
-0.0487377
-0.0355349
-0.0224007
-0.0094319
0.00328996
-0.123731
-0.124969
-0.126607
-0.128403
-0.130375
-0.132586
-0.135056
-0.137787
-0.140769
-0.143985
-0.14741
-0.151008
-0.154739
-0.15855
-0.162386
-0.166182
-0.169866
-0.173358
-0.176574
-0.179422
-0.181803
-0.183615
-0.184752
-0.185106
-0.184574
-0.183056
-0.180464
-0.176722
-0.171774
-0.16559
-0.158175
-0.149566
-0.139837
-0.129091
-0.117461
-0.105097
-0.0921609
-0.0788159
-0.0652204
-0.0515214
-0.0378506
-0.0243219
-0.0110309
0.00194458
-0.126707
-0.127547
-0.128554
-0.129851
-0.131515
-0.133569
-0.136004
-0.138803
-0.141941
-0.14539
-0.149112
-0.153062
-0.15719
-0.161438
-0.165741
-0.170028
-0.174218
-0.178227
-0.181958
-0.18531
-0.188175
-0.190438
-0.191978
-0.192674
-0.192404
-0.191056
-0.188525
-0.184723
-0.179587
-0.173087
-0.165235
-0.156083
-0.145727
-0.134301
-0.121965
-0.108901
-0.0952953
-0.0813343
-0.0671913
-0.0530225
-0.038963
-0.0251256
-0.0116016
0.00153841
-0.127051
-0.127486
-0.127864
-0.128678
-0.130052
-0.131974
-0.134408
-0.137318
-0.140667
-0.144408
-0.148493
-0.152865
-0.157463
-0.16222
-0.167062
-0.171909
-0.176673
-0.181259
-0.185563
-0.189472
-0.192866
-0.195618
-0.197594
-0.198656
-0.198667
-0.197495
-0.195013
-0.19112
-0.185748
-0.178874
-0.170521
-0.160767
-0.149737
-0.137599
-0.124551
-0.110805
-0.0965766
-0.0820698
-0.0674699
-0.0529371
-0.038605
-0.0245802
-0.0109449
0.0022405
-0.124246
-0.124178
-0.123954
-0.124354
-0.125513
-0.127372
-0.129871
-0.132961
-0.136588
-0.14069
-0.145202
-0.150057
-0.15518
-0.160495
-0.165918
-0.17136
-0.176723
-0.181904
-0.186788
-0.191252
-0.195165
-0.198386
-0.200765
-0.202149
-0.202384
-0.201317
-0.198806
-0.194742
-0.18906
-0.181746
-0.172848
-0.162471
-0.150781
-0.137982
-0.12431
-0.110007
-0.0953087
-0.0804322
-0.0655656
-0.0508653
-0.0364558
-0.0224321
-0.00886312
0.00420374
-0.118966
-0.11836
-0.117618
-0.117707
-0.11874
-0.120608
-0.123234
-0.126554
-0.130496
-0.134984
-0.139938
-0.145276
-0.150913
-0.156761
-0.162728
-0.168716
-0.174618
-0.180323
-0.185707
-0.190637
-0.194973
-0.198559
-0.201236
-0.202837
-0.203188
-0.202112
-0.199468
-0.19515
-0.189104
-0.181337
-0.171924
-0.161009
-0.148791
-0.135513
-0.121435
-0.10682
-0.09191
-0.0769222
-0.0620373
-0.0474
-0.0331209
-0.0192806
-0.0059344
0.00688209
-0.1123
-0.111117
-0.109927
-0.109784
-0.110749
-0.112667
-0.115446
-0.119007
-0.123264
-0.128123
-0.13349
-0.139271
-0.145371
-0.151691
-0.158129
-0.16458
-0.170929
-0.177057
-0.182831
-0.188111
-0.192745
-0.19657
-0.199416
-0.201096
-0.201415
-0.2002
-0.197314
-0.192664
-0.186218
-0.178011
-0.168155
-0.156827
-0.14426
-0.130719
-0.11648
-0.101807
-0.0869388
-0.0720795
-0.0573947
-0.043013
-0.0290294
-0.0155106
-0.00250044
0.00997476
-0.105314
-0.103477
-0.101825
-0.10146
-0.102349
-0.104295
-0.107194
-0.110956
-0.115475
-0.120646
-0.126361
-0.132514
-0.138999
-0.145707
-0.152528
-0.159346
-0.166041
-0.172482
-0.178532
-0.18404
-0.188847
-0.192782
-0.195657
-0.197265
-0.19741
-0.195935
-0.192718
-0.18769
-0.180847
-0.172261
-0.162077
-0.150504
-0.137796
-0.124225
-0.110066
-0.0955722
-0.080965
-0.0664297
-0.0521131
-0.038127
-0.0245524
-0.0114446
0.00116076
0.0132431
-0.0988855
-0.0963123
-0.0941068
-0.0934358
-0.0941485
-0.0960136
-0.098922
-0.102775
-0.107457
-0.112847
-0.118823
-0.125265
-0.132053
-0.139067
-0.146186
-0.153284
-0.16023
-0.166886
-0.173105
-0.178731
-0.183597
-0.187516
-0.190274
-0.191667
-0.191524
-0.189706
-0.186113
-0.180709
-0.173525
-0.164669
-0.154314
-0.142689
-0.130051
-0.116668
-0.102797
-0.08867
-0.0744872
-0.060412
-0.0465733
-0.0330681
-0.0199663
-0.00731571
0.00485333
0.0165226
-0.0936322
-0.0902759
-0.0873597
-0.0861593
-0.0864492
-0.0880052
-0.0907332
-0.0945318
-0.0992678
-0.104795
-0.110968
-0.117643
-0.124682
-0.131946
-0.139301
-0.14661
-0.153731
-0.160519
-0.16682
-0.172472
-0.177284
-0.181047
-0.183556
-0.184637
-0.184138
-0.181942
-0.177983
-0.17226
-0.164842
-0.155861
-0.145511
-0.134021
-0.12164
-0.108617
-0.0951843
-0.0815507
-0.0678925
-0.0543539
-0.0410484
-0.028062
-0.0154571
-0.00327648
0.00845186
0.0197099
-0.0898976
-0.0857256
-0.0817962
-0.0795736
-0.0790264
-0.0800012
-0.082393
-0.0860666
-0.0908371
-0.0965042
-0.102878
-0.109784
-0.117057
-0.124543
-0.132093
-0.13956
-0.146793
-0.153645
-0.159949
-0.165515
-0.17014
-0.173631
-0.175815
-0.176533
-0.175659
-0.173107
-0.168848
-0.162913
-0.155396
-0.146449
-0.136264
-0.125062
-0.113073
-0.100522
-0.0876157
-0.0745394
-0.0614494
-0.048474
-0.035715
-0.0232507
-0.0111383
0.000582018
0.0118831
0.0227458
-0.0877335
-0.0826123
-0.0769208
-0.072929
-0.0712414
-0.0716002
-0.0737322
-0.0773972
-0.0823117
-0.0881975
-0.0948176
-0.101968
-0.109466
-0.117141
-0.124838
-0.132405
-0.139686
-0.146511
-0.152696
-0.158048
-0.162392
-0.165555
-0.167382
-0.167739
-0.166526
-0.163692
-0.159236
-0.153216
-0.145738
-0.136957
-0.127058
-0.116244
-0.104723
-0.0926954
-0.0803475
-0.0678433
-0.0553228
-0.0429024
-0.0306752
-0.0187136
-0.0070717
0.00421168
0.0151095
0.0256005
-0.0871076
-0.0805089
-0.0716997
-0.0655885
-0.0630139
-0.0630579
-0.0651822
-0.0690265
-0.0741932
-0.080337
-0.0871958
-0.094554
-0.102221
-0.110026
-0.117798
-0.125372
-0.132582
-0.139251
-0.145209
-0.150284
-0.154311
-0.157137
-0.158624
-0.158665
-0.157189
-0.154171
-0.149631
-0.143638
-0.136305
-0.127779
-0.118232
-0.107851
-0.0968215
-0.0853246
-0.0735269
-0.0615762
-0.0496002
-0.0377054
-0.0259784
-0.0144873
-0.00328419
0.00759294
0.0181168
0.0282637
-0.0863641
-0.0769303
-0.0644055
-0.057492
-0.0549519
-0.0550568
-0.0573625
-0.0614739
-0.0668913
-0.0732408
-0.0802657
-0.0877494
-0.0954948
-0.103322
-0.111057
-0.11853
-0.125574
-0.132027
-0.137722
-0.142503
-0.146217
-0.148728
-0.149923
-0.149717
-0.148061
-0.144946
-0.140407
-0.134517
-0.127388
-0.119157
-0.109984
-0.100038
-0.0894879
-0.0784975
-0.0672177
-0.0557835
-0.0443122
-0.0329025
-0.0216359
-0.0105773
0.000222893
0.0107272
0.0209079
0.0307392
-0.0869355
-0.0656887
-0.0520229
-0.0478156
-0.0466991
-0.0472618
-0.0499235
-0.0544086
-0.0601432
-0.0667396
-0.0739468
-0.0815453
-0.0893327
-0.0971277
-0.104765
-0.112084
-0.118923
-0.125128
-0.130545
-0.135029
-0.138445
-0.140676
-0.141626
-0.141229
-0.139452
-0.136297
-0.131805
-0.126052
-0.119143
-0.11121
-0.102399
-0.092864
-0.0827598
-0.0722356
-0.0614296
-0.050466
-0.0394535
-0.0284847
-0.0176365
-0.00697117
0.00346229
0.0136267
0.0234942
0.0330368
-0.0540373
-0.0393073
-0.0328738
-0.0337812
-0.0358978
-0.0386417
-0.042792
-0.0482276
-0.0545237
-0.061427
-0.0687752
-0.0763978
-0.0841207
-0.0917805
-0.0992251
-0.106305
-0.112871
-0.118778
-0.123884
-0.128058
-0.131178
-0.133142
-0.13387
-0.133307
-0.131433
-0.128257
-0.123825
-0.118211
-0.111516
-0.103862
-0.0953845
-0.0862257
-0.0765276
-0.0664269
-0.0560508
-0.0455145
-0.0349194
-0.0243524
-0.0138867
-0.00358187
0.00651435
0.0163652
0.0259427
0.0352175
-0.0441649
-0.0387816
-0.0337723
-0.0326713
-0.033516
-0.035763
-0.0396386
-0.0448694
-0.0509938
-0.0577152
-0.064847
-0.0722161
-0.0796527
-0.086999
-0.0941068
-0.100832
-0.107032
-0.112571
-0.117316
-0.121145
-0.123952
-0.125644
-0.126153
-0.125437
-0.12348
-0.1203
-0.115941
-0.110476
-0.104001
-0.0966276
-0.0884813
-0.0796921
-0.0703903
-0.0607013
-0.0507427
-0.0406212
-0.0304314
-0.0202552
-0.010162
-0.000209154
0.00955705
0.0191003
0.0283922
0.0374031
-0.039439
-0.0372926
-0.0334947
-0.0322017
-0.033095
-0.0353482
-0.0388951
-0.0436096
-0.0491849
-0.0553625
-0.0619558
-0.0687935
-0.0757078
-0.0825407
-0.0891442
-0.095376
-0.101098
-0.106179
-0.110496
-0.113935
-0.116398
-0.117804
-0.118094
-0.117233
-0.115211
-0.112047
-0.107785
-0.102493
-0.0962591
-0.0891867
-0.0813891
-0.0729847
-0.0640922
-0.0548265
-0.0452954
-0.0355978
-0.0258217
-0.0160443
-0.00633138
0.003262
0.0126908
0.0219191
0.0309184
0.0396586
-0.0367587
-0.0357803
-0.0335716
-0.0328177
-0.0337396
-0.0358152
-0.0389658
-0.0431379
-0.0481167
-0.0536759
-0.0596359
-0.0658347
-0.0721138
-0.0783223
-0.0843175
-0.0899628
-0.0951268
-0.0996852
-0.103523
-0.106535
-0.108632
-0.109741
-0.10981
-0.10881
-0.106734
-0.1036
-0.0994496
-0.094345
-0.0883658
-0.081605
-0.0741648
-0.0661523
-0.0576748
-0.048837
-0.0397375
-0.0304676
-0.0211093
-0.0117348
-0.00240658
0.00682256
0.0159089
0.024817
0.0335181
0.0419824
-0.0349001
-0.0346392
-0.0337333
-0.0335966
-0.0345788
-0.0364965
-0.0393064
-0.0429757
-0.0473583
-0.0522749
-0.0575658
-0.0630823
-0.0686781
-0.0742122
-0.0795501
-0.0845631
-0.0891284
-0.0931305
-0.0964627
-0.0990297
-0.10075
-0.101558
-0.101408
-0.100274
-0.0981499
-0.0950535
-0.0910215
-0.0861094
-0.0803882
-0.0739408
-0.0668585
-0.0592372
-0.0511734
-0.042762
-0.0340931
-0.0252503
-0.0163098
-0.00733907
0.00160274
0.0104652
0.0192058
0.0277901
0.0361889
0.0443729
-0.0335526
-0.0337926
-0.0337339
-0.034095
-0.0351948
-0.0370257
-0.039572
-0.0428082
-0.0466396
-0.0509346
-0.0555612
-0.0603897
-0.0652898
-0.0701336
-0.0747973
-0.0791622
-0.0831154
-0.0865509
-0.0893712
-0.0914899
-0.0928334
-0.0933431
-0.0929774
-0.0917129
-0.0895451
-0.0864886
-0.0825757
-0.0778549
-0.0723887
-0.06625
-0.0595198
-0.0522831
-0.0446265
-0.0366352
-0.0283912
-0.019971
-0.0114447
-0.00287556
0.00568094
0.0141767
0.0225708
0.0308294
0.0389235
0.0468245
-0.032505
-0.0330683
-0.0335236
-0.0342439
-0.035463
-0.037234
-0.0395606
-0.042425
-0.0457654
-0.0494876
-0.0534865
-0.0576532
-0.0618756
-0.066041
-0.070039
-0.0737627
-0.07711
-0.0799852
-0.0823005
-0.0839782
-0.0849522
-0.0851701
-0.0845944
-0.0832039
-0.0809939
-0.0779765
-0.0741791
-0.0696437
-0.0644243
-0.0585846
-0.0521956
-0.0453323
-0.0380717
-0.0304902
-0.0226617
-0.0146559
-0.00653724
0.00163563
0.00981063
0.0179421
0.025991
0.0339241
0.0417129
0.0493296
-0.0315973
-0.0323599
-0.0331174
-0.0340678
-0.035364
-0.0370673
-0.0391919
-0.0417266
-0.0446293
-0.0478318
-0.051252
-0.0548003
-0.0583824
-0.0619017
-0.0652619
-0.0683687
-0.0711319
-0.0734664
-0.0752943
-0.0765464
-0.0771642
-0.0771007
-0.0763225
-0.07481
-0.0725584
-0.0695769
-0.0658887
-0.0615292
-0.0565449
-0.0509908
-0.0449284
-0.0384238
-0.0315447
-0.0243592
-0.0169336
-0.00933099
-0.00161044
0.00617403
0.0139738
0.0217458
0.0294527
0.0370626
0.0445473
0.0518799
-0.0307231
-0.0315985
-0.0325183
-0.0335902
-0.0349081
-0.0365223
-0.0384489
-0.0406807
-0.0431874
-0.0459185
-0.0488099
-0.0517891
-0.0547777
-0.0576942
-0.0604563
-0.0629826
-0.0651944
-0.0670176
-0.068384
-0.0692328
-0.0695124
-0.0691815
-0.0682103
-0.0665808
-0.0642879
-0.0613385
-0.0577516
-0.053557
-0.048794
-0.0435096
-0.0377571
-0.0315938
-0.0250791
-0.0182733
-0.0112355
-0.00402255
0.00331185
0.0107181
0.0181511
0.0255705
0.0329408
0.0402313
0.0474148
0.0544653
-0.0298101
-0.0307333
-0.0317188
-0.0328278
-0.0341145
-0.0356141
-0.0373398
-0.0392856
-0.0414285
-0.0437299
-0.0461395
-0.0485989
-0.0510436
-0.0534057
-0.0556158
-0.0576047
-0.0593049
-0.0606528
-0.0615894
-0.0620622
-0.0620262
-0.0614454
-0.0602933
-0.0585537
-0.0562212
-0.0533009
-0.049808
-0.0457671
-0.0412111
-0.0361802
-0.0307198
-0.0248794
-0.0187108
-0.0122669
-0.0056002
0.00123843
0.00820049
0.0152407
0.0223174
0.0293931
0.0364342
0.0434115
0.0502986
0.0570706
-0.0288079
-0.0297284
-0.0307125
-0.0317955
-0.0330067
-0.0343676
-0.0358864
-0.0375575
-0.0393619
-0.0412692
-0.0432396
-0.0452258
-0.0471753
-0.049032
-0.0507379
-0.052235
-0.0534665
-0.0543782
-0.05492
-0.0550469
-0.0547203
-0.0539091
-0.0525901
-0.0507488
-0.0483798
-0.0454864
-0.0420807
-0.0381829
-0.0338203
-0.0290267
-0.0238406
-0.0183046
-0.0124633
-0.00636304
-4.99491e-05
0.00643066
0.0130353
0.0197227
0.0264549
0.033197
0.0399177
0.0465891
0.0531859
0.0596841
-0.0277864
-0.028666
-0.0296046
-0.0306231
-0.0317349
-0.0329516
-0.0342769
-0.0357042
-0.0372168
-0.0387897
-0.04039
-0.0419787
-0.0435125
-0.0449444
-0.0462261
-0.0473085
-0.0481436
-0.0486853
-0.048891
-0.0487221
-0.0481457
-0.0471347
-0.0456691
-0.043736
-0.0413302
-0.0384541
-0.0351175
-0.0313371
-0.0271359
-0.0225426
-0.0175903
-0.0123155
-0.00675733
-0.000956148
0.00504719
0.0112123
0.0175001
0.0238732
0.0302967
0.0367384
0.0431691
0.0495624
0.0558941
0.0621412
-0.0266744
-0.0274895
-0.0283535
-0.0292799
-0.0302713
-0.0313318
-0.0324618
-0.0336537
-0.0348928
-0.0361575
-0.0374206
-0.0386498
-0.0398089
-0.040859
-0.0417596
-0.0424696
-0.0429487
-0.043158
-0.0430614
-0.0426264
-0.0418248
-0.0406336
-0.0390354
-0.0370191
-0.0345798
-0.0317192
-0.0284452
-0.0247716
-0.020718
-0.0163085
-0.0115714
-0.00653818
-0.00124266
0.00427983
0.00999335
0.0158621
0.0218509
0.0279262
0.0340562
0.0402112
0.0463639
0.0524898
0.0585655
0.0645693
-0.0252463
-0.0259658
-0.0267206
-0.0275187
-0.028355
-0.0292285
-0.0301365
-0.0310711
-0.0320189
-0.0329619
-0.0338774
-0.0347395
-0.0355187
-0.0361836
-0.0367014
-0.0370389
-0.037163
-0.0370422
-0.0366467
-0.0359499
-0.0349284
-0.0335631
-0.0318394
-0.0297477
-0.0272836
-0.0244481
-0.0212471
-0.017692
-0.0137983
-0.00958602
-0.00507865
-0.00030255
0.00471367
0.00993987
0.0153451
0.0208982
0.0265683
0.0323256
0.0381415
0.0439891
0.0498435
0.0556813
0.061481
0.0672222
-0.0234374
-0.0240289
-0.0246401
-0.0252748
-0.0259236
-0.0265817
-0.0272447
-0.0279045
-0.0285491
-0.0291634
-0.0297291
-0.0302254
-0.0306293
-0.030916
-0.0310599
-0.0310348
-0.0308148
-0.0303749
-0.0296918
-0.0287441
-0.0275132
-0.0259838
-0.0241439
-0.0219856
-0.0195049
-0.0167023
-0.0135821
-0.010153
-0.00642728
-0.00242081
0.00184754
0.00635628
0.0110819
0.0159994
0.0210828
0.0263055
0.0316412
0.0370638
0.0425481
0.0480703
0.0536076
0.0591389
0.064644
-0.021185
-0.0216182
-0.0220554
-0.0224971
-0.0229318
-0.0233529
-0.0237548
-0.0241299
-0.0244678
-0.0247557
-0.0249793
-0.0251224
-0.0251672
-0.0250949
-0.0248859
-0.0245205
-0.0239791
-0.0232425
-0.0222931
-0.0211146
-0.0196926
-0.0180152
-0.016073
-0.0138597
-0.0113721
-0.00861001
-0.00557663
-0.00227828
0.00127567
0.00507303
0.0090991
0.0133369
0.0177678
0.0223715
0.0271267
0.0320116
0.0370041
0.0420819
0.0472235
0.052408
0.0576152
0.062826
0.0680225
-0.0184469
-0.0186982
-0.0189392
-0.0191673
-0.0193709
-0.0195428
-0.0196778
-0.0197686
-0.0198064
-0.019781
-0.0196812
-0.0194946
-0.019208
-0.0188074
-0.0182784
-0.0176065
-0.0167773
-0.0157771
-0.0145926
-0.0132121
-0.0116248
-0.00982196
-0.00779654
-0.00554367
-0.00306073
-0.000347439
0.00259405
0.00575921
0.00914119
0.0127309
0.0165173
0.0204875
0.0246268
0.0289196
0.0333489
0.0378971
0.0425462
0.0472778
0.0520739
0.0569164
0.0617881
0.0666722
0.0715524
-0.0152565
-0.0153142
-0.0153483
-0.0153546
-0.0153228
-0.0152465
-0.0151207
-0.0149393
-0.014695
-0.0143799
-0.0139854
-0.0135023
-0.0129209
-0.0122312
-0.0114229
-0.0104857
-0.00940952
-0.00818453
-0.00680156
-0.0052522
-0.00352899
-0.00162562
0.000462876
0.00274002
0.00520775
0.00786632
0.0107143
0.0137485
0.016964
0.0203542
0.023911
0.0276248
0.0314847
0.0354787
0.0395937
0.0438161
0.0481313
0.0525248
0.0569817
0.061487
0.0660262
0.0705847
0.0751483
-0.0117018
-0.0115677
-0.0114003
-0.0111938
-0.01094
-0.0106338
-0.0102712
-0.00984693
-0.00935535
-0.00879035
-0.00814553
-0.00741421
-0.00658942
-0.00566404
-0.00463089
-0.00348282
-0.00221283
-0.000814198
0.000719382
0.00239368
0.00421381
0.00618409
0.00830794
0.0105878
0.013025
0.0156197
0.018371
0.0212765
0.0243329
0.0275353
0.030878
0.034354
0.0379552
0.0416726
0.0454964
0.0494161
0.0534205
0.057498
0.0616366
0.0658243
0.0700486
0.0742975
0.0785584
-0.0089301
-0.00866287
-0.0083561
-0.00800405
-0.00759988
-0.00713985
-0.00662036
-0.00603689
-0.00538467
-0.00465878
-0.00385415
-0.00296552
-0.00198754
-0.000914795
0.000258104
0.00153647
0.00292544
0.00442992
0.00605446
0.0078032
0.00967976
0.0116872
0.0138278
0.0161033
0.0185145
0.0210613
0.0237428
0.0265572
0.0295018
0.0325727
0.0357655
0.0390746
0.0424938
0.0460158
0.0496329
0.0533366
0.0571179
0.0609672
0.0648747
0.0688302
0.0728231
0.0768429
0.0808787
-0.00710707
-0.00675859
-0.00636799
-0.00592938
-0.00543655
-0.00488653
-0.00427612
-0.00360122
-0.00285767
-0.00204124
-0.0011476
-0.000172362
0.000888949
0.00204079
0.00328756
0.00463358
0.00608298
0.00763968
0.00930732
0.0110892
0.0129881
0.0150064
0.0171459
0.0194079
0.0217929
0.0243008
0.0269307
0.0296811
0.0325496
0.035533
0.0386275
0.0418283
0.0451302
0.0485271
0.0520121
0.0555782
0.0592173
0.0629213
0.0666813
0.0704884
0.0743331
0.0782057
0.0820964
-0.00585281
-0.00545273
-0.00500903
-0.00451603
-0.00396771
-0.00336157
-0.00269469
-0.00196331
-0.00116367
-0.000292
0.000655522
0.00168276
0.00279361
0.00399191
0.00528146
0.00666592
0.00814881
0.00973344
0.0114229
0.0132198
0.0151266
0.0171451
0.019277
0.0215231
0.0238838
0.0263589
0.0289476
0.0316486
0.0344595
0.0373777
0.0403997
0.0435214
0.046738
0.0500441
0.0534337
0.0569004
0.060437
0.0640361
0.0676896
0.0713894
0.0751266
0.0788924
0.0826775
-0.00503971
-0.00460825
-0.00413256
-0.00360714
-0.00302586
-0.00238652
-0.0016864
-0.000922005
-8.98694e-05
0.000813465
0.00179147
0.00284767
0.00398554
0.00520855
0.00652009
0.00792341
0.00942165
0.0110177
0.0127143
0.0145138
0.0164182
0.0184293
0.0205482
0.0227759
0.0251126
0.0275581
0.0301116
0.0327718
0.0355367
0.0384039
0.04137
0.0444314
0.0475837
0.050822
0.0541407
0.0575338
0.0609947
0.0645166
0.0680919
0.0717129
0.0753713
0.0790587
0.0827662
-0.00457375
-0.00412505
-0.00363174
-0.00308883
-0.00248996
-0.00183298
-0.00111534
-0.000333757
0.000515019
0.00143422