/*--------------------------------*- C++ -*----------------------------------*\
  =========                 |
  \\      /  F ield         | OpenFOAM: The Open Source CFD Toolbox
   \\    /   O peration     | Website:  https://openfoam.org
    \\  /    A nd           | Version:  6
     \\/     M anipulation  |
\*---------------------------------------------------------------------------*/
FoamFile
{
    version     2.0;
    format      ascii;
    class       surfaceScalarField;
    location    "0.07";
    object      phi;
}
// * * * * * * * * * * * * * * * * * * * * * * * * * * * * * * * * * * * * * //

dimensions      [0 3 -1 0 0 0 0];

internalField   nonuniform List<scalar> 
5945
(
3.25678e-07
-6.83747e-09
3.1946e-07
6.21807e-09
3.15924e-07
3.53633e-09
3.08942e-07
6.98188e-09
3.02122e-07
6.81989e-09
2.97303e-07
4.81876e-09
2.94215e-07
3.08831e-09
2.9215e-07
2.06506e-09
2.90669e-07
1.48042e-09
2.8958e-07
1.08907e-09
2.88791e-07
7.8958e-10
2.8825e-07
5.40512e-10
2.87938e-07
3.12463e-10
2.87833e-07
1.04954e-10
2.87959e-07
-1.26496e-10
2.88368e-07
-4.09103e-10
2.89819e-07
-1.45014e-09
-3.47775e-09
2.93296e-07
3.50382e-07
-1.54947e-08
3.47843e-07
8.75741e-09
3.44144e-07
7.23526e-09
3.42372e-07
8.75353e-09
3.40312e-07
8.88026e-09
3.37977e-07
7.15319e-09
3.35829e-07
5.23638e-09
3.34071e-07
3.8237e-09
3.32704e-07
2.84727e-09
3.31667e-07
2.12594e-09
3.309e-07
1.5564e-09
3.30362e-07
1.07916e-09
3.30029e-07
6.4472e-10
3.29917e-07
2.16876e-10
3.3007e-07
-2.79345e-10
3.30583e-07
-9.22278e-10
3.31482e-07
-2.3484e-09
-4.60177e-09
3.32606e-07
3.63442e-07
-1.2685e-08
3.66593e-07
5.60593e-09
3.66805e-07
7.02367e-09
3.67055e-07
8.50314e-09
3.66796e-07
9.13985e-09
3.65953e-07
7.99594e-09
3.64856e-07
6.33378e-09
3.63781e-07
4.89883e-09
3.62861e-07
3.76719e-09
3.62133e-07
2.85398e-09
3.61596e-07
2.09331e-09
3.61242e-07
1.43282e-09
3.61067e-07
8.19369e-10
3.61083e-07
2.01662e-10
3.6131e-07
-5.07134e-10
3.61797e-07
-1.40871e-09
3.62382e-07
-2.93357e-09
-5.07873e-09
3.62859e-07
3.89247e-07
-9.39298e-09
3.91496e-07
3.35629e-09
3.92488e-07
6.03218e-09
3.9324e-07
7.75085e-09
3.93635e-07
8.74462e-09
3.93533e-07
8.09857e-09
3.93094e-07
6.77209e-09
3.92535e-07
5.4583e-09
3.91998e-07
4.30455e-09
3.91553e-07
3.29867e-09
3.91232e-07
2.41409e-09
3.9105e-07
1.61486e-09
3.91016e-07
8.53722e-10
3.9114e-07
7.72182e-11
3.91431e-07
-7.97901e-10
3.91888e-07
-1.86604e-09
3.92346e-07
-3.39093e-09
-5.34254e-09
3.92609e-07
4.18281e-07
-6.96162e-09
4.19459e-07
2.17911e-09
4.20409e-07
5.08196e-09
4.21267e-07
6.8922e-09
4.21957e-07
8.05457e-09
4.22282e-07
7.77399e-09
4.2229e-07
6.76368e-09
4.22129e-07
5.61958e-09
4.21919e-07
4.5145e-09
4.21736e-07
3.48204e-09
4.21624e-07
2.52611e-09
4.2161e-07
1.62822e-09
4.21713e-07
7.51632e-10
4.21941e-07
-1.51154e-10
4.22293e-07
-1.15008e-09
4.22746e-07
-2.31862e-09
4.23158e-07
-3.80304e-09
-5.54555e-09
4.23361e-07
4.4905e-07
-5.1027e-09
4.49659e-07
1.57024e-09
4.50468e-07
4.27224e-09
4.51333e-07
6.02737e-09
4.52166e-07
7.22189e-09
4.5275e-07
7.19018e-09
4.53069e-07
6.44451e-09
4.53216e-07
5.47282e-09
4.53282e-07
4.4482e-09
4.53335e-07
3.42932e-09
4.53421e-07
2.44024e-09
4.53571e-07
1.47732e-09
4.53807e-07
5.15774e-10
4.54138e-07
-4.8154e-10
4.54555e-07
-1.56693e-09
4.55025e-07
-2.78953e-09
4.5544e-07
-4.21715e-09
-5.77985e-09
4.55674e-07
4.81775e-07
-3.60616e-09
4.82116e-07
1.22946e-09
4.82794e-07
3.59398e-09
4.83622e-07
5.20016e-09
4.8451e-07
6.33326e-09
4.85248e-07
6.45237e-09
4.85783e-07
5.90965e-09
4.86166e-07
5.09006e-09
4.86461e-07
4.15342e-09
4.86721e-07
3.16902e-09
4.86989e-07
2.17235e-09
4.87295e-07
1.17091e-09
4.8766e-07
1.51284e-10
4.8809e-07
-9.11735e-10
4.88575e-07
-2.05243e-09
4.89083e-07
-3.29765e-09
4.89533e-07
-4.66714e-09
-6.09429e-09
4.89848e-07
5.1677e-07
-2.41808e-09
5.16967e-07
1.03281e-09
5.17531e-07
3.02993e-09
5.18298e-07
4.43248e-09
5.19191e-07
5.44105e-09
5.20013e-07
5.63002e-09
5.20694e-07
5.2284e-09
5.21254e-07
4.52986e-09
5.21734e-07
3.67413e-09
5.22171e-07
2.73155e-09
5.22601e-07
1.74254e-09
5.2305e-07
7.22149e-10
5.23534e-07
-3.33304e-10
5.2406e-07
-1.43757e-09
5.24617e-07
-2.609e-09
5.25176e-07
-3.85693e-09
5.25684e-07
-5.17509e-09
-6.50846e-09
5.26098e-07
5.54233e-07
-1.51737e-09
5.54347e-07
9.19318e-10
5.5482e-07
2.55662e-09
5.55524e-07
3.72877e-09
5.56391e-07
4.57392e-09
5.57252e-07
4.76884e-09
5.58028e-07
4.45193e-09
5.58718e-07
3.84004e-09
5.59342e-07
3.05011e-09
5.59926e-07
2.14778e-09
5.60495e-07
1.17387e-09
5.61069e-07
1.47938e-10
5.61662e-07
-9.26056e-10
5.62276e-07
-2.05212e-09
5.62903e-07
-3.23603e-09
5.63521e-07
-4.4751e-09
5.64098e-07
-5.75151e-09
-7.02413e-09
5.64613e-07
5.94331e-07
-8.70538e-10
5.94407e-07
8.43205e-10
5.94817e-07
2.14649e-09
5.95464e-07
3.08216e-09
5.96293e-07
3.74445e-09
5.97164e-07
3.89793e-09
5.97998e-07
3.61791e-09
5.98779e-07
3.05936e-09
5.99512e-07
2.31674e-09
6.00212e-07
1.44779e-09
6.00895e-07
4.90965e-10
6.01575e-07
-5.32087e-10
6.02261e-07
-1.61197e-09
6.02954e-07
-2.74524e-09
6.03647e-07
-3.92883e-09
6.04325e-07
-5.1529e-09
6.0497e-07
-6.39652e-09
-7.63133e-09
6.05577e-07
6.37247e-07
-4.36534e-10
6.37319e-07
7.71091e-10
6.37694e-07
1.77206e-09
6.38296e-07
2.47974e-09
6.39085e-07
2.95522e-09
6.39949e-07
3.03456e-09
6.40813e-07
2.75336e-09
6.41654e-07
2.21887e-09
6.42466e-07
1.50486e-09
6.43253e-07
6.60064e-10
6.44025e-07
-2.81022e-10
6.4479e-07
-1.29645e-09
6.45551e-07
-2.37342e-09
6.46309e-07
-3.50344e-09
6.47059e-07
-4.67796e-09
6.47789e-07
-5.88377e-09
6.48494e-07
-7.10106e-09
-8.31137e-09
6.49174e-07
5.7385e-07
-2.03489e-10
5.73921e-07
7.00242e-10
5.74228e-07
1.46527e-09
5.74715e-07
1.99296e-09
5.75353e-07
2.31702e-09
5.7607e-07
2.31787e-09
5.76809e-07
2.01387e-09
5.77546e-07
1.48158e-09
5.78272e-07
7.78956e-10
5.78985e-07
-5.27447e-11
5.79687e-07
-9.82792e-10
5.8038e-07
-1.98996e-09
5.81067e-07
-3.05993e-09
5.81745e-07
-4.18158e-09
5.82411e-07
-5.34375e-09
5.83059e-07
-6.53232e-09
5.83688e-07
-7.72971e-09
-8.92411e-09
5.84301e-07
6.99659e-07
-4.73647e-11
6.99778e-07
5.81438e-10
7.00127e-07
1.11634e-09
7.00666e-07
1.45365e-09
7.01371e-07
1.61273e-09
7.02173e-07
1.5157e-09
7.03018e-07
1.16837e-09
7.03878e-07
6.22047e-10
7.04737e-07
-7.97497e-11
7.05588e-07
-9.03822e-10
7.06429e-07
-1.82398e-09
7.0726e-07
-2.82055e-09
7.08078e-07
-3.8787e-09
7.08883e-07
-4.98588e-09
7.09669e-07
-6.12969e-09
7.10433e-07
-7.29628e-09
7.11174e-07
-8.47113e-09
-9.64796e-09
7.11898e-07
8.53014e-07
2.32401e-11
8.53195e-07
4.00927e-10
8.53602e-07
7.09007e-10
8.54203e-07
8.52549e-10
8.54975e-07
8.40547e-10
8.55861e-07
6.30258e-10
8.56808e-07
2.20989e-10
8.57785e-07
-3.55261e-10
8.58773e-07
-1.06732e-09
8.59759e-07
-1.88973e-09
8.60736e-07
-2.80124e-09
8.617e-07
-3.78451e-09
8.62647e-07
-4.82526e-09
8.63571e-07
-5.91076e-09
8.6447e-07
-7.02866e-09
8.6534e-07
-8.16627e-09
8.66181e-07
-9.31197e-09
-1.04634e-08
8.66997e-07
1.03993e-06
1.15377e-11
1.04018e-06
1.50261e-10
1.04066e-06
2.30274e-10
1.04134e-06
1.79709e-10
1.04218e-06
-2.0149e-12
1.04314e-06
-3.34065e-10
1.04418e-06
-8.18307e-10
1.04526e-06
-1.43622e-09
1.04636e-06
-2.16667e-09
1.04746e-06
-2.99108e-09
1.04856e-06
-3.89301e-09
1.04963e-06
-4.85805e-09
1.05068e-06
-5.87342e-09
1.05169e-06
-6.92731e-09
1.05267e-06
-8.00835e-09
1.05361e-06
-9.1054e-09
1.05451e-06
-1.02091e-08
-1.13191e-08
1.05537e-06
1.26776e-06
-6.60797e-11
1.26808e-06
-1.70142e-10
1.26863e-06
-3.2172e-10
1.26938e-06
-5.67087e-10
1.27029e-06
-9.12913e-10
1.27132e-06
-1.36697e-09
1.27243e-06
-1.9304e-09
1.27359e-06
-2.59348e-09
1.27477e-06
-3.34308e-09
1.27594e-06
-4.16657e-09
1.2771e-06
-5.05207e-09
1.27823e-06
-5.98837e-09
1.27932e-06
-6.9649e-09
1.28037e-06
-7.97148e-09
1.28136e-06
-8.99826e-09
1.28229e-06
-1.00357e-08
1.28315e-06
-1.1076e-08
-1.21191e-08
1.28395e-06
1.54544e-06
-1.86008e-10
1.54581e-06
-5.45033e-10
1.54642e-06
-9.31745e-10
1.54723e-06
-1.37281e-09
1.54819e-06
-1.87538e-09
1.54927e-06
-2.44396e-09
1.55042e-06
-3.08012e-09
1.5516e-06
-3.78027e-09
1.5528e-06
-4.53802e-09
1.55398e-06
-5.34631e-09
1.55512e-06
-6.19773e-09
1.55622e-06
-7.08456e-09
1.55726e-06
-7.99889e-09
1.55822e-06
-8.93266e-09
1.5591e-06
-9.87777e-09
1.55989e-06
-1.08262e-08
1.56058e-06
-1.17715e-08
-1.27129e-08
1.56118e-06
1.8839e-06
-3.22643e-10
1.8843e-06
-9.41998e-10
1.88493e-06
-1.56451e-09
1.88576e-06
-2.1999e-09
1.88673e-06
-2.84968e-09
1.88781e-06
-3.5182e-09
1.88893e-06
-4.20922e-09
1.89008e-06
-4.92441e-09
1.8912e-06
-5.66403e-09
1.89229e-06
-6.42708e-09
1.8933e-06
-7.21122e-09
1.89423e-06
-8.0128e-09
1.89506e-06
-8.82717e-09
1.89577e-06
-9.64893e-09
1.89637e-06
-1.04722e-08
1.89683e-06
-1.12906e-08
1.89716e-06
-1.20989e-08
-1.2896e-08
1.89734e-06
2.29645e-06
-4.39851e-10
2.29681e-06
-1.29951e-09
2.2974e-06
-2.15925e-09
2.29819e-06
-2.98914e-09
2.29912e-06
-3.77697e-09
2.30013e-06
-4.5278e-09
2.30117e-06
-5.24663e-09
2.30218e-06
-5.94029e-09
2.30314e-06
-6.61748e-09
2.30399e-06
-7.28545e-09
2.30473e-06
-7.94865e-09
2.30533e-06
-8.609e-09
2.30577e-06
-9.26645e-09
2.30604e-06
-9.9193e-09
2.30613e-06
-1.05647e-08
2.30604e-06
-1.11988e-08
2.30576e-06
-1.18179e-08
-1.24213e-08
2.30528e-06
1.68108e-06
-4.44406e-10
1.6812e-06
-1.42071e-09
1.68149e-06
-2.45764e-09
1.68194e-06
-3.43305e-09
1.68248e-06
-4.3233e-09
1.68309e-06
-5.13228e-09
1.6837e-06
-5.85938e-09
1.68428e-06
-6.51592e-09
1.68478e-06
-7.12077e-09
1.68519e-06
-7.69004e-09
1.68547e-06
-8.235e-09
1.68563e-06
-8.76315e-09
1.68564e-06
-9.27891e-09
1.6855e-06
-9.78407e-09
1.68522e-06
-1.02784e-08
1.68478e-06
-1.07602e-08
1.68419e-06
-1.12273e-08
-1.16787e-08
1.68345e-06
1.46331e-06
-2.94535e-10
1.46324e-06
-1.34937e-09
1.46338e-06
-2.60581e-09
1.4637e-06
-3.74854e-09
1.46414e-06
-4.76442e-09
1.46465e-06
-5.64684e-09
1.46517e-06
-6.37885e-09
1.46564e-06
-6.98323e-09
1.46602e-06
-7.49714e-09
1.46628e-06
-7.94934e-09
1.4664e-06
-8.35999e-09
1.46638e-06
-8.74361e-09
1.46621e-06
-9.10979e-09
1.46589e-06
-9.46394e-09
1.46542e-06
-9.8083e-09
1.46481e-06
-1.0143e-08
1.46405e-06
-1.04668e-08
-1.0779e-08
1.46315e-06
1.27358e-06
1.43553e-10
1.27329e-06
-1.06244e-09
1.27334e-06
-2.66046e-09
1.27362e-06
-4.02205e-09
1.27407e-06
-5.21378e-09
1.27461e-06
-6.19126e-09
1.27514e-06
-6.9131e-09
1.2756e-06
-7.43479e-09
1.27592e-06
-7.82578e-09
1.27611e-06
-8.13226e-09
1.27613e-06
-8.38562e-09
1.276e-06
-8.60857e-09
1.2757e-06
-8.81597e-09
1.27526e-06
-9.01614e-09
1.27466e-06
-9.21299e-09
1.27393e-06
-9.40749e-09
1.27306e-06
-9.59874e-09
-9.78549e-09
1.27206e-06
1.1082e-06
1.04103e-09
1.1077e-06
-5.68687e-10
1.10775e-06
-2.71013e-09
1.10809e-06
-4.35922e-09
1.10866e-06
-5.78606e-09
1.10933e-06
-6.85679e-09
1.10993e-06
-7.51767e-09
1.11039e-06
-7.89793e-09
1.11068e-06
-8.11557e-09
1.11079e-06
-8.2371e-09
1.11071e-06
-8.30592e-09
1.11045e-06
-8.35247e-09
1.11003e-06
-8.39514e-09
1.10946e-06
-8.44314e-09
1.10875e-06
-8.50011e-09
1.1079e-06
-8.56635e-09
1.10695e-06
-8.64e-09
-8.71855e-09
1.10588e-06
9.64001e-07
2.56107e-09
9.6337e-07
6.23671e-11
9.63532e-07
-2.87222e-09
9.64047e-07
-4.87399e-09
9.64838e-07
-6.57646e-09
9.65663e-07
-7.6824e-09
9.66326e-07
-8.18042e-09
9.66759e-07
-8.33067e-09
9.66954e-07
-8.31092e-09
9.66923e-07
-8.20579e-09
9.66685e-07
-8.06778e-09
9.66263e-07
-7.93126e-09
9.65682e-07
-7.81386e-09
9.64961e-07
-7.72198e-09
9.64117e-07
-7.65618e-09
9.63165e-07
-7.61409e-09
9.62116e-07
-7.59157e-09
-7.58403e-09
9.60982e-07
8.38106e-07
4.99057e-09
8.37609e-07
5.5929e-10
8.38066e-07
-3.32989e-09
8.38866e-07
-5.67357e-09
8.39916e-07
-7.62666e-09
8.4086e-07
-8.62621e-09
8.41489e-07
-8.80894e-09
8.4178e-07
-8.62256e-09
8.41772e-07
-8.30279e-09
8.41509e-07
-7.9423e-09
8.41035e-07
-7.59376e-09
8.40391e-07
-7.28704e-09
8.39609e-07
-7.03213e-09
8.38715e-07
-6.82772e-09
8.37727e-07
-6.66822e-09
8.36659e-07
-6.54682e-09
8.35524e-07
-6.45614e-09
-6.389e-09
8.34329e-07
7.27604e-07
9.11472e-09
7.28006e-07
1.57678e-10
7.29065e-07
-4.38917e-09
7.3025e-07
-6.85826e-09
7.31524e-07
-8.90036e-09
7.32442e-07
-9.54512e-09
7.32857e-07
-9.22333e-09
7.32833e-07
-8.59894e-09
7.32473e-07
-7.94253e-09
7.31863e-07
-7.3327e-09
7.31074e-07
-6.80433e-09
7.30156e-07
-6.36956e-09
7.29147e-07
-6.02238e-09
7.28068e-07
-5.74933e-09
7.26937e-07
-5.53663e-09
7.25762e-07
-5.37239e-09
7.24552e-07
-5.24626e-09
-5.14855e-09
7.23312e-07
6.30197e-07
1.59241e-08
6.3266e-07
-2.30489e-09
6.34528e-07
-6.25732e-09
6.36145e-07
-8.47545e-09
6.37498e-07
-1.02532e-08
6.38124e-07
-1.01711e-08
6.38044e-07
-9.14322e-09
6.37467e-07
-8.02257e-09
6.36581e-07
-7.05646e-09
6.35514e-07
-6.26556e-09
6.34348e-07
-5.63779e-09
6.3313e-07
-5.1522e-09
6.31889e-07
-4.78081e-09
6.30636e-07
-4.49675e-09
6.29379e-07
-4.27896e-09
6.28118e-07
-4.11203e-09
6.26856e-07
-3.98427e-09
-3.88452e-09
6.25592e-07
5.47178e-07
2.3293e-08
5.51759e-07
-6.88634e-09
5.53365e-07
-7.86347e-09
5.54933e-07
-1.00434e-08
5.55846e-07
-1.11664e-08
5.55637e-07
-9.96176e-09
5.5461e-07
-8.11589e-09
5.53165e-07
-6.57752e-09
5.51566e-07
-5.45808e-09
5.49951e-07
-4.65025e-09
5.48377e-07
-4.0641e-09
5.46864e-07
-3.63894e-09
5.45411e-07
-3.32835e-09
5.44013e-07
-3.09787e-09
5.42658e-07
-2.92455e-09
5.4134e-07
-2.79424e-09
5.40053e-07
-2.69723e-09
-2.62447e-09
5.38793e-07
4.91608e-07
1.44455e-08
4.90659e-07
-5.93714e-09
4.87152e-07
-4.35674e-09
4.86079e-07
-8.9697e-09
4.8448e-07
-9.56744e-09
4.81941e-07
-7.42333e-09
4.79054e-07
-5.22888e-09
4.76269e-07
-3.79192e-09
4.73756e-07
-2.94507e-09
4.7153e-07
-2.42436e-09
4.6955e-07
-2.08439e-09
4.67766e-07
-1.8553e-09
4.66134e-07
-1.69636e-09
4.64619e-07
-1.58197e-09
4.63192e-07
-1.49766e-09
4.61835e-07
-1.43773e-09
4.60541e-07
-1.40311e-09
-1.43819e-09
4.59355e-07
4.34713e-07
4.28776e-07
4.24419e-07
4.1545e-07
4.05882e-07
3.98459e-07
3.9323e-07
3.89438e-07
3.86493e-07
3.84069e-07
3.81984e-07
3.80129e-07
3.78432e-07
3.76851e-07
3.75353e-07
3.73915e-07
3.72512e-07
3.71074e-07
1.06848e-08
-1.06848e-08
9.34753e-09
1.33729e-09
-1.8063e-10
9.52816e-09
-1.4645e-08
1.44644e-08
-3.19837e-08
1.73387e-08
-5.10569e-08
1.90732e-08
-7.12213e-08
2.01644e-08
-9.20772e-08
2.08559e-08
-1.13345e-07
2.12678e-08
-1.34801e-07
2.14556e-08
-1.56243e-07
2.14427e-08
-1.77482e-07
2.12385e-08
-1.9833e-07
2.08481e-08
-2.18606e-07
2.02766e-08
-2.38138e-07
1.95312e-08
-2.56759e-07
1.86215e-08
-2.74319e-07
1.75595e-08
-2.90677e-07
1.63585e-08
-3.0571e-07
1.50326e-08
-3.19306e-07
1.35963e-08
-3.3137e-07
1.20639e-08
-3.41819e-07
1.04489e-08
-3.50583e-07
8.7643e-09
-3.57605e-07
7.02232e-09
-3.6284e-07
5.23468e-09
-3.66256e-07
3.4155e-09
-3.67851e-07
1.59493e-09
-3.67685e-07
-1.65844e-10
-3.65865e-07
-1.81928e-09
-3.62488e-07
-3.3777e-09
-3.57615e-07
-4.87252e-09
-3.51296e-07
-6.31917e-09
-3.43573e-07
-7.7228e-09
-3.3449e-07
-9.08327e-09
-3.24092e-07
-1.03976e-08
-3.12431e-07
-1.16611e-08
-2.99563e-07
-1.28687e-08
-2.85548e-07
-1.40149e-08
-2.70454e-07
-1.50942e-08
-2.54352e-07
-1.61016e-08
-2.37319e-07
-1.70328e-08
-2.19435e-07
-1.78837e-08
-2.00784e-07
-1.86512e-08
-1.93324e-08
-1.07976e-08
1.12752e-10
-2.39284e-08
1.44681e-08
-3.84141e-08
2.40139e-08
-5.47868e-08
3.08371e-08
-7.29569e-08
3.55088e-08
-9.24635e-08
3.85798e-08
-1.12788e-07
4.04885e-08
-1.33468e-07
4.15359e-08
-1.5412e-07
4.19204e-08
-1.74435e-07
4.17707e-08
-1.94164e-07
4.11712e-08
-2.13106e-07
4.01804e-08
-2.31101e-07
3.88437e-08
-2.48025e-07
3.71998e-08
-2.63778e-07
3.52846e-08
-2.78288e-07
3.31319e-08
-2.91504e-07
3.07747e-08
-3.03389e-07
2.82439e-08
-3.13925e-07
2.55687e-08
-3.23105e-07
2.27763e-08
-3.30933e-07
1.98912e-08
-3.3742e-07
1.69363e-08
-3.42588e-07
1.39323e-08
-3.46465e-07
1.08991e-08
-3.49087e-07
7.85654e-09
-3.50497e-07
4.82595e-09
-3.5073e-07
1.828e-09
-3.49767e-07
-1.12881e-09
-3.47536e-07
-4.05022e-09
-3.43978e-07
-6.9363e-09
-3.39071e-07
-9.77897e-09
-3.32821e-07
-1.25696e-08
-3.25245e-07
-1.52988e-08
-3.16372e-07
-1.79558e-08
-3.06241e-07
-2.05291e-08
-2.94895e-07
-2.30068e-08
-2.82387e-07
-2.53768e-08
-2.68774e-07
-2.76277e-08
-2.5412e-07
-2.97484e-08
-2.38493e-07
-3.17289e-08
-2.21965e-07
-3.35604e-08
-2.04613e-07
-3.52355e-08
-1.86516e-07
-3.67482e-08
-3.80938e-08
-1.97691e-08
1.98819e-08
-3.78776e-08
3.25766e-08
-5.50215e-08
4.11578e-08
-7.1863e-08
4.76785e-08
-8.88524e-08
5.24983e-08
-1.06122e-07
5.58489e-08
-1.23593e-07
5.79602e-08
-1.41096e-07
5.90392e-08
-1.58436e-07
5.92597e-08
-1.75427e-07
5.8762e-08
-1.91912e-07
5.76566e-08
-2.07764e-07
5.60315e-08
-2.22878e-07
5.39586e-08
-2.37177e-07
5.14989e-08
-2.50598e-07
4.87053e-08
-2.63091e-07
4.5625e-08
-2.74617e-07
4.23001e-08
-2.85141e-07
3.8768e-08
-2.94635e-07
3.50625e-08
-3.03072e-07
3.12134e-08
-3.10428e-07
2.72475e-08
-3.1668e-07
2.31887e-08
-3.21807e-07
1.90584e-08
-3.25784e-07
1.48766e-08
-3.28589e-07
1.06614e-08
-3.30193e-07
6.42967e-09
-3.3056e-07
2.19518e-09
-3.29655e-07
-2.03316e-09
-3.27458e-07
-6.24757e-09
-3.23959e-07
-1.04353e-08
-3.19158e-07
-1.45805e-08
-3.13062e-07
-1.86651e-08
-3.0569e-07
-2.26705e-08
-2.97069e-07
-2.65774e-08
-2.87232e-07
-3.03663e-08
-2.76221e-07
-3.40176e-08
-2.64085e-07
-3.75126e-08
-2.5088e-07
-4.0833e-08
-2.36666e-07
-4.39622e-08
-2.2151e-07
-4.68849e-08
-2.05482e-07
-4.95882e-08
-1.88657e-07
-5.20609e-08
-1.7111e-07
-5.42946e-08
-5.62829e-08
-2.16025e-08
4.14844e-08
-4.12491e-08
5.22232e-08
-5.93639e-08
5.92726e-08
-7.64158e-08
6.47304e-08
-9.28082e-08
6.88907e-08
-1.08801e-07
7.18418e-08
-1.24517e-07
7.36763e-08
-1.39981e-07
7.45027e-08
-1.55157e-07
7.44361e-08
-1.69983e-07
7.35879e-08
-1.84386e-07
7.20596e-08
-1.98295e-07
6.994e-08
-2.11642e-07
6.73063e-08
-2.24369e-07
6.42255e-08
-2.36419e-07
6.07557e-08
-2.47742e-07
5.69479e-08
-2.58289e-07
5.28465e-08
-2.68011e-07
4.84906e-08
-2.76863e-07
4.39147e-08
-2.84799e-07
3.91493e-08
-2.91773e-07
3.42214e-08
-2.9774e-07
2.91554e-08
-3.02655e-07
2.39738e-08
-3.06476e-07
1.86971e-08
-3.09159e-07
1.33451e-08
-3.10666e-07
7.93656e-09
-3.10961e-07
2.48932e-09
-3.10014e-07
-2.97924e-09
-3.07811e-07
-8.45088e-09
-3.04342e-07
-1.39043e-08
-2.99607e-07
-1.93155e-08
-2.93614e-07
-2.46586e-08
-2.86378e-07
-2.99064e-08
-2.77924e-07
-3.50314e-08
-2.68284e-07
-4.00057e-08
-2.575e-07
-4.48019e-08
-2.45619e-07
-4.93936e-08
-2.32696e-07
-5.3756e-08
-2.18792e-07
-5.78661e-08
-2.03974e-07
-6.17036e-08
-1.88311e-07
-6.5251e-08
-1.71878e-07
-6.84939e-08
-1.54751e-07
-7.14214e-08
-7.40256e-08
-2.11693e-08
6.26537e-08
-4.06826e-08
7.17365e-08
-5.86733e-08
7.72632e-08
-7.54388e-08
8.1496e-08
-9.12669e-08
8.47187e-08
-1.06391e-07
8.69655e-08
-1.20974e-07
8.82596e-08
-1.35115e-07
8.86444e-08
-1.48862e-07
8.81828e-08
-1.62223e-07
8.69487e-08
-1.75182e-07
8.50188e-08
-1.8771e-07
8.24674e-08
-1.99766e-07
7.9363e-08
-2.11308e-07
7.57673e-08
-2.22288e-07
7.17355e-08
-2.32656e-07
6.73159e-08
-2.42361e-07
6.25513e-08
-2.51349e-07
5.74792e-08
-2.59567e-07
5.21329e-08
-2.6696e-07
4.6542e-08
-2.73472e-07
4.07335e-08
-2.79049e-07
3.47321e-08
-2.83636e-07
2.85613e-08
-2.87183e-07
2.22439e-08
-2.89641e-07
1.58026e-08
-2.90965e-07
9.26059e-09
-2.91117e-07
2.64193e-09
-2.90068e-07
-4.02809e-09
-2.87797e-07
-1.07224e-08
-2.8429e-07
-1.7411e-08
-2.79545e-07
-2.40612e-08
-2.73565e-07
-3.06382e-08
-2.66365e-07
-3.7106e-08
-2.57969e-07
-4.34275e-08
-2.48409e-07
-4.9566e-08
-2.37725e-07
-5.54853e-08
-2.25968e-07
-6.11509e-08
-2.13194e-07
-6.65304e-08
-1.99465e-07
-7.15945e-08
-1.84851e-07
-7.63175e-08
-1.69425e-07
-8.06774e-08
-1.53262e-07
-8.46569e-08
-1.36441e-07
-8.82428e-08
-9.14266e-08
-1.99556e-08
8.26093e-08
-3.85548e-08
9.03356e-08
-5.57981e-08
9.45065e-08
-7.1869e-08
9.75669e-08
-8.69604e-08
9.98101e-08
-1.01251e-07
1.01256e-07
-1.14889e-07
1.01897e-07
-1.27986e-07
1.01742e-07
-1.40619e-07
1.00815e-07
-1.5283e-07
9.91597e-08
-1.64636e-07
9.68253e-08
-1.76035e-07
9.38664e-08
-1.87009e-07
9.03366e-08
-1.97528e-07
8.62865e-08
-2.07555e-07
8.17627e-08
-2.17047e-07
7.68073e-08
-2.25953e-07
7.14578e-08
-2.34222e-07
6.57476e-08
-2.41796e-07
5.9707e-08
-2.48617e-07
5.33634e-08
-2.54626e-07
4.67424e-08
-2.59763e-07
3.98686e-08
-2.63968e-07
3.27663e-08
-2.67184e-07
2.54602e-08
-2.69358e-07
1.79765e-08
-2.7044e-07
1.03431e-08
-2.70389e-07
2.59023e-09
-2.69168e-07
-5.24924e-09
-2.6675e-07
-1.31396e-08
-2.6312e-07
-2.10416e-08
-2.58268e-07
-2.89131e-08
-2.52197e-07
-3.6709e-08
-2.4492e-07
-4.43827e-08
-2.36461e-07
-5.18869e-08
-2.26853e-07
-5.91743e-08
-2.16139e-07
-6.61988e-08
-2.04373e-07
-7.29169e-08
-1.91615e-07
-7.92881e-08
-1.77934e-07
-8.52762e-08
-1.63401e-07
-9.08497e-08
-1.48096e-07
-9.59829e-08
-1.32097e-07
-1.00655e-07
-1.15487e-07
-1.04853e-07
-1.08567e-07
-1.84096e-08
1.01019e-07
-3.57155e-08
1.07642e-07
-5.18503e-08
1.10641e-07
-6.69283e-08
1.12645e-07
-8.10776e-08
1.13959e-07
-9.44285e-08
1.14607e-07
-1.07102e-07
1.14571e-07
-1.192e-07
1.1384e-07
-1.30802e-07
1.12417e-07
-1.41964e-07
1.10322e-07
-1.52718e-07
1.0758e-07
-1.6308e-07
1.04228e-07
-1.73045e-07
1.00302e-07
-1.82597e-07
9.58386e-08
-1.91709e-07
9.0874e-08
-2.00342e-07
8.54405e-08
-2.08452e-07
7.95682e-08
-2.15989e-07
7.32845e-08
-2.22897e-07
6.66145e-08
-2.29115e-07
5.95819e-08
-2.34582e-07
5.22097e-08
-2.39235e-07
4.4521e-08
-2.43009e-07
3.65402e-08
-2.45842e-07
2.82934e-08
-2.47675e-07
1.98094e-08
-2.48452e-07
1.11208e-08
-2.48126e-07
2.264e-09
-2.46655e-07
-6.7209e-09
-2.44005e-07
-1.57892e-08
-2.40155e-07
-2.48916e-08
-2.35093e-07
-3.39749e-08
-2.2882e-07
-4.29823e-08
-2.21348e-07
-5.1855e-08
-2.12701e-07
-6.05332e-08
-2.02918e-07
-6.89575e-08
-1.92046e-07
-7.70705e-08
-1.80145e-07
-8.48184e-08
-1.67281e-07
-9.21516e-08
-1.53531e-07
-9.90267e-08
-1.38974e-07
-1.05407e-07
-1.23694e-07
-1.11262e-07
-1.07778e-07
-1.16572e-07
-9.13114e-08
-1.2132e-07
-1.255e-07
-1.67017e-08
1.17721e-07
-3.24977e-08
1.23438e-07
-4.7284e-08
1.25428e-07
-6.11346e-08
1.26496e-07
-7.41369e-08
1.26962e-07
-8.63866e-08
1.26857e-07
-9.79789e-08
1.26163e-07
-1.09001e-07
1.24862e-07
-1.19528e-07
1.22944e-07
-1.29615e-07
1.20409e-07
-1.39304e-07
1.17269e-07
-1.48617e-07
1.13541e-07
-1.57561e-07
1.09245e-07
-1.66128e-07
1.04406e-07
-1.74299e-07
9.90446e-08
-1.82042e-07
9.31842e-08
-1.89319e-07
8.68451e-08
-1.96081e-07
8.00467e-08
-2.02274e-07
7.28075e-08
-2.07838e-07
6.51457e-08
-2.12709e-07
5.70803e-08
-2.16819e-07
4.86315e-08
-2.20101e-07
3.98223e-08
-2.22487e-07
3.06792e-08
-2.23911e-07
2.12332e-08
-2.24311e-07
1.15206e-08
-2.23631e-07
1.58389e-09
-2.21822e-07
-8.52931e-09
-2.18847e-07
-1.87647e-08
-2.14677e-07
-2.90618e-08
-2.09297e-07
-3.93546e-08
-2.02707e-07
-4.95723e-08
-1.9492e-07
-5.96417e-08
-1.85965e-07
-6.94881e-08
-1.75885e-07
-7.9038e-08
-1.64735e-07
-8.82206e-08
-1.52583e-07
-9.69702e-08
-1.39507e-07
-1.05228e-07
-1.25591e-07
-1.12942e-07
-1.10927e-07
-1.20072e-07
-9.56052e-08
-1.26584e-07
-7.97205e-08
-1.32456e-07
-6.33638e-08
-1.37676e-07
-1.4224e-07
-1.48813e-08
1.32602e-07
-2.9005e-08
1.37561e-07
-4.225e-08
1.38673e-07
-5.46671e-08
1.38913e-07
-6.63198e-08
1.38614e-07
-7.72806e-08
1.37817e-07
-8.76259e-08
1.36508e-07
-9.74296e-08
1.34666e-07
-1.06758e-07
1.32272e-07
-1.15666e-07
1.29318e-07
-1.24196e-07
1.25799e-07
-1.32376e-07
1.2172e-07
-1.40217e-07
1.17087e-07
-1.4772e-07
1.11909e-07
-1.54872e-07
1.06197e-07
-1.61648e-07
9.996e-08
-1.68013e-07
9.32094e-08
-1.73921e-07
8.59548e-08
-1.7932e-07
7.82063e-08
-1.84149e-07
6.99753e-08
-1.88343e-07
6.12746e-08
-1.91832e-07
5.21202e-08
-1.94542e-07
4.25324e-08
-1.96399e-07
3.25364e-08
-1.97331e-07
2.21644e-08
-1.97266e-07
1.14562e-08
-1.96142e-07
4.59736e-10
-1.93902e-07
-1.07694e-08
-1.905e-07
-2.21665e-08
-1.85904e-07
-3.3658e-08
-1.80096e-07
-4.51629e-08
-1.73074e-07
-5.65938e-08
-1.64856e-07
-6.78598e-08
-1.55476e-07
-7.88686e-08
-1.44984e-07
-8.95296e-08
-1.33448e-07
-9.97565e-08
-1.20948e-07
-1.0947e-07
-1.07574e-07
-1.18601e-07
-9.34249e-08
-1.27092e-07
-7.86017e-08
-1.34895e-07
-6.32075e-08
-1.41978e-07
-4.73436e-08
-1.4832e-07
-3.11064e-08
-1.53914e-07
-1.58759e-07
-1.29417e-08
1.45544e-07
-2.52339e-08
1.49853e-07
-3.67507e-08
1.50189e-07
-4.75307e-08
1.49693e-07
-5.76234e-08
1.48707e-07
-6.70874e-08
1.47281e-07
-7.59863e-08
1.45407e-07
-8.4384e-08
1.43063e-07
-9.23403e-08
1.40228e-07
-9.99075e-08
1.36885e-07
-1.07128e-07
1.33019e-07
-1.14031e-07
1.28623e-07
-1.20634e-07
1.23691e-07
-1.26943e-07
1.18218e-07
-1.3295e-07
1.12203e-07
-1.38634e-07
1.05645e-07
-1.43966e-07
9.85406e-08
-1.48902e-07
9.08909e-08
-1.53391e-07
8.2696e-08
-1.57374e-07
7.39582e-08
-1.60783e-07
6.46832e-08
-1.63543e-07
5.48805e-08
-1.65577e-07
4.45658e-08
-1.66802e-07
3.37621e-08
-1.67139e-07
2.25011e-08
-1.66508e-07
1.08253e-08
-1.64836e-07
-1.21207e-09
-1.62059e-07
-1.35471e-08
-1.58122e-07
-2.61031e-08
-1.52988e-07
-3.87917e-08
-1.46638e-07
-5.15137e-08
-1.3907e-07
-6.41616e-08
-1.30307e-07
-7.66229e-08
-1.20392e-07
-8.87837e-08
-1.09388e-07
-1.00533e-07
-9.73777e-08
-1.11767e-07
-8.44564e-08
-1.22392e-07
-7.07317e-08
-1.32326e-07
-5.63171e-08
-1.41506e-07
-4.13278e-08
-1.49884e-07
-2.58778e-08
-1.57428e-07
-1.00763e-08
-1.64122e-07
5.97542e-09
-1.69965e-07
-1.74968e-07
-1.085e-08
1.56394e-07
-2.11268e-08
1.6013e-07
-3.07106e-08
1.59773e-07
-3.96333e-08
1.58615e-07
-4.79376e-08
1.57011e-07
-5.56739e-08
1.55018e-07
-6.28981e-08
1.52632e-07
-6.96675e-08
1.49833e-07
-7.60375e-08
1.46598e-07
-8.20581e-08
1.42905e-07
-8.77712e-08
1.38732e-07
-9.32092e-08
1.34061e-07
-9.83929e-08
1.28874e-07
-1.03331e-07
1.23157e-07
-1.08022e-07
1.16894e-07
-1.12449e-07
1.10072e-07
-1.16585e-07
1.02677e-07
-1.20393e-07
9.4698e-08
-1.2382e-07
8.61239e-08
-1.26809e-07
7.69469e-08
-1.29289e-07
6.7163e-08
-1.31183e-07
5.67741e-08
-1.32406e-07
4.57891e-08
-1.3287e-07
3.42268e-08
-1.32487e-07
2.21172e-08
-1.31166e-07
9.50453e-09
-1.28825e-07
-3.55311e-09
-1.25389e-07
-1.6983e-08
-1.20797e-07
-3.0695e-08
-1.15006e-07
-4.45828e-08
-1.07994e-07
-5.85253e-08
-9.97656e-08
-7.23902e-08
-9.03499e-08
-8.60386e-08
-7.98035e-08
-9.93302e-08
-6.82068e-08
-1.1213e-07
-5.56608e-08
-1.24313e-07
-4.22819e-08
-1.3577e-07
-2.81974e-08
-1.46411e-07
-1.35389e-08
-1.56165e-07
1.56387e-09
-1.64987e-07
1.69868e-08
-1.72851e-07
3.26152e-08
-1.7975e-07
4.83457e-08
-1.85696e-07
-1.90712e-07
-8.55797e-09
1.64952e-07
-1.65953e-08
1.68168e-07
-2.4008e-08
1.67186e-07
-3.08251e-08
1.65432e-07
-3.70857e-08
1.63272e-07
-4.28364e-08
1.60768e-07
-4.81287e-08
1.57924e-07
-5.30164e-08
1.54721e-07
-5.75522e-08
1.51134e-07
-6.17848e-08
1.47138e-07
-6.57568e-08
1.42704e-07
-6.95021e-08
1.37806e-07
-7.30445e-08
1.32417e-07
-7.63971e-08
1.26509e-07
-7.9561e-08
1.20058e-07
-8.25252e-08
1.13036e-07
-8.52662e-08
1.05418e-07
-8.77482e-08
9.718e-08
-8.99232e-08
8.82989e-08
-9.17314e-08
7.87551e-08
-9.31019e-08
6.85336e-08
-9.39539e-08
5.76261e-08
-9.41981e-08
4.60332e-08
-9.37387e-08
3.37674e-08
-9.24771e-08
2.08556e-08
-9.03149e-08
7.34235e-09
-8.71576e-08
-6.71042e-09
-8.29207e-08
-2.12199e-08
-7.75352e-08
-3.60805e-08
-7.09539e-08
-5.11641e-08
-6.31565e-08
-6.63228e-08
-5.4153e-08
-8.13936e-08
-4.39864e-08
-9.62053e-08
-3.27312e-08
-1.10585e-07
-2.04908e-08
-1.2437e-07
-7.39093e-09
-1.37413e-07
6.42709e-09
-1.49589e-07
2.08144e-08
-1.60798e-07
3.56213e-08
-1.70972e-07
5.07044e-08
-1.8007e-07
6.59325e-08
-1.88079e-07
8.11901e-08
-1.95008e-07
9.63786e-08
-2.00884e-07
-2.0575e-07
-5.99607e-09
1.70948e-07
-1.15213e-08
1.73693e-07
-1.64861e-08
1.72151e-07
-2.09148e-08
1.69861e-07
-2.48456e-08
1.67203e-07
-2.83235e-08
1.64246e-07
-3.13985e-08
1.60999e-07
-3.41228e-08
1.57445e-07
-3.65478e-08
1.53559e-07
-3.87221e-08
1.49312e-07
-4.06886e-08
1.44671e-07
-4.24829e-08
1.39601e-07
-4.41315e-08
1.34065e-07
-4.56503e-08
1.28028e-07
-4.70441e-08
1.21451e-07
-4.83055e-08
1.14297e-07
-4.94145e-08
1.06527e-07
-5.03381e-08
9.81036e-08
-5.10302e-08
8.8991e-08
-5.14318e-08
7.91567e-08
-5.14711e-08
6.85729e-08
-5.10646e-08
5.72196e-08
-5.01184e-08
4.5087e-08
-4.85301e-08
3.21792e-08
-4.61931e-08
1.85186e-08
-4.29991e-08
4.14836e-09
-3.88429e-08
-1.08666e-08
-3.36307e-08
-2.64321e-08
-2.7287e-08
-4.24242e-08
-1.97635e-08
-5.86877e-08
-1.10452e-08
-7.50411e-08
-1.15513e-09
-9.12836e-08
9.84461e-09
-1.07205e-07
2.18542e-08
-1.22595e-07
3.47415e-08
-1.37258e-07
4.83504e-08
-1.51022e-07
6.25111e-08
-1.63749e-07
7.70524e-08
-1.75339e-07
9.18096e-08
-1.85729e-07
1.06632e-07
-1.94893e-07
1.21389e-07
-2.02836e-07
1.35972e-07
-2.0959e-07
1.50294e-07
-2.15207e-07
-2.19749e-07
-3.0572e-09
1.74005e-07
-5.76011e-09
1.76396e-07
-7.96064e-09
1.74351e-07
-9.68242e-09
1.71583e-07
-1.09648e-08
1.68485e-07
-1.18539e-08
1.65136e-07
-1.24001e-08
1.61545e-07
-1.26552e-08
1.577e-07
-1.26705e-08
1.53575e-07
-1.24944e-08
1.49136e-07
-1.21701e-08
1.44347e-07
-1.1734e-08
1.39165e-07
-1.12142e-08
1.33545e-07
-1.06285e-08
1.27442e-07
-9.98402e-09
1.20807e-07
-9.27599e-09
1.13589e-07
-8.48691e-09
1.05738e-07
-7.58612e-09
9.72028e-08
-6.5293e-09
8.79342e-08
-5.25827e-09
7.78856e-08
-3.70112e-09
6.70157e-08
-1.77267e-09
5.52911e-08
6.24227e-10
4.26901e-08
3.59673e-09
2.92067e-08
7.25857e-09
1.48567e-08
1.17266e-08
-3.19631e-10
1.71142e-08
-1.62542e-08
2.35222e-08
-3.28401e-08
3.10281e-08
-4.99301e-08
3.96756e-08
-6.73352e-08
4.94666e-08
-8.4832e-08
6.03552e-08
-1.02172e-07
7.2248e-08
-1.19098e-07
8.50091e-08
-1.35356e-07
9.847e-08
-1.50719e-07
1.12442e-07
-1.64994e-07
1.26729e-07
-1.78037e-07
1.41144e-07
-1.89754e-07
1.55515e-07
-2.001e-07
1.69696e-07
-2.09074e-07
1.8357e-07
-2.16709e-07
1.97047e-07
-2.23068e-07
2.10067e-07
-2.28227e-07
-2.32276e-07
7.41084e-10
1.73264e-07
9.51116e-10
1.76186e-07
1.80525e-09
1.73497e-07
3.12658e-09
1.70262e-07
4.83552e-09
1.66776e-07
6.87379e-09
1.63097e-07
9.18707e-09
1.59232e-07
1.17222e-08
1.55165e-07
1.44281e-08
1.50869e-07
1.72571e-08
1.46307e-07
2.01667e-08
1.41437e-07
2.31213e-08
1.3621e-07
2.60933e-08
1.30573e-07
2.9065e-08
1.24471e-07
3.20289e-08
1.17843e-07
3.49893e-08
1.10629e-07
3.79627e-08
1.02765e-07
4.09789e-08
9.41866e-08
4.40815e-08
8.48316e-08
4.73282e-08
7.46389e-08
5.07913e-08
6.35527e-08
5.4557e-08
5.15254e-08
5.87249e-08
3.85221e-08
6.34053e-08
2.45263e-08
6.87158e-08
9.54625e-09
7.47789e-08
-6.38278e-09
8.1711e-08
-2.31863e-08
8.96108e-08
-4.07399e-08
9.85455e-08
-5.88648e-08
1.08539e-07
-7.73291e-08
1.19564e-07
-9.5857e-08
1.31536e-07
-1.14144e-07
1.44317e-07
-1.31879e-07
1.57727e-07
-1.48766e-07
1.71557e-07
-1.64549e-07
1.8559e-07
-1.79026e-07
1.99614e-07
-1.9206e-07
2.13439e-07
-2.03579e-07
2.26908e-07
-2.13569e-07
2.39898e-07
-2.22064e-07
2.52323e-07
-2.29135e-07
2.64132e-07
-2.34877e-07
2.75303e-07