/*--------------------------------*- C++ -*----------------------------------*\
  =========                 |
  \\      /  F ield         | OpenFOAM: The Open Source CFD Toolbox
   \\    /   O peration     | Website:  https://openfoam.org
    \\  /    A nd           | Version:  6
     \\/     M anipulation  |
\*---------------------------------------------------------------------------*/
FoamFile
{
    version     2.0;
    format      ascii;
    class       volVectorField;
    location    "0.07";
    object      U;
}
// * * * * * * * * * * * * * * * * * * * * * * * * * * * * * * * * * * * * * //

dimensions      [0 1 -1 0 0 0 0];

internalField   nonuniform List<vector> 
3032
(
(0.948757 -0.405568 0)
(1.01277 -0.190685 0)
(1.01499 -0.051433 0)
(0.98393 -0.00520544 0)
(0.956314 0.00443588 0)
(0.938457 0.00412004 0)
(0.926929 0.00244599 0)
(0.919104 0.0013096 0)
(0.913641 0.00072082 0)
(0.90971 0.000414246 0)
(0.906823 0.000223759 0)
(0.904757 7.6806e-05 0)
(0.903416 -6.28547e-05 0)
(0.902818 -0.000199459 0)
(0.902783 -0.000362746 0)
(0.903919 -0.000525668 0)
(0.905302 -0.00127631 0)
(0.915921 -0.00235899 0)
(1.03698 0.0761134 0)
(1.02005 0.0532832 0)
(1.01152 0.0193236 0)
(1.00472 0.00889323 0)
(0.9987 0.00654666 0)
(0.992398 0.00504999 0)
(0.985805 0.00372962 0)
(0.979959 0.00279573 0)
(0.97537 0.0021652 0)
(0.971902 0.00169287 0)
(0.969299 0.00130315 0)
(0.967407 0.000958143 0)
(0.966134 0.000622472 0)
(0.965467 0.000277524 0)
(0.965477 -0.00014861 0)
(0.966485 -0.00071927 0)
(0.968262 -0.00233475 0)
(0.971965 -0.00500307 0)
(0.998332 0.0132006 0)
(0.995418 0.0118941 0)
(1.00102 0.00628604 0)
(1.00237 0.0063298 0)
(1.00203 0.00674633 0)
(1.00058 0.00596533 0)
(0.99783 0.00479775 0)
(0.99469 0.00379424 0)
(0.991892 0.00300677 0)
(0.989637 0.00236198 0)
(0.987915 0.00180775 0)
(0.986699 0.00130412 0)
(0.985973 0.0008062 0)
(0.985745 0.000266781 0)
(0.986044 -0.000409786 0)
(0.987033 -0.00135334 0)
(0.988486 -0.00321567 0)
(0.99036 -0.00630946 0)
(0.995106 -0.00696876 0)
(0.992553 0.00116942 0)
(0.998824 0.00376913 0)
(1.0013 0.00568337 0)
(1.00245 0.00666298 0)
(1.0029 0.0062895 0)
(1.00216 0.00536061 0)
(1.00075 0.00442604 0)
(0.999273 0.00359852 0)
(0.997996 0.00286014 0)
(0.997008 0.00218622 0)
(0.996358 0.00154569 0)
(0.996073 0.000893904 0)
(0.99618 0.000174955 0)
(0.996693 -0.000713189 0)
(0.997671 -0.0019089 0)
(0.998895 -0.00385676 0)
(1.00006 -0.00666923 0)
(0.996673 -0.00696646 0)
(0.993896 0.000713889 0)
(0.998296 0.00352777 0)
(1.00057 0.00519653 0)
(1.00221 0.00626348 0)
(1.00352 0.00619099 0)
(1.00391 0.00551925 0)
(1.00363 0.00471711 0)
(1.00312 0.00391841 0)
(1.00262 0.00314308 0)
(1.00225 0.00239054 0)
(1.00209 0.00164184 0)
(1.00218 0.000858074 0)
(1.00257 -1.63203e-05 0)
(1.00326 -0.00107539 0)
(1.00424 -0.00243832 0)
(1.00534 -0.00437726 0)
(1.00621 -0.00689613 0)
(0.997832 -0.00418552 0)
(0.995237 0.00113038 0)
(0.998125 0.00319624 0)
(1.00009 0.00460764 0)
(1.00188 0.00568469 0)
(1.00356 0.00582061 0)
(1.00457 0.00536971 0)
(1.00502 0.00470993 0)
(1.00521 0.0039725 0)
(1.00531 0.00319744 0)
(1.00545 0.00240002 0)
(1.00569 0.00157197 0)
(1.00611 0.000682394 0)
(1.00674 -0.000317752 0)
(1.00757 -0.00150628 0)
(1.00858 -0.00297316 0)
(1.00962 -0.0048681 0)
(1.01041 -0.00714756 0)
(0.998457 -0.00261979 0)
(0.996299 0.000993795 0)
(0.998213 0.00269809 0)
(0.999883 0.00399345 0)
(1.00162 0.00503277 0)
(1.0034 0.00529311 0)
(1.00474 0.00500874 0)
(1.00565 0.0044729 0)
(1.00632 0.00380291 0)
(1.00687 0.00304609 0)
(1.0074 0.00222569 0)
(1.00798 0.001341 0)
(1.00866 0.000369341 0)
(1.00948 -0.000728735 0)
(1.01043 -0.00201188 0)
(1.01149 -0.00354061 0)
(1.01252 -0.00538514 0)
(1.01334 -0.00748542 0)
(0.998891 -0.00179235 0)
(0.997211 0.000763626 0)
(0.998491 0.00225041 0)
(0.99988 0.00341854 0)
(1.00147 0.00436432 0)
(1.0032 0.00467833 0)
(1.00469 0.00450547 0)
(1.00586 0.00406409 0)
(1.00685 0.00345295 0)
(1.00772 0.00271871 0)
(1.00854 0.00188689 0)
(1.00938 0.000961449 0)
(1.01027 -7.29257e-05 0)
(1.01124 -0.00124533 0)
(1.01229 -0.0025961 0)
(1.01339 -0.00416087 0)
(1.01445 -0.00596271 0)
(1.01534 -0.00794359 0)
(0.999241 -0.0011935 0)
(0.997997 0.000636908 0)
(0.998858 0.00189388 0)
(1.00001 0.0028945 0)
(1.00142 0.00370754 0)
(1.00304 0.00401965 0)
(1.00455 0.00390816 0)
(1.00586 0.00352867 0)
(1.00703 0.00296021 0)
(1.00811 0.00224425 0)
(1.00914 0.00140501 0)
(1.01016 0.000448863 0)
(1.0112 -0.000633464 0)
(1.01229 -0.00186153 0)
(1.01341 -0.0032603 0)
(1.01455 -0.00484699 0)
(1.01564 -0.00662021 0)
(1.01662 -0.00853342 0)
(0.99951 -0.000723526 0)
(0.998644 0.000579822 0)
(0.999242 0.00159849 0)
(1.0002 0.00241581 0)
(1.00145 0.00307653 0)
(1.00292 0.00334519 0)
(1.00439 0.00325217 0)
(1.00574 0.00290304 0)
(1.00701 0.00235801 0)
(1.00821 0.0016512 0)
(1.00936 0.000803541 0)
(1.0105 -0.000177817 0)
(1.01165 -0.00129758 0)
(1.01281 -0.00256748 0)
(1.01398 -0.00400092 0)
(1.01514 -0.0056032 0)
(1.01626 -0.00736284 0)
(1.0173 -0.00924767 0)
(0.9997 -0.000387483 0)
(0.99915 0.000537921 0)
(0.9996 0.00133532 0)
(1.00041 0.00197284 0)
(1.00152 0.00247537 0)
(1.00285 0.00267128 0)
(1.00423 0.00256203 0)
(1.00557 0.00221514 0)
(1.00686 0.00167408 0)
(1.00812 0.000965044 0)
(1.00934 0.000104863 0)
(1.01054 -0.000899641 0)
(1.01173 -0.00205004 0)
(1.01293 -0.00335225 0)
(1.01411 -0.00481195 0)
(1.01527 -0.0064278 0)
(1.0164 -0.00818645 0)
(1.01748 -0.0100688 0)
(0.999817 -0.000186734 0)
(0.999494 0.000490223 0)
(0.999878 0.00110634 0)
(1.0006 0.00158939 0)
(1.00159 0.00195016 0)
(1.0028 0.00206297 0)
(1.00409 0.0019156 0)
(1.00538 0.00155017 0)
(1.00666 0.000997123 0)
(1.00791 0.000275908 0)
(1.00914 -0.000600503 0)
(1.01036 -0.00162617 0)
(1.01156 -0.00280091 0)
(1.01275 -0.00412714 0)
(1.01392 -0.0056063 0)
(1.01507 -0.00723443 0)
(1.01618 -0.00899978 0)
(1.01726 -0.0108925 0)
(0.999897 -6.39496e-05 0)
(0.999748 0.000427472 0)
(1.0001 0.000881274 0)
(1.00076 0.00122123 0)
(1.00166 0.00144752 0)
(1.00276 0.00147007 0)
(1.00395 0.00127072 0)
(1.00518 0.000873253 0)
(1.00641 0.000297422 0)
(1.00763 -0.000443308 0)
(1.00884 -0.00133953 0)
(1.01004 -0.00238643 0)
(1.01121 -0.00358289 0)
(1.01238 -0.00492915 0)
(1.01351 -0.00642424 0)
(1.01462 -0.00806341 0)
(1.0157 -0.0098378 0)
(1.01675 -0.0117455 0)
(0.999954 4.15189e-06 0)
(0.999944 0.000329998 0)
(1.00029 0.000622679 0)
(1.0009 0.000813799 0)
(1.00171 0.000896933 0)
(1.0027 0.000813012 0)
(1.00378 0.000542401 0)
(1.00492 9.52042e-05 0)
(1.00608 -0.000517712 0)
(1.00724 -0.00128846 0)
(1.00839 -0.00221121 0)
(1.00953 -0.00328264 0)
(1.01065 -0.00450138 0)
(1.01175 -0.00586654 0)
(1.01282 -0.00737613 0)
(1.01385 -0.00902579 0)
(1.01486 -0.01081 0)
(1.01583 -0.0127327 0)
(0.999989 1.8249e-05 0)
(1.00007 0.000186724 0)
(1.00042 0.000318458 0)
(1.00098 0.000358054 0)
(1.00172 0.000294561 0)
(1.0026 9.26285e-05 0)
(1.00357 -0.000265317 0)
(1.0046 -0.000778049 0)
(1.00565 -0.00144133 0)
(1.00671 -0.00225183 0)
(1.00777 -0.0032069 0)
(1.00881 -0.00430487 0)
(1.00983 -0.0055447 0)
(1.01083 -0.00692527 0)
(1.01179 -0.00844457 0)
(1.01271 -0.0100992 0)
(1.0136 -0.0118864 0)
(1.01445 -0.0138135 0)
(1.00001 -1.40571e-05 0)
(1.00014 -5.10224e-06 0)
(1.00048 -3.76202e-05 0)
(1.001 -0.000151749 0)
(1.00166 -0.000360983 0)
(1.00243 -0.000686052 0)
(1.00329 -0.00114081 0)
(1.00419 -0.00172878 0)
(1.00511 -0.00245023 0)
(1.00605 -0.00330513 0)
(1.00697 -0.00429334 0)
(1.00787 -0.00541471 0)
(1.00875 -0.0066689 0)
(1.0096 -0.0080551 0)
(1.0104 -0.00957176 0)
(1.01116 -0.0112164 0)
(1.01187 -0.0129878 0)
(1.01253 -0.0148939 0)
(1.00001 -7.96285e-05 0)
(1.00016 -0.000239518 0)
(1.00048 -0.000441495 0)
(1.00094 -0.000712108 0)
(1.00152 -0.00106424 0)
(1.00218 -0.00151116 0)
(1.00291 -0.00206347 0)
(1.00367 -0.0027268 0)
(1.00445 -0.00350427 0)
(1.00522 -0.00439816 0)
(1.00597 -0.0054102 0)
(1.0067 -0.00654148 0)
(1.00739 -0.00779243 0)
(1.00804 -0.0091627 0)
(1.00864 -0.0106512 0)
(1.00918 -0.0122558 0)
(1.00966 -0.0139755 0)
(1.01009 -0.015817 0)
(1.00001 -0.000162852 0)
(1.00015 -0.000500048 0)
(1.00042 -0.000875379 0)
(1.00081 -0.00130387 0)
(1.00129 -0.0017942 0)
(1.00184 -0.00235552 0)
(1.00243 -0.0029962 0)
(1.00304 -0.00372266 0)
(1.00365 -0.00453998 0)
(1.00424 -0.00545235 0)
(1.0048 -0.00646301 0)
(1.00531 -0.0075742 0)
(1.00578 -0.00878709 0)
(1.0062 -0.0101018 0)
(1.00655 -0.0115174 0)
(1.00683 -0.013032 0)
(1.00704 -0.014644 0)
(1.00718 -0.0163577 0)
(1.00001 -0.000246901 0)
(1.00011 -0.000759407 0)
(1.00031 -0.00130725 0)
(1.00061 -0.00188986 0)
(1.00099 -0.00250808 0)
(1.00142 -0.00316748 0)
(1.00187 -0.00387427 0)
(1.00232 -0.00463506 0)
(1.00276 -0.00545684 0)
(1.00316 -0.00634591 0)
(1.00351 -0.00730732 0)
(1.0038 -0.00834468 0)
(1.00403 -0.00946021 0)
(1.00418 -0.0106548 0)
(1.00426 -0.0119279 0)
(1.00427 -0.0132779 0)
(1.00419 -0.014703 0)
(1.00403 -0.0162051 0)
(1 -0.00028869 0)
(1.00002 -0.000920869 0)
(1.00014 -0.00160664 0)
(1.00036 -0.00231194 0)
(1.00066 -0.00302783 0)
(1.00101 -0.00375521 0)
(1.00138 -0.0044948 0)
(1.00174 -0.00525229 0)
(1.00207 -0.00603719 0)
(1.00234 -0.00685887 0)
(1.00255 -0.00772496 0)
(1.00268 -0.00864136 0)
(1.00273 -0.00961224 0)
(1.0027 -0.01064 0)
(1.00258 -0.0117254 0)
(1.00236 -0.0128679 0)
(1.00206 -0.0140659 0)
(1.00166 -0.0153204 0)
(0.999975 -0.000251728 0)
(0.999855 -0.000948478 0)
(0.999859 -0.00175935 0)
(1.00002 -0.00257424 0)
(1.00029 -0.00337946 0)
(1.00063 -0.00416806 0)
(1.00099 -0.00492929 0)
(1.00134 -0.00566885 0)
(1.00164 -0.00640185 0)
(1.00186 -0.00714251 0)
(1.00199 -0.00790237 0)
(1.00203 -0.0086907 0)
(1.00197 -0.00951448 0)
(1.0018 -0.0103783 0)
(1.00153 -0.0112847 0)
(1.00116 -0.0122343 0)
(1.00069 -0.0132265 0)
(1.00013 -0.0142618 0)
(0.999904 -8.57616e-05 0)
(0.999504 -0.000835481 0)
(0.999377 -0.00181478 0)
(0.99953 -0.00276696 0)
(0.999835 -0.00369078 0)
(1.00024 -0.00455746 0)
(1.00068 -0.00533668 0)
(1.00108 -0.00604201 0)
(1.00139 -0.00670174 0)
(1.0016 -0.0073387 0)
(1.00168 -0.00797069 0)
(1.00164 -0.00861224 0)
(1.00148 -0.00927427 0)
(1.00118 -0.00996408 0)
(1.00078 -0.0106861 0)
(1.00025 -0.0114423 0)
(0.999623 -0.0122329 0)
(0.998893 -0.0130582 0)
(0.999755 0.00026375 0)
(0.998861 -0.000610359 0)
(0.998626 -0.00183189 0)
(0.99887 -0.00295892 0)
(0.999316 -0.00404753 0)
(0.999896 -0.00500892 0)
(1.0005 -0.00578779 0)
(1.001 -0.00642612 0)
(1.00134 -0.00697781 0)
(1.00152 -0.00747874 0)
(1.00153 -0.00795551 0)
(1.00138 -0.00842947 0)
(1.00108 -0.00891591 0)
(1.00063 -0.00942458 0)
(1.00005 -0.00996121 0)
(0.999343 -0.0105286 0)
(0.998531 -0.0111272 0)
(0.997618 -0.0117567 0)
(0.999505 0.000914898 0)
(0.997824 -0.000365703 0)
(0.997618 -0.00193643 0)
(0.998128 -0.00325286 0)
(0.998849 -0.00453746 0)
(0.999716 -0.00557963 0)
(1.00053 -0.00630508 0)
(1.00112 -0.00681739 0)
(1.00144 -0.00720954 0)
(1.00152 -0.00753321 0)
(1.00138 -0.00782491 0)
(1.00104 -0.00811271 0)
(1.00051 -0.00841501 0)
(0.999834 -0.00874231 0)
(0.999021 -0.00910006 0)
(0.998088 -0.0094905 0)
(0.997051 -0.00991333 0)
(0.995921 -0.0103671 0)
(0.998975 0.00250686 0)
(0.996176 7.94695e-05 0)
(0.996442 -0.0021768 0)
(0.997511 -0.00374337 0)
(0.998634 -0.00522624 0)
(0.999851 -0.0062772 0)
(1.00085 -0.00685072 0)
(1.00141 -0.00715259 0)
(1.00156 -0.00732304 0)
(1.00139 -0.00742814 0)
(1.00094 -0.00751199 0)
(1.00026 -0.00760611 0)
(0.999409 -0.00772825 0)
(0.998407 -0.00788636 0)
(0.997284 -0.00808312 0)
(0.996058 -0.00831838 0)
(0.994746 -0.00858985 0)
(0.993361 -0.00889419 0)
(0.997452 0.00612605 0)
(0.993388 0.0014427 0)
(0.995172 -0.00221606 0)
(0.997301 -0.00436369 0)
(0.99893 -0.00608552 0)
(1.00044 -0.00702161 0)
(1.00141 -0.00730883 0)
(1.00167 -0.00730509 0)
(1.00137 -0.0071972 0)
(1.00068 -0.00705838 0)
(0.999707 -0.00693262 0)
(0.998529 -0.00684725 0)
(0.997203 -0.00681304 0)
(0.99577 -0.00683092 0)
(0.994257 -0.00689803 0)
(0.992679 -0.00701026 0)
(0.991047 -0.00716258 0)
(0.989377 -0.00734942 0)
(0.994435 0.00857763 0)
(0.989403 0.00225409 0)
(0.993984 -0.0020447 0)
(0.997749 -0.0049613 0)
(0.999945 -0.00695325 0)
(1.00146 -0.00761082 0)
(1.00193 -0.00746891 0)
(1.00136 -0.0070855 0)
(1.00014 -0.00667847 0)
(0.99856 -0.00631025 0)
(0.996788 -0.00601006 0)
(0.994904 -0.0057899 0)
(0.992967 -0.00564648 0)
(0.991005 -0.00556993 0)
(0.989034 -0.00555028 0)
(0.987057 -0.00557923 0)
(0.985076 -0.00564941 0)
(0.983099 -0.00575268 0)
(0.994524 -0.00666595 0)
(0.989448 -0.00857672 0)
(0.99535 -0.00538022 0)
(0.999718 -0.00635579 0)
(1.00186 -0.00780212 0)
(1.00247 -0.00781882 0)
(1.00135 -0.00709904 0)
(0.998984 -0.00631918 0)
(0.996126 -0.00566456 0)
(0.993184 -0.00514432 0)
(0.990299 -0.00474977 0)
(0.987512 -0.00446782 0)
(0.984838 -0.00427835 0)
(0.982269 -0.0041609 0)
(0.97979 -0.00409981 0)
(0.977383 -0.00408454 0)
(0.975035 -0.00410782 0)
(0.972739 -0.00415648 0)
(1.02649 -0.0702356 0)
(1.01707 -0.0624197 0)
(1.01175 -0.0292724 0)
(1.00824 -0.0149586 0)
(1.00522 -0.0104537 0)
(1.00106 -0.00800693 0)
(0.995459 -0.00618109 0)
(0.989428 -0.00495161 0)
(0.983846 -0.0041686 0)
(0.978942 -0.00365027 0)
(0.974616 -0.00329448 0)
(0.97074 -0.00305205 0)
(0.967217 -0.00289151 0)
(0.963969 -0.00278951 0)
(0.960932 -0.00273072 0)
(0.958055 -0.00270745 0)
(0.955312 -0.0027184 0)
(0.952687 -0.00278461 0)
(0.966188 0.350229 0)
(1.02689 0.194259 0)
(1.03258 0.0678927 0)
(1.00427 0.015221 0)
(0.975783 -0.00133105 0)
(0.955433 -0.00440187 0)
(0.941187 -0.00370718 0)
(0.930752 -0.00258297 0)
(0.922835 -0.00179332 0)
(0.916552 -0.00133251 0)
(0.911277 -0.00107818 0)
(0.906638 -0.000941869 0)
(0.902437 -0.000872486 0)
(0.898553 -0.000841485 0)
(0.894902 -0.000833488 0)
(0.891421 -0.000842734 0)
(0.888052 -0.000865202 0)
(0.88475 -0.000950986 0)
(0.00469956 -0.0179247 -2.38238e-21)
(0.0106278 -0.00382339 2.23337e-21)
(0.00545362 0.00949787 0)
(-0.00582896 0.0166481 0)
(-0.0203034 0.0199172 0)
(-0.0366601 0.0215031 -1.91044e-21)
(-0.0542078 0.0223747 0)
(-0.0725314 0.0228941 0)
(-0.0913463 0.0231946 0)
(-0.110438 0.0233169 0)
(-0.129621 0.0232639 1.65759e-21)
(-0.148724 0.0230269 0)
(-0.167578 0.0225965 0)
(-0.18602 0.0219674 0)
(-0.20389 0.0211398 0)
(-0.221036 0.0201192 1.54287e-21)
(-0.237316 0.0189155 0)
(-0.252599 0.0175421 0)
(-0.266765 0.0160145 0)
(-0.279708 0.0143497 0)
(-0.291334 0.0125656 0)
(-0.301561 0.0106809 0)
(-0.310319 0.00871638 0)
(-0.31755 0.00669622 1.31209e-21)
(-0.323211 0.00465115 -1.26406e-21)
(-0.327277 0.0026225 1.21018e-21)
(-0.329712 0.000670506 1.14993e-21)
(-0.330463 -0.00113936 0)
(-0.329692 -0.00278601 0)
(-0.327519 -0.00430862 -9.21701e-22)
(-0.323976 -0.005753 -8.30519e-22)
(-0.319107 -0.00713957 0)
(-0.312951 -0.00847659 0)
(-0.305544 -0.00976645 -5.11375e-22)
(-0.296924 -0.0110084 0)
(-0.287132 -0.0122002 0)
(-0.276215 -0.0133386 1.24018e-22)
(-0.264224 -0.0144203 0)
(-0.251215 -0.0154419 -1.70909e-22)
(-0.237248 -0.0164002 -6.57761e-22)
(-0.222388 -0.0172923 0)
(-0.206706 -0.0181155 0)
(-0.190274 -0.0188673 0)
(-0.173166 -0.0195446 0)
(-0.00973583 -0.0114978 6.36283e-21)
(-0.015708 0.0128687 -4.89947e-21)
(-0.0267849 0.0299155 0)
(-0.0407078 0.0416893 2.40795e-21)
(-0.0563386 0.0491851 0)
(-0.073251 0.0537152 1.08914e-21)
(-0.091091 0.056299 -2.05061e-21)
(-0.10945 0.0575794 -1.98957e-21)
(-0.127953 0.0579329 0)
(-0.146295 0.0575737 -1.90979e-21)
(-0.164231 0.056625 -9.63035e-22)
(-0.181562 0.0551637 0)
(-0.198129 0.0532462 0)
(-0.213805 0.0509217 0)
(-0.228491 0.0482372 0)
(-0.242111 0.0452397 -9.19748e-22)
(-0.254607 0.0419759 0)
(-0.26594 0.0384914 1.79174e-21)
(-0.276085 0.0348297 0)
(-0.28503 0.0310312 0)
(-0.292772 0.0271328 -1.71941e-21)
(-0.299316 0.0231678 0)
(-0.304677 0.0191658 1.64239e-21)
(-0.308874 0.015154 -7.83649e-22)
(-0.311935 0.0111589 7.52458e-22)
(-0.313889 0.00721146 -7.1759e-22)
(-0.314767 0.00335206 -6.7895e-22)
(-0.314621 -0.000370857 0)
(-0.313385 -0.00393423 0)
(-0.310957 -0.0073496 5.3487e-22)
(-0.307317 -0.0106328 -5.52676e-22)
(-0.302461 -0.0137919 0)
(-0.296398 -0.0168271 0)
(-0.289147 -0.0197336 2.88298e-22)
(-0.280736 -0.0225037 0)
(-0.271201 -0.0251286 0)
(-0.260583 -0.0275988 -6.81375e-23)
(-0.24893 -0.0299053 0)
(-0.236295 -0.0320398 4.15154e-23)
(-0.222735 -0.0339954 3.51209e-22)
(-0.208312 -0.0357664 0)
(-0.193093 -0.0373487 0)
(-0.177146 -0.03874 1.43223e-21)
(-0.160542 -0.039939 1.7807e-21)
(-0.0158041 0.0193799 -1.72637e-22)
(-0.0271996 0.0435223 5.34871e-21)
(-0.0410084 0.0601202 0)
(-0.0560075 0.0723492 -3.62304e-21)
(-0.0711996 0.0809462 0)
(-0.0865177 0.0865607 0)
(-0.102036 0.0898117 -2.23675e-23)
(-0.117673 0.0912107 1.42712e-21)
(-0.133263 0.0911513 1.41582e-21)
(-0.148633 0.0899244 1.36706e-21)
(-0.16363 0.0877436 0)
(-0.178126 0.08477 0)
(-0.192021 0.0811317 -1.34713e-21)
(-0.205233 0.0769363 -2.67672e-21)
(-0.217699 0.072278 2.66073e-21)
(-0.229369 0.0672411 0)
(-0.240205 0.0619017 2.62571e-21)
(-0.250171 0.0563281 -1.27955e-21)
(-0.25924 0.0505813 0)
(-0.267385 0.0447157 2.54299e-21)
(-0.274584 0.0387789 1.22571e-21)
(-0.280813 0.0328131 -2.45451e-21)
(-0.286051 0.0268555 -1.16912e-21)
(-0.290278 0.0209394 0)
(-0.293471 0.015094 2.25661e-21)
(-0.295604 0.00934416 2.17119e-21)
(-0.296647 0.00370637 0)
(-0.296567 -0.00181764 1.964e-21)
(-0.295336 -0.00723035 0)
(-0.292935 -0.0125202 1.70872e-21)
(-0.28936 -0.017669 7.23843e-22)
(-0.284612 -0.0226571 0)
(-0.278702 -0.0274655 0)
(-0.271647 -0.0320749 0)
(-0.263474 -0.0364665 0)
(-0.254213 -0.0406219 0)
(-0.243906 -0.0445239 0)
(-0.232596 -0.0481564 3.13508e-22)
(-0.220335 -0.0515057 -7.09691e-23)
(-0.207178 -0.05456 0)
(-0.193186 -0.0573105 0)
(-0.178422 -0.0597508 0)
(-0.162954 -0.0618777 -1.95313e-22)
(-0.146851 -0.0636904 -1.19563e-21)
(-0.0166841 0.0581065 -1.03594e-20)
(-0.0299387 0.0795929 -7.0887e-21)
(-0.0447447 0.0936378 -3.64783e-21)
(-0.0601583 0.104165 -1.60061e-21)
(-0.0751267 0.111826 0)
(-0.0895742 0.116929 2.65689e-21)
(-0.103705 0.119785 -1.3192e-21)
(-0.117618 0.120712 0)
(-0.13131 0.120013 -1.14222e-21)
(-0.144733 0.117952 0)
(-0.157823 0.114759 2.31086e-21)
(-0.170516 0.110623 0)
(-0.182749 0.105701 1.08554e-21)
(-0.194466 0.100128 2.15834e-21)
(-0.205616 0.094018 -2.14727e-21)
(-0.21615 0.0874703 0)
(-0.226023 0.0805699 -2.12362e-21)
(-0.235192 0.0733909 0)
(-0.243613 0.0659974 0)
(-0.251245 0.0584451 -2.06491e-21)
(-0.258046 0.0507824 0)
(-0.263974 0.0430513 -8.84637e-23)
(-0.268987 0.0352891 0)
(-0.273044 0.0275289 0)
(-0.276107 0.0198005 9.3416e-23)
(-0.278135 0.0121309 -1.77588e-21)
(-0.279094 0.00454395 -1.79703e-21)
(-0.278952 -0.0029405 -1.60714e-21)
(-0.277688 -0.0103031 0)
(-0.275289 -0.01752 -2.90107e-21)
(-0.271748 -0.0245636 0)
(-0.267067 -0.0314041 -1.2655e-21)
(-0.261254 -0.0380114 0)
(-0.254327 -0.0443556 0)
(-0.246309 -0.0504073 8.49792e-22)
(-0.237231 -0.0561386 0)
(-0.227131 -0.0615236 -5.39398e-22)
(-0.216054 -0.0665388 1.2145e-22)
(-0.20405 -0.071164 2.93787e-22)
(-0.191176 -0.0753823 -7.27451e-23)
(-0.177492 -0.079181 0)
(-0.163062 -0.0825515 0)
(-0.147952 -0.0854894 3.70241e-22)
(-0.132232 -0.0879941 0)
(-0.0159607 0.0986722 6.48167e-21)
(-0.0294979 0.116712 4.38649e-21)
(-0.0443146 0.127596 3.31906e-21)
(-0.0595149 0.13565 2.79583e-21)
(-0.0740821 0.14149 0)
(-0.0878796 0.145261 -4.76805e-21)
(-0.101105 0.147096 -1.29835e-22)
(-0.113907 0.147161 0)
(-0.126357 0.145649 0)
(-0.138476 0.142759 0)
(-0.150258 0.138681 -1.99192e-21)
(-0.161683 0.133589 0)
(-0.172718 0.127637 0)
(-0.183325 0.120958 0)
(-0.193463 0.113669 0)
(-0.203088 0.10587 0)
(-0.212155 0.0976497 2.03301e-21)
(-0.220615 0.0890824 2.02091e-21)
(-0.228421 0.0802342 0)
(-0.235522 0.0711624 0)
(-0.241868 0.0619175 -1.96526e-21)
(-0.247408 0.0525445 3.76899e-21)
(-0.252094 0.0430843 0)
(-0.255875 0.0335746 1.86318e-21)
(-0.258707 0.0240511 -1.70935e-21)
(-0.260544 0.0145479 0)
(-0.261349 0.0050985 4.9845e-21)
(-0.261089 -0.00426396 -3.23953e-21)
(-0.259739 -0.0135055 3.06797e-21)
(-0.257283 -0.0225888 1.33233e-21)
(-0.253711 -0.0314739 0)
(-0.249022 -0.0401191 3.58024e-21)
(-0.243223 -0.0484821 0)
(-0.236329 -0.056521 0)
(-0.228362 -0.0641952 -7.53118e-22)
(-0.219354 -0.0714662 1.44411e-21)
(-0.209345 -0.0782987 1.63868e-21)
(-0.19838 -0.0846608 -1.20144e-21)
(-0.186513 -0.0905254 -1.84103e-22)
(-0.1738 -0.0958706 6.42943e-23)
(-0.160304 -0.10068 0)
(-0.146093 -0.104942 0)
(-0.131233 -0.108652 -1.88493e-22)
(-0.115795 -0.111811 0)
(-0.0147684 0.137812 0)
(-0.0278671 0.152727 -4.53779e-21)
(-0.0421417 0.160638 0)
(-0.0566988 0.16619 0)
(-0.0706149 0.16999 0)
(-0.0837106 0.172124 -1.51923e-22)
(-0.0961407 0.172637 -1.48525e-22)
(-0.108051 0.171602 -2.17338e-21)
(-0.11953 0.169127 0)
(-0.130631 0.165345 0)
(-0.141379 0.160398 0)
(-0.151779 0.154424 0)
(-0.16182 0.147555 0)
(-0.171481 0.139911 -3.99107e-21)
(-0.180732 0.131597 0)
(-0.189534 0.122709 3.95858e-21)
(-0.197847 0.113329 -1.84745e-21)
(-0.205623 0.10353 -1.84035e-21)
(-0.212813 0.0933752 0)
(-0.219364 0.082922 0)
(-0.225223 0.0722217 1.80124e-21)
(-0.230335 0.0613216 -1.77939e-21)
(-0.234645 0.0502661 0)
(-0.238099 0.0390984 -1.71804e-21)
(-0.240648 0.027861 3.58976e-21)
(-0.242241 0.016597 0)
(-0.242838 0.00535095 -3.14599e-21)
(-0.2424 -0.00583135 3.00479e-21)
(-0.240899 -0.0169018 -2.84813e-21)
(-0.238313 -0.0278093 0)
(-0.234628 -0.0384999 0)
(-0.22984 -0.048918 -2.28624e-21)
(-0.223955 -0.0590077 0)
(-0.216986 -0.0687135 0)
(-0.208958 -0.0779818 1.80072e-21)
(-0.199904 -0.0867623 -2.88484e-21)
(-0.189865 -0.0950087 -1.07983e-21)
(-0.178892 -0.10268 1.80116e-21)
(-0.16704 -0.109743 -7.08089e-22)
(-0.154373 -0.116169 0)
(-0.140957 -0.121938 0)
(-0.126862 -0.127038 0)
(-0.11216 -0.131464 -6.34562e-22)
(-0.0969238 -0.135218 0)
(-0.0134319 0.174262 0)
(-0.0257295 0.186582 4.36166e-21)
(-0.0391395 0.191886 0)
(-0.0527737 0.195135 5.82697e-21)
(-0.0658181 0.196949 5.17775e-21)
(-0.0780751 0.197401 -2.55808e-21)
(-0.0896582 0.196498 -2.42155e-21)
(-0.100691 0.194263 -2.32874e-21)
(-0.111262 0.190749 -4.22613e-21)
(-0.121431 0.186036 0)
(-0.131236 0.180219 0)
(-0.140697 0.173401 4.03949e-21)
(-0.149819 0.165684 0)
(-0.158592 0.157166 7.70915e-21)
(-0.166995 0.147936 0)
(-0.174999 0.138076 -3.70062e-21)
(-0.182566 0.127659 0)
(-0.189652 0.116751 0)
(-0.19621 0.10541 3.93545e-21)
(-0.202186 0.093692 0)
(-0.207526 0.0816459 3.88923e-21)
(-0.212171 0.06932 0)
(-0.216063 0.0567617 0)
(-0.219145 0.0440189 0)
(-0.22136 0.031141 2.55289e-22)
(-0.222656 0.0181803 0)
(-0.222984 0.00519216 0)
(-0.222301 -0.00776477 0)
(-0.220574 -0.0206282 0)
(-0.217775 -0.033332 0)
(-0.213887 -0.0458065 0)
(-0.208902 -0.05798 -2.63092e-21)
(-0.202826 -0.0697802 0)
(-0.195673 -0.0811358 2.17982e-21)
(-0.187469 -0.0919782 2.0451e-22)
(-0.178251 -0.102243 1.48024e-21)
(-0.168066 -0.111872 0)
(-0.15697 -0.120815 -9.53633e-22)
(-0.145025 -0.129029 6.79293e-22)
(-0.132301 -0.136481 0)
(-0.118871 -0.143149 0)
(-0.104811 -0.149019 0)
(-0.090197 -0.154088 0)
(-0.0751064 -0.158363 0)
(-0.0120605 0.20758 1.48635e-20)
(-0.023345 0.217757 0)
(-0.0356765 0.220803 0)
(-0.0481842 0.221995 -1.16626e-20)
(-0.0601635 0.221972 -4.95904e-21)
(-0.0714185 0.220813 -3.51791e-22)
(-0.0820313 0.218515 4.30239e-21)
(-0.0921039 0.215074 -3.16193e-22)
(-0.101714 0.21051 4.00894e-21)
(-0.11092 0.204864 0)
(-0.119766 0.198194 0)
(-0.128279 0.190568 -3.8362e-21)
(-0.136471 0.18206 0)
(-0.144342 0.172742 -3.80191e-21)
(-0.151878 0.162683 0)
(-0.159057 0.15195 0)
(-0.165846 0.140602 0)
(-0.172206 0.128694 0)
(-0.17809 0.116277 -3.78541e-21)
(-0.183446 0.1034 0)
(-0.188217 0.0901102 -3.75734e-21)
(-0.192344 0.0764539 0)
(-0.195765 0.0624796 0)
(-0.198418 0.0482389 -3.91833e-21)
(-0.20024 0.0337872 -3.58082e-21)
(-0.201173 0.0191853 -3.77424e-21)
(-0.201163 0.00449986 -3.67328e-21)
(-0.200161 -0.0101978 0)
(-0.198126 -0.0248302 -3.38642e-21)
(-0.195025 -0.0393142 -3.21607e-21)
(-0.190838 -0.0535621 -3.02772e-21)
(-0.185556 -0.0674831 2.58344e-21)
(-0.179182 -0.0809856 0)
(-0.171734 -0.0939794 -2.14182e-21)
(-0.163242 -0.106378 2.09186e-22)
(-0.153749 -0.118101 1.84543e-21)
(-0.14331 -0.129076 1.57103e-21)
(-0.131988 -0.139242 0)
(-0.119856 -0.148548 -9.99318e-22)
(-0.106992 -0.156957 0)
(-0.0934778 -0.164443 0)
(-0.0793964 -0.170995 2.27502e-22)
(-0.0648307 -0.176614 -3.6369e-22)
(-0.0498611 -0.18131 0)
(-0.0106815 0.237544 -1.44513e-20)
(-0.0207929 0.245929 -1.06502e-20)
(-0.0318752 0.247009 0)
(-0.0430835 0.246377 5.90358e-21)
(-0.0538173 0.244689 0)
(-0.0638957 0.242039 -3.53932e-22)
(-0.0733802 0.238422 4.80875e-21)
(-0.0823546 0.233825 4.29212e-21)
(-0.0908864 0.228247 0)
(-0.0990301 0.2217 4.37e-21)
(-0.106829 0.214214 0)
(-0.114313 0.20583 0)
(-0.121502 0.196591 0)
(-0.128398 0.186547 4.23478e-21)
(-0.134998 0.175745 0)
(-0.141281 0.164233 0)
(-0.147222 0.152055 -4.24332e-21)
(-0.152784 0.139252 0)
(-0.157922 0.125865 0)
(-0.162585 0.111934 4.25472e-21)
(-0.166716 0.0975002 0)
(-0.170252 0.0826064 4.23265e-21)
(-0.173129 0.0673005 0)
(-0.175279 0.0516357 8.04365e-21)
(-0.176633 0.0356722 -4.11144e-21)
(-0.177127 0.0194789 -2.88624e-22)
(-0.176699 0.00313315 -2.86417e-22)
(-0.175292 -0.01328 3.80761e-21)
(-0.17286 -0.0296663 3.3779e-21)
(-0.169363 -0.0459236 6.69101e-21)
(-0.164779 -0.0619428 -2.60319e-22)
(-0.159095 -0.0776103 0)
(-0.152317 -0.0928115 0)
(-0.144467 -0.107433 5.18001e-21)
(-0.13558 -0.121368 -2.11033e-21)
(-0.12571 -0.134516 -1.84577e-21)
(-0.11492 -0.146789 -1.57073e-21)
(-0.103288 -0.158115 0)
(-0.0908966 -0.168434 3.31832e-21)
(-0.0778361 -0.177706 -1.70868e-21)
(-0.0641982 -0.185906 -1.09444e-21)
(-0.0500745 -0.193027 -2.26523e-22)
(-0.0355539 -0.199074 3.61705e-22)
(-0.0207208 -0.20407 0)
(-0.00928538 0.263949 0)
(-0.0180698 0.270809 1.04962e-20)
(-0.0277393 0.270162 0)
(-0.0374778 0.26791 6.73568e-21)
(-0.0467831 0.264725 0)
(-0.0554982 0.260717 5.02049e-21)
(-0.0636722 0.255885 -4.71303e-21)
(-0.0713757 0.250212 4.80364e-21)
(-0.0786679 0.243684 0)
(-0.0855992 0.236297 -4.27747e-21)
(-0.0922115 0.228056 0)
(-0.098537 0.218977 0)
(-0.104597 0.209081 0)
(-0.110401 0.198393 -4.16191e-21)
(-0.115947 0.18694 4.43726e-21)
(-0.121223 0.174748 0)
(-0.126205 0.161843 8.66174e-21)
(-0.130861 0.148254 -4.48746e-21)
(-0.135148 0.134006 0)
(-0.139016 0.119128 -4.23205e-21)
(-0.142406 0.103653 0)
(-0.145254 0.0876181 -4.22987e-21)
(-0.14749 0.071067 -4.51123e-21)
(-0.149043 0.0540528 -8.66769e-21)
(-0.149836 0.0366392 8.57884e-21)
(-0.149798 0.0189021 4.07539e-21)
(-0.148857 0.000929778 1.25454e-20)
(-0.146951 -0.0171783 -3.85132e-21)
(-0.144023 -0.0353094 7.9824e-21)
(-0.14003 -0.0533388 -1.11496e-20)
(-0.134944 -0.0711321 3.33384e-21)
(-0.128753 -0.0885484 0)
(-0.121466 -0.105445 6.26556e-21)
(-0.113109 -0.12168 -5.26158e-21)
(-0.103731 -0.137122 -5.16319e-21)
(-0.0933941 -0.151648 0)
(-0.0821785 -0.165154 0)
(-0.0701752 -0.177552 3.31242e-21)
(-0.0574833 -0.188779 -2.35085e-21)
(-0.0442058 -0.198792 3.74618e-21)
(-0.0304459 -0.207569 2.47397e-21)
(-0.0163039 -0.215112 0)
(-0.00187514 -0.221439 0)
(0.012754 -0.226581 0)
(-0.00784605 0.286549 1.80226e-20)
(-0.015133 0.292083 -1.21687e-20)
(-0.0232118 0.289906 0)
(-0.0312944 0.286207 -6.70135e-21)
(-0.0389725 0.28168 0)
(-0.0461192 0.276446 -5.63041e-21)
(-0.0527774 0.270512 0)
(-0.0590087 0.263861 -4.75924e-21)
(-0.0648664 0.256469 0)
(-0.0703978 0.248321 4.76162e-21)
(-0.0756439 0.239403 0)
(-0.0806378 0.229711 0)
(-0.0854033 0.219244 0)
(-0.0899537 0.208006 -4.65701e-21)
(-0.0942914 0.196001 -4.42089e-21)
(-0.0984082 0.183237 0)
(-0.102285 0.16972 -4.46906e-21)
(-0.105891 0.155459 4.49754e-21)
(-0.109187 0.140467 0)
(-0.112123 0.124758 0)
(-0.11464 0.108353 0)
(-0.116672 0.0912797 0)
(-0.118145 0.0735763 4.5769e-21)
(-0.118981 0.0552932 4.56139e-21)
(-0.119097 0.0364954 -4.5291e-21)
(-0.118413 0.0172649 0)
(-0.116848 -0.00229922 -8.76678e-21)
(-0.114331 -0.0220822 9.12357e-21)
(-0.110797 -0.04195 -1.69965e-20)
(-0.106197 -0.0617518 7.83418e-21)
(-0.100499 -0.0813224 0)
(-0.0936938 -0.100488 0)
(-0.0857935 -0.119069 -6.45199e-21)
(-0.0768356 -0.136893 0)
(-0.0668808 -0.153796 5.31566e-21)
(-0.0560099 -0.16963 -5.10583e-21)
(-0.0443206 -0.184272 0)
(-0.0319226 -0.197622 -7.14015e-21)
(-0.0189324 -0.209614 0)
(-0.00546863 -0.220207 -2.06111e-21)
(0.00835466 -0.229389 -1.38624e-21)
(0.0224296 -0.237172 9.37614e-22)
(0.0366575 -0.24359 0)
(0.0509522 -0.248697 0)
(-0.00632953 0.305013 -1.77903e-20)
(-0.0119182 0.309374 1.21392e-20)
(-0.0182001 0.305829 -9.33472e-21)
(-0.0244132 0.300837 0)
(-0.0302406 0.29511 0)
(-0.0355901 0.288779 -2.61078e-22)
(-0.0405027 0.28186 0)
(-0.0450338 0.274337 0)
(-0.0492331 0.266182 0)
(-0.053146 0.257367 2.11099e-22)
(-0.0568132 0.247867 0)
(-0.060269 0.237658 0)
(-0.0635392 0.226721 0)
(-0.0666402 0.215038 4.68198e-21)
(-0.0695783 0.202594 9.87038e-21)
(-0.072349 0.189374 0)
(-0.0749365 0.175367 0)
(-0.0773143 0.160562 0)
(-0.0794446 0.144952 1.02783e-20)
(-0.0812786 0.128537 1.03859e-20)
(-0.0827572 0.111322 -1.0483e-20)
(-0.0838119 0.0933245 -1.05627e-20)
(-0.0843653 0.0745719 0)
(-0.0843333 0.0551098 0)
(-0.0836264 0.0350023 0)
(-0.0821553 0.0143363 0)
(-0.0798303 -0.0067791 0)
(-0.0765697 -0.0282122 6.3118e-22)
(-0.0723007 -0.0498048 9.15426e-21)
(-0.0669685 -0.0713744 0)
(-0.0605399 -0.0927184 0)
(-0.0530079 -0.113621 0)
(-0.0443947 -0.133862 0)
(-0.0347519 -0.153225 0)
(-0.0241584 -0.171511 0)
(-0.0127177 -0.188546 5.32012e-21)
(-0.00055141 -0.204188 0)
(0.0122111 -0.218324 3.84048e-21)
(0.0254335 -0.230889 0)
(0.0389834 -0.241851 0)
(0.0527364 -0.251215 0)
(0.0665811 -0.259015 -9.43611e-22)
(0.0804207 -0.265308 0)
(0.0941742 -0.270171 0)
(-0.00469021 0.31892 0)
(-0.00833629 0.322221 0)
(-0.0125825 0.317454 9.42316e-21)
(-0.0166799 0.311309 0)
(-0.0204038 0.304514 0)
(-0.0237007 0.297215 5.97298e-21)
(-0.0266122 0.289433 0)
(-0.0291899 0.281154 5.47656e-21)
(-0.0314815 0.272345 0)
(-0.0335315 0.262973 5.35345e-21)
(-0.0353809 0.252997 0)
(-0.0370647 0.242381 0)
(-0.0386108 0.231087 0)
(-0.0400382 0.219077 0)
(-0.0413561 0.206316 -1.00385e-20)
(-0.0425634 0.192769 1.05483e-20)
(-0.0436478 0.178403 0)
(-0.0445855 0.163188 0)
(-0.0453409 0.147097 -1.05448e-20)
(-0.0458668 0.130111 -1.0684e-20)
(-0.0461041 0.112219 -5.29285e-22)
(-0.0459827 0.0934205 1.09308e-20)
(-0.0454222 0.0737331 0)
(-0.0443334 0.0531932 0)
(-0.0426201 0.0318622 0)
(-0.0401852 0.00983042 0)
(-0.0369294 -0.012785 0)