/*--------------------------------*- C++ -*----------------------------------*\
  =========                 |
  \\      /  F ield         | OpenFOAM: The Open Source CFD Toolbox
   \\    /   O peration     | Website:  https://openfoam.org
    \\  /    A nd           | Version:  6
     \\/     M anipulation  |
\*---------------------------------------------------------------------------*/
FoamFile
{
    version     2.0;
    format      ascii;
    class       volScalarField;
    location    "0.08";
    object      epsilon;
}
// * * * * * * * * * * * * * * * * * * * * * * * * * * * * * * * * * * * * * //

dimensions      [0 2 -3 0 0 0 0];

internalField   nonuniform List<scalar> 
3032
(
5.28643
5.29749
5.29567
5.2811
5.25405
5.21497
5.16451
5.10357
5.03353
4.95654
4.87621
4.79827
4.7285
4.66664
4.60333
4.53579
4.46374
4.38751
4.30759
4.22453
4.13888
4.0512
3.96201
3.87184
3.78117
3.69047
3.60019
3.51073
3.42248
3.33578
3.25097
3.16832
3.0881
3.01052
2.93578
2.86404
2.79541
2.72999
2.66784
2.60899
2.55346
2.5012
2.45219
2.40636
2.36362
2.32387
2.28701
2.25291
2.22145
2.38765
2.39218
2.39212
2.38749
2.37837
2.36493
2.34741
2.32615
2.30158
2.27426
2.24487
2.21408
2.18233
2.15019
2.11691
2.08209
2.04574
2.00804
1.96918
1.92941
1.88896
1.84803
1.80686
1.76562
1.72453
1.68375
1.64345
1.60377
1.56487
1.52687
1.48987
1.45399
1.4193
1.38589
1.35381
1.32311
1.29383
1.26599
1.2396
1.21467
1.19118
1.16911
1.14844
1.12913
1.11115
1.09444
1.07895
1.06462
1.05141
1.95422
1.96011
1.9624
1.96108
1.95617
1.94776
1.93601
1.9211
1.90327
1.88279
1.85995
1.835
1.80831
1.78048
1.75137
1.72101
1.68953
1.65708
1.62386
1.59006
1.55587
1.52147
1.48702
1.45269
1.41862
1.38494
1.35178
1.31925
1.28746
1.2565
1.22644
1.19737
1.16933
1.14238
1.11657
1.09192
1.06845
1.04617
1.0251
1.00521
0.986513
0.968972
0.952567
0.937266
0.92303
0.909821
0.897594
0.886302
0.875898
1.84041
1.84772
1.85158
1.85196
1.84885
1.84233
1.83251
1.81954
1.8036
1.78489
1.76364
1.74007
1.71478
1.688
1.65984
1.63047
1.60006
1.5688
1.53688
1.50448
1.47179
1.43897
1.40618
1.37357
1.34125
1.30937
1.27803
1.24732
1.21734
1.18818
1.1599
1.13257
1.10623
1.08093
1.05671
1.0336
1.0116
0.990735
0.971004
0.952399
0.934909
0.918515
0.903192
0.888909
0.875632
0.863322
0.851937
0.841433
0.831767
1.81735
1.82568
1.83048
1.83171
1.82938
1.82354
1.81431
1.80183
1.78629
1.76788
1.74683
1.72359
1.69854
1.67186
1.64376
1.61445
1.58414
1.55302
1.5213
1.48915
1.45676
1.42428
1.39186
1.35965
1.32777
1.29633
1.26543
1.23518
1.20565
1.17692
1.14907
1.12214
1.09619
1.07125
1.04738
1.02458
1.00288
0.982283
0.962802
0.944429
0.927152
0.910955
0.895815
0.881703
0.868586
0.856427
0.845186
0.834821
0.825291
1.82924
1.83821
1.84349
1.84503
1.84285
1.83703
1.82769
1.815
1.79915
1.78038
1.75908
1.73563
1.71027
1.68326
1.65483
1.62522
1.59463
1.56329
1.53139
1.49911
1.46663
1.4341
1.40166
1.36945
1.33758
1.30617
1.2753
1.24508
1.21557
1.18686
1.159
1.13205
1.10606
1.08107
1.05712
1.03424
1.01243
0.991723
0.972116
0.95361
0.936195
0.919857
0.904577
0.890327
0.877078
0.864794
0.853437
0.842966
0.833344
1.85571
1.86498
1.87034
1.87175
1.86927
1.86299
1.85307
1.83971
1.82312
1.80374
1.7819
1.75786
1.73192
1.70435
1.6754
1.64532
1.61432
1.58263
1.55044
1.51794
1.48527
1.4526
1.42006
1.38776
1.35583
1.32436
1.29345
1.26317
1.2336
1.2048
1.17685
1.14978
1.12366
1.09852
1.07439
1.05131
1.0293
1.00836
0.988519
0.969768
0.952105
0.935518
0.919991
0.905499
0.892016
0.879509
0.86794
0.857272
0.847465
0.838483
1.88757
1.89678
1.90183
1.90272
1.89952
1.89238
1.88149
1.86714
1.84969
1.82946
1.80678
1.78194
1.75526
1.727
1.69745
1.66684
1.63542
1.60337
1.57091
1.5382
1.5054
1.47263
1.44004
1.40773
1.37581
1.34436
1.31346
1.28319
1.25362
1.22481
1.19682
1.16969
1.14348
1.11822
1.09395
1.0707
1.0485
1.02736
1.00729
0.9883
0.970389
0.953549
0.937768
0.923024
0.909294
0.896547
0.88475
0.873867
0.863858
0.854691
1.92006
1.92884
1.93318
1.93315
1.92884
1.92049
1.90842
1.89292
1.87435
1.85305
1.82935
1.80359
1.77607
1.74709
1.71692
1.68581
1.65399
1.62166
1.58901
1.5562
1.52336
1.49064
1.45813
1.42594
1.39416
1.36286
1.33212
1.30201
1.27258
1.24388
1.21598
1.18891
1.16273
1.13746
1.11316
1.08983
1.06753
1.04625
1.02603
1.00687
0.988765
0.971722
0.95573
0.940772
0.926827
0.913869
0.901867
0.890787
0.880592
0.871244
0.862711
1.95048
1.95838
1.9616
1.96023
1.95451
1.94475
1.93126
1.91439
1.89452
1.872
1.84719
1.82044
1.79206
1.76237
1.73164
1.7001
1.66798
1.63549
1.60277
1.57
1.53729
1.50476
1.4725
1.4406
1.40914
1.37818
1.34777
1.31798
1.28886
1.26045
1.2328
1.20595
1.17994
1.15481
1.13059
1.10732
1.08503
1.06374
1.04346
1.02422
1.00601
0.988841
0.972708
0.957599
0.943496
0.930378
0.918216
0.90698
0.896634
0.887144
0.878474
1.97714
1.98362
1.98525
1.98224
1.97486
1.96343
1.94833
1.92993
1.90863
1.88482
1.85888
1.83116
1.80198
1.77166
1.74046
1.70861
1.67634
1.64382
1.61121
1.57865
1.54624
1.51409
1.48227
1.45085
1.4199
1.38945
1.35957
1.33029
1.30166
1.27371
1.24648
1.22001
1.19434
1.1695
1.14552
1.12245
1.1003
1.07911
1.0589
1.03968
1.02146
1.00426
0.988069
0.972885
0.958694
0.945478
0.933213
0.921871
0.911422
0.901832
0.893071
1.99873
2.00333
2.00301
1.99801
1.98868
1.97537
1.9585
1.93848
1.91573
1.89065
1.86363
1.83503
1.80517
1.77435
1.74284
1.71086
1.67861
1.64625
1.61394
1.58177
1.54986
1.51828
1.48709
1.45634
1.42608
1.39635
1.36717
1.33859
1.31062
1.28331
1.25667
1.23075
1.20558
1.18118
1.15759
1.13485
1.11299
1.09202
1.07199
1.05291
1.03479
1.01765
1.00149
0.986312
0.972107
0.958861
0.946555
0.935165
0.924663
0.915021
0.906212
2.01462
2.01676
2.014
2.00667
1.99512
1.97978
1.96107
1.93943
1.91528
1.88904
1.86108
1.83177
1.80141
1.7703
1.73868
1.70677
1.67475
1.64276
1.61094
1.57938
1.54815
1.51733
1.48695
1.45706
1.42768
1.39883
1.37054
1.34282
1.31569
1.28917
1.26329
1.23808
1.21355
1.18974
1.16669
1.14441
1.12296
1.10235
1.08261
1.06377
1.04585
1.02887
1.01283
0.997742
0.983599
0.970393
0.958109
0.946727
0.936225
0.926577
0.917765
2.02432
2.02331
2.01763
2.00761
1.99366
1.97621
1.95568
1.93252
1.90713
1.87992
1.85125
1.82146
1.79086
1.7597
1.72822
1.69661
1.66504
1.63364
1.60251
1.57175
1.5414
1.51151
1.48212
1.45324
1.4249
1.39709
1.36983
1.34313
1.31698
1.29141
1.26643
1.24206
1.21832
1.19523
1.17283
1.15115
1.13022
1.11008
1.09075
1.07226
1.05464
1.0379
1.02207
1.00715
0.993141
0.980042
0.967843
0.956527
0.946076
0.936465
0.927672
0.919681
2.02744
2.0226
2.01353
2.00058
1.98414
1.96461
1.9424
1.91792
1.89154
1.86364
1.83455
1.80458
1.77401
1.74307
1.71199
1.68092
1.65003
1.61942
1.58918
1.55938
1.53006
1.50127
1.47301
1.44529
1.41811
1.39147
1.36537
1.3398
1.31476
1.29026
1.26629
1.24288
1.22004
1.19779
1.17616
1.15518
1.13489
1.11531
1.09648
1.07844
1.0612
1.0448
1.02925
1.01458
1.00077
0.987848
0.975794
0.964599
0.954249
0.944723
0.936003
0.928068
2.02378
2.01447
2.00164
1.98559
1.96667
1.94519
1.92152
1.89598
1.86891
1.84063
1.81143
1.78158
1.75133
1.72089
1.69044
1.66015
1.63013
1.6005
1.57131
1.54264
1.5145
1.48693
1.45992
1.43348
1.40759
1.38224
1.35741
1.33309
1.30927
1.28594
1.2631
1.24076
1.21893
1.19763
1.17688
1.15671
1.13715
1.11824
1.10002
1.08251
1.06575
1.04977
1.03459
1.02023
1.0067
0.994013
0.982163
0.971145
0.960947
0.951555
0.942952
0.935128
2.01316
1.999
1.98229
1.96322
1.942
1.91886
1.89404
1.86781
1.84041
1.8121
1.78312
1.7537
1.72404
1.69434
1.66475
1.63541
1.60644
1.57791
1.5499
1.52244
1.49557
1.4693
1.44361
1.4185
1.39395
1.36993
1.34642
1.3234
1.30085
1.27875
1.2571
1.23589
1.21514
1.19485
1.17504
1.15575
1.13701
1.11884
1.10128
1.08438
1.06816
1.05267
1.03792
1.02394
1.01074
0.998349
0.986757
0.975964
0.965964
0.956745
0.948299
0.940627
1.99796
1.9794
1.9593
1.93769
1.91465
1.89027
1.8647
1.8381
1.81065
1.78254
1.75397
1.72511
1.69616
1.66726
1.63856
1.61018
1.58222
1.55477
1.52787
1.50156
1.47587
1.4508
1.42633
1.40245
1.37914
1.35636
1.33408
1.31228
1.29092
1.26998
1.24945
1.22932
1.2096
1.19029
1.1714
1.15297
1.13502
1.11759
1.10071
1.08442
1.06876
1.05377
1.03947
1.02589
1.01305
1.00098
0.989666
0.979124
0.969345
0.960323
0.952049
0.944515
0.93774
1.98025
1.95808
1.93526
1.91167
1.88725
1.86199
1.83593
1.80917
1.7818
1.75399
1.72586
1.69758
1.66929
1.64115
1.61327
1.58576
1.55872
1.53222
1.50631
1.48102
1.45638
1.43237
1.40899
1.38621
1.36401
1.34234
1.32117
1.30047
1.28019
1.26032
1.24082
1.2217
1.20294
1.18454
1.16653
1.14892
1.13174
1.11502
1.0988
1.08312
1.06801
1.05352
1.03967
1.0265
1.01404
1.00229
0.991278
0.981
0.971458
0.962647
0.954559
0.947187
0.940519
0.934549
1.96192
1.93703
1.91217
1.88712
1.86169
1.83578
1.80939
1.78253
1.75526
1.7277
1.69995
1.67216
1.64444
1.61692
1.58972
1.56294
1.53667
1.51097
1.48589
1.46147
1.43771
1.41461
1.39216
1.37034
1.34909
1.3284
1.30821
1.28848
1.26917
1.25025
1.2317
1.21348
1.19561
1.17806
1.16086
1.14402
1.12756
1.11152
1.09593
1.08083
1.06626
1.05226
1.03887
1.02611
1.01401
1.0026
0.991887
0.98188
0.972582
0.96399
0.956099
0.948901
0.942388
0.93655
1.94446
1.91767
1.89137
1.86523
1.83903
1.81262
1.78593
1.75895
1.73171
1.7043
1.67682
1.64936
1.62205
1.595
1.56832
1.54211
1.51643
1.49137
1.46696
1.44323
1.4202
1.39786
1.37618
1.35516
1.33473
1.31487
1.29552
1.27664
1.25818
1.24011
1.22239
1.205
1.18792
1.17115
1.15469
1.13856
1.12278
1.10738
1.09238
1.07784
1.06379
1.05026
1.0373
1.02494
1.01321
1.00213
0.991715
0.981981
0.972929
0.96456
0.956871
0.949855
0.94351
0.937832
1.92887
1.9008
1.87348
1.84652
1.81969
1.79281
1.7658
1.73863
1.71133
1.68395
1.65657
1.6293
1.60224
1.5755
1.54918
1.52336
1.49813
1.47354
1.44964
1.42645
1.40399
1.38225
1.36121
1.34084
1.32109
1.30193
1.2833
1.26515
1.24743
1.23009
1.21311
1.19645
1.18009
1.16402
1.14824
1.13276
1.1176
1.10279
1.08835
1.07434
1.06077
1.0477
1.03516
1.02318
1.01181
1.00105
0.990931
0.981466
0.972659
0.964514
0.957027
0.950198
0.944027
0.938519
1.91562
1.8867
1.85861
1.83099
1.80359
1.77625
1.74887
1.72143
1.69395
1.66647
1.63907
1.61185
1.5849
1.55831
1.5322
1.50663
1.48169
1.45743
1.4339
1.41112
1.38909
1.36782
1.34728
1.32744
1.30825
1.28967
1.27164
1.2541
1.23702
1.22033
1.20399
1.18797
1.17225
1.15681
1.14164
1.12676
1.11217
1.0979
1.08399
1.07046
1.05735
1.04471
1.03257
1.02097
1.00993
0.999487
0.989657
0.980456
0.971891
0.963966
0.956681
0.950039
0.944044
0.938708
1.90478
1.87526
1.84656
1.81835
1.7904
1.76257
1.73478
1.70699
1.67923
1.65155
1.62402
1.59673
1.56976
1.54322
1.51719
1.49175
1.46698
1.44294
1.41965
1.39715
1.37544
1.35452
1.33437
1.31494
1.2962
1.2781
1.26057
1.24356
1.22701
1.21087
1.19509
1.17964
1.16449
1.1496
1.13499
1.12064
1.10658
1.09281
1.07938
1.06631
1.05364
1.0414
1.02964
1.01839
1.00768
0.997536
0.987986
0.979041
0.970712
0.963003
0.955917
0.94946
0.943639
0.938475
1.89616
1.86617
1.83693
1.80817
1.77968
1.75134
1.72308
1.69489
1.6668
1.63884
1.61109
1.58364
1.55656
1.52996
1.50392
1.47851
1.45382
1.42988
1.40674
1.38443
1.36294
1.34228
1.32241
1.30331
1.28492
1.2672
1.25008
1.2335
1.21741
1.20175
1.18646
1.1715
1.15684
1.14246
1.12834
1.11448
1.10089
1.08759
1.0746
1.06195
1.04968
1.03783
1.02643
1.01551
1.00511
0.995265
0.985983
0.977287
0.969187
0.961689
0.954799
0.948522
0.942873
0.937875
1.88946
1.85904
1.82929
1.79999
1.77096
1.74209
1.71335
1.68473
1.65625
1.62796
1.59993
1.57225
1.545
1.51827
1.49214
1.4667
1.44199
1.41809
1.39502
1.37281
1.35146
1.33097
1.31132
1.29246
1.27434
1.25692
1.24014
1.22392
1.20822
1.19295
1.17809
1.16356
1.14935
1.13541
1.12173
1.10832
1.09516
1.08228
1.0697
1.05745
1.04555
1.03406
1.02299
1.01239
1.00229
0.992723
0.983701
0.975245
0.967367
0.960074
0.953373
0.947273
0.941789
0.936949
1.88431
1.85347
1.82324
1.7934
1.76383
1.73444
1.70521
1.67613
1.64724
1.61859
1.59025
1.5623
1.53483
1.50792
1.48165
1.4561
1.43134
1.4074
1.38434
1.36217
1.3409
1.32052
1.301
1.28231
1.26441
1.24723
1.23071
1.21479
1.1994
1.18449
1.16998
1.15583
1.142
1.12846
1.11518
1.10216
1.0894
1.07691
1.06471
1.05282
1.04128
1.03011
1.01937
1.00907
0.999258
0.989952
0.981178
0.972953
0.965289
0.958195
0.951678
0.945748
0.940423
0.935733
1.8803
1.84904
1.81831
1.78794
1.75783
1.72791
1.69816
1.66861
1.63928
1.61024
1.58155
1.5533
1.52556
1.49842
1.47197
1.44627
1.42139
1.39737
1.37426
1.35207
1.33082
1.31048
1.29105
1.27248
1.25472
1.23773
1.22142
1.20575
1.19063
1.176
1.16181
1.148
1.13452
1.12134
1.10843
1.09578
1.08339
1.07126
1.05942
1.04788
1.03668
1.02584
1.01541
1.00541
0.995872
0.986831
0.978305
0.970312
0.962864
0.95597
0.949639
0.94388
0.938714
0.93417
1.87708
1.84536
1.8141
1.78317
1.75249
1.72201
1.69173
1.66167
1.63187
1.6024
1.57332
1.54472
1.51667
1.48927
1.46258
1.43668
1.41163
1.38748
1.36427
1.34201
1.32073
1.3004
1.281
1.2625
1.24485
1.22799
1.21186
1.19639
1.18151
1.16715
1.15324
1.13974
1.12659
1.11375
1.10119
1.0889
1.07687
1.0651
1.05362
1.04243
1.03157
1.02106
1.01094
1.00125
0.992001
0.983232
0.974962
0.967209
0.959987
0.953303
0.947166
0.941586
0.936583
0.932186
1.87447
1.84224
1.81041
1.77888
1.74759
1.71652
1.68567
1.65508
1.62478
1.59485
1.56535
1.53636
1.50798
1.48026
1.4533
1.42717
1.40191
1.3776
1.35425
1.3319
1.31054
1.29018
1.27078
1.25232
1.23474
1.218
1.20201
1.18672
1.17205
1.15793
1.14429
1.13108
1.11824
1.10573
1.09352
1.08158
1.0699
1.05849
1.04736
1.03652
1.026
1.01583
1.00603
0.996645
0.987692
0.979201
0.971195
0.96369
0.9567
0.950232
0.944295
0.9389
0.934065
0.929817
1.87243
1.83963
1.80718
1.77501
1.74308
1.71139
1.67995
1.64879
1.61796
1.58754
1.55759
1.5282
1.49944
1.47139
1.44413
1.41772
1.39224
1.36772
1.3442
1.32171
1.30026
1.27983
1.26041
1.24195
1.22442
1.20775
1.19188
1.17674
1.16226
1.14836
1.13497
1.12203
1.10949
1.09729
1.0854
1.07381
1.06248
1.05142
1.04064
1.03015
1.01998
1.01014
1.00067
0.991589
0.982935
0.974729
0.966992
0.959741
0.952989
0.946744
0.941014
0.935809
0.931146
0.92705
1.87086
1.83742
1.80431
1.77147
1.73887
1.70653
1.67447
1.64273
1.61136
1.58042
1.55
1.52017
1.49101
1.4626
1.43501
1.40832
1.38257
1.35782
1.33411
1.31146
1.28987
1.26935
1.24986
1.23138
1.21387
1.19725
1.18147
1.16646
1.15213
1.13843
1.12527
1.11258
1.10032
1.08842
1.07685
1.06558
1.0546
1.04389
1.03345
1.02331
1.01348
1.00397
0.994827
0.986065
0.977714
0.969797
0.962336
0.955345
0.948837
0.942822
0.937304
0.932294
0.927807
0.923868
1.86965
1.83552
1.80169
1.76814
1.73486
1.70185
1.66915
1.6368
1.60487
1.57341
1.5425
1.51222
1.48265
1.45386
1.42592
1.39891
1.37287
1.34787
1.32394
1.3011
1.27935
1.25871
1.23914
1.22061
1.20308
1.18649
1.17077
1.15586
1.14167
1.12814
1.11518
1.10273
1.09073
1.07912
1.06785
1.0569
1.04624
1.03587
1.02578
1.01598
1.00649
0.997317
0.988499
0.980055
0.97201
0.964387
0.957206
0.950481
0.944223
0.938442
0.933142
0.928333
0.924027
0.920246
1.86863
1.83376
1.79918
1.7649
1.7309
1.69721
1.66386
1.6309
1.5984
1.5664
1.535
1.50426
1.47426
1.44507
1.41677
1.38943
1.36309
1.33782
1.31365
1.29059
1.26867
1.24788
1.2282
1.2096
1.19203
1.17544
1.15976
1.14493
1.13086
1.11747
1.1047
1.09246
1.0807
1.06936
1.05838
1.04774
1.0374
1.02736
1.0176
1.00814
0.998982
0.990148
0.981657
0.973533
0.965797
0.958472
0.951575
0.94512
0.939118
0.933575
0.928499
0.923895
0.919774
0.916156
1.86763
1.83196
1.79661
1.76157
1.72685
1.69247
1.65847
1.6249
1.59182
1.55929
1.52738
1.49618
1.46574
1.43616
1.40749
1.3798
1.35316
1.3276
1.30317
1.27989
1.25777
1.23682
1.21701
1.19831
1.18068
1.16407
1.14841
1.13363
1.11965
1.1064
1.09379
1.08175
1.07021
1.05912
1.04842
1.03807
1.02804
1.01831
1.00889
0.999758
0.990935
0.982433
0.974269
0.966465
0.959041
0.952017
0.945407
0.939227
0.933484
0.928186
0.923337
0.918942
0.91501
0.911559
1.86642
1.82993
1.79378
1.75798
1.72252
1.68746
1.65281
1.61863
1.58498
1.55192
1.51952
1.48785
1.45699
1.427
1.39796
1.36993
1.34297
1.31712
1.29242
1.2689
1.24658
1.22545
1.20549
1.18669
1.16898
1.15234
1.13667
1.12193
1.10802
1.09488
1.08241
1.07055
1.05922
1.04836
1.03792
1.02785
1.01812
1.00871
0.9996
0.990797
0.982304
0.974131
0.966294
0.958811
0.9517
0.944978
0.93866
0.932757
0.927278
0.922228
0.917611
0.913428
0.90969
0.906408
1.86476
1.82744
1.79048
1.75391
1.71774
1.68199
1.6467
1.61193
1.57772
1.54414
1.51126
1.47914
1.44786
1.41747
1.38807
1.35969
1.33241
1.30627
1.2813
1.25755
1.23501
1.21369
1.19358
1.17465
1.15686
1.14016
1.12448
1.10975
1.0959
1.08285
1.07051
1.05881
1.04767
1.03704
1.02684
1.01704
1.00759
0.998482
0.989688
0.981206
0.973038
0.965192
0.957681
0.950518
0.94372
0.937303
0.931278
0.925656
0.920445
0.915646
0.911263
0.907298
0.903755
0.900645
1.86239
1.82422
1.78647
1.74914
1.71226
1.67585
1.63994
1.60459
1.56985
1.53577
1.50242
1.46986
1.43817
1.40741
1.37765
1.34894
1.32135
1.29492
1.2697
1.2457
1.22295
1.20144
1.18117
1.16211
1.14422
1.12746
1.11175
1.09703
1.08322
1.07025
1.05802
1.04647
1.03551
1.02508
1.01511
1.00557
0.996399
0.98758
0.979091
0.970924
0.963077
0.955554
0.948365
0.941522
0.935039
0.928927
0.923198
0.91786
0.912918
0.908374
0.904228
0.900482
0.897137
0.894202
1.85916
1.8202
1.78171
1.74368
1.70615
1.66912
1.63265
1.59678
1.56154
1.52701
1.49324
1.46029
1.42823
1.39712
1.36703
1.33802
1.31015
1.28346
1.25799
1.23376
1.21081
1.18913
1.16871
1.14952
1.13154
1.1147
1.09896
1.08424
1.07046
1.05755
1.04542
1.03399
1.02319
1.01294
1.00319
0.993875
0.98496
0.976411
0.968206
0.960333
0.952787
0.94557
0.938687
0.932149
0.925965
0.920145
0.914699
0.909633
0.90495
0.90065
0.896733
0.893197
0.890042
0.887273
1.85496
1.81525
1.77606
1.73738
1.69923
1.66164
1.62464
1.58828
1.55259
1.51764
1.48348
1.45016
1.41776
1.38634
1.35595
1.32666
1.29852
1.27158
1.24588
1.22145
1.19831
1.17645
1.15588
1.13657
1.11849
1.10158
1.0858
1.07106
1.0573
1.04444
1.03239
1.02107
1.01041
1.00033
0.99077
0.981672
0.972992
0.964696
0.95676
0.949166
0.941908
0.934983
0.928396
0.922152
0.916259
0.910725
0.905556
0.900756
0.896327
0.892267
0.888574
0.885243
0.882273
0.879666
1.84875
1.80827
1.76835
1.729
1.69023
1.65207
1.61455
1.5777
1.54157
1.5062
1.47165
1.43799
1.40526
1.37353
1.34285
1.3133
1.28491
1.25774
1.23182
1.20719
1.18386
1.16185
1.14113
1.12171
1.10353
1.08656
1.07074
1.056
1.04227
1.02946
1.0175
1.0063
0.995783
0.985879
0.97652
0.96765
0.95922
0.951194
0.943543
0.936248
0.929299
0.92269
0.916421
0.910496
0.904918
0.899694
0.894826
0.890315
0.886163
0.882364
0.878915
0.875809
0.873041
0.870609
1.8814
1.83952
1.79826
1.75763
1.71761
1.67824
1.63952
1.60148
1.56417
1.52761
1.49186
1.45696
1.42296
1.38994
1.35793
1.327
1.29721
1.2686
1.24122
1.21512
1.19032
1.16684
1.14469
1.12386
1.10434
1.08609
1.06908
1.05324
1.03851
1.02481
1.01208
1.00021
0.989145
0.978792
0.969079
0.959939
0.951313
0.943151
0.935414
0.92807
0.921098
0.914482
0.908214
0.902292
0.896713
0.89148
0.886593
0.882054
0.877861
0.874012
0.8705
0.867318
0.864459
0.861913
0.859676
1.86859
1.82589
1.78389
1.74256
1.70192
1.66197
1.62273
1.58424
1.54651
1.50958
1.47349
1.43829
1.40404
1.37077
1.33855
1.30743
1.27746
1.2487
1.22118
1.19495
1.17003
1.14646
1.12422
1.10333
1.08377
1.06549
1.04848
1.03266
1.01797
1.00435
0.991715
0.979983
0.969075
0.95891
0.949414
0.940519
0.932164
0.924298
0.916878
0.909871
0.903251
0.897
0.891107
0.885563
0.880365
0.875509
0.870994
0.866818
0.862975
0.859459
0.856264
0.853379
0.850793
0.848496
0.846477
1.8493
1.80586
1.76318
1.72124
1.68005
1.63962
1.59996
1.56109
1.52304
1.48584
1.44952
1.41413
1.37972
1.34632
1.31399
1.28279
1.25275
1.22394
1.19639
1.17014
1.14521
1.12164
1.09942
1.07856
1.05903
1.04082
1.02387
1.00815
0.993577
0.980091
0.967613
0.956064
0.945364
0.935434
0.926199
0.917591
0.909549
0.902019
0.894957
0.888328
0.882102
0.876258
0.870782
0.86566
0.860885
0.85645
0.85235
0.848576
0.845123
0.841982
0.83914
0.836587
0.83431
0.832294
0.830528
1.82032
1.77629
1.73308
1.69068
1.6491
1.60833
1.56841
1.52933
1.49112
1.45381
1.41743
1.38201
1.34761
1.31425
1.282
1.25088
1.22096
1.19227
1.16486
1.13875
1.11398
1.09057
1.06853
1.04784
1.0285
1.01048
0.993736
0.978221
0.963872
0.950623
0.938397
0.927118
0.916706
0.907085
0.898182
0.889928
0.882263
0.875132
0.86849
0.8623
0.856529
0.851153
0.846153
0.841514
0.837222
0.833266
0.829637
0.826324
0.823316
0.8206
0.818164
0.815992
0.81407
0.812382
0.810914
1.77662
1.73226
1.68879
1.64621
1.60451
1.56369
1.52378
1.48476
1.44668
1.40954
1.37338
1.33823
1.30413
1.2711
1.2392
1.20846
1.17894
1.15066
1.12366
1.09798
1.07363
1.05065
1.02902
1.00876
0.989832
0.972221
0.955885
0.940773
0.926827
0.913981
0.902162
0.891296
0.881307
0.872121
0.863668
0.85588
0.848698
0.84207
0.835948
0.830294
0.825073
0.820259
0.815829
0.811761
0.808041
0.804651
0.801577
0.798805
0.79632
0.794106
0.792147
0.790427
0.788929
0.787635
0.78653
1.71969
1.67544
1.63214
1.58978
1.54837
1.50791
1.46839
1.42984
1.39226
1.35567
1.3201
1.28557
1.25212
1.21978
1.18859
1.15859
1.1298
1.10227
1.07603
1.05111
1.02752
1.00528
0.984399
0.964861
0.946651
0.929741
0.914091
0.899651
0.886365
0.874167
0.862989
0.852758
0.843402
0.834849
0.827032
0.819887
0.813354
0.807381
0.801921
0.796934
0.792385
0.788242
0.784479
0.781073
0.778003
0.775249
0.772793
0.770618
0.768705
0.767037
0.765596
0.764364
0.763324
0.762459
0.761753
1.66695
1.6231
1.58024
1.53837
1.49748
1.45757
1.41864
1.38071
1.34378
1.30787
1.273
1.2392
1.20649
1.17491
1.14448
1.11525
1.08724
1.0605
1.03504
1.01089
0.988071
0.966591
0.946451
0.927641
0.910143
0.893927
0.878954
0.865175
0.852534
0.840969
0.830412
0.820794
0.812046
0.804097
0.796883
0.790341
0.784413
0.779047
0.774194
0.769814
0.765869
0.762326
0.759155
0.756331
0.75383
0.751629
0.749708
0.748046
0.746625
0.745425
0.744428
0.743615
0.742968
0.742472
0.74211
1.61721
1.57397
1.53175
1.49055
1.45034
1.41114
1.37294
1.33575
1.29957
1.26443
1.23034
1.19733
1.16542
1.13464
1.10502
1.07659
1.04939
1.02345
0.998786
0.975424
0.953381
0.932663
0.91327
0.895193
0.878411
0.862894
0.848605
0.835495
0.82351
0.81259
0.802669
0.793681
0.785557
0.77823
0.771637
0.765713
0.760403
0.755653
0.751414
0.747644
0.744302
0.741353
0.738766
0.736512
0.734565
0.7329
0.731495
0.730329
0.72938
0.72863
0.728059
0.727649
0.727383
0.727244
0.727218
1.57494
1.5324
1.49088
1.45039
1.4109
1.37243
1.33496
1.2985
1.26306
1.22866
1.19531
1.16304
1.13188
1.10184
1.07296
1.04527
1.0188
0.993582
0.969636
0.946985
0.925643
0.905616
0.886903
0.869496
0.853374
0.838508
0.824862
0.812389
0.801036
0.790744
0.78145
0.773088
0.765591
0.758893
0.752928
0.747634
0.742952
0.738829
0.735212
0.732058
0.729323
0.72697
0.724966
0.723279
0.72188
0.720745
0.71985
0.719171
0.718688
0.718381
0.718231
0.71822
0.718332
0.718551
0.718863
1.54588
1.50392
1.46299
1.42308
1.38418
1.34627
1.30937
1.27348
1.23861
1.20477
1.17198
1.14026
1.10965
1.08015
1.05182
1.02467
0.998746
0.974064
0.950654
0.928536
0.907726
0.888231
0.870051
0.853179
0.837596
0.823275
0.81018
0.798267
0.787485
0.777774
0.769072
0.761314
0.754431
0.748355
0.743021
0.738362
0.734318
0.730832
0.727849
0.725322
0.723205
0.721458
0.720046
0.718933
0.718092
0.717493
0.717114
0.71693
0.71692
0.717064
0.717345
0.717744
0.718246
0.718836
0.719501
1.53833
1.49661
1.4559
1.4162
1.3775
1.33979
1.30308
1.26737
1.23268
1.19901
1.16639
1.13484
1.1044
1.07508
1.04692
1.01995
0.994212
0.969726
0.946524
0.924627
0.904054
0.884816
0.866916
0.850348
0.835096
0.821137
0.808436
0.79695
0.786627
0.777409
0.769231
0.762026
0.755723
0.750251
0.745537
0.741514
0.738115
0.735279
0.732947
0.731067
0.72959
0.728472
0.727675
0.727162
0.726903
0.726868
0.727031
0.727369
0.727861
0.728487
0.729229
0.73007
0.730995
0.731991
0.733044
1.56667
1.52442
1.48318
1.44294
1.40368
1.36542
1.32815
1.29189
1.25664
1.22242
1.18926
1.15718
1.12621
1.09639
1.06775
1.04033
1.01416
0.98928
0.96572
0.943509
0.922672
0.903224
0.885172
0.868517
0.853247
0.83934
0.826762
0.815472
0.805416
0.796534
0.788756
0.78201
0.776218
0.771303
0.767185
0.763789
0.761041
0.758872
0.757218
0.75602
0.755225
0.754783
0.754652
0.754793
0.755173
0.75576
0.756528
0.757452
0.75851
0.759683
0.760953
0.762305
0.763722
0.765193
0.766705
1.66116
1.61684
1.57353
1.53122
1.48992
1.44962
1.41032
1.37205
1.33482
1.29864
1.26356
1.2296
1.19679
1.16518
1.13481
1.10572
1.07795
1.05156
1.02659
1.00306
0.981026
0.960499
0.9415
0.924034
0.908094
0.893661
0.880703
0.869176
0.859021
0.850171
0.84255
0.836073
0.830652
0.826197
0.822617
0.819823
0.81773
0.816259
0.815334
0.814886
0.814855
0.815185
0.815827
0.816737
0.817877
0.819213
0.820717
0.822361
0.824124
0.825985
0.827925
0.829929
0.831983
0.834073
0.836187
1.90406
1.85402
1.80503
1.7571
1.71022
1.66439
1.61964
1.57598
1.53345
1.49205
1.45185
1.41288
1.37518
1.33882
1.30385
1.27033
1.23833
1.20791
1.17913
1.15204
1.12671
1.10316
1.08144
1.06154
1.04348
1.02724
1.01278
1.00004
0.988962
0.979461
0.97144
0.964797
0.959421
0.955199
0.952017
0.949764
0.948334
0.947625
0.947546
0.94801
0.948941
0.950271
0.951939
0.953892
0.956085
0.958477
0.961034
0.963725
0.966524
0.969409
0.97236
0.975358
0.97839
0.981441
0.984498
2.6209
2.55273
2.48581
2.42015
2.35578
2.29271
2.23098
2.17063
2.11171
2.05428
1.99841
1.94418
1.89168
1.841
1.79225
1.74552
1.70093
1.65858
1.61859
1.58104
1.54602
1.5136
1.48382
1.45671
1.43226
1.41045
1.39122
1.3745
1.36017
1.34811
1.33818
1.33022
1.32407
1.31956
1.31652
1.31478
1.3142
1.31462
1.31591
1.31793
1.32059
1.32377
1.3274
1.33139
1.33567
1.3402
1.34492
1.34979
1.35478
1.35984
1.36497
1.37012
1.37529
1.38046
1.38561
6.1266
5.95212
5.78143
5.61465
5.45194
5.29346
5.13939
4.98995
4.84533
4.70577
4.57149
4.44274
4.31975
4.20275
4.09198
3.98763
3.88989
3.79891
3.71482
3.63769
3.56756
3.5044
3.44813
3.39865
3.35575
3.31922
3.28877
3.26409
3.24481
3.23054
3.22089
3.21542
3.21373
3.21539
3.22
3.22717
3.23653
3.24775
3.26052
3.27455
3.28961
3.30546
3.32194
3.33886
3.3561
3.37354
3.39108
3.40865
3.42618
3.44361
3.4609
3.47801
3.49492
3.51161
3.52805
)
;

boundaryField
{
    inlet
    {
        type            fixedValue;
        value           nonuniform 0();
    }
    outlet
    {
        type            zeroGradient;
    }
    upperWall
    {
        Cmu             0.09;
        kappa           0.41;
        E               9.8;
        type            epsilonWallFunction;
        value           nonuniform List<scalar> 
55
(
6.1266
5.95212
5.78143
5.61465
5.45194
5.29346
5.13939
4.98995
4.84533
4.70577
4.57149
4.44274
4.31975
4.20275
4.09198
3.98763
3.88989
3.79891
3.71482
3.63769
3.56756
3.5044
3.44813
3.39865
3.35575
3.31922
3.28877
3.26409
3.24481
3.23054
3.22089
3.21542
3.21373
3.21539
3.22
3.22717
3.23653
3.24775
3.26052
3.27455
3.28961
3.30546
3.32194
3.33886
3.3561
3.37354
3.39108
3.40865
3.42618
3.44361
3.4609
3.47801
3.49492
3.51161
3.52805
)
;
    }
    lowerWall
    {
        Cmu             0.09;
        kappa           0.41;
        E               9.8;
        type            epsilonWallFunction;
        value           nonuniform List<scalar> 
49
(
5.28643
5.29749
5.29567
5.2811
5.25405
5.21497
5.16451
5.10357
5.03353
4.95654
4.87621
4.79827
4.7285
4.66664
4.60333
4.53579
4.46374
4.38751
4.30759
4.22453
4.13888
4.0512
3.96201
3.87184
3.78117
3.69047
3.60019
3.51073
3.42248
3.33578
3.25097
3.16832
3.0881
3.01052
2.93578
2.86404
2.79541
2.72999
2.66784
2.60899
2.55346
2.5012
2.45219
2.40636
2.36362
2.32387
2.28701
2.25291
2.22145
)
;
    }
    frontAndBack
    {
        type            empty;
    }
    procBoundary3to1
    {
        type            processor;
        value           nonuniform List<scalar> 
62
(
2.19248
1.03925
0.866332
0.822888
0.816543
0.82452
0.82452
0.830251
0.846306
0.846306
0.854894
0.870547
0.885061
0.89816
0.909726
0.909726
0.912352
0.920821
0.927994
0.933669
0.933669
0.931565
0.931565
0.929027
0.931222
0.932669
0.933515
0.933863
0.933786
0.933339
0.932562
0.931486
0.930059
0.928213
0.925984
0.923359
0.920321
0.916847
0.912908
0.908465
0.90347
0.897866
0.891583
0.884807
0.877347
0.86845
0.857693
0.844694
0.828975
0.809635
0.785588
0.761182
0.741861
0.727286
0.719252
0.720227
0.734143
0.768247
0.838316
0.987554
1.39074
3.54422
)
;
    }
    procBoundary3to2
    {
        type            processor;
        value           nonuniform List<scalar> 
58
(
5.2625
2.37854
1.94477
1.82968
1.80549
1.81653
1.84246
1.87408
1.9067
1.9377
1.96551
1.98886
2.0072
2.02021
2.0276
2.02917
2.02449
2.01487
2.00186
1.9871
1.97211
1.95808
1.94576
1.93547
1.92722
1.92079
1.91591
1.91219
1.90932
1.90713
1.90559
1.9046
1.90405
1.90377
1.90357
1.90321
1.90242
1.90093
1.89854
1.89514
1.88977
1.88977
1.92388
1.91196
1.89348
1.86518
1.82189
1.76492
1.71183
1.6615
1.61854
1.58888
1.5811
1.60995
1.70651
1.95517
2.69033
6.30473
)
;
    }
}


// ************************************************************************* //
