/*--------------------------------*- C++ -*----------------------------------*\
  =========                 |
  \\      /  F ield         | OpenFOAM: The Open Source CFD Toolbox
   \\    /   O peration     | Website:  https://openfoam.org
    \\  /    A nd           | Version:  6
     \\/     M anipulation  |
\*---------------------------------------------------------------------------*/
FoamFile
{
    version     2.0;
    format      ascii;
    class       volScalarField;
    location    "0.08";
    object      k;
}
// * * * * * * * * * * * * * * * * * * * * * * * * * * * * * * * * * * * * * //

dimensions      [0 2 -2 0 0 0 0];

internalField   nonuniform List<scalar> 
3032
(
0.0373226
0.0373862
0.0373892
0.037332
0.0372155
0.0370412
0.0368112
0.0365287
0.0361981
0.0358262
0.0354249
0.0350146
0.0346247
0.0342815
0.0339611
0.0336255
0.0332673
0.032886
0.0324833
0.0320614
0.0316225
0.0311692
0.0307038
0.0302286
0.0297461
0.0292584
0.0287677
0.0282763
0.0277861
0.0272991
0.0268172
0.0263421
0.0258755
0.0254189
0.0249738
0.0245415
0.0241229
0.0237192
0.0233312
0.0229595
0.0226046
0.0222669
0.0219466
0.0216437
0.0213581
0.0210897
0.0208381
0.0206028
0.0203834
0.0745689
0.0749449
0.0752104
0.0753641
0.075406
0.0753371
0.0751597
0.0748774
0.0744948
0.0740176
0.0734522
0.0728053
0.0720835
0.0713078
0.0704811
0.0696014
0.0686719
0.0676975
0.066684
0.0656369
0.0645621
0.0634649
0.0623507
0.0612247
0.0600919
0.0589568
0.0578241
0.0566979
0.0555825
0.0544815
0.0533985
0.0523369
0.0512998
0.0502898
0.0493096
0.0483613
0.0474469
0.0465679
0.0457256
0.0449211
0.044155
0.0434276
0.0427391
0.0420892
0.0414775
0.0409034
0.0403659
0.039864
0.0393964
0.092026
0.0925529
0.0929469
0.0932054
0.0933276
0.0933139
0.0931664
0.0928884
0.0924844
0.0919599
0.091321
0.0905736
0.089729
0.0888072
0.0878114
0.0867466
0.0856191
0.0844358
0.0832039
0.0819306
0.0806229
0.0792876
0.0779312
0.0765601
0.0751803
0.0737975
0.0724171
0.0710444
0.0696842
0.068341
0.0670193
0.065723
0.0644559
0.0632212
0.0620221
0.0608613
0.059741
0.0586634
0.0576299
0.0566419
0.0557003
0.0548055
0.0539578
0.0531569
0.0524025
0.0516938
0.0510297
0.0504091
0.0498304
0.103163
0.103808
0.104306
0.104654
0.10485
0.104895
0.10479
0.104538
0.104144
0.103612
0.10295
0.102163
0.101272
0.100286
0.0992126
0.0980597
0.0968353
0.0955476
0.0942049
0.0928152
0.0913863
0.0899257
0.0884407
0.0869381
0.0854245
0.0839063
0.0823893
0.0808793
0.0793816
0.0779013
0.0764431
0.0750116
0.0736107
0.0722442
0.0709157
0.0696281
0.0683842
0.0671863
0.0660362
0.0649356
0.0638855
0.0628866
0.0619393
0.0610435
0.0601989
0.0594048
0.0586602
0.0579637
0.0573138
0.111032
0.111774
0.112361
0.112789
0.113054
0.113157
0.113099
0.112883
0.112514
0.111997
0.111338
0.110552
0.109652
0.108647
0.107546
0.106358
0.105093
0.103759
0.102365
0.10092
0.0994314
0.0979077
0.0963563
0.0947844
0.0931989
0.0916064
0.090013
0.0884248
0.0868474
0.0852861
0.083746
0.0822317
0.0807478
0.0792984
0.0778871
0.0765174
0.0751922
0.0739143
0.0726858
0.0715085
0.0703838
0.0693127
0.0682958
0.0673331
0.0664245
0.0655694
0.0647669
0.0640157
0.0633143
0.116692
0.11752
0.118186
0.118686
0.119017
0.119179
0.119171
0.118999
0.118665
0.118177
0.117545
0.116783
0.1159
0.114905
0.11381
0.112624
0.111355
0.110015
0.108611
0.107152
0.105646
0.104103
0.102528
0.10093
0.0993162
0.0976921
0.0960646
0.0944396
0.0928229
0.09122
0.0896362
0.0880763
0.0865451
0.0850467
0.0835854
0.0821647
0.080788
0.0794582
0.0781777
0.0769489
0.0757732
0.074652
0.0735861
0.0725758
0.0716212
0.0707219
0.0698771
0.0690857
0.0683462
0.120649
0.121553
0.122292
0.122861
0.123256
0.123476
0.123523
0.1234
0.123111
0.122668
0.12208
0.121358
0.120511
0.119551
0.118486
0.117328
0.116085
0.114768
0.113385
0.111944
0.110455
0.108924
0.10736
0.10577
0.104161
0.102539
0.10091
0.0992805
0.0976564
0.096043
0.0944456
0.0928693
0.0913189
0.0897988
0.0883134
0.0868666
0.0854619
0.0841026
0.0827915
0.081531
0.0803231
0.0791695
0.0780711
0.0770287
0.0760425
0.0751123
0.0742377
0.0734175
0.0726506
0.0719354
0.123196
0.124171
0.124978
0.125612
0.12607
0.126351
0.126456
0.126388
0.126157
0.12577
0.125238
0.12457
0.123777
0.12287
0.121857
0.120749
0.119555
0.118285
0.116948
0.115552
0.114105
0.112615
0.111089
0.109534
0.107957
0.106364
0.104761
0.103154
0.101549
0.0999507
0.0983648
0.0967965
0.0952504
0.0937314
0.0922437
0.0907916
0.0893789
0.088009
0.0866852
0.0854101
0.084186
0.0830149
0.0818982
0.0808369
0.0798314
0.0788819
0.077988
0.077149
0.0763639
0.0756311
0.124531
0.125572
0.126445
0.127144
0.127666
0.128009
0.128175
0.128172
0.128007
0.127687
0.127223
0.126624
0.1259
0.125061
0.124117
0.123078
0.121953
0.120752
0.119482
0.118152
0.11677
0.115343
0.113877
0.112381
0.110859
0.109317
0.107763
0.106201
0.104636
0.103075
0.101522
0.099982
0.0984604
0.0969617
0.0954905
0.0940511
0.0926475
0.0912835
0.0899625
0.0886876
0.0874613
0.086286
0.0851633
0.0840946
0.0830807
0.082122
0.0812184
0.0803693
0.0795741
0.0788313
0.0781396
0.124807
0.125909
0.126847
0.127609
0.128194
0.128603
0.12884
0.12891
0.12882
0.128578
0.128194
0.127676
0.127034
0.126279
0.12542
0.124466
0.123427
0.122311
0.121126
0.119881
0.118582
0.117236
0.11585
0.11443
0.112983
0.111512
0.110025
0.108527
0.107022
0.105515
0.104013
0.102519
0.101039
0.0995774
0.0981386
0.0967274
0.0953478
0.094004
0.0926994
0.0914376
0.0902215
0.0890535
0.0879359
0.0868701
0.0858574
0.0848985
0.0839936
0.0831424
0.0823444
0.0815985
0.0809033
0.124155
0.125311
0.126305
0.12713
0.127784
0.128268
0.128583
0.128735
0.128731
0.128577
0.128284
0.127859
0.127313
0.126654
0.125893
0.125039
0.124099
0.123083
0.121999
0.120853
0.119652
0.118403
0.117113
0.115785
0.114427
0.113044
0.11164
0.11022
0.10879
0.107354
0.105917
0.104484
0.10306
0.101649
0.100256
0.0988866
0.0975439
0.0962325
0.0949563
0.0937189
0.0925236
0.0913733
0.0902703
0.0892167
0.0882139
0.0872629
0.0863642
0.0855179
0.0847237
0.0839807
0.0832878
0.122679
0.123888
0.124942
0.125836
0.126565
0.12713
0.127531
0.127774
0.127864
0.127809
0.127616
0.127295
0.126855
0.126305
0.125654
0.12491
0.124083
0.123179
0.122206
0.121171
0.120081
0.118941
0.117758
0.116535
0.115279
0.113995
0.112686
0.111357
0.110014
0.108661
0.107301
0.105941
0.104585
0.103237
0.101902
0.100585
0.0992898
0.0980214
0.0967837
0.0955806
0.0944156
0.0932918
0.0922121
0.0911786
0.0901933
0.0892574
0.0883717
0.0875367
0.0867522
0.0860177
0.0853322
0.120519
0.121778
0.122893
0.123857
0.124665
0.125316
0.12581
0.12615
0.126343
0.126394
0.126312
0.126104
0.125779
0.125346
0.124814
0.12419
0.123482
0.122699
0.121847
0.120932
0.119961
0.118939
0.117871
0.116762
0.115617
0.11444
0.113236
0.112008
0.110761
0.1095
0.108228
0.10695
0.105671
0.104395
0.103127
0.101872
0.100633
0.0994167
0.0982261
0.0970656
0.0959389
0.0948494
0.0938003
0.0927941
0.0918329
0.0909185
0.0900518
0.0892337
0.0884642
0.0877431
0.0870697
0.117828
0.11913
0.120303
0.121337
0.122226
0.122965
0.123555
0.123999
0.1243
0.124463
0.124496
0.124407
0.124203
0.123892
0.123483
0.122984
0.122402
0.121744
0.121017
0.120227
0.11938
0.11848
0.117533
0.116543
0.115514
0.114451
0.113357
0.112236
0.111092
0.109929
0.108751
0.107562
0.106368
0.105171
0.103977
0.102791
0.101617
0.10046
0.0993231
0.0982121
0.0971304
0.0960819
0.0950697
0.0940968
0.0931657
0.0922782
0.0914359
0.0906396
0.0898898
0.0891865
0.0885292
0.0879172
0.114778
0.116115
0.11734
0.11844
0.119406
0.120234
0.120921
0.121467
0.121876
0.122153
0.122302
0.122332
0.122249
0.122061
0.121776
0.121401
0.120944
0.120412
0.11981
0.119145
0.118422
0.117646
0.116821
0.115951
0.115041
0.114093
0.113112
0.1121
0.111063
0.110002
0.108922
0.107828
0.106722
0.10561
0.104496
0.103384
0.10228
0.101187
0.10011
0.0990546
0.0980235
0.0970213
0.0960514
0.0951171
0.094221
0.0933653
0.0925518
0.0917817
0.0910557
0.0903741
0.0897367
0.0891428
0.111516
0.112877
0.114143
0.115301
0.116338
0.117248
0.118025
0.118669
0.119182
0.119566
0.119826
0.11997
0.120003
0.119933
0.119768
0.119514
0.119179
0.118769
0.118289
0.117747
0.117146
0.116492
0.115788
0.115038
0.114246
0.113415
0.112548
0.111649
0.11072
0.109765
0.108787
0.107791
0.106779
0.105756
0.104727
0.103695
0.102665
0.101643
0.100631
0.0996362
0.0986614
0.0977109
0.0967887
0.0958981
0.095042
0.0942229
0.0934429
0.0927034
0.0920054
0.0913494
0.0907354
0.0901632
0.108328
0.109696
0.110989
0.112189
0.113281
0.114256
0.115107
0.115832
0.116431
0.116905
0.117261
0.117503
0.117637
0.11767
0.11761
0.117464
0.117237
0.116937
0.116569
0.116138
0.11565
0.115108
0.114517
0.11388
0.1132
0.11248
0.111723
0.110931
0.110108
0.109256
0.108379
0.107479
0.10656
0.105627
0.104683
0.103732
0.102779
0.101829
0.100885
0.0999534
0.0990375
0.0981418
0.0972703
0.0964264
0.0956134
0.0948341
0.0940905
0.0933846
0.0927174
0.0920898
0.091502
0.0909539
0.105679
0.107035
0.108331
0.109547
0.110665
0.111674
0.112566
0.113339
0.113991
0.114525
0.114944
0.115253
0.115458
0.115566
0.115583
0.115517
0.115373
0.115158
0.114878
0.114537
0.11414
0.113691
0.113194
0.112651
0.112066
0.111441
0.110779
0.110081
0.109351
0.108591
0.107803
0.10699
0.106157
0.105305
0.10444
0.103564
0.102683
0.101801
0.100922
0.100051
0.0991915
0.0983489
0.0975267
0.0967288
0.0959584
0.0952185
0.0945115
0.0938393
0.0932034
0.0926046
0.0920435
0.09152
0.0910339
0.103659
0.104985
0.10626
0.107462
0.108573
0.109582
0.110481
0.111267
0.111938
0.112496
0.112945
0.113289
0.113535
0.113687
0.113754
0.113741
0.113655
0.113501
0.113284
0.113011
0.112684
0.112307
0.111885
0.111419
0.110912
0.110366
0.109783
0.109166
0.108516
0.107836
0.107127
0.106392
0.105634
0.104856
0.104062
0.103256
0.102441
0.101622
0.100803
0.0999884
0.099183
0.0983908
0.097616
0.0968623
0.0961332
0.0954317
0.0947605
0.0941215
0.0935164
0.0929462
0.0924116
0.0919129
0.0914496
0.0910213
0.102273
0.10355
0.104778
0.105937
0.10701
0.107987
0.108859
0.109624
0.110282
0.110833
0.111281
0.11163
0.111887
0.112058
0.112148
0.112164
0.112111
0.111995
0.111821
0.111594
0.111318
0.110995
0.11063
0.110223
0.109779
0.109297
0.108781
0.108231
0.107649
0.107036
0.106396
0.105729
0.105038
0.104326
0.103596
0.102852
0.102097
0.101336
0.100572
0.0998108
0.0990555
0.0983108
0.0975807
0.0968691
0.0961794
0.0955149
0.094878
0.0942712
0.0936961
0.0931538
0.0926453
0.0921707
0.0917301
0.0913228
0.101463
0.102671
0.10383
0.10492
0.105928
0.106843
0.107661
0.108377
0.108993
0.10951
0.109931
0.110261
0.110506
0.110671
0.110762
0.110785
0.110746
0.110649
0.110499
0.110301
0.110058
0.109773
0.109449
0.109088
0.108691
0.108261
0.107797
0.107302
0.106777
0.106222
0.10564
0.105032
0.104399
0.103745
0.103073
0.102384
0.101684
0.100976
0.100263
0.0995499
0.0988411
0.0981406
0.0974524
0.0967804
0.096128
0.0954986
0.0948946
0.0943186
0.0937723
0.093257
0.0927736
0.0923225
0.0919039
0.0915172
0.101138
0.102259
0.103328
0.104328
0.105248
0.106081
0.106821
0.107468
0.108021
0.108483
0.108858
0.109149
0.109363
0.109505
0.109579
0.109593
0.10955
0.109456
0.109315
0.109131
0.108907
0.108646
0.10835
0.108021
0.107661
0.107269
0.106848
0.106398
0.105919
0.105413
0.10488
0.104322
0.10374
0.103137
0.102515
0.101876
0.101225
0.100564
0.0998973
0.099229
0.0985631
0.0979035
0.0972544
0.0966195
0.0960022
0.0954058
0.0948331
0.0942863
0.0937675
0.093278
0.0928187
0.0923903
0.0919928
0.091626
0.10119
0.102209
0.103173
0.104068
0.104886
0.105622
0.106271
0.106833
0.107309
0.107702
0.108016
0.108255
0.108424
0.108529
0.108574
0.108565
0.108506
0.108403
0.108258
0.108076
0.10786
0.107612
0.107334
0.107026
0.106691
0.106329
0.105941
0.105526
0.105085
0.104618
0.104127
0.103612
0.103074
0.102515
0.101937
0.101343
0.100736
0.100118
0.0994929
0.0988653
0.0982387
0.097617
0.097004
0.0964036
0.0958192
0.0952539
0.0947106
0.0941916
0.0936988
0.0932338
0.0927975
0.0923907
0.0920135
0.0916658
0.101516
0.102423
0.103272
0.104054
0.104762
0.105391
0.10594
0.10641
0.106801
0.107117
0.107362
0.107539
0.107655
0.107713
0.107719
0.107678
0.107595
0.107473
0.107316
0.107127
0.106909
0.106665
0.106395
0.106101
0.105783
0.105442
0.105078
0.10469
0.10428
0.103846
0.10339
0.102911
0.102411
0.10189
0.101351
0.100796
0.100228
0.0996483
0.0990616
0.0984711
0.0978805
0.0972936
0.0967142
0.0961458
0.095592
0.0950559
0.0945402
0.0940473
0.0935792
0.0931374
0.092723
0.0923367
0.0919788
0.0916492
0.102027
0.102816
0.103547
0.104212
0.104806
0.105327
0.105773
0.106146
0.106449
0.106683
0.106854
0.106965
0.107022
0.107029
0.10699
0.106911
0.106796
0.106649
0.106473
0.10627
0.106044
0.105796
0.105528
0.10524
0.104932
0.104605
0.104259
0.103893
0.103506
0.103099
0.102672
0.102224
0.101756
0.101268
0.100764
0.100243
0.0997094
0.0991647
0.0986123
0.0980554
0.0974978
0.0969429
0.0963944
0.0958558
0.0953305
0.0948216
0.0943317
0.0938634
0.0934185
0.0929986
0.0926049
0.0922381
0.0918985
0.0915862
0.102651
0.103322
0.103935
0.104483
0.104965
0.105377
0.105721
0.105999
0.106212
0.106364
0.10646
0.106503
0.106498
0.10645
0.106364
0.106243
0.106092
0.105915
0.105715
0.105494
0.105254
0.104998
0.104726
0.104438
0.104135
0.103817
0.103483
0.103132
0.102765
0.102379
0.101975
0.101553
0.101112
0.100654
0.100179
0.0996891
0.0991861
0.0986725
0.098151
0.0976248
0.0970972
0.0965717
0.0960517
0.0955407
0.0950419
0.0945584
0.0940928
0.0936475
0.0932245
0.0928253
0.092451
0.0921026
0.0917803
0.0914842
0.103335
0.10389
0.104388
0.104823
0.105196
0.105504
0.105749
0.105933
0.106059
0.10613
0.106151
0.106126
0.10606
0.105957
0.105821
0.105656
0.105468
0.105258
0.10503
0.104787
0.10453
0.104261
0.103981
0.103689
0.103387
0.103073
0.102747
0.102407
0.102054
0.101685
0.1013
0.1009
0.100482
0.100049
0.0996001
0.0991371
0.0986616
0.0981759
0.0976824
0.097184
0.0966839
0.0961853
0.0956916
0.0952061
0.094732
0.0942721
0.0938291
0.0934054
0.0930029
0.0926232
0.0922673
0.0919361
0.0916301
0.0913494
0.104056
0.104497
0.104883
0.105209
0.105475
0.105682
0.10583
0.105923
0.105963
0.105955
0.105901
0.105808
0.105679
0.105518
0.105331
0.10512
0.10489
0.104645
0.104387
0.104118
0.10384
0.103554
0.103262
0.102963
0.102657
0.102343
0.10202
0.101688
0.101345
0.100989
0.100621
0.100238
0.0998407
0.0994291
0.0990036
0.0985649
0.0981147
0.0976547
0.0971872
0.0967149
0.0962407
0.0957678
0.0952993
0.0948383
0.0943879
0.093951
0.0935301
0.0931275
0.092745
0.0923844
0.0920466
0.0917324
0.0914425
0.0911768
0.104831
0.105157
0.105429
0.105644
0.105803
0.105907
0.105957
0.105956
0.105909
0.105818
0.105687
0.105522
0.105327
0.105106
0.104863
0.104602
0.104328
0.104043
0.10375
0.103451
0.103148
0.102842
0.102533
0.102223
0.101909
0.101591
0.101269
0.100941
0.100605
0.10026
0.0999042
0.0995373
0.0991582
0.0987666
0.0983627
0.0979471
0.0975208
0.0970856
0.0966433
0.0961966
0.095748
0.0953004
0.0948568
0.0944203
0.0939938
0.0935799
0.0931812
0.0928
0.0924379
0.0920966
0.0917771
0.0914803
0.0912066
0.0909562
0.105676
0.105881
0.106033
0.106133
0.10618
0.106177
0.106125
0.106027
0.105888
0.10571
0.105499
0.105259
0.104994
0.104708
0.104407
0.104092
0.103769
0.103441
0.103109
0.102777
0.102445
0.102115
0.101788
0.101462
0.101138
0.100814
0.100489
0.100162
0.0998314
0.0994946
0.0991504
0.0987976
0.098435
0.0980621
0.0976787
0.097285
0.096882
0.0964708
0.0960533
0.0956317
0.0952083
0.0947859
0.0943673
0.0939552
0.0935525
0.0931618
0.0927855
0.0924256
0.0920841
0.0917622
0.0914612
0.0911818
0.0909245
0.0906893
0.10658
0.106657
0.106686
0.106666
0.106598
0.106484
0.106326
0.106129
0.105894
0.105627
0.105332
0.105014
0.104675
0.104322
0.103958
0.103586
0.103211
0.102836
0.102462
0.102093
0.101729
0.101372
0.101022
0.100678
0.100341
0.100008
0.0996782
0.0993502
0.0990219
0.0986913
0.0983565
0.098016
0.0976684
0.0973128
0.0969486
0.0965759
0.0961952
0.0958074
0.0954141
0.0950171
0.0946187
0.0942212
0.0938274
0.0934397
0.0930609
0.0926934
0.0923395
0.0920012
0.0916803
0.0913781
0.0910956
0.0908337
0.0905927
0.0903728
0.107529
0.107475
0.107375
0.107232
0.107045
0.106818
0.106552
0.106252
0.10592
0.105561
0.105179
0.104779
0.104365
0.103941
0.103511
0.103079
0.102649
0.102223
0.101805
0.101395
0.100996
0.100609
0.100233
0.0998684
0.0995144
0.0991697
0.0988325
0.098501
0.0981731
0.0978465
0.0975192
0.0971892
0.096855
0.0965152
0.096169
0.0958162
0.0954569
0.0950918
0.0947221
0.0943493
0.0939754
0.0936027
0.0932334
0.0928701
0.0925151
0.0921709
0.0918395
0.0915229
0.0912227
0.0909402
0.0906764
0.0904321
0.0902076
0.0900029
0.108506
0.108316
0.108087
0.107817
0.10751
0.107167
0.106792
0.106386
0.105955
0.105502
0.105031
0.104547
0.104055
0.103557
0.103059
0.102565
0.102076
0.101598
0.101131
0.100678
0.100241
0.0998205
0.0994161
0.0990278
0.0986547
0.0982954
0.0979481
0.0976107
0.0972808
0.0969562
0.0966343
0.0963131
0.0959906
0.0956652
0.0953358
0.0950018
0.094663
0.0943197
0.0939729
0.0936238
0.0932742
0.0929258
0.092581
0.0922419
0.0919108
0.0915898
0.091281
0.0909862
0.0907068
0.0904441
0.0901991
0.0899724
0.0897643
0.089575
0.109492
0.109165
0.108802
0.108406
0.107977
0.107517
0.10703
0.106519
0.105987
0.105439
0.104878
0.104309
0.103736
0.103163
0.102595
0.102035
0.101486
0.100952
0.100435
0.0999362
0.0994582
0.0990013
0.0985658
0.098151
0.0977562
0.0973798
0.0970199
0.0966742
0.0963402
0.0960154
0.0956971
0.0953828
0.0950704
0.094758
0.0944441
0.0941277
0.0938084
0.0934861
0.0931616
0.0928357
0.0925098
0.0921856
0.091865
0.09155
0.0912426
0.0909449
0.0906587
0.0903856
0.0901271
0.0898843
0.0896581
0.0894491
0.0892575
0.0890834
0.110464
0.109999
0.109504
0.108979
0.108428
0.107852
0.107253
0.106635
0.106002
0.105357
0.104705
0.10405
0.103396
0.102747
0.102107
0.101479
0.100868
0.100277
0.0997067
0.0991604
0.0986392
0.0981439
0.0976747
0.0972312
0.0968122
0.0964163
0.0960415
0.0956853
0.0953451
0.095018
0.0947014
0.0943924
0.0940885
0.0937876
0.0934878
0.093188
0.0928871
0.0925851
0.0922821
0.0919788
0.0916762
0.0913758
0.0910791
0.0907881
0.0905044
0.0902299
0.0899662
0.0897149
0.0894774
0.0892545
0.0890471
0.0888557
0.0886806
0.0885217
0.111398
0.110795
0.110168
0.109517
0.108844
0.108151
0.107441
0.106718
0.105983
0.105243
0.104499
0.103758
0.103022
0.102295
0.101582
0.100887
0.100212
0.0995617
0.0989372
0.0983411
0.0977748
0.0972391
0.0967342
0.0962597
0.0958144
0.095397
0.0950051
0.0946364
0.0942879
0.0939569
0.0936401
0.0933346
0.0930377
0.0927469
0.09246
0.0921755
0.0918923
0.0916096
0.0913274
0.091046
0.0907663
0.0904892
0.0902163
0.0899489
0.0896887
0.0894373
0.0891962
0.0889666
0.0887499
0.0885469
0.0883583
0.0881845
0.0880257
0.087882
0.112266
0.111527
0.110769
0.109993
0.109201
0.108393
0.107574
0.106746
0.105912
0.105076
0.104242
0.103414
0.102596
0.101793
0.101007
0.100243
0.0995042
0.0987935
0.0981135
0.0974663
0.0968534
0.0962757
0.0957335
0.0952262
0.0947529
0.094312
0.0939013
0.0935182
0.0931598
0.0928229
0.0925044
0.0922009
0.0919095
0.0916274
0.0913523
0.091082
0.0908153
0.0905511
0.090289
0.090029
0.0897715
0.0895174
0.0892678
0.0890239
0.088787
0.0885585
0.0883397
0.0881318
0.0879359
0.0877526
0.0875826
0.0874263
0.0872837
0.0871548
0.113037
0.112166
0.111281
0.110383
0.109473
0.108554
0.107627
0.106696
0.105765
0.104836
0.103913
0.103
0.102101
0.101221
0.100363
0.0995305
0.0987273
0.0979563
0.0972203
0.0965214
0.0958611
0.0952404
0.0946596
0.0941183
0.0936156
0.0931497
0.0927187
0.0923197
0.0919497
0.0916056
0.0912838
0.0909809
0.0906937
0.0904191
0.0901544
0.0898974
0.0896463
0.0893997
0.0891569
0.0889176
0.0886819
0.0884503
0.0882236
0.0880027
0.0877888
0.087583
0.0873864
0.0872
0.0870246
0.0868609
0.0867093
0.0865702
0.0864435
0.0863292
0.113644
0.112652
0.111651
0.110641
0.109624
0.108601
0.107576
0.106551
0.105529
0.104513
0.103508
0.102516
0.101542
0.10059
0.0996641
0.0987672
0.0979032
0.0970751
0.0962856
0.0955371
0.0948311
0.0941687
0.0935503
0.0929755
0.0924436
0.0919528
0.091501
0.0910854
0.0907031
0.0903506
0.0900243
0.0897206
0.089436
0.0891673
0.0889114
0.0886659
0.0884285
0.0881977
0.0879725
0.0877521
0.0875364
0.0873256
0.0871202
0.0869208
0.0867283
0.0865437
0.0863677
0.0862012
0.086045
0.0858994
0.0857649
0.0856416
0.0855295
0.0854285
0.114102
0.112997
0.111886
0.110771
0.109652
0.108533
0.107415
0.1063
0.105193
0.104095
0.103011
0.101944
0.100899
0.0998783
0.0988867
0.0979278
0.097005
0.0961215
0.0952801
0.0944831
0.0937322
0.0930286
0.0923728
0.0917647
0.0912032
0.0906869
0.0902136
0.0897807
0.0893849
0.0890228
0.0886906
0.0883847
0.0881014
0.087837
0.0875884
0.0873528
0.0871278
0.0869114
0.0867023
0.0864995
0.0863025
0.0861112
0.0859258
0.0857468
0.0855746
0.08541
0.0852537
0.0851062
0.084968
0.0848396
0.0847212
0.0846128
0.0845143
0.0844255
0.114403
0.113179
0.111955
0.11073
0.109507
0.108287
0.107072
0.105865
0.104668
0.103486
0.10232
0.101175
0.100055
0.0989639
0.0979046
0.0968812
0.0958973
0.0949561
0.0940605
0.0932128
0.092415
0.0916683
0.0909732
0.0903298
0.0897372
0.089194
0.088698
0.0882464
0.0878363
0.0874638
0.0871254
0.0868169
0.0865347
0.0862748
0.0860339
0.0858087
0.0855967
0.0853956
0.0852036
0.0850196
0.0848425
0.0846721
0.0845082
0.0843509
0.0842006
0.0840575
0.0839221
0.0837949
0.0836762
0.0835661
0.0834648
0.0833722
0.0832881
0.0832123
0.11578
0.114433
0.113089
0.111749
0.110413
0.109083
0.10776
0.106447
0.105146
0.103859
0.10259
0.101342
0.100118
0.0989225
0.0977588
0.0966307
0.0955419
0.0944959
0.093496
0.0925451
0.0916459
0.0908001
0.0900093
0.0892742
0.0885947
0.0879702
0.0873993
0.0868799
0.0864093
0.0859843
0.0856014
0.0852565
0.0849456
0.0846646
0.0844096
0.0841769
0.0839629
0.0837648
0.08358
0.0834064
0.0832424
0.0830867
0.0829387
0.0827978
0.0826638
0.0825367
0.0824167
0.0823038
0.0821983
0.0821002
0.0820097
0.0819266
0.0818508
0.0817819
0.0817198
0.115489
0.11402
0.112557
0.111103
0.109658
0.108224
0.106801
0.105392
0.103999
0.102624
0.101271
0.0999426
0.0986422
0.0973734
0.0961397
0.094945
0.0937929
0.0926869
0.0916304
0.0906263
0.0896773
0.0887854
0.0879522
0.0871785
0.0864645
0.0858095
0.0852123
0.0846709
0.0841825
0.083744
0.0833518
0.0830017
0.0826897
0.0824114
0.0821627
0.0819395
0.0817383
0.0815557
0.0813889
0.0812353
0.081093
0.0809606
0.0808367
0.0807206
0.0806118
0.0805099
0.0804146
0.0803259
0.0802437
0.0801678
0.0800981
0.0800345
0.0799766
0.0799241
0.0798765
0.114493
0.11291
0.111338
0.109779
0.108233
0.106702
0.105187
0.10369
0.102213
0.100758
0.099329
0.097928
0.0965584
0.0952237
0.0939275
0.0926734
0.0914651
0.090306
0.0891995
0.0881487
0.0871562
0.0862242
0.0853543
0.0845476
0.0838042
0.0831237
0.0825048
0.0819457
0.0814437
0.0809956
0.0805976
0.0802458
0.0799358
0.0796632
0.0794236
0.0792129
0.0790271
0.0788626
0.0787162
0.0785852
0.0784672
0.0783603
0.078263
0.0781741
0.0780926
0.078018
0.0779496
0.0778871
0.0778301
0.0777783
0.0777313
0.0776888
0.0776504
0.0776156
0.077584
0.112379
0.1107
0.109037
0.10739
0.10576
0.10415
0.102559
0.10099
0.0994456
0.0979268
0.0964369
0.0949785
0.0935548
0.0921692
0.090825
0.0895257
0.0882751
0.0870764
0.0859332
0.0848484
0.0838247
0.0828644
0.0819692
0.0811402
0.0803777
0.0796812
0.0790497
0.0784813
0.0779734
0.0775228
0.0771258
0.0767783
0.0764759
0.0762141
0.0759884
0.0757944
0.075628
0.0754853
0.0753629
0.0752577
0.075167
0.0750886
0.0750207
0.0749616
0.0749101
0.0748652
0.0748261
0.074792
0.0747624
0.0747367
0.0747144
0.074695
0.074678
0.0746629
0.0746491
0.108468
0.106726
0.105004
0.103302
0.101621
0.0999625
0.0983273
0.0967174
0.0951347
0.0935812
0.0920595
0.0905723
0.0891225
0.0877133
0.0863479
0.0850299
0.0837626
0.0825494
0.0813937
0.0802984
0.0792663
0.0782995
0.0773998
0.0765683
0.0758052
0.0751104
0.0744826
0.0739201
0.0734203
0.0729801
0.0725956
0.072263
0.0719777
0.0717352
0.071531
0.0713606
0.0712197
0.0711043
0.0710107
0.0709357
0.0708764
0.0708301
0.0707948
0.0707686
0.0707499
0.0707374
0.07073
0.0707267
0.0707268
0.0707294
0.070734
0.0707399
0.0707465
0.0707534
0.0707599
0.102616
0.100869
0.0991434
0.0974408
0.0957619
0.0941076
0.0924793
0.0908785
0.0893071
0.0877672
0.086261
0.0847911
0.0833605
0.081972
0.0806289
0.0793344
0.078092
0.0769049
0.0757762
0.0747089
0.0737056
0.0727685
0.0718992
0.0710987
0.0703674
0.0697048
0.06911
0.0685809
0.0681151
0.0677093
0.06736
0.0670629
0.0668137
0.0666079
0.0664408
0.066308
0.066205
0.0661278
0.0660726
0.0660359
0.0660148
0.0660063
0.0660083
0.0660186
0.0660355
0.0660576
0.0660834
0.0661121
0.0661425
0.066174
0.0662058
0.0662372
0.0662677
0.0662968
0.0663239
0.0965774
0.0948625
0.093171
0.0915035
0.0898608
0.088244
0.0866543
0.0850933
0.0835625
0.0820642
0.0806004
0.0791737
0.0777868
0.0764425
0.0751441
0.0738946
0.0726973
0.0715553
0.0704717
0.0694493
0.0684905
0.0675976
0.0667719
0.0660144
0.0653255
0.0647045
0.0641505
0.0636614
0.0632348
0.0628674
0.0625556
0.0622954
0.0620823
0.0619118
0.0617794
0.0616806
0.061611
0.0615665
0.0615433
0.0615379
0.0615472
0.0615684
0.0615991
0.061637
0.0616805
0.061728
0.061778
0.0618295
0.0618816
0.0619333
0.0619841
0.0620331
0.06208
0.0621243
0.0621655
0.0900771
0.0884241
0.086795
0.0851903
0.0836109
0.0820576
0.0805318
0.0790348
0.0775684
0.0761344
0.074735
0.0733726
0.0720499
0.0707695
0.0695345
0.0683478
0.0672127
0.0661321
0.065109
0.0641459
0.0632453
0.0624091
0.0616386
0.0609348
0.0602978
0.0597271
0.0592214
0.0587788
0.0583968
0.0580722
0.0578015
0.0575805
0.057405
0.0572706
0.0571728
0.057107
0.0570692
0.0570551
0.057061
0.0570835
0.0571195
0.0571661
0.057221
0.0572819
0.0573472
0.0574152
0.0574845
0.0575542
0.0576232
0.0576908
0.0577562
0.057819
0.0578786
0.0579346
0.0579867
0.0832821
0.0817135
0.0801685
0.0786477
0.0771518
0.0756818
0.0742389
0.0728244
0.0714399
0.0700873
0.0687686
0.0674862
0.0662426
0.0650404
0.0638824
0.0627716
0.061711
0.0607033
0.0597513
0.0588576
0.0580243
0.0572532
0.0565456
0.0559022
0.0553231
0.0548076
0.0543545
0.0539618
0.0536271
0.0533472
0.0531186
0.0529373
0.0527992
0.0526999
0.0526351
0.0526003
0.0525916
0.0526049
0.0526365
0.0526831
0.0527416
0.0528094
0.0528841
0.0529635
0.053046
0.0531301
0.0532144
0.0532979
0.0533797
0.0534592
0.0535356
0.0536086
0.0536776
0.0537424
0.0538026
0.0762973
0.0748302
0.0733859
0.071965
0.0705681
0.0691963
0.0678506
0.0665324
0.0652431
0.0639847
0.062759
0.0615683
0.0604149
0.0593013
0.0582304
0.0572048
0.0562273
0.0553006
0.0544272
0.0536095
0.0528495
0.0521489
0.0515087
0.0509296
0.0504114
0.0499537
0.0495549
0.0492134
0.0489264
0.0486911
0.048504
0.0483611
0.0482586
0.0481922
0.0481577
0.048151
0.048168
0.0482049
0.0482583
0.0483249
0.0484019
0.0484865
0.0485766
0.0486702
0.0487657
0.0488616
0.0489567
0.0490502
0.0491411
0.0492289
0.049313
0.049393
0.0494686
0.0495394
0.0496054
0.0691644
0.0678124
0.0664819
0.0651736
0.0638881
0.0626264
0.0613894
0.0601785
0.0589951
0.0578409
0.0567178
0.0556279
0.0545734
0.0535568
0.0525804
0.051647
0.050759
0.0499191
0.0491294
0.0483923
0.0477095
0.0470824
0.0465121
0.0459991
0.0455432
0.0451436
0.0447993
0.0445081
0.0442678
0.0440754
0.0439275
0.0438206
0.0437507
0.0437138
0.043706
0.0437234
0.0437621
0.0438185
0.0438893
0.0439714
0.0440622
0.0441593
0.0442604
0.0443639
0.0444681
0.0445718
0.0446739
0.0447736
0.0448701
0.0449629
0.0450515
0.0451357
0.0452151
0.0452895
0.0453589
0.0618506
0.0606261
0.0594215
0.0582375
0.0570746
0.0559338
0.0548161
0.0537226
0.0526548
0.0516142
0.0506025
0.0496218
0.048674
0.0477614
0.0468864
0.0460512
0.0452581
0.0445096
0.0438077
0.0431544
0.0425513
0.0419997
0.0415005
0.0410539
0.04066
0.0403178
0.0400263
0.0397835
0.0395872
0.0394346
0.0393225
0.0392475
0.0392061
0.0391943
0.0392086
0.0392452
0.0393006
0.0393714
0.0394546
0.0395473
0.0396471
0.0397517
0.0398592
0.0399679
0.0400765
0.0401839
0.040289
0.0403911
0.0404896
0.040584
0.0406741
0.0407594
0.0408399
0.0409154
0.0409858
0.0542161
0.0531333
0.0520686
0.0510224
0.0499953
0.0489883
0.0480022
0.047038
0.0460972
0.045181
0.044291
0.0434291
0.042597
0.0417967
0.0410304
0.0403
0.0396077
0.0389555
0.0383454
0.0377789
0.0372577
0.0367827
0.0363548
0.0359742
0.0356408
0.0353539
0.0351122
0.0349143
0.0347578
0.0346402
0.0345588
0.0345103
0.0344914
0.0344987
0.0345288
0.0345783
0.034644
0.034723
0.0348123
0.0349095
0.0350122
0.0351186
0.0352269
0.0353356
0.0354435
0.0355496
0.035653
0.0357533
0.0358497
0.035942
0.0360299
0.0361131
0.0361916
0.0362652
0.0363339
0.0459189
0.0450004
0.0440974
0.0432104
0.0423399
0.0414866
0.0406512
0.0398348
0.0390384
0.0382632
0.0375104
0.0367816
0.0360784
0.0354024
0.0347554
0.0341391
0.0335553
0.0330059
0.0324924
0.0320163
0.0315789
0.0311812
0.0308239
0.0305073
0.0302312
0.0299951
0.029798
0.0296385
0.0295147
0.0294244
0.0293651
0.0293342
0.0293286
0.0293454
0.0293817
0.0294345
0.0295011
0.0295786
0.0296648
0.0297575
0.0298545
0.0299543
0.0300553
0.0301563
0.0302563
0.0303543
0.0304497
0.0305419
0.0306306
0.0307154
0.0307961
0.0308725
0.0309446
0.0310123
0.0310755
0.036126
0.0354182
0.0347218
0.034037
0.0333642
0.0327038
0.0320563
0.0314225
0.030803
0.0301988
0.0296107
0.0290399
0.0284877
0.0279552
0.0274439
0.0269552
0.0264907
0.0260517
0.0256397
0.025256
0.0249019
0.0245782
0.0242858
0.024025
0.023796
0.0235985
0.0234319
0.0232952
0.0231871
0.0231059
0.0230498
0.0230166
0.0230041
0.02301
0.023032
0.0230676
0.0231147
0.0231711
0.0232349
0.0233043
0.0233776
0.0234536
0.023531
0.0236087
0.0236859
0.0237619
0.0238361
0.0239081
0.0239775
0.024044
0.0241074
0.0241677
0.0242246
0.0242783
0.0243285
0.0211217
0.0207
0.0202834
0.0198722
0.0194668
0.0190676
0.0186753
0.0182903
0.0179133
0.0175449
0.017186
0.0168372
0.0164995
0.0161736
0.0158604
0.0155608
0.0152756
0.0150055
0.0147515
0.0145139
0.0142935
0.0140906
0.0139053
0.0137379
0.0135881
0.0134558
0.0133404
0.0132413
0.0131577
0.0130888
0.0130336
0.0129908
0.0129594
0.0129382
0.012926
0.0129218
0.0129242
0.0129325
0.0129455
0.0129624
0.0129824
0.0130048
0.013029
0.0130544
0.0130807
0.0131074
0.0131342
0.0131609
0.0131871
0.0132129
0.0132379
0.0132622
0.0132855
0.0133079
0.0133292
)
;

boundaryField
{
    inlet
    {
        type            fixedValue;
        value           nonuniform 0();
    }
    outlet
    {
        type            zeroGradient;
    }
    upperWall
    {
        type            kqRWallFunction;
        value           nonuniform List<scalar> 
55
(
0.0211217
0.0207
0.0202834
0.0198722
0.0194668
0.0190676
0.0186753
0.0182903
0.0179133
0.0175449
0.017186
0.0168372
0.0164995
0.0161736
0.0158604
0.0155608
0.0152756
0.0150055