/*--------------------------------*- C++ -*----------------------------------*\
  =========                 |
  \\      /  F ield         | OpenFOAM: The Open Source CFD Toolbox
   \\    /   O peration     | Website:  https://openfoam.org
    \\  /    A nd           | Version:  6
     \\/     M anipulation  |
\*---------------------------------------------------------------------------*/
FoamFile
{
    version     2.0;
    format      ascii;
    class       volScalarField;
    location    "0.08";
    object      nut;
}
// * * * * * * * * * * * * * * * * * * * * * * * * * * * * * * * * * * * * * //

dimensions      [0 2 -1 0 0 0 0];

internalField   nonuniform List<scalar> 
3032
(
2.3715e-05
2.37462e-05
2.37582e-05
2.37509e-05
2.37244e-05
2.36788e-05
2.36142e-05
2.35308e-05
2.34283e-05
2.33059e-05
2.31621e-05
2.29962e-05
2.28187e-05
2.26651e-05
2.25493e-05
2.24351e-05
2.2314e-05
2.21844e-05
2.2046e-05
2.18992e-05
2.17447e-05
2.15829e-05
2.14146e-05
2.12404e-05
2.10608e-05
2.08766e-05
2.06885e-05
2.0497e-05
2.03029e-05
2.01067e-05
1.99093e-05
1.97112e-05
1.95132e-05
1.93159e-05
1.91201e-05
1.89263e-05
1.87352e-05
1.85474e-05
1.83635e-05
1.81842e-05
1.80097e-05
1.78407e-05
1.76775e-05
1.75204e-05
1.73696e-05
1.72254e-05
1.70879e-05
1.69571e-05
1.6833e-05
0.000209598
0.000211316
0.000212821
0.000214107
0.000215167
0.000215994
0.000216582
0.000216924
0.000217005
0.000216807
0.000216303
0.000215465
0.000214286
0.000212834
0.000211195
0.000209401
0.000207467
0.000205408
0.000203236
0.000200962
0.000198598
0.000196155
0.000193643
0.000191073
0.000188453
0.000185795
0.000183107
0.000180399
0.00017768
0.00017496
0.000172247
0.00016955
0.000166877
0.000164238
0.000161639
0.000159089
0.000156596
0.000154165
0.000151803
0.000149515
0.000147308
0.000145184
0.000143147
0.000141201
0.000139346
0.000137585
0.000135916
0.00013434
0.000132856
0.000390023
0.000393316
0.000396208
0.000398685
0.000400735
0.000402346
0.000403509
0.000404218
0.000404463
0.000404238
0.000403535
0.000402356
0.000400715
0.00039866
0.000396247
0.000393517
0.000390498
0.000387216
0.000383691
0.000379945
0.000375998
0.000371869
0.000367577
0.000363141
0.00035858
0.000353912
0.000349156
0.00034433
0.000339451
0.000334537
0.000329606
0.000324676
0.000319765
0.000314888
0.000310063
0.000305306
0.000300632
0.000296055
0.000291591
0.00028725
0.000283044
0.000278984
0.000275077
0.000271331
0.000267751
0.00026434
0.000261101
0.000258035
0.00025514
0.000520449
0.000524885
0.000528828
0.000532257
0.000535155
0.000537509
0.000539308
0.000540545
0.000541215
0.000541319
0.000540859
0.000539843
0.000538287
0.000536231
0.000533715
0.000530774
0.00052744
0.000523739
0.000519698
0.00051534
0.000510691
0.000505775
0.000500616
0.000495237
0.000489662
0.000483915
0.000478019
0.000471997
0.000465874
0.000459673
0.000453418
0.000447132
0.000440838
0.000434561
0.000428322
0.000422145
0.00041605
0.000410059
0.000404191
0.000398464
0.000392895
0.0003875
0.000382291
0.00037728
0.000372476
0.000367886
0.000363514
0.000359364
0.000355435
0.000610518
0.000615886
0.00062074
0.000625052
0.000628799
0.000631963
0.000634528
0.000636485
0.000637828
0.000638556
0.000638672
0.000638174
0.000637085
0.00063544
0.000633271
0.000630606
0.000627474
0.000623901
0.000619915
0.00061554
0.000610804
0.000605733
0.000600352
0.000594687
0.000588765
0.000582612
0.000576255
0.00056972
0.000563034
0.000556225
0.000549319
0.000542344
0.000535328
0.000528297
0.00052128
0.000514301
0.000507389
0.000500567
0.00049386
0.000487291
0.00048088
0.000474647
0.00046861
0.000462783
0.00045718
0.000451809
0.00044668
0.000441796
0.000437159
0.000669972
0.000676192
0.000681925
0.000687135
0.000691789
0.000695862
0.000699332
0.000702183
0.000704404
0.000705988
0.000706918
0.000707204
0.000706871
0.000705946
0.000704451
0.000702411
0.00069985
0.000696794
0.000693267
0.000689296
0.000684905
0.000680122
0.000674973
0.000669485
0.000663686
0.000657602
0.000651262
0.000644695
0.000637929
0.000630994
0.000623918
0.000616732
0.000609465
0.000602148
0.00059481
0.000587481
0.00058019
0.000572966
0.000565836
0.000558825
0.00055196
0.000545261
0.000538751
0.000532447
0.000526366
0.000520521
0.000514921
0.000509575
0.000504483
0.00070596
0.00071302
0.000719652
0.00072581
0.000731452
0.000736541
0.000741046
0.000744941
0.000748211
0.00075081
0.000752747
0.000754035
0.000754688
0.000754722
0.000754153
0.000753003
0.00075129
0.000749037
0.000746267
0.000743004
0.000739273
0.000735099
0.000730509
0.00072553
0.000720189
0.000714514
0.000708535
0.000702279
0.000695778
0.000689061
0.00068216
0.000675104
0.000667926
0.000660658
0.000653331
0.000645977
0.000638628
0.000631313
0.000624063
0.000616907
0.000609872
0.000602984
0.000596265
0.000589738
0.000583421
0.000577331
0.00057148
0.000565878
0.00056053
0.000555435
0.000723658
0.00073158
0.000739159
0.000746334
0.000753051
0.000759259
0.000764921
0.00076998
0.000774397
0.000778166
0.000781284
0.000783751
0.000785571
0.000786753
0.000787308
0.00078725
0.000786595
0.000785362
0.00078357
0.000781242
0.0007784
0.000775071
0.000771278
0.000767048
0.000762409
0.000757389
0.000752016
0.000746321
0.000740333
0.000734083
0.000727603
0.000720926
0.000714082
0.000707107
0.000700032
0.00069289
0.000685715
0.00067854
0.000671395
0.000664312
0.00065732
0.000650447
0.000643719
0.00063716
0.000630791
0.000624631
0.000618696
0.000612997
0.000607541
0.00060233
0.000726919
0.00073575
0.00074434
0.000752605
0.000760489
0.000767906
0.000774782
0.000781086
0.000786788
0.000791865
0.000796301
0.000800088
0.000803221
0.000805699
0.000807529
0.000808718
0.000809278
0.000809225
0.000808575
0.000807348
0.000805565
0.000803249
0.000800426
0.00079712
0.000793358
0.000789168
0.00078458
0.000779622
0.000774326
0.000768722
0.000762844
0.000756722
0.000750391
0.000743885
0.000737238
0.000730483
0.000723654
0.000716787
0.000709913
0.000703066
0.000696277
0.000689574
0.000682988
0.000676542
0.000670262
0.000664167
0.000658276
0.000652604
0.000647159
0.000641949
0.000636971
0.000718756
0.000728554
0.000738236
0.000747649
0.000756721
0.000765385
0.000773574
0.000781239
0.000788335
0.000794828
0.000800692
0.000805906
0.00081046
0.000814344
0.000817559
0.000820108
0.000821997
0.000823238
0.000823845
0.000823836
0.000823229
0.000822047
0.000820313
0.000818051
0.000815289
0.000812053
0.000808373
0.000804278
0.000799799
0.000794967
0.000789816
0.000784378
0.000778687
0.000772778
0.000766685
0.000760443
0.000754087
0.000747653
0.000741174
0.000734685
0.000728217
0.000721803
0.000715471
0.000709251
0.000703167
0.000697242
0.000691497
0.000685947
0.000680605
0.00067548
0.000670572
0.00070167
0.000712462
0.000723213
0.00073381
0.000744154
0.000754158
0.000763747
0.000772854
0.000781423
0.000789408
0.000796773
0.000803488
0.000809534
0.000814896
0.000819567
0.000823546
0.000826836
0.000829443
0.000831381
0.000832662
0.000833306
0.000833333
0.000832764
0.000831624
0.000829939
0.000827737
0.000825046
0.000821895
0.000818317
0.000814342
0.000810004
0.000805337
0.000800374
0.00079515
0.000789701
0.000784063
0.000778271
0.00077236
0.000766366
0.000760324
0.000754268
0.00074823
0.000742241
0.000736331
0.000730527
0.000724853
0.000719332
0.000713981
0.000708815
0.000703843
0.000699068
0.000677688
0.000689521
0.000701424
0.000713272
0.00072495
0.000736354
0.000747394
0.00075799
0.000768075
0.00077759
0.000786491
0.00079474
0.00080231
0.00080918
0.000815337
0.000820776
0.000825496
0.000829501
0.000832799
0.000835405
0.000837333
0.000838603
0.000839237
0.000839257
0.00083869
0.000837564
0.000835906
0.000833746
0.000831117
0.000828049
0.000824577
0.000820735
0.000816556
0.000812076
0.000807331
0.000802357
0.000797191
0.000791867
0.000786423
0.000780894
0.000775315
0.000769718
0.000764137
0.000758602
0.000753142
0.000747782
0.000742546
0.000737454
0.000732521
0.000727758
0.000723167
0.000648875
0.000661798
0.000674899
0.000688035
0.000701075
0.000713899
0.000726401
0.000738491
0.000750088
0.000761128
0.000771554
0.000781324
0.000790402
0.000798764
0.000806392
0.000813276
0.000819412
0.000824802
0.000829452
0.000833373
0.00083658
0.000839092
0.000840927
0.000842111
0.000842668
0.000842626
0.000842013
0.00084086
0.000839198
0.000837059
0.000834477
0.000831486
0.000828121
0.000824418
0.000820412
0.00081614
0.000811639
0.000806945
0.000802094
0.000797123
0.000792066
0.000786958
0.000781833
0.000776721
0.000771652
0.000766654
0.000761751
0.000756964
0.000752311
0.000747803
0.000743438
0.000617247
0.000631283
0.000645593
0.000660013
0.000674397
0.00068861
0.000702535
0.000716069
0.000729124
0.000741626
0.000753513
0.000764735
0.000775254
0.000785041
0.000794073
0.000802339
0.00080983
0.000816548
0.000822496
0.000827684
0.000832126
0.000835838
0.000838841
0.000841157
0.000842812
0.000843832
0.000844248
0.000844088
0.000843384
0.000842169
0.000840477
0.000838342
0.000835798
0.000832882
0.00082963
0.000826078
0.000822263
0.000818222
0.00081399
0.000809605
0.000805101
0.000800515
0.000795878
0.000791223
0.000786582
0.000781981
0.000777447
0.000773002
0.000768665
0.00076445
0.000760363
0.000756402
0.00058481
0.000599947
0.000615429
0.000631079
0.000646733
0.000662247
0.000677492
0.000692357
0.000706749
0.000720587
0.000733805
0.000746352
0.000758184
0.000769269
0.000779584
0.000789115
0.000797851
0.000805792
0.000812941
0.000819305
0.000824897
0.000829734
0.000833834
0.000837219
0.000839915
0.000841949
0.000843348
0.000844143
0.000844366
0.000844048
0.000843224
0.000841928
0.000840194
0.000838059
0.000835557
0.000832726
0.000829602
0.000826221
0.00082262
0.000818836
0.000814902
0.000810855
0.000806729
0.000802555
0.000798365
0.000794187
0.000790049
0.000785973
0.00078198
0.000778083
0.000774293
0.000770611
0.000553041
0.000569232
0.00058581
0.000602584
0.000619381
0.000636048
0.000652451
0.000668476
0.000684026
0.000699018
0.000713386
0.000727077
0.000740046
0.000752262
0.0007637
0.000774343
0.000784183
0.000793215
0.000801442
0.00080887
0.00081551
0.000821378
0.000826492
0.000830873
0.000834545
0.000837534
0.000839868
0.000841576
0.000842689
0.00084324
0.000843261
0.000842787
0.000841851
0.000840489
0.000838736
0.000836628
0.0008342
0.00083149
0.000828533
0.000825364
0.000822019
0.000818533
0.000814939
0.00081127
0.000807557
0.000803829
0.000800113
0.000796433
0.00079281
0.00078926
0.000785791
0.000782401
0.000524625
0.000541765
0.000559287
0.000576996
0.000594716
0.000612291
0.000629589
0.000646497
0.000662921
0.000678782
0.000694016
0.000708571
0.000722406
0.00073549
0.000747799
0.000759316
0.000770032
0.000779942
0.000789048
0.000797354
0.000804869
0.000811609
0.000817589
0.000822829
0.000827351
0.000831181
0.000834345
0.000836871
0.00083879
0.000840132
0.000840929
0.000841215
0.000841023
0.000840386
0.00083934
0.00083792
0.00083616
0.000834095
0.000831762
0.000829194
0.000826426
0.000823493
0.000820428
0.000817262
0.000814028
0.000810753
0.000807466
0.000804191
0.000800948
0.000797755
0.000794618
0.00079153
0.000503073
0.000520908
0.000539077
0.000557387
0.000575667
0.000593772
0.000611576
0.000628974
0.00064588
0.000662221
0.00067794
0.00069299
0.000707333
0.00072094
0.000733789
0.000745865
0.000757158
0.000767661
0.000777375
0.000786304
0.000794455
0.00080184
0.000808474
0.000814373
0.00081956
0.000824056
0.000827886
0.000831078
0.00083366
0.00083566
0.000837111
0.000838042
0.000838487
0.000838479
0.000838049
0.000837233
0.000836064
0.000834575
0.000832802
0.000830777
0.000828535
0.000826108
0.00082353
0.000820832
0.000818044
0.000815195
0.000812313
0.000809421
0.000806543
0.000803693
0.000800883
0.000798116
0.000795365
0.000488353
0.000506603
0.000525103
0.000543672
0.000562155
0.000580422
0.000598361
0.00061588
0.000632903
0.00064937
0.000665229
0.00068044
0.00069497
0.000708794
0.000721891
0.000734246
0.000745849
0.000756693
0.000766778
0.000776104
0.000784677
0.000792507
0.000799605
0.000805986
0.000811669
0.000816675
0.000821025
0.000824745
0.000827861
0.000830399
0.00083239
0.000833862
0.000834847
0.000835375
0.000835477
0.000835187
0.000834536
0.000833556
0.000832281
0.000830743
0.000828975
0.000827008
0.000824874
0.000822604
0.000820229
0.000817775
0.00081527
0.000812739
0.000810203
0.000807679
0.00080518
0.000802711
0.000800274
0.000797859
0.000479822
0.000498201
0.000516722
0.000535229
0.00055359
0.000571692
0.000589443
0.000606767
0.000623601
0.000639895
0.000655607
0.000670703
0.000685155
0.00069894
0.000712041
0.000724442
0.000736134
0.000747109
0.000757363
0.000766896
0.000775712
0.000783815
0.000791217
0.000797928
0.000803965
0.000809344
0.000814087
0.000818215
0.000821751
0.000824722
0.000827154
0.000829073
0.00083051
0.000831492
0.00083205
0.000832214
0.000832014
0.000831482
0.000830647
0.000829543
0.000828199
0.000826647
0.000824916
0.000823037
0.000821039
0.000818949
0.000816793
0.000814596
0.000812379
0.000810161
0.000807953
0.000805764
0.000803593
0.000801438
0.000476499
0.00049473
0.000512995
0.000531163
0.000549129
0.000566801
0.000584108
0.000600989
0.000617395
0.000633286
0.000648629
0.000663396
0.000677564
0.000691114
0.000704029
0.000716295
0.000727901
0.000738838
0.000749102
0.000758689
0.0007676
0.000775838
0.00078341
0.000790325
0.000796595
0.000802236
0.000807263
0.000811697
0.000815558
0.00081887
0.000821656
0.000823942
0.000825754
0.000827119
0.000828064
0.000828618
0.00082881
0.000828668
0.000828222
0.000827502
0.000826537
0.000825357
0.00082399
0.000822466
0.000820811
0.000819054
0.00081722
0.000815332
0.000813411
0.000811476
0.000809539
0.000807608
0.000805681
0.000803753
0.000477275
0.000495117
0.000512893
0.000530504
0.000547867
0.000564915
0.000581591
0.000597851
0.000613659
0.000628984
0.000643801
0.000658087
0.000671825
0.000684996
0.000697585
0.00070958
0.000720969
0.000731742
0.000741892
0.000751415
0.000760307
0.00076857
0.000776206
0.000783223
0.00078963
0.000795438
0.000800661
0.000805316
0.000809422
0.000812997
0.000816065
0.000818647
0.000820768
0.000822453
0.000823726
0.000824614
0.000825144
0.000825343
0.000825239
0.000824859
0.000824231
0.000823384
0.000822345
0.000821141
0.000819799
0.000818346
0.000816806
0.000815201
0.000813554
0.000811881
0.000810195
0.000808502
0.0008068
0.000805076
0.000481069
0.000498328
0.000515444
0.000532342
0.000548962
0.000565254
0.00058118
0.000596707
0.000611808
0.000626464
0.000640653
0.00065436
0.000667569
0.000680265
0.000692434
0.000704064
0.000715143
0.00072566
0.000735606
0.000744975
0.000753762
0.000761964
0.000769584
0.000776623
0.000783089
0.000788989
0.000794336
0.000799143
0.000803426
0.000807202
0.000810489
0.000813309
0.000815683
0.000817633
0.000819183
0.000820356
0.000821178
0.000821674
0.000821869
0.000821789
0.000821461
0.000820912
0.000820166
0.000819252
0.000818194
0.000817017
0.000815745
0.000814401
0.000813005
0.000811573
0.000810118
0.000808645
0.000807148
0.000805613
0.000486928
0.000503469
0.000519811
0.0005359
0.000551693
0.000567158
0.000582268
0.000597001
0.000611339
0.000625268
0.000638775
0.000651846
0.000664469
0.000676631
0.000688321
0.000699525
0.000710232
0.00072043
0.000730109
0.000739261
0.000747879
0.000755959
0.000763499
0.000770499
0.000776963
0.000782898
0.000788311
0.000793214
0.000797619
0.000801542
0.000804998
0.000808006
0.000810585
0.000812755
0.000814537
0.000815953
0.000817026
0.000817779
0.000818237
0.000818422
0.00081836
0.000818076
0.000817595
0.000816942
0.00081614
0.000815215
0.000814188
0.000813081
0.000811915
0.000810705
0.000809462
0.000808191
0.000806885
0.000805522
0.000494075
0.000509817
0.000525323
0.000540556
0.000555488
0.000570099
0.00058437
0.000598288
0.000611844
0.000625027
0.000637828
0.000650239
0.000662249
0.000673849
0.000685026
0.000695769
0.000706067
0.000715906
0.000725277
0.000734169
0.000742574
0.000750485
0.0007579
0.000764815
0.000771232
0.000777155
0.000782589
0.000787543
0.000792027
0.000796053
0.000799636
0.000802791
0.000805534
0.000807885
0.000809862
0.000811484
0.000812772
0.000813749
0.000814435
0.000814854
0.000815029
0.000814982
0.000814738
0.000814319
0.000813749
0.000813052
0.000812248
0.000811358
0.000810403
0.000809396
0.000808349
0.000807264
0.000806132
0.000804929
0.000501915
0.000516822
0.000531472
0.000545842
0.000559913
0.000573673
0.000587113
0.000600225
0.000613005
0.000625446
0.000637545
0.000649294
0.000660688
0.000671716
0.000682368
0.000692635
0.000702503
0.000711962
0.000720998
0.000729603
0.000737765
0.000745477
0.000752733
0.00075953
0.000765865
0.000771741
0.000777161
0.00078213
0.000786657
0.000790752
0.000794427
0.000797694
0.000800569
0.000803067
0.000805205
0.000807002
0.000808476
0.000809646
0.000810533
0.000811157
0.000811541
0.000811706
0.000811673
0.000811466
0.000811106
0.000810615
0.000810013
0.000809322
0.000808558
0.000807737
0.000806869
0.000805955
0.000804985
0.000803931
0.000510018
0.00052409
0.000537895
0.000551419
0.000564653
0.000577589
0.000590224
0.000602556
0.000614584
0.000626306
0.00063772
0.000648823
0.000659609
0.000670071
0.000680201
0.000689988
0.000699421
0.000708489
0.000717179
0.000725479
0.00073338
0.000740872
0.000747948
0.000754601
0.00076083
0.000766632
0.00077201
0.000776967
0.000781509
0.000785644
0.000789382
0.000792733
0.000795711
0.000798328
0.000800601
0.000802545
0.000804176
0.000805514
0.000806576
0.000807382
0.000807951
0.000808304
0.000808461
0.000808444
0.000808273
0.000807969
0.000807551
0.00080704
0.000806452
0.000805801
0.000805097
0.00080434
0.000803519
0.000802605
0.00051826
0.000531505
0.000544481
0.000557181
0.000569599
0.000581735
0.000593588
0.00060516
0.000616453
0.000627469
0.000638209
0.000648671
0.000658852
0.000668746
0.000678347
0.000687646
0.000696631
0.000705292
0.000713617
0.000721594
0.000729212
0.00073646
0.00074333
0.000749814
0.000755909
0.000761612
0.000766921
0.000771839
0.00077637
0.00078052
0.000784295
0.000787705
0.000790762
0.000793476
0.000795861
0.00079793
0.0007997
0.000801187
0.000802406
0.000803375
0.000804114
0.000804641
0.000804974
0.000805134
0.00080514
0.000805012
0.000804768
0.000804427
0.000804006
0.000803517
0.000802969
0.000802364
0.000801688
0.000800913
0.000526915
0.000539311
0.000551442
0.000563302
0.000574892
0.000586214
0.000597272
0.00060807
0.000618614
0.000628908
0.000638954
0.000648754
0.000658306
0.000667608
0.000676654
0.000685436
0.000693944
0.000702168
0.000710096
0.000717718
0.00072502
0.000731993
0.000738626
0.000744912
0.000750844
0.000756418
0.000761632
0.000766485
0.000770981
0.000775121
0.000778913
0.000782362
0.000785479
0.000788272
0.000790753
0.000792935
0.00079483
0.000796453
0.000797818
0.000798942
0.000799842
0.000800534
0.000801037
0.000801368
0.000801546
0.000801589
0.000801515
0.000801341
0.000801083
0.000800753
0.00080036
0.000799904
0.000799373
0.000798738
0.00053619
0.000547683
0.000558918
0.000569895
0.000580617
0.000591088
0.000601316
0.000611307
0.000621069
0.000630607
0.000639928
0.000649033
0.000657925
0.000666602
0.000675059
0.000683291
0.000691289
0.000699044
0.000706544
0.000713778
0.000720735
0.000727403
0.000733771
0.000739831
0.000745575
0.000750996
0.000756092
0.00076086
0.000765299
0.000769413
0.000773204
0.000776678
0.00077984
0.0007827
0.000785266
0.000787549
0.000789559
0.00079131
0.000792814
0.000794086
0.00079514
0.000795993
0.000796659
0.000797157
0.000797502
0.000797712
0.000797803
0.000797792
0.000797693
0.000797519
0.000797276
0.000796966
0.000796576
0.00079608
0.000545998
0.000556539
0.000566835
0.00057689
0.000586707
0.000596294
0.00060566
0.000614813
0.000623762
0.000632515
0.00064108
0.000649462
0.000657662
0.000665682
0.00067352
0.00068117
0.000688626
0.00069588
0.00070292
0.000709736
0.000716316
0.000722649
0.000728724
0.00073453
0.000740059
0.000745303
0.000750257
0.000754917
0.000759282
0.00076335
0.000767123
0.000770605
0.0007738
0.000776713
0.000779352
0.000781726
0.000783842
0.000785712
0.000787347
0.00078876
0.000789962
0.000790969
0.000791795
0.000792454
0.000792962
0.000793335
0.000793587
0.000793735
0.000793792
0.000793768
0.000793673
0.000793504
0.000793253
0.000792894
0.000556229
0.000565776
0.000575096
0.000584195
0.000593077
0.000601751
0.000610227
0.000618514
0.000626624
0.000634566
0.000642349
0.000649978
0.000657459
0.000664795
0.000671983
0.000679022
0.000685905
0.000692626
0.000699176
0.000705543
0.000711717
0.000717685
0.000723437
0.000728962
0.000734249
0.00073929
0.000744079
0.000748609
0.000752877
0.00075688
0.000760619
0.000764093
0.000767305
0.000770259
0.000772959
0.000775412
0.000777625
0.000779606
0.000781365
0.000782911
0.000784256
0.000785411
0.000786391
0.000787207
0.000787873
0.000788405
0.000788815
0.000789118
0.000789326
0.000789451
0.000789498
0.000789468
0.000789352
0.000789125
0.000566751
0.000575271
0.000583586
0.000591701
0.000599623
0.000607361
0.000614924
0.000622324
0.000629572
0.00063668
0.000643656
0.00065051
0.000657247
0.000663871
0.000670383
0.000676782
0.000683065
0.000689225
0.000695253
0.000701142
0.000706879
0.000712454
0.000717854
0.000723069
0.000728088
0.000732901
0.0007375
0.000741878
0.000746028
0.000749947
0.000753632
0.000757082
0.000760296
0.000763277
0.000766027
0.000768549
0.000770849
0.000772933
0.000774807
0.00077648
0.000777961
0.00077926
0.000780388
0.000781356
0.000782177
0.000782863
0.000783426
0.000783881
0.000784237
0.000784505
0.000784692
0.000784797
0.000784812
0.000784715
0.00057741
0.000584879
0.000592168
0.000599281
0.000606224
0.000613007
0.00061964
0.000626135
0.000632505
0.000638759
0.000644911
0.000650968
0.000656939
0.000662829
0.000668641
0.000674376
0.000680031
0.000685602
0.000691083
0.000696464
0.000701737
0.000706889
0.00071191
0.000716788
0.000721512
0.000726071
0.000730456
0.000734658
0.000738669
0.000742484
0.000746098
0.000749507
0.000752709
0.000755703
0.00075849
0.00076107
0.000763447
0.000765624
0.000767606
0.000769399
0.00077101
0.000772447
0.000773718
0.000774833
0.000775804
0.00077664
0.000777353
0.000777955
0.000778455
0.000778863
0.000779185
0.000779421
0.000779563
0.000779591
0.000588026
0.000594433
0.000600683
0.000606782
0.000612735
0.000618552
0.000624244
0.000629822
0.0006353
0.000640688
0.000645999
0.000651244
0.000656432
0.00066157
0.000666662
0.00067171
0.000676715
0.000681673
0.00068658
0.000691428
0.000696209
0.000700912
0.000705527
0.000710042
0.000714445
0.000718725
0.000722872
0.000726876
0.000730727
0.000734418
0.000737942
0.000741293
0.000744467
0.000747461
0.000750272
0.000752899
0.000755343
0.000757605
0.000759687
0.000761593
0.000763327
0.000764895
0.000766304
0.000767562
0.000768677
0.000769659
0.000770517
0.000771262
0.000771901
0.000772445
0.000772897
0.000773259
0.000773524
0.000773673
0.000598397
0.000603738
0.000608948
0.000614029
0.000618989
0.000623836
0.000628581
0.000633237
0.000637815
0.000642329
0.00064679
0.000651212
0.000655604
0.000659974
0.00066433
0.000668674
0.000673009
0.000677334
0.000681645
0.000685937
0.000690202
0.000694431
0.000698614
0.000702741
0.000706798
0.000710776
0.000714662
0.000718445
0.000722115
0.000725662
0.000729078
0.000732355
0.000735486
0.000738465
0.000741288
0.000743951
0.000746452
0.000748789
0.000750963
0.000752973
0.000754824
0.000756517
0.000758059
0.000759453
0.000760708
0.00076183
0.000762828
0.00076371
0.000764484
0.000765158
0.000765736
0.000766218
0.0007666
0.000766864
0.000608295
0.000612579
0.000616753
0.000620822
0.000624792
0.000628672
0.000632472
0.000636205
0.000639883
0.000643519
0.000647127
0.00065072
0.000654308
0.000657902
0.000661509
0.000665136
0.000668786
0.00067246
0.000676157
0.000679872
0.0006836
0.000687334
0.000691063
0.000694779
0.000698468
0.00070212
0.000705723
0.000709265
0.000712733
0.000716118
0.000719408
0.000722594
0.000725667
0.000728618
0.00073144
0.000734127
0.000736674
0.000739077
0.000741333
0.000743441
0.0007454
0.000747212
0.000748879
0.000750404
0.000751792
0.000753048
0.00075418
0.000755194
0.000756096
0.000756894
0.000757591
0.000758188
0.00075868
0.000759052
0.000617465
0.000620707
0.000623861
0.00062693
0.000629922
0.000632845
0.000635708
0.000638525
0.000641308
0.000644071
0.000646827
0.00064959
0.000652372
0.000655185
0.000658039
0.00066094
0.000663894
0.000666905
0.000669973
0.000673096
0.00067627
0.000679489
0.000682746
0.00068603
0.000689331
0.000692637
0.000695937
0.000699217
0.000702466
0.00070567
0.000708817
0.000711896
0.000714896
0.000717804
0.000720613
0.000723312
0.000725895
0.000728353
0.000730683
0.000732879
0.000734939
0.000736861
0.000738646
0.000740294
0.000741808
0.000743192
0.00074445
0.000745588
0.000746612
0.000747526
0.000748335
0.000749039
0.000749633
0.000750105
0.000625197
0.00062748
0.000629691
0.000631835
0.000633919
0.000635951
0.000637941
0.000639902
0.000641846
0.000643788
0.000645742
0.000647721
0.000649741
0.000651812
0.000653946
0.000656153
0.000658439
0.00066081
0.000663269
0.000665816
0.000668448
0.000671161
0.00067395
0.000676805
0.000679717
0.000682674
0.000685666
0.000688678
0.000691697
0.000694711
0.000697704
0.000700664
0.000703577
0.000706429
0.00070921
0.000711907
0.00071451
0.000717009
0.000719397
0.000721665
0.00072381
0.000725826
0.000727712
0.000729466
0.000731089
0.000732583
0.000733951
0.000735196
0.000736324
0.000737338
0.000738241
0.000739035
0.000739715
0.00074027
0.000631678
0.000633047
0.00063436
0.00063562
0.000636835
0.000638013
0.000639165
0.000640303
0.000641439
0.000642589
0.000643767
0.000644988
0.000646266
0.000647614
0.000649046
0.000650572
0.000652202
0.000653942
0.000655798
0.000657771
0.000659861
0.000662067
0.000664383
0.000666802
0.000669317
0.000671916
0.000674588
0.000677319
0.000680097
0.000682905
0.00068573
0.000688556
0.000691368
0.00069415
0.000696888
0.000699568
0.000702177
0.000704702
0.000707133
0.000709459
0.000711674
0.00071377
0.000715742
0.000717589
0.000719307
0.000720897
0.00072236
0.000723698
0.000724915
0.000726014
0.000726998
0.000727867
0.000728618
0.000729243
0.000637147
0.000637549
0.000637909
0.000638233
0.000638526
0.000638799
0.000639061
0.000639324
0.000639603
0.000639911
0.000640263
0.000640675
0.000641163
0.00064174
0.000642422
0.00064322
0.000644145
0.000645207
0.000646413
0.000647767
0.000649272
0.000650927
0.000652729
0.000654674
0.000656754
0.000658959
0.000661279
0.000663701
0.000666209
0.00066879
0.000671426
0.000674101
0.000676796
0.000679496
0.000682182
0.000684837
0.000687446
0.000689992
0.000692464
0.000694847
0.000697131
0.000699307
0.000701367
0.000703306
0.00070512
0.000706806
0.000708365
0.000709797
0.000711103
0.000712287
0.000713349
0.000714292
0.000715112
0.000715804
0.000641254
0.000640678
0.000640072
0.000639439
0.000638785
0.000638117
0.000637443
0.000636774
0.000636123
0.000635503
0.000634928
0.000634414
0.000633977
0.000633633
0.000633399
0.000633288
0.000633316
0.000633495
0.000633838
0.000634352
0.000635046
0.000635923
0.000636987
0.000638237
0.000639669
0.000641278
0.000643056
0.000644992
0.000647074
0.000649287
0.000651615
0.00065404
0.000656544
0.000659107
0.00066171
0.000664331
0.000666952
0.000669553
0.000672115
0.000674622
0.000677057
0.000679408
0.00068166
0.000683806
0.000685835
0.000687742
0.000689522
0.000691174
0.000692695
0.000694087
0.000695351
0.000696488
0.000697499
0.000698383
0.000699136
0.000642412
0.000640805
0.000639181
0.000637544
0.0006359
0.000634257
0.000632623
0.000631009
0.000629428
0.000627894
0.00062642
0.000625024
0.00062372
0.000622527
0.000621461
0.000620538
0.000619776
0.000619188
0.000618788
0.000618589
0.000618599
0.000618826
0.000619275
0.000619948
0.000620844
0.000621959
0.000623288
0.000624819
0.000626542
0.000628441
0.0006305
0.0006327
0.000635021
0.00063744
0.000639935
0.000642484
0.000645063
0.000647649
0.000650221
0.000652758
0.000655241
0.000657654
0.000659979
0.000662205
0.00066432
0.000666316
0.000668185
0.000669925
0.000671531
0.000673003
0.000674341
0.000675546
0.00067662
0.000677561
0.000678367
0.000637961
0.000635358
0.000632749
0.00063014
0.000627536
0.000624947
0.000622381
0.000619849
0.000617364
0.000614939
0.000612589
0.000610331
0.000608181
0.000606156
0.000604276
0.000602557
0.000601018
0.000599674
0.000598543
0.000597637
0.00059697
0.000596552
0.00059639
0.000596489
0.00059685
0.000597472
0.000598349
0.000599475
0.000600836
0.000602419
0.000604206
0.000606178
0.000608311
0.000610583
0.000612968
0.000615439
0.000617972
0.000620539
0.000623116
0.000625678
0.000628203
0.00063067
0.000633062
0.000635361
0.000637555
0.000639632
0.000641583
0.000643402
0.000645086
0.000646631
0.000648037
0.000649304
0.000650433
0.000651425
0.000652278
0.000624409
0.000620905
0.000617405
0.000613914
0.00061044
0.000606992
0.000603578
0.00060021
0.0005969
0.000593662
0.000590511
0.000587463
0.000584536
0.000581748
0.000579117
0.000576663
0.000574404
0.00057236
0.000570548
0.000568985
0.000567685
0.000566662
0.000565925
0.000565483
0.000565339
0.000565493
0.000565943
0.000566681
0.000567696
0.000568975
0.0005705
0.000572248
0.000574197
0.000576321
0.000578592
0.00058098
0.000583457
0.000585994
0.000588562
0.000591134
0.000593684
0.000596188
0.000598626
0.000600978
0.00060323
0.000605367
0.00060738
0.00060926
0.000611002
0.000612603
0.00061406
0.000615375
0.000616547
0.000617578
0.000618468
0.000596006
0.000591796
0.000587596
0.000583413
0.000579254
0.000575128
0.000571045
0.000567015
0.000563051
0.000559167
0.000555377
0.000551698
0.000548148
0.000544745
0.000541508
0.000538458
0.000535615
0.000532998
0.000530628
0.000528523
0.0005267
0.000525174
0.000523959
0.000523062
0.000522492
0.000522249
0.000522333
0.000522737
0.000523452
0.000524462
0.00052575
0.000527294
0.000529067
0.000531044
0.000533193
0.000535484
0.000537885
0.000540363
0.000542889
0.000545432
0.000547965
0.000550462
0.0005529
0.000555258
0.00055752
0.000559671
0.000561699
0.000563597
0.000565356
0.000566975
0.000568451
0.000569783
0.000570973
0.000572021
0.000572929
0.000551088
0.000546546
0.000542018
0.00053751
0.000533031
0.000528588
0.000524191
0.000519851
0.00051558
0.000511391
0.0005073
0.000503323
0.000499477
0.000495781
0.000492255
0.00048892
0.000485796
0.000482905
0.000480268
0.000477904
0.000475832
0.000474068
0.000472628
0.000471521
0.000470755
0.000470334
0.000470256
0.000470516
0.000471104
0.000472003
0.000473196
0.000474659
0.000476365
0.000478284
0.000480386
0.000482637
0.000485003
0.000487453
0.000489952