/*--------------------------------*- C++ -*----------------------------------*\
  =========                 |
  \\      /  F ield         | OpenFOAM: The Open Source CFD Toolbox
   \\    /   O peration     | Website:  https://openfoam.org
    \\  /    A nd           | Version:  6
     \\/     M anipulation  |
\*---------------------------------------------------------------------------*/
FoamFile
{
    version     2.0;
    format      ascii;
    class       volScalarField;
    location    "0.08";
    object      p;
}
// * * * * * * * * * * * * * * * * * * * * * * * * * * * * * * * * * * * * * //

dimensions      [0 2 -2 0 0 0 0];

internalField   nonuniform List<scalar> 
3032
(
0.0401834
0.0514996
0.0627299
0.0738066
0.0846661
0.0952494
0.105503
0.11538
0.124839
0.133845
0.142374
0.150415
0.157983
0.165073
0.171651
0.177707
0.183242
0.188267
0.192793
0.196838
0.200421
0.203564
0.206289
0.20862
0.210582
0.2122
0.2135
0.214507
0.215247
0.215744
0.216021
0.216102
0.216009
0.215763
0.215384
0.214889
0.214296
0.213621
0.212879
0.212083
0.211244
0.210373
0.20948
0.208574
0.20766
0.206747
0.205839
0.204941
0.204057
0.0310127
0.0421232
0.0531945
0.06416
0.074957
0.0855272
0.0958177
0.105781
0.115378
0.124571
0.133329
0.141616
0.149384
0.15662
0.163349
0.169577
0.175308
0.180549
0.18531
0.189607
0.193455
0.196873
0.199881
0.202501
0.204756
0.206668
0.208262
0.209561
0.210588
0.211367
0.21192
0.21227
0.212436
0.21244
0.212301
0.212036
0.211662
0.211194
0.210648
0.210036
0.209371
0.208662
0.207921
0.207155
0.206372
0.205579
0.204782
0.203986
0.203196
0.02099
0.0318246
0.0426579
0.0534245
0.0640626
0.0745142
0.0847264
0.0946521
0.10425
0.113484
0.122322
0.130732
0.138688
0.146174
0.153187
0.159721
0.165775
0.171354
0.176464
0.181118
0.18533
0.189115
0.192493
0.195481
0.198103
0.200377
0.202328
0.203977
0.205346
0.206457
0.207332
0.207991
0.208456
0.208746
0.208879
0.208873
0.208744
0.208509
0.208181
0.207774
0.2073
0.206771
0.206196
0.205584
0.204944
0.204283
0.203608
0.202923
0.202235
0.0129929
0.0237374
0.0345008
0.0452174
0.0558249
0.066265
0.0764839
0.0864331
0.0960698
0.105357
0.114262
0.122762
0.130835
0.138466
0.145641
0.152352
0.158599
0.164383
0.169711
0.174592
0.179039
0.183066
0.186691
0.18993
0.192804
0.195332
0.197535
0.199434
0.20105
0.202405
0.203518
0.204409
0.205099
0.205607
0.205949
0.206145
0.206209
0.206157
0.206004
0.205762
0.205444
0.205062
0.204624
0.204142
0.203623
0.203074
0.202503
0.201915
0.201317
0.00628973
0.0170742
0.0278847
0.0386548
0.0493212
0.0598252
0.0701124
0.0801341
0.0898468
0.0992131
0.108202
0.11679
0.124957
0.132688
0.13997
0.146798
0.153171
0.15909
0.164561
0.169594
0.174199
0.17839
0.182184
0.185596
0.188646
0.191352
0.193735
0.195814
0.197609
0.19914
0.200428
0.201491
0.202349
0.203019
0.20352
0.203869
0.20408
0.20417
0.204152
0.20404
0.203845
0.203579
0.203253
0.202874
0.202453
0.201996
0.201511
0.201003
0.20048
0.000269569
0.0111826
0.022119
0.0330105
0.0437931
0.0544073
0.0647989
0.0749193
0.0847254
0.0941812
0.103258
0.111931
0.120183
0.127999
0.13537
0.142291
0.148761
0.154782
0.160361
0.165507
0.17023
0.174544
0.178465
0.182009
0.185193
0.188035
0.190556
0.192773
0.194707
0.196377
0.197802
0.199
0.199991
0.200792
0.20142
0.201892
0.202223
0.202428
0.20252
0.202514
0.202421
0.202251
0.202016
0.201725
0.201386
0.201007
0.200595
0.200157
0.199698
-0.00529617
0.00581897
0.0169462
0.0280153
0.0389612
0.0497239
0.0602492
0.0704889
0.0804021
0.0899553
0.0991211
0.107877
0.116207
0.124098
0.131542
0.138537
0.145082
0.151182
0.156842
0.162073
0.166886
0.171294
0.175312
0.178957
0.182245
0.185194
0.187823
0.190151
0.192196
0.193976
0.195512
0.19682
0.197919
0.198827
0.199559
0.200133
0.200563
0.200864
0.201049
0.201132
0.201124
0.201037
0.20088
0.200664
0.200396
0.200084
0.199736
0.199359
0.198957
0.198536
-0.0105163
0.000862515
0.0122346
0.0235273
0.0346745
0.045615
0.0562957
0.0666709
0.0767023
0.0863586
0.0956139
0.104449
0.112848
0.120802
0.128306
0.135359
0.141962
0.14812
0.153842
0.159136
0.164016
0.168495
0.172588
0.176311
0.17968
0.182713
0.185429
0.187845
0.189979
0.191851
0.193477
0.194876
0.196065
0.197062
0.197882
0.198541
0.199055
0.199437
0.199701
0.199861
0.199926
0.19991
0.199821
0.19967
0.199464
0.199212
0.198921
0.198596
0.198245
0.197873
-0.0154128
-0.00372069
0.00793786
0.0194873
0.0308604
0.0419976
0.0528476
0.0633677
0.0735213
0.0832794
0.0926194
0.101524
0.109983
0.117989
0.125539
0.132633
0.139278
0.145477
0.151242
0.156583
0.161512
0.166043
0.170193
0.173975
0.177408
0.180508
0.183293
0.185781
0.187989
0.189936
0.191638
0.193114
0.194379
0.195451
0.196346
0.197079
0.197665
0.198117
0.19845
0.198676
0.198806
0.198852
0.198823
0.198729
0.198578
0.198379
0.198138
0.197862
0.197557
0.197229
0.196882
-0.0199372
-0.0078978
0.00407286
0.0158982
0.0275111
0.0388542
0.0498778
0.0605408
0.0708104
0.0806612
0.0900742
0.0990364
0.10754
0.115581
0.123161
0.130282
0.13695
0.143175
0.148967
0.154337
0.159299
0.163867
0.168057
0.171885
0.175367
0.17852
0.181361
0.183908
0.186177
0.188186
0.189952
0.191493
0.192824
0.193961
0.194921
0.195718
0.196366
0.196881
0.197274
0.197558
0.197746
0.197847
0.197871
0.197829
0.197728
0.197577
0.197381
0.197149
0.196887
0.196599
0.19629
-0.0239959
-0.0115903
0.000705118
0.0128132
0.0246671
0.0362103
0.0473964
0.0581883
0.0685573
0.0784825
0.0879493
0.096949
0.105478
0.113535
0.121125
0.128254
0.134929
0.141162
0.146963
0.152347
0.157327
0.161918
0.166136
0.169995
0.173514
0.176707
0.179593
0.182187
0.184507
0.186569
0.188389
0.189986
0.191373
0.192567
0.193584
0.194437
0.195142
0.195711
0.196158
0.196495
0.196733
0.196884
0.196957
0.196961
0.196906
0.196798
0.196645
0.196453
0.196229
0.195979
0.195706
-0.0274514
-0.0146769
-0.00206178
0.0103162
0.022392
0.0341126
0.0454358
0.0563294
0.0667701
0.0767418
0.0862353
0.0952463
0.103775
0.111825
0.119403
0.126518
0.133181
0.139403
0.145198
0.15058
0.155563
0.160163
0.164394
0.168274
0.171817
0.17504
0.17796
0.180592
0.182953
0.185059
0.186927
0.188571
0.190007
0.191251
0.192318
0.193221
0.193976
0.194594
0.19509
0.195474
0.195759
0.195955
0.196072
0.19612
0.196105
0.196038
0.195924
0.19577
0.195582
0.195366
0.195127
-0.0301332
-0.0170132
-0.0041089
0.00850341
0.0207624
0.0326197
0.0440389
0.0549938
0.0654668
0.0754479
0.0849328
0.0939224
0.102421
0.110436
0.117977
0.125056
0.131684
0.137877
0.143648
0.149011
0.153982
0.158577
0.16281
0.166698
0.170255
0.173498
0.176443
0.179104
0.181499
0.183641
0.185547
0.187233
0.188712
0.19
0.191111
0.192059
0.192858
0.193521
0.194061
0.194488
0.194816
0.195054
0.195211
0.195298
0.195322
0.195292
0.195214
0.195096
0.194942
0.194759
0.194552
-0.0318728
-0.0184602
-0.00532409
0.00746311
0.0198454
0.0317809
0.0432399
0.0542028
0.0646588
0.0746036
0.0840386
0.092969
0.101403
0.109353
0.116829
0.123847
0.13042
0.136563
0.142292
0.147621
0.152566
0.157142
0.161365
0.16525
0.168811
0.172065
0.175026
0.177708
0.180128
0.1823
0.184239
0.185959
0.187476
0.188802
0.189953
0.190941
0.19178
0.192484
0.193063
0.193531
0.193897
0.194173
0.194369
0.194492
0.194552
0.194557
0.194514
0.194428
0.194307
0.194156
0.19398
0.193782
-0.032544
-0.0189246
-0.00564234
0.00723639
0.0196627
0.0316022
0.0430325
0.0539414
0.0643243
0.0741828
0.0835233
0.0923553
0.100691
0.108544
0.11593
0.122863
0.129359
0.135434
0.141104
0.146384
0.15129
0.155836
0.160038
0.16391
0.167466
0.170722
0.173692
0.176389
0.178828
0.181023
0.182989
0.184739
0.186288
0.187648
0.188834
0.189858
0.190734
0.191475
0.192091
0.192595
0.192998
0.19331
0.19354
0.193699
0.193793
0.193831
0.19382
0.193766
0.193676
0.193555
0.193407
0.193238
-0.0319354
-0.0182252
-0.00491033
0.00795164
0.0203205
0.0321704
0.043487
0.054265
0.0645062
0.0742175
0.0834096
0.0920958
0.100291
0.108012
0.115273
0.122094
0.128488
0.134474
0.140066
0.14528
0.150131
0.154633
0.158802
0.16265
0.166192
0.169441
0.172411
0.175115
0.177567
0.17978
0.181768
0.183543
0.185119
0.186509
0.187727
0.188784
0.189694
0.190469
0.19112
0.191658
0.192096
0.192442
0.192706
0.192897
0.193024
0.193094
0.193115
0.193092
0.193033
0.192941
0.192823
0.192682
-0.0298397
-0.0162035
-0.00300853
0.0096978
0.0218847
0.0335348
0.0446411
0.0552044
0.0652316
0.0747335
0.083724
0.0922189
0.100235
0.107789
0.114899
0.121581
0.127852
0.133729
0.139226
0.144359
0.149141
0.153588
0.157712
0.161526
0.165043
0.168277
0.171239
0.173943
0.1764
0.178624
0.180626
0.18242
0.184019
0.185433
0.186677
0.187763
0.188702
0.189507
0.190188
0.190758
0.191226
0.191603
0.191898
0.19212
0.192277
0.192377
0.192427
0.192433
0.192402
0.192339
0.192248
0.192134
-0.0268039
-0.0133878
-0.000437358
0.0120093
0.0239288
0.0353102
0.0461513
0.0564572
0.0662373
0.0755049
0.0842752
0.092565
0.100391
0.107772
0.114724
0.121264
0.127409
0.133174
0.138574
0.143622
0.148333
0.15272
0.156796
0.160571
0.16406
0.167273
0.170222
0.172919
0.175376
0.177605
0.179616
0.181423
0.183038
0.184471
0.185736
0.186844
0.187807
0.188636
0.189343
0.189939
0.190433
0.190836
0.191158
0.191406
0.191589
0.191716
0.191791
0.191824
0.191818
0.191779
0.191713
0.191623
0.191513
-0.0231795
-0.0100906
0.00252795
0.0146449
0.0262424
0.0373131
0.047858
0.0578838
0.0674013
0.0764242
0.084968
0.0930493
0.100685
0.107892
0.114688
0.121087
0.127107
0.132761
0.138064
0.143028
0.147668
0.151994
0.156019
0.159755
0.163212
0.166401
0.169334
0.172021
0.174473
0.176702
0.178718
0.180533
0.182159
0.183607
0.184887
0.186013
0.186995
0.187845
0.188573
0.189191
0.189708
0.190133
0.190478
0.190749
0.190955
0.191104
0.191203
0.191258
0.191275
0.191258
0.191214
0.191145
0.191057
0.190951
-0.0192597
-0.00656505
0.00566994
0.0174188
0.0286665
0.0394078
0.0496445
0.0593837
0.0686361
0.0774148
0.0857348
0.0936117
0.101062
0.108101
0.114745
0.121008
0.126907
0.132454
0.137663
0.142546
0.147115
0.151381
0.155357
0.159051
0.162475
0.165639
0.168553
0.171227
0.173672
0.175897
0.177915
0.179735
0.181368
0.182826
0.184119
0.185259
0.186257
0.187123
0.187869
0.188505
0.189041
0.189486
0.18985
0.190141
0.190368
0.190537
0.190656
0.190731
0.190768
0.190772
0.190747
0.190698
0.190629
0.190542
-0.0152602
-0.00299272
0.00883636
0.0202032
0.0310939
0.0415035
0.0514336
0.0608907
0.0698844
0.0784267
0.0865311
0.0942122
0.101485
0.108364
0.114863
0.120998
0.126782
0.132227
0.137346
0.142151
0.146653
0.150861
0.154787
0.158441
0.161832
0.164969
0.167863
0.170522
0.172957
0.175178
0.177194
0.179016
0.180654
0.182119
0.183421
0.184572
0.185582
0.186463
0.187223
0.187875
0.188427
0.188889
0.18927
0.189578
0.189823
0.19001
0.190147
0.19024
0.190295
0.190317
0.19031
0.190279
0.190227
0.190158
-0.0113266
0.000506666
0.0119289
0.0229172
0.0334575
0.0435443
0.0531783
0.0623646
0.0711111
0.0794286
0.0873288
0.094825
0.10193
0.108659
0.115023
0.121037
0.126712
0.132062
0.137096
0.141827
0.146264
0.150417
0.154296
0.15791
0.161267
0.164378
0.167251
0.169895
0.172318
0.174532
0.176544
0.178365
0.180006
0.181475
0.182784
0.183944
0.184964
0.185856
0.186629
0.187293
0.187859
0.188335
0.188731
0.189055
0.189315
0.189518
0.189672
0.189781
0.189852
0.18989
0.1899
0.189885
0.189849
0.189795
-0.00754965
0.00386018
0.0148888
0.0255133
0.0357186
0.0454982
0.0548516
0.063782
0.072296
0.0804023
0.0881113
0.0954344
0.102384
0.108971
0.115209
0.12111
0.126684
0.131944
0.136899
0.141559
0.145935
0.150035
0.153869
0.157444
0.16077
0.163854
0.166706
0.169333
0.171744
0.173949
0.175956
0.177775
0.179416
0.180888
0.182202
0.183368
0.184396
0.185296
0.186079
0.186755
0.187332
0.187821
0.18823
0.188568
0.188841
0.189059
0.189226
0.18935
0.189436
0.189489
0.189514
0.189514
0.189492
0.189453
-0.0039801
0.00702784
0.0176845
0.0279664
0.037857
0.0473487
0.0564396
0.0651312
0.0734282
0.0813379
0.0888689
0.0960311
0.102835
0.109292
0.115412
0.121207
0.126688
0.131863
0.136744
0.141339
0.145657
0.149707
0.153497
0.157035
0.16033
0.163388
0.166218
0.168828
0.171227
0.173422
0.175423
0.177238
0.178878
0.180351
0.181668
0.182838
0.183872
0.18478
0.185571
0.186256
0.186843
0.187343
0.187763
0.188112
0.188398
0.188628
0.188808
0.188946
0.189045
0.189111
0.189149
0.189163
0.189155
0.18913
-0.000641395
0.0099921
0.020303
0.0302666
0.0398651
0.0490898
0.0579373
0.0664075
0.0745036
0.082231
0.089597
0.0966101
0.103279
0.109615
0.115626
0.121323
0.126716
0.131813
0.136624
0.141157
0.145421
0.149424
0.153172
0.156675
0.159939
0.162972
0.165781
0.168375
0.17076
0.172944
0.174938
0.176748
0.178385
0.179858
0.181176
0.18235
0.183388
0.184301
0.185099
0.185792
0.186387
0.186896
0.187326
0.187686
0.187982
0.188223
0.188416
0.188565
0.188676
0.188755
0.188805
0.188831
0.188836
0.188823
0.00246353
0.0127523
0.022745
0.0324156
0.0417449
0.0507235
0.0593464
0.0676122
0.0755225
0.0830815
0.0902949
0.0971699
0.103715
0.109937
0.115847
0.121453
0.126764
0.131788
0.136534
0.141009
0.145222
0.14918
0.152889
0.156358
0.159593
0.162601
0.165389
0.167965
0.170337
0.172511
0.174496
0.176301
0.177934
0.179405
0.180724
0.181899
0.18294
0.183858
0.184661
0.185359
0.185962
0.186479
0.186917
0.187286
0.187592
0.187843
0.188045
0.188205
0.188328
0.188417
0.188479
0.188516
0.188533
0.188531
0.00534254
0.0153164
0.0250179
0.0344197
0.0435019
0.0522541
0.0606701
0.0687474
0.0764863
0.0838895
0.0909617
0.0977087
0.104138
0.110256
0.116072
0.121593
0.126827
0.131783
0.136467
0.140888
0.145053
0.148968
0.15264
0.156077
0.159283
0.162267
0.165035
0.167594
0.169951
0.172114
0.174091
0.175889
0.177518
0.178987
0.180304
0.18148
0.182523
0.183444
0.184251
0.184954
0.185563
0.186086
0.186532
0.186909
0.187223
0.187483
0.187695
0.187865
0.187997
0.188097
0.188169
0.188217
0.188244
0.188254
0.00807299
0.0177549
0.0271853
0.0363363
0.0451872
0.0537267
0.0619481
0.0698475
0.077424
0.0846794
0.0916172
0.0982423
0.104561
0.110579
0.116304
0.121743
0.126904
0.131793
0.136418
0.140786
0.144903
0.148777
0.152412
0.155816
0.158994
0.161953
0.1647
0.167241
0.169584
0.171734
0.173701
0.175492
0.177115
0.17858
0.179895
0.18107
0.182114
0.183037
0.183847
0.184555
0.185168
0.185697
0.186149
0.186533
0.186856
0.187124
0.187344
0.187523
0.187664
0.187774
0.187856
0.187915
0.187952
0.187972
0.0108085
0.020203
0.0293656
0.0382682
0.0468895
0.0552178
0.0632451
0.0709667
0.0783809
0.0854881
0.092291
0.0987933
0.105
0.110917
0.11655
0.121907
0.126993
0.131815
0.136379
0.140693
0.144762
0.148592
0.152189
0.155559
0.158707
0.161641
0.164366
0.166888
0.169214
0.171351
0.173306
0.175088
0.176705
0.178165
0.179477
0.180651
0.181695
0.182618
0.183431
0.184142
0.18476
0.185294
0.185753
0.186143
0.186473
0.18675
0.186979
0.187166
0.187317
0.187437
0.187529
0.187598
0.187646
0.187677
0.0136279
0.0227284
0.0316165
0.0402644
0.0486504
0.0567616
0.0645896
0.0721285
0.0793756
0.0863304
0.0929943
0.0993702
0.105462
0.111275
0.116814
0.122085
0.127094
0.131847
0.136349
0.140607
0.144625
0.148411
0.151968
0.155303
0.158421
0.161328
0.164029
0.166531
0.16884
0.170962
0.172906
0.174679
0.176288
0.177743
0.179051
0.180223
0.181266
0.182191
0.183005
0.18372
0.184342
0.184881
0.185346
0.185743
0.186081
0.186365
0.186603
0.1868
0.186961
0.187091
0.187194
0.187273
0.187333
0.187375
0.0165253
0.0253268
0.0339352
0.0423232
0.0504687
0.0583581
0.0659819
0.0733337
0.0804094
0.0872077
0.0937289
0.099975
0.105949
0.111655
0.117097
0.12228
0.12721
0.131891
0.136329
0.140529
0.144496
0.148235
0.151752
0.15505
0.158136
0.161015
0.163692
0.166172
0.168463
0.170571
0.172502
0.174264
0.175866
0.177314
0.178618
0.179787
0.180829
0.181754
0.182571
0.183288
0.183915
0.184459
0.18493
0.185334
0.185679
0.185972
0.186219
0.186426
0.186597
0.186737
0.186851
0.186941
0.187012
0.187066
0.0194951
0.0279939
0.0363184
0.0444423
0.052343
0.0600062
0.0674218
0.0745822
0.0814826
0.0881206
0.0944956
0.100608
0.106461
0.112057
0.117399
0.122492
0.12734
0.131948
0.13632
0.140461
0.144374
0.148066
0.15154
0.154801
0.157854
0.160704
0.163355
0.165813
0.168085
0.170176
0.172094
0.173845
0.175437
0.176879
0.178178
0.179344
0.180385
0.181309
0.182127
0.182847
0.183478
0.184027
0.184504
0.184915
0.185268
0.18557
0.185826
0.186042
0.186224
0.186375
0.186499
0.186601
0.186684
0.186749
0.0225278
0.0307217
0.0387598
0.0466164
0.0542692
0.0617028
0.0689066
0.0758722
0.0825939
0.0890683
0.0952937
0.10127
0.106999
0.112482
0.117722
0.122723
0.127487
0.132019
0.136323
0.140402
0.144261
0.147904
0.151334
0.154556
0.157575
0.160394
0.163018
0.165453
0.167705
0.169779
0.171682
0.173421
0.175003
0.176437
0.177731
0.178893
0.179931
0.180855
0.181674
0.182397
0.183031
0.183585
0.184067
0.184486
0.184847
0.185157
0.185423
0.185649
0.185841
0.186003
0.18614
0.186254
0.186348
0.186426
0.0256124
0.0335008
0.0412513
0.048839
0.0562416
0.0634433
0.0704327
0.0772007
0.0837409
0.0900489
0.0961221
0.10196
0.107562
0.11293
0.118065
0.122971
0.127649
0.132104
0.136338
0.140355
0.144157
0.147749
0.151134
0.154316
0.157298
0.160085
0.162682
0.165092
0.167322
0.169378
0.171265
0.172991
0.174563
0.175988
0.177276
0.178433
0.179469
0.180392
0.181211
0.181936
0.182573
0.183132
0.18362
0.184046
0.184415
0.184734
0.185009
0.185246
0.185449
0.185623
0.185771
0.185897
0.186004
0.186095
0.028737
0.0363211
0.0437842
0.0511026
0.058254
0.0652224
0.0719957
0.0785642
0.0849207
0.09106
0.0969787
0.102675
0.108148
0.113399
0.118428
0.123236
0.127827
0.132203
0.136365
0.140317
0.144061
0.147601
0.150939
0.154079
0.157024
0.159778
0.162345
0.16473
0.166937
0.168974
0.170844
0.172556
0.174116
0.175532
0.176812
0.177964
0.178996
0.179918
0.180737
0.181463
0.182104
0.182668
0.183162
0.183594
0.183971
0.1843
0.184585
0.184833
0.185047
0.185233
0.185393
0.185532
0.185652
0.185756
0.0318882
0.0391707
0.0463483
0.0533983
0.0602988
0.0670335
0.07359
0.0799579
0.0861294
0.0920985
0.097861
0.103414
0.108757
0.113888
0.118809
0.123519
0.12802
0.132315
0.136404
0.140289
0.143974
0.14746
0.15075
0.153847
0.156753
0.159472
0.162008
0.164366
0.16655
0.168565
0.170418
0.172114
0.173662
0.175067
0.176339
0.177485
0.178513
0.179433
0.180252
0.18098
0.181623
0.182191
0.182692
0.183131
0.183517
0.183854
0.18415
0.184408
0.184635
0.184833
0.185006
0.185158
0.185292
0.185409
0.0350478
0.0420331
0.0489287
0.0557128
0.0623642
0.0688664
0.0752066
0.0813741
0.0873603
0.0931586
0.0987642
0.104173
0.109384
0.114395
0.119206
0.123816
0.128227
0.132439
0.136453
0.140271
0.143895
0.147326
0.150566
0.153618
0.156484
0.159167
0.161672
0.164001
0.166159
0.168153
0.169986
0.171666
0.1732
0.174594
0.175857
0.176996
0.178019
0.178936
0.179755
0.180483
0.18113
0.181702
0.182209
0.182655
0.183049
0.183397
0.183703
0.183973
0.184212
0.184423
0.18461
0.184776
0.184923
0.185055
0.0382018
0.0448955
0.0515137
0.0580357
0.0644409
0.0707126
0.076838
0.0828059
0.0886073
0.094235
0.0996835
0.104948
0.110027
0.114917
0.119617
0.124126
0.128445
0.132573
0.136512
0.140261
0.143822
0.147197
0.150386
0.153392
0.156216
0.158862
0.161333
0.163632
0.165765
0.167735
0.169548
0.17121
0.172729
0.174111
0.175363
0.176495
0.177513
0.178427
0.179244
0.179973
0.180623
0.1812
0.181712
0.182166
0.182569
0.182926
0.183244
0.183526
0.183777
0.184002
0.184203
0.184383
0.184545
0.184692
0.0411513
0.0475785
0.0539424
0.0602232
0.0664008
0.072459
0.0783846
0.0841663
0.0897948
0.0952624
0.100563
0.105692
0.110645
0.11542
0.120015
0.124428
0.128659
0.132708
0.136573
0.140256
0.143757
0.147077
0.150217
0.153177
0.155961
0.158571
0.161009
0.163278
0.165384
0.167331
0.169123
0.170768
0.172271
0.17364
0.174882
0.176005
0.177018
0.177928
0.178744
0.179473
0.180125
0.180706
0.181224
0.181685
0.182097
0.182464
0.182792
0.183086
0.183351
0.183588
0.183803
0.183998
0.184175
0.184336
0.0440507
0.0502211
0.0563392
0.0623859
0.0683422
0.0741918
0.0799219
0.085521
0.0909796
0.0962895
0.101444
0.106438
0.111267
0.115929
0.120419
0.124736
0.12888
0.132848
0.136641
0.140257
0.143697
0.146962
0.150051
0.152966
0.155708
0.15828
0.160684
0.162923
0.165001
0.166923
0.168694
0.17032
0.171807
0.173162
0.174393
0.175508
0.176514
0.17742
0.178234
0.178964
0.179618
0.180203
0.180727
0.181196
0.181616
0.181994
0.182334
0.18264
0.182918
0.183169
0.183399
0.183608
0.1838
0.183976
0.0472038
0.0530981
0.0589513
0.0647452
0.0704619
0.0760856
0.0816035
0.0870042
0.0922778
0.0974159
0.102411
0.107258
0.111952
0.116489
0.120864
0.125077
0.129124
0.133004
0.136716
0.140259
0.143632
0.146835
0.149868
0.152732
0.155428
0.157958
0.160323
0.162528
0.164575
0.166469
0.168216
0.16982
0.171289
0.172628
0.173847
0.174952
0.175951
0.176853
0.177665
0.178396
0.179053
0.179643
0.180174
0.180652
0.181084
0.181473
0.181826
0.182148
0.18244
0.182708
0.182954
0.183181
0.18339
0.183584
0.0449998
0.0506116
0.0562111
0.0617811
0.0673045
0.0727636
0.0781441
0.0834331
0.0886192
0.0936926
0.0986443
0.103467
0.108154
0.1127
0.117101
0.121351
0.125449
0.129391
0.133174
0.136797
0.140259
0.143557
0.146692
0.149663
0.15247
0.155114
0.157596
0.159918
0.162083
0.164095
0.165958
0.167676
0.169256
0.170703
0.172026
0.17323
0.174324
0.175315
0.176213
0.177023
0.177756
0.178417
0.179014
0.179554
0.180043
0.180487
0.180892
0.181261
0.181599
0.18191
0.182197
0.182463
0.182709
0.182939
0.183153
0.0489418
0.0542346
0.0595253
0.0647977
0.0700351
0.075222
0.0803445
0.0853901
0.0903478
0.0952073
0.0999597
0.104597
0.109112
0.1135
0.117753
0.121869
0.125842
0.129669
0.133347
0.136874
0.140247
0.143463
0.146523
0.149425
0.152169
0.154755
0.157183
0.159457
0.161579
0.163551
0.165378
0.167064
0.168617
0.170041
0.171343
0.172532
0.173614
0.174598
0.175491
0.176301
0.177036
0.177703
0.178309
0.178861
0.179364
0.179824
0.180246
0.180635
0.180994
0.181326
0.181635
0.181924
0.182194
0.182446
0.182684
0.0530349
0.0580015
0.062975
0.0679403
0.0728826
0.0777873
0.0826416
0.0874336
0.0921523
0.0967875
0.10133
0.105772
0.110106
0.114325
0.118423
0.122394
0.126234
0.129939
0.133504
0.136926
0.140203
0.143331
0.146309
0.149136
0.15181
0.154331
0.156702
0.158922
0.160994
0.162922
0.164709
0.166361
0.167883
0.169282
0.170563
0.171736
0.172806
0.173783
0.174673
0.175485
0.176225
0.1769
0.177519
0.178085
0.178606
0.179086
0.17953
0.179943
0.180326
0.180685
0.181021
0.181336
0.181633
0.181913
0.182177
0.0571804
0.0618212
0.0664762
0.0711321
0.0757756
0.0803938
0.0849746
0.0895067
0.0939797
0.0983836
0.102709
0.106948
0.111092
0.115135
0.119069
0.122889
0.126589
0.130163
0.133608
0.136918
0.140091
0.143124
0.146013
0.148757
0.151355
0.153806
0.156111
0.158272
0.160291
0.16217
0.163914
0.165528
0.167018
0.168389
0.16965
0.170807
0.171867
0.172838
0.173728
0.174544
0.175294
0.175983
0.176618
0.177205
0.177749
0.178255
0.178727
0.179168
0.179583
0.179973
0.18034
0.180688
0.181017
0.181329
0.181625
0.0611115
0.0654408
0.06979
0.0741477
0.0785021
0.0828418
0.0871556
0.0914332
0.0956645
0.0998399
0.10395
0.107987
0.111942
0.115808
0.119577
0.123243
0.1268
0.130241
0.133561
0.136756
0.139821
0.142753
0.145548
0.148205
0.150722
0.153097
0.155333
0.15743
0.159391
0.161218
0.162917
0.164492
0.16595
0.167296
0.168537
0.169681
0.170736
0.171707
0.172604
0.173431
0.174197
0.174908
0.175568
0.176184
0.176761
0.177301
0.177809
0.178289
0.178742
0.179172
0.179579
0.179967
0.180335
0.180685
0.181019
0.0638221
0.0679206
0.0720421
0.0761765
0.0803135
0.0844426
0.0885538
0.0926372
0.0966834
0.100683
0.104627
0.108507
0.112315
0.116042
0.119682
0.123226
0.126669
0.130004
0.133225
0.136326
0.139304
0.142154
0.144873
0.147457
0.149907
0.152222
0.154401
0.156446
0.158361
0.160149
0.161814
0.163361
0.164797
0.166128
0.167361
0.168504
0.169562
0.170544
0.171456
0.172305
0.173096
0.173836
0.17453
0.175182
0.175796
0.176377
0.176926
0.177448
0.177944
0.178416
0.178865
0.179294
0.179703
0.180092
0.180464
0.065308
0.0692583
0.0732334
0.0772238
0.0812202
0.0852127
0.0891919
0.0931484
0.097073
0.100957
0.104791
0.108566
0.112275
0.11591
0.119462
0.122924
0.126289
0.129552
0.132704
0.135742
0.138659
0.141453
0.144119
0.146656
0.149062
0.151336
0.153479
0.155493
0.157381
0.159147
0.160796
0.162332
0.163762
0.165092
0.166329
0.16748
0.168552
0.169552
0.170486
0.17136
0.17218
0.172951
0.173678
0.174365
0.175016
0.175633
0.17622
0.176779
0.177311
0.17782
0.178305
0.178768
0.179211
0.179633
0.180035
0.0660989
0.0699424
0.0738117
0.0776981
0.0815925
0.0854859
0.0893691
0.093233
0.0970688
0.100867
0.10462
0.108319
0.111955
0.11552
0.119007
0.122407
0.125714
0.128922
0.132023
0.135012
0.137885
0.140637
0.143265
0.145767
0.148141
0.150388
0.152508
0.154503
0.156377
0.158133
0.159776
0.161312
0.162747
0.164086
0.165336
0.166505
0.167599
0.168623
0.169585
0.170489
0.171342
0.172147
0.172909
0.173632
0.174319
0.174973
0.175597
0.176192
0.17676
0.177303
0.177822
0.178318
0.178791
0.179243
0.179673
0.0663603
0.0701261
0.0739187
0.0777295
0.0815501
0.0853715
0.0891848
0.0929814
0.0967523
0.100489
0.104182
0.107824
0.111406
0.11492
0.118358
0.121713
0.124977
0.128144
0.131207
0.134161
0.137001
0.139724
0.142325
0.144804
0.147159
0.14939
0.151498
0.153486
0.155356
0.157113
0.158762
0.160307
0.161755
0.163112
0.164383
0.165576
0.166697
0.167752
0.168745
0.169684
0.170571
0.171413
0.172212
0.172972
0.173696
0.174386
0.175045
0.175675
0.176278
0.176853
0.177403
0.177929
0.178431
0.17891
0.179366
0.0662231
0.069932
0.0736684
0.0774242
0.0811909
0.0849599
0.0887224
0.0924699
0.0961936
0.0998848
0.103535
0.107135
0.110678
0.114154
0.117557
0.120878
0.124111
0.127249
0.130285
0.133215
0.136033
0.138736
0.141322
0.143788
0.146133
0.148358
0.150465
0.152454
0.154331
0.156098
0.15776
0.159322
0.160791
0.162172
0.163471
0.164694
0.165847
0.166935
0.167964
0.168938
0.169863
0.170741
0.171578
0.172375
0.173135
0.173861
0.174555
0.175218
0.175853
0.176459
0.177039
0.177592
0.17812
0.178624
0.179104
0.0657824
0.0694493
0.0731446
0.0768602
0.0805878
0.0843189
0.0880449
0.0917571
0.0954469
0.0991055
0.102725
0.106295
0.10981
0.11326
0.116638
0.119936
0.123147
0.126265
0.129284
0.132198
0.135004
0.137697
0.140275
0.142737
0.145082
0.14731
0.149423
0.151423
0.153313
0.155097
0.156779
0.158366
0.159861
0.161271
0.162602
0.163858
0.165046
0.166171
0.167237
0.168249
0.169211
0.170127
0.171
0.171834
0.172629
0.17339
0.174117
0.174812
0.175477
0.176112
0.176719
0.177299
0.177851
0.178378
0.178879
0.0651109
0.0687469
0.0724122
0.0760988
0.0797984
0.0835025
0.0872026
0.0908901
0.0945563
0.0981926
0.10179
0.105341
0.108837
0.112269
0.115631
0.118914
0.122112
0.125219
0.128228
0.131136
0.133937
0.136628
0.139207
0.141673
0.144024
0.146263
0.148389
0.150405
0.152315
0.154122
0.15583
0.157445
0.158971
0.160414
0.161779
0.163071
0.164296
0.165458
0.166562
0.167612
0.168612
0.169565
0.170474
0.171343
0.172173
0.172967
0.173726
0.174451
0.175144
0.175807
0.176439
0.177042
0.177617
0.178165
0.178685
0.0642636
0.0678771
0.0715208
0.0751869
0.078867
0.0825527
0.0862355
0.0899066
0.0935575
0.0971795
0.100764
0.104303
0.107787
0.11121
0.114563
0.117839
0.121032
0.124135
0.127142
0.13005
0.132853
0.135549
0.138136
0.140612
0.142977
0.145231
0.147376
0.149414
0.151348
0.153182
0.15492
0.156566
0.158126
0.159603
0.161004
0.162333
0.163596
0.164795
0.165937
0.167024
0.168061
0.169051
0.169995
0.170898
0.171761
0.172586
0.173375
0.174128
0.174849
0.175536
0.176192
0.176818
0.177413
0.17798
0.178518
0.0632867
0.0668849
0.0705144
0.0741673
0.0778353
0.0815101
0.085183
0.0888453
0.0924883
0.0961035
0.0996822
0.103216
0.106697
0.110117
0.113469
0.116745
0.119939
0.123045
0.126058
0.128972
0.131784
0.134492
0.137092
0.139583
0.141966
0.144241
0.146409
0.148472
0.150434
0.152297
0.154066
0.155745
0.157338
0.158851
0.160288
0.161654
0.162953
0.16419
0.165368
0.166491
0.167563
0.168587
0.169565
0.1705
0.171394
0.172248
0.173064
0.173844
0.174589
0.1753
0.175978
0.176623
0.177238
0.177821
0.178375
0.062302
0.0658921
0.0695147
0.0731619
0.0768253
0.0804964
0.0841668
0.0878276
0.0914702
0.0950859
0.0986662
0.102203
0.105687
0.109112
0.11247
0.115753
0.118955
0.122071
0.125095
0.128021
0.130848
0.133571
0.136188
0.138698
0.141102
0.143399
0.14559
0.147678
0.149667
0.151558
0.153355
0.155064
0.156689
0.158233
0.159701
0.161099
0.16243
0.163698
0.164907
0.166062
0.167164
0.168216
0.169222
0.170184
0.171103
0.171982
0.172821
0.173623
0.174388
0.175117
0.175813
0.176475
0.177104
0.177702
0.178268
0.0616257
0.0652098
0.0688274
0.0724706
0.0761311
0.0798004
0.0834699
0.087131
0.0907748
0.0943929
0.0979765
0.101517
0.105007
0.108439
0.111804
0.115095
0.118307
0.121433
0.124468
0.127406
0.130246
0.132982
0.135613
0.138139
0.140558
0.14287
0.145079
0.147185
0.149191
0.1511
0.152917
0.154645
0.156289
0.157853
0.159342
0.16076
0.162111
0.163399
0.164628
0.165802
0.166923
0.167994
0.169017
0.169995
0.17093
0.171824
0.172677
0.173492
0.17427
0.175011
0.175717
0.176389
0.177028
0.177634
0.178209
)
;

boundaryField
{
    inlet
    {
        type            zeroGradient;
    }
    outlet
    {
        type            fixedValue;
        value           nonuniform 0();
    }
    upperWall
    {
        type            zeroGradient;
    }
    lowerWall
    {
        type            zeroGradient;
    }
    frontAndBack
    {
        type            empty;
    }
    procBoundary3to1
    {
        type            processor;
        value           nonuniform List<scalar> 
62
(
0.203191
0.202416
0.201548
0.200713
0.199946
0.199225
0.199225
0.198103
0.197485
0.197485
0.196521
0.195966
0.195416
0.19487
0.194325
0.194325
0.193568
0.193051
0.192522
0.192
0.192
0.191386
0.191386
0.19083
0.190441
0.190073
0.189727
0.189399
0.189089
0.188794
0.188515
0.188248
0.187977
0.187693
0.187402
0.187104
0.1868
0.186489
0.18617
0.185845
0.185512
0.185172
0.184824
0.184483
0.184139
0.183764
0.183353
0.182907
0.182427
0.181906
0.181336
0.180817
0.180419
0.180084
0.1798
0.17956
0.179355
0.179179
0.179028
0.1789
0.178805
0.178752
)
;
    }
    procBoundary3to2
    {
        type            processor;
        value           nonuniform List<scalar> 
58
(
0.0288521
0.0199321
0.0102217
0.00233517
-0.00439888
-0.0105481
-0.0163242
-0.0218234
-0.0270558
-0.0319594
-0.0364228
-0.040294
-0.0433773
-0.0454721
-0.0464152
-0.0459629
-0.0438498
-0.0406289
-0.0366912
-0.0323734
-0.0279306
-0.0235393
-0.0193118
-0.0153125
-0.0115726
-0.00809808
-0.00488141
-0.00183864
0.00120357
0.00433634
0.00755206
0.0108436
0.0141996
0.0176073
0.021053
0.0245217
0.0279931
0.0314524
0.0346797
0.0378463
0.0412869
0.0412869