/*--------------------------------*- C++ -*----------------------------------*\
  =========                 |
  \\      /  F ield         | OpenFOAM: The Open Source CFD Toolbox
   \\    /   O peration     | Website:  https://openfoam.org
    \\  /    A nd           | Version:  6
     \\/     M anipulation  |
\*---------------------------------------------------------------------------*/
FoamFile
{
    version     2.0;
    format      ascii;
    class       surfaceScalarField;
    location    "0.08";
    object      phi;
}
// * * * * * * * * * * * * * * * * * * * * * * * * * * * * * * * * * * * * * //

dimensions      [0 3 -1 0 0 0 0];

internalField   nonuniform List<scalar> 
5952
(
-2.50697e-07
-1.83917e-08
-2.31558e-07
-1.91388e-08
-2.11755e-07
-1.98037e-08
-1.9137e-07
-2.03843e-08
-1.70491e-07
-2.08793e-08
-1.49203e-07
-2.12879e-08
-1.27594e-07
-2.16094e-08
-1.05751e-07
-2.18429e-08
-8.37637e-08
-2.19873e-08
-6.17237e-08
-2.204e-08
-3.97214e-08
-2.20023e-08
-1.78271e-08
-2.18944e-08
3.9515e-09
-2.17786e-08
2.55868e-08
-2.16353e-08
4.69979e-08
-2.14111e-08
6.81183e-08
-2.11204e-08
8.88932e-08
-2.0775e-08
1.09275e-07
-2.0382e-08
1.29222e-07
-1.99466e-08
1.48695e-07
-1.94732e-08
1.6766e-07
-1.89653e-08
1.86087e-07
-1.84264e-08
2.03947e-07
-1.78598e-08
2.21215e-07
-1.72688e-08
2.37872e-07
-1.66565e-08
2.53898e-07
-1.60259e-08
2.69278e-07
-1.53801e-08
2.84e-07
-1.47222e-08
2.98055e-07
-1.40552e-08
3.11437e-07
-1.33821e-08
3.24143e-07
-1.27059e-08
3.36173e-07
-1.20297e-08
3.47529e-07
-1.13563e-08
3.58218e-07
-1.06886e-08
3.68247e-07
-1.00295e-08
3.77629e-07
-9.38166e-09
3.86376e-07
-8.74764e-09
3.94506e-07
-8.12983e-09
4.02037e-07
-7.53043e-09
4.08988e-07
-6.95138e-09
4.15382e-07
-6.39441e-09
4.21243e-07
-5.86094e-09
4.26596e-07
-5.35214e-09
4.31464e-07
-4.86887e-09
4.35876e-07
-4.41171e-09
4.39857e-07
-3.98096e-09
4.43434e-07
-3.57668e-09
4.46632e-07
-3.19868e-09
-2.84658e-09
-2.33936e-07
-3.62409e-08
-2.15362e-07
-3.77125e-08
-1.96142e-07
-3.90236e-08
-1.76355e-07
-4.0171e-08
-1.56082e-07
-4.1153e-08
-1.354e-07
-4.19693e-08
-1.14389e-07
-4.26209e-08
-9.31219e-08
-4.31098e-08
-7.16705e-08
-4.34387e-08
-5.00988e-08
-4.36116e-08
-2.84655e-08
-4.36357e-08
-6.83293e-09
-4.35269e-08
1.46929e-08
-4.33043e-08
3.60277e-08
-4.29702e-08
5.71384e-08
-4.25217e-08
7.79843e-08
-4.19663e-08
9.85226e-08
-4.13133e-08
1.18711e-07
-4.05708e-08
1.38512e-07
-3.97467e-08
1.57886e-07
-3.88481e-08
1.76803e-07
-3.78818e-08
1.95231e-07
-3.68544e-08
2.13143e-07
-3.57723e-08
2.30516e-07
-3.46415e-08
2.47328e-07
-3.3468e-08
2.63559e-07
-3.22577e-08
2.79196e-07
-3.10163e-08
2.94223e-07
-2.97495e-08
3.08631e-07
-2.8463e-08
3.22411e-07
-2.71623e-08
3.35558e-07
-2.58531e-08
3.48069e-07
-2.45409e-08
3.59944e-07
-2.32311e-08
3.71185e-07
-2.19292e-08
3.81796e-07
-2.06404e-08
3.91784e-07
-1.93699e-08
4.01159e-07
-1.81225e-08
4.09932e-07
-1.69029e-08
4.18117e-07
-1.57153e-08
4.25729e-07
-1.45637e-08
4.32786e-07
-1.34516e-08
4.39307e-07
-1.2382e-08
4.45312e-07
-1.13574e-08
4.50823e-07
-1.038e-08
4.55863e-07
-9.45119e-09
4.60454e-07
-8.57203e-09
4.6462e-07
-7.74304e-09
4.68386e-07
-6.96429e-09
-6.2354e-09
-2.15798e-07
-5.35161e-08
-1.97821e-07
-5.56897e-08
-1.79217e-07
-5.76271e-08
-1.60065e-07
-5.93236e-08
-1.4044e-07
-6.07776e-08
-1.2042e-07
-6.19895e-08
-1.00079e-07
-6.2962e-08
-7.94888e-08
-6.36998e-08
-5.87183e-08
-6.42092e-08
-3.78314e-08
-6.44986e-08
-1.68884e-08
-6.45786e-08
4.04503e-09
-6.44603e-08
2.48964e-08
-6.41557e-08
4.56038e-08
-6.36776e-08
6.61184e-08
-6.30362e-08
8.63946e-08
-6.22426e-08
1.06389e-07
-6.13079e-08
1.26062e-07
-6.02434e-08
1.45375e-07
-5.90597e-08
1.64294e-07
-5.77671e-08
1.82788e-07
-5.63756e-08
2.00828e-07
-5.48945e-08
2.18388e-07
-5.3333e-08
2.35447e-07
-5.16998e-08
2.51982e-07
-5.00036e-08
2.67977e-07
-4.82525e-08
2.83416e-07
-4.64549e-08
2.98285e-07
-4.46186e-08
3.12573e-07
-4.27516e-08
3.26273e-07
-4.08618e-08
3.39377e-07
-3.89571e-08
3.51881e-07
-3.70452e-08
3.63784e-07
-3.51338e-08
3.75085e-07
-3.32304e-08
3.85788e-07
-3.13427e-08
3.95896e-07
-2.94779e-08
4.05416e-07
-2.76429e-08
4.14357e-07
-2.58444e-08
4.22731e-07
-2.40888e-08
4.30549e-07
-2.23819e-08
4.37827e-07
-2.07289e-08
4.44579e-07
-1.91345e-08
4.50824e-07
-1.76026e-08
4.56581e-07
-1.61367e-08
4.61869e-07
-1.47393e-08
4.6671e-07
-1.34125e-08
4.71124e-07
-1.21572e-08
4.75134e-07
-1.09742e-08
-9.86325e-09
-1.96656e-07
-7.03307e-08
-1.79163e-07
-7.31822e-08
-1.61069e-07
-7.57217e-08
-1.42448e-07
-7.79441e-08
-1.23378e-07
-7.98479e-08
-1.03933e-07
-8.14346e-08
-8.41858e-08
-8.27088e-08
-6.42078e-08
-8.36778e-08
-4.4066e-08
-8.4351e-08
-2.38243e-08
-8.47403e-08
-3.54458e-09
-8.48584e-08
1.67134e-08
-8.47183e-08
3.68928e-08
-8.43352e-08
5.694e-08
-8.37249e-08
7.68062e-08
-8.29024e-08
9.64466e-08
-8.18829e-08
1.1582e-07
-8.06812e-08
1.34888e-07
-7.93117e-08
1.53617e-07
-7.77883e-08
1.71974e-07
-7.61244e-08
1.89931e-07
-7.43325e-08
2.07461e-07
-7.24249e-08
2.24542e-07
-7.04132e-08
2.4115e-07
-6.83086e-08
2.57269e-07
-6.61219e-08
2.7288e-07
-6.38635e-08
2.87969e-07
-6.15439e-08
3.02523e-07
-5.91729e-08
3.16532e-07
-5.67605e-08
3.29987e-07
-5.43166e-08
3.42881e-07
-5.1851e-08
3.55209e-07
-4.93733e-08
3.66968e-07
-4.68932e-08
3.78158e-07
-4.44203e-08
3.88779e-07
-4.1964e-08
3.98835e-07
-3.95335e-08
4.0833e-07
-3.71378e-08
4.17271e-07
-3.47855e-08
4.25667e-07
-3.24846e-08
4.33528e-07
-3.02428e-08
4.40866e-07
-2.80671e-08
4.47695e-07
-2.59638e-08
4.54031e-07
-2.39382e-08
4.59889e-07
-2.19951e-08
4.65288e-07
-2.01384e-08
4.70247e-07
-1.83708e-08
4.74784e-07
-1.66944e-08
4.7892e-07
-1.51103e-08
-1.36189e-08
-1.75464e-07
-8.67886e-08
-1.58359e-07
-9.0287e-08
-1.40684e-07
-9.33964e-08
-1.22517e-07
-9.61116e-08
-1.03933e-07
-9.84319e-08
-8.50066e-08
-1.00361e-07
-6.58105e-08
-1.01905e-07
-4.64133e-08
-1.03075e-07
-2.68803e-08
-1.03884e-07
-7.27364e-09
-1.04347e-07
1.23473e-08
-1.04479e-07
3.19279e-08
-1.04299e-07
5.1417e-08
-1.03824e-07
7.07664e-08
-1.03074e-07
8.99321e-08
-1.02068e-07
1.08873e-07
-1.00824e-07
1.27554e-07
-9.93613e-08
1.45938e-07
-9.76964e-08
1.63997e-07
-9.58467e-08
1.817e-07
-9.38282e-08
1.99024e-07
-9.1656e-08
2.15944e-07
-8.93449e-08
2.32439e-07
-8.69085e-08
2.48491e-07
-8.43602e-08
2.64082e-07
-8.17127e-08
2.79197e-07
-7.89783e-08
2.93822e-07
-7.6169e-08
3.07945e-07
-7.32966e-08
3.21558e-07
-7.03727e-08
3.3465e-07
-6.74087e-08
3.47215e-07
-6.44162e-08
3.59248e-07
-6.14065e-08
3.70746e-07
-5.83909e-08
3.81706e-07
-5.53807e-08
3.92129e-07
-5.23871e-08
4.02017e-07
-4.94209e-08
4.11372e-07
-4.6493e-08
4.202e-07
-4.36136e-08
4.28508e-07
-4.07926e-08
4.36304e-07
-3.80392e-08
4.43599e-07
-3.53621e-08
4.50404e-07
-3.2769e-08
4.56733e-07
-3.0267e-08
4.626e-07
-2.7862e-08
4.68021e-07
-2.55591e-08
4.73012e-07
-2.33621e-08
4.77592e-07
-2.12741e-08
4.81778e-07
-1.92968e-08
-1.74311e-08
-1.51529e-07
-1.02978e-07
-1.34733e-07
-1.07083e-07
-1.17411e-07
-1.10718e-07
-9.96418e-08
-1.13881e-07
-8.15024e-08
-1.16571e-07
-6.30673e-08
-1.18796e-07
-4.44071e-08
-1.20565e-07
-2.55888e-08
-1.21893e-07
-6.6753e-09
-1.22797e-07
1.2274e-08
-1.23296e-07
3.12048e-08
-1.2341e-07
5.00672e-08
-1.23161e-07
6.88152e-08
-1.22572e-07
8.74068e-08
-1.21666e-07
1.05803e-07
-1.20465e-07
1.2397e-07
-1.18991e-07
1.41875e-07
-1.17266e-07
1.59488e-07
-1.1531e-07
1.76785e-07
-1.13143e-07
1.9374e-07
-1.10783e-07
2.10332e-07
-1.08248e-07
2.26541e-07
-1.05554e-07
2.4235e-07
-1.02717e-07
2.57741e-07
-9.97513e-08
2.727e-07
-9.66716e-08
2.87213e-07
-9.34917e-08
3.01269e-07
-9.02249e-08
3.14857e-07
-8.68843e-08
3.27967e-07
-8.34828e-08
3.40591e-07
-8.00333e-08
3.52724e-07
-7.65486e-08
3.64359e-07
-7.30415e-08
3.75493e-07
-6.95246e-08
3.86123e-07
-6.60108e-08
3.96248e-07
-6.25125e-08
4.0587e-07
-5.90425e-08
4.14989e-07
-5.56128e-08
4.23611e-07
-5.22353e-08
4.3174e-07
-4.89216e-08
4.39384e-07
-4.56825e-08
4.4655e-07
-4.25281e-08
4.53248e-07
-3.94677e-08
4.59491e-07
-3.65096e-08
4.6529e-07
-3.36613e-08
4.7066e-07
-3.09289e-08
4.75615e-07
-2.83175e-08
4.80172e-07
-2.58309e-08
4.84347e-07
-2.34719e-08
-2.12418e-08
-1.24285e-07
-1.18965e-07
-1.07745e-07
-1.23623e-07
-9.07358e-08
-1.27728e-07
-7.33389e-08
-1.31278e-07
-5.56325e-08
-1.34278e-07
-3.76905e-08
-1.36738e-07
-1.95822e-08
-1.38673e-07
-1.3722e-09
-1.40103e-07
1.68799e-08
-1.4105e-07
3.51202e-08
-1.41536e-07
5.32998e-08
-1.4159e-07
7.13749e-08
-1.41236e-07
8.93058e-08
-1.40503e-07
1.07057e-07
-1.39417e-07
1.24596e-07
-1.38004e-07
1.41895e-07
-1.3629e-07
1.58928e-07
-1.34299e-07
1.75672e-07
-1.32054e-07
1.92105e-07
-1.29576e-07
2.08208e-07
-1.26887e-07
2.23965e-07
-1.24005e-07
2.39359e-07
-1.20948e-07
2.54375e-07
-1.17733e-07
2.69001e-07
-1.14377e-07
2.83224e-07
-1.10895e-07
2.97033e-07
-1.073e-07
3.10417e-07
-1.03609e-07
3.23367e-07
-9.98346e-08
3.35876e-07
-9.59909e-08
3.47934e-07
-9.20918e-08
3.59536e-07
-8.81511e-08
3.70678e-07
-8.41827e-08
3.81354e-07
-8.02005e-08
3.91561e-07
-7.62184e-08
4.01299e-07
-7.22503e-08
4.10566e-07
-6.83099e-08
4.19365e-07
-6.44111e-08
4.27696e-07
-6.0567e-08
4.35565e-07
-5.67905e-08
4.42977e-07
-5.30941e-08
4.49938e-07
-4.94891e-08
4.56457e-07
-4.59864e-08
4.62543e-07
-4.25957e-08
4.68207e-07
-3.93256e-08
4.73462e-07
-3.61836e-08
4.7832e-07
-3.31758e-08
4.82796e-07
-3.0307e-08
4.86905e-07
-2.75808e-08
4.90663e-07
-2.49994e-08
-2.25635e-08
-9.32035e-08
-1.34787e-07
-7.68969e-08
-1.39929e-07
-6.01939e-08
-1.44431e-07
-4.31785e-08
-1.48293e-07
-2.59294e-08
-1.51527e-07
-8.51979e-09
-1.54147e-07
8.98337e-09
-1.56177e-07
2.65197e-08
-1.5764e-07
4.40354e-08
-1.58565e-07
6.14829e-08
-1.58984e-07
7.88202e-08
-1.58927e-07
9.60108e-08
-1.58427e-07
1.13023e-07
-1.57515e-07
1.29828e-07
-1.56222e-07
1.46402e-07
-1.54578e-07
1.62723e-07
-1.52611e-07
1.78773e-07
-1.50349e-07
1.94534e-07
-1.47815e-07
2.09992e-07
-1.45034e-07
2.25133e-07
-1.42028e-07
2.39944e-07
-1.38816e-07
2.54413e-07
-1.35418e-07
2.6853e-07
-1.31851e-07
2.82285e-07
-1.28132e-07
2.95668e-07
-1.24278e-07
3.0867e-07
-1.20302e-07
3.21283e-07
-1.16221e-07
3.33498e-07
-1.12049e-07
3.45308e-07
-1.07801e-07
3.56706e-07
-1.0349e-07
3.67686e-07
-9.91317e-08
3.78244e-07
-9.47403e-08
3.88374e-07
-9.03308e-08
3.98074e-07
-8.59179e-08
4.0734e-07
-8.15167e-08
4.16173e-07
-7.71421e-08
4.2457e-07
-7.2809e-08
4.32535e-07
-6.85319e-08
4.4007e-07
-6.4325e-08
4.47178e-07
-6.0202e-08
4.53865e-07
-5.61759e-08
4.60137e-07
-5.22586e-08
4.66002e-07
-4.84612e-08
4.7147e-07
-4.47937e-08
4.76551e-07
-4.12647e-08
4.81257e-07
-3.78814e-08
4.856e-07
-3.46496e-08
4.89593e-07
-3.15738e-08
4.9325e-07
-2.86569e-08
-2.59004e-08
-5.7764e-08
-1.50444e-07
-4.1709e-08
-1.55984e-07
-2.53482e-08
-1.60791e-07
-8.76742e-09
-1.64874e-07
7.95488e-09
-1.68249e-07
2.47484e-08
-1.70941e-07
4.1551e-08
-1.72979e-07
5.83087e-08
-1.74397e-07
7.4975e-08
-1.75232e-07
9.15104e-08
-1.75519e-07
1.07882e-07
-1.75298e-07
1.24061e-07
-1.74606e-07
1.40026e-07
-1.73479e-07
1.55756e-07
-1.71952e-07
1.71236e-07
-1.70058e-07
1.86452e-07
-1.67828e-07
2.01394e-07
-1.6529e-07
2.1605e-07
-1.62471e-07
2.30412e-07
-1.59396e-07
2.44472e-07
-1.56088e-07
2.58223e-07
-1.52566e-07
2.71656e-07
-1.48851e-07
2.84766e-07
-1.4496e-07
2.97544e-07
-1.40911e-07
3.09985e-07
-1.36718e-07
3.2208e-07
-1.32398e-07
3.33824e-07
-1.27965e-07
3.45209e-07
-1.23435e-07
3.5623e-07
-1.18821e-07
3.66879e-07
-1.14139e-07
3.77151e-07
-1.09404e-07
3.87041e-07
-1.0463e-07
3.96544e-07
-9.98339e-08
4.05656e-07
-9.50301e-08
4.14375e-07
-9.0235e-08
4.22697e-07
-8.54643e-08
4.30622e-07
-8.0734e-08
4.3815e-07
-7.60599e-08
4.45282e-07
-7.14572e-08
4.52021e-07
-6.69409e-08
4.5837e-07
-6.25251e-08
4.64335e-07
-5.82233e-08
4.69921e-07
-5.40478e-08
4.75137e-07
-5.00097e-08
4.79991e-07
-4.61187e-08
4.84493e-07
-4.23833e-08
4.88654e-07
-3.88104e-08
4.92485e-07
-3.54051e-08
4.96e-07
-3.21712e-08
4.9921e-07
-2.91108e-08
-2.62245e-08
-1.74623e-08
-1.65887e-07
-1.72884e-09
-1.71718e-07
1.42001e-08
-1.7672e-07
3.0239e-08
-1.80913e-07
4.63125e-08
-1.84323e-07
6.23563e-08
-1.86985e-07
7.83154e-08
-1.88938e-07
9.41446e-08
-1.90227e-07
1.09807e-07
-1.90894e-07
1.25274e-07
-1.90986e-07
1.40522e-07
-1.90547e-07
1.55535e-07
-1.89619e-07
1.70298e-07
-1.88243e-07
1.84803e-07
-1.86458e-07
1.99044e-07
-1.84298e-07
2.13014e-07
-1.81798e-07
2.2671e-07
-1.78986e-07
2.40129e-07
-1.75891e-07
2.53269e-07
-1.72536e-07
2.66127e-07
-1.68946e-07
2.78701e-07
-1.6514e-07
2.90986e-07
-1.61137e-07
3.0298e-07
-1.56954e-07
3.14679e-07
-1.52609e-07
3.26078e-07
-1.48117e-07
3.37171e-07
-1.43491e-07
3.47955e-07
-1.38748e-07
3.58422e-07
-1.33902e-07
3.68567e-07
-1.28967e-07
3.78385e-07
-1.23957e-07
3.87869e-07
-1.18888e-07
3.97014e-07
-1.13775e-07
4.05815e-07
-1.08635e-07
4.14267e-07
-1.03483e-07
4.22367e-07
-9.83348e-08
4.30111e-07
-9.32085e-08
4.37498e-07
-8.81204e-08
4.44525e-07
-8.30872e-08
4.51193e-07
-7.81254e-08
4.57503e-07
-7.3251e-08
4.63458e-07
-6.84796e-08
4.6906e-07
-6.38255e-08
4.74315e-07
-5.93025e-08
4.79228e-07
-5.49227e-08
4.83806e-07
-5.06971e-08
4.88058e-07
-4.66353e-08
4.91993e-07
-4.27451e-08
4.95621e-07
-3.90327e-08
4.98952e-07
-3.55026e-08
5.01999e-07
-3.21575e-08
-2.89988e-08
2.81653e-08
-1.81006e-07
4.34431e-08
-1.86996e-07
5.8786e-08
-1.92063e-07
7.41131e-08
-1.9624e-07
8.93562e-08
-1.99566e-07
1.0446e-07
-2.02088e-07
1.1938e-07
-2.03858e-07
1.34083e-07
-2.0493e-07
1.48545e-07
-2.05356e-07
1.62749e-07
-2.05191e-07
1.76686e-07
-2.04483e-07
1.90348e-07
-2.03281e-07
2.03735e-07
-2.0163e-07
2.16848e-07
-1.9957e-07
2.29689e-07
-1.97139e-07
2.42261e-07
-1.9437e-07
2.54568e-07
-1.91294e-07
2.66615e-07
-1.87938e-07
2.78405e-07
-1.84326e-07
2.8994e-07
-1.80481e-07
3.01221e-07
-1.76421e-07
3.12251e-07
-1.72166e-07
3.23026e-07
-1.6773e-07
3.33548e-07
-1.6313e-07
3.43812e-07
-1.58381e-07
3.53815e-07
-1.53495e-07
3.63553e-07
-1.48487e-07
3.73021e-07
-1.4337e-07
3.82213e-07
-1.38159e-07
3.91124e-07
-1.32868e-07
3.99748e-07
-1.27512e-07
4.08079e-07
-1.22106e-07
4.16111e-07
-1.16667e-07
4.23839e-07
-1.1121e-07
4.31258e-07
-1.05754e-07
4.38363e-07
-1.00314e-07
4.45152e-07
-9.49092e-08
4.51622e-07
-8.9557e-08
4.57771e-07
-8.42747e-08
4.636e-07
-7.90794e-08
4.69108e-07
-7.39879e-08
4.74298e-07
-6.90157e-08
4.79173e-07
-6.41775e-08
4.83737e-07
-5.9487e-08
4.87996e-07
-5.49561e-08
4.91957e-07
-5.05955e-08
4.95625e-07
-4.6414e-08
4.99011e-07
-4.24187e-08
5.02124e-07
-3.8615e-08
5.04973e-07
-3.50065e-08
-3.15948e-08
7.95035e-08
-1.9561e-07
9.41134e-08
-2.01605e-07
1.08641e-07
-2.06591e-07
1.23014e-07
-2.10613e-07
1.37178e-07
-2.13729e-07
1.5109e-07
-2.16e-07
1.64721e-07
-2.1749e-07
1.78054e-07
-2.18263e-07
1.91079e-07
-2.18381e-07
2.03794e-07
-2.17906e-07
2.16203e-07
-2.16892e-07
2.28313e-07
-2.15391e-07
2.40132e-07
-2.1345e-07
2.51674e-07
-2.11111e-07
2.62948e-07
-2.08413e-07
2.73968e-07
-2.05389e-07
2.84743e-07
-2.02069e-07
2.95284e-07
-1.98479e-07
3.05599e-07
-1.94641e-07
3.15695e-07
-1.90577e-07
3.25577e-07
-1.86303e-07
3.35249e-07
-1.81837e-07
3.44712e-07
-1.77194e-07
3.53967e-07
-1.72386e-07
3.63013e-07
-1.67426e-07
3.71847e-07
-1.62328e-07
3.80465e-07
-1.57104e-07
3.88862e-07
-1.51768e-07
3.97034e-07
-1.46331e-07
4.04973e-07
-1.40808e-07
4.12675e-07
-1.35213e-07
4.20131e-07
-1.29563e-07
4.27336e-07
-1.23872e-07
4.34282e-07
-1.18157e-07
4.40965e-07
-1.12437e-07
4.47379e-07
-1.06728e-07
4.5352e-07
-1.01049e-07
4.59382e-07
-9.54197e-08
4.64965e-07
-8.98569e-08
4.70265e-07
-8.43795e-08
4.75282e-07
-7.9005e-08
4.80016e-07
-7.37502e-08
4.8447e-07
-6.86311e-08
4.88645e-07
-6.36622e-08
4.92546e-07
-5.88569e-08
4.96177e-07
-5.42266e-08
4.99544e-07
-4.97814e-08
5.02655e-07
-4.55292e-08
5.05516e-07
-4.14764e-08
5.08137e-07
-3.76271e-08
-3.39837e-08
1.36793e-07
-2.09416e-07
1.50432e-07
-2.15244e-07
1.63828e-07
-2.19988e-07
1.76929e-07
-2.23714e-07
1.89695e-07
-2.26495e-07
2.02105e-07
-2.2841e-07
2.14148e-07
-2.29533e-07
2.25826e-07
-2.2994e-07
2.37146e-07
-2.29702e-07
2.48122e-07
-2.28882e-07
2.58772e-07
-2.27541e-07
2.69114e-07
-2.25733e-07
2.7917e-07
-2.23506e-07
2.88961e-07
-2.20902e-07
2.98506e-07
-2.17958e-07
3.07823e-07
-2.14707e-07
3.1693e-07
-2.11176e-07
3.2584e-07
-2.07389e-07
3.34567e-07
-2.03368e-07
3.43121e-07
-1.9913e-07
3.51508e-07
-1.94691e-07
3.59735e-07
-1.90064e-07
3.67805e-07
-1.85263e-07
3.75718e-07
-1.80299e-07
3.83476e-07
-1.75183e-07
3.91074e-07
-1.69926e-07
3.98509e-07
-1.6454e-07
4.05777e-07
-1.59035e-07
4.12871e-07
-1.53425e-07
4.19785e-07
-1.47722e-07
4.26512e-07
-1.4194e-07
4.33043e-07
-1.36094e-07
4.39373e-07
-1.30201e-07
4.45492e-07
-1.24276e-07
4.51394e-07
-1.18339e-07
4.57072e-07
-1.12406e-07
4.6252e-07
-1.06498e-07
4.67734e-07
-1.00633e-07
4.72709e-07
-9.48315e-08
4.77441e-07
-8.91116e-08
4.81928e-07
-8.34924e-08
4.8617e-07
-7.79918e-08
4.90166e-07
-7.26269e-08
4.93917e-07
-6.74134e-08
4.97425e-07
-6.23656e-08
5.00695e-07
-5.74962e-08
5.0373e-07
-5.28161e-08
5.06535e-07
-4.83344e-08
5.09117e-07
-4.40581e-08
5.11482e-07
-3.99923e-08
-3.61399e-08
2.0003e-07
-2.22031e-07
2.12295e-07
-2.27508e-07
2.24159e-07
-2.31851e-07
2.35592e-07
-2.35147e-07
2.46582e-07
-2.37486e-07
2.57132e-07
-2.38959e-07
2.67253e-07
-2.39655e-07
2.76967e-07
-2.39654e-07
2.86299e-07
-2.39033e-07
2.95278e-07
-2.37861e-07
3.03935e-07
-2.36199e-07
3.12302e-07
-2.341e-07
3.20407e-07
-2.31611e-07
3.2828e-07
-2.28775e-07
3.35946e-07
-2.25624e-07
3.43428e-07
-2.22189e-07
3.50748e-07
-2.18496e-07
3.57923e-07
-2.14564e-07
3.64968e-07
-2.10413e-07
3.71894e-07
-2.06056e-07
3.7871e-07
-2.01507e-07
3.85422e-07
-1.96777e-07
3.92035e-07
-1.91876e-07
3.98549e-07
-1.86813e-07
4.04963e-07
-1.81598e-07
4.11276e-07
-1.76239e-07
4.17481e-07
-1.70746e-07
4.23574e-07
-1.65129e-07
4.29549e-07
-1.59399e-07
4.35396e-07
-1.53569e-07
4.41108e-07
-1.47652e-07
4.46677e-07
-1.41663e-07
4.52093e-07
-1.35617e-07
4.57348e-07
-1.29531e-07
4.62433e-07
-1.23424e-07
4.67341e-07
-1.17314e-07
4.72063e-07
-1.11221e-07
4.76594e-07
-1.05164e-07
4.80928e-07
-9.91651e-08
4.8506e-07
-9.32433e-08
4.88985e-07
-8.74183e-08
4.92703e-07
-8.17095e-08
4.96211e-07
-7.61348e-08
4.99509e-07
-7.07111e-08
5.02597e-07
-6.54538e-08
5.05477e-07
-6.03767e-08
5.08153e-07
-5.54917e-08
5.10627e-07
-5.08088e-08
5.12905e-07
-4.63359e-08
5.14991e-07
-4.20787e-08
5.16893e-07
-3.80411e-08
-3.42247e-08
2.68837e-07
-2.32952e-07
2.79233e-07
-2.37905e-07
2.89089e-07
-2.41707e-07
2.98407e-07
-2.44465e-07
3.07206e-07
-2.46285e-07
3.15514e-07
-2.47268e-07
3.23369e-07
-2.47509e-07
3.3081e-07
-2.47095e-07
3.37879e-07
-2.46103e-07
3.44621e-07
-2.44602e-07
3.51075e-07
-2.42653e-07
3.57281e-07
-2.40306e-07
3.63275e-07
-2.37606e-07
3.69091e-07
-2.34591e-07
3.74759e-07
-2.31291e-07
3.80303e-07
-2.27734e-07
3.85747e-07
-2.23939e-07
3.91108e-07
-2.19926e-07
3.96403e-07
-2.15707e-07
4.01643e-07
-2.11296e-07
4.06836e-07
-2.067e-07
4.11988e-07
-2.01929e-07
4.17102e-07
-1.9699e-07
4.22179e-07
-1.9189e-07
4.27217e-07
-1.86635e-07
4.32211e-07
-1.81233e-07
4.37157e-07
-1.75691e-07
4.42047e-07
-1.70019e-07
4.46874e-07
-1.64226e-07
4.51628e-07
-1.58323e-07
4.563e-07
-1.52324e-07
4.6088e-07
-1.46243e-07
4.65357e-07
-1.40094e-07
4.69722e-07
-1.33896e-07
4.73965e-07
-1.27667e-07
4.78076e-07
-1.21425e-07
4.82048e-07
-1.15192e-07
4.8587e-07
-1.08987e-07
4.89538e-07
-1.02833e-07
4.93044e-07
-9.67495e-08
4.96384e-07
-9.07581e-08
4.99553e-07
-8.48787e-08
5.02549e-07
-7.91305e-08
5.0537e-07
-7.35316e-08
5.08014e-07
-6.80983e-08
5.10483e-07
-6.28455e-08
5.12777e-07
-5.77861e-08
5.149e-07
-5.2931e-08
5.16853e-07
-4.8289e-08
5.18641e-07
-4.38667e-08
5.20268e-07
-3.96684e-08
-3.56964e-08
3.63705e-07
-2.41934e-07
3.71976e-07
-2.46176e-07
3.79569e-07
-2.49299e-07
3.86527e-07
-2.51423e-07
3.92905e-07
-2.52663e-07
3.98764e-07
-2.53127e-07
4.04164e-07
-2.52909e-07
4.09167e-07
-2.52098e-07
4.13831e-07
-2.50767e-07
4.18211e-07
-2.48982e-07
4.22357e-07
-2.46799e-07
4.26317e-07
-2.44265e-07
4.3013e-07
-2.4142e-07
4.33835e-07
-2.38295e-07
4.37461e-07
-2.34918e-07
4.41037e-07
-2.31309e-07
4.44584e-07
-2.27487e-07
4.48122e-07
-2.23463e-07
4.51664e-07
-2.19249e-07
4.55221e-07
-2.14853e-07
4.58801e-07
-2.1028e-07
4.62406e-07
-2.05535e-07
4.6604e-07
-2.00624e-07
4.697e-07
-1.9555e-07
4.73382e-07
-1.90318e-07
4.77081e-07
-1.84932e-07
4.8079e-07
-1.794e-07
4.84498e-07
-1.73727e-07
4.88197e-07
-1.67924e-07
4.91874e-07
-1.62001e-07
4.95519e-07
-1.55969e-07
4.99119e-07
-1.49843e-07
5.02662e-07
-1.43637e-07
5.06136e-07
-1.3737e-07
5.09529e-07
-1.3106e-07
5.1283e-07
-1.24726e-07
5.16029e-07
-1.18391e-07
5.19116e-07
-1.12074e-07
5.22082e-07
-1.05799e-07
5.24919e-07
-9.95865e-08
5.2762e-07
-9.34598e-08
5.30181e-07
-8.74395e-08
5.32597e-07
-8.1546e-08
5.34863e-07
-7.57984e-08
5.3698e-07
-7.02144e-08
5.38944e-07
-6.48099e-08
5.40757e-07
-5.95987e-08
5.42418e-07
-5.45926e-08
5.43931e-07
-4.98015e-08
5.45297e-07
-4.52327e-08
5.46519e-07
-4.08912e-08
-3.678e-08
4.04372e-07
-2.47402e-07
4.0913e-07
-2.50934e-07
4.13249e-07
-2.53418e-07
4.16806e-07
-2.5498e-07
4.19878e-07
-2.55735e-07
4.22537e-07
-2.55786e-07
4.24856e-07
-2.55228e-07
4.26898e-07
-2.5414e-07
4.28723e-07
-2.52592e-07
4.30383e-07
-2.50643e-07
4.31927e-07
-2.48343e-07
4.33396e-07
-2.45734e-07
4.34825e-07
-2.42849e-07
4.36246e-07
-2.39716e-07
4.37684e-07
-2.36356e-07
4.39162e-07
-2.32787e-07
4.40696e-07
-2.29021e-07
4.42301e-07
-2.25069e-07
4.43988e-07
-2.20936e-07
4.45762e-07
-2.16627e-07
4.47629e-07
-2.12146e-07
4.49589e-07
-2.07496e-07
4.51642e-07
-2.02677e-07
4.53784e-07
-1.97692e-07
4.5601e-07
-1.92543e-07
4.58313e-07
-1.87235e-07
4.60683e-07
-1.8177e-07
4.63112e-07
-1.76156e-07
4.65588e-07
-1.704e-07
4.681e-07
-1.64513e-07
4.70635e-07
-1.58504e-07
4.73182e-07
-1.52389e-07
4.75727e-07
-1.46183e-07
4.78259e-07
-1.39902e-07
4.80766e-07
-1.33566e-07
4.83235e-07
-1.27196e-07
4.85656e-07
-1.20812e-07
4.88019e-07
-1.14437e-07
4.90315e-07
-1.08094e-07
4.92535e-07
-1.01807e-07
4.94672e-07
-9.55967e-08
4.9672e-07
-8.9487e-08
4.98672e-07
-8.34987e-08
5.00526e-07
-7.76521e-08
5.02277e-07
-7.19657e-08
5.03924e-07
-6.64564e-08
5.05464e-07
-6.11391e-08
5.06898e-07
-5.60264e-08
5.08225e-07
-5.11288e-08
5.09447e-07
-4.64544e-08
5.10565e-07
-4.2009e-08
-3.77961e-08
4.29602e-07
-2.49837e-07
4.31405e-07
-2.52737e-07
4.32672e-07
-2.54685e-07
4.33492e-07
-2.558e-07
4.33951e-07
-2.56193e-07
4.34124e-07
-2.5596e-07
4.34081e-07
-2.55185e-07
4.33883e-07
-2.53941e-07
4.33582e-07
-2.52291e-07
4.33224e-07
-2.50286e-07
4.32851e-07
-2.4797e-07
4.32495e-07
-2.45378e-07
4.32186e-07
-2.4254e-07
4.31948e-07
-2.39477e-07
4.31801e-07
-2.36209e-07
4.3176e-07
-2.32747e-07
4.31839e-07
-2.291e-07
4.32047e-07
-2.25277e-07
4.32391e-07
-2.21279e-07
4.32874e-07
-2.1711e-07
4.33497e-07
-2.1277e-07
4.3426e-07
-2.08259e-07
4.3516e-07
-2.03576e-07
4.36191e-07
-1.98723e-07
4.37348e-07
-1.937e-07
4.38622e-07
-1.88509e-07
4.40005e-07
-1.83153e-07
4.41485e-07
-1.77637e-07
4.43053e-07
-1.71968e-07
4.44695e-07
-1.66155e-07
4.46401e-07
-1.6021e-07
4.48157e-07
-1.54146e-07
4.49952e-07
-1.47978e-07
4.51773e-07
-1.41723e-07
4.53609e-07
-1.35402e-07
4.55448e-07
-1.29035e-07
4.5728e-07
-1.22643e-07
4.59093e-07
-1.16251e-07
4.6088e-07
-1.09881e-07
4.62631e-07
-1.03558e-07
4.64339e-07
-9.73046e-08
4.65997e-07
-9.11451e-08
4.67599e-07
-8.51013e-08
4.69141e-07
-7.91942e-08
4.70619e-07
-7.34435e-08
4.72029e-07
-6.78667e-08
4.7337e-07
-6.24795e-08
4.74639e-07
-5.72954e-08
4.75836e-07
-5.23255e-08
4.7696e-07
-4.75787e-08
4.78012e-07
-4.30613e-08
4.78994e-07
-3.87773e-08
-3.47283e-08
4.41559e-07
-2.49836e-07
4.41051e-07
-2.52229e-07
4.40136e-07
-2.5377e-07
4.38906e-07
-2.54571e-07
4.37442e-07
-2.54729e-07
4.35814e-07
-2.54332e-07
4.34082e-07
-2.53453e-07
4.32298e-07
-2.52157e-07
4.30507e-07
-2.50499e-07
4.28745e-07
-2.48524e-07
4.27045e-07
-2.46269e-07
4.25432e-07
-2.43765e-07
4.23928e-07
-2.41036e-07
4.22551e-07
-2.38101e-07
4.21316e-07
-2.34973e-07
4.20233e-07
-2.31664e-07
4.19311e-07
-2.28179e-07
4.18556e-07
-2.24521e-07
4.17971e-07
-2.20694e-07
4.17557e-07
-2.16696e-07
4.17314e-07
-2.12527e-07
4.17239e-07
-2.08184e-07
4.17328e-07
-2.03665e-07
4.17575e-07
-1.9897e-07
4.17973e-07
-1.94098e-07
4.18514e-07
-1.8905e-07
4.19189e-07
-1.83827e-07
4.19987e-07
-1.78434e-07
4.20897e-07
-1.72878e-07
4.21908e-07
-1.67166e-07
4.23009e-07
-1.61311e-07
4.24187e-07
-1.55324e-07
4.25431e-07
-1.49222e-07
4.26729e-07
-1.43021e-07
4.2807e-07
-1.36743e-07
4.29442e-07
-1.30407e-07
4.30836e-07
-1.24037e-07
4.32242e-07
-1.17657e-07
4.33651e-07
-1.1129e-07
4.35054e-07
-1.04961e-07
4.36444e-07
-9.86949e-08
4.37815e-07
-9.25157e-08
4.3916e-07
-8.64464e-08
4.40475e-07
-8.05088e-08
4.41754e-07
-7.47232e-08
4.42996e-07
-6.9108e-08
4.44196e-07
-6.36796e-08
4.45353e-07
-5.84521e-08
4.46464e-07
-5.34373e-08
4.4753e-07
-4.86446e-08
4.4855e-07
-4.40808e-08
4.49523e-07
-3.97503e-08
4.50449e-07
-3.56552e-08
-3.17955e-08
4.42769e-07
-2.48033e-07
4.40596e-07
-2.50056e-07
4.38148e-07
-2.51322e-07
4.35508e-07
-2.5193e-07
4.32743e-07
-2.51965e-07
4.29916e-07
-2.51504e-07
4.27073e-07
-2.50611e-07
4.24259e-07
-2.49343e-07
4.21506e-07
-2.47747e-07
4.18844e-07
-2.45862e-07
4.16297e-07
-2.43722e-07
4.13883e-07
-2.41351e-07
4.11619e-07
-2.38772e-07
4.09517e-07
-2.35999e-07
4.07587e-07
-2.33043e-07
4.05836e-07
-2.29913e-07
4.0427e-07
-2.26612e-07
4.02891e-07
-2.23142e-07
4.017e-07
-2.19504e-07
4.00698e-07
-2.15694e-07
3.99883e-07
-2.11711e-07
3.9925e-07
-2.07551e-07
3.98795e-07
-2.03211e-07
3.98512e-07
-1.98688e-07
3.98394e-07
-1.9398e-07
3.98432e-07
-1.89088e-07
3.98618e-07
-1.84013e-07
3.98941e-07
-1.78758e-07
3.99392e-07
-1.73329e-07
3.99959e-07
-1.67734e-07
4.00632e-07
-1.61984e-07
4.01399e-07
-1.56091e-07
4.0225e-07
-1.50072e-07
4.03173e-07
-1.43945e-07
4.04158e-07
-1.37728e-07
4.05195e-07
-1.31444e-07
4.06274e-07
-1.25116e-07
4.07386e-07
-1.18768e-07
4.08522e-07
-1.12426e-07
4.09674e-07
-1.06113e-07
4.10836e-07
-9.98569e-08
4.12001e-07
-9.36807e-08
4.13164e-07
-8.76087e-08
4.14318e-07
-8.16634e-08
4.15461e-07
-7.58657e-08
4.16588e-07
-7.02347e-08
4.17696e-07
-6.47875e-08
4.18782e-07
-5.95387e-08
4.19845e-07
-5.45006e-08
4.20884e-07
-4.9683e-08
4.21896e-07
-4.50933e-08
4.22882e-07
-4.07363e-08
4.23841e-07
-3.66142e-08
-3.27275e-08
4.35806e-07
-2.45023e-07
4.32552e-07
-2.46802e-07
4.29136e-07
-2.47906e-07
4.25625e-07
-2.48419e-07
4.22078e-07
-2.48418e-07
4.18541e-07
-2.47966e-07
4.15053e-07
-2.47123e-07
4.11646e-07
-2.45936e-07
4.08347e-07
-2.44448e-07
4.05177e-07
-2.42692e-07
4.02153e-07
-2.40698e-07
3.9929e-07
-2.38488e-07
3.96598e-07
-2.3608e-07
3.94085e-07
-2.33486e-07
3.91759e-07
-2.30717e-07
3.89624e-07
-2.27778e-07
3.87684e-07
-2.24671e-07
3.85938e-07
-2.21397e-07
3.84388e-07
-2.17954e-07
3.83032e-07
-2.14338e-07
3.81867e-07
-2.10546e-07
3.80889e-07
-2.06573e-07
3.80093e-07
-2.02415e-07
3.79474e-07
-1.98068e-07
3.79025e-07
-1.9353e-07
3.78737e-07
-1.888e-07
3.78602e-07
-1.83878e-07
3.78611e-07
-1.78767e-07
3.78754e-07
-1.73472e-07
3.79022e-07
-1.68002e-07
3.79405e-07
-1.62366e-07
3.79891e-07
-1.56578e-07
3.80472e-07
-1.50653e-07
3.81136e-07
-1.44609e-07
3.81874e-07
-1.38466e-07
3.82678e-07
-1.32247e-07
3.83537e-07
-1.25975e-07
3.84443e-07
-1.19675e-07
3.8539e-07
-1.13372e-07
3.86368e-07
-1.07092e-07
3.87373e-07
-1.00861e-07
3.88397e-07
-9.47049e-08
3.89435e-07
-8.86472e-08
3.90483e-07
-8.27114e-08
3.91537e-07
-7.69191e-08
3.92592e-07
-7.12898e-08
3.93645e-07
-6.58411e-08
3.94695e-07
-6.05882e-08
3.95738e-07
-5.55438e-08
3.96773e-07
-5.07181e-08
3.97799e-07
-4.61188e-08
3.98814e-07
-4.17512e-08
3.99817e-07
-3.76176e-08
-3.37188e-08
4.23035e-07
-2.4131e-07
4.19179e-07
-2.42946e-07
4.15246e-07
-2.43973e-07
4.11291e-07
-2.44464e-07
4.07359e-07
-2.44485e-07
4.03486e-07
-2.44094e-07
3.99702e-07
-2.4334e-07
3.96032e-07
-2.42266e-07
3.92496e-07
-2.40911e-07
3.89107e-07
-2.39304e-07
3.8588e-07
-2.37471e-07
3.82825e-07
-2.35432e-07
3.79948e-07
-2.33203e-07
3.77256e-07
-2.30795e-07
3.74754e-07
-2.28215e-07
3.72443e-07
-2.25468e-07
3.70326e-07
-2.22554e-07
3.68404e-07
-2.19474e-07
3.66675e-07
-2.16224e-07
3.65137e-07
-2.128e-07
3.63787e-07
-2.09197e-07
3.62623e-07
-2.05409e-07
3.61638e-07
-2.01431e-07
3.60828e-07
-1.97258e-07
3.60186e-07
-1.92888e-07
3.59704e-07
-1.88318e-07
3.59376e-07
-1.83549e-07
3.59191e-07
-1.78583e-07
3.59143e-07
-1.73424e-07
3.59222e-07
-1.6808e-07
3.59419e-07
-1.62562e-07
3.59724e-07
-1.56883e-07
3.60128e-07
-1.51057e-07
3.60622e-07
-1.45103e-07
3.61198e-07
-1.39042e-07
3.61846e-07
-1.32896e-07
3.6256e-07
-1.26689e-07
3.63331e-07
-1.20446e-07
3.64151e-07
-1.14193e-07
3.65015e-07
-1.07956e-07
3.65917e-07
-1.01763e-07
3.66851e-07
-9.56384e-08
3.67811e-07
-8.96077e-08
3.68794e-07
-8.36944e-08
3.69796e-07
-7.79205e-08
3.70812e-07
-7.23063e-08
3.71841e-07
-6.68696e-08
3.72878e-07
-6.16259e-08
3.73923e-07
-5.65885e-08
3.74973e-07
-5.17679e-08
3.76026e-07
-4.71722e-08
3.77082e-07
-4.28065e-08
3.78138e-07
-3.8674e-08
-3.4775e-08
4.06458e-07
-2.37283e-07
4.02362e-07
-2.3885e-07
3.98249e-07
-2.3986e-07
3.94161e-07
-2.40376e-07
3.90133e-07
-2.40457e-07
3.86193e-07
-2.40154e-07
3.82364e-07
-2.3951e-07
3.78663e-07
-2.38566e-07
3.75107e-07
-2.37354e-07
3.71705e-07
-2.35902e-07
3.68467e-07
-2.34233e-07
3.65401e-07
-2.32366e-07
3.62512e-07
-2.30314e-07
3.59804e-07
-2.28087e-07
3.5728e-07
-2.25691e-07
3.54942e-07
-2.2313e-07
3.52791e-07
-2.20403e-07
3.50827e-07
-2.1751e-07
3.49048e-07
-2.14446e-07
3.47453e-07
-2.11205e-07
3.46039e-07
-2.07783e-07
3.44803e-07
-2.04172e-07
3.43739e-07
-2.00367e-07
3.42844e-07
-1.96363e-07
3.4211e-07
-1.92155e-07
3.41533e-07
-1.87741e-07
3.41104e-07
-1.83121e-07
3.40817e-07
-1.78296e-07
3.40664e-07
-1.7327e-07
3.40636e-07
-1.68052e-07
3.40725e-07
-1.62652e-07
3.40923e-07
-1.57081e-07
3.41222e-07
-1.51356e-07
3.41614e-07
-1.45495e-07
3.42091e-07
-1.39519e-07
3.42645e-07
-1.3345e-07
3.43269e-07
-1.27313e-07
3.43956e-07
-1.21133e-07
3.44701e-07
-1.14937e-07
3.45496e-07
-1.08752e-07
3.46337e-07
-1.02604e-07
3.47218e-07
-9.65198e-08
3.48136e-07
-9.05251e-08
3.49085e-07
-8.46439e-08
3.50063e-07
-7.88984e-08
3.51066e-07
-7.33093e-08
3.52091e-07
-6.78948e-08
3.53136e-07
-6.26708e-08
3.54198e-07
-5.76508e-08
3.55276e-07
-5.28457e-08
3.56368e-07
-4.82636e-08
3.57471e-07
-4.39102e-08
3.58586e-07
-3.97885e-08
-3.58992e-08
3.87661e-07
-2.33225e-07
3.83582e-07
-2.34771e-07
3.79523e-07
-2.35801e-07
3.75517e-07
-2.3637e-07
3.7159e-07
-2.36531e-07
3.67765e-07
-2.36329e-07
3.64059e-07
-2.35804e-07
3.60485e-07
-2.34992e-07
3.57054e-07
-2.33924e-07
3.53777e-07
-2.32624e-07
3.50658e-07