/*--------------------------------*- C++ -*----------------------------------*\
  =========                 |
  \\      /  F ield         | OpenFOAM: The Open Source CFD Toolbox
   \\    /   O peration     | Website:  https://openfoam.org
    \\  /    A nd           | Version:  6
     \\/     M anipulation  |
\*---------------------------------------------------------------------------*/
FoamFile
{
    version     2.0;
    format      ascii;
    class       volVectorField;
    location    "0.08";
    object      U;
}
// * * * * * * * * * * * * * * * * * * * * * * * * * * * * * * * * * * * * * //

dimensions      [0 1 -1 0 0 0 0];

internalField   nonuniform List<vector> 
3032
(
(-0.235646 -0.0179552 0)
(-0.218753 -0.018665 -1.36192e-21)
(-0.2012 -0.0193084 -1.71583e-21)
(-0.183061 -0.0198836 -2.08019e-21)
(-0.164412 -0.0203886 0)
(-0.145331 -0.0208204 2.83772e-21)
(-0.125895 -0.0211746 0)
(-0.106184 -0.0214437 -3.62927e-21)
(-0.0862784 -0.0216164 -4.03619e-21)
(-0.0662608 -0.0216748 0)
(-0.046213 -0.0215928 0)
(-0.0262062 -0.0213423 0)
(-0.00627925 -0.0209129 -5.57409e-21)
(0.013556 -0.0203554 0)
(0.0332592 -0.0197434 0)
(0.052757 -0.0191049 0)
(0.0719911 -0.0184496 0)
(0.0909137 -0.0177832 0)
(0.109483 -0.0171095 0)
(0.127662 -0.0164312 0)
(0.145417 -0.0157508 0)
(0.162716 -0.0150702 5.65323e-21)
(0.179532 -0.0143915 0)
(0.195841 -0.0137164 0)
(0.21162 -0.0130466 -5.50968e-21)
(0.226851 -0.0123839 -5.45396e-21)
(0.241516 -0.0117298 0)
(0.255603 -0.0110859 5.33529e-21)
(0.2691 -0.0104538 -5.27361e-21)
(0.281999 -0.00983496 0)
(0.294295 -0.00923075 5.14812e-21)
(0.305986 -0.00864259 0)
(0.31707 -0.00807178 0)
(0.327552 -0.00751955 -4.96063e-21)
(0.337436 -0.00698703 0)
(0.34673 -0.00647525 4.83957e-21)
(0.355446 -0.00598507 0)
(0.363595 -0.00551725 -4.72352e-21)
(0.371192 -0.00507237 -4.66768e-21)
(0.378255 -0.00465084 -4.61341e-21)
(0.384803 -0.0042529 -9.12151e-21)
(0.390854 -0.00387861 9.0195e-21)
(0.396431 -0.00352786 0)
(0.401557 -0.00320037 0)
(0.406253 -0.00289569 0)
(0.410545 -0.00261323 8.64433e-21)
(0.414456 -0.00235229 8.55853e-21)
(0.418009 -0.00211206 -8.47577e-21)
(0.421229 -0.00189164 0)
(-0.220241 -0.0374609 8.09399e-22)
(-0.203843 -0.0387689 -4.24895e-22)
(-0.186804 -0.0398969 9.13948e-22)
(-0.169194 -0.040845 2.9656e-21)
(-0.151083 -0.0416152 -2.22995e-21)
(-0.132545 -0.0422107 -1.46459e-21)
(-0.113648 -0.0426355 0)
(-0.0944618 -0.0428941 1.83388e-21)
(-0.0750512 -0.0429911 -1.6723e-21)
(-0.055477 -0.0429301 0)
(-0.035795 -0.0427134 0)
(-0.0160605 -0.0423398 0)
(0.00365111 -0.0418064 2.68463e-21)
(0.0232536 -0.0411285 0)
(0.0426913 -0.0403362 -5.41261e-21)
(0.0619306 -0.0394513 0)
(0.080935 -0.0384892 -5.72431e-21)
(0.0996651 -0.0374611 0)
(0.118083 -0.0363763 5.9733e-21)
(0.136154 -0.0352429 0)
(0.153845 -0.0340681 -6.16641e-21)
(0.171128 -0.0328589 3.00524e-21)
(0.187974 -0.0316216 0)
(0.204359 -0.0303625 6.36668e-21)
(0.220263 -0.0290872 3.30585e-21)
(0.235665 -0.0278013 3.31896e-21)
(0.250549 -0.0265101 0)
(0.264901 -0.0252188 3.16832e-21)
(0.278709 -0.0239323 3.33646e-21)
(0.291962 -0.0226553 0)
(0.304654 -0.0213926 -3.3335e-21)
(0.31678 -0.0201486 6.53112e-21)
(0.328337 -0.0189275 0)
(0.339325 -0.0177332 3.31327e-21)
(0.349745 -0.0165698 0)
(0.359602 -0.0154405 -9.78372e-21)
(0.368902 -0.0143487 0)
(0.377655 -0.0132972 9.72192e-21)
(0.385869 -0.0122885 3.25301e-21)
(0.393559 -0.0113245 -3.17245e-21)
(0.400737 -0.0104071 -6.32633e-21)
(0.407421 -0.00953731 6.30621e-21)
(0.413627 -0.00871594 0)
(0.419375 -0.00794331 0)
(0.424683 -0.00721932 0)
(0.429571 -0.00654348 -1.87916e-20)
(0.434063 -0.00591493 -6.25641e-21)
(0.438177 -0.00533252 6.22387e-21)
(0.441937 -0.00479479 0)
(-0.203545 -0.0600062 -9.1477e-22)
(-0.187668 -0.0620057 1.38062e-21)
(-0.171169 -0.0637098 8.25071e-22)
(-0.154117 -0.0651198 -1.26253e-21)
(-0.136581 -0.0662397 2.06484e-22)
(-0.118629 -0.0670763 -1.52875e-21)
(-0.100329 -0.0676384 0)
(-0.0817477 -0.0679369 -1.99691e-21)
(-0.0629476 -0.0679843 2.14884e-22)
(-0.0439886 -0.067795 0)
(-0.0249266 -0.0673855 0)
(-0.00581767 -0.0667747 2.89503e-21)
(0.0132752 -0.0659828 0)
(0.0322891 -0.0650259 0)
(0.051173 -0.0639149 -3.17e-21)
(0.0698853 -0.0626628 -7.0145e-21)
(0.0883854 -0.0612839 3.82268e-21)
(0.106635 -0.0597924 0)
(0.124597 -0.0582016 -4.03881e-21)
(0.14224 -0.0565241 0)
(0.159532 -0.0547718 -3.89942e-21)
(0.176445 -0.0529557 -4.29976e-21)
(0.192955 -0.0510864 8.44913e-21)
(0.209037 -0.0491739 4.15612e-21)
(0.224672 -0.0472275 0)
(0.239841 -0.0452563 -8.84092e-21)
(0.254528 -0.0432687 0)
(0.268719 -0.041273 -1.36787e-20)
(0.282401 -0.0392772 -9.1294e-21)
(0.295565 -0.0372888 -9.20606e-21)
(0.308203 -0.0353153 9.27409e-21)
(0.320308 -0.0333637 -1.40901e-20)
(0.331878 -0.0314408 0)
(0.34291 -0.0295531 0)
(0.353404 -0.0277069 9.47178e-21)
(0.363363 -0.0259077 1.43252e-20)
(0.37279 -0.0241611 0)
(0.381692 -0.0224718 -4.83597e-21)
(0.390077 -0.0208442 0)
(0.397955 -0.019282 1.44307e-20)
(0.405337 -0.0177883 9.13019e-23)
(0.412236 -0.0163657 -8.39592e-23)
(0.418667 -0.0150159 -9.60417e-21)
(0.424647 -0.0137402 0)
(0.430191 -0.012539 9.59789e-21)
(0.435319 -0.0114123 5.89789e-23)
(0.440049 -0.0103593 0)
(0.444401 -0.00937892 0)
(0.448394 -0.00846931 0)
(-0.185984 -0.0828096 2.92999e-22)
(-0.170525 -0.085573 -4.79185e-22)
(-0.154467 -0.0879284 -6.66279e-22)
(-0.137877 -0.0898781 0)
(-0.120824 -0.0914284 1.04093e-21)
(-0.103376 -0.0925895 1.22748e-21)
(-0.0855981 -0.0933742 -2.56968e-21)
(-0.0675563 -0.0937985 1.59689e-21)
(-0.0493123 -0.0938803 1.77907e-21)
(-0.0309253 -0.09364 0)
(-0.0124518 -0.0930998 0)
(0.00605351 -0.0922826 -2.28074e-21)
(0.0245374 -0.0912118 0)
(0.0429492 -0.0899092 0)
(0.061242 -0.0883946 5.33171e-21)
(0.0793735 -0.0866883 5.55974e-21)
(0.0973042 -0.0848103 0)
(0.114998 -0.0827798 0)
(0.132421 -0.0806148 0)
(0.149542 -0.0783325 0)
(0.166335 -0.0759489 6.49794e-21)
(0.182771 -0.0734789 -6.45687e-21)
(0.19883 -0.0709368 -6.78785e-21)
(0.214488 -0.0683358 -1.3656e-20)
(0.229728 -0.0656886 0)
(0.244531 -0.063007 1.6296e-22)
(0.258883 -0.0603024 0)
(0.27277 -0.0575857 7.33805e-21)
(0.286181 -0.0548672 1.41315e-22)
(0.299105 -0.0521571 7.49995e-21)
(0.311536 -0.049465 -7.57046e-21)
(0.323465 -0.0468002 1.20345e-22)
(0.33489 -0.0441717 0)
(0.345806 -0.041588 -7.6385e-21)
(0.356213 -0.0390573 -7.79303e-21)
(0.366113 -0.0365874 -1.55768e-20)
(0.375507 -0.0341853 0)
(0.3844 -0.0318578 7.82452e-21)
(0.392797 -0.0296107 0)
(0.400708 -0.0274492 -1.5853e-20)
(0.408141 -0.0253779 7.98436e-21)
(0.415108 -0.0234003 -8.00276e-21)
(0.42162 -0.0215193 8.01779e-21)
(0.427693 -0.019737 1.5953e-20)
(0.43334 -0.0180543 -8.03832e-21)
(0.438578 -0.0164717 8.0441e-21)
(0.443425 -0.0149886 0)
(0.447897 -0.0136037 -1.60185e-20)
(0.452013 -0.0123152 0)
(-0.166611 -0.105135 1.00054e-22)
(-0.151477 -0.108631 4.30648e-22)
(-0.135773 -0.111606 7.62119e-22)
(-0.119567 -0.114065 0)
(-0.10293 -0.116017 -1.42323e-21)
(-0.085927 -0.117476 0)
(-0.0686252 -0.118459 4.33094e-21)
(-0.0510878 -0.118989 0)
(-0.0333752 -0.119089 -2.71308e-21)
(-0.0155451 -0.118786 0)
(0.00234792 -0.118107 3.30109e-21)
(0.0202523 -0.117078 0)
(0.03812 -0.115728 0)
(0.0559055 -0.114086 0)
(0.073567 -0.112179 0)
(0.0910657 -0.110032 0)
(0.108366 -0.107673 0)
(0.125436 -0.105125 0)
(0.142245 -0.102409 5.01522e-21)
(0.158765 -0.0995492 0)
(0.174972 -0.0965636 0)
(0.190843 -0.0934712 5.60899e-21)
(0.206357 -0.0902895 0)
(0.221496 -0.0870348 5.86139e-21)
(0.23624 -0.0837225 5.85557e-21)
(0.250576 -0.0803671 6.08026e-21)
(0.26449 -0.0769823 0)
(0.277968 -0.0735815 0)
(0.291001 -0.0701771 6.35364e-21)
(0.303578 -0.0667813 -1.26705e-20)
(0.315692 -0.0634058 0)
(0.327336 -0.0600619 1.95379e-20)
(0.338505 -0.0567604 0)
(0.349197 -0.0535118 6.68963e-21)
(0.359409 -0.0503262 0)
(0.369141 -0.0472129 6.78992e-21)
(0.378395 -0.0441808 1.35348e-20)
(0.387173 -0.0412382 -6.87379e-21)
(0.39548 -0.0383926 0)
(0.403322 -0.0356506 6.94271e-21)
(0.410708 -0.0330179 -1.38409e-20)
(0.417646 -0.0304996 0)
(0.424146 -0.0280993 0)
(0.430222 -0.0258201 -1.40804e-20)
(0.435886 -0.0236637 0)
(0.441153 -0.021631 1.40691e-20)
(0.446037 -0.0197217 0)
(0.450556 -0.017935 1.41798e-20)
(0.454725 -0.0162687 0)
(-0.144788 -0.12705 -9.30496e-23)
(-0.129902 -0.131231 -4.00109e-22)
(-0.114485 -0.134776 -7.07323e-22)
(-0.0986067 -0.137692 -8.63092e-22)
(-0.0823385 -0.139994 1.31783e-21)
(-0.0657481 -0.141699 0)
(-0.0489008 -0.142833 -1.91693e-21)
(-0.0318586 -0.143422 0)
(-0.01468 -0.143499 1.34989e-22)
(0.00257963 -0.143094 0)
(0.0198692 -0.142242 -5.87639e-21)
(0.0371415 -0.140977 0)
(0.0543529 -0.139333 3.33281e-21)
(0.0714633 -0.137345 0)
(0.088436 -0.135045 0)
(0.105237 -0.132465 7.87636e-21)
(0.121837 -0.129636 0)
(0.138206 -0.126587 0)
(0.15432 -0.123343 -4.55803e-21)
(0.170155 -0.11993 0)
(0.18569 -0.116372 0)
(0.200906 -0.11269 9.75376e-21)
(0.215784 -0.108904 0)
(0.230308 -0.105033 -1.024e-20)
(0.244463 -0.101094 -5.32139e-21)
(0.258237 -0.0971056 0)
(0.271616 -0.093082 1.08606e-20)
(0.284589 -0.0890386 0)
(0.297147 -0.08499 -1.12108e-20)
(0.309281 -0.08095 2.28883e-20)
(0.320982 -0.0769321 0)
(0.332246 -0.0729491 -1.17922e-20)
(0.343066 -0.0690136 0)
(0.35344 -0.0651377 0)
(0.363364 -0.0613331 -1.20149e-20)
(0.372838 -0.0576106 0)
(0.381862 -0.0539808 -1.23214e-20)
(0.390438 -0.0504534 1.23036e-20)
(0.398568 -0.0470373 0)
(0.406259 -0.0437406 0)
(0.413516 -0.0405703 1.26141e-20)
(0.420347 -0.0375326 -1.25921e-20)
(0.42676 -0.0346323 -1.26485e-20)
(0.432767 -0.0318732 -1.26988e-20)
(0.438378 -0.029258 0)
(0.443607 -0.026788 -1.28432e-20)
(0.448466 -0.0244637 -1.28157e-20)
(0.452971 -0.0222842 0)
(0.457137 -0.0202476 0)
(-0.119995 -0.148708 0)
(-0.1053 -0.153513 9.07813e-23)
(-0.090124 -0.157564 -3.95656e-22)
(-0.0745414 -0.160871 8.26354e-22)
(-0.0586238 -0.163456 -1.99318e-21)
(-0.0424396 -0.165342 0)
(-0.0260533 -0.166562 3.15899e-21)
(-0.00952519 -0.167152 -3.71512e-21)
(0.00708861 -0.167149 -2.00961e-21)
(0.0237371 -0.166593 0)
(0.0403736 -0.165526 2.69764e-21)
(0.056956 -0.163989 0)
(0.0734466 -0.162024 -3.1257e-21)
(0.089811 -0.159669 0)
(0.106019 -0.156965 0)
(0.122041 -0.153948 -7.37712e-21)
(0.137855 -0.150652 0)
(0.153436 -0.14711 7.85317e-21)
(0.168765 -0.143353 0)
(0.183822 -0.139408 0)
(0.198591 -0.135301 0)
(0.213056 -0.131058 -1.80708e-20)
(0.227203 -0.126699 -9.19141e-21)
(0.241019 -0.122246 9.56371e-21)
(0.254491 -0.117719 9.62048e-21)
(0.267607 -0.113135 0)
(0.280358 -0.108513 -1.01354e-20)
(0.292733 -0.103868 0)
(0.304725 -0.0992166 1.04578e-20)
(0.316324 -0.0945738 -1.22952e-22)
(0.327524 -0.0899544 0)
(0.338319 -0.0853729 0)
(0.348703 -0.080843 1.08768e-20)
(0.358673 -0.0763784 0)
(0.368226 -0.0719918 1.11989e-20)
(0.377359 -0.0676958 0)
(0.386073 -0.0635023 -1.12944e-20)
(0.394368 -0.0594222 -1.14666e-20)
(0.402246 -0.055466 0)
(0.409711 -0.0516429 0)
(0.416768 -0.0479613 0)
(0.423422 -0.0444283 1.17367e-20)
(0.429681 -0.04105 1.17901e-20)
(0.435554 -0.0378312 1.18381e-20)
(0.441051 -0.0347752 0)
(0.446183 -0.0318842 0)
(0.450962 -0.029159 1.19511e-20)
(0.455401 -0.0265993 1.19321e-20)
(0.459513 -0.0242033 0)
(0.463314 -0.0219682 0)
(-0.0917349 -0.170197 0)
(-0.0772024 -0.175548 -1.28726e-23)
(-0.0622535 -0.180021 9.2432e-22)
(-0.0469656 -0.183634 0)
(-0.0314118 -0.186414 2.14463e-22)
(-0.0156607 -0.188398 0)
(0.000224405 -0.189625 -3.06427e-21)
(0.0161863 -0.190138 3.57617e-21)
(0.0321735 -0.189986 4.06541e-21)
(0.04814 -0.189219 0)
(0.0640453 -0.187884 0)
(0.0798538 -0.186032 0)
(0.0955345 -0.183711 -5.64056e-21)
(0.11106 -0.180965 0)
(0.126406 -0.177841 6.38434e-21)
(0.141552 -0.174377 0)
(0.15648 -0.170614 0)
(0.171172 -0.166587 -7.4935e-21)
(0.185615 -0.16233 0)
(0.199794 -0.157872 0)
(0.213697 -0.153242 0)
(0.227313 -0.148466 1.69226e-20)
(0.240631 -0.143568 8.74736e-21)
(0.253641 -0.13857 0)
(0.266333 -0.133492 -1.22249e-22)
(0.278699 -0.128354 0)
(0.29073 -0.123175 9.38309e-21)
(0.302418 -0.117971 -9.54572e-21)
(0.313754 -0.11276 9.69828e-21)
(0.324732 -0.107558 -9.94552e-21)
(0.335346 -0.10238 0)
(0.345588 -0.097243 1.01014e-20)
(0.355455 -0.0921606 -9.26658e-23)
(0.364942 -0.087148 0)
(0.374045 -0.0822191 0)
(0.382763 -0.0773878 1.05299e-20)
(0.391093 -0.072667 1.06978e-20)
(0.399035 -0.068069 1.07044e-20)
(0.406591 -0.0636056 1.07828e-20)
(0.413762 -0.0592871 -1.08554e-20)
(0.420553 -0.0551231 0)
(0.426968 -0.051122 0)
(0.433012 -0.0472908 0)
(0.438694 -0.0436352 0)
(0.444021 -0.0401595 -2.22778e-20)
(0.449003 -0.0368666 0)
(0.453651 -0.0337579 0)
(0.457975 -0.0308333 -3.37904e-20)
(0.461989 -0.0280917 0)
(0.465705 -0.0255303 2.26003e-20)
(-0.0595214 -0.191559 9.46696e-22)
(-0.0451571 -0.197354 -3.85715e-22)
(-0.0304573 -0.202143 -5.35039e-22)
(-0.0155021 -0.205954 -9.34626e-22)
(-0.000365918 -0.208826 3.24739e-21)
(0.0148844 -0.210802 0)
(0.030189 -0.211937 0)
(0.0454955 -0.212285 0)
(0.0607585 -0.211904 0)
(0.0759391 -0.210854 -4.10192e-21)
(0.0910043 -0.209193 0)
(0.105927 -0.206978 0)
(0.120683 -0.204262 5.47672e-21)
(0.135254 -0.201099 0)
(0.149623 -0.197536 -1.22527e-20)
(0.163777 -0.193619 0)
(0.177705 -0.189389 6.70015e-21)
(0.191397 -0.184886 0)
(0.204843 -0.180144 0)
(0.218036 -0.175196 0)
(0.230968 -0.17007 0)
(0.243632 -0.164795 -8.09977e-21)
(0.256021 -0.159393 0)
(0.268128 -0.153888 -8.39995e-21)
(0.279947 -0.148302 -1.04983e-22)
(0.291471 -0.142654 0)
(0.302692 -0.136963 -9.02771e-21)
(0.313605 -0.131247 9.17968e-21)
(0.324202 -0.125523 -9.32201e-21)
(0.334476 -0.119808 0)
(0.344423 -0.114118 0)
(0.354036 -0.108471 -1.93094e-20)
(0.36331 -0.102881 -9.80641e-21)
(0.37224 -0.0973638 0)
(0.380822 -0.091935 0)
(0.389053 -0.0866092 -3.01381e-20)
(0.396932 -0.0814004 0)
(0.404456 -0.0763221 -3.06344e-20)
(0.411626 -0.0713871 -1.03279e-20)
(0.418442 -0.066607 1.0395e-20)
(0.424908 -0.0619926 2.07999e-20)
(0.431025 -0.0575531 0)
(0.4368 -0.0532969 0)
(0.442237 -0.0492304 0)
(0.447343 -0.0453589 9.29686e-23)
(0.452127 -0.041686 -2.13043e-20)
(0.456597 -0.0382138 0)
(0.460763 -0.0349429 7.85355e-23)
(0.464636 -0.0318722 0)
(0.468228 -0.0289993 -2.16155e-20)
(0.47155 -0.0263206 -2.15856e-20)
(-0.0228743 -0.21278 2.33156e-22)
(-0.00872942 -0.218892 -2.11982e-22)
(0.00565108 -0.223867 1.27165e-22)
(0.0201861 -0.227745 9.29064e-22)
(0.0348029 -0.230578 -2.86553e-21)
(0.0494383 -0.232429 0)
(0.0640385 -0.233361 0)
(0.0785582 -0.233443 0)
(0.0929603 -0.232746 -3.46054e-21)
(0.107215 -0.231338 1.18091e-22)
(0.121299 -0.229288 0)
(0.135194 -0.22666 0)
(0.148886 -0.223513 0)
(0.162366 -0.219907 0)
(0.175624 -0.215892 1.05384e-22)
(0.188657 -0.211518 0)
(0.20146 -0.206828 -1.29988e-20)
(0.214029 -0.201862 0)
(0.226363 -0.196657 0)
(0.238457 -0.191246 0)
(0.25031 -0.185658 0)
(0.261919 -0.179919 0)
(0.27328 -0.174056 7.88749e-21)
(0.28439 -0.168089 1.62507e-20)
(0.295243 -0.162041 -8.34955e-21)
(0.305836 -0.155931 0)
(0.316162 -0.149777 -1.71658e-20)
(0.326218 -0.143598 1.74614e-20)
(0.335996 -0.137412 0)
(0.345491 -0.131234 -1.79991e-20)
(0.354697 -0.125083 1.82433e-20)
(0.363608 -0.118974 2.77843e-20)
(0.372219 -0.112924 0)
(0.380524 -0.106949 0)
(0.38852 -0.101066 0)
(0.396202 -0.095289 1.93855e-20)
(0.403568 -0.0896342 1.94209e-20)
(0.410614 -0.0841157 3.92716e-20)
(0.41734 -0.0787475 0)
(0.423746 -0.0735422 -1.98551e-20)
(0.429832 -0.0685117 -1.04969e-22)
(0.435601 -0.0636664 -2.00958e-20)
(0.441055 -0.0590155 -2.02023e-20)
(0.446199 -0.0545666 0)
(0.451038 -0.0503258 4.0864e-20)
(0.455579 -0.0462975 4.10202e-20)
(0.45983 -0.0424844 0)
(0.463798 -0.0388878 2.06782e-20)
(0.467492 -0.035507 0)
(0.470924 -0.03234 0)
(0.474103 -0.0293833 2.08106e-20)
(0.0186557 -0.233777 -1.20662e-21)
(0.0324721 -0.240046 -1.83218e-22)
(0.0464048 -0.245048 -1.27147e-22)
(0.0603747 -0.24884 6.06449e-22)
(0.0743142 -0.251492 1.32352e-22)
(0.0881673 -0.253082 0)
(0.101889 -0.253692 0)
(0.115445 -0.253403 2.85308e-21)
(0.128809 -0.252299 3.43565e-21)
(0.141962 -0.25046 3.88535e-21)
(0.154892 -0.247962 4.21532e-21)
(0.167592 -0.244876 0)
(0.180059 -0.241269 0)
(0.192292 -0.237202 0)
(0.204292 -0.23273 5.75625e-21)
(0.216063 -0.227903 0)
(0.227607 -0.222767 8.80573e-23)
(0.238928 -0.217362 6.53393e-21)
(0.250029 -0.211724 -6.78704e-21)
(0.260913 -0.205885 0)
(0.271581 -0.199874 1.4493e-20)
(0.282033 -0.193718 -1.49096e-20)
(0.29227 -0.18744 -2.30349e-20)
(0.30229 -0.181062 -2.35829e-20)
(0.312092 -0.174604 0)
(0.321671 -0.168085 0)
(0.331025 -0.161523 1.6791e-20)
(0.340147 -0.154936 -1.70704e-20)
(0.349034 -0.148341 0)
(0.35768 -0.141755 1.75768e-20)
(0.366078 -0.135194 -1.78061e-20)
(0.374223 -0.128676 -1.80208e-20)
(0.382109 -0.122218 0)
(0.38973 -0.115835 0)
(0.397081 -0.109544 -1.84618e-20)
(0.404157 -0.103363 0)
(0.410954 -0.0973066 -1.89051e-20)
(0.41747 -0.0913906 -1.9049e-20)
(0.423701 -0.0856298 -1.90765e-20)
(0.429646 -0.0800381 1.93077e-20)
(0.435304 -0.0746282 -1.94233e-20)
(0.440677 -0.0694118 1.95302e-20)
(0.445766 -0.0643989 3.91678e-20)
(0.450574 -0.0595983 0)
(0.455105 -0.0550168 -1.98006e-20)
(0.459364 -0.0506599 -1.98745e-20)
(0.463356 -0.0465308 0)
(0.467089 -0.0426315 0)
(0.470571 -0.0389618 0)
(0.47381 -0.0355201 2.00306e-20)
(0.476815 -0.0323031 0)
(0.0654527 -0.254367 0)
(0.0787607 -0.260606 -1.47674e-22)
(0.0920471 -0.265453 0)
(0.10524 -0.268987 -1.10529e-21)
(0.118281 -0.271301 1.22105e-21)
(0.131126 -0.27249 0)
(0.143744 -0.272655 0)
(0.156113 -0.271893 -2.85271e-21)
(0.168221 -0.270298 3.25563e-21)
(0.180063 -0.267962 0)
(0.19164 -0.264968 -4.20051e-21)
(0.202956 -0.261394 -4.5211e-21)
(0.214019 -0.257309 0)
(0.224839 -0.252778 0)
(0.235425 -0.247856 0)
(0.245788 -0.242595 0)
(0.255939 -0.237039 6.20591e-21)
(0.265886 -0.231228 -6.46811e-21)
(0.275639 -0.225197 6.71322e-21)
(0.285203 -0.218976 -1.37319e-20)
(0.294584 -0.212593 -2.84737e-20)
(0.303785 -0.206072 1.47141e-20)
(0.31281 -0.199435 1.50889e-20)
(0.321658 -0.192703 1.54394e-20)
(0.33033 -0.185893 0)
(0.338822 -0.179025 0)
(0.347133 -0.172114 0)
(0.355256 -0.165178 0)
(0.363189 -0.158234 -1.67428e-20)
(0.370924 -0.151296 0)
(0.378456 -0.144383 0)
(0.385779 -0.137511 0)
(0.392885 -0.130697 1.76118e-20)
(0.399769 -0.123959 0)
(0.406425 -0.117312 1.15889e-22)
(0.412846 -0.110774 0)
(0.419028 -0.104363 1.82831e-20)
(0.424966 -0.0980943 0)
(0.430656 -0.0919837 1.86576e-20)
(0.436097 -0.0860462 0)
(0.441286 -0.0802957 0)
(0.446222 -0.0747447 0)
(0.450907 -0.0694046 -1.90859e-20)
(0.45534 -0.0642849 0)
(0.459526 -0.0593934 0)
(0.463467 -0.0547365 -1.92492e-20)
(0.467168 -0.0503182 -1.93167e-20)
(0.470634 -0.046141 -1.93769e-20)
(0.473872 -0.0422056 0)
(0.476889 -0.0385105 -6.08694e-23)
(0.479692 -0.0350529 0)
(0.117777 -0.274255 0)
(0.130312 -0.280247 -1.04257e-22)
(0.142673 -0.284736 -2.55257e-22)
(0.154801 -0.28783 5.00428e-22)
(0.166656 -0.289644 0)
(0.17821 -0.290296 1.6578e-21)
(0.189448 -0.289903 0)
(0.200367 -0.288578 0)
(0.21097 -0.286427 -3.26523e-21)
(0.221267 -0.283547 7.32235e-21)
(0.231273 -0.28003 0)
(0.241003 -0.275955 4.51981e-21)
(0.250477 -0.271395 0)
(0.259714 -0.266415 0)
(0.26873 -0.26107 0)
(0.277545 -0.25541 0)
(0.286173 -0.249477 0)
(0.294629 -0.243309 0)
(0.302925 -0.236938 -1.30547e-20)
(0.311072 -0.230393 1.36318e-20)
(0.319076 -0.223698 1.40467e-20)
(0.326944 -0.216874 1.42975e-20)
(0.33468 -0.209942 -1.46594e-20)
(0.342286 -0.20292 0)
(0.349761 -0.195825 0)
(0.357105 -0.188671 0)
(0.364313 -0.181476 0)
(0.371383 -0.174255 1.61516e-20)
(0.378309 -0.167023 1.6524e-20)
(0.385084 -0.159795 -1.66251e-20)
(0.391701 -0.15259 1.68398e-20)
(0.398155 -0.145422 0)
(0.404438 -0.138309 -3.45756e-20)
(0.410541 -0.131268 0)
(0.416459 -0.124317 1.76816e-20)
(0.422184 -0.117474 1.77277e-20)
(0.42771 -0.110757 -3.58481e-20)
(0.433032 -0.104181 0)
(0.438144 -0.0977653 0)
(0.443043 -0.0915244 -1.82542e-20)
(0.447726 -0.0854735 1.83643e-20)
(0.452191 -0.0796264 -1.84664e-20)
(0.456437 -0.0739952 1.85607e-20)
(0.460463 -0.0685906 0)
(0.464271 -0.0634214 0)
(0.467864 -0.0584947 7.13862e-23)
(0.471244 -0.0538156 1.89321e-20)
(0.474414 -0.0493872 6.51561e-23)
(0.477381 -0.0452105 0)
(0.48015 -0.041285 -5.9182e-23)
(0.482727 -0.037608 -1.90563e-20)
(0.175673 -0.293005 0)
(0.187075 -0.29851 9.91572e-22)
(0.198146 -0.302431 2.58572e-22)
(0.208851 -0.304905 0)
(0.21917 -0.306071 0)
(0.229099 -0.306069 -1.67302e-21)
(0.238644 -0.30503 0)
(0.247821 -0.30308 0)
(0.256651 -0.300333 0)
(0.265159 -0.296894 -7.35695e-21)
(0.273372 -0.292853 0)
(0.281318 -0.288295 0)
(0.289024 -0.28329 -9.58725e-21)
(0.296517 -0.277901 0)
(0.303822 -0.272181 -1.08531e-20)
(0.310961 -0.266177 0)
(0.317953 -0.259928 0)
(0.324817 -0.253467 0)
(0.331566 -0.246825 1.30135e-20)
(0.338214 -0.240024 1.33255e-20)
(0.344769 -0.233088 -1.37251e-20)
(0.351237 -0.226034 -1.23461e-22)
(0.357625 -0.218879 1.45723e-20)
(0.363932 -0.211639 0)
(0.370161 -0.204327 0)
(0.376308 -0.196959 0)
(0.382371 -0.189548 0)
(0.388345 -0.182108 -1.60074e-20)
(0.394224 -0.174654 -1.61208e-20)
(0.4 -0.167201 1.64589e-20)
(0.405667 -0.159764 -1.6663e-20)
(0.411217 -0.15236 -1.67412e-20)
(0.41664 -0.145006 1.70322e-20)
(0.42193 -0.13772 0)
(0.427077 -0.130519 0)
(0.432073 -0.123422 -1.00561e-22)
(0.436912 -0.116448 9.73796e-23)
(0.441586 -0.109614 -1.76699e-20)
(0.446089 -0.102938 1.77915e-20)
(0.450417 -0.0964373 8.7786e-23)
(0.454565 -0.0901276 -1.80949e-20)
(0.458529 -0.0840236 3.62975e-20)
(0.462307 -0.0781388 -1.82767e-20)
(0.465899 -0.0724848 0)
(0.469303 -0.0670714 -1.83575e-20)
(0.472521 -0.0619065 1.8496e-20)
(0.475555 -0.0569962 0)
(0.478406 -0.0523442 1.86083e-20)
(0.481078 -0.0479524 0)
(0.483577 -0.0438206 1.85793e-20)
(0.485906 -0.0399467 -1.86192e-20)
(0.488071 -0.0363266 0)
(0.238843 -0.31004 -3.74903e-21)
(0.248661 -0.31482 0)
(0.258003 -0.317976 -5.89269e-22)
(0.266866 -0.319673 0)
(0.275258 -0.320076 0)
(0.283202 -0.319338 3.3572e-21)
(0.290727 -0.317605 0)
(0.297868 -0.315009 5.51273e-21)
(0.304662 -0.31167 -6.46671e-21)
(0.311148 -0.307691 0)
(0.317364 -0.303166 -8.15933e-21)
(0.323346 -0.298173 -8.91003e-21)
(0.329129 -0.292782 9.65704e-21)
(0.334744 -0.28705 0)
(0.34022 -0.281028 2.17592e-20)
(0.345582 -0.274755 0)
(0.350851 -0.268269 0)
(0.356047 -0.261596 -1.23899e-20)
(0.361185 -0.254763 0)
(0.366277 -0.247789 -1.05088e-22)
(0.371332 -0.240691 1.37486e-20)
(0.376358 -0.233486 -1.11788e-22)
(0.381357 -0.226187 0)
(0.386331 -0.218805 0)
(0.391281 -0.211354 0)
(0.396202 -0.203845 0)
(0.401092 -0.196289 -1.54922e-20)
(0.405943 -0.188701 0)
(0.41075 -0.181092 1.60769e-20)
(0.415503 -0.173478 0)
(0.420196 -0.165873 0)
(0.424817 -0.158294 1.66717e-20)
(0.429359 -0.150758 1.67397e-20)
(0.433811 -0.143283 0)
(0.438163 -0.135887 0)
(0.442408 -0.128588 -1.72983e-20)
(0.446536 -0.121408 3.47657e-20)
(0.450539 -0.114363 9.10532e-23)
(0.454411 -0.107474 -1.76668e-20)
(0.458144 -0.100757 1.7773e-20)
(0.461733 -0.0942306 -1.77892e-20)
(0.465174 -0.08791 -1.79627e-20)
(0.468463 -0.0818097 -1.79702e-20)
(0.471598 -0.0759424 0)
(0.474576 -0.070319 5.44407e-20)
(0.477398 -0.0649484 3.63796e-20)
(0.480064 -0.0598375 0)
(0.482576 -0.0549907 0)
(0.484935 -0.0504107 0)
(0.487144 -0.0460978 -7.36847e-20)
(0.489207 -0.0420504 3.69659e-20)
(0.491129 -0.0382649 -3.69172e-20)
(0.308418 -0.324982 7.15589e-21)
(0.316068 -0.328797 0)
(0.323132 -0.331008 5.74279e-22)
(0.329643 -0.331802 0)
(0.335644 -0.331359 0)
(0.341182 -0.329845 -3.2667e-21)
(0.346311 -0.32741 0)
(0.351081 -0.324187 -5.35916e-21)
(0.355545 -0.320295 1.26138e-20)
(0.35975 -0.315835 0)
(0.363743 -0.310893 1.58541e-20)
(0.367564 -0.305545 8.64744e-21)
(0.371251 -0.299853 0)
(0.374838 -0.293868 0)
(0.378353 -0.287634 -1.05119e-20)
(0.381823 -0.281186 0)
(0.385269 -0.274554 0)
(0.388707 -0.267762 1.19983e-20)
(0.392154 -0.260828 -1.23401e-20)
(0.395619 -0.253769 -1.28242e-20)
(0.39911 -0.246599 -1.30983e-20)
(0.402634 -0.239327 -2.69828e-20)
(0.406191 -0.231965 -1.3761e-20)
(0.409783 -0.224522 0)
(0.413406 -0.217008 0)
(0.417058 -0.209432 0)
(0.420731 -0.201803 1.49616e-20)
(0.42442 -0.194135 -1.50835e-20)
(0.428116 -0.186438 0)
(0.431809 -0.178726 0)
(0.435489 -0.171015 0)
(0.439147 -0.163319 0)
(0.442771 -0.155656 -1.01843e-22)
(0.44635 -0.148045 0)
(0.449875 -0.140504 0)
(0.453334 -0.133053 0)
(0.456718 -0.125712 -3.33205e-20)
(0.460018 -0.118501 8.9449e-23)
(0.463225 -0.11144 0)
(0.466332 -0.104548 3.39086e-20)
(0.469332 -0.0978424 1.71342e-20)
(0.472219 -0.091341 0)
(0.474989 -0.0850593 5.17649e-20)
(0.477638 -0.0790111 0)
(0.480163 -0.0732082 -3.49023e-20)
(0.482563 -0.0676606 -3.50295e-20)
(0.484836 -0.0623761 3.50145e-20)
(0.486983 -0.05736 0)
(0.489005 -0.0526156 0)
(0.490903 -0.0481439 3.54223e-20)
(0.492679 -0.0439439 0)
(0.494337 -0.0400122 3.55544e-20)
(0.379891 -0.336105 -3.74256e-21)
(0.384884 -0.338833 -1.74663e-21)
(0.389245 -0.340042 0)
(0.393042 -0.339932 0)
(0.396348 -0.338687 0)
(0.399236 -0.336472 0)
(0.401772 -0.333435 0)
(0.40402 -0.329704 0)
(0.40604 -0.325387 -1.35156e-20)
(0.407884 -0.320579 -7.65506e-21)
(0.409599 -0.315359 -1.6832e-20)
(0.411227 -0.309792 0)
(0.412806 -0.303933 0)
(0.414366 -0.297826 0)
(0.415935 -0.291509 0)
(0.417536 -0.28501 -1.15242e-20)
(0.419186 -0.278351 0)
(0.420902 -0.271553 -1.24609e-20)
(0.422694 -0.264629 1.29489e-20)
(0.424572 -0.25759 0)
(0.426541 -0.250446 8.19826e-23)
(0.428602 -0.243205 2.80334e-20)
(0.430758 -0.235873 2.86705e-20)
(0.433005 -0.228458 0)
(0.435339 -0.220966 1.48618e-20)
(0.437755 -0.213405 0)
(0.440246 -0.205784 0)
(0.442802 -0.198111 1.56852e-20)
(0.445414 -0.1904 -1.57978e-20)
(0.448071 -0.182662 0)
(0.450761 -0.174912 0)
(0.453474 -0.167165 0)
(0.456197 -0.15944 -9.33604e-23)
(0.458918 -0.151755 0)
(0.461625 -0.144129 0)
(0.464308 -0.136582 -1.69315e-20)
(0.466955 -0.129137 1.71381e-20)
(0.469556 -0.121813 5.158e-20)
(0.472102 -0.114631 0)
(0.474585 -0.107612 -6.96277e-20)
(0.476995 -0.100776 3.49156e-20)
(0.479328 -0.0941393 0)
(0.481576 -0.08772 -3.53763e-20)
(0.483736 -0.0815327 0)
(0.485804 -0.0755905 0)
(0.487776 -0.0699041 0)
(0.48965 -0.0644822 -1.22762e-22)
(0.491427 -0.0593311 0)
(0.493104 -0.0544548 0)
(0.494684 -0.049855 -3.59587e-20)
(0.496166 -0.0455311 0)
(0.497552 -0.0414803 0)
(0.445794 -0.34253 -3.17777e-21)
(0.448011 -0.344256 3.81953e-22)
(0.449622 -0.344593 1.35603e-22)
(0.450725 -0.343738 -1.59285e-21)
(0.451409 -0.341869 2.92733e-21)
(0.45176 -0.339142 0)
(0.451853 -0.335693 0)
(0.451755 -0.331639 0)
(0.451525 -0.327079 7.10069e-21)
(0.451214 -0.322095 -9.01356e-23)
(0.450868 -0.316758 8.79138e-21)
(0.450524 -0.311124 0)
(0.450215 -0.30524 0)
(0.449969 -0.299144 1.08461e-20)
(0.449808 -0.292865 1.14074e-20)
(0.449752 -0.286428 2.39642e-23)
(0.449815 -0.279849 0)
(0.450009 -0.273143 2.57444e-20)
(0.450341 -0.26632 1.32607e-20)
(0.450818 -0.259388 0)
(0.451442 -0.252353 1.40676e-20)
(0.452212 -0.245219 -2.8732e-20)
(0.453128 -0.237992 -1.47152e-20)
(0.454185 -0.230674 -1.49228e-20)
(0.455377 -0.223273 -1.52745e-20)
(0.456696 -0.215792 0)
(0.458134 -0.208241 1.56703e-20)
(0.45968 -0.200627 0)
(0.461324 -0.192961 1.61756e-20)
(0.463053 -0.185255 0)
(0.464855 -0.177525 -1.64487e-20)
(0.466718 -0.169784 -1.66107e-20)
(0.468628 -0.162052 -8.51146e-23)
(0.470572 -0.154347 0)
(0.472539 -0.14669 -1.70306e-20)
(0.474515 -0.139102 1.72311e-20)
(0.47649 -0.131603 0)
(0.478452 -0.124217 -1.52889e-22)
(0.480392 -0.116966 3.4919e-20)
(0.482299 -0.10987 3.52381e-20)
(0.484167 -0.10295 -3.53938e-20)
(0.485986 -0.0962252 0)
(0.487751 -0.0897138 -3.55324e-20)
(0.489456 -0.0834314 0)
(0.491097 -0.0773922 0)
(0.492669 -0.0716079 -3.58562e-20)
(0.49417 -0.066088 -3.60549e-20)
(0.495598 -0.0608395 0)
(0.496951 -0.0558672 3.60748e-20)
(0.49823 -0.0511733 7.23531e-20)
(0.499434 -0.0467577 0)
(0.500563 -0.0426183 0)
(0.50162 -0.0387506 0)
(0.504851 -0.344907 6.11193e-21)
(0.504368 -0.345804 1.51044e-21)
(0.503365 -0.34546 -1.4093e-22)
(0.501954 -0.34406 3.64344e-21)
(0.500233 -0.341766 -3.03883e-21)
(0.498287 -0.338719 0)
(0.496191 -0.335041 0)
(0.494009 -0.330836 -6.67901e-21)
(0.491796 -0.32619 0)
(0.489597 -0.321176 1.68148e-20)
(0.487452 -0.315855 9.23864e-21)
(0.485393 -0.310276 0)
(0.483448 -0.304478 0)
(0.481638 -0.298492 -2.24007e-20)
(0.479982 -0.292344 -1.17615e-20)
(0.478494 -0.286051 1.22859e-20)
(0.477184 -0.279628 0)
(0.476061 -0.273085 -1.32148e-20)
(0.475129 -0.266428 -1.36266e-20)
(0.474391 -0.259663 0)
(0.473847 -0.252793 0)
(0.473495 -0.24582 1.46856e-20)
(0.47333 -0.238747 -1.49191e-20)
(0.473347 -0.231576 1.52679e-20)
(0.473539 -0.224311 0)
(0.473896 -0.216956 0)
(0.474407 -0.209519 -7.83854e-23)
(0.475063 -0.202006 0)
(0.47585 -0.194427 1.63094e-20)
(0.476756 -0.186796 -1.64865e-20)
(0.477768 -0.179126 1.67297e-20)
(0.478872 -0.171432 7.85431e-23)
(0.480054 -0.163734 -3.39628e-20)
(0.481301 -0.15605 0)
(0.482601 -0.148401 1.72669e-20)
(0.48394 -0.140809 0)
(0.485306 -0.133298 0)
(0.486688 -0.125889 -3.51325e-20)
(0.488076 -0.118605 -3.52989e-20)
(0.489459 -0.11147 0)
(0.490829 -0.104503 -3.54571e-20)
(0.492177 -0.0977269 3.55842e-20)
(0.493497 -0.0911588 3.58208e-20)
(0.494782 -0.0848161 0)
(0.496028 -0.0787136 0)
(0.497229 -0.0728639 7.20465e-20)
(0.498383 -0.0672774 0)
(0.499486 -0.0619618 0)
(0.500537 -0.0569223 -3.62344e-20)
(0.501534 -0.052162 -3.62652e-20)
(0.502477 -0.0476811 0)
(0.503365 -0.0434778 -3.62104e-20)
(0.504198 -0.0395482 -3.62172e-20)
(0.504977 -0.0358865 -7.99657e-23)
(0.556491 -0.344024 -5.41555e-22)
(0.553548 -0.344304 0)
(0.550207 -0.343489 0)
(0.546579 -0.341742 -4.44681e-21)
(0.54276 -0.339209 -3.72249e-21)
(0.53883 -0.336013 -4.9303e-21)
(0.534857 -0.332261 0)
(0.530898 -0.328043 6.86403e-21)
(0.527 -0.323437 0)
(0.523201 -0.318505 -8.68696e-21)
(0.519535 -0.3133 -9.48199e-21)
(0.516027 -0.307863 0)
(0.512698 -0.302229 0)
(0.509567 -0.296423 1.1485e-20)
(0.506645 -0.290468 0)
(0.503942 -0.284376 0)
(0.501467 -0.278159 0)
(0.499223 -0.271824 0)
(0.497213 -0.265376 1.38335e-20)
(0.495437 -0.258816 -1.41962e-20)
(0.493891 -0.252147 1.45317e-20)
(0.492573 -0.245369 0)
(0.491477 -0.238482 5.9872e-23)
(0.490595 -0.231488 0)
(0.489918 -0.224389 1.56423e-20)
(0.489437 -0.217189 -1.58706e-20)
(0.48914 -0.209894 -1.6152e-20)
(0.489015 -0.20251 0)
(0.48905 -0.195047 -1.65299e-20)
(0.48923 -0.187518 1.6697e-20)
(0.489542 -0.179936 0)
(0.489973 -0.172318 7.14008e-23)
(0.490508 -0.164681 7.07255e-23)
(0.491133 -0.157046 0)
(0.491835 -0.149435 0)