/*--------------------------------*- C++ -*----------------------------------*\
  =========                 |
  \\      /  F ield         | OpenFOAM: The Open Source CFD Toolbox
   \\    /   O peration     | Website:  https://openfoam.org
    \\  /    A nd           | Version:  6
     \\/     M anipulation  |
\*---------------------------------------------------------------------------*/
FoamFile
{
    version     2.0;
    format      ascii;
    class       volScalarField;
    location    "0.21";
    object      epsilon;
}
// * * * * * * * * * * * * * * * * * * * * * * * * * * * * * * * * * * * * * //

dimensions      [0 2 -3 0 0 0 0];

internalField   nonuniform List<scalar> 
12225
(
307.554
159.142
103.206
76.1798
60.8911
51.3533
44.9134
40.2536
36.6896
33.8495
31.5177
29.5606
27.8903
26.4456
25.1819
24.0667
23.0746
22.2395
71.6109
59.7633
44.4175
34.349
27.8021
23.3528
20.2004
17.8781
16.1025
14.6994
13.5606
12.6164
11.8201
11.139
10.5498
10.0352
9.58112
9.17241
33.6139
34.4055
29.2906
24.3864
20.5356
17.6092
15.3794
13.6554
12.296
11.2019
10.3046
9.55649
8.92391
8.38249
7.91428
7.5058
7.14665
6.82872
22.4947
24.1974
22.2225
19.542
17.0649
14.9828
13.2828
11.9021
10.7748
9.84484
9.06896
8.41424
7.85588
7.37509
6.95754
6.59221
6.27077
5.98852
18.0525
19.1659
18.2265
16.5959
14.8968
13.3495
12.0108
10.8752
9.91687
9.10652
8.41762
7.82796
7.31959
6.87818
6.49234
6.1531
5.85373
5.59125
15.9662
16.4002
15.7672
14.6433
13.3964
12.1983
11.1154
10.1639
9.33796
8.62365
8.00542
7.46864
7.00056
6.59037
6.22918
5.90973
5.62663
5.378
14.903
14.7895
14.1897
13.3006
12.3143
11.3432
10.4411
9.62826
8.90691
8.27131
7.71251
7.22098
6.78766
6.40451
6.06458
5.76207
5.49271
5.2554
14.3404
13.8261
13.1601
12.3652
11.5232
10.6961
9.91943
9.20916
8.56934
7.99762
7.48866
7.03603
6.6332
6.27407
5.95321
5.66597
5.40901
5.18175
14.0387
13.2461
12.4873
11.7147
10.9458
10.2062
9.51375
8.87736
8.29947
7.77845
7.31048
6.89079
6.51441
6.17655
5.87284
5.59954
5.35396
5.13593
13.8768
12.8995
12.0524
11.2678
10.5298
9.83969
9.20108
8.61588
8.08351
7.6015
7.16629
6.7738
6.41985
6.10045
5.81194
5.55118
5.31601
5.10648
13.7906
12.6958
11.7767
10.9671
10.2363
9.57092
8.96457
8.41314
7.91283
7.45974
7.04982
6.67905
6.34357
6.03975
5.76437
5.51466
5.2888
5.08696
13.7489
12.5882
11.6206
10.7868
10.0518
9.3952
8.80488
8.27257
7.79193
7.35762
6.96489
6.60945
6.28741
5.99526
5.72993
5.48889
5.27046
5.07485
13.7254
12.5235
11.521
10.6659
9.92274
9.26802
8.68593
8.16532
7.69785
7.27688
6.8969
6.55324
6.24183
5.95914
5.70217
5.46845
5.25642
5.06624
13.7116
12.4831
11.4547
10.5809
9.82781
9.17069
8.59181
8.07805
7.61946
7.20828
6.83824
6.50416
6.20174
5.92731
5.67781
5.45081
5.24477
5.05977
13.7045
12.4608
11.416
10.5284
9.76602
9.1045
8.52534
8.01439
7.56072
7.1557
6.79244
6.46532
6.16973
5.90182
5.65843
5.43709
5.23619
5.05574
13.7012
12.4503
11.3966
10.5006
9.73161
9.06588
8.48494
7.97433
7.52262
7.12075
6.76141
6.43864
6.14758
5.88421
5.64525
5.42814
5.23122
5.05436
13.7
12.4461
11.3886
10.4886
9.71594
9.04748
8.46491
7.95375
7.50249
7.10186
6.74435
6.42385
6.13532
5.87464
5.63841
5.42401
5.22973
5.05529
13.6996
12.4449
11.3862
10.4848
9.71086
9.0413
8.45796
7.94643
7.49518
7.09491
6.73807
6.41846
6.13101
5.87151
5.63654
5.42343
5.23043
5.05719
13.6998
12.4453
11.387
10.486
9.71247
9.04327
8.46019
7.94881
7.49762
7.09733
6.74038
6.42063
6.13299
5.87328
5.63808
5.42474
5.2315
5.05805
13.701
12.4493
11.3947
10.4976
9.72764
9.06119
8.47987
7.96922
7.51782
7.11652
6.75795
6.43612
6.1461
5.88382
5.64597
5.42997
5.23412
5.05825
13.7054
12.4634
11.4201
10.5336
9.7719
9.11064
8.53149
8.02045
7.56664
7.1615
6.79816
6.47101
6.17544
5.90759
5.6643
5.44308
5.24233
5.06204
13.7204
12.5081
11.4948
10.6317
9.88426
9.22861
8.64818
8.13095
7.66784
7.25168
6.8766
6.5377
6.23077
5.95224
5.69905
5.46877
5.25983
5.07238
13.767
12.633
11.6842
10.8596
10.1263
9.46683
8.87114
8.3324
7.84512
7.40448
7.00595
6.64535
6.31881
6.02278
5.75413
5.51027
5.28946
5.09194
13.9007
12.9462
12.1086
11.3251
10.5843
9.88982
9.24647
8.65673
8.12024
7.63464
7.19634
6.80124
6.44514
6.12397
5.83402
5.5721
5.33602
5.12585
14.2607
13.6658
12.974
12.1888
11.372
10.5738
9.8239
9.13626
8.51469
7.95737
7.45966
7.0158
6.61985
6.26615
5.94962
5.6659
5.41183
5.18708
15.1941
15.2319
14.6347
13.6937
12.6456
11.6176
10.6673
9.8151
9.06228
8.40174
7.8233
7.3163
6.87083
6.47811
6.1306
5.82208
5.54792
5.30701
17.6338
18.6177
17.7644
16.2579
14.6629
13.1886
11.8967
10.7898
9.84898
9.04942
8.36746
7.78258
7.27779
6.83927
6.45591
6.11888
5.82161
5.56182
24.7058
26.4228
23.9014
20.7811
17.9998
15.7043
13.8525
12.3634
11.1581
10.1718
9.35467
8.66946
8.08823
7.59004
7.15903
6.78313
6.4534
6.16598
51.9669
47.7357
37.7987
30.1744
24.7626
20.8812
18.0408
15.9128
14.2759
12.9835
11.9389
11.0775
10.355
9.74035
9.21115
8.75101
8.34794
7.99599
251.833
137.373
90.8043
67.1601
53.3513
44.581
38.6435
34.3882
31.1837
28.6708
26.6368
24.9495
23.5232
22.2996
21.2374
20.3067
19.4848
18.7572
0.0624146
0.0676932
0.0851662
0.0903007
0.0989863
0.110506
0.124826
0.14262
0.166472
0.191865
0.219778
0.250854
0.285233
0.322803
0.363287
0.406312
0.451474
0.498366
0.546605
0.595839
0.645757
0.696088
0.746604
0.797117
0.84748
0.897581
0.947341
0.996713
1.04567
1.09422
1.14237
1.19014
1.23759
1.28474
1.33166
1.37838
1.42496
1.47144
1.51786
1.56427
1.61071
1.6572
1.70381
1.75056
1.79752
1.84478
1.89245
1.9407
1.98977
2.04003
2.09203
2.14404
2.19583
2.24734
2.29847
2.34907
2.39893
2.44785
2.49558
2.54187
2.58644
2.62899
2.6692
2.70677
2.74135
2.77263
2.80029
2.824
2.84347
2.85842
2.86862
2.87384
2.87392
2.86874
2.85822
2.84233
2.82112
2.79465
2.76309
2.7266
2.68545
2.6399
2.59028
2.53693
2.48025
2.42063
2.35854
2.29457
2.22973
2.16621
2.10886
2.06298
2.02251
1.98242
1.94203
1.90137
1.86055
1.81975
1.77911
1.73878
1.6989
1.65958
1.62092
1.583
1.5459
1.50967
1.47434
1.43993
1.40648
1.37396
1.34238
1.31172
1.28195
1.25304
1.22496
1.19766
1.17109
1.14521
1.11997
1.09532
1.0712
1.04757
1.0244
1.00163
0.979232
0.957185
0.935463
0.914053
0.892949
0.872155
0.851679
0.831541
0.811765
0.792379
0.773412
0.754887
0.736817
0.719201
0.702063
0.685533
0.669973
0.655549
0.642186
0.629842
0.618483
0.608077
0.59859
0.589989
0.582238
0.575297
0.569127
0.563683
0.558921
0.554794
0.551254
0.548253
0.545743
0.543678
0.542011
0.5407
0.539701
0.538974
0.538482
0.538189
0.538059
0.538061
0.53816
0.538326
0.538522
0.538712
0.53885
0.538883
0.538738
0.538312
0.537455
0.535916
0.533282
0.528723
0.520949
0.507099
0.174788
0.111854
0.108483
0.119655
0.136022
0.157011
0.181749
0.208452
0.235223
0.260656
0.284599
0.307227
0.328721
0.349233
0.368906
0.387883
0.406306
0.424309
0.442009
0.459505
0.476869
0.494153
0.51139
0.528596
0.545774
0.562923
0.580035
0.597103
0.614118
0.631073
0.647965
0.66479
0.681548
0.69824
0.714867
0.731435
0.747946
0.764406
0.780822
0.797201
0.813552
0.829887
0.846222
0.862579
0.878988
0.895492
0.912145
0.929025
0.946231
0.96389
0.982144
1.00066
1.01911
1.03745
1.05562
1.07356
1.09121
1.1085
1.12535
1.14168
1.15738
1.17235
1.1865
1.1997
1.21185
1.22283
1.23251
1.24079
1.24755
1.2527
1.25612
1.25775
1.2575
1.25532
1.25117
1.24503
1.2369
1.2268
1.21477
1.20086
1.18515
1.16775
1.14875
1.12831
1.10655
1.08367
1.05985
1.03537
1.01059
0.986019
0.962393
0.940731
0.919841
0.899087
0.878345
0.857632
0.837003
0.816523
0.796251
0.776244
0.756551
0.737214
0.718269
0.699743
0.68166
0.664035
0.646879
0.630199
0.613995
0.598264
0.583001
0.568196
0.553836
0.539907
0.526392
0.513275
0.500536
0.488157
0.476118
0.4644
0.452985
0.441856
0.430996
0.420392
0.41003
0.399902
0.389998
0.380314
0.370848
0.361599
0.35257
0.343766
0.335195
0.326864
0.318784
0.310966
0.30342
0.296162
0.289217
0.282632
0.276496
0.270916
0.265756
0.260958
0.256516
0.252421
0.248662
0.245229
0.242108
0.239285
0.236747
0.234478
0.232463
0.230687
0.229132
0.227784
0.226625
0.22564
0.224814
0.224131
0.223577
0.223138
0.222802
0.222556
0.22239
0.222295
0.222262
0.222283
0.222353
0.222468
0.222627
0.22283
0.223087
0.223414
0.223853
0.224492
0.22553
0.227433
0.231332
0.240646
0.348113
0.184739
0.170146
0.174165
0.186374
0.20385
0.224408
0.245761
0.266091
0.284527
0.301067
0.316097
0.330074
0.343398
0.356383
0.369257
0.382175
0.395225
0.408446
0.421836
0.435365
0.448988
0.462651
0.4763
0.489884
0.503362
0.516701
0.529876
0.542872
0.555683
0.568307
0.580749
0.593016
0.605121
0.617078
0.628903
0.640614
0.652231
0.663776
0.675272
0.686743
0.698218
0.709725
0.721295
0.732962
0.744759
0.756721
0.768884
0.781275
0.793919
0.806822
0.819835
0.83288
0.845913
0.858902
0.87181
0.884596
0.897212
0.909602
0.921704
0.93345
0.944761
0.955556
0.965745
0.975235
0.983928
0.991724
0.998523
1.00423
1.00874
1.01197
1.01384
1.01428
1.01322
1.01063
1.00647
1.00072
0.993392
0.984508
0.974104
0.962235
0.948974
0.934409
0.918642
0.901791
0.883989
0.86539
0.846166
0.826514
0.80666
0.787269
0.768351
0.74965
0.731033
0.712481
0.694028
0.675722
0.657617
0.639764
0.622206
0.604982
0.588126
0.571663
0.555615
0.539996
0.524818
0.510086
0.495803
0.481967
0.468574
0.455616
0.443084
0.430965
0.419246
0.407912
0.396949
0.38634
0.376068
0.366117
0.356471
0.347114
0.338032
0.32921
0.320637
0.312302
0.304194
0.296307
0.288633
0.28117
0.273914
0.266866
0.260026
0.253397
0.246982
0.240788
0.23482
0.229085
0.223593
0.218355
0.213389
0.208715
0.204356
0.200322
0.196593
0.193146
0.189969
0.187056
0.184395
0.181975
0.179787
0.177819
0.176057
0.174491
0.173107
0.171893
0.170835
0.169922
0.16914
0.168477
0.167922
0.167463
0.167091
0.166796
0.166567
0.166399
0.166282
0.166211
0.16618
0.166186
0.166224
0.166294
0.166396
0.166535
0.166721
0.166977
0.167351
0.167945
0.168997
0.171047
0.175462
0.522157
0.258933
0.223945
0.219326
0.224746
0.235358
0.248736
0.263027
0.27696
0.289978
0.302092
0.313586
0.324794
0.335989
0.347354
0.358991
0.370933
0.383169
0.395656
0.408334
0.421133
0.433986
0.446828
0.459603
0.472264
0.484774
0.497106
0.509243
0.521172
0.53289
0.544397
0.555701
0.56681
0.577738
0.588501
0.599115
0.609602
0.619984
0.630284
0.640528
0.650743
0.660955
0.671193
0.681485
0.691859
0.702341
0.712955
0.723722
0.734657
0.745768
0.757062
0.768476
0.779974
0.791531
0.803123
0.814723
0.826297
0.837805
0.849199
0.860423
0.871412
0.882093
0.892386
0.902202
0.911449
0.920025
0.927829
0.934756
0.940702
0.945564
0.949246
0.951658
0.95272
0.952365
0.950539
0.947203
0.942337
0.935935
0.928013
0.918603
0.907756
0.895537
0.88203
0.867331
0.851549
0.834807
0.817239
0.79898
0.780174
0.761289
0.74246
0.723692
0.704966
0.686285
0.667682
0.649208
0.630917
0.612865
0.5951
0.577668
0.560604
0.543941
0.527702
0.511909
0.496574
0.481706
0.46731
0.453388
0.439935
0.426947
0.414416
0.402329
0.390675
0.37944
0.368609
0.358166
0.348094
0.338376
0.328996
0.319937
0.311183
0.302719
0.29453
0.286603
0.278926
0.271489
0.264281
0.257296
0.250527
0.243971
0.237623
0.231484
0.225551
0.219828
0.214315
0.209017
0.203938
0.199083
0.194459
0.190072
0.185933
0.18205
0.178429
0.175074
0.171971
0.169111
0.166486
0.164086
0.161902
0.159925
0.158144
0.156549
0.155128
0.153869
0.152762
0.151795
0.150956
0.150233
0.149617
0.149096
0.148661
0.148302
0.14801
0.147778
0.147597
0.147463
0.147368
0.147309
0.14728
0.147279
0.147305
0.147357
0.147438
0.147556
0.147724
0.147976
0.148374
0.14906
0.150315
0.15268
0.663843
0.310567
0.260869
0.249293
0.248846
0.253569
0.261128
0.270119
0.279671
0.289368
0.299132
0.309048
0.319241
0.329804
0.34078
0.352168
0.363934
0.37602
0.388361
0.400888
0.413532
0.426229
0.438925
0.451568
0.464118
0.476542
0.488813
0.500911
0.512823
0.524539
0.536055
0.547374
0.558498
0.569437
0.580201
0.590805
0.601266
0.611603
0.621838
0.631995
0.642097
0.652171
0.662244
0.672341
0.682488
0.692711
0.703031
0.713469
0.724042
0.734767
0.745656
0.756686
0.767836
0.779091
0.790432
0.801838
0.813279
0.824719
0.836111
0.847401
0.858522
0.869401
0.879955
0.89009
0.899707
0.9087
0.916958
0.924368
0.930816
0.936191
0.940385
0.9433
0.944848
0.944951
0.943549
0.940597
0.936069
0.929958
0.922275
0.913052
0.902339
0.890204
0.876729
0.862011
0.846162
0.829298
0.811562
0.79305
0.774194
0.755088
0.735826
0.716474
0.697087
0.677722
0.65844
0.639305
0.620381
0.601726
0.583392
0.565425
0.547863
0.530739
0.514078
0.497899
0.482216
0.467038
0.45237
0.438211
0.424558
0.411405
0.398742
0.386559
0.374841
0.363574
0.352741
0.342326
0.332311
0.322679
0.31341
0.304488
0.295896
0.287616
0.279632
0.271931
0.264498
0.257321
0.25039
0.243694
0.237225
0.230977
0.224946
0.219127
0.213519
0.20812
0.202931
0.197952
0.193187
0.188637
0.184306
0.180198
0.176318
0.17267
0.169257
0.166082
0.163143
0.16043
0.157937
0.155655
0.153577
0.151692
0.149993
0.148467
0.147107
0.145899
0.144834
0.143901
0.143088
0.142386
0.141783
0.14127
0.140838
0.140477
0.14018
0.139938
0.139745
0.139595
0.139482
0.139401
0.139349
0.139322
0.139319
0.139339
0.139384
0.139458
0.139573
0.139752
0.140037
0.140519
0.141357
0.142787
0.758141
0.342405
0.281748
0.265079
0.260619
0.26151
0.26542
0.271204
0.278199
0.286047
0.294577
0.303726
0.313466
0.32377
0.3346
0.345901
0.357612
0.369668
0.382001
0.394549
0.40725
0.420052
0.432902
0.445756
0.458576
0.471325
0.483974
0.496499
0.508878
0.521096
0.533142
0.545008
0.556691
0.568191
0.579515
0.590669
0.601666
0.61252
0.623249
0.633874
0.644415
0.654898
0.665346
0.675787
0.686245
0.696746
0.707315
0.717976
0.728751
0.739661
0.750725
0.761941
0.773297
0.784783
0.796387
0.808089
0.819862
0.831672
0.843471
0.855205
0.866804
0.878193
0.889281
0.899971
0.910155
0.919718
0.928542
0.936503
0.943477
0.949343
0.953984
0.957294
0.959174
0.959542
0.95833
0.955491
0.950996
0.944835
0.937021
0.927588
0.916589
0.904093
0.890189
0.874979
0.858574
0.841089
0.822742
0.803776
0.784329
0.76452
0.744457
0.724236
0.703944
0.683662
0.66347
0.643442
0.623648
0.60415
0.585006
0.566261
0.547959
0.530131
0.512804
0.495998
0.479729
0.464005
0.448829
0.434204
0.420123
0.406582
0.393569
0.381073
0.36908
0.357574
0.346537
0.335952
0.3258
0.316061
0.306717
0.297748
0.289136
0.280862
0.272909
0.265261
0.257901
0.250817
0.243994
0.237422
0.231091
0.224992
0.219118
0.213464
0.208026
0.202801
0.197788
0.192985
0.188393
0.184012
0.179845
0.175894
0.172159
0.168644
0.165351
0.16228
0.15943
0.156797
0.154374
0.152154
0.150129
0.148291
0.14663
0.145138
0.143804
0.142618
0.14157
0.140649
0.139845
0.139147
0.138546
0.138032
0.137595
0.137228
0.136922
0.13667
0.136465
0.1363
0.136172
0.136074
0.136004
0.135958
0.135933
0.135929
0.135947
0.13599
0.136067
0.136193
0.1364
0.136747
0.13733
0.138262
0.81661
0.359025
0.290312
0.270094
0.263211
0.262002
0.263998
0.268124
0.273804
0.280693
0.288576
0.297308
0.306784
0.316919
0.327636
0.338863
0.350534
0.362586
0.37496
0.387601
0.400457
0.413481
0.426626
0.43985
0.453114
0.466379
0.479612
0.492782
0.505862
0.518827
0.53166
0.544343
0.556865
0.56922
0.581405
0.593421
0.605273
0.616971
0.628528
0.639958
0.651282
0.662521
0.673698
0.684837
0.695966
0.707109
0.718295
0.729549
0.740897
0.752363
0.763967
0.775722
0.787621
0.799659
0.811825
0.824103
0.836467
0.84888
0.861297
0.873658
0.885894
0.89792
0.909643
0.920958
0.931749
0.941894
0.951263
0.959726
0.96715
0.973403
0.978363
0.981913
0.983952
0.98439
0.983159
0.980208
0.975509
0.969054
0.960858
0.950959
0.939417
0.926302
0.911717
0.895765
0.878558
0.860387
0.841365
0.821646
0.801373
0.780676
0.759676
0.738484
0.717206
0.695937
0.674766
0.653776
0.633042
0.612631
0.592602
0.573005
0.553884
0.535272
0.517199
0.499684
0.482744
0.466387
0.450618
0.435437
0.420842
0.406823
0.393372
0.380476
0.368119
0.356286
0.344958
0.334116
0.32374
0.313811
0.304307
0.295208
0.286494
0.278145
0.270142
0.262466
0.2551
0.248029
0.241238
0.234714
0.228444
0.222418
0.216628
0.211066
0.205727
0.200605
0.195698
0.191002
0.186518
0.182244
0.17818
0.174327
0.170685
0.167255
0.164038
0.161034
0.158242
0.155658
0.153277
0.151093
0.149099
0.147286
0.145646
0.14417
0.142848
0.141672
0.140629
0.139712
0.138908
0.138209
0.137604
0.137085
0.136642
0.136267
0.135951
0.135689
0.135473
0.135296
0.135155
0.135043
0.134958
0.134895
0.134853
0.13483
0.134827
0.134846
0.134892
0.134978
0.135127
0.135377
0.135789
0.136425
0.845852
0.364703
0.290524
0.267936
0.259692
0.257489
0.258649
0.262058
0.26715
0.273582
0.281121
0.289595
0.298873
0.308851
0.319443
0.330578
0.342193
0.354235
0.366653
0.379402
0.392438
0.405718
0.4192
0.432844
0.446609
0.460455
0.474345
0.488244
0.502118
0.515936
0.529671
0.543301
0.556806
0.570172
0.583388
0.59645
0.609354
0.622106
0.634711
0.647182
0.659534
0.671783
0.683952
0.696064
0.708142
0.720214
0.732306
0.744445
0.756657
0.768967
0.781396
0.793961
0.80666
0.81949
0.83244
0.845494
0.858626
0.871798
0.88496
0.898051
0.910996
0.923705
0.936079
0.948004
0.959359
0.970013
0.979829
0.988669
0.996394
1.00287
1.00796
1.01155
1.01353
1.01382
1.01235
1.00906
1.00394
0.996972
0.988186
0.97762
0.965357
0.951447
0.936021
0.919292
0.901364
0.882404
0.862558
0.841975
0.820801
0.799172
0.777217
0.75506
0.732812
0.710578
0.688455
0.666529
0.644881
0.62358
0.602687
0.582255
0.562327
0.542942
0.524126
0.505903
0.488288
0.471291
0.454918
0.439168
0.424039
0.409524
0.395611
0.382288
0.369541
0.357351
0.345701
0.33457
0.323938
0.313783
0.304085
0.29482
0.285968
0.277508
0.269417
0.261678
0.25427
0.247176
0.24038
0.233866
0.227622
0.221633
0.215891
0.210386
0.20511
0.200057
0.195223
0.190603
0.186194
0.181996
0.178006
0.174223
0.170648
0.167281
0.16412
0.161165
0.158414
0.155867
0.153516
0.151357
0.149383
0.147587
0.145959
0.144493
0.143178
0.142005
0.140965
0.140047
0.139241
0.138538
0.137929
0.137403
0.136953
0.13657
0.136246
0.135974
0.135748
0.135561
0.135408
0.135284
0.135186
0.13511
0.135054
0.135016
0.134995
0.134993
0.135015
0.135069
0.135171
0.135349
0.135642
0.136087
0.852204
0.362851
0.285522
0.261464
0.252495
0.249891
0.250772
0.253946
0.258819
0.265041
0.272378
0.280659
0.289751
0.299556
0.309993
0.321
0.332525
0.344524
0.356956
0.369785
0.382974
0.396484
0.41028
0.424321
0.438567
0.452979
0.467517
0.482142
0.496815
0.511502
0.52617
0.540788
0.555333
0.569781
0.584117
0.598328
0.612407
0.62635
0.64016
0.653842
0.667406
0.680867
0.694242
0.707551
0.720815
0.73406
0.747309
0.760588
0.773921
0.787332
0.80084
0.814457
0.828185
0.842017
0.855944
0.869945
0.883991
0.898039
0.912037
0.925916
0.939596
0.952981
0.965964
0.978426
0.990236
1.00126
1.01135
1.02038
1.02819
1.03464
1.03962
1.04299
1.04466
1.04454
1.04257
1.0387
1.03292
1.02524
1.01568
1.00425
0.99115
0.976438
0.960236
0.942692
0.923945
0.904147
0.883449
0.862
0.839947
0.817432
0.794588
0.771542
0.748412
0.725306
0.702324
0.679557
0.657086
0.634983
0.613309
0.59212
0.57146
0.551367
0.53187
0.512992
0.494751
0.477157
0.460216
0.443928
0.428292
0.413299
0.39894
0.385203
0.372072
0.35953
0.347559
0.336137
0.325245
0.314859
0.304958
0.295518
0.286517
0.277933
0.269743
0.261926
0.254461
0.24733
0.240514
0.233996
0.227761
0.221794
0.216085
0.210621
0.205393
0.200394
0.195617
0.191058
0.186711
0.182574
0.178645
0.174921
0.171402
0.168086
0.164973
0.16206
0.159347
0.15683
0.154506
0.152368
0.150412
0.148629
0.147013
0.145554
0.144244
0.143074
0.142035
0.141116
0.140308
0.139601
0.138987
0.138456
0.137999
0.137609
0.137277
0.136997
0.136762
0.136566
0.136403
0.13627
0.136161
0.136074
0.136005
0.135954
0.135918
0.1359
0.135901
0.135929
0.135994
0.136117
0.136323
0.13664
0.841033
0.355922
0.277485
0.252673
0.243356
0.240625
0.241461
0.244593
0.249393
0.2555
0.262682
0.270779
0.279671
0.28927
0.299511
0.310342
0.321725
0.333625
0.346014
0.358861
0.372137
0.385811
0.399849
0.414215
0.428873
0.443782
0.458902
0.474193
0.489615
0.50513
0.5207
0.536292
0.551876
0.567424
0.582914
0.598329
0.613654
0.628881
0.644006
0.659029
0.673956
0.688794
0.703557
0.718259
0.73292
0.747558
0.762195
0.776851
0.791548
0.806302
0.821131
0.836035
0.851012
0.866051
0.881136
0.89624
0.911327
0.926347
0.94124
0.955929
0.970327
0.984332
0.997828
1.01069
1.02278
1.03396
1.04409
1.05302
1.06062
1.06675
1.07129
1.07413
1.07517
1.07433
1.07157
1.06684
1.06016
1.05156
1.04108
1.0288
1.01481
0.999234
0.982183
0.9638
0.944227
0.923614
0.902112
0.879869
0.857032
0.833743
0.810136
0.78634
0.762472
0.738642
0.714951
0.691489
0.668338
0.645571
0.623249
0.601428
0.580153
0.559462
0.539386
0.519949
0.501167
0.483053
0.465613
0.44885
0.43276
0.417339
0.402577
0.388461
0.374978
0.36211
0.349838
0.338144
0.327005
0.316399
0.306303
0.296694
0.287548
0.278842
0.270553
0.262658
0.255135
0.247964
0.241125
0.234599
0.22837
0.222421
0.216739
0.211312
0.206128
0.201178
0.196455
0.191951
0.187662
0.183583
0.17971
0.176042
0.172576
0.16931
0.166242
0.163371
0.160694
0.158208
0.155911
0.153796
0.151858
0.150091
0.148486
0.147036
0.145733
0.144567
0.143529
0.142611
0.141802
0.141093
0.140476
0.13994
0.139478
0.139082
0.138744
0.138457
0.138214
0.13801
0.13784
0.137697
0.13758
0.137483
0.137404
0.137341
0.137294
0.137261
0.137245
0.137251
0.137287
0.137367
0.13751
0.137737
0.816454
0.345601
0.267847
0.242884
0.233465
0.230723
0.23158
0.234714
0.239466
0.245467
0.25249
0.260383
0.269042
0.278395
0.288389
0.298989
0.310166
0.321898
0.334164
0.346945
0.360219
0.373961
0.388143
0.402733
0.417699
0.433004
0.448609
0.464475
0.480561
0.49683
0.513241
0.52976
0.546353
0.562988
0.579639
0.596284
0.612902
0.629481
0.646009
0.662483
0.6789
0.695264
0.71158
0.727859
0.744112
0.760354
0.776598
0.792861
0.809156
0.825493
0.841881
0.858301
0.874741
0.891181
0.907591
0.923936
0.940165
0.956219
0.972025
0.987497
1.00254
1.01704
1.03088
1.04392
1.05603
1.06706
1.07689
1.08536
1.09237
1.09778
1.10149
1.1034
1.10342
1.10151
1.09765
1.09183
1.08406
1.07438
1.06287
1.04959
1.03465
1.01816
1.00024
0.981042
0.960695
0.939349
0.917149
0.894243
0.870774
0.846878
0.822689
0.79833
0.773917
0.749558
0.72535
0.701384
0.677739
0.654486
0.631687
0.609397
0.58766
0.566515
0.545993
0.526119
0.50691
0.48838
0.470537
0.453383
0.436918
0.421137
0.406031
0.391591
0.377803
0.36465
0.352115
0.340178
0.328818
0.318014
0.307743
0.29798
0.288703
0.279886
0.271507
0.263541
0.255967
0.248761
0.241903
0.235372
0.229151
0.223223
0.217571
0.212182
0.207043
0.202144
0.197475
0.193029
0.188798
0.184778
0.180965
0.177354
0.173942
0.170728
0.167709
0.164881
0.162244
0.159793
0.157526
0.155438
0.153522
0.151773
0.150183
0.148745
0.147451
0.146292
0.145259
0.144343
0.143535
0.142826
0.142207
0.141669
0.141204
0.140803
0.14046
0.140168
0.139919
0.139709
0.139531
0.139382
0.139257
0.139152
0.139064
0.138992
0.138934
0.13889
0.13886
0.138848
0.138861
0.138908
0.139003
0.139166
0.781408
0.333017
0.257538
0.232971
0.22365
0.220956
0.221836
0.224951
0.229631
0.2355
0.242334
0.249992
0.258383
0.267447
0.277147
0.287457
0.298361
0.309849
0.321911
0.334534
0.347707
0.361413
0.37563
0.390335
0.405498
0.421089
0.437074
0.453416
0.470079
0.487023
0.504211
0.521607
0.539176
0.556884
0.574702
0.592602
0.610561
0.62856
0.646582
0.664617
0.682655
0.700693
0.718729
0.736766
0.754809
0.772862
0.790933
0.809029
0.827153
0.845307
0.863484
0.881637
0.899736
0.917743
0.935614
0.953292
0.970713
0.987798
1.00446
1.0206
1.03611
1.05088
1.06478
1.07771
1.08945
1.09991
1.10897
1.11651
1.12243
1.12664
1.12904
1.12957
1.12819
1.12487
1.1196
1.1124
1.10331
1.09238
1.07969
1.06531
1.04936
1.03195
1.0132
0.993249
0.972229
0.95028
0.927542
0.904153
0.880249
0.855959
0.831409
0.806716
0.781989
0.757331
0.732836
0.708589
0.684667
0.661137
0.638061
0.615491
0.593471
0.572041
0.55123
0.531065
0.511564
0.492742
0.474608
0.457167
0.440419
0.424362
0.408989
0.394291
0.380257
0.366871
0.354118
0.341979
0.330434
0.319462
0.309041
0.299147
0.289757
0.280846
0.272391
0.264368
0.256751
0.24952
0.242651
0.236124
0.229918
0.224016
0.218399
0.213054
0.207966
0.203122
0.198513
0.194129
0.189962
0.186006
0.182256
0.178707
0.175355
0.172198
0.169231
0.166453
0.163861
0.161451
0.159219
0.157161
0.155273
0.153546
0.151976
0.150554
0.149273
0.148124
0.147099
0.146189
0.145386
0.144679
0.14406
0.143522
0.143055
0.142653
0.142306
0.14201
0.141757
0.141542
0.141359
0.141203
0.141072
0.14096
0.140866
0.140786
0.140719
0.140664
0.140623
0.140597
0.140591
0.140612
0.140672
0.140789
0.73745
0.318931
0.247196
0.223545
0.214523
0.211937
0.212837
0.215908
0.220483
0.226187
0.232803
0.240197
0.248289
0.257034
0.266409
0.276386
0.286964
0.298145
0.30993
0.322318
0.335306
0.348887
0.363049
0.377775
0.393047
0.408839
0.425125
0.441872
0.459049
0.476621
0.494553
0.512809
0.531355
0.550155
0.569179
0.588395
0.607776
0.627296
0.646932
0.666667
0.686483
0.706367
0.726311
0.746305
0.766345
0.786427
0.806547
0.826701
0.846881
0.867077
0.887245
0.907307
0.92721
0.946889
0.966276
0.985289
1.00384
1.02184
1.03917
1.05572
1.07138
1.08603
1.09953
1.11177
1.12262
1.13196
1.1397
1.14575
1.15004
1.1525
1.15308
1.15177
1.14854
1.14341
1.1364
1.12754
1.1169
1.10453
1.09054
1.075
1.05802
1.03971
1.0202
0.999612
0.978063
0.955686
0.932608
0.908955
0.884849
0.86041
0.835751
0.81098
0.786197
0.761496
0.736964
0.712681
0.688718
0.66514
0.642004
0.619361
0.597255
0.575722
0.554796
0.5345
0.514856
0.495879
0.47758
0.459966
0.443039
0.4268
0.411245
0.396365
0.382152
0.368594
0.355675
0.34338
0.331691
0.320586
0.310046
0.300048
0.290569
0.281585
0.273071
0.265005
0.257361
0.250116
0.243247
0.236732
0.230551
0.224682
0.21911
0.213815
0.208785
0.204004
0.199461
0.195146
0.191049
0.187164
0.183484
0.180003
0.176718
0.173623
0.170717
0.167994
0.165453
0.163089
0.160899
0.158879
0.157023
0.155325
0.153779
0.152378
0.151115
0.149981
0.148968
0.148067
0.14727
0.146569
0.145954
0.145417
0.144951
0.144548
0.1442
0.143902
0.143646
0.143427
0.14324
0.14308
0.142943
0.142826
0.142725
0.142639
0.142565
0.142502
0.142451
0.142414
0.142393
0.142395
0.142429
0.142511
0.687516
0.305028
0.237598
0.215197
0.206642
0.204235
0.205173
0.208193
0.212647
0.21817
0.224552
0.231667
0.239445
0.247848
0.25686
0.266476
0.276702
0.287549
0.299028
0.311151
0.323924
0.337351
0.35143
0.366156
0.381518
0.3975
0.414084
0.431246
0.448959
0.467195
0.485921
0.505104
0.52471
0.544705
0.565053
0.585721
0.606675
0.627883
0.649316
0.670944
0.692742
0.714687
0.736755
0.758927
0.781186
0.803514
0.825894
0.848309
0.870738
0.893158
0.915437
0.937485
0.959214
0.980527
1.00132
1.0215
1.04094
1.05952
1.07713
1.09364
1.10892
1.12286
1.13535
1.14627
1.15553
1.16306
1.16878
1.17265
1.17464
1.17473
1.17293
1.16924
1.1637
1.15636
1.14726
1.13647
1.12407
1.11013
1.09475
1.07803
1.06005
1.04093
1.02078
0.999695
0.9778
0.955202
0.932012
0.908338
0.884287
0.859962
0.835462
0.810881
0.786308
0.761828
0.737517
0.713449
0.689688
0.666294
0.643322
0.620818
0.598826
0.577381
0.556515
0.536254
0.516621
0.497631
0.479299
0.461633
0.444638
0.428318
0.412669
0.397689
0.383371
0.369704
0.356678
0.344278
0.332488
0.321291
0.310666
0.300593
0.29105
0.282015
0.273462
0.26537
0.257713
0.250468
0.243611
0.237119
0.230972
0.225148
0.219627
0.214392
0.209427
0.204717
0.200248
0.19601
0.191991
0.188184
0.184581
0.181176
0.177964
0.17494
0.172101
0.169441
0.166958
0.164648
0.162507
0.16053
0.158713
0.157049
0.155534
0.154159
0.152918
0.151803
0.150806
0.149918
0.149132
0.148438
0.14783
0.147298
0.146834
0.146433
0.146085
0.145786
0.145528
0.145307
0.145117
0.144954
0.144813
0.144692
0.144586
0.144495
0.144415
0.144346
0.144287
0.144241
0.144209
0.144196
0.14421
0.144268
0.636746
0.29312
0.22972
0.20856
0.200512
0.198308
0.199289
0.202253
0.206577
0.211915
0.218066
0.224914
0.232397
0.240487
0.249176
0.258474
0.268395
0.278962
0.290197
0.302121
0.314753
0.328109
0.342199
0.357028
0.372595
0.388897
0.405922
0.423656
0.442077
0.461164
0.480886
0.501214
0.522113
0.543547
0.565478
0.587866
0.610669
0.633849
0.657363
0.681171
0.705234
0.729513
0.753971
0.778573
0.803284
0.828071
0.852902
0.877742
0.902559
0.927257
0.951633
0.975567
0.998934
1.02161
1.04345
1.06433
1.08412
1.10267
1.11986
1.13556
1.14965
1.16203
1.17262
1.18133
1.18812
1.19294
1.1958
1.19669
1.19565
1.1927
1.1879
1.18132
1.17303
1.16311
1.15164
1.13871
1.12441
1.10883
1.09205
1.07418
1.05529
1.03548
1.01484
0.993465
0.971436
0.948848
0.925789
0.902348
0.87861
0.854662
0.830584
0.806456
0.782352
0.758346
0.734504
0.710891
0.687563
0.664577
0.641981
0.619821
0.598135
0.576961
0.556328
0.536265
0.516793
0.497931
0.479696
0.462098
0.445145
0.428843
0.413194
0.398196
0.383847
0.370139
0.357064
0.344612
0.332768
0.321518
0.310844
0.300728
0.291148
0.282085
0.273514
0.265413
0.257759
0.250528
0.243695
0.237238
0.231135
0.225364
0.219905
0.214738
0.209847
0.205215
0.200829
0.196675
0.192742
0.189021
0.185503
0.182182
0.179051
0.176105
0.17334
0.17075
0.168333
0.166084
0.163998
0.162071
0.1603
0.158677
0.157197
0.155854
0.15464
0.153549
0.152572
0.151701
0.150929
0.150247
0.149647
0.149122
0.148664
0.148265
0.14792
0.147622
0.147364
0.147142
0.14695
0.146785
0.146641
0.146516
0.146407
0.146311
0.146227
0.146153
0.146088
0.146035
0.145994
0.145971
0.145971
0.14601
0.578866
0.280793
0.22283
0.203377
0.19607
0.194207
0.195323
0.198297
0.202551
0.207766
0.213759
0.220428
0.227722
0.235625
0.24414
0.253286
0.26309
0.273585
0.284805
0.296783
0.30955
0.323133
0.337554
0.352829
0.36897
0.38598
0.403859
0.422598
0.442182
0.462592
0.4838
0.505775
0.528479
0.551872
0.575907
0.600534
0.6257
0.651352
0.677431
0.703879
0.730638
0.75765
0.784857
0.812203
0.839633
0.867094
0.894533
0.921899
0.949133
0.975898
1.00204
1.02739
1.0518
1.07512
1.09717
1.11781
1.1369
1.15429
1.16986
1.18351
1.19514
1.20469
1.21211
1.21739
1.22053
1.22156
1.22053
1.21752
1.21261
1.2059
1.19749
1.18751
1.17607
1.16326
1.14921
1.13401
1.11775
1.10052
1.08241
1.06349
1.04383
1.02351
1.00258
0.981122
0.959191
0.936852
0.914172
0.891214
0.868044
0.844723
0.821317
0.797887
0.774494
0.751197
0.728053
0.705116
0.682437
0.660065
0.638044
0.616415
0.595218
0.574485
0.554248
0.534534
0.515368
0.496769
0.478755
0.461341
0.444537
0.428352
0.412791
0.397857
0.38355
0.369867
0.356803
0.344351
0.332499
0.321237
0.310549
0.30042
0.290832
0.281764
0.273195
0.265105
0.257469
0.250265
0.24347
0.237059
0.231011
0.225304
0.219916
0.214827
0.210019
0.205475
0.201179
0.197119
0.19328
0.189654
0.18623
0.183001
0.17996
0.177101
0.174418
0.171907
0.169563
0.167381
0.165358
0.163489
0.161769
0.160193
0.158755
0.157449
0.156267
0.155204