/*--------------------------------*- C++ -*----------------------------------*\
  =========                 |
  \\      /  F ield         | OpenFOAM: The Open Source CFD Toolbox
   \\    /   O peration     | Website:  https://openfoam.org
    \\  /    A nd           | Version:  6
     \\/     M anipulation  |
\*---------------------------------------------------------------------------*/
FoamFile
{
    version     2.0;
    format      ascii;
    class       volScalarField;
    location    "0.21";
    object      k;
}
// * * * * * * * * * * * * * * * * * * * * * * * * * * * * * * * * * * * * * //

dimensions      [0 2 -2 0 0 0 0];

internalField   nonuniform List<scalar> 
12225
(
0.24644
0.158838
0.119005
0.0971979
0.0837143
0.0747267
0.0683409
0.0635282
0.0597208
0.0565975
0.0539675
0.0517096
0.0497428
0.0480098
0.0464679
0.0450857
0.0438379
0.0427734
0.339526
0.260132
0.208255
0.175288
0.153263
0.137671
0.125995
0.116824
0.109363
0.103141
0.0978529
0.093293
0.0893139
0.085807
0.0826914
0.0798991
0.0774094
0.0751525
0.347498
0.292336
0.24851
0.216195
0.192228
0.174046
0.159848
0.148439
0.139041
0.131147
0.124409
0.118582
0.113488
0.108994
0.104998
0.10142
0.0982141
0.0953555
0.35137
0.309033
0.271886
0.241924
0.218143
0.199186
0.183862
0.171262
0.160727
0.151789
0.144108
0.137434
0.13158
0.126402
0.121789
0.117656
0.113947
0.110655
0.353917
0.319265
0.2872
0.259824
0.237043
0.218187
0.202505
0.189336
0.178156
0.168565
0.160255
0.152989
0.146586
0.140903
0.135826
0.131269
0.127174
0.123541
0.355677
0.326031
0.29787
0.272919
0.251433
0.233126
0.217536
0.2042
0.192714
0.18275
0.174041
0.166375
0.159582
0.153527
0.148101
0.143217
0.138821
0.134918
0.356917
0.33071
0.305572
0.282766
0.262638
0.245095
0.229864
0.216625
0.205073
0.194945
0.186016
0.178102
0.17105
0.164734
0.159052
0.153924
0.149298
0.145183
0.357802
0.334027
0.311241
0.29028
0.271455
0.254764
0.240043
0.227072
0.215624
0.205489
0.196481
0.188442
0.181237
0.174754
0.168899
0.163599
0.158806
0.15453
0.358433
0.336404
0.315445
0.296042
0.278414
0.262583
0.248448
0.235852
0.224623
0.214596
0.205618
0.197553
0.190287
0.183717
0.17776
0.17235
0.167445
0.163057
0.358881
0.338106
0.31856
0.300448
0.283886
0.268879
0.255353
0.24319
0.232257
0.22242
0.213553
0.205542
0.198286
0.191697
0.1857
0.180236
0.175269
0.170811
0.359195
0.339315
0.320847
0.303787
0.288148
0.273899
0.26097
0.249264
0.23867
0.229078
0.220382
0.212484
0.205298
0.198745
0.192759
0.187288
0.182302
0.177813
0.359394
0.340091
0.322364
0.306073
0.291147
0.277518
0.265103
0.253812
0.243546
0.234207
0.225704
0.21795
0.210868
0.204387
0.19845
0.19301
0.18804
0.183554
0.359535
0.340651
0.323487
0.307814
0.293487
0.2804
0.268456
0.257559
0.247617
0.238541
0.230247
0.222658
0.215703
0.209321
0.203458
0.198072
0.193142
0.188679
0.359643
0.341084
0.324385
0.309247
0.295468
0.282902
0.271429
0.260945
0.251356
0.242576
0.234529
0.227143
0.220353
0.214105
0.20835
0.203051
0.198188
0.193772
0.359719
0.341392
0.325041
0.31033
0.297014
0.28491
0.273875
0.263791
0.254559
0.246092
0.238314
0.231159
0.224565
0.218482
0.212866
0.207683
0.202915
0.198573
0.359767
0.341588
0.325471
0.311064
0.298097
0.286362
0.275694
0.265962
0.257057
0.248888
0.241378
0.234458
0.228072
0.22217
0.216711
0.211663
0.207011
0.202761
0.359793
0.341696
0.325715
0.311494
0.298752
0.287268
0.276864
0.267397
0.258748
0.250821
0.243535
0.236822
0.230622
0.224887
0.219577
0.214661
0.210123
0.205969
0.359804
0.341741
0.325817
0.311679
0.299043
0.287683
0.277414
0.268088
0.259581
0.251794
0.244641
0.238053
0.231971
0.226344
0.221132
0.216304
0.211845
0.207757
0.359801
0.341729
0.32579
0.311631
0.29897
0.28758
0.27728
0.267923
0.259386
0.251571
0.244393
0.237782
0.231679
0.226035
0.220808
0.215969
0.211498
0.207401
0.359775
0.341622
0.325547
0.3112
0.298308
0.286657
0.27608
0.266441
0.257629
0.24955
0.242126
0.235288
0.22898
0.22315
0.217757
0.212771
0.208171
0.203963
0.359715
0.341376
0.32501
0.310283
0.296954
0.284842
0.273804
0.263722
0.254497
0.24604
0.238277
0.231139
0.224565
0.218505
0.212912
0.207753
0.203006
0.198676
0.359586
0.340852
0.323905
0.308483
0.294416
0.281579
0.269863
0.259169
0.249404
0.240482
0.232321
0.224846
0.217992
0.211698
0.205912
0.200594
0.195719
0.191291
0.359329
0.339835
0.321861
0.305316
0.290154
0.276321
0.26374
0.252318
0.241954
0.232546
0.223997
0.216218
0.209127
0.202652
0.196731
0.191314
0.18637
0.181901
0.35886
0.338009
0.318374
0.30018
0.283551
0.268492
0.254932
0.24275
0.231812
0.221981
0.21313
0.205143
0.197919
0.191367
0.185412
0.179994
0.175071
0.170644
0.358051
0.334911
0.312756
0.292315
0.273875
0.257449
0.242905
0.230047
0.218667
0.20857
0.199583
0.191554
0.184354
0.177875
0.172024
0.166729
0.161941
0.157657
0.356707
0.329803
0.303977
0.280639
0.260138
0.242359
0.226996
0.213701
0.202145
0.192049
0.183178
0.175339
0.168374
0.162154
0.156574
0.151552
0.147029
0.142998
0.354518
0.321336
0.290244
0.263374
0.240787
0.221951
0.206201
0.192928
0.181637
0.171939
0.163534
0.156187
0.149717
0.143981
0.138865
0.13428
0.130165
0.126509
0.350901
0.3066
0.26792
0.237106
0.212945
0.193894
0.178636
0.166186
0.155841
0.147108
0.139636
0.133168
0.127514
0.122529
0.118103
0.11415
0.110607
0.107461
0.342446
0.275934
0.227262
0.193528
0.169821
0.152602
0.139577
0.129331
0.121012
0.114093
0.108229
0.103187
0.0988
0.094945
0.0915302
0.0884851
0.0857568
0.0833237
0.259302
0.173114
0.131362
0.107433
0.09215
0.0817521
0.0743219
0.0687606
0.0644196
0.0609107
0.0579947
0.0555191
0.0533825
0.0515149
0.049866
0.0483983
0.0470835
0.0459041
0.00118291
0.00207113
0.00241426
0.0025112
0.0026648
0.00286418
0.00310338
0.00338833
0.00375313
0.00412646
0.00451719
0.00493312
0.00537375
0.00583553
0.00631345
0.00680221
0.00729686
0.00779309
0.00828731
0.00877665
0.00925885
0.00973224
0.0101956
0.0106482
0.0110896
0.0115196
0.0119384
0.0123462
0.0127435
0.013131
0.0135091
0.0138786
0.0142403
0.0145947
0.0149425
0.0152845
0.0156212
0.015953
0.0162806
0.0166044
0.0169247
0.0172421
0.0175567
0.0178691
0.0181797
0.018489
0.0187979
0.0191073
0.0194189
0.0197347
0.0200581
0.0203809
0.0206992
0.021013
0.0213218
0.0216247
0.0219209
0.0222092
0.0224884
0.0227571
0.0230139
0.0232574
0.0234859
0.0236978
0.0238916
0.0240655
0.0242181
0.0243476
0.0244527
0.0245319
0.024584
0.0246079
0.0246027
0.0245676
0.0245021
0.024406
0.0242793
0.0241222
0.0239352
0.0237191
0.0234748
0.0232035
0.0229067
0.0225858
0.0222425
0.0218789
0.0214971
0.0210997
0.0206915
0.0202824
0.019897
0.0195737
0.0193018
0.0190352
0.0187657
0.0184927
0.0182169
0.017939
0.0176603
0.0173815
0.0171036
0.0168275
0.0165538
0.0162832
0.0160163
0.0157535
0.0154952
0.0152417
0.0149931
0.0147497
0.0145115
0.0142785
0.0140507
0.0138278
0.0136098
0.0133964
0.0131873
0.0129824
0.0127812
0.0125835
0.012389
0.0121972
0.012008
0.011821
0.0116359
0.0114525
0.0112707
0.0110903
0.0109113
0.0107335
0.0105572
0.0103824
0.0102093
0.0100382
0.0098693
0.00970287
0.00953911
0.00937809
0.00921991
0.00906521
0.0089162
0.00877637
0.00864527
0.00852266
0.00840839
0.00830229
0.0082042
0.00811393
0.00803125
0.00795591
0.00788763
0.00782607
0.00777088
0.00772168
0.00767805
0.00763957
0.00760581
0.00757635
0.00755074
0.00752858
0.00750945
0.00749297
0.00747877
0.00746649
0.0074558
0.00744636
0.00743787
0.00742999
0.0074224
0.00741474
0.00740658
0.00739743
0.00738661
0.00737318
0.00735577
0.00733211
0.00729842
0.0072471
0.00716632
0.00702932
0.00234873
0.00461436
0.00589408
0.00684779
0.0075473
0.00821637
0.00893737
0.00968958
0.0104216
0.0111042
0.0117456
0.0123631
0.0129721
0.0135833
0.014204
0.0148387
0.0154898
0.016158
0.0168427
0.0175422
0.0182538
0.0189742
0.0196999
0.0204273
0.0211531
0.0218744
0.0225887
0.0232942
0.0239895
0.024674
0.0253473
0.0260095
0.0266611
0.0273028
0.0279354
0.0285599
0.0291774
0.0297889
0.0303956
0.0309984
0.0315983
0.0321962
0.0327928
0.0333889
0.033985
0.0345814
0.0351785
0.0357764
0.036375
0.0369739
0.0375727
0.0381695
0.0387669
0.0393648
0.0399623
0.0405581
0.0411508
0.0417384
0.0423191
0.0428903
0.0434496
0.0439941
0.0445208
0.0450265
0.0455079
0.0459613
0.0463833
0.0467703
0.0471188
0.0474252
0.0476862
0.047899
0.0480605
0.0481685
0.048221
0.0482163
0.0481534
0.0480318
0.0478514
0.0476127
0.0473168
0.0469651
0.0465598
0.0461032
0.0455983
0.0450483
0.0444571
0.043829
0.043169
0.0424831
0.0417797
0.0410834
0.0403834
0.0396747
0.0389578
0.0382349
0.0375085
0.0367811
0.0360552
0.0353328
0.0346161
0.0339066
0.0332061
0.0325157
0.0318367
0.0311699
0.0305161
0.0298758
0.0292494
0.0286372
0.0280393
0.0274556
0.026886
0.0263301
0.0257878
0.0252585
0.0247417
0.0242369
0.0237436
0.0232612
0.022789
0.0223265
0.0218731
0.0214284
0.0209919
0.0205632
0.0201421
0.0197283
0.0193218
0.0189225
0.0185307
0.0181465
0.0177703
0.0174025
0.0170436
0.0166942
0.0163549
0.0160264
0.0157092
0.0154041
0.0151114
0.0148314
0.0145683
0.014324
0.0140979
0.0138892
0.0136974
0.0135218
0.0133619
0.0132169
0.0130863
0.0129691
0.0128646
0.012772
0.0126904
0.0126189
0.0125567
0.0125029
0.0124566
0.0124169
0.0123831
0.0123544
0.0123301
0.0123095
0.0122919
0.0122769
0.0122637
0.0122519
0.012241
0.0122305
0.0122197
0.012208
0.0121948
0.0121789
0.0121591
0.0121332
0.0120975
0.0120496
0.0119699
0.0119495
0.00371613
0.00743554
0.00916978
0.0102355
0.0110708
0.0118492
0.0126342
0.0134217
0.0141881
0.0149242
0.0156407
0.0163565
0.017089
0.0178505
0.0186477
0.0194827
0.0203539
0.0212568
0.0221854
0.0231322
0.02409
0.0250513
0.0260096
0.0269591
0.0278952
0.0288143
0.0297139
0.0305925
0.0314494
0.0322844
0.0330982
0.0338916
0.0346659
0.0354224
0.0361627
0.0368885
0.0376015
0.0383033
0.0389956
0.0396801
0.0403583
0.0410318
0.041702
0.0423703
0.0430379
0.043706
0.0443756
0.0450474
0.0457222
0.0464005
0.0470827
0.0477688
0.0484584
0.049151
0.0498454
0.0505404
0.0512345
0.0519257
0.0526118
0.0532901
0.0539578
0.0546113
0.0552473
0.0558616
0.0564501
0.0570085
0.0575322
0.0580165
0.0584568
0.0588485
0.0591872
0.0594687
0.0596893
0.0598455
0.0599344
0.0599536
0.0599014
0.0597768
0.0595793
0.0593093
0.0589677
0.0585562
0.0580772
0.0575335
0.0569285
0.0562663
0.0555512
0.0547881
0.0539824
0.0531396
0.0522814
0.0514106
0.0505254
0.0496268
0.0487171
0.0477996
0.0468776
0.0459544
0.045033
0.0441164
0.043207
0.0423071
0.0414187
0.0405435
0.039683
0.0388384
0.0380106
0.0372004
0.0364083
0.0356346
0.0348796
0.0341431
0.0334251
0.0327252
0.032043
0.0313781
0.0307298
0.0300975
0.0294805
0.0288781
0.0282895
0.027714
0.0271509
0.0265996
0.0260594
0.0255299
0.0250107
0.0245013
0.0240018
0.0235119
0.0230317
0.0225615
0.0221015
0.0216522
0.021214
0.0207877
0.0203738
0.0199731
0.0195864
0.0192143
0.0188576
0.018517
0.0181931
0.0178883
0.0176042
0.0173407
0.0170973
0.0168737
0.0166693
0.0164836
0.0163157
0.0161649
0.0160302
0.0159106
0.015805
0.0157125
0.0156318
0.015562
0.0155018
0.0154503
0.0154064
0.0153691
0.0153375
0.0153107
0.015288
0.0152686
0.0152517
0.0152367
0.015223
0.0152099
0.0151967
0.0151828
0.0151673
0.0151491
0.0151268
0.0150984
0.0150603
0.0150088
0.0149301
0.0148514
0.00487132
0.00973351
0.0117498
0.012967
0.0138589
0.0146287
0.0153693
0.0161119
0.0168626
0.0176261
0.0184123
0.0192329
0.0200973
0.0210098
0.0219701
0.0229739
0.0240142
0.0250829
0.0261708
0.0272693
0.0283702
0.0294662
0.0305514
0.0316207
0.0326704
0.0336977
0.0347008
0.0356786
0.0366309
0.0375577
0.0384598
0.039338
0.0401936
0.0410281
0.0418428
0.0426396
0.0434202
0.0441862
0.0449396
0.0456821
0.0464155
0.0471416
0.0478622
0.0485788
0.0492932
0.0500066
0.0507205
0.0514361
0.0521542
0.0528759
0.0536016
0.0543326
0.0550685
0.0558087
0.0565526
0.0572991
0.0580468
0.0587939
0.0595381
0.0602767
0.0610066
0.0617243
0.0624256
0.0631063
0.0637617
0.0643867
0.064976
0.0655243
0.0660261
0.0664759
0.0668685
0.0671989
0.0674625
0.0676549
0.0677725
0.0678125
0.0677724
0.0676507
0.0674467
0.0671606
0.066793
0.0663458
0.0658214
0.0652228
0.0645538
0.0638187
0.0630224
0.0621696
0.0612659
0.0603293
0.0593665
0.0583802
0.0573731
0.0563486
0.0553105
0.0542628
0.0532096
0.0521547
0.0511018
0.050054
0.0490144
0.0479857
0.0469702
0.0459699
0.0449865
0.0440215
0.0430761
0.0421512
0.0412473
0.040365
0.0395045
0.0386659
0.0378489
0.0370534
0.0362789
0.0355248
0.0347905
0.0340753
0.0333784
0.0326991
0.0320363
0.0313894
0.0307575
0.0301399
0.0295358
0.0289445
0.0283657
0.0277987
0.0272434
0.0266996
0.0261672
0.0256463
0.0251371
0.0246401
0.0241557
0.0236846
0.0232272
0.0227845
0.0223571
0.0219459
0.0215516
0.021175
0.0208168
0.0204777
0.02016
0.019864
0.0195896
0.0193366
0.0191046
0.018893
0.0187012
0.0185282
0.0183732
0.0182351
0.0181129
0.0180053
0.0179112
0.0178294
0.0177587
0.0176979
0.0176459
0.0176015
0.0175637
0.0175317
0.0175044
0.0174809
0.0174606
0.0174427
0.0174264
0.0174111
0.017396
0.0173805
0.0173637
0.0173447
0.0173221
0.0172943
0.0172588
0.0172125
0.0171483
0.0170783
0.0057196
0.0112301
0.0135667
0.0149531
0.0159203
0.0167043
0.0174287
0.0181549
0.0189116
0.0197132
0.0205679
0.0214801
0.0224506
0.0234762
0.024551
0.0256669
0.0268147
0.0279854
0.02917
0.0303603
0.0315492
0.0327306
0.0338992
0.035051
0.0361827
0.0372918
0.0383767
0.0394361
0.0404696
0.0414769
0.0424583
0.0434144
0.0443459
0.0452538
0.0461394
0.0470041
0.0478494
0.0486769
0.0494882
0.0502853
0.0510698
0.0518437
0.0526087
0.0533667
0.0541195
0.0548688
0.0556162
0.0563632
0.057111
0.057861
0.058614
0.0593721
0.0601352
0.0609035
0.0616765
0.0624535
0.0632334
0.0640145
0.0647948
0.0655716
0.0663416
0.0671013
0.0678465
0.0685724
0.069274
0.0699457
0.0705819
0.0711764
0.0717232
0.0722162
0.0726493
0.073017
0.0733137
0.0735347
0.0736757
0.0737331
0.0737042
0.073587
0.0733804
0.0730844
0.0726997
0.0722278
0.0716713
0.0710333
0.0703178
0.0695292
0.068673
0.0677531
0.0667876
0.0657818
0.064741
0.0636702
0.0625738
0.0614567
0.0603235
0.059179
0.0580278
0.0568741
0.0557221
0.0545753
0.0534372
0.0523107
0.0511985
0.0501029
0.0490259
0.0479691
0.0469338
0.0459213
0.0449322
0.0439671
0.0430264
0.0421101
0.0412183
0.0403506
0.0395066
0.0386858
0.0378875
0.037111
0.0363554
0.0356199
0.0349035
0.0342053
0.0335244
0.03286
0.0322111
0.0315771
0.0309573
0.0303512
0.0297583
0.0291783
0.0286112
0.0280569
0.0275155
0.0269874
0.0264729
0.0259725
0.025487
0.025017
0.0245632
0.0241263
0.0237073
0.0233069
0.0229257
0.0225645
0.0222244
0.0219067
0.0216113
0.0213381
0.0210868
0.0208569
0.0206479
0.0204589
0.020289
0.0201372
0.0200023
0.0198833
0.0197788
0.0196876
0.0196085
0.0195402
0.0194815
0.0194312
0.0193883
0.0193517
0.0193204
0.0192934
0.0192701
0.0192494
0.0192308
0.0192135
0.0191967
0.0191797
0.0191617
0.0191418
0.0191188
0.0190915
0.0190578
0.0190155
0.018961
0.0189032
0.00625071
0.0121281
0.0147012
0.0162442
0.0173144
0.0181612
0.018924
0.0196813
0.0204751
0.0213262
0.0222429
0.0232257
0.0242707
0.0253711
0.0265184
0.0277034
0.0289172
0.0301509
0.0313968
0.0326478
0.0338978
0.0351415
0.0363743
0.0375926
0.0387931
0.0399735
0.0411317
0.0422662
0.0433759
0.0444601
0.0455184
0.0465508
0.0475574
0.0485389
0.0494958
0.0504292
0.0513401
0.05223
0.0531002
0.0539524
0.0547882
0.0556096
0.0564182
0.0572161
0.0580051
0.0587871
0.059564
0.0603375
0.0611093
0.0618809
0.0626537
0.0634301
0.0642107
0.0649962
0.0657865
0.0665815
0.0673804
0.0681816
0.0689835
0.0697834
0.0705783
0.0713646
0.0721378
0.0728933
0.0736255
0.0743288
0.074997
0.0756235
0.0762019
0.0767254
0.0771876
0.0775821
0.077903
0.0781449
0.0783031
0.0783736
0.0783531
0.0782394
0.0780311
0.0777279
0.0773305
0.0768402
0.0762597
0.075592
0.0748412
0.0740115
0.0731116
0.0721519
0.0711395
0.0700805
0.0689811
0.0678469
0.0666837
0.0654968
0.0642917
0.0630735
0.0618473
0.0606178
0.0593893
0.0581659
0.0569511
0.0557484
0.0545606
0.0533903
0.0522397
0.0511105
0.0500045
0.0489229
0.0478665
0.0468361
0.0458322
0.0448549
0.0439042
0.04298
0.0420819
0.0412093
0.0403616
0.039538
0.0387377
0.0379598
0.0372032
0.0364669
0.0357501
0.0350516
0.0343707
0.0337063
0.0330579
0.0324246
0.031806
0.0312016
0.0306113
0.0300348
0.0294722
0.0289238
0.0283897
0.0278705
0.0273667
0.026879
0.026408
0.0259545
0.0255192
0.0251029
0.0247064
0.0243303
0.0239752
0.0236426
0.0233326
0.0230452
0.0227801
0.0225371
0.0223155
0.0221145
0.0219334
0.0217711
0.0216266
0.0214986
0.0213858
0.0212872
0.0212012
0.0211268
0.0210626
0.0210074
0.0209601
0.0209195
0.0208847
0.0208548
0.0208287
0.0208057
0.0207849
0.0207657
0.0207473
0.0207289
0.0207098
0.0206891
0.0206658
0.0206386
0.0206061
0.0205665
0.0205182
0.0204691
0.00656906
0.012574
0.0152968
0.0169691
0.0181524
0.0190933
0.0199326
0.0207541
0.0216058
0.0225122
0.0234829
0.0245182
0.0256132
0.0267607
0.0279522
0.0291791
0.0304332
0.031707
0.0329939
0.0342877
0.0355833
0.0368759
0.0381614
0.0394363
0.0406973
0.0419417
0.0431672
0.0443717
0.0455536
0.0467115
0.0478445
0.0489517
0.0500329
0.0510878
0.0521166
0.0531198
0.0540979
0.055052
0.0559832
0.0568927
0.057782
0.0586529
0.0595071
0.0603463
0.0611727
0.0619882
0.0627947
0.0635942
0.0643887
0.06518
0.0659697
0.0667604
0.0675535
0.06835
0.0691506
0.0699555
0.0707641
0.0715755
0.0723881
0.0731997
0.0740073
0.0748073
0.0755954
0.0763669
0.0771161
0.0778372
0.0785237
0.0791689
0.0797659
0.0803076
0.0807871
0.0811977
0.0815331
0.0817875
0.0819558
0.0820335
0.0820172
0.0819043
0.0816932
0.0813835
0.0809756
0.0804708
0.0798717
0.0791815
0.0784039
0.0775498
0.0766245
0.075635
0.0745881
0.0734904
0.0723483
0.0711681
0.0699559
0.0687178
0.0674594
0.0661863
0.064904
0.0636172
0.0623307
0.0610488
0.0597754
0.0585139
0.0572676
0.0560392
0.0548311
0.0536454
0.0524839
0.0513479
0.0502386
0.0491567
0.048103
0.0470776
0.0460808
0.0451123
0.0441719
0.0432591
0.0423732
0.0415136
0.0406793
0.0398694
0.0390828
0.0383186
0.0375757
0.036853
0.0361495
0.0354643
0.0347964
0.0341451
0.0335098
0.0328898
0.0322849
0.0316948
0.0311193
0.0305586
0.0300129
0.0294826
0.028968
0.0284698
0.0279886
0.0275251
0.02708
0.0266541
0.026248
0.0258625
0.0254979
0.0251556
0.0248358
0.0245387
0.0242641
0.0240117
0.023781
0.0235714
0.0233819
0.0232118
0.0230598
0.0229248
0.0228056
0.022701
0.0226096
0.0225302
0.0224614
0.0224021
0.0223511
0.0223072
0.0222695
0.0222369
0.0222084
0.0221833
0.0221607
0.0221399
0.02212
0.0221004
0.0220803
0.0220588
0.0220351
0.0220079
0.0219762
0.0219386
0.0218945
0.0218515
0.00672542
0.012699
0.0155017
0.0172712
0.0185599
0.0196027
0.0205332
0.0214327
0.02235
0.0233112
0.0243278
0.0254017
0.0265296
0.0277056
0.0289226
0.0301734
0.0314513
0.0327502
0.0340643
0.0353887
0.0367186
0.0380499
0.0393787
0.0407016
0.0420152
0.0433165
0.0446027
0.0458715
0.0471206
0.048348
0.049552
0.0507314
0.0518851
0.0530123
0.0541127
0.055186
0.0562324
0.0572524
0.0582466
0.059216
0.0601619
0.0610855
0.0619885
0.0628726
0.0637397
0.0645917
0.0654307
0.0662587
0.0670777
0.0678898
0.0686968
0.0695012
0.070305
0.0711099
0.0719169
0.0727265
0.0735389
0.0743532
0.0751683
0.0759822
0.0767922
0.0775949
0.0783861
0.079161
0.0799143
0.0806398
0.0813311
0.0819814
0.0825835
0.0831304
0.0836149
0.0840299
0.084369
0.0846261
0.0847959
0.0848737
0.084856
0.0847398
0.0845234
0.0842062
0.0837888
0.0832718
0.0826584
0.0819551
0.0811659
0.0802972
0.079355
0.0783458
0.0772764
0.0761532
0.0749829
0.0737721
0.0725271
0.0712541
0.0699591
0.068648
0.0673262
0.0659989
0.064671
0.0633468
0.0620305
0.0607259
0.0594362
0.0581645
0.0569133
0.0556848
0.0544811
0.0533036
0.0521538
0.0510325
0.0499404
0.0488782
0.0478458
0.0468434
0.0458708
0.0449274
0.0440128
0.0431262
0.0422668
0.0414336
0.0406256
0.0398417
0.0390808
0.0383418
0.0376235
0.036925
0.0362453
0.0355834
0.0349386
0.0343102
0.0336977
0.0331008
0.0325192
0.0319529
0.0314021
0.0308668
0.0303476
0.0298448
0.0293591
0.0288911
0.0284415
0.0280109
0.0276001
0.0272097
0.0268401
0.0264922
0.0261667
0.0258637
0.025583
0.0253245
0.0250877
0.024872
0.0246767
0.0245008
0.0243434
0.0242032
0.0240791
0.0239699
0.0238742
0.0237908
0.0237184
0.0236557
0.0236017
0.023555
0.0235148
0.0234799
0.0234495
0.0234226
0.0233984
0.0233761
0.023355
0.0233343
0.0233133
0.0232912
0.0232671
0.0232401
0.023209
0.023173
0.0231321
0.0230935
0.0067591
0.0126043
0.015437
0.0172734
0.0186495
0.0197854
0.0208039
0.02178
0.0227601
0.0237706
0.0248246
0.0259262
0.0270745
0.0282658
0.0294951
0.0307572
0.0320468
0.0333592
0.0346897
0.036034
0.0373883
0.0387487
0.0401115
0.0414734
0.0428309
0.0441808
0.04552
0.0468457
0.0481552
0.049446
0.050716
0.0519631
0.0531857
0.0543826
0.0555527
0.0566953
0.05781
0.0588968
0.0599558
0.0609876
0.0619931
0.0629731
0.0639291
0.0648625
0.0657749
0.0666682
0.0675442
0.068405
0.0692526
0.070089
0.0709161
0.0717363
0.072552
0.0733653
0.0741775
0.0749897
0.075802
0.0766144
0.0774258
0.0782345
0.0790381
0.0798336
0.0806169
0.0813834
0.0821278
0.0828443
0.0835265
0.0841676
0.0847608
0.0852989
0.0857747
0.0861812
0.0865118
0.0867606
0.0869221
0.0869916
0.0869654
0.0868408
0.0866157
0.0862885
0.0858625
0.0853386
0.0847199
0.0840107
0.0832157
0.0823402
0.0813902
0.0803717
0.0792914
0.0781556
0.076971
0.0757441
0.0744814
0.073189
0.0718733
0.0705399
0.0691944
0.0678422
0.0664883
0.065137
0.0637929
0.0624595
0.0611406
0.0598391
0.058558
0.0572995
0.0560658
0.0548587
0.0536796
0.0525296
0.0514097
0.0503204
0.0492622
0.048235
0.0472389
0.0462735
0.0453383
0.0444326
0.0435557
0.0427067
0.0418844
0.0410878
0.0403158
0.0395672
0.0388409
0.0381356
0.0374503
0.0367841
0.0361359
0.0355051
0.034891
0.0342931
0.0337111
0.0331448
0.0325942
0.0320594
0.0315406
0.0310384
0.030553
0.0300853
0.0296356
0.0292047
0.0287933
0.0284019
0.028031
0.0276814
0.0273536
0.0270478
0.0267641
0.0265023
0.026262
0.0260427
0.0258436
0.025664
0.0255028
0.0253591
0.0252315
0.0251188
0.0250199
0.0249335
0.0248583
0.024793
0.0247365
0.0246877
0.0246454
0.0246087
0.0245765
0.0245481
0.0245226
0.0244991
0.024477
0.0244554
0.0244337
0.0244111
0.0243868
0.0243599
0.0243295
0.024295
0.0242567
0.0242215
0.00669967
0.0123613
0.0151909
0.0170691
0.0185116
0.0197239
0.0208173
0.0218597
0.0228936
0.0239447
0.025027
0.0261468
0.0273055
0.028502
0.0297335
0.0309966
0.0322879
0.0336036
0.0349403
0.0362946
0.0376631
0.0390424
0.0404291
0.0418198
0.0432112
0.0445999
0.0459826
0.0473563
0.0487178
0.0500642
0.051393
0.0527017
0.0539881
0.0552504
0.056487
0.0576968
0.0588787
0.0600323
0.0611571
0.0622533
0.0633212
0.0643614
0.0653747
0.0663622
0.0673254
0.0682656
0.0691845
0.070084
0.0709658
0.0718317
0.0726838
0.073524
0.0743549
0.0751788
0.0759974
0.0768118
0.0776227
0.07843
0.079233
0.0800303
0.08082
0.0815991
0.082364
0.0831103
0.0838331
0.0845266
0.0851851
0.085802
0.0863709
0.086885
0.0873374
0.0877212
0.0880299
0.0882579
0.0884
0.0884518
0.0884092
0.0882701
0.0880331
0.0876979
0.0872655
0.0867377
0.0861171
0.0854074
0.0846129
0.0837386
0.0827899
0.0817727
0.0806931
0.0795574
0.078372
0.0771432
0.0758774
0.0745807
0.0732593
0.0719188
0.070565
0.069203
0.0678378
0.0664741
0.0651162
0.063768
0.0624332
0.061115
0.0598163
0.0585398
0.0572876
0.0560618
0.0548639
0.0536953
0.0525571
0.05145
0.0503744
0.0493308
0.0483192
0.0473393
0.0463907
0.045473
0.0445854
0.0437269
0.0428967
0.0420936
0.0413164
0.040564
0.0398352
0.0391286
0.0384433
0.037778
0.0371318
0.0365038
0.0358932
0.0352993
0.0347218
0.0341603
0.0336146
0.0330849
0.0325711
0.0320737
0.031593
0.0311295
0.0306838
0.0302565
0.0298481
0.0294592
0.0290904
0.0287421
0.0284151
0.0281095
0.0278255
0.0275629
0.0273215
0.0271007
0.0268999
0.0267183
0.0265551
0.0264091
0.0262793
0.0261645
0.0260634
0.0259748
0.0258976
0.0258303
0.025772
0.0257215
0.0256776
0.0256394
0.0256059
0.0255763
0.0255496
0.0255252
0.0255023
0.02548
0.0254578
0.0254349
0.0254105
0.0253838
0.0253542
0.0253211
0.0252852
0.025253
0.0065681
0.0120189
0.0148254
0.0167266
0.0182162
0.0194866
0.0206387
0.0217334
0.0228094
0.0238909
0.0249924
0.0261218
0.0272826
0.0284758
0.0297008
0.030956
0.0322394
0.0335488
0.0348817
0.0362355
0.0376073
0.0389944
0.0403936
0.0418018
0.0432158
0.0446321
0.0460474
0.0474585
0.0488619
0.0502547
0.0516338
0.0529965
0.05434
0.0556623
0.0569611
0.0582348
0.059482
0.0607015
0.0618925
0.0630545
0.0641873
0.0652911
0.0663661
0.067413
0.0684325
0.0694259
0.0703943
0.0713391
0.0722617
0.0731638
0.0740469
0.0749127
0.0757637
0.0766022
0.0774299
0.0782479
0.079057
0.0798573
0.0806483
0.0814289
0.0821974
0.0829513
0.0836873
0.0844016
0.0850892
0.0857453
0.0863644
0.0869409
0.087469
0.0879425
0.0883557
0.0887016
0.0889736
0.0891673
0.0892783
0.0893026
0.089237
0.0890793
0.0888282
0.0884834
0.0880454
0.0875157
0.0868968
0.0861918
0.0854045
0.0845394
0.0836015
0.082596
0.0815288
0.0804057
0.0792327
0.0780159
0.0767614
0.075475
0.0741626
0.0728299
0.0714823
0.070125
0.0687629
0.0674008
0.0660428
0.064693
0.0633551
0.0620325
0.0607282
0.059445
0.0581852
0.056951
0.0557442
0.0545663
0.0534186
0.052302
0.0512172
0.0501647
0.0491447
0.0481571
0.0472018
0.0462782
0.0453858
0.0445236
0.0436909
0.0428866
0.0421094
0.0413582
0.0406318
0.0399288
0.0392481
0.0385884
0.0379487
0.0373279
0.0367251
0.0361397
0.0355709
0.0350184
0.0344818
0.0339611
0.0334563
0.0329676
0.0324953
0.0320398
0.0316015
0.0311811
0.030779
0.0303959
0.0300321
0.0296881
0.0293647
0.0290619
0.02878
0.028519
0.0282785
0.0280582
0.0278575
0.0276757
0.0275118
0.0273651
0.0272343
0.0271183
0.027016
0.0269262
0.0268476
0.0267791
0.0267195
0.0266677
0.0266227
0.0265834
0.0265489
0.0265184
0.0264909
0.0264658
0.0264422
0.0264195
0.0263969
0.0263738
0.0263495
0.0263233
0.0262946
0.026263
0.0262293
0.0261997
0.00637827
0.0116104
0.0143835
0.0162958
0.0178177
0.0191302
0.0203255
0.0214589
0.0225653
0.0236672
0.0247793
0.0259105
0.027066
0.0282486
0.0294593
0.0306984
0.031965
0.0332584
0.0345771
0.0359194
0.0372832
0.0386662
0.0400658
0.0414791
0.0429032
0.0443349
0.0457709
0.0472078
0.0486424
0.0500713
0.0514913
0.0528995
0.0542929
0.0556688
0.0570248
0.0583587
0.0596686
0.0609528
0.0622099
0.0634389
0.064639
0.0658097
0.0669507
0.068062
0.0691438
0.0701967
0.0712213
0.0722184
0.0731889
0.0741341
0.0750548
0.0759525
0.0768292
0.0776868
0.0785267
0.0793502
0.0801576
0.0809493
0.0817247
0.0824831
0.0832227
0.0839418
0.0846378
0.0853079
0.085946
0.0865487
0.0871117
0.0876303
0.0880998
0.088515
0.0888707
0.0891618
0.0893833
0.0895308
0.0896005
0.0895891
0.0894938
0.0893125
0.0890442
0.0886881
0.0882449
0.0877156
0.0871021
0.086407
0.0856337
0.0847859
0.0838681
0.0828849
0.0818416
0.0807433
0.0795957
0.0784043
0.0771747
0.0759126
0.0746234
0.0733126
0.0719853
0.0706466
0.0693014
0.0679541
0.066609
0.0652702
0.0639414
0.0626261
0.0613274
0.0600481
0.0587909
0.0575581
0.0563515
0.055173
0.0540241
0.0529057
0.051819
0.0507645
0.0497427
0.0487536
0.0477973
0.0468733
0.0459813
0.0451206
0.0442902
0.0434892
0.0427165
0.0419709
0.0412511
0.0405558
0.0398837
0.0392336
0.0386043
0.0379946
0.0374035
0.0368301
0.0362738
0.0357339
0.03521
0.0347019
0.0342096
0.033733
0.0332724
0.032828
0.0324004
0.03199
0.0315972
0.0312225
0.0308665
0.0305295
0.0302121
0.0299145
0.029637
0.0293796
0.0291421
0.0289241
0.0287252
0.0285447
0.0283817
0.0282354
0.0281048
0.0279887
0.0278861
0.0277958
0.0277167
0.0276475
0.0275872
0.0275347
0.027489
0.027449
0.0274138
0.0273826
0.0273546
0.0273289
0.027305
0.027282
0.0272593
0.0272362
0.0272122
0.0271866
0.0271588
0.0271288
0.0270974
0.0270701
0.00613628
0.0111568
0.0138952
0.0158134
0.0173587
0.0187019
0.0199287
0.0210894
0.0222161
0.02333
0.0244452
0.0255714
0.0267151
0.0278807
0.0290711
0.0302864
0.0315277
0.0327956
0.0340897
0.0354095
0.0367536
0.0381204
0.0395079
0.0409139
0.0423356
0.0437702
0.0452148
0.046666
0.0481207
0.0495755
0.0510273
0.0524727
0.0539087
0.0553322
0.0567406
0.0581311
0.0595013
0.0608491
0.0621724
0.0634697
0.0647394
0.0659802
0.0671914
0.068372
0.0695217
0.0706402
0.0717274
0.0727834
0.0738085
0.0748033
0.0757677
0.0767029
0.0776101
0.0784906
0.0793453
0.080175
0.0809799
0.0817599
0.0825148
0.0832437
0.0839453
0.0846181
0.0852601
0.0858687
0.0864407
0.0869732
0.0874629
0.0879065
0.0883003
0.0886407
0.0889238
0.0891459
0.0893033
0.0893927
0.089411
0.0893555
0.0892238
0.0890143
0.0887257
0.0883575
0.0879097
0.087383
0.0867789
0.0860993
0.0853467
0.0845243
0.0836357
0.082685
0.0816764
0.0806146
0.0795045
0.0783511
0.0771594
0.0759346
0.0746818
0.073406
0.0721121
0.0708049
0.0694891
0.068169
0.066849
0.0655328
0.0642244
0.0629272
0.0616445
0.0603791
0.0591339
0.0579113
0.0567135
0.0555424
0.0543997
0.0532868
0.0522048
0.0511545
0.0501367
0.0491516
0.0481994
0.04728
0.0463931
0.045538
0.0447142
0.0439205
0.0431561
0.0424197
0.0417101
0.041026
0.0403661
0.0397289
0.0391133
0.0385179
0.0379417
0.0373837
0.036843
0.0363189
0.0358109
0.0353185
0.0348416
0.0343802
0.0339342
0.033504
0.0330898
0.032692
0.0323112
0.0319476
0.0316018
0.0312741
0.030965
0.0306748
0.0304038
0.030152
0.0299192
0.0297053
0.0295097
0.0293319
0.0291711
0.0290265
0.0288971
0.028782
0.02868
0.02859
0.028511
0.0284418
0.0283813
0.0283286
0.0282825
0.0282422
0.0282067
0.0281751
0.0281468
0.0281209
0.0280967
0.0280736
0.028051
0.0280282
0.0280046
0.0279797
0.0279531
0.0279247
0.0278955
0.0278706
0.00585508
0.0106623
0.0133792
0.0153075
0.0168742
0.0182427
0.0194937
0.0206742
0.021814
0.0229331
0.0240453
0.0251608
0.0262866
0.0274283
0.0285897
0.0297734
0.0309815
0.0322156
0.0334763
0.034764
0.0360784
0.0374187
0.0387835
0.0401713
0.04158
0.0430071
0.04445
0.0459059
0.0473716
0.048844
0.0503199
0.0517959
0.0532688
0.0547354
0.0561925
0.0576371
0.0590662
0.0604771
0.0618672
0.0632341
0.0645757
0.0658898
0.0671748
0.0684289
0.069651
0.0708398
0.0719945
0.0731142
0.0741986
0.0752472
0.0762593
0.077235
0.0781747
0.0790788
0.0799475
0.0807809
0.0815788
0.082341
0.0830671
0.0837565
0.0844082
0.0850213
0.0855945
0.0861266
0.0866159
0.0870609
0.0874597
0.0878108
0.0881121
0.0883616
0.0885573
0.0886968
0.088778
0.0887987
0.0887567
0.0886499
0.0884767
0.0882354
0.0879248
0.0875442
0.0870933
0.0865722
0.0859817
0.085323
0.0845978
0.0838084
0.0829576
0.0820484
0.0810845
0.0800696
0.0790078
0.0779035
0.0767612
0.0755852
0.0743804
0.0731512
0.0719023
0.070638
0.0693629
0.0680811
0.0667967
0.0655137
0.0642357
0.0629663
0.0617088
0.0604663
0.0592416
0.0580373
0.0568559
0.0556993
0.0545697
0.0534684
0.052397
0.0513566
0.0503479
0.0493717
0.0484282
0.0475176
0.0466396
0.045794
0.0449802
0.0441973
0.0434444
0.0427203
0.042024
0.041354
0.040709