/*--------------------------------*- C++ -*----------------------------------*\
  =========                 |
  \\      /  F ield         | OpenFOAM: The Open Source CFD Toolbox
   \\    /   O peration     | Website:  https://openfoam.org
    \\  /    A nd           | Version:  6
     \\/     M anipulation  |
\*---------------------------------------------------------------------------*/
FoamFile
{
    version     2.0;
    format      ascii;
    class       volScalarField;
    location    "0.21";
    object      nut;
}
// * * * * * * * * * * * * * * * * * * * * * * * * * * * * * * * * * * * * * //

dimensions      [0 2 -1 0 0 0 0];

internalField   nonuniform List<scalar> 
12225
(
1.77723e-05
1.42681e-05
1.23501e-05
1.11613e-05
1.03583e-05
9.78646e-06
9.35897e-06
9.0234e-06
8.74882e-06
8.51698e-06
8.31672e-06
8.14088e-06
7.98455e-06
7.84422e-06
7.71722e-06
7.60156e-06
7.4956e-06
7.404e-06
0.00014488
0.000101905
8.78782e-05
8.05071e-05
7.60392e-05
7.30451e-05
7.07271e-05
6.8704e-05
6.68485e-05
6.51331e-05
6.35491e-05
6.20875e-05
6.07381e-05
5.94898e-05
5.83338e-05
5.72535e-05
5.62877e-05
5.54174e-05
0.000323316
0.000223553
0.000189759
0.000172498
0.000161945
0.000154821
0.000149527
0.000145222
0.000141503
0.000138187
0.00013518
0.000132428
0.000129894
0.000127549
0.000125371
0.000123336
0.000121475
0.000119838
0.000493959
0.000355209
0.00029938
0.000269547
0.00025097
0.000238324
0.000229055
0.000221789
0.000215782
0.000210628
0.000206093
0.000202031
0.000198348
0.000194977
0.00019187
0.00018899
0.000186349
0.000184019
0.000624463
0.000478648
0.000407295
0.000366101
0.000339472
0.00032095
0.000307286
0.000296668
0.000288052
0.000280818
0.000274584
0.000269101
0.000264206
0.000259782
0.000255746
0.000252041
0.000248659
0.000245672
0.000713104
0.000583329
0.000506455
0.000457795
0.000424718
0.000400983
0.00038316
0.000369225
0.000357946
0.00034855
0.000340534
0.000333562
0.000327401
0.000321888
0.000316903
0.000312367
0.000308252
0.000304621
0.000769316
0.000665556
0.000592239
0.000541038
0.000504135
0.000476625
0.000455447
0.000438643
0.000424946
0.000413516
0.000403784
0.000395354
0.000387943
0.000381349
0.000375423
0.000370064
0.000365229
0.000360966
0.000803464
0.000726286
0.000662485
0.000613303
0.00057553
0.000546126
0.000522799
0.000503908
0.000488304
0.000475179
0.000463958
0.000454224
0.000445672
0.000438076
0.000431269
0.000425135
0.00041962
0.000414755
0.000823632
0.00076891
0.000717169
0.000673314
0.000637348
0.00060801
0.000583931
0.000563946
0.000547144
0.000532834
0.000520496
0.000509733
0.000500246
0.000491806
0.000484242
0.000477432
0.000471316
0.00046591
0.000835321
0.00079758
0.000757797
0.000721014
0.000688825
0.000661264
0.0006378
0.000617779
0.000600591
0.000585719
0.000572741
0.000561322
0.000551192
0.00054214
0.000534004
0.000526669
0.000520075
0.000514224
0.000842014
0.000816186
0.000786712
0.000757337
0.00073001
0.000705456
0.000683747
0.000664664
0.000647896
0.000633117
0.000620034
0.000608389
0.000597968
0.000588592
0.000580122
0.000572458
0.000565548
0.000559385
0.000845506
0.00082693
0.000804836
0.000781627
0.000758971
0.000737764
0.000718372
0.000700851
0.000685106
0.000670974
0.000658274
0.000646832
0.000636489
0.000627109
0.000618581
0.000610826
0.000603804
0.000597512
0.000847618
0.000833937
0.000817463
0.000799505
0.000781247
0.000763504
0.000746744
0.000731178
0.000716862
0.000703761
0.000691796
0.000680868
0.000670879
0.000661735
0.000653358
0.000645693
0.000638713
0.000632414
0.00084898
0.000838773
0.00082676
0.000813445
0.000799481
0.000785441
0.000771739
0.000758635
0.000746268
0.000734696
0.000723921
0.000713917
0.000704642
0.000696048
0.000688095
0.000680754
0.000674016
0.000667876
0.000849782
0.00084179
0.000832926
0.000823243
0.000812977
0.000802419
0.000791834
0.000781431
0.000771356
0.000761702
0.000752519
0.000743829
0.000735634
0.00072793
0.000720708
0.000713967
0.000707713
0.000701939
0.000850209
0.000843469
0.00083655
0.000829333
0.000821816
0.000814073
0.000806212
0.000798342
0.000790557
0.000782935
0.000775531
0.000768385
0.000761523
0.000754964
0.000748723
0.000742819
0.000737268
0.00073206
0.000850409
0.000844283
0.000838388
0.000832578
0.000826761
0.000820901
0.000814994
0.000809063
0.000803139
0.000797259
0.000791456
0.000785761
0.000780202
0.000774804
0.000769592
0.000764592
0.000759824
0.000755269
0.000850482
0.000844584
0.000839091
0.000833867
0.000828806
0.000823834
0.000818906
0.000813999
0.000809108
0.000804239
0.000799404
0.000794621
0.000789908
0.000785288
0.000780785
0.000776423
0.00077222
0.000768146
0.000850461
0.000844499
0.000838897
0.000833517
0.00082826
0.000823066
0.000817901
0.000812754
0.00080763
0.000802542
0.000797507
0.000792543
0.000787671
0.000782913
0.000778291
0.000773828
0.000769538
0.000765388
0.000850264
0.000843698
0.000837082
0.000830294
0.000823311
0.000816173
0.000808953
0.000801732
0.000794585
0.000787573
0.000780746
0.00077414
0.00076778
0.000761686
0.000755874
0.000750358
0.000745143
0.000740192
0.000849709
0.000841538
0.000832462
0.000822583
0.000812163
0.0008015
0.000790857
0.000780436
0.000770377
0.000760766
0.000751649
0.000743046
0.000734955
0.000727368
0.000720274
0.00071366
0.000707515
0.00070179
0.000848165
0.000835955
0.000821438
0.000805565
0.000789265
0.000773226
0.000757885
0.000743475
0.000730091
0.000717742
0.000706389
0.000695969
0.000686408
0.000677634
0.000669583
0.000662202
0.000655449
0.00064926
0.000844088
0.000822755
0.000797961
0.000772554
0.000748256
0.000725882
0.000705693
0.000687655
0.000671596
0.000657303
0.000644555
0.00063315
0.000622912
0.000613687
0.000605353
0.000597813
0.000590996
0.000584828
0.000833791
0.00079425
0.000753396
0.000716082
0.00068366
0.000656022
0.000632579
0.000612644
0.000595586
0.000580878
0.000568093
0.000556889
0.000546996
0.0005382
0.000530338
0.000523285
0.000516957
0.000511279
0.000809076
0.000738694
0.000678547
0.000630935
0.000593623
0.000564152
0.000540546
0.000521323
0.000505405
0.000492014
0.000480586
0.000470705
0.000462063
0.000454433
0.000447641
0.000441566
0.000436127
0.000431265
0.000753685
0.000642687
0.000568249
0.000517625
0.000481625
0.000455035
0.000434736
0.000418754
0.000405818
0.000395092
0.000386012
0.00037819
0.000371351
0.000365302
0.000359899
0.000355047
0.000350684
0.000346781
0.000641466
0.000499156
0.000426795
0.000383992
0.000355866
0.000336167
0.000321659
0.000310469
0.000301481
0.000294016
0.000287649
0.000282104
0.000277196
0.000272799
0.000268825
0.000265214
0.000261933
0.000258981
0.000448553
0.000320189
0.00027029
0.000243477
0.00022673
0.000215453
0.000207326
0.000201045
0.000195891
0.000191478
0.000187589
0.000184098
0.000180927
0.000178023
0.000175351
0.000172886
0.000170617
0.000168554
0.000203095
0.000143552
0.000122976
0.00011171
0.000104816
0.000100371
9.71877e-05
9.46027e-05
9.2321e-05
9.02337e-05
8.83016e-05
8.65075e-05
8.48411e-05
8.32938e-05
8.18574e-05
8.05238e-05
7.92867e-05
7.81461e-05
2.40294e-05
1.96339e-05
1.71031e-05
1.54672e-05
1.43248e-05
1.34924e-05
1.28647e-05
1.2374e-05
1.19771e-05
1.16463e-05
1.13642e-05
1.1119e-05
1.0903e-05
1.07106e-05
1.05378e-05
1.03816e-05
1.02396e-05
1.01106e-05
2.01772e-06
5.70311e-06
6.15949e-06
6.28515e-06
6.45649e-06
6.68129e-06
6.94398e-06
7.24492e-06
7.61531e-06
7.98737e-06
8.35591e-06
8.73102e-06
9.11169e-06
9.49434e-06
9.87475e-06
1.0249e-05
1.06141e-05
1.09676e-05
1.13083e-05
1.16351e-05
1.19478e-05
1.22463e-05
1.25308e-05
1.28019e-05
1.306e-05
1.33059e-05
1.35402e-05
1.37638e-05
1.39774e-05
1.41818e-05
1.43777e-05
1.45659e-05
1.47469e-05
1.49216e-05
1.50903e-05
1.52537e-05
1.54123e-05
1.55664e-05
1.57164e-05
1.58627e-05
1.60055e-05
1.61452e-05
1.6282e-05
1.64161e-05
1.65478e-05
1.66773e-05
1.68049e-05
1.6931e-05
1.70564e-05
1.71817e-05
1.73083e-05
1.74363e-05
1.75611e-05
1.76827e-05
1.78012e-05
1.79163e-05
1.80278e-05
1.81353e-05
1.82385e-05
1.83368e-05
1.84299e-05
1.85172e-05
1.85983e-05
1.86727e-05
1.87399e-05
1.87993e-05
1.88503e-05
1.88926e-05
1.89255e-05
1.89487e-05
1.89617e-05
1.8964e-05
1.89554e-05
1.89354e-05
1.8904e-05
1.88608e-05
1.88059e-05
1.87391e-05
1.86605e-05
1.85702e-05
1.84684e-05
1.83554e-05
1.82314e-05
1.80968e-05
1.79521e-05
1.77978e-05
1.76343e-05
1.7462e-05
1.72812e-05
1.70916e-05
1.68955e-05
1.67145e-05
1.65786e-05
1.64498e-05
1.63198e-05
1.61874e-05
1.60527e-05
1.59159e-05
1.57774e-05
1.56377e-05
1.54972e-05
1.53562e-05
1.52152e-05
1.50745e-05
1.49343e-05
1.4795e-05
1.46568e-05
1.45199e-05
1.43845e-05
1.42507e-05
1.41187e-05
1.39884e-05
1.386e-05
1.37335e-05
1.36088e-05
1.3486e-05
1.33649e-05
1.32454e-05
1.31275e-05
1.3011e-05
1.28957e-05
1.27815e-05
1.26683e-05
1.25558e-05
1.24439e-05
1.23325e-05
1.22214e-05
1.21104e-05
1.19996e-05
1.18887e-05
1.17778e-05
1.16669e-05
1.1556e-05
1.14451e-05
1.13345e-05
1.12243e-05
1.11147e-05
1.10058e-05
1.08973e-05
1.07887e-05
1.06793e-05
1.05747e-05
1.04746e-05
1.03791e-05
1.02882e-05
1.02019e-05
1.01201e-05
1.00429e-05
9.9703e-06
9.90216e-06
9.83844e-06
9.77901e-06
9.72373e-06
9.6724e-06
9.62482e-06
9.58075e-06
9.53994e-06
9.50212e-06
9.46702e-06
9.43435e-06
9.40385e-06
9.37525e-06
9.34828e-06
9.32269e-06
9.29824e-06
9.2747e-06
9.25183e-06
9.22941e-06
9.20721e-06
9.18497e-06
9.16242e-06
9.13923e-06
9.11497e-06
9.08905e-06
9.06061e-06
9.02825e-06
8.98964e-06
8.94012e-06
8.87237e-06
8.76954e-06
2.84053e-06
1.71323e-05
2.88213e-05
3.52706e-05
3.76891e-05
3.86965e-05
3.95541e-05
4.05364e-05
4.15555e-05
4.25747e-05
4.36271e-05
4.47752e-05
4.60716e-05
4.75488e-05
4.92211e-05
5.10899e-05
5.31472e-05
5.53778e-05
5.77613e-05
6.0273e-05
6.28856e-05
6.55705e-05
6.82997e-05
7.10464e-05
7.3787e-05
7.65009e-05
7.9172e-05
8.17879e-05
8.43402e-05
8.68244e-05
8.92388e-05
9.15845e-05
9.38647e-05
9.6084e-05
9.82485e-05
0.000100364
0.000102439
0.000104479
0.000106491
0.000108481
0.000110455
0.000112417
0.000114371
0.000116318
0.000118259
0.000120189
0.000122105
0.000123996
0.00012585
0.000127646
0.000129364
0.000131036
0.000132722
0.000134429
0.000136156
0.000137903
0.000139666
0.000141442
0.000143227
0.000145017
0.000146804
0.000148584
0.000150349
0.000152092
0.000153803
0.000155476
0.0001571
0.000158666
0.000160166
0.00016159
0.000162928
0.000164173
0.000165315
0.000166347
0.000167262
0.000168054
0.000168718
0.000169249
0.000169644
0.000169901
0.000170019
0.000169998
0.000169839
0.000169542
0.000169109
0.000168541
0.000167834
0.000166982
0.000165964
0.000164736
0.000163238
0.000161477
0.000159564
0.000157568
0.000155512
0.000153412
0.000151277
0.000149116
0.000146936
0.000144744
0.000142548
0.000140352
0.000138163
0.000135985
0.000133823
0.000131681
0.000129562
0.000127469
0.000125404
0.000123371
0.000121369
0.000119401
0.000117466
0.000115566
0.0001137
0.000111868
0.000110069
0.000108302
0.000106567
0.000104861
0.000103183
0.000101532
9.99057e-05
9.83034e-05
9.67232e-05
9.51639e-05
9.36245e-05
9.21043e-05
9.06028e-05
8.91198e-05
8.76558e-05
8.62114e-05
8.47879e-05
8.33868e-05
8.20103e-05
8.06607e-05
7.93406e-05
7.80517e-05
7.67937e-05
7.55602e-05
7.43298e-05
7.30755e-05
7.18752e-05
7.07624e-05
6.97326e-05
6.87816e-05
6.79061e-05
6.71031e-05
6.63699e-05
6.57036e-05
6.51012e-05
6.45591e-05
6.40737e-05
6.3641e-05
6.32568e-05
6.29167e-05
6.26164e-05
6.23516e-05
6.21178e-05
6.1911e-05
6.17271e-05
6.15622e-05
6.14126e-05
6.1275e-05
6.1146e-05
6.10222e-05
6.09007e-05
6.0778e-05
6.06506e-05
6.05146e-05
6.03649e-05
6.01949e-05
5.99953e-05
5.97517e-05
5.944e-05
5.90192e-05
5.84027e-05
5.74561e-05
5.57425e-05
5.34028e-05
3.57028e-06
2.69346e-05
4.44775e-05
5.41375e-05
5.91854e-05
6.1988e-05
6.40173e-05
6.59698e-05
6.80866e-05
7.04533e-05
7.31298e-05
7.61737e-05
7.96279e-05
8.3511e-05
8.78164e-05
9.25151e-05
9.75609e-05
0.000102895
0.000108453
0.000114165
0.000119967
0.000125797
0.0001316
0.000137333
0.000142958
0.000148449
0.000153788
0.000158964
0.000163971
0.000168811
0.000173487
0.000178008
0.000182381
0.000186619
0.000190733
0.000194734
0.000198635
0.000202448
0.000206183
0.00020985
0.000213459
0.000217016
0.000220529
0.000224002
0.000227439
0.000230839
0.000234204
0.000237532
0.00024082
0.000244068
0.000247279
0.000250498
0.000253746
0.000257028
0.000260345
0.000263693
0.000267069
0.000270466
0.000273878
0.000277297
0.000280711
0.00028411
0.00028748
0.000290808
0.000294078
0.000297275
0.000300382
0.00030338
0.000306253
0.000308982
0.000311551
0.000313942
0.000316139
0.000318127
0.000319891
0.000321421
0.000322704
0.000323733
0.000324499
0.000324999
0.000325229
0.000325188
0.000324876
0.000324293
0.000323442
0.000322323
0.000320935
0.000319272
0.000317319
0.000315057
0.000312474
0.00030959
0.000306481
0.000303206
0.0002998
0.000296288
0.000292688
0.000289017
0.000285289
0.000281519
0.00027772
0.000273904
0.000270082
0.000266264
0.000262459
0.000258676
0.000254923
0.000251205
0.000247528
0.000243898
0.000240318
0.00023679
0.000233317
0.0002299
0.000226539
0.000223234
0.000219985
0.00021679
0.000213645
0.00021055
0.000207501
0.000204495
0.000201529
0.000198599
0.000195703
0.000192837
0.000189999
0.000187187
0.0001844
0.000181636
0.000178897
0.000176182
0.000173495
0.000170836
0.000168211
0.000165623
0.000163076
0.000160574
0.00015812
0.000155712
0.000153343
0.000151006
0.000148705
0.000146491
0.000144408
0.000142459
0.000140646
0.000138968
0.000137425
0.000136015
0.000134734
0.000133578
0.000132539
0.000131613
0.00013079
0.000130063
0.000129424
0.000128863
0.000128371
0.000127941
0.000127562
0.000127228
0.00012693
0.000126661
0.000126414
0.000126181
0.000125956
0.000125732
0.000125501
0.000125256
0.000124987
0.000124682
0.000124323
0.000123887
0.000123333
0.000122596
0.000121547
0.000119965
0.000117288
0.000113134
4.0901e-06
3.29301e-05
5.54829e-05
6.89975e-05
7.69146e-05
8.18324e-05
8.54693e-05
8.88246e-05
9.24003e-05
9.64248e-05
0.000100999
0.000106164
0.000111921
0.000118239
0.000125064
0.00013232
0.000139922
0.000147777
0.000155797
0.000163898
0.000172007
0.00018006
0.000188003
0.000195796
0.000203408
0.000210816
0.000218008
0.000224975
0.000231716
0.000238234
0.000244534
0.000250626
0.000256519
0.000262225
0.000267755
0.000273124
0.000278342
0.000283423
0.000288379
0.000293222
0.000297961
0.000302608
0.000307171
0.00031166
0.000316081
0.000320442
0.000324749
0.000329008
0.000333225
0.000337407
0.00034156
0.000345727
0.000349919
0.000354143
0.000358398
0.000362684
0.000366998
0.000371334
0.000375684
0.00038004
0.000384391
0.000388723
0.000393021
0.000397269
0.000401449
0.000405541
0.000409525
0.000413379
0.000417082
0.00042061
0.000423943
0.000427058
0.000429934
0.000432551
0.000434891
0.000436937
0.000438674
0.00044009
0.000441174
0.000441919
0.000442319
0.000442371
0.000442073
0.000441425
0.00044043
0.000439089
0.000437404
0.000435375
0.000433
0.000430278
0.000427221
0.000423857
0.000420234
0.000416394
0.000412371
0.000408192
0.000403878
0.000399453
0.000394934
0.000390339
0.000385686
0.000380991
0.000376269
0.000371532
0.000366795
0.000362069
0.000357363
0.000352689
0.000348053
0.000343462
0.000338923
0.000334439
0.000330015
0.000325653
0.000321354
0.000317118
0.000312945
0.000308832
0.000304778
0.00030078
0.000296833
0.000292934
0.000289079
0.000285263
0.000281481
0.000277731
0.000274007
0.000270308
0.000266631
0.000262974
0.000259338
0.000255723
0.000252132
0.000248568
0.000245036
0.000241541
0.000238089
0.000234686
0.000231338
0.000228051
0.000224825
0.000221665
0.000218576
0.000215566
0.0002127
0.000209992
0.000207452
0.000205085
0.000202893
0.000200877
0.000199033
0.00019736
0.000195849
0.000194494
0.000193286
0.000192214
0.000191269
0.000190437
0.000189708
0.000189069
0.000188509
0.000188016
0.00018758
0.000187189
0.000186834
0.000186504
0.000186191
0.000185884
0.000185573
0.000185248
0.000184895
0.0001845
0.000184043
0.000183492
0.000182806
0.00018191
0.000180677
0.000178883
0.000176069
0.00017193
4.43515e-06
3.6547e-05
6.34991e-05
8.07229e-05
9.1667e-05
9.90377e-05
0.000104693
0.000109818
0.000115094
0.000120866
0.000127279
0.000134366
0.000142095
0.000150398
0.000159187
0.00016836
0.000177815
0.000187454
0.000197187
0.000206934
0.000216626
0.000226207
0.000235631
0.000244862
0.000253873
0.000262645
0.000271166
0.000279428
0.000287431
0.000295174
0.000302662
0.000309903
0.000316903
0.000323674
0.000330224
0.000336566
0.000342712
0.000348673
0.000354462
0.00036009
0.00036557
0.000370913
0.000376131
0.000381236
0.000386238
0.000391149
0.000395978
0.000400736
0.000405432
0.000410076
0.000414674
0.000419267
0.000423869
0.000428488
0.000433129
0.000437794
0.000442482
0.000447192
0.000451917
0.000456651
0.000461385
0.000466106
0.000470801
0.000475453
0.000480045
0.000484556
0.000488967
0.000493253
0.000497391
0.000501357
0.000505126
0.000508675
0.000511978
0.000515013
0.000517758
0.000520192
0.000522299
0.00052406
0.000525464
0.000526498
0.000527154
0.000527427
0.000527313
0.00052681
0.00052592
0.000524646
0.000522989
0.000520955
0.000518543
0.00051577
0.000512656
0.00050923
0.000505523
0.000501567
0.000497393
0.000493026
0.00048849
0.000483808
0.000479001
0.000474089
0.000469091
0.000464026
0.000458911
0.000453761
0.000448592
0.000443417
0.000438249
0.000433099
0.000427977
0.000422891
0.00041785
0.000412858
0.000407921
0.000403042
0.000398223
0.000393465
0.000388767
0.00038413
0.000379549
0.000375022
0.000370546
0.000366115
0.000361724
0.000357369
0.000353045
0.000348747
0.00034447
0.000340211
0.000335967
0.000331736
0.000327518
0.000323314
0.000319125
0.000314955
0.000310811
0.000306698
0.000302624
0.000298597
0.000294626
0.00029072
0.000286887
0.000283135
0.000279473
0.000275913
0.00027248
0.000269221
0.000266146
0.000263263
0.000260578
0.000258096
0.000255814
0.000253732
0.000251844
0.000250142
0.000248618
0.000247261
0.000246059
0.000244999
0.000244066
0.000243249
0.000242532
0.000241901
0.000241345
0.000240849
0.000240401
0.00023999
0.000239603
0.000239228
0.000238855
0.00023847
0.000238058
0.000237603
0.000237081
0.000236463
0.000235702
0.000234728
0.000233424
0.000231593
0.000228902
0.000225228
4.63822e-06
3.86621e-05
6.90382e-05
8.95908e-05
0.000103526
0.000113513
0.000121433
0.000128544
0.000135624
0.000143098
0.000151156
0.000159844
0.000169128
0.00017893
0.000189152
0.000199691
0.000210446
0.000221326
0.000232247
0.000243137
0.000253936
0.000264594
0.000275069
0.000285331
0.000295353
0.000305117
0.000314611
0.000323825
0.000332756
0.000341401
0.000349763
0.000357844
0.00036565
0.000373187
0.000380465
0.000387491
0.000394277
0.000400832
0.000407168
0.000413296
0.000419229
0.00042498
0.00043056
0.000435983
0.000441261
0.000446409
0.000451437
0.000456359
0.000461187
0.000465932
0.000470604
0.000475238
0.000479856
0.000484471
0.000489094
0.000493732
0.000498389
0.000503066
0.000507764
0.00051248
0.000517207
0.000521937
0.000526659
0.00053136
0.000536024
0.000540633
0.000545166
0.000549601
0.000553915
0.000558082
0.000562077
0.000565874
0.000569447
0.00057277
0.000575818
0.000578569
0.000581
0.000583093
0.000584829
0.000586194
0.000587177
0.000587769
0.000587963
0.000587755
0.000587146
0.000586137
0.000584724
0.000582912
0.000580718
0.00057816
0.000575258
0.000572035
0.000568517
0.00056473
0.0005607
0.000556451
0.000552007
0.000547391
0.000542624
0.000537727
0.000532721
0.000527624
0.000522456
0.000517234
0.000511973
0.000506689
0.000501395
0.000496104
0.000490828
0.000485575
0.000480355
0.000475174
0.000470039
0.000464954
0.00045992
0.000454941
0.000450016
0.000445145
0.000440324
0.000435552
0.000430824
0.000426135
0.000421481
0.000416856
0.000412254
0.000407671
0.000403101
0.000398539
0.000393984
0.000389432
0.000384882
0.000380335
0.000375794
0.000371263
0.000366746
0.000362251
0.000357786
0.000353363
0.00034899
0.00034468
0.000340444
0.000336294
0.000332243
0.000328302
0.000324487
0.000320845
0.000317391
0.000314137
0.000311094
0.000308265
0.000305655
0.000303261
0.000301082
0.000299109
0.000297335
0.00029575
0.00029434
0.000293092
0.000291993
0.000291026
0.000290177
0.00028943
0.000288772
0.000288187
0.000287661
0.000287181
0.000286733
0.000286305
0.000285883
0.000285452
0.000284998
0.000284502
0.00028394
0.000283282
0.000282484
0.00028148
0.000280167
0.000278384
0.000275902
0.000272732
4.75592e-06
3.96335e-05
7.25399e-05
9.59497e-05
0.000112669
0.000125228
0.000135448
0.000144583
0.000153442
0.000162498
0.000171983
0.000181975
0.000192459
0.000203372
0.000214626
0.000226131
0.000237797
0.000249541
0.000261291
0.000272983
0.000284563
0.000295987
0.000307216
0.000318221
0.000328977
0.000339465
0.000349671
0.000359584
0.000369195
0.000378502
0.000387501
0.000396193
0.000404579
0.000412664
0.000420452
0.000427949
0.000435164
0.000442104
0.00044878
0.000455201
0.00046138
0.000467328
0.000473058
0.000478583
0.000483916
0.000489073
0.000494066
0.000498911
0.000503622
0.000508211
0.000512693
0.0005171
0.000521459
0.000525793
0.000530118
0.000534446
0.00053879
0.000543156
0.00054755
0.000551975
0.000556429
0.000560909
0.000565409
0.000569918
0.000574426
0.000578915
0.000583369
0.000587766
0.000592083
0.000596297
0.00060038
0.000604306
0.000608047
0.000611574
0.000614862
0.000617884
0.000620613
0.000623028
0.000625109
0.000626835
0.000628191
0.000629167
0.00062975
0.000629935
0.00062972
0.000629087
0.000628049
0.000626619
0.000624808
0.000622634
0.000620113
0.000617265
0.000614112
0.000610676
0.00060698
0.000603046
0.000598897
0.000594556
0.000590043
0.000585381
0.000580588
0.000575687
0.000570694
0.000565628
0.000560506
0.000555344
0.000550157
0.000544957
0.000539757
0.000534568
0.000529399
0.000524258
0.000519151
0.000514084
0.000509059
0.00050408
0.000499147
0.000494259
0.000489414
0.00048461
0.000479842
0.000475107
0.000470398
0.000465711
0.000461038
0.000456375
0.000451716
0.000447056
0.000442391
0.000437719
0.000433039
0.00042835
0.000423655
0.000418956
0.000414261
0.000409576
0.000404911
0.000400275
0.000395682
0.000391144
0.000386675
0.000382288
0.000377999
0.000373822
0.000369769
0.000365881
0.000362177
0.000358675
0.000355384
0.000352313
0.000349467
0.000346847
0.000344452
0.000342275
0.000340311
0.000338548
0.000336976
0.00033558
0.000334346
0.000333258
0.000332301
0.00033146
0.000330717
0.000330058
0.000329467
0.00032893
0.000328433
0.000327962
0.000327501
0.000327037
0.000326552
0.000326029
0.000325443
0.000324765
0.000323955
0.000322951
0.000321667
0.000319975
0.000317723
0.000315001
4.81268e-06
3.97965e-05
7.44423e-05
0.000100198
0.000119381
0.000134312
0.000146705
0.000157761
0.000168283
0.000178765
0.000189476
0.000200529
0.000211942
0.00022368
0.00023568
0.000247866
0.000260165
0.000272508
0.000284831
0.000297078
0.000309203
0.000321163
0.000332923
0.000344456
0.000355736
0.000366743
0.00037746
0.000387875
0.000397977
0.000407759
0.000417214
0.00042634
0.000435135
0.000443599
0.000451734
0.000459543
0.000467031
0.000474204
0.000481069
0.000487635
0.000493911
0.000499908
0.000505638
0.000511113
0.000516348
0.000521357
0.000526154
0.000530757
0.00053518
0.000539441
0.000543555
0.000547554
0.000551473
0.00055534
0.00055918
0.000563012
0.000566856
0.000570724
0.00057463
0.000578582
0.000582586
0.000586645
0.000590756
0.000594915
0.000599115
0.000603342
0.000607582
0.000611817
0.000616025
0.000620182
0.000624262
0.000628237
0.000632078
0.000635754
0.000639238
0.000642499
0.000645508
0.000648238
0.000650666
0.00065277
0.000654526
0.000655925
0.000656947
0.000657568
0.000657794
0.000657621
0.000657057
0.000656108
0.000654784
0.000653098
0.000651066
0.000648702
0.000646027
0.000643058
0.000639817
0.000636325
0.000632603
0.000628672
0.000624553
0.000620267
0.000615835
0.000611276
0.00060661
0.000601854
0.000597027
0.000592144
0.00058722
0.000582271
0.000577308
0.000572344
0.000567387
0.000562447
0.00055753
0.000552644
0.00054779
0.000542973
0.000538193
0.000533451
0.000528744
0.00052407
0.000519425
0.000514805
0.000510204
0.000505615
0.000501033
0.000496453
0.000491866
0.00048727
0.000482658
0.000478029
0.000473379
0.000468708
0.000464019
0.000459314
0.000454598
0.00044988
0.000445168
0.000440473
0.000435808
0.000431187
0.000426624
0.000422136
0.000417738
0.000413446
0.000409275
0.000405253
0.000401409
0.000397758
0.000394315
0.00039109
0.000388089
0.000385316
0.000382771
0.000380451
0.000378349
0.000376456
0.000374762
0.000373253
0.000371915
0.000370733
0.000369691
0.000368773
0.000367963
0.000367244
0.000366601
0.000366018
0.000365481
0.000364976
0.000364486
0.000363997
0.000363492
0.000362952
0.000362355
0.000361672
0.000360866
0.000359883
0.00035865
0.000357069
0.000355041
0.0003527
4.82477e-06
3.94049e-05
7.51151e-05
0.000102704
0.000123972
0.000140988
0.000155328
0.000168119
0.000180134
0.000191872
0.000203626
0.000215546
0.000227686
0.000240041
0.000252574
0.000265234
0.000277964
0.000290706
0.000303408
0.000316023
0.000328507
0.000340824
0.00035294
0.000364827
0.000376461
0.00038782
0.000398886
0.000409645
0.000420082
0.000430188
0.000439953
0.000449371
0.000458437
0.000467148
0.000475503
0.000483501
0.000491144
0.000498435
0.000505378
0.000511981
0.000518249
0.000524192
0.000529821
0.000535146
0.000540181
0.00054494
0.000549438
0.000553693
0.000557723
0.000561545
0.00056518
0.000568659
0.000572024
0.000575311
0.000578551
0.000581773
0.000585001
0.000588258
0.000591563
0.000594932
0.000598377
0.000601907
0.000605526
0.000609236
0.000613033
0.000616909
0.000620851
0.000624845
0.000628871
0.000632906
0.000636923
0.000640895
0.00064479
0.000648576
0.000652224
0.000655702
0.000658974
0.000662008
0.000664782
0.000667277
0.000669437
0.000671257
0.000672721
0.000673817
0.000674538
0.000674881
0.000674846
0.000674438
0.000673662
0.000672529
0.00067105
0.000669238
0.000667109
0.000664681
0.000661972
0.000659
0.000655786
0.000652351
0.000648713
0.000644895
0.000640915
0.000636795
0.000632552
0.000628206
0.000623774
0.000619273
0.000614719
0.000610127
0.000605509
0.000600878
0.000596244
0.000591618
0.000587006
0.000582414
0.000577848
0.00057331
0.000568803
0.000564326
0.000559877
0.000555456
0.000551056
0.000546675
0.000542306
0.000537942
0.000533579
0.000529208
0.000524823
0.000520419
0.000515991
0.000511533
0.000507044
0.000502523
0.00049797
0.000493389
0.000488783
0.000484159
0.000479528
0.000474899
0.000470285
0.000465701
0.000461162
0.000456685
0.000452286
0.000447982
0.000443791
0.000439733
0.000435839
0.000432127
0.000428613
0.000425309
0.000422224
0.000419362
0.000416726
0.000414314
0.000412122
0.000410141
0.000408362
0.000406773
0.00040536
0.000404108
0.000403002
0.000402026
0.000401163
0.000400398
0.000399714
0.000399096
0.000398529
0.000397997
0.000397486
0.00039698
0.000396463
0.000395915
0.000395316
0.000394638
0.000393848
0.0003929
0.000391732
0.000390269
0.000388452
0.000386429
4.80327e-06
3.86378e-05
7.48459e-05
0.000103778
0.000126732
0.000145508
0.000161527
0.000175827
0.000189142
0.000201963
0.0002146
0.000227229
0.000239936
0.000252749
0.000265658
0.000278632
0.000291633
0.000304617
0.000317543
0.000330371
0.000343062
0.000355583
0.000367904
0.000379997
0.000391837
0.000403404
0.000414677
0.00042564
0.000436277
0.000446575
0.000456523
0.000466112
0.000475332
0.000484179
0.000492646
0.000500733
0.000508435
0.000515755
0.000522693
0.000529252
0.000535438
0.000541257
0.000546717
0.000551827
0.0005566
0.000561049
0.00056519
0.000569039
0.000572616
0.00057594
0.000579036
0.000581937
0.000584691
0.000587341
0.000589926
0.000592481
0.00059504
0.00059763
0.00060028
0.000603012
0.000605846
0.000608796
0.000611873
0.000615084
0.000618431
0.000621908
0.000625509
0.000629219
0.000633022
0.000636896
0.000640818
0.000644756
0.000648675
0.000652545
0.000656335
0.000660017
0.000663539
0.000666862
0.00066996
0.000672807
0.00067537
0.000677628
0.000679562
0.000681156
0.000682401
0.000683287
0.000683813
0.000683977
0.000683784
0.000683238
0.000682348
0.000681126
0.000679585
0.000677738
0.000675603
0.000673198
0.00067054
0.000667649
0.000664545
0.000661247
0.000657776
0.00065415
0.00065039
0.000646513
0.000642539
0.000638484
0.000634365
0.000630196
0.000625992
0.000621765
0.000617528
0.000613289
0.000609057
0.000604839
0.00060064
0.000596464
0.000592313
0.000588187
0.000584085
0.000580005
0.000575943
0.000571894
0.000567852
0.000563811
0.000559764
0.000555703
0.000551622
0.000547513
0.000543371
0.000539191
0.000534969
0.000530703
0.000526393
0.000522041
0.000517651
0.000513228
0.000508782
0.000504323
0.000499863
0.000495417
0.000490999
0.000486627
0.000482319
0.000478091
0.000473962
0.00046995
0.000466084
0.000462386
0.000458871
0.000455553
0.000452444
0.00044955
0.000446875
0.000444419
0.000442178
0.000440147
0.000438317
0.000436678
0.000435215
0.000433917
0.000432767
0.000431749
0.000430849
0.000430051
0.000429337
0.000428693
0.000428104
0.000427555
0.00042703
0.000426514
0.000425991
0.000425442
0.000424849
0.000424185
0.00042342
0.000422514
0.000421418
0.000420073
0.000418449
0.000416695
4.75543e-06
3.76185e-05
7.38527e-05
0.000103672
0.00012792
0.000148123
0.000165541
0.000181117
0.000195537
0.000209274
0.000222646
0.00023585
0.000248996
0.00026214
0.000275295
0.000288454
0.000301594
0.000314687
0.000327701
0.000340603
0.000353363
0.000365949
0.000378335
0.000390495
0.000402405
0.000414042
0.000425388
0.000436423
0.000447131
0.000457498
0.000467509
0.000477152
0.000486418
0.000495296
0.00050378
0.000511864
0.000519544
0.000526815
0.000533678
0.000540132
0.00054618
0.000551824
0.000557072
0.00056193
0.000566408
0.000570519
0.000574276
0.000577697
0.0005808
0.000583609
0.000586146
0.000588455
0.00059059
0.000592597
0.000594524
0.000596411
0.000598299
0.000600225
0.00060222
0.000604316
0.000606538
0.000608908
0.000611441
0.000614151
0.000617042
0.000620115
0.000623365
0.000626781
0.00063035
0.000634051
0.000637866
0.00064176
0.00064569
0.000649627
0.000653535
0.00065738
0.00066112
0.000664717
0.000668136
0.000671346
0.000674316
0.000677018
0.00067943
0.000681533
0.000683311
0.000684753
0.000685852
0.000686602
0.000687005
0.000687061
0.000686778
0.000686162
0.000685225
0.00068398
0.00068244
0.000680621
0.000678542
0.00067622
0.000673673
0.000670922
0.000667986
0.000664884
0.000661636
0.00065826
0.000654776
0.000651201
0.000647551
0.000643843
0.000640092
0.00063631
0.00063251
0.000628703
0.000624898
0.000621103
0.000617323
0.000613562
0.000609823
0.000606107
0.000602412
0.000598738
0.000595079
0.00059143
0.000587787
0.000584141