/*--------------------------------*- C++ -*----------------------------------*\
  =========                 |
  \\      /  F ield         | OpenFOAM: The Open Source CFD Toolbox
   \\    /   O peration     | Website:  https://openfoam.org
    \\  /    A nd           | Version:  6
     \\/     M anipulation  |
\*---------------------------------------------------------------------------*/
FoamFile
{
    version     2.0;
    format      ascii;
    class       volScalarField;
    location    "0.21";
    object      p;
}
// * * * * * * * * * * * * * * * * * * * * * * * * * * * * * * * * * * * * * //

dimensions      [0 2 -2 0 0 0 0];

internalField   nonuniform List<scalar> 
12225
(
0.306885
0.0545309
-0.0233204
-0.0335446
-0.0376926
-0.0418311
-0.0438455
-0.0446367
-0.0452315
-0.0457663
-0.0461555
-0.0463981
-0.0465181
-0.0465102
-0.0463728
-0.0460331
-0.0457502
-0.0446277
-0.0749656
-0.0446896
-0.0436389
-0.0369054
-0.0371838
-0.0407157
-0.0429709
-0.044079
-0.0448745
-0.0455124
-0.0459583
-0.0462373
-0.0463816
-0.0463888
-0.0462616
-0.0459236
-0.0455495
-0.0446409
-0.111977
-0.0409544
-0.0390103
-0.036401
-0.0368833
-0.0400031
-0.0422027
-0.0434233
-0.0443244
-0.0450358
-0.0455398
-0.045866
-0.0460463
-0.0460796
-0.0459705
-0.0456439
-0.0452336
-0.0441732
-0.066609
-0.0277227
-0.035523
-0.0365277
-0.037179
-0.0398062
-0.0417922
-0.0429932
-0.0439167
-0.0446562
-0.0451938
-0.0455544
-0.0457646
-0.0458242
-0.045736
-0.0454382
-0.0450022
-0.0440437
-0.0461936
-0.027766
-0.0359829
-0.0372312
-0.0377325
-0.0399009
-0.0416545
-0.0427921
-0.0436947
-0.0444287
-0.0449759
-0.0453545
-0.0455856
-0.0456691
-0.0456054
-0.0453502
-0.044935
-0.0441666
-0.0438378
-0.0320508
-0.0371532
-0.0379333
-0.0383387
-0.0401255
-0.041665
-0.0427304
-0.0435956
-0.0443084
-0.0448526
-0.0452409
-0.0454891
-0.0455979
-0.0455666
-0.0453678
-0.0450151
-0.0444375
-0.0437039
-0.0349623
-0.0378832
-0.0385263
-0.0389399
-0.0404172
-0.0417657
-0.0427577
-0.0435798
-0.044266
-0.0448024
-0.0451976
-0.0454634
-0.0456014
-0.0456122
-0.0454821
-0.0452205
-0.0448247
-0.0427162
-0.0365828
-0.0384019
-0.0390652
-0.0395156
-0.040746
-0.0419289
-0.0428504
-0.0436289
-0.0442879
-0.044816
-0.0452185
-0.0455045
-0.0456771
-0.045739
-0.0456877
-0.045534
-0.0453109
-0.0417296
-0.0377375
-0.0389116
-0.039571
-0.0400525
-0.0410919
-0.0421351
-0.0429917
-0.0437297
-0.0443644
-0.0448861
-0.0452984
-0.0456085
-0.0458211
-0.0459418
-0.0459758
-0.0459378
-0.0458751
-0.0411562
-0.0386834
-0.0394258
-0.0400429
-0.0405462
-0.0414416
-0.0423694
-0.0431686
-0.0438714
-0.0444862
-0.0450054
-0.045431
-0.0457697
-0.0460275
-0.0462125
-0.0463351
-0.046413
-0.0464956
-0.0409231
-0.039449
-0.0399234
-0.040485
-0.0409998
-0.0417881
-0.0426219
-0.0433713
-0.0440447
-0.0446451
-0.0451662
-0.0456095
-0.0459811
-0.0462881
-0.0465405
-0.0467516
-0.0469402
-0.0471522
-0.0409039
-0.040018
-0.0403589
-0.0408706
-0.0413861
-0.0421005
-0.0428641
-0.0435741
-0.0442257
-0.0448178
-0.0453448
-0.0458079
-0.0462128
-0.0465674
-0.0468822
-0.0471715
-0.0474537
-0.0477691
-0.0410014
-0.0405054
-0.0407616
-0.0412304
-0.0417431
-0.0424004
-0.0431088
-0.0437879
-0.0444237
-0.0450123
-0.0455491
-0.0460348
-0.0464749
-0.0468773
-0.0472529
-0.0476155
-0.0479824
-0.0483861
-0.0412119
-0.040986
-0.0411943
-0.0416211
-0.0421235
-0.0427319
-0.0433914
-0.0440426
-0.0446663
-0.0452559
-0.0458076
-0.0463217
-0.0468031
-0.0472595
-0.0477009
-0.0481398
-0.0485913
-0.0490791
-0.0415241
-0.0414563
-0.041648
-0.0420376
-0.0425224
-0.0430917
-0.0437113
-0.0443396
-0.044956
-0.0455522
-0.0461244
-0.0466724
-0.0472003
-0.0477143
-0.0482232
-0.0487371
-0.0492676
-0.0498308
-0.0419035
-0.0419129
-0.0421031
-0.0424646
-0.0429296
-0.0434706
-0.0440622
-0.0446755
-0.0452915
-0.0459008
-0.046499
-0.0470853
-0.0476621
-0.048234
-0.0488074
-0.0493895
-0.0499881
-0.050613
-0.0422965
-0.0423373
-0.0425292
-0.0428737
-0.043324
-0.0438493
-0.0444278
-0.0450377
-0.0456625
-0.0462921
-0.0469213
-0.047548
-0.0481729
-0.0487985
-0.0494284
-0.0500667
-0.0507178
-0.0513868
-0.0426306
-0.0426817
-0.0428743
-0.0432132
-0.0436613
-0.0441882
-0.0447723
-0.0453953
-0.0460416
-0.0467006
-0.0473657
-0.0480335
-0.048703
-0.0493743
-0.0500486
-0.0507276
-0.0514128
-0.0521062
-0.0428044
-0.0428553
-0.0430455
-0.0433911
-0.0438575
-0.0444101
-0.0450256
-0.0456852
-0.0463721
-0.0470738
-0.0477827
-0.048494
-0.0492048
-0.0499139
-0.0506206
-0.0513247
-0.0520262
-0.0527254
-0.0427022
-0.0427255
-0.0428976
-0.0432654
-0.0437769
-0.0443833
-0.0450589
-0.0457797
-0.0465236
-0.0472765
-0.0480303
-0.04878
-0.0495227
-0.0502567
-0.0509811
-0.0516955
-0.0523994
-0.0530926
-0.0425088
-0.0424365
-0.0425587
-0.0429632
-0.0435307
-0.0441982
-0.0449451
-0.045737
-0.0465424
-0.0473467
-0.0481432
-0.0489275
-0.0496971
-0.0504507
-0.0511881
-0.0519091
-0.0526136
-0.0533014
-0.0423843
-0.0420148
-0.0420318
-0.0425137
-0.0431506
-0.0438891
-0.0447282
-0.0456069
-0.046481
-0.0473395
-0.0481796
-0.0489976
-0.049792
-0.0505629
-0.0513111
-0.0520371
-0.0527415
-0.0534239
-0.0425833
-0.0415039
-0.0413496
-0.0419563
-0.042649
-0.0434698
-0.0444334
-0.0454176
-0.0463665
-0.0472827
-0.0481684
-0.0490207
-0.0498393
-0.0506267
-0.0513852
-0.0521165
-0.0528216
-0.0535004
-0.0431332
-0.0407746
-0.0405676
-0.0413544
-0.042026
-0.0429471
-0.0440862
-0.0451971
-0.0462268
-0.0472054
-0.04814
-0.049027
-0.0498693
-0.0506723
-0.0514404
-0.0521765
-0.0528826
-0.0535586
-0.0434063
-0.0388368
-0.0394302
-0.0406962
-0.0412668
-0.0423371
-0.0437217
-0.044981
-0.0460971
-0.0471431
-0.0481286
-0.0490493
-0.0499127
-0.0507288
-0.0515043
-0.0522433
-0.0529493
-0.0536218
-0.0451526
-0.0344282
-0.0371699
-0.039694
-0.0403004
-0.0416699
-0.0433868
-0.044815
-0.0460227
-0.0471382
-0.0481721
-0.0491207
-0.0499989
-0.0508222
-0.0515999
-0.0523376
-0.0530402
-0.0537075
-0.0621748
-0.0324028
-0.0349277
-0.0382982
-0.0391194
-0.0410387
-0.043172
-0.0447813
-0.0460806
-0.0472574
-0.0483248
-0.0492852
-0.0501635
-0.0509817
-0.0517514
-0.0524796
-0.0531724
-0.0538302
-0.106309
-0.045696
-0.0389659
-0.038115
-0.0382909
-0.0408113
-0.0433334
-0.0450707
-0.0464193
-0.0476165
-0.0486778
-0.0496151
-0.0504653
-0.0512559
-0.0519998
-0.052704
-0.0533759
-0.0540173
-0.0859383
-0.0555335
-0.0488663
-0.0403523
-0.038755
-0.0415734
-0.0442067
-0.0458481
-0.0470968
-0.0482199
-0.049214
-0.0500872
-0.0508808
-0.0516241
-0.052328
-0.052997
-0.0536371
-0.0542632
0.278377
0.0586417
-0.0184978
-0.0316518
-0.03702
-0.042205
-0.0452494
-0.046687
-0.0476828
-0.0486288
-0.0495069
-0.0502999
-0.0510365
-0.0517385
-0.0524109
-0.0530523
-0.0536575
-0.0542064
-0.0738758
-0.0740224
-0.0744484
-0.074944
-0.0753432
-0.0757031
-0.0761118
-0.076617
-0.0772445
-0.0780143
-0.078948
-0.0800713
-0.0814094
-0.082984
-0.0848094
-0.0868906
-0.0892215
-0.0917846
-0.0945525
-0.0974896
-0.100555
-0.103704
-0.106894
-0.110083
-0.113232
-0.11631
-0.119287
-0.122141
-0.124854
-0.12741
-0.129801
-0.132016
-0.134051
-0.135899
-0.137556
-0.139019
-0.140283
-0.141343
-0.142195
-0.142833
-0.14325
-0.14344
-0.143394
-0.143105
-0.142564
-0.141761
-0.14069
-0.139348
-0.137732
-0.135826
-0.133584
-0.130973
-0.127995
-0.124649
-0.120929
-0.116828
-0.112342
-0.107463
-0.102191
-0.096523
-0.0904625
-0.0840149
-0.077189
-0.0699974
-0.0624564
-0.0545861
-0.0464104
-0.0379569
-0.0292566
-0.0203436
-0.0112549
-0.00202959
0.00729131
0.0166656
0.0260507
0.0354038
0.044683
0.0538476
0.0628587
0.0716799
0.0802775
0.0886211
0.0966834
0.104441
0.111874
0.118966
0.125705
0.132081
0.138088
0.143726
0.149003
0.153934
0.158523
0.162765
0.16667
0.170249
0.173516
0.176485
0.17917
0.181588
0.183753
0.185681
0.187386
0.188885
0.190191
0.191318
0.19228
0.193089
0.193758
0.194297
0.194718
0.195031
0.195244
0.195366
0.195405
0.195369
0.195264
0.195097
0.194872
0.194596
0.194274
0.193909
0.193506
0.19307
0.192604
0.192113
0.191599
0.191067
0.190519
0.18996
0.189393
0.188822
0.188249
0.187678
0.187111
0.186553
0.186005
0.185471
0.184954
0.184459
0.183983
0.183514
0.183052
0.182609
0.182187
0.181787
0.181407
0.181048
0.18071
0.180391
0.180091
0.179809
0.179545
0.179297
0.179065
0.178848
0.178645
0.178455
0.178279
0.178116
0.177965
0.177826
0.1777
0.177586
0.177487
0.177402
0.177336
0.17729
0.177269
0.177281
0.177334
0.177441
0.177623
0.177908
0.178344
0.179004
0.180028
0.181617
0.184366
0.188272
-0.0737971
-0.0743816
-0.0749309
-0.075249
-0.0752812
-0.0751559
-0.0751034
-0.0752595
-0.075637
-0.0762162
-0.0770125
-0.078056
-0.0793761
-0.0809947
-0.0829217
-0.0851529
-0.087669
-0.0904373
-0.0934148
-0.096552
-0.0997969
-0.103098
-0.10641
-0.109688
-0.112899
-0.116013
-0.119008
-0.121865
-0.124573
-0.12712
-0.129502
-0.131712
-0.133746
-0.135603
-0.137278
-0.138768
-0.14007
-0.14118
-0.142093
-0.142803
-0.143303
-0.143586
-0.143644
-0.143466
-0.143041
-0.142357
-0.141401
-0.140156
-0.138602
-0.136722
-0.134526
-0.132023
-0.129193
-0.126016
-0.122478
-0.11857
-0.114282
-0.109609
-0.104545
-0.0990909
-0.0932462
-0.0870155
-0.0804065
-0.0734302
-0.0661015
-0.0584389
-0.0504646
-0.0422045
-0.033688
-0.0249476
-0.0160187
-0.00693897
0.00225181
0.0115127
0.0208018
0.0300774
0.0392978
0.0484229
0.0574137
0.0662337
0.074849
0.0832284
0.0913444
0.0991726
0.106693
0.113888
0.120745
0.127255
0.133413
0.139213
0.144647
0.149706
0.154402
0.158756
0.162778
0.166478
0.16987
0.172965
0.175779
0.178324
0.180617
0.182671
0.184501
0.186121
0.187546
0.188789
0.189863
0.190781
0.191554
0.192195
0.192713
0.19312
0.193423
0.193632
0.193755
0.193799
0.193772
0.193679
0.193526
0.19332
0.193065
0.192766
0.192428
0.192054
0.191649
0.191217
0.190762
0.190286
0.189795
0.189291
0.188777
0.188257
0.187735
0.187213
0.186694
0.18618
0.185676
0.185184
0.184705
0.18424
0.183784
0.183342
0.182916
0.182505
0.182109
0.181732
0.181372
0.181029
0.180705
0.180397
0.180107
0.179833
0.179574
0.17933
0.179101
0.178886
0.178684
0.178494
0.178318
0.178153
0.178
0.177859
0.177731
0.177615
0.177513
0.177426
0.177357
0.177309
0.177286
0.177295
0.177345
0.177448
0.177625
0.177902
0.178322
0.17895
0.179906
0.181335
0.183716
0.186954
-0.0715476
-0.0726028
-0.073484
-0.0739065
-0.0740395
-0.0740957
-0.0742287
-0.0745321
-0.0750558
-0.0758313
-0.0768852
-0.0782356
-0.0798887
-0.0818377
-0.0840635
-0.0865371
-0.0892223
-0.0920785
-0.0950636
-0.0981361
-0.101257
-0.104391
-0.107505
-0.110574
-0.113573
-0.116483
-0.119289
-0.121977
-0.124537
-0.126959
-0.129238
-0.131367
-0.133342
-0.135156
-0.136807
-0.138288
-0.139596
-0.140725
-0.141669
-0.142422
-0.142977
-0.143325
-0.143459
-0.143368
-0.143042
-0.142471
-0.141643
-0.140543
-0.139155
-0.137462
-0.135458
-0.133139
-0.130493
-0.127507
-0.124169
-0.120468
-0.116396
-0.111945
-0.107109
-0.101887
-0.0962786
-0.0902864
-0.0839168
-0.0771794
-0.0700876
-0.0626583
-0.054912
-0.0468731
-0.0385692
-0.0300313
-0.0212932
-0.0123912
-0.00336356
0.00574986
0.0149084
0.0240709
0.0331967
0.0422458
0.0511799
0.0599622
0.0685588
0.0769382
0.0850722
0.0929361
0.100509
0.107772
0.114712
0.12132
0.127587
0.133508
0.139078
0.144296
0.149168
0.153703
0.157908
0.161792
0.165366
0.168643
0.171635
0.174356
0.176819
0.17904
0.181032
0.18281
0.184387
0.185776
0.186992
0.188045
0.188949
0.189715
0.190354
0.190875
0.191288
0.191602
0.191826
0.191968
0.192033
0.19203
0.191964
0.191841
0.191667
0.191446
0.191183
0.190883
0.19055
0.190188
0.189801
0.189392
0.188966
0.188525
0.188073
0.187614
0.18715
0.186684
0.186219
0.185758
0.185303
0.184857
0.184421
0.183996
0.183579
0.183174
0.18278
0.182398
0.18203
0.181676
0.181337
0.181012
0.180703
0.180409
0.180129
0.179863
0.179611
0.179372
0.179146
0.178933
0.178732
0.178543
0.178366
0.1782
0.178045
0.177902
0.177771
0.177653
0.177548
0.177459
0.177387
0.177335
0.177309
0.177315
0.177361
0.17746
0.17763
0.177897
0.1783
0.178892
0.179773
0.181032
0.182975
0.185226
-0.0683355
-0.0699015
-0.0714518
-0.0723834
-0.0729502
-0.0734419
-0.0740107
-0.0747394
-0.0756778
-0.0768557
-0.0782877
-0.0799755
-0.0819096
-0.0840714
-0.0864357
-0.0889734
-0.0916533
-0.094444
-0.0973149
-0.100237
-0.103183
-0.106128
-0.109049
-0.111927
-0.114744
-0.117484
-0.120134
-0.122682
-0.12512
-0.127438
-0.12963
-0.13169
-0.13361
-0.135387
-0.137015
-0.138488
-0.1398
-0.140946
-0.141919
-0.142711
-0.143315
-0.143723
-0.143925
-0.14391
-0.143669
-0.143189
-0.142459
-0.141465
-0.140196
-0.138637
-0.13678
-0.134613
-0.132123
-0.129298
-0.126126
-0.122595
-0.118696
-0.11442
-0.109762
-0.104718
-0.0992863
-0.0934696
-0.0872728
-0.0807044
-0.0737765
-0.0665051
-0.0589098
-0.0510137
-0.0428439
-0.0344304
-0.0258064
-0.0170074
-0.00807148
0.000962098
0.0100529
0.01916
0.0282429
0.0372615
0.0461773
0.0549536
0.0635561
0.0719529
0.0801155
0.0880186
0.0956401
0.102962
0.109969
0.116649
0.122996
0.129003
0.134671
0.139998
0.144987
0.149642
0.15397
0.157978
0.161679
0.165081
0.168199
0.171046
0.173633
0.175977
0.178089
0.179984
0.181676
0.183178
0.184502
0.185662
0.186669
0.187534
0.188268
0.188882
0.189385
0.189786
0.190094
0.190316
0.19046
0.190533
0.19054
0.190488
0.190383
0.19023
0.190033
0.189797
0.189526
0.189225
0.188898
0.188548
0.188178
0.187794
0.187396
0.18699
0.186577
0.186161
0.185744
0.18533
0.184919
0.184515
0.184117
0.183727
0.183345
0.182972
0.18261
0.182257
0.181916
0.181587
0.181271
0.180966
0.180674
0.180395
0.180128
0.179872
0.179629
0.179397
0.179177
0.178968
0.17877
0.178582
0.178405
0.178239
0.178084
0.17794
0.177807
0.177686
0.177578
0.177486
0.17741
0.177355
0.177324
0.177324
0.177363
0.177453
0.177611
0.177858
0.178228
0.178765
0.179539
0.180594
0.182085
0.183555
-0.0660381
-0.068019
-0.0701497
-0.0716002
-0.0726256
-0.0735502
-0.0745357
-0.0756641
-0.0769803
-0.0785044
-0.0802393
-0.0821766
-0.0843008
-0.0865917
-0.0890263
-0.0915803
-0.0942294
-0.0969495
-0.0997179
-0.102513
-0.105314
-0.108104
-0.110865
-0.113582
-0.116242
-0.118832
-0.121343
-0.123764
-0.126087
-0.128306
-0.130412
-0.1324
-0.134265
-0.135999
-0.137598
-0.139055
-0.140365
-0.14152
-0.142514
-0.143338
-0.143985
-0.144445
-0.144709
-0.144766
-0.144605
-0.144214
-0.14358
-0.142692
-0.141536
-0.140098
-0.138366
-0.136329
-0.133972
-0.131282
-0.128246
-0.124853
-0.121092
-0.116954
-0.112431
-0.10752
-0.102217
-0.096525
-0.0904467
-0.0839903
-0.077167
-0.0699922
-0.062485
-0.0546682
-0.0465684
-0.0382156
-0.0296429
-0.0208862
-0.0119834
-0.00297423
0.00610062
0.0151999
0.0242827
0.0333085
0.0422386
0.0510357
0.0596652
0.0680949
0.076296
0.0842426
0.0919126
0.0992869
0.10635
0.11309
0.1195
0.125573
0.131309
0.136707
0.141769
0.1465
0.150905
0.154995
0.158777
0.162264
0.165467
0.168398
0.171072
0.1735
0.175698
0.177677
0.179453
0.181037
0.182442
0.183681
0.184765
0.185706
0.186515
0.187201
0.187775
0.188245
0.18862
0.188907
0.189114
0.189249
0.189316
0.189323
0.189275
0.189178
0.189035
0.188853
0.188635
0.188385
0.188107
0.187806
0.187485
0.187146
0.186794
0.186432
0.186063
0.185688
0.185312
0.184936
0.184562
0.184193
0.183828
0.183469
0.183117
0.182773
0.182437
0.18211
0.181793
0.181486
0.18119
0.180903
0.180628
0.180362
0.180107
0.179863
0.179629
0.179404
0.17919
0.178986
0.178791
0.178606
0.178431
0.178266
0.17811
0.177965
0.177831
0.177708
0.177598
0.177502
0.177423
0.177363
0.177326
0.177319
0.177348
0.177425
0.177563
0.177782
0.178108
0.178574
0.179224
0.180065
0.181158
0.182054
-0.065549
-0.067731
-0.0701552
-0.0719461
-0.0733197
-0.0745858
-0.0758966
-0.077326
-0.0789127
-0.0806716
-0.0826011
-0.0846894
-0.0869193
-0.0892712
-0.0917248
-0.0942597
-0.0968563
-0.0994962
-0.102162
-0.104838
-0.107508
-0.11016
-0.11278
-0.115358
-0.117883
-0.120345
-0.122735
-0.125047
-0.127272
-0.129405
-0.131438
-0.133365
-0.135182
-0.136881
-0.138457
-0.139903
-0.141214
-0.142381
-0.143397
-0.144254
-0.144944
-0.145456
-0.145781
-0.145907
-0.145823
-0.145517
-0.144976
-0.144186
-0.143134
-0.141805
-0.140187
-0.138265
-0.136024
-0.133452
-0.130534
-0.127258
-0.123611
-0.119585
-0.11517
-0.110361
-0.105155
-0.099552
-0.0935554
-0.0871722
-0.0804134
-0.0732938
-0.0658323
-0.0580519
-0.0499793
-0.0416449
-0.0330822
-0.0243275
-0.0154197
-0.00639895
0.00269316
0.0118147
0.0209241
0.0299802
0.0389437
0.0477769
0.0564447
0.0649148
0.0731579
0.0811481
0.0888629
0.0962831
0.103393
0.110182
0.116642
0.122767
0.128554
0.134005
0.139121
0.143907
0.148371
0.152519
0.156362
0.159911
0.163177
0.166173
0.168911
0.171405
0.173667
0.175712
0.177553
0.179201
0.180671
0.181974
0.183121
0.184124
0.184993
0.185739
0.186371
0.186899
0.18733
0.187672
0.187933
0.18812
0.188239
0.188297
0.188298
0.188249
0.188154
0.188018
0.187845
0.187639
0.187405
0.187146
0.186865
0.186567
0.186254
0.18593
0.185598
0.185259
0.184917
0.184574
0.184232
0.183892
0.183556
0.183225
0.182899
0.182579
0.182267
0.181962
0.181666
0.181378
0.1811
0.18083
0.180569
0.180317
0.180074
0.179839
0.179614
0.179397
0.179189
0.17899
0.1788
0.178618
0.178445
0.178281
0.178126
0.177981
0.177845
0.177721
0.177609
0.17751
0.177426
0.17736
0.177317
0.1773
0.177317
0.177377
0.177491
0.177675
0.177949
0.178333
0.178853
0.179489
0.180246
0.18071
-0.066845
-0.0689931
-0.0714381
-0.0733657
-0.074933
-0.0764057
-0.0779154
-0.0795237
-0.0812628
-0.083144
-0.0851642
-0.0873114
-0.0895696
-0.0919207
-0.0943471
-0.0968315
-0.0993578
-0.101911
-0.104478
-0.107045
-0.109602
-0.112137
-0.11464
-0.117104
-0.119518
-0.121876
-0.12417
-0.126394
-0.128542
-0.130606
-0.132582
-0.134464
-0.136246
-0.137921
-0.139484
-0.140929
-0.142248
-0.143433
-0.144478
-0.145373
-0.146109
-0.146676
-0.147063
-0.14726
-0.147253
-0.147031
-0.146579
-0.145883
-0.14493
-0.143703
-0.14219
-0.140373
-0.138239
-0.135773
-0.132959
-0.129784
-0.126235
-0.122301
-0.117974
-0.113245
-0.108111
-0.102572
-0.09663
-0.0902915
-0.0835672
-0.076472
-0.0690248
-0.0612491
-0.0531719
-0.0448245
-0.0362411
-0.0274591
-0.0185182
-0.00945989
-0.000326585
0.00883882
0.0179937
0.0270962
0.0361063
0.044986
0.0536996
0.0622146
0.0705015
0.078534
0.0862899
0.0937505
0.100901
0.10773
0.11423
0.120395
0.126223
0.131714
0.136872
0.141701
0.146208
0.150402
0.154292
0.157888
0.161203
0.164248
0.167037
0.169582
0.171897
0.173994
0.175887
0.177589
0.179111
0.180466
0.181665
0.18272
0.183641
0.184438
0.18512
0.185697
0.186177
0.186567
0.186875
0.187108
0.187273
0.187375
0.18742
0.187414
0.18736
0.187265
0.187132
0.186966
0.18677
0.186548
0.186304
0.186041
0.185762
0.185472
0.185171
0.184863
0.184551
0.184237
0.183922
0.183609
0.183298
0.18299
0.182687
0.18239
0.182098
0.181813
0.181536
0.181266
0.181003
0.180748
0.180501
0.180261
0.180029
0.179805
0.179588
0.179379
0.179178
0.178984
0.178798
0.178619
0.178449
0.178287
0.178133
0.177988
0.177852
0.177726
0.177611
0.177508
0.17742
0.177348
0.177297
0.177269
0.177272
0.177312
0.177398
0.177543
0.17776
0.178059
0.178448
0.178894
0.17937
0.179503
-0.0693933
-0.0713559
-0.0736337
-0.0755311
-0.0771492
-0.0786994
-0.0802882
-0.0819652
-0.0837555
-0.0856677
-0.0876983
-0.0898364
-0.0920675
-0.0943755
-0.0967447
-0.0991601
-0.101608
-0.104075
-0.10655
-0.109022
-0.111481
-0.11392
-0.116328
-0.1187
-0.121028
-0.123305
-0.125526
-0.127684
-0.129774
-0.131791
-0.133728
-0.135581
-0.137343
-0.139009
-0.140573
-0.142027
-0.143365
-0.144579
-0.14566
-0.146601
-0.14739
-0.148017
-0.148472
-0.148742
-0.148815
-0.148677
-0.148314
-0.147711
-0.146854
-0.145726
-0.144311
-0.142595
-0.14056
-0.13819
-0.135471
-0.132386
-0.128922
-0.125067
-0.120811
-0.116145
-0.111066
-0.10557
-0.0996617
-0.0933457
-0.0866331
-0.0795386
-0.0720818
-0.0642865
-0.0561807
-0.0477966
-0.0391696
-0.0303383
-0.0213438
-0.0122288
-0.00303694
0.00618777
0.0154015
0.0245617
0.0336276
0.0425605
0.0513244
0.0598862
0.0682166
0.07629
0.0840844
0.0915816
0.098767
0.105629
0.112161
0.118357
0.124216
0.129739
0.134928
0.13979
0.14433
0.148558
0.152483
0.156116
0.159469
0.162553
0.165382
0.167968
0.170324
0.172465
0.174401
0.176146
0.177713
0.179112
0.180356
0.181455
0.18242
0.183261
0.183987
0.184607
0.18513
0.185563
0.185913
0.186187
0.186393
0.186535
0.186619
0.186651
0.186636
0.186577
0.18648
0.186349
0.186188
0.185999
0.185788
0.185557
0.185309
0.185048
0.184775
0.184495
0.18421
0.183921
0.18363
0.18334
0.183051
0.182765
0.182482
0.182204
0.181931
0.181664
0.181403
0.181149
0.180901
0.180659
0.180425
0.180197
0.179976
0.179761
0.179553
0.179351
0.179156
0.178968
0.178787
0.178612
0.178444
0.178284
0.178132
0.177987
0.177851
0.177723
0.177606
0.1775
0.177407
0.177328
0.177268
0.177228
0.177214
0.177232
0.177289
0.177391
0.177548
0.17776
0.178026
0.1783
0.17854
0.178417
-0.0725917
-0.0742884
-0.0762902
-0.0780431
-0.0796049
-0.0811338
-0.0827117
-0.0843761
-0.0861456
-0.0880261
-0.0900139
-0.0920989
-0.0942682
-0.0965075
-0.0988024
-0.101139
-0.103506
-0.10589
-0.108281
-0.110671
-0.113049
-0.115409
-0.117744
-0.120045
-0.122309
-0.124528
-0.126697
-0.128811
-0.130865
-0.132854
-0.134772
-0.136614
-0.138374
-0.140047
-0.141626
-0.143104
-0.144473
-0.145727
-0.146855
-0.14785
-0.1487
-0.149395
-0.149922
-0.150271
-0.150427
-0.150375
-0.150103
-0.149593
-0.148831
-0.147799
-0.146481
-0.14486
-0.142918
-0.140639
-0.138006
-0.135003
-0.131614
-0.127827
-0.123629
-0.119013
-0.113972
-0.108505
-0.102614
-0.0963031
-0.0895843
-0.0824727
-0.0749882
-0.0671554
-0.0590035
-0.0505658
-0.041879
-0.0329833
-0.0239213
-0.0147371
-0.00547576
0.00381752
0.0130977
0.0223213
0.0314466
0.0404343
0.0492484
0.0578562
0.0662285
0.07434
0.0821689
0.0896974
0.0969112
0.1038
0.110356
0.116576
0.122458
0.128004
0.133216
0.138101
0.142666
0.14692
0.150871
0.154532
0.157914
0.161029
0.16389
0.16651
0.168901
0.171077
0.17305
0.174832
0.176437
0.177875
0.179157
0.180296
0.1813
0.18218
0.182945
0.183605
0.184166
0.184637
0.185025
0.185338
0.18558
0.185759
0.185879
0.185946
0.185966
0.185941
0.185877
0.185778
0.185648
0.185491
0.185309
0.185106
0.184886
0.184651
0.184405
0.18415
0.183888
0.183622
0.183353
0.183083
0.182814
0.182547
0.182283
0.182022
0.181766
0.181515
0.181269
0.181029
0.180794
0.180566
0.180343
0.180126
0.179915
0.179709
0.179509
0.179315
0.179127
0.178944
0.178768
0.178597
0.178433
0.178275
0.178124
0.17798
0.177843
0.177715
0.177595
0.177486
0.177387
0.177301
0.177231
0.177178
0.177147
0.177141
0.177166
0.177224
0.17732
0.177448
0.177598
0.177719
0.177762
0.177441
-0.0759199
-0.0773162
-0.0789892
-0.0805284
-0.0819629
-0.0834042
-0.0849111
-0.0865101
-0.0882137
-0.0900249
-0.0919392
-0.0939473
-0.0960373
-0.0981961
-0.100411
-0.102668
-0.104957
-0.107266
-0.109585
-0.111906
-0.11422
-0.116521
-0.118801
-0.121054
-0.123274
-0.125457
-0.127597
-0.129689
-0.131728
-0.133709
-0.135628
-0.137477
-0.139253
-0.140949
-0.142559
-0.144075
-0.145489
-0.146794
-0.147981
-0.149039
-0.149959
-0.150728
-0.151335
-0.151766
-0.152009
-0.152047
-0.151867
-0.15145
-0.150782
-0.149844
-0.14862
-0.14709
-0.145238
-0.143044
-0.14049
-0.13756
-0.134237
-0.130507
-0.126357
-0.121779
-0.116765
-0.111314
-0.105425
-0.0991068
-0.0923685
-0.0852262
-0.0777008
-0.0698179
-0.061608
-0.0531056
-0.0443492
-0.0353804
-0.0262436
-0.0169843
-0.00764917
0.00171486
0.0110619
0.0203479
0.0295307
0.0385708
0.047432
0.0560816
0.0644906
0.0726339
0.0804904
0.0880428
0.0952775
0.102185
0.108758
0.114993
0.12089
0.126451
0.131679
0.13658
0.141162
0.145434
0.149406
0.153088
0.156493
0.159633
0.162521
0.165168
0.167589
0.169795
0.171799
0.173615
0.175252
0.176725
0.178042
0.179216
0.180256
0.181172
0.181973
0.182668
0.183265
0.183772
0.184196
0.184543
0.18482
0.185033
0.185187
0.185287
0.185338
0.185345
0.185312
0.185244
0.185142
0.185013
0.184859
0.184682
0.184488
0.184278
0.184055
0.183822
0.183582
0.183336
0.183087
0.182836
0.182585
0.182336
0.182088
0.181843
0.181602
0.181366
0.181134
0.180907
0.180685
0.180468
0.180256
0.180049
0.179848
0.179651
0.179459
0.179273
0.179091
0.178914
0.178742
0.178576
0.178415
0.17826
0.17811
0.177967
0.17783
0.177701
0.177579
0.177465
0.177361
0.177268
0.177187
0.177121
0.177072
0.177041
0.177033
0.177047
0.177082
0.177131
0.177174
0.17716
0.177038
0.176561
-0.0789603
-0.0800512
-0.0813801
-0.0826713
-0.0839381
-0.0852528
-0.086654
-0.0881583
-0.0897725
-0.0914964
-0.0933246
-0.0952479
-0.0972551
-0.0993338
-0.101472
-0.103657
-0.105878
-0.108124
-0.110387
-0.112656
-0.114925
-0.117185
-0.119431
-0.121657
-0.123857
-0.126025
-0.128158
-0.130249
-0.132294
-0.134288
-0.136226
-0.138103
-0.139912
-0.141647
-0.143302
-0.14487
-0.146342
-0.14771
-0.148965
-0.150096
-0.151093
-0.151943
-0.152634
-0.153153
-0.153485
-0.153614
-0.153526
-0.153203
-0.152627
-0.151781
-0.150646
-0.149204
-0.147435
-0.145319
-0.142837
-0.139972
-0.136706
-0.133023
-0.128911
-0.124359
-0.119361
-0.113914
-0.108018
-0.10168
-0.0949119
-0.0877293
-0.0801542
-0.0722134
-0.0639388
-0.0553666
-0.0465371
-0.0374939
-0.0282824
-0.0189498
-0.00954406
-0.000113209
0.00929602
0.0186388
0.0278725
0.0369573
0.0458571
0.0545393
0.0629755
0.0711409
0.0790153
0.0865819
0.0938281
0.100745
0.107325
0.113568
0.119472
0.12504
0.130276
0.135186
0.139779
0.144063
0.148049
0.151747
0.15517
0.15833
0.16124
0.163911
0.166357
0.16859
0.170623
0.172467
0.174136
0.175639
0.176989
0.178195
0.179268
0.180218
0.181053
0.181782
0.182413
0.182953
0.18341
0.18379
0.1841
0.184345
0.184531
0.184662
0.184744
0.184781
0.184777
0.184737
0.184663
0.18456
0.184431
0.18428
0.184109
0.183922
0.183721
0.183509
0.183288
0.183062
0.182831
0.182597
0.182363
0.182129
0.181896
0.181666
0.181439
0.181216
0.180997
0.180782
0.180572
0.180366
0.180165
0.179968
0.179776
0.179588
0.179404
0.179224
0.179049
0.178878
0.178711
0.178549
0.178392
0.178239
0.178091
0.177949
0.177813
0.177682
0.177558
0.17744
0.177331
0.17723
0.177139
0.177058
0.17699
0.176935
0.176893
0.176863
0.176841
0.176814
0.176759
0.176627
0.176368
0.175769
-0.0813941
-0.0821947
-0.0831898
-0.0842245
-0.0853066
-0.0864774
-0.0877582
-0.0891568
-0.0906747
-0.0923087
-0.0940521
-0.0958952
-0.097827
-0.0998357
-0.101909
-0.104036
-0.106205
-0.108407
-0.11063
-0.112868
-0.115111
-0.117354
-0.119588
-0.121808
-0.12401
-0.126186
-0.128332
-0.130444
-0.132515
-0.134542
-0.136518
-0.138438
-0.140297
-0.142087
-0.143801
-0.145433
-0.146974
-0.148415
-0.149746
-0.150957
-0.152037
-0.152972
-0.153751
-0.154359
-0.154781
-0.155001
-0.155003
-0.15477
-0.154283
-0.153525
-0.152474
-0.151113
-0.149419
-0.147373
-0.144954
-0.142144
-0.138923
-0.135277
-0.131191
-0.126656
-0.121662
-0.116208
-0.110296
-0.103931
-0.0971257
-0.0898974
-0.0822688
-0.0742682
-0.0659288
-0.0572885
-0.0483891
-0.0392757
-0.0299955
-0.0205969
-0.0111294
-0.00164171
0.00781848
0.0172058
0.0264773
0.0355934
0.0445181
0.0532193
0.0616691
0.0698436
0.077723
0.0852917
0.0925376
0.0994524
0.106031
0.112271
0.118173
0.12374
0.128976
0.133889
0.138486
0.142777
0.146772
0.150482
0.153919
0.157095
0.160022
0.162714
0.165183
0.16744
0.169499
0.171371
0.173068
0.174601
0.175981
0.177218
0.178323
0.179304
0.180172
0.180933
0.181596
0.182169
0.182658
0.18307
0.183411
0.183687
0.183904
0.184065
0.184176
0.184242
0.184266
0.184252
0.184205
0.184127
0.184023
0.183894
0.183746
0.18358
0.183399
0.183207
0.183005
0.182796
0.182582
0.182364
0.182145
0.181926
0.181708
0.181491
0.181277
0.181066
0.180859
0.180656
0.180457
0.180261
0.18007
0.179883
0.179699
0.179519
0.179343
0.179171
0.179002
0.178836
0.178675
0.178517
0.178363
0.178214
0.178068
0.177927
0.177791
0.177659
0.177533
0.177412
0.177297
0.177188
0.177086
0.176991
0.176904
0.176824
0.176749
0.176677
0.1766
0.176502
0.17636
0.176125
0.175751
0.175054
-0.0829794
-0.0835354
-0.084225
-0.0850121
-0.085909
-0.0869341
-0.0880942
-0.0893894
-0.0908164
-0.0923692
-0.0940391
-0.0958159
-0.0976882
-0.0996444
-0.101673
-0.103761
-0.1059
-0.108078
-0.110285
-0.112513
-0.114754
-0.117001
-0.119246
-0.121484
-0.123708
-0.125914
-0.128095
-0.130247
-0.132364
-0.134441
-0.136472
-0.138452
-0.140373
-0.142231
-0.144016
-0.145722
-0.14734
-0.148861
-0.150274
-0.151569
-0.152733
-0.153755
-0.154621
-0.155317
-0.155826
-0.156134
-0.156222
-0.156073
-0.155669
-0.15499
-0.154016
-0.152725
-0.151097
-0.149109
-0.146741
-0.143973
-0.140787
-0.137165
-0.133094
-0.128563
-0.123565
-0.118096
-0.11216
-0.105762
-0.0989158
-0.0916398
-0.0839579
-0.0758997
-0.0675001
-0.0587984
-0.049838
-0.0406655
-0.0313295
-0.0218798
-0.0123665
-0.00283934
0.0066537
0.0160669
0.0253575
0.0344861
0.0434172
0.0521193
0.0605654
0.0687323
0.0766011
0.0841572
0.0913892
0.0982897
0.104854
0.111081
0.116972
0.122529
0.127758
0.132667
0.137262
0.141554
0.145553
0.149271
0.152718
0.155907
0.15885
0.16156
0.164049
0.166329
0.168412
0.17031
0.172034
0.173595
0.175005
0.176272
0.177408
0.17842
0.179319
0.180111
0.180806
0.181411
0.181931
0.182374
0.182746
0.183052
0.183298
0.183489
0.183629
0.183722
0.183773
0.183785
0.183763
0.183709
0.183628
0.183522
0.183395
0.183249
0.183088
0.182914
0.18273
0.182537
0.182339
0.182137
0.181932
0.181727
0.181521
0.181317
0.181116
0.180917
0.180721
0.180528
0.180339
0.180154
0.179972
0.179794
0.179619
0.179447
0.179278
0.179113
0.17895
0.178791
0.178634
0.178481
0.178331
0.178185
0.178041
0.177902
0.177765
0.177633
0.177504
0.17738
0.177259
0.177143
0.17703
0.176921
0.176815
0.176711
0.176605
0.176492
0.176362
0.1762
0.17598
0.175655
0.175184
0.174408
-0.083547
-0.0839345
-0.08436
-0.0849234
-0.0856483
-0.086538
-0.0875878
-0.088792
-0.0901428
-0.0916313
-0.0932468
-0.0949781
-0.0968132
-0.0987401
-0.100747
-0.102822
-0.104954
-0.107132
-0.109348
-0.111591
-0.113854
-0.116128
-0.118407
-0.120684
-0.122953
-0.125208
-0.127443
-0.129653
-0.131832
-0.133975
-0.136075
-0.138126
-0.140122
-0.142056
-0.14392
-0.145706
-0.147405
-0.149008
-0.150504
-0.151882
-0.15313
-0.154236
-0.155185
-0.155962
-0.156552
-0.156939
-0.157105
-0.157031
-0.156698
-0.156088
-0.155178
-0.153945
-0.152368
-0.150424
-0.148092
-0.145352
-0.142185
-0.138574
-0.134505
-0.129968
-0.124956
-0.119465
-0.113499
-0.107066
-0.100179
-0.0928575
-0.0851279
-0.0770206
-0.0685719
-0.0598227
-0.0508177
-0.0416046
-0.0322332
-0.0227542
-0.0132184
-0.0036757
0.0058257
0.0152403
0.0245256
0.0336429
0.0425574
0.0512385
0.05966
0.0677997
0.0756399
0.0831666
0.0903694
0.0972418
0.10378
0.109983
0.115852
0.121391
0.126605
0.131502
0.13609
0.140378
0.144377
0.148098
0.151553
0.154752
0.157709
0.160435
0.162942
0.165243
0.167349
0.169272
0.171023
0.172612
0.17405
0.175347
0.176513