/*--------------------------------*- C++ -*----------------------------------*\
  =========                 |
  \\      /  F ield         | OpenFOAM: The Open Source CFD Toolbox
   \\    /   O peration     | Website:  https://openfoam.org
    \\  /    A nd           | Version:  6
     \\/     M anipulation  |
\*---------------------------------------------------------------------------*/
FoamFile
{
    version     2.0;
    format      ascii;
    class       surfaceScalarField;
    location    "0.21";
    object      phi;
}
// * * * * * * * * * * * * * * * * * * * * * * * * * * * * * * * * * * * * * //

dimensions      [0 3 -1 0 0 0 0];

internalField   nonuniform List<scalar> 
24170
(
3.2567e-07
-6.82891e-09
3.19409e-07
6.26077e-09
3.15792e-07
3.61646e-09
3.08689e-07
7.1031e-09
3.01703e-07
6.98605e-09
2.96671e-07
5.03245e-09
2.93318e-07
3.35309e-09
2.90931e-07
2.38662e-09
2.89064e-07
1.86661e-09
2.87514e-07
1.55016e-09
2.86175e-07
1.33917e-09
2.84978e-07
1.19672e-09
2.83878e-07
1.10067e-09
2.82837e-07
1.04045e-09
2.81837e-07
1.00053e-09
2.80821e-07
1.01573e-09
2.79952e-07
8.68508e-10
1.06145e-09
2.78891e-07
3.50377e-07
-1.54813e-08
3.47808e-07
8.82965e-09
3.44047e-07
7.37774e-09
3.42175e-07
8.97485e-09
3.39974e-07
9.18743e-09
3.37455e-07
7.55152e-09
3.35075e-07
5.7326e-09
3.33034e-07
4.42759e-09
3.31329e-07
3.57194e-09
3.29891e-07
2.98857e-09
3.2865e-07
2.57966e-09
3.27553e-07
2.29354e-09
3.2656e-07
2.09452e-09
3.25636e-07
1.96437e-09
3.24758e-07
1.87817e-09
3.23892e-07
1.88215e-09
3.23002e-07
1.75844e-09
2.03339e-09
3.2203e-07
3.63433e-07
-1.26623e-08
3.66546e-07
5.71661e-09
3.66683e-07
7.23992e-09
3.66821e-07
8.83699e-09
3.66407e-07
9.60178e-09
3.65363e-07
8.59518e-09
3.64015e-07
7.08125e-09
3.62633e-07
5.80902e-09
3.61346e-07
4.85906e-09
3.60182e-07
4.15219e-09
3.59132e-07
3.63033e-09
3.58173e-07
3.25244e-09
3.57283e-07
2.98441e-09
3.56441e-07
2.80683e-09
3.55621e-07
2.69744e-09
3.54816e-07
2.68749e-09
3.53922e-07
2.65281e-09
2.94684e-09
3.53008e-07
3.89234e-07
-9.35718e-09
3.91437e-07
3.51286e-09
3.92345e-07
6.33248e-09
3.92972e-07
8.20981e-09
3.93198e-07
9.37586e-09
3.92878e-07
8.91537e-09
3.92169e-07
7.79005e-09
3.91281e-07
6.6972e-09
3.9035e-07
5.78965e-09
3.8944e-07
5.06242e-09
3.88572e-07
4.49882e-09
3.87747e-07
4.07719e-09
3.86958e-07
3.77316e-09
3.86194e-07
3.57137e-09
3.85435e-07
3.45609e-09
3.84673e-07
3.44924e-09
3.83831e-07
3.49525e-09
3.80357e-09
3.82974e-07
4.18265e-07
-6.90938e-09
4.19389e-07
2.38864e-09
4.20246e-07
5.47605e-09
4.20967e-07
7.48839e-09
4.21473e-07
8.86942e-09
4.21564e-07
8.82483e-09
4.21283e-07
8.07094e-09
4.20772e-07
7.20861e-09
4.20144e-07
6.41709e-09
4.19468e-07
5.73842e-09
4.18779e-07
5.18805e-09
4.18092e-07
4.76382e-09
4.17412e-07
4.45387e-09
4.16733e-07
4.24975e-09
4.16046e-07
4.14337e-09
4.15343e-07
4.15218e-09
4.14579e-07
4.2589e-09
4.58651e-09
4.13796e-07
4.4903e-07
-5.03042e-09
4.49578e-07
1.83992e-09
4.50285e-07
4.76973e-09
4.51001e-07
6.77262e-09
4.51636e-07
8.23432e-09
4.51969e-07
8.49108e-09
4.51981e-07
8.05917e-09
4.51758e-07
7.43221e-09
4.51384e-07
6.79058e-09
4.5092e-07
6.20236e-09
4.50404e-07
5.70423e-09
4.49858e-07
5.30987e-09
4.49292e-07
5.01938e-09
4.4871e-07
4.83184e-09
4.48107e-07
4.74626e-09
4.47482e-07
4.77786e-09
4.46812e-07
4.92834e-09
5.26884e-09
4.4613e-07
4.81752e-07
-3.51015e-09
4.82025e-07
1.56673e-09
4.8259e-07
4.20453e-09
4.83257e-07
6.10608e-09
4.83934e-07
7.55679e-09
4.84407e-07
8.01864e-09
4.84617e-07
7.84871e-09
4.84611e-07
7.43833e-09
4.84446e-07
6.95531e-09
4.8417e-07
6.47897e-09
4.83816e-07
6.05783e-09
4.83409e-07
5.71657e-09
4.82964e-07
5.46498e-09
4.82487e-07
5.30876e-09
4.81981e-07
5.2525e-09
4.81448e-07
5.30994e-09
4.80887e-07
5.49025e-09
5.83191e-09
4.80324e-07
5.16743e-07
-2.29472e-09
5.16864e-07
1.44524e-09
5.17305e-07
3.76322e-09
5.17901e-07
5.51039e-09
5.18569e-07
6.88849e-09
5.19112e-07
7.47584e-09
5.19454e-07
7.50714e-09
5.19609e-07
7.28307e-09
5.19613e-07
6.95175e-09
5.19498e-07
6.59381e-09
5.19293e-07
6.26242e-09
5.19021e-07
5.98866e-09
5.18697e-07
5.78899e-09
5.18332e-07
5.67403e-09
5.17932e-07
5.65206e-09
5.17507e-07
5.73527e-09
5.17063e-07
5.9338e-09
6.26554e-09
5.1663e-07
5.54202e-07
-1.3634e-09
5.54233e-07
1.41426e-09
5.54575e-07
3.42205e-09
5.55096e-07
4.9894e-09
5.55727e-07
6.257e-09
5.56296e-07
6.90667e-09
5.5672e-07
7.08318e-09
5.56992e-07
7.01082e-09
5.57129e-07
6.8151e-09
5.57151e-07
6.57169e-09
5.5708e-07
6.33331e-09
5.56935e-07
6.13355e-09
5.56732e-07
5.99261e-09
5.56482e-07
5.924e-09
5.56196e-07
5.93782e-09
5.55887e-07
6.0444e-09
5.55569e-07
6.25169e-09
6.56505e-09
5.5527e-07
5.94297e-07
-6.83275e-10
5.94284e-07
1.42735e-09
5.94554e-07
3.1527e-09
5.95008e-07
4.53513e-09
5.95592e-07
5.67322e-09
5.96161e-07
6.33779e-09
5.96633e-07
6.61113e-09
5.96988e-07
6.65587e-09
5.97228e-07
6.5749e-09
5.97364e-07
6.43534e-09
5.97411e-07
6.2861e-09
5.97385e-07
6.1603e-09
5.97298e-07
6.07934e-09
5.97164e-07
6.05774e-09
5.96996e-07
6.10582e-09
5.96809e-07
6.23174e-09
5.9662e-07
6.44029e-09
6.72965e-09
5.96456e-07
6.37212e-07
-2.13939e-10
6.37189e-07
1.44985e-09
6.37416e-07
2.92619e-09
6.37818e-07
4.13277e-09
6.38354e-07
5.13719e-09
6.38909e-07
5.78306e-09
6.39407e-07
6.11352e-09
6.39819e-07
6.24351e-09
6.40139e-07
6.25478e-09
6.4037e-07
6.20439e-09
6.40521e-07
6.13548e-09
6.40602e-07
6.0786e-09
6.40627e-07
6.05435e-09
6.40608e-07
6.07673e-09
6.40559e-07
6.15512e-09
6.40495e-07
6.29542e-09
6.40436e-07
6.49938e-09
6.76155e-09
6.40404e-07
5.7382e-07
4.98755e-11
5.73808e-07
1.46115e-09
5.73987e-07
2.74778e-09
5.74301e-07
3.81848e-09
5.74723e-07
4.71563e-09
5.75177e-07
5.32842e-09
5.75608e-07
5.68317e-09
5.75987e-07
5.86401e-09
5.76306e-07
5.93632e-09
5.76561e-07
5.94859e-09
5.76758e-07
5.93844e-09
5.76904e-07
5.93325e-09
5.77006e-07
5.95185e-09
5.77076e-07
6.00699e-09
5.77124e-07
6.10668e-09
5.77165e-07
6.25498e-09
5.77212e-07
6.45177e-09
6.68962e-09
5.77284e-07
6.99624e-07
2.41127e-10
6.99648e-07
1.43732e-09
6.99849e-07
2.54669e-09
7.00191e-07
3.47693e-09
7.00648e-07
4.25814e-09
7.01154e-07
4.82255e-09
7.01653e-07
5.18439e-09
7.02115e-07
5.40229e-09
7.02525e-07
5.52637e-09
7.02878e-07
5.59563e-09
7.03175e-07
5.64113e-09
7.03422e-07
5.68593e-09
7.03628e-07
5.74614e-09
7.03802e-07
5.83239e-09
7.03958e-07
5.95084e-09
7.0411e-07
6.10369e-09
7.04272e-07
6.28914e-09
6.49936e-09
7.04462e-07
8.52976e-07
3.49915e-10
8.53051e-07
1.36176e-09
8.53295e-07
2.30279e-09
8.53679e-07
3.09376e-09
8.5418e-07
3.75635e-09
8.54744e-07
4.2591e-09
8.55318e-07
4.61016e-09
8.55872e-07
4.84848e-09
8.56387e-07
5.01077e-09
8.56856e-07
5.12662e-09
8.57278e-07
5.21987e-09
8.57655e-07
5.30852e-09
8.57996e-07
5.40508e-09
8.58311e-07
5.51748e-09
8.58612e-07
5.64973e-09
8.58914e-07
5.80231e-09
8.5923e-07
5.97232e-09
6.15257e-09
8.59577e-07
1.03989e-06
3.77147e-10
1.04004e-06
1.21939e-09
1.04035e-06
1.99306e-09
1.04079e-06
2.64573e-09
1.04136e-06
3.19105e-09
1.042e-06
3.62186e-09
1.04266e-06
3.94536e-09
1.04332e-06
4.18646e-09
1.04396e-06
4.37059e-09
1.04457e-06
4.51867e-09
1.04514e-06
4.64744e-09
1.04568e-06
4.76948e-09
1.0462e-06
4.89331e-09
1.04669e-06
5.02386e-09
1.04718e-06
5.16301e-09
1.04767e-06
5.30989e-09
1.04818e-06
5.46115e-09
5.61081e-09
1.04872e-06
1.26772e-06
3.35082e-10
1.26794e-06
9.97991e-10
1.26834e-06
1.59567e-09
1.26888e-06
2.10372e-09
1.26954e-06
2.53052e-09
1.27028e-06
2.88042e-09
1.27107e-06
3.161e-09
1.27187e-06
3.38763e-09
1.27266e-06
3.57637e-09
1.27344e-06
3.74041e-09
1.2742e-06
3.88997e-09
1.27493e-06
4.03238e-09
1.27566e-06
4.17222e-09
1.27637e-06
4.3116e-09
1.27708e-06
4.45053e-09
1.2778e-06
4.58725e-09
1.27855e-06
4.71853e-09
4.8398e-09
1.27932e-06
1.54541e-06
2.40206e-10
1.54572e-06
6.91494e-10
1.54622e-06
1.09138e-09
1.54689e-06
1.4359e-09
1.54769e-06
1.73274e-09
1.54858e-06
1.98882e-09
1.54953e-06
2.21038e-09
1.55051e-06
2.40554e-09
1.55151e-06
2.58221e-09
1.5525e-06
2.74652e-09
1.55349e-06
2.90266e-09
1.55447e-06
3.05316e-09
1.55544e-06
3.199e-09
1.55641e-06
3.33983e-09
1.55739e-06
3.47421e-09
1.55838e-06
3.5999e-09
1.55938e-06
3.71405e-09
3.81339e-09
1.56041e-06
1.8839e-06
1.06557e-10
1.88429e-06
2.9928e-10
1.88492e-06
4.62306e-10
1.88575e-06
6.07608e-10
1.88673e-06
7.47061e-10
1.88784e-06
8.86248e-10
1.88902e-06
1.0278e-09
1.89025e-06
1.17316e-09
1.89151e-06
1.3223e-09
1.89278e-06
1.47404e-09
1.89406e-06
1.62662e-09
1.89533e-06
1.7779e-09
1.89661e-06
1.92547e-09
1.89788e-06
2.06674e-09
1.89916e-06
2.19906e-09
1.90044e-06
2.31979e-09
1.90172e-06
2.42645e-09
2.5167e-09
1.90302e-06
2.29649e-06
-4.80656e-11
2.29695e-06
-1.63991e-10
2.29772e-06
-3.03957e-10
2.29875e-06
-4.19978e-10
2.29998e-06
-4.88947e-10
2.30138e-06
-5.0811e-10
2.30288e-06
-4.78e-10
2.30446e-06
-4.03906e-10
2.30608e-06
-2.95487e-10
2.30771e-06
-1.6292e-10
2.30936e-06
-1.50873e-11
2.31099e-06
1.40463e-10
2.31262e-06
2.97374e-10
2.31424e-06
4.50412e-10
2.31584e-06
5.95365e-10
2.31743e-06
7.28903e-10
2.31901e-06
8.48452e-10
9.52075e-10
2.32057e-06
1.68113e-06
-1.03743e-10
1.68139e-06
-4.2801e-10
1.68192e-06
-8.30403e-10
1.68267e-06
-1.17458e-09
1.68361e-06
-1.4285e-09
1.68469e-06
-1.59036e-09
1.68587e-06
-1.65669e-09
1.68711e-06
-1.63847e-09
1.68837e-06
-1.5562e-09
1.68963e-06
-1.42916e-09
1.69089e-06
-1.27291e-09
1.69213e-06
-1.1001e-09
1.69335e-06
-9.20823e-10
1.69454e-06
-7.42789e-10
1.69571e-06
-5.71723e-10
1.69685e-06
-4.11769e-10
1.69797e-06
-2.6583e-10
-1.35923e-10
1.69905e-06
1.46336e-06
-1.15533e-11
1.46345e-06
-5.17596e-10
1.46386e-06
-1.23313e-09
1.46452e-06
-1.83352e-09
1.46539e-06
-2.30046e-09
1.46642e-06
-2.62401e-09
1.46755e-06
-2.78599e-09
1.46872e-06
-2.80975e-09
1.4699e-06
-2.73446e-09
1.47106e-06
-2.59203e-09
1.4722e-06
-2.40651e-09
1.47329e-06
-2.19693e-09
1.47435e-06
-1.97773e-09
1.47537e-06
-1.75926e-09
1.47634e-06
-1.54869e-09
1.47728e-06
-1.35085e-09
1.47819e-06
-1.16883e-09
-1.00454e-09
1.47905e-06
1.27363e-06
3.68497e-10
1.27351e-06
-3.90625e-10
1.27381e-06
-1.53859e-09
1.27442e-06
-2.44372e-09
1.27529e-06
-3.17102e-09
1.27634e-06
-3.675e-09
1.27747e-06
-3.91433e-09
1.27861e-06
-3.94565e-09
1.27971e-06
-3.8405e-09
1.28077e-06
-3.64791e-09
1.28177e-06
-3.40263e-09
1.2827e-06
-3.13117e-09
1.28357e-06
-2.85237e-09
1.28439e-06
-2.57865e-09
1.28516e-06
-2.31784e-09
1.28589e-06
-2.07471e-09
1.28657e-06
-1.85188e-09
-1.65064e-09
1.28722e-06
1.10825e-06
1.21182e-09
1.1079e-06
-4.38453e-11
1.10818e-06
-1.81786e-09
1.10883e-06
-3.08962e-09
1.10979e-06
-4.13074e-09
1.11092e-06
-4.80792e-09
1.11207e-06
-5.0683e-09
1.11317e-06
-5.04247e-09
1.11418e-06
-4.85033e-09
1.11509e-06
-4.56081e-09
1.11591e-06
-4.22006e-09
1.11664e-06
-3.86161e-09
1.1173e-06
-3.50705e-09
1.11789e-06
-3.16883e-09
1.11842e-06
-2.85373e-09
1.11891e-06
-2.56502e-09
1.11936e-06
-2.30371e-09
-2.06969e-09
1.11978e-06
9.64049e-07
2.6845e-09
9.63545e-07
4.59678e-10
9.63908e-07
-2.18064e-09
9.64695e-07
-3.87682e-09
9.6583e-07
-5.26575e-09
9.67074e-07
-6.05178e-09
9.68231e-07
-6.22483e-09
9.69234e-07
-6.04634e-09
9.7008e-07
-5.69571e-09
9.70779e-07
-5.25949e-09
9.71351e-07
-4.79234e-09
9.7182e-07
-4.331e-09
9.72209e-07
-3.89562e-09
9.72535e-07
-3.49509e-09
9.72814e-07
-3.13242e-09
9.73056e-07
-2.80752e-09
9.73271e-07
-2.51851e-09
-2.26306e-09
9.73464e-07
8.38145e-07
5.07506e-09
8.37754e-07
8.50489e-10
8.38382e-07
-2.80895e-09
8.39417e-07
-4.91169e-09
8.40768e-07
-6.61675e-09
8.4208e-07
-7.36334e-09
8.43144e-07
-7.2897e-09
8.43943e-07
-6.84472e-09
8.44513e-07
-6.26535e-09
8.44899e-07
-5.64569e-09
8.45146e-07
-5.03998e-09
8.45295e-07
-4.47986e-09
8.45377e-07
-3.97718e-09
8.45414e-07
-3.53252e-09
8.45424e-07
-3.14214e-09
8.45417e-07
-2.80093e-09
8.45402e-07
-2.5032e-09
-2.24384e-09
8.45383e-07
7.27634e-07
9.16904e-09
7.28122e-07
3.62967e-10
7.29324e-07
-4.01098e-09
7.30709e-07
-6.29696e-09
7.32242e-07
-8.14981e-09
7.33481e-07
-8.60184e-09
7.34277e-07
-8.08546e-09
7.34697e-07
-7.26556e-09
7.34846e-07
-6.41346e-09
7.34809e-07
-5.60869e-09
7.34656e-07
-4.88714e-09
7.34438e-07
-4.26218e-09
7.3419e-07
-3.72917e-09
7.33934e-07
-3.27601e-09
7.33682e-07
-2.89028e-09
7.33442e-07
-2.56132e-09
7.33219e-07
-2.2799e-09
-2.03808e-09
7.33013e-07
6.30219e-07
1.59563e-08
6.3275e-07
-2.16773e-09
6.34736e-07
-5.99687e-09
6.36522e-07
-8.08303e-09
6.38096e-07
-9.72377e-09
6.38997e-07
-9.50297e-09
6.39248e-07
-8.33599e-09
6.39058e-07
-7.07639e-09
6.38617e-07
-5.97164e-09
6.38051e-07
-5.0428e-09
6.37442e-07
-4.27841e-09
6.36838e-07
-3.65832e-09
6.36265e-07
-3.1555e-09
6.35733e-07
-2.74407e-09
6.35246e-07
-2.40392e-09
6.34805e-07
-2.12054e-09
6.34408e-07
-1.88284e-09
-1.68083e-09
6.34051e-07
5.47192e-07
2.33107e-08
5.51825e-07
-6.80125e-09
5.53526e-07
-7.69781e-09
5.55234e-07
-9.79063e-09
5.56334e-07
-1.08234e-08
5.56359e-07
-9.52869e-09
5.55617e-07
-7.59382e-09
5.54508e-07
-5.96708e-09
5.53296e-07
-4.75955e-09
5.52117e-07
-3.86399e-09
5.51029e-07
-3.19082e-09
5.50051e-07
-2.67992e-09
5.49181e-07
-2.28548e-09
5.48411e-07
-1.97376e-09
5.47729e-07
-1.72243e-09
5.47127e-07
-1.51802e-09
5.46595e-07
-1.3512e-09
-1.21344e-09
5.46128e-07
4.91615e-07
1.44567e-08
4.907e-07
-5.88678e-09
4.87265e-07
-4.26269e-09
4.86305e-07
-8.83034e-09
4.84863e-07
-9.38154e-09
4.82526e-07
-7.1917e-09
4.79885e-07
-4.9527e-09
4.7739e-07
-3.47167e-09
4.75211e-07
-2.58069e-09
4.73362e-07
-2.01579e-09
4.71804e-07
-1.63186e-09
4.70483e-07
-1.35941e-09
4.69356e-07
-1.15811e-09
4.68385e-07
-1.00273e-09
4.67541e-07
-8.79217e-10
4.66806e-07
-7.82378e-10
4.66168e-07
-7.1393e-10
-7.20033e-10
4.65675e-07
4.34724e-07
4.28838e-07
4.24575e-07
4.15745e-07
4.06363e-07
3.99171e-07
3.94219e-07
3.90747e-07
3.88166e-07
3.8615e-07
3.84519e-07
3.83159e-07
3.82001e-07
3.80998e-07
3.80119e-07
3.79337e-07
3.78623e-07
3.77903e-07
1.74103e-08
-1.74103e-08
3.12451e-08
-1.38348e-08
3.8289e-08
-7.04387e-09
3.89254e-08
-6.36354e-10
3.41585e-08
4.7669e-09
2.55882e-08
8.57029e-09
1.48303e-08
1.07579e-08
2.86829e-09
1.1962e-08
-1.01596e-08
1.30278e-08
-2.45027e-08
1.43431e-08
-4.03071e-08
1.58044e-08
-5.75897e-08
1.72826e-08
-7.62491e-08
1.86595e-08
-9.60916e-08
1.98425e-08
-1.16861e-07
2.07691e-08
-1.38266e-07
2.14054e-08
-1.60009e-07
2.17428e-08
-1.81802e-07
2.17931e-08
-2.03385e-07
2.15833e-08
-2.24535e-07
2.11501e-08
-2.45071e-07
2.05352e-08
-2.64852e-07
1.97811e-08
-2.8378e-07
1.89283e-08
-3.01793e-07
1.80132e-08
-3.1886e-07
1.70669e-08
-3.34975e-07
1.61146e-08
-3.50151e-07
1.51758e-08
-3.64415e-07
1.42646e-08
-3.77805e-07
1.33903e-08
-3.90364e-07
1.25583e-08
-4.02135e-07
1.17709e-08
-4.13162e-07
1.10277e-08
-4.23489e-07
1.03265e-08
-4.33153e-07
9.66399e-09
-4.42189e-07
9.03567e-09
-4.50625e-07
8.43662e-09
-4.58487e-07
7.86156e-09
-4.65792e-07
7.30507e-09
-4.72553e-07
6.7617e-09
-4.78779e-07
6.22602e-09
-4.84472e-07
5.69271e-09
-4.89629e-07
5.15654e-09
-4.94241e-07
4.61245e-09
-4.98297e-07
4.05569e-09
-5.01779e-07
3.48178e-09
-5.04665e-07
2.88649e-09
-5.06931e-07
2.26623e-09
-5.0855e-07
1.61841e-09
-5.09493e-07
9.43485e-10
-5.09751e-07
2.57248e-10
-5.09352e-07
-3.98554e-10
-5.08337e-07
-1.0153e-09
-5.06713e-07
-1.62331e-09
-5.04475e-07
-2.23868e-09
-5.01606e-07
-2.86913e-09
-4.98088e-07
-3.51769e-09
-4.93903e-07
-4.18518e-09
-4.89031e-07
-4.87122e-09
-4.83457e-07
-5.5746e-09
-4.77163e-07
-6.29352e-09
-4.70138e-07
-7.02567e-09
-4.62369e-07
-7.76829e-09
-4.53851e-07
-8.51821e-09
-4.44579e-07
-9.27191e-09
-4.34554e-07
-1.00255e-08
-4.23779e-07
-1.07748e-08
-4.12263e-07
-1.15155e-08
-4.0002e-07
-1.2243e-08
-3.87068e-07
-1.29528e-08
-3.73428e-07
-1.36402e-08
-3.59127e-07
-1.43007e-08
-3.44197e-07
-1.49299e-08
-3.28673e-07
-1.55238e-08
-3.12595e-07
-1.60785e-08
-2.96004e-07
-1.65905e-08
-2.78947e-07
-1.7057e-08
-2.61472e-07
-1.74755e-08
-2.43628e-07
-1.78439e-08
-2.25467e-07
-1.8161e-08
-2.07041e-07
-1.84259e-08
-1.88403e-07
-1.86382e-08
-1.69604e-07
-1.87983e-08
-1.50698e-07
-1.89068e-08
-1.31733e-07
-1.89646e-08
-1.1276e-07
-1.89732e-08
-9.38263e-08
-1.89334e-08
-7.49805e-08
-1.88458e-08
-5.62711e-08
-1.87094e-08
-3.77504e-08
-1.85207e-08
-1.94694e-08
-1.8281e-08
-1.44555e-09
-1.80238e-08
1.63272e-08
-1.77727e-08
3.38241e-08
-1.74969e-08
5.10089e-08
-1.71848e-08
6.78597e-08
-1.68509e-08
8.43603e-08
-1.65005e-08
1.00498e-07
-1.61373e-08
1.16262e-07
-1.57639e-08
1.31644e-07
-1.53829e-08
1.46641e-07
-1.49964e-08
1.61247e-07
-1.46065e-08
1.75462e-07
-1.42151e-08
1.89286e-07
-1.3824e-08
2.02721e-07
-1.34347e-08
2.15769e-07
-1.30485e-08
2.28436e-07
-1.26667e-08
2.40726e-07
-1.22901e-08
2.52646e-07
-1.19195e-08
2.64201e-07
-1.15554e-08
2.75399e-07
-1.11981e-08
2.86247e-07
-1.08478e-08
2.96751e-07
-1.05044e-08
3.06919e-07
-1.01676e-08
3.16756e-07
-9.83708e-09
3.26268e-07
-9.51212e-09
3.3546e-07
-9.19197e-09
3.44336e-07
-8.87571e-09
3.52898e-07
-8.56226e-09
3.61149e-07
-8.25047e-09
3.69088e-07
-7.93909e-09
3.76714e-07
-7.62682e-09
3.84027e-07
-7.31233e-09
3.91021e-07
-6.99434e-09
3.97693e-07
-6.67159e-09
4.04036e-07
-6.34298e-09
4.10043e-07
-6.00754e-09
4.15708e-07
-5.66447e-09
4.21021e-07
-5.31329e-09
4.25975e-07
-4.95378e-09
4.30561e-07
-4.58603e-09
4.34771e-07
-4.21057e-09
4.386e-07
-3.82822e-09
4.4204e-07
-3.44024e-09
4.45088e-07
-3.04814e-09
4.47742e-07
-2.65352e-09
4.49999e-07
-2.25735e-09
4.51857e-07
-1.85827e-09
4.53306e-07
-1.4485e-09
4.54315e-07
-1.00925e-09
4.54837e-07
-5.224e-10
4.54872e-07
-3.42666e-11
4.54505e-07
3.66417e-10
4.53842e-07
6.62657e-10
4.52952e-07
8.90507e-10
4.51879e-07
1.07307e-09
4.50658e-07
1.22095e-09
4.49318e-07
1.33999e-09
4.47884e-07
1.43377e-09
4.46379e-07
1.50498e-09
4.44823e-07
1.55604e-09
4.43234e-07
1.58934e-09
4.41627e-07
1.60721e-09
4.40015e-07
1.61195e-09
4.38409e-07
1.60572e-09
4.36818e-07
1.59063e-09
4.3525e-07
1.56859e-09
4.33708e-07
1.54143e-09
4.32197e-07
1.51081e-09
4.30719e-07
1.4783e-09
4.29274e-07
1.44535e-09
4.2786e-07
1.41336e-09
4.26477e-07
1.38371e-09
4.25119e-07
1.35782e-09
4.23782e-07
1.3372e-09
4.22458e-07
1.32358e-09
4.21139e-07
1.31907e-09
4.19813e-07
1.32628e-09
4.18464e-07
1.34871e-09
4.17073e-07
1.39117e-09
4.15612e-07
1.46048e-09
4.14046e-07
1.56679e-09
4.1232e-07
1.72563e-09
4.10358e-07
1.96218e-09
4.08039e-07
2.31879e-09
4.05165e-07
2.87424e-09
4.01392e-07
3.77246e-09
3.96031e-07
5.36169e-09
3.87861e-07
8.16997e-09
3.7329e-07
1.45707e-08
2.38611e-08
3.49429e-07
5.50487e-09
-2.29152e-08
1.94583e-09
-1.02758e-08
-4.87448e-09
-2.23551e-10
-1.35243e-08
8.0135e-09
-2.37044e-08
1.49469e-08
-3.57437e-08
2.06097e-08
-5.00225e-08
2.50367e-08
-6.66183e-08
2.85577e-08
-8.51662e-08
3.15758e-08
-1.0512e-07
3.4297e-08
-1.2603e-07
3.67141e-08
-1.47485e-07
3.87377e-08
-1.69105e-07
4.028e-08
-1.90548e-07
4.12853e-08
-2.11518e-07
4.17384e-08
-2.31773e-07
4.1661e-08
-2.51135e-07
4.11041e-08
-2.69479e-07
4.0138e-08
-2.86739e-07
3.8843e-08
-3.0289e-07
3.73014e-08
-3.17946e-07
3.55911e-08
-3.31947e-07
3.37815e-08
-3.44949e-07
3.19307e-08
-3.57021e-07
3.00853e-08
-3.68235e-07
2.82803e-08
-3.7866e-07
2.65402e-08
-3.88365e-07
2.48807e-08
-3.9741e-07
2.33099e-08
-4.0585e-07
2.18305e-08
-4.13733e-07
2.04406e-08
-4.21097e-07
1.91353e-08
-4.27977e-07
1.79077e-08
-4.344e-07
1.67495e-08
-4.40388e-07
1.56519e-08
-4.45958e-07
1.46055e-08
-4.51123e-07
1.36013e-08
-4.55892e-07
1.26305e-08
-4.60271e-07
1.16846e-08
-4.64265e-07
1.07558e-08
-4.67876e-07
9.83649e-09
-4.71103e-07
8.92006e-09
-4.73947e-07
8.00034e-09
-4.76406e-07
7.07194e-09
-4.78481e-07
6.13025e-09
-4.80171e-07
5.17155e-09
-4.81477e-07
4.19313e-09
-4.82405e-07
3.19384e-09
-4.82961e-07
2.17455e-09
-4.83156e-07
1.13837e-09
-4.82986e-07
8.70138e-11
-4.82394e-07
-9.90542e-10
-4.81302e-07
-2.10686e-09
-4.79662e-07
-3.26365e-09
-4.77439e-07
-4.461e-09
-4.74609e-07
-5.6993e-09
-4.71149e-07
-6.97832e-09
-4.67037e-07
-8.29698e-09
-4.62255e-07
-9.65326e-09
-4.56785e-07
-1.10443e-08
-4.50613e-07
-1.24661e-08
-4.43724e-07
-1.39143e-08
-4.36109e-07
-1.53831e-08
-4.27761e-07
-1.68664e-08
-4.18676e-07
-1.83572e-08
-4.08853e-07
-1.98479e-08
-3.98298e-07
-2.13302e-08
-3.87018e-07
-2.27956e-08
-3.75026e-07
-2.42352e-08
-3.62338e-07
-2.56399e-08
-3.48978e-07
-2.70007e-08
-3.3497e-07
-2.83087e-08
-3.20345e-07
-2.95553e-08
-3.05136e-07
-3.07324e-08
-2.89382e-07
-3.18325e-08
-2.73124e-07
-3.28489e-08
-2.56405e-07
-3.37757e-08
-2.39272e-07
-3.4608e-08
-2.21774e-07
-3.5342e-08
-2.0396e-07
-3.59749e-08
-1.85881e-07
-3.6505e-08
-1.67588e-07
-3.69316e-08
-1.49131e-07
-3.72552e-08
-1.30561e-07
-3.7477e-08
-1.11926e-07
-3.75993e-08
-9.32745e-08
-3.76248e-08
-7.46511e-08
-3.75568e-08
-5.60985e-08
-3.73985e-08
-3.76551e-08
-3.71528e-08
-1.93527e-08
-3.68231e-08
-1.21518e-09
-3.64185e-08
1.67156e-08
-3.59546e-08
3.43842e-08
-3.54414e-08
5.17666e-08
-3.48792e-08
6.88527e-08
-3.42709e-08
8.56259e-08
-3.36241e-08
1.02071e-07
-3.29452e-08
1.18173e-07
-3.22398e-08
1.33922e-07
-3.15132e-08
1.49309e-07
-3.077e-08
1.64328e-07
-3.00148e-08
1.78973e-07
-2.92517e-08
1.93243e-07
-2.84845e-08
2.07135e-07
-2.77168e-08
2.20652e-07
-2.69515e-08
2.33795e-07
-2.61915e-08
2.46568e-07
-2.54391e-08
2.58974e-07
-2.46961e-08
2.71018e-07
-2.39642e-08
2.82707e-07
-2.32444e-08
2.94047e-07
-2.25375e-08
3.05043e-07
-2.18438e-08
3.15702e-07
-2.11634e-08
3.2603e-07
-2.04958e-08
3.36033e-07
-1.98403e-08
3.45717e-07
-1.91958e-08
3.55086e-07
-1.85609e-08
3.64144e-07
-1.79339e-08
3.72895e-07
-1.73129e-08
3.8134e-07
-1.66957e-08
3.89481e-07
-1.608e-08
3.97317e-07
-1.54634e-08
4.04848e-07
-1.48433e-08
4.12071e-07
-1.42173e-08
4.18983e-07
-1.35831e-08
4.25578e-07
-1.29385e-08
4.31852e-07
-1.22816e-08
4.37799e-07
-1.16109e-08
4.43411e-07
-1.09252e-08
4.48681e-07
-1.02241e-08
4.53603e-07
-9.50756e-09
4.58168e-07
-8.77634e-09
4.62372e-07
-8.03181e-09
4.66208e-07
-7.27605e-09
4.69671e-07
-6.51163e-09
4.72759e-07
-5.74139e-09
4.75469e-07
-4.96771e-09
4.77803e-07
-4.19138e-09
4.79765e-07
-3.41073e-09
4.8138e-07
-2.62424e-09
4.82699e-07
-1.84205e-09
4.83755e-07
-1.08944e-09
4.84515e-07
-3.94206e-10
4.84952e-07
2.25864e-10
4.85074e-07
7.68949e-10
4.84904e-07
1.24227e-09
4.84473e-07
1.65237e-09
4.83809e-07
2.00427e-09
4.82941e-07
2.30197e-09
4.81896e-07
2.54903e-09
4.80704e-07
2.74901e-09
4.79387e-07
2.90565e-09
4.77972e-07
3.02291e-09
4.76479e-07
3.1049e-09
4.74928e-07
3.15586e-09
4.73339e-07
3.18001e-09
4.71726e-07
3.18156e-09
4.70103e-07
3.16453e-09
4.68481e-07
3.13286e-09
4.66869e-07
3.09026e-09
4.65274e-07
3.04026e-09
4.63701e-07
2.98627e-09
4.62153e-07
2.93154e-09
4.60632e-07
2.87933e-09
4.59136e-07
2.83295e-09
4.57664e-07
2.79593e-09
4.5621e-07
2.77229e-09
4.5477e-07
2.76677e-09
4.53333e-07
2.78533e-09
4.51889e-07
2.83581e-09
4.5042e-07
2.92905e-09
4.48906e-07
3.08052e-09
4.47319e-07
3.31331e-09
4.45617e-07
3.66359e-09
4.43746e-07
4.18975e-09
4.41624e-07
4.9962e-09
4.39136e-07
6.26113e-09
4.36097e-07
8.4006e-09
4.32247e-07
1.202e-08
4.27189e-07
1.96283e-08
3.31447e-08
4.17906e-07
-1.08249e-08
-1.20903e-08
-2.33469e-08
2.2463e-09
-3.61271e-08
1.25567e-08
-4.93893e-08
2.12757e-08
-6.33121e-08
2.88697e-08
-7.81034e-08
3.5401e-08
-9.39705e-08
4.09038e-08
-1.10906e-07
4.54931e-08
-1.2863e-07
4.92996e-08
-1.46724e-07
5.23912e-08
-1.64781e-07
5.4771e-08
-1.82463e-07
5.64199e-08
-1.99517e-07
5.73342e-08
-2.15774e-07
5.75424e-08
-2.31141e-07
5.71048e-08
-2.45586e-07
5.61061e-08
-2.59126e-07
5.46446e-08
-2.71811e-07
5.28229e-08
-2.83708e-07
5.07397e-08
-2.94891e-07
4.84846e-08
-3.05435e-07
4.61346e-08
-3.15406e-07
4.37531e-08
-3.24865e-07
4.13896e-08
-3.33861e-07
3.90811e-08
-3.42434e-07
3.6853e-08
-3.50615e-07
3.47216e-08
-3.5843e-07
3.26955e-08
-3.65897e-07
3.07772e-08
-3.73031e-07
2.89646e-08
-3.79843e-07
2.72524e-08
-3.86341e-07
2.56329e-08
-3.9253e-07
2.40971e-08
-3.98416e-07
2.26349e-08
-4.03999e-07
2.12358e-08
-4.09283e-07
1.98894e-08
-4.14267e-07
1.85853e-08
-4.1895e-07
1.73134e-08
-4.2333e-07
1.60643e-08
-4.27403e-07
1.48289e-08
-4.31165e-07
1.35986e-08
-4.34611e-07
1.23656e-08
-4.37733e-07
1.11227e-08
-4.40525e-07
9.8634e-09
-4.42976e-07
8.5818e-09
-4.45077e-07
7.27276e-09
-4.46816e-07
5.93176e-09
-4.48177e-07
4.55493e-09
-4.49141e-07
3.13878e-09
-4.49682e-07
1.67946e-09
-4.49766e-07
1.70968e-10
-4.49361e-07
-1.39538e-09
-4.48443e-07
-3.02558e-09
-4.46985e-07
-4.72101e-09
-4.44965e-07
-6.48175e-09
-4.42357e-07
-8.30703e-09
-4.3914e-07
-1.01954e-08
-4.35293e-07
-1.21443e-08
-4.30795e-07
-1.41504e-08
-4.25631e-07
-1.62091e-08
-4.19782e-07
-1.83144e-08
-4.13237e-07
-2.04594e-08
-4.05985e-07
-2.26357e-08
-3.98017e-07
-2.48342e-08
-3.8933e-07
-2.70444e-08
-3.79923e-07
-2.92548e-08
-3.69799e-07
-3.14535e-08
-3.58967e-07
-3.36276e-08
-3.47439e-07
-3.57639e-08
-3.3523e-07
-3.7849e-08
-3.22361e-07
-3.98694e-08
-3.08858e-07
-4.18119e-08
-2.94749e-07
-4.36639e-08
-2.80068e-07
-4.54133e-08
-2.64852e-07
-4.70491e-08
-2.49139e-07
-4.85612e-08
-2.32974e-07
-4.9941e-08
-2.16401e-07
-5.11813e-08
-1.99467e-07
-5.22763e-08
-1.8222e-07
-5.32219e-08
-1.64709e-07
-5.40156e-08
-1.46984e-07
-5.46564e-08
-1.29094e-07
-5.5145e-08
-1.11088e-07
-5.54833e-08
-9.30125e-08
-5.56748e-08
-7.49136e-08
-5.57237e-08
-5.68347e-08
-5.56357e-08
-3.88162e-08
-5.54169e-08
-2.08945e-08
-5.50745e-08
-3.10076e-09
-5.46168e-08
1.45332e-08
-5.40525e-08
3.19714e-08
-5.33928e-08
4.91795e-08
-5.26494e-08
6.61312e-08
-5.18309e-08
8.28063e-08
-5.0946e-08
9.91859e-08
-5.00037e-08
1.15254e-07
-4.90128e-08
1.30995e-07
-4.79812e-08
1.46398e-07
-4.69167e-08
1.61455e-07
-4.58263e-08
1.76157e-07
-4.47169e-08
1.905e-07
-4.35947e-08
2.04481e-07
-4.24654e-08
2.18098e-07
-4.13341e-08
2.31352e-07
-4.02056e-08
2.44244e-07
-3.90837e-08
2.56777e-07
-3.79721e-08
2.68955e-07
-3.68737e-08
2.80782e-07
-3.57907e-08
2.92262e-07
-3.4725e-08
3.03402e-07
-3.36777e-08
3.14208e-07
-3.26495e-08
3.24685e-07
-3.16404e-08
3.34839e-07
-3.065e-08
3.44676e-07
-2.96773e-08
3.54201e-07
-2.87209e-08
3.63419e-07
-2.77788e-08
3.72334e-07
-2.68488e-08
3.80949e-07
-2.59281e-08
3.89267e-07
-2.50137e-08
3.9729e-07
-2.41022e-08
4.05017e-07
-2.31904e-08
4.12448e-07
-2.22745e-08
4.19582e-07
-2.13512e-08
4.26416e-07
-2.04171e-08
4.32946e-07
-1.9469e-08
4.39169e-07
-1.85042e-08
4.45078e-07
-1.75204e-08
4.50669e-07
-1.6516e-08
4.55935e-07
-1.54901e-08
4.6087e-07
-1.44427e-08
4.65468e-07
-1.33744e-08
4.69724e-07
-1.22872e-08
4.73631e-07
-1.11837e-08
4.77187e-07
-1.00675e-08
4.80388e-07
-8.94253e-09
4.83234e-07
-7.81308e-09
4.85725e-07
-6.68296e-09
4.87871e-07
-5.5561e-09
4.89686e-07
-4.43939e-09
4.91191e-07
-3.34697e-09
4.92398e-07
-2.29694e-09
4.9331e-07
-1.30617e-09
4.93925e-07
-3.88886e-10
4.94247e-07
4.46662e-10
4.94291e-07
1.19839e-09
4.94076e-07
1.86724e-09
4.93625e-07
2.45526e-09
4.92962e-07
2.96503e-09
4.92112e-07
3.3996e-09
4.91098e-07
3.76264e-09
4.89945e-07
4.05844e-09
4.88676e-07
4.29188e-09
4.87313e-07
4.46838e-09
4.85875e-07
4.5937e-09
4.84381e-07
4.67384e-09
4.82848e-07
4.71491e-09
4.81289e-07
4.72299e-09
4.79718e-07
4.70406e-09
4.78144e-07
4.66391e-09
4.76577e-07
4.60814e-09
4.75021e-07
4.54212e-09
4.73481e-07
4.47108e-09
4.7196e-07
4.40018e-09
4.70459e-07
4.33461e-09
4.68975e-07
4.27986e-09
4.67505e-07
4.24194e-09
4.66044e-07
4.22786e-09
4.64583e-07
4.24619e-09
4.63111e-07
4.30795e-09
4.61612e-07
4.42806e-09
4.60065e-07
4.62747e-09
4.58442e-07
4.93684e-09
4.56702e-07
5.40303e-09
4.54792e-07
6.10004e-09
4.52634e-07
7.15402e-09
4.5012e-07
8.77555e-09
4.4712e-07
1.14006e-08
4.43444e-07
1.56958e-08
4.39436e-07
2.36363e-08
3.72249e-08
4.35356e-07
-1.84987e-08
6.40833e-09
-3.5592e-08
1.93396e-08
-5.17741e-08
2.87388e-08
-6.74533e-08
3.69549e-08
-8.29024e-08
4.43188e-08
-9.83074e-08
5.0806e-08
-1.13755e-07
5.63512e-08
-1.2919e-07
6.09287e-08
-1.44441e-07
6.45503e-08
-1.59291e-07
6.72406e-08
-1.73549e-07
6.90298e-08
-1.87091e-07
6.99612e-08
-1.99857e-07
7.01002e-08
-2.11848e-07
6.95342e-08
-2.2311e-07
6.83667e-08
-2.33713e-07
6.67086e-08
-2.43738e-07
6.46696e-08
-2.53267e-07
6.23524e-08
-2.62375e-07
5.98478e-08
-2.71124e-07
5.72336e-08
-2.79563e-07
5.45736e-08
-2.87729e-07
5.19183e-08
-2.95645e-07
4.93058e-08
-3.03328e-07
4.6764e-08
-3.10786e-07
4.43114e-08
-3.18024e-07
4.19593e-08
-3.25041e-07
3.9713e-08
-3.31837e-07
3.75728e-08
-3.38408e-07
3.55355e-08
-3.4475e-07
3.35953e-08
-3.50862e-07
3.17442e-08
-3.56738e-07
2.99731e-08
-3.62375e-07
2.82719e-08
-3.67769e-07
2.66299e-08
-3.72916e-07
2.50364e-08
-3.77811e-07
2.34805e-08
-3.82449e-07
2.19516e-08
-3.86824e-07
2.04393e-08
-3.90929e-07
1.89337e-08
-3.94756e-07
1.74251e-08
-3.98294e-07
1.59045e-08
-4.01535e-07
1.43632e-08
-4.04465e-07
1.27932e-08
-4.0707e-07
1.11869e-08
-4.09334e-07
9.53722e-09
-4.1124e-07
7.83757e-09
-4.12767e-07
6.08167e-09
-4.13891e-07
4.26353e-09
-4.14589e-07
2.37702e-09
-4.14834e-07
4.15655e-10
-4.14602e-07
-1.62689e-09
-4.13873e-07
-3.75506e-09
-4.12623e-07
-5.97098e-09
-4.10829e-07
-8.27514e-09
-4.0847e-07
-1.06667e-08
-4.05521e-07
-1.31436e-08
-4.01963e-07
-1.57025e-08
-3.97775e-07
-1.83387e-08
-3.92938e-07
-2.10459e-08
-3.87436e-07
-2.38162e-08
-3.81256e-07
-2.66403e-08
-3.74384e-07
-2.95071e-08
-3.66814e-07
-3.24043e-08
-3.5854e-07
-3.53181e-08
-3.49562e-07
-3.82332e-08
-3.39882e-07
-4.11336e-08
-3.29507e-07
-4.40023e-08
-3.18449e-07
-4.68217e-08
-3.06724e-07
-4.95741e-08
-2.94352e-07
-5.22415e-08
-2.81358e-07
-5.48065e-08
-2.67769e-07
-5.72522e-08
-2.5362e-07
-5.95629e-08
-2.38945e-07
-6.17237e-08
-2.23784e-07
-6.37217e-08
-2.0818e-07
-6.55455e-08
-1.92176e-07
-6.71854e-08
-1.75818e-07
-6.8634e-08
-1.59154e-07
-6.98861e-08
-1.42231e-07
-7.09383e-08
-1.25098e-07
-7.17895e-08
-1.07802e-07
-7.24407e-08
-9.03913e-08
-7.28946e-08
-7.29102e-08
-7.31558e-08
-5.54033e-08
-7.32306e-08
-3.79124e-08
-7.31266e-08
-2.04764e-08
-7.28529e-08
-3.13143e-09
-7.24195e-08
1.40883e-08
-7.18366e-08
3.11515e-08
-7.11157e-08
4.80285e-08
-7.02699e-08
6.46908e-08
-6.93117e-08
8.1113e-08
-6.82531e-08
9.7273e-08
-6.7106e-08
1.13151e-07
-6.58821e-08
1.28731e-07
-6.45928e-08
1.43999e-07
-6.32488e-08
1.58943e-07
-6.18603e-08
1.73553e-07
-6.04368e-08
1.87823e-07
-5.89872e-08
2.01749e-07
-5.75198e-08
2.15325e-07
-5.6042e-08
2.28552e-07
-5.45608e-08
2.41428e-07
-5.30821e-08
2.53956e-07
-5.16114e-08
2.66137e-07
-5.01532e-08
2.77975e-07
-4.87115e-08
2.89473e-07
-4.72892e-08
3.00637e-07
-4.58889e-08
3.11472e-07
-4.45122e-08
3.21982e-07
-4.31599e-08
3.32174e-07
-4.18323e-08
3.42053e-07
-4.0529e-08
3.51625e-07
-3.92488e-08
3.60894e-07
-3.799e-08
3.69865e-07
-3.67501e-08
3.78543e-07
-3.55264e-08
3.8693e-07
-3.43154e-08
3.9503e-07
-3.31132e-08
4.02843e-07
-3.19158e-08
4.10372e-07
-3.07189e-08
4.17615e-07
-2.95179e-08