/*--------------------------------*- C++ -*----------------------------------*\
  =========                 |
  \\      /  F ield         | OpenFOAM: The Open Source CFD Toolbox
   \\    /   O peration     | Website:  https://openfoam.org
    \\  /    A nd           | Version:  6
     \\/     M anipulation  |
\*---------------------------------------------------------------------------*/
FoamFile
{
    version     2.0;
    format      ascii;
    class       volVectorField;
    location    "0.21";
    object      U;
}
// * * * * * * * * * * * * * * * * * * * * * * * * * * * * * * * * * * * * * //

dimensions      [0 1 -1 0 0 0 0];

internalField   nonuniform List<vector> 
12225
(
(0.948757 -0.405569 0)
(1.0127 -0.190669 0)
(1.01474 -0.051392 0)
(0.983365 -0.00513998 0)
(0.955299 0.0045271 0)
(0.936849 0.00424126 0)
(0.924576 0.0026026 0)
(0.915837 0.0015078 0)
(0.909272 0.000968122 0)
(0.904021 0.000720156 0)
(0.899562 0.000600835 0)
(0.89562 0.000541753 0)
(0.892036 0.000515513 0)
(0.888712 0.000513391 0)
(0.885477 0.000523753 0)
(0.882572 0.000569855 0)
(0.878622 0.000608022 0)
(0.880001 1.61811e-05 0)
(1.03699 0.0761211 0)
(1.02001 0.0533197 0)
(1.01136 0.0193998 0)
(1.00432 0.00901958 0)
(0.99795 0.00673146 0)
(0.991176 0.00529999 0)
(0.983977 0.00405332 0)
(0.977384 0.00320508 0)
(0.971892 0.00267611 0)
(0.967347 0.002326 0)
(0.963472 0.00208561 0)
(0.960079 0.0019262 0)
(0.957038 0.00182781 0)
(0.954258 0.00178195 0)
(0.951607 0.00176688 0)
(0.949181 0.00185422 0)
(0.946367 0.0016826 0)
(0.944462 0.00244608 0)
(0.998333 0.0132123 0)
(0.995362 0.0119564 0)
(1.00082 0.00641061 0)
(1.00191 0.00652863 0)
(1.00121 0.00703256 0)
(0.999278 0.00635198 0)
(0.995918 0.00529996 0)
(0.992021 0.00443119 0)
(0.988309 0.00380285 0)
(0.984965 0.00334843 0)
(0.981955 0.00302527 0)
(0.979223 0.0028071 0)
(0.976709 0.00267154 0)
(0.974361 0.00260848 0)
(0.972093 0.00260097 0)
(0.969922 0.00269686 0)
(0.967569 0.00272357 0)
(0.96528 0.00314593 0)
(0.995105 -0.00695054 0)
(0.992485 0.0012565 0)
(0.998593 0.00394522 0)
(1.00081 0.00596549 0)
(1.00159 0.00706848 0)
(1.00154 0.00683684 0)
(1.00019 0.00607157 0)
(0.998018 0.0053277 0)
(0.995629 0.0047249 0)
(0.993264 0.00425447 0)
(0.990994 0.00390452 0)
(0.988838 0.00366244 0)
(0.986786 0.00351316 0)
(0.984818 0.00345037 0)
(0.982881 0.00346484 0)
(0.98097 0.0035946 0)
(0.978934 0.00375767 0)
(0.976798 0.00426759 0)
(0.996671 -0.00693906 0)
(0.993818 0.000833547 0)
(0.998046 0.00376503 0)
(1.00005 0.00557261 0)
(1.00131 0.00680069 0)
(1.00213 0.00691395 0)
(1.0019 0.00645703 0)
(1.00086 0.00590534 0)
(0.99945 0.00540135 0)
(0.997876 0.00497646 0)
(0.996241 0.00464588 0)
(0.9946 0.00441324 0)
(0.992974 0.00427437 0)
(0.991364 0.00422954 0)
(0.989744 0.00427845 0)
(0.988106 0.00445503 0)
(0.986375 0.00473702 0)
(0.98452 0.00533556 0)
(0.997828 -0.00414653 0)
(0.995151 0.00128746 0)
(0.997859 0.0035013 0)
(0.999549 0.00508618 0)
(1.00095 0.00636403 0)
(1.00214 0.00673164 0)
(1.00254 0.00654901 0)
(1.00224 0.00620201 0)
(1.00154 0.00583211 0)
(1.00059 0.00549286 0)
(0.999486 0.00521785 0)
(0.998299 0.00502439 0)
(0.997063 0.00491911 0)
(0.995792 0.00490961 0)
(0.994479 0.00500407 0)
(0.993123 0.00523455 0)
(0.991695 0.00561206 0)
(0.990164 0.0062726 0)
(0.998451 -0.00256689 0)
(0.996204 0.001193 0)
(0.997934 0.00307743 0)
(0.999322 0.00458273 0)
(1.00067 0.00586435 0)
(1.00196 0.00640417 0)
(1.0027 0.0064435 0)
(1.00288 0.00628483 0)
(1.00267 0.00605724 0)
(1.0022 0.00582333 0)
(1.00153 0.00562652 0)
(1.00074 0.00549346 0)
(0.999849 0.00543951 0)
(0.998893 0.00547871 0)
(0.997875 0.00562593 0)
(0.996802 0.00591174 0)
(0.995673 0.00636178 0)
(0.994472 0.00706179 0)
(0.998884 -0.00172321 0)
(0.99711 0.0010099 0)
(0.9982 0.00271069 0)
(0.999306 0.00412676 0)
(1.00052 0.00535794 0)
(1.00177 0.00600088 0)
(1.00265 0.00620876 0)
(1.00312 0.00621044 0)
(1.00325 0.00611778 0)
(1.00313 0.00599405 0)
(1.00282 0.0058861 0)
(1.00235 0.0058257 0)
(1.00177 0.00583415 0)
(1.0011 0.00593018 0)
(1.00036 0.00613285 0)
(0.999559 0.00647068 0)
(0.998719 0.00697265 0)
(0.997837 0.0076915 0)
(0.999233 -0.00110594 0)
(0.997892 0.00093526 0)
(0.99856 0.00244173 0)
(0.999425 0.00372964 0)
(1.00047 0.00487245 0)
(1.00161 0.00556414 0)
(1.00254 0.00589147 0)
(1.00317 0.00602166 0)
(1.00352 0.00604793 0)
(1.00366 0.00602918 0)
(1.00361 0.00601137 0)
(1.00341 0.00602796 0)
(1.00309 0.00610343 0)
(1.00268 0.00625901 0)
(1.00219 0.00651553 0)
(1.00165 0.00689849 0)
(1.00108 0.00743413 0)
(1.00049 0.00815328 0)
(0.999502 -0.000615757 0)
(0.998537 0.000934802 0)
(0.998942 0.00224006 0)
(0.999619 0.00338506 0)
(1.0005 0.00442073 0)
(1.00152 0.00512019 0)
(1.00243 0.00552432 0)
(1.00312 0.00575123 0)
(1.00362 0.00587601 0)
(1.00393 0.00595059 0)
(1.00408 0.00601725 0)
(1.0041 0.00610863 0)
(1.004 0.0062499 0)
(1.00381 0.00646278 0)
(1.00355 0.00676772 0)
(1.00324 0.00718641 0)
(1.00292 0.00773966 0)
(1.0026 0.00844383 0)
(0.999692 -0.000257712 0)
(0.999044 0.00095389 0)
(0.999303 0.00207647 0)
(0.999845 0.00308293 0)
(1.00059 0.00400601 0)
(1.00149 0.00468394 0)
(1.00234 0.00512966 0)
(1.00306 0.00542387 0)
(1.00363 0.00562528 0)
(1.00407 0.00577773 0)
(1.00436 0.0059184 0)
(1.00454 0.00607726 0)
(1.00462 0.00627829 0)
(1.00462 0.00654201 0)
(1.00456 0.0068869 0)
(1.00447 0.00733037 0)
(1.00437 0.0078872 0)
(1.00427 0.00856438 0)
(0.999809 -3.64207e-05 0)
(0.999392 0.000964268 0)
(0.999592 0.00194212 0)
(1.00005 0.00283233 0)
(1.0007 0.00365519 0)
(1.0015 0.00429617 0)
(1.00229 0.00475525 0)
(1.003 0.00508813 0)
(1.00361 0.0053405 0)
(1.00412 0.00554888 0)
(1.00451 0.00574518 0)
(1.0048 0.00595599 0)
(1.00502 0.00620298 0)
(1.00516 0.00650448 0)
(1.00526 0.00687628 0)
(1.00533 0.00733177 0)
(1.0054 0.00788076 0)
(1.00549 0.00852459 0)
(0.99989 0.00010796 0)
(0.999652 0.000960949 0)
(0.999833 0.00181319 0)
(1.00024 0.0025982 0)
(1.00083 0.00332719 0)
(1.00153 0.00392238 0)
(1.00227 0.00437846 0)
(1.00297 0.00473299 0)
(1.00359 0.00502067 0)
(1.00414 0.00527119 0)
(1.0046 0.00551123 0)
(1.00499 0.00576355 0)
(1.00531 0.00604692 0)
(1.00558 0.00637692 0)
(1.00581 0.00676631 0)
(1.00603 0.00722475 0)
(1.00625 0.0077579 0)
(1.00648 0.00836332 0)
(0.999947 0.000199431 0)
(0.999857 0.000930087 0)
(1.00005 0.0016627 0)
(1.00043 0.00234111 0)
(1.00096 0.00297142 0)
(1.00159 0.00350793 0)
(1.00228 0.00394444 0)
(1.00294 0.00430483 0)
(1.00358 0.00461432 0)
(1.00415 0.00489572 0)
(1.00468 0.00517001 0)
(1.00514 0.00545539 0)
(1.00556 0.00576691 0)
(1.00594 0.00611667 0)
(1.0063 0.00651387 0)
(1.00665 0.00696445 0)
(1.00701 0.00747033 0)
(1.00739 0.00802689 0)
(0.999983 0.000238187 0)
(1 0.000858385 0)
(1.00021 0.00147487 0)
(1.00059 0.00204687 0)
(1.00108 0.00257715 0)
(1.00167 0.0030445 0)
(1.0023 0.00344511 0)
(1.00295 0.00379368 0)
(1.00358 0.00410784 0)
(1.00418 0.00440412 0)
(1.00475 0.0046978 0)
(1.00528 0.00500218 0)
(1.00579 0.00532806 0)
(1.00627 0.00568368 0)
(1.00674 0.00607455 0)
(1.00721 0.00650319 0)
(1.00769 0.0069687 0)
(1.00818 0.00746547 0)
(1 0.00022964 0)
(1.00009 0.000736586 0)
(1.00033 0.00123318 0)
(1.0007 0.00169554 0)
(1.00118 0.00212457 0)
(1.00174 0.00251385 0)
(1.00235 0.00286313 0)
(1.00298 0.00318166 0)
(1.00361 0.00348116 0)
(1.00423 0.00377277 0)
(1.00484 0.00406654 0)
(1.00543 0.00437096 0)
(1.006 0.00469259 0)
(1.00657 0.00503585 0)
(1.00713 0.00540293 0)
(1.00769 0.00579364 0)
(1.00827 0.00620525 0)
(1.00886 0.00663204 0)
(1.00001 0.000183435 0)
(1.00013 0.000559639 0)
(1.00039 0.000923332 0)
(1.00077 0.00126476 0)
(1.00125 0.00158535 0)
(1.0018 0.00188559 0)
(1.0024 0.00216763 0)
(1.00303 0.00243733 0)
(1.00368 0.00270173 0)
(1.00432 0.00296728 0)
(1.00496 0.00323942 0)
(1.0056 0.00352231 0)
(1.00623 0.0038187 0)
(1.00686 0.00412973 0)
(1.00749 0.00445497 0)
(1.00812 0.00479237 0)
(1.00877 0.00513835 0)
(1.00942 0.00548762 0)
(1.00001 0.000109283 0)
(1.00014 0.000326107 0)
(1.00041 0.000533025 0)
(1.0008 0.000731089 0)
(1.00129 0.000924906 0)
(1.00185 0.0011178 0)
(1.00246 0.00131254 0)
(1.0031 0.00151233 0)
(1.00377 0.00172004 0)
(1.00444 0.00193777 0)
(1.00512 0.00216677 0)
(1.0058 0.00240742 0)
(1.00647 0.00265922 0)
(1.00715 0.00292073 0)
(1.00783 0.00318965 0)
(1.0085 0.00346287 0)
(1.00918 0.00373658 0)
(1.00987 0.00400619 0)
(1.00001 1.51742e-05 0)
(1.00014 3.62972e-05 0)
(1.0004 4.87297e-05 0)
(1.00079 6.71306e-05 0)
(1.00129 0.000101888 0)
(1.00187 0.000157844 0)
(1.00251 0.000237796 0)
(1.00318 0.000342431 0)
(1.00388 0.000470387 0)
(1.00459 0.000619246 0)
(1.00531 0.000786178 0)
(1.00602 0.000968083 0)
(1.00673 0.00116163 0)
(1.00744 0.0013633 0)
(1.00814 0.00156945 0)
(1.00884 0.00177634 0)
(1.00953 0.00198016 0)
(1.01021 0.00217698 0)
(1.00001 -5.58518e-05 0)
(1.00008 -0.000213582 0)
(1.0003 -0.000400775 0)
(1.00069 -0.000571291 0)
(1.0012 -0.000706736 0)
(1.00181 -0.000799597 0)
(1.00249 -0.000843694 0)
(1.00321 -0.000839416 0)
(1.00396 -0.00079258 0)
(1.00471 -0.000710324 0)
(1.00546 -0.00059951 0)
(1.00621 -0.000466623 0)
(1.00694 -0.0003177 0)
(1.00766 -0.000158221 0)
(1.00836 6.88093e-06 0)
(1.00904 0.000173173 0)
(1.00972 0.000336656 0)
(1.01037 0.000493577 0)
(0.999981 -5.35474e-05 0)
(0.999933 -0.000343821 0)
(1.00008 -0.000724137 0)
(1.00045 -0.0010748 0)
(1.00098 -0.0013748 0)
(1.00164 -0.00161076 0)
(1.00239 -0.00176685 0)
(1.00318 -0.00184506 0)
(1.00399 -0.0018581 0)
(1.0048 -0.00181901 0)
(1.00558 -0.00173928 0)
(1.00635 -0.00162929 0)
(1.00708 -0.00149811 0)
(1.00779 -0.00135337 0)
(1.00847 -0.00120141 0)
(1.00913 -0.00104749 0)
(1.00976 -0.000895982 0)
(1.01036 -0.000750708 0)
(0.999912 7.54985e-05 0)
(0.999594 -0.000338513 0)
(0.999626 -0.000956571 0)
(1.00001 -0.00151556 0)
(1.00061 -0.00200944 0)
(1.00138 -0.00240506 0)
(1.00225 -0.0026687 0)
(1.00315 -0.0028115 0)
(1.00404 -0.00286027 0)
(1.00489 -0.00283731 0)
(1.0057 -0.00276077 0)
(1.00646 -0.00264638 0)
(1.00717 -0.0025071 0)
(1.00783 -0.00235299 0)
(1.00845 -0.00219181 0)
(1.00904 -0.00202954 0)
(1.00959 -0.0018708 0)
(1.01011 -0.00171936 0)
(0.999764 0.000389223 0)
(0.998957 -0.00021593 0)
(0.99889 -0.00114082 0)
(0.999377 -0.00194108 0)
(1.00014 -0.00267055 0)
(1.0011 -0.00323794 0)
(1.00216 -0.00358587 0)
(1.00319 -0.00375481 0)
(1.00415 -0.00379777 0)
(1.00501 -0.00375041 0)
(1.00579 -0.00363983 0)
(1.00649 -0.00348851 0)
(1.00711 -0.00331352 0)
(1.00767 -0.00312698 0)
(1.00818 -0.00293741 0)
(1.00864 -0.00275091 0)
(1.00906 -0.00257168 0)
(1.00945 -0.00240297 0)
(0.999513 0.00100795 0)
(0.99792 -6.26649e-05 0)
(0.997882 -0.00139423 0)
(0.998637 -0.00244405 0)
(0.999677 -0.00343444 0)
(1.00094 -0.0041537 0)
(1.00222 -0.00452637 0)
(1.00336 -0.00465512 0)
(1.00432 -0.00463238 0)
(1.00511 -0.00450976 0)
(1.00576 -0.00432424 0)
(1.0063 -0.00410485 0)
(1.00674 -0.00387146 0)
(1.00711 -0.00363647 0)
(1.00742 -0.00340764 0)
(1.00768 -0.00318979 0)
(1.00792 -0.00298572 0)
(1.00813 -0.00279736 0)
(0.998981 0.00257231 0)
(0.996265 0.000304964 0)
(0.996694 -0.00176243 0)
(0.998004 -0.00311635 0)
(0.999446 -0.00436387 0)
(1.00106 -0.00515657 0)
(1.00253 -0.0054484 0)
(1.00365 -0.00544459 0)
(1.00445 -0.00528504 0)
(1.005 -0.0050358 0)
(1.00537 -0.00474131 0)
(1.0056 -0.00443383 0)
(1.00573 -0.00413225 0)
(1.00579 -0.00384601 0)
(1.00582 -0.00357954 0)
(1.00582 -0.00333471 0)
(1.0058 -0.00311165 0)
(1.00578 -0.00291017 0)
(0.997457 0.0061694 0)
(0.993468 0.00160458 0)
(0.995407 -0.0019094 0)
(0.99777 -0.00389253 0)
(0.999712 -0.00543183 0)
(1.00161 -0.0061678 0)
(1.00307 -0.00623727 0)
(1.00389 -0.00599783 0)
(1.00424 -0.00563603 0)
(1.00428 -0.00522501 0)
(1.00414 -0.00480896 0)
(1.00387 -0.0044157 0)
(1.00354 -0.00405683 0)
(1.00319 -0.00373439 0)
(1.00284 -0.00344683 0)
(1.0025 -0.00319153 0)
(1.00219 -0.00296518 0)
(1.0019 -0.00276492 0)
(0.994438 0.00860455 0)
(0.989472 0.00236499 0)
(0.994197 -0.00182778 0)
(0.998186 -0.00462262 0)
(1.00069 -0.00647895 0)
(1.00259 -0.00698826 0)
(1.00353 -0.00668581 0)
(1.00353 -0.00612927 0)
(1.00295 -0.00553617 0)
(1.00212 -0.00496874 0)
(1.00118 -0.00445623 0)
(1.00021 -0.00401092 0)
(0.99928 -0.0036301 0)
(0.998409 -0.0033047 0)
(0.997608 -0.00302571 0)
(0.99688 -0.00278587 0)
(0.996222 -0.00257888 0)
(0.995636 -0.00239865 0)
(0.994525 -0.00664988 0)
(0.989503 -0.00850083 0)
(0.995535 -0.00523143 0)
(1.00011 -0.00612395 0)
(1.00255 -0.00747727 0)
(1.00354 -0.00739246 0)
(1.00288 -0.0065633 0)
(1.00108 -0.00566584 0)
(0.998868 -0.00488494 0)
(0.996667 -0.00422947 0)
(0.994613 -0.00369074 0)
(0.992746 -0.00325585 0)
(0.991079 -0.00290508 0)
(0.989602 -0.00261856 0)
(0.988296 -0.00238131 0)
(0.987141 -0.00218355 0)
(0.986119 -0.00201862 0)
(0.985221 -0.00187469 0)
(1.02649 -0.0702256 0)
(1.0171 -0.0623765 0)
(1.01189 -0.0291843 0)
(1.00856 -0.014816 0)
(1.00582 -0.0102498 0)
(1.00204 -0.00773746 0)
(0.996898 -0.00584305 0)
(0.991421 -0.00454129 0)
(0.986486 -0.00368133 0)
(0.982317 -0.00308084 0)
(0.978818 -0.00263753 0)
(0.975857 -0.00230238 0)
(0.973336 -0.00204421 0)
(0.971175 -0.00184012 0)
(0.969306 -0.00167527 0)
(0.967677 -0.00154265 0)
(0.966257 -0.00144163 0)
(0.96503 -0.00139548 0)
(0.966187 0.350228 0)
(1.02696 0.194276 0)
(1.0328 0.067939 0)
(1.00478 0.015296 0)
(0.976676 -0.00122817 0)
(0.956822 -0.00427062 0)
(0.94318 -0.00354529 0)
(0.933453 -0.00238752 0)
(0.926349 -0.00156158 0)
(0.920985 -0.00106214 0)
(0.916733 -0.000767122 0)
(0.913223 -0.000588301 0)
(0.910251 -0.000474772 0)
(0.907696 -0.000398186 0)
(0.90547 -0.000343404 0)
(0.903505 -0.000304978 0)
(0.901736 -0.000279559 0)
(0.900113 -0.000317435 0)
(0.00940744 -0.0311074 -2.4609e-21)
(0.0224663 -0.0326649 2.2803e-21)
(0.0311336 -0.0228631 0)
(0.0357028 -0.0115267 0)
(0.0338636 -0.00110875 0)
(0.0273842 0.00631508 -2.18373e-21)
(0.0183886 0.010028 0)
(0.00813587 0.0111722 0)
(-0.00294451 0.0117107 0)
(-0.0150712 0.0126977 0)
(-0.02849 0.0141232 2.1202e-21)
(-0.0432639 0.0157809 0)
(-0.0593481 0.0174678 0)
(-0.0766045 0.0190225 0)
(-0.0948256 0.0203287 0)
(-0.113762 0.0213133 1.86185e-21)
(-0.133147 0.0219427 0)
(-0.152715 0.0222158 0)
(-0.17222 0.0221571 0)
(-0.191446 0.0218079 0)
(-0.210212 0.0212193 0)
(-0.228374 0.0204454 0)
(-0.245827 0.019539 0)
(-0.262499 0.0185478 1.77684e-21)
(-0.27835 0.0175125 -1.77975e-21)
(-0.293363 0.016466 1.78329e-21)
(-0.307542 0.0154338 1.78703e-21)
(-0.320906 0.0144338 0)
(-0.333482 0.013478 0)
(-0.345307 0.0125732 -1.79624e-21)
(-0.356418 0.011722 -1.79789e-21)
(-0.366856 0.0109239 0)
(-0.376658 0.010176 0)
(-0.38586 0.00947411 -1.79669e-21)
(-0.394493 0.00881263 0)
(-0.402586 0.0081855 0)
(-0.410162 0.00758628 1.78455e-21)
(-0.417239 0.00700839 0)
(-0.423831 0.00644529 1.76957e-21)
(-0.429947 0.0058906 3.51971e-21)
(-0.435589 0.00533818 0)
(-0.440757 0.00478231 0)
(-0.445446 0.00421792 0)
(-0.449645 0.00364091 0)
(-0.453339 0.00304833 0)
(-0.45651 0.00243931 3.33316e-21)
(-0.459136 0.00181728 3.28909e-21)
(-0.461196 0.00119033 3.24092e-21)
(-0.462668 0.000571958 0)
(-0.463521 -1.34179e-05 -3.13128e-21)
(-0.463709 -0.000541795 0)
(-0.463365 -0.00102695 2.99781e-21)
(-0.462468 -0.00149979 2.92229e-21)
(-0.461016 -0.00197386 0)
(-0.458997 -0.00245519 0)
(-0.456393 -0.00294613 0)
(-0.453187 -0.00344728 2.5558e-21)
(-0.44936 -0.00395833 0)
(-0.444894 -0.00447842 0)
(-0.439772 -0.00500626 0)
(-0.433981 -0.00554025 0)
(-0.427507 -0.00607851 0)
(-0.420341 -0.00661893 0)
(-0.412475 -0.00715917 0)
(-0.403908 -0.00769674 0)
(-0.394639 -0.00822899 -1.29763e-21)
(-0.384672 -0.0087532 0)
(-0.374015 -0.00926659 0)
(-0.362682 -0.00976637 7.35805e-22)
(-0.350689 -0.0102498 5.33386e-22)
(-0.338057 -0.0107143 0)
(-0.324812 -0.0111574 -1.07428e-22)
(-0.310982 -0.0115768 -1.15404e-22)
(-0.296601 -0.0119705 0)
(-0.281705 -0.0123367 5.78655e-22)
(-0.266333 -0.0126741 0)
(-0.250529 -0.0129816 0)
(-0.234335 -0.0132584 -1.30998e-21)
(-0.217799 -0.0135042 0)
(-0.200966 -0.0137189 1.81529e-21)
(-0.183886 -0.0139029 0)
(-0.166605 -0.0140565 -2.32917e-21)
(-0.149172 -0.0141804 -2.58778e-21)
(-0.131633 -0.014275 -2.84668e-21)
(-0.114035 -0.0143401 -6.21051e-21)
(-0.0964232 -0.0143744 6.72586e-21)
(-0.0788425 -0.0143737 0)
(-0.0613387 -0.0143294 0)
(-0.043959 -0.0142243 0)
(-0.0267501 -0.0140306 8.74739e-21)
(-0.00974449 -0.0137171 9.19122e-21)
(0.00705265 -0.013296 -9.41575e-21)
(0.0236361 -0.0128307 0)
(0.0399778 -0.0123641 9.48877e-21)
(0.0560464 -0.011905 9.49887e-21)
(0.0718225 -0.0114555 9.49404e-21)
(0.0872917 -0.0110167 0)
(0.102443 -0.0105893 0)
(0.117267 -0.0101736 0)
(0.131757 -0.00977007 9.35813e-21)
(0.145908 -0.00937906 0)
(0.159717 -0.00900078 0)
(0.173184 -0.00863539 -9.17075e-21)
(0.186308 -0.00828297 0)
(0.199091 -0.00794351 0)
(0.211536 -0.00761691 -8.94021e-21)
(0.223647 -0.00730298 0)
(0.235429 -0.00700147 0)
(0.246886 -0.00671202 8.6855e-21)
(0.258025 -0.00643421 8.59767e-21)
(0.268851 -0.00616756 0)
(0.279371 -0.00591149 -8.42003e-21)
(0.28959 -0.00566539 0)
(0.299513 -0.00542857 8.24179e-21)
(0.309146 -0.00520032 0)
(0.318494 -0.00497985 8.06497e-21)
(0.327559 -0.00476638 7.9776e-21)
(0.336344 -0.00455908 0)
(0.34485 -0.00435712 0)
(0.353079 -0.00415967 0)
(0.361029 -0.00396592 0)
(0.368697 -0.00377509 0)
(0.376081 -0.00358645 0)
(0.383175 -0.00339933 0)
(0.389973 -0.00321316 7.32302e-21)
(0.396468 -0.00302746 -7.24851e-21)
(0.402653 -0.00284187 0)
(0.408518 -0.00265617 0)
(0.414055 -0.00247028 0)
(0.419254 -0.0022843 0)
(0.424106 -0.00209846 -1.3814e-20)
(0.428603 -0.00191318 0)
(0.432738 -0.00172901 1.35725e-20)
(0.436503 -0.00154666 -1.34589e-20)
(0.439895 -0.00136684 0)
(0.44291 -0.00118994 0)
(0.445547 -0.00101479 0)
(0.447798 -0.000835776 1.30536e-20)
(0.449648 -0.000639558 1.29654e-20)
(0.451054 -0.000413586 0)
(0.451948 -0.000181213 1.28052e-20)
(0.452392 5.02822e-06 1.27295e-20)
(0.452512 0.000126937 -1.26574e-20)
(0.452382 0.000204067 0)
(0.452054 0.00025517 0)
(0.451567 0.000289776 -1.24574e-20)
(0.450951 0.000312634 0)
(0.450232 0.000326344 0)
(0.449434 0.000332585 0)
(0.448578 0.000332686 0)
(0.447683 0.000327819 1.21627e-20)
(0.446765 0.000319033 1.21075e-20)
(0.445839 0.000307265 0)
(0.444917 0.000293337 1.19998e-20)
(0.444009 0.000277964 0)
(0.443122 0.000261759 0)
(0.442264 0.000245248 1.18432e-20)
(0.441439 0.000228881 0)
(0.440649 0.000213052 1.17414e-20)
(0.439896 0.000198111 0)
(0.43918 0.000184385 0)
(0.438499 0.000172196 1.15926e-20)
(0.43785 0.000161883 0)
(0.43723 0.000153828 1.14963e-20)
(0.436631 0.000148491 0)
(0.436046 0.000146453 0)
(0.435465 0.000148478 0)
(0.434872 0.000155609 -1.13154e-20)
(0.434252 0.000169305 0)
(0.433578 0.000191667 1.12353e-20)
(0.432819 0.000225813 0)
(0.431929 0.000276525 0)
(0.43084 0.000351523 0)
(0.429452 0.000463601 0)
(0.427609 0.000636811 0)
(0.425012 0.000912266 0)
(0.421276 0.00140092 0)
(0.414985 0.00222201 -2.25286e-20)
(0.406229 0.00425555 0)
(0.382352 0.00663266 0)
(0.00112973 -0.046901 6.94096e-21)
(0.00358076 -0.0270138 -6.1638e-21)
(-0.000974759 -0.00887707 0)
(-0.0077735 0.00547235 3.46438e-21)
(-0.0158366 0.0168999 0)
(-0.0257168 0.0254601 1.59083e-21)
(-0.0375455 0.0314676 -3.03517e-21)
(-0.0514084 0.0359003 -2.93117e-21)
(-0.0671491 0.0397322 0)
(-0.0843931 0.0433952 -2.74636e-21)
(-0.102712 0.0468561 -1.35232e-21)
(-0.121715 0.0499186 0)
(-0.141048 0.052392 0)
(-0.160384 0.0541464 0)
(-0.179436 0.055123 0)
(-0.197963 0.055327 -1.2299e-21)
(-0.215774 0.0548148 0)
(-0.232736 0.0536777 2.43966e-21)
(-0.248763 0.052027 0)
(-0.263815 0.0499809 0)
(-0.277891 0.0476545 -2.4611e-21)
(-0.291013 0.0451519 0)
(-0.303229 0.0425631 2.48973e-21)
(-0.314593 0.0399613 -1.2499e-21)
(-0.325169 0.0374032 1.25861e-21)
(-0.33502 0.0349299 -1.2671e-21)
(-0.344208 0.0325693 -1.27513e-21)
(-0.35279 0.0303375 0)
(-0.360817 0.028242 0)
(-0.368334 0.0262829 1.29466e-21)
(-0.375379 0.0244555 -1.29366e-21)
(-0.381983 0.0227516 0)
(-0.388175 0.0211604 0)
(-0.393975 0.0196703 1.30669e-21)
(-0.3994 0.0182688 0)
(-0.404463 0.0169435 0)
(-0.409173 0.0156822 -1.30359e-21)
(-0.413536 0.0144735 0)
(-0.417557 0.0133064 1.29046e-21)
(-0.421238 0.0121707 -2.57817e-21)
(-0.424578 0.0110571 0)
(-0.427578 0.00995688 0)
(-0.430236 0.0088621 -5.04938e-21)
(-0.43255 0.00776571 -5.00475e-21)
(-0.434521 0.00666146 -4.95396e-21)
(-0.436147 0.00554389 2.45449e-21)
(-0.437431 0.00440937 -2.4083e-21)
(-0.438378 0.00325778 -7.13272e-21)
(-0.43899 0.00209502 4.68343e-21)
(-0.439274 0.000935701 2.28466e-21)
(-0.439246 -0.000202007 0)
(-0.438778 -0.00132298 -2.17792e-21)
(-0.437827 -0.00244743 2.15905e-21)
(-0.43636 -0.00358553 0)
(-0.43435 -0.00474252 0)
(-0.431775 -0.00592006 0)
(-0.428612 -0.00711767 -1.83077e-21)
(-0.424843 -0.00833348 0)
(-0.420449 -0.00956456 3.39437e-21)
(-0.415415 -0.0108072 0)
(-0.409725 -0.0120567 3.02189e-21)
(-0.403368 -0.0133082 0)
(-0.396334 -0.0145558 -2.60962e-21)
(-0.388616 -0.0157932 0)
(-0.380212 -0.017014 2.15846e-21)
(-0.37112 -0.0182112 -1.02338e-21)
(-0.361346 -0.0193777 0)
(-0.350898 -0.0205064 -1.41328e-21)
(-0.339786 -0.0215902 -5.00089e-22)
(-0.328029 -0.0226223 -3.60601e-22)
(-0.315645 -0.023596 0)
(-0.302659 -0.0245054 -2.37857e-22)
(-0.2891 -0.0253449 7.67576e-23)
(-0.274998 -0.0261098 0)
(-0.26039 -0.0267959 -3.80638e-22)
(-0.245313 -0.0274 8.85099e-22)
(-0.229808 -0.02792 0)
(-0.213918 -0.0283543 8.47542e-22)
(-0.197687 -0.0287026 0)
(-0.18116 -0.0289652 -3.28805e-21)
(-0.164385 -0.0291436 0)
(-0.147407 -0.0292399 4.2249e-21)
(-0.130273 -0.0292568 1.63063e-21)
(-0.113028 -0.0291976 -1.5832e-21)
(-0.0957166 -0.0290662 -3.47239e-21)
(-0.0783821 -0.0288663 3.77598e-21)
(-0.061065 -0.0286012 0)
(-0.0438028 -0.0282734 0)
(-0.0266281 -0.0278831 0)
(-0.00956788 -0.0274268 -1.56114e-20)
(0.00734777 -0.0268985 -5.52491e-21)
(0.024075 -0.0263009 5.65086e-21)
(0.0405754 -0.0256549 0)
(0.056831 -0.0249825 5.53428e-21)
(0.0728299 -0.0242945 -5.95365e-21)
(0.088557 -0.0235972 -6.03108e-21)
(0.103998 -0.0228949 0)
(0.11914 -0.0221912 0)
(0.133974 -0.0214893 0)
(0.148491 -0.0207921 -6.24179e-21)
(0.162687 -0.0201021 0)
(0.176556 -0.0194217 1.23673e-20)
(0.190097 -0.0187529 1.87278e-20)
(0.203309 -0.0180973 -1.24465e-20)
(0.216193 -0.0174564 0)
(0.22875 -0.0168312 -6.14723e-21)
(0.240984 -0.0162227 0)
(0.252899 -0.0156313 -1.24726e-20)
(0.264498 -0.0150573 6.14975e-21)
(0.275787 -0.0145007 6.14238e-21)
(0.28677 -0.0139614 0)
(0.297454 -0.0134388 1.86204e-20)
(0.307844 -0.0129323 -1.23283e-20)
(0.317944 -0.012441 -6.2015e-21)
(0.32776 -0.0119639 0)
(0.337296 -0.0114997 -6.14402e-21)
(0.346555 -0.0110472 -1.82377e-20)
(0.35554 -0.0106048 0)
(0.364254 -0.010171 -1.20051e-20)
(0.372697 -0.00974437 -1.19425e-20)
(0.380868 -0.00932318 -1.18786e-20)
(0.388767 -0.0089059 0)
(0.396392 -0.00849105 0)
(0.403737 -0.00807726 0)
(0.4108 -0.0076633 5.77697e-21)
(0.417574 -0.00724817 5.80458e-21)
(0.424052 -0.0068311 0)
(0.430227 -0.00641161 1.1422e-20)
(0.436092 -0.00598954 1.1359e-20)
(0.441638 -0.0055651 0)
(0.446857 -0.00513885 1.12768e-20)
(0.451742 -0.00471171 2.23581e-20)
(0.456285 -0.00428495 -1.11551e-20)
(0.460481 -0.00386006 -1.10384e-20)
(0.464324 -0.00343857 0)
(0.46781 -0.00302147 0)
(0.470937 -0.00260826 0)
(0.473706 -0.00219548 -1.08883e-20)
(0.476126 -0.00177672 1.08108e-20)
(0.478229 -0.00135108 2.15695e-20)
(0.480085 -0.000942782 -1.07559e-20)
(0.481687 -0.000588186 1.06939e-20)
(0.482976 -0.000297658 1.067e-20)
(0.48395 -5.93341e-05 0)
(0.484628 0.000138025 0)
(0.485036 0.000301056 -1.05373e-20)
(0.485203 0.000434148 0)
(0.485158 0.000540518 0)
(0.484927 0.000622833 2.08499e-20)
(0.484539 0.000683581 0)
(0.484018 0.000725192 1.03503e-20)
(0.483389 0.000750059 -1.03099e-20)
(0.482675 0.000760519 0)
(0.481898 0.000758828 1.02377e-20)
(0.481075 0.000747129 0)
(0.480225 0.000727436 0)
(0.479362 0.000701617 -1.01178e-20)
(0.478497 0.000671392 2.0163e-20)
(0.477642 0.000638338 -1.00401e-20)
(0.476805 0.000603903 0)
(0.475992 0.000569428 0)
(0.475207 0.000536176 9.9274e-21)
(0.474452 0.000505372 0)
(0.473729 0.000478262 9.84944e-21)
(0.473035 0.000456173 0)
(0.472368 0.000440616 0)
(0.471722 0.000433413 0)
(0.471089 0.000436889 9.69724e-21)
(0.470459 0.000454153 0)
(0.469818 0.000489543 -9.63028e-21)
(0.469146 0.000549362 0)
(0.468418 0.000643113 0)
(0.467598 0.000785893 1.91037e-20)
(0.466636 0.0010024 -1.90718e-20)
(0.465464 0.00133778 0)
(0.463956 0.00186993 0)
(0.462036 0.00278867 0)
(0.459173 0.00435316 5.77039e-20)
(0.456094 0.00779738 0)
(0.449731 0.0133359 -3.93658e-20)
(-0.0102543 -0.0334871 -1.67884e-22)
(-0.0159534 -0.00860659 7.21319e-21)
(-0.0261052 0.0102477 0)
(-0.0375987 0.026037 -5.46693e-21)
(-0.0497337 0.0394272 0)
(-0.0625076 0.0505414 0)
(-0.0761665 0.0595381 1.72345e-23)
(-0.0908363 0.0668275 2.27423e-21)
(-0.10638 0.072845 2.20375e-21)
(-0.122462 0.0778166 2.14075e-21)
(-0.138696 0.0817539 0)
(-0.154743 0.0845824 0)
(-0.170338 0.0862445 -2.03878e-21)
(-0.185293 0.0867426 -4.03444e-21)
(-0.199494 0.0861452 4.00402e-21)
(-0.212887 0.0845747 0)
(-0.225469 0.0821887 3.97349e-21)
(-0.237272 0.0791608 -1.9422e-21)
(-0.24835 0.0756652 0)
(-0.258768 0.0718637 3.97693e-21)
(-0.268594 0.0678981 1.95973e-21)
(-0.27789 0.0638863 -3.99593e-21)
(-0.286714 0.059921 -1.97934e-21)
(-0.295114 0.0560708 0)
(-0.303129 0.052383 4.03176e-21)
(-0.310791 0.0488868 4.04341e-21)
(-0.318123 0.0455968 0)
(-0.325146 0.0425162 4.064e-21)
(-0.331872 0.0396399 0)
(-0.338314 0.0369572 4.07907e-21)
(-0.344479 0.0344532 2.04097e-21)
(-0.350372 0.0321113 0)
(-0.355999 0.0299134 0)
(-0.361361 0.0278418 0)
(-0.36646 0.0258786 0)
(-0.371296 0.0240072 0)
(-0.375869 0.0222119 0)
(-0.380176 0.0204782 4.05091e-21)
(-0.384215 0.0187929 -6.05289e-21)
(-0.387981 0.0171441 0)
(-0.391471 0.0155213 0)
(-0.394677 0.0139154 0)
(-0.397593 0.0123187 -3.84152e-24)
(-0.400211 0.0107249 3.88981e-21)
(-0.402521 0.00912913 7.70252e-21)
(-0.404513 0.00752781 -7.60976e-21)
(-0.406176 0.0059184 -3.76046e-21)
(-0.407491 0.00429863 3.68815e-21)
(-0.408438 0.00266452 2.07944e-23)
(-0.408989 0.00100746 3.57806e-21)
(-0.409113 -0.00068769 0)
(-0.408782 -0.00242894 3.41837e-21)
(-0.407972 -0.0042136 3.71442e-23)
(-0.406661 -0.00603925 0)
(-0.404825 -0.00790363 0)
(-0.402442 -0.00980414 -3.02012e-21)
(-0.399492 -0.0117374 0)
(-0.395954 -0.0136989 0)
(-0.391811 -0.0156833 2.71106e-21)
(-0.387045 -0.0176838 5.01744e-21)
(-0.381641 -0.0196929 -2.28991e-21)
(-0.375588 -0.0217019 0)
(-0.368875 -0.0237014 1.96795e-21)
(-0.361496 -0.0256812 0)
(-0.353446 -0.0276306 1.80184e-21)
(-0.344725 -0.0295383 1.43569e-21)
(-0.335337 -0.0313928 -2.69237e-21)
(-0.325289 -0.0331826 -1.25952e-21)
(-0.314593 -0.0348962 0)
(-0.303264 -0.0365228 1.51866e-21)
(-0.291321 -0.0380519 0)
(-0.278789 -0.0394737 9.20508e-22)
(-0.265694 -0.0407796 2.6974e-22)
(-0.252067 -0.041962 -1.58594e-22)
(-0.237943 -0.0430145 5.9118e-22)
(-0.223357 -0.0439323 -1.67009e-21)
(-0.208351 -0.0447117 0)
(-0.192964 -0.0453508 0)
(-0.177241 -0.045849 2.3429e-21)
(-0.161225 -0.0462072 4.30813e-21)
(-0.144962 -0.0464276 0)
(-0.128496 -0.0465138 -1.96387e-21)
(-0.111873 -0.0464705 0)
(-0.0951359 -0.0463032 6.90052e-21)
(-0.0783282 -0.0460183 2.77746e-22)
(-0.0614911 -0.045623 -2.77137e-22)
(-0.0446634 -0.0451247 -5.75582e-21)
(-0.027881 -0.0445311 0)
(-0.0111752 -0.0438505 6.55213e-21)
(0.00542524 -0.0430921 2.67389e-22)
(0.0218897 -0.0422675 0)
(0.038184 -0.0413892 0)
(0.0542781 -0.0404655 0)
(0.0701506 -0.0395031 -8.03204e-21)
(0.0857836 -0.0385096 0)
(0.10116 -0.0374924 0)
(0.116264 -0.0364582 0)
(0.131085 -0.0354132 0)
(0.14561 -0.0343631 0)
(0.159833 -0.033313 -8.72868e-21)
(0.173747 -0.0322678 0)
(0.187347 -0.0312316 -9.10516e-21)
(0.200631 -0.030208 -9.18546e-21)
(0.213598 -0.0292002 9.25597e-21)
(0.226248 -0.0282109 0)
(0.238583 -0.0272423 9.36996e-21)
(0.250604 -0.0262961 0)
(0.262316 -0.0253735 9.45174e-21)
(0.273721 -0.0244753 -9.48189e-21)
(0.284825 -0.0236019 -2.82846e-20)
(0.295632 -0.0227533 0)
(0.306147 -0.0219291 -2.83955e-20)
(0.316375 -0.0211285 -9.34202e-21)
(0.326321 -0.0203505 0)
(0.33599 -0.0195935 -1.89042e-20)
(0.345387 -0.0188561 -1.89016e-20)
(0.354513 -0.0181362 2.84193e-20)
(0.363373 -0.0174318 0)
(0.371969 -0.0167407 9.50005e-21)
(0.380302 -0.0160606 9.48247e-21)
(0.388372 -0.015389 2.82565e-20)
(0.396178 -0.0147237 0)
(0.403719 -0.0140623 0)
(0.410993 -0.0134029 0)
(0.417995 -0.0127434 9.26566e-21)
(0.42472 -0.0120824 0)
(0.431164 -0.0114185 0)
(0.437319 -0.0107509 -9.29287e-21)
(0.44318 -0.0100794 -9.26725e-21)
(0.44874 -0.00940405 0)
(0.453991 -0.00872559 0)
(0.458926 -0.00804529 -1.83863e-20)
(0.463539 -0.00736492 0)
(0.467825 -0.00668665 1.82948e-20)
(0.471779 -0.00601283 1.82055e-20)
(0.475398 -0.00534565 0)
(0.47868 -0.00468671 0)
(0.481628 -0.00403717 -1.81024e-20)
(0.484252 -0.00340004 -2.88357e-23)
(0.48657 -0.0027839 -2.51411e-23)
(0.488603 -0.00220061 0)
(0.490354 -0.00166076 -3.59957e-20)
(0.491819 -0.00117235 0)
(0.492998 -0.000738882 0)
(0.493898 -0.000359457 0)
(0.494537 -3.11849e-05 1.78497e-20)
(0.494935 0.000249156 0)
(0.495115 0.000484666 -3.55188e-20)
(0.495101 0.000678397 -1.77169e-20)
(0.494916 0.000833482 0)
(0.494584 0.0009532 -1.76209e-20)
(0.494129 0.00104097 0)
(0.493572 0.00110033 0)
(0.492934 0.00113482 -5.23958e-20)
(0.492235 0.00114797 3.48209e-20)
(0.491491 0.00114321 0)
(0.490719 0.00112384 3.45863e-20)
(0.489932 0.00109298 -1.72278e-20)
(0.489142 0.00105355 0)
(0.488357 0.00100829 0)
(0.487586 0.000959726 0)
(0.486833 0.000910269 -5.09237e-20)
(0.486103 0.000862206 0)
(0.485397 0.000817797 -1.68408e-20)
(0.484715 0.000779364 0)
(0.484054 0.000749423 0)
(0.483409 0.000730867 0)
(0.482775 0.000727226 0)
(0.48214 0.000743052 0)
(0.48149 0.000784503 0)
(0.480808 0.000860296 -3.28332e-20)
(0.480066 0.000983255 0)
(0.479231 0.00117319 -1.63308e-20)
(0.478252 0.00146163 4.89066e-20)
(0.477064 0.00190351 0)
(0.475558 0.00259123 0)
(0.473645 0.00372678 -3.26683e-20)
(0.471016 0.00561465 -3.28969e-20)
(0.468056 0.00927788 3.31222e-20)
(0.464203 0.0157894 3.37186e-20)
(-0.0152357 -0.00460102 -1.2457e-20)
(-0.0255878 0.0197275 -9.58186e-21)
(-0.0386919 0.0378973 -5.18108e-21)
(-0.0527272 0.0535106 -2.27338e-21)
(-0.0666622 0.0671674 0)
(-0.0804204 0.0789047 4.11858e-21)
(-0.0941802 0.0887054 -1.99609e-21)
(-0.107988 0.0966425 0)
(-0.121736 0.102841 -1.87327e-21)
(-0.135233 0.107401 0)
(-0.148288 0.110387 3.66327e-21)
(-0.160756 0.111864 0)
(-0.172555 0.111931 1.7398e-21)