
961
(
(0.472434 -2.45368e-05 -1.05073e-05)
(0.623549 -5.60235e-05 -1.44001e-05)
(0.86047 -8.8427e-05 -7.50241e-05)
(0.611862 -3.63865e-05 -3.47095e-05)
(0.694591 -9.69082e-05 -1.891e-05)
(0.970195 -0.000151276 -0.000136634)
(0.733668 -0.00012034 -2.48064e-05)
(1.0261 -0.000184656 -0.000190669)
(0.755001 -0.000132665 -3.00517e-05)
(1.05332 -0.000202913 -0.000227018)
(0.765698 -0.000137391 -3.42358e-05)
(1.06593 -0.000211903 -0.000247895)
(0.77074 -0.000137249 -3.75685e-05)
(1.0716 -0.000214345 -0.000258795)
(0.773022 -0.000133175 -4.00515e-05)
(1.07414 -0.000210505 -0.000264237)
(0.774043 -0.000125561 -4.17559e-05)
(1.07531 -0.00020057 -0.000267028)
(0.774516 -0.000114647 -4.2834e-05)
(1.0759 -0.000184747 -0.000268645)
(0.774756 -0.000100709 -4.34682e-05)
(1.07623 -0.000163431 -0.000269778)
(0.774892 -8.41014e-05 -4.3818e-05)
(1.07644 -0.000137222 -0.000270698)
(0.774977 -6.52639e-05 -4.39992e-05)
(1.07658 -0.0001069 -0.000271467)
(0.775031 -4.46994e-05 -4.4087e-05)
(1.07667 -7.33866e-05 -0.000272063)
(0.775061 -2.29597e-05 -4.41254e-05)
(1.07672 -3.76985e-05 -0.000272446)
(0.775071 -6.2079e-07 -4.41391e-05)
(1.07674 -9.00104e-07 -0.000272588)
(0.775061 2.17273e-05 -4.41376e-05)
(1.07672 3.5912e-05 -0.00027248)
(0.775031 4.34943e-05 -4.41117e-05)
(1.07667 7.1641e-05 -0.000272131)
(0.774978 6.41057e-05 -4.40366e-05)
(1.07658 0.000105225 -0.000271571)
(0.774893 8.30108e-05 -4.38681e-05)
(1.07644 0.000135647 -0.000270839)
(0.774757 9.97068e-05 -4.35306e-05)
(1.07623 0.000161987 -0.000269956)
(0.774517 0.000113754 -4.29072e-05)
(1.0759 0.000183461 -0.000268855)
(0.774044 0.000124792 -4.18375e-05)
(1.07531 0.000199465 -0.000267264)
(0.773023 0.000132541 -4.01379e-05)
(1.07414 0.000209593 -0.000264486)
(0.770741 0.000136753 -3.76558e-05)
(1.0716 0.000213628 -0.000259043)
(0.765699 0.000137028 -3.43196e-05)
(1.06594 0.000211371 -0.00024813)
(0.755001 0.000132421 -3.01281e-05)
(1.05332 0.000202546 -0.000227231)
(0.733668 0.00012022 -2.4873e-05)
(1.0261 0.00018446 -0.000190854)
(0.694591 9.69235e-05 -1.89658e-05)
(0.970194 0.000151272 -0.000136791)
(0.623549 5.61057e-05 -1.44415e-05)
(0.86047 8.85283e-05 -7.51445e-05)
(0.472435 2.46035e-05 -1.05342e-05)
(0.611863 3.64699e-05 -3.47862e-05)
(0.926232 -9.57839e-05 -0.000173488)
(0.648908 -3.75784e-05 -6.41776e-05)
(1.06267 -0.000166083 -0.000358256)
(1.1269 -0.000204739 -0.000508094)
(1.15206 -0.00023071 -0.000591827)
(1.16193 -0.000247962 -0.000633013)
(1.16613 -0.000257756 -0.000652658)
(1.1681 -0.000258799 -0.000662168)
(1.16913 -0.000250786 -0.000667468)
(1.16975 -0.000233912 -0.000671358)
(1.17016 -0.000208813 -0.000674905)
(1.17045 -0.000176458 -0.0006783)
(1.17065 -0.000138064 -0.000681361)
(1.17079 -9.50214e-05 -0.000683809)
(1.17087 -4.88301e-05 -0.000685394)
(1.1709 -1.03666e-06 -0.000685963)
(1.17087 4.67734e-05 -0.000685465)
(1.17079 9.30139e-05 -0.000683952)
(1.17066 0.00013614 -0.000681581)
(1.17045 0.000174652 -0.000678599)
(1.17016 0.000207159 -0.000675281)
(1.16975 0.000232439 -0.000671803)
(1.16914 0.000249516 -0.000667964)
(1.1681 0.000257744 -0.000662691)
(1.16613 0.000256919 -0.000653181)
(1.16193 0.000247334 -0.000633513)
(1.15206 0.000230271 -0.000592289)
(1.1269 0.000204493 -0.000508511)
(1.06267 0.000166053 -0.00035862)
(0.926233 9.58794e-05 -0.00017377)
(0.64891 3.7663e-05 -6.43553e-05)
(0.941659 -7.89793e-05 -0.000280557)
(0.656077 -2.904e-05 -0.000100427)
(1.08894 -0.00014357 -0.000589476)
(1.15732 -0.000187563 -0.00082465)
(1.18081 -0.000223231 -0.000932252)
(1.189 -0.000248574 -0.000975166)
(1.19255 -0.000264745 -0.000994084)
(1.19441 -0.000270311 -0.00100392)
(1.19552 -0.000264945 -0.00101061)
(1.19626 -0.000249013 -0.00101658)
(1.19678 -0.000223413 -0.00102254)
(1.19716 -0.000189406 -0.00102839)
(1.19744 -0.000148492 -0.00103368)
(1.19762 -0.000102314 -0.00103789)
(1.19773 -5.25941e-05 -0.0010406)
(1.19776 -1.08165e-06 -0.00104157)
(1.19773 5.0448e-05 -0.0010407)
(1.19762 0.000100219 -0.00103808)
(1.19744 0.000146483 -0.00103397)
(1.19717 0.000187517 -0.0010288)
(1.19679 0.000221677 -0.00102305)
(1.19627 0.000247457 -0.00101718)
(1.19553 0.000263591 -0.00101128)
(1.19441 0.000269174 -0.00100463)
(1.19256 0.000263835 -0.000994804)
(1.189 0.000247887 -0.000975869)
(1.18081 0.000222753 -0.000932924)
(1.15732 0.000187296 -0.000825285)
(1.08894 0.000143528 -0.000590051)
(0.941661 7.90666e-05 -0.000281005)
(0.65608 2.91208e-05 -0.000100707)
(0.944572 -6.42169e-05 -0.000388905)
(0.657569 -2.25697e-05 -0.000148721)
(1.09411 -0.000125737 -0.000790281)
(1.16402 -0.000179304 -0.0010854)
(1.18773 -0.000225041 -0.00120536)
(1.19585 -0.000256221 -0.00124395)
(1.19943 -0.000275327 -0.00125766)
(1.2014 -0.000282124 -0.00126416)
(1.20264 -0.000276873 -0.00126914)
(1.20349 -0.000260281 -0.00127447)
(1.2041 -0.000233461 -0.00128045)
(1.20456 -0.000197832 -0.00128666)
(1.20488 -0.000155018 -0.00129244)
(1.2051 -0.000106758 -0.00129712)
(1.20523 -5.48478e-05 -0.00130017)
(1.20528 -1.09604e-06 -0.00130126)
(1.20524 5.26722e-05 -0.00130027)
(1.20511 0.000104632 -0.00129733)
(1.20489 0.000152974 -0.00129276)
(1.20457 0.000195902 -0.00128709)
(1.20412 0.000231676 -0.00128099)
(1.2035 0.00025867 -0.00127511)
(1.20265 0.00027546 -0.00126985)
(1.20141 0.000280927 -0.00126493)
(1.19945 0.000274362 -0.00125846)
(1.19586 0.00025549 -0.00124475)
(1.18774 0.000224531 -0.00120615)
(1.16402 0.000179017 -0.00108618)
(1.09411 0.000125678 -0.000791005)
(0.944576 6.42944e-05 -0.000389478)
(0.657573 2.26474e-05 -0.000149083)
(0.945504 -5.32935e-05 -0.000461554)
(0.658084 -1.76097e-05 -0.000183989)
(1.0957 -0.000115849 -0.000916621)
(1.16628 -0.00018206 -0.00124842)
(1.19041 -0.000239553 -0.00137935)
(1.19876 -0.000277848 -0.00141707)
(1.2025 -0.000300279 -0.00142732)
(1.20459 -0.000307805 -0.00143049)
(1.20593 -0.000301526 -0.00143286)
(1.20686 -0.00028274 -0.00143626)
(1.20755 -0.000252956 -0.00144087)
(1.20805 -0.000213861 -0.00144616)
(1.20842 -0.000167262 -0.00145133)
(1.20867 -0.000115021 -0.00145564)
(1.20882 -5.90202e-05 -0.00145849)
(1.20887 -1.12886e-06 -0.00145951)
(1.20882 5.67783e-05 -0.00145858)
(1.20868 0.000112826 -0.00145583)
(1.20843 0.000165146 -0.00145162)
(1.20807 0.000211855 -0.00144655)
(1.20756 0.000251092 -0.00144138)
(1.20688 0.000281047 -0.00143687)
(1.20595 0.000300033 -0.00143354)
(1.2046 0.000306535 -0.00143124)
(1.20252 0.000299252 -0.0014281)
(1.19878 0.00027707 -0.00141788)
(1.19042 0.000239013 -0.00138017)
(1.16629 0.000181758 -0.00124925)
(1.09571 0.000115784 -0.000917417)
(0.945509 5.33689e-05 -0.000462197)
(0.658088 1.76887e-05 -0.000184398)
(0.946072 -4.47353e-05 -0.000502041)
(0.658396 -1.37163e-05 -0.000206971)
(1.09665 -0.000108592 -0.000977903)
(1.16764 -0.00018586 -0.00132465)
(1.19208 -0.00025449 -0.00146205)
(1.20063 -0.000300789 -0.00150093)
(1.2045 -0.000327837 -0.00151001)
(1.2067 -0.000337183 -0.00151111)
(1.20812 -0.000330528 -0.00151111)
(1.20913 -0.000309735 -0.00151219)
(1.20987 -0.000276776 -0.00151467)
(1.21041 -0.000233691 -0.00151812)
(1.21081 -0.000182548 -0.00152184)
(1.21108 -0.000125406 -0.0015251)
(1.21124 -6.42907e-05 -0.00152732)
(1.2113 -1.18424e-06 -0.00152813)
(1.21125 6.19376e-05 -0.0015274)
(1.21109 0.000123099 -0.00152527)
(1.21082 0.000180319 -0.0015221)
(1.21043 0.00023157 -0.00151847)
(1.20988 0.000274796 -0.00151512)
(1.20915 0.000307929 -0.00151273)
(1.20814 0.000328928 -0.00151174)
(1.20672 0.000335818 -0.0015118)
(1.20453 0.000326732 -0.00151074)
(1.20065 0.000299956 -0.00150169)
(1.19209 0.000253917 -0.00146283)
(1.16765 0.000185544 -0.00132546)
(1.09666 0.000108525 -0.000978688)
(0.946079 4.48117e-05 -0.000502683)
(0.658401 1.37971e-05 -0.000207384)
(0.946494 -3.70731e-05 -0.000510572)
(0.658627 -1.01719e-05 -0.000215703)
(1.09736 -0.000101378 -0.000980156)
(1.16864 -0.000187001 -0.001323)
(1.19331 -0.000264747 -0.00146076)
(1.20201 -0.000318461 -0.00150073)
(1.206 -0.000350536 -0.00151006)
(1.20828 -0.000362602 -0.00151047)
(1.20977 -0.000356597 -0.00150909)
(1.21083 -0.000334738 -0.00150838)
(1.21162 -0.000299362 -0.00150895)
(1.2122 -0.000252838 -0.00151057)
(1.21262 -0.000197511 -0.00151272)
(1.21291 -0.00013567 -0.00151477)
(1.21308 -6.95342e-05 -0.00151624)
(1.21314 -1.2519e-06 -0.00151679)
(1.21308 6.70457e-05 -0.00151631)
(1.21292 0.000133227 -0.00151492)
(1.21263 0.000195145 -0.00151294)
(1.21221 0.000250582 -0.00151088)
(1.21164 0.000297251 -0.00150934)
(1.21086 0.000332805 -0.00150886)
(1.2098 0.000354879 -0.00150965)
(1.2083 0.000361135 -0.00151108)
(1.20602 0.000349349 -0.00151071)
(1.20204 0.000317569 -0.00150142)
(1.19333 0.00026414 -0.00146147)
(1.16866 0.000186672 -0.00132373)
(1.09737 0.000101308 -0.00098087)
(0.946502 3.71498e-05 -0.000511159)
(0.658633 1.02536e-05 -0.000216082)
(0.946813 -3.04361e-05 -0.000493805)
(0.658801 -7.11701e-06 -0.000212876)
(1.09789 -9.43728e-05 -0.000936377)
(1.1694 -0.00018575 -0.00126015)
(1.19423 -0.000270255 -0.00139203)
(1.20306 -0.000329952 -0.00143153)
(1.20713 -0.000366521 -0.00144123)
(1.20948 -0.000381443 -0.00144163)
(1.21103 -0.00037666 -0.00143964)
(1.21213 -0.000354549 -0.00143783)
(1.21295 -0.00031767 -0.001437)
(1.21356 -0.000268634 -0.00143717)
(1.214 -0.000210019 -0.00143797)
(1.2143 -0.000144331 -0.00143897)
(1.21448 -7.39868e-05 -0.00143976)
(1.21454 -1.31836e-06 -0.00144007)
(1.21449 7.13655e-05 -0.00143982)
(1.21431 0.000141755 -0.0014391)
(1.21401 0.000207522 -0.00143817)
(1.21358 0.000266248 -0.00143744)
(1.21297 0.000315433 -0.00143735)
(1.21216 0.000352497 -0.00143825)
(1.21105 0.000374834 -0.00144012)
(1.20951 0.000379881 -0.00144216)
(1.20716 0.000365258 -0.0014418)
(1.20308 0.000329005 -0.00143213)
(1.19425 0.000269613 -0.00139265)
(1.16941 0.000185404 -0.00126078)
(1.09791 9.42964e-05 -0.000936981)
(0.946822 3.05099e-05 -0.000494302)
(0.658807 7.19763e-06 -0.000213199)
(0.94705 -2.48926e-05 -0.000456428)
(0.658931 -4.57664e-06 -0.00020004)
(1.09829 -8.80202e-05 -0.000856623)
(1.16996 -0.000183195 -0.00114982)
(1.19492 -0.000272467 -0.0012705)
(1.20383 -0.000336644 -0.00130765)
(1.20797 -0.000376812 -0.00131727)
(1.21037 -0.00039425 -0.00131785)
(1.21196 -0.000390809 -0.00131574)
(1.2131 -0.000368905 -0.00131341)
(1.21394 -0.000331217 -0.00131177)
(1.21457 -0.000280509 -0.00131098)
(1.21503 -0.000219535 -0.00131084)
(1.21534 -0.000150975 -0.00131106)
(1.21553 -7.7422e-05 -0.00131133)
(1.21559 -1.37505e-06 -0.00131146)
(1.21553 7.46875e-05 -0.00131139)
(1.21535 0.000148287 -0.00131117)
(1.21505 0.000216926 -0.00131102)
(1.21459 0.000278014 -0.00131122)
(1.21397 0.000328874 -0.00131208)
(1.21313 0.000366754 -0.00131378)
(1.21199 0.000388891 -0.00131616)
(1.2104 0.000392608 -0.00131831)
(1.208 0.000375482 -0.00131776)
(1.20386 0.000335645 -0.00130814)
(1.19494 0.000271789 -0.00127101)
(1.16998 0.000182827 -0.00115032)
(1.0983 8.79323e-05 -0.000857101)
(0.947059 2.49612e-05 -0.000456823)
(0.658937 4.65492e-06 -0.000200298)
(0.947225 -2.04691e-05 -0.00040284)
(0.659026 -2.55996e-06 -0.000178968)
(1.09858 -8.26649e-05 -0.000749533)
(1.17037 -0.000180288 -0.00100375)
(1.19542 -0.000272815 -0.00110917)
(1.20439 -0.000340192 -0.00114227)
(1.20858 -0.000383054 -0.0011512)
(1.21101 -0.000402498 -0.0011519)
(1.21264 -0.000400258 -0.00114992)
(1.2138 -0.00037874 -0.00114749)
(1.21466 -0.000340672 -0.0011455)
(1.21531 -0.000288916 -0.0011442)
(1.21578 -0.000226342 -0.0011435)
(1.2161 -0.000155763 -0.00114323)
(1.21629 -7.99089e-05 -0.00114317)
(1.21635 -1.41893e-06 -0.00114318)
(1.21629 7.70867e-05 -0.00114322)
(1.21611 0.000152988 -0.00114333)
(1.21579 0.000223647 -0.00114365)
(1.21533 0.000286336 -0.0011444)
(1.21469 0.000338247 -0.00114576)
(1.21383 0.000376511 -0.0011478)
(1.21267 0.000398269 -0.00115027)
(1.21105 0.000400791 -0.00115227)
(1.20861 0.000381669 -0.00115159)
(1.20442 0.000339148 -0.00114266)
(1.19544 0.000272103 -0.00110956)
(1.17038 0.000179897 -0.00100413)
(1.0986 8.25639e-05 -0.000749886)
(0.947235 2.05314e-05 -0.000403132)
(0.659032 2.63542e-06 -0.00017916)
(0.947353 -1.70869e-05 -0.000336613)
(0.659095 -1.02879e-06 -0.000151183)
(1.09879 -7.84083e-05 -0.0006219)
(1.17066 -0.000177583 -0.000831178)
(1.19577 -0.000272291 -0.000918374)
(1.20479 -0.000341889 -0.000946111)
(1.20901 -0.000386685 -0.000953799)
(1.21147 -0.000407629 -0.000954493)
(1.21312 -0.000406356 -0.000952778)
(1.2143 -0.000385238 -0.000950538)
(1.21517 -0.000347026 -0.000948564)
(1.21583 -0.000294634 -0.000947116)
(1.21631 -0.000231013 -0.000946195)
(1.21663 -0.000159068 -0.000945684)
(1.21682 -8.1632e-05 -0.000945451)
(1.21689 -1.45038e-06 -0.000945397)
(1.21683 7.8747e-05 -0.000945488)
(1.21664 0.00015623 -0.00094576)
(1.21632 0.000228255 -0.000946312)
(1.21585 0.000291993 -0.000947276)
(1.2152 0.000344541 -0.000948765)
(1.21433 0.000382952 -0.000950778)
(1.21315 0.000404313 -0.000953047)
(1.21151 0.000405874 -0.00095478)
(1.20904 0.000385257 -0.000954092)
(1.20482 0.000340809 -0.000946399)
(1.1958 0.00027155 -0.00091865)
(1.17068 0.000177172 -0.000831435)
(1.09881 7.82948e-05 -0.000622137)
(0.947362 1.71433e-05 -0.00033681)
(0.659101 1.10151e-06 -0.000151313)
(0.947443 -1.46172e-05 -0.000260844)
(0.659144 8.60334e-08 -0.000118149)
(1.09895 -7.52384e-05 -0.00047922)
(1.17087 -0.000175414 -0.000639401)
(1.19602 -0.000271568 -0.000706302)
(1.20507 -0.000342665 -0.000727738)
(1.20931 -0.000388791 -0.000733766)
(1.21179 -0.000410794 -0.00073434)
(1.21345 -0.000410229 -0.000732971)
(1.21464 -0.000389441 -0.000731122)
(1.21553 -0.000351185 -0.000729426)
(1.21619 -0.00029841 -0.000728115)
(1.21667 -0.000234117 -0.000727218)
(1.217 -0.000161274 -0.000726672)
(1.21719 -8.27846e-05 -0.000726393)
(1.21726 -1.47099e-06 -0.000726316)
(1.2172 7.98584e-05 -0.00072642)
(1.21701 0.000158395 -0.000726727)
(1.21669 0.000231319 -0.000727303)
(1.21621 0.000295729 -0.000728231)
(1.21555 0.000348661 -0.000729571)
(1.21467 0.000387116 -0.000731294)
(1.21348 0.000408149 -0.000733163)
(1.21182 0.000409004 -0.000734542)
(1.20934 0.000387331 -0.000733967)
(1.2051 0.000341557 -0.00072793)
(1.19605 0.000270804 -0.000706477)
(1.17089 0.000174984 -0.000639556)
(1.09896 7.51143e-05 -0.000479357)
(0.947452 1.46686e-05 -0.000260956)
(0.65915 -1.56845e-08 -0.000118223)
(0.947504 -1.29486e-05 -0.000178038)
(0.659177 8.34775e-07 -8.11473e-05)
(1.09905 -7.30707e-05 -0.000325724)
(1.17101 -0.000173875 -0.000434032)
(1.19619 -0.000270957 -0.000479315)
(1.20525 -0.000343023 -0.000493875)
(1.20951 -0.000390015 -0.000497994)
(1.212 -0.000412714 -0.000498389)
(1.21366 -0.000412623 -0.000497432)
(1.21486 -0.000392066 -0.000496118)
(1.21575 -0.000353802 -0.000494888)
(1.21642 -0.000300797 -0.000493912)
(1.21691 -0.000236085 -0.000493221)
(1.21724 -0.000162675 -0.000492784)
(1.21743 -8.3517e-05 -0.00049255)
(1.2175 -1.48241e-06 -0.000492482)
(1.21744 8.05679e-05 -0.000492566)
(1.21725 0.000159773 -0.000492817)
(1.21692 0.000233264 -0.000493273)
(1.21644 0.000298093 -0.000493983)
(1.21578 0.000351255 -0.000494978)
(1.21489 0.000389719 -0.000496223)
(1.2137 0.000410521 -0.000497548)
(1.21203 0.000410903 -0.000498509)
(1.20954 0.000388535 -0.00049811)
(1.20528 0.000341896 -0.00049398)
(1.19621 0.000270175 -0.000479403)
(1.17103 0.000173432 -0.000434101)
(1.09906 7.29379e-05 -0.000325777)
(0.947513 1.29959e-05 -0.000178079)
(0.659183 -7.66366e-07 -8.1174e-05)
(0.94754 -1.19194e-05 -9.07867e-05)
(0.659196 1.29846e-06 -4.16037e-05)
(1.0991 -7.17345e-05 -0.000165468)
(1.17109 -0.000172932 -0.000220167)
(1.19629 -0.000270582 -0.00024299)
(1.20536 -0.00034322 -0.000250311)
(1.20962 -0.000390711 -0.000252374)
(1.21211 -0.000413805 -0.00025256)
(1.21379 -0.00041398 -0.000252061)
(1.21499 -0.00039355 -0.000251377)
(1.21588 -0.000355278 -0.000250733)
(1.21655 -0.000302142 -0.000250216)
(1.21704 -0.000237193 -0.000249845)
(1.21737 -0.000163462 -0.000249606)
(1.21757 -8.3927e-05 -0.000249475)
(1.21763 -1.48613e-06 -0.000249436)
(1.21757 8.09705e-05 -0.000249481)
(1.21738 0.000160552 -0.000249618)
(1.21706 0.000234364 -0.000249864)
(1.21657 0.00029943 -0.000250243)
(1.21591 0.000352723 -0.000250767)
(1.21502 0.000391194 -0.000251417)
(1.21382 0.000411868 -0.000252103)
(1.21215 0.000411983 -0.000252602)
(1.20965 0.00038922 -0.000252411)
(1.20539 0.000342082 -0.000250338)
(1.19631 0.00026979 -0.000243004)
(1.17111 0.00017248 -0.000220165)
(1.09912 7.1596e-05 -0.000165454)
(0.947548 1.19641e-05 -9.07692e-05)
(0.659202 -1.23141e-06 -4.15904e-05)
(0.947551 -1.15367e-05 -1.33014e-06)
(0.659203 1.47637e-06 -8.93296e-07)
(1.09912 -7.12549e-05 -1.60836e-06)
(1.17112 -0.000172622 -1.74291e-06)
(1.19632 -0.000270492 -1.79027e-06)
(1.20539 -0.000343331 -1.80605e-06)
(1.20966 -0.000390987 -1.81245e-06)
(1.21215 -0.000414205 -1.81612e-06)
(1.21383 -0.000414459 -1.81914e-06)
(1.21503 -0.000394064 -1.82208e-06)
(1.21593 -0.000355781 -1.82498e-06)
(1.2166 -0.000302596 -1.8276e-06)
(1.21708 -0.000237563 -1.82962e-06)
(1.21742 -0.000163723 -1.83069e-06)
(1.21761 -8.40607e-05 -1.83054e-06)
(1.21768 -1.48329e-06 -1.82899e-06)
(1.21762 8.11097e-05 -1.82601e-06)
(1.21743 0.000160819 -1.82174e-06)
(1.2171 0.000234739 -1.81645e-06)
(1.21662 0.000299888 -1.81047e-06)
(1.21595 0.00035323 -1.80416e-06)
(1.21506 0.000391711 -1.79775e-06)
(1.21386 0.000412351 -1.79125e-06)
(1.21219 0.000412386 -1.78428e-06)
(1.20969 0.000389497 -1.77581e-06)
(1.20542 0.000342193 -1.76326e-06)
(1.19634 0.0002697 -1.73931e-06)
(1.17113 0.000172169 -1.68144e-06)
(1.09914 7.11156e-05 -1.53791e-06)
(0.94756 1.15808e-05 -1.26243e-06)
(0.659208 -1.40968e-06 -8.45305e-07)
(0.94754 -1.1932e-05 8.81484e-05)
(0.659197 1.29485e-06 3.9832e-05)
(1.0991 -7.17672e-05 0.000162276)
(1.17109 -0.000172985 0.000216704)
(1.19629 -0.000270647 0.000239429)
(1.20536 -0.000343291 0.000246716)
(1.20962 -0.000390783 0.000248765)
(1.21212 -0.000413873 0.000248944)
(1.21379 -0.000414041 0.000248439)
(1.21499 -0.000393602 0.00024775)
(1.21589 -0.00035532 0.0002471)
(1.21655 -0.000302173 0.000246578)
(1.21704 -0.000237213 0.000246202)
(1.21737 -0.000163471 0.000245961)
(1.21757 -8.39254e-05 0.000245831)
(1.21763 -1.47407e-06 0.000245795)
(1.21757 8.09928e-05 0.000245846)
(1.21738 0.000160585 0.000245991)
(1.21706 0.000234407 0.000246248)
(1.21658 0.000299483 0.000246639)
(1.21591 0.000352786 0.000247175)
(1.21502 0.000391266 0.000247838)
(1.21382 0.000411948 0.000248537)
(1.21215 0.000412069 0.000249049)
(1.20965 0.000389307 0.000248876)
(1.20539 0.000342165 0.000246829)
(1.19631 0.000269865 0.000239545)
(1.17111 0.00017254 0.000216825)
(1.09912 7.16324e-05 0.000162403)
(0.947548 1.1978e-05 8.82667e-05)
(0.659202 -1.22751e-06 3.9915e-05)
(0.947504 -1.29733e-05 0.000175461)
(0.659177 8.27845e-07 7.9418e-05)
(1.09905 -7.31352e-05 0.000322601)
(1.17101 -0.00017398 0.000430635)
(1.19619 -0.000271086 0.000475815)
(1.20526 -0.000343165 0.000490337)
(1.20951 -0.000390159 0.000494441)
(1.212 -0.000412852 0.000494827)
(1.21367 -0.000412748 0.000493864)
(1.21487 -0.000392172 0.000492544)
(1.21576 -0.000353887 0.000491309)
(1.21643 -0.00030086 0.000490329)
(1.21691 -0.000236126 0.000489634)
(1.21724 -0.000162693 0.000489195)
(1.21744 -8.35138e-05 0.000488961)
(1.2175 -1.45803e-06 0.000488897)
(1.21744 8.06132e-05 0.000488987)
(1.21725 0.000159839 0.000489246)
(1.21693 0.000233351 0.000489713)
(1.21645 0.000298202 0.000490434)
(1.21578 0.000351384 0.00049144)
(1.2149 0.000389866 0.000492698)
(1.2137 0.000410684 0.000494034)
(1.21203 0.000411075 0.000495009)
(1.20954 0.000388709 0.000494628)
(1.20529 0.000342062 0.000490526)
(1.19622 0.000270322 0.000476003)
(1.17103 0.000173548 0.000430825)
(1.09906 7.30086e-05 0.000322794)
(0.947513 1.30227e-05 0.000175636)
(0.659183 -7.59175e-07 7.95403e-05)
(0.947443 -1.46533e-05 0.000258364)
(0.659144 7.63845e-08 0.000116486)
(1.09895 -7.53337e-05 0.000476206)
(1.17087 -0.000175569 0.000636114)
(1.19603 -0.000271761 0.000702907)
(1.20507 -0.000342878 0.000724304)
(1.20931 -0.000389009 0.000730314)
(1.21179 -0.000411003 0.00073088)
(1.21345 -0.000410418 0.000729505)
(1.21465 -0.000389603 0.000727651)
(1.21553 -0.000351316 0.00072595)
(1.21619 -0.000298507 0.000724636)
(1.21668 -0.00023418 0.000723736)
(1.21701 -0.000161302 0.000723189)
(1.2172 -8.27804e-05 0.00072291)
(1.21726 -1.4343e-06 0.000722837)
(1.2172 7.99271e-05 0.000722947)
(1.21702 0.000158495 0.000723262)
(1.21669 0.000231452 0.000723847)
(1.21622 0.000295894 0.000724786)
(1.21556 0.000348857 0.000726137)
(1.21468 0.00038734 0.00072787)
(1.21349 0.000408395 0.00072975)
(1.21183 0.000409264 0.000731141)
(1.20935 0.000387593 0.000730584)
(1.2051 0.000341805 0.000724576)
(1.19605 0.000271022 0.000703178)
(1.17089 0.000175155 0.000636385)
(1.09896 7.52173e-05 0.000476477)
(0.947452 1.4707e-05 0.000258606)
(0.65915 -5.97846e-09 0.000116653)
(0.947353 -1.71337e-05 0.000334264)
(0.659095 -1.04074e-06 0.000149611)
(1.0988 -7.85337e-05 0.000619036)
(1.17066 -0.000177789 0.000828046)
(1.19578 -0.000272549 0.000915137)
(1.2048 -0.000342173 0.000942834)
(1.20902 -0.000386977 0.000950505)
(1.21148 -0.00040791 0.000951192)
(1.21312 -0.000406611 0.000949472)
(1.21431 -0.000385457 0.000947229)
(1.21518 -0.000347202 0.000945251)
(1.21584 -0.000294765 0.000943801)
(1.21632 -0.000231098 0.000942877)
(1.21664 -0.000159108 0.000942365)
(1.21683 -8.16272e-05 0.000942133)
(1.2169 -1.40182e-06 0.000942082)
(1.21684 7.88387e-05 0.000942179)
(1.21665 0.000156365 0.000942459)
(1.21633 0.000228434 0.00094302)
(1.21586 0.000292214 0.000943994)
(1.21521 0.000344804 0.000945492)
(1.21434 0.000383252 0.000947513)
(1.21316 0.000404643 0.000949791)
(1.21151 0.000406222 0.000951534)
(1.20905 0.000385605 0.000950861)
(1.20483 0.000341138 0.000943195)
(1.1958 0.000271839 0.0009155)
(1.17068 0.000177396 0.000828411)
(1.09881 7.84293e-05 0.000619397)
(0.947362 1.71925e-05 0.000334581)
(0.659101 1.11321e-06 0.000149827)
(0.947225 -2.05261e-05 0.000400655)
(0.659026 -2.57396e-06 0.00017751)
(1.09858 -8.28201e-05 0.000746861)
(1.17037 -0.000180543 0.00100083)
(1.19542 -0.000273136 0.00110615)
(1.2044 -0.000340547 0.00113921)
(1.20858 -0.000383419 0.00114813)
(1.21102 -0.000402849 0.00114882)
(1.21265 -0.000400577 0.00114684)
(1.21381 -0.000379014 0.00114441)
(1.21468 -0.000340894 0.00114242)
(1.21532 -0.000289081 0.00114111)
(1.21579 -0.00022645 0.00114042)
(1.21611 -0.000155814 0.00114014)
(1.2163 -7.99039e-05 0.00114008)
(1.21636 -1.3595e-06 0.0011401)
(1.21631 7.71999e-05 0.00114014)
(1.21612 0.000153155 0.00114025)
(1.21581 0.000223868 0.00114059)
(1.21534 0.000286611 0.00114134)
(1.2147 0.000338573 0.00114271)
(1.21384 0.000376883 0.00114476)
(1.21268 0.000398679 0.00114723)
(1.21105 0.000401224 0.00114924)
(1.20861 0.000382103 0.00114857)
(1.20443 0.000339557 0.00113966)
(1.19544 0.000272461 0.00110661)
(1.17039 0.000180174 0.00100129)
(1.0986 8.27292e-05 0.000747322)
(0.947234 2.05908e-05 0.000401055)
(0.659032 2.64877e-06 0.000177779)
(0.94705 -2.49593e-05 0.000454442)
(0.658931 -4.59241e-06 0.000198717)
(1.09829 -8.8204e-05 0.000854186)
(1.16996 -0.000183499 0.00114715)
(1.19492 -0.000272849 0.00126775)
(1.20384 -0.000337067 0.00130486)
(1.20798 -0.000377245 0.00131448)
(1.21038 -0.000394667 0.00131506)
(1.21197 -0.000391187 0.00131295)
(1.21311 -0.000369229 0.00131063)
(1.21396 -0.000331478 0.00130899)
(1.21459 -0.000280704 0.00130819)
(1.21505 -0.000219662 0.00130805)
(1.21536 -0.000151035 0.00130827)
(1.21554 -7.74172e-05 0.00130854)
(1.21561 -1.3064e-06 0.00130868)
(1.21555 7.48191e-05 0.00130861)
(1.21537 0.000148482 0.0013084)
(1.21506 0.000217184 0.00130825)
(1.21461 0.000278335 0.00130846)
(1.21398 0.000329256 0.00130933)
(1.21314 0.000367192 0.00131103)
(1.212 0.000389374 0.00131341)
(1.21041 0.000393119 0.00131556)
(1.20801 0.000375994 0.00131501)
(1.20386 0.000336129 0.00130541)
(1.19495 0.000272213 0.00126831)
(1.16998 0.000183156 0.00114772)
(1.0983 8.8127e-05 0.000854754)
(0.947059 2.50299e-05 0.000454928)
(0.658936 4.66954e-06 0.000199042)
(0.946813 -3.05117e-05 0.000492051)
(0.658801 -7.13441e-06 0.000211711)
(1.0979 -9.45837e-05 0.00093422)
(1.1694 -0.0001861 0.00125779)
(1.19424 -0.000270694 0.0013896)
(1.20307 -0.000330437 0.00142909)
(1.20714 -0.000367015 0.00143879)
(1.20949 -0.000381916 0.00143919)
(1.21104 -0.000377087 0.00143721)
(1.21215 -0.000354914 0.0014354)
(1.21297 -0.000317964 0.00143458)
(1.21358 -0.000268852 0.00143475)
(1.21402 -0.000210161 0.00143556)
(1.21432 -0.000144398 0.00143656)
(1.2145 -7.39822e-05 0.00143734)
(1.21456 -1.24297e-06 0.00143766)
(1.21451 7.15108e-05 0.00143742)
(1.21433 0.00014197 0.0014367)
(1.21403 0.000207808 0.00143578)
(1.2136 0.000266605 0.00143505)
(1.21299 0.000315859 0.00143496)
(1.21217 0.000352988 0.00143586)
(1.21107 0.000375377 0.00143773)
(1.20952 0.000380457 0.00143976)
(1.20717 0.000365839 0.00143939)
(1.20309 0.000329556 0.00142972)
(1.19426 0.000270098 0.00139026)
(1.16942 0.000185781 0.00125847)
(1.09791 9.45187e-05 0.000934891)
(0.946821 3.05871e-05 0.000492618)
(0.658807 7.21327e-06 0.000212086)
(0.946495 -3.71572e-05 0.000509084)
(0.658628 -1.0191e-05 0.000214716)
(1.09736 -0.000101614 0.000978325)
(1.16865 -0.000187392 0.001321)
(1.19332 -0.000265236 0.00145872)
(1.20203 -0.000318997 0.00149869)
(1.20601 -0.000351079 0.00150802)
(1.20829 -0.000363119 0.00150845)
(1.20979 -0.00035706 0.00150708)
(1.21085 -0.000335132 0.00150639)
(1.21164 -0.000299678 0.00150696)
(1.21222 -0.000253072 0.00150859)
(1.21264 -0.000197664 0.00151074)
(1.21293 -0.000135743 0.0015128)
(1.2131 -6.95303e-05 0.00151427)
(1.21316 -1.17297e-06 0.00151482)
(1.21311 6.71988e-05 0.00151434)
(1.21294 0.000133454 0.00151296)
(1.21266 0.000195448 0.00151098)
(1.21224 0.000250961 0.00150892)
(1.21166 0.000297705 0.00150738)
(1.21088 0.000333331 0.00150689)
(1.20982 0.000355465 0.00150766)
(1.20832 0.000361761 0.00150908)
(1.20604 0.000349985 0.0015087)
(1.20205 0.000318177 0.0014994)
(1.19333 0.000264679 0.00145946)
(1.16866 0.000187093 0.00132177)
(1.09737 0.000101557 0.000979079)
(0.946502 3.72351e-05 0.000509716)
(0.658633 1.02703e-05 0.000215131)
(0.946073 -4.48272e-05 0.000500848)
(0.658397 -1.37374e-05 0.00020618)
(1.09666 -0.000108849 0.000976438)
(1.16765 -0.000186285 0.00132307)
(1.19209 -0.000255017 0.00146044)
(1.20064 -0.000301363 0.00149932)
(1.20452 -0.000328413 0.00150842)
(1.20672 -0.000337727 0.00150955)
(1.20814 -0.000331013 0.00150957)
(1.20915 -0.000310146 0.00151066)
(1.20989 -0.000277104 0.00151316)
(1.21044 -0.000233934 0.00151663)
(1.21084 -0.000182708 0.00152035)
(1.21111 -0.000125483 0.00152362)
(1.21127 -6.42887e-05 0.00152584)
(1.21132 -1.10503e-06 0.00152665)
(1.21127 6.20931e-05 0.00152593)
(1.21112 0.000123331 0.0015238)
(1.21085 0.000180628 0.00152063)
(1.21045 0.000231958 0.001517)
(1.20991 0.000275263 0.00151363)
(1.20917 0.000308471 0.00151122)
(1.20816 0.000329535 0.0015102)
(1.20674 0.000336472 0.00151023)
(1.20454 0.000327402 0.00150915)
(1.20066 0.000300604 0.00150009)
(1.1921 0.000254498 0.00146123)
(1.16765 0.000186003 0.00132389)
(1.09666 0.000108796 0.000977239)
(0.946079 4.49046e-05 0.000501511)
(0.658401 1.38153e-05 0.000206611)
(0.945504 -5.33919e-05 0.000460681)
(0.658084 -1.76331e-05 0.000183409)
(1.0957 -0.000116122 0.000915556)
(1.16628 -0.000182508 0.00124727)
(1.19042 -0.000240103 0.00137819)
(1.19878 -0.00027844 0.00141592)
(1.20252 -0.00030087 0.00142618)
(1.20461 -0.00030836 0.00142939)
(1.20595 -0.000302021 0.00143179)
(1.20689 -0.000283158 0.00143523)
(1.20757 -0.000253291 0.00143987)
(1.20808 -0.000214111 0.00144518)
(1.20845 -0.000167427 0.00145037)
(1.2087 -0.000115103 0.00145469)
(1.20884 -5.90213e-05 0.00145755)
(1.20889 -1.051e-06 0.00145858)
(1.20885 5.6934e-05 0.00145765)
(1.2087 0.000113059 0.00145489)
(1.20846 0.000165457 0.00145067)
(1.20809 0.000212246 0.00144559)
(1.20759 0.000251561 0.00144039)
(1.2069 0.000281592 0.00143584)
(1.20597 0.000300644 0.00143247)
(1.20462 0.000307196 0.00143013)
(1.20253 0.000299935 0.00142695)
(1.19879 0.000277738 0.0014167)
(1.19043 0.000239619 0.00137899)
(1.16629 0.000182242 0.00124809)
(1.09571 0.000116073 0.000916344)
(0.945509 5.34686e-05 0.000461325)
(0.658088 1.77087e-05 0.000183823)
(0.944573 -6.43167e-05 0.000388358)
(0.65757 -2.25941e-05 0.000148357)
(1.09411 -0.000126009 0.000789617)
(1.16402 -0.000179747 0.00108469)
(1.18774 -0.000225581 0.00120463)
(1.19586 -0.0002568 0.00124322)
(1.19945 -0.000275904 0.00125695)
(1.20142 -0.000282668 0.00126349)
(1.20266 -0.000277362 0.00126852)
(1.20351 -0.0002607 0.00127391)
(1.20413 -0.000233802 0.00127994)
(1.20458 -0.00019809 0.00128619)
(1.20491 -0.000155191 0.001292)
(1.20513 -0.000106846 0.0012967)
(1.20526 -5.48521e-05 0.00129976)
(1.2053 -1.01743e-06 0.00130085)
(1.20526 5.28326e-05 0.00129986)
(1.20513 0.000104873 0.00129691)
(1.20491 0.000153294 0.00129232)
(1.20459 0.0001963 0.00128662)
(1.20414 0.000232149 0.00128047)
(1.20352 0.000259212 0.00127453)
(1.20267 0.000276062 0.00126921)
(1.20143 0.000281573 0.00126422)
(1.19946 0.000275027 0.0012577)
(1.19587 0.000256142 0.00124397)
(1.18774 0.000225128 0.00120538)
(1.16403 0.000179499 0.00108543)
(1.09411 0.000125969 0.000790321)
(0.944576 6.43959e-05 0.000388923)
(0.657573 2.26685e-05 0.000148716)
(0.94166 -7.90669e-05 0.000280317)
(0.656078 -2.90618e-05 0.000100267)
(1.08894 -0.000143805 0.00058918)
(1.15732 -0.000187941 0.000824312)
(1.18081 -0.000223694 0.000931878)
(1.18901 -0.00024908 0.000974779)
(1.19256 -0.000265264 0.000993718)
(1.19442 -0.000270816 0.00100361)
(1.19553 -0.000265415 0.00101036)
(1.19627 -0.000249431 0.0010164)
(1.1968 -0.000223764 0.00102243)
(1.19718 -0.000189679 0.00102834)
(1.19745 -0.00014868 0.00103366)
(1.19764 -0.000102412 0.0010379)
(1.19775 -5.26005e-05 0.00104063)
(1.19778 -9.95279e-07 0.0010416)
(1.19775 5.06262e-05 0.00104073)
(1.19764 0.000100486 0.00103809)
(1.19746 0.000146835 0.00103396)
(1.19718 0.000187946 0.00102874)
(1.1968 0.000222174 0.00102293)
(1.19628 0.00024801 0.00101698)
(1.19554 0.000264183 0.00101099)
(1.19442 0.000269785 0.00100426)
(1.19256 0.000264442 0.000994375)
(1.18901 0.000248463 0.000975423)
(1.18082 0.00022327 0.000932502)
(1.15732 0.000187711 0.000824913)
(1.08894 0.000143781 0.000589736)
(0.941661 7.9157e-05 0.00028076)
(0.65608 2.91401e-05 0.000100549)
(0.926233 -9.58316e-05 0.000173472)
(0.648909 -3.7589e-05 6.41716e-05)