/*--------------------------------*- C++ -*----------------------------------*\
  =========                 |
  \\      /  F ield         | OpenFOAM: The Open Source CFD Toolbox
   \\    /   O peration     | Website:  https://openfoam.org
    \\  /    A nd           | Version:  6
     \\/     M anipulation  |
\*---------------------------------------------------------------------------*/
FoamFile
{
    version     2.0;
    format      ascii;
    class       volScalarField;
    location    "0.23";
    object      epsilon;
}
// * * * * * * * * * * * * * * * * * * * * * * * * * * * * * * * * * * * * * //

dimensions      [0 2 -3 0 0 0 0];

internalField   nonuniform List<scalar> 
12225
(
307.554
159.142
103.206
76.18
60.8913
51.3535
44.9136
40.2537
36.6898
33.8497
31.5179
29.5609
27.8906
26.4461
25.1826
24.0677
23.0757
22.2405
71.6109
59.7633
44.4174
34.349
27.8021
23.3528
20.2004
17.8781
16.1025
14.6994
13.5605
12.6163
11.8199
11.1388
10.5495
10.0349
9.58091
9.17238
33.6139
34.4055
29.2906
24.3864
20.5356
17.6092
15.3794
13.6554
12.2959
11.2018
10.3045
9.5564
8.92379
8.38234
7.91409
7.50557
7.14638
6.82843
22.4947
24.1974
22.2225
19.5419
17.0649
14.9827
13.2827
11.9021
10.7747
9.8448
9.06891
8.41418
7.85579
7.37497
6.95739
6.59202
6.27054
5.98822
18.0525
19.1659
18.2265
16.5959
14.8967
13.3495
12.0108
10.8752
9.91685
9.1065
8.41758
7.82791
7.31952
6.87808
6.49223
6.15295
5.85353
5.59099
15.9662
16.4002
15.7672
14.6433
13.3964
12.1983
11.1154
10.1639
9.33794
8.62363
8.00539
7.4686
7.0005
6.5903
6.22908
5.9096
5.62646
5.37778
14.903
14.7895
14.1897
13.3006
12.3143
11.3432
10.4411
9.62825
8.9069
8.27129
7.71249
7.22094
6.78762
6.40445
6.06449
5.76196
5.49258
5.25522
14.3404
13.8261
13.1601
12.3652
11.5232
10.6961
9.91942
9.20915
8.56932
7.9976
7.48864
7.036
6.63316
6.27402
5.95313
5.66588
5.40889
5.18159
14.0387
13.2461
12.4873
11.7147
10.9458
10.2062
9.51374
8.87735
8.29946
7.77843
7.31045
6.89076
6.51437
6.1765
5.87278
5.59945
5.35385
5.13579
13.8768
12.8995
12.0524
11.2678
10.5298
9.83968
9.20107
8.61587
8.0835
7.60148
7.16627
6.77377
6.41981
6.1004
5.81188
5.5511
5.31591
5.10635
13.7906
12.6958
11.7767
10.9671
10.2363
9.57091
8.96456
8.41313
7.91282
7.45972
7.0498
6.67902
6.34353
6.0397
5.7643
5.51458
5.2887
5.08684
13.7489
12.5882
11.6206
10.7868
10.0518
9.3952
8.80487
8.27256
7.79192
7.3576
6.96487
6.60942
6.28737
5.99521
5.72987
5.48881
5.27036
5.07473
13.7254
12.5235
11.521
10.6659
9.92274
9.26802
8.68592
8.16531
7.69784
7.27686
6.89688
6.55321
6.24179
5.95909
5.7021
5.46837
5.25632
5.06612
13.7116
12.4831
11.4547
10.5809
9.8278
9.17069
8.5918
8.07804
7.61945
7.20826
6.83821
6.50413
6.2017
5.92726
5.67774
5.45073
5.24467
5.05965
13.7045
12.4608
11.416
10.5284
9.76602
9.1045
8.52533
8.01438
7.56071
7.15568
6.79241
6.46529
6.16969
5.90177
5.65837
5.437
5.2361
5.05562
13.7012
12.4503
11.3966
10.5006
9.7316
9.06588
8.48493
7.97432
7.52261
7.12073
6.76138
6.43861
6.14754
5.88416
5.64519
5.42806
5.23113
5.05425
13.7
12.4461
11.3886
10.4886
9.71594
9.04748
8.4649
7.95374
7.50248
7.10184
6.74432
6.42382
6.13528
5.87459
5.63835
5.42394
5.22964
5.05519
13.6996
12.4449
11.3862
10.4848
9.71086
9.0413
8.45795
7.94642
7.49517
7.09489
6.73805
6.41844
6.13098
5.87147
5.6365
5.42338
5.23037
5.05712
13.6998
12.4453
11.387
10.486
9.71247
9.04326
8.46018
7.94881
7.49761
7.09732
6.74037
6.42062
6.13297
5.87326
5.63807
5.42472
5.23148
5.05803
13.701
12.4493
11.3947
10.4976
9.72764
9.06119
8.47987
7.96922
7.51781
7.11651
6.75795
6.43612
6.1461
5.88383
5.64598
5.42998
5.23414
5.05827
13.7054
12.4634
11.4201
10.5336
9.7719
9.11064
8.53149
8.02045
7.56664
7.1615
6.79817
6.47102
6.17545
5.90761
5.66433
5.44311
5.24237
5.06209
13.7204
12.5081
11.4948
10.6317
9.88426
9.22861
8.64818
8.13095
7.66784
7.25169
6.87662
6.53772
6.2308
5.95227
5.6991
5.46883
5.2599
5.07246
13.767
12.633
11.6842
10.8596
10.1263
9.46683
8.87115
8.3324
7.84513
7.40449
7.00597
6.64538
6.31884
6.02282
5.75419
5.51034
5.28955
5.09204
13.9007
12.9462
12.1086
11.3251
10.5843
9.88982
9.24647
8.65674
8.12025
7.63465
7.19636
6.80128
6.44518
6.12403
5.83409
5.57219
5.33612
5.12597
14.2607
13.6658
12.974
12.1888
11.372
10.5738
9.8239
9.13626
8.5147
7.95739
7.45969
7.01584
6.6199
6.26622
5.94971
5.666
5.41195
5.18722
15.1941
15.2319
14.6347
13.6937
12.6456
11.6176
10.6673
9.81511
9.0623
8.40177
7.82333
7.31635
6.8709
6.47819
6.13071
5.8222
5.54807
5.30718
17.6338
18.6177
17.7644
16.2579
14.6629
13.1886
11.8967
10.7899
9.84901
9.04946
8.36752
7.78266
7.27788
6.83938
6.45604
6.11904
5.8218
5.56204
24.7058
26.4229
23.9014
20.7811
17.9998
15.7043
13.8525
12.3634
11.1581
10.1718
9.35476
8.66957
8.08837
7.59021
7.15923
6.78336
6.45367
6.16629
51.9669
47.7357
37.7987
30.1744
24.7627
20.8813
18.0409
15.9128
14.276
12.9836
11.9391
11.0777
10.3553
9.74068
9.21153
8.75145
8.34845
7.99656
251.833
137.373
90.8043
67.1602
53.3514
44.5812
38.6439
34.3887
31.1843
28.6716
26.6378
24.9508
23.5247
22.3014
21.2396
20.3092
19.4877
18.7604
0.0547147
0.0596413
0.0757193
0.0814012
0.0871665
0.0957668
0.106853
0.120814
0.139163
0.161738
0.185995
0.213097
0.243291
0.276543
0.312633
0.351236
0.391977
0.43447
0.478345
0.523261
0.568908
0.615017
0.661356
0.707731
0.753989
0.800008
0.845703
0.891014
0.935912
0.980385
1.02444
1.0681
1.11141
1.15439
1.19709
1.23956
1.28185
1.32401
1.36607
1.40808
1.45006
1.49207
1.53411
1.57623
1.61844
1.66079
1.7033
1.74604
1.78909
1.83257
1.87667
1.92168
1.96802
2.01501
2.06177
2.10828
2.15448
2.20022
2.24537
2.28974
2.33314
2.37534
2.41613
2.45524
2.49242
2.5274
2.55991
2.58967
2.6164
2.63982
2.65967
2.67571
2.6877
2.69543
2.69873
2.69746
2.69151
2.68082
2.66535
2.64515
2.62028
2.59084
2.557
2.51895
2.47693
2.4312
2.38206
2.32983
2.27485
2.21749
2.15816
2.09746
2.03654
1.97808
1.92758
1.88729
1.84939
1.81146
1.77325
1.73483
1.69632
1.65786
1.61961
1.5817
1.54423
1.50733
1.47108
1.43556
1.40083
1.36695
1.33396
1.30189
1.27076
1.24057
1.21134
1.18304
1.15566
1.12919
1.10359
1.07883
1.05486
1.03166
1.00917
0.987343
0.966133
0.945488
0.925359
0.905699
0.886461
0.867602
0.849084
0.830872
0.812938
0.795261
0.777824
0.760621
0.74365
0.726917
0.710435
0.694215
0.678271
0.662608
0.647225
0.632129
0.6174
0.603306
0.590157
0.577883
0.566461
0.555873
0.546099
0.537124
0.528925
0.521482
0.514771
0.508762
0.503425
0.498724
0.494623
0.491081
0.488057
0.485506
0.483385
0.48165
0.480256
0.479159
0.478313
0.477674
0.477196
0.47683
0.476521
0.476207
0.475811
0.475232
0.474325
0.472862
0.470474
0.466431
0.459641
0.447575
0.151865
0.0974059
0.093218
0.101754
0.115458
0.133072
0.154208
0.177658
0.201815
0.225316
0.247546
0.268587
0.288594
0.307704
0.326041
0.34373
0.360898
0.377665
0.394144
0.410426
0.426585
0.44267
0.458716
0.474738
0.490742
0.506724
0.522679
0.538596
0.554467
0.570284
0.58604
0.601732
0.617357
0.632915
0.648407
0.663836
0.679205
0.694515
0.709773
0.72498
0.740142
0.755263
0.770349
0.785408
0.800451
0.815493
0.830555
0.845667
0.860872
0.87623
0.891819
0.907743
0.924111
0.940899
0.957658
0.974305
0.990796
1.00709
1.02312
1.03885
1.05419
1.06909
1.08345
1.0972
1.11026
1.12251
1.13388
1.14426
1.15355
1.16166
1.16848
1.17393
1.17792
1.18036
1.18119
1.18035
1.17779
1.17348
1.16739
1.15954
1.14992
1.13858
1.12556
1.11092
1.09475
1.07713
1.05817
1.03799
1.01674
0.994562
0.971657
0.94828
0.924802
0.901734
0.880188
0.860174
0.840581
0.821049
0.801531
0.782059
0.762689
0.743477
0.724478
0.705743
0.687316
0.669234
0.651532
0.634234
0.617364
0.600937
0.584965
0.569457
0.554414
0.539838
0.525724
0.512066
0.498854
0.486079
0.473725
0.461779
0.450222
0.439039
0.428209
0.417715
0.407537
0.397656
0.388054
0.378713
0.369616
0.360747
0.352094
0.343644
0.335387
0.327315
0.319423
0.311707
0.304169
0.296808
0.289629
0.282636
0.275838
0.269241
0.262858
0.25671
0.250834
0.245304
0.240242
0.235569
0.231199
0.227126
0.223347
0.219855
0.216642
0.213701
0.211023
0.208598
0.206416
0.204465
0.202734
0.20121
0.199882
0.198735
0.197757
0.196934
0.196253
0.195703
0.19527
0.194944
0.194715
0.194575
0.194518
0.194543
0.194654
0.194866
0.195217
0.19579
0.196776
0.19862
0.202381
0.211278
0.299377
0.158715
0.146047
0.149633
0.160072
0.175206
0.193409
0.212816
0.231726
0.24913
0.264808
0.279026
0.292189
0.304678
0.316804
0.328799
0.340824
0.35298
0.365314
0.377838
0.390531
0.403355
0.41626
0.429194
0.442107
0.454955
0.467702
0.48032
0.492788
0.505095
0.517233
0.529201
0.541001
0.55264
0.564124
0.575465
0.586672
0.59776
0.608741
0.61963
0.630445
0.641202
0.651921
0.662622
0.673328
0.684065
0.694857
0.705735
0.716728
0.727866
0.739177
0.750684
0.7624
0.774243
0.786105
0.79794
0.809716
0.821401
0.832961
0.844356
0.855542
0.866469
0.877079
0.887311
0.897099
0.906371
0.915049
0.923056
0.930308
0.936724
0.942219
0.946712
0.950127
0.952388
0.95343
0.953195
0.951633
0.948708
0.944395
0.938681
0.93157
0.923077
0.913233
0.902082
0.889683
0.876106
0.861435
0.845765
0.829203
0.811872
0.793909
0.775475
0.756749
0.738151
0.720099
0.70242
0.684895
0.66744
0.65006
0.632788
0.615672
0.598759
0.582092
0.565712
0.549653
0.533942
0.518606
0.503662
0.489126
0.475008
0.461315
0.44805
0.435214
0.422803
0.410813
0.399237
0.388064
0.377283
0.366884
0.35685
0.34717
0.337826
0.328805
0.320089
0.311663
0.303512
0.29562
0.287973
0.280558
0.273361
0.266371
0.259579
0.252975
0.246552
0.240305
0.23423
0.228324
0.222588
0.217021
0.211627
0.206409
0.201373
0.196525
0.191877
0.187443
0.183242
0.179299
0.175626
0.172221
0.169055
0.16612
0.163411
0.160922
0.158644
0.156571
0.154694
0.153005
0.151494
0.150152
0.148969
0.147933
0.147036
0.146266
0.145612
0.145066
0.144616
0.144253
0.14397
0.143758
0.143612
0.143526
0.143498
0.14353
0.143629
0.143815
0.144132
0.144673
0.145662
0.147596
0.151747
0.452933
0.225673
0.194907
0.190623
0.195248
0.204619
0.216698
0.229868
0.24292
0.255219
0.26667
0.277489
0.287984
0.298425
0.309008
0.319849
0.330999
0.34246
0.354203
0.366176
0.378318
0.390565
0.402855
0.415131
0.427345
0.439455
0.45143
0.463246
0.474887
0.486342
0.497607
0.50868
0.519564
0.530265
0.540792
0.551155
0.561367
0.571442
0.581397
0.591248
0.601014
0.610715
0.620373
0.63001
0.639647
0.649308
0.659016
0.668792
0.678657
0.688628
0.698719
0.708938
0.719289
0.729736
0.740232
0.750749
0.761264
0.771753
0.782189
0.792538
0.802761
0.812815
0.822646
0.832198
0.841407
0.850203
0.858511
0.866252
0.873342
0.879698
0.885232
0.889861
0.893502
0.896076
0.897513
0.897747
0.896725
0.894403
0.890751
0.885751
0.8794
0.871709
0.862704
0.852426
0.840926
0.828274
0.814545
0.799832
0.784233
0.767857
0.750819
0.733244
0.715408
0.697622
0.679926
0.662307
0.644742
0.627239
0.609831
0.592564
0.575487
0.558646
0.542085
0.525842
0.509948
0.494433
0.479316
0.464617
0.450347
0.436517
0.42313
0.410188
0.397691
0.385634
0.374011
0.362814
0.352032
0.341654
0.331667
0.322057
0.31281
0.30391
0.295342
0.28709
0.279139
0.271472
0.264076
0.256934
0.250035
0.243365
0.236911
0.230664
0.224615
0.218754
0.213076
0.207574
0.202247
0.197089
0.192102
0.187285
0.182639
0.178168
0.173875
0.169766
0.165849
0.162131
0.158623
0.155332
0.152264
0.149414
0.146772
0.144331
0.142087
0.140033
0.138162
0.136467
0.13494
0.133572
0.132355
0.131279
0.130336
0.129515
0.128807
0.128202
0.127692
0.127266
0.126918
0.126639
0.126423
0.126262
0.126154
0.126095
0.126084
0.126127
0.126236
0.126438
0.126791
0.127425
0.128597
0.130803
0.580253
0.272555
0.228806
0.218447
0.217961
0.222165
0.229035
0.237327
0.246222
0.25529
0.264414
0.273659
0.283145
0.292973
0.303201
0.313843
0.324877
0.33626
0.347935
0.359839
0.371909
0.384085
0.39631
0.408536
0.420718
0.432821
0.444814
0.456673
0.468379
0.479918
0.491281
0.502462
0.51346
0.524276
0.534915
0.545383
0.555691
0.565851
0.575876
0.585783
0.595589
0.605313
0.614975
0.624596
0.634197
0.643799
0.653422
0.663086
0.672808
0.682605
0.692489
0.70247
0.712559
0.722744
0.732998
0.743301
0.753637
0.763985
0.774321
0.784613
0.794825
0.804913
0.814825
0.824503
0.83388
0.842885
0.851439
0.859457
0.866853
0.873534
0.87941
0.884388
0.888379
0.891299
0.893069
0.893618
0.892888
0.890829
0.887406
0.8826
0.876405
0.86883
0.859901
0.849659
0.838156
0.825462
0.811656
0.796827
0.781078
0.76451
0.747222
0.729503
0.711541
0.693427
0.675231
0.657002
0.63878
0.620613
0.602555
0.58466
0.566982
0.54957
0.53247
0.515719
0.499352
0.483396
0.467872
0.452798
0.438187
0.424046
0.410381
0.397192
0.384476
0.37223
0.360447
0.349116
0.338228
0.32777
0.317728
0.308087
0.298833
0.28995
0.28142
0.273228
0.265358
0.257793
0.250517
0.243516
0.236773
0.230277
0.224013
0.217971
0.212139
0.206508
0.20107
0.195819
0.190748
0.185854
0.181134
0.176587
0.172212
0.16801
0.163982
0.160132
0.156463
0.15298
0.149687
0.146589
0.143691
0.140993
0.138489
0.136174
0.134043
0.132091
0.13031
0.128695
0.127239
0.125932
0.124767
0.123735
0.122827
0.122035
0.121348
0.120759
0.120258
0.119837
0.119488
0.119203
0.118977
0.118803
0.118676
0.118594
0.118554
0.118561
0.118622
0.118756
0.119003
0.119442
0.120221
0.121552
0.665583
0.30181
0.248394
0.233566
0.229523
0.230271
0.233785
0.239053
0.245477
0.252714
0.260598
0.269067
0.2781
0.287682
0.297785
0.308368
0.319379
0.330761
0.342455
0.354402
0.366547
0.378837
0.391224
0.403662
0.416112
0.428537
0.440906
0.453191
0.465368
0.477418
0.489324
0.501075
0.512662
0.524081
0.535331
0.546413
0.557332
0.568096
0.578715
0.589203
0.599574
0.609845
0.620033
0.630157
0.640238
0.650294
0.660346
0.670413
0.680512
0.690661
0.700874
0.711167
0.721551
0.73203
0.742585
0.753202
0.763868
0.774563
0.785265
0.795942
0.806559
0.817068
0.827417
0.837544
0.84738
0.856847
0.865862
0.874335
0.882171
0.889272
0.895541
0.900878
0.905187
0.908378
0.910365
0.911073
0.910438
0.90841
0.90495
0.900037
0.893667
0.885849
0.876611
0.865996
0.854062
0.840882
0.826538
0.811118
0.794744
0.777498
0.759692
0.741419
0.722797
0.703929
0.684901
0.665791
0.646668
0.627601
0.608654
0.589891
0.57137
0.553144
0.53526
0.517758
0.500673
0.484033
0.467861
0.452174
0.436984
0.422301
0.408127
0.394465
0.381311
0.36866
0.356504
0.344834
0.333638
0.322903
0.312614
0.302757
0.293314
0.28427
0.275607
0.267307
0.259354
0.25173
0.244419
0.237403
0.230668
0.224198
0.217979
0.211998
0.206243
0.200703
0.195369
0.190232
0.185285
0.180523
0.175941
0.171537
0.167307
0.163251
0.15937
0.155664
0.152134
0.148783
0.145613
0.142627
0.139827
0.137215
0.134789
0.132543
0.130473
0.128574
0.126841
0.125267
0.123845
0.122567
0.121426
0.120413
0.11952
0.118737
0.118057
0.117471
0.11697
0.116546
0.116191
0.115898
0.11566
0.115473
0.11533
0.115229
0.115168
0.115147
0.115173
0.11526
0.115433
0.115746
0.116285
0.117153
0.718983
0.317275
0.256726
0.238777
0.232569
0.2314
0.233124
0.236808
0.241945
0.248228
0.255459
0.263507
0.272279
0.281698
0.291697
0.302214
0.313189
0.324566
0.336292
0.348316
0.36059
0.37307
0.385713
0.398476
0.411322
0.424213
0.437116
0.449998
0.462831
0.475589
0.48825
0.500796
0.513211
0.525484
0.537607
0.549577
0.561392
0.573055
0.584572
0.595952
0.607206
0.618347
0.62939
0.640352
0.651252
0.662107
0.672937
0.68376
0.694595
0.705459
0.71637
0.727341
0.738388
0.749518
0.76072
0.771982
0.783291
0.794629
0.805972
0.817289
0.82854
0.839677
0.850643
0.861373
0.871792
0.881817
0.891359
0.900323
0.908606
0.916105
0.922716
0.928333
0.932854
0.936185
0.938236
0.938929
0.938199
0.935992
0.932272
0.92702
0.920232
0.911922
0.902121
0.89088
0.878258
0.864334
0.849211
0.832928
0.815778
0.797842
0.779264
0.760165
0.740664
0.720868
0.700878
0.680785
0.660675
0.640626
0.620712
0.601003
0.58156
0.56244
0.54369
0.525354
0.507467
0.490058
0.473151
0.456763
0.440908
0.425594
0.410824
0.3966
0.382919
0.369775
0.35716
0.345063
0.333474
0.322377
0.311758
0.301601
0.291888
0.282603
0.273728
0.265243
0.257132
0.249375
0.241954
0.234853
0.228054
0.22154
0.215297
0.209309
0.203564
0.198049
0.192753
0.187666
0.18278
0.178087
0.173581
0.169259
0.165115
0.161148
0.157357
0.15374
0.150297
0.14703
0.143939
0.141026
0.138291
0.135735
0.133358
0.131155
0.129123
0.127257
0.125551
0.124
0.122596
0.121334
0.120204
0.119199
0.118311
0.117532
0.116852
0.116264
0.115759
0.115329
0.114967
0.114665
0.114417
0.114217
0.11406
0.113943
0.113864
0.113821
0.11382
0.113869
0.113987
0.114209
0.114589
0.115181
0.745904
0.322649
0.257264
0.237243
0.229836
0.227769
0.228714
0.231713
0.236277
0.242107
0.248995
0.256787
0.265363
0.274627
0.2845
0.294918
0.305825
0.31717
0.328909
0.341001
0.353406
0.366085
0.378999
0.392111
0.405383
0.418777
0.432258
0.445792
0.459344
0.472886
0.486388
0.499827
0.513181
0.526433
0.539568
0.552577
0.565454
0.578196
0.590803
0.603279
0.615633
0.627872
0.64001
0.652059
0.664036
0.675957
0.687839
0.6997
0.711557
0.723427
0.735326
0.747268
0.759266
0.771327
0.783443
0.795603
0.807791
0.81999
0.832172
0.844303
0.85634
0.868231
0.879914
0.891319
0.902365
0.912964
0.92302
0.932431
0.941091
0.948892
0.955724
0.961478
0.966049
0.969341
0.971262
0.971736
0.970697
0.968094
0.963895
0.958087
0.95067
0.94166
0.931093
0.919044
0.905559
0.890709
0.874716
0.857649
0.839653
0.820853
0.801378
0.781354
0.760901
0.740135
0.719162
0.698083
0.676992
0.655973
0.635107
0.614465
0.594114
0.57411
0.554505
0.535342
0.516657
0.498481
0.480837
0.463743
0.447214
0.431257
0.415877
0.401075
0.386847
0.373187
0.360089
0.34754
0.335529
0.324042
0.313062
0.302574
0.29256
0.283002
0.273882
0.265179
0.256875
0.248951
0.241388
0.234168
0.227271
0.22068
0.21438
0.208353
0.202585
0.197062
0.191772
0.186704
0.181846
0.177191
0.172732
0.168461
0.164374
0.160468
0.156738
0.153184
0.149804
0.146597
0.143563
0.140702
0.138016
0.135502
0.133161
0.13099
0.128986
0.127142
0.125456
0.12392
0.122529
0.121275
0.120152
0.119151
0.118265
0.117486
0.116804
0.116212
0.115702
0.115266
0.114896
0.114586
0.114328
0.114117
0.113949
0.113818
0.113723
0.113662
0.113638
0.113656
0.113731
0.113886
0.114155
0.114569
0.751941
0.321015
0.252861
0.231578
0.22356
0.221157
0.221864
0.224652
0.229012
0.234642
0.241337
0.24894
0.257334
0.266423
0.276135
0.286411
0.297205
0.308475
0.320187
0.332307
0.344804
0.357644
0.370793
0.384218
0.397883
0.411751
0.425786
0.439952
0.454213
0.468535
0.482886
0.497238
0.511565
0.525843
0.540054
0.554181
0.568214
0.582145
0.595968
0.609684
0.623294
0.636805
0.650223
0.66356
0.676827
0.690037
0.703205
0.716345
0.729472
0.742601
0.755744
0.768913
0.782116
0.795354
0.808618
0.821894
0.835164
0.848405
0.861586
0.874666
0.887597
0.900321
0.912771
0.924869
0.93653
0.947658
0.958151
0.967905
0.976807
0.984748
0.991616
0.997303
1.0017
1.00472
1.00627
1.00628
1.00469
1.00145
0.99654
0.989953
0.981706
0.971813
0.960285
0.947297
0.932901
0.91719
0.900294
0.88233
0.863426
0.84371
0.823313
0.802361
0.780978
0.75928
0.73738
0.715383
0.693384
0.671475
0.649736
0.628242
0.60706
0.586249
0.56586
0.545937
0.526517
0.507631
0.489303
0.471553
0.454392
0.43783
0.421873
0.406519
0.391768
0.377612
0.364045
0.351055
0.33863
0.326757
0.315418
0.304599
0.29428
0.284444
0.275071
0.266141
0.257636
0.249534
0.241817
0.234464
0.227456
0.220775
0.214403
0.208323
0.202518
0.196973
0.191675
0.18661
0.181767
0.177136
0.172708
0.168475
0.164431
0.160571
0.156891
0.153387
0.150057
0.146899
0.143913
0.141097
0.138451
0.135974
0.133665
0.131522
0.129541
0.127718
0.126047
0.124525
0.123144
0.121898
0.12078
0.119783
0.118898
0.118118
0.117434
0.116839
0.116324
0.115882
0.115506
0.115188
0.114921
0.114701
0.114522
0.11438
0.114271
0.114195
0.114151
0.114145
0.114185
0.114288
0.114476
0.114771
0.741981
0.314645
0.245545
0.223643
0.215366
0.212893
0.213594
0.216368
0.220677
0.226209
0.232762
0.24019
0.248386
0.257268
0.266775
0.276859
0.287484
0.298622
0.310245
0.322329
0.33485
0.347781
0.361095
0.374759
0.388743
0.403012
0.417531
0.432263
0.447173
0.462225
0.477386
0.492624
0.507908
0.523214
0.538516
0.553795
0.569035
0.584223
0.59935
0.61441
0.6294
0.644321
0.659176
0.673971
0.688712
0.703409
0.718072
0.732711
0.747335
0.761955
0.776578
0.79121
0.805854
0.820497
0.835124
0.849715
0.864246
0.878686
0.892994
0.907125
0.92102
0.934614
0.947832
0.960589
0.972794
0.984345
0.995136
1.00506
1.01399
1.02184
1.02849
1.03384
1.03778
1.04024
1.04112
1.04037
1.03795
1.03381
1.02792
1.02032
1.01105
1.00013
0.987641
0.973662
0.95829
0.941627
0.923791
0.904905
0.885094
0.864489
0.843217
0.821405
0.799178
0.776652
0.75394
0.731147
0.708372
0.685704
0.663225
0.64101
0.619126
0.597632
0.576578
0.556009
0.535962
0.516468
0.49755
0.479228
0.461516
0.444423
0.427953
0.412109
0.396887
0.382283
0.368288
0.354894
0.342087
0.329854
0.318179
0.307047
0.296439
0.286336
0.27672
0.267571
0.258868
0.250592
0.242722
0.235237
0.228118
0.221344
0.214898
0.208761
0.202915
0.197343
0.192032
0.186966
0.182132
0.17752
0.173118
0.168918
0.164912
0.161094
0.157458
0.154
0.150717
0.147605
0.144664
0.14189
0.139283
0.136842
0.134565
0.132449
0.130492
0.128689
0.127036
0.125528
0.124158
0.122921
0.12181
0.120816
0.119934
0.119154
0.11847
0.117872
0.117354
0.116907
0.116525
0.116201
0.115927
0.115699
0.115511
0.115359
0.115239
0.115149
0.115089
0.115063
0.115075
0.115137
0.115266
0.115477
0.719847
0.305118
0.236669
0.214686
0.206372
0.20394
0.204702
0.207511
0.2118
0.217248
0.223658
0.230894
0.238862
0.247496
0.256748
0.266584
0.27698
0.287916
0.299377
0.311346
0.323806
0.336739
0.350122
0.36393
0.378136
0.392709
0.407618
0.422827
0.438304
0.454013
0.469919
0.485991
0.502197
0.518508
0.534898
0.551343
0.567822
0.584319
0.60082
0.617312
0.63379
0.650247
0.666681
0.683091
0.69948
0.715849
0.732204
0.748547
0.764882
0.781212
0.797537
0.813855
0.830161
0.846419
0.862605
0.878687
0.89463
0.91039
0.925918
0.941153
0.956029
0.97047
0.984391
0.997702
1.01031
1.0221
1.03296
1.04278
1.05146
1.0589
1.06499
1.06964
1.07277
1.0743
1.07417
1.07232
1.06874
1.06342
1.05635
1.04757
1.03713
1.02507
1.01147
0.996428
0.980029
0.962385
0.943614
0.923837
0.903179
0.881766
0.859725
0.83718
0.81425
0.791051
0.767692
0.744277
0.7209
0.697651
0.674609
0.651847
0.629431
0.607416
0.585855
0.56479
0.544258
0.524288
0.504906
0.48613
0.467975
0.45045
0.43356
0.417308
0.401692
0.386708
0.372348
0.358603
0.345463
0.332914
0.320941
0.309528
0.298659
0.288315
0.278477
0.269125
0.260241
0.251802
0.243788
0.23618
0.228955
0.222095
0.215579
0.209387
0.203503
0.197907
0.192583
0.187517
0.182694
0.1781
0.173725
0.169558
0.165591
0.161815
0.158224
0.154812
0.151576
0.148511
0.145615
0.142885
0.140319
0.137916
0.135673
0.133588
0.131657
0.129878
0.128245
0.126753
0.125397
0.124171
0.123068
0.122081
0.121203
0.120426
0.119742
0.119144
0.118624
0.118175
0.117789
0.117459
0.11718
0.116945
0.11675
0.116589
0.116459
0.116358
0.116285
0.116242
0.116231
0.116263
0.116346
0.116497
0.688311
0.293505
0.227112
0.205527
0.197349
0.195008
0.195832
0.198658
0.202903
0.208242
0.214481
0.221493
0.229199
0.237543
0.246493
0.256028
0.266134
0.276801
0.288023
0.299794
0.312105
0.324945
0.338301
0.352153
0.366482
0.381262
0.396466
0.412064
0.428026
0.44432
0.460913
0.477773
0.494869
0.512172
0.529652
0.547283
0.565043
0.582908
0.600861
0.618884
0.636964
0.655089
0.67325
0.691439
0.70965
0.727878
0.746119
0.764368
0.78262
0.800869
0.819106
0.837317
0.855484
0.87354
0.891443
0.909148
0.926602
0.943747
0.960515
0.976834
0.992622
1.00779
1.02225
1.0359
1.04865
1.06039
1.07099
1.08034
1.08836
1.09496
1.10005
1.10357
1.10545
1.10564
1.1041
1.10082
1.09578
1.089
1.08051
1.07034
1.05856
1.04522
1.03043
1.01426
0.996812
0.978205
0.958548
0.937961
0.916564
0.894478
0.871823
0.848716
0.825272
0.801598
0.7778
0.753974
0.73021
0.706593
0.683199
0.660096
0.637347
0.615007
0.593125
0.571741
0.550891
0.530606
0.510908
0.491818
0.473349
0.455512
0.438313
0.421755
0.405838
0.390557
0.375909
0.361883
0.348471
0.335661
0.323438
0.311789
0.300696
0.290144
0.280113
0.270585
0.261539
0.252957
0.244817
0.237098
0.22978
0.222842
0.216265
0.210027
0.20411
0.198495
0.193164
0.188102
0.183293
0.178723
0.174378
0.170248
0.166322
0.162591
0.159048
0.155686
0.1525
0.149485
0.146638
0.143956
0.141435
0.139073
0.136868
0.134818
0.132919
0.131166
0.129557
0.128086
0.126747
0.125536
0.124445
0.123467
0.122596
0.121824
0.121143
0.120547
0.120027
0.119576
0.119188
0.118855
0.118572
0.118332
0.118131
0.117963
0.117826
0.117715
0.117631
0.117574
0.117545
0.117552
0.117602
0.117709
0.649013
0.28052
0.217463
0.196727
0.188855
0.186649
0.187525
0.190337
0.194503
0.1997
0.205737
0.212497
0.219909
0.227931
0.236543
0.245737
0.255512
0.265857
0.276779
0.288284
0.300374
0.313047
0.326299
0.340119
0.354495
0.369411
0.384845
0.400776
0.417176
0.43402
0.451277
0.468919
0.486914
0.505234
0.523849
0.542731
0.561851
0.581185
0.600707
0.620395
0.640226
0.660183
0.680246
0.700398
0.720623
0.740907
0.761235
0.781592
0.801961
0.822326
0.842664
0.862951
0.883132
0.903109
0.922819
0.942196
0.961165
0.979649
0.99756
1.01481
1.0313
1.04694
1.06162
1.07524
1.0877
1.0989
1.10873
1.11711
1.12396
1.12921
1.1328
1.1347
1.13486
1.13326
1.1299
1.1248
1.11796
1.10943
1.09925
1.08749
1.07422
1.0595
1.04344
1.02613
1.00766
0.988153
0.967707
0.946438
0.924456
0.901873
0.878801
0.855345
0.83161
0.807695
0.783695
0.759699
0.735789
0.712043
0.68853
0.665315
0.642456
0.620004
0.598005
0.576497
0.555516
0.535089
0.515241
0.495991
0.477352
0.459337
0.441953
0.425203
0.409089
0.393609
0.378758
0.364531
0.350918
0.337911
0.325496
0.313661
0.30239
0.291669
0.28148
0.271805
0.262626
0.253923
0.245676
0.237865
0.230469
0.223467
0.216839
0.210565
0.204624
0.198998
0.193668
0.188617
0.183828
0.179286
0.174977
0.170889
0.167009
0.163329
0.159839
0.156532
0.153401
0.150441
0.147648
0.145018
0.142547
0.140232
0.138071
0.13606
0.134196
0.132476
0.130896
0.129449
0.128132
0.126939
0.125864
0.124899
0.124038
0.123273
0.122599
0.122006
0.121489
0.121039
0.12065
0.120316
0.12003
0.119787
0.119581
0.119408
0.119264
0.119146
0.119053
0.118984
0.118941
0.118929
0.118953
0.119028
0.603536
0.267267
0.208297
0.188765
0.18136
0.17935
0.180288
0.183073
0.187141
0.192177
0.197995
0.204488
0.211594
0.219281
0.227538
0.236366
0.245773
0.255769
0.266369
0.277587
0.289435
0.301924
0.315056
0.328835
0.343256
0.358312
0.373991
0.390278
0.407155
0.4246
0.442587
0.461092
0.480085
0.499537
0.519418
0.539695
0.560338
0.581315
0.602594
0.624144
0.645933
0.667933
0.690112
0.712442
0.734895
0.757442
0.780055
0.802706
0.825365
0.848001
0.87058
0.893064
0.915303
0.937202
0.958669
0.979611
0.999929
1.01952
1.03829
1.05612
1.0729
1.08854
1.10293
1.11596
1.12754
1.1376
1.14603
1.1528
1.15783
1.1611
1.16258
1.16226
1.16015
1.15627
1.15065
1.14332
1.13434
1.12377
1.11169
1.09816
1.08327
1.06711
1.04977
1.03135
1.01194
0.991634
0.970542
0.948759
0.926387
0.903522
0.88026
0.856696
0.83292
0.809018
0.785073
0.761163
0.737361
0.713736
0.690351
0.667262
0.644523
0.62218
0.600276
0.578848
0.557927
0.537541
0.517713
0.498464
0.479807
0.461754
0.444315
0.427494
0.411295
0.395716
0.380757
0.366413
0.352677
0.339542
0.326997
0.315032
0.303634
0.292789
0.282481
0.272694
0.263411
0.254613
0.246282
0.238399
0.230941
0.223891
0.217226
0.210927
0.204974
0.199346
0.194025
0.188992
0.184231
0.179724
0.175457
0.171417
0.16759
0.163966
0.160535
0.157288
0.154218
0.15132
0.148586
0.146014
0.143598
0.141336
0.139224
0.137259
0.135436
0.133754
0.132206
0.13079
0.129499
0.128329
0.127272
0.126324
0.125476
0.124723
0.124057
0.123471
0.122958
0.122511
0.122124
0.12179
0.121503
0.121257
0.121048
0.120871
0.120722
0.120599
0.120498
0.12042
0.120366
0.120339
0.120345
0.120395
0.558018
0.256028
0.200673
0.182281
0.175353
0.173542
0.174531
0.177272
0.181224
0.186086
0.191682
0.197914
0.20473
0.212105
0.220039
0.228543
0.237634
0.247337
0.257677
0.268678
0.280365
0.292758
0.305874
0.319724
0.334317
0.349655
0.365736
0.382553
0.400094
0.418345
0.437285
0.456889
0.477132
0.497982
0.519405
0.541367
0.563827
0.586747
0.610085
0.633797
0.65784
0.682168
0.706737
0.731502
0.756417
0.781438
0.80652
0.831619
0.856689
0.881684
0.906556
0.931184
0.955368
0.978992
1.00194
1.02409
1.04532
1.06552
1.08456
1.10232
1.1187
1.13359
1.14689
1.15851
1.16839
1.17645
1.18267
1.18699
1.18942
1.18996
1.18863
1.18546
1.18051
1.17382
1.16548
1.15556
1.14414
1.1313
1.11713
1.10173
1.08519
1.06759
1.04902
1.02958
1.00935
0.988418
0.966866
0.94478
0.922243
0.899335
0.876133
0.852716
0.829158
0.805529
0.781899
0.758332
0.734891
0.711635
0.688616
0.665887
0.643492
0.621475
0.599873
0.578721
0.558048
0.537881
0.518243
0.499153
0.480626
0.462676
0.445312
0.428542
0.412369
0.396796
0.381824
0.36745
0.353671
0.34048
0.327871
0.315835
0.304361
0.293438
0.283053
0.27319
0.263836
0.254972
0.246582
0.238647
0.231148
0.224065
0.217378
0.211067
0.205112
0.199492
0.194189
0.189183
0.184457
0.179993
0.175775
0.171789
0.168022
0.16446
0.161094
0.157914
0.154912
0.15208
0.149413
0.146904
0.14455
0.142347
0.140289
0.138375
0.1366
0.13496
0.133451
0.132069
0.130809
0.129666
0.128633
0.127704
0.126874
0.126135
0.12548
0.124903
0.124397
0.123956
0.123572
0.123239
0.122953
0.122707
0.122496
0.122316
0.122164
0.122035
0.121929
0.121845
0.121782
0.121744
0.121735
0.121767
0.506457
0.24452
0.193913
0.177021
0.170749
0.169241
0.170346
0.173089
0.176967
0.181702
0.187136
0.193182
0.199799
0.206976
0.214721
0.223055
0.23201
0.241619
0.251921
0.262951
0.274747
0.28734
0.300759
0.315028
0.330165
0.346184
0.363092
0.380888
0.399568
0.419119
0.439525
0.460759
0.482794
0.505592
0.529114
0.553313
0.578138
0.603536
0.629449
0.655815
0.682571
0.709652
0.736992
0.764525
0.792184
0.819903
0.847619
0.875268
0.902786
0.93011
0.957135
0.983549
1.00921
1.03398
1.05771
1.08027
1.10152
1.12134
1.13959
1.15617
1.17098
1.18393
1.19494
1.20395
1.21093
1.21586
1.21874
1.21959
1.21844
1.21536
1.21041
1.20368
1.19527
1.18527
1.17378
1.16093
1.14681
1.13153
1.11518
1.09788
1.0797
1.06073
1.04105
1.02075
0.999877
0.978517
0.956729
0.934578
0.912124
0.889427
0.866545
0.843535
0.820454
0.797355
0.774293
0.751318
0.728481
0.705829
0.683407
0.661258
0.639421
0.617934
0.596831
0.576142
0.555897
0.536119
0.516831
0.498053
0.4798
0.462087
0.444924
0.428322
0.412285
0.39682
0.381928
0.367611
0.353866
0.340692
0.328083
0.316035
0.304538
0.293584
0.283163
0.273262
0.263869
0.254968
0.246544
0.23858
0.231057
0.223959
0.217264
0.210954
0.205009
0.199408
0.194132
0.189162
0.184479
0.180066
0.175905
0.171981
0.16828
0.164789
0.161495
0.158388
0.15546
0.152702
0.150107
0.147669
0.145384