/*--------------------------------*- C++ -*----------------------------------*\
  =========                 |
  \\      /  F ield         | OpenFOAM: The Open Source CFD Toolbox
   \\    /   O peration     | Website:  https://openfoam.org
    \\  /    A nd           | Version:  6
     \\/     M anipulation  |
\*---------------------------------------------------------------------------*/
FoamFile
{
    version     2.0;
    format      ascii;
    class       volScalarField;
    location    "0.23";
    object      k;
}
// * * * * * * * * * * * * * * * * * * * * * * * * * * * * * * * * * * * * * //

dimensions      [0 2 -2 0 0 0 0];

internalField   nonuniform List<scalar> 
12225
(
0.24644
0.158838
0.119006
0.0971981
0.0837145
0.074727
0.0683412
0.0635285
0.0597211
0.056598
0.053968
0.0517103
0.0497437
0.048011
0.0464695
0.0450878
0.0438404
0.0427762
0.339526
0.260132
0.208256
0.175288
0.153263
0.137672
0.125995
0.116824
0.109364
0.103141
0.0978532
0.0932934
0.0893145
0.0858078
0.0826926
0.0799008
0.0774113
0.0751548
0.347498
0.292336
0.24851
0.216195
0.192228
0.174046
0.159849
0.148439
0.139041
0.131147
0.124409
0.118582
0.113489
0.108995
0.104999
0.101421
0.0982162
0.0953581
0.35137
0.309033
0.271886
0.241925
0.218144
0.199186
0.183863
0.171262
0.160728
0.15179
0.144109
0.137435
0.13158
0.126403
0.121791
0.117657
0.113949
0.110657
0.353917
0.319265
0.2872
0.259824
0.237043
0.218188
0.202505
0.189336
0.178157
0.168565
0.160255
0.15299
0.146587
0.140903
0.135827
0.13127
0.127175
0.123544
0.355677
0.326031
0.29787
0.272919
0.251433
0.233126
0.217536
0.2042
0.192714
0.18275
0.174041
0.166375
0.159583
0.153528
0.148102
0.143218
0.138823
0.13492
0.356917
0.33071
0.305572
0.282767
0.262638
0.245095
0.229864
0.216625
0.205074
0.194945
0.186017
0.178103
0.17105
0.164734
0.159053
0.153925
0.1493
0.145185
0.357802
0.334027
0.311241
0.29028
0.271456
0.254764
0.240043
0.227072
0.215624
0.205489
0.196481
0.188442
0.181238
0.174755
0.1689
0.163599
0.158807
0.154531
0.358433
0.336404
0.315445
0.296042
0.278414
0.262583
0.248448
0.235852
0.224623
0.214596
0.205617
0.197553
0.190287
0.183717
0.17776
0.17235
0.167446
0.163058
0.358881
0.338106
0.31856
0.300448
0.283886
0.268879
0.255353
0.24319
0.232257
0.222419
0.213553
0.205542
0.198286
0.191697
0.1857
0.180235
0.175269
0.170811
0.359195
0.339315
0.320847
0.303787
0.288148
0.273899
0.26097
0.249264
0.23867
0.229077
0.220381
0.212484
0.205297
0.198744
0.192758
0.187287
0.182302
0.177812
0.359394
0.340091
0.322364
0.306073
0.291147
0.277518
0.265103
0.253812
0.243545
0.234207
0.225704
0.21795
0.210867
0.204387
0.198449
0.193009
0.188039
0.183552
0.359535
0.340651
0.323487
0.307814
0.293487
0.2804
0.268456
0.257559
0.247617
0.238541
0.230247
0.222657
0.215702
0.20932
0.203456
0.198071
0.19314
0.188677
0.359643
0.341084
0.324385
0.309247
0.295468
0.282902
0.271429
0.260944
0.251355
0.242576
0.234528
0.227142
0.220352
0.214104
0.208348
0.203049
0.198186
0.19377
0.359719
0.341392
0.325041
0.31033
0.297014
0.28491
0.273874
0.26379
0.254558
0.246091
0.238314
0.231158
0.224564
0.218481
0.212864
0.207681
0.202913
0.19857
0.359767
0.341588
0.325471
0.311064
0.298097
0.286362
0.275694
0.265962
0.257057
0.248888
0.241377
0.234457
0.228071
0.222169
0.216709
0.211661
0.207008
0.202758
0.359793
0.341696
0.325715
0.311494
0.298752
0.287268
0.276864
0.267396
0.258748
0.250821
0.243535
0.236821
0.230621
0.224886
0.219576
0.214659
0.210121
0.205966
0.359804
0.341741
0.325817
0.311679
0.299043
0.287683
0.277414
0.268087
0.259581
0.251793
0.244641
0.238053
0.23197
0.226343
0.22113
0.216303
0.211843
0.207755
0.359801
0.341729
0.32579
0.311631
0.29897
0.28758
0.27728
0.267923
0.259386
0.251571
0.244393
0.237782
0.231679
0.226035
0.220809
0.215969
0.211499
0.207402
0.359775
0.341622
0.325547
0.3112
0.298308
0.286657
0.27608
0.266441
0.257629
0.249551
0.242126
0.235289
0.228981
0.223151
0.217759
0.212773
0.208174
0.203966
0.359715
0.341377
0.32501
0.310283
0.296955
0.284843
0.273804
0.263723
0.254497
0.246041
0.238278
0.23114
0.224567
0.218507
0.212915
0.207756
0.20301
0.198681
0.359586
0.340852
0.323905
0.308483
0.294417
0.281579
0.269863
0.259169
0.249405
0.240483
0.232322
0.224848
0.217995
0.211701
0.205916
0.200599
0.195725
0.191297
0.359329
0.339835
0.321861
0.305316
0.290154
0.276321
0.263741
0.252319
0.241955
0.232547
0.223999
0.21622
0.20913
0.202655
0.196735
0.19132
0.186377
0.181908
0.35886
0.338009
0.318374
0.30018
0.283551
0.268493
0.254932
0.242751
0.231813
0.221982
0.213132
0.205146
0.197922
0.191371
0.185417
0.18
0.175078
0.170652
0.358051
0.334911
0.312756
0.292315
0.273875
0.257449
0.242906
0.230048
0.218668
0.208572
0.199585
0.191557
0.184358
0.177879
0.172029
0.166735
0.161948
0.157665
0.356707
0.329803
0.303977
0.280639
0.260138
0.242359
0.226997
0.213701
0.202146
0.192051
0.183181
0.175342
0.168378
0.162159
0.15658
0.151558
0.147036
0.143007
0.354518
0.321336
0.290244
0.263374
0.240787
0.221951
0.206201
0.192929
0.181638
0.171941
0.163536
0.15619
0.149721
0.143985
0.13887
0.134286
0.130173
0.126517
0.350901
0.3066
0.26792
0.237106
0.212945
0.193894
0.178637
0.166187
0.155842
0.14711
0.139638
0.133171
0.127517
0.122533
0.118108
0.114155
0.110614
0.107468
0.342446
0.275934
0.227262
0.193529
0.169821
0.152602
0.139577
0.129332
0.121014
0.114094
0.108231
0.10319
0.098803
0.0949487
0.0915346
0.0884902
0.0857628
0.0833305
0.259302
0.173114
0.131362
0.107433
0.0921501
0.0817523
0.0743222
0.068761
0.0644203
0.0609116
0.0579959
0.0555207
0.0533845
0.0515173
0.0498689
0.0484017
0.0470876
0.0459087
0.00108379
0.00190401
0.00223281
0.00234424
0.00245059
0.00260654
0.00280144
0.00303799
0.00333468
0.00368645
0.00404594
0.00442945
0.00483804
0.00526889
0.00571736
0.00617825
0.00664654
0.0071178
0.00758828
0.00805495
0.00851542
0.00896786
0.00941094
0.00984373
0.0102657
0.0106766
0.0110765
0.0114655
0.0118441
0.0122127
0.012572
0.0129226
0.0132652
0.0136005
0.0139291
0.0142516
0.0145687
0.014881
0.0151889
0.0154928
0.0157933
0.0160906
0.0163851
0.016677
0.0169666
0.0172542
0.0175401
0.0178247
0.0181086
0.0183926
0.0186778
0.0189658
0.0192591
0.0195563
0.0198492
0.020138
0.0204224
0.0207016
0.020975
0.0212415
0.0215001
0.0217498
0.0219891
0.022217
0.0224321
0.0226329
0.0228181
0.0229863
0.0231361
0.023266
0.0233747
0.023461
0.0235236
0.0235616
0.0235738
0.0235597
0.0235184
0.0234496
0.0233531
0.0232288
0.0230769
0.0228978
0.022692
0.0224605
0.0222041
0.0219241
0.0216217
0.0212984
0.0209559
0.0205958
0.0202202
0.0198318
0.019436
0.0190457
0.0186916
0.0184053
0.0181463
0.0178874
0.0176253
0.01736
0.0170921
0.0168227
0.0165527
0.0162828
0.0160141
0.0157471
0.0154827
0.0152215
0.0149639
0.0147105
0.0144617
0.0142177
0.0139789
0.0137454
0.0135174
0.013295
0.0130781
0.0128666
0.0126607
0.0124599
0.0122643
0.0120735
0.0118873
0.0117055
0.0115276
0.0113534
0.0111826
0.0110148
0.0108496
0.0106867
0.0105259
0.0103668
0.0102092
0.010053
0.00989787
0.00974387
0.00959092
0.00943905
0.00928834
0.00913891
0.00899089
0.00884436
0.00869935
0.00855588
0.00841428
0.00827617
0.00814498
0.00802126
0.00790479
0.00779548
0.00769328
0.00759815
0.00750999
0.00742872
0.00735419
0.00728623
0.00722463
0.0071691
0.00711936
0.00707505
0.00703581
0.00700125
0.00697096
0.0069445
0.00692145
0.00690138
0.00688384
0.00686839
0.00685456
0.00684188
0.0068298
0.00681772
0.00680488
0.00679032
0.00677265
0.00674968
0.00671792
0.0066704
0.00659661
0.00647194
0.00213969
0.00415699
0.0053004
0.00616855
0.00682668
0.00742712
0.00807263
0.00876481
0.0094592
0.0101186
0.0107372
0.0113293
0.0119102
0.0124913
0.0130804
0.0136824
0.0143
0.0149346
0.0155857
0.016252
0.0169308
0.0176193
0.0183138
0.0190108
0.0197069
0.020399
0.0210845
0.0217614
0.0224282
0.0230838
0.0237278
0.0243602
0.0249812
0.0255914
0.0261914
0.0267822
0.0273647
0.02794
0.0285091
0.0290729
0.0296324
0.0301886
0.0307422
0.0312941
0.0318448
0.0323949
0.0329448
0.0334949
0.0340453
0.0345963
0.0351477
0.0356993
0.0362509
0.0367992
0.0373473
0.0378952
0.0384422
0.0389875
0.0395297
0.0400674
0.0405988
0.0411219
0.0416348
0.0421351
0.0426202
0.0430874
0.0435341
0.0439571
0.0443536
0.0447205
0.0450546
0.045353
0.0456127
0.045831
0.0460052
0.046133
0.0462123
0.0462414
0.0462189
0.0461438
0.0460156
0.0458342
0.0455999
0.0453136
0.0449763
0.0445898
0.044156
0.0436773
0.0431563
0.0425962
0.0420005
0.0413731
0.0407189
0.0400432
0.0393645
0.0386901
0.0380098
0.0373214
0.0366261
0.035926
0.0352235
0.0345208
0.0338201
0.0331234
0.0324325
0.0317489
0.0310742
0.0304096
0.0297561
0.0291147
0.0284861
0.027871
0.0272698
0.0266829
0.0261103
0.0255523
0.0250088
0.0244796
0.0239645
0.0234632
0.0229754
0.0225004
0.022038
0.0215874
0.0211481
0.0207195
0.0203011
0.019892
0.0194919
0.0191001
0.0187161
0.0183395
0.0179699
0.0176069
0.0172505
0.0169004
0.0165566
0.0162194
0.0158888
0.0155652
0.0152489
0.0149404
0.0146401
0.0143488
0.0140671
0.0137954
0.0135339
0.0132858
0.0130542
0.0128385
0.0126385
0.0124536
0.0122834
0.0121274
0.0119853
0.0118565
0.0117404
0.0116364
0.0115438
0.0114619
0.01139
0.0113272
0.0112727
0.0112257
0.0111853
0.0111508
0.0111214
0.0110962
0.0110745
0.0110556
0.0110385
0.0110225
0.0110067
0.0109899
0.0109709
0.0109477
0.010917
0.0108776
0.0108124
0.0108131
0.00336216
0.00670536
0.00829259
0.00928622
0.0100541
0.0107641
0.0114851
0.0122214
0.0129495
0.0136536
0.0143372
0.0150159
0.015707
0.0164235
0.0171736
0.0179605
0.0187837
0.0196397
0.020523
0.0214272
0.0223449
0.0232691
0.0241931
0.025111
0.026018
0.0269102
0.0277849
0.02864
0.0294746
0.0302882
0.031081
0.0318537
0.032607
0.0333423
0.0340606
0.0347635
0.0354524
0.0361287
0.0367938
0.0374492
0.0380963
0.0387364
0.0393707
0.0400007
0.0406273
0.0412517
0.0418749
0.0424979
0.0431213
0.043746
0.0443724
0.045001
0.0456319
0.0462653
0.0469007
0.0475376
0.0481751
0.0488121
0.0494473
0.0500791
0.0507057
0.051325
0.0519345
0.0525315
0.0531131
0.0536761
0.0542169
0.054732
0.0552177
0.0556699
0.0560848
0.0564585
0.0567871
0.0570668
0.0572942
0.0574661
0.0575796
0.0576321
0.0576218
0.057547
0.0574069
0.0572009
0.0569293
0.0565927
0.0561925
0.0557305
0.0552091
0.0546309
0.0539994
0.0533181
0.0525912
0.051823
0.0510182
0.0501892
0.04935
0.048499
0.0476351
0.0467596
0.0458751
0.0449845
0.0440909
0.0431972
0.0423061
0.0414202
0.0405418
0.039673
0.0388156
0.0379712
0.0371412
0.0363267
0.0355288
0.0347483
0.0339857
0.0332415
0.0325159
0.031809
0.031121
0.0304515
0.0298004
0.0291672
0.0285516
0.0279529
0.0273707
0.0268041
0.0262525
0.0257151
0.0251913
0.0246801
0.024181
0.0236932
0.023216
0.0227489
0.0222913
0.0218428
0.0214032
0.0209721
0.0205496
0.0201356
0.0197303
0.019334
0.018947
0.0185699
0.0182032
0.0178476
0.0175037
0.0171722
0.0168537
0.0165492
0.0162602
0.0159892
0.0157363
0.0155015
0.0152845
0.015085
0.0149028
0.0147372
0.0145878
0.0144537
0.0143343
0.0142285
0.0141355
0.0140543
0.0139838
0.0139231
0.0138709
0.0138265
0.0137886
0.0137563
0.0137286
0.0137045
0.0136832
0.0136635
0.0136443
0.0136246
0.0136026
0.0135765
0.0135431
0.0134992
0.0134327
0.0133708
0.00443293
0.00888004
0.0107212
0.0118334
0.0126481
0.0133517
0.014033
0.0147232
0.0154267
0.0161446
0.0168833
0.0176531
0.0184636
0.0193204
0.0202245
0.021173
0.02216
0.0231781
0.0242188
0.0252738
0.0263351
0.0273954
0.0284486
0.0294894
0.0305139
0.0315189
0.0325023
0.0334626
0.0343992
0.0353118
0.0362008
0.0370668
0.0379105
0.0387332
0.0395359
0.04032
0.0410869
0.041838
0.0425749
0.0432989
0.0440116
0.0447145
0.045409
0.0460966
0.0467787
0.0474566
0.0481315
0.0488047
0.0494772
0.0501499
0.0508236
0.0514988
0.052176
0.0528563
0.0535391
0.0542239
0.0549102
0.0555971
0.0562833
0.0569672
0.0576472
0.058321
0.058986
0.0596395
0.0602781
0.0608983
0.0614964
0.0620681
0.0626093
0.0631154
0.0635818
0.0640041
0.0643777
0.0646981
0.0649612
0.065163
0.0653002
0.0653697
0.0653688
0.0652957
0.065149
0.064928
0.0646328
0.0642638
0.0638225
0.0633107
0.0627309
0.0620863
0.0613803
0.060617
0.0598005
0.0589356
0.0580327
0.0571048
0.0561548
0.0551849
0.0541975
0.0531957
0.0521829
0.0511628
0.050139
0.0491149
0.0480937
0.0470783
0.0460715
0.0450756
0.0440929
0.0431251
0.0421738
0.0412406
0.0403265
0.0394325
0.0385592
0.0377073
0.0368771
0.0360687
0.0352823
0.0345176
0.0337744
0.0330523
0.0323509
0.0316695
0.0310076
0.0303643
0.0297388
0.0291304
0.0285383
0.0279614
0.0273991
0.0268504
0.0263147
0.0257912
0.0252792
0.0247784
0.0242881
0.0238082
0.0233384
0.0228787
0.0224292
0.0219901
0.0215617
0.0211444
0.0207388
0.0203456
0.0199653
0.0195988
0.0192468
0.0189101
0.0185895
0.0182869
0.0180033
0.0177389
0.0174937
0.0172675
0.0170602
0.0168713
0.0167001
0.0165461
0.0164084
0.0162861
0.0161782
0.0160837
0.0160014
0.0159301
0.0158688
0.0158164
0.0157715
0.0157333
0.0157005
0.0156722
0.0156472
0.0156246
0.0156031
0.0155817
0.0155589
0.015533
0.0155017
0.0154625
0.0154089
0.0153527
0.00523105
0.0102973
0.0124376
0.0137045
0.0145859
0.0152995
0.0159607
0.0166275
0.0173266
0.0180704
0.0188661
0.0197179
0.020627
0.0215914
0.0226063
0.0236644
0.0247576
0.0258771
0.0270144
0.0281617
0.0293118
0.0304585
0.0315966
0.0327217
0.0338303
0.0349199
0.0359883
0.0370341
0.0380564
0.0390548
0.0400291
0.0409795
0.0419066
0.0428109
0.0436934
0.044555
0.0453968
0.0462201
0.0470263
0.0478166
0.0485925
0.0493555
0.0501071
0.0508488
0.051582
0.0523082
0.0530288
0.0537451
0.0544584
0.0551698
0.0558802
0.0565906
0.0573016
0.0580147
0.0587298
0.059447
0.0601657
0.0608854
0.061605
0.0623232
0.0630383
0.0637481
0.0644501
0.0651412
0.0658183
0.0664774
0.0671145
0.0677252
0.0683048
0.0688485
0.069351
0.0698075
0.0702128
0.0705621
0.0708504
0.0710736
0.0712275
0.0713086
0.0713141
0.0712415
0.0710892
0.0708563
0.0705426
0.0701487
0.0696757
0.0691256
0.0685012
0.0678054
0.0670422
0.0662156
0.0653296
0.0643964
0.0634245
0.0624192
0.0613849
0.0603254
0.0592449
0.0581475
0.0570373
0.0559185
0.0547952
0.0536712
0.05255
0.051435
0.050329
0.0492349
0.048155
0.0470914
0.046046
0.0450204
0.0440158
0.0430333
0.0420739
0.0411381
0.0402264
0.0393391
0.0384762
0.0376377
0.0368233
0.0360326
0.0352653
0.0345206
0.0337979
0.0330965
0.0324155
0.0317539
0.031111
0.0304857
0.0298772
0.0292844
0.0287067
0.0281431
0.0275929
0.0270555
0.0265303
0.026017
0.0255152
0.0250248
0.0245458
0.0240782
0.0236224
0.0231788
0.0227478
0.0223299
0.0219259
0.0215365
0.0211624
0.0208043
0.0204631
0.0201397
0.0198358
0.0195516
0.0192873
0.0190428
0.0188179
0.0186125
0.0184258
0.0182573
0.0181061
0.0179715
0.0178522
0.0177474
0.0176558
0.0175763
0.0175076
0.0174485
0.0173979
0.0173546
0.0173175
0.0172854
0.0172572
0.0172319
0.0172083
0.0171852
0.0171615
0.0171356
0.0171056
0.0170697
0.0170246
0.0169785
0.00573346
0.0111577
0.0135213
0.0149327
0.0159067
0.0166741
0.0173651
0.018054
0.0187809
0.0195654
0.0204154
0.0213319
0.0223114
0.0233478
0.0244334
0.0255597
0.026718
0.0279001
0.0290983
0.0303059
0.0315166
0.0327253
0.0339273
0.0351189
0.0362968
0.0374584
0.0386014
0.0397241
0.0408252
0.0419038
0.0429592
0.043991
0.0449992
0.0459839
0.0469455
0.0478846
0.0488019
0.0496982
0.0505748
0.0514326
0.052273
0.0530973
0.0539069
0.0547033
0.0554879
0.0562623
0.0570278
0.057786
0.0585382
0.0592856
0.0600295
0.060771
0.0615111
0.0622513
0.0629923
0.0637342
0.064477
0.0652205
0.0659638
0.0667058
0.0674449
0.0681791
0.0689059
0.0696223
0.0703249
0.0710099
0.0716729
0.0723095
0.0729145
0.0734829
0.0740093
0.0744881
0.0749141
0.0752817
0.075586
0.075822
0.0759855
0.0760725
0.0760798
0.0760047
0.0758454
0.0756007
0.0752703
0.0748547
0.0743551
0.0737734
0.0731123
0.0723748
0.0715656
0.0706879
0.0697549
0.0687714
0.0677436
0.066677
0.0655767
0.0644477
0.0632948
0.0621228
0.0609364
0.0597402
0.0585386
0.0573356
0.0561353
0.054941
0.0537561
0.0525835
0.0514258
0.0502853
0.0491641
0.048064
0.0469863
0.0459324
0.0449032
0.0438995
0.0429219
0.0419706
0.0410458
0.0401476
0.0392758
0.0384299
0.0376097
0.0368144
0.0360434
0.035296
0.0345712
0.0338681
0.0331859
0.0325234
0.0318797
0.0312538
0.0306447
0.0300516
0.0294736
0.0289099
0.02836
0.0278233
0.0272993
0.0267879
0.026289
0.0258024
0.0253284
0.0248674
0.0244196
0.0239856
0.023566
0.0231614
0.0227727
0.0224004
0.0220454
0.0217083
0.0213906
0.0210928
0.0208151
0.0205577
0.0203204
0.0201029
0.0199048
0.0197254
0.0195641
0.01942
0.019292
0.0191791
0.0190801
0.0189939
0.0189191
0.0188546
0.0187992
0.0187516
0.0187107
0.0186752
0.0186442
0.0186165
0.0185909
0.0185663
0.0185416
0.0185153
0.018486
0.0184521
0.0184121
0.0183732
0.00603721
0.011591
0.0140963
0.0156277
0.0167045
0.0175562
0.0183147
0.0190596
0.019837
0.0206707
0.0215699
0.0225353
0.0235624
0.0246443
0.0257729
0.0269399
0.0281376
0.0293587
0.0305967
0.0318456
0.0331004
0.0343564
0.0356096
0.0368563
0.0380934
0.0393182
0.0405281
0.0417211
0.0428953
0.0440493
0.0451818
0.0462919
0.0473791
0.0484427
0.0494828
0.0504994
0.0514927
0.0524634
0.0534119
0.0543393
0.0552465
0.0561346
0.0570049
0.0578587
0.0586973
0.0595223
0.060335
0.0611369
0.0619295
0.0627142
0.0634922
0.064265
0.0650335
0.0657994
0.0665637
0.0673271
0.06809
0.0688521
0.0696132
0.0703721
0.0711276
0.0718778
0.0726202
0.0733521
0.0740699
0.0747698
0.0754475
0.0760983
0.0767171
0.0772985
0.0778369
0.0783267
0.0787623
0.0791379
0.0794483
0.0796883
0.0798533
0.0799393
0.0799428
0.0798608
0.0796915
0.0794334
0.0790862
0.0786503
0.0781268
0.0775177
0.076826
0.076053
0.0752097
0.0743
0.0733304
0.0723067
0.0712349
0.0701206
0.0689695
0.0677869
0.0665783
0.0653488
0.0641035
0.0628471
0.0615845
0.0603198
0.0590572
0.0578005
0.0565531
0.0553181
0.0540983
0.0528963
0.0517143
0.0505541
0.0494174
0.0483056
0.0472198
0.0461608
0.0451295
0.0441261
0.0431509
0.0422041
0.0412855
0.0403949
0.0395318
0.0386956
0.0378859
0.0371017
0.0363422
0.0356064
0.0348935
0.0342023
0.0335317
0.0328808
0.0322486
0.0316339
0.0310359
0.0304538
0.0298867
0.0293341
0.0287954
0.0282703
0.0277585
0.02726
0.0267747
0.0263029
0.0258448
0.025401
0.024972
0.0245582
0.0241605
0.0237794
0.0234157
0.0230701
0.0227435
0.0224368
0.0221502
0.0218839
0.0216379
0.0214118
0.0212055
0.0210182
0.0208494
0.020698
0.0205633
0.0204441
0.0203393
0.0202477
0.020168
0.020099
0.0200395
0.0199883
0.0199441
0.0199059
0.0198724
0.0198425
0.0198151
0.0197891
0.0197633
0.0197366
0.0197075
0.019675
0.0196382
0.0196041
0.00618765
0.0117169
0.0142978
0.0159194
0.0170933
0.0180385
0.0188806
0.0196972
0.020535
0.0214193
0.0223615
0.0233634
0.0244218
0.0255309
0.0266839
0.0278737
0.0290939
0.0303384
0.0316017
0.0328789
0.0341657
0.0354578
0.0367518
0.038044
0.0393313
0.0406108
0.0418799
0.0431359
0.0443767
0.0456003
0.046805
0.0479893
0.0491519
0.0502919
0.0514087
0.0525018
0.053571
0.0546163
0.0556382
0.0566369
0.0576133
0.0585681
0.0595023
0.060417
0.0613134
0.0621929
0.0630567
0.0639063
0.064743
0.0655684
0.0663836
0.0671902
0.0679892
0.068782
0.0695701
0.0703545
0.0711359
0.0719143
0.0726896
0.0734611
0.0742275
0.0749872
0.075738
0.0764769
0.0772008
0.0779058
0.0785876
0.0792416
0.0798625
0.0804451
0.0809838
0.0814728
0.0819064
0.0822789
0.0825847
0.0828188
0.0829765
0.0830534
0.0830462
0.0829518
0.0827682
0.082494
0.0821285
0.0816726
0.0811269
0.0804927
0.0797774
0.0789832
0.078116
0.0771809
0.0761835
0.0751296
0.0740252
0.0728759
0.0716877
0.0704662
0.0692169
0.0679452
0.0666564
0.0653555
0.0640474
0.0627365
0.061427
0.0601229
0.0588277
0.0575448
0.0562771
0.0550273
0.0537977
0.0525904
0.0514071
0.0502494
0.0491185
0.0480155
0.0469411
0.0458958
0.0448802
0.0438943
0.0429381
0.0420114
0.041114
0.0402453
0.0394047
0.0385914
0.0378047
0.0370436
0.0363071
0.0355941
0.0349036
0.0342344
0.0335855
0.0329558
0.0323442
0.0317498
0.0311718
0.0306094
0.030062
0.0295291
0.0290103
0.0285054
0.0280143
0.0275372
0.0270743
0.0266258
0.0261922
0.0257741
0.0253721
0.0249867
0.0246186
0.0242684
0.023937
0.0236252
0.0233333
0.0230615
0.0228098
0.0225782
0.0223663
0.0221735
0.0219992
0.0218427
0.021703
0.021579
0.0214697
0.0213739
0.0212903
0.0212177
0.0211549
0.0211007
0.0210539
0.0210132
0.0209775
0.0209458
0.0209168
0.0208896
0.0208629
0.0208357
0.0208067
0.0207751
0.0207407
0.0207099
0.00622135
0.0116306
0.0142391
0.0159229
0.0171782
0.0182105
0.0191352
0.020024
0.0209212
0.0218523
0.02283
0.0238582
0.0249359
0.0260593
0.0272234
0.0284232
0.0296534
0.0309094
0.0321867
0.0334813
0.0347895
0.0361076
0.0374323
0.0387603
0.0400884
0.0414136
0.0427329
0.0440437
0.0453434
0.0466294
0.0478997
0.0491523
0.0503855
0.0515978
0.0527881
0.0539554
0.0550991
0.0562187
0.0573142
0.0583856
0.0594331
0.0604572
0.0614586
0.0624381
0.0633966
0.0643352
0.065255
0.0661573
0.0670432
0.0679141
0.0687713
0.0696159
0.0704492
0.0712721
0.0720865
0.0728934
0.0736938
0.074488
0.0752759
0.0760571
0.0768306
0.0775947
0.0783474
0.0790861
0.0798076
0.0805083
0.0811839
0.0818298
0.0824413
0.0830129
0.0835393
0.0840149
0.0844341
0.0847913
0.085081
0.0852983
0.0854384
0.0854974
0.0854716
0.0853583
0.0851554
0.0848614
0.0844748
0.0839991
0.083435
0.0827847
0.0820523
0.0812416
0.0803573
0.0794043
0.0783881
0.0773143
0.0761886
0.0750168
0.0738047
0.0725579
0.0712822
0.069983
0.0686656
0.0673351
0.0659963
0.0646539
0.063312
0.0619749
0.060646
0.0593289
0.0580266
0.0567419
0.0554773
0.0542348
0.0530166
0.0518241
0.0506589
0.049522
0.0484144
0.0473368
0.0462896
0.0452732
0.0442877
0.0433329
0.0424087
0.0415147
0.0406502
0.0398147
0.0390073
0.0382272
0.0374732
0.0367445
0.0360398
0.035358
0.034698
0.0340587
0.0334389
0.0328376
0.0322539
0.0316869
0.0311358
0.0306
0.0300791
0.0295727
0.0290806
0.0286028
0.0281394
0.0276906
0.0272568
0.0268385
0.026436
0.0260501
0.0256813
0.0253302
0.0249973
0.0246837
0.0243895
0.0241152
0.0238607
0.023626
0.0234108
0.0232146
0.0230369
0.0228769
0.0227337
0.0226064
0.0224938
0.0223949
0.0223083
0.022233
0.0221676
0.022111
0.0220619
0.0220193
0.0219818
0.0219485
0.0219183
0.0218899
0.0218625
0.0218349
0.0218061
0.0217753
0.0217428
0.0217145
0.00616642
0.0114008
0.014005
0.0157273
0.0170451
0.0181498
0.019146
0.0200982
0.0210471
0.0220173
0.0230221
0.0240676
0.0251548
0.0262824
0.0274476
0.028647
0.029877
0.0311342
0.0324153
0.033717
0.0350363
0.03637
0.037715
0.0390683
0.0404268
0.0417875
0.0431472
0.0445031
0.0458523
0.0471922
0.0485202
0.0498339
0.0511313
0.0524104
0.0536697
0.0549078
0.0561235
0.057316
0.0584846
0.0596291
0.0607492
0.061845
0.0629167
0.0639648
0.0649898
0.0659925
0.0669736
0.0679341
0.068875
0.0697972
0.0707019
0.0715899
0.0724624
0.07332
0.0741642
0.0749966
0.0758179
0.0766287
0.0774289
0.0782181
0.0789956
0.0797597
0.0805087
0.0812401
0.0819509
0.0826378
0.0832965
0.083923
0.0845125
0.0850601
0.0855609
0.0860096
0.086401
0.0867298
0.0869907
0.0871792
0.0872908
0.0873219
0.0872689
0.0871292
0.0869016
0.0865851
0.0861794
0.0856858
0.0851059
0.0844419
0.0836972
0.0828753
0.0819807
0.081018
0.0799924
0.078909
0.0777735
0.0765915
0.0753685
0.0741102
0.0728222
0.0715098
0.0701782
0.0688326
0.0674777
0.0661181
0.0647582
0.0634019
0.0620531
0.060715
0.059391
0.0580839
0.0567962
0.0555303
0.0542882
0.0530717
0.0518823
0.0507213
0.0495897
0.0484885
0.0474183
0.0463794
0.0453721
0.0443965
0.0434525
0.0425397
0.0416577
0.040806
0.0399837
0.0391901
0.0384242
0.0376849
0.0369711
0.0362818
0.0356156
0.0349714
0.0343481
0.0337445
0.0331595
0.0325923
0.0320419
0.0315076
0.0309888
0.030485
0.0299959
0.0295215
0.0290616
0.0286163
0.028186
0.027771
0.0273717
0.0269886
0.0266223
0.0262733
0.025942
0.0256294
0.0253358
0.0250615
0.0248066
0.024571
0.0243546
0.024157
0.0239776
0.0238158
0.0236706
0.0235412
0.0234265
0.0233255
0.0232368
0.0231595
0.0230922
0.0230337
0.022983
0.0229387
0.0228999
0.0228654
0.022834
0.0228049
0.0227769
0.0227491
0.0227205
0.0226905
0.0226596
0.0226334
0.00604314
0.0110751
0.0136553
0.0153984
0.0167607
0.0179208
0.0189734
0.0199762
0.0209659
0.0219655
0.0229888
0.0240431
0.0251316
0.026255
0.0274125
0.0286025
0.029823
0.0310719
0.0323467
0.0336453
0.034965
0.0363033
0.0376575
0.0390248
0.0404024
0.0417872
0.0431762
0.0445665
0.045955
0.047339
0.0487156
0.0500821
0.0514363
0.0527758
0.0540987
0.0554031
0.0566876
0.0579507
0.0591914
0.060409
0.0616027
0.0627721
0.063917
0.0650374
0.0661333
0.067205
0.0682529
0.0692775
0.0702792
0.0712588
0.072217
0.0731543
0.0740714
0.0749685
0.0758471
0.0767084
0.0775531
0.0783817
0.0791941
0.0799901
0.0807686
0.0815284
0.0822677
0.0829844
0.0836758
0.0843388
0.0849695
0.085564
0.0861182
0.0866278
0.0870885
0.0874956
0.0878447
0.0881313
0.08835
0.0884967
0.0885681
0.0885611
0.088473
0.0883016
0.0880457
0.0877045
0.087278
0.0867671
0.0861733
0.0854987
0.0847462
0.0839192
0.0830216
0.0820576
0.0810321
0.0799499
0.0788163
0.0776364
0.0764157
0.0751594
0.073873
0.0725615
0.0712302
0.0698837
0.068527
0.0671644
0.0658003
0.0644385
0.063083
0.061737
0.0604038
0.0590864
0.0577875
0.0565093
0.0552541
0.0540238
0.05282
0.0516442
0.0504976
0.0493812
0.0482958
0.0472419
0.0462201
0.0452304
0.044273
0.0433475
0.0424538
0.0415914
0.0407595
0.0399575
0.0391844
0.0384392
0.0377209
0.0370283
0.0363602
0.0357153
0.0350925
0.0344906
0.0339084
0.0333448
0.0327989
0.0322698
0.0317568
0.0312593
0.0307768
0.0303092
0.0298562
0.0294178
0.0289943
0.0285858
0.0281927
0.0278155
0.0274546
0.0271104
0.0267835
0.0264745
0.0261839
0.0259119
0.0256588
0.0254245
0.0252089
0.0250116
0.0248321
0.0246699
0.024524
0.0243938
0.0242781
0.0241758
0.024086
0.0240073
0.0239388
0.0238791
0.0238271
0.0237817
0.0237418
0.0237064
0.0236743
0.0236446
0.0236162
0.0235883
0.0235601
0.023531
0.0235016
0.0234773
0.00586521
0.0106858
0.0132317
0.0149839
0.0163764
0.0175766
0.018671
0.0197111
0.0207302
0.0217494
0.0227826
0.023838
0.0249203
0.026032
0.0271741
0.0283466
0.029549
0.0307802
0.0320389
0.0333237
0.0346328
0.0359643
0.037316
0.0386854
0.04007
0.0414671
0.0428737
0.044287
0.045704
0.0471217
0.0485374
0.0499481
0.0513513
0.0527444
0.0541251
0.0554912
0.0568408
0.0581722
0.0594838
0.0607742
0.0620424
0.0632872
0.064508
0.0657042
0.0668752
0.0680208
0.0691407
0.0702348
0.0713033
0.0723461
0.0733635
0.0743555
0.0753224
0.0762637
0.0771806
0.0780739
0.078944
0.0797912
0.0806152
0.0814156
0.0821914
0.0829414
0.083664
0.0843574
0.0850192
0.0856474
0.0862376
0.0867862
0.0872904
0.0877467
0.0881516
0.0885015
0.0887927
0.0890214
0.0891841
0.0892774
0.0892986
0.089245
0.0891146
0.0889057
0.0886173
0.0882489
0.0878004
0.0872728
0.0866672
0.0859856
0.0852303
0.0844045
0.0835115
0.0825552
0.0815397
0.0804696
0.0793494
0.0781841
0.0769786
0.0757377
0.0744666
0.07317
0.0718527
0.0705195
0.0691748
0.067823
0.0664681
0.0651141
0.0637648
0.0624234
0.0610933
0.0597773
0.0584783
0.0571987
0.0559407
0.0547065
0.0534977
0.052316
0.0511628
0.0500392
0.0489462
0.0478846
0.0468549
0.0458574
0.0448925
0.0439601
0.0430599
0.0421918
0.0413551
0.0405492
0.0397733
0.0390264
0.0383075
0.0376155
0.0369492
0.0363074
0.0356887
0.0350919
0.0345158
0.0339592
0.0334212
0.0329005
0.0323966
0.0319085
0.0314359
0.0309781
0.0305351
0.0301066
0.0296927
0.0292937
0.0289096
0.0285409
0.028188
0.0278512
0.027531
0.027228
0.0269426
0.0266751
0.0264258
0.0261946
0.0259815
0.0257862
0.0256082
0.0254469
0.0253017
0.0251717
0.025056
0.0249535
0.0248632
0.024784
0.0247148
0.0246544
0.0246017
0.0245556
0.024515
0.0244789
0.0244463
0.0244163
0.0243878
0.02436
0.0243323
0.0243042
0.0242764
0.0242538
0.00563968
0.0102538
0.0127633
0.0145189
0.0159324
0.0171614
0.0182856
0.0193518
0.02039
0.0214202
0.0224557
0.0235052
0.0245747
0.025668
0.0267878
0.0279356
0.0291124
0.0303171
0.0315499
0.0328105
0.0340981
0.0354114
0.0367488
0.0381085
0.0394883
0.0408859
0.0422987
0.0437239
0.0451588
0.0466005
0.0480461
0.0494927
0.0509376
0.052378
0.0538113
0.0552351
0.0566469
0.0580446
0.0594261
0.0607896
0.0621332
0.0634555
0.0647549
0.0660302
0.0672802
0.068504
0.0697006
0.0708692
0.0720093
0.0731202
0.0742014
0.0752524
0.0762726
0.0772613
0.0782188
0.0791455
0.0800411
0.0809056
0.0817383
0.0825387
0.0833057
0.0840381
0.0847346
0.0853935
0.0860129
0.0865909
0.0871248
0.0876123
0.088051
0.0884385
0.0887723
0.08905
0.089269
0.0894269
0.0895212
0.0895498
0.0895107
0.089402
0.0892225
0.0889708
0.0886463
0.0882487
0.087778
0.0872348
0.0866202
0.0859357
0.0851833
0.0843655
0.0834851
0.0825454
0.08155
0.0805026
0.0794075
0.0782688
0.0770909
0.0758784
0.0746356
0.0733671
0.0720773
0.0707705
0.0694511
0.068123
0.0667902
0.0654566
0.0641257
0.0628008
0.0614852
0.0601819
0.0588935
0.0576227
0.0563719
0.055143
0.0539382
0.0527591
0.0516072
0.050484
0.0493905
0.0483277
0.0472964
0.0462971
0.0453302
0.044396
0.0434943
0.042625
0.0417878
0.0409821
0.0402073
0.0394624
0.0387465
0.0380585
0.0373973
0.0367616
0.0361501
0.0355615
0.0349945
0.0344479
0.0339206
0.0334113
0.0329192
0.0324434
0.0319832
0.0315382
0.0311078
0.0306918
0.0302902
0.0299031
0.0295305
0.0291727
0.0288301
0.0285031
0.0281918
0.0278969
0.0276187
0.0273577
0.027114
0.0268877
0.0266787
0.0264869
0.0263117
0.0261527
0.0260093
0.0258806
0.0257658
0.025664
0.025574
0.025495
0.0254257
0.0253651
0.0253121
0.0252657
0.0252248
0.0251884
0.0251556
0.0251255
0.0250971
0.0250697
0.0250426
0.0250156
0.0249894
0.0249684
0.00537246
0.00978486
0.0122686
0.0140302
0.0154617
0.0167132
0.0178594
0.0189436
0.0199935
0.0210277
0.0220591
0.0230969
0.0241479
0.0252169
0.0263078
0.0274232
0.0285651
0.0297348
0.0309331
0.0321606
0.0334173
0.0347027
0.036016
0.0373561
0.0387212
0.0401096
0.0415192
0.0429474
0.0443918
0.0458496
0.0473182
0.0487945
0.0502757
0.051759
0.0532414
0.0547201
0.0561924
0.0576556
0.059107
0.0605441
0.0619646
0.0633662
0.0647466
0.0661038
0.0674359
0.068741
0.0700174
0.0712635
0.0724778
0.0736591
0.0748061
0.0759177
0.0769917
0.0780274
0.0790242
0.0799816
0.0808988
0.0817752
0.0826098
0.0834018
0.0841501
0.0848536
0.0855114
0.086122
0.0866844
0.0871973
0.0876594
0.0880695
0.0884263
0.0887288
0.0889758
0.0891664
0.0892993
0.0893736
0.0893881
0.0893418
0.0892338
0.0890631
0.088829
0.0885308
0.0881681
0.0877406
0.0872485
0.0866922
0.0860722
0.0853898
0.0846464
0.0838437
0.0829841
0.08207
0.0811043
0.0800901
0.0790308
0.07793
0.0767914
0.075619
0.0744166
0.0731884
0.0719382
0.07067
0.0693878
0.0680954
0.0667965
0.0654947
0.0641934
0.062896
0.0616055
0.060325
0.0590572
0.0578047
0.05657
0.0553552
0.0541626
0.0529938
0.0518508
0.0507349
0.0496475
0.0485897
0.0475626
0.0465669
0.0456031
0.0446718
0.043773
0.0429068
0.0420729
0.0412711
0.0405007