/*--------------------------------*- C++ -*----------------------------------*\
  =========                 |
  \\      /  F ield         | OpenFOAM: The Open Source CFD Toolbox
   \\    /   O peration     | Website:  https://openfoam.org
    \\  /    A nd           | Version:  6
     \\/     M anipulation  |
\*---------------------------------------------------------------------------*/
FoamFile
{
    version     2.0;
    format      ascii;
    class       volScalarField;
    location    "0.23";
    object      nut;
}
// * * * * * * * * * * * * * * * * * * * * * * * * * * * * * * * * * * * * * //

dimensions      [0 2 -1 0 0 0 0];

internalField   nonuniform List<scalar> 
12225
(
1.77723e-05
1.42681e-05
1.23501e-05
1.11614e-05
1.03583e-05
9.7865e-06
9.35902e-06
9.02347e-06
8.7489e-06
8.51707e-06
8.31685e-06
8.14103e-06
7.98475e-06
7.84446e-06
7.71753e-06
7.60195e-06
7.49609e-06
7.4046e-06
0.00014488
0.000101905
8.78784e-05
8.05073e-05
7.60394e-05
7.30453e-05
7.07275e-05
6.87044e-05
6.6849e-05
6.51338e-05
6.355e-05
6.20887e-05
6.07397e-05
5.94921e-05
5.83368e-05
5.72574e-05
5.62918e-05
5.54209e-05
0.000323316
0.000223553
0.000189759
0.000172499
0.000161946
0.000154822
0.000149528
0.000145223
0.000141504
0.000138188
0.000135182
0.000132431
0.000129897
0.000127553
0.000125376
0.000123344
0.000121485
0.00011985
0.000493959
0.000355209
0.000299381
0.000269547
0.000250971
0.000238325
0.000229056
0.00022179
0.000215783
0.00021063
0.000206095
0.000202033
0.000198351
0.000194982
0.000191877
0.000189
0.000186362
0.000184037
0.000624463
0.000478649
0.000407295
0.000366102
0.000339473
0.000320951
0.000307287
0.000296669
0.000288054
0.00028082
0.000274586
0.000269104
0.00026421
0.000259787
0.000255754
0.000252053
0.000248674
0.000245694
0.000713105
0.000583329
0.000506456
0.000457796
0.000424719
0.000400984
0.000383161
0.000369226
0.000357948
0.000348552
0.000340536
0.000333565
0.000327405
0.000321893
0.000316911
0.000312379
0.000308268
0.000304644
0.000769316
0.000665557
0.00059224
0.000541038
0.000504136
0.000476626
0.000455448
0.000438644
0.000424947
0.000413518
0.000403786
0.000395356
0.000387947
0.000381354
0.000375431
0.000370076
0.000365245
0.000360989
0.000803464
0.000726286
0.000662486
0.000613304
0.000575531
0.000546127
0.0005228
0.000503909
0.000488305
0.00047518
0.000463959
0.000454226
0.000445675
0.000438081
0.000431276
0.000425146
0.000419635
0.000414776
0.000823632
0.00076891
0.00071717
0.000673315
0.000637348
0.000608011
0.000583932
0.000563946
0.000547145
0.000532836
0.000520497
0.000509735
0.000500249
0.00049181
0.000484248
0.000477441
0.000471329
0.000465927
0.000835321
0.00079758
0.000757797
0.000721015
0.000688826
0.000661264
0.000637801
0.00061778
0.000600591
0.000585719
0.000572742
0.000561323
0.000551194
0.000542143
0.000534008
0.000526676
0.000520085
0.000514237
0.000842014
0.000816187
0.000786712
0.000757337
0.000730011
0.000705457
0.000683747
0.000664665
0.000647896
0.000633118
0.000620034
0.00060839
0.000597968
0.000588593
0.000580124
0.000572462
0.000565554
0.000559394
0.000845506
0.00082693
0.000804836
0.000781628
0.000758971
0.000737764
0.000718372
0.000700852
0.000685106
0.000670974
0.000658274
0.000646831
0.000636489
0.000627109
0.000618582
0.000610828
0.000603808
0.000597516
0.000847618
0.000833937
0.000817463
0.000799505
0.000781247
0.000763505
0.000746744
0.000731178
0.000716862
0.00070376
0.000691795
0.000680867
0.000670878
0.000661734
0.000653357
0.000645692
0.000638713
0.000632415
0.00084898
0.000838773
0.00082676
0.000813445
0.000799481
0.000785441
0.000771739
0.000758634
0.000746268
0.000734695
0.00072392
0.000713916
0.00070464
0.000696046
0.000688092
0.000680752
0.000674013
0.000667873
0.000849782
0.00084179
0.000832926
0.000823243
0.000812977
0.000802418
0.000791833
0.000781431
0.000771356
0.000761701
0.000752517
0.000743826
0.000735632
0.000727927
0.000720704
0.000713963
0.000707708
0.000701933
0.000850209
0.000843469
0.00083655
0.000829333
0.000821815
0.000814073
0.000806212
0.000798341
0.000790556
0.000782934
0.000775529
0.000768383
0.00076152
0.00075496
0.000748719
0.000742813
0.000737262
0.000732052
0.000850409
0.000844283
0.000838388
0.000832578
0.000826761
0.000820901
0.000814994
0.000809062
0.000803138
0.000797258
0.000791454
0.000785759
0.000780199
0.000774801
0.000769588
0.000764587
0.000759818
0.000755262
0.000850482
0.000844584
0.000839091
0.000833867
0.000828806
0.000823834
0.000818905
0.000813999
0.000809108
0.000804239
0.000799404
0.00079462
0.000789908
0.000785287
0.000780783
0.000776421
0.000772218
0.000768144
0.000850461
0.000844499
0.000838897
0.000833517
0.000828261
0.000823066
0.000817901
0.000812755
0.000807631
0.000802543
0.000797508
0.000792545
0.000787674
0.000782916
0.000778295
0.000773832
0.000769543
0.000765395
0.000850264
0.000843698
0.000837082
0.000830294
0.000823311
0.000816173
0.000808954
0.000801734
0.000794587
0.000787576
0.00078075
0.000774145
0.000767787
0.000761696
0.000755886
0.000750372
0.000745161
0.000740212
0.000849709
0.000841538
0.000832463
0.000822583
0.000812163
0.0008015
0.000790858
0.000780438
0.00077038
0.00076077
0.000751655
0.000743053
0.000734965
0.000727381
0.00072029
0.00071368
0.000707538
0.000701817
0.000848165
0.000835955
0.000821438
0.000805566
0.000789265
0.000773227
0.000757887
0.000743477
0.000730095
0.000717747
0.000706397
0.000695979
0.00068642
0.000677649
0.000669602
0.000662225
0.000655476
0.000649292
0.000844088
0.000822755
0.000797961
0.000772554
0.000748257
0.000725883
0.000705695
0.000687658
0.000671601
0.000657309
0.000644563
0.000633161
0.000622926
0.000613704
0.000605374
0.000597838
0.000591026
0.000584863
0.000833791
0.00079425
0.000753396
0.000716083
0.00068366
0.000656024
0.000632582
0.000612647
0.000595591
0.000580885
0.000568102
0.0005569
0.00054701
0.000538218
0.000530359
0.000523311
0.000516987
0.000511314
0.000809076
0.000738694
0.000678547
0.000630935
0.000593624
0.000564153
0.000540548
0.000521326
0.00050541
0.000492021
0.000480594
0.000470715
0.000462077
0.000454449
0.000447661
0.00044159
0.000436155
0.000431298
0.000753685
0.000642687
0.000568249
0.000517626
0.000481626
0.000455036
0.000434737
0.000418757
0.000405822
0.000395098
0.000386019
0.000378199
0.000371363
0.000365316
0.000359917
0.000355068
0.000350709
0.00034681
0.000641466
0.000499156
0.000426795
0.000383992
0.000355866
0.000336168
0.000321661
0.000310471
0.000301484
0.000294021
0.000287655
0.000282111
0.000277205
0.00027281
0.000268839
0.000265231
0.000261953
0.000259004
0.000448553
0.000320189
0.000270289
0.000243477
0.00022673
0.000215453
0.000207327
0.000201046
0.000195894
0.000191481
0.000187593
0.000184103
0.000180933
0.000178031
0.000175361
0.000172898
0.000170631
0.00016857
0.000203095
0.000143552
0.000122976
0.00011171
0.000104816
0.000100371
9.71881e-05
9.46034e-05
9.2322e-05
9.0235e-05
8.83034e-05
8.65099e-05
8.4844e-05
8.32974e-05
8.18618e-05
8.05291e-05
7.92929e-05
7.81533e-05
2.40294e-05
1.96339e-05
1.71031e-05
1.54671e-05
1.43248e-05
1.34924e-05
1.28647e-05
1.2374e-05
1.19771e-05
1.16464e-05
1.13642e-05
1.11191e-05
1.09031e-05
1.07107e-05
1.05379e-05
1.03818e-05
1.02399e-05
1.01109e-05
1.93209e-06
5.47058e-06
5.92571e-06
6.07597e-06
6.20062e-06
6.38493e-06
6.61029e-06
6.87536e-06
7.19163e-06
7.56216e-06
7.92097e-06
8.28641e-06
8.65877e-06
9.0348e-06
9.41019e-06
9.78079e-06
1.01432e-05
1.04948e-05
1.0834e-05
1.11596e-05
1.14713e-05
1.17688e-05
1.20524e-05
1.23224e-05
1.25793e-05
1.28238e-05
1.30565e-05
1.32783e-05
1.349e-05
1.36921e-05
1.38856e-05
1.40712e-05
1.42495e-05
1.44211e-05
1.45868e-05
1.47469e-05
1.49021e-05
1.50527e-05
1.51992e-05
1.53419e-05
1.54811e-05
1.5617e-05
1.575e-05
1.58803e-05
1.60079e-05
1.61331e-05
1.62561e-05
1.6377e-05
1.64961e-05
1.66138e-05
1.67303e-05
1.68462e-05
1.69623e-05
1.7082e-05
1.71985e-05
1.7312e-05
1.74226e-05
1.75301e-05
1.76343e-05
1.77348e-05
1.78313e-05
1.79236e-05
1.80111e-05
1.80934e-05
1.81702e-05
1.8241e-05
1.83053e-05
1.83627e-05
1.84127e-05
1.84549e-05
1.84887e-05
1.85138e-05
1.85298e-05
1.85363e-05
1.85329e-05
1.85193e-05
1.84953e-05
1.84607e-05
1.84152e-05
1.83589e-05
1.82916e-05
1.82133e-05
1.81242e-05
1.80244e-05
1.79142e-05
1.77936e-05
1.76632e-05
1.75232e-05
1.73741e-05
1.72163e-05
1.70501e-05
1.68761e-05
1.66942e-05
1.65042e-05
1.63125e-05
1.61544e-05
1.60247e-05
1.58968e-05
1.57668e-05
1.56345e-05
1.54999e-05
1.53634e-05
1.52253e-05
1.50862e-05
1.49463e-05
1.4806e-05
1.46657e-05
1.45257e-05
1.43862e-05
1.42477e-05
1.41103e-05
1.39742e-05
1.38396e-05
1.37068e-05
1.35758e-05
1.34468e-05
1.33198e-05
1.31949e-05
1.30722e-05
1.29516e-05
1.28331e-05
1.27167e-05
1.26023e-05
1.24897e-05
1.2379e-05
1.22699e-05
1.21624e-05
1.20561e-05
1.19511e-05
1.1847e-05
1.17438e-05
1.16412e-05
1.1539e-05
1.14372e-05
1.13356e-05
1.12341e-05
1.11325e-05
1.1031e-05
1.09294e-05
1.08277e-05
1.07262e-05
1.06247e-05
1.05235e-05
1.04224e-05
1.03207e-05
1.02179e-05
1.01171e-05
1.00205e-05
9.9278e-06
9.83905e-06
9.75426e-06
9.6735e-06
9.59682e-06
9.52425e-06
9.45581e-06
9.39148e-06
9.33122e-06
9.27494e-06
9.22251e-06
9.17378e-06
9.12853e-06
9.08656e-06
9.04761e-06
9.01141e-06
8.97768e-06
8.94613e-06
8.91645e-06
8.88834e-06
8.86146e-06
8.83548e-06
8.81002e-06
8.78466e-06
8.75889e-06
8.73207e-06
8.70329e-06
8.67112e-06
8.6333e-06
8.58536e-06
8.52052e-06
8.42258e-06
2.71321e-06
1.59667e-05
2.71244e-05
3.36554e-05
3.63277e-05
3.73074e-05
3.80335e-05
3.89173e-05
3.99022e-05
4.08972e-05
4.19146e-05
4.30095e-05
4.42379e-05
4.56381e-05
4.72294e-05
4.9017e-05
5.09957e-05
5.31524e-05
5.5468e-05
5.79187e-05
6.04776e-05
6.31158e-05
6.58043e-05
6.85155e-05
7.12239e-05
7.39075e-05
7.65483e-05
7.91323e-05
8.16497e-05
8.40943e-05
8.64633e-05
8.87569e-05
9.09774e-05
9.31287e-05
9.52163e-05
9.72464e-05
9.92257e-05
0.000101161
0.00010306
0.000104928
0.000106773
0.0001086
0.000110414
0.00011222
0.000114021
0.000115818
0.000117611
0.000119399
0.000121177
0.000122937
0.000124669
0.000126357
0.000127984
0.000129532
0.000131084
0.000132652
0.000134238
0.00013584
0.000137455
0.000139082
0.000140717
0.000142356
0.000143995
0.000145627
0.000147248
0.000148851
0.00015043
0.000151977
0.000153484
0.000154945
0.000156351
0.000157693
0.000158965
0.000160157
0.000161264
0.000162276
0.000163188
0.000163994
0.000164688
0.000165266
0.000165723
0.000166057
0.000166265
0.000166347
0.000166301
0.000166129
0.000165831
0.000165409
0.000164863
0.000164192
0.000163395
0.000162459
0.000161357
0.000160037
0.000158444
0.000156623
0.000154687
0.000152683
0.000150627
0.000148532
0.000146406
0.000144257
0.000142092
0.000139916
0.000137736
0.000135557
0.000133385
0.000131224
0.000129078
0.000126951
0.000124847
0.000122769
0.000120718
0.000118698
0.00011671
0.000114757
0.000112838
0.000110954
0.000109107
0.000107296
0.000105521
0.000103782
0.000102077
0.000100407
9.87687e-05
9.71617e-05
9.55845e-05
9.40353e-05
9.25125e-05
9.10145e-05
8.95396e-05
8.80864e-05
8.66535e-05
8.52401e-05
8.38451e-05
8.24684e-05
8.11096e-05
7.97693e-05
7.84482e-05
7.71476e-05
7.58691e-05
7.46146e-05
7.33856e-05
7.21823e-05
7.10006e-05
6.98246e-05
6.86186e-05
6.74377e-05
6.6337e-05
6.53141e-05
6.43656e-05
6.34885e-05
6.26807e-05
6.19401e-05
6.12645e-05
6.06515e-05
6.00983e-05
5.96017e-05
5.91581e-05
5.87635e-05
5.84138e-05
5.81046e-05
5.78315e-05
5.75898e-05
5.73749e-05
5.71822e-05
5.70068e-05
5.68439e-05
5.66885e-05
5.6535e-05
5.6377e-05
5.62066e-05
5.60134e-05
5.57823e-05
5.5489e-05
5.5093e-05
5.45107e-05
5.36148e-05
5.19898e-05
4.9807e-05
3.39829e-06
2.54959e-05
4.23769e-05
5.18672e-05
5.68346e-05
5.95176e-05
6.13814e-05
6.31651e-05
6.51288e-05
6.73456e-05
6.98615e-05
7.27282e-05
7.59915e-05
7.96773e-05
8.37866e-05
8.82975e-05
9.31692e-05
9.83468e-05
0.000103767
0.000109362
0.000115065
0.000120813
0.000126549
0.000132226
0.000137805
0.000143255
0.000148556
0.000153694
0.000158663
0.000163462
0.000168092
0.00017256
0.000176875
0.000181047
0.000185086
0.000189004
0.000192814
0.000196526
0.000200152
0.000203702
0.000207186
0.000210613
0.000213991
0.000217326
0.000220623
0.000223887
0.00022712
0.000230322
0.000233492
0.000236629
0.000239729
0.000242789
0.000245809
0.000248815
0.000251838
0.000254886
0.000257961
0.000261061
0.000264182
0.000267319
0.000270468
0.00027362
0.000276768
0.000279902
0.000283012
0.000286087
0.000289113
0.000292077
0.000294966
0.000297764
0.000300456
0.000303028
0.000305464
0.000307748
0.000309867
0.000311806
0.000313552
0.000315094
0.000316419
0.000317519
0.000318387
0.000319014
0.000319398
0.000319534
0.000319422
0.00031906
0.00031845
0.000317593
0.00031649
0.000315141
0.000313543
0.000311688
0.000309557
0.000307126
0.000304386
0.000301377
0.000298176
0.00029483
0.000291369
0.000287813
0.000284178
0.00028048
0.00027673
0.000272943
0.00026913
0.000265301
0.000261468
0.000257639
0.000253824
0.000250031
0.000246268
0.00024254
0.000238854
0.000235215
0.000231627
0.000228094
0.000224619
0.000221204
0.00021785
0.000214559
0.00021133
0.000208163
0.000205057
0.000202011
0.000199021
0.000196085
0.000193201
0.000190364
0.000187573
0.000184822
0.000182108
0.000179429
0.000176781
0.000174161
0.000171568
0.000168999
0.000166455
0.000163934
0.000161438
0.000158969
0.000156529
0.000154121
0.000151747
0.000149409
0.000147107
0.000144833
0.000142579
0.000140349
0.000138168
0.000136104
0.000134161
0.000132345
0.000130656
0.000129096
0.000127663
0.000126358
0.000125175
0.00012411
0.000123158
0.000122311
0.000121562
0.000120903
0.000120324
0.000119815
0.000119369
0.000118973
0.000118619
0.000118296
0.000117994
0.000117701
0.000117405
0.000117089
0.000116736
0.000116317
0.000115793
0.000115097
0.000114102
0.000112594
0.000110026
0.000106032
3.90472e-06
3.1448e-05
5.30762e-05
6.61131e-05
7.374e-05
7.84098e-05
8.17883e-05
8.48725e-05
8.81715e-05
9.19145e-05
9.62013e-05
0.000101074
0.000106539
0.000112575
0.000119132
0.000126143
0.000133523
0.000141185
0.000149038
0.000156998
0.000164989
0.000172944
0.000180807
0.000188534
0.000196092
0.000203456
0.00021061
0.000217545
0.000224258
0.000230749
0.000237024
0.00024309
0.000248956
0.000254633
0.000260133
0.000265467
0.000270646
0.000275685
0.000280593
0.000285382
0.000290063
0.000294646
0.00029914
0.000303553
0.000307892
0.000312166
0.000316378
0.000320535
0.00032464
0.000328699
0.000332713
0.000336689
0.000340629
0.000344564
0.000348511
0.000352476
0.000356463
0.000360469
0.000364493
0.00036853
0.000372574
0.000376618
0.000380652
0.000384665
0.000388647
0.000392582
0.000396456
0.000400254
0.000403957
0.000407548
0.000411009
0.00041432
0.000417462
0.000420417
0.000423165
0.000425688
0.000427969
0.000429993
0.000431745
0.000433212
0.000434382
0.000435247
0.000435799
0.000436033
0.000435945
0.000435534
0.000434801
0.000433746
0.00043237
0.000430676
0.000428664
0.000426333
0.000423676
0.000420696
0.000417402
0.000413831
0.000410029
0.000406033
0.000401873
0.000397571
0.000393149
0.000388626
0.000384017
0.000379341
0.000374612
0.000369845
0.000365054
0.000360252
0.000355452
0.000350664
0.000345899
0.000341167
0.000336475
0.000331832
0.000327244
0.000322716
0.000318254
0.00031386
0.000309539
0.00030529
0.000301116
0.000297016
0.00029299
0.000289034
0.000285148
0.000281327
0.000277568
0.000273866
0.000270217
0.000266616
0.000263059
0.000259539
0.000256054
0.000252599
0.00024917
0.000245766
0.000242384
0.000239025
0.000235689
0.000232377
0.000229094
0.000225841
0.000222625
0.000219448
0.000216314
0.000213224
0.000210182
0.000207191
0.000204258
0.000201432
0.000198748
0.000196215
0.000193843
0.000191634
0.000189593
0.00018772
0.000186013
0.000184467
0.000183078
0.000181837
0.000180734
0.00017976
0.000178903
0.00017815
0.000177489
0.000176906
0.000176387
0.000175919
0.000175487
0.000175076
0.000174669
0.000174245
0.000173782
0.000173246
0.00017259
0.000171743
0.000170575
0.000168867
0.000166171
0.000162179
4.24428e-06
3.50133e-05
6.08481e-05
7.7379e-05
8.78476e-05
9.48245e-05
0.000100102
0.000104845
0.000109734
0.000115119
0.00012115
0.000127865
0.00013524
0.000143212
0.000151694
0.000160591
0.000169801
0.000179225
0.000188771
0.000198359
0.000207917
0.000217386
0.000226719
0.000235876
0.00024483
0.000253559
0.000262051
0.000270296
0.000278292
0.000286038
0.000293537
0.000300797
0.000307822
0.000314624
0.00032121
0.000327592
0.000333779
0.000339784
0.000345616
0.000351287
0.000356808
0.000362188
0.000367437
0.000372566
0.000377584
0.0003825
0.000387322
0.000392059
0.000396718
0.000401306
0.000405832
0.000410301
0.00041472
0.000419115
0.000423504
0.000427895
0.000432293
0.000436701
0.000441117
0.00044554
0.000449967
0.00045439
0.000458802
0.000463194
0.000467554
0.00047187
0.000476126
0.000480307
0.000484396
0.000488372
0.000492218
0.000495912
0.000499433
0.000502761
0.000505874
0.000508753
0.000511377
0.000513727
0.000515787
0.000517541
0.000518973
0.000520074
0.000520831
0.000521239
0.000521291
0.000520983
0.000520315
0.000519287
0.000517899
0.000516155
0.00051406
0.000511609
0.000508812
0.000505684
0.000502242
0.000498514
0.000494531
0.000490324
0.000485919
0.000481339
0.000476605
0.000471739
0.00046676
0.000461685
0.000456534
0.000451322
0.000446065
0.000440779
0.000435479
0.000430177
0.000424885
0.000419616
0.000414379
0.000409184
0.00040404
0.000398952
0.000393928
0.000388972
0.000384089
0.00037928
0.000374548
0.000369894
0.000365315
0.000360812
0.000356381
0.000352019
0.000347722
0.000343486
0.000339303
0.000335171
0.000331081
0.00032703
0.00032301
0.000319018
0.00031505
0.000311101
0.000307171
0.000303257
0.00029936
0.000295483
0.000291628
0.0002878
0.000284004
0.000280246
0.000276533
0.000272872
0.00026927
0.000265734
0.000262275
0.000258913
0.000255698
0.000252646
0.000249769
0.000247076
0.000244573
0.000242263
0.000240146
0.00023822
0.00023648
0.000234918
0.000233525
0.000232289
0.000231198
0.000230238
0.000229393
0.000228649
0.000227989
0.000227397
0.000226855
0.000226346
0.00022585
0.000225344
0.000224801
0.000224187
0.000223454
0.000222528
0.000221291
0.000219552
0.000216979
0.000213442
4.44502e-06
3.71242e-05
6.62423e-05
8.59233e-05
9.92146e-05
0.000108664
0.000116087
0.000122715
0.000129319
0.00013633
0.000143942
0.000152209
0.0001611
0.000170538
0.00018043
0.000190671
0.000201161
0.000211807
0.000222524
0.000233238
0.000243889
0.000254423
0.000264799
0.000274984
0.000284951
0.00029468
0.000304159
0.000313378
0.000322332
0.000331017
0.000339436
0.00034759
0.000355485
0.000363125
0.000370517
0.000377671
0.000384593
0.000391294
0.000397782
0.000404068
0.000410161
0.000416072
0.00042181
0.000427387
0.000432811
0.000438094
0.000443246
0.000448276
0.000453195
0.000458011
0.000462735
0.000467373
0.000471935
0.000476443
0.000480918
0.000485373
0.000489818
0.000494258
0.000498698
0.000503139
0.000507581
0.00051202
0.000516453
0.000520872
0.00052527
0.000529635
0.000533955
0.000538214
0.000542398
0.000546488
0.000550465
0.000554308
0.000557996
0.000561507
0.000564819
0.000567911
0.00057076
0.000573345
0.000575647
0.000577647
0.000579329
0.000580677
0.000581679
0.000582325
0.000582605
0.000582515
0.00058205
0.00058121
0.000579994
0.000578406
0.00057644
0.00057411
0.00057143
0.000568415
0.000565085
0.00056146
0.000557566
0.000553427
0.000549067
0.000544507
0.00053977
0.000534876
0.000529845
0.000524697
0.00051945
0.000514122
0.000508731
0.000503292
0.000497822
0.000492335
0.000486844
0.000481363
0.000475903
0.000470475
0.000465088
0.000459751
0.00045447
0.000449252
0.000444102
0.000439024
0.000434019
0.000429089
0.000424234
0.000419452
0.000414742
0.0004101
0.000405522
0.000401002
0.000396536
0.000392117
0.000387738
0.000383394
0.000379078
0.000374785
0.00037051
0.000366249
0.000361998
0.000357757
0.000353526
0.000349306
0.0003451
0.000340914
0.000336753
0.000332625
0.000328539
0.000324505
0.000320531
0.00031663
0.000312814
0.000309093
0.000305516
0.000302102
0.000298868
0.000295826
0.000292985
0.00029035
0.000287925
0.000285708
0.000283697
0.000281883
0.000280259
0.000278813
0.000277532
0.000276401
0.000275404
0.000274525
0.000273747
0.000273051
0.000272418
0.000271829
0.000271261
0.000270692
0.000270092
0.000269426
0.000268647
0.000267687
0.000266439
0.000264746
0.000262377
0.000259336
4.56242e-06
3.81106e-05
6.96603e-05
9.20535e-05
0.000107984
0.000119877
0.000129495
0.000138062
0.000146379
0.000154917
0.000163914
0.000173451
0.000183514
0.00019404
0.000204944
0.000216133
0.000227515
0.000239009
0.000250539
0.000262041
0.000273461
0.000284752
0.000295878
0.000306806
0.000317513
0.000327979
0.000338188
0.000348131
0.000357799
0.000367188
0.000376294
0.000385117
0.000393658
0.000401921
0.000409908
0.000417625
0.000425078
0.000432273
0.000439219
0.000445923
0.000452394
0.00045864
0.000464673
0.000470501
0.000476135
0.000481585
0.000486862
0.000491978
0.000496942
0.000501767
0.000506462
0.000511037
0.000515504
0.000519881
0.000524195
0.000528464
0.000532703
0.000536924
0.000541134
0.000545341
0.000549548
0.000553758
0.00055797
0.000562181
0.000566387
0.00057058
0.000574751
0.000578888
0.000582977
0.000587001
0.000590943
0.000594784
0.000598501
0.000602074
0.000605479
0.000608693
0.000611694
0.000614457
0.000616961
0.000619186
0.00062111
0.000622718
0.000623993
0.00062492
0.00062549
0.000625694
0.000625524
0.000624982
0.000624049
0.000622736
0.000621049
0.000619002
0.000616604
0.000613872
0.00061082
0.000607469
0.000603838
0.000599948
0.00059582
0.000591476
0.000586935
0.000582219
0.000577347
0.000572339
0.000567214
0.00056199
0.000556686
0.000551318
0.000545902
0.000540455
0.00053499
0.000529522
0.000524063
0.000518624
0.000513216
0.000507848
0.000502529
0.000497266
0.000492063
0.000486926
0.000481857
0.000476858
0.000471931
0.000467073
0.000462284
0.000457559
0.000452895
0.000448287
0.000443729
0.000439214
0.000434736
0.000430288
0.000425863
0.000421456
0.00041706
0.00041267
0.000408284
0.000403899
0.000399514
0.000395132
0.000390755
0.000386387
0.000382036
0.00037771
0.000373419
0.000369173
0.000364985
0.000360867
0.000356834
0.000352897
0.000349091
0.000345444
0.000341975
0.000338697
0.000335622
0.000332759
0.000330112
0.000327683
0.000325469
0.000323465
0.000321664
0.000320054
0.000318623
0.000317356
0.000316237
0.000315249
0.000314374
0.000313592
0.000312885
0.00031223
0.000311606
0.000310989
0.000310348
0.00030965
0.000308848
0.000307881
0.000306657
0.000305049
0.000302903
0.000300301
4.61967e-06
3.82945e-05
7.15152e-05
9.61393e-05
0.000114413
0.000128572
0.000140276
0.000150696
0.000160623
0.000170548
0.00018074
0.000191312
0.000202283
0.000213616
0.000225247
0.0002371
0.0002491
0.000261177
0.000273267
0.000285313
0.000297268
0.00030909
0.000320745
0.000332204
0.000343443
0.000354441
0.000365182
0.000375654
0.000385847
0.000395752
0.000405363
0.000414678
0.000423694
0.00043241
0.000440828
0.000448949
0.000456777
0.000464315
0.00047157
0.000478546
0.000485251
0.000491692
0.000497878
0.000503818
0.00050952
0.000514997
0.000520257
0.000525312
0.000530174
0.000534855
0.000539368
0.000543723
0.000547934
0.000552018
0.000556008
0.000559926
0.000563794
0.000567629
0.000571445
0.000575253
0.000579064
0.000582884
0.000586718
0.000590568
0.000594435
0.000598313
0.000602199
0.000606083
0.000609954
0.000613798
0.000617599
0.000621339
0.000624998
0.000628554
0.000631983
0.000635261
0.000638365
0.000641269
0.00064395
0.000646382
0.000648545
0.000650418
0.000651984
0.00065322
0.000654117
0.000654667
0.000654839
0.00065464
0.000654068
0.000653126
0.000651819
0.000650156
0.000648146
0.000645803
0.000643139
0.000640172
0.000636917
0.000633394
0.000629622
0.000625619
0.000621406
0.000617003
0.000612428
0.000607702
0.000602843
0.00059787
0.000592801
0.000587654
0.000582444
0.000577189
0.000571904
0.000566603
0.000561299
0.000556004
0.00055073
0.000545487
0.000540284
0.000535128
0.000530026
0.000524984
0.000520004
0.000515089
0.000510241
0.000505459
0.00050074
0.000496084
0.000491484
0.000486937
0.000482436
0.000477975
0.000473546
0.000469144
0.000464759
0.000460385
0.000456017
0.000451648
0.000447274
0.000442894
0.000438504
0.000434106
0.000429704
0.0004253
0.000420902
0.000416519
0.00041216
0.000407837
0.000403563
0.000399353
0.000395221
0.000391183
0.000387261
0.000383488
0.000379885
0.000376466
0.000373247
0.000370238
0.000367444
0.00036487
0.000362515
0.000360376
0.000358446
0.000356714
0.00035517
0.000353799
0.000352585
0.000351511
0.000350559
0.000349709
0.000348942
0.000348237
0.000347569
0.000346916
0.000346247
0.00034553
0.000344722
0.000343767
0.000342588
0.000341084
0.000339154
0.000336924
4.63264e-06
3.79246e-05
7.21648e-05
9.85344e-05
0.000118796
0.000134953
0.000148533
0.000160633
0.000172012
0.000183161
0.000194371
0.000205789
0.000217468
0.000229401
0.00024155
0.000253862
0.000266278
0.000278742
0.0002912
0.000303604
0.000315912
0.000328087
0.000340098
0.000351915
0.000363516
0.00037488
0.00038599
0.000396831
0.00040739
0.000417658
0.000427625
0.000437286
0.000446635
0.000455668
0.000464384
0.000472781
0.00048086
0.000488623
0.000496071
0.000503209
0.000510042
0.000516574
0.000522812
0.000528764
0.000534438
0.000539843
0.00054499
0.00054989
0.000554553
0.000558994
0.000563225
0.00056726
0.000571114
0.000574806
0.000578371
0.000581839
0.000585237
0.000588588
0.000591911
0.000595224
0.000598543
0.000601879
0.000605244
0.000608643
0.000612082
0.000615562
0.000619082
0.000622635
0.000626214
0.000629808
0.000633403
0.000636983
0.000640529
0.000644019
0.000647428
0.000650733
0.000653908
0.000656928
0.000659768
0.000662398
0.000664791
0.00066693
0.000668802
0.000670356
0.000671588
0.000672487
0.000673039
0.000673238
0.000673082
0.00067257
0.000671704
0.00067049
0.000668935
0.000667048
0.000664842
0.000662329
0.000659525
0.000656445
0.000653107
0.000649529
0.000645729
0.000641726
0.000637538
0.000633186
0.000628688
0.000624061
0.000619326
0.000614498
0.000609596
0.000604635
0.000599632
0.000594601
0.000589557
0.000584512
0.000579478
0.000574467
0.000569487
0.000564548
0.000559656
0.000554818
0.000550038
0.000545318
0.00054066
0.000536065
0.000531531
0.000527056
0.000522635
0.000518263
0.000513935
0.000509644
0.000505383
0.000501143
0.000496916
0.000492696
0.000488475
0.000484247
0.000480007
0.00047575
0.000471476
0.000467184
0.000462876
0.000458556
0.000454229
0.000449905
0.000445592
0.000441304
0.000437054
0.000432856
0.000428726
0.00042468
0.000420737
0.00041693
0.000413278
0.0004098
0.000406513
0.000403427
0.000400553
0.000397894
0.000395452
0.000393225
0.000391209
0.000389394
0.00038777
0.000386324
0.00038504
0.000383902
0.000382892
0.000381991
0.000381179
0.000380435
0.000379735
0.000379057
0.000378372
0.000377647
0.000376845
0.000375915
0.000374792
0.000373398
0.00037167
0.000369751
4.61228e-06
3.71787e-05
7.1891e-05
9.95396e-05
0.000121413
0.000139259
0.000154458
0.000168021
0.000180664
0.000192868
0.000204937
0.000217046
0.000229275
0.000241651
0.00025416
0.000266773
0.000279448
0.000292143
0.000304815
0.000317425
0.000329935
0.000342312
0.000354528
0.000366556
0.000378372
0.000389957
0.000401291
0.000412359
0.000423146
0.00043364
0.000443831
0.000453709
0.000463266
0.000472497
0.000481397
0.000489961
0.000498187
0.000506075
0.000513624
0.000520835
0.000527711
0.000534255
0.000540472
0.000546366
0.000551945
0.000557216
0.000562189
0.000566874
0.000571282
0.000575426
0.000579321
0.000582982
0.000586424
0.000589671
0.000592763
0.000595734
0.000598616
0.000601439
0.000604226
0.000607002
0.000609788
0.000612601
0.000615456
0.000618366
0.00062134
0.000624384
0.000627501
0.000630688
0.000633941
0.000637251
0.000640608
0.000643997
0.000647401
0.000650799
0.000654166
0.000657475
0.000660701
0.000663819
0.000666811
0.000669629
0.000672244
0.000674637
0.000676784
0.000678659
0.000680244
0.000681522
0.000682481
0.00068311
0.000683402
0.000683355
0.000682968
0.000682241
0.000681181
0.000679793
0.000678087
0.000676074
0.000673766
0.000671177
0.000668323
0.000665221
0.000661887
0.000658339
0.000654597
0.000650677
0.000646598
0.00064238
0.000638039
0.000633595
0.000629063
0.000624462
0.000619808
0.000615115
0.000610399
0.000605673
0.00060095
0.000596242
0.000591558
0.000586909
0.000582303
0.000577745
0.000573241
0.000568795
0.000564408
0.000560082
0.000555815
0.000551605
0.000547448
0.00054334
0.000539274
0.000535243
0.000531239
0.000527254
0.00052328
0.000519309
0.000515331
0.000511341
0.000507332
0.000503299
0.00049924
0.000495152
0.000491037
0.000486899
0.000482741
0.000478573
0.000474403
0.000470244
0.000466108
0.00046201
0.000457967
0.000453995
0.000450111
0.000446344
0.000442718
0.000439251
0.00043596
0.00043286
0.000429961
0.000427269
0.000424788
0.000422518
0.000420455
0.000418591
0.000416918
0.000415424
0.000414094
0.000412912
0.000411862
0.000410925
0.000410081
0.000409309
0.000408589
0.000407895
0.000407202
0.00040648
0.000405692
0.000404796
0.000403736
0.000402452
0.000400909
0.000399251
4.56591e-06
3.61803e-05
7.0909e-05
9.94007e-05
0.000122511
0.000141727
0.000158275
0.000173073
0.000186786
0.00019988
0.000212663
0.000225326
0.000237977
0.000250668
0.00026341
0.000276195
0.000289
0.000301794
0.000314547
0.000327226
0.0003398
0.000352242
0.000364525
0.000376623
0.000388516
0.000400182
0.000411603
0.000422762
0.000433644
0.000444235
0.000454521
0.000464494
0.000474141
0.000483456
0.000492431
0.00050106
0.000509337
0.000517261
0.000524827
0.000532035
0.000538885
0.000545378
0.000551515
0.000557301
0.00056274
0.000567837
0.000572602
0.000577042
0.000581169
0.000584994
0.000588532
0.0005918
0.000594814
0.000597605
0.000600217
0.00060269
0.000605059
0.000607357
0.000609616
0.000611863
0.000614124
0.000616422
0.000618776
0.000621205
0.00062372
0.000626334
0.000629051
0.000631874
0.000634801
0.000637827
0.000640942
0.000644134
0.000647389
0.000650692
0.000654009
0.000657313
0.00066058
0.000663783
0.000666893
0.000669878
0.000672708
0.000675355
0.000677793
0.000679996
0.000681944
0.000683616
0.000684997
0.000686072
0.000686832
0.000687269
0.00068738
0.000687163
0.00068662
0.000685755
0.000684574
0.000683085
0.0006813
0.000679231
0.00067689
0.000674293
0.000671457
0.000668397
0.000665132
0.000661678
0.000658055
0.000654279
0.000650371
0.000646347
0.000642225
0.000638022
0.000633755
0.000629441
0.000625094
0.000620729
0.00061636
0.000611999
0.000607658
0.000603346
0.000599073
0.000594845
0.000590669
0.00058655
0.000582489
0.000578488
0.000574546