/*--------------------------------*- C++ -*----------------------------------*\
  =========                 |
  \\      /  F ield         | OpenFOAM: The Open Source CFD Toolbox
   \\    /   O peration     | Website:  https://openfoam.org
    \\  /    A nd           | Version:  6
     \\/     M anipulation  |
\*---------------------------------------------------------------------------*/
FoamFile
{
    version     2.0;
    format      ascii;
    class       volScalarField;
    location    "0.23";
    object      p;
}
// * * * * * * * * * * * * * * * * * * * * * * * * * * * * * * * * * * * * * //

dimensions      [0 2 -2 0 0 0 0];

internalField   nonuniform List<scalar> 
12225
(
0.305932
0.0535779
-0.0242743
-0.0344999
-0.0386498
-0.0427909
-0.0448087
-0.0456042
-0.0462047
-0.0467466
-0.0471448
-0.0473989
-0.0475336
-0.0475443
-0.0474305
-0.0471199
-0.0468729
-0.0457861
-0.0759183
-0.0456427
-0.0445929
-0.0378608
-0.0381411
-0.0416756
-0.0439342
-0.0450467
-0.0458479
-0.0464928
-0.0469479
-0.0472384
-0.0473974
-0.0474233
-0.0473199
-0.0470123
-0.0466769
-0.045824
-0.11293
-0.0419075
-0.0399643
-0.0373565
-0.0378407
-0.0409631
-0.0431661
-0.0443911
-0.0452979
-0.0460164
-0.0465295
-0.0468673
-0.0470623
-0.0471144
-0.0470293
-0.0467339
-0.0463646
-0.0453647
-0.0675618
-0.0286759
-0.0364771
-0.0374832
-0.0381365
-0.0407662
-0.0427556
-0.0439609
-0.04489
-0.0456366
-0.0461832
-0.0465552
-0.0467799
-0.0468581
-0.0467935
-0.0465265
-0.0461315
-0.0452302
-0.0471464
-0.0287192
-0.0369369
-0.0381866
-0.0386899
-0.0408608
-0.0426177
-0.0437596
-0.0446676
-0.0454085
-0.0459644
-0.0463541
-0.0465991
-0.0467004
-0.0466594
-0.0464333
-0.0460562
-0.0453383
-0.0447905
-0.0330039
-0.0381071
-0.0388886
-0.0392958
-0.0410851
-0.0426278
-0.0436973
-0.0445677
-0.0452871
-0.0458396
-0.0462384
-0.0464998
-0.046625
-0.0466146
-0.0464421
-0.0461229
-0.0455871
-0.0446565
-0.0359152
-0.038837
-0.0394814
-0.0398968
-0.0413763
-0.0427278
-0.0437238
-0.0445507
-0.0452431
-0.0457872
-0.046192
-0.0464698
-0.0466226
-0.0466517
-0.0465442
-0.04631
-0.0459464
-0.0436686
-0.0375354
-0.0393554
-0.0400199
-0.0404719
-0.0417045
-0.0428902
-0.0438153
-0.0445983
-0.0452629
-0.0457979
-0.0462089
-0.0465053
-0.0466906
-0.0467677
-0.0467344
-0.0466015
-0.0464007
-0.0426817
-0.0386898
-0.0398647
-0.0405252
-0.0410082
-0.0420496
-0.0430953
-0.0439552
-0.0446971
-0.0453366
-0.0458643
-0.0462837
-0.0466024
-0.0468252
-0.0469576
-0.0470047
-0.0469806
-0.0469308
-0.042108
-0.0396353
-0.0403784
-0.0409964
-0.0415011
-0.0423983
-0.0433283
-0.0441302
-0.0448363
-0.0454551
-0.0459791
-0.0464104
-0.0467556
-0.0470208
-0.0472136
-0.0473443
-0.0474294
-0.0475165
-0.0418743
-0.0404004
-0.0408753
-0.0414377
-0.0419538
-0.0427435
-0.0435791
-0.0443307
-0.0450067
-0.0456102
-0.0461349
-0.0465821
-0.0469579
-0.0472694
-0.0475258
-0.04774
-0.0479298
-0.0481389
-0.0418547
-0.0409688
-0.0413101
-0.0418225
-0.042339
-0.0430545
-0.0438195
-0.0445312
-0.0451847
-0.0457789
-0.0463082
-0.0467736
-0.0471807
-0.0475369
-0.0478524
-0.0481407
-0.0484191
-0.0487262
-0.0419515
-0.0414555
-0.041712
-0.0421814
-0.0426947
-0.0433529
-0.0440623
-0.0447424
-0.0453794
-0.0459691
-0.0465069
-0.0469933
-0.0474334
-0.047835
-0.0482081
-0.048566
-0.048925
-0.049316
-0.0421612
-0.0419352
-0.0421437
-0.0425708
-0.0430737
-0.0436825
-0.0443425
-0.0449941
-0.045618
-0.0462077
-0.0467589
-0.0472719
-0.0477512
-0.048204
-0.0486399
-0.0490706
-0.0495105
-0.049982
-0.0424723
-0.0424044
-0.0425961
-0.0429858
-0.0434707
-0.04404
-0.0446595
-0.0452875
-0.0459032
-0.0464982
-0.0470684
-0.0476136
-0.0481371
-0.0486452
-0.0491459
-0.0496487
-0.0501648
-0.0507093
-0.0428502
-0.0428596
-0.0430497
-0.043411
-0.0438758
-0.0444163
-0.0450072
-0.0456194
-0.0462337
-0.0468407
-0.0474356
-0.0480173
-0.0485881
-0.0491522
-0.0497155
-0.0502848
-0.0508676
-0.0514731
-0.0432416
-0.0432822
-0.0434739
-0.0438179
-0.0442676
-0.0447921
-0.0453693
-0.0459774
-0.0465998
-0.0472261
-0.047851
-0.0484722
-0.0490902
-0.049707
-0.0503262
-0.0509516
-0.0515873
-0.0522384
-0.0435737
-0.0436246
-0.0438169
-0.0441552
-0.0446025
-0.0451281
-0.0457106
-0.0463314
-0.0469749
-0.0476303
-0.0482909
-0.0489531
-0.0496157
-0.0502788
-0.0509435
-0.0516112
-0.0522836
-0.0529625
-0.0437453
-0.0437962
-0.0439861
-0.044331
-0.0447964
-0.0453478
-0.0459617
-0.0466193
-0.0473035
-0.0480022
-0.0487073
-0.0494141
-0.0501198
-0.0508229
-0.0515228
-0.0522194
-0.0529127
-0.0536029
-0.0436418
-0.043665
-0.0438368
-0.0442041
-0.0447147
-0.0453201
-0.0459945
-0.0467137
-0.0474559
-0.0482066
-0.048958
-0.049705
-0.0504446
-0.0511752
-0.051896
-0.0526066
-0.0533067
-0.053996
-0.0434475
-0.0433751
-0.0434971
-0.0439012
-0.0444681
-0.0451348
-0.0458809
-0.0466717
-0.047476
-0.048279
-0.0490741
-0.0498572
-0.0506254
-0.0513777
-0.0521139
-0.052834
-0.0535378
-0.0542253
-0.0433225
-0.0429529
-0.0429697
-0.0434512
-0.0440877
-0.0448256
-0.0456642
-0.0465424
-0.0474159
-0.0482739
-0.0491135
-0.0499313
-0.0507257
-0.0514969
-0.0522457
-0.052973
-0.0536791
-0.0543639
-0.0435211
-0.0424417
-0.0422872
-0.0428935
-0.043586
-0.0444064
-0.0453697
-0.0463536
-0.0473024
-0.0482186
-0.0491046
-0.0499575
-0.0507771
-0.051566
-0.0523265
-0.0530604
-0.0537689
-0.054452
-0.0440707
-0.0417121
-0.0415049
-0.0422914
-0.0429629
-0.0438837
-0.0450227
-0.0461335
-0.0471634
-0.0481424
-0.0490777
-0.0499659
-0.0508098
-0.051615
-0.052386
-0.0531257
-0.0538364
-0.0545178
-0.0443436
-0.039774
-0.0403673
-0.0416332
-0.0422035
-0.0432737
-0.0446582
-0.0459176
-0.0470341
-0.0480806
-0.0490672
-0.0499893
-0.0508548
-0.0516736
-0.0524524
-0.0531957
-0.0539068
-0.0545855
-0.0460898
-0.0353654
-0.0381069
-0.0406308
-0.041237
-0.0426063
-0.0443232
-0.0457516
-0.0469597
-0.0480759
-0.0491109
-0.0500611
-0.0509415
-0.0517677
-0.0525491
-0.0532913
-0.0539994
-0.0546733
-0.0631119
-0.0333399
-0.0358646
-0.0392349
-0.0400559
-0.041975
-0.0441083
-0.0457178
-0.0470174
-0.0481949
-0.0492635
-0.0502255
-0.0511061
-0.0519272
-0.0527006
-0.0534334
-0.0541318
-0.0547961
-0.107246
-0.0466331
-0.0399027
-0.0390517
-0.0392273
-0.0417475
-0.0442695
-0.0460069
-0.0473558
-0.0485537
-0.049616
-0.0505549
-0.0514073
-0.0522008
-0.0529482
-0.0536569
-0.0543342
-0.054982
-0.0868755
-0.0564705
-0.0498032
-0.0412889
-0.0396913
-0.0425095
-0.0451426
-0.046784
-0.048033
-0.0491566
-0.0501516
-0.0510262
-0.0518218
-0.0525677
-0.0532751
-0.0539483
-0.0545936
-0.0552258
0.27744
0.0577046
-0.0194347
-0.0325884
-0.0379563
-0.043141
-0.0461852
-0.0476227
-0.0486187
-0.0495652
-0.0504441
-0.0512384
-0.0519768
-0.0526813
-0.053357
-0.0540024
-0.0546125
-0.0551673
-0.0744167
-0.0745305
-0.0749232
-0.0754084
-0.0757961
-0.0761138
-0.0764522
-0.0768642
-0.0773782
-0.0780151
-0.0787942
-0.0797387
-0.0808735
-0.0822214
-0.0837992
-0.0856159
-0.0876699
-0.0899492
-0.0924314
-0.0950858
-0.0978753
-0.10076
-0.103698
-0.106652
-0.109583
-0.112461
-0.115259
-0.117954
-0.120529
-0.122972
-0.125271
-0.127421
-0.129415
-0.131251
-0.132926
-0.134436
-0.13578
-0.136955
-0.137958
-0.138785
-0.139432
-0.139894
-0.140165
-0.140239
-0.140107
-0.139763
-0.139199
-0.138405
-0.137374
-0.136102
-0.134587
-0.132819
-0.130767
-0.128395
-0.125693
-0.122661
-0.119295
-0.115591
-0.111541
-0.10714
-0.102383
-0.0972682
-0.0917958
-0.0859683
-0.0797909
-0.0732717
-0.0664224
-0.0592574
-0.0517946
-0.0440551
-0.036063
-0.0278455
-0.0194323
-0.0108557
-0.0021499
0.00664938
0.0155052
0.02438
0.0332362
0.0420365
0.0507446
0.0593256
0.0677463
0.0759759
0.0839861
0.0917513
0.0992489
0.10646
0.113367
0.119958
0.126222
0.132152
0.137744
0.142998
0.147926
0.152537
0.156829
0.160804
0.164471
0.16784
0.170924
0.173735
0.176287
0.178593
0.180667
0.182522
0.184173
0.185633
0.186915
0.188032
0.188995
0.189817
0.190508
0.19108
0.191541
0.191902
0.19217
0.192354
0.192462
0.192499
0.192473
0.192389
0.192252
0.192067
0.191839
0.191571
0.191268
0.190932
0.190567
0.190176
0.189762
0.189328
0.188876
0.188409
0.18793
0.187441
0.186946
0.186447
0.185947
0.185448
0.184952
0.184464
0.183985
0.183519
0.183068
0.182638
0.182214
0.181792
0.181383
0.180993
0.180621
0.180269
0.179936
0.179621
0.179324
0.179045
0.178784
0.17854
0.178312
0.178101
0.177906
0.177726
0.177563
0.177417
0.177288
0.177178
0.177089
0.177024
0.176988
0.176987
0.17703
0.177131
0.177309
0.177593
0.178031
0.178694
0.179722
0.181312
0.184043
0.187896
-0.0744719
-0.0749817
-0.0754799
-0.0758019
-0.0758763
-0.0757679
-0.0756622
-0.0757133
-0.0759686
-0.0764124
-0.0770449
-0.0778929
-0.0789866
-0.080351
-0.0820013
-0.0839392
-0.0861524
-0.0886146
-0.0912889
-0.0941304
-0.0970909
-0.100122
-0.103178
-0.106219
-0.10921
-0.112123
-0.114935
-0.117629
-0.120193
-0.122619
-0.124901
-0.127034
-0.129016
-0.130845
-0.132521
-0.134041
-0.135403
-0.136606
-0.137647
-0.138521
-0.139225
-0.139754
-0.140101
-0.140259
-0.140221
-0.139978
-0.13952
-0.138836
-0.137914
-0.13674
-0.135296
-0.133566
-0.131548
-0.129252
-0.126669
-0.123782
-0.120574
-0.117036
-0.11316
-0.108937
-0.104364
-0.0994371
-0.0941551
-0.0885199
-0.0825356
-0.0762093
-0.0695514
-0.062575
-0.0552968
-0.0477364
-0.0399166
-0.0318631
-0.0236043
-0.0151713
-0.00659689
0.00208415
0.0108359
0.0196217
0.0284046
0.0371478
0.0458153
0.0543723
0.0627858
0.0710245
0.0790598
0.0868657
0.0944191
0.1017
0.108691
0.11538
0.121755
0.12781
0.13354
0.13894
0.143999
0.148716
0.153107
0.157186
0.16096
0.164441
0.167639
0.170566
0.173234
0.175656
0.177845
0.179815
0.181579
0.183149
0.184538
0.185759
0.186824
0.187744
0.18853
0.189192
0.189741
0.190186
0.190535
0.190796
0.190978
0.191086
0.191128
0.191109
0.191035
0.19091
0.19074
0.190528
0.190279
0.189996
0.189682
0.189341
0.188976
0.18859
0.188185
0.187764
0.18733
0.186886
0.186434
0.185978
0.185519
0.185061
0.184605
0.184155
0.183713
0.183282
0.182863
0.182449
0.182045
0.181655
0.181278
0.180913
0.180564
0.180231
0.179914
0.179613
0.179328
0.179058
0.178805
0.178567
0.178344
0.178135
0.177942
0.177764
0.177601
0.177454
0.177323
0.177212
0.177121
0.177053
0.177014
0.17701
0.17705
0.177146
0.177317
0.177592
0.178011
0.17864
0.179597
0.181023
0.183385
0.186578
-0.0725344
-0.0734705
-0.0742486
-0.0746297
-0.0747443
-0.0747636
-0.074821
-0.0750108
-0.0753886
-0.0759874
-0.0768336
-0.0779483
-0.0793426
-0.0810154
-0.082954
-0.0851347
-0.0875265
-0.0900927
-0.0927944
-0.0955925
-0.0984498
-0.101332
-0.104208
-0.107052
-0.109842
-0.112558
-0.115186
-0.117713
-0.120129
-0.122428
-0.124604
-0.126651
-0.128566
-0.130345
-0.131986
-0.133487
-0.134842
-0.13605
-0.137107
-0.138007
-0.138747
-0.13932
-0.139719
-0.139939
-0.139971
-0.139806
-0.139436
-0.13885
-0.138038
-0.136988
-0.135685
-0.134114
-0.132266
-0.130136
-0.127717
-0.124996
-0.121964
-0.118608
-0.11492
-0.110893
-0.106521
-0.1018
-0.0967276
-0.0913049
-0.085535
-0.0794239
-0.0729806
-0.0662171
-0.0591485
-0.0517932
-0.0441726
-0.0363109
-0.0282352
-0.0199752
-0.0115625
-0.00303062
0.00558559
0.0142504
0.0229275
0.031581
0.0401752
0.0486757
0.0570495
0.0652653
0.0732943
0.0811102
0.0886892
0.0960109
0.103058
0.109815
0.116272
0.122421
0.128255
0.133769
0.138958
0.143826
0.148379
0.152623
0.156564
0.160211
0.163574
0.166665
0.169494
0.172075
0.17442
0.176541
0.178451
0.180164
0.181691
0.183044
0.184237
0.185279
0.186183
0.186958
0.187615
0.188163
0.18861
0.188966
0.189237
0.189431
0.189555
0.189614
0.189615
0.189563
0.189462
0.189317
0.189132
0.188912
0.188659
0.188377
0.18807
0.187739
0.187389
0.187022
0.186642
0.186249
0.185848
0.185441
0.185031
0.184619
0.184209
0.183803
0.183403
0.183011
0.182627
0.182249
0.18188
0.181521
0.181171
0.180833
0.180507
0.180194
0.179894
0.179609
0.179337
0.179078
0.178833
0.178602
0.178384
0.17818
0.177989
0.177812
0.177649
0.177501
0.17737
0.177256
0.177162
0.177092
0.17705
0.177042
0.177077
0.177167
0.177331
0.177594
0.177993
0.178583
0.179461
0.180713
0.182635
0.18485
-0.0695506
-0.0709473
-0.0723217
-0.0731416
-0.0736232
-0.0740191
-0.0744674
-0.0750476
-0.0758101
-0.0767859
-0.0779926
-0.0794361
-0.0811117
-0.0830056
-0.0850967
-0.0873594
-0.0897655
-0.092286
-0.0948921
-0.0975563
-0.100253
-0.102958
-0.10565
-0.10831
-0.110921
-0.113469
-0.115941
-0.118327
-0.120619
-0.122809
-0.124891
-0.12686
-0.128713
-0.130444
-0.132051
-0.133529
-0.134875
-0.136084
-0.137152
-0.138075
-0.138846
-0.139458
-0.139907
-0.140182
-0.140277
-0.140182
-0.139888
-0.139384
-0.13866
-0.137703
-0.136503
-0.135048
-0.133327
-0.131332
-0.12905
-0.126472
-0.123586
-0.12038
-0.116847
-0.112977
-0.108763
-0.104202
-0.0992909
-0.0940288
-0.0884181
-0.0824641
-0.0761748
-0.0695612
-0.0626375
-0.0554213
-0.0479331
-0.0401964
-0.0322375
-0.0240853
-0.0157711
-0.00732764
0.00121048
0.00980791
0.0184287
0.027037
0.0355972
0.044075
0.0524371
0.0606523
0.0686915
0.0765278
0.0841373
0.091499
0.0985946
0.105409
0.11193
0.118148
0.124058
0.129655
0.134939
0.139911
0.144572
0.148927
0.152982
0.156744
0.160224
0.163431
0.166377
0.169072
0.171531
0.173764
0.175784
0.177604
0.179237
0.180693
0.181984
0.183123
0.18412
0.184985
0.185729
0.18636
0.186888
0.187321
0.187667
0.187933
0.188126
0.188252
0.188317
0.188326
0.188285
0.188199
0.18807
0.187904
0.187705
0.187475
0.187218
0.186937
0.186636
0.186317
0.185983
0.185637
0.185281
0.184918
0.18455
0.184181
0.183811
0.183444
0.183081
0.182723
0.182372
0.182025
0.181686
0.181356
0.181034
0.180721
0.18042
0.180128
0.179848
0.17958
0.179323
0.179077
0.178843
0.178621
0.17841
0.178211
0.178024
0.177849
0.177688
0.17754
0.177408
0.177292
0.177196
0.177123
0.177076
0.177062
0.17709
0.17717
0.177319
0.177561
0.177926
0.178458
0.179227
0.180273
0.181743
0.183183
-0.0672307
-0.0690133
-0.0709304
-0.0722252
-0.0731228
-0.0739148
-0.0747499
-0.0757066
-0.0768304
-0.0781435
-0.0796516
-0.0813496
-0.0832253
-0.0852615
-0.0874382
-0.0897334
-0.0921249
-0.0945903
-0.0971082
-0.0996584
-0.102222
-0.104781
-0.107321
-0.109827
-0.112285
-0.114687
-0.117021
-0.119279
-0.121454
-0.123541
-0.125532
-0.127424
-0.129212
-0.130892
-0.13246
-0.13391
-0.13524
-0.136445
-0.137518
-0.138455
-0.13925
-0.139896
-0.140385
-0.14071
-0.140863
-0.140832
-0.14061
-0.140185
-0.139546
-0.138682
-0.13758
-0.13623
-0.13462
-0.132739
-0.130575
-0.128116
-0.125351
-0.122269
-0.118859
-0.115112
-0.111023
-0.106584
-0.101792
-0.0966466
-0.0911491
-0.0853036
-0.0791176
-0.0726014
-0.0657689
-0.0586368
-0.0512255
-0.0435581
-0.0356608
-0.0275623
-0.0192938
-0.0108882
-0.00238008
0.00619499
0.0148009
0.0234015
0.0319612
0.040445
0.0488198
0.0570538
0.0651176
0.0729843
0.0806295
0.0880319
0.0951727
0.102036
0.10861
0.114885
0.120854
0.126513
0.131862
0.1369
0.14163
0.146056
0.150184
0.154022
0.157579
0.160864
0.163889
0.166664
0.169202
0.171514
0.173613
0.175511
0.177219
0.178751
0.180117
0.181328
0.182396
0.18333
0.184141
0.184837
0.185429
0.185923
0.186329
0.186652
0.186901
0.187081
0.187199
0.18726
0.187269
0.18723
0.187149
0.187029
0.186874
0.186688
0.186473
0.186235
0.185975
0.185696
0.185401
0.185093
0.184775
0.184449
0.184118
0.183783
0.183447
0.183113
0.182781
0.182453
0.182129
0.18181
0.181497
0.181191
0.180893
0.180604
0.180323
0.180051
0.179788
0.179536
0.179292
0.179059
0.178835
0.178622
0.178418
0.178225
0.178042
0.177871
0.177711
0.177564
0.177432
0.177315
0.177216
0.177138
0.177086
0.177064
0.177082
0.177148
0.177278
0.17749
0.17781
0.178269
0.178912
0.179743
0.180817
0.181689
-0.066479
-0.0684697
-0.0706802
-0.072301
-0.0735273
-0.0746437
-0.075792
-0.0770428
-0.0784354
-0.0799863
-0.0816962
-0.0835555
-0.0855498
-0.0876615
-0.0898722
-0.0921634
-0.094517
-0.0969159
-0.0993438
-0.101786
-0.104228
-0.106657
-0.109063
-0.111434
-0.113761
-0.116036
-0.11825
-0.120398
-0.122472
-0.124469
-0.126382
-0.128206
-0.129938
-0.131574
-0.133107
-0.134535
-0.135853
-0.137054
-0.138135
-0.139088
-0.139908
-0.140587
-0.141117
-0.141491
-0.141699
-0.141731
-0.141577
-0.141227
-0.140669
-0.139891
-0.138881
-0.137627
-0.136116
-0.134336
-0.132275
-0.129921
-0.12726
-0.124282
-0.120975
-0.117331
-0.11334
-0.108997
-0.104298
-0.0992396
-0.0938238
-0.088054
-0.081937
-0.0754829
-0.0687052
-0.0616206
-0.0542491
-0.0466141
-0.0387419
-0.0306615
-0.0224043
-0.0140038
-0.00549497
0.00308623
0.0117032
0.0203193
0.0288983
0.0374052
0.0458062
0.0540693
0.0621649
0.0700658
0.0777473
0.085188
0.0923688
0.099274
0.105891
0.112211
0.118227
0.123935
0.129332
0.13442
0.139201
0.143681
0.147864
0.151758
0.155372
0.158716
0.1618
0.164635
0.167234
0.169607
0.171766
0.173725
0.175494
0.177085
0.17851
0.179779
0.180904
0.181895
0.18276
0.183511
0.184155
0.184701
0.185156
0.185529
0.185825
0.186052
0.186215
0.18632
0.186371
0.186375
0.186334
0.186254
0.186138
0.18599
0.185813
0.185611
0.185386
0.185142
0.184882
0.184607
0.184322
0.184028
0.183727
0.183422
0.183116
0.182809
0.182503
0.182201
0.181901
0.181606
0.181316
0.181032
0.180754
0.180484
0.180221
0.179966
0.17972
0.179481
0.17925
0.179028
0.178815
0.178609
0.178413
0.178225
0.178047
0.177879
0.177721
0.177576
0.177443
0.177324
0.177222
0.17714
0.177081
0.177051
0.177056
0.177105
0.177211
0.177387
0.177654
0.178031
0.178542
0.179167
0.179907
0.180352
-0.0673776
-0.0693592
-0.0716121
-0.0733749
-0.0747932
-0.0761144
-0.0774622
-0.0788961
-0.0804482
-0.0821311
-0.0839434
-0.0858749
-0.0879112
-0.0900362
-0.0922335
-0.0944874
-0.096783
-0.0991065
-0.101445
-0.103788
-0.106123
-0.108442
-0.110735
-0.112995
-0.115213
-0.117384
-0.119501
-0.121559
-0.123552
-0.125476
-0.127326
-0.129097
-0.130785
-0.132387
-0.133897
-0.13531
-0.136623
-0.137828
-0.138921
-0.139895
-0.140744
-0.141459
-0.142033
-0.142457
-0.142722
-0.142816
-0.142731
-0.142454
-0.141974
-0.141278
-0.140354
-0.139189
-0.137769
-0.136082
-0.134115
-0.131853
-0.129285
-0.126398
-0.12318
-0.119621
-0.115712
-0.111446
-0.106817
-0.101824
-0.0964668
-0.0907482
-0.084675
-0.0782568
-0.0715072
-0.0644428
-0.057084
-0.0494543
-0.0415806
-0.0334924
-0.0252218
-0.0168029
-0.00827128
0.000336232
0.00898243
0.01763
0.0262422
0.0347835
0.0432197
0.0515185
0.0596499
0.0675867
0.0753039
0.0827798
0.0899958
0.0969369
0.103591
0.109947
0.116
0.121745
0.127181
0.132308
0.13713
0.14165
0.145876
0.149813
0.153472
0.156862
0.159993
0.162875
0.165522
0.167943
0.170152
0.17216
0.173978
0.175618
0.177092
0.178409
0.179582
0.18062
0.181532
0.182329
0.183018
0.183608
0.184107
0.184522
0.184861
0.185128
0.185331
0.185475
0.185564
0.185605
0.185601
0.185556
0.185475
0.185361
0.185217
0.185048
0.184855
0.184642
0.184411
0.184166
0.183909
0.183643
0.183369
0.183091
0.182809
0.182527
0.182244
0.181964
0.181686
0.181411
0.181141
0.180876
0.180617
0.180363
0.180117
0.179877
0.179644
0.179418
0.1792
0.178988
0.178783
0.178586
0.178397
0.178215
0.178041
0.177876
0.177721
0.177576
0.177443
0.177322
0.177217
0.17713
0.177064
0.177023
0.177014
0.177043
0.177121
0.177258
0.177466
0.177757
0.178138
0.178573
0.179033
0.179149
-0.0694882
-0.0713134
-0.0734285
-0.0751774
-0.0766553
-0.0780613
-0.0794966
-0.0810088
-0.0826232
-0.0843492
-0.0861846
-0.08812
-0.0901421
-0.0922363
-0.0943882
-0.0965839
-0.0988106
-0.101057
-0.103311
-0.105565
-0.107808
-0.110034
-0.112235
-0.114405
-0.116537
-0.118626
-0.120667
-0.122656
-0.124587
-0.126456
-0.12826
-0.129993
-0.131653
-0.133234
-0.134732
-0.136143
-0.13746
-0.138679
-0.139793
-0.140795
-0.141679
-0.142436
-0.143058
-0.143536
-0.14386
-0.14402
-0.144003
-0.1438
-0.143397
-0.142781
-0.14194
-0.14086
-0.139526
-0.137925
-0.136044
-0.133868
-0.131383
-0.128576
-0.125435
-0.121949
-0.118108
-0.113903
-0.10933
-0.104385
-0.0990683
-0.0933821
-0.0873331
-0.0809309
-0.0741888
-0.0671241
-0.0597574
-0.0521129
-0.0442178
-0.0361027
-0.0278003
-0.0193458
-0.0107756
-0.00212737
0.00656096
0.0152513
0.0239061
0.0324894
0.0409665
0.0493048
0.057474
0.0654465
0.0731978
0.0807067
0.0879549
0.0949271
0.101611
0.107997
0.11408
0.119854
0.12532
0.130478
0.13533
0.139883
0.144141
0.148112
0.151806
0.155231
0.158399
0.16132
0.164005
0.166466
0.168714
0.170762
0.172621
0.174303
0.175818
0.177177
0.17839
0.179469
0.180422
0.181259
0.181987
0.182617
0.183154
0.183607
0.183983
0.184287
0.184525
0.184704
0.184828
0.184903
0.184932
0.184919
0.18487
0.184786
0.184673
0.184533
0.184368
0.184183
0.18398
0.183761
0.18353
0.183288
0.183039
0.182783
0.182524
0.182263
0.182001
0.18174
0.181481
0.181225
0.180972
0.180724
0.18048
0.180242
0.18001
0.179784
0.179564
0.17935
0.179142
0.17894
0.178744
0.178554
0.178371
0.178195
0.178026
0.177865
0.177711
0.177567
0.177434
0.177312
0.177203
0.17711
0.177035
0.176983
0.176958
0.176966
0.177013
0.177107
0.177255
0.17746
0.177716
0.17798
0.178205
0.178068
-0.0722667
-0.073855
-0.0757253
-0.0773506
-0.0787863
-0.080183
-0.0816188
-0.0831302
-0.0847358
-0.0864423
-0.0882468
-0.0901408
-0.0921123
-0.0941481
-0.0962352
-0.0983611
-0.100514
-0.102684
-0.10486
-0.107035
-0.109201
-0.111351
-0.113478
-0.115577
-0.117643
-0.119672
-0.121657
-0.123597
-0.125485
-0.127319
-0.129095
-0.130808
-0.132455
-0.134031
-0.135531
-0.136951
-0.138285
-0.139528
-0.140672
-0.141711
-0.142638
-0.143444
-0.14412
-0.144657
-0.145044
-0.145271
-0.145326
-0.145197
-0.144871
-0.144334
-0.143574
-0.142575
-0.141323
-0.139805
-0.138004
-0.135906
-0.133497
-0.130763
-0.12769
-0.124266
-0.120481
-0.116326
-0.111796
-0.106885
-0.101595
-0.0959263
-0.0898864
-0.0834848
-0.076735
-0.0696548
-0.0622651
-0.0545911
-0.0466608
-0.0385054
-0.0301589
-0.0216575
-0.0130385
-0.0043406
0.00439742
0.0131366
0.0218387
0.0304671
0.0389865
0.0473642
0.0555702
0.063577
0.0713603
0.0788988
0.0861745
0.0931724
0.0998806
0.10629
0.112395
0.118192
0.123681
0.128861
0.133737
0.138313
0.142596
0.146593
0.150314
0.153768
0.156965
0.159916
0.162633
0.165127
0.167409
0.169491
0.171385
0.173102
0.174653
0.176048
0.177298
0.178412
0.179401
0.180274
0.181038
0.181703
0.182275
0.182763
0.183172
0.183509
0.183781
0.183992
0.184148
0.184254
0.184313
0.18433
0.18431
0.184255
0.184169
0.184056
0.183918
0.183758
0.18358
0.183385
0.183177
0.182958
0.18273
0.182495
0.182256
0.182014
0.18177
0.181527
0.181285
0.181045
0.180808
0.180574
0.180345
0.180121
0.179902
0.179688
0.179479
0.179276
0.179078
0.178885
0.178697
0.178515
0.178339
0.178168
0.178003
0.177845
0.177694
0.177551
0.177416
0.177292
0.17718
0.177081
0.176998
0.176933
0.176891
0.176875
0.17689
0.17694
0.177028
0.177148
0.177288
0.177399
0.177428
0.177095
-0.0752293
-0.0765445
-0.0781161
-0.0795501
-0.0808748
-0.0821975
-0.0835746
-0.0850324
-0.0865835
-0.0882315
-0.089973
-0.0917998
-0.093701
-0.0956646
-0.0976786
-0.0997313
-0.101812
-0.103911
-0.106018
-0.108127
-0.110229
-0.112319
-0.114391
-0.116439
-0.118459
-0.120447
-0.122398
-0.124308
-0.126174
-0.127992
-0.129758
-0.131468
-0.133118
-0.134704
-0.136221
-0.137664
-0.139028
-0.140305
-0.14149
-0.142575
-0.143553
-0.144414
-0.14515
-0.145751
-0.146205
-0.146503
-0.146631
-0.146577
-0.146328
-0.14587
-0.145188
-0.144268
-0.143095
-0.141654
-0.139929
-0.137904
-0.135564
-0.132894
-0.12988
-0.126509
-0.122771
-0.118655
-0.114156
-0.109269
-0.103993
-0.0983307
-0.0922883
-0.0858757
-0.079107
-0.0720002
-0.0645773
-0.0568641
-0.0488896
-0.0406861
-0.0322887
-0.0237345
-0.0150622
-0.0063112
0.00247815
0.0112663
0.0200149
0.0286866
0.0372461
0.0456606
0.0538998
0.0619364
0.0697463
0.0773085
0.0846053
0.0916222
0.0983479
0.104774
0.110894
0.116707
0.12221
0.127406
0.132298
0.136892
0.141193
0.14521
0.148952
0.152428
0.155649
0.158626
0.161369
0.16389
0.166201
0.168313
0.170238
0.171986
0.173568
0.174996
0.176278
0.177426
0.178448
0.179353
0.180151
0.180848
0.181453
0.181972
0.182413
0.182782
0.183084
0.183326
0.183511
0.183646
0.183734
0.18378
0.183786
0.183758
0.183698
0.18361
0.183497
0.183361
0.183205
0.183033
0.182846
0.182647
0.182439
0.182223
0.182002
0.181777
0.18155
0.181323
0.181096
0.18087
0.180647
0.180428
0.180212
0.18
0.179792
0.17959
0.179392
0.179198
0.179009
0.178825
0.178645
0.17847
0.178299
0.178134
0.177973
0.177818
0.177669
0.177527
0.177392
0.177266
0.17715
0.177044
0.176952
0.176874
0.176814
0.176774
0.176757
0.176763
0.17679
0.17683
0.176864
0.17684
0.176706
0.176219
-0.077983
-0.0790172
-0.0802726
-0.0814805
-0.082654
-0.0838635
-0.0851468
-0.0865206
-0.0879922
-0.0895621
-0.0912259
-0.0929754
-0.0948004
-0.0966898
-0.0986321
-0.100616
-0.102632
-0.10467
-0.106722
-0.108779
-0.110835
-0.112883
-0.114918
-0.116934
-0.118928
-0.120895
-0.122831
-0.124733
-0.126595
-0.128416
-0.13019
-0.131915
-0.133585
-0.135197
-0.136745
-0.138224
-0.139628
-0.140952
-0.142187
-0.143327
-0.144363
-0.145286
-0.146087
-0.146755
-0.14728
-0.14765
-0.147852
-0.147873
-0.1477
-0.147318
-0.146713
-0.145869
-0.14477
-0.143402
-0.141746
-0.139787
-0.137508
-0.134895
-0.131931
-0.128605
-0.124903
-0.120817
-0.11634
-0.111466
-0.106195
-0.100529
-0.0944748
-0.0880427
-0.0812471
-0.0741068
-0.0666446
-0.058887
-0.0508644
-0.0426104
-0.0341613
-0.0255549
-0.0168308
-0.00802966
0.000807639
0.00964087
0.018431
0.0271405
0.0357337
0.0441777
0.0524424
0.0605007
0.0683288
0.0759062
0.0832157
0.0902432
0.096978
0.103412
0.10954
0.11536
0.120872
0.126077
0.130979
0.135583
0.139897
0.143928
0.147686
0.15118
0.15442
0.157417
0.160183
0.162728
0.165065
0.167203
0.169155
0.170932
0.172543
0.174001
0.175313
0.176492
0.177545
0.178481
0.179309
0.180037
0.180673
0.181223
0.181694
0.182092
0.182424
0.182695
0.182909
0.183071
0.183186
0.183258
0.183291
0.183288
0.183253
0.183189
0.183098
0.182985
0.182851
0.182699
0.182532
0.182352
0.182162
0.181964
0.181759
0.18155
0.181339
0.181126
0.180913
0.180701
0.180491
0.180283
0.180079
0.179879
0.179682
0.179489
0.179301
0.179117
0.178936
0.17876
0.178588
0.178419
0.178254
0.178094
0.177937
0.177786
0.177639
0.177498
0.177362
0.177234
0.177113
0.177001
0.176899
0.176809
0.176731
0.176666
0.176616
0.176578
0.176547
0.176512
0.176449
0.176307
0.176037
0.175429
-0.0802247
-0.0809896
-0.0819359
-0.0829077
-0.083912
-0.0849902
-0.0861637
-0.0874409
-0.0888241
-0.0903111
-0.091896
-0.0935705
-0.0953244
-0.097147
-0.0990274
-0.100955
-0.10292
-0.104912
-0.106924
-0.108947
-0.110974
-0.113
-0.115018
-0.117023
-0.119012
-0.120979
-0.12292
-0.124832
-0.12671
-0.128552
-0.130353
-0.132108
-0.133814
-0.135465
-0.137057
-0.138585
-0.140041
-0.141419
-0.142713
-0.143914
-0.145014
-0.146004
-0.146873
-0.147612
-0.148208
-0.14865
-0.148925
-0.14902
-0.14892
-0.148611
-0.148078
-0.147304
-0.146274
-0.144971
-0.143378
-0.141476
-0.139251
-0.136684
-0.133762
-0.130469
-0.126795
-0.122729
-0.118263
-0.113393
-0.108118
-0.102441
-0.0963692
-0.0899124
-0.083086
-0.0759096
-0.0684068
-0.0606054
-0.0525364
-0.0442348
-0.0357376
-0.027084
-0.0183145
-0.00947056
-0.00059369
0.00827526
0.0170968
0.0258332
0.0344488
0.0429108
0.0511894
0.0592579
0.0670929
0.0746744
0.0819858
0.0890137
0.0957478
0.102181
0.108308
0.114128
0.119639
0.124846
0.129751
0.134361
0.138682
0.142722
0.146491
0.149998
0.153253
0.156268
0.159053
0.161619
0.163978
0.166141
0.168118
0.169921
0.17156
0.173046
0.174387
0.175595
0.176677
0.177643
0.178501
0.179259
0.179925
0.180504
0.181004
0.181432
0.181792
0.18209
0.182332
0.182521
0.182663
0.18276
0.182818
0.18284
0.182828
0.182787
0.182718
0.182626
0.182512
0.18238
0.182232
0.18207
0.181897
0.181715
0.181526
0.181332
0.181134
0.180935
0.180734
0.180535
0.180337
0.18014
0.179947
0.179757
0.179571
0.179388
0.179208
0.179033
0.17886
0.178692
0.178526
0.178364
0.178205
0.178049
0.177897
0.177748
0.177604
0.177463
0.177327
0.177197
0.177072
0.176953
0.176842
0.176738
0.176641
0.176553
0.17647
0.17639
0.176305
0.176199
0.176049
0.175805
0.175421
0.174717
-0.0817279
-0.0822581
-0.0829197
-0.0836625
-0.0844961
-0.0854399
-0.0865016
-0.0876826
-0.0889808
-0.0903911
-0.0919061
-0.0935167
-0.0952127
-0.0969835
-0.0988183
-0.100707
-0.102638
-0.104605
-0.106596
-0.108606
-0.110625
-0.112649
-0.114672
-0.116687
-0.11869
-0.120677
-0.122643
-0.124585
-0.126497
-0.128377
-0.130219
-0.13202
-0.133775
-0.135479
-0.137126
-0.138711
-0.140228
-0.141669
-0.143027
-0.144293
-0.14546
-0.146518
-0.147456
-0.148264
-0.148931
-0.149442
-0.149787
-0.14995
-0.149918
-0.149676
-0.149207
-0.148497
-0.147528
-0.146282
-0.144741
-0.142887
-0.140704
-0.138174
-0.135281
-0.132013
-0.128355
-0.124299
-0.119836
-0.114963
-0.109679
-0.103985
-0.097891
-0.0914068
-0.0845487
-0.0773369
-0.0697961
-0.0619549
-0.0538458
-0.0455042
-0.0369683
-0.0282783
-0.0194755
-0.010602
-0.00169979
0.00719
0.0160276
0.0247753
0.0333977
0.0418623
0.0501396
0.0582034
0.066031
0.073603
0.0809034
0.0879195
0.0946417
0.101063
0.10718
0.11299
0.118494
0.123694
0.128596
0.133205
0.137528
0.141572
0.145348
0.148864
0.152132
0.155161
0.157963
0.160548
0.162927
0.165112
0.167113
0.168941
0.170607
0.172119
0.173489
0.174725
0.175836
0.176831
0.177718
0.178505
0.179199
0.179808
0.180337
0.180792
0.18118
0.181506
0.181775
0.18199
0.182158
0.182281
0.182363
0.182408
0.182419
0.1824
0.182353
0.182281
0.182187
0.182073
0.181943
0.181798
0.181641
0.181475
0.1813
0.18112
0.180935
0.180748
0.18056
0.180372
0.180185
0.179999
0.179816
0.179636
0.179458
0.179284
0.179114
0.178946
0.178782
0.17862
0.178461
0.178305
0.178151
0.178001
0.177852
0.177707
0.177564
0.177424
0.177288
0.177155
0.177026
0.176901
0.17678
0.176663
0.176549
0.176436
0.176323
0.176202
0.176066
0.175896
0.175668
0.175335
0.174855
0.174073
-0.0823212
-0.0826909
-0.0831055
-0.0836393
-0.0843125
-0.0851296
-0.0860878
-0.0871826
-0.0884079
-0.0897558
-0.0912173
-0.0927823
-0.09444
-0.0961795
-0.09799
-0.0998609
-0.101782
-0.103744
-0.105738
-0.107756
-0.10979
-0.111834
-0.113882
-0.115927
-0.117965
-0.119991
-0.122001
-0.123989
-0.125951
-0.127884
-0.129782
-0.131641
-0.133455
-0.135221
-0.136931
-0.13858
-0.140161
-0.141668
-0.143092
-0.144425
-0.145658
-0.146782
-0.147786
-0.148659
-0.149389
-0.149964
-0.150371
-0.150596
-0.150623
-0.150439
-0.150026
-0.149369
-0.148449
-0.147248
-0.145747
-0.143929
-0.141775
-0.139269
-0.136394
-0.133138
-0.129487
-0.125432
-0.120964
-0.116081
-0.110781
-0.105069
-0.0989514
-0.0924409
-0.0855543
-0.0783126
-0.0707414
-0.0628703
-0.0547325
-0.0463645
-0.0378051
-0.0290954
-0.0202772
-0.0113929
-0.00248483
0.00640581
0.0152394
0.0239784
0.0325878
0.0410356
0.0492929
0.0573343
0.0651377
0.0726844
0.0799591
0.0869497
0.0936473
0.100045
0.106141
0.111932
0.11742
0.122607
0.127499
0.132101
0.13642
0.140464
0.144243
0.147765