/*--------------------------------*- C++ -*----------------------------------*\
  =========                 |
  \\      /  F ield         | OpenFOAM: The Open Source CFD Toolbox
   \\    /   O peration     | Website:  https://openfoam.org
    \\  /    A nd           | Version:  6
     \\/     M anipulation  |
\*---------------------------------------------------------------------------*/
FoamFile
{
    version     2.0;
    format      ascii;
    class       surfaceScalarField;
    location    "0.23";
    object      phi;
}
// * * * * * * * * * * * * * * * * * * * * * * * * * * * * * * * * * * * * * //

dimensions      [0 3 -1 0 0 0 0];

internalField   nonuniform List<scalar> 
24170
(
3.2567e-07
-6.82899e-09
3.19409e-07
6.26048e-09
3.15793e-07
3.61602e-09
3.08691e-07
7.10254e-09
3.01705e-07
6.98538e-09
2.96674e-07
5.03165e-09
2.93321e-07
3.35212e-09
2.90936e-07
2.38542e-09
2.89071e-07
1.86508e-09
2.87523e-07
1.54818e-09
2.86186e-07
1.33656e-09
2.84993e-07
1.19325e-09
2.83897e-07
1.09604e-09
2.82863e-07
1.03432e-09
2.8187e-07
9.92626e-10
2.80864e-07
1.00634e-09
2.80001e-07
8.62317e-10
1.06125e-09
2.7894e-07
3.50377e-07
-1.54815e-08
3.47809e-07
8.82912e-09
3.44048e-07
7.37693e-09
3.42177e-07
8.97379e-09
3.39976e-07
9.18615e-09
3.37458e-07
7.54998e-09
3.35079e-07
5.73075e-09
3.33039e-07
4.42531e-09
3.31335e-07
3.56909e-09
3.29898e-07
2.98491e-09
3.2866e-07
2.5749e-09
3.27566e-07
2.28726e-09
3.26576e-07
2.0862e-09
3.25657e-07
1.95334e-09
3.24786e-07
1.86368e-09
3.23928e-07
1.8636e-09
3.23054e-07
1.73697e-09
2.00749e-09
3.22108e-07
3.63433e-07
-1.26625e-08
3.66546e-07
5.71584e-09
3.66684e-07
7.23873e-09
3.66823e-07
8.83545e-09
3.66409e-07
9.59989e-09
3.65366e-07
8.59291e-09
3.64018e-07
7.07851e-09
3.62638e-07
5.80567e-09
3.61352e-07
4.85485e-09
3.6019e-07
4.14682e-09
3.59142e-07
3.62335e-09
3.58186e-07
3.24326e-09
3.573e-07
2.97226e-09
3.56462e-07
2.79071e-09
3.5565e-07
2.67607e-09
3.54854e-07
2.65931e-09
3.53975e-07
2.6161e-09
2.89683e-09
3.53086e-07
3.89234e-07
-9.35754e-09
3.91438e-07
3.51184e-09
3.92346e-07
6.33092e-09
3.92973e-07
8.20778e-09
3.932e-07
9.37338e-09
3.9288e-07
8.91239e-09
3.92172e-07
7.78645e-09
3.91285e-07
6.69277e-09
3.90356e-07
5.7841e-09
3.89448e-07
5.05533e-09
3.88581e-07
4.48961e-09
3.87759e-07
4.06511e-09
3.86974e-07
3.75718e-09
3.86215e-07
3.55014e-09
3.85463e-07
3.42783e-09
3.84711e-07
3.41148e-09
3.83883e-07
3.44442e-09
3.73292e-09
3.83047e-07
4.18265e-07
-6.90984e-09
4.19389e-07
2.38736e-09
4.20246e-07
5.47412e-09
4.20968e-07
7.48589e-09
4.21475e-07
8.86636e-09
4.21566e-07
8.82115e-09
4.21286e-07
8.06649e-09
4.20776e-07
7.20315e-09
4.2015e-07
6.41023e-09
4.19476e-07
5.72967e-09
4.18788e-07
5.17669e-09
4.18105e-07
4.74892e-09
4.17428e-07
4.4342e-09
4.16754e-07
4.22363e-09
4.16073e-07
4.10856e-09
4.15379e-07
4.10553e-09
4.14628e-07
4.19576e-09
4.49931e-09
4.13862e-07
4.4903e-07
-5.03101e-09
4.49579e-07
1.83838e-09
4.50286e-07
4.76743e-09
4.51002e-07
6.76966e-09
4.51637e-07
8.2307e-09
4.51972e-07
8.48673e-09
4.51984e-07
8.05391e-09
4.51762e-07
7.42576e-09
4.5139e-07
6.78249e-09
4.50927e-07
6.19204e-09
4.50413e-07
5.69086e-09
4.4987e-07
5.29236e-09
4.49307e-07
4.9963e-09
4.4873e-07
4.80127e-09
4.48133e-07
4.70561e-09
4.47515e-07
4.72357e-09
4.46855e-07
4.85533e-09
5.16968e-09
4.46185e-07
4.81752e-07
-3.51086e-09
4.82025e-07
1.56493e-09
4.82591e-07
4.20187e-09
4.83258e-07
6.10266e-09
4.83936e-07
7.55263e-09
4.84409e-07
8.01367e-09
4.8462e-07
7.84271e-09
4.84615e-07
7.43097e-09
4.84451e-07
6.9461e-09
4.84176e-07
6.46724e-09
4.83824e-07
6.04266e-09
4.8342e-07
5.69678e-09
4.82977e-07
5.43896e-09
4.82504e-07
5.27444e-09
4.82003e-07
5.20712e-09
4.81476e-07
5.2498e-09
4.80921e-07
5.41032e-09
5.72558e-09
4.80365e-07
5.16743e-07
-2.29556e-09
5.16865e-07
1.44316e-09
5.17306e-07
3.7602e-09
5.17902e-07
5.50654e-09
5.18571e-07
6.88384e-09
5.19114e-07
7.4703e-09
5.19457e-07
7.50048e-09
5.19613e-07
7.27493e-09
5.19617e-07
6.9416e-09
5.19504e-07
6.58091e-09
5.193e-07
6.2458e-09
5.1903e-07
5.96705e-09
5.18708e-07
5.76072e-09
5.18346e-07
5.63695e-09
5.1795e-07
5.60342e-09
5.17528e-07
5.67149e-09
5.17088e-07
5.85029e-09
6.15684e-09
5.16657e-07
5.54203e-07
-1.36438e-09
5.54234e-07
1.41192e-09
5.54575e-07
3.41869e-09
5.55097e-07
4.98517e-09
5.55729e-07
6.25192e-09
5.56298e-07
6.90065e-09
5.56723e-07
7.07599e-09
5.56996e-07
7.00207e-09
5.57133e-07
6.80424e-09
5.57156e-07
6.55796e-09
5.57086e-07
6.3157e-09
5.56942e-07
6.11075e-09
5.5674e-07
5.96297e-09
5.56492e-07
5.88543e-09
5.56207e-07
5.88771e-09
5.55899e-07
5.97951e-09
5.55581e-07
6.16813e-09
6.45863e-09
5.5528e-07
5.94298e-07
-6.84388e-10
5.94285e-07
1.42475e-09
5.94554e-07
3.14902e-09
5.95009e-07
4.53056e-09
5.95593e-07
5.66779e-09
5.96162e-07
6.3314e-09
5.96635e-07
6.60356e-09
5.9699e-07
6.64674e-09
5.97231e-07
6.56364e-09
5.97368e-07
6.42119e-09
5.97415e-07
6.26807e-09
5.97389e-07
6.13712e-09
5.97302e-07
6.04944e-09
5.97169e-07
6.01918e-09
5.97e-07
6.05629e-09
5.96811e-07
6.16849e-09
5.96619e-07
6.36025e-09
6.62987e-09
5.96448e-07
6.37212e-07
-2.15172e-10
6.3719e-07
1.44701e-09
6.37417e-07
2.92224e-09
6.37819e-07
4.12792e-09
6.38355e-07
5.13151e-09
6.3891e-07
5.77647e-09
6.39408e-07
6.10579e-09
6.39821e-07
6.23428e-09
6.40141e-07
6.24351e-09
6.40372e-07
6.19036e-09
6.40522e-07
6.11774e-09
6.40603e-07
6.056e-09
6.40627e-07
6.02547e-09
6.40606e-07
6.03989e-09
6.40554e-07
6.10838e-09
6.40486e-07
6.23662e-09
6.4042e-07
6.42631e-09
6.67237e-09
6.40377e-07
5.7382e-07
4.85512e-11
5.73809e-07
1.45814e-09
5.73987e-07
2.74364e-09
5.74302e-07
3.81347e-09
5.74723e-07
4.70984e-09
5.75178e-07
5.32179e-09
5.75608e-07
5.6755e-09
5.75988e-07
5.85497e-09
5.76306e-07
5.92541e-09
5.76561e-07
5.93513e-09
5.76757e-07
5.9216e-09
5.76901e-07
5.91198e-09
5.77002e-07
5.92492e-09
5.77069e-07
5.97298e-09
5.77113e-07
6.06404e-09
5.77147e-07
6.20208e-09
5.77187e-07
6.38705e-09
6.61206e-09
5.77247e-07
6.99624e-07
2.3972e-10
6.99648e-07
1.43414e-09
6.9985e-07
2.54241e-09
7.00191e-07
3.47184e-09
7.00649e-07
4.25236e-09
7.01154e-07
4.81607e-09
7.01653e-07
5.17705e-09
7.02114e-07
5.39381e-09
7.02523e-07
5.51632e-09
7.02875e-07
5.58345e-09
7.0317e-07
5.6261e-09
7.03415e-07
5.6672e-09
7.03617e-07
5.72274e-09
7.03787e-07
5.80324e-09
7.03936e-07
5.91485e-09
7.04078e-07
6.05981e-09
7.04229e-07
6.23652e-09
6.43775e-09
7.04403e-07
8.52976e-07
3.48439e-10
8.53052e-07
1.35845e-09
8.53296e-07
2.29842e-09
8.53679e-07
3.0887e-09
8.5418e-07
3.75078e-09
8.54743e-07
4.25306e-09
8.55317e-07
4.60356e-09
8.5587e-07
4.84113e-09
8.56384e-07
5.00235e-09
8.5685e-07
5.11671e-09
8.57268e-07
5.20797e-09
8.57642e-07
5.29403e-09
8.57977e-07
5.38736e-09
8.58284e-07
5.49587e-09
8.58576e-07
5.62364e-09
8.58864e-07
5.77129e-09
8.59164e-07
5.93618e-09
6.11172e-09
8.5949e-07
1.03989e-06
3.75635e-10
1.04004e-06
1.21603e-09
1.04035e-06
1.98875e-09
1.04079e-06
2.64092e-09
1.04136e-06
3.186e-09
1.042e-06
3.6167e-09
1.04266e-06
3.94011e-09
1.04332e-06
4.18105e-09
1.04396e-06
4.36487e-09
1.04456e-06
4.51243e-09
1.04513e-06
4.64042e-09
1.04566e-06
4.76141e-09
1.04616e-06
4.88392e-09
1.04665e-06
5.01297e-09
1.04712e-06
5.15052e-09
1.0476e-06
5.29589e-09
1.04809e-06
5.44603e-09
5.59546e-09
1.0486e-06
1.26772e-06
3.3359e-10
1.26794e-06
9.9472e-10
1.26834e-06
1.59164e-09
1.26888e-06
2.09949e-09
1.26954e-06
2.52645e-09
1.27028e-06
2.87675e-09
1.27106e-06
3.1579e-09
1.27186e-06
3.38519e-09
1.27265e-06
3.57465e-09
1.27342e-06
3.73946e-09
1.27417e-06
3.88984e-09
1.2749e-06
4.03314e-09
1.27561e-06
4.174e-09
1.27631e-06
4.31463e-09
1.277e-06
4.45517e-09
1.27771e-06
4.59403e-09
1.27842e-06
4.72823e-09
4.85358e-09
1.27917e-06
1.54541e-06
2.38822e-10
1.54572e-06
6.88527e-10
1.54622e-06
1.08794e-09
1.54689e-06
1.43268e-09
1.54769e-06
1.7302e-09
1.54858e-06
1.98733e-09
1.54952e-06
2.21028e-09
1.5505e-06
2.40713e-09
1.55149e-06
2.5858e-09
1.55248e-06
2.7524e-09
1.55346e-06
2.91119e-09
1.55442e-06
3.06474e-09
1.55538e-06
3.21411e-09
1.55634e-06
3.35903e-09
1.5573e-06
3.49818e-09
1.55826e-06
3.62944e-09
1.55924e-06
3.75011e-09
3.85721e-09
1.56024e-06
1.8839e-06
1.05387e-10
1.88429e-06
2.96874e-10
1.88492e-06
4.59814e-10
1.88574e-06
6.05789e-10
1.88673e-06
7.46497e-10
1.88783e-06
8.87455e-10
1.88901e-06
1.03128e-09
1.89023e-06
1.17939e-09
1.89149e-06
1.3318e-09
1.89275e-06
1.48736e-09
1.89402e-06
1.64433e-09
1.89528e-06
1.80066e-09
1.89654e-06
1.95397e-09
1.8978e-06
2.10175e-09
1.89906e-06
2.2414e-09
1.90032e-06
2.37035e-09
1.90158e-06
2.48616e-09
2.58668e-09
1.90285e-06
2.29649e-06
-4.89399e-11
2.29695e-06
-1.65638e-10
2.29772e-06
-3.05306e-10
2.29874e-06
-4.20265e-10
2.29998e-06
-4.87538e-10
2.30137e-06
-5.044e-10
2.30287e-06
-4.7139e-10
2.30444e-06
-3.93782e-10
2.30606e-06
-2.81208e-10
2.30769e-06
-1.43816e-10
2.30932e-06
9.5445e-12
2.31095e-06
1.71359e-10
2.31257e-06
3.35297e-10
2.31418e-06
4.96147e-10
2.31577e-06
6.49703e-10
2.31735e-06
7.92633e-10
2.31891e-06
9.22358e-10
1.03702e-09
2.32046e-06
1.68113e-06
-1.04432e-10
1.68139e-06
-4.29197e-10
1.68192e-06
-8.31142e-10
1.68267e-06
-1.17416e-09
1.68361e-06
-1.42631e-09
1.68469e-06
-1.58579e-09
1.68587e-06
-1.64912e-09
1.6871e-06
-1.62728e-09
1.68836e-06
-1.54073e-09
1.68963e-06
-1.40874e-09
1.69088e-06
-1.24684e-09
1.69212e-06
-1.06767e-09
1.69334e-06
-8.81312e-10
1.69453e-06
-6.9548e-10
1.69569e-06
-5.15915e-10
1.69683e-06
-3.4679e-10
1.69795e-06
-1.9104e-10
-5.06555e-11
1.69903e-06
1.46336e-06
-1.21046e-11
1.46345e-06
-5.1848e-10
1.46386e-06
-1.23354e-09
1.46451e-06
-1.83282e-09
1.46539e-06
-2.29808e-09
1.46642e-06
-2.61938e-09
1.46755e-06
-2.77852e-09
1.46872e-06
-2.79885e-09
1.4699e-06
-2.71952e-09
1.47106e-06
-2.5724e-09
1.4722e-06
-2.38158e-09
1.4733e-06
-2.16604e-09
1.47436e-06
-1.94023e-09
1.47537e-06
-1.71454e-09
1.47635e-06
-1.49615e-09
1.4773e-06
-1.28994e-09
1.47821e-06
-1.09903e-09
-9.25349e-10
1.47908e-06
1.27363e-06
3.68049e-10
1.27351e-06
-3.91317e-10
1.27381e-06
-1.53885e-09
1.27442e-06
-2.443e-09
1.27529e-06
-3.16881e-09
1.27634e-06
-3.67078e-09
1.27747e-06
-3.90757e-09
1.27861e-06
-3.93582e-09
1.27972e-06
-3.82705e-09
1.28077e-06
-3.63028e-09
1.28177e-06
-3.38026e-09
1.28271e-06
-3.10349e-09
1.28359e-06
-2.81885e-09
1.28441e-06
-2.53875e-09
1.28519e-06
-2.27108e-09
1.28592e-06
-2.02064e-09
1.28661e-06
-1.79009e-09
-1.58073e-09
1.28727e-06
1.10825e-06
1.21145e-09
1.1079e-06
-4.4413e-11
1.10818e-06
-1.81808e-09
1.10883e-06
-3.08902e-09
1.10979e-06
-4.12888e-09
1.11092e-06
-4.80433e-09
1.11208e-06
-5.06253e-09
1.11317e-06
-5.03406e-09
1.11419e-06
-4.83881e-09
1.1151e-06
-4.5457e-09
1.11592e-06
-4.20089e-09
1.11666e-06
-3.83792e-09
1.11732e-06
-3.47837e-09
1.11791e-06
-3.13474e-09
1.11846e-06
-2.81382e-09
1.11895e-06
-2.51893e-09
1.11941e-06
-2.25113e-09
-2.01032e-09
1.11984e-06
9.64049e-07
2.6842e-09
9.63545e-07
4.59199e-10
9.63908e-07
-2.18086e-09
9.64695e-07
-3.87638e-09
9.65831e-07
-5.26427e-09
9.67075e-07
-6.04888e-09
9.68233e-07
-6.22012e-09
9.69238e-07
-6.03944e-09
9.70086e-07
-5.68624e-09
9.70787e-07
-5.24705e-09
9.71363e-07
-4.77654e-09
9.71836e-07
-4.31147e-09
9.7223e-07
-3.87198e-09
9.72562e-07
-3.467e-09
9.72848e-07
-3.09956e-09
9.73098e-07
-2.76961e-09
9.73323e-07
-2.4753e-09
-2.21432e-09
9.73527e-07
8.38145e-07
5.07483e-09
8.37754e-07
8.50084e-10
8.38382e-07
-2.80917e-09
8.39417e-07
-4.9114e-09
8.40768e-07
-6.61564e-09
8.42081e-07
-7.3611e-09
8.43147e-07
-7.28602e-09
8.43946e-07
-6.83929e-09
8.44518e-07
-6.25785e-09
8.44907e-07
-5.63582e-09
8.45158e-07
-5.02743e-09
8.45311e-07
-4.46434e-09
8.45397e-07
-3.9584e-09
8.4544e-07
-3.51021e-09
8.45457e-07
-3.11605e-09
8.45458e-07
-2.77083e-09
8.45452e-07
-2.46892e-09
-2.20521e-09
8.45442e-07
7.27634e-07
9.16886e-09
7.28122e-07
3.62634e-10
7.29324e-07
-4.01119e-09
7.30709e-07
-6.2968e-09
7.32243e-07
-8.14902e-09
7.33482e-07
-8.60018e-09
7.34278e-07
-8.0827e-09
7.34701e-07
-7.26145e-09
7.3485e-07
-6.40777e-09
7.34816e-07
-5.60118e-09
7.34666e-07
-4.87759e-09
7.34452e-07
-4.25037e-09
7.34209e-07
-3.71487e-09
7.33957e-07
-3.25902e-09
7.33712e-07
-2.87042e-09
7.33479e-07
-2.53842e-09
7.33264e-07
-2.25382e-09
-2.00871e-09
7.33068e-07
6.30219e-07
1.59562e-08
6.3275e-07
-2.16799e-09
6.34736e-07
-5.99705e-09
6.36522e-07
-8.08294e-09
6.38096e-07
-9.72323e-09
6.38998e-07
-9.50179e-09
6.39249e-07
-8.33401e-09
6.39061e-07
-7.07344e-09
6.38621e-07
-5.96754e-09
6.38057e-07
-5.0374e-09
6.37451e-07
-4.27154e-09
6.3685e-07
-3.64982e-09
6.36281e-07
-3.14521e-09
6.35754e-07
-2.73185e-09
6.35273e-07
-2.38964e-09
6.34838e-07
-2.10408e-09
6.34449e-07
-1.8641e-09
-1.65973e-09
6.341e-07
5.47192e-07
2.33107e-08
5.51825e-07
-6.80142e-09
5.53526e-07
-7.69793e-09
5.55234e-07
-9.79058e-09
5.56334e-07
-1.0823e-08
5.5636e-07
-9.52789e-09
5.55618e-07
-7.59248e-09
5.5451e-07
-5.96509e-09
5.53299e-07
-4.75682e-09
5.52122e-07
-3.86039e-09
5.51037e-07
-3.18626e-09
5.50061e-07
-2.6743e-09
5.49195e-07
-2.27869e-09
5.48429e-07
-1.9657e-09
5.47752e-07
-1.71304e-09
5.47155e-07
-1.5072e-09
5.4663e-07
-1.3389e-09
-1.19962e-09
5.4617e-07
4.91615e-07
1.44567e-08
4.907e-07
-5.88685e-09
4.87265e-07
-4.26272e-09
4.86305e-07
-8.83024e-09
4.84863e-07
-9.38126e-09
4.82526e-07
-7.19117e-09
4.79886e-07
-4.95187e-09
4.77391e-07
-3.47048e-09
4.75213e-07
-2.57909e-09
4.73367e-07
-2.01371e-09
4.7181e-07
-1.62926e-09
4.70491e-07
-1.35623e-09
4.69367e-07
-1.15429e-09
4.684e-07
-9.98237e-10
4.67561e-07
-8.73997e-10
4.6683e-07
-7.76393e-10
4.66198e-07
-7.07158e-10
-7.12485e-10
4.65711e-07
4.34724e-07
4.28837e-07
4.24575e-07
4.15744e-07
4.06363e-07
3.99172e-07
3.9422e-07
3.9075e-07
3.88171e-07
3.86157e-07
3.84528e-07
3.83171e-07
3.82017e-07
3.81019e-07
3.80145e-07
3.79369e-07
3.78661e-07
3.77949e-07
1.67671e-08
-1.67671e-08
3.07978e-08
-1.40308e-08
3.85237e-08
-7.72584e-09
4.02587e-08
-1.73505e-09
3.67934e-08
3.46536e-09
2.94124e-08
7.38099e-09
1.95917e-08
9.82071e-09
8.41623e-09
1.11754e-08
-3.74637e-09
1.21626e-08
-1.70781e-08
1.33317e-08
-3.17965e-08
1.47184e-08
-4.79629e-08
1.61664e-08
-6.55162e-08
1.75533e-08
-8.42936e-08
1.87774e-08
-1.0406e-07
1.97668e-08
-1.24539e-07
2.04789e-08
-1.45437e-07
2.08976e-08
-1.66466e-07
2.1029e-08
-1.87362e-07
2.08961e-08
-2.07895e-07
2.05328e-08
-2.27875e-07
1.99799e-08
-2.47154e-07
1.92798e-08
-2.65628e-07
1.84738e-08
-2.83228e-07
1.75994e-08
-2.99917e-07
1.66892e-08
-3.15687e-07
1.577e-08
-3.30549e-07
1.48625e-08
-3.44531e-07
1.39822e-08
-3.57671e-07
1.31395e-08
-3.70012e-07
1.23408e-08
-3.81601e-07
1.1589e-08
-3.92485e-07
1.08843e-08
-4.0271e-07
1.02251e-08
-4.12319e-07
9.60838e-09
-4.21349e-07
9.02998e-09
-4.29834e-07
8.4853e-09
-4.37803e-07
7.96938e-09
-4.4528e-07
7.47712e-09
-4.52284e-07
7.00342e-09
-4.58827e-07
6.54325e-09
-4.64919e-07
6.09171e-09
-4.70563e-07
5.644e-09
-4.75758e-07
5.1955e-09
-4.805e-07
4.7417e-09
-4.84778e-07
4.27819e-09
-4.88579e-07
3.8008e-09
-4.91885e-07
3.30555e-09
-4.94673e-07
2.78887e-09
-4.96921e-07
2.24736e-09
-4.98598e-07
1.67719e-09
-4.99676e-07
1.07753e-09
-5.00136e-07
4.60634e-10
-4.99992e-07
-1.43842e-10
-4.99276e-07
-7.16068e-10
-4.98007e-07
-1.26958e-09
-4.96181e-07
-1.82583e-09
-4.93786e-07
-2.39454e-09
-4.90807e-07
-2.97966e-09
-4.87224e-07
-3.58252e-09
-4.83021e-07
-4.20314e-09
-4.7818e-07
-4.84072e-09
-4.72686e-07
-5.49393e-09
-4.66525e-07
-6.16097e-09
-4.59686e-07
-6.83968e-09
-4.52158e-07
-7.52753e-09
-4.43936e-07
-8.22167e-09
-4.35017e-07
-8.91897e-09
-4.25401e-07
-9.61601e-09
-4.15092e-07
-1.03092e-08
-4.04098e-07
-1.09947e-08
-3.92429e-07
-1.16686e-08
-3.80102e-07
-1.23269e-08
-3.67137e-07
-1.29656e-08
-3.53556e-07
-1.35809e-08
-3.39387e-07
-1.41689e-08
-3.24661e-07
-1.4726e-08
-3.09412e-07
-1.52488e-08
-2.93678e-07
-1.57344e-08
-2.77498e-07
-1.61798e-08
-2.60915e-07
-1.6583e-08
-2.43973e-07
-1.69419e-08
-2.26718e-07
-1.72551e-08
-2.09196e-07
-1.75218e-08
-1.91455e-07
-1.77413e-08
-1.73541e-07
-1.79136e-08
-1.55502e-07
-1.80392e-08
-1.37383e-07
-1.81186e-08
-1.1923e-07
-1.81529e-08
-1.01087e-07
-1.81431e-08
-8.29973e-08
-1.80899e-08
-6.50039e-08
-1.79934e-08
-4.71525e-08
-1.78514e-08
-2.9492e-08
-1.76605e-08
-1.2064e-08
-1.74279e-08
5.13002e-09
-1.71941e-08
2.20868e-08
-1.69568e-08
3.87721e-08
-1.66853e-08
5.51589e-08
-1.63868e-08
7.12285e-08
-1.60696e-08
8.69664e-08
-1.57379e-08
1.02361e-07
-1.53943e-08
1.17402e-07
-1.50412e-08
1.32083e-07
-1.46806e-08
1.46397e-07
-1.43146e-08
1.60342e-07
-1.39451e-08
1.73916e-07
-1.35739e-08
1.87119e-07
-1.32025e-08
1.99951e-07
-1.28325e-08
2.12416e-07
-1.24652e-08
2.24518e-07
-1.21017e-08
2.36261e-07
-1.17432e-08
2.47652e-07
-1.13904e-08
2.58696e-07
-1.1044e-08
2.694e-07
-1.07046e-08
2.79773e-07
-1.03725e-08
2.8982e-07
-1.00479e-08
2.99551e-07
-9.7308e-09
3.08972e-07
-9.42113e-09
3.18091e-07
-9.11857e-09
3.26914e-07
-8.82264e-09
3.35446e-07
-8.53274e-09
3.43694e-07
-8.24807e-09
3.51662e-07
-7.96773e-09
3.59353e-07
-7.69064e-09
3.66768e-07
-7.41565e-09
3.7391e-07
-7.14149e-09
3.80777e-07
-6.86678e-09
3.87367e-07
-6.59017e-09
3.93677e-07
-6.31024e-09
3.99703e-07
-6.02562e-09
4.05438e-07
-5.73504e-09
4.10875e-07
-5.4373e-09
4.16007e-07
-5.13143e-09
4.20823e-07
-4.81664e-09
4.25316e-07
-4.49245e-09
4.29474e-07
-4.15866e-09
4.3329e-07
-3.81545e-09
4.36753e-07
-3.46331e-09
4.39856e-07
-3.10309e-09
4.42592e-07
-2.73578e-09
4.44954e-07
-2.36202e-09
4.46935e-07
-1.98072e-09
4.4852e-07
-1.58564e-09
4.49681e-07
-1.16065e-09
4.50364e-07
-6.82653e-10
4.50535e-07
-1.71542e-10
4.5026e-07
2.75012e-10
4.49654e-07
6.0617e-10
4.48796e-07
8.58374e-10
4.47734e-07
1.06124e-09
4.46507e-07
1.22746e-09
4.45144e-07
1.36334e-09
4.43671e-07
1.47248e-09
4.42114e-07
1.55741e-09
4.40493e-07
1.6205e-09
4.38829e-07
1.66416e-09
4.37138e-07
1.69089e-09
4.35435e-07
1.7032e-09
4.33731e-07
1.70363e-09
4.32037e-07
1.69468e-09
4.30358e-07
1.67882e-09
4.28699e-07
1.6585e-09
4.27063e-07
1.63617e-09
4.25449e-07
1.61432e-09
4.23853e-07
1.59561e-09
4.2227e-07
1.58299e-09
4.2069e-07
1.57988e-09
4.191e-07
1.59049e-09
4.17479e-07
1.6203e-09
4.15803e-07
1.67679e-09
4.14032e-07
1.77071e-09
4.12114e-07
1.91829e-09
4.09968e-07
2.14544e-09
4.07473e-07
2.49548e-09
4.04424e-07
3.04842e-09
4.00475e-07
3.94966e-09
3.94926e-07
5.54877e-09
3.86558e-07
8.36818e-09
3.71784e-07
1.47738e-08
2.39313e-08
3.47853e-07
6.5284e-09
-2.32955e-08
4.14668e-09
-1.16491e-08
-1.55919e-09
-2.01997e-09
-9.19118e-09
5.89695e-09
-1.83721e-08
1.26462e-08
-2.92744e-08
1.82833e-08
-4.22384e-08
2.27848e-08
-5.74303e-08
2.63673e-08
-7.46617e-08
2.93941e-08
-9.34471e-08
3.21171e-08
-1.13304e-07
3.45757e-08
-1.33827e-07
3.66893e-08
-1.54635e-07
3.83611e-08
-1.7538e-07
3.9522e-08
-1.95755e-07
4.01427e-08
-2.1551e-07
4.02331e-08
-2.34447e-07
3.98352e-08
-2.52432e-07
3.90137e-08
-2.69382e-07
3.78462e-08
-2.85264e-07
3.64148e-08
-3.00083e-07
3.47987e-08
-3.13873e-07
3.30696e-08
-3.26688e-07
3.12888e-08
-3.38594e-07
2.9506e-08
-3.49664e-07
2.77589e-08
-3.59969e-07
2.60748e-08
-3.69578e-07
2.44713e-08
-3.78554e-07
2.29585e-08
-3.86954e-07
2.15402e-08
-3.94829e-07
2.02155e-08
-4.02221e-07
1.89804e-08
-4.09165e-07
1.78283e-08
-4.15691e-07
1.67515e-08
-4.21824e-07
1.57411e-08
-4.27582e-07
1.47883e-08
-4.32981e-07
1.38839e-08
-4.3803e-07
1.30193e-08
-4.42739e-07
1.21861e-08
-4.47112e-07
1.13763e-08
-4.51152e-07
1.05826e-08
-4.54858e-07
9.79809e-09
-4.58231e-07
9.0164e-09
-4.61267e-07
8.23175e-09
-4.63964e-07
7.43894e-09
-4.66319e-07
6.63338e-09
-4.6833e-07
5.81113e-09
-4.69993e-07
4.96905e-09
-4.71309e-07
4.10487e-09
-4.72279e-07
3.21735e-09
-4.72909e-07
2.30694e-09
-4.73208e-07
1.37701e-09
-4.73179e-07
4.31235e-10
-4.72787e-07
-5.35294e-10
-4.71969e-07
-1.53473e-09
-4.70666e-07
-2.57262e-09
-4.68843e-07
-3.64856e-09
-4.66475e-07
-4.76289e-09
-4.63539e-07
-5.91558e-09
-4.60015e-07
-7.10597e-09
-4.55886e-07
-8.33263e-09
-4.51133e-07
-9.59335e-09
-4.45742e-07
-1.08852e-08
-4.39698e-07
-1.22045e-08
-4.32991e-07
-1.3547e-08
-4.25611e-07
-1.49075e-08
-4.17552e-07
-1.62806e-08
-4.08811e-07
-1.766e-08
-3.99388e-07
-1.90389e-08
-3.89287e-07
-2.04104e-08
-3.78515e-07
-2.17668e-08
-3.67083e-07
-2.31005e-08
-3.55006e-07
-2.44038e-08
-3.42303e-07
-2.56686e-08
-3.28997e-07
-2.68874e-08
-3.15113e-07
-2.80526e-08
-3.00682e-07
-2.91571e-08
-2.85736e-07
-3.01943e-08
-2.70312e-07
-3.11583e-08
-2.54449e-07
-3.20435e-08
-2.38186e-07
-3.28455e-08
-2.21567e-07
-3.35606e-08
-2.04637e-07
-3.41858e-08
-1.87439e-07
-3.47193e-08
-1.70021e-07
-3.51599e-08
-1.52427e-07
-3.55074e-08
-1.34703e-07
-3.57627e-08
-1.16895e-07
-3.5927e-08
-9.90456e-08
-3.60023e-08
-8.11974e-08
-3.59913e-08
-6.33908e-08
-3.58965e-08
-4.56636e-08
-3.57206e-08
-2.80493e-08
-3.54657e-08
-1.0574e-08
-3.51358e-08
6.73931e-09
-3.47413e-08
2.38413e-08
-3.42961e-08
4.06892e-08
-3.38046e-08
5.72708e-08
-3.3267e-08
7.35723e-08
-3.26882e-08
8.95774e-08
-3.20748e-08
1.05272e-07
-3.14321e-08
1.20642e-07
-3.07649e-08
1.35679e-07
-3.00777e-08
1.50373e-07
-2.93746e-08
1.64718e-07
-2.86597e-08
1.7871e-07
-2.79369e-08
1.92345e-07
-2.72096e-08
2.05624e-07
-2.64811e-08
2.18546e-07
-2.57544e-08
2.31113e-07
-2.50321e-08
2.43328e-07
-2.43166e-08
2.55194e-07
-2.36099e-08
2.66718e-07
-2.29138e-08
2.77903e-07
-2.22296e-08
2.88757e-07
-2.15585e-08
2.99286e-07
-2.09012e-08
3.09496e-07
-2.02581e-08
3.19395e-07
-1.96295e-08
3.28989e-07
-1.90151e-08
3.38285e-07
-1.84145e-08
3.47289e-07
-1.78268e-08
3.56007e-07
-1.72509e-08
3.64444e-07
-1.66854e-08
3.72605e-07
-1.61286e-08
3.80493e-07
-1.55785e-08
3.8811e-07
-1.50331e-08
3.95459e-07
-1.44898e-08
4.02538e-07
-1.39463e-08
4.09348e-07
-1.33998e-08
4.15885e-07
-1.28477e-08
4.22147e-07
-1.22875e-08
4.28129e-07
-1.17166e-08
4.33824e-07
-1.11328e-08
4.39227e-07
-1.05342e-08
4.44329e-07
-9.91918e-09
4.49124e-07
-9.2867e-09
4.53601e-07
-8.63626e-09
4.57754e-07
-7.96797e-09
4.61573e-07
-7.2826e-09
4.65051e-07
-6.58147e-09
4.68182e-07
-5.8663e-09
4.70959e-07
-5.1386e-09
4.73377e-07
-4.39868e-09
4.75435e-07
-3.64453e-09
4.77148e-07
-2.8732e-09
4.78556e-07
-2.09039e-09
4.79705e-07
-1.32107e-09
4.80577e-07
-5.96794e-10
4.81124e-07
5.90557e-11
4.81344e-07
6.38989e-10
4.81256e-07
1.14921e-09
4.80887e-07
1.59628e-09
4.80265e-07
1.98479e-09
4.7942e-07
2.31807e-09
4.78378e-07
2.59898e-09
4.77168e-07
2.83047e-09
4.75816e-07
3.01585e-09
4.74348e-07
3.15888e-09
4.72788e-07
3.26373e-09
4.71157e-07
3.3349e-09
4.69474e-07
3.37715e-09
4.67758e-07
3.39541e-09
4.66021e-07
3.39473e-09
4.64277e-07
3.38029e-09
4.62534e-07
3.35743e-09
4.60798e-07
3.33168e-09
4.59072e-07
3.30903e-09
4.57356e-07
3.29611e-09
4.55646e-07
3.30065e-09
4.53934e-07
3.33214e-09
4.52208e-07
3.40293e-09
4.50448e-07
3.52993e-09
4.48629e-07
3.73752e-09
4.46711e-07
4.06318e-09
4.4464e-07
4.56656e-09
4.42335e-07
5.35337e-09
4.39682e-07
6.60264e-09
4.365e-07
8.73143e-09
4.3253e-07
1.23375e-08
4.27382e-07
1.99224e-08
3.33249e-08
4.17988e-07
-9.16406e-09
-1.41314e-08
-2.04466e-08
-3.66494e-10
-3.20855e-08
9.61889e-09
-4.42826e-08
1.80941e-08
-5.71816e-08
2.55452e-08
-7.09381e-08
3.20398e-08
-8.57377e-08
3.75844e-08
-1.01626e-07
4.2256e-08
-1.18403e-07
4.61704e-08
-1.35686e-07
4.94006e-08
-1.53065e-07
5.19542e-08
-1.70182e-07
5.38068e-08
-1.86764e-07
5.49424e-08
-2.02617e-07
5.53755e-08
-2.17629e-07
5.51549e-08
-2.31753e-07
5.43567e-08
-2.44993e-07
5.30748e-08
-2.57389e-07
5.141e-08
-2.69005e-07
4.94622e-08
-2.79913e-07
4.73233e-08
-2.90189e-07
4.50738e-08
-2.999e-07
4.27808e-08
-3.09108e-07
4.04976e-08
-3.17867e-07
3.82643e-08
-3.26218e-07
3.61096e-08
-3.34195e-07
3.40521e-08
-3.41826e-07
3.21024e-08
-3.49132e-07
3.02644e-08
-3.56129e-07
2.85373e-08
-3.6283e-07
2.69168e-08
-3.69246e-07
2.53958e-08
-3.75383e-07
2.39656e-08
-3.81248e-07
2.26167e-08
-3.86846e-07
2.13388e-08
-3.92179e-07
2.01216e-08
-3.9725e-07
1.89549e-08
-4.0206e-07
1.78288e-08
-4.06608e-07
1.67338e-08
-4.10892e-07
1.56609e-08
-4.14911e-07
1.46015e-08
-4.18661e-07
1.35477e-08
-4.22137e-07
1.24922e-08
-4.25333e-07
1.14282e-08
-4.28243e-07
1.03494e-08
-4.30861e-07
9.25047e-09
-4.33176e-07
8.12637e-09
-4.3518e-07
6.97289e-09
-4.36861e-07
5.78639e-09
-4.38208e-07
4.56381e-09
-4.39203e-07
3.3026e-09
-4.39827e-07
2.00036e-09
-4.40048e-07
6.53111e-10
-4.39838e-07
-7.46091e-10
-4.39169e-07
-2.20374e-09
-4.38019e-07
-3.72242e-09
-4.36365e-07
-5.30239e-09
-4.34185e-07
-6.94303e-09
-4.31457e-07
-8.64323e-09
-4.28162e-07
-1.04011e-08
-4.24281e-07
-1.22141e-08
-4.19795e-07
-1.40786e-08
-4.14691e-07
-1.59899e-08
-4.08952e-07
-1.79428e-08
-4.02569e-07
-1.99305e-08
-3.95531e-07
-2.19456e-08
-3.87832e-07
-2.39799e-08
-3.79467e-07
-2.6024e-08
-3.70438e-07
-2.80681e-08
-3.60747e-07
-3.01015e-08
-3.50401e-07
-3.21132e-08
-3.39409e-07
-3.40918e-08
-3.27788e-07
-3.60255e-08
-3.15553e-07
-3.7903e-08
-3.02728e-07
-3.97126e-08
-2.89337e-07
-4.14433e-08
-2.7541e-07
-4.30845e-08
-2.60978e-07
-4.46266e-08
-2.46076e-07
-4.60605e-08
-2.30741e-07
-4.73783e-08
-2.15013e-07
-4.85733e-08
-1.98934e-07
-4.96398e-08
-1.82546e-07
-5.05738e-08
-1.65893e-07
-5.13722e-08
-1.49019e-07
-5.20334e-08
-1.3197e-07
-5.25573e-08
-1.14788e-07
-5.29446e-08
-9.7517e-08
-5.31976e-08
-8.01999e-08
-5.33195e-08
-6.2877e-08
-5.33142e-08
-4.55869e-08
-5.31865e-08
-2.83655e-08
-5.29421e-08
-1.12437e-08
-5.25875e-08
5.74973e-09
-5.21292e-08
2.25845e-08
-5.1576e-08
3.92272e-08
-5.09387e-08
5.56481e-08
-5.02256e-08
7.18257e-08
-4.94445e-08
8.77407e-08
-4.86032e-08
1.03376e-07
-4.77098e-08
1.18715e-07
-4.67716e-08
1.33746e-07
-4.57958e-08
1.48457e-07
-4.4789e-08
1.62841e-07
-4.37577e-08
1.76889e-07
-4.27079e-08
1.90597e-07
-4.16453e-08
2.03963e-07
-4.05752e-08
2.16984e-07
-3.95023e-08
2.29661e-07
-3.84311e-08
2.41994e-07
-3.73656e-08
2.53987e-07
-3.63092e-08
2.65642e-07
-3.5265e-08
2.76964e-07
-3.42356e-08
2.87957e-07
-3.32231e-08
2.98628e-07
-3.22291e-08
3.08982e-07
-3.1255e-08
3.19025e-07
-3.03014e-08
3.28764e-07
-2.93686e-08
3.38205e-07
-2.84565e-08
3.47355e-07
-2.75643e-08
3.56219e-07
-2.66911e-08
3.64804e-07
-2.58353e-08
3.73114e-07
-2.4995e-08
3.81153e-07
-2.41677e-08
3.88925e-07
-2.33508e-08
3.96433e-07
-2.25412e-08
4.03679e-07
-2.17356e-08
4.10663e-07
-2.09303e-08
4.17385e-07
-2.01217e-08
4.23843e-07
-1.93061e-08
4.30035e-07
-1.84796e-08
4.35958e-07
-1.76388e-08
4.41605e-07
-1.67804e-08
4.46973e-07
-1.59015e-08
4.52053e-07
-1.5e-08
4.56841e-07
-1.40741e-08
4.61327e-07
-1.3123e-08
4.65506e-07
-1.21467e-08
4.6937e-07
-1.11462e-08
4.72912e-07
-1.01232e-08
4.76125e-07
-9.08017e-09
4.79007e-07
-8.01986e-09
4.81553e-07
-6.94495e-09
4.83767e-07
-5.85815e-09
4.85658e-07
-4.76463e-09
4.87245e-07
-3.67713e-09
4.8854e-07
-2.61583e-09
4.89543e-07
-1.60029e-09
4.90249e-07
-6.47224e-10
4.90657e-07
2.31403e-10
4.90775e-07
1.0311e-09
4.9062e-07
1.75111e-09
4.90213e-07
2.392e-09
4.89576e-07
2.95488e-09
4.88734e-07
3.44146e-09
4.8771e-07
3.85419e-09
4.86529e-07
4.19644e-09
4.85216e-07
4.47251e-09
4.83792e-07
4.68753e-09
4.82279e-07
4.84741e-09
4.80698e-07
4.95865e-09
4.79065e-07
5.02824e-09
4.77396e-07
5.06354e-09
4.75704e-07
5.07225e-09
4.73999e-07
5.06235e-09
4.72289e-07
5.04226e-09
4.70577e-07
5.02096e-09
4.68865e-07
5.00834e-09
4.6715e-07
5.01578e-09
4.65425e-07
5.05692e-09
4.63679e-07
5.14912e-09
4.61893e-07
5.31557e-09
4.60041e-07
5.58899e-09
4.58087e-07
6.01816e-09
4.55974e-07
6.67881e-09
4.53629e-07
7.69869e-09
4.50942e-07
9.28925e-09
4.47787e-07
1.18868e-08
4.43972e-07
1.61521e-08
4.39849e-07
2.40455e-08
3.75246e-08
4.3565e-07
-1.70527e-08
2.92128e-09
-3.29445e-08
1.55253e-08
-4.80527e-08
2.47271e-08
-6.27643e-08
3.28057e-08
-7.73249e-08
4.01058e-08
-9.18971e-08
4.66119e-08
-1.06564e-07
5.22509e-08
-1.21288e-07
5.69801e-08
-1.35913e-07
6.07963e-08
-1.50226e-07
6.37135e-08
-1.64023e-07
6.57513e-08
-1.77158e-07
6.69411e-08
-1.89551e-07
6.7336e-08
-2.01189e-07
6.70131e-08
-2.12103e-07
6.6069e-08
-2.22357e-07
6.46109e-08
-2.32031e-07
6.27482e-08
-2.41205e-07
6.05846e-08
-2.49957e-07
5.82142e-08
-2.58352e-07
5.57182e-08
-2.66442e-07
5.3164e-08
-2.74268e-07
5.06059e-08
-2.81855e-07
4.80854e-08
-2.89224e-07
4.56333e-08
-2.96386e-07
4.32708e-08
-3.03345e-07
4.10111e-08
-3.10103e-07
3.88613e-08
-3.16662e-07
3.68232e-08
-3.2302e-07
3.48948e-08
-3.29174e-07
3.3071e-08
-3.35123e-07
3.13447e-08
-3.40865e-07
2.97074e-08
-3.46397e-07
2.81492e-08
-3.51718e-07
2.66601e-08
-3.56826e-07
2.52296e-08
-3.61719e-07
2.38471e-08
-3.66392e-07
2.25024e-08
-3.70844e-07
2.11852e-08
-3.75069e-07
1.98859e-08
-3.79062e-07
1.8595e-08
-3.82818e-07
1.73036e-08
-3.86329e-07
1.60033e-08
-3.89587e-07
1.46861e-08
-3.92582e-07
1.33446e-08
-3.95303e-07
1.19719e-08
-3.97739e-07
1.05616e-08
-3.99874e-07
9.10785e-09
-4.01692e-07
7.60508e-09
-4.03177e-07
6.04825e-09
-4.04307e-07
4.43252e-09
-4.05059e-07
2.75307e-09
-4.05411e-07
1.00462e-09
-4.05339e-07
-8.18381e-10
-4.04822e-07
-2.7204e-09
-4.03841e-07
-4.70394e-09
-4.02373e-07
-6.76973e-09
-4.00399e-07
-8.91731e-09
-3.97897e-07
-1.11452e-08
-3.94847e-07
-1.34508e-08
-3.91231e-07
-1.58306e-08
-3.8703e-07
-1.82797e-08
-3.82228e-07
-2.0792e-08
-3.7681e-07
-2.33601e-08
-3.70765e-07
-2.59755e-08
-3.64083e-07
-2.86281e-08
-3.56756e-07
-3.13069e-08
-3.4878e-07
-3.39996e-08
-3.40155e-07
-3.66932e-08
-3.30883e-07
-3.93734e-08
-3.20971e-07
-4.20257e-08
-3.10428e-07
-4.46349e-08
-2.99267e-07
-4.71857e-08
-2.87508e-07
-4.96626e-08
-2.7517e-07
-5.20505e-08
-2.62278e-07
-5.43347e-08
-2.48862e-07
-5.65015e-08
-2.3495e-07
-5.85377e-08
-2.20579e-07
-6.04317e-08
-2.05784e-07
-6.2173e-08
-1.90605e-07
-6.37528e-08
-1.75081e-07
-6.51637e-08
-1.59254e-07
-6.64003e-08
-1.43168e-07
-6.74587e-08
-1.26865e-07
-6.83368e-08
-1.10387e-07
-6.90344e-08
-9.37792e-08
-6.95529e-08
-7.70818e-08
-6.9895e-08
-6.0336e-08
-7.00653e-08
-4.35808e-08
-7.00693e-08
-2.68534e-08
-6.99139e-08
-1.01882e-08
-6.96074e-08
6.38224e-09
-6.91579e-08
2.28277e-08
-6.85747e-08
3.91203e-08
-6.78686e-08
5.52323e-08
-6.70507e-08
7.11382e-08
-6.61316e-08
8.68153e-08
-6.51216e-08
1.02243e-07
-6.40313e-08
1.17404e-07
-6.28709e-08
1.32283e-07
-6.16504e-08
1.46867e-07
-6.03792e-08
1.61144e-07
-5.90663e-08
1.75106e-07
-5.77202e-08
1.88747e-07
-5.63489e-08
2.02062e-07
-5.49598e-08
2.15047e-07
-5.356e-08
2.277e-07
-5.21557e-08
2.40022e-07
-5.07528e-08
2.52013e-07
-4.93564e-08
2.63675e-07
-4.79711e-08
2.75011e-07
-4.66011e-08
2.86025e-07
-4.52496e-08
2.96721e-07
-4.39195e-08
3.07105e-07
-4.26131e-08
3.17182e-07
-4.1332e-08
3.26958e-07
-4.00773e-08
3.36439e-07
-3.88493e-08
3.4563e-07
-3.7648e-08
3.54539e-07
-3.64727e-08
3.6317e-07
-3.53219e-08
3.71528e-07
-3.4194e-08
3.7962e-07
-3.30864e-08
3.87448e-07
-3.19962e-08