/*--------------------------------*- C++ -*----------------------------------*\
  =========                 |
  \\      /  F ield         | OpenFOAM: The Open Source CFD Toolbox
   \\    /   O peration     | Website:  https://openfoam.org
    \\  /    A nd           | Version:  6
     \\/     M anipulation  |
\*---------------------------------------------------------------------------*/
FoamFile
{
    version     2.0;
    format      ascii;
    class       volVectorField;
    location    "0.23";
    object      U;
}
// * * * * * * * * * * * * * * * * * * * * * * * * * * * * * * * * * * * * * //

dimensions      [0 1 -1 0 0 0 0];

internalField   nonuniform List<vector> 
12225
(
(0.948757 -0.405569 0)
(1.0127 -0.190669 0)
(1.01474 -0.0513922 0)
(0.983368 -0.00514029 0)
(0.955304 0.00452674 0)
(0.936857 0.00424084 0)
(0.924586 0.00260207 0)
(0.915851 0.00150713 0)
(0.90929 0.000967235 0)
(0.904045 0.000718961 0)
(0.899592 0.000599196 0)
(0.89566 0.000539484 0)
(0.892088 0.00051236 0)
(0.888781 0.000509019 0)
(0.885567 0.000517937 0)
(0.88269 0.000561811 0)
(0.878768 0.000604914 0)
(0.880172 -6.52527e-06 0)
(1.03699 0.076121 0)
(1.02001 0.0533194 0)
(1.01136 0.0193994 0)
(1.00432 0.00901898 0)
(0.997954 0.0067307 0)
(0.991182 0.00529904 0)
(0.983986 0.00405213 0)
(0.977395 0.00320356 0)
(0.971907 0.00267411 0)
(0.967366 0.00232332 0)
(0.963497 0.00208197 0)
(0.960111 0.0019212 0)
(0.957079 0.00182088 0)
(0.954312 0.0017724 0)
(0.951677 0.00175386 0)
(0.949273 0.00183742 0)
(0.946492 0.00166426 0)
(0.944648 0.00243232 0)
(0.998333 0.0132122 0)
(0.995362 0.011956 0)
(1.00082 0.00640991 0)
(1.00191 0.00652769 0)
(1.00122 0.00703137 0)
(0.999283 0.00635049 0)
(0.995926 0.00529809 0)
(0.992031 0.0044288 0)
(0.988323 0.00379974 0)
(0.984983 0.00334429 0)
(0.981978 0.00301966 0)
(0.979253 0.00279942 0)
(0.976749 0.00266095 0)
(0.974412 0.00259385 0)
(0.97216 0.00258083 0)
(0.970011 0.00266953 0)
(0.96769 0.00268782 0)
(0.965453 0.00309836 0)
(0.995105 -0.00695074 0)
(0.992485 0.00125591 0)
(0.998595 0.00394428 0)
(1.00081 0.00596421 0)
(1.00159 0.00706685 0)
(1.00155 0.0068348 0)
(1.00019 0.006069 0)
(0.998028 0.00532441 0)
(0.995641 0.00472062 0)
(0.993281 0.00424877 0)
(0.991015 0.00389681 0)
(0.988866 0.00365189 0)
(0.986823 0.00349862 0)
(0.984865 0.00343026 0)
(0.982943 0.00343699 0)
(0.981053 0.00355605 0)
(0.979046 0.00370425 0)
(0.976953 0.00419059 0)
(0.996671 -0.00693932 0)
(0.993819 0.000832791 0)
(0.998047 0.00376383 0)
(1.00005 0.00557098 0)
(1.00132 0.00679862 0)
(1.00214 0.00691136 0)
(1.00191 0.00645376 0)
(1.00087 0.00590117 0)
(0.999462 0.0053959 0)
(0.997891 0.00496921 0)
(0.996261 0.00463607 0)
(0.994626 0.00439984 0)
(0.993007 0.00425591 0)
(0.991407 0.004204 0)
(0.9898 0.00424299 0)
(0.98818 0.00440554 0)
(0.986473 0.00466726 0)
(0.984653 0.00523452 0)
(0.997828 -0.00414687 0)
(0.995151 0.00128653 0)
(0.99786 0.00349985 0)
(0.999551 0.00508422 0)
(1.00096 0.00636154 0)
(1.00214 0.00672851 0)
(1.00254 0.00654508 0)
(1.00225 0.00619698 0)
(1.00155 0.00582554 0)
(1.0006 0.00548412 0)
(0.999503 0.00520604 0)
(0.998322 0.00500827 0)
(0.997092 0.00489694 0)
(0.995829 0.00487898 0)
(0.994528 0.00496158 0)
(0.993187 0.00517528 0)
(0.991778 0.00552863 0)
(0.990271 0.00615339 0)
(0.998451 -0.0025673 0)
(0.996205 0.0011919 0)
(0.997935 0.00307573 0)
(0.999324 0.00458044 0)
(1.00068 0.00586145 0)
(1.00197 0.00640054 0)
(1.0027 0.00643894 0)
(1.00288 0.00627899 0)
(1.00268 0.00604963 0)
(1.00221 0.00581321 0)
(1.00155 0.00561289 0)
(1.00076 0.00547489 0)
(0.999874 0.00541403 0)
(0.998925 0.00544362 0)
(0.997915 0.00557745 0)
(0.996853 0.0058445 0)
(0.995737 0.00626805 0)
(0.994552 0.00693049 0)
(0.998884 -0.00172371 0)
(0.997111 0.00100862 0)
(0.998201 0.00270874 0)
(0.999308 0.00412417 0)
(1.00052 0.00535466 0)
(1.00177 0.00599679 0)
(1.00266 0.00620363 0)
(1.00313 0.00620389 0)
(1.00326 0.00610926 0)
(1.00314 0.00598275 0)
(1.00283 0.0058709 0)
(1.00236 0.00580506 0)
(1.00179 0.00580596 0)
(1.00112 0.00589154 0)
(1.00039 0.00607983 0)
(0.999595 0.00639783 0)
(0.998763 0.00687252 0)
(0.997888 0.00755424 0)
(0.999233 -0.00110652 0)
(0.997893 0.000933802 0)
(0.998561 0.00243954 0)
(0.999426 0.00372675 0)
(1.00047 0.00486882 0)
(1.00162 0.00555963 0)
(1.00255 0.00588585 0)
(1.00317 0.00601452 0)
(1.00353 0.00603867 0)
(1.00367 0.00601695 0)
(1.00362 0.00599499 0)
(1.00342 0.00600582 0)
(1.0031 0.00607334 0)
(1.00269 0.00621805 0)
(1.00221 0.00645981 0)
(1.00167 0.00682284 0)
(1.0011 0.00733181 0)
(1.00052 0.00801609 0)
(0.999502 -0.000616422 0)
(0.998538 0.000933166 0)
(0.998943 0.00223763 0)
(0.99962 0.0033819 0)
(1.0005 0.0044168 0)
(1.00152 0.00511535 0)
(1.00243 0.00551833 0)
(1.00313 0.00574366 0)
(1.00363 0.00586625 0)
(1.00394 0.00593776 0)
(1.00409 0.00600017 0)
(1.0041 0.00608568 0)
(1.004 0.00621893 0)
(1.00381 0.00642099 0)
(1.00356 0.00671146 0)
(1.00325 0.00711106 0)
(1.00292 0.0076395 0)
(1.00259 0.00831243 0)
(0.999692 -0.000258451 0)
(0.999044 0.000952097 0)
(0.999304 0.00207384 0)
(0.999846 0.00307956 0)
(1.00059 0.00400186 0)
(1.00149 0.00467889 0)
(1.00234 0.00512345 0)
(1.00306 0.0054161 0)
(1.00364 0.00561534 0)
(1.00407 0.00576477 0)
(1.00436 0.00590126 0)
(1.00454 0.0060544 0)
(1.00462 0.0062477 0)
(1.00462 0.00650114 0)
(1.00456 0.00683254 0)
(1.00446 0.00725862 0)
(1.00435 0.00779351 0)
(1.00424 0.00844407 0)
(0.999809 -3.72371e-05 0)
(0.999392 0.000962337 0)
(0.999592 0.00193934 0)
(1.00005 0.0028288 0)
(1.00071 0.00365091 0)
(1.0015 0.00429102 0)
(1.00229 0.00474901 0)
(1.00301 0.00508041 0)
(1.00362 0.00533073 0)
(1.00412 0.00553625 0)
(1.00451 0.00572864 0)
(1.0048 0.00593413 0)
(1.00501 0.00617401 0)
(1.00515 0.00646618 0)
(1.00525 0.00682596 0)
(1.00531 0.00726631 0)
(1.00537 0.00779673 0)
(1.00544 0.00841876 0)
(0.99989 0.000107097 0)
(0.999652 0.000958911 0)
(0.999833 0.0018103 0)
(1.00024 0.00259458 0)
(1.00083 0.00332286 0)
(1.00153 0.00391727 0)
(1.00227 0.00437236 0)
(1.00296 0.00472556 0)
(1.00359 0.00501141 0)
(1.00414 0.00525938 0)
(1.0046 0.00549594 0)
(1.00498 0.00574356 0)
(1.0053 0.00602071 0)
(1.00556 0.00634269 0)
(1.00579 0.00672195 0)
(1.00599 0.00716793 0)
(1.00619 0.00768626 0)
(1.00641 0.00827496 0)
(0.999947 0.000198515 0)
(0.999857 0.000927942 0)
(1.00005 0.00165971 0)
(1.00043 0.00233746 0)
(1.00096 0.00296716 0)
(1.00159 0.00350303 0)
(1.00227 0.00393875 0)
(1.00294 0.00429808 0)
(1.00357 0.00460612 0)
(1.00415 0.00488549 0)
(1.00467 0.00515701 0)
(1.00513 0.0054387 0)
(1.00554 0.0057454 0)
(1.00592 0.00608906 0)
(1.00627 0.00647875 0)
(1.0066 0.00692039 0)
(1.00694 0.0074161 0)
(1.0073 0.00796189 0)
(0.999983 0.000237238 0)
(1 0.000856177 0)
(1.00021 0.00147187 0)
(1.00059 0.00204331 0)
(1.00108 0.00257316 0)
(1.00167 0.0030401 0)
(1.0023 0.00344025 0)
(1.00295 0.00378821 0)
(1.00357 0.00410152 0)
(1.00417 0.00439659 0)
(1.00474 0.00468861 0)
(1.00527 0.00499077 0)
(1.00576 0.00531382 0)
(1.00623 0.00566594 0)
(1.00669 0.00605269 0)
(1.00715 0.00647675 0)
(1.00761 0.00693752 0)
(1.00808 0.00743012 0)
(1 0.000228686 0)
(1.00009 0.000734385 0)
(1.00033 0.00123029 0)
(1.0007 0.00169228 0)
(1.00118 0.00212113 0)
(1.00174 0.00251037 0)
(1.00235 0.00285968 0)
(1.00298 0.00317826 0)
(1.0036 0.00347779 0)
(1.00422 0.00376937 0)
(1.00482 0.004063 0)
(1.00541 0.0043672 0)
(1.00597 0.00468855 0)
(1.00653 0.00503157 0)
(1.00708 0.0053986 0)
(1.00763 0.00578967 0)
(1.00818 0.00620246 0)
(1.00876 0.00663195 0)
(1.00001 0.000182523 0)
(1.00013 0.000557565 0)
(1.00039 0.000920741 0)
(1.00077 0.00126206 0)
(1.00125 0.00158285 0)
(1.0018 0.00188356 0)
(1.0024 0.0021663 0)
(1.00303 0.00243695 0)
(1.00367 0.00270254 0)
(1.00431 0.00296956 0)
(1.00494 0.00324348 0)
(1.00557 0.00352858 0)
(1.0062 0.00382769 0)
(1.00682 0.00414213 0)
(1.00744 0.00447168 0)
(1.00806 0.00481458 0)
(1.00868 0.0051676 0)
(1.00932 0.00552607 0)
(1.00001 0.000108474 0)
(1.00014 0.000324325 0)
(1.00041 0.000530981 0)
(1.0008 0.000729286 0)
(1.00129 0.000923771 0)
(1.00185 0.00111775 0)
(1.00245 0.00131401 0)
(1.0031 0.00151578 0)
(1.00376 0.00172602 0)
(1.00443 0.0019469 0)
(1.0051 0.00217978 0)
(1.00577 0.00242517 0)
(1.00644 0.00268273 0)
(1.00711 0.00295123 0)
(1.00778 0.00322857 0)
(1.00845 0.0035119 0)
(1.00912 0.0037977 0)
(1.00979 0.00408187 0)
(1.00001 1.45319e-05 0)
(1.00014 3.49679e-05 0)
(1.0004 4.744e-05 0)
(1.00079 6.6449e-05 0)
(1.00129 0.000102337 0)
(1.00187 0.000159969 0)
(1.0025 0.000242196 0)
(1.00318 0.000349782 0)
(1.00387 0.000481459 0)
(1.00458 0.000634924 0)
(1.00529 0.000807477 0)
(1.006 0.000996169 0)
(1.00671 0.00119783 0)
(1.00741 0.00140913 0)
(1.00811 0.00162658 0)
(1.0088 0.00184665 0)
(1.00949 0.00206572 0)
(1.01016 0.00228022 0)
(1.00001 -5.63467e-05 0)
(1.00008 -0.000214501 0)
(1.0003 -0.000401454 0)
(1.00069 -0.000571178 0)
(1.0012 -0.000705289 0)
(1.00181 -0.000796229 0)
(1.00248 -0.000837747 0)
(1.00321 -0.000830146 0)
(1.00395 -0.000779143 0)
(1.0047 -0.000691759 0)
(1.00546 -0.000574734 0)
(1.0062 -0.000434419 0)
(1.00693 -0.000276712 0)
(1.00765 -0.000106956 0)
(1.00835 7.00537e-05 0)
(1.00904 0.000250014 0)
(1.00971 0.000429057 0)
(1.01036 0.000603668 0)
(0.999981 -5.39389e-05 0)
(0.999933 -0.00034449 0)
(1.00008 -0.000724502 0)
(1.00045 -0.00107436 0)
(1.00098 -0.00137303 0)
(1.00164 -0.00160709 0)
(1.00239 -0.00176063 0)
(1.00318 -0.00183557 0)
(1.00399 -0.0018445 0)
(1.0048 -0.00180039 0)
(1.00558 -0.0017146 0)
(1.00635 -0.00159739 0)
(1.00708 -0.00145772 0)
(1.0078 -0.00130312 0)
(1.00848 -0.00113981 0)
(1.00914 -0.000972961 0)
(1.00977 -0.000806866 0)
(1.01038 -0.000645172 0)
(0.999912 7.51832e-05 0)
(0.999594 -0.000339024 0)
(0.999626 -0.000956783 0)
(1.00001 -0.00151503 0)
(1.00061 -0.00200769 0)
(1.00138 -0.00240157 0)
(1.00225 -0.00266286 0)
(1.00315 -0.00280265 0)
(1.00404 -0.00284766 0)
(1.00489 -0.0028201 0)
(1.0057 -0.00273801 0)
(1.00646 -0.00261704 0)
(1.00718 -0.00247006 0)
(1.00784 -0.00230703 0)
(1.00847 -0.00213565 0)
(1.00906 -0.00196182 0)
(1.00962 -0.00179011 0)
(1.01015 -0.00162415 0)
(0.999764 0.000388965 0)
(0.998957 -0.00021634 0)
(0.99889 -0.00114097 0)
(0.999377 -0.0019406 0)
(1.00014 -0.00266901 0)
(1.0011 -0.00323488 0)
(1.00216 -0.00358077 0)
(1.00319 -0.00374707 0)
(1.00415 -0.00378673 0)
(1.00502 -0.00373535 0)
(1.0058 -0.00361992 0)
(1.0065 -0.00346288 0)
(1.00713 -0.0032812 0)
(1.00769 -0.00308694 0)
(1.0082 -0.00288857 0)
(1.00867 -0.00269212 0)
(1.0091 -0.00250178 0)
(1.0095 -0.00232069 0)
(0.999513 0.00100774 0)
(0.997919 -6.30079e-05 0)
(0.997881 -0.00139437 0)
(0.998637 -0.00244367 0)
(0.999677 -0.00343318 0)
(1.00094 -0.00415117 0)
(1.00222 -0.00452212 0)
(1.00336 -0.00464865 0)
(1.00432 -0.00462313 0)
(1.00512 -0.00449712 0)
(1.00577 -0.00430753 0)
(1.00631 -0.00408334 0)
(1.00676 -0.00384435 0)
(1.00713 -0.00360291 0)
(1.00745 -0.00336673 0)
(1.00772 -0.00314061 0)
(1.00797 -0.00292731 0)
(1.00819 -0.00272872 0)
(0.998981 0.00257214 0)
(0.996265 0.000304673 0)
(0.996694 -0.00176258 0)
(0.998004 -0.00311609 0)
(0.999446 -0.00436291 0)
(1.00106 -0.00515457 0)
(1.00253 -0.005445 0)
(1.00365 -0.00543939 0)
(1.00445 -0.00527758 0)
(1.00501 -0.00502559 0)
(1.00538 -0.0047278 0)
(1.00561 -0.00441642 0)
(1.00575 -0.00411031 0)
(1.00582 -0.00381886 0)
(1.00585 -0.00354646 0)
(1.00586 -0.00329497 0)
(1.00585 -0.00306448 0)
(1.00585 -0.00285479 0)
(0.997457 0.00616927 0)
(0.993468 0.00160433 0)
(0.995406 -0.00190955 0)
(0.99777 -0.00389237 0)
(0.999712 -0.00543112 0)
(1.00161 -0.00616629 0)
(1.00307 -0.00623467 0)
(1.00389 -0.00599382 0)
(1.00424 -0.00563025 0)
(1.00429 -0.00521708 0)
(1.00415 -0.00479845 0)
(1.00389 -0.00440215 0)
(1.00357 -0.00403975 0)
(1.00322 -0.00371326 0)
(1.00288 -0.00342109 0)
(1.00255 -0.00316061 0)
(1.00224 -0.0029285 0)
(1.00197 -0.00272187 0)
(0.994438 0.00860445 0)
(0.989472 0.00236479 0)
(0.994197 -0.00182792 0)
(0.998186 -0.00462253 0)
(1.00069 -0.00647846 0)
(1.00259 -0.00698717 0)
(1.00354 -0.00668391 0)
(1.00353 -0.00612631 0)
(1.00296 -0.0055319 0)
(1.00213 -0.00496287 0)
(1.00119 -0.00444844 0)
(1.00023 -0.00400088 0)
(0.999302 -0.00361743 0)
(0.998438 -0.00328903 0)
(0.997645 -0.00300663 0)
(0.996927 -0.00276295 0)
(0.996279 -0.0025517 0)
(0.995706 -0.00236677 0)
(0.994525 -0.00664994 0)
(0.989503 -0.00850098 0)
(0.995534 -0.00523154 0)
(1.00011 -0.0061239 0)
(1.00255 -0.00747694 0)
(1.00354 -0.0073917 0)
(1.00288 -0.00656197 0)
(1.00108 -0.00566378 0)
(0.998872 -0.00488196 0)
(0.996675 -0.00422539 0)
(0.994624 -0.00368533 0)
(0.992762 -0.00324889 0)
(0.9911 -0.00289631 0)
(0.989631 -0.00260771 0)
(0.988333 -0.00236811 0)
(0.987187 -0.0021677 0)
(0.986176 -0.00199984 0)
(0.98529 -0.00185268 0)
(1.02649 -0.0702257 0)
(1.0171 -0.0623766 0)
(1.01189 -0.0291843 0)
(1.00856 -0.014816 0)
(1.00582 -0.0102495 0)
(1.00204 -0.00773691 0)
(0.996899 -0.00584211 0)
(0.991423 -0.00453987 0)
(0.986489 -0.00367932 0)
(0.982324 -0.00307811 0)
(0.978828 -0.00263395 0)
(0.975872 -0.00229781 0)
(0.973356 -0.00203849 0)
(0.971202 -0.00183309 0)
(0.969341 -0.00166674 0)
(0.967722 -0.00153246 0)
(0.966312 -0.0014296 0)
(0.965097 -0.00138146 0)
(0.966187 0.350228 0)
(1.02696 0.194276 0)
(1.0328 0.0679389 0)
(1.00478 0.015296 0)
(0.976676 -0.001228 0)
(0.956823 -0.0042703 0)
(0.943182 -0.00354478 0)
(0.933458 -0.00238676 0)
(0.926358 -0.00156052 0)
(0.920997 -0.00106072 0)
(0.916751 -0.000765282 0)
(0.913248 -0.000585974 0)
(0.910285 -0.000471888 0)
(0.90774 -0.000394672 0)
(0.905525 -0.000339183 0)
(0.903573 -0.000299972 0)
(0.901819 -0.000273696 0)
(0.900213 -0.000310649 0)
(0.00930507 -0.0292647 -2.48823e-21)
(0.0220045 -0.0316016 2.3062e-21)
(0.0309197 -0.0230224 0)
(0.0361113 -0.0128359 0)
(0.035624 -0.00316575 0)
(0.0303359 0.00438405 -2.19328e-21)
(0.0222663 0.00880074 0)
(0.0127426 0.010491 0)
(0.00234929 0.0110285 0)
(-0.00893459 0.0117934 0)
(-0.0213995 0.0130479 2.16907e-21)
(-0.0351792 0.0146087 0)
(-0.0502622 0.0162651 0)
(-0.066542 0.0178409 0)
(-0.0838345 0.019205 0)
(-0.101905 0.0202709 1.88705e-21)
(-0.120495 0.0209932 0)
(-0.13934 0.0213616 0)
(-0.158194 0.0213938 0)
(-0.176832 0.0211269 0)
(-0.195069 0.02061 0)
(-0.212753 0.0198971 0)
(-0.229772 0.0190417 0)
(-0.246048 0.018093 1.76833e-21)
(-0.261537 0.0170939 -1.76883e-21)
(-0.276218 0.0160793 1.77032e-21)
(-0.290092 0.0150765 1.77233e-21)
(-0.303179 0.0141053 0)
(-0.315506 0.013179 0)
(-0.32711 0.0123056 -1.7781e-21)
(-0.338031 0.0114887 -1.77914e-21)
(-0.348312 0.0107284 0)
(-0.357993 0.0100226 0)
(-0.367112 0.00936753 -1.77756e-21)
(-0.375707 0.0087581 0)
(-0.383808 0.00818869 0)
(-0.391442 0.0076533 1.76725e-21)
(-0.398634 0.00714584 0)
(-0.405401 0.00666021 1.75479e-21)
(-0.411757 0.00619045 3.4935e-21)
(-0.417711 0.00573077 0)
(-0.423268 0.00527559 0)
(-0.428429 0.00481959 0)
(-0.433191 0.00435776 0)
(-0.437546 0.00388555 0)
(-0.441483 0.00339902 3.34017e-21)
(-0.444986 0.00289531 3.3041e-21)
(-0.448036 0.00237328 3.26466e-21)
(-0.45061 0.00183365 0)
(-0.452689 0.0012804 -3.17516e-21)
(-0.454249 0.000726939 0)
(-0.455254 0.000196944 3.07047e-21)
(-0.455676 -0.000290536 3.01091e-21)
(-0.455567 -0.000736603 0)
(-0.454966 -0.00116141 0)
(-0.453861 -0.0015841 0)
(-0.452244 -0.00201229 2.71782e-21)
(-0.4501 -0.00244892 0)
(-0.447412 -0.00289495 0)
(-0.444162 -0.00335036 0)
(-0.440333 -0.00381457 0)
(-0.435909 -0.00428661 0)
(-0.430875 -0.00476526 0)
(-0.425219 -0.00524904 0)
(-0.418927 -0.00573627 0)
(-0.411994 -0.0062251 -1.69476e-21)
(-0.404411 -0.00671351 0)
(-0.396177 -0.00719937 0)
(-0.387292 -0.00768043 1.22722e-21)
(-0.377759 -0.00815439 1.05698e-21)
(-0.367586 -0.00861889 0)
(-0.356784 -0.00907159 -6.95574e-22)
(-0.345367 -0.0095102 5.04764e-22)
(-0.333353 -0.0099325 0)
(-0.320766 -0.0103364 -1.0419e-22)
(-0.307629 -0.0107199 0)
(-0.293972 -0.0110814 0)
(-0.279827 -0.0114192 -5.39011e-22)
(-0.265228 -0.0117321 0)
(-0.250212 -0.0120191 9.91223e-22)
(-0.234819 -0.0122795 0)
(-0.219089 -0.0125128 -1.45765e-21)
(-0.203063 -0.0127189 -1.69488e-21)
(-0.186786 -0.0128979 -1.93404e-21)
(-0.170299 -0.0130502 -4.34915e-21)
(-0.153646 -0.0131762 4.83184e-21)
(-0.13687 -0.0132765 0)
(-0.120013 -0.0133512 0)
(-0.103117 -0.0134 0)
(-0.0862209 -0.0134209 6.75657e-21)
(-0.0693674 -0.0134091 7.23088e-21)
(-0.0525979 -0.0133539 -7.70044e-21)
(-0.0359563 -0.0132356 0)
(-0.019484 -0.0130244 8.62207e-21)
(-0.00320206 -0.0126968 8.9631e-21)
(0.0128893 -0.0122877 9.10008e-21)
(0.0287749 -0.0118582 0)
(0.0444243 -0.0114317 0)
(0.059813 -0.0110126 0)
(0.0749246 -0.0106021 9.17425e-21)
(0.089746 -0.010201 0)
(0.104267 -0.00980978 0)
(0.118478 -0.00942888 -9.09867e-21)
(0.132373 -0.00905864 0)
(0.145948 -0.00869938 0)
(0.159198 -0.00835138 -8.94977e-21)
(0.172123 -0.00801482 0)
(0.184722 -0.00768985 0)
(0.196997 -0.00737653 8.75347e-21)
(0.20895 -0.00707485 8.68096e-21)
(0.220585 -0.00678476 0)
(0.231906 -0.0065061 -8.52884e-21)
(0.242918 -0.00623869 0)
(0.253627 -0.00598225 8.3703e-21)
(0.264039 -0.00573646 0)
(0.274161 -0.00550093 8.20835e-21)
(0.283999 -0.00527524 8.12684e-21)
(0.293559 -0.00505887 0)
(0.302849 -0.00485128 0)
(0.311874 -0.00465189 0)
(0.32064 -0.00446003 0)
(0.329151 -0.00427504 0)
(0.337411 -0.00409619 0)
(0.345424 -0.00392275 0)
(0.353192 -0.00375395 7.48914e-21)
(0.360715 -0.00358901 -7.41336e-21)
(0.367993 -0.00342718 0)
(0.375024 -0.00326769 0)
(0.381804 -0.00310984 0)
(0.38833 -0.00295293 0)
(0.394594 -0.00279638 -1.4109e-20)
(0.400591 -0.00263966 0)
(0.40631 -0.00248234 1.38436e-20)
(0.411744 -0.00232413 -1.37161e-20)
(0.416882 -0.00216486 0)
(0.421714 -0.0020045 0)
(0.426228 -0.00184319 0)
(0.430415 -0.00168121 1.32447e-20)
(0.434266 -0.00151895 1.3137e-20)
(0.437771 -0.00135691 0)
(0.440922 -0.00119537 1.29345e-20)
(0.443712 -0.00103354 1.28399e-20)
(0.446131 -0.000867159 -1.275e-20)
(0.448158 -0.000685171 0)
(0.449755 -0.000472728 0)
(0.450847 -0.000238905 -1.25119e-20)
(0.451426 -3.59997e-05 0)
(0.451642 0.000101125 0)
(0.451579 0.000187377 0)
(0.451295 0.000244362 0)
(0.450832 0.000283522 1.21795e-20)
(0.450222 0.000310183 1.21203e-20)
(0.449491 0.000327109 0)
(0.448667 0.000336019 1.20072e-20)
(0.447771 0.000338286 0)
(0.446823 0.000335155 0)
(0.445844 0.000327785 1.18475e-20)
(0.444847 0.000317243 0)
(0.443847 0.0003045 1.17458e-20)
(0.442855 0.000290429 0)
(0.441878 0.000275822 0)
(0.440923 0.000261403 1.15988e-20)
(0.439993 0.000247854 0)
(0.439089 0.000235847 1.15043e-20)
(0.438209 0.000226086 0)
(0.437349 0.000219355 0)
(0.436502 0.00021659 0)
(0.435654 0.000218982 -1.13273e-20)
(0.43479 0.000228117 0)
(0.433885 0.000246215 1.12492e-20)
(0.432908 0.000276515 0)
(0.431811 0.000323927 0)
(0.430526 0.000396327 0)
(0.428948 0.00050672 0)
(0.426921 0.000679419 0)
(0.42414 0.000955839 0)
(0.420213 0.00144712 0)
(0.413719 0.00227009 -2.25762e-20)
(0.404753 0.00430317 0)
(0.380678 0.00663325 0)
(0.00205805 -0.0466524 7.03324e-21)
(0.00512998 -0.028876 -6.25982e-21)
(0.00146865 -0.0114067 0)
(-0.00443176 0.00242379 3.57385e-21)
(-0.0116511 0.0136343 0)
(-0.0204958 0.0222978 1.64192e-21)
(-0.0311951 0.0285318 -3.14061e-21)
(-0.0438403 0.0330705 -3.03355e-21)
(-0.0583746 0.0368529 0)
(-0.0745044 0.0404365 -2.83759e-21)
(-0.0918246 0.0438859 -1.39371e-21)
(-0.109938 0.0470255 0)
(-0.128488 0.04965 0)
(-0.147147 0.0516064 0)
(-0.16562 0.0528126 0)
(-0.183655 0.053254 -1.25036e-21)
(-0.201052 0.0529719 0)
(-0.21766 0.0520477 2.46236e-21)
(-0.233384 0.0505871 0)
(-0.248172 0.0487067 0)
(-0.262015 0.0465222 -2.46411e-21)
(-0.274931 0.0441409 0)
(-0.28696 0.0416562 2.48259e-21)
(-0.298158 0.0391455 -1.24464e-21)
(-0.308587 0.0366694 1.25142e-21)
(-0.318311 0.0342726 -1.25824e-21)
(-0.327392 0.0319859 -1.26482e-21)
(-0.335891 0.0298279 0)
(-0.343859 0.027808 0)
(-0.351345 0.0259278 1.28134e-21)
(-0.358388 0.0241835 -1.27853e-21)
(-0.365024 0.0225677 0)
(-0.371281 0.0210701 0)
(-0.377183 0.0196793 1.29235e-21)
(-0.382748 0.018383 0)
(-0.387992 0.0171691 0)
(-0.392924 0.0160254 -1.29085e-21)
(-0.397553 0.0149406 0)
(-0.401885 0.0139039 1.27686e-21)
(-0.405921 0.0129053 -2.56033e-21)
(-0.409663 0.0119355 0)
(-0.41311 0.010986 0)
(-0.416259 0.0100491 -5.02968e-21)
(-0.419109 0.0091175 -4.99498e-21)
(-0.421656 0.00818487 -4.95536e-21)
(-0.423896 0.00724535 2.45567e-21)
(-0.425827 0.00629378 -2.42815e-21)
(-0.427447 0.00532578 -7.20311e-21)
(-0.428756 0.00433789 4.74296e-21)
(-0.429756 0.00332839 2.32999e-21)
(-0.43045 0.00230104 0)
(-0.430847 0.00126935 -2.2487e-21)
(-0.430953 0.000250503 2.22661e-21)
(-0.430709 -0.000753135 0)
(-0.430035 -0.00175482 0)
(-0.428902 -0.00276694 0)
(-0.427282 -0.00379588 -1.97026e-21)
(-0.425154 -0.00484398 0)
(-0.422495 -0.0059114 3.71349e-21)
(-0.419289 -0.00699691 0)
(-0.415518 -0.00809832 3.40753e-21)
(-0.411164 -0.0092127 0)
(-0.406214 -0.0103365 -3.06547e-21)
(-0.400655 -0.0114656 0)
(-0.394476 -0.0125954 2.68697e-21)
(-0.387668 -0.013721 -1.29118e-21)
(-0.380225 -0.0148368 0)
(-0.372145 -0.0159374 -2.05206e-21)
(-0.363427 -0.0170167 -8.5302e-22)
(-0.354076 -0.0180689 -7.3142e-22)
(-0.344098 -0.0190879 0)
(-0.333503 -0.0200677 -6.12125e-22)
(-0.322306 -0.0210025 -3.44432e-22)
(-0.310524 -0.0218869 0)
(-0.298178 -0.0227156 7.04081e-23)
(-0.285294 -0.023484 -1.52949e-23)
(-0.271897 -0.0241879 0)
(-0.25802 -0.0248237 3.58873e-22)
(-0.243695 -0.0253885 0)
(-0.228958 -0.0258802 -1.78777e-21)
(-0.213847 -0.0262972 0)
(-0.1984 -0.026639 2.67645e-21)
(-0.18266 -0.0269056 1.10113e-21)
(-0.166667 -0.0270978 -1.06834e-21)
(-0.150462 -0.0272169 -2.43211e-21)
(-0.134089 -0.0272652 2.72698e-21)
(-0.117588 -0.0272451 0)
(-0.101 -0.0271597 0)
(-0.0843652 -0.0270121 0)
(-0.0677221 -0.0268054 -1.24051e-20)
(-0.0511067 -0.0265422 -4.53937e-21)
(-0.0345524 -0.0262235 4.81765e-21)
(-0.0180872 -0.0258478 0)
(-0.00173495 -0.0254101 4.97056e-21)
(0.0144721 -0.0249043 -5.4688e-21)
(0.0304914 -0.0243405 -5.58525e-21)
(0.0462951 -0.0237409 0)
(0.0618702 -0.023121 0)
(0.0772031 -0.0224888 0)
(0.0922789 -0.0218486 -5.93805e-21)
(0.107084 -0.0212042 0)
(0.121607 -0.0205583 1.18594e-20)
(0.135839 -0.0199138 1.80603e-20)
(0.149772 -0.0192731 -1.20471e-20)
(0.163399 -0.0186387 0)
(0.176719 -0.0180125 -5.98555e-21)
(0.189727 -0.0173965 0)
(0.202423 -0.0167922 -1.22532e-20)
(0.214807 -0.016201 6.05014e-21)
(0.226881 -0.0156241 6.06081e-21)
(0.238648 -0.0150623 0)
(0.250111 -0.0145165 1.85041e-20)
(0.261275 -0.0139869 -1.22739e-20)
(0.272143 -0.0134739 -6.19447e-21)
(0.282723 -0.0129776 0)
(0.293018 -0.0124979 -6.15944e-21)
(0.303037 -0.0120343 -1.83006e-20)
(0.312783 -0.0115864 0)
(0.322264 -0.0111535 -1.20774e-20)
(0.331485 -0.0107348 -1.20295e-20)
(0.340452 -0.0103293 -1.19784e-20)
(0.349167 -0.00993586 0)
(0.357637 -0.00955315 0)
(0.365864 -0.00917983 0)
(0.373851 -0.00881444 5.83865e-21)
(0.381598 -0.00845546 5.8796e-21)
(0.389106 -0.00810133 0)
(0.396374 -0.00775048 1.15653e-20)
(0.403399 -0.00740141 1.15024e-20)
(0.410179 -0.00705266 0)
(0.416708 -0.00670293 1.14275e-20)
(0.42298 -0.00635105 2.26278e-20)
(0.428989 -0.00599609 -1.12966e-20)
(0.434727 -0.00563735 -1.11497e-20)
(0.440185 -0.00527444 0)
(0.445354 -0.00490727 0)
(0.450224 -0.00453611 0)
(0.454787 -0.00416154 -1.09897e-20)
(0.459034 -0.00378444 1.08793e-20)
(0.462955 -0.0034058 2.17087e-20)
(0.466544 -0.0030263 -1.08262e-20)
(0.469793 -0.00264555 1.07372e-20)
(0.472698 -0.00226067 1.07279e-20)
(0.47526 -0.00186578 0)
(0.477499 -0.00145675 0)
(0.479473 -0.00104942 -1.05757e-20)
(0.481222 -0.000683219 0)
(0.482663 -0.000380077 0)
(0.483777 -0.0001307 2.09339e-20)
(0.484579 7.7507e-05 0)
(0.485092 0.000251686 1.03857e-20)
(0.485343 0.000396088 -1.03535e-20)
(0.48536 0.000513654 0)
(0.485169 0.000606744 1.02773e-20)
(0.4848 0.000677593 0)
(0.484278 0.000728479 0)
(0.48363 0.000761743 -1.01678e-20)
(0.48288 0.00077977 2.02664e-20)
(0.48205 0.000784959 -1.00951e-20)
(0.481163 0.000779685 0)
(0.480235 0.000766276 0)
(0.479284 0.000747009 9.99053e-21)
(0.478323 0.000724114 0)
(0.477362 0.000699803 9.91763e-21)
(0.476409 0.000676321 0)
(0.475468 0.000656027 0)
(0.474542 0.000641522 0)
(0.473628 0.000635835 9.77145e-21)
(0.472721 0.000642707 0)
(0.47181 0.000667049 -9.70702e-21)
(0.470879 0.000715684 0)
(0.469905 0.000798603 0)
(0.468853 0.000931385 1.9264e-20)
(0.467674 0.00113922 -1.92336e-20)
(0.466302 0.00146781 0)
(0.464612 0.00199541 0)
(0.462532 0.00291211 0)
(0.459529 0.00447306 5.82029e-20)
(0.456346 0.00790743 0)
(0.449904 0.0133738 -3.96854e-20)
(-0.00896246 -0.0363149 -1.51847e-22)
(-0.013802 -0.0123895 7.43463e-21)
(-0.0230421 0.00581966 0)
(-0.033557 0.021122 -5.67226e-21)
(-0.0447579 0.0342353 0)
(-0.0566097 0.0452972 0)
(-0.0693221 0.0543881 1.94183e-23)
(-0.0830338 0.0618099 2.36018e-21)
(-0.0976766 0.0679633 2.28168e-21)
(-0.11297 0.0731058 2.21587e-21)
(-0.128539 0.077281 0)
(-0.144033 0.0804145 0)
(-0.159166 0.0824286 -2.08883e-21)
(-0.173731 0.0832999 -4.12034e-21)
(-0.187594 0.083073 4.07628e-21)
(-0.200683 0.0818524 0)
(-0.212984 0.0797839 4.02073e-21)
(-0.22452 0.0770358 -1.9625e-21)
(-0.235338 0.0737813 0)
(-0.245502 0.0701854 3.99282e-21)
(-0.255078 0.0663948 1.96449e-21)
(-0.26413 0.0625335 -3.99486e-21)
(-0.272718 0.0587004 -1.97598e-21)
(-0.280892 0.05497 0)
(-0.288693 0.0513948 4.0105e-21)
(-0.296155 0.0480082 4.01673e-21)
(-0.303306 0.0448283 0)
(-0.310165 0.0418608 4.02834e-21)
(-0.316749 0.0391026 0)
(-0.323071 0.036544 4.0369e-21)
(-0.329141 0.0341713 2.01981e-21)
(-0.334965 0.0319682 0)
(-0.34055 0.0299171 0)
(-0.3459 0.028 0)
(-0.351019 0.0261994 0)
(-0.355907 0.0244984 0)
(-0.360567 0.0228812 0)
(-0.364998 0.0213329 4.00868e-21)
(-0.369199 0.0198401 -5.99671e-21)
(-0.373168 0.0183905 0)
(-0.376902 0.016973 0)
(-0.380396 0.0155778 0)
(-0.383646 0.0141961 2.72182e-24)
(-0.386646 0.0128206 3.8863e-21)
(-0.389389 0.011445 7.70564e-21)
(-0.391868 0.0100642 -7.63207e-21)
(-0.394074 0.00867456 -3.7777e-21)
(-0.395997 0.00727345 3.72648e-21)
(-0.397626 0.00585937 9.9374e-24)
(-0.398949 0.00443148 3.63291e-21)
(-0.399947 0.00298843 0)
(-0.400597 0.00152524 3.51283e-21)
(-0.40087 3.03408e-05 2.30576e-23)
(-0.40074 -0.00150608 0)
(-0.400182 -0.00308468 0)
(-0.399175 -0.0047027 -3.19263e-21)
(-0.397698 -0.00635789 0)
(-0.395731 -0.00804801 0)
(-0.393252 -0.00977033 2.93407e-21)
(-0.390244 -0.0115213 5.54748e-21)
(-0.386689 -0.0132966 -2.59858e-21)
(-0.382569 -0.015091 0)
(-0.377871 -0.0168984 2.32847e-21)
(-0.37258 -0.0187118 0)
(-0.366686 -0.0205238 2.17446e-21)
(-0.36018 -0.022326 1.87456e-21)
(-0.353057 -0.0241097 -3.5806e-21)
(-0.345311 -0.0258655 -1.70835e-21)
(-0.336945 -0.0275841 0)
(-0.327959 -0.0292556 2.55366e-21)
(-0.318361 -0.0308704 0)
(-0.308161 -0.0324188 2.62668e-21)
(-0.297371 -0.0338916 1.43534e-21)
(-0.28601 -0.0352799 1.04569e-21)
(-0.274096 -0.0365755 -6.49013e-22)
(-0.261654 -0.037771 2.57454e-22)
(-0.24871 -0.0388598 0)
(-0.235294 -0.0398362 0)
(-0.221439 -0.0406959 9.89628e-22)
(-0.207178 -0.0414354 2.23272e-21)
(-0.192549 -0.0420526 0)
(-0.177589 -0.0425465 -1.24809e-21)
(-0.162337 -0.0429174 0)
(-0.146835 -0.0431666 4.75373e-21)
(-0.131121 -0.0432965 2.55633e-22)
(-0.115238 -0.0433106 -2.56688e-22)
(-0.099225 -0.0432131 -4.32412e-21)
(-0.0831215 -0.0430091 0)
(-0.0669661 -0.0427041 5.13136e-21)
(-0.0507956 -0.0423043 2.56086e-22)
(-0.0346447 -0.0418159 0)
(-0.0185445 -0.0412453 0)
(-0.00252297 -0.0405998 0)
(0.0133936 -0.0398875 -7.16867e-21)
(0.0291755 -0.0391196 0)
(0.0447913 -0.0383058 0)
(0.0602164 -0.0374522 0)
(0.0754319 -0.0365651 0)
(0.0904207 -0.035651 0)
(0.105167 -0.0347163 -8.13642e-21)
(0.119656 -0.0337665 0)
(0.133876 -0.032807 -8.61131e-21)
(0.147818 -0.0318428 -8.73165e-21)
(0.161474 -0.0308782 8.84058e-21)
(0.174838 -0.0299176 0)
(0.187906 -0.0289646 9.02667e-21)
(0.200674 -0.0280227 0)
(0.213142 -0.0270947 9.17422e-21)
(0.225309 -0.0261832 -9.23494e-21)
(0.237177 -0.0252903 -2.76078e-20)
(0.248747 -0.0244179 0)
(0.260023 -0.0235673 -2.78811e-20)
(0.271009 -0.0227397 -9.18143e-21)
(0.281708 -0.0219356 0)
(0.292126 -0.0211555 -1.86953e-20)
(0.302268 -0.0203994 -1.8734e-20)
(0.312139 -0.0196671 2.82348e-20)
(0.321746 -0.018958 0)
(0.331093 -0.0182713 9.47838e-21)
(0.340186 -0.0176058 9.47549e-21)
(0.34903 -0.0169602 2.82579e-20)
(0.357629 -0.0163329 0)
(0.365988 -0.015722 0)
(0.37411 -0.0151255 0)
(0.381997 -0.0145414 9.29303e-21)
(0.389651 -0.0139673 0)
(0.397073 -0.0134009 0)
(0.404261 -0.0128398 -9.35158e-21)
(0.411215 -0.0122818 -9.32783e-21)
(0.417931 -0.0117246 0)
(0.424407 -0.0111661 0)
(0.430636 -0.0106047 -1.8504e-20)
(0.436614 -0.0100387 0)
(0.442334 -0.0094671 1.83999e-20)
(0.447787 -0.0088891 1.82822e-20)
(0.452967 -0.00830449 0)
(0.457865 -0.00771354 0)
(0.462474 -0.00711702 -1.81475e-20)
(0.466784 -0.00651613 -4.74633e-23)
(0.470789 -0.0059124 -4.31065e-23)
(0.474481 -0.00530731 0)
(0.477857 -0.00470199 -3.60138e-20)
(0.480913 -0.00409709 0)
(0.483655 -0.00349446 0)
(0.486096 -0.00290135 0)
(0.488254 -0.00233061 1.78839e-20)
(0.490135 -0.00179461 0)
(0.491733 -0.00130279 -3.56163e-20)
(0.493038 -0.000860807 -1.77846e-20)
(0.494056 -0.000469301 0)
(0.494797 -0.000126367 -1.77033e-20)
(0.495281 0.00017044 0)
(0.495528 0.00042348 0)
(0.495562 0.000635089 -5.27247e-20)
(0.495405 0.00080778 3.50618e-20)
(0.495083 0.000944352 0)
(0.494618 0.00104791 3.48768e-20)
(0.494035 0.00112184 -1.73867e-20)
(0.493354 0.00116972 0)
(0.492598 0.00119527 0)
(0.491785 0.00120229 0)
(0.490931 0.00119461 -5.15177e-20)
(0.490051 0.00117604 0)
(0.489156 0.00115042 -1.70531e-20)
(0.488256 0.00112165 0)
(0.487357 0.00109374 0)
(0.486462 0.00107104 0)
(0.485569 0.00105839 0)
(0.484675 0.00106155 0)
(0.483769 0.00108779 0)
(0.482836 0.00114681 -3.33112e-20)
(0.481854 0.00125232 0)
(0.48079 0.00142493 -1.65716e-20)
(0.479595 0.00169691 4.96335e-20)
(0.478205 0.00212389 0)
(0.476511 0.00279859 0)
(0.474426 0.00392325 -3.31578e-20)
(0.471645 0.00579903 -3.33891e-20)
(0.468551 0.00944252 3.36105e-20)
(0.464595 0.0158994 3.42062e-20)
(-0.0141611 -0.0098498 -1.27774e-20)
(-0.0236481 0.0136613 -9.9392e-21)
(-0.0358616 0.0313702 -5.38463e-21)
(-0.0489956 0.0466673 -2.36053e-21)
(-0.0620969 0.0601665 0)
(-0.075086 0.0719165 4.27222e-21)
(-0.0881228 0.0818753 -2.06311e-21)
(-0.10126 0.0900723 0)
(-0.114408 0.096602 -1.94104e-21)
(-0.127387 0.101552 0)
(-0.139998 0.104974 3.76585e-21)
(-0.152081 0.106914 0)
(-0.163533 0.107447 1.78399e-21)