/*--------------------------------*- C++ -*----------------------------------*\
  =========                 |
  \\      /  F ield         | OpenFOAM: The Open Source CFD Toolbox
   \\    /   O peration     | Website:  https://openfoam.org
    \\  /    A nd           | Version:  6
     \\/     M anipulation  |
\*---------------------------------------------------------------------------*/
FoamFile
{
    version     2.0;
    format      ascii;
    class       volScalarField;
    location    "0.05";
    object      epsilon;
}
// * * * * * * * * * * * * * * * * * * * * * * * * * * * * * * * * * * * * * //

dimensions      [0 2 -3 0 0 0 0];

internalField   nonuniform List<scalar> 
3032
(
307.542
159.145
103.245
76.2607
61.0187
51.5331
45.1517
40.5577
37.068
34.3121
32.0758
30.2277
28.6932
27.4109
26.3439
25.4753
24.8518
24.6305
71.5964
59.7468
44.4115
34.355
27.8204
23.3839
20.2452
17.9379
16.1786
14.7935
13.6745
12.7529
11.9863
11.3419
10.7956
10.3294
9.9341
9.58904
33.6094
34.3975
29.2845
24.3849
20.5403
17.6209
15.3989
13.6835
12.3334
11.2494
10.3632
9.62729
9.00959
8.48601
8.03807
7.65144
7.31549
7.01918
22.4927
24.1928
22.2175
19.5388
17.0653
14.9877
13.2931
11.9187
10.7981
9.87557
9.10774
8.46171
7.9137
7.44484
7.04056
6.68934
6.38231
6.11345
18.0515
19.1628
18.2225
16.5925
14.8954
13.3513
12.0166
10.8858
9.93293
9.12859
8.44623
7.86368
7.36356
6.93146
6.55586
6.22752
5.93928
5.6875
15.9656
16.398
15.764
14.6401
13.3944
12.1985
11.1188
10.1712
9.34975
8.64053
8.0279
7.49734
7.03633
6.63407
6.28153
5.97134
5.69782
5.45863
14.9025
14.7879
14.1872
13.2978
12.3122
11.3427
10.4432
9.63352
8.91603
8.28484
7.73095
7.24504
6.81807
6.44196
6.10973
5.8155
5.5548
5.32615
14.3401
13.8249
13.1581
12.3629
11.5213
10.6955
9.92082
9.21325
8.57674
8.00889
7.50437
7.05687
6.65982
6.3071
5.99326
5.7136
5.4646
5.24541
14.0385
13.2453
12.4859
11.7129
10.9444
10.2058
9.51492
8.88081
8.3058
7.78818
7.32428
6.90929
6.5382
6.20623
5.90896
5.64262
5.40441
5.19391
13.8767
12.8989
12.0513
11.2665
10.5289
9.83952
9.2023
8.61906
8.08916
7.61025
7.17875
6.79053
6.44142
6.1274
5.84479
5.59042
5.36203
5.15947
13.7905
12.6954
11.776
10.9664
10.2359
9.57115
8.966
8.41624
7.91817
7.46788
7.0613
6.6944
6.36329
6.06435
5.79431
5.55041
5.33072
5.13525
13.7488
12.588
11.6202
10.7865
10.0517
9.3958
8.80654
8.27575
7.79714
7.36534
6.97562
6.62365
6.30554
6.01779
5.75729
5.52149
5.30864
5.11881
13.7254
12.5234
11.5208
10.6659
9.92307
9.26899
8.6879
8.16869
7.70303
7.2843
6.907
6.56642
6.2585
5.97972
5.72704
5.49798
5.29091
5.10589
13.7116
12.483
11.4548
10.5812
9.82846
9.17199
8.59404
8.08153
7.62454
7.2153
6.84755
6.51612
6.21668
5.94559
5.69975
5.47673
5.27492
5.09432
13.7045
12.4608
11.4162
10.5288
9.76689
9.10599
8.52766
8.01779
7.56545
7.16203
6.80064
6.47566
6.18248
5.91725
5.67681
5.45865
5.26115
5.08422
13.7012
12.4504
11.3968
10.5011
9.73249
9.06729
8.48703
7.97726
7.52657
7.12589
6.76792
6.44672
6.15742
5.896
5.65917
5.44436
5.24989
5.07556
13.7
12.4462
11.3888
10.4889
9.71657
9.04846
8.46631
7.95567
7.50502
7.10509
6.74839
6.4288
6.1413
5.88174
5.64676
5.4337
5.24084
5.06787
13.6996
12.445
11.3863
10.4849
9.71101
9.04151
8.45824
7.9468
7.49566
7.09552
6.73883
6.4194
6.13216
5.87291
5.63823
5.42546
5.23282
5.05997
13.6998
12.4453
11.3869
10.4858
9.71202
9.04254
8.45913
7.94737
7.49573
7.09493
6.73744
6.41709
6.12882
5.86845
5.63258
5.41856
5.22464
5.05051
13.701
12.4493
11.3945
10.4972
9.72689
9.05997
8.47804
7.96667
7.51441
7.11214
6.75249
6.42946
6.13815
5.87451
5.63523
5.41774
5.22039
5.043
13.7054
12.4634
11.42
10.5333
9.77123
9.10943
8.52956
8.0176
7.56268
7.15625
6.79143
6.46265
6.16531
5.89557
5.6503
5.42703
5.22419
5.04179
13.7204
12.5082
11.4949
10.6317
9.88397
9.22779
8.64656
8.12825
7.6638
7.24605
6.86915
6.52822
6.21911
5.93824
5.68261
5.4498
5.23829
5.04827
13.7671
12.6333
11.6846
10.8601
10.1266
9.46658
8.86998
8.32996
7.84108
7.39852
6.99782
6.63481
6.30568
6.00691
5.73542
5.48863
5.26487
5.06441
13.9008
12.9465
12.1094
11.3262
10.5852
9.89006
9.24561
8.65431
8.11588
7.62799
7.18713
6.78925
6.43017
6.1059
5.81274
5.54755
5.30818
5.09477
14.2608
13.6664
12.9752
12.1903
11.3732
10.5742
9.82287
9.13328
8.50935
7.94932
7.44862
7.00156
6.60225
6.24508
5.92499
5.63767
5.38001
5.15172
15.1942
15.2326
14.6363
13.6955
12.6469
11.6176
10.6653
9.81062
9.05488
8.39111
7.80917
7.2985
6.84922
6.45259
6.10112
5.78861
5.51047
5.26566
17.6336
18.6188
17.7661
16.2595
14.6634
13.187
11.8923
10.7822
9.8377
9.03418
8.34802
7.75879
7.24952
6.80644
6.41847
6.07681
5.77492
5.51061
24.705
26.4231
23.9022
20.7812
17.9975
15.6987
13.8429
12.3492
11.1389
10.1474
9.32483
8.63396
8.04694
7.54286
7.10591
6.72402
6.3883
6.09498
51.9638
47.7345
37.7971
30.1691
24.7518
20.8638
18.0161
15.8802
14.235
12.9338
11.8801
11.0093
10.2771
9.65247
9.1132
8.64286
8.22952
7.86728
251.827
137.354
90.7672
67.1
53.2643
44.4637
38.4933
34.2029
30.9611
28.4092
26.3343
24.6046
23.1346
21.8661
20.7583
19.7811
18.9125
18.1382
0.22351
0.442335
0.719917
0.975118
1.2114
1.43378
1.6454
1.84827
2.04389
2.23352
2.41826
2.59902
2.77652
2.95134
3.12387
3.29437
3.46305
3.63009
3.79582
3.96092
4.12667
4.29553
4.47213
4.65197
4.82411
4.98745
5.14121
5.28449
5.41642
5.53613
5.64282
5.73581
5.81454
5.87863
5.92792
5.96251
5.98288
5.98997
5.98548
5.97207
5.95362
5.93438
5.91559
5.89199
1.18998
0.758658
0.810627
0.921024
1.04232
1.16147
1.274
1.37852
1.47502
1.56408
1.6465
1.72316
1.79487
1.86244
1.92654
1.98781
2.04682
2.10411
2.16019
2.21558
2.27087
2.32668
2.38363
2.44232
2.50006
2.55561
2.60845
2.65817
2.70443
2.74688
2.78522
2.81917
2.84848
2.87298
2.89256
2.90719
2.91696
2.92203
2.92269
2.91932
2.91231
2.90195
2.88828
2.87139
2.09651
1.09406
1.01612
1.05655
1.1286
1.20951
1.29048
1.3677
1.43963
1.50592
1.56684
1.62296
1.675
1.72368
1.7697
1.81371
1.8563
1.89798
1.93917
1.98026
2.02153
2.06322
2.10545
2.14814
2.19041
2.23166
2.27148
2.30951
2.34541
2.37885
2.40951
2.43708
2.46132
2.48199
2.49892
2.51197
2.52109
2.52627
2.52755
2.52501
2.51876
2.50892
2.49572
2.47945
2.91186
1.40148
1.2179
1.20738
1.24582
1.30191
1.36372
1.42579
1.48547
1.54167
1.59409
1.64292
1.68858
1.73161
1.77258
1.81206
1.85053
1.88844
1.92615
1.96395
2.00202
2.04049
2.07939
2.11849
2.15731
2.19543
2.23248
2.26808
2.30188
2.33353
2.36268
2.38902
2.41223
2.43208
2.44834
2.46085
2.46949
2.47421
2.475
2.47188
2.46496
2.45433
2.44036
2.42328
3.66453
1.68603
1.409
1.35662
1.3691
1.40679
1.45492
1.50667
1.55862
1.60905
1.65723
1.70298
1.74646
1.78797
1.82795
1.8668
1.90493
1.9427
1.98039
2.01823
2.05636
2.09484
2.13366
2.17251
2.21103
2.24885
2.2856
2.32091
2.35439
2.38569
2.41442
2.44026
2.46289
2.48203
2.49747
2.50904
2.5166
2.52012
2.51957
2.515
2.50651
2.49432
2.47874
2.46002
4.37191
1.95381
1.59081
1.50172
1.49262
1.51571
1.55339
1.59759
1.64419
1.691
1.73693
1.78149
1.82459
1.86636
1.90704
1.94693
1.98632
2.02548
2.06464
2.10395
2.1435
2.18331
2.2233
2.26313
2.30246
2.34092
2.37816
2.41377
2.44736
2.47853
2.50692
2.53216
2.55396
2.57202
2.58615
2.59619
2.60203
2.60364
2.60103
2.59429
2.58356
2.56916
2.55134
2.53036
5.04279
2.2081
1.76454
1.64204
1.61407
1.62491
1.65418
1.69258
1.73531
1.77978
1.82456
1.86894
1.91261
1.95551
1.99776
2.0395
2.08095
2.12229
2.16366
2.20515
2.2468
2.28857
2.33034
2.37168
2.41226
2.45173
2.48968
2.52571
2.55939
2.59033
2.61812
2.64243
2.66294
2.67941
2.69164
2.69952
2.70298
2.70203
2.69672
2.68718
2.67371
2.65656
2.63599
2.6123
5.67812
2.44957
1.93024
1.77679
1.73176
1.73188
1.75406
1.78776
1.82756
1.87047
1.91478
1.95956
2.00432
2.04885
2.09313
2.13721
2.18117
2.22513
2.26916
2.31328
2.35746
2.40161
2.44547
2.48861
2.53069
2.5713
2.61002
2.64641
2.68003
2.71045
2.73729
2.7602
2.7789
2.79319
2.80291
2.80799
2.80843
2.80428
2.79568
2.78291
2.76622
2.7459
2.72223
2.69552
6.27148
2.6765
2.08665
1.90445
1.84377
1.83422
1.85014
1.87985
1.9173
1.95913
2.00338
2.04891
2.09509
2.14156
2.18818
2.23489
2.28171
2.32864
2.37569
2.42279
2.46987
2.51676
2.56297
2.60816
2.6519
2.69375
2.73323
2.76986
2.80317
2.83273
2.85816
2.87915
2.89545
2.90691
2.91345
2.91508
2.91186
2.90396
2.89166
2.87523
2.85496
2.83116
2.80416
2.77426
6.8102
2.88517
2.23126
2.02274
1.94768
1.92929
1.93955
1.96573
2.0012
2.04224
2.08668
2.13319
2.181
2.22964
2.27885
2.32849
2.37848
2.42873
2.47917
2.52967
2.58002
2.63
2.67895
2.72647
2.77207
2.81524
2.85543
2.89211
2.92479
2.95303
2.97649
2.9949
3.0081
3.01602
3.01867
3.01617
3.00875
2.99667
2.98026
2.95984
2.93574
2.90831
2.87788
2.84479
7.27639
3.07025
2.36064
2.12873
2.04069
2.01426
2.01938
2.04237
2.07611
2.11658
2.16138
2.20906
2.25869
2.30971
2.36179
2.41467
2.4682
2.52222
2.57654
2.63094
2.68511
2.73863
2.79075
2.84094
2.88861
2.93315
2.97391
3.01032
3.04187
3.06816
3.0889
3.10391
3.11317
3.11671
3.11473
3.10752
3.09541
3.07875
3.05793
3.03332
3.00529
2.97421
2.94044
2.9043
7.64831
3.22531
2.47081
2.21921
2.11993
2.08639
2.08693
2.1071
2.13936
2.17945
2.22479
2.2738
2.32546
2.37914
2.4344
2.49094
2.5485
2.60684
2.66567
2.72465
2.78335
2.84098
2.89676
2.94998
2.99988
3.04569
3.08668
3.12223
3.15187
3.17525
3.19224
3.20279
3.20706
3.20537
3.19808
3.18561
3.16839
3.14686
3.12146
3.09262
3.06074
3.0262
2.98936
2.95052
7.90205
3.34352
2.55779
2.29124
2.18294
2.14353
2.14022
2.15805
2.18917
2.22914
2.27525
2.32583
2.37981
2.43647
2.49532
2.55601
2.61822
2.68159
2.74573
2.81014
2.87419
2.93664
2.9966
3.05311
3.10517
3.1518
3.1922
3.22583
3.25227
3.27126
3.28302
3.28784
3.28613
3.27839
3.26514
3.24692
3.2243
3.19777
3.16784
3.13496
3.09955
3.06196
3.02254
2.98158
8.01346
3.41845
2.61831
2.34278
2.22839
2.1848
2.17872
2.19494
2.22545
2.26571
2.31296
2.36546
2.42212
2.48218
2.54515
2.61062
2.67821
2.74749
2.81791
2.88876
2.95905
3.02706
3.09153
3.15115
3.20475
3.25102
3.28907
3.31866
3.33975
3.35256
3.35756
3.35533
3.34655
3.33192
3.31215
3.28791
3.25983
3.22847
3.19436
3.15793
3.11957
3.07963
3.03839
2.99607
7.95974
3.4448
2.65059
2.37366
2.25706
2.21162
2.20436
2.2201
2.25088
2.29213
2.34111
2.39609
2.45597
2.52004
2.5878
2.65883
2.73272
2.80894
2.88678
2.96536
3.04286
3.1167
3.1851
3.24635
3.29901
3.34206
3.37502
3.39791
3.41117
3.41551
3.41181
3.40102
3.3841
3.36195
3.33541
3.30522
3.27204
3.23642
3.19884
3.15971
3.11934
3.07801
3.03593
2.99327
7.70364
3.4177
2.65572
2.3873
2.27371
2.22971
2.22356
2.24061
2.2731
2.31662
2.36848
2.427
2.49117
2.56035
2.6341
2.71202
2.79363
2.87825
2.96482
3.05175
3.13571
3.21398
3.28397
3.34356
3.39134
3.42674
3.44996
3.4618
3.46345
3.45625
3.44157
3.4207
3.39479
3.36485
3.33174
3.29615
3.25868
3.21979
3.17987
3.13921
3.09803
3.05651
3.01478
2.97292
7.29208
3.35966
2.64503
2.393
2.28773
2.24918
2.24736
2.26838
2.30487
2.3526
2.40905
2.47271
2.54267
2.61841
2.69961
2.7859
2.87675
2.97125
3.06797
3.16276
3.2515
3.33039
3.39624
3.44704
3.48213
3.50214
3.5086
3.50353
3.48909
3.46725
3.43975
3.408
3.37314
3.33607
3.29747
3.25786
3.21765
3.17712
3.13649
3.09589
3.05544
3.01519
2.97517
2.93539
6.81694
3.29671
2.63555
2.40469
2.31207
2.28282
2.28883
2.31705
2.36054
2.41533
2.47909
2.55045
2.62865
2.71329
2.8041
2.90073
3.00246
3.10796
3.21383
3.31301
3.4002
3.47081
3.52195
3.55291
3.56502
3.56102
3.54426
3.51807
3.48529
3.44817
3.40836
3.36706
3.32505
3.2829
3.24093
3.19938
3.15838
3.118
3.07825
3.03915
3.00066
2.96275
2.92536
2.88844
6.26476
3.22026
2.62945
2.42846
2.35503
2.34078
2.35987
2.40026
2.45553
2.52201
2.59757
2.68099
2.77163
2.86913
2.97318
3.08323
3.1981
3.31531
3.42463
3.51874
3.59125
3.63825
3.65909
3.65626
3.6344
3.59886
3.55461
3.50565
3.45482
3.40393
3.35403
3.30567
3.25906
3.21421
3.17106
3.12948
3.08932
3.05046
3.01275
2.97606
2.94027
2.90528
2.87098
2.83728
5.65706
3.12649
2.62701
2.46833
2.42401
2.43364
2.47413
2.53459
2.60916
2.6945
2.78868
2.89059
2.99958
3.11521
3.23684
3.3633
3.49248
3.61212
3.71092
3.78076
3.81685
3.81908
3.79188
3.74257
3.6793
3.60924
3.53776
3.46827
3.40262
3.3415
3.28495
3.23263
3.18407
3.13874
3.09618
3.05597
3.01775
2.98121
2.9461
2.91221
2.87938
2.84744
2.81628
2.78577
5.02715
3.01434
2.6304
2.53218
2.53268
2.58057
2.65573
2.74846
2.85347
2.96772
3.08943
3.21748
3.35106
3.48923
3.63051
3.77247
3.9013
4
4.05916
4.07392
4.04575
3.9821
3.89399
3.79299
3.68879
3.58819
3.49502
3.41086
3.33578
3.26906
3.2096
3.15624
3.10793
3.06373
3.0229
2.98481
2.94897
2.915
2.88257
2.85145
2.82142
2.79233
2.76405
2.73646
4.41452
2.88872
2.65355
2.64602
2.71782
2.8272
2.95719
3.09931
3.24889
3.40324
3.56068
3.71986
3.87934
4.03716
4.1902
4.3215
4.40849
4.44181
4.41838
4.34316
4.22804
4.08854
3.93985
3.79397
3.65867
3.53777
3.43214
3.34092
3.26236
3.19444
3.13521
3.08299
3.03634
2.99415
2.9555
2.9197
2.88622
2.85464
2.82462
2.79592
2.76832
2.74169
2.71588
2.69079
3.86458
2.77565
2.74954
2.8884
3.07642
3.28241
3.49362
3.70354
3.90864
4.10704
4.2973
4.47761
4.64537
4.79773
4.90994
4.95851
4.93745
4.84883
4.70355
4.51917
4.31566
4.11098
3.9183
3.74524
3.59473
3.4664
3.35809
3.26685
3.18967
3.12378
3.06685
3.01696
2.97261
2.93263
2.89612
2.8624
2.83094
2.80133
2.77328
2.74653
2.72089
2.69622
2.67241
2.64937
3.43146
2.78008
3.08981
3.47818
3.85304
4.19735
4.50772
4.78357
5.02567
5.23583
5.41448
5.56001
5.66913
5.70731
5.6629
5.53876
5.34576
5.10222
4.83072
4.55358
4.28898
4.04885
3.83893
3.66015
3.51032
3.38573
3.28221
3.19579
3.12297
3.06086
3.00713
2.95996
2.91793
2.87997
2.84527
2.8132
2.7833
2.75519
2.7286
2.70331
2.67914
2.65597
2.6337
2.61226
3.16588
3.27584
4.20703
5.02268
5.65295
6.11819
6.45301
6.6834
6.8284
6.90633
6.9256
6.86806
6.71886
6.49037
6.19625
5.85517
5.48924
5.12097
4.76985
4.44983
4.16851
3.9279
3.72604
3.55863
3.42048
3.30641
3.2117
3.13235
3.06506
3.00722
2.95678
2.91215
2.87213
2.83579
2.80245
2.77158
2.74276
2.71568
2.6901
2.66582
2.64269
2.6206
2.59946
2.57922
3.32059
5.83627
7.78453
9.04172
9.65564
9.81845
9.72048
9.47302
9.13537
8.73329
8.27843
7.79288
7.28759
6.77509
6.26917
5.7841
5.3329
4.92546
4.56738
4.25984
4.00044
3.78438
3.60575
3.45842
3.33665
3.23543
3.15053
3.07852
3.01666
2.96278
2.91523
2.87271
2.83425
2.7991
2.76669
2.73658
2.70844
2.68199
2.65703
2.6334
2.61095
2.58958
2.56923
2.54985
5.95084
13.659
15.6737
15.6378
14.7051
13.4973
12.2851
11.1655
10.1594
9.25798
8.44549
7.70966
7.04166
6.43674
5.89301
5.40993
4.98674
4.6214
4.31027
4.04825
3.82937
3.64736
3.49615
3.37023
3.26478
3.17576
3.09985
3.03436
2.97716
2.92659
2.88135
2.84044
2.80309
2.76872
2.73686
2.70717
2.67937
2.65325
2.62862
2.60533
2.58327
2.56235
2.54251
2.52372
18.9424
15.9385
14.3216
13.1995
12.2292
11.3114
10.429
9.59033
8.8058
8.0807
7.41572
6.80969
6.2609
5.76778
5.32883
4.94227
4.60561
4.31549
4.06777
3.85769
3.68031
3.53073
3.40441
3.29728
3.20583
3.12709
3.05862
2.99845
2.94499
2.897
2.85349
2.81372
2.77709
2.74315
2.71154
2.68199
2.65428
2.62823
2.60368
2.58051
2.55861
2.53791
2.51835
2.49991
9.04334
8.57553
8.25969
8.05083
7.8843
7.70361
7.47504
7.19153
6.86334
6.50711
6.13944
5.77433
5.42254
5.09178
4.78711
4.51135
4.26545
4.04886
3.85991
3.69617
3.55482
3.43291
3.32758
3.23618
3.15637
3.08614
3.0238
2.96796
2.9175
2.87152
2.82931
2.79032
2.75411
2.72035
2.68876
2.65914
2.63132
2.60514
2.58049
2.55726
2.53534
2.51469
2.49524
2.47697
6.7736
6.54113
6.34151
6.18049
6.05067
5.93649
5.8202
5.68832
5.53446
5.35853
5.16483
4.95988
4.7508
4.54416
4.34537
4.15839
3.98577
3.82877
3.68756
3.56157
3.44967
3.35045
3.2624
3.18399
3.11382
3.05064
2.99336
2.94108
2.89304
2.84863
2.80738
2.7689
2.73288
2.6991
2.66736
2.6375
2.60941
2.58297
2.55808
2.53464
2.51259
2.49184
2.47238
2.45415
5.91881
5.73789
5.56996
5.41866
5.28424
5.16359
5.05106
4.94039
4.82652
4.70641
4.57925
4.44609
4.30919
4.17144
4.03578
3.90477
3.7804
3.66401
3.5563
3.45742
3.3671
3.28479
3.20978
3.14128
3.07853
3.02078
2.9674
2.91782
2.87157
2.82828
2.78763
2.74938
2.71334
2.67935
2.64729
2.61705
2.58856
2.56172
2.53646
2.5127
2.49038
2.46943
2.44982
2.43152
5.51013
5.34823
5.1948
5.05121
4.91803
4.79473
4.67964
4.57041
4.46458
4.36008
4.25561
4.15068
4.04554
3.94097
3.83804
3.73791
3.64158
3.54986
3.46324
3.38198
3.30605
3.23527
3.16931
3.10778
3.05027
2.99637
2.94573
2.89801
2.85295
2.81031
2.76992
2.73164
2.69536
2.66099
2.62847
2.59773
2.56871
2.54135
2.51561
2.49142
2.46873
2.44747
2.42762
2.40913
5.29056
5.1389
4.9942
4.85692
4.72731
4.60529
4.49036
4.38163
4.27801
4.17842
4.08197
3.98803
3.8963
3.80678
3.71965
3.63524
3.55389
3.47588
3.40143
3.33064
3.26349
3.19988
3.13964
3.08255
3.02839
2.97694
2.92798
2.88135
2.83689
2.79448
2.75404
2.71549
2.67879
2.64389
2.61078
2.57941
2.54977
2.52181
2.49549
2.47078
2.44761
2.42596
2.40576
2.387
5.16479
5.02032
4.88199
4.74992
4.62422
4.50485
4.39162
4.28417
4.18202
4.08461
3.99141
3.90195
3.81588
3.73296
3.65307
3.57614
3.50217
3.43117
3.3631
3.29794
3.23559
3.17596
3.1189
3.06428
3.01194
2.96176
2.91361
2.8674
2.82304
2.7805
2.73972
2.70069
2.66341
2.62786
2.59405
2.56197
2.53161
2.50297
2.47601
2.45069
2.42698
2.40485
2.38424
2.36512
5.0897
4.95109
4.818
4.69045
4.56846
4.45199
4.34097
4.23522
4.1345
4.03851
3.94693
3.85945
3.77575
3.6956
3.61876
3.54506
3.47434
3.40646
3.34129
3.2787
3.21855
3.16072
3.10506
3.05146
2.9998
2.94999
2.90195
2.85562
2.81097
2.76798
2.72664
2.68696
2.64896
2.61266
2.57807
2.54521
2.51409
2.4847
2.45703
2.43106
2.40675
2.38407
2.36298
2.34344
5.0433
4.9098
4.78129
4.65775
4.53917
4.42553
4.31676
4.21279
4.11346
4.0186
3.92801
3.84146
3.75873
3.67959
3.60381
3.5312
3.46155
3.39468
3.33041
3.26858
3.20902
3.15159
3.09616
3.0426
2.99082
2.94073
2.89229
2.84545
2.80019
2.75652
2.71444
2.67398
2.63517
2.59803
2.56261
2.52892
2.49699
2.46681
2.4384
2.41173
2.38677
2.3635
2.34189
2.32188
5.01352
4.88458
4.76015
4.64021
4.52473
4.4137
4.30708
4.20479
4.10676
4.01287
3.92297
3.83691
3.7545
3.67557
3.59991
3.52734
3.45766
3.39069
3.32624
3.26415
3.20424
3.14639
3.09045
3.03631
2.98389
2.9331
2.88391
2.83628
2.7902
2.74568
2.70274
2.6614
2.6217
2.58369
2.54739
2.51285
2.48008
2.4491
2.41992
2.39252
2.36689
2.343
2.32082
2.30031
4.9935
4.8686
4.74779
4.63105
4.51836
4.40969
4.30501
4.20428
4.10742
4.01436
3.92498
3.83918
3.75681
3.67772
3.60175
3.52873
3.45849
3.39087
3.3257
3.26281
3.20207
3.14333
3.08648
3.0314
2.97803
2.92628
2.87612
2.82753
2.78049
2.73502
2.69113
2.64886
2.60824
2.56932
2.53213
2.49672
2.46311
2.43132
2.40136
2.37322
2.34691
2.32238
2.29962
2.27858
4.9804
4.85872
4.74081
4.62665
4.51622
4.40947
4.30639
4.20692
4.11102
4.01862
3.92963
3.84396
3.7615
3.68211
3.60568
3.53205
3.46108
3.39263
3.32654
3.26269
3.20093
3.14115
3.08324
3.02711
2.97268
2.91989
2.86871
2.81912
2.7711
2.72466
2.67984
2.63665
2.59515
2.55535
2.51732
2.48108
2.44667
2.41411
2.38341
2.35458
2.3276
2.30247
2.27914
2.25759
4.9704
4.85148
4.73607
4.62412
4.51562
4.41052
4.3088
4.21042
4.11533
4.02347
3.93477
3.84915
3.76653
3.68679
3.60983
3.53554
3.46378
3.39444
3.32739
3.26251
3.19969
3.13882
3.07982
3.0226
2.96709
2.91325
2.86103
2.81043
2.76143
2.71405
2.66831
2.62423
2.58186
2.54122
2.50237
2.46534
2.43016
2.39685
2.36545
2.33594
2.30832
2.28259
2.25871
2.23664
4.96155
4.8452
4.7321
4.62221
4.5155
4.41193
4.31147
4.21408
4.11971
4.02831
3.93982
3.85418
3.77131
3.69113
3.61356
3.53849
3.46583
3.39547
3.32733
3.2613
3.19728
3.1352
3.07497
3.01653
2.95982
2.9048
2.85145
2.79973
2.74967
2.70125
2.65451
2.60947
2.56617
2.52463
2.48491
2.44704
2.41105
2.37697
2.34482
2.3146
2.28631
2.25995
2.23549
2.21289
4.95369
4.83951
4.72836
4.6202
4.51498
4.41268
4.31324
4.21664
4.12281
4.03173
3.94332
3.85755
3.77434
3.69363
3.61535
3.53943
3.46578
3.39434
3.32501
3.25774
3.19244
3.12904
3.0675
3.00774
2.94974
2.89345
2.83887
2.78596
2.73475
2.68523
2.63742
2.59136
2.54707
2.50459
2.46396
2.42522
2.38839
2.3535
2.32058
2.28963
2.26065
2.23364
2.20859
4.9466
4.83397
4.7242
4.61726
4.51308
4.41163
4.31286
4.21672
4.12317
4.03216
3.94364
3.85755
3.77386
3.6925
3.61342
3.53655
3.46185
3.38925
3.31868
3.25011
3.18346
3.1187
3.05577
2.99464
2.93528
2.87767
2.82178
2.76763
2.7152
2.66452
2.6156
2.56847
2.52316
2.47971
2.43814
2.3985
2.36082
2.32513
2.29143
2.25975
2.23008
2.20241
2.17673
4.93967
4.82783
4.71875
4.61237
4.50864
4.4075
4.3089
4.21279
4.11911
4.02783
3.93889
3.85225
3.76785
3.68566
3.60562
3.52769
3.45182
3.37797
3.3061
3.23615
3.1681
3.10192
3.03756
2.97501
2.91424
2.85525
2.79802
2.74257
2.68889
2.63701
2.58694
2.53871
2.49236
2.44792
2.40541
2.36488
2.32636
2.28987
2.25542
2.22304
2.19271
2.16443
2.13817
4.93168
4.81982
4.71064
4.60409
4.5001
4.39861
4.29957
4.20291
4.1086
4.01657
3.92678
3.83919
3.75375
3.67042
3.58916
3.50994
3.43271
3.35744
3.2841
3.21266
3.1431
3.07539
3.00951
2.94545
2.88321
2.82277
2.76414
2.70734
2.65236
2.59924
2.548
2.49866
2.45126
2.40583
2.3624
2.32101
2.28168
2.24445
2.20931
2.17629
2.14539
2.11658
2.08985
4.9212
4.80836
4.69816
4.59051
4.48536
4.38265
4.28233
4.18433
4.08861
3.99512
3.90381
3.81466
3.7276
3.64261
3.55966
3.47871
3.39973
3.3227
3.2476
3.17439
3.10308
3.03364
2.96606
2.90035
2.8365
2.77451
2.7144
2.65618
2.59987
2.54548
2.49306
2.44262
2.39421
2.34784
2.30357
2.26141
2.22139
2.18353
2.14786
2.11436
2.08304
2.05388
2.02685
4.91137
4.79621
4.68365
4.57363
4.46609
4.36097
4.25823
4.15782
4.0597
3.96383
3.87015
3.77865
3.68928
3.60201
3.51681
3.43366
3.35252
3.27339
3.19625
3.12106
3.04784
2.97656
2.90723
2.83984
2.7744
2.71092
2.64941
2.58989
2.53238
2.4769
2.42348
2.37216
2.32296
2.27592
2.23106
2.18842
2.14801
2.10986
2.07396
2.04033
2.00894
1.97977
1.95279
4.9068
4.78832
4.67248
4.55923
4.44853
4.34034
4.2346
4.13129
4.03035
3.93176
3.83547
3.74144
3.64966
3.56008
3.47268
3.38743
3.30431
3.2233
3.14437
3.06752
2.99272
2.91999
2.8493
2.78066
2.71407
2.64955
2.5871
2.52674
2.46849
2.41238
2.35843
2.30667
2.25713
2.20983
2.1648
2.12206
2.08164
2.04354
2.00776
1.9743
1.94313
1.91422
1.88753
4.90837
4.78511
4.66469
4.54706
4.43219
4.32002
4.21052
4.10365
3.99936
3.89761
3.79836
3.70158
3.60722
3.51525
3.42563
3.33833
3.25332
3.17058
3.09008
3.01179
2.93571
2.86181
2.79009
2.72055
2.65318
2.58799
2.52498
2.46418
2.40558
2.34922
2.29511
2.24329
2.19376
2.14655
2.10169
2.05919
2.01906
1.98131
1.94592
1.91288
1.88217
1.85373
1.82753
4.91806
4.78863
4.66243
4.53941
4.4195
4.30267
4.18885
4.07799
3.97003
3.86492
3.76261
3.66302
3.56612
3.47186
3.38017
3.29103
3.20438
3.12018
3.0384
2.959
2.88197
2.80726
2.73488
2.66479
2.597
2.5315
2.4683
2.40739
2.34878
2.2925
2.23855
2.18695
2.13773
2.09088
2.04644
2.0044
1.96477
1.92755
1.89272
1.86026
1.83013
1.80229
1.77667
4.94083
4.80415
4.6713
4.54219
4.41674
4.29487
4.17648
4.06149
3.94982
3.84137
3.73607
3.63384
3.53459
3.43824
3.34474
3.25402
3.166
3.08063
2.99787
2.91765
2.83995
2.76472
2.69194
2.62158
2.55361
2.48804
2.42485
2.36405
2.30562
2.24959
2.19595
2.14472
2.09591
2.04953
2.00558
1.96407
1.92499
1.88833
1.85407
1.82218
1.79262
1.76533
1.74025
4.98961
4.845
4.705
4.56947
4.43826
4.31122
4.18821
4.06911
3.95378
3.84209
3.73392
3.62915
3.52768
3.4294
3.33421
3.24203
3.15275
3.06632
2.98265
2.90168
2.82336
2.74763
2.67446
2.6038
2.53564
2.46995
2.40672
2.34594
2.28759
2.23169
2.17824
2.12724
2.07869
2.03259
1.98896
1.94778
1.90905
1.87274
1.83884
1.8073
1.77808
1.75112
1.72636
5.09509
4.94202
4.79445
4.65213
4.51484
4.38236
4.25448
4.13101
4.01176
3.89655
3.78522
3.67763
3.57361
3.47304
3.37579
3.28175
3.1908
3.10285
3.01781
2.93561
2.85616
2.77942
2.70532
2.63383
2.56491
2.49852
2.43466
2.37331
2.31445
2.25808
2.20421
2.15282
2.10392
2.05752
2.01359
1.97215
1.93316
1.89662
1.86249
1.83074
1.80131
1.77415
1.74919
5.33062
5.16769
5.01115
4.86066
4.71587
4.5765
4.44227
4.31292
4.18821
4.06793
3.95187
3.83983
3.73165
3.62716
3.5262
3.42864
3.33436
3.24322
3.15514
3.07002
2.98777
2.90833
2.83164
2.75765
2.68631
2.6176
2.55149
2.48796
2.42701
2.36861
2.31278
2.2595
2.20877
2.1606
2.11496
2.07186
2.03127
1.99317
1.95754
1.92434
1.89352
1.86503
1.8388
5.90084
5.72271
5.55183
5.3877
5.22991
5.07812
4.93201
4.79128
4.65567
4.5249
4.39875
4.27699
4.15942
4.04583
3.93605
3.82993
3.72731
3.62806
3.53207
3.43922
3.34944
3.26264
3.17876
3.09774
3.01954
2.94413
2.87148
2.80157
2.73439
2.66994
2.6082
2.54917
2.49286
2.43925
2.38835
2.34013
2.2946
2.25173
2.21149
2.17387
2.13882
2.1063
2.07626
7.6366
7.41989
7.21094
7.00941
6.8151
6.62779
6.44717
6.27293
6.10475
5.94233
5.78537
5.63359
5.48672
5.34452
5.20678
5.07328
4.94386
4.81836
4.69663
4.57856
4.46404
4.35299
4.24534
4.14104
4.04003
3.9423
3.84782
3.75658
3.66858
3.58382
3.5023
3.42404
3.34904
3.27732
3.20889
3.14375
3.08192
3.02339
2.96818
2.91628
2.86767
2.82235
2.7803
17.6396
17.1669
16.7093
16.2666
15.8384
15.424
15.0227
14.6336
14.256
13.8891
13.5323
13.1851
12.8468
12.517
12.1954
11.8815
11.5752
11.2761
10.9842
10.6994
10.4215
10.1506
9.88679
9.63006
9.38056
9.13843
8.90385
8.67701
8.45811
8.24738
8.04502
7.85123
7.66622
7.49015
7.32319
7.16547
7.0171
6.87813
6.74862
6.62856
6.51791
6.4166
6.3245
)
;

boundaryField
{
    inlet
    {
        type            fixedValue;
        value           uniform 14.855;
    }
    outlet
    {
        type            zeroGradient;
    }
    upperWall
    {
        Cmu             0.09;
        kappa           0.41;
        E               9.8;
        type            epsilonWallFunction;
        value           nonuniform List<scalar> 
61
(
251.827
137.354
90.7672
67.1
53.2643
44.4637
38.4933
34.2029
30.9611
28.4092
26.3343
24.6046
23.1346
21.8661
20.7583
19.7811
18.9125
18.1382
17.6396
17.1669
16.7093
16.2666
15.8384
15.424
15.0227
14.6336
14.256
13.8891
13.5323
13.1851
12.8468
12.517
12.1954
11.8815
11.5752
11.2761
10.9842
10.6994
10.4215
10.1506
9.88679
9.63006
9.38056
9.13843
8.90385
8.67701
8.45811
8.24738
8.04502
7.85123
7.66622
7.49015
7.32319
7.16547
7.0171
6.87813
6.74862
6.62856
6.51791
6.4166
6.3245
)
;
    }
    lowerWall
    {
        Cmu             0.09;
        kappa           0.41;
        E               9.8;
        type            epsilonWallFunction;
        value           nonuniform List<scalar> 
89
(
307.542
159.145
103.245
76.2607
61.0187
51.5331
45.1517
40.5577
37.068
34.3121
32.0758
30.2277
28.6932
27.4109
26.3439
25.4753
24.8518
24.6305
0.22351
1.18998
2.09651
2.91186
3.66453
4.37191
5.04279
5.67812
6.27148
6.8102
7.27639
7.64831
7.90205
8.01346
7.95974
7.70364
7.29208
6.81694
6.26476
5.65706
5.02715
4.41452
3.86458
3.43146
3.16588
3.32059
5.95084
0.22351
0.442335
0.719917
0.975118
1.2114
1.43378
1.6454
1.84827
2.04389
2.23352
2.41826
2.59902
2.77652
2.95134
3.12387
3.29437
3.46305
3.63009
3.79582
3.96092
4.12667
4.29553
4.47213
4.65197
4.82411
4.98745
5.14121
5.28449
5.41642
5.53613
5.64282
5.73581
5.81454
5.87863
5.92792
5.96251
5.98288
5.98997
5.98548
5.97207
5.95362
5.93438
5.91559
5.89199
)
;
    }
    frontAndBack
    {
        type            empty;
    }
    procBoundary2to3
    {
        type            processor;
        value           nonuniform List<scalar> 
58
(
5.86027
2.8511
2.46027
2.40331
2.43838
2.50646
2.58573
2.66601
2.74171
2.80925
2.86599
2.90986
2.93917
2.95274
2.94998
2.93079
2.89559
2.85165
2.80375
2.75543
2.70902
2.66584
2.62646
2.59098
2.55919
2.53075
2.50527
2.4819
2.45922
2.43655
2.41395
2.39149
2.36919
2.34706
2.32507
2.30314
2.28116
2.25898
2.23754
2.21614
2.19187
2.18536
2.18536
2.15293
2.11385
2.06511
2.00187
1.92792
1.86298
1.80348
1.75319
1.7173
1.7037
1.72635
1.81476
2.04864
2.74149
6.24144
)
;
    }
}


// ************************************************************************* //
