/*--------------------------------*- C++ -*----------------------------------*\
  =========                 |
  \\      /  F ield         | OpenFOAM: The Open Source CFD Toolbox
   \\    /   O peration     | Website:  https://openfoam.org
    \\  /    A nd           | Version:  6
     \\/     M anipulation  |
\*---------------------------------------------------------------------------*/
FoamFile
{
    version     2.0;
    format      ascii;
    class       volScalarField;
    location    "0.05";
    object      k;
}
// * * * * * * * * * * * * * * * * * * * * * * * * * * * * * * * * * * * * * //

dimensions      [0 2 -2 0 0 0 0];

internalField   nonuniform List<scalar> 
3032
(
0.246434
0.15884
0.119034
0.0972639
0.0838264
0.0748939
0.0685724
0.0638343
0.0601132
0.0570899
0.0545751
0.0524504
0.0506485
0.0491157
0.0478183
0.0467434
0.0459526
0.0456406
0.339493
0.260118
0.208295
0.175391
0.153437
0.137926
0.126342
0.117277
0.109938
0.103855
0.0987282
0.0943534
0.0905948
0.0873477
0.0845408
0.0821223
0.0801023
0.0784664
0.347488
0.292341
0.248557
0.216302
0.192412
0.174322
0.160231
0.148944
0.139688
0.131956
0.125406
0.119798
0.114962
0.110762
0.10711
0.103941
0.101229
0.098985
0.351366
0.309043
0.271933
0.242029
0.218325
0.199463
0.184251
0.171782
0.161398
0.152633
0.145152
0.138716
0.133132
0.128264
0.124011
0.120298
0.117087
0.114383
0.353916
0.319276
0.287245
0.259924
0.237219
0.218459
0.202892
0.189857
0.178833
0.169422
0.161321
0.154301
0.148176
0.14281
0.138099
0.133964
0.130359
0.127287
0.355677
0.326043
0.297913
0.273014
0.251603
0.23339
0.217915
0.204715
0.193388
0.183608
0.175114
0.167697
0.161185
0.155449
0.150388
0.145923
0.142004
0.138634
0.356918
0.330722
0.305613
0.282857
0.262799
0.245349
0.230232
0.217128
0.205736
0.195794
0.187085
0.179417
0.172644
0.166644
0.161323
0.156604
0.152439
0.148829
0.357803
0.334039
0.311279
0.290365
0.271608
0.255006
0.240396
0.227559
0.216269
0.20632
0.197528
0.189732
0.182801
0.176629
0.171125
0.166219
0.161867
0.158068
0.358435
0.336415
0.315482
0.296121
0.278557
0.262811
0.248783
0.236317
0.225244
0.2154
0.206629
0.1988
0.191799
0.185529
0.17991
0.174877
0.17039
0.166449
0.358883
0.338117
0.318594
0.300522
0.284019
0.269092
0.255667
0.243629
0.232846
0.223183
0.214514
0.206728
0.199726
0.193423
0.187746
0.182637
0.17806
0.174017
0.359197
0.339325
0.320878
0.303854
0.288269
0.274095
0.261261
0.249672
0.239219
0.229789
0.221279
0.213593
0.206645
0.200359
0.194672
0.189531
0.184905
0.180796
0.359395
0.340101
0.322392
0.306134
0.291258
0.277696
0.26537
0.254187
0.244051
0.234863
0.226533
0.218976
0.212116
0.205885
0.200225
0.19509
0.190451
0.186314
0.359537
0.340659
0.323513
0.307868
0.293585
0.28056
0.268695
0.257896
0.248072
0.239133
0.230997
0.223587
0.216835
0.21068
0.205069
0.19996
0.195329
0.19118
0.359645
0.341092
0.324407
0.309293
0.295553
0.283039
0.271634
0.261234
0.251747
0.243087
0.235178
0.227949
0.221338
0.215288
0.209753
0.204694
0.20009
0.195946
0.359721
0.341399
0.325059
0.310367
0.297082
0.28502
0.274039
0.264024
0.254875
0.246506
0.238842
0.231815
0.225368
0.219448
0.214012
0.209025
0.204468
0.200346
0.359768
0.341593
0.325484
0.311091
0.298146
0.286441
0.275813
0.266131
0.257287
0.249189
0.241762
0.234938
0.22866
0.222879
0.217553
0.21265
0.208152
0.204064
0.359794
0.341699
0.325722
0.31151
0.298781
0.287314
0.276933
0.267495
0.258881
0.250997
0.24376
0.237103
0.230968
0.225306
0.220076
0.215247
0.210803
0.206745
0.359804
0.341742
0.325819
0.311683
0.29905
0.287694
0.27743
0.26811
0.259612
0.251835
0.244694
0.238121
0.232056
0.226449
0.22126
0.216459
0.212028
0.20797
0.359801
0.341728
0.325786
0.311622
0.298953
0.287553
0.277239
0.267864
0.259307
0.251468
0.244263
0.237623
0.231489
0.225812
0.220551
0.215677
0.211172
0.20704
0.359775
0.341619
0.325538
0.31118
0.29827
0.286595
0.275987
0.266309
0.257451
0.249319
0.241835
0.234933
0.228553
0.222648
0.217176
0.212107
0.207424
0.203132
0.359715
0.341372
0.324996
0.310252
0.296898
0.28475
0.273667
0.263529
0.254239
0.245708
0.237862
0.230634
0.223963
0.2178
0.2121
0.206829
0.201968
0.197524
0.359585
0.340846
0.323886
0.308442
0.294342
0.281459
0.269685
0.258922
0.249077
0.240064
0.231803
0.22422
0.21725
0.210834
0.204921
0.199472
0.194464
0.189902
0.359328
0.339827
0.321838
0.305265
0.290063
0.276176
0.263527
0.252025
0.241569
0.232059
0.223398
0.215498
0.20828
0.201671
0.195611
0.190052
0.184963
0.180349
0.358859
0.338001
0.318346
0.300121
0.283444
0.268324
0.254688
0.242419
0.231381
0.221441
0.212471
0.204358
0.197
0.190308
0.184209
0.178642
0.17357
0.168993
0.358049
0.3349
0.312724
0.292246
0.273754
0.257261
0.242637
0.229686
0.218203
0.207994
0.198886
0.190728
0.183393
0.176772
0.170776
0.165333
0.160395
0.155961
0.356704
0.32979
0.303939
0.28056
0.260004
0.242155
0.226709
0.21332
0.201661
0.191452
0.182461
0.174495
0.167397
0.161039
0.155316
0.150148
0.145478
0.141301
0.354514
0.321316
0.290198
0.263285
0.24064
0.221733
0.205901
0.192536
0.181144
0.171337
0.162816
0.155347
0.148749
0.14288
0.137627
0.132903
0.128647
0.12485
0.350895
0.306573
0.267865
0.237008
0.212789
0.193669
0.178333
0.165795
0.155355
0.14652
0.13894
0.132358
0.126585
0.121477
0.116924
0.112842
0.109169
0.105892
0.342433
0.2759
0.227202
0.193428
0.169667
0.152387
0.139294
0.128974
0.120574
0.113568
0.107614
0.102476
0.0979888
0.0940307
0.0905101
0.0873571
0.0845197
0.0819781
0.259299
0.173099
0.131327
0.107372
0.0920534
0.0816139
0.0741363
0.0685223
0.0641239
0.0605529
0.0575704
0.0550243
0.0528134
0.0508681
0.0491384
0.0475874
0.0461873
0.0449212
0.00268481
0.00703125
0.0097731
0.0119809
0.0138558
0.0155116
0.0170103
0.018389
0.0196727
0.0208802
0.0220257
0.0231201
0.0241719
0.0251875
0.0261715
0.0271273
0.0280575
0.028964
0.0298493
0.0307167
0.0315721
0.0324252
0.0332917
0.0341926
0.0350519
0.0358588
0.0366115
0.0373079
0.0379454
0.0385216
0.0390339
0.0394803
0.0398589
0.0401687
0.0404091
0.0405804
0.040684
0.0407229
0.0407022
0.0406304
0.0405207
0.0403921
0.0402641
0.040139
0.00830876
0.0181978
0.0237155
0.0280744
0.0318464
0.0352094
0.0382516
0.0410324
0.0435986
0.0459892
0.0482374
0.0503712
0.052414
0.0543845
0.056298
0.0581659
0.0599966
0.0617953
0.0635651
0.0653066
0.0670184
0.0686971
0.0703376
0.0719208
0.0734423
0.0749022
0.076296
0.0776177
0.0788602
0.0800163
0.0810791
0.0820416
0.0828979
0.0836426
0.0842714
0.0847812
0.08517
0.0854373
0.0855841
0.0856126
0.0855258
0.0853278
0.085023
0.0846233
0.0121882
0.0258971
0.0331376
0.038618
0.0432821
0.047425
0.0511746
0.0546029
0.0577612
0.0606914
0.0634297
0.0660079
0.0684538
0.0707908
0.073039
0.0752146
0.0773304
0.0793963
0.0814191
0.0834032
0.0853505
0.087261
0.0891329
0.0909534
0.092719
0.0944245
0.0960631
0.0976264
0.0991055
0.100491
0.101773
0.102943
0.103993
0.104914
0.1057
0.106346
0.106848
0.107203
0.107412
0.107475
0.107393
0.10717
0.106812
0.10633
0.015202
0.0319063
0.0405181
0.0468486
0.0521371
0.0567878
0.0609781
0.0648022
0.0683206
0.071579
0.0746156
0.0774635
0.0801522
0.0827076
0.0851522
0.0875053
0.089783
0.0919982
0.0941611
0.0962788
0.0983558
0.100394
0.102394
0.104344
0.106242
0.10808
0.109852
0.111548
0.113157
0.11467
0.116075
0.117361
0.118519
0.11954
0.120415
0.121137
0.121703
0.122108
0.122351
0.122432
0.122351
0.122113
0.121726
0.1212
0.0177334
0.0368734
0.0466317
0.0536761
0.0594776
0.064529
0.0690518
0.0731644
0.0769401
0.0804313
0.0836795
0.0867195
0.0895822
0.0922947
0.0948809
0.097362
0.0997558
0.102077
0.104338
0.106548
0.108712
0.110834
0.112915
0.114944
0.11692
0.118837
0.120686
0.122458
0.124142
0.125727
0.127201
0.128552
0.12977
0.130845
0.131767
0.13253
0.133127
0.133555
0.133812
0.133896
0.13381
0.133559
0.13315
0.132593
0.019946
0.0411328
0.0518649
0.0595182
0.0657561
0.0711431
0.0759373
0.0802785
0.084253
0.0879208
0.0913278
0.0945114
0.0975038
0.100333
0.103025
0.1056
0.108079
0.110476
0.112806
0.115078
0.117299
0.119473
0.121601
0.123675
0.125694
0.127652
0.129541
0.131352
0.133074
0.134695
0.136203
0.137586
0.138833
0.139932
0.140874
0.141652
0.14226
0.142694
0.14295
0.143029
0.142933
0.142667
0.14224
0.14166
0.0219217
0.0448569
0.0564207
0.0645914
0.0711981
0.0768658
0.0818829
0.0864074
0.0905372
0.0943396
0.0978649
0.101154
0.10424
0.107152
0.109917
0.112557
0.115092
0.117538
0.11991
0.122218
0.124469
0.126669
0.128817
0.130909
0.132943
0.134915
0.136818
0.138642
0.140377
0.14201
0.143529
0.144921
0.146175
0.147279
0.148225
0.149003
0.149609
0.150038
0.150287
0.150356
0.150248
0.149971
0.14953
0.148935
0.0236976
0.0481281
0.0603992
0.0690029
0.0759133
0.0818079
0.0870015
0.091667
0.0959123
0.099811
0.103418
0.106777
0.109922
0.112886
0.115693
0.118369
0.120932
0.123401
0.125789
0.128108
0.130365
0.132567
0.134712
0.136799
0.138828
0.140795
0.142693
0.144514
0.146245
0.147875
0.149391
0.150779
0.152029
0.153128
0.154068
0.15484
0.155438
0.155858
0.156098
0.156158
0.156044
0.15576
0.155315
0.154714
0.0252812
0.0509719
0.063834
0.0727894
0.0799386
0.0860059
0.0913282
0.0960918
0.100413
0.10437
0.108023
0.111417
0.114589
0.117571
0.120392
0.123073
0.125638
0.128102
0.130482
0.132788
0.135031
0.137214
0.139336
0.141401
0.14341
0.145359
0.147242
0.149048
0.150768
0.152387
0.153894
0.155274
0.156516
0.157608
0.158541
0.159306
0.159898
0.160312
0.160548
0.160608
0.160496
0.160218
0.15978
0.159189
0.0266601
0.0533758
0.0667137
0.0759402
0.0832634
0.0894481
0.0948507
0.0996685
0.104025
0.108003
0.111666
0.115061
0.118227
0.121197
0.124
0.12666
0.129198
0.131634
0.133982
0.136254
0.13846
0.140605
0.14269
0.144722
0.146701
0.148624
0.150486
0.152275
0.153981
0.15559
0.157088
0.158463
0.1597
0.16079
0.161721
0.162487
0.163079
0.163498
0.163743
0.163817
0.163723
0.163467
0.163053
0.16249
0.0278077
0.0553023
0.0689988
0.0784154
0.0858482
0.0920955
0.0975302
0.102359
0.106711
0.110674
0.114311
0.117675
0.120803
0.123731
0.126488
0.129099
0.131586
0.133968
0.136262
0.13848
0.140631
0.142721
0.144757
0.146746
0.148689
0.150584
0.152424
0.154198
0.155894
0.157498
0.158995
0.160372
0.161615
0.162713
0.163652
0.164429
0.165039
0.165481
0.165756
0.165865
0.165811
0.165598
0.165232
0.164718
0.0286876
0.0566999
0.0706351
0.0801617
0.0876415
0.0938993
0.0993212
0.104121
0.108432
0.112345
0.115926
0.119227
0.122288
0.125146
0.127829
0.130365
0.132775
0.135081
0.137298
0.139441
0.141519
0.143539
0.145515
0.147455
0.14936
0.151226
0.153047
0.154811
0.156504
0.158112
0.159621
0.161013
0.162271
0.163389
0.164357
0.16517
0.165823
0.166316
0.166647
0.166817
0.166829
0.166687
0.166394
0.165957
0.0292574
0.0575129
0.0715666
0.0811271
0.0885972
0.09482
0.10019
0.104927
0.109167
0.113001
0.116498
0.11971
0.122679
0.125439
0.128023
0.130458
0.132767
0.134971
0.137088
0.139133
0.141116
0.143054
0.14496
0.146844
0.148707
0.150545
0.152349
0.15411
0.155812
0.157431
0.158957
0.160375
0.161673
0.16284
0.163867
0.164748
0.165478
0.166053
0.166472
0.166736
0.166846
0.166805
0.166616
0.166285
0.0294717
0.0576903
0.0717486
0.0812773
0.0886926
0.0948463
0.100138
0.104788
0.108935
0.112671
0.116064
0.119166
0.122019
0.12466
0.12712
0.129428
0.131608
0.133684
0.135675
0.137596
0.139462
0.141299
0.143121
0.144938
0.146755
0.148561
0.150344
0.152094
0.153799
0.155443
0.15701
0.158486
0.159856
0.161108
0.162232
0.163218
0.164061
0.164757
0.165302
0.165695
0.165938
0.166032
0.16598
0.165785
0.0292834
0.0571923
0.071159
0.0806102
0.0879455
0.094015
0.0992177
0.103774
0.107821
0.111451
0.114729
0.117708
0.12043
0.122931
0.125244
0.127399
0.129422
0.131338
0.133169
0.13493
0.136661
0.138375
0.140088
0.141811
0.143547
0.145294
0.147044
0.148788
0.150513
0.152203
0.15384
0.155409
0.15689
0.158269
0.159532
0.160668
0.161668
0.162525
0.163235
0.163795
0.164206
0.164468
0.164584
0.164555
0.0285953
0.0559451
0.0697609
0.0791241
0.086384
0.0923796
0.0975051
0.101979
0.105934
0.109463
0.112628
0.115478
0.118056
0.120399
0.122539
0.12451
0.126339
0.128055
0.129681
0.131238
0.132781
0.134325
0.135886
0.137475
0.139102
0.14077
0.142478
0.144219
0.145981
0.147746
0.149493
0.151198
0.15284
0.154396
0.155849
0.157182
0.158385
0.159446
0.160362
0.161127
0.16174
0.162202
0.162513
0.162678
0.0275637
0.0540801
0.0677555
0.0770632
0.0842861
0.0902467
0.0953323
0.0997564
0.103649
0.107097
0.110162
0.112892
0.115328
0.117505
0.119457
0.121216
0.122813
0.124277
0.125633
0.126945
0.128241
0.129542
0.13087
0.13225
0.133703
0.135248
0.136891
0.13863
0.14045
0.142326
0.144227
0.14612
0.147972
0.149755
0.151443
0.153015
0.154456
0.155755
0.156903
0.157896
0.158733
0.159412
0.159936
0.160306
0.0263334
0.051747
0.0653525
0.0746932
0.0819619
0.0879637
0.0930793
0.097518
0.101407
0.10483
0.107846
0.110502
0.112835
0.11488
0.116669
0.118234
0.119606
0.120814
0.121902
0.122929
0.123917
0.1249
0.125919
0.127022
0.128255
0.129653
0.131232
0.132986
0.134891
0.136908
0.13899
0.141093
0.143171
0.145187
0.14711
0.148915
0.150584
0.152105
0.153468
0.15467
0.155709
0.156585
0.1573
0.157857
0.0248747
0.049104
0.062695
0.0721647
0.0795739
0.0857041
0.09093
0.0954582
0.0994141
0.102879
0.105911
0.108554
0.110842
0.112808
0.11448
0.115885
0.117051
0.118005
0.118813
0.119501
0.120109
0.120697
0.121342
0.122131
0.123137
0.12441
0.125962
0.127774
0.129801
0.131986
0.134264
0.136574
0.138865
0.141091
0.143218
0.145219
0.147077
0.148779
0.150317
0.151688
0.152891
0.153927
0.154799
0.155509
0.0232309
0.0463026
0.0598979
0.0695731
0.0772098
0.0835544
0.0889734
0.0936707
0.0977704
0.101353
0.104474
0.107173
0.109481
0.111425
0.113025
0.114299
0.115266
0.115965
0.116429
0.116699
0.11685
0.116994
0.11726
0.117772
0.118622
0.119852
0.121455
0.123384
0.125569
0.12793
0.130388
0.132875
0.135333
0.137715
0.139988
0.142126
0.144114
0.145939
0.147597
0.149085
0.150404
0.151554
0.15254
0.153365
0.0214758
0.0435082
0.0571057
0.0670362
0.0749708
0.0816072
0.0872979
0.0922424
0.096562
0.100335
0.103612
0.106429
0.108808
0.110764
0.112305
0.113435
0.114165
0.114517
0.114534
0.114306
0.113973
0.113714
0.113704
0.114083
0.114926
0.116243
0.117988
0.120083
0.122434
0.124947
0.12754
0.13014
0.132694
0.135158
0.137503
0.139707
0.141756
0.143642
0.14536
0.146911
0.148294
0.149513
0.15057
0.151471
0.0197096
0.0409233
0.0545636
0.0647967
0.0730855
0.0800758
0.0861032
0.0913586
0.0959575
0.0999715
0.103444
0.106399
0.108845
0.110779
0.11219
0.113064
0.113405
0.11326
0.112736
0.112006
0.111292
0.110818
0.110762
0.111229
0.112245
0.113768
0.115715
0.117981
0.120465
0.123072
0.125725
0.128359
0.130927
0.133394
0.135736
0.137935
0.13998
0.141866
0.143591
0.145154
0.146556
0.147802
0.148893
0.149835
0.0180679
0.0388459
0.0527052
0.0633274
0.0720218
0.0794062
0.0858044
0.0913953
0.0962812
0.10052
0.104142
0.10715
0.109534
0.11127
0.112323
0.112694
0.112443
0.111703
0.110683
0.10964
0.108829
0.108452
0.108632
0.109399
0.110715
0.112496
0.114635
0.117026
0.119572
0.122193
0.124822
0.127408
0.129914
0.132314
0.134587
0.136722
0.138711
0.140549
0.142235
0.143769
0.145154
0.146392
0.147485
0.148438
0.0167361
0.0378524
0.0522992
0.0634801
0.0726472
0.0804291
0.087153
0.092987
0.0980174
0.102286
0.105805
0.108561
0.110527
0.111671
0.112018
0.111663
0.110774
0.109591
0.108385
0.107418
0.106892
0.106923
0.107542
0.108709
0.110342
0.11234
0.114601
0.117033
0.119556
0.122108
0.124639
0.12711
0.129495
0.131773
0.133931
0.135958
0.137851
0.139606
0.141221
0.142698
0.144037
0.145241
0.146312
0.147254
0.0159092
0.0391653
0.0548812
0.0669663
0.0766336
0.0845879
0.091249
0.0968322
0.101444
0.105138
0.107932
0.109818
0.110818
0.111014
0.110541
0.109592
0.108409
0.107248
0.106341
0.105862
0.105906
0.106492
0.107584
0.109106
0.11097
0.113085
0.115369
0.117752
0.120175
0.122593
0.124971
0.127282
0.129505
0.131628
0.13364
0.135534
0.137306
0.138955
0.140478
0.141877
0.143151
0.144304
0.145336
0.14625
0.016484
0.0469435
0.0641504
0.0767828
0.0859159
0.0926784
0.0978785
0.101923
0.104997
0.107193
0.108576
0.109227
0.10924
0.108753
0.107938
0.106994
0.106122
0.105498
0.105251
0.105447
0.106101
0.107181
0.108628
0.110371
0.112337
0.114457
0.116673
0.118934
0.121202
0.123445
0.125637
0.127762
0.129804
0.131755
0.133606
0.135353
0.136993
0.138523
0.139942
0.141251
0.14245
0.143539
0.14452
0.145395
0.0245237
0.0589989
0.0754605
0.0854536
0.0919819
0.0965468
0.0999103
0.10242
0.104233
0.105436
0.106107
0.106331
0.106215
0.105881
0.105471
0.105121
0.104953
0.10506
0.105494
0.10627
0.107372
0.108763
0.110394
0.112209
0.114159
0.116195
0.118277
0.120373
0.122455
0.124502
0.126496
0.128426
0.130282
0.132056
0.133743
0.135339
0.136842
0.13825
0.13956
0.140774
0.141891
0.142911
0.143834
0.144662
0.0494412
0.0571269
0.0667197
0.0760302
0.0838722
0.0899669
0.0944952
0.0977782
0.100116
0.101742
0.102835
0.103538
0.10398
0.10428
0.104549
0.104885
0.105365
0.106042
0.106942
0.108068
0.109404
0.110922
0.112588
0.114364
0.116217
0.118114
0.120027
0.121935
0.123819
0.125665
0.12746
0.129196
0.130867
0.132466
0.133991
0.135437
0.136803
0.138087
0.139287
0.140403
0.141433
0.142379
0.143239
0.144014
0.0783131
0.0792694
0.0812744
0.0841083
0.0874361
0.0908453
0.0939935
0.0966986
0.0989165
0.100682
0.102068
0.103161
0.104052
0.104831
0.105576
0.106357
0.107225
0.108215
0.109344
0.110613
0.112012
0.113522
0.11512
0.116781
0.118482
0.120201
0.121919
0.123623
0.125298
0.126935
0.128526
0.130065
0.131547
0.132969
0.134328
0.13562
0.136845
0.138
0.139084
0.140095
0.141034
0.141898
0.142689
0.143404
0.0979104
0.0972689
0.0970544
0.0972991
0.0979836
0.0990125
0.100244
0.101542
0.102806
0.103981
0.105047
0.106012
0.106905
0.107762
0.108622
0.109521
0.110485
0.111535
0.112676
0.11391
0.115226
0.116613
0.118052
0.119528
0.121024
0.122524
0.124017
0.125491
0.126938
0.128351
0.129725
0.131055
0.132339
0.133573
0.134756
0.135886
0.13696
0.137977
0.138936
0.139835
0.140673
0.141449
0.142161
0.142809
0.112849
0.111626
0.110623
0.109874
0.1094
0.109196
0.109228
0.109446
0.109798
0.110241
0.110745
0.111294
0.111886
0.112524
0.113218
0.113977
0.114812
0.115724
0.116714
0.117776
0.118901
0.120078
0.121292
0.122531
0.123782
0.125034
0.126278
0.127505
0.12871
0.129888
0.131035
0.132148
0.133225
0.134265
0.135265
0.136224
0.13714
0.138012
0.138838
0.139617
0.140347
0.141026
0.141653
0.142227
0.12542
0.123859
0.122448
0.121208
0.120158
0.119308
0.118657
0.118193
0.117898
0.117751
0.117734
0.117832
0.118035
0.118337
0.118734
0.119224
0.119802
0.120465
0.121205
0.122013
0.122879
0.123791
0.124737
0.125706
0.126688
0.127673
0.128653
0.129623
0.130578
0.131514
0.132428
0.13332
0.134186
0.135025
0.135837
0.13662
0.137373
0.138094
0.138781
0.139433
0.140048
0.140624
0.141159
0.141652
0.136498
0.134694
0.133014
0.13147
0.130074
0.128839
0.127769
0.126867
0.126127
0.125543
0.125107
0.124809
0.124641
0.124594
0.124662
0.124837
0.125112
0.125476
0.125922
0.126437
0.12701
0.127632
0.128289
0.128972
0.129673
0.130381
0.131093
0.131801
0.132503
0.133195
0.133876
0.134543
0.135196
0.135834
0.136455
0.137059
0.137645
0.13821
0.138754
0.139274
0.139769
0.140236
0.140673
0.141079
0.146472
0.144478
0.142595
0.140832
0.139197
0.137699
0.136343
0.135135
0.134076
0.133164
0.132396
0.131768
0.131273
0.130904
0.130655
0.130518
0.130483
0.130541
0.130682
0.130894
0.131168
0.131492
0.131856
0.132251
0.132669
0.133103
0.133546
0.133995
0.134446
0.134896
0.135344
0.135789
0.13623
0.136666
0.137097
0.137521
0.137937
0.138344
0.138742
0.139126
0.139497
0.13985
0.140185
0.140498
0.155529
0.153381
0.151337
0.149403
0.147585
0.145888
0.144318
0.14288
0.141575
0.140406
0.13937
0.138466
0.137689
0.137034
0.136496
0.136067
0.135738
0.135501
0.135347
0.135265
0.135246
0.13528
0.135359
0.135473
0.135615
0.13578
0.135962
0.136158
0.136364
0.136578
0.136799
0.137026
0.137259
0.137496
0.137737
0.137981
0.138229
0.138478
0.138727
0.138974
0.139217
0.139454
0.139683
0.1399
0.163761
0.161488
0.159313
0.15724
0.155274
0.153418
0.151676
0.150053
0.148551
0.14717
0.145912
0.144774
0.143753
0.142847
0.142049
0.141355
0.140756
0.140246
0.139816
0.139457
0.139161
0.138921
0.138727
0.138573
0.138453
0.138361
0.138293
0.138246
0.138216
0.138203
0.138204
0.13822
0.138249
0.138292
0.138348
0.138416
0.138496
0.138587
0.138688
0.138797
0.138912
0.13903
0.13915
0.139268
0.171212
0.168838
0.166556
0.16437
0.162281
0.160294
0.15841
0.156634
0.154965
0.153407
0.151958
0.150619
0.149387
0.148259
0.147231
0.146298
0.145455
0.144695
0.144012
0.143398
0.142846
0.14235
0.141902
0.141498
0.141131
0.140797
0.140493
0.140215
0.139961
0.139731
0.139522
0.139335
0.139168
0.139023
0.138899
0.138795
0.138712
0.138648
0.138602
0.138573
0.138559
0.138558
0.138568
0.138586
0.177899
0.175445
0.173078
0.1708
0.168611
0.166514
0.164511
0.162604
0.160795
0.159084
0.157472
0.155957
0.15454
0.153216
0.151984
0.150839
0.149776
0.148791
0.147878
0.147031
0.146245
0.145514
0.144833
0.144197
0.143601
0.143041
0.142516
0.142022
0.141557
0.141122
0.140714
0.140333
0.13998
0.139655
0.139357
0.139087
0.138845
0.138629
0.13844
0.138275
0.138134
0.138015
0.137914
0.137831
0.183366
0.180864
0.17844
0.176097
0.173836
0.171659
0.169567
0.167562
0.165644
0.163815
0.162075
0.160423
0.158858
0.157378
0.155981
0.154663
0.15342
0.15225
0.151146
0.150105
0.149122
0.148193
0.147312
0.146478
0.145685
0.144931
0.144213
0.14353
0.142881
0.142264
0.14168
0.141127
0.140608
0.140121
0.139667
0.139246
0.138859
0.138505
0.138184
0.137894
0.137635
0.137405
0.137201
0.137022
0.18819
0.185647
0.183176
0.180779
0.178456
0.176209
0.17404
0.171948
0.169935
0.168002
0.166148
0.164373
0.162677
0.161056
0.159511
0.158038
0.156634
0.155296
0.154021
0.152804
0.151643
0.150534
0.149474
0.148459
0.147487
0.146555
0.145662
0.144806
0.143987
0.143204
0.142457
0.141746
0.141071
0.140434
0.139835
0.139273
0.13875
0.138266
0.137819
0.137411
0.137039
0.136702
0.136399
0.136126
0.19292
0.190339
0.187823
0.185373
0.18299
0.180674
0.178426
0.176248
0.174139
0.1721
0.170131
0.168231
0.166401
0.164638
0.162943
0.161312
0.159743
0.158235
0.156785
0.15539
0.154048
0.152756
0.151511
0.150312
0.149156
0.148042
0.146968
0.145934
0.14494
0.143985
0.143069
0.142193
0.141358
0.140564
0.139813
0.139104
0.138439
0.137817
0.13724
0.136706
0.136215
0.135765
0.135356
0.134985
0.197295
0.194683
0.192127
0.18963
0.18719
0.184809
0.182487
0.180225
0.178023
0.175882
0.173801
0.17178
0.169819
0.167917
0.166073
0.164287
0.162557
0.160881
0.159258
0.157686
0.156163
0.154688
0.153259
0.151875
0.150535
0.149237
0.147982
0.146768
0.145596
0.144466
0.143379
0.142336
0.141336
0.140382
0.139475
0.138615
0.137803
0.13704
0.136327
0.135663
0.135048
0.134481
0.133961
0.200999
0.198362
0.195774
0.193235
0.190745
0.188304
0.185914
0.183575
0.181286
0.179048
0.176861
0.174725
0.17264
0.170605
0.168621
0.166687
0.164801
0.162964
0.161175
0.159432
0.157735
0.156083
0.154475
0.152911
0.15139
0.149913
0.148478
0.147087
0.14574
0.144437
0.14318
0.141969
0.140806
0.139692
0.138629
0.137618
0.136659
0.135754
0.134904
0.134109
0.133369
0.132683
0.132051
0.20367
0.20101
0.19839
0.195812
0.193275
0.190778
0.188324
0.185911
0.18354
0.181211
0.178925
0.176681
0.17448
0.172322
0.170206
0.168133
0.166102
0.164115
0.162169
0.160266
0.158405
0.156586
0.154809
0.153074
0.151382
0.149733
0.148128
0.146567
0.145051
0.143582
0.142161
0.14079
0.139469
0.138201
0.136988
0.13583
0.13473
0.133688
0.132705
0.131784
0.130922
0.130121
0.129381
0.204867
0.202171
0.199509
0.196881
0.194288
0.191729
0.189204
0.186714
0.184259
0.181839
0.179455
0.177106
0.174794
0.172517
0.170278
0.168075
0.165909
0.163782
0.161692
0.159641
0.157629
0.155656
0.153724
0.151832
0.149983
0.148177
0.146414
0.144697
0.143027
0.141406
0.139835
0.138315
0.13685
0.135441
0.134089
0.132797
0.131567
0.1304
0.129297
0.12826
0.127288
0.126383
0.125544
0.203866
0.201096
0.198356
0.195647
0.192969
0.190322
0.187705
0.185119
0.182565
0.180042
0.17755
0.175091
0.172665
0.170271
0.167911
0.165585
0.163294
0.161038
0.158818
0.156635
0.154489
0.152382
0.150315
0.148289
0.146304
0.144364
0.142468
0.14062
0.13882
0.13707
0.135374
0.133732
0.132147
0.130622
0.129157
0.127757
0.126421
0.125153
0.123954
0.122825
0.121767
0.12078
0.119865
0.199834
0.196945
0.19409
0.191267
0.188477
0.185719
0.182994
0.180302
0.177643
0.175018
0.172425
0.169867
0.167342
0.164851
0.162396
0.159975
0.157591
0.155243
0.152932
0.150659
0.148425
0.146231
0.144078
0.141967
0.139901
0.137879
0.135905
0.13398
0.132106
0.130285
0.128518
0.12681
0.125161
0.123574
0.122052
0.120596
0.11921
0.117893
0.116649
0.115479
0.114384
0.113363
0.112418
0.194118
0.191128
0.188176
0.185261
0.182384
0.179545
0.176743
0.173978
0.171251
0.16856
0.165907
0.163291
0.160713
0.158172
0.155669
0.153204
0.150777
0.148389
0.146041
0.143733
0.141466
0.139241
0.137059
0.134921
0.132829
0.130784
0.128788
0.126842
0.124949
0.12311
0.121329
0.119607
0.117946
0.116349
0.114818
0.113355
0.111963
0.110643
0.109397
0.108227
0.107133
0.106115
0.105175
0.186425
0.183364
0.180347
0.177376
0.174449
0.171566
0.168726
0.165929
0.163175
0.160463
0.157793
0.155165
0.152578
0.150033
0.147529
0.145066
0.142644
0.140264
0.137926
0.13563
0.133377
0.131168
0.129004
0.126885
0.124813
0.12279
0.120816
0.118894
0.117025
0.115212
0.113457
0.111761
0.110128
0.108559
0.107056
0.105623
0.10426
0.10297
0.101754
0.100614
0.0995499
0.0985627
0.0976525
0.176861
0.173778
0.170749
0.167772
0.164847
0.161972
0.159146
0.156369
0.15364
0.150958
0.148322
0.145732
0.143187
0.140686
0.13823
0.135818
0.133449
0.131123
0.128842
0.126604
0.12441
0.12226
0.120157
0.118099
0.116089
0.114127
0.112215
0.110355
0.108548
0.106797
0.105103
0.103468
0.101894
0.100385
0.0989415
0.0975658
0.0962601
0.0950259
0.0938648
0.0927779
0.091766
0.0908295
0.0899685
0.165568
0.162528
0.159548
0.156627
0.153763
0.150955
0.148202
0.145502
0.142853
0.140256
0.137707
0.135207
0.132754
0.130348
0.127987
0.125672
0.123401
0.121174
0.118992
0.116853
0.114759
0.112709
0.110704
0.108744
0.106831
0.104966
0.103149
0.101383
0.0996695
0.0980095
0.0964053
0.0948588
0.0933722
0.0919475
0.0905867
0.0892918
0.0880645
0.0869064
0.085819
0.0848032
0.0838598
0.0829891
0.082191
0.152683
0.149755
0.146892
0.144093
0.141355
0.138677
0.136055
0.133489
0.130977
0.128517
0.126107
0.123747
0.121434
0.119168
0.116948
0.114773
0.112641
0.110553
0.108508
0.106505
0.104546
0.102629
0.100755
0.0989254
0.0971402
0.0954005
0.0937077
0.0920629
0.0904678
0.0889241
0.0874335
0.085998
0.0846194
0.0832997
0.0820408
0.0808445
0.0797125
0.0786462
0.0776469
0.0767155
0.0758527
0.0750586
0.0743333
0.138258
0.135516
0.132841
0.130231
0.127683
0.125195
0.122764
0.120388
0.118066
0.115795
0.113573
0.111399
0.109271
0.107188
0.105149
0.103152
0.101197
0.0992834
0.09741
0.0955766
0.0937832
0.0920299
0.0903169
0.0886446
0.0870139
0.0854256
0.0838808
0.0823807
0.0809269
0.0795209
0.0781644
0.0768591
0.0756069
0.0744095
0.0732688
0.0721862
0.0711634
0.0702017
0.0693022
0.0684658
0.0676929
0.0669838
0.0663384
0.12213
0.11965
0.117235
0.114883
0.11259
0.110354
0.108172
0.106042
0.103963
0.101931
0.099945
0.0980033
0.0961042
0.0942463
0.0924281
0.0906488
0.0889072
0.0872027
0.0855347
0.0839028
0.082307
0.0807471
0.0792235
0.0777367
0.0762872
0.074876
0.073504
0.0721725
0.0708827
0.0696362
0.0684345
0.0672792
0.0661719
0.0651143
0.0641078
0.0631541
0.0622543
0.0614097
0.0606212
0.0598896
0.0592153
0.0585984
0.0580388
0.10359
0.101458
0.0993845
0.0973672
0.0954036
0.0934909
0.0916267
0.0898086
0.0880344
0.0863019
0.0846094
0.0829551
0.0813375
0.0797553
0.0782072
0.0766923
0.0752097
0.0737588
0.072339
0.0709502
0.0695921
0.0682649
0.0669687
0.0657042
0.0644717
0.0632722
0.0621065
0.0609758
0.0598811
0.0588238
0.0578051
0.0568265
0.0558893
0.0549949
0.0541445
0.0533394
0.0525806
0.0518691
0.0512057
0.0505909
0.0500251
0.0495084
0.0490406
0.0802365
0.0785897
0.0769919
0.0754404
0.0739323
0.0724648
0.0710353
0.0696417
0.068282
0.0669544
0.0656574
0.0643897
0.0631501
0.0619375
0.0607511
0.0595901
0.0584539
0.057342
0.0562541
0.0551899
0.0541493
0.0531325
0.0521397
0.0511711
0.0502271
0.0493084
0.0484155
0.0475492
0.0467103
0.0458997
0.0451182
0.0443667
0.0436462
0.0429576
0.0423017
0.0416793
0.0410911
0.0405379
0.0400202
0.0395384
0.039093
0.038684
0.0383115
0.044082
0.0432647
0.0424665
0.0416876
0.0409275
0.0401856
0.0394608
0.0387522
0.0380586
0.0373792
0.0367129
0.0360589
0.0354164
0.0347848
0.0341635
0.033552
0.0329499
0.032357
0.0317729
0.0311977
0.0306312
0.0300736
0.029525
0.0289857
0.0284559
0.0279362
0.0274271
0.026929
0.0264427
0.0259688
0.025508
0.0250611
0.0246289
0.0242121
0.0238114
0.0234276
0.0230612
0.022713
0.0223834
0.022073
0.021782
0.0215107
0.0212593
)
;

boundaryField
{
    inlet
    {
        type            fixedValue;
        value           uniform 0.375;
    }
    outlet
    {
        type            zeroGradient;
    }
    upperWall
    {
        type            kqRWallFunction;
        value           nonuniform List<scalar> 
61
(
0.259299
0.173099
0.131327
0.107372
0.0920534
0.0816139
0.0741363
0.0685223
0.0641239
0.0605529
0.0575704
0.0550243
0.0528134
0.0508681
0.0491384
0.0475874
0.0461873
0.0449212
0.044082
0.0432647
0.0424665
0.0416876
0.0409275
0.0401856
0.0394608
0.0387522
0.0380586
0.0373792
0.0367129
0.0360589
0.0354164
0.0347848
0.0341635
0.033552
0.0329499
0.032357
0.0317729
0.0311977
0.0306312
0.0300736
0.029525
0.0289857
0.0284559
0.0279362
0.0274271
0.026929
0.0264427
0.0259688
0.025508
0.0250611
0.0246289
0.0242121
0.0238114
0.0234276
0.0230612
0.022713
0.0223834
0.022073
0.021782
0.0215107
0.0212593
)
;
    }
    lowerWall
    {
        type            kqRWallFunction;
        value           nonuniform List<scalar> 
89
(
0.246434
0.15884
0.119034
0.0972639
0.0838264
0.0748939
0.0685724
0.0638343
0.0601132
0.0570899
0.0545751
0.0524504
0.0506485
0.0491157
0.0478183
0.0467434
0.0459526
0.0456406
0.00268481
0.00830876
0.0121882
0.015202
0.0177334
0.019946
0.0219217
0.0236976
0.0252812
0.0266601
0.0278077
0.0286876
0.0292574
0.0294717
0.0292834
0.0285953
0.0275637
0.0263334
0.0248747
0.0232309
0.0214758
0.0197096
0.0180679
0.0167361
0.0159092
0.016484
0.0245237
0.00268481
0.00703125
0.0097731
0.0119809
0.0138558
0.0155116
0.0170103
0.018389
0.0196727
0.0208802
0.0220257
0.0231201
0.0241719
0.0251875
0.0261715
0.0271273
0.0280575
0.028964
0.0298493
0.0307167
0.0315721
0.0324252
0.0332917
0.0341926