/*--------------------------------*- C++ -*----------------------------------*\
  =========                 |
  \\      /  F ield         | OpenFOAM: The Open Source CFD Toolbox
   \\    /   O peration     | Website:  https://openfoam.org
    \\  /    A nd           | Version:  6
     \\/     M anipulation  |
\*---------------------------------------------------------------------------*/
FoamFile
{
    version     2.0;
    format      ascii;
    class       volScalarField;
    location    "0.05";
    object      nut;
}
// * * * * * * * * * * * * * * * * * * * * * * * * * * * * * * * * * * * * * //

dimensions      [0 2 -1 0 0 0 0];

internalField   nonuniform List<scalar> 
3032
(
1.77721e-05
1.42681e-05
1.23514e-05
1.11646e-05
1.03643e-05
9.79601e-06
9.37276e-06
9.04228e-06
8.77372e-06
8.54897e-06
8.35707e-06
8.19097e-06
8.0463e-06
7.92063e-06
7.81179e-06
7.71905e-06
7.64725e-06
7.61154e-06
0.000144882
0.000101922
8.79236e-05
8.05876e-05
7.61618e-05
7.32184e-05
7.09605e-05
6.90079e-05
6.72358e-05
6.56191e-05
6.41524e-05
6.28272e-05
6.16261e-05
6.05424e-05
5.95838e-05
5.87613e-05
5.81306e-05
5.77876e-05
0.000323342
0.000223612
0.00018987
0.00017268
0.000162219
0.000155209
0.000150053
0.000145913
0.00014239
0.000139306
0.000136579
0.000134165
0.000132021
0.000130114
0.000128456
0.000127078
0.00012607
0.00012563
0.000493991
0.000355299
0.00029955
0.000269823
0.000251384
0.000238909
0.000229846
0.000222827
0.000217115
0.000212313
0.0002082
0.000204661
0.000201571
0.000198883
0.000196587
0.000194706
0.000193321
0.000192609
0.000624495
0.000478758
0.000407511
0.000366459
0.000340009
0.000321708
0.00030831
0.000298012
0.000289775
0.000282995
0.000277307
0.000272493
0.000268357
0.000264811
0.000261813
0.000259361
0.000257509
0.000256384
0.000713134
0.000583448
0.000506704
0.000458215
0.000425354
0.000401884
0.000384379
0.000370825
0.000359999
0.000351143
0.000343782
0.000337587
0.000332312
0.000327823
0.000324042
0.000320934
0.00031852
0.000316883
0.000769343
0.000665676
0.000592504
0.000541496
0.00050484
0.000477632
0.000456816
0.000440444
0.000427261
0.000416446
0.00040746
0.00039988
0.000393444
0.000387977
0.000383364
0.000379544
0.000376503
0.000374287
0.000803487
0.000726399
0.000662749
0.000613775
0.00057627
0.000547196
0.000524264
0.000505846
0.000490806
0.000478358
0.000467935
0.000459103
0.000451584
0.000445179
0.000439748
0.000435207
0.000431519
0.000428699
0.000823652
0.000769013
0.000717419
0.000673776
0.000638087
0.000609095
0.000585435
0.000565952
0.000549751
0.000536162
0.00052464
0.000514806
0.000506381
0.00049916
0.000492994
0.000487785
0.000483482
0.000480073
0.000835339
0.000797669
0.000758022
0.000721445
0.000689533
0.000662321
0.000639286
0.000619783
0.000603221
0.000589068
0.000576908
0.00056642
0.000557354
0.000549517
0.000542766
0.000537001
0.000532164
0.000528229
0.000842029
0.000816262
0.000786907
0.000757722
0.000730659
0.000706446
0.000685162
0.0006666
0.000650442
0.000636363
0.000624078
0.000613345
0.000603962
0.000595767
0.000588636
0.000582478
0.000577237
0.000572877
0.000845518
0.000826993
0.000805003
0.000781964
0.00075955
0.000738665
0.000719683
0.000702657
0.000687492
0.000674029
0.000662099
0.000651536
0.000642194
0.000633949
0.000626701
0.000620377
0.000614931
0.00061033
0.000847628
0.000833988
0.0008176
0.000799787
0.000781745
0.000764295
0.000747906
0.000732792
0.00071901
0.000706533
0.000695287
0.000685184
0.000676133
0.00066805
0.000660865
0.000654526
0.000648998
0.000644252
0.000848988
0.000838813
0.000826868
0.00081367
0.000799885
0.00078609
0.000772705
0.000759993
0.000748096
0.000737077
0.000726944
0.000717677
0.000709242
0.000701597
0.000694707
0.000688543
0.000683087
0.000678311
0.000849788
0.000841818
0.000833003
0.000823407
0.000813275
0.000802906
0.000792571
0.000782482
0.00077279
0.000763591
0.00075494
0.000746865
0.000739373
0.000732463
0.000726128
0.000720367
0.000715176
0.000710526
0.000850213
0.000843487
0.0008366
0.000829439
0.00082201
0.000814397
0.000806709
0.000799061
0.000791553
0.000784264
0.000777254
0.000770567
0.000764231
0.000758268
0.000752694
0.000747526
0.000742771
0.0007384
0.000850412
0.000844293
0.000838415
0.000832634
0.000826865
0.000821075
0.000815265
0.00080946
0.000803696
0.000798012
0.000792443
0.000787024
0.000781785
0.000776751
0.000771948
0.000767401
0.000763123
0.000759083
0.000850483
0.000844587
0.000839099
0.000833882
0.000828832
0.000823877
0.000818973
0.000814098
0.000809249
0.000804432
0.000799661
0.000794957
0.000790339
0.00078583
0.000781456
0.000777242
0.000773202
0.000769301
0.000850461
0.000844495
0.000838885
0.00083349
0.000828209
0.000822978
0.000817762
0.000812549
0.000807343
0.000802157
0.00079701
0.000791921
0.000786913
0.000782011
0.000777237
0.000772619
0.000768171
0.000763865
0.000850262
0.000843686
0.000837046
0.000830215
0.000823164
0.000815929
0.000808579
0.000801194
0.000793846
0.0007866
0.000779505
0.000772599
0.000765912
0.000759465
0.000753278
0.00074737
0.000741753
0.000736397
0.000849704
0.000841514
0.000832397
0.000822443
0.000811909
0.000801088
0.000790242
0.000779572
0.00076922
0.000759272
0.000749778
0.00074076
0.000732221
0.000724155
0.000716556
0.000709417
0.000702732
0.000696462
0.000848158
0.000835918
0.000821335
0.000805351
0.000788888
0.000772635
0.000757029
0.000742305
0.00072856
0.000715806
0.000704007
0.000693102
0.000683023
0.000673699
0.000665072
0.000657093
0.000649727
0.000642922
0.000844079
0.000822703
0.000797817
0.000772263
0.000747764
0.000725137
0.000704645
0.000686257
0.000669806
0.000655078
0.000641857
0.000629944
0.000619163
0.000609367
0.000600434
0.000592275
0.000584825
0.000578019
0.000833779
0.000794189
0.000753217
0.000715732
0.000683088
0.000655184
0.000631431
0.000611144
0.000593695
0.000578559
0.000565311
0.00055361
0.000543189
0.000533837
0.000525393
0.000517739
0.000510793
0.000504496
0.000809062
0.00073862
0.000678344
0.000630558
0.000593032
0.000563306
0.000539409
0.00051986
0.000503581
0.000489796
0.000477941
0.000467602
0.000458476
0.000450333
0.000443006
0.000436376
0.000430367
0.000424934
0.00075367
0.000642602
0.000568046
0.000517268
0.00048108
0.000454269
0.000433718
0.000417454
0.000404206
0.000393138
0.000383689
0.00037547
0.000368211
0.000361717
0.00035585
0.000350515
0.000345657
0.000341257
0.000641456
0.000499065
0.00042662
0.000383698
0.000355424
0.00033555
0.000320842
0.000309427
0.000300191
0.000292454
0.000285793
0.000279932
0.000274688
0.000269938
0.000265594
0.0002616
0.000257926
0.000254579
0.000448549
0.00032013
0.000270169
0.000243276
0.000226427
0.00021503
0.000206766
0.000200331
0.000195007
0.000190408
0.000186319
0.000182614
0.000179216
0.000176074
0.000173154
0.000170433
0.000167901
0.000165576
0.000203092
0.000143521
0.000122916
0.000111614
0.000104672
0.000100172
9.69267e-05
9.42731e-05
9.19168e-05
8.97492e-05
8.77317e-05
8.58475e-05
8.40865e-05
8.2441e-05
8.09033e-05
7.9466e-05
7.8124e-05
7.68801e-05
2.40293e-05
1.96331e-05
1.71011e-05
1.54632e-05
1.43181e-05
1.34823e-05
1.28505e-05
1.2355e-05
1.19527e-05
1.16159e-05
1.13271e-05
1.10748e-05
1.0851e-05
1.06503e-05
1.04687e-05
1.03033e-05
1.01517e-05
1.00127e-05
2.90251e-06
1.0059e-05
1.19406e-05
1.32484e-05
1.42632e-05
1.51033e-05
1.58268e-05
1.64661e-05
1.70418e-05
1.7568e-05
1.8055e-05
1.85103e-05
1.89393e-05
1.93461e-05
1.97336e-05
2.01041e-05
2.04588e-05
2.0799e-05
2.11254e-05
2.14386e-05
2.17396e-05
2.20288e-05
2.23049e-05
2.26188e-05
2.29217e-05
2.32035e-05
2.34646e-05
2.3705e-05
2.39249e-05
2.41237e-05
2.43013e-05
2.44573e-05
2.45911e-05
2.47026e-05
2.47913e-05
2.48569e-05
2.48989e-05
2.4917e-05
2.49103e-05
2.48783e-05
2.48208e-05
2.47434e-05
2.4665e-05
2.46101e-05
5.22125e-06
3.92856e-05
6.24432e-05
7.70181e-05
8.75719e-05
9.6062e-05
0.000103365
0.000109922
0.000115981
0.000121701
0.000127188
0.000132521
0.000137753
0.000142926
0.000148065
0.000153181
0.000158276
0.000163337
0.000168341
0.000173248
0.000178007
0.00018255
0.000186801
0.000190612
0.000194172
0.000197577
0.000200846
0.000203977
0.000206958
0.000209778
0.000212422
0.000214877
0.000217129
0.000219162
0.000220964
0.000222519
0.000223813
0.00022483
0.000225552
0.000225962
0.000226048
0.000225805
0.000225255
0.000224455
6.37715e-06
5.51704e-05
9.72612e-05
0.000127037
0.000149389
0.000167359
0.000182641
0.000196192
0.000208576
0.000220138
0.000231102
0.000241616
0.000251781
0.000261662
0.000271302
0.000280723
0.000289931
0.000298918
0.000307665
0.000316144
0.00032432
0.000332152
0.000339604
0.000346591
0.000353228
0.000359571
0.000365633
0.000371412
0.000376893
0.000382058
0.000386885
0.000391353
0.000395439
0.000399122
0.000402381
0.000405197
0.000407552
0.00040943
0.00041082
0.000411712
0.000412104
0.000412001
0.00041142
0.000410395
7.14288e-06
6.53743e-05
0.000121319
0.000163603
0.000196372
0.000222932
0.000245394
0.000265075
0.000282801
0.000299104
0.000314332
0.000328716
0.000342415
0.000355536
0.000368152
0.000380311
0.000392043
0.000403364
0.000414281
0.00042479
0.000434885
0.000444555
0.000453788
0.000462542
0.00047089
0.000478868
0.000486488
0.000493749
0.00050064
0.000507141
0.000513231
0.000518887
0.000524084
0.000528796
0.000533002
0.000536679
0.000539807
0.000542371
0.000544358
0.000545761
0.000546576
0.000546806
0.000546457
0.00054556
7.72338e-06
7.25778e-05
0.000138898
0.000191137
0.000232549
0.000266393
0.000294953
0.000319759
0.000341828
0.000361845
0.000380274
0.000397435
0.000413551
0.00042878
0.000443238
0.000457009
0.000470154
0.000482721
0.000494743
0.000506246
0.000517249
0.000527763
0.000537796
0.000547338
0.000556453
0.000565178
0.000573529
0.000581511
0.000589115
0.000596327
0.000603126
0.000609488
0.000615387
0.000620795
0.000625686
0.000630033
0.000633814
0.000637007
0.000639596
0.000641568
0.000642916
0.000643628
0.000643714
0.000643195
8.19001e-06
7.79357e-05
0.000152185
0.000212301
0.000260715
0.000300534
0.000334098
0.000363057
0.000388562
0.000411416
0.000432182
0.000451261
0.000468943
0.000485442
0.000500917
0.000515493
0.000529267
0.000542317
0.000554708
0.000566491
0.00057771
0.000588397
0.000598577
0.000608275
0.000617562
0.000626483
0.000635063
0.000643312
0.000651228
0.000658799
0.000666006
0.000672824
0.000679223
0.000685172
0.000690639
0.000695592
0.0007
0.000703836
0.000707076
0.0007097
0.000711687
0.000713018
0.000713705
0.000713763
8.57673e-06
8.20128e-05
0.000162363
0.00022867
0.000282656
0.000327249
0.000364792
0.000397004
0.000425127
0.000450053
0.00047243
0.000492731
0.000511307
0.000528425
0.000544291
0.000559068
0.000572889
0.000585865
0.00059809
0.000609641
0.000620587
0.000630982
0.00064087
0.000650314
0.000659396
0.000668174
0.000676681
0.000684937
0.000692944
0.000700692
0.000708162
0.000715326
0.000722151
0.000728598
0.000734627
0.000740199
0.000745273
0.000749813
0.000753785
0.000757157
0.000759885
0.000761967
0.000763405
0.000764205
8.90117e-06
8.51042e-05
0.000170096
0.000241181
0.000299495
0.000347788
0.000388376
0.000423019
0.000453022
0.000479347
0.000502709
0.000523645
0.00054256
0.00055977
0.000575525
0.000590026
0.000603442
0.000615915
0.000627567
0.000638504
0.000648817
0.000658586
0.000667871
0.000676784
0.00068542
0.000693847
0.000702111
0.000710238
0.000718234
0.000726091
0.000733786
0.000741287
0.000748552
0.000755533
0.000762181
0.000768444
0.00077427
0.000779612
0.00078442
0.00078863
0.000792225
0.000795192
0.000797521
0.000799209
9.1721e-06
8.73651e-05
0.000175751
0.000250385
0.000311924
0.00036295
0.00040574
0.000442071
0.000473291
0.000500416
0.000524217
0.00054528
0.000564061
0.00058092
0.000596146
0.000609978
0.000622618
0.000634238
0.00064499
0.000655008
0.000664406
0.000673286
0.000681751
0.000689945
0.000697981
0.000705942
0.000713883
0.000721836
0.00072981
0.000737793
0.000745759
0.000753663
0.000761455
0.000769074
0.000776454
0.000783531
0.00079024
0.000796498
0.000802239
0.000807427
0.000812029
0.000816018
0.000819375
0.000822088
9.39307e-06
8.88709e-05
0.000179524
0.000256593
0.000320357
0.000373239
0.000417466
0.000454815
0.000486659
0.000514052
0.000537807
0.000558555
0.000576791
0.000592916
0.000607254
0.000620078
0.000631624
0.000642094
0.000651668
0.000660508
0.000668757
0.000676537
0.000684019
0.000691369
0.000698718
0.000706164
0.000713774
0.000721582
0.000729596
0.000737798
0.00074615
0.000754596
0.000763065
0.000771481
0.000779759
0.000787815
0.000795526
0.000802834
0.000809676
0.000816
0.000821758
0.000826914
0.000831436
0.000835302
9.56439e-06
8.9651e-05
0.000181508
0.000259971
0.000325033
0.000378969
0.000423938
0.0004617
0.000493638
0.000520829
0.000544114
0.000564158
0.000581492
0.000596546
0.000609679
0.000621198
0.000631365
0.000640418
0.000648565
0.000655999
0.000662891
0.000669401
0.000675774
0.0006822
0.000688829
0.000695773
0.000703107
0.000710866
0.000719052
0.000727634
0.000736557
0.000745741
0.000755096
0.000764524
0.000773868
0.000783041
0.00079195
0.000800508
0.000808637
0.00081627
0.000823345
0.000829814
0.000835635
0.00084078
9.68424e-06
8.97091e-05
0.000181738
0.000260602
0.000326092
0.000380339
0.00042542
0.000463056
0.00049462
0.000521197
0.000543645
0.00056265
0.000578767
0.000592456
0.000604104
0.000614045
0.000622577
0.000629964
0.00063645
0.000642258
0.000647592
0.000652702
0.000657881
0.000663348
0.000669274
0.000675788
0.000682967
0.000690843
0.000699402
0.000708589
0.000718336
0.000728508
0.000738956
0.000749563
0.0007602
0.000770744
0.000781081
0.000791103
0.000800717
0.000809837
0.00081839
0.000826317
0.000833568
0.000840106
9.74931e-06
8.90367e-05
0.000180218
0.000258526
0.000323625
0.000377497
0.000422119
0.000459153
0.000489939
0.000515551
0.00053685
0.000554531
0.000569165
0.000581233
0.000591146
0.000599266
0.000605919
0.000611406
0.000616006
0.00061998
0.000623567
0.000627177
0.000631117
0.00063564
0.000640944
0.000647167
0.000654383
0.000662615
0.000671826
0.000681882
0.000692672
0.000704052
0.000715865
0.000727954
0.000740161
0.000752336
0.00076434
0.000776045
0.000787338
0.000798119
0.000808304
0.000817822
0.000826615
0.000834643
9.75516e-06
8.76232e-05
0.000176949
0.000253775
0.000317706
0.000370572
0.000414226
0.000450243
0.000479911
0.000504271
0.000524168
0.000540295
0.000553229
0.000563461
0.000571422
0.0005775
0.000582052
0.000585415
0.000587911
0.000589854
0.000591563
0.000593605
0.000596316
0.000599983
0.00060483
0.000610991
0.000618502
0.000627346
0.000637438
0.000648645
0.000660804
0.000673731
0.000687228
0.000701102
0.00071516
0.000729223
0.000743124
0.000756715
0.000769863
0.000782457
0.0007944
0.000805613
0.000816035
0.000825619
9.69587e-06
8.54582e-05
0.000171933
0.00024638
0.000308409
0.000359688
0.000401919
0.000436566
0.000464837
0.000487719
0.000506023
0.000520421
0.000531485
0.00053971
0.000545542
0.000549391
0.000551649
0.000552691
0.000552883
0.000552567
0.000552395
0.000552917
0.000554524
0.000557528
0.000562143
0.000568488
0.000576582
0.000586364
0.000597705
0.000610425
0.000624309
0.000639121
0.000654621
0.000670569
0.000686737
0.000702912
0.000718903
0.00073454
0.000749676
0.000764185
0.000777964
0.000790929
0.000803016
0.000814176
9.55292e-06
8.24198e-05
0.000164924
0.000236022
0.000295376
0.000344466
0.000384811
0.000417729
0.000444322
0.000465506
0.000482021
0.000494506
0.000503517
0.000509548
0.000513053
0.000514467
0.000514222
0.000512751
0.000510498
0.000507942
0.000506029
0.000505256
0.000506047
0.000508725
0.000513497
0.000520451
0.000529568
0.000540736
0.000553767
0.000568421
0.000584423
0.000601482
0.000619303
0.000637603
0.000656115
0.000674596
0.00069283
0.00071063
0.000727836
0.000744316
0.000759962
0.00077469
0.000788435
0.000801151
9.37704e-06
7.8347e-05
0.000156207
0.000223354
0.000279479
0.000325898
0.000363957
0.000394828
0.000419496
0.000438783
0.000453379
0.000463873
0.000470785
0.000474588
0.000475736
0.000474677
0.000471878
0.000467827
0.000463022
0.000458575
0.00045521
0.000453489
0.000453862
0.000456652
0.00046204
0.000470076
0.000480684
0.000493689
0.000508834
0.000525806
0.000544263
0.000563847
0.00058421
0.000605021
0.000625978
0.000646812
0.000667289
0.000687212
0.000706417
0.000724769
0.000742165
0.000758523
0.000773785
0.000787912
9.15517e-06
7.31026e-05
0.000145847
0.000208807
0.000261496
0.000305055
0.000340671
0.000369383
0.000392074
0.000409484
0.00042224
0.000430887
0.000435909
0.000437758
0.00043688
0.000433734
0.000428816
0.000422672
0.000416144
0.000410512
0.000406445
0.000404517
0.000405174
0.000408709
0.000415267
0.000424847
0.000437315
0.000452429
0.00046986
0.000489225
0.000510113
0.000532111
0.000554824
0.000577887
0.000600978
0.000623813
0.000646156
0.000667809
0.000688613
0.000708443
0.000727202
0.000744818
0.000761241
0.000776439
8.88898e-06
6.73883e-05
0.000134538
0.000193002
0.000241984
0.000282413
0.000315332
0.000341673
0.000362237
0.000377704
0.000388652
0.000395583
0.000398951
0.000399184
0.000396714
0.000392003
0.000385565
0.000378025
0.000370986
0.00036526
0.000361534
0.000360364
0.000362154
0.000367161
0.000375483
0.000387069
0.000401725
0.000419139
0.000438911
0.000460593
0.000483718
0.000507834
0.000532519
0.000557399
0.000582146
0.000606485
0.000630188
0.000653072
0.000674992
0.000695836
0.00071552
0.000733983
0.000751184
0.000767099
8.58584e-06
6.17158e-05
0.000122915
0.000176491
0.000221336
0.000258181
0.000287965
0.000311561
0.000329729
0.000343113
0.000352255
0.000357623
0.000359636
0.00035869
0.000355194
0.000349592
0.000342379
0.000335069
0.000328762
0.000324187
0.000321957
0.000322559
0.000326351
0.000333546
0.000344197
0.000358193
0.000375271
0.000395047
0.000417057
0.000440804
0.000465792
0.000491558
0.000517685
0.000543812
0.000569633
0.000594897
0.000619398
0.000642977
0.000665507
0.000686894
0.000707067
0.000725977
0.00074359
0.000759888
8.25692e-06
5.65188e-05
0.000111578
0.000159723
0.000199731
0.000232265
0.000258265
0.000278621
0.000294091
0.000305297
0.000312743
0.000316846
0.00031797
0.000316456
0.000312662
0.00030698
0.000300676
0.00029507
0.000290856
0.000288646
0.000288967
0.000292251
0.000298814
0.000308818
0.000322252
0.000338921
0.000358484
0.00038049
0.000404435
0.000429808
0.000456123
0.000482943
0.000509887
0.000536634
0.000562917
0.000588522
0.000613274
0.000637039
0.000659712
0.000681215
0.00070149
0.000720495
0.000738202
0.000754595
7.91983e-06
5.21769e-05
0.000100977
0.000142809
0.000176882
0.000204121
0.000225633
0.000242369
0.000255074
0.000264303
0.000270471
0.000273899
0.000274854
0.000273578
0.000270343
0.000266229
0.000262555
0.000259919
0.000258883
0.000259969
0.000263654
0.000270328
0.000280247
0.000293485
0.000309924
0.000329273
0.000351118
0.000374975
0.000400344
0.000426747
0.000453749
0.000480974
0.000508101
0.000534865
0.000561048
0.000586476
0.000611006
0.000634528
0.000656957
0.000678227
0.000698289
0.000717105
0.000734651
0.000750908
7.60246e-06
4.89292e-05
9.09266e-05
0.000124959
0.000151749
0.000172885
0.000189665
0.000202989
0.000213452
0.000221423
0.000227141
0.000230772
0.000232447
0.000232252
0.000231263
0.000230513
0.000230464
0.000231597
0.000234412
0.000239399
0.000246991
0.000257498
0.000271055
0.0002876
0.000306897
0.000328575
0.000352194
0.000377291
0.000403422
0.000430184
0.000457225
0.000484247
0.000510999
0.000537274
0.000562903
0.000587746
0.00061169
0.000634646
0.00065654
0.000677318
0.000696933
0.000715353
0.000732549
0.000748501
7.34639e-06
4.63844e-05
7.96712e-05
0.000104271
0.000123276
0.000138706
0.000151653
0.00016268
0.00017205
0.000179843
0.000186079
0.000190772
0.000193939
0.00019665
0.000199426
0.000202604
0.000206591
0.00021185
0.00021886
0.000228056
0.00023976
0.000254129
0.000271136
0.000290585
0.000312158
0.000335472
0.000360124
0.000385726
0.000411926
0.000438418
0.000464939
0.000491268
0.000517218
0.000542634
0.000567386
0.000591363
0.000614475
0.000636645
0.000657812
0.000677923
0.000696936
0.000714818
0.000731538
0.000747069
7.19528e-06
4.21429e-05
6.44339e-05
8.03562e-05
9.34988e-05
0.000105253
0.000116128
0.000126265
0.000135636
0.000144051
0.000151386
0.000158035
0.0001645
0.000170896
0.000177485
0.000184613
0.00019269
0.000202146
0.000213373
0.000226662
0.000242158
0.000259846
0.000279568
0.000301062
0.000324015
0.000348094
0.000372982
0.00039839
0.000424066
0.000449791
0.000475382
0.00050068
0.00052555
0.000549876
0.000573556
0.000596502
0.000618638
0.000639898
0.000660224
0.000679569
0.000697889
0.000715149
0.000731315
0.000746355
7.36463e-06
3.39827e-05
4.75783e-05
5.86839e-05
6.88031e-05
7.8733e-05
8.87013e-05
9.86957e-05
0.00010861
0.000118412
0.000128163
0.000137785
0.000147375
0.000157112
0.000167255
0.000178124
0.00019006
0.00020337
0.000218286
0.000234921
0.000253266
0.000273202
0.000294532
0.000317013
0.000340389
0.000364414
0.000388863
0.000413538
0.000438266
0.0004629
0.000487312
0.00051139
0.000535035
0.000558157
0.000580676
0.000602518
0.000623617
0.000643912
0.000663349
0.000681882
0.000699467
0.000716065
0.000731638
0.00074615
9.09569e-06
2.29358e-05
3.26973e-05
4.2027e-05
5.17821e-05
6.21544e-05
7.31279e-05
8.45542e-05
9.62465e-05
0.00010807
0.000119979
0.000131987
0.00014419
0.000156753
0.00016989
0.000183834
0.000198801
0.000214953
0.000232376
0.000251069
0.000270956
0.000291896
0.000313718
0.000336233
0.000359257
0.00038262
0.000406168
0.00042977
0.000453309
0.000476685
0.000499807
0.000522594
0.00054497
0.000566864
0.000588209
0.00060894
0.000628997
0.000648324
0.000666868
0.000684584
0.000701426
0.000717353
0.000732323
0.000746295
1.16141e-05
1.8428e-05
2.79743e-05
3.94147e-05
5.17705e-05
6.44011e-05
7.70584e-05
8.97208e-05
0.000102443
0.000115291
0.000128343
0.000141683
0.000155421
0.000169683
0.00018461
0.00020033
0.000216945
0.000234513
0.000253035
0.000272462
0.000292701
0.000313628
0.000335107
0.000357
0.000379176
0.000401515
0.000423913
0.000446277
0.000468528
0.000490592
0.000512405
0.000533902
0.000555023
0.00057571
0.000595903
0.000615545
0.00063458
0.000652955
0.000670618
0.000687523
0.000703625
0.00071888
0.000733244
0.000746671
6.10355e-05
6.59467e-05
7.19757e-05
7.90822e-05
8.72691e-05
9.6417e-05
0.000106371
0.00011702
0.000128305
0.000140203
0.000152718
0.00016587
0.000179698
0.000194245
0.000209555
0.000225665
0.000242587
0.000260306
0.000278776
0.000297924
0.000317656
0.000337864
0.000358439
0.000379275
0.000400274
0.000421348
0.000442421
0.000463426
0.000484304
0.000505
0.000525463
0.000545643
0.00056549
0.000584952
0.000603977
0.000622514
0.000640509
0.000657911
0.000674671
0.000690741
0.000706077
0.000720633
0.000734363
0.000747219
0.000127374
0.000130178
0.000133684
0.00013786
0.000142806
0.000148625
0.000155389
0.000163135
0.000171873
0.000181596
0.000192288
0.000203932
0.000216508
0.000229997
0.000244374
0.000259603
0.000275638
0.000292417
0.000309863
0.000327887
0.000346393
0.000365284
0.000384463
0.000403842
0.000423341
0.000442891
0.00046243
0.000481906
0.000501272
0.000520483
0.000539497
0.000558271
0.000576764
0.000594928
0.000612717
0.000630082
0.000646973
0.000663342
0.000679139
0.000694318
0.000708832
0.000722636
0.000735682
0.000747922
0.000193645
0.000195443
0.000197736
0.000200513
0.000203843
0.000207829
0.000212583
0.000218212
0.000224799
0.000232399
0.000241043
0.000250733
0.000261455
0.000273177
0.000285853
0.000299423
0.000313817
0.000328952
0.000344738
0.000361082
0.000377885
0.000395056
0.000412506
0.000430155
0.000447933
0.000465778
0.000483637
0.000501463
0.000519215
0.000536855
0.000554346
0.000571648
0.000588725
0.000605533
0.000622029
0.000638168
0.000653901
0.000669182
0.000683964
0.000698198
0.000711839
0.000724841
0.000737156
0.000748733
0.000256928
0.000258158
0.000259764
0.000261764
0.000264213
0.000267187
0.00027078
0.000275088
0.000280203
0.000286204
0.000293145
0.000301057
0.000309948
0.000319803
0.000330587
0.000342248
0.000354718
0.00036792
0.000381767
0.000396171
0.000411043
0.000426294
0.000441845
0.000457621
0.000473559
0.0004896
0.000505696
0.000521803
0.000537883
0.0005539
0.00056982
0.000585607
0.000601225
0.000616635
0.000631797
0.000646666
0.000661198
0.000675347
0.000689066
0.00070231
0.000715032
0.000727186
0.000738724
0.000749595
0.000316951
0.000317737
0.000318838
0.000320282
0.000322115
0.000324398
0.000327201
0.0003306
0.000334671
0.000339483
0.000345093
0.00035154
0.000358846
0.000367012
0.000376019
0.000385833
0.000396401
0.000407663
0.000419547
0.000431977
0.000444876
0.000458168
0.000471782
0.000485653
0.000499719
0.000513931
0.00052824
0.000542608
0.000556996
0.000571372
0.000585702
0.000599953
0.000614091
0.000628079
0.000641878
0.000655448
0.000668746
0.000681727
0.000694348
0.000706562
0.000718324
0.00072959
0.000740309
0.000750434
0.000373852
0.000374207
0.000374848
0.000375802
0.000377106
0.000378809
0.000380965
0.00038363
0.000386864
0.00039072
0.000395245
0.000400477
0.000406439
0.000413139
0.000420572
0.000428715
0.000437536
0.000446987
0.000457017
0.000467565
0.000478569
0.000489966
0.000501698
0.000513706
0.000525939
0.000538351
0.0005509
0.000563547
0.000576259
0.000589004
0.00060175
0.000614467
0.000627122
0.00063968
0.000652106
0.000664361
0.000676404
0.000688194
0.000699687
0.000710841
0.000721611
0.000731953
0.000741818
0.00075116
0.000427734
0.000427645
0.000427826
0.000428299
0.000429097
0.000430254
0.000431813
0.000433817
0.000436308
0.000439329
0.000442915
0.000447096
0.000451893
0.000457316
0.000463365
0.000470027
0.000477281
0.000485095
0.000493431
0.000502243
0.000511484
0.000521106
0.00053106
0.000541299
0.00055178
0.000562463
0.00057331
0.000584288
0.000595367
0.000606516
0.000617707
0.00062891
0.000640096
0.000651234
0.000662288
0.000673225
0.000684005
0.00069459
0.000704939
0.000715011
0.000724763
0.000734153
0.000743136
0.000751663
0.000478575
0.000478033
0.00047775
0.000477743
0.000478038
0.000478662
0.000479646
0.000481021
0.00048282
0.000485074
0.000487809
0.000491048
0.000494808
0.000499097
0.000503918
0.000509263
0.000515119
0.000521463
0.000528269
0.000535505
0.000543134
0.000551119
0.000559424
0.00056801
0.000576843
0.00058589
0.000595118
0.0006045
0.000614007
0.000623614
0.000633294
0.000643022
0.00065277
0.000662509
0.000672208
0.000681836
0.000691356
0.000700734
0.000709931
0.000718908
0.000727627
0.000736046
0.000744121
0.000751809
0.000526221
0.000525235
0.000524498
0.000524022
0.000523826
0.000523931
0.000524358
0.000525131
0.000526274
0.00052781
0.000529758
0.000532134
0.000534952
0.000538219
0.000541936
0.000546101
0.000550703
0.000555728
0.000561156
0.000566965
0.000573128
0.000579618
0.000586407
0.000593464
0.000600764
0.000608279
0.000615983
0.000623852
0.000631864
0.000639995
0.000648223
0.000656525
0.000664876
0.000673251
0.000681623
0.000689962
0.000698237
0.000706415
0.000714462
0.000722343
0.00073002
0.000737455
0.000744609
0.000751438
0.000570406
0.000569012
0.000567854
0.00056694
0.000566281
0.000565893
0.000565793
0.000565996
0.000566522
0.000567386
0.000568603
0.000570185
0.000572141
0.000574478
0.000577197
0.000580295
0.000583768
0.000587603
0.000591788
0.000596307
0.00060114
0.000606267
0.000611667
0.000617318
0.000623199
0.000629289
0.000635568
0.000642016
0.000648615
0.000655344
0.000662186
0.00066912
0.000676126
0.000683181
0.000690262
0.000697343
0.000704396
0.000711392
0.000718301
0.000725091
0.000731727
0.000738176
0.000744399
0.000750359
0.000607599
0.000605932
0.000604471
0.000603226
0.000602209
0.000601434
0.000600912
0.000600657
0.000600683
0.000601001
0.000601623
0.000602558
0.000603812
0.00060539
0.000607293
0.000609519
0.000612064
0.00061492
0.000618078
0.000621524
0.000625245
0.000629227
0.000633453
0.000637907
0.000642572
0.000647434
0.000652475
0.000657682
0.000663038
0.000668528
0.000674137
0.000679848
0.000685644
0.000691507
0.000697415
0.000703347
0.000709279
0.000715185
0.000721039
0.000726813
0.000732475
0.000737996
0.00074334
0.000748474
0.000641274
0.000639357
0.000637621
0.000636075
0.000634729
0.000633593
0.000632677
0.000631991
0.000631546
0.000631351
0.000631414
0.000631742
0.000632341
0.000633214
0.000634361
0.000635782
0.000637474
0.000639432
0.000641647
0.000644113
0.000646818
0.000649752
0.000652903
0.00065626
0.00065981
0.000663541
0.000667441
0.000671499
0.000675703
0.000680041
0.0006845
0.000689067
0.000693728
0.000698467
0.000703267
0.00070811
0.000712975
0.000717842
0.000722685
0.000727482
0.000732205
0.000736826
0.000741316
0.000745643
0.00067512
0.000672956
0.000670944
0.000669092
0.000667405
0.000665891
0.000664559
0.000663417
0.000662471
0.000661729
0.000661197
0.000660882
0.000660787
0.000660915
0.000661267
0.000661845
0.000662645
0.000663665
0.000664901
0.000666347
0.000667996
0.000669843
0.000671878
0.000674094
0.000676484
0.000679037
0.000681748
0.000684606
0.000687605
0.000690734
0.000693985
0.000697347
0.00070081
0.000704362
0.000707988
0.000711675
0.000715405
0.000719162
0.000722925
0.000726674
0.000730388
0.000734041
0.000737607
0.000741059
0.000707209
0.00070485
0.000702604
0.000700478
0.000698476
0.000696605
0.00069487
0.000693279
0.000691836
0.000690547
0.000689419
0.000688454
0.000687658
0.000687034
0.000686582
0.000686305
0.000686202
0.000686273
0.000686516
0.000686928
0.000687507
0.000688249
0.000689149
0.000690203
0.000691408
0.000692757
0.000694248
0.000695874
0.000697631
0.000699512
0.000701513
0.000703627
0.000705845
0.00070816
0.000710561
0.000713038
0.000715578
0.000718167
0.000720792
0.000723435
0.000726079
0.000728703
0.000731284
0.000735063
0.000732582
0.000730169
0.000727826
0.00072556
0.000723376
0.000721278
0.000719272
0.000717362
0.000715554
0.000713852
0.00071226
0.000710784
0.000709425
0.000708187
0.000707072
0.000706083
0.000705219
0.000704483
0.000703875
0.000703394
0.000703039
0.000702812
0.000702709
0.000702731
0.000702876
0.000703144
0.000703531
0.000704037
0.00070466
0.000705396
0.000706243
0.000707196
0.000708251
0.000709401
0.000710641
0.00071196
0.000713352
0.000714804
0.000716307
0.000717847
0.000719409
0.000720978
0.000755783
0.000753225
0.000750683
0.000748164
0.000745669
0.000743205
0.000740776
0.000738385
0.000736038
0.000733739
0.000731493
0.000729304
0.000727177
0.000725115
0.000723122
0.000721203
0.00071936
0.000717597
0.000715918
0.000714324
0.000712818
0.000711403
0.000710081
0.000708855
0.000707727
0.000706698
0.00070577
0.000704946
0.000704226
0.000703612
0.000703104
0.000702703
0.000702407
0.000702217