/*--------------------------------*- C++ -*----------------------------------*\
  =========                 |
  \\      /  F ield         | OpenFOAM: The Open Source CFD Toolbox
   \\    /   O peration     | Website:  https://openfoam.org
    \\  /    A nd           | Version:  6
     \\/     M anipulation  |
\*---------------------------------------------------------------------------*/
FoamFile
{
    version     2.0;
    format      ascii;
    class       volScalarField;
    location    "0.05";
    object      p;
}
// * * * * * * * * * * * * * * * * * * * * * * * * * * * * * * * * * * * * * //

dimensions      [0 2 -2 0 0 0 0];

internalField   nonuniform List<scalar> 
3032
(
0.35387
0.101361
0.0232327
0.0125981
0.0078497
0.00292249
-7.29199e-05
-0.00205598
-0.00408026
-0.00631385
-0.00871062
-0.0113144
-0.0142456
-0.0176561
-0.021776
-0.0269804
-0.0346868
-0.0468162
-0.0283465
0.00204369
0.00291086
0.00921242
0.00831701
0.00397967
0.00072314
-0.00159964
-0.00384931
-0.00621361
-0.00870129
-0.0113957
-0.0144166
-0.0178989
-0.0220784
-0.0272828
-0.0345765
-0.0440724
-0.0649372
0.00593916
0.00754788
0.00967269
0.00854892
0.00460148
0.00137565
-0.00108749
-0.0034742
-0.00594797
-0.00853548
-0.0113272
-0.0144377
-0.0179919
-0.0222037
-0.0272961
-0.0338849
-0.0411364
-0.0195969
0.0191157
0.0109872
0.00950085
0.00819728
0.00472685
0.00169649
-0.000767134
-0.00319809
-0.00572339
-0.00836891
-0.0112187
-0.0143769
-0.0179514
-0.0221065
-0.0269612
-0.0327775
-0.0387152
0.000754937
0.0190416
0.0105097
0.00877569
0.0076127
0.00459189
0.00178468
-0.00062478
-0.00304293
-0.00556846
-0.00822434
-0.011083
-0.0142331
-0.0177597
-0.0217719
-0.0263094
-0.0314276
-0.0364797
0.00312181
0.0147807
0.00935454
0.00807818
0.00700456
0.00436216
0.0017682
-0.000567197
-0.00294202
-0.00543405
-0.00806388
-0.0108907
-0.0139848
-0.0174068
-0.0212179
-0.0254062
-0.0299208
-0.0342956
0.00330189
0.01192
0.00866598
0.00752025
0.00643696
0.00410763
0.00171254
-0.000536351
-0.00284736
-0.00528127
-0.00785569
-0.0106162
-0.013614
-0.0168873
-0.02046
-0.0242912
-0.0282864
-0.0321268
0.0043546
0.0103718
0.00821868
0.00705331
0.00593848
0.00386702
0.00165518
-0.000497436
-0.00272826
-0.00508342
-0.00757641
-0.0102395
-0.0131067
-0.0161965
-0.0195072
-0.0229848
-0.0265292
-0.0299304
0.00543075
0.00931715
0.00781599
0.00666239
0.00552928
0.00366894
0.00162553
-0.000422653
-0.00255921
-0.00481711
-0.007205
-0.00974307
-0.0124501
-0.0153295
-0.0183637
-0.0214965
-0.0246405
-0.0276577
0.00612605
0.00850522
0.00744924
0.00635363
0.00522046
0.00353469
0.00164798
-0.000287939
-0.00231709
-0.00446048
-0.00672157
-0.00911004
-0.0116323
-0.014281
-0.0170301
-0.0198278
-0.0226044
-0.0252663
0.00651819
0.0079107
0.00714162
0.00612527
0.00501208
0.00347542
0.00173761
-7.76673e-05
-0.00198661
-0.00399936
-0.00611417
-0.00833192
-0.0106496
-0.0130526
-0.0155121
-0.0179829
-0.0204121
-0.022731
0.00672381
0.00753713
0.00692283
0.00598526
0.00490954
0.00349634
0.00189188
0.000195764
-0.00159115
-0.00347026
-0.00543525
-0.00748063
-0.00959717
-0.0117665
-0.0139598
-0.0161383
-0.0182613
-0.0202711
0.00685195
0.00728055
0.00677618
0.00591623
0.00488895
0.00359167
0.00211656
0.000543589
-0.00111366
-0.00284957
-0.00465405
-0.00651669
-0.00842397
-0.0103558
-0.0122849
-0.0141789
-0.0160055
-0.0177152
0.00695181
0.00711684
0.00669301
0.00592165
0.0049659
0.00379652
0.00246892
0.00104494
-0.000452763
-0.00201212
-0.00361949
-0.00526047
-0.00691856
-0.00857317
-0.0101998
-0.0117723
-0.0132641
-0.0146348
0.00706613
0.00708215
0.00671507
0.00604165
0.00518405
0.00415703
0.00299736
0.00175174
0.000447392
-0.000898286
-0.00226865
-0.0036467
-0.00501446
-0.00635219
-0.00763882
-0.00885352
-0.00997434
-0.0109691
0.00726556
0.00721629
0.00689866
0.00633022
0.00559518
0.00472717
0.00375626
0.00271847
0.00164182
0.000547134
-0.00054702
-0.00162263
-0.00266189
-0.00364702
-0.0045606
-0.00538659
-0.0061064
-0.00669643
0.00764329
0.00757818
0.00731549
0.00685832
0.00626463
0.00557183
0.00480828
0.00400372
0.00318488
0.00237366
0.00158907
0.000848488
0.000168033
-0.000437409
-0.00095439
-0.0013713
-0.00167296
-0.00184493
0.00830339
0.00824777
0.00805031
0.00771002
0.00726802
0.00676007
0.00621424
0.00565712
0.00511347
0.00460445
0.00414783
0.00375883
0.00345055
0.0032341
0.0031186
0.00311112
0.0032228
0.00345798
0.00934427
0.0093149
0.00919614
0.00897578
0.00868417
0.00835758
0.00802464
0.00771077
0.00743939
0.00722991
0.00709736
0.00705339
0.00710696
0.00726454
0.00753041
0.00790685
0.00840031
0.009006
0.0104989
0.0105157
0.0104754
0.0103325
0.0101267
0.00990484
0.00969631
0.00952902
0.00942867
0.00941333
0.00949461
0.0096804
0.00997579
0.0103833
0.0109033
0.0115344
0.0122793
0.0131288
0.0114144
0.0115384
0.0115901
0.0114787
0.0113045
0.0111265
0.0109671
0.0108628
0.0108464
0.0109341
0.0111336
0.0114497
0.0118843
0.0124367
0.0131043
0.013883
0.0147727
0.0157622
0.0120598
0.0124915
0.0126821
0.0125435
0.0123617
0.0121849
0.0120152
0.0119138
0.011925
0.0120596
0.0123196
0.0127073
0.0132218
0.0138594
0.0146147
0.0154815
0.0164572
0.0175298
0.0122201
0.0133726
0.0137611
0.013532
0.0133341
0.0131208
0.0128777
0.0127267
0.0127224
0.0128611
0.0131388
0.0135558
0.0141087
0.0147903
0.0155927
0.0165078
0.0175307
0.0186498
0.0119051
0.0143483
0.0148085
0.0144185
0.0142627
0.0139731
0.0135819
0.0133344
0.0132816
0.0133917
0.0136549
0.0140713
0.0146338
0.0153312
0.0161532
0.0170896
0.0181336
0.0192744
0.0117751
0.0164383
0.0161078
0.015245
0.0151966
0.0147658
0.0141396
0.0137558
0.01363
0.0136868
0.0139132
0.0143096
0.0148635
0.015559
0.0163829
0.0173234
0.0183718
0.0195179
0.0101145
0.0209316
0.0184493
0.0163248
0.0162377
0.0155057
0.0145462
0.0139936
0.0137766
0.0137641
0.013942
0.0143094
0.0148464
0.0155312
0.0163478
0.017283
0.0183256
0.0194664
-0.00682356
0.0230205
0.0207243
0.0177345
0.0174221
0.0161316
0.0147473
0.014005
0.0136873
0.0136036
0.0137369
0.0140805
0.014604
0.0152794
0.0160882
0.0170158
0.0180495
0.0191803
-0.0508999
0.00978209
0.0167027
0.0178968
0.0182086
0.0163015
0.0145129
0.0136258
0.013241
0.0131178
0.0132371
0.0135822
0.0141112
0.0147905
0.0156006
0.0165266
0.0175545
0.0186752
-0.0308443
-0.000217912
0.00674517
0.0156137
0.0176823
0.0154559
0.0135331
0.0127176
0.0124072
0.0123319
0.0124912
0.0128724
0.0134289
0.0141259
0.0149455
0.0158757
0.016903
0.0180061
0.333733
0.114042
0.0370806
0.0242743
0.0193685
0.0147619
0.0124126
0.011783
0.0117055
0.0117863
0.0120398
0.0124787
0.0130694
0.0137842
0.0146115
0.0155445
0.0165801
0.0177264
-0.0536957
-0.0541553
-0.0548012
-0.0555218
-0.0562928
-0.0570741
-0.0578163
-0.0584741
-0.0590056
-0.0593701
-0.0595262
-0.0594317
-0.0590437
-0.0583188
-0.0572142
-0.0556887
-0.0537037
-0.0512248
-0.0482236
-0.0446804
-0.0405856
-0.0359322
-0.0307027
-0.0248626
-0.0184105
-0.0113873
-0.00383576
0.00419823
0.0126641
0.0215066
0.0306659
0.0400784
0.0496777
0.0593957
0.069164
0.0789144
0.088581
0.0981005
0.107414
0.116471
0.125227
0.13366
0.141748
0.149447
-0.0513663
-0.0523334
-0.053189
-0.0537329
-0.0542184
-0.0547502
-0.0553127
-0.0558676
-0.0563751
-0.0567932
-0.0570773
-0.0571807
-0.0570554
-0.0566523
-0.0559227
-0.0548186
-0.0532942
-0.0513068
-0.0488178
-0.0457925
-0.0421991
-0.0380093
-0.0332138
-0.0278401
-0.0219155
-0.0154493
-0.0084617
-0.000984101
0.00694336
0.0152736
0.0239536
0.032926
0.0421295
0.0515007
0.0609751
0.0704883
0.0799771
0.0893806
0.0986406
0.107701
0.116505
0.124989
0.133106
0.140838
-0.049161
-0.050952
-0.0527475
-0.0537689
-0.0543665
-0.0548624
-0.0553468
-0.0558215
-0.0562667
-0.0566523
-0.0569405
-0.057088
-0.0570482
-0.0567732
-0.0562142
-0.0553236
-0.0540554
-0.0523667
-0.0502185
-0.0475763
-0.0444096
-0.0406934
-0.0364141
-0.031574
-0.0261824
-0.0202505
-0.0137971
-0.00684966
0.00055704
0.00838127
0.0165754
0.0250867
0.0338588
0.0428323
0.0519464
0.0611398
0.070352
0.0795244
0.0886009
0.0975277
0.106252
0.114724
0.122901
0.130751
-0.0487931
-0.0511847
-0.0538764
-0.0556394
-0.0567072
-0.0574837
-0.0581368
-0.0587138
-0.0592242
-0.0596586
-0.0599931
-0.0601935
-0.0602189
-0.0600247
-0.0595638
-0.0587888
-0.057653
-0.0561123
-0.054126
-0.0516582
-0.0486785
-0.045164
-0.0411009
-0.0364844
-0.0313168
-0.0256072
-0.0193724
-0.0126371
-0.00543374
0.00219822
0.010213
0.0185595
0.0271826
0.0360238
0.0450231
0.0541195
0.0632526
0.0723633
0.0813952
0.0902947
0.0990124
0.107504
0.115729
0.12365
-0.0506175
-0.0533761
-0.0566951
-0.0590975
-0.060675
-0.0618323
-0.0627686
-0.0635566
-0.0642256
-0.0647818
-0.0652132
-0.0654944
-0.0655907
-0.0654617
-0.0650632
-0.0643496
-0.0632753
-0.0617963
-0.0598721
-0.0574662
-0.0545479
-0.0510934
-0.0470868
-0.04252
-0.0373935
-0.0317154
-0.0255017
-0.0187772
-0.0115743
-0.00393275
0.00410103
0.0124753
0.0211339
0.0300177
0.0390656
0.048216
0.0574076
0.0665809
0.0756787
0.0846469
0.093436
0.102003
0.110307
0.118313
-0.05458
-0.0576017
-0.0613824
-0.0642982
-0.06633
-0.0678626
-0.0691039
-0.0701375
-0.0710029
-0.0717158
-0.0722724
-0.0726534
-0.0728291
-0.0727623
-0.0724113
-0.0717318
-0.0706791
-0.0692095
-0.0672821
-0.06486
-0.0619117
-0.0584125
-0.0543457
-0.0497023
-0.0444828
-0.0386956
-0.0323579
-0.0254961
-0.0181446
-0.0103456
-0.00214795
0.00639394
0.0152215
0.0242731
0.0334857
0.042796
0.0521415
0.0614619
0.0706993
0.0797989
0.0887127
0.0973976
0.105815
0.11393
-0.0605435
-0.063772
-0.067905
-0.071225
-0.0736363
-0.0755032
-0.077033
-0.0783122
-0.0793839
-0.0802685
-0.0809662
-0.0814612
-0.081726
-0.0817251
-0.0814176
-0.0807595
-0.0797057
-0.0782118
-0.076236
-0.0737406
-0.0706932
-0.0670684
-0.0628494
-0.0580281
-0.0526055
-0.0465921
-0.0400079
-0.0328825
-0.0252545
-0.0171702
-0.00868299
0.000148385
0.00926116
0.0185901
0.028069
0.037632
0.047215
0.0567562
0.0661961
0.0754818
0.0845666
0.0934077
0.101968
0.110214
-0.0683276
-0.0717208
-0.0761197
-0.0797491
-0.0824649
-0.0846152
-0.086403
-0.0879132
-0.0891893
-0.0902522
-0.091103
-0.0917263
-0.0920944
-0.0921712
-0.0919143
-0.0912782
-0.0902156
-0.0886802
-0.0866281
-0.0840198
-0.0808215
-0.0770076
-0.0725612
-0.0674756
-0.0617544
-0.055411
-0.0484703
-0.0409672
-0.0329462
-0.0244603
-0.0155691
-0.0063377
0.0031654
0.01287
0.022706
0.0326041
0.0424976
0.0523222
0.0620201
0.0715402
0.0808356
0.089865
0.0985926
0.106988
-0.0777253
-0.0812409
-0.0858238
-0.0896752
-0.0926248
-0.0950077
-0.0970209
-0.0987454
-0.100222
-0.101471
-0.102489
-0.103261
-0.103754
-0.10393
-0.103742
-0.103142
-0.102076
-0.100496
-0.098353
-0.0956048
-0.0922158
-0.0881594
-0.0834193
-0.0779911
-0.0718818
-0.0651104
-0.057708
-0.0497177
-0.0411924
-0.0321939
-0.0227909
-0.0130565
-0.00306638
0.007103
0.0173763
0.0276795
0.0379434
0.0481045
0.0581068
0.0678989
0.0774352
0.0866763
0.0955892
0.104147
-0.0884917
-0.0920754
-0.0967502
-0.100733
-0.103847
-0.106414
-0.108624
-0.110551
-0.112231
-0.11368
-0.11489
-0.11584
-0.116493
-0.116803
-0.116718
-0.11618
-0.115132
-0.113517
-0.11128
-0.108376
-0.104764
-0.100418
-0.0953214
-0.0894743
-0.0828882
-0.0755899
-0.0676202
-0.0590328
-0.0498926
-0.0402732
-0.0302543
-0.0199196
-0.00935382
0.00135823
0.0121347
0.0228994
0.0335827
0.0441223
0.0544613
0.0645499
0.0743449
0.0838103
0.0929164
0.10164
-0.100314
-0.103893
-0.108547
-0.112562
-0.115769
-0.118476
-0.12086
-0.122986
-0.124884
-0.12656
-0.128002
-0.129177
-0.130041
-0.130538
-0.130604
-0.130174
-0.129179
-0.127552
-0.125231
-0.122162
-0.118302
-0.113621
-0.108106
-0.101762
-0.0946063
-0.0866779
-0.0780307
-0.0687334
-0.0588664
-0.0485186
-0.0377841
-0.0267611
-0.0155454
-0.00422878
0.00710324
0.0183732
0.0295101
0.0404512
0.0511417
0.0615348
0.0715914
0.0812795
0.0905741
0.0994562
-0.112779
-0.116256
-0.120756
-0.124689
-0.127916
-0.130723
-0.133267
-0.135602
-0.137747
-0.139697
-0.141428
-0.142895
-0.144042
-0.144799
-0.145089
-0.144831
-0.143942
-0.142341
-0.139956
-0.136722
-0.132591
-0.127532
-0.121535
-0.114608
-0.106783
-0.0981129
-0.088671
-0.0785459
-0.0678399
-0.0566626
-0.0451274
-0.0333449
-0.0214203
-0.00945161
0.00247131
0.014268
0.025868
0.0372111
0.0482465
0.0589323
0.0692349
0.0791278
0.0885914
0.0976119
-0.125335
-0.128591
-0.132779
-0.136509
-0.139683
-0.142557
-0.14526
-0.14783
-0.15027
-0.152561
-0.154662
-0.156514
-0.158041
-0.159156
-0.159764
-0.159763
-0.159052
-0.157533
-0.155116
-0.151724
-0.147303
-0.141819
-0.135265
-0.127659
-0.119051
-0.109518
-0.099158
-0.0880911
-0.0764457
-0.0643535
-0.051946
-0.0393476
-0.0266752
-0.0140341
-0.00151689
0.0107968
0.02284
0.0345578
0.0459057
0.0568488
0.0673604
0.0774211
0.0870177
0.0961422
-0.137264
-0.140162
-0.143866
-0.147268
-0.150322
-0.153242
-0.15612
-0.158971
-0.161777
-0.1645
-0.167079
-0.169433
-0.171463
-0.173061
-0.174105
-0.17447
-0.17403
-0.172661
-0.170252
-0.166713
-0.161978
-0.156012
-0.148813
-0.140418
-0.130907
-0.120389
-0.108998
-0.0968848
-0.0842097
-0.0711321
-0.0578054
-0.0443706
-0.0309531
-0.0176616
-0.00458712
0.00819547
0.0206263
0.0326588
0.0442574
0.0553964
0.0660576
0.0762296
0.0859062
0.0950859
-0.147641
-0.150033
-0.15308
-0.156039
-0.158924
-0.16189
-0.164984
-0.168189
-0.171462
-0.174739
-0.177932
-0.180934
-0.18362
-0.18585
-0.187473
-0.188332
-0.188266
-0.187122
-0.184761
-0.181072
-0.175987
-0.16947
-0.161534
-0.152243
-0.14171
-0.130089
-0.117561
-0.10432
-0.0905651
-0.0764846
-0.0622523
-0.0480205
-0.0339186
-0.0200527
-0.00650737
0.00665191
0.0193762
0.0316303
0.04339
0.0546401
0.0653722
0.0755833
0.0852747
0.0944509
-0.155589
-0.157386
-0.159621
-0.162034
-0.164719
-0.167757
-0.171139
-0.17481
-0.178692
-0.182687
-0.186674
-0.190511
-0.194039
-0.197082
-0.199452
-0.200951
-0.201382
-0.200554
-0.198298
-0.194477
-0.188996
-0.181827
-0.173011
-0.162656
-0.150935
-0.138061
-0.124278
-0.109833
-0.0949653
-0.0798931
-0.0648047
-0.049857
-0.0351749
-0.0208549
-0.0069678
0.006436
0.019323
0.0316728
0.0434748
0.0547257
0.0654275
0.0755861
0.0852097
0.0943087
-0.158982
-0.160285
-0.161648
-0.163495
-0.166016
-0.169209
-0.172996
-0.177276
-0.18193
-0.186819
-0.191781
-0.196633
-0.201177
-0.205194
-0.208451
-0.210706
-0.211712
-0.211234
-0.209067
-0.205044
-0.199062
-0.191111
-0.181276
-0.169732
-0.156726
-0.142552
-0.127523
-0.111943
-0.0960882
-0.0801953
-0.0644568
-0.0490212
-0.0339979
-0.0194632
-0.00546696
0.00796121
0.0208068
0.0330659
0.0447423
0.0558442
0.0663834
0.0763731
0.0858273
0.0947603
-0.157267
-0.158066
-0.158621
-0.160018
-0.162493
-0.165952
-0.170253
-0.17525
-0.180776
-0.186648
-0.192659
-0.198587
-0.20419
-0.209207
-0.21336
-0.216359
-0.21791
-0.217739
-0.215595
-0.211283
-0.204715
-0.19592
-0.185049
-0.172361
-0.158189
-0.14291
-0.126898
-0.110497
-0.0940008
-0.0776462
-0.0616111
-0.0460223
-0.0309645
-0.016489
-0.00262317
0.0106234
0.0232528
0.0352745
0.0467029
0.0575547
0.0678475
0.0775995
0.0868275
0.0955477
-0.151461
-0.151602
-0.151483
-0.152606
-0.155187
-0.159033
-0.163948
-0.169739
-0.176191
-0.183071
-0.190133
-0.197111
-0.203724
-0.209669
-0.214626
-0.218259
-0.220232
-0.220228
-0.217955
-0.21322
-0.20597
-0.196298
-0.18444
-0.170747
-0.155641
-0.139563
-0.122928
-0.106094
-0.0893494
-0.0729074
-0.0569188
-0.0414809
-0.0266509
-0.0124564
0.00109499
0.0140091
0.0262998
0.0379856
0.0490871
0.0596256
0.0696221
0.0790964
0.0880666
0.0965486
-0.142935
-0.142209
-0.141505
-0.142481
-0.145267
-0.149573
-0.155149
-0.161751
-0.169113
-0.176956
-0.18499
-0.192913
-0.200404
-0.207125
-0.212712
-0.21679
-0.218992
-0.218946
-0.216348
-0.211048
-0.203053
-0.192543
-0.179847
-0.165405
-0.149708
-0.13323
-0.116394
-0.0995407
-0.0829276
-0.0667347
-0.051079
-0.0360288
-0.0216178
-0.00785579
0.00526296
0.0177535
0.0296361
0.0409336
0.0516692
0.0618657
0.0715447
0.0807261
0.0894274
0.097663
-0.133304
-0.131409
-0.130054
-0.130902
-0.133898
-0.138649
-0.144845
-0.15219
-0.160367
-0.16905
-0.177909
-0.186606
-0.194783
-0.202065
-0.208058
-0.212361
-0.214543
-0.214204
-0.211099
-0.205141
-0.196424
-0.185221
-0.171956
-0.157129
-0.141258
-0.124814
-0.108188
-0.091683
-0.0755132
-0.0598227
-0.044699
-0.0301887
-0.0163103
-0.00306347
0.00956381
0.0215903
0.033038
0.0439305
0.0542908
0.064141
0.0735017
0.0823918
0.0908273
0.0988204
-0.124187
-0.120767
-0.118471
-0.119021
-0.122075
-0.127115
-0.133776
-0.141708
-0.150537
-0.159889
-0.16939
-0.178662
-0.187312
-0.194934
-0.201111
-0.20537
-0.207247
-0.206411
-0.202688
-0.196079
-0.186779
-0.175155
-0.161685
-0.14689
-0.131267
-0.115243
-0.0991595
-0.0832695
-0.0677493
-0.0527135
-0.0382301
-0.0243336
-0.0110355
0.00166777
0.0137891
0.0253469
0.0363621
0.0468563
0.0568509
0.066366
0.0754204
0.0840313
0.0922128
0.0999743
-0.116855
-0.111598
-0.107814
-0.107568
-0.110303
-0.115355
-0.122269
-0.130619
-0.139953
-0.149824
-0.159803
-0.169472
-0.178408
-0.186175
-0.192271
-0.196191
-0.197549
-0.1961
-0.191763
-0.184644
-0.17503
-0.163342
-0.150065
-0.135687
-0.12065
-0.10532
-0.0899864
-0.0748602
-0.0600894
-0.0457708
-0.0319628
-0.0186954
-0.00597927
0.00618798
0.0178171
0.0289236
0.0395256
0.049642
0.0592912
0.0684909
0.0772578
0.085607
0.0935508
0.101095
-0.111906
-0.104529
-0.0982766
-0.0963622
-0.0983895
-0.103297
-0.110393
-0.119128
-0.128921
-0.139227
-0.149573
-0.159504
-0.168548
-0.176179
-0.18188
-0.185246
-0.185982
-0.183942
-0.179147
-0.171792
-0.162211
-0.150821
-0.138067
-0.124376
-0.110125
-0.0956271
-0.0811278
-0.0668111
-0.0528077
-0.0392055
-0.0260595
-0.0134001
-0.00124019
0.0104193
0.0215854
0.0322698
0.0424869
0.0522523
0.0615815
0.0704896
0.0789907
0.0870981
0.0948222
0.102166
-0.109499
-0.0993328
-0.08887
-0.0847223
-0.0862211
-0.0911834
-0.0985933
-0.107782
-0.118031
-0.128709
-0.139281
-0.149227
-0.158024
-0.165187
-0.170303
-0.173051
-0.173231
-0.170788
-0.16582
-0.158554
-0.149315
-0.138481
-0.126438
-0.113554
-0.100154
-0.0865107
-0.0728417
-0.0593126
-0.0460442
-0.0331206
-0.0205963
-0.00850414
0.00313955
0.0143297
0.0250692
0.0353655
0.0452296
0.0546734
0.0637097
0.0723508
0.0806086
0.0884943
0.0960172
0.103177
-0.107529
-0.0926023
-0.0771487
-0.0725531
-0.0747135
-0.0800921
-0.0878955
-0.0974745
-0.107964
-0.118677
-0.12907
-0.138648
-0.146945
-0.15354
-0.158092
-0.160355
-0.1602
-0.157627
-0.152757
-0.145812
-0.137084
-0.126906
-0.115618
-0.103542
-0.0909652
-0.078132
-0.0652392
-0.0524401
-0.0398492
-0.0275483
-0.0155932
-0.00401909
0.00715381
0.0179165
0.0282676
0.038211
0.0477539
0.0569052
0.0656749
0.0740728
0.0821088
0.0897923
0.0971312
0.104123
-0.108188
-0.0782396
-0.0609749
-0.0599448
-0.0640923
-0.0699911
-0.0780174
-0.0877601
-0.0982515
-0.108783
-0.118864
-0.128041
-0.135881
-0.142016
-0.146164
-0.148133
-0.14784
-0.145307
-0.14066
-0.134104
-0.125908
-0.116368
-0.105788
-0.0944556
-0.082629
-0.070529
-0.0583368
-0.0461959
-0.0342156
-0.0224764
-0.0110348
7.13696e-05
0.0108188
0.0211947
0.0311943
0.040818
0.0500697
0.0589556
0.0674831
0.07566
0.0834941
0.0909931
0.098164
0.105002
-0.0688373
-0.0491174
-0.0405068
-0.0447352
-0.051935
-0.0596987
-0.0688008
-0.0790414
-0.089625
-0.0999791
-0.109718
-0.11846
-0.125836
-0.131534
-0.13532
-0.137043
-0.136646
-0.134167
-0.129731
-0.12353
-0.11581
-0.106838
-0.0968852
-0.0862108
-0.0750478
-0.0635978
-0.0520286
-0.0404748
-0.0290411
-0.0178065
-0.00682782
0.00385525
0.0142168
0.0242411
0.0339203
0.0432518
0.052237
0.0608794
0.0691842
0.0771573
0.0848047
0.0921329
0.0991475
0.105842
-0.0546163
-0.0483053
-0.0425683
-0.0439863
-0.0489808
-0.0555691
-0.0637687
-0.0731773
-0.0829944
-0.0926149
-0.101632
-0.10968
-0.116419
-0.121571
-0.12493
-0.126372
-0.125855
-0.123421
-0.119187
-0.113329
-0.106064
-0.0976318
-0.0882743
-0.0782228
-0.0676882
-0.0568546
-0.0458773
-0.034883
-0.0239719
-0.013221
-0.0026876
0.00758735
0.0175756
0.0272591
0.0366269
0.045674
0.0543989
0.0628032
0.0708898
0.0786628
0.0861266
0.0932863
0.100146
0.106699
-0.0476996
-0.0462584
-0.0426645
-0.0434099
-0.0476915
-0.0536271
-0.0608271
-0.0690226
-0.0776315
-0.0861174
-0.0940825
-0.10118
-0.107097
-0.111575
-0.114429
-0.115546
-0.11489
-0.112498
-0.10847
-0.10296
-0.0961576
-0.0882698
-0.0795099
-0.0700832
-0.0601787
-0.0499638
-0.0395817
-0.0291511
-0.0187678
-0.00850663
0.00157511
0.0114352
0.0210434
0.030379
0.0394288
0.0481849
0.0566435
0.0648037
0.0726664
0.080234
0.087509
0.0944952
0.101195
0.107602
-0.0434274
-0.0436489
-0.0422856
-0.0433754
-0.0470623
-0.0521736
-0.0583206
-0.0652948
-0.0726564
-0.0799421
-0.0867815
-0.0928584
-0.0978913
-0.10165
-0.103967
-0.10474
-0.103933
-0.101572
-0.0977413
-0.0925687
-0.0862143
-0.0788566
-0.07068
-0.0618648
-0.0525792
-0.0429743
-0.0331813
-0.0233109
-0.0134539
-0.00368314
0.00594477
0.0153867
0.0246107
0.0335939
0.0423207
0.0507807
0.0589678
0.0668789
0.0745128
0.08187
0.0889516
0.0957596
0.102296
0.108552
-0.0401206
-0.041192
-0.041461
-0.0430186
-0.0462434
-0.0505964
-0.0557886
-0.0616312
-0.0677928
-0.0738985
-0.0796241
-0.0846884
-0.088844
-0.0918873
-0.0936684
-0.0940935
-0.0931256
-0.0907819
-0.0871276
-0.0822669
-0.076333
-0.0694765
-0.0618555
-0.0536267
-0.0449384
-0.0359258
-0.0267084
-0.0173884
-0.0080516
0.00123228
0.0104075
0.0194305
0.0282683
0.0368961
0.0452961
0.0534559
0.0613672
0.0690246
0.0764252
0.0835676
0.0904513
0.097077
0.103445
0.109547
-0.0373623
-0.038912
-0.0401071
-0.0419809
-0.0448831
-0.0486187
-0.0529917
-0.0578363
-0.0629063
-0.0679133
-0.0725882
-0.0766905
-0.0800077
-0.0823632
-0.0836246
-0.0837066
-0.0825715
-0.0802275
-0.0767235
-0.0721426
-0.0665935
-0.0602016
-0.0531008
-0.0454258
-0.0373061
-0.0288618
-0.0202005
-0.011416
-0.0025882
0.00621635
0.0149435
0.0235501
0.0320021
0.0402736
0.0483451
0.0562021
0.0638345
0.0712349
0.0783986
0.0853225
0.0920047
0.0984443
0.10464
0.110584
-0.0348756
-0.036634
-0.0382682
-0.0402868
-0.0429301
-0.0461459
-0.0498109
-0.0537903
-0.0579007
-0.0619244
-0.0656459
-0.0688663
-0.0714079
-0.0731211
-0.0738914
-0.0736425
-0.0723373
-0.0699769
-0.0665967
-0.0622614
-0.0570583
-0.0510906
-0.0444702
-0.0373119
-0.0297276
-0.0218227
-0.0136934
-0.00542499
0.00290878
0.0112453
0.0195325
0.0277279
0.0357974
0.0437141
0.0514571
0.0590105
0.0663623
0.0735036
0.0804279
0.0871306
0.0936082
0.0998587
0.105879
0.111663
-0.0324558
-0.0342491
-0.0360297
-0.0380453
-0.0404317
-0.0431836
-0.046226
-0.0494549
-0.0527321
-0.0558936
-0.0587708
-0.0612033
-0.0630458
-0.0641744
-0.064492
-0.0639322
-0.06246
-0.0600714
-0.0567911
-0.0526686
-0.0477732
-0.0421886
-0.0360076
-0.0293267
-0.0222417
-0.0148445
-0.00722007
0.000555042
0.00841322
0.0162961
0.0241543
0.0319467
0.0396392
0.0472048
0.0546214
0.061872
0.0689431
0.0758243
0.0825079
0.0889875
0.0952586
0.101318
0.107161
0.112781
-0.0299795
-0.0316986
-0.0334487
-0.0353477
-0.0374574
-0.0397799
-0.0422675
-0.0448414
-0.0473966
-0.0498095
-0.0519495
-0.05369
-0.0549142
-0.0555213
-0.055431
-0.0545864
-0.0529559
-0.0505325
-0.0473329
-0.0433942
-0.038771
-0.0335303
-0.0277483
-0.0215055
-0.0148831
-0.00796015
-0.00081112
0.00649576
0.0138993
0.0213457
0.0287885
0.0361882
0.0435118
0.0507318
0.057826
0.0647763
0.0715681
0.0781899
0.0846324
0.0908882
0.0969515
0.102818
0.108482
0.113936
-0.0273741
-0.0289481
-0.0305606
-0.0322652
-0.0340777
-0.0359949
-0.0379829
-0.0399816
-0.0419107
-0.0436764
-0.0451788
-0.0463187
-0.0470042
-0.0471543
-0.0467037
-0.045605
-0.0438301
-0.0413711
-0.0382385
-0.0344601
-0.030078
-0.0251458
-0.0197252
-0.0138827
-0.00768667
-0.00120445
0.00549936
0.0123646
0.0193363
0.0263653
0.0334085
0.0404285
0.0473933
0.054276
0.0610539
0.0677084
0.0742242
0.0805887
0.0867916
0.0928244
0.09868
0.104353
0.109837
0.115125
-0.0246016
-0.0259843
-0.0273968
-0.0288597
-0.030362
-0.0318939
-0.0334284
-0.0349187
-0.0363031
-0.0375101
-0.0384633
-0.0390862
-0.0393069
-0.0390617
-0.038298
-0.0369772
-0.0350753
-0.032584
-0.0295097
-0.0258729
-0.0217059
-0.017051
-0.0119579
-0.00648091
-0.000676937
0.00539701
0.0116855
0.0181358
0.0246991
0.0313311
0.0379919
0.0446465
0.0512643
0.0578191
0.0642884
0.0706532
0.0768978
0.0830086
0.0889744
0.0947859
0.100435
0.105915
0.11122
0.116341
-0.021917
-0.023095
-0.0242925
-0.0255123
-0.0267283
-0.0279256
-0.0290806
-0.0301551
-0.0310998
-0.0318588
-0.0323725
-0.0325811
-0.0324279
-0.0318623
-0.0308425
-0.0293368
-0.0273256
-0.024801
-0.0217671
-0.0182396
-0.0142438
-0.0098136
-0.0049894
0.000183826
0.0056585
0.0113862
0.017319
0.023411
0.0296187
0.0359021
0.0422247
0.048554
0.0548609
0.0611201
0.0673098
0.0734109
0.0794073
0.0852851
0.0910326
0.0966394
0.102097
0.107398
0.112535
0.1175
-0.0191288
-0.020095
-0.0210641
-0.0220336
-0.0229691
-0.0238521
-0.0246617
-0.0253665
-0.025927
-0.0262989
-0.0264356
-0.0262903
-0.0258184
-0.0249802
-0.0237421
-0.0220791
-0.0199746
-0.0174221
-0.0144242
-0.0109928
-0.00714799
-0.00291689
0.00166757
0.00656834
0.0117456
0.0171584
0.0227657
0.0285272
0.0344049
0.0403627
0.0463674
0.052389
0.0584003
0.0643771
0.0702982
0.076145
0.0819011
0.0875525
0.0930869
0.0984935
0.103763
0.108887
0.113859
0.118669
-0.0157616
-0.0164851
-0.0171931
-0.0178806
-0.0185105
-0.0190626
-0.019519
-0.0198542
-0.0200374
-0.0200346
-0.0198102
-0.019329
-0.0185573
-0.0174647
-0.0160257
-0.0142208
-0.012037
-0.00946859
-0.00651722
-0.00319155
0.000493184
0.00451595
0.00885088
0.0134684
0.0183361
0.0234204
0.0286869
0.0341014
0.0396309
0.0452438
0.0509105
0.0566036
0.0622981
0.0679712
0.0736025
0.0791738
0.0846691
0.0900739
0.0953755
0.100563
0.105626
0.110556
0.115344
0.119983
-0.0117716
-0.0122266
-0.0126497
-0.0130341
-0.0133439
-0.0135594
-0.0136654
-0.013642
-0.0134656
-0.0131108
-0.0125513
-0.0117615
-0.0107167
-0.00939484
-0.0077771
-0.00584896
-0.00360068
-0.00102774
0.00186904
0.0050835
0.00860448
0.0124162
0.0164991
0.0208302
0.0253842
0.0301341
0.0350519
0.0401095
0.045279
0.0505333
0.0558467
0.0611946
0.0665544
0.0719051
0.0772273
0.0825037
0.0877184
0.0928569
0.0979065
0.102855
0.107693
0.112411
0.116999
-0.00714716
-0.00731991
-0.00744837
-0.00752369
-0.00751358
-0.00740066
-0.00717259
-0.00681413
-0.00630766
-0.00563465
-0.00477642
-0.0037147
-0.0024322
-0.000913359
0.000855039
0.00288331
0.00517842
0.00774374
0.0105788
0.0136793
0.0170372
0.0206412
0.0244767
0.0285266
0.0327714
0.0371903
0.0417613
0.0464616
0.0512685
0.0561593
0.061112
0.0661054
0.0711194
0.0761349
0.0811341
0.0861004
0.0910187
0.0958747
0.100656
0.105349
0.109945
0.114434
0.118805
-0.00193222
-0.00182561
-0.00166707
-0.00144426
-0.00113078
-0.000712497
-0.000179911
0.000478354
0.00127512
0.00222355
0.00333663
0.00462692
0.00610618
0.00778494
0.00967213
0.0117747
0.0140974
0.0166425
0.0194095
0.0223955
0.0255949
0.0289994
0.0325986
0.0363798
0.0403288
0.0444298
0.0486656
0.0530187
0.0574708
0.0620035
0.0665985
0.0712378
0.0759038
0.0805798
0.0852496
0.0898978
0.09451
0.0990727
0.103573
0.107999
0.11234
0.116585
0.120726
0.00372284
0.00408951
0.00451249
0.00500804
0.00559537
0.00628491
0.00708366
0.00799992
0.00904276
0.0102213
0.0115442
0.0130199
0.0146561
0.0164596
0.0184362
0.0205901
0.0229244
0.0254403
0.0281373
0.0310132
0.0340638
0.0372834
0.0406643
0.0441974
0.0478724
0.0516773
0.0555996
0.0596254
0.0637407
0.0679308
0.0721808
0.0764757
0.0808007
0.0851412
0.0894828
0.0938116
0.0981143
0.102378
0.10659
0.110739
0.114815
0.118806
0.122703
0.00959061
0.0101821
0.01083
0.0115554
0.0123704
0.0132817
0.0142942
0.0154139
0.0166471
0.0180001
0.0194784
0.0210877
0.0228328
0.0247181
0.026747
0.0289222
0.0312454
0.0337172
0.0363369
0.0391028
0.0420119
0.0450599
0.0482414
0.0515497
0.0549772
0.0585151
0.0621539
0.0658832
0.069692
0.0735685
0.0775009
0.0814766
0.0854833
0.0895083
0.093539
0.0975628
0.101568
0.105541
0.109471
0.113348
0.117159
0.120894
0.124545
0.0139215
0.0146563
0.0154482
0.01632
0.017279
0.0183293
0.0194747
0.0207199
0.0220695
0.0235278
0.0250989
0.0267867
0.0285943
0.0305247
0.0325802
0.0347623
0.0370718
0.039509
0.0420729
0.044762
0.0475737
0.0505046
0.0535501
0.0567051
0.0599634
0.063318
0.0667611
0.0702842
0.0738782
0.0775334
0.0812394
0.0849858
0.0887615
0.0925553
0.0963559
0.100152
0.103931
0.107684
0.111397
0.115061
0.118664
0.122197
0.125651
0.0166735
0.017488
0.0183585
0.0193088
0.0203438
0.0214663
0.0226795
0.023987
0.0253927
0.0269
0.0285121
0.030232
0.0320622
0.0340049
0.0360616
0.0382337
0.0405215
0.0429251
0.0454436
0.0480754
0.0508184
0.0536694
0.0566247
0.0596796
0.0628288
0.0660662
0.0693848
0.0727772
0.0762352
0.0797501
0.0833125
0.0869128
0.0905408
0.0941861
0.097838
0.101486
0.105118
0.108724
0.112294
0.115815
0.119279
0.122676
0.125996
0.0185094
0.0193704
0.0202869
0.0212824
0.0223607
0.0235237
0.0247742
0.0261154
0.0275505
0.0290823
0.0307136
0.0324467
0.0342838
0.0362266
0.0382764
0.0404341
0.0427
0.0450738
0.0475548
0.0501415
0.0528318
0.055623
0.0585114
0.0614929
0.0645625
0.0677146
0.070943
0.0742407
0.0776
0.0810129
0.0844707
0.0879641
0.0914836
0.0950193
0.0985609
0.102098
0.10562
0.109116
0.112577
0.115991
0.119348
0.12264
0.125857
0.0196665
0.0205528
0.0214942
0.0225132
0.0236133
0.0247961
0.0260638
0.0274195
0.028866
0.0304059
0.0320414
0.0337747
0.0356076
0.0375415
0.0395777
0.0417168
0.043959
0.046304
0.048751
0.0512987
0.0539451
0.0566874
0.0595225
0.0624462
0.0654539
0.0685404
0.0716996
0.0749249
0.0782091
0.0815445
0.0849226
0.0883347
0.0917716
0.0952237
0.098681
0.102133
0.105571
0.108983
0.112359
0.11569
0.118966
0.122177
0.125315
0.0203064
0.0212037
0.0221563
0.0231848
0.0242927
0.0254818
0.0267541
0.0281122
0.0295589
0.0310964
0.0327268
0.0344522
0.0362741
0.0381938
0.0402124
0.0423304
0.044548
0.0468649
0.0492803
0.051793
0.0544009
0.0571015
0.0598917
0.0627675
0.0657246
0.0687576
0.0718609
0.0750281
0.0782521
0.0815255
0.0848401
0.0881875
0.0915587
0.0949443
0.0983347
0.10172
0.10509
0.108436
0.111746
0.115012
0.118224
0.121374
0.124452
0.0205511
0.0214507
0.0224061
0.0234351
0.024542
0.0257286
0.0269969
0.0283495
0.0297888
0.031317
0.0329361
0.034648
0.0364541
0.0383557
0.0403537
0.0424487
0.0446407
0.0469296
0.0493145
0.0517942
0.0543668
0.0570299
0.0597804
0.0626144
0.0655276
0.0685149
0.0715706
0.0746886
0.077862
0.0810835
0.0843453
0.0876389
0.0909558
0.0942867
0.0976223
0.100953
0.104269
0.107561
0.110819
0.114034
0.117197
0.120299
0.123333
0.0204917
0.021388
0.0223415
0.0233658
0.0244659
0.0256445
0.0269036
0.0282452
0.029672
0.0311861
0.0327895
0.0344839
0.0362708
0.0381515
0.0401267
0.042197
0.0443626
0.0466232
0.048978
0.0514258