/*--------------------------------*- C++ -*----------------------------------*\
  =========                 |
  \\      /  F ield         | OpenFOAM: The Open Source CFD Toolbox
   \\    /   O peration     | Website:  https://openfoam.org
    \\  /    A nd           | Version:  6
     \\/     M anipulation  |
\*---------------------------------------------------------------------------*/
FoamFile
{
    version     2.0;
    format      ascii;
    class       surfaceScalarField;
    location    "0.05";
    object      phi;
}
// * * * * * * * * * * * * * * * * * * * * * * * * * * * * * * * * * * * * * //

dimensions      [0 3 -1 0 0 0 0];

internalField   nonuniform List<scalar> 
5945
(
3.25692e-07
-6.85166e-09
3.19494e-07
6.19792e-09
3.16016e-07
3.47828e-09
3.09126e-07
6.88994e-09
3.02432e-07
6.69453e-09
2.97776e-07
4.65605e-09
2.9489e-07
2.88506e-09
2.93074e-07
1.81627e-09
2.91895e-07
1.1793e-09
2.91167e-07
7.27979e-10
2.90804e-07
3.62709e-10
2.90731e-07
7.29259e-11
2.90911e-07
-1.79523e-10
2.91377e-07
-4.66326e-10
2.92249e-07
-8.71675e-10
2.93685e-07
-1.43643e-09
2.9681e-07
-3.12456e-09
-6.71251e-09
3.03522e-07
3.50363e-07
-1.549e-08
3.47854e-07
8.70689e-09
3.44208e-07
7.12498e-09
3.42512e-07
8.58505e-09
3.40558e-07
8.6489e-09
3.38362e-07
6.85226e-09
3.36388e-07
4.85892e-09
3.34844e-07
3.36057e-09
3.33736e-07
2.28666e-09
3.33011e-07
1.45338e-09
3.32619e-07
7.54641e-10
3.32556e-07
1.359e-10
3.32833e-07
-4.565e-10
3.33462e-07
-1.09547e-09
3.34505e-07
-1.91492e-09
3.36145e-07
-3.07621e-09
3.38496e-07
-5.47539e-09
-9.52318e-09
3.41307e-07
3.63447e-07
-1.26851e-08
3.66628e-07
5.52584e-09
3.66892e-07
6.86061e-09
3.67224e-07
8.25295e-09
3.67079e-07
8.79468e-09
3.66385e-07
7.546e-09
3.65476e-07
5.76816e-09
3.64632e-07
4.2039e-09
3.63993e-07
2.92558e-09
3.63603e-07
1.84393e-09
3.6347e-07
8.87285e-10
3.63609e-07
-2.60012e-12
3.64042e-07
-8.89332e-10
3.648e-07
-1.85417e-09
3.6593e-07
-3.04488e-09
3.67514e-07
-4.6605e-09
3.69378e-07
-7.33927e-09
-1.13075e-08
3.71163e-07
3.8926e-07
-9.40661e-09
3.91542e-07
3.24456e-09
3.92592e-07
5.81056e-09
3.93434e-07
7.41092e-09
3.93952e-07
8.27591e-09
3.9401e-07
7.488e-09
3.93774e-07
6.00457e-09
3.93463e-07
4.51526e-09
3.93226e-07
3.16261e-09
3.93141e-07
1.92846e-09
3.9325e-07
7.78028e-10
3.93584e-07
-3.36085e-10
3.94172e-07
-1.47747e-09
3.95048e-07
-2.7298e-09
3.96237e-07
-4.23431e-09
3.97752e-07
-6.17542e-09
3.99383e-07
-8.97051e-09
-1.27218e-08
4.00797e-07
4.18296e-07
-6.98981e-09
4.1951e-07
2.03022e-09
4.20527e-07
4.79422e-09
4.21484e-07
6.45379e-09
4.22307e-07
7.45216e-09
4.22804e-07
6.99107e-09
4.23028e-07
5.78076e-09
4.23131e-07
4.41285e-09
4.23239e-07
3.05435e-09
4.23436e-07
1.73142e-09
4.23776e-07
4.37798e-10
4.243e-07
-8.59622e-10
4.2504e-07
-2.21763e-09
4.26025e-07
-3.71462e-09
4.27263e-07
-5.47303e-09
4.28729e-07
-7.64154e-09
4.30232e-07
-1.0473e-08
-1.39774e-08
4.31488e-07
4.49065e-07
-5.14638e-09
4.49717e-07
1.37835e-09
4.506e-07
3.911e-09
4.51572e-07
5.4819e-09
4.52549e-07
6.47583e-09
4.53316e-07
6.22347e-09
4.53864e-07
5.23322e-09
4.54289e-07
3.98784e-09
4.54689e-07
2.65369e-09
4.5514e-07
1.28078e-09
4.55696e-07
-1.18425e-10
4.564e-07
-1.56383e-09
4.57285e-07
-3.1019e-09
4.5837e-07
-4.79999e-09
4.59653e-07
-6.75568e-09
4.61088e-07
-9.07677e-09
4.62515e-07
-1.19002e-08
-1.51859e-08
4.63724e-07
4.81793e-07
-3.66716e-09
4.82182e-07
9.89077e-10
4.82941e-07
3.1521e-09
4.83884e-07
4.53928e-09
4.84925e-07
5.43397e-09
4.85858e-07
5.29107e-09
4.86633e-07
4.45802e-09
4.87307e-07
3.31381e-09
4.8795e-07
2.01075e-09
4.88622e-07
6.0857e-10
4.89373e-07
-8.69686e-10
4.90243e-07
-2.43328e-09
4.91258e-07
-4.11716e-09
4.92433e-07
-5.97439e-09
4.93753e-07
-8.07642e-09
4.9517e-07
-1.04931e-08
4.96555e-07
-1.32857e-08
-1.63971e-08
4.97766e-07
5.16789e-07
-2.49855e-09
5.1704e-07
7.38694e-10
5.17691e-07
2.50046e-09
5.18583e-07
3.64813e-09
5.19637e-07
4.37954e-09
5.20664e-07
4.26431e-09
5.21596e-07
3.52596e-09
5.22458e-07
2.45156e-09
5.23296e-07
1.17271e-09
5.24155e-07
-2.50259e-10
5.25075e-07
-1.78965e-09
5.26088e-07
-3.44668e-09
5.27216e-07
-5.24504e-09
5.28465e-07
-7.22265e-09
5.29815e-07
-9.42667e-09
5.31218e-07
-1.18958e-08
5.32578e-07
-1.46464e-08
-1.76219e-08
5.33803e-07
5.54254e-07
-1.6193e-09
5.54427e-07
5.66502e-10
5.54994e-07
1.93293e-09
5.55829e-07
2.81343e-09
5.56866e-07
3.34213e-09
5.5794e-07
3.19035e-09
5.58976e-07
2.49038e-09
5.59975e-07
1.45195e-09
5.60965e-07
1.83589e-10
5.61974e-07
-1.25917e-09
5.63032e-07
-2.8478e-09
5.64163e-07
-4.57772e-09
5.6538e-07
-6.46244e-09
5.66683e-07
-8.52557e-09
5.6805e-07
-1.07938e-08
5.69437e-07
-1.32826e-08
5.70774e-07
-1.59837e-08
-1.88491e-08
5.72001e-07
5.94354e-07
-9.9557e-10
5.94493e-07
4.27271e-10
5.95003e-07
1.42267e-09
5.95787e-07
2.02932e-09
5.96794e-07
2.3358e-09
5.97884e-07
2.10045e-09
5.98982e-07
1.39191e-09
6.00076e-07
3.57773e-10
6.01176e-07
-9.15921e-10
6.02298e-07
-2.38114e-09
6.03461e-07
-4.01075e-09
6.04679e-07
-5.79611e-09
6.05959e-07
-7.74209e-09
6.07293e-07
-9.85994e-09
6.0866e-07
-1.21603e-08
6.1002e-07
-1.46425e-08
6.11323e-07
-1.72868e-08
-2.00548e-08
6.12528e-07
6.37271e-07
-5.85845e-10
6.3741e-07
2.88621e-10
6.37889e-07
9.43491e-10
6.38634e-07
1.28449e-09
6.39605e-07
1.3653e-09
6.4069e-07
1.0148e-09
6.41821e-07
2.61488e-10
6.42973e-07
-7.9481e-10
6.44146e-07
-2.08841e-09
6.45344e-07
-3.57949e-09
6.46577e-07
-5.24337e-09
6.47849e-07
-7.06866e-09
6.4916e-07
-9.05326e-09
6.50499e-07
-1.11985e-08
6.51842e-07
-1.35033e-08
6.53156e-07
-1.59568e-08
6.54404e-07
-1.85345e-08
-2.12064e-08
6.55556e-07
5.73871e-07
-3.73822e-10
5.74e-07
1.60379e-10
5.74397e-07
5.46263e-10
5.75006e-07
6.75608e-10
5.75798e-07
5.73049e-10
5.76702e-07
1.10929e-10
5.77663e-07
-6.99754e-10
5.78658e-07
-1.78974e-09
5.79678e-07
-3.10864e-09
5.80722e-07
-4.62315e-09
5.81789e-07
-6.31079e-09
5.82879e-07
-8.15862e-09
5.83986e-07
-1.01599e-08
5.85097e-07
-1.23096e-08
5.86193e-07
-1.45993e-08
5.87249e-07
-1.70129e-08
5.8824e-07
-1.95251e-08
-2.21109e-08
5.89144e-07
6.99683e-07
-2.41774e-10
6.99868e-07
-2.4248e-11
7.00321e-07
9.38153e-11
7.00999e-07
-2.74089e-12
7.01877e-07
-3.05308e-10
7.02889e-07
-9.00738e-10
7.0398e-07
-1.79083e-09
7.05122e-07
-2.93125e-09
7.06298e-07
-4.28524e-09
7.07501e-07
-5.82619e-09
7.08725e-07
-7.53415e-09
7.09961e-07
-9.395e-09
7.11199e-07
-1.13981e-08
7.12422e-07
-1.35329e-08
7.13609e-07
-1.57857e-08
7.14733e-07
-1.81369e-08
7.1577e-07
-2.05617e-08
-2.30403e-08
7.16699e-07
8.5304e-07
-1.97474e-10
8.53293e-07
-2.76893e-10
8.53814e-07
-4.26924e-10
8.54567e-07
-7.55504e-10
8.55527e-07
-1.26581e-09
8.56637e-07
-2.01031e-09
8.57843e-07
-2.99741e-09
8.59113e-07
-4.20154e-09
8.60425e-07
-5.59713e-09
8.61763e-07
-7.16353e-09
8.63112e-07
-8.88333e-09
8.64459e-07
-1.07418e-08
8.65786e-07
-1.27253e-08
8.67072e-07
-1.48194e-08
8.68293e-07
-1.70067e-08
8.69422e-07
-1.9266e-08
8.70434e-07
-2.15737e-08
-2.39146e-08
8.71309e-07
1.03996e-06
-2.35988e-10
1.04028e-06
-6.01061e-10
1.04088e-06
-1.02121e-09
1.04171e-06
-1.58208e-09
1.04274e-06
-2.29739e-09
1.04392e-06
-3.19637e-09
1.04521e-06
-4.28839e-09
1.04657e-06
-5.56051e-09
1.04797e-06
-6.99572e-09
1.04939e-06
-8.57816e-09
1.0508e-06
-1.02927e-08
1.05218e-06
-1.21244e-08
1.05351e-06
-1.40581e-08
1.05477e-06
-1.6077e-08
1.05592e-06
-1.81621e-08
1.05695e-06
-2.02919e-08
1.05782e-06
-2.24447e-08
-2.46084e-08
1.05851e-06
1.26778e-06
-3.37759e-10
1.26817e-06
-9.87022e-10
1.26882e-06
-1.67587e-09
1.2697e-06
-2.46414e-09
1.27078e-06
-3.37193e-09
1.272e-06
-4.41672e-09
1.27332e-06
-5.60648e-09
1.27469e-06
-6.93588e-09
1.27609e-06
-8.39418e-09
1.27748e-06
-9.96934e-09
1.27884e-06
-1.16483e-08
1.28013e-06
-1.34167e-08
1.28133e-06
-1.5259e-08
1.28241e-06
-1.71581e-08
1.28334e-06
-1.90948e-08
1.2841e-06
-2.1049e-08
1.28466e-06
-2.30009e-08
-2.49412e-08
1.28499e-06
1.54545e-06
-4.73949e-10
1.54587e-06
-1.40411e-09
1.54655e-06
-2.35051e-09
1.54743e-06
-3.35223e-09
1.54849e-06
-4.42917e-09
1.54967e-06
-5.5945e-09
1.55092e-06
-6.85538e-09
1.55219e-06
-8.2111e-09
1.55345e-06
-9.65593e-09
1.55467e-06
-1.11814e-08
1.5558e-06
-1.2777e-08
1.55681e-06
-1.44301e-08
1.55768e-06
-1.61263e-08
1.55837e-06
-1.78496e-08
1.55886e-06
-1.95828e-08
1.55912e-06
-2.1308e-08
1.55912e-06
-2.30086e-08
-2.46772e-08
1.55886e-06
1.8839e-06
-6.10861e-10
1.88429e-06
-1.79689e-09
1.88492e-06
-2.97261e-09
1.88572e-06
-4.15813e-09
1.88666e-06
-5.36601e-09
1.88767e-06
-6.60768e-09
1.88871e-06
-7.89083e-09
1.88971e-06
-9.21844e-09
1.89065e-06
-1.05899e-08
1.89147e-06
-1.20014e-08
1.89214e-06
-1.34463e-08
1.89262e-06
-1.49152e-08
1.89289e-06
-1.6397e-08
1.89292e-06
-1.78786e-08
1.89269e-06
-1.93463e-08
1.89216e-06
-2.07858e-08
1.89134e-06
-2.21841e-08
-2.35365e-08
1.8902e-06
2.29642e-06
-7.00174e-10
2.2967e-06
-2.07305e-09
2.29716e-06
-3.43305e-09
2.29776e-06
-4.75812e-09
2.29844e-06
-6.04468e-09
2.29913e-06
-7.30281e-09
2.29978e-06
-8.53977e-09
2.30033e-06
-9.76224e-09
2.30071e-06
-1.0977e-08
2.3009e-06
-1.21878e-08
2.30085e-06
-1.33946e-08
2.30053e-06
-1.45939e-08
2.29991e-06
-1.578e-08
2.29898e-06
-1.69451e-08
2.29771e-06
-1.80801e-08
2.2961e-06
-1.91759e-08
2.29414e-06
-2.02238e-08
-2.12217e-08
2.29182e-06
1.68104e-06
-6.68913e-10
1.68106e-06
-2.09211e-09
1.68119e-06
-3.56597e-09
1.68141e-06
-4.97462e-09
1.68166e-06
-6.30082e-09
1.68191e-06
-7.55187e-09
1.6821e-06
-8.72813e-09
1.68218e-06
-9.83998e-09
1.68211e-06
-1.09039e-08
1.68185e-06
-1.19324e-08
1.68139e-06
-1.29327e-08
1.6807e-06
-1.39073e-08
1.67978e-06
-1.48559e-08
1.67861e-06
-1.57753e-08
1.67719e-06
-1.66607e-08
1.67552e-06
-1.75061e-08
1.6736e-06
-1.8306e-08
-1.90595e-08
1.67144e-06
1.46327e-06
-4.79767e-10
1.46308e-06
-1.9088e-09
1.46305e-06
-3.53486e-09
1.46313e-06
-5.04665e-09
1.46326e-06
-6.43495e-09
1.4634e-06
-7.69489e-09
1.46348e-06
-8.8094e-09
1.46344e-06
-9.79975e-09
1.46324e-06
-1.07005e-08
1.46284e-06
-1.15372e-08
1.46224e-06
-1.23262e-08
1.46141e-06
-1.30779e-08
1.46035e-06
-1.37979e-08
1.45906e-06
-1.44876e-08
1.45755e-06
-1.51457e-08
1.45581e-06
-1.57692e-08
1.45386e-06
-1.63547e-08
-1.69019e-08
1.4517e-06
1.27354e-06
-3.04458e-12
1.27314e-06
-1.51258e-09
1.27302e-06
-3.41609e-09
1.27306e-06
-5.08607e-09
1.27322e-06
-6.59052e-09
1.27341e-06
-7.88524e-09
1.27353e-06
-8.92786e-09
1.2735e-06
-9.77212e-09
1.27328e-06
-1.0485e-08
1.27285e-06
-1.11097e-08
1.2722e-06
-1.16745e-08
1.27132e-06
-1.21987e-08
1.27022e-06
-1.26937e-08
1.2689e-06
-1.3165e-08
1.26736e-06
-1.36135e-08
1.26563e-06
-1.40379e-08
1.26371e-06
-1.44359e-08
-1.48069e-08
1.26162e-06
1.10816e-06
9.29633e-10
1.10757e-06
-9.19808e-10
1.10746e-06
-3.30894e-09
1.10759e-06
-5.21125e-09
1.10789e-06
-6.89629e-09
1.10824e-06
-8.22916e-09
1.10846e-06
-9.15463e-09
1.10849e-06
-9.80015e-09
1.10829e-06
-1.02815e-08
1.10784e-06
-1.06628e-08
1.10715e-06
-1.09846e-08
1.10623e-06
-1.12748e-08
1.10508e-06
-1.15491e-08
1.10373e-06
-1.18143e-08
1.10219e-06
-1.20718e-08
1.10047e-06
-1.23203e-08
1.09859e-06
-1.25568e-08
-1.27799e-08
1.09657e-06
9.63972e-07
2.47933e-09
9.63256e-07
-2.03801e-10
9.63282e-07
-3.33501e-09
9.63611e-07
-5.54039e-09
9.64166e-07
-7.4518e-09
9.64707e-07
-8.77006e-09
9.65035e-07
-9.48195e-09
9.65081e-07
-9.846e-09
9.64837e-07
-1.00381e-08
9.64315e-07
-1.0141e-08
9.63536e-07
-1.02049e-08
9.62523e-07
-1.02622e-08
9.61302e-07
-1.03284e-08
9.59896e-07
-1.0408e-08
9.58324e-07
-1.04999e-08
9.56604e-07
-1.06006e-08
9.54753e-07
-1.07052e-08
-1.081e-08
9.52783e-07
8.38083e-07
4.93119e-09
8.37516e-07
3.63398e-10
8.37858e-07
-3.67711e-09
8.38498e-07
-6.18019e-09
8.39344e-07
-8.29821e-09
8.4004e-07
-9.46542e-09
8.40374e-07
-9.81658e-09
8.40327e-07
-9.79805e-09
8.39932e-07
-9.6441e-09
8.39237e-07
-9.44586e-09
8.38287e-07
-9.25442e-09
8.37123e-07
-9.09807e-09
8.3578e-07
-8.98523e-09
8.34285e-07
-8.91319e-09
8.3266e-07
-8.87512e-09
8.30923e-07
-8.86327e-09
8.29087e-07
-8.86973e-09
-8.88834e-09
8.27166e-07
7.27591e-07
9.06889e-09
7.27935e-07
1.898e-11
7.28897e-07
-4.6386e-09
7.29945e-07
-7.22855e-09
7.31044e-07
-9.39682e-09
7.31748e-07
-1.01696e-08
7.31907e-07
-9.97571e-09
7.31587e-07
-9.47823e-09
7.3089e-07
-8.94673e-09
7.29903e-07
-8.45875e-09
7.28696e-07
-8.04807e-09
7.27324e-07
-7.72573e-09
7.25823e-07
-7.4846e-09
7.2422e-07
-7.31015e-09
7.22533e-07
-7.18771e-09
7.20774e-07
-7.10467e-09
7.18955e-07
-7.05032e-09
-7.01593e-09
7.17082e-07
6.30192e-07
1.58839e-08
6.32609e-07
-2.39846e-09
6.34395e-07
-6.4242e-09
6.35896e-07
-8.73032e-09
6.371e-07
-1.06006e-08
6.37542e-07
-1.06114e-08
6.37242e-07
-9.67534e-09
6.36408e-07
-8.6451e-09
6.35229e-07
-7.76756e-09
6.33833e-07
-7.06279e-09
6.32303e-07
-6.51808e-09
6.30689e-07
-6.11172e-09
6.2902e-07
-5.81498e-09
6.2731e-07
-5.60022e-09
6.25568e-07
-5.44573e-09
6.23799e-07
-5.33557e-09
6.22006e-07
-5.25775e-09
-5.20204e-09
6.20192e-07
5.47169e-07
2.32613e-08
5.5172e-07
-6.94913e-09
5.53261e-07
-7.9653e-09
5.54734e-07
-1.02035e-08
5.55523e-07
-1.13891e-08
5.55157e-07
-1.02456e-08
5.5394e-07
-8.45891e-09
5.52273e-07
-6.97829e-09
5.50421e-07
-5.91518e-09
5.4852e-07
-5.16202e-09
5.46631e-07
-4.62851e-09
5.44773e-07
-4.25356e-09
5.42948e-07
-3.99018e-09
5.41151e-07
-3.80346e-09
5.39375e-07
-3.66999e-09
5.37615e-07
-3.57524e-09
5.35866e-07
-3.50906e-09
-3.46313e-09
5.34127e-07
4.91581e-07
1.44406e-08
4.90612e-07
-5.97932e-09
4.87067e-07
-4.4208e-09
4.85923e-07
-9.05892e-09
4.84223e-07
-9.68922e-09
4.81552e-07
-7.5753e-09
4.78503e-07
-5.40995e-09
4.75527e-07
-4.0016e-09
4.72794e-07
-3.18269e-09
4.70321e-07
-2.68908e-09
4.68068e-07
-2.37515e-09
4.65985e-07
-2.1708e-09
4.6403e-07
-2.035e-09
4.62168e-07
-1.94189e-09
4.60375e-07
-1.8768e-09
4.58634e-07
-1.83377e-09
4.56938e-07
-1.81301e-09
-1.85778e-09
4.55332e-07
4.34708e-07
4.28729e-07
4.24308e-07
4.15249e-07
4.0556e-07
3.97985e-07
3.92575e-07
3.88573e-07
3.8539e-07
3.82701e-07
3.80326e-07
3.78155e-07
3.7612e-07
3.74179e-07
3.72302e-07
3.70468e-07
3.68655e-07
3.66797e-07
1.39218e-09
-1.39218e-09
-5.19673e-09
6.58891e-09
-1.62794e-08
1.10826e-08
-2.98916e-08
1.36123e-08
-4.48803e-08
1.49887e-08
-6.06071e-08
1.57268e-08
-7.66781e-08
1.6071e-08
-9.28165e-08
1.61384e-08
-1.08809e-07
1.59924e-08
-1.24477e-07
1.56683e-08
-1.39663e-07
1.51854e-08
-1.54218e-07
1.45549e-08
-1.68002e-07
1.37844e-08
-1.80882e-07
1.28802e-08
-1.92731e-07
1.18486e-08
-2.03428e-07
1.06968e-08
-2.12861e-07
9.43305e-09
-2.20927e-07
8.06676e-09
-2.27536e-07
6.60856e-09
-2.32606e-07
5.07024e-09
-2.36072e-07
3.46617e-09
-2.37892e-07
1.81964e-09
-2.38066e-07
1.73561e-10
-2.36641e-07
-1.42471e-09
-2.33678e-07
-2.96288e-09
-2.29226e-07
-4.45228e-09
-2.23329e-07
-5.89627e-09
-2.16037e-07
-7.29276e-09
-2.074e-07
-8.63707e-09
-1.97476e-07
-9.92336e-09
-1.86331e-07
-1.11453e-08
-1.74034e-07
-1.22966e-08
-1.60663e-07
-1.33712e-08
-1.463e-07
-1.43637e-08
-1.31031e-07
-1.5269e-08
-1.14948e-07
-1.60826e-08
-9.81473e-08
-1.68005e-08
-8.07282e-08
-1.74192e-08
-6.27926e-08
-1.79356e-08
-4.44436e-08
-1.8349e-08
-2.57775e-08
-1.86661e-08
-6.86035e-09
-1.89172e-08
1.22501e-08
-1.91104e-08
-1.92158e-08
-1.20394e-08
1.06472e-08
-2.396e-08
1.85096e-08
-3.65327e-08
2.36553e-08
-5.00541e-08
2.71337e-08
-6.43843e-08
2.93188e-08
-7.92134e-08
3.0556e-08
-9.4231e-08
3.10886e-08
-1.09166e-07
3.1073e-08
-1.23786e-07
3.06129e-08
-1.37897e-07
2.97791e-08
-1.51332e-07
2.8621e-08
-1.63953e-07
2.71752e-08
-1.75639e-07
2.5471e-08
-1.86293e-07
2.35337e-08
-1.95831e-07
2.1387e-08
-2.04188e-07
1.90541e-08
-2.11314e-07
1.65586e-08
-2.17172e-07
1.39248e-08
-2.21741e-07
1.11777e-08
-2.25015e-07
8.34352e-09
-2.26999e-07
5.4504e-09
-2.27707e-07
2.52773e-09
-2.27134e-07
-3.98935e-10
-2.25244e-07
-3.31463e-09
-2.22002e-07
-6.205e-09
-2.17402e-07
-9.0521e-09
-2.1146e-07
-1.18391e-08
-2.04202e-07
-1.455e-08
-1.9567e-07
-1.71692e-08
-1.85912e-07
-1.96818e-08
-1.74983e-07
-2.20737e-08
-1.62948e-07
-2.43317e-08
-1.49875e-07
-2.6444e-08
-1.35839e-07
-2.84001e-08
-1.20917e-07
-3.01909e-08
-1.05191e-07
-3.1809e-08
-8.87428e-08
-3.32485e-08
-7.16569e-08
-3.4505e-08
-5.40162e-08
-3.55763e-08
-3.59026e-08
-3.64626e-08
-1.73998e-08
-3.71688e-08
1.38779e-09
-3.77048e-08
2.03522e-08
-3.80749e-08
-3.82789e-08
-1.56591e-08
2.63063e-08
-3.00328e-08
3.28833e-08
-4.37191e-08
3.73416e-08
-5.71777e-08
4.05923e-08
-7.06462e-08
4.27873e-08
-8.41548e-08
4.40646e-08
-9.76225e-08
4.45563e-08
-1.10922e-07
4.43728e-08
-1.23913e-07
4.3604e-08
-1.36457e-07
4.23229e-08
-1.48425e-07
4.05892e-08
-1.59702e-07
3.84523e-08
-1.70186e-07
3.59547e-08
-1.79787e-07
3.31344e-08
-1.88427e-07
3.00268e-08
-1.96039e-07
2.6666e-08
-2.02565e-07
2.30852e-08
-2.07958e-07
1.93173e-08
-2.12175e-07
1.53952e-08
-2.15183e-07
1.13516e-08
-2.16952e-07
7.21899e-09
-2.17452e-07
3.02855e-09
-2.1666e-07
-1.19148e-09
-2.14559e-07
-5.41562e-09
-2.11147e-07
-9.61713e-09
-2.0643e-07
-1.37685e-08
-2.00427e-07
-1.78425e-08
-1.93164e-07
-2.1813e-08
-1.84678e-07
-2.56551e-08
-1.75015e-07
-2.93453e-08
-1.64227e-07
-3.28618e-08
-1.52374e-07
-3.61848e-08
-1.39521e-07
-3.92965e-08
-1.2574e-07
-4.21815e-08
-1.11104e-07
-4.48266e-08
-9.56916e-08
-4.72214e-08
-7.95822e-08
-4.9358e-08
-6.28562e-08
-5.1231e-08
-4.55945e-08
-5.2838e-08
-2.78776e-08
-5.41795e-08
-9.788e-09
-5.52584e-08
8.58632e-09
-5.60791e-08
2.71597e-08
-5.66482e-08
-5.69741e-08
-1.60368e-08
4.23431e-08
-3.12201e-08
4.80666e-08
-4.55887e-08
5.17102e-08
-5.93758e-08
5.43794e-08
-7.27708e-08
5.61823e-08
-8.58689e-08
5.71627e-08
-9.86857e-08
5.73731e-08
-1.11184e-07
5.68715e-08
-1.23297e-07
5.57167e-08
-1.3494e-07
5.39658e-08
-1.46023e-07
5.16725e-08
-1.56457e-07
4.88864e-08
-1.66156e-07
4.56533e-08
-1.75038e-07
4.20166e-08
-1.83029e-07
3.80176e-08
-1.9006e-07
3.36964e-08
-1.96067e-07
2.90926e-08
-2.00995e-07
2.42453e-08
-2.04793e-07
1.91935e-08
-2.07418e-07
1.39762e-08
-2.08831e-07
8.63192e-09
-2.09001e-07
3.19871e-09
-2.07906e-07
-2.28625e-09
-2.05535e-07
-7.7869e-09
-2.01886e-07
-1.32662e-08
-1.96967e-07
-1.86869e-08
-1.90798e-07
-2.40124e-08
-1.83404e-07
-2.92069e-08
-1.74822e-07
-3.42368e-08
-1.65097e-07
-3.90699e-08
-1.54282e-07
-4.3677e-08
-1.42436e-07
-4.80313e-08
-1.29623e-07
-5.21091e-08
-1.15914e-07
-5.58901e-08
-1.01384e-07
-5.93572e-08
-8.61082e-08
-6.2497e-08
-7.01665e-08
-6.52996e-08
-5.36388e-08
-6.77588e-08
-3.66052e-08
-6.98716e-08
-1.91456e-08
-7.1639e-08
-1.34028e-09
-7.30638e-08
1.67317e-08
-7.41511e-08
3.49935e-08
-7.491e-08
-7.53516e-08
-1.58155e-08
5.81586e-08
-3.11251e-08
6.33762e-08
-4.57374e-08
6.63225e-08
-5.97232e-08
6.83652e-08
-7.31754e-08
6.96345e-08
-8.61597e-08
7.01469e-08
-9.87039e-08
6.99173e-08
-1.10802e-07
6.89698e-08
-1.22423e-07
6.73371e-08
-1.33515e-07
6.50583e-08
-1.44018e-07
6.21755e-08
-1.53863e-07
5.87317e-08
-1.6298e-07
5.47703e-08
-1.71298e-07
5.03344e-08
-1.78747e-07
4.54668e-08
-1.85261e-07
4.02105e-08
-1.90777e-07
3.46088e-08
-1.95238e-07
2.87055e-08
-1.98589e-07
2.25451e-08
-2.00786e-07
1.61726e-08
-2.01788e-07
9.63393e-09
-2.01564e-07
2.9752e-09
-2.00093e-07
-3.7571e-09
-1.97364e-07
-1.05166e-08
-1.93374e-07
-1.72558e-08
-1.88134e-07
-2.39273e-08
-1.81662e-07
-3.04843e-08
-1.73987e-07
-3.68813e-08
-1.65149e-07
-4.30752e-08
-1.55194e-07
-4.90253e-08
-1.44176e-07
-5.46943e-08
-1.32159e-07
-6.00485e-08
-1.1921e-07
-6.50584e-08
-1.05401e-07
-6.96989e-08
-9.08087e-08
-7.39496e-08
-7.55113e-08
-7.77944e-08
-5.95888e-08
-8.12221e-08
-4.31218e-08
-8.42258e-08
-2.619e-08
-8.68034e-08
-8.87271e-09
-8.89563e-08
8.75181e-09
-9.06883e-08
2.66082e-08
-9.20075e-08
4.46236e-08
-9.29254e-08
-9.3456e-08
-1.55317e-08
7.36903e-08
-3.07531e-08
7.85976e-08
-4.53819e-08
8.09513e-08
-5.94079e-08
8.23913e-08
-7.28598e-08
8.30864e-08
-8.57666e-08
8.30537e-08
-9.81436e-08
8.22943e-08
-1.09988e-07
8.08147e-08
-1.21282e-07
7.86306e-08
-1.3199e-07
7.57665e-08
-1.42067e-07
7.22527e-08
-1.5146e-07
6.81242e-08
-1.60108e-07
6.34186e-08
-1.6795e-07
5.81758e-08
-1.7492e-07
5.24374e-08
-1.80957e-07
4.6247e-08
-1.85998e-07
3.96497e-08
-1.89985e-07
3.26926e-08
-1.92865e-07
2.54251e-08
-1.9459e-07
1.78982e-08
-1.95122e-07
1.01652e-08
-1.94427e-07
2.28103e-09
-1.92486e-07
-5.69844e-09
-1.89287e-07
-1.37159e-08
-1.84829e-07
-2.1713e-08
-1.79126e-07
-2.96309e-08
-1.72198e-07
-3.74117e-08
-1.6408e-07
-4.49994e-08
-1.54815e-07
-5.23406e-08
-1.44455e-07
-5.93853e-08
-1.33061e-07
-6.6088e-08
-1.20702e-07
-7.24081e-08
-1.07449e-07
-7.83107e-08
-9.33819e-08
-8.37663e-08
-7.858e-08
-8.87515e-08
-6.31255e-08
-9.32489e-08
-4.71008e-08
-9.72468e-08
-3.05874e-08
-1.00739e-07
-1.36657e-08
-1.03725e-07
3.58527e-09
-1.06207e-07
2.10898e-08
-1.08193e-07
3.87756e-08
-1.09693e-07
5.65735e-08
-1.10723e-07
-1.11301e-07
-1.52981e-08
8.89884e-08
-3.03648e-08
9.36643e-08
-4.48905e-08
9.5477e-08
-5.88335e-08
9.63343e-08
-7.21896e-08
9.64425e-08
-8.49638e-08
9.58279e-08
-9.71579e-08
9.44884e-08
-1.08765e-07
9.24222e-08
-1.19769e-07
8.96345e-08
-1.30142e-07
8.61388e-08
-1.39845e-07
8.19558e-08
-1.48832e-07
7.71118e-08
-1.57052e-07
7.1638e-08
-1.64445e-07
6.55694e-08
-1.70953e-07
5.89447e-08
-1.76512e-07
5.18062e-08
-1.81062e-07
4.41998e-08
-1.84544e-07
3.61751e-08
-1.86905e-07
2.77854e-08
-1.88095e-07
1.90882e-08
-1.88074e-07
1.01442e-08
-1.8681e-07
1.01768e-09
-1.84284e-07
-8.22513e-09
-1.80485e-07
-1.75152e-08
-1.75416e-07
-2.67815e-08
-1.69094e-07
-3.59528e-08
-1.61547e-07
-4.49586e-08
-1.52816e-07
-5.37308e-08
-1.42952e-07
-6.22048e-08
-1.32016e-07
-7.03208e-08
-1.20079e-07
-7.80247e-08
-1.07218e-07
-8.52694e-08
-9.35141e-08
-9.20147e-08
-7.90525e-08
-9.82278e-08
-6.39202e-08
-1.03884e-07
-4.82039e-08
-1.08965e-07
-3.19892e-08
-1.13461e-07
-1.53595e-08
-1.17369e-07
1.60381e-09
-1.20688e-07
1.88235e-08
-1.23427e-07
3.62268e-08
-1.25596e-07
5.37453e-08
-1.27212e-07
7.13148e-08
-1.28293e-07
-1.28862e-07
-1.51073e-08
1.04096e-07
-2.99742e-08
1.08531e-07
-4.43032e-08
1.09806e-07
-5.80482e-08
1.10079e-07
-7.11937e-08
1.09588e-07
-8.37334e-08
1.08368e-07
-9.56613e-08
1.06416e-07
-1.06967e-07
1.03728e-07
-1.17633e-07
1.00301e-07
-1.27634e-07
9.61395e-08
-1.36935e-07
9.12566e-08
-1.45493e-07
8.567e-08
-1.53258e-07
7.94036e-08
-1.60176e-07
7.24867e-08
-1.66185e-07
6.49539e-08
-1.71224e-07
5.68452e-08
-1.7523e-07
4.82062e-08
-1.78143e-07
3.90881e-08
-1.79906e-07
2.95485e-08
-1.80469e-07
1.9651e-08
-1.7979e-07
9.46469e-09
-1.77836e-07
-9.35638e-10
-1.74589e-07
-1.14721e-08
-1.70043e-07
-2.2062e-08
-1.64204e-07
-3.26198e-08
-1.57097e-07
-4.30596e-08
-1.4876e-07
-5.32963e-08
-1.39243e-07
-6.32479e-08
-1.2861e-07
-7.28377e-08
-1.16935e-07
-8.19951e-08
-1.04302e-07
-9.06577e-08
-9.07999e-08
-9.87719e-08
-7.6521e-08
-1.06294e-07
-6.15603e-08
-1.13188e-07
-4.60123e-08
-1.19432e-07
-2.99694e-08
-1.25008e-07
-1.35208e-08
-1.2991e-07
3.24814e-09
-1.34138e-07
2.02571e-08
-1.37697e-07
3.74319e-08
-1.40602e-07
5.4704e-08
-1.42868e-07
7.20105e-08
-1.44518e-07
8.92939e-08
-1.45576e-07
-1.4607e-07
-1.48924e-08
1.18988e-07
-2.94797e-08
1.23118e-07
-4.3496e-08
1.23822e-07
-5.69057e-08
1.23489e-07
-6.96945e-08
1.22377e-07
-8.18549e-08
1.20528e-07
-9.33794e-08
1.17941e-07
-1.04257e-07
1.14605e-07
-1.14471e-07
1.10514e-07
-1.23996e-07
1.05665e-07
-1.328e-07
1.0006e-07
-1.40841e-07
9.37107e-08
-1.48069e-07
8.66318e-08
-1.54428e-07
7.8846e-08
-1.59857e-07
7.03826e-08
-1.6429e-07
6.12783e-08
-1.67661e-07
5.15775e-08
-1.69906e-07
4.13328e-08
-1.70964e-07
3.06059e-08
-1.7078e-07
1.94672e-08
-1.6931e-07
7.99548e-09
-1.66524e-07
-3.7224e-09
-1.62401e-07
-1.55944e-08
-1.56942e-07
-2.75214e-08
-1.50161e-07
-3.94005e-08
-1.42093e-07
-5.11279e-08
-1.32788e-07
-6.26014e-08
-1.22312e-07
-7.37233e-08
-1.10747e-07
-8.44028e-08
-9.8184e-08
-9.45584e-08
-8.47222e-08
-1.0412e-07
-7.04667e-08
-1.13027e-07
-5.55241e-08
-1.21236e-07
-4.00003e-08
-1.28712e-07
-2.39979e-08
-1.35434e-07
-7.61516e-09
-1.41391e-07
9.05587e-09
-1.46581e-07
2.59303e-08
-1.51012e-07
4.29314e-08
-1.54698e-07
5.99898e-08
-1.5766e-07
7.70439e-08
-1.59922e-07
9.40387e-08
-1.61513e-07
1.10926e-07
-1.62463e-07
-1.62806e-07
-1.45626e-08
1.33551e-07
-2.87226e-08
1.37278e-07
-4.22545e-08
1.37354e-07
-5.51411e-08
1.36376e-07
-6.73772e-08
1.34613e-07
-7.89609e-08
1.32112e-07
-8.98884e-08
1.28868e-07
-1.00152e-07
1.24869e-07
-1.09737e-07
1.201e-07
-1.18622e-07
1.14549e-07
-1.26773e-07
1.08212e-07
-1.34151e-07
1.01088e-07
-1.40704e-07
9.31845e-08
-1.46373e-07
8.4515e-08
-1.51092e-07
7.51023e-08
-1.54792e-07
6.49782e-08
-1.574e-07
5.4185e-08
-1.58843e-07
4.27765e-08
-1.59056e-07
3.08185e-08
-1.57978e-07
1.83896e-08
-1.55563e-07
5.58027e-09
-1.51777e-07
-7.50889e-09
-1.46604e-07
-2.07673e-08
-1.4005e-07
-3.40756e-08
-1.32141e-07
-4.73093e-08
-1.22926e-07
-6.03428e-08
-1.12474e-07
-7.30532e-08
-1.00873e-07
-8.53243e-08
-8.82257e-08
-9.70503e-08
-7.46457e-08
-1.08138e-07
-6.02538e-08
-1.18511e-07
-4.51736e-08
-1.28108e-07
-2.95267e-08
-1.36883e-07
-1.34313e-08
-1.44808e-07
3.00199e-09
-1.51868e-07
1.96716e-08
-1.5806e-07
3.64857e-08
-1.63395e-07
5.33636e-08
-1.6789e-07
7.02348e-08
-1.7157e-07
8.70386e-08
-1.74464e-07
1.03724e-07
-1.76607e-07
1.20246e-07
-1.78035e-07
1.36569e-07
-1.78787e-07
-1.78899e-07
-1.40133e-08
1.47564e-07
-2.75079e-08
1.50773e-07
-4.03041e-08
1.5015e-07
-5.24071e-08
1.48479e-07
-6.38262e-08
1.46032e-07
-7.45693e-08
1.42855e-07
-8.46408e-08
1.3894e-07
-9.40394e-08
1.34268e-07
-1.02756e-07
1.28816e-07
-1.10771e-07
1.22564e-07
-1.18054e-07
1.15496e-07
-1.24565e-07
1.07599e-07
-1.3025e-07
9.88698e-08
-1.35047e-07
8.93118e-08
-1.38883e-07
7.89388e-08
-1.41681e-07
6.77761e-08
-1.43359e-07
5.58627e-08
-1.43835e-07
4.32528e-08
-1.43034e-07
3.00169e-08
-1.40887e-07
1.62433e-08
-1.37344e-07
2.03696e-09
-1.32369e-07
-1.24842e-08
-1.2595e-07
-2.7186e-08
-1.18102e-07
-4.19231e-08
-1.08869e-07
-5.65433e-08
-9.83176e-08
-7.08937e-08
-8.65444e-08
-8.48265e-08
-7.36644e-08
-9.82043e-08
-5.98097e-08
-1.10905e-07
-4.5122e-08
-1.22826e-07
-2.97469e-08
-1.33886e-07
-1.38294e-08
-1.44025e-07
2.49262e-09
-1.53205e-07
1.90914e-08
-1.61406e-07
3.58515e-08
-1.68628e-07
5.26722e-08
-1.74881e-07
6.94671e-08
-1.8019e-07
8.61641e-08
-1.84587e-07
1.02704e-07
-1.8811e-07
1.19039e-07
-1.908e-07
1.35134e-07
-1.92701e-07
1.50958e-07
-1.9386e-07
1.66491e-07
-1.9432e-07
-1.94126e-07
-1.31259e-08
1.6069e-07
-2.56095e-08
1.63257e-07
-3.73205e-08
1.61861e-07
-4.8289e-08
1.59447e-07
-5.85416e-08
1.56285e-07
-6.80999e-08
1.52413e-07
-7.69795e-08
1.47819e-07
-8.51881e-08
1.42476e-07
-9.27237e-08
1.36352e-07
-9.95723e-08
1.29413e-07
-1.05707e-07
1.2163e-07
-1.11086e-07
1.12978e-07
-1.15655e-07
1.03439e-07
-1.19345e-07
9.30021e-08
-1.22077e-07
8.16705e-08
-1.23761e-07
6.94604e-08
-1.24304e-07
5.64057e-08
-1.23612e-07
4.25602e-08
-1.21594e-07
2.79997e-08
-1.18175e-07
1.28244e-08
-1.13295e-07
-2.84331e-09
-1.06918e-07
-1.88617e-08
-9.90377e-08
-3.50661e-08
-8.96838e-08
-5.1277e-08
-7.89206e-08
-6.73065e-08
-6.68474e-08
-8.29669e-08
-5.35936e-08
-9.80803e-08
-3.93117e-08
-1.12486e-07
-2.41705e-08
-1.26046e-07
-8.34607e-09
-1.38651e-07
7.98801e-09
-1.50221e-07
2.46666e-08
-1.60704e-07
4.15383e-08
-1.70077e-07
5.84703e-08
-1.78338e-07
7.53492e-08
-1.85507e-07
9.20819e-08
-1.91614e-07
1.08594e-07
-1.96703e-07
1.2483e-07
-2.00823e-07
1.40748e-07
-2.04027e-07
1.56319e-07
-2.06371e-07
1.71528e-07
-2.0791e-07
1.86364e-07
-2.08696e-07
2.00824e-07
-2.0878e-07
-2.08212e-07
-1.17663e-08
1.72456e-07
-2.27689e-08
1.74259e-07
-3.29305e-08
1.72023e-07
-4.2307e-08
1.68824e-07
-5.09443e-08
1.64922e-07
-5.88799e-08
1.60349e-07
-6.61429e-08
1.55082e-07
-7.27524e-08
1.49086e-07
-7.87157e-08
1.42315e-07
-8.40256e-08
1.34723e-07
-8.86587e-08
1.26263e-07
-9.25749e-08
1.16894e-07
-9.57161e-08
1.0658e-07
-9.80077e-08
9.52937e-08
-9.93597e-08
8.30225e-08
-9.96702e-08
6.97709e-08
-9.88295e-08
5.5565e-08
-9.67262e-08
4.04569e-08
-9.32553e-08
2.45289e-08
-8.83266e-08
7.89568e-09
-8.18706e-08
-9.29934e-09
-7.38517e-08
-2.68806e-08
-6.42748e-08
-4.4643e-08
-5.31905e-08
-6.23612e-08
-4.06961e-08
-7.98008e-08
-2.69329e-08
-9.67301e-08
-1.20778e-08
-1.12935e-07
3.66829e-09
-1.28232e-07
2.00925e-08
-1.4247e-07
3.69823e-08
-1.5554e-07
5.41356e-08
-1.67374e-07
7.13717e-08
-1.7794e-07
8.85343e-08
-1.87239e-07
1.05495e-07
-1.95299e-07
1.22152e-07
-2.02164e-07
1.38431e-07
-2.07893e-07
1.54279e-07
-2.12552e-07
1.69667e-07
-2.1621e-07
1.84577e-07
-2.18937e-07
1.99008e-07
-2.20802e-07
2.12965e-07
-2.21867e-07
2.26463e-07
-2.22194e-07
2.3952e-07
-2.21837e-07
-2.20848e-07
-9.78313e-09
1.82239e-07
-1.86927e-08
1.83169e-07
-2.67099e-08
1.8004e-07
-3.39156e-08
1.76029e-07
-4.03758e-08
1.71382e-07
-4.61448e-08
1.66118e-07
-5.12669e-08
1.60204e-07
-5.57743e-08
1.53593e-07
-5.96849e-08
1.46225e-07
-6.29994e-08
1.38037e-07
-6.56992e-08
1.28963e-07
-6.77452e-08
1.1894e-07
-6.90763e-08
1.07911e-07
-6.96103e-08
9.58278e-08
-6.92456e-08
8.26578e-08
-6.78639e-08
6.83893e-08
-6.53364e-08
5.30375e-08
-6.15308e-08
3.66513e-08
-5.6322e-08
1.93201e-08
-4.96027e-08
1.17636e-09
-4.12943e-08
-1.76077e-08
-3.1364e-08
-3.68109e-08
-1.98354e-08
-5.61716e-08
-6.79456e-09
-7.54021e-08
7.61188e-09
-9.42073e-08
2.31842e-08
-1.12302e-07
3.96831e-08
-1.29434e-07
5.68476e-08
-1.45397e-07
7.44152e-08
-1.60038e-07
9.21387e-08
-1.73264e-07
1.09798e-07
-1.85033e-07
1.27207e-07
-1.9535e-07
1.44221e-07
-2.04253e-07
1.60731e-07
-2.11808e-07
1.76664e-07
-2.18097e-07
1.91977e-07
-2.23206e-07
2.06654e-07
-2.27229e-07
2.20698e-07
-2.30253e-07
2.34125e-07
-2.32365e-07
2.46964e-07
-2.33641e-07
2.59248e-07
-2.34152e-07
2.71017e-07
-2.33962e-07
2.82308e-07
-2.33128e-07
-2.317e-07
-6.97662e-09
1.89216e-07
-1.30199e-08
1.89212e-07
-1.8158e-08
1.85178e-07
-2.24856e-08
1.80357e-07
-2.60864e-08
1.74983e-07
-2.90325e-08
1.69064e-07
-3.13838e-08
1.62556e-07
-3.31865e-08
1.55396e-07
-3.44695e-08
1.47508e-07
-3.5242e-08
1.3881e-07
-3.54902e-08
1.29211e-07
-3.51756e-08
1.18626e-07
-3.42336e-08
1.06969e-07
-3.2573e-08
9.41672e-08
-3.0078e-08
8.01628e-08
-2.66116e-08
6.49228e-08
-2.20219e-08
4.84477e-08
-1.61528e-08
3.07822e-08
-8.85692e-09
1.20242e-08
-5.40383e-12
-7.67516e-09
1.04864e-08
-2.80996e-08
2.26395e-08
-4.89639e-08
3.63945e-08
-6.99266e-08
5.16072e-08
-9.06148e-08
6.80543e-08
-1.10654e-07
8.54525e-08
-1.29701e-07
1.03484e-07
-1.47466e-07
1.21825e-07
-1.63737e-07
1.40169e-07
-1.78382e-07
1.58248e-07
-1.91343e-07
1.75845e-07
-2.0263e-07
1.92795e-07
-2.123e-07
2.08989e-07
-2.20447e-07
2.24362e-07
-2.27181e-07
2.38889e-07
-2.32623e-07
2.52576e-07
-2.36893e-07
2.65452e-07
-2.40105e-07
2.77562e-07
-2.42364e-07
2.88961e-07
-2.43764e-07
2.9971e-07
-2.44389e-07