/*--------------------------------*- C++ -*----------------------------------*\
  =========                 |
  \\      /  F ield         | OpenFOAM: The Open Source CFD Toolbox
   \\    /   O peration     | Website:  https://openfoam.org
    \\  /    A nd           | Version:  6
     \\/     M anipulation  |
\*---------------------------------------------------------------------------*/
FoamFile
{
    version     2.0;
    format      ascii;
    class       volVectorField;
    location    "0.05";
    object      U;
}
// * * * * * * * * * * * * * * * * * * * * * * * * * * * * * * * * * * * * * //

dimensions      [0 1 -1 0 0 0 0];

internalField   nonuniform List<vector> 
3032
(
(0.948798 -0.405348 0)
(1.01285 -0.190431 0)
(1.01518 -0.0513363 0)
(0.984338 -0.00521315 0)
(0.957057 0.0043739 0)
(0.939651 0.00402401 0)
(0.928693 0.00232043 0)
(0.921572 0.00115173 0)
(0.916965 0.000524525 0)
(0.914065 0.000171635 0)
(0.912408 -7.50803e-05 0)
(0.911802 -0.000267717 0)
(0.911953 -0.00043012 0)
(0.912952 -0.000608288 0)
(0.914934 -0.000890904 0)
(0.918848 -0.0012535 0)
(0.924205 -0.00257742 0)
(0.941383 -0.00414615 0)
(1.03693 0.0761053 0)
(1.02002 0.0532345 0)
(1.01161 0.0192382 0)
(1.00499 0.00878628 0)
(0.999241 0.00640429 0)
(0.993294 0.00485915 0)
(0.987154 0.00348141 0)
(0.981873 0.0024798 0)
(0.977973 0.00176798 0)
(0.975333 0.00119746 0)
(0.973724 0.000690564 0)
(0.973032 0.000225826 0)
(0.973342 -0.000236502 0)
(0.974663 -0.000775679 0)
(0.977035 -0.00153237 0)
(0.980939 -0.00265039 0)
(0.986383 -0.00534243 0)
(0.994784 -0.0104278 0)
(0.998322 0.0131053 0)
(0.99545 0.0117811 0)
(1.00117 0.00616889 0)
(1.00269 0.00617585 0)
(1.00262 0.00653198 0)
(1.00152 0.00567493 0)
(0.999234 0.00441734 0)
(0.996663 0.00330723 0)
(0.99456 0.00239224 0)
(0.993143 0.00159374 0)
(0.992424 0.000852825 0)
(0.992411 0.000123688 0)
(0.993169 -0.000651339 0)
(0.994776 -0.00155722 0)
(0.997301 -0.00276433 0)
(1.001 -0.00453173 0)
(1.00568 -0.00783347 0)
(1.01126 -0.0134846 0)
(0.995113 -0.00698915 0)
(0.99261 0.00110248 0)
(0.998994 0.00363912 0)
(1.00166 0.00547408 0)
(1.00308 0.00636131 0)
(1.00388 0.00587973 0)
(1.0036 0.00482382 0)
(1.00276 0.00373882 0)
(1.00198 0.00273147 0)
(1.00154 0.00177614 0)
(1.00155 0.000837797 0)
(1.00209 -0.000128775 0)
(1.00324 -0.00118935 0)
(1.00508 -0.00244042 0)
(1.00768 -0.00406338 0)
(1.01114 -0.00633125 0)
(1.01523 -0.00994939 0)
(1.01949 -0.0153287 0)
(0.996679 -0.00697521 0)
(0.993958 0.000633835 0)
(0.998478 0.00335596 0)
(1.00095 0.0049195 0)
(1.00286 0.00586551 0)
(1.00453 0.00565148 0)
(1.00538 0.00481316 0)
(1.00566 0.00381368 0)
(1.00584 0.0027792 0)
(1.00617 0.00171963 0)
(1.00678 0.00062067 0)
(1.00778 -0.000556255 0)
(1.00926 -0.00187778 0)
(1.01129 -0.00344415 0)
(1.01392 -0.00542828 0)
(1.01717 -0.00807259 0)
(1.02079 -0.0118456 0)
(1.0243 -0.0169311 0)
(0.997836 -0.00420563 0)
(0.995303 0.00102018 0)
(0.998317 0.00297451 0)
(1.00048 0.00425659 0)
(1.00254 0.00518324 0)
(1.00458 0.00514272 0)
(1.00605 0.00448396 0)
(1.00706 0.00357791 0)
(1.00792 0.00254648 0)
(1.00883 0.00141756 0)
(1.00992 0.000189905 0)
(1.0113 -0.00116809 0)
(1.01304 -0.00271959 0)
(1.01521 -0.00456077 0)
(1.01784 -0.00684359 0)
(1.02089 -0.00976363 0)
(1.02415 -0.0136137 0)
(1.0272 -0.0184609 0)
(0.998461 -0.0026526 0)
(0.996368 0.000851722 0)
(0.998414 0.00242295 0)
(1.00029 0.00356283 0)
(1.00229 0.00442076 0)
(1.00443 0.00446837 0)
(1.00622 0.00393346 0)
(1.00768 0.00310092 0)
(1.009 0.00207725 0)
(1.01033 0.000895744 0)
(1.01178 -0.000439041 0)
(1.01344 -0.00195349 0)
(1.01538 -0.00370481 0)
(1.01764 -0.00577961 0)
(1.02022 -0.00830354 0)
(1.02309 -0.011424 0)
(1.02606 -0.0153135 0)
(1.02881 -0.0199813 0)
(0.998895 -0.0018372 0)
(0.997283 0.000587812 0)
(0.998698 0.00191761 0)
(1.00029 0.00290254 0)
(1.00215 0.00363479 0)
(1.00424 0.0036987 0)
(1.00616 0.00323155 0)
(1.00787 0.00244208 0)
(1.00948 0.0014169 0)
(1.0111 0.000187131 0)
(1.0128 -0.00124192 0)
(1.01465 -0.00289312 0)
(1.01671 -0.00481657 0)
(1.019 -0.00708637 0)
(1.02152 -0.00980134 0)
(1.0242 -0.0130665 0)
(1.02692 -0.0169769 0)
(1.02945 -0.0215197 0)
(0.999246 -0.00125123 0)
(0.998071 0.000424109 0)
(0.999069 0.00149865 0)
(1.00042 0.00228744 0)
(1.0021 0.00285405 0)
(1.00407 0.00287798 0)
(1.00599 0.00242789 0)
(1.00782 0.0016487 0)
(1.00959 0.000606178 0)
(1.01138 -0.000674767 0)
(1.01323 -0.00219096 0)
(1.01519 -0.00396284 0)
(1.0173 -0.00603321 0)
(1.01957 -0.00846274 0)
(1.02199 -0.0113258 0)
(1.02449 -0.0146935 0)
(1.02698 -0.0186147 0)
(1.02931 -0.0230733 0)
(0.999515 -0.000795144 0)
(0.998719 0.000327023 0)
(0.999454 0.00113666 0)
(1.00061 0.00171286 0)
(1.00212 0.00209385 0)
(1.00393 0.00203605 0)
(1.00579 0.00156026 0)
(1.00763 0.000760513 0)
(1.00947 -0.000316996 0)
(1.01133 -0.00165528 0)
(1.01324 -0.00325447 0)
(1.01524 -0.00513327 0)
(1.01733 -0.00732738 0)
(1.01953 -0.00988463 0)
(1.02181 -0.0128589 0)
(1.02412 -0.016296 0)
(1.02638 -0.0202191 0)
(1.02851 -0.0246167 0)
(0.999705 -0.000474528 0)
(0.999223 0.00024191 0)
(0.999808 0.000802622 0)
(1.00082 0.00116922 0)
(1.00217 0.00135867 0)
(1.00382 0.00119023 0)
(1.00558 0.000654981 0)
(1.00737 -0.000191702 0)
(1.00919 -0.00132076 0)
(1.01105 -0.00272311 0)
(1.01295 -0.00440231 0)
(1.01491 -0.00637555 0)
(1.01694 -0.00867199 0)
(1.01902 -0.011328 0)
(1.02113 -0.0143811 0)
(1.02323 -0.0178596 0)
(1.02526 -0.0217729 0)
(1.02715 -0.0261155 0)
(0.999822 -0.000287593 0)
(0.999564 0.000153416 0)
(1.00008 0.000506672 0)
(1.00099 0.000691309 0)
(1.00222 0.00070881 0)
(1.00372 0.00042349 0)
(1.00536 -0.000187859 0)
(1.00707 -0.00109557 0)
(1.00883 -0.00228356 0)
(1.01063 -0.00374903 0)
(1.01246 -0.00549817 0)
(1.01434 -0.00754675 0)
(1.01626 -0.00991851 0)
(1.0182 -0.012641 0)
(1.02013 -0.0157402 0)
(1.02202 -0.0192334 0)
(1.02381 -0.0231235 0)
(1.02548 -0.0274079 0)
(0.999902 -0.00017981 0)
(0.999815 4.9352e-05 0)
(1.00029 0.000214139 0)
(1.00112 0.000228648 0)
(1.00225 8.25639e-05 0)
(1.00361 -0.000325047 0)
(1.00513 -0.00102377 0)
(1.00674 -0.00200235 0)
(1.0084 -0.00325507 0)
(1.0101 -0.00478423 0)
(1.01183 -0.00659793 0)
(1.01359 -0.00871045 0)
(1.01536 -0.0111407 0)
(1.01713 -0.0139088 0)
(1.01886 -0.0170319 0)
(1.02052 -0.0205192 0)
(1.02207 -0.0243701 0)
(1.0235 -0.0285853 0)
(0.999959 -0.000127553 0)
(1 -9.38245e-05 0)
(1.00046 -0.000119548 0)
(1.00122 -0.000283735 0)
(1.00224 -0.000604417 0)
(1.00346 -0.00115226 0)
(1.00483 -0.0019586 0)
(1.00629 -0.00302566 0)
(1.00781 -0.00435588 0)
(1.00937 -0.00595568 0)
(1.01095 -0.00783446 0)
(1.01253 -0.0100046 0)
(1.0141 -0.0124804 0)
(1.01564 -0.0152752 0)
(1.01712 -0.0183985 0)
(1.0185 -0.0218535 0)
(1.01977 -0.0256367 0)
(1.02089 -0.0297514 0)
(0.999993 -0.000130489 0)
(1.00012 -0.000286102 0)
(1.00056 -0.000504119 0)
(1.00126 -0.00085114 0)
(1.00216 -0.00135053 0)
(1.00323 -0.00204962 0)
(1.00443 -0.00297767 0)
(1.00572 -0.00414518 0)
(1.00705 -0.00555994 0)
(1.0084 -0.00723088 0)
(1.00977 -0.00916768 0)
(1.01112 -0.0113805 0)
(1.01243 -0.0138789 0)
(1.01368 -0.0166706 0)
(1.01485 -0.019759 0)
(1.0159 -0.0231421 0)
(1.01682 -0.0268145 0)
(1.0176 -0.0307794 0)
(1.00001 -0.000179077 0)
(1.00018 -0.000525019 0)
(1.00058 -0.000937548 0)
(1.0012 -0.00146789 0)
(1.00198 -0.00214222 0)
(1.00289 -0.00299306 0)
(1.0039 -0.00404539 0)
(1.00497 -0.00531333 0)
(1.00607 -0.00680732 0)
(1.00718 -0.008537 0)
(1.00826 -0.0105111 0)
(1.00932 -0.0127371 0)
(1.0103 -0.0152206 0)
(1.01121 -0.0179641 0)
(1.01201 -0.0209665 0)
(1.01268 -0.0242221 0)
(1.01321 -0.0277231 0)
(1.01358 -0.0314715 0)
(1.00001 -0.000257568 0)
(1.00018 -0.000796575 0)
(1.00053 -0.00140215 0)
(1.00104 -0.00211106 0)
(1.00168 -0.0029484 0)
(1.00241 -0.00393834 0)
(1.0032 -0.00510134 0)
(1.00403 -0.00645187 0)
(1.00485 -0.00800085 0)
(1.00566 -0.00975725 0)
(1.00642 -0.0117281 0)
(1.00712 -0.0139181 0)
(1.00774 -0.0163293 0)
(1.00825 -0.0189605 0)
(1.00863 -0.021807 0)
(1.00888 -0.0248606 0)
(1.00897 -0.0281119 0)
(1.0089 -0.0315606 0)
(1.00001 -0.000346162 0)
(1.00015 -0.00107155 0)
(1.00041 -0.00185856 0)
(1.0008 -0.00273079 0)
(1.00127 -0.00370784 0)
(1.00179 -0.00480818 0)
(1.00234 -0.00604811 0)
(1.00289 -0.00744063 0)
(1.00341 -0.00899599 0)
(1.00388 -0.010722 0)
(1.00428 -0.012624 0)
(1.0046 -0.0147043 0)
(1.0048 -0.0169627 0)
(1.00489 -0.0193955 0)
(1.00484 -0.0219961 0)
(1.00464 -0.0247552 0)
(1.00429 -0.0276625 0)
(1.00377 -0.0307162 0)
(1.00001 -0.000422042 0)
(1.00008 -0.00130429 0)
(1.00024 -0.00224356 0)
(1.00047 -0.00324571 0)
(1.00076 -0.00432039 0)
(1.00106 -0.0054804 0)
(1.00136 -0.00673761 0)
(1.00163 -0.00810283 0)
(1.00184 -0.00958567 0)
(1.00197 -0.0111936 0)
(1.002 -0.0129312 0)
(1.00193 -0.0148002 0)
(1.00173 -0.0167994 0)
(1.00139 -0.018925 0)
(1.00092 -0.0211703 0)
(1.00029 -0.0235266 0)
(0.999519 -0.0259846 0)
(0.998593 -0.028542 0)
(0.999996 -0.000442785 0)
(0.999979 -0.0014009 0)
(1.00001 -0.00243104 0)
(1.00012 -0.00350481 0)
(1.00027 -0.00462032 0)
(1.00043 -0.00578383 0)
(1.00057 -0.00699996 0)
(1.00065 -0.00827682 0)
(1.00066 -0.00962499 0)
(1.00057 -0.0110535 0)
(1.00036 -0.0125686 0)
(1.00002 -0.0141735 0)
(0.999547 -0.0158686 0)
(0.998927 -0.0176516 0)
(0.998158 -0.019518 0)
(0.99724 -0.0214612 0)
(0.996177 -0.0234739 0)
(0.994965 -0.0255543 0)
(0.99997 -0.000381862 0)
(0.999801 -0.00135619 0)
(0.999707 -0.002462 0)
(0.999727 -0.0035938 0)
(0.99981 -0.00474319 0)
(0.999915 -0.00590703 0)
(1 -0.00707711 0)
(1.00003 -0.00826042 0)
(0.999952 -0.00947219 0)
(0.999753 -0.0107257 0)
(0.999415 -0.0120306 0)
(0.998928 -0.0133934 0)
(0.998285 -0.0148174 0)
(0.997485 -0.016303 0)
(0.996529 -0.0178481 0)
(0.995418 -0.0194484 0)
(0.99416 -0.0210986 0)
(0.992756 -0.0227975 0)
(0.9999 -0.000190968 0)
(0.999444 -0.00116897 0)
(0.999207 -0.00239407 0)
(0.999199 -0.00361265 0)
(0.999297 -0.00482694 0)
(0.999448 -0.00601054 0)
(0.999587 -0.00713453 0)
(0.999638 -0.00821295 0)
(0.999551 -0.00927369 0)
(0.999304 -0.0103384 0)
(0.998884 -0.0114228 0)
(0.998285 -0.0125389 0)
(0.997507 -0.0136944 0)
(0.996555 -0.0148929 0)
(0.995435 -0.016135 0)
(0.994153 -0.0174187 0)
(0.992721 -0.0187404 0)
(0.991145 -0.0200995 0)
(0.999751 0.000182201 0)
(0.998799 -0.000874248 0)
(0.998449 -0.00229636 0)
(0.998526 -0.00364341 0)
(0.998757 -0.00497311 0)
(0.999072 -0.0061978 0)
(0.999358 -0.00726274 0)
(0.999492 -0.00820988 0)
(0.99942 -0.00909247 0)
(0.99913 -0.00994515 0)
(0.998618 -0.0107927 0)
(0.997891 -0.0116542 0)
(0.996957 -0.0125422 0)
(0.995831 -0.0134633 0)
(0.994525 -0.0144202 0)
(0.993054 -0.0154124 0)
(0.991432 -0.0164375 0)
(0.98967 -0.0174947 0)
(0.9995 0.000854087 0)
(0.997764 -0.000568385 0)
(0.997444 -0.00229956 0)
(0.997787 -0.00379441 0)
(0.99829 -0.00527559 0)
(0.998889 -0.00653257 0)
(0.999382 -0.00749104 0)
(0.999596 -0.00825433 0)
(0.999495 -0.00891474 0)
(0.999095 -0.00952278 0)
(0.998418 -0.0101134 0)
(0.997486 -0.0107128 0)
(0.996326 -0.0113371 0)
(0.994962 -0.0119944 0)
(0.993417 -0.0126874 0)
(0.991709 -0.013416 0)
(0.989858 -0.0141774 0)
(0.987879 -0.0149703 0)
(0.998972 0.00246187 0)
(0.996121 -7.30037e-05 0)
(0.996278 -0.00245379 0)
(0.997183 -0.00416132 0)
(0.99809 -0.00580087 0)
(0.999039 -0.00702319 0)
(0.999711 -0.00778223 0)
(0.999896 -0.00828347 0)
(0.99962 -0.0086665 0)
(0.998959 -0.00899644 0)
(0.99797 -0.00931612 0)
(0.996705 -0.00965554 0)
(0.995206 -0.0100307 0)
(0.993512 -0.0104475 0)
(0.991653 -0.0109067 0)
(0.989649 -0.0114061 0)
(0.987522 -0.0119417 0)
(0.985288 -0.0125104 0)
(0.997453 0.00609122 0)
(0.993345 0.00132841 0)
(0.995023 -0.00242259 0)
(0.996993 -0.00467676 0)
(0.998409 -0.00651925 0)
(0.999649 -0.00758791 0)
(1.00031 -0.00801837 0)
(1.00019 -0.00816814 0)
(0.999454 -0.00822353 0)
(0.998276 -0.008257 0)
(0.996761 -0.00831164 0)
(0.994987 -0.00841361 0)
(0.993015 -0.00857236 0)
(0.990888 -0.00878732 0)
(0.988636 -0.00905404 0)
(0.986278 -0.00936692 0)
(0.983831 -0.0097196 0)
(0.981311 -0.0101069 0)
(0.994442 0.0085617 0)
(0.98937 0.00217998 0)
(0.993854 -0.00219031 0)
(0.997465 -0.00518564 0)
(0.999453 -0.00726675 0)
(1.00071 -0.00802247 0)
(1.00086 -0.0079862 0)
(0.999918 -0.00771552 0)
(0.998262 -0.00742804 0)
(0.996199 -0.00718572 0)
(0.993883 -0.00701719 0)
(0.991403 -0.00693365 0)
(0.988817 -0.00693082 0)
(0.986161 -0.00699774 0)
(0.983449 -0.00712328 0)
(0.980692 -0.00729795 0)
(0.977895 -0.00751345 0)
(0.975069 -0.00776213 0)
(0.994523 -0.00661361 0)
(0.989412 -0.00856199 0)
(0.995233 -0.00544779 0)
(0.99946 -0.006498 0)
(1.00141 -0.00801341 0)
(1.00176 -0.00809959 0)
(1.00033 -0.0074524 0)
(0.997596 -0.00674924 0)
(0.994309 -0.00617565 0)
(0.990881 -0.00574067 0)
(0.987453 -0.00543526 0)
(0.984071 -0.00524581 0)
(0.98075 -0.00515149 0)
(0.977486 -0.00513105 0)
(0.974268 -0.00516803 0)
(0.971081 -0.00525098 0)
(0.967918 -0.00537184 0)
(0.964773 -0.00551787 0)
(1.02646 -0.0702309 0)
(1.017 -0.0624155 0)
(1.01162 -0.0292918 0)
(1.008 -0.015032 0)
(1.00481 -0.0105806 0)
(1.00041 -0.00818124 0)
(0.994504 -0.00640167 0)
(0.988107 -0.00521984 0)
(0.982101 -0.00448638 0)
(0.976713 -0.0040197 0)
(0.971848 -0.00371761 0)
(0.967379 -0.00353069 0)
(0.963212 -0.003427 0)
(0.959271 -0.00338271 0)
(0.955495 -0.00338196 0)
(0.95184 -0.00341646 0)
(0.948281 -0.00348396 0)
(0.944805 -0.00360474 0)
(0.966206 0.350114 0)
(1.02685 0.194073 0)
(1.03242 0.0677654 0)
(1.00393 0.0151312 0)
(0.97518 -0.00141235 0)
(0.954506 -0.00449005 0)
(0.939865 -0.0038111 0)
(0.928965 -0.00270777 0)
(0.920516 -0.00194157 0)
(0.913635 -0.00150538 0)
(0.907699 -0.00127624 0)
(0.90234 -0.00116542 0)
(0.89736 -0.00112161 0)
(0.892644 -0.00111608 0)
(0.888113 -0.00113325 0)
(0.883709 -0.00116717 0)
(0.87938 -0.00121315 0)
(0.875086 -0.00132105 0)
(-0.000484649 -0.00280186 -1.5502e-21)
(-0.00138325 0.00672951 1.43338e-21)
(-0.00886984 0.01303 0)
(-0.020197 0.016196 0)
(-0.0330976 0.0175471 0)
(-0.0468269 0.0180955 -1.22918e-21)
(-0.0610203 0.018243 0)
(-0.0754015 0.0181323 0)
(-0.0897558 0.0178251 0)
(-0.103911 0.0173495 0)
(-0.117718 0.0167173 1.07703e-21)
(-0.131041 0.0159329 0)
(-0.143751 0.0149985 0)
(-0.155726 0.0139163 0)
(-0.166847 0.01269 0)
(-0.177004 0.0113252 9.03371e-22)
(-0.186089 0.00983006 0)
(-0.194007 0.00821565 0)
(-0.200669 0.00649691 0)
(-0.205999 0.00469456 0)
(-0.209935 0.00283858 0)
(-0.212422 0.000974372 0)
(-0.213395 -0.000839423 0)
(-0.212894 -0.00255621 3.93048e-22)
(-0.211024 -0.00417957 -2.99515e-22)
(-0.207796 -0.00573463 1.98875e-22)
(-0.203248 -0.00723 9.10862e-23)
(-0.19742 -0.00866674 0)
(-0.190355 -0.0100426 0)
(-0.1821 -0.0113535 2.74795e-22)
(-0.172709 -0.0125949 4.10581e-22)
(-0.16224 -0.0137613 0)
(-0.150758 -0.0148477 0)
(-0.138333 -0.0158486 8.56796e-22)
(-0.125039 -0.0167581 0)
(-0.110957 -0.0175699 0)
(-0.0961703 -0.0182765 -1.35547e-21)
(-0.0807653 -0.0188684 0)
(-0.0648324 -0.0193339 -1.71249e-21)
(-0.0484635 -0.0196582 -3.79434e-21)
(-0.0317475 -0.0198259 0)
(-0.0147577 -0.0198274 0)
(0.00245127 -0.0196786 0)
(0.0198186 -0.0194211 0)
(-0.0094509 0.00900548 4.06241e-21)
(-0.0164725 0.0227119 -3.14346e-21)
(-0.0263798 0.0319347 0)
(-0.0381029 0.037911 1.57203e-21)
(-0.0506606 0.0413775 0)
(-0.0637213 0.0431383 7.08738e-22)
(-0.0770697 0.0437439 -1.33184e-21)
(-0.0904685 0.0435246 -1.28515e-21)
(-0.103695 0.0426808 0)
(-0.11656 0.0413372 -1.20982e-21)
(-0.128904 0.039574 -6.01627e-22)
(-0.140591 0.0374464 0)
(-0.151505 0.0349965 0)
(-0.161549 0.0322598 0)
(-0.170642 0.0292694 0)
(-0.178716 0.0260577 -5.00562e-22)
(-0.185719 0.0226575 0)
(-0.191609 0.0191025 9.02894e-22)
(-0.196362 0.0154271 0)
(-0.199962 0.0116671 0)
(-0.202406 0.00786136 -7.19849e-22)
(-0.203699 0.00405468 0)
(-0.203861 0.000299394 5.65312e-22)
(-0.202881 -0.00336229 -2.11618e-22)
(-0.200687 -0.00691036 1.60422e-22)
(-0.19727 -0.010336 -1.05921e-22)
(-0.192636 -0.0136302 -4.82193e-23)
(-0.186804 -0.0167815 0)
(-0.179801 -0.0197776 0)
(-0.171667 -0.0226059 -1.42516e-22)
(-0.162446 -0.0252544 1.02301e-22)
(-0.15219 -0.0277123 0)
(-0.140958 -0.0299702 0)
(-0.128813 -0.0320204 -4.30552e-22)
(-0.11582 -0.0338567 0)
(-0.102052 -0.0354749 0)
(-0.08758 -0.036872 6.64073e-22)
(-0.0724781 -0.0380466 0)
(-0.0568203 -0.0389983 -6.7429e-22)
(-0.0406803 -0.0397271 1.8128e-21)
(-0.0241325 -0.0402333 0)
(-0.00726042 -0.0405168 0)
(0.00983994 -0.0405831 4.14938e-21)
(0.0270848 -0.0404518 4.35829e-21)
(-0.0117869 0.0348571 -6.37552e-23)
(-0.0215397 0.0477688 3.54261e-21)
(-0.0326112 0.0563843 0)
(-0.044593 0.0623694 -2.42102e-21)
(-0.0566792 0.0661443 0)
(-0.0687401 0.0681245 0)
(-0.0807868 0.0686704 -2.44501e-23)
(-0.0927509 0.0680592 9.16929e-22)
(-0.104514 0.0665006 9.05705e-22)
(-0.115949 0.0641536 8.54451e-22)
(-0.126937 0.0611403 0)
(-0.137368 0.057557 0)
(-0.147144 0.0534837 -7.99998e-22)
(-0.15618 0.0489899 -1.55034e-21)
(-0.164401 0.044139 1.49836e-21)
(-0.171741 0.0389906 0)
(-0.178143 0.0336021 1.38228e-21)
(-0.183559 0.0280293 -6.28884e-22)
(-0.187948 0.0223265 0)
(-0.191275 0.0165467 1.16313e-21)
(-0.19351 0.0107409 5.00139e-22)
(-0.194625 0.00495584 -9.78685e-22)
(-0.194595 -0.000771079 -3.91561e-22)
(-0.193399 -0.00641082 0)
(-0.191026 -0.0119312 6.3118e-22)
(-0.187477 -0.0172978 4.98338e-22)
(-0.182759 -0.022478 0)
(-0.176893 -0.0274417 2.0832e-22)
(-0.169905 -0.032162 0)
(-0.16183 -0.0366145 -1.11804e-22)
(-0.15271 -0.0407776 -2.13314e-22)
(-0.142595 -0.0446327 0)
(-0.13154 -0.0481643 0)
(-0.119604 -0.0513604 0)
(-0.106851 -0.0542122 0)
(-0.093349 -0.0567142 0)
(-0.0791669 -0.0588645 0)
(-0.064376 -0.0606645 -1.6085e-21)
(-0.049048 -0.0621189 2.80742e-21)
(-0.0332547 -0.0632361 0)
(-0.0170687 -0.0640285 0)
(-0.000565924 -0.0645108 0)
(0.0161746 -0.0646975 -1.86064e-22)
(0.0330794 -0.0646027 -2.8942e-21)
(-0.0117225 0.0649291 -6.97434e-21)
(-0.0224287 0.0759477 -4.89087e-21)
(-0.0341425 0.0829171 -2.5518e-21)
(-0.0464966 0.0878242 -1.14125e-21)
(-0.0586647 0.0909329 0)
(-0.0704944 0.0924154 1.81654e-21)
(-0.0820532 0.092454 -9.08767e-22)
(-0.0933566 0.0912236 0)
(-0.104361 0.0888847 -7.33952e-22)
(-0.114995 0.0855806 0)
(-0.125181 0.0814364 1.4684e-21)
(-0.134838 0.0765617 0)
(-0.143886 0.0710534 6.45126e-22)
(-0.152251 0.0649989 1.25036e-21)
(-0.15986 0.0584787 -1.20894e-21)
(-0.16665 0.0515682 0)
(-0.17256 0.0443393 -1.11689e-21)
(-0.177537 0.0368606 0)
(-0.18153 0.0291983 0)
(-0.184498 0.0214159 -9.42372e-22)
(-0.186401 0.0135746 0)
(-0.187206 0.00573191 -9.61925e-23)
(-0.186889 -0.00205868 0)
(-0.185432 -0.0097481 0)
(-0.182827 -0.0172876 9.98191e-23)
(-0.179076 -0.0246288 -4.04092e-22)
(-0.17419 -0.0317258 -3.91816e-22)
(-0.168186 -0.0385355 -1.68789e-22)
(-0.161091 -0.0450187 0)
(-0.152941 -0.0511399 7.56491e-23)
(-0.143777 -0.056868 0)
(-0.133648 -0.0621762 2.6327e-22)
(-0.122609 -0.0670427 0)
(-0.110719 -0.0714501 0)
(-0.0980415 -0.0753862 -7.10511e-22)
(-0.0846433 -0.0788437 0)
(-0.0705937 -0.0818197 1.02246e-21)
(-0.0559631 -0.0843165 1.1002e-22)
(-0.040823 -0.0863403 -2.79166e-21)
(-0.0252448 -0.0879025 3.00198e-21)
(-0.00929956 -0.0890181 0)
(0.0069413 -0.0897034 0)
(0.0234075 -0.0899788 1.82085e-21)
(0.0400312 -0.0898653 0)
(-0.0113259 0.0951642 4.47355e-21)
(-0.0222826 0.104711 3.07557e-21)
(-0.0342406 0.110057 2.33313e-21)
(-0.0467663 0.113613 1.95867e-21)
(-0.0590354 0.115633 0)
(-0.0708364 0.116195 -3.3325e-21)
(-0.0822184 0.115379 -1.3575e-22)
(-0.0932152 0.113282 0)
(-0.103815 0.110011 0)
(-0.113979 0.105677 0)
(-0.123656 0.10039 -1.27346e-21)
(-0.132788 0.094253 0)
(-0.141312 0.0873659 0)
(-0.149162 0.079822 0)
(-0.156276 0.0717104 0)
(-0.162593 0.0631162 0)
(-0.168052 0.054122 1.16763e-21)
(-0.172599 0.0448073 1.1222e-21)
(-0.176182 0.0352501 0)
(-0.178757 0.0255259 0)
(-0.180282 0.0157083 -9.56214e-22)
(-0.180725 0.00586847 1.67069e-21)
(-0.18006 -0.00392464 0)
(-0.17827 -0.0136055 7.2991e-22)
(-0.175348 -0.023109 -5.37825e-22)
(-0.171297 -0.0323718 0)
(-0.166126 -0.0413337 1.23357e-21)
(-0.159856 -0.049938 -6.74843e-22)
(-0.152515 -0.0581328 4.49913e-22)
(-0.144141 -0.0658714 1.30534e-23)
(-0.134777 -0.0731129 0)
(-0.124475 -0.0798223 -5.13113e-22)
(-0.113292 -0.0859712 0)
(-0.10129 -0.0915378 0)
(-0.0885336 -0.0965066 6.2398e-22)
(-0.0750921 -0.100869 -1.35097e-21)
(-0.0610357 -0.104622 -2.52468e-21)
(-0.0464357 -0.10777 2.94182e-21)
(-0.0313636 -0.110321 1.17346e-21)
(-0.0158904 -0.11229 -2.62037e-21)
(-8.62345e-05 -0.113694 0)
(0.01598 -0.114554 0)
(0.0322417 -0.114896 -1.4711e-22)
(0.0486347 -0.114749 0)
(-0.0110038 0.124816 0)
(-0.0219568 0.133426 -3.39258e-21)
(-0.033952 0.137384 0)
(-0.0464928 0.139603 0)
(-0.0587735 0.140402 0)
(-0.0705402 0.139839 -1.66892e-22)
(-0.0818132 0.137955 -1.60436e-22)
(-0.0926206 0.134802 -1.5647e-21)
(-0.102958 0.13045 0)
(-0.112802 0.124981 0)
(-0.122115 0.118484 0)
(-0.130853 0.111052 0)
(-0.138963 0.102778 0)
(-0.14639 0.0937536 -2.60707e-21)
(-0.153076 0.0840703 0)
(-0.158964 0.0738181 2.46659e-21)
(-0.163996 0.063086 -1.06431e-21)
(-0.168118 0.0519624 -1.02456e-21)
(-0.171278 0.0405352 0)
(-0.173429 0.0288919 0)
(-0.174531 0.0171193 8.77201e-22)
(-0.174549 0.00530319 -8.1662e-22)
(-0.17346 -0.00647196 0)
(-0.171246 -0.0181235 -6.71412e-22)
(-0.1679 -0.0295694 1.39911e-21)
(-0.163427 -0.0407304 0)
(-0.157839 -0.0515303 -8.19119e-22)
(-0.15116 -0.0618982 6.221e-22)
(-0.143423 -0.0717686 -4.14845e-22)
(-0.134669 -0.0810831 0)
(-0.124948 -0.0897904 0)
(-0.114316 -0.0978476 2.59603e-22)
(-0.102835 -0.10522 0)
(-0.0905732 -0.111882 0)
(-0.0775993 -0.117816 -8.41365e-22)
(-0.0639857 -0.123012 2.34246e-21)
(-0.0498055 -0.12747 1.49762e-21)
(-0.0351319 -0.131195 -3.37143e-21)
(-0.020037 -0.134202 1.87844e-21)
(-0.00459198 -0.136508 0)
(0.011134 -0.138135 0)
(0.0270747 -0.139111 0)
(0.0431665 -0.139469 -2.92349e-21)
(0.0593492 -0.139244 0)
(-0.0107879 0.153972 0)
(-0.0216523 0.161902 3.25588e-21)
(-0.0335811 0.164618 0)
(-0.0460341 0.165552 4.50042e-21)
(-0.0582309 0.165094 3.98277e-21)
(-0.0698967 0.163317 -2.01781e-21)
(-0.0810302 0.160248 -1.89493e-21)
(-0.0916502 0.15592 -1.80536e-21)
(-0.101752 0.150378 -3.13514e-21)
(-0.111315 0.143684 0)
(-0.12031 0.13591 0)
(-0.128698 0.127133 2.87451e-21)
(-0.136434 0.117438 0)
(-0.143469 0.106911 5.17686e-21)
(-0.149747 0.0956427 0)
(-0.155214 0.0837235 -2.31158e-21)
(-0.159812 0.0712469 0)
(-0.163488 0.0583079 0)
(-0.166188 0.0450035 2.3662e-21)
(-0.167865 0.0314328 0)
(-0.168478 0.017696 2.15739e-21)
(-0.167992 0.00389456 0)
(-0.166382 -0.00987083 0)
(-0.163633 -0.0234994 0)
(-0.15974 -0.0368908 2.36074e-22)
(-0.15471 -0.0499477 0)
(-0.148561 -0.0625768 0)
(-0.141322 -0.0746908 0)
(-0.133033 -0.0862097 0)
(-0.123744 -0.0970624 0)
(-0.113512 -0.107187 0)
(-0.102402 -0.116534 -8.09032e-23)
(-0.0904849 -0.125062 0)
(-0.0778336 -0.132742 -4.08815e-22)
(-0.0645249 -0.139557 1.39833e-22)
(-0.0506361 -0.145499 -1.04232e-21)
(-0.0362442 -0.15057 0)
(-0.0214244 -0.15478 1.53295e-21)
(-0.00625045 -0.15815 -1.7713e-21)
(0.00920689 -0.160701 0)
(0.0248804 -0.162466 0)
(0.0407067 -0.163478 0)
(0.0566263 -0.163779 0)
(0.0725838 -0.163411 0)
(-0.0106443 0.182747 1.18731e-20)
(-0.0213731 0.19005 0)
(-0.033161 0.191572 0)
(-0.0454363 0.19124 -9.13711e-21)
(-0.0574476 0.18951 -3.79633e-21)
(-0.068915 0.186472 -4.23165e-22)
(-0.0798261 0.182153 3.25405e-21)
(-0.0901931 0.176575 -3.8048e-22)
(-0.100009 0.169771 2.97491e-21)
(-0.109256 0.161785 0)
(-0.117904 0.152675 0)
(-0.12592 0.142505 -2.73452e-21)
(-0.133261 0.13135 0)
(-0.139879 0.119288 -2.61564e-21)
(-0.145722 0.106405 0)
(-0.150732 0.092792 0)
(-0.154854 0.0785434 0)
(-0.158031 0.06376 0)
(-0.160208 0.0485475 -2.27786e-21)
(-0.161335 0.0330165 0)
(-0.16137 0.0172815 -2.08421e-21)
(-0.160277 0.00146095 0)
(-0.158032 -0.0143265 0)
(-0.15462 -0.0299598 -1.94421e-21)
(-0.150041 -0.045318 -1.51504e-21)
(-0.144307 -0.0602829 -1.58379e-21)
(-0.137443 -0.0747416 -1.38498e-21)
(-0.129489 -0.0885884 0)
(-0.120493 -0.101728 -9.5457e-22)
(-0.110517 -0.114074 -7.25389e-22)
(-0.0996301 -0.125557 -4.88719e-22)
(-0.0879086 -0.136118 7.85124e-23)
(-0.0754335 -0.145713 0)
(-0.0622883 -0.154312 3.96407e-22)
(-0.0485575 -0.161899 1.34418e-22)
(-0.0343243 -0.16847 -7.56613e-22)
(-0.0196697 -0.174034 -1.00873e-21)
(-0.0046722 -0.17861 0)
(0.0105945 -0.182222 1.48987e-21)
(0.0260612 -0.184904 0)
(0.0416638 -0.186697 0)
(0.0573434 -0.187646 -4.30161e-21)
(0.0730459 -0.187798 -4.71059e-21)
(0.0887221 -0.187205 0)
(-0.0105133 0.21116 -1.15448e-20)
(-0.0210382 0.217767 -8.74001e-21)
(-0.0325949 0.218067 0)
(-0.0445826 0.216449 4.67317e-21)
(-0.0562824 0.213419 0)
(-0.0674208 0.209082 -4.5585e-22)
(-0.0779831 0.203467 3.94394e-21)
(-0.0879795 0.196591 3.34786e-21)
(-0.0974029 0.188476 0)
(-0.106235 0.179153 3.50461e-21)
(-0.114449 0.168665 0)
(-0.122012 0.157064 0)
(-0.128881 0.144414 0)
(-0.135009 0.130783 3.22103e-21)
(-0.140342 0.116252 0)
(-0.144822 0.100908 0)
(-0.148388 0.0848476 -3.0322e-21)
(-0.150981 0.0681754 0)
(-0.152541 0.0510059 0)
(-0.153016 0.0334621 2.77468e-21)
(-0.15236 0.0156744 0)
(-0.150536 -0.00221978 2.52917e-21)
(-0.14752 -0.0200807 0)
(-0.143301 -0.0377635 4.12103e-21)
(-0.137883 -0.0551228 -2.02173e-21)
(-0.131286 -0.0720161 -2.61611e-22)
(-0.123547 -0.0883074 -2.46525e-22)
(-0.114717 -0.10387 1.39079e-21)
(-0.104861 -0.118592 9.42338e-22)
(-0.0940549 -0.132372 1.63187e-21)
(-0.0823835 -0.145131 -1.84628e-22)
(-0.069938 -0.156805 0)
(-0.0568129 -0.167347 0)
(-0.043103 -0.176732 -2.10093e-22)
(-0.0289015 -0.184948 4.96108e-22)
(-0.0142985 -0.192 7.43706e-22)
(0.000620877 -0.197906 9.85874e-22)
(0.0157777 -0.202693 0)
(0.0310993 -0.2064 -4.15939e-21)
(0.0465204 -0.209074 3.16752e-21)
(0.0619821 -0.210764 3.60569e-21)
(0.0774322 -0.211528 4.1693e-21)
(0.0928241 -0.211423 4.56259e-21)
(0.108117 -0.210509 0)
(-0.0103261 0.239086 0)
(-0.0205284 0.244849 8.54325e-21)
(-0.0317174 0.243845 0)
(-0.0432612 0.240886 5.74388e-21)
(-0.0544787 0.236512 0)
(-0.0651119 0.230837 4.10643e-21)
(-0.0751504 0.223892 -3.84519e-21)
(-0.0846065 0.215686 4.08567e-21)
(-0.0934753 0.20623 0)
(-0.10174 0.195542 -3.42527e-21)
(-0.109377 0.183652 0)
(-0.116351 0.170598 0)
(-0.122622 0.156429 0)
(-0.12814 0.141204 -3.1693e-21)
(-0.132847 0.124994 3.49687e-21)
(-0.136681 0.107882 0)
(-0.139577 0.0899642 6.37855e-21)
(-0.141467 0.07135 -3.30464e-21)
(-0.142289 0.0521626 0)
(-0.141983 0.0325388 -2.76438e-21)
(-0.140499 0.0126277 0)
(-0.137798 -0.00741089 -2.52451e-21)
(-0.133857 -0.0274117 -2.70031e-21)
(-0.128668 -0.0472008 -4.72395e-21)
(-0.122244 -0.0666031 4.34331e-21)
(-0.114615 -0.0854467 1.8262e-21)
(-0.105835 -0.103568 5.37091e-21)
(-0.0959706 -0.120818 -1.39279e-21)
(-0.085108 -0.137062 2.76835e-21)
(-0.0733432 -0.152189 -3.16331e-21)
(-0.0607811 -0.166108 6.67239e-22)
(-0.0475309 -0.178755 0)
(-0.0337026 -0.190085 6.1997e-22)
(-0.0194034 -0.200081 2.09731e-22)
(-0.00473628 -0.208742 4.73464e-22)
(0.010204 -0.216084 0)
(0.0253308 -0.22214 0)
(0.0405666 -0.226954 -2.01781e-21)
(0.0558436 -0.230581 2.66127e-21)
(0.0711031 -0.23308 -6.06126e-21)
(0.0862948 -0.234518 -6.92745e-21)
(0.101376 -0.234961 0)
(0.11631 -0.234478 0)
(0.131068 -0.233141 0)
(-0.0100105 0.266215 1.60417e-20)
(-0.0197017 0.270942 -1.06618e-20)
(-0.0303193 0.268518 0)
(-0.0411962 0.26414 -5.65655e-21)
(-0.0516976 0.258368 0)
(-0.0615895 0.251319 -5.00463e-21)
(-0.0708705 0.243016 0)
(-0.0795584 0.233462 -4.03037e-21)
(-0.0876528 0.222654 0)
(-0.0951412 0.210598 4.19238e-21)
(-0.102001 0.197303 0)
(-0.1082 0.182793 0)
(-0.113695 0.167099 0)
(-0.118435 0.150268 -3.9397e-21)
(-0.122356 0.132359 -3.49256e-21)
(-0.125391 0.113449 0)
(-0.127466 0.0936314 -3.38802e-21)
(-0.128506 0.0730198 3.32365e-21)
(-0.128438 0.051747 0)
(-0.127195 0.0299666 0)
(-0.124722 0.00785041 0)
(-0.120976 -0.0144167 0)
(-0.115935 -0.0366346 2.73559e-21)
(-0.109596 -0.0585937 2.55345e-21)
(-0.101984 -0.0800817 -2.35369e-21)
(-0.0931472 -0.10089 0)
(-0.0831571 -0.120823 -3.81092e-21)
(-0.0721078 -0.139703 3.82772e-21)
(-0.0601098 -0.157377 -6.07888e-21)
(-0.0472857 -0.173718 2.27719e-21)
(-0.0337647 -0.188634 0)
(-0.0196771 -0.202061 0)
(-0.00515042 -0.213968 -6.2494e-22)
(0.00969648 -0.224346 0)
(0.0247541 -0.233215 -4.70658e-22)
(0.0399256 -0.240611 7.8863e-22)
(0.055127 -0.246589 0)
(0.070287 -0.251213 3.83108e-21)
(0.085347 -0.254556 0)
(0.100259 -0.256697 2.91947e-21)
(0.114986 -0.257716 3.35042e-21)
(0.129498 -0.257693 -3.65454e-21)
(0.143772 -0.256709 0)
(0.157792 -0.254843 0)
(-0.00949108 0.292027 -1.57195e-20)
(-0.0183964 0.295501 1.05308e-20)
(-0.0281551 0.291529 -8.47674e-21)
(-0.0380595 0.28565 0)
(-0.0475327 0.278426 0)
(-0.0563735 0.26997 -4.81128e-22)
(-0.0645932 0.260298 0)
(-0.0722176 0.249397 0)
(-0.0792532 0.237251 0)
(-0.0856928 0.223845 4.09464e-22)
(-0.0915177 0.20917 0)
(-0.0966968 0.193227 0)
(-0.101187 0.176028 0)
(-0.104931 0.157603 3.97417e-21)
(-0.107862 0.137994 8.7069e-21)
(-0.109903 0.11727 0)
(-0.110969 0.0955196 0)
(-0.110976 0.0728588 0)
(-0.109836 0.0494321 8.28128e-21)
(-0.107474 0.0254128 8.0949e-21)
(-0.103825 0.0010008 -7.83228e-21)
(-0.0988425 -0.0235855 -7.48712e-21)
(-0.0925058 -0.048103 0)
(-0.0848218 -0.0722958 0)
(-0.0758307 -0.0959032 0)
(-0.0656045 -0.118671 0)
(-0.0542448 -0.140365 0)
(-0.0418783 -0.160774 5.16956e-22)
(-0.0286492 -0.179727 3.35869e-21)
(-0.0147129 -0.197089 0)
(-0.000227517 -0.212771 0)
(0.0146554 -0.226717 0)
(0.0297925 -0.238915 0)
(0.0450562 -0.249384 0)
(0.0603358 -0.258171 0)
(0.0755387 -0.265341 -7.87269e-22)
(0.0905898 -0.270974 0)
(0.105431 -0.275162 -1.82579e-21)
(0.120017 -0.278 0)
(0.134319 -0.279586 0)
(0.148316 -0.280015 0)
(0.161995 -0.279383 3.62179e-21)
(0.175352 -0.277779 0)
(0.188386 -0.27529 0)
(-0.0086866 0.315766 0)
(-0.0164294 0.317768 0)
(-0.0249432 0.312124 8.46891e-21)
(-0.0334721 0.304667 0)
(-0.0415132 0.295951 0)
(-0.048907 0.286076 5.48617e-21)
(-0.0556805 0.275042 0)
(-0.061869 0.262823 5.31948e-21)
(-0.067488 0.249382 0)
(-0.0725372 0.234679 5.44452e-21)
(-0.0770026 0.218682 0)
(-0.0808554 0.201365 0)
(-0.0840512 0.182716 0)
(-0.0865297 0.162738 0)
(-0.088216 0.141457 -8.91582e-21)
(-0.0890226 0.118926 9.72885e-21)
(-0.0888524 0.0952255 0)
(-0.087604 0.0704747 0)
(-0.0851764 0.0448303 -8.58485e-21)
(-0.08148 0.0184899 -8.41771e-21)
(-0.0764381 -0.00831221 -8.54386e-22)
(-0.0700018 -0.035312 7.78993e-21)
(-0.0621518 -0.0622102 0)
(-0.0529107 -0.0886887 0)
(-0.0423433 -0.114424 0)
(-0.0305555 -0.139106 0)