/*--------------------------------*- C++ -*----------------------------------*\
  =========                 |
  \\      /  F ield         | OpenFOAM: The Open Source CFD Toolbox
   \\    /   O peration     | Website:  https://openfoam.org
    \\  /    A nd           | Version:  6
     \\/     M anipulation  |
\*---------------------------------------------------------------------------*/
FoamFile
{
    version     2.0;
    format      ascii;
    class       volScalarField;
    location    "0.09";
    object      epsilon;
}
// * * * * * * * * * * * * * * * * * * * * * * * * * * * * * * * * * * * * * //

dimensions      [0 2 -3 0 0 0 0];

internalField   nonuniform List<scalar> 
12225
(
307.554
159.148
103.222
76.2091
60.9357
51.4151
44.9945
40.3563
36.8164
34.0032
31.7018
29.779
28.1479
26.7487
25.5391
24.4896
23.6131
22.9735
71.6104
59.7619
44.4177
34.3522
27.809
23.3637
20.2158
17.8984
16.128
14.7307
13.598
12.6603
11.8708
11.1967
10.6141
10.1058
9.66402
9.26662
33.6138
34.4046
29.2899
24.3867
20.5377
17.6135
15.3862
13.6649
12.3085
11.2176
10.3238
9.57924
8.95032
8.41251
7.94759
7.54169
7.18568
6.86978
22.4946
24.1967
22.2216
19.5414
17.0654
14.9847
13.2864
11.9078
10.7826
9.855
9.08161
8.42948
7.87376
7.39558
6.98042
6.617
6.29733
6.01638
18.0524
19.1653
18.2256
16.5951
14.8965
13.3503
12.0129
10.8788
9.92223
9.11379
8.42691
7.83937
7.33317
6.89391
6.51011
6.17262
5.87482
5.61374
15.9661
16.3997
15.7664
14.6424
13.3959
12.1985
11.1166
10.1664
9.34187
8.62917
8.01268
7.47774
7.01156
6.60329
6.24396
5.92622
5.64471
5.39761
14.9029
14.7891
14.189
13.2998
12.3137
11.3431
10.4419
9.63002
8.90991
8.2757
7.71844
7.22855
6.79696
6.41557
6.07738
5.77656
5.50883
5.27312
14.3403
13.8257
13.1595
12.3645
11.5226
10.6959
9.9199
9.21051
8.57174
8.00125
7.49367
7.04252
6.64127
6.28378
5.96457
5.67899
5.42366
5.19802
14.0386
13.2459
12.4869
11.7141
10.9454
10.2061
9.51413
8.87847
8.30151
7.78157
7.31483
6.89649
6.52156
6.18522
5.88308
5.61135
5.36737
5.15093
13.8768
12.8993
12.052
11.2674
10.5295
9.83962
9.20146
8.61689
8.08533
7.60428
7.17016
6.77889
6.42626
6.10827
5.82121
5.56195
5.3283
5.12029
13.7906
12.6956
11.7764
10.9669
10.2362
9.57098
8.96502
8.41413
7.91453
7.46228
7.05334
6.68366
6.34936
6.04682
5.77277
5.52445
5.30001
5.09959
13.7488
12.5881
11.6204
10.7867
10.0517
9.39538
8.80541
8.27358
7.79357
7.36001
6.96814
6.61368
6.29269
6.00169
5.73757
5.49779
5.28067
5.08636
13.7254
12.5235
11.5209
10.6659
9.92284
9.26833
8.68656
8.16639
7.69946
7.27915
6.89994
6.55713
6.24665
5.96498
5.70908
5.47649
5.26562
5.07662
13.7116
12.4831
11.4547
10.581
9.82801
9.1711
8.59251
8.07913
7.62102
7.2104
6.841
6.50765
6.20601
5.93244
5.68386
5.45783
5.25277
5.06877
13.7045
12.4608
11.416
10.5285
9.76629
9.10496
8.52605
8.01543
7.56214
7.15757
6.79482
6.46827
6.17331
5.90609
5.66342
5.44284
5.24272
5.06305
13.7012
12.4503
11.3967
10.5007
9.73187
9.0663
8.48556
7.97519
7.52377
7.12222
6.76324
6.44088
6.15027
5.88737
5.64891
5.43232
5.23593
5.05958
13.7
12.4462
11.3887
10.4887
9.71612
9.04776
8.4653
7.95428
7.50317
7.10272
6.7454
6.42511
6.1368
5.87635
5.64036
5.4262
5.23215
5.05793
13.6996
12.4449
11.3862
10.4848
9.71087
9.04132
8.45798
7.94645
7.49519
7.09491
6.73805
6.41842
6.13093
5.87138
5.63635
5.42317
5.23008
5.05674
13.6998
12.4453
11.387
10.4859
9.71228
9.04297
8.45975
7.94821
7.49683
7.09631
6.73911
6.41907
6.1311
5.87104
5.63546
5.42171
5.22804
5.05413
13.701
12.4493
11.3946
10.4974
9.72734
9.06071
8.47916
7.96823
7.51648
7.11479
6.75578
6.43345
6.14288
5.88
5.64151
5.42482
5.22826
5.05164
13.7054
12.4634
11.4201
10.5335
9.77163
9.11016
8.53074
8.01934
7.5651
7.15946
6.79553
6.46773
6.17143
5.9028
5.65868
5.43657
5.2349
5.05366
13.7204
12.5081
11.4949
10.6317
9.88413
9.22828
8.64754
8.1299
7.66628
7.2495
6.87372
6.53402
6.22622
5.94675
5.69256
5.46122
5.25119
5.06264
13.7671
12.6331
11.6843
10.8597
10.1264
9.46672
8.87069
8.33146
7.84358
7.4022
7.00283
6.6413
6.31374
6.01663
5.74684
5.50178
5.27976
5.081
13.9007
12.9463
12.1089
11.3255
10.5847
9.88991
9.24615
8.65582
8.1186
7.63212
7.19285
6.79669
6.43943
6.11705
5.82583
5.5626
5.32518
5.11368
14.2608
13.6661
12.9745
12.1894
11.3725
10.574
9.82355
9.13517
8.51272
7.95437
7.45553
7.01046
6.61322
6.25818
5.94026
5.65511
5.39961
5.17342
15.1942
15.2323
14.6355
13.6945
12.6462
11.6177
10.6667
9.8135
9.05959
8.39783
7.81808
7.30969
6.86278
6.46856
6.11952
5.80944
5.53371
5.29123
17.6339
18.6184
17.7653
16.2588
14.6633
13.1882
11.8952
10.7871
9.8449
9.04386
8.36033
7.77382
7.26734
6.82708
6.44196
6.10313
5.80406
5.54248
24.7059
26.4237
23.9024
20.7817
17.9993
15.7025
13.8492
12.3583
11.1511
10.1629
9.34376
8.65643
8.07303
7.57262
7.13934
6.76114
6.42908
6.13934
51.9672
47.7372
37.7995
30.1734
24.7592
20.8752
18.032
15.901
14.261
12.9653
11.9174
11.0524
10.3263
9.70789
9.17485
8.71078
8.30371
7.94771
251.832
137.368
90.7926
67.1392
53.32
44.5383
38.5885
34.3201
31.1017
28.5742
26.5247
24.8213
23.3782
22.1371
21.057
20.1078
19.267
18.5202
0.142837
0.161686
0.255326
0.36398
0.475706
0.575401
0.672292
0.768616
0.865661
0.964529
1.06606
1.17077
1.27887
1.39034
1.50496
1.62243
1.74235
1.86434
1.98797
2.11287
2.23868
2.36506
2.49174
2.61848
2.74509
2.87149
2.99769
3.12387
3.25044
3.37818
3.50841
3.6433
3.77911
3.91112
4.03906
4.16254
4.28099
4.39373
4.50004
4.59915
4.6903
4.77273
4.84574
4.90867
4.96095
5.00209
5.03172
5.04957
5.05552
5.04955
5.0318
5.00252
4.9621
4.91107
4.85011
4.78018
4.70263
4.61966
4.53507
4.45497
4.38491
4.32296
4.25955
4.19269
4.12219
4.04833
3.97152
3.89221
3.81083
3.72782
3.64361
3.55858
3.47314
3.38765
3.30246
3.21789
3.13426
3.05186
2.97097
2.89183
2.81468
2.73973
2.66717
2.59716
2.52984
2.46534
2.40374
2.34511
2.2895
2.23693
2.18739
2.14087
2.09731
2.05666
2.01884
1.98376
1.95131
1.92139
1.89388
1.86865
1.84557
1.82451
1.80535
1.78795
1.77219
1.75794
1.74508
1.73345
1.72294
1.71374
1.70565
1.69854
1.69228
1.68679
1.68198
1.67779
1.67415
1.67101
1.66831
1.66601
1.66407
1.66246
1.66113
1.66007
1.65925
1.65864
1.65823
1.65799
1.65792
1.658
1.65821
1.65854
1.65899
1.65954
1.66019
1.66092
1.66173
1.66261
1.66357
1.66458
1.66566
1.66679
1.66797
1.66919
1.67046
1.67177
1.67312
1.6745
1.67592
1.67736
1.67884
1.68034
1.68187
1.68342
1.68499
1.68658
1.68818
1.6898
1.69142
1.69306
1.69469
1.69632
1.69794
1.69953
1.70109
1.7026
1.70403
1.70536
1.70654
1.70752
1.70821
1.7085
1.70821
1.70709
1.7047
1.70029
1.69249
1.67846
1.65295
1.60563
0.605187
0.381361
0.398308
0.455553
0.527561
0.601611
0.672198
0.737366
0.797145
0.852377
0.904046
0.953001
0.999897
1.04521
1.08929
1.13236
1.17462
1.21617
1.25711
1.29752
1.33746
1.37699
1.41616
1.45504
1.49372
1.53229
1.5709
1.60971
1.64897
1.68896
1.73006
1.77264
1.81701
1.86101
1.90411
1.94602
1.98649
2.02526
2.06206
2.09658
2.12853
2.15762
2.18356
2.20609
2.22496
2.23995
2.2509
2.25766
2.26016
2.25836
2.25229
2.24201
2.22768
2.20948
2.1877
2.16269
2.13492
2.10496
2.07353
2.04133
2.00877
1.97645
1.94325
1.90884
1.87324
1.8366
1.79909
1.76091
1.72222
1.68321
1.64405
1.60489
1.56588
1.52716
1.48887
1.45112
1.41403
1.3777
1.34223
1.30771
1.27421
1.24181
1.21057
1.18054
1.15176
1.12427
1.09809
1.07323
1.04971
1.02751
1.00663
0.987044
0.968733
0.951661
0.93579
0.921077
0.907474
0.894932
0.883397
0.872815
0.86313
0.854287
0.846231
0.838907
0.832263
0.826246
0.820808
0.815901
0.811495
0.807644
0.804279
0.8013
0.79866
0.796322
0.794255
0.792431
0.790825
0.789415
0.788181
0.787105
0.786172
0.785367
0.784677
0.78409
0.783598
0.78319
0.782859
0.782598
0.782401
0.782261
0.782174
0.782134
0.782139
0.782185
0.782267
0.782383
0.782531
0.782707
0.78291
0.783138
0.783388
0.783659
0.78395
0.784259
0.784584
0.784926
0.785282
0.785651
0.786034
0.786428
0.786834
0.78725
0.787676
0.788111
0.788555
0.789007
0.789466
0.789933
0.790405
0.790884
0.791368
0.791856
0.792347
0.792841
0.793335
0.793829
0.79432
0.794805
0.795281
0.795743
0.796186
0.796605
0.796993
0.797351
0.797693
0.798078
0.798707
0.800142
0.804202
0.81693
1.20465
0.609579
0.552449
0.570345
0.612108
0.662214
0.71313
0.761105
0.804799
0.844227
0.87999
0.912831
0.943428
0.972333
0.999964
1.02663
1.05258
1.07799
1.103
1.12777
1.1524
1.17702
1.20177
1.22675
1.25209
1.27792
1.30435
1.33149
1.35946
1.38832
1.41815
1.44896
1.48052
1.51228
1.54393
1.57523
1.60596
1.63588
1.66472
1.69223
1.71813
1.74214
1.76399
1.78341
1.80016
1.81402
1.82479
1.83235
1.83656
1.83738
1.83479
1.82883
1.81957
1.80716
1.79178
1.77365
1.75303
1.73022
1.70551
1.67914
1.6517
1.62351
1.59439
1.56435
1.53348
1.50192
1.46984
1.43738
1.4047
1.37193
1.33921
1.30667
1.27441
1.24254
1.21115
1.18034
1.15018
1.12074
1.09211
1.06432
1.03743
1.0115
0.986561
0.962641
0.939769
0.917962
0.897234
0.877588
0.859025
0.841535
0.825105
0.809716
0.795344
0.781959
0.769528
0.758014
0.747378
0.737578
0.72857
0.72031
0.712754
0.705855
0.69957
0.693855
0.688669
0.68397
0.679719
0.675881
0.672426
0.669334
0.666586
0.664152
0.661988
0.660065
0.658357
0.65684
0.655494
0.654301
0.653246
0.652313
0.65149
0.650766
0.65013
0.649573
0.649087
0.648666
0.648302
0.647991
0.647726
0.647505
0.647322
0.647175
0.647059
0.646973
0.646913
0.646878
0.646865
0.646872
0.646898
0.646941
0.647
0.647073
0.647159
0.647258
0.647368
0.647488
0.647618
0.647757
0.647904
0.648058
0.64822
0.648388
0.648562
0.648742
0.648927
0.649117
0.649311
0.64951
0.649712
0.649917
0.650126
0.650337
0.650551
0.650766
0.650982
0.651198
0.651414
0.651627
0.651838
0.652043
0.652241
0.652432
0.652614
0.652793
0.652983
0.653229
0.653657
0.654612
0.657032
0.663604
1.71147
0.793805
0.674859
0.661184
0.678935
0.709224
0.743993
0.779028
0.812268
0.842977
0.871138
0.897059
0.921146
0.94379
0.965327
0.986036
1.00615
1.02585
1.04534
1.06475
1.08425
1.10398
1.12408
1.14468
1.16591
1.18788
1.21069
1.23442
1.25912
1.28482
1.31151
1.33916
1.36758
1.39651
1.42571
1.45496
1.48403
1.51268
1.54064
1.56763
1.59335
1.6175
1.63977
1.65988
1.67756
1.69256
1.70466
1.71369
1.71952
1.72208
1.72133
1.71728
1.71002
1.69964
1.6863
1.67019
1.65152
1.63051
1.60739
1.58248
1.55638
1.52917
1.50096
1.47187
1.44205
1.41166
1.38085
1.34979
1.31861
1.28744
1.25641
1.22562
1.19517
1.16517
1.13568
1.10679
1.07856
1.05106
1.02434
0.998453
0.973437
0.949331
0.926167
0.903971
0.882762
0.862555
0.843359
0.825175
0.808
0.791827
0.77664
0.762423
0.74915
0.736795
0.725325
0.714707
0.704904
0.695876
0.687582
0.67998
0.673029
0.666686
0.66091
0.65566
0.650896
0.646581
0.642678
0.639152
0.635974
0.633117
0.630556
0.628271
0.626233
0.624416
0.622796
0.621352
0.620064
0.618916
0.617893
0.616982
0.61617
0.615448
0.614805
0.614233
0.613725
0.613274
0.612874
0.612521
0.612208
0.611934
0.611693
0.611482
0.611299
0.611141
0.611005
0.61089
0.610794
0.610715
0.610651
0.610601
0.610565
0.610539
0.610525
0.61052
0.610524
0.610536
0.610556
0.610582
0.610615
0.610653
0.610697
0.610745
0.610797
0.610854
0.610914
0.610977
0.611043
0.611112
0.611183
0.611256
0.611331
0.611407
0.611484
0.611562
0.61164
0.611718
0.611795
0.611869
0.611941
0.612008
0.61207
0.612126
0.612175
0.612222
0.612277
0.612371
0.612584
0.613128
0.614501
0.617837
2.11712
0.937148
0.766958
0.728463
0.728335
0.744003
0.766739
0.792144
0.817856
0.842698
0.866198
0.888279
0.909057
0.928732
0.947523
0.965642
0.983289
1.00065
1.0179
1.0352
1.05272
1.0706
1.089
1.10803
1.12783
1.1485
1.17013
1.1928
1.21654
1.24138
1.26731
1.29428
1.32216
1.35076
1.37987
1.40929
1.43878
1.46808
1.49689
1.52492
1.55183
1.57729
1.60096
1.62252
1.64166
1.6581
1.67161
1.68198
1.68907
1.69279
1.6931
1.69001
1.6836
1.67397
1.66128
1.64571
1.62747
1.6068
1.58392
1.55943
1.53354
1.50642
1.47826
1.44924
1.41954
1.38933
1.35876
1.328
1.29718
1.26643
1.23587
1.2056
1.1757
1.14628
1.1174
1.08912
1.06152
1.03465
1.00855
0.983271
0.95885
0.93532
0.912708
0.89104
0.870332
0.850597
0.831844
0.814075
0.797288
0.781474
0.766622
0.752714
0.739727
0.727637
0.716413
0.706022
0.696429
0.687595
0.679482
0.672049
0.665254
0.659056
0.653414
0.648288
0.643639
0.639429
0.635622
0.632185
0.629086
0.626295
0.623788
0.62154
0.619529
0.617731
0.616124
0.614688
0.613403
0.612254
0.611225
0.610303
0.609478
0.608738
0.608074
0.607478
0.606942
0.606461
0.606029
0.605639
0.605289
0.604973
0.604688
0.604432
0.604201
0.603993
0.603806
0.603637
0.603485
0.603348
0.603224
0.603114
0.603014
0.602924
0.602844
0.602772
0.602707
0.60265
0.602598
0.602552
0.602511
0.602474
0.602441
0.602412
0.602387
0.602364
0.602343
0.602325
0.602309
0.602294
0.602281
0.602268
0.602257
0.602246
0.602235
0.602224
0.602213
0.6022
0.602185
0.602167
0.602146
0.60212
0.602088
0.602048
0.602001
0.601948
0.601896
0.601865
0.601909
0.602158
0.602888
0.604621
2.44366
1.04887
0.835786
0.777394
0.763828
0.768879
0.782897
0.801244
0.821396
0.841951
0.862174
0.88173
0.900523
0.91859
0.936037
0.953005
0.969647
0.98612
1.00258
1.01919
1.0361
1.05344
1.07137
1.09002
1.1095
1.12993
1.15139
1.17396
1.1977
1.22262
1.24871
1.27596
1.30425
1.33343
1.36332
1.3937
1.42434
1.45495
1.48521
1.5148
1.54335
1.57048
1.59582
1.619
1.63969
1.65755
1.67234
1.68384
1.69187
1.69636
1.69725
1.69458
1.68841
1.67889
1.66617
1.65047
1.63201
1.61105
1.5881
1.56343
1.53728
1.50987
1.48142
1.45213
1.42221
1.39182
1.36115
1.33033
1.29951
1.2688
1.23832
1.20817
1.17843
1.14918
1.12049
1.09242
1.06503
1.03836
1.01246
0.987366
0.963118
0.939745
0.917273
0.895724
0.875116
0.855462
0.836771
0.819047
0.802288
0.786489
0.771639
0.757723
0.744722
0.732611
0.721362
0.710944
0.701323
0.692463
0.684325
0.676868
0.670053
0.663838
0.658183
0.653046
0.64839
0.644175
0.640366
0.636927
0.633828
0.631037
0.628527
0.626273
0.624251
0.622441
0.62082
0.619368
0.618067
0.616901
0.615853
0.614913
0.614066
0.613304
0.612617
0.611997
0.611435
0.610927
0.610466
0.610047
0.609665
0.609317
0.608999
0.608708
0.608441
0.608195
0.607969
0.60776
0.607567
0.607388
0.607222
0.607066
0.606921
0.606785
0.606657
0.606537
0.606423
0.606315
0.606212
0.606114
0.60602
0.60593
0.605842
0.605758
0.605676
0.605596
0.605518
0.605441
0.605366
0.605291
0.605217
0.605144
0.60507
0.604997
0.604922
0.604847
0.60477
0.604692
0.60461
0.604525
0.604436
0.60434
0.604237
0.604125
0.604003
0.603872
0.603734
0.603604
0.603513
0.603544
0.603856
0.60472
2.6991
1.13547
0.887101
0.812516
0.788514
0.785642
0.793255
0.806399
0.822406
0.839748
0.857542
0.875301
0.892789
0.909922
0.926716
0.94324
0.959598
0.97591
0.992308
1.00893
1.0259
1.04337
1.06146
1.08031
1.10002
1.12072
1.1425
1.16544
1.1896
1.21503
1.24172
1.26966
1.29877
1.32892
1.35993
1.39161
1.42369
1.45588
1.48784
1.5192
1.54954
1.57846
1.60553
1.63034
1.6525
1.67168
1.68757
1.69995
1.70864
1.71356
1.71466
1.712
1.70566
1.69582
1.68266
1.66641
1.6474
1.62605
1.60266
1.5775
1.55084
1.52295
1.49405
1.46436
1.4341
1.40343
1.37254
1.34157
1.31064
1.27989
1.24941
1.21929
1.18961
1.16044
1.13184
1.10388
1.07659
1.05002
1.02421
0.999192
0.975005
0.951673
0.929222
0.907674
0.887045
0.867351
0.8486
0.8308
0.81395
0.798048
0.783086
0.76905
0.755925
0.743687
0.732313
0.721772
0.712032
0.703058
0.694812
0.687256
0.68035
0.674052
0.668322
0.66312
0.658405
0.654139
0.650286
0.64681
0.643677
0.640858
0.638322
0.636043
0.633998
0.632164
0.63052
0.629047
0.627724
0.626537
0.625469
0.624508
0.623641
0.622858
0.62215
0.621508
0.620925
0.620395
0.619911
0.619468
0.619062
0.618689
0.618345
0.618027
0.617733
0.617459
0.617203
0.616965
0.616741
0.61653
0.616331
0.616143
0.615964
0.615794
0.615631
0.615474
0.615324
0.615178
0.615037
0.6149
0.614767
0.614637
0.614509
0.614383
0.614259
0.614137
0.614016
0.613896
0.613776
0.613657
0.613538
0.613418
0.613298
0.613178
0.613056
0.612932
0.612807
0.612678
0.612546
0.61241
0.612268
0.61212
0.611962
0.611795
0.611615
0.611421
0.611216
0.611007
0.610813
0.610685
0.610717
0.611078
2.89009
1.20125
0.924844
0.837142
0.804842
0.795856
0.798627
0.807858
0.820737
0.835643
0.851604
0.868044
0.884635
0.901215
0.917724
0.934176
0.950624
0.967152
0.98386
1.00086
1.01826
1.03619
1.05477
1.07412
1.09436
1.11559
1.13793
1.16147
1.18628
1.21241
1.23989
1.26872
1.29883
1.33013
1.36244
1.39556
1.42923
1.46312
1.49687
1.53006
1.56224
1.59295
1.62171
1.64807
1.67159
1.6919
1.70867
1.72167
1.73072
1.73573
1.73671
1.7337
1.72685
1.71636
1.70242
1.68548
1.66583
1.64382
1.61975
1.59393
1.56665
1.53818
1.50877
1.47865
1.44802
1.41708
1.38597
1.35486
1.32386
1.29309
1.26264
1.23259
1.20301
1.17397
1.14551
1.11769
1.09054
1.0641
1.03842
1.01351
0.989403
0.966131
0.943716
0.922177
0.901534
0.8818
0.862988
0.845104
0.828154
0.812136
0.797045
0.782872
0.769603
0.757218
0.745695
0.735008
0.725125
0.716014
0.707639
0.699962
0.692943
0.686542
0.680718
0.675432
0.670642
0.666311
0.6624
0.658874
0.655698
0.652841
0.650273
0.647966
0.645894
0.644035
0.642369
0.640874
0.639532
0.638325
0.63724
0.636261
0.635377
0.634578
0.633853
0.633195
0.632596
0.632048
0.631547
0.631087
0.630663
0.630271
0.629908
0.629571
0.629256
0.628962
0.628685
0.628424
0.628178
0.627944
0.627722
0.627509
0.627305
0.627109
0.62692
0.626737
0.626559
0.626386
0.626217
0.626051
0.625888
0.625728
0.62557
0.625414
0.625259
0.625105
0.624952
0.624799
0.624646
0.624493
0.62434
0.624186
0.624032
0.623875
0.623718
0.623558
0.623395
0.623229
0.623059
0.622884
0.622703
0.622514
0.622315
0.622105
0.62188
0.62164
0.621383
0.621113
0.620841
0.6206
0.620448
0.620507
3.02219
1.24903
0.951641
0.853598
0.814691
0.80089
0.799902
0.806125
0.816608
0.829651
0.844222
0.859686
0.875658
0.891917
0.908355
0.924934
0.941668
0.958604
0.975811
0.993374
1.01139
1.02996
1.04919
1.0692
1.0901
1.112
1.13503
1.15928
1.18484
1.21178
1.24015
1.26997
1.30119
1.33372
1.36742
1.40206
1.43738
1.47302
1.50858
1.5436
1.57759
1.61001
1.64035
1.66808
1.69275
1.71394
1.73131
1.7446
1.75367
1.75844
1.75893
1.75525
1.74755
1.73617
1.7214
1.70359
1.68309
1.66023
1.63535
1.60879
1.58083
1.55177
1.52185
1.49132
1.46037
1.4292
1.39796
1.36679
1.33581
1.30511
1.27479
1.24491
1.21554
1.18673
1.15851
1.13094
1.10403
1.07783
1.05236
1.02765
1.00371
0.980586
0.958283
0.936827
0.916235
0.896523
0.877704
0.859788
0.842782
0.826687
0.811503
0.797223
0.783835
0.771325
0.759673
0.748855
0.738843
0.729606
0.721109
0.713317
0.706191
0.699691
0.693777
0.688409
0.683547
0.679152
0.675185
0.671611
0.668394
0.665501
0.662903
0.66057
0.658476
0.656597
0.654912
0.653401
0.652043
0.650823
0.649724
0.648734
0.647839
0.647028
0.646293
0.645624
0.645013
0.644455
0.643942
0.64347
0.643034
0.642631
0.642255
0.641904
0.641576
0.641267
0.640976
0.6407
0.640438
0.640188
0.639949
0.639719
0.639498
0.639284
0.639076
0.638874
0.638676
0.638483
0.638294
0.638107
0.637923
0.637742
0.637562
0.637383
0.637205
0.637028
0.636851
0.636675
0.636498
0.63632
0.636142
0.635963
0.635782
0.6356
0.635416
0.635229
0.635039
0.634845
0.634647
0.634443
0.634233
0.634014
0.633784
0.633542
0.633285
0.63301
0.632715
0.632401
0.632075
0.631756
0.631485
0.631362
3.09986
1.28087
0.969348
0.863608
0.819572
0.801991
0.798059
0.801943
0.810577
0.822195
0.835719
0.850472
0.86603
0.882133
0.89863
0.91545
0.932572
0.95001
0.967807
0.986022
1.00473
1.02402
1.04398
1.06473
1.08636
1.10901
1.13279
1.15781
1.18418
1.212
1.24133
1.27221
1.30461
1.33846
1.3736
1.40981
1.44679
1.48417
1.5215
1.55827
1.59393
1.62789
1.65956
1.68839
1.71387
1.73556
1.75314
1.76632
1.77499
1.77912
1.77875
1.77409
1.76539
1.75296
1.73715
1.71831
1.69681
1.67302
1.64728
1.61995
1.59132
1.56169
1.53132
1.50045
1.46927
1.43797
1.4067
1.37558
1.34473
1.31424
1.28418
1.2546
1.22557
1.19712
1.16928
1.14208
1.11556
1.08972
1.06459
1.04019
1.01655
0.993674
0.971592
0.950319
0.929875
0.910274
0.891533
0.873663
0.856674
0.84057
0.825353
0.811021
0.797566
0.784977
0.773237
0.762325
0.752216
0.742881
0.734289
0.726405
0.719192
0.712611
0.706623
0.701188
0.696266
0.691818
0.687806
0.684192
0.680942
0.678022
0.675401
0.67305
0.670941
0.669049
0.667354
0.665833
0.664467
0.66324
0.662135
0.661139
0.660238
0.659423
0.658682
0.658008
0.657393
0.656829
0.656311
0.655834
0.655392
0.654981
0.654598
0.65424
0.653904
0.653587
0.653287
0.653002
0.65273
0.65247
0.65222
0.651979
0.651746
0.65152
0.6513
0.651085
0.650875
0.650669
0.650465
0.650265
0.650066
0.64987
0.649674
0.64948
0.649287
0.649093
0.6489
0.648707
0.648513
0.648318
0.648123
0.647925
0.647727
0.647526
0.647323
0.647117
0.646908
0.646695
0.646477
0.646253
0.646022
0.645782
0.645531
0.645267
0.644987
0.644688
0.644367
0.644025
0.643664
0.643296
0.642952
0.642721
3.12676
1.29832
0.979413
0.868584
0.820825
0.800388
0.794202
0.796295
0.803526
0.814079
0.826844
0.841112
0.856431
0.87251
0.889171
0.906312
0.923885
0.941879
0.960312
0.979223
0.998667
1.01872
1.03946
1.06098
1.0834
1.10684
1.13142
1.15728
1.18452
1.21329
1.24365
1.27568
1.30936
1.34461
1.38125
1.41905
1.45768
1.49671
1.53565
1.57395
1.61099
1.64613
1.67873
1.70816
1.73391
1.75557
1.77282
1.78534
1.79309
1.79613
1.79461
1.78873
1.7788
1.76515
1.74815
1.72817
1.70562
1.68086
1.65428
1.62621
1.59697
1.56687
1.53615
1.50504
1.47375
1.44245
1.41128
1.38036
1.34978
1.31963
1.28997
1.26085
1.2323
1.20435
1.17703
1.15035
1.12434
1.09899
1.07434
1.05039
1.02716
1.00467
0.982923
0.961947
0.941758
0.922372
0.903806
0.886073
0.869185
0.853151
0.837976
0.823661
0.810202
0.797591
0.785815
0.774857
0.764694
0.755302
0.74665
0.738706
0.731435
0.724799
0.71876
0.713278
0.708315
0.703832
0.699789
0.69615
0.69288
0.689944
0.687311
0.684951
0.682836
0.680941
0.679243
0.677721
0.676355
0.675128
0.674024
0.673029
0.67213
0.671316
0.670577
0.669904
0.669289
0.668726
0.668208
0.66773
0.667287
0.666875
0.666491
0.66613
0.665791
0.665471
0.665167
0.664878
0.664602
0.664337
0.664082
0.663835
0.663596
0.663363
0.663136
0.662914
0.662696
0.662482
0.66227
0.662061
0.661854
0.661648
0.661443
0.66124
0.661036
0.660833
0.660629
0.660425
0.66022
0.660015
0.659808
0.659599
0.659389
0.659176
0.658961
0.658743
0.658521
0.658295
0.658064
0.657827
0.657583
0.657329
0.657065
0.656787
0.656493
0.65618
0.655846
0.655487
0.655107
0.654713
0.65433
0.65404
3.10599
1.30273
0.983095
0.869821
0.819765
0.797386
0.789606
0.79042
0.796659
0.806485
0.818766
0.832772
0.84803
0.864227
0.881163
0.898713
0.916807
0.935415
0.954534
0.974187
0.994414
1.01527
1.03684
1.05921
1.08249
1.10679
1.13226
1.15904
1.18727
1.21709
1.24862
1.28195
1.31705
1.3538
1.39202
1.43141
1.47158
1.51205
1.55228
1.59165
1.6295
1.66519
1.69807
1.7273
1.75248
1.77324
1.78932
1.80055
1.80691
1.80849
1.80548
1.79812
1.78675
1.77172
1.75343
1.73228
1.70868
1.68301
1.65566
1.62696
1.59724
1.56679
1.53586
1.50468
1.47343
1.44228
1.41136
1.38078
1.35063
1.32097
1.29185
1.26332
1.23539
1.20809
1.18142
1.1554
1.13003
1.10532
1.08127
1.0579
1.03521
1.01321
0.991919
0.971353
0.951528
0.932461
0.914169
0.896667
0.87997
0.86409
0.849035
0.83481
0.821414
0.808844
0.797091
0.78614
0.775973
0.766567
0.757896
0.749929
0.742632
0.735971
0.729908
0.724405
0.719423
0.714924
0.710869
0.707221
0.703945
0.701007
0.698374
0.696017
0.693907
0.692018
0.690327
0.688812
0.687454
0.686235
0.685139
0.684152
0.683261
0.682454
0.681722
0.681056
0.680447
0.67989
0.679377
0.678903
0.678465
0.678057
0.677675
0.677317
0.67698
0.676661
0.676359
0.67607
0.675794
0.675528
0.675272
0.675024
0.674783
0.674549
0.674319
0.674094
0.673874
0.673656
0.673441
0.673228
0.673017
0.672807
0.672598
0.672389
0.672181
0.671972
0.671764
0.671554
0.671344
0.671132
0.67092
0.670705
0.670488
0.670269
0.670048
0.669823
0.669595
0.669362
0.669124
0.66888
0.668629
0.668368
0.668097
0.667813
0.667513
0.667194
0.666854
0.66649
0.666104
0.665701
0.665305
0.664988
3.0399
1.29529
0.981611
0.86864
0.817803
0.794461
0.785788
0.785862
0.791544
0.801003
0.8131
0.827098
0.842509
0.859006
0.876372
0.894465
0.9132
0.932529
0.952437
0.972932
0.994045
1.01582
1.03834
1.06168
1.08595
1.11127
1.1378
1.16569
1.19511
1.22621
1.25914
1.29401
1.33072
1.36911
1.40898
1.44991
1.49137
1.53284
1.57371
1.61332
1.65097
1.68599
1.71773
1.74562
1.76921
1.78819
1.80233
1.81157
1.81594
1.81556
1.81066
1.80154
1.78853
1.77203
1.75243
1.73015
1.70558
1.67913
1.65115
1.62199
1.59196
1.56135
1.53039
1.4993
1.46827
1.43744
1.40694
1.37685
1.34727
1.31825
1.28982
1.26201
1.23483
1.2083
1.18241
1.15717
1.13257
1.1086
1.08528
1.0626
1.04056
1.01917
0.998443
0.978394
0.959037
0.940387
0.922465
0.905286
0.888867
0.873223
0.858366
0.844304
0.831041
0.818576
0.806904
0.796015
0.785894
0.776521
0.767872
0.759921
0.752634
0.74598
0.739922
0.734423
0.729446
0.724952
0.720904
0.717265
0.713999
0.711073
0.708454
0.706111
0.704016
0.702143
0.700469
0.69897
0.697628
0.696424
0.695343
0.694371
0.693494
0.6927
0.691981
0.691327
0.69073
0.690183
0.68968
0.689216
0.688786
0.688385
0.688011
0.68766
0.687329
0.687015
0.686718
0.686433
0.686161
0.685899
0.685645
0.6854
0.685162
0.684929
0.684701
0.684478
0.684258
0.684041
0.683827
0.683614
0.683403
0.683193
0.682983
0.682775
0.682566
0.682356
0.682147
0.681936
0.681725
0.681512
0.681298
0.681082
0.680864
0.680643
0.68042
0.680193
0.679963
0.679728
0.679489
0.679243
0.67899
0.678729
0.678457
0.678172
0.677872
0.677555
0.677217
0.676857
0.676475
0.676078
0.675684
0.675362
2.92703
1.27762
0.976521
0.866669
0.816663
0.793427
0.78464
0.784583
0.790204
0.799712
0.811988
0.826296
0.842146
0.859203
0.877238
0.896099
0.915689
0.93595
0.956856
0.978408
1.00063
1.02356
1.04727
1.07185
1.0974
1.12406
1.15198
1.18134
1.21231
1.24509
1.27983
1.3166
1.35515
1.39522
1.43645
1.47838
1.52044
1.562
1.6024
1.64094
1.67697
1.70985
1.73906
1.76415
1.78477
1.8007
1.81184
1.81817
1.8198
1.8169
1.80972
1.79857
1.7838
1.7658
1.74494
1.72164
1.69627
1.66921
1.64082
1.61142
1.5813
1.55074
1.51997
1.48917
1.45854
1.4282
1.39827
1.36884
1.33997
1.3117
1.28408
1.25711
1.2308
1.20514
1.18014
1.15578
1.13205
1.10893
1.08643
1.06454
1.04325
1.02257
1.0025
0.983066
0.964269
0.946128
0.928662
0.91189
0.895831
0.880501
0.865916
0.852087
0.839022
0.826723
0.815191
0.804418
0.794392
0.785098
0.776515
0.768617
0.761377
0.754762
0.748738
0.74327
0.738322
0.733855
0.729834
0.726221
0.722982
0.720082
0.717488
0.715172
0.713104
0.711257
0.709607
0.708133
0.706814
0.705634
0.704574
0.703623
0.702765
0.701991
0.70129
0.700652
0.700071
0.699539
0.699051
0.6986
0.698182
0.697793
0.69743
0.697089
0.696767
0.696463
0.696173
0.695896
0.695631
0.695376
0.695129
0.69489
0.694657
0.694429
0.694207
0.693988
0.693772
0.69356
0.693349
0.69314
0.692933
0.692726
0.69252
0.692314
0.692108
0.691902
0.691695
0.691487
0.691278
0.691068
0.690856
0.690643
0.690427
0.690209
0.689988
0.689763
0.689536
0.689304
0.689067
0.688824
0.688574
0.688316
0.688048
0.687768
0.687474
0.687164
0.686835
0.686486
0.686117
0.685734
0.685355
0.685043
2.79858
1.26162
0.972999
0.867222
0.81902
0.796726
0.788528
0.788942
0.795033
0.805072
0.81797
0.83301
0.849704
0.867714
0.886808
0.906826
0.927661
0.949249
0.971557
0.994579
1.01833
1.04286
1.06823
1.09453
1.12186
1.15038
1.18023
1.2116
1.24469
1.2797
1.31683
1.35585
1.3964
1.43805
1.48029
1.52252
1.56408
1.60428
1.64244
1.67794
1.71022
1.73884
1.76343
1.78374
1.79961
1.81096
1.81781
1.82022
1.81834
1.81237
1.80255
1.78919
1.7726
1.75314
1.73115
1.70701
1.68106
1.65365
1.62509
1.5957
1.56574
1.53546
1.50507
1.47477
1.44471
1.41503
1.38582
1.35716
1.32912
1.30172
1.275
1.24896
1.2236
1.19891
1.17487
1.15147
1.12869
1.1065
1.08491
1.06388
1.04342
1.02353
1.0042
0.985455
0.967296
0.949742
0.93281
0.91652
0.900893
0.885948
0.871702
0.858171
0.845365
0.833291
0.821953
0.811347
0.801465
0.792294
0.783817
0.776011
0.768851
0.762306
0.756346
0.750936
0.74604
0.741622
0.737647
0.734078
0.73088
0.72802
0.725466
0.723188
0.721156
0.719345
0.717729
0.716287
0.714999
0.713847
0.712816
0.71189
0.711058
0.710308
0.709629
0.709013
0.708452
0.707939
0.707468
0.707034
0.706632
0.706258
0.705909
0.705581
0.705272
0.704979
0.7047
0.704434
0.704179
0.703933
0.703696
0.703465
0.70324
0.703021
0.702806
0.702594
0.702386
0.70218
0.701977
0.701774
0.701573
0.701373
0.701173
0.700973
0.700773
0.700573
0.700372
0.70017
0.699967
0.699762
0.699556
0.699348
0.699138
0.698926
0.698711
0.698492
0.69827
0.698045
0.697814
0.697578
0.697335
0.697084
0.696824
0.696553
0.69627
0.695971
0.695656
0.695323
0.694974
0.694613
0.694258
0.693966
2.6302
1.23997
0.970416
0.871372
0.826638
0.806523
0.799927
0.801691
0.809048
0.820367
0.834612
0.851096
0.869346
0.889029
0.90991
0.931825
0.954663
0.978351
1.00285
1.02816
1.05428
1.08126
1.10916
1.13807
1.1681
1.19939
1.23211
1.26643
1.30256
1.34068
1.38093
1.42251
1.46492
1.50753
1.54964
1.59052
1.62942
1.66566
1.69869
1.72805
1.75348
1.77482
1.79202
1.80509
1.8141
1.81913
1.82031
1.81775
1.8116
1.80206
1.78931
1.77361
1.75521
1.73439
1.71145
1.68668
1.66039
1.63287
1.6044
1.57526
1.54568
1.5159
1.48611
1.45648
1.42716
1.39826
1.3699
1.34213
1.31502
1.28859
1.26285
1.23782
1.21348
1.18982
1.16682
1.14445
1.12268
1.10149
1.08087
1.06078
1.04123
1.0222
1.00369
0.985709
0.968266
0.951374
0.935052
0.91932
0.904198
0.889707
0.875869
0.8627
0.850216
0.838426
0.827337
0.81695
0.80726
0.798257
0.789927
0.782252
0.775207
0.768765
0.762897
0.757571
0.752751
0.748404
0.744494
0.740986
0.737846
0.73504
0.732537
0.730307
0.728321
0.726554
0.724979
0.723575
0.722324
0.721207
0.720208
0.719313
0.71851
0.717786
0.717133
0.716541
0.716002
0.71551
0.715059
0.714643
0.714258
0.713901
0.713566
0.713253
0.712957
0.712677
0.71241
0.712155
0.711911
0.711675
0.711447
0.711226
0.71101
0.710799
0.710592
0.710388
0.710188
0.709989
0.709793
0.709597
0.709403
0.709209
0.709016
0.708823
0.708629
0.708435
0.70824
0.708044
0.707847
0.707649
0.707449
0.707247
0.707043
0.706836
0.706627
0.706415
0.7062
0.705981
0.705757
0.705528
0.705292
0.70505
0.704798
0.704537
0.704265
0.703979
0.703679
0.703364
0.703035
0.702698
0.70237
0.702101
2.44253
1.21405
0.96917
0.879699
0.840409
0.824093
0.820543
0.825006
0.834929
0.848801
0.865657
0.88485
0.905925
0.92856
0.952521
0.97764
1.0038
1.03092
1.05897
1.08792
1.11778
1.14859
1.18042
1.21334
1.24746
1.28292
1.31988
1.3585
1.39898
1.44151
1.48509
1.52886
1.57205
1.61379
1.65322
1.68951
1.72197
1.75011
1.77369
1.79268
1.80726
1.81772
1.8244
1.82764
1.8277
1.82482
1.81914
1.81079
1.79987
1.78646
1.77069
1.75268
1.73258
1.7106
1.68692
1.66178
1.63541
1.60803
1.5799
1.55123
1.52225
1.49315
1.46411
1.43528
1.40682
1.37882
1.35138
1.32457
1.29843
1.273
1.24829
1.22429
1.201
1.17839