/*--------------------------------*- C++ -*----------------------------------*\
  =========                 |
  \\      /  F ield         | OpenFOAM: The Open Source CFD Toolbox
   \\    /   O peration     | Website:  https://openfoam.org
    \\  /    A nd           | Version:  6
     \\/     M anipulation  |
\*---------------------------------------------------------------------------*/
FoamFile
{
    version     2.0;
    format      ascii;
    class       volScalarField;
    location    "0.09";
    object      k;
}
// * * * * * * * * * * * * * * * * * * * * * * * * * * * * * * * * * * * * * //

dimensions      [0 2 -2 0 0 0 0];

internalField   nonuniform List<scalar> 
12225
(
0.24644
0.158841
0.119017
0.0972218
0.0837534
0.0747842
0.0684198
0.0636317
0.0598526
0.0567618
0.0541688
0.0519535
0.0500361
0.0483609
0.0468883
0.045591
0.0444884
0.0436693
0.339525
0.260138
0.208274
0.175326
0.153323
0.137759
0.126112
0.116976
0.109555
0.103377
0.0981398
0.0936371
0.0897234
0.086292
0.0832659
0.0805775
0.0782183
0.0761419
0.347499
0.292343
0.24853
0.216233
0.192292
0.174141
0.159978
0.148609
0.139257
0.131414
0.124734
0.118974
0.113955
0.109547
0.105651
0.102191
0.0991264
0.0964489
0.35137
0.30904
0.271904
0.241962
0.218207
0.199281
0.183994
0.171436
0.16095
0.152067
0.144448
0.137843
0.132068
0.12698
0.122471
0.118459
0.114891
0.111771
0.353918
0.319271
0.287217
0.25986
0.237104
0.21828
0.202636
0.18951
0.178381
0.168846
0.1606
0.153406
0.147084
0.141492
0.136521
0.132085
0.128129
0.124658
0.355678
0.326036
0.297886
0.272952
0.251492
0.233216
0.217664
0.204372
0.192937
0.18303
0.174386
0.166793
0.160083
0.154121
0.148799
0.144035
0.139775
0.136024
0.356918
0.330715
0.305587
0.282798
0.262693
0.245181
0.229988
0.216793
0.205292
0.195221
0.186358
0.178517
0.171547
0.165323
0.159746
0.154735
0.150241
0.146268
0.357802
0.334032
0.311254
0.290309
0.271508
0.254846
0.240161
0.227234
0.215836
0.205757
0.196814
0.188848
0.181725
0.175333
0.16958
0.164394
0.159726
0.155584
0.358434
0.336408
0.315458
0.296069
0.278463
0.26266
0.24856
0.236005
0.224826
0.214854
0.205939
0.197946
0.190759
0.184278
0.17842
0.17312
0.168334
0.16407
0.358882
0.33811
0.318572
0.300473
0.283931
0.26895
0.255457
0.243334
0.232447
0.222664
0.213858
0.205916
0.198737
0.192233
0.186331
0.180971
0.176115
0.171771
0.359196
0.339318
0.320857
0.30381
0.288188
0.273964
0.261066
0.249397
0.238847
0.229305
0.220667
0.212835
0.205721
0.199249
0.193352
0.187978
0.183095
0.17871
0.359394
0.340094
0.322373
0.306094
0.291184
0.277576
0.26519
0.253933
0.243708
0.234417
0.225968
0.218275
0.21126
0.204856
0.199002
0.193651
0.188775
0.184384
0.359536
0.340653
0.323496
0.307831
0.293519
0.280452
0.268533
0.257668
0.247763
0.23873
0.230485
0.222952
0.21606
0.209747
0.203959
0.198654
0.193807
0.18943
0.359644
0.341087
0.324392
0.309262
0.295496
0.282947
0.271495
0.261038
0.251481
0.24274
0.234736
0.227399
0.220665
0.214478
0.208788
0.203558
0.198767
0.194426
0.35972
0.341394
0.325047
0.310342
0.297036
0.284945
0.273928
0.263866
0.254661
0.246226
0.238485
0.23137
0.224822
0.218788
0.213225
0.208098
0.203389
0.199105
0.359767
0.34159
0.325475
0.311073
0.298113
0.286388
0.275733
0.266018
0.257133
0.248987
0.241503
0.234613
0.22826
0.222394
0.216973
0.211966
0.207355
0.203147
0.359793
0.341697
0.325717
0.311499
0.298761
0.287283
0.276887
0.267429
0.258791
0.250878
0.243607
0.236911
0.23073
0.225015
0.219726
0.214832
0.210317
0.206184
0.359804
0.341741
0.325817
0.31168
0.299045
0.287686
0.277418
0.268093
0.259588
0.251803
0.244653
0.238067
0.231987
0.226362
0.221152
0.216327
0.211868
0.207781
0.359801
0.341728
0.325788
0.311627
0.298963
0.287569
0.277263
0.267899
0.259353
0.251528
0.244338
0.237713
0.231595
0.225934
0.22069
0.21583
0.211339
0.20722
0.359775
0.34162
0.325544
0.311192
0.298293
0.286633
0.276044
0.266391
0.257561
0.249461
0.242013
0.235149
0.228811
0.222949
0.217522
0.212498
0.20786
0.203612
0.359715
0.341375
0.325004
0.310271
0.296933
0.284808
0.273753
0.26365
0.2544
0.245915
0.238119
0.230946
0.224334
0.218231
0.212594
0.207388
0.202592
0.198212
0.359585
0.34085
0.323898
0.308468
0.294389
0.281534
0.269797
0.259077
0.249282
0.240325
0.232126
0.22461
0.21771
0.211367
0.20553
0.200159
0.195228
0.190742
0.359329
0.339832
0.321852
0.305297
0.29012
0.276267
0.263662
0.25221
0.241811
0.232364
0.223773
0.215948
0.208807
0.20228
0.196303
0.190829
0.185825
0.181295
0.35886
0.338006
0.318364
0.300158
0.283512
0.268431
0.254842
0.242628
0.231653
0.22178
0.212885
0.20485
0.197574
0.190967
0.184956
0.179477
0.174494
0.170005
0.35805
0.334907
0.312745
0.29229
0.27383
0.25738
0.242807
0.229914
0.218496
0.208357
0.199324
0.191246
0.183995
0.17746
0.171552
0.166198
0.161349
0.157004
0.356706
0.329799
0.303964
0.28061
0.260089
0.242284
0.226891
0.213561
0.201967
0.191829
0.182913
0.175026
0.16801
0.161736
0.1561
0.15102
0.146438
0.142348
0.354517
0.32133
0.290229
0.263342
0.240734
0.221871
0.206091
0.192784
0.181456
0.171717
0.163268
0.155875
0.149357
0.143569
0.1384
0.13376
0.129589
0.125875
0.350901
0.306593
0.267902
0.237072
0.212889
0.193812
0.178525
0.166042
0.155662
0.146891
0.139379
0.132868
0.127168
0.122136
0.117661
0.113656
0.110062
0.106862
0.342446
0.275929
0.227245
0.193494
0.169766
0.152524
0.139473
0.1292
0.120851
0.1139
0.108002
0.102924
0.0984982
0.0946035
0.0911474
0.0880596
0.0852876
0.0828104
0.259302
0.17311
0.131351
0.107412
0.0921154
0.0817019
0.0742541
0.0686732
0.064311
0.060779
0.0578382
0.055336
0.0531713
0.051274
0.0495939
0.0480936
0.0467452
0.0455311
0.00206024
0.00368739
0.00495104
0.00624882
0.00747981
0.0084924
0.0094207
0.0103003
0.0111505
0.0119852
0.0128139
0.0136421
0.014472
0.0153039
0.0161363
0.0169676
0.0177954
0.0186176
0.0194324
0.0202379
0.0210327
0.0218157
0.022586
0.0233431
0.0240866
0.0248168
0.0255344
0.0262407
0.0269381
0.0276307
0.0283244
0.0290281
0.0297446
0.0304327
0.0310924
0.0317228
0.0323225
0.032889
0.0334198
0.033912
0.0343628
0.0347694
0.0351291
0.0354394
0.035698
0.0359031
0.0360532
0.0361472
0.0361845
0.0361649
0.036089
0.0359574
0.0357716
0.0355334
0.0352452
0.0349104
0.0345336
0.0341221
0.0336887
0.0332561
0.0328555
0.0325125
0.0321852
0.0318438
0.0314832
0.0311033
0.0307055
0.0302917
0.0298637
0.0294235
0.0289731
0.0285142
0.0280488
0.0275786
0.0271054
0.0266307
0.0261564
0.025684
0.025215
0.024751
0.0242934
0.0238437
0.0234031
0.0229729
0.0225542
0.0221482
0.0217558
0.0213778
0.0210149
0.0206677
0.0203366
0.020022
0.0197241
0.0194428
0.0191782
0.0189299
0.0186977
0.0184812
0.0182799
0.0180931
0.0179204
0.0177609
0.0176141
0.0174791
0.0173552
0.0172417
0.0171378
0.0170425
0.0169549
0.0168759
0.0168049
0.0167409
0.0166831
0.0166306
0.0165831
0.0165399
0.0165006
0.0164649
0.0164322
0.0164023
0.0163749
0.0163498
0.0163267
0.0163053
0.0162856
0.0162673
0.0162503
0.0162344
0.0162196
0.0162057
0.0161927
0.0161804
0.0161687
0.0161577
0.0161472
0.0161371
0.0161275
0.0161183
0.0161094
0.0161008
0.0160924
0.0160843
0.0160764
0.0160686
0.016061
0.0160535
0.0160462
0.0160389
0.0160316
0.0160244
0.0160173
0.0160102
0.016003
0.0159959
0.0159887
0.0159815
0.0159742
0.0159668
0.0159593
0.0159516
0.0159438
0.0159358
0.0159276
0.015919
0.01591
0.0159005
0.0158904
0.0158794
0.0158673
0.0158537
0.0158382
0.0158201
0.0157982
0.0157709
0.0157357
0.0156878
0.015619
0.0155116
0.0153332
0.0150189
0.00534011
0.0114549
0.0144975
0.0168052
0.0188723
0.0207601
0.0224774
0.0240408
0.0254816
0.0268364
0.0281378
0.0294119
0.0306773
0.0319466
0.033227
0.0345226
0.0358345
0.0371623
0.0385044
0.0398588
0.0412229
0.0425944
0.0439707
0.0453497
0.0467291
0.0481068
0.0494808
0.0508488
0.0522085
0.0535573
0.054892
0.0562097
0.0574956
0.0587611
0.0600062
0.0612277
0.0624204
0.0635783
0.0646948
0.0657629
0.0667753
0.0677248
0.068604
0.0694061
0.0701244
0.0707529
0.0712866
0.071721
0.0720528
0.0722796
0.0724003
0.0724148
0.0723242
0.0721306
0.0718373
0.0714486
0.0709699
0.0704074
0.0697682
0.0690594
0.0682881
0.0674801
0.066629
0.0657339
0.0647978
0.0638252
0.0628208
0.0617895
0.0607361
0.059665
0.0585806
0.0574871
0.0563883
0.0552882
0.0541902
0.0530977
0.0520142
0.0509427
0.0498862
0.0488476
0.0478295
0.0468344
0.0458648
0.0449228
0.0440102
0.043129
0.0422806
0.0414663
0.0406872
0.039944
0.0392373
0.0385674
0.0379342
0.0373377
0.0367773
0.0362523
0.0357621
0.0353054
0.0348811
0.034488
0.0341246
0.0337894
0.0334809
0.0331975
0.0329377
0.0326998
0.0324823
0.0322835
0.0321016
0.0319339
0.0317803
0.0316416
0.0315162
0.0314029
0.0313004
0.0312076
0.0311234
0.031047
0.0309774
0.0309139
0.0308559
0.0308027
0.0307538
0.0307089
0.0306673
0.0306288
0.0305931
0.0305597
0.0305285
0.0304992
0.0304717
0.0304456
0.0304209
0.0303973
0.0303748
0.0303532
0.0303325
0.0303124
0.030293
0.030274
0.0302556
0.0302375
0.0302198
0.0302023
0.0301851
0.0301681
0.0301512
0.0301345
0.0301178
0.0301011
0.0300845
0.0300678
0.0300511
0.0300344
0.0300175
0.0300005
0.0299834
0.0299661
0.0299485
0.0299307
0.0299126
0.0298941
0.0298752
0.0298558
0.0298357
0.0298148
0.0297929
0.0297697
0.0297448
0.0297177
0.0296876
0.0296536
0.029614
0.0295664
0.0295068
0.0294287
0.029319
0.0291575
0.0288834
0.0285573
0.00845215
0.0171732
0.0212301
0.0241066
0.0265257
0.0287044
0.0307107
0.0325729
0.034317
0.0359723
0.0375668
0.039124
0.0406608
0.0421884
0.0437128
0.0452366
0.04676
0.0482821
0.0498015
0.051317
0.0528276
0.0543332
0.055834
0.0573306
0.0588242
0.0603156
0.061806
0.0632961
0.0647861
0.0662757
0.067764
0.0692493
0.0707287
0.0722021
0.0736664
0.0751161
0.0765447
0.0779442
0.0793061
0.0806209
0.081879
0.0830705
0.0841854
0.0852141
0.0861472
0.0869764
0.087694
0.0882936
0.0887699
0.0891193
0.0893393
0.0894291
0.0893892
0.0892218
0.08893
0.0885185
0.0879927
0.0873591
0.086624
0.0857939
0.0848862
0.0839153
0.082883
0.0817937
0.080653
0.0794671
0.0782421
0.0769843
0.0756996
0.0743935
0.0730714
0.0717385
0.0703994
0.0690589
0.0677211
0.0663903
0.0650704
0.0637651
0.062478
0.0612124
0.0599715
0.0587583
0.0575756
0.056426
0.0553118
0.0542351
0.0531978
0.0522013
0.0512471
0.050336
0.0494689
0.048646
0.0478675
0.0471331
0.0464425
0.0457949
0.0451893
0.0446245
0.0440992
0.0436119
0.043161
0.0427445
0.0423609
0.0420081
0.0416842
0.0413874
0.0411158
0.0408675
0.0406405
0.0404329
0.0402425
0.0400687
0.0399109
0.0397678
0.0396379
0.03952
0.0394127
0.0393151
0.0392261
0.0391448
0.0390703
0.0390021
0.0389393
0.0388814
0.0388278
0.0387782
0.038732
0.0386889
0.0386485
0.0386106
0.0385749
0.038541
0.0385089
0.0384782
0.0384489
0.0384208
0.0383936
0.0383674
0.038342
0.0383172
0.038293
0.0382693
0.038246
0.0382231
0.0382005
0.0381781
0.0381559
0.0381338
0.0381119
0.0380899
0.038068
0.0380461
0.0380241
0.0380021
0.0379799
0.0379575
0.037935
0.0379123
0.0378893
0.037866
0.0378423
0.0378182
0.0377936
0.0377684
0.0377425
0.0377156
0.0376877
0.0376582
0.037627
0.0375934
0.0375566
0.0375155
0.0374686
0.0374134
0.037346
0.0372604
0.0371449
0.0369818
0.0367291
0.0363993
0.0106867
0.0213447
0.0262782
0.0296276
0.0323133
0.0346644
0.0368176
0.0388327
0.0407425
0.042571
0.0443378
0.0460587
0.0477452
0.049405
0.0510428
0.052661
0.054261
0.0558435
0.0574095
0.0589605
0.0604985
0.0620259
0.0635459
0.0650617
0.0665769
0.0680946
0.069618
0.0711494
0.0726907
0.0742425
0.0758046
0.0773757
0.0789542
0.0805385
0.0821244
0.0837058
0.0852753
0.0868239
0.0883415
0.0898173
0.0912396
0.0925967
0.0938765
0.095067
0.096157
0.097136
0.0979942
0.0987237
0.0993177
0.099771
0.10008
0.100244
0.100262
0.100137
0.0998711
0.0994693
0.0989371
0.098281
0.0975077
0.0966276
0.0956609
0.0946144
0.093495
0.0923096
0.0910658
0.0897707
0.0884316
0.0870555
0.085649
0.0842183
0.0827693
0.0813078
0.0798388
0.0783675
0.0768986
0.0754366
0.0739856
0.0725498
0.0711331
0.069739
0.0683711
0.0670327
0.0657267
0.0644561
0.0632234
0.0620311
0.0608811
0.0597753
0.0587152
0.0577019
0.0567364
0.0558192
0.0549505
0.0541302
0.0533579
0.0526328
0.0519542
0.0513206
0.0507308
0.0501831
0.0496758
0.049207
0.0487746
0.0483767
0.0480113
0.0476761
0.0473692
0.0470884
0.0468318
0.0465974
0.046383
0.0461868
0.0460082
0.0458459
0.0456983
0.045564
0.0454418
0.0453303
0.0452285
0.0451353
0.04505
0.0449716
0.0448994
0.0448328
0.0447711
0.0447139
0.0446605
0.0446107
0.0445639
0.04452
0.0444784
0.0444391
0.0444017
0.044366
0.0443318
0.0442989
0.0442672
0.0442364
0.0442066
0.0441776
0.0441491
0.0441213
0.0440939
0.044067
0.0440403
0.044014
0.0439878
0.0439618
0.0439359
0.04391
0.0438841
0.0438583
0.0438323
0.0438063
0.0437801
0.0437538
0.0437273
0.0437005
0.0436734
0.043646
0.0436182
0.0435899
0.0435611
0.0435317
0.0435015
0.0434703
0.043438
0.0434041
0.0433684
0.0433303
0.0432889
0.0432433
0.0431918
0.0431323
0.043061
0.0429727
0.0428577
0.0427017
0.0424786
0.0421962
0.0123061
0.0243627
0.0300012
0.0337703
0.0367191
0.0392405
0.041517
0.0436378
0.0456492
0.0475781
0.0494416
0.0512512
0.0530152
0.0547391
0.056427
0.0580817
0.0597058
0.0613019
0.0628729
0.0644224
0.0659543
0.0674732
0.0689839
0.0704914
0.0720008
0.0735168
0.0750437
0.076585
0.0781435
0.0797207
0.0813169
0.0829312
0.0845627
0.0862099
0.0878689
0.0895336
0.091196
0.0928466
0.0944743
0.0960672
0.0976121
0.0990956
0.100504
0.101823
0.10304
0.104142
0.105118
0.105958
0.106655
0.107201
0.107594
0.10783
0.107909
0.107833
0.107605
0.107229
0.106713
0.106061
0.105282
0.104396
0.103412
0.102338
0.101183
0.0999569
0.0986665
0.0973206
0.0959268
0.0944926
0.0930251
0.0915309
0.0900162
0.088487
0.0869486
0.0854064
0.0838653
0.0823298
0.0808046
0.0792937
0.0778012
0.076331
0.0748867
0.0734717
0.0720894
0.0707429
0.0694348
0.0681679
0.0669444
0.0657664
0.0646355
0.0635533
0.0625207
0.0615386
0.0606072
0.0597267
0.0588968
0.0581168
0.057386
0.0567031
0.0560667
0.0554752
0.0549269
0.0544198
0.0539519
0.053521
0.053125
0.0527616
0.0524287
0.0521241
0.0518457
0.0515913
0.051359
0.0511466
0.0509527
0.0507762
0.0506157
0.0504695
0.0503362
0.0502145
0.0501033
0.0500016
0.0499082
0.0498223
0.0497432
0.0496702
0.0496024
0.0495395
0.0494808
0.0494259
0.0493744
0.0493259
0.0492801
0.0492366
0.0491952
0.0491556
0.0491177
0.0490812
0.0490459
0.0490118
0.0489786
0.0489462
0.0489146
0.0488835
0.048853
0.0488229
0.0487931
0.0487636
0.0487343
0.0487052
0.0486762
0.0486473
0.0486183
0.0485894
0.0485603
0.0485312
0.0485019
0.0484724
0.0484427
0.0484127
0.0483824
0.0483518
0.0483207
0.0482892
0.0482571
0.0482243
0.0481907
0.0481562
0.0481204
0.0480831
0.0480439
0.0480023
0.0479574
0.0479083
0.0478535
0.0477908
0.047717
0.0476271
0.0475133
0.0473643
0.0471636
0.046921
0.013529
0.0265417
0.0327176
0.0368362
0.0400289
0.0427209
0.0451186
0.0473302
0.0494147
0.0514057
0.0533225
0.055177
0.0569769
0.0587273
0.0604324
0.0620957
0.0637205
0.0653107
0.0668703
0.068404
0.0699169
0.0714146
0.0729031
0.0743884
0.0758764
0.0773729
0.0788832
0.0804118
0.0819623
0.0835374
0.085138
0.0867639
0.088415
0.0900908
0.0917881
0.0935011
0.095222
0.096941
0.0986465
0.100326
0.101964
0.103547
0.105058
0.106483
0.107806
0.109013
0.110092
0.111031
0.111821
0.112454
0.112925
0.113232
0.113374
0.113353
0.113172
0.112835
0.112348
0.111721
0.110967
0.110098
0.109125
0.108056
0.106902
0.105671
0.104373
0.103016
0.101608
0.100158
0.0986715
0.0971563
0.0956185
0.0940641
0.0924986
0.0909274
0.0893553
0.0877871
0.0862272
0.08468
0.0831496
0.0816398
0.0801545
0.0786972
0.0772713
0.0758802
0.0745268
0.0732139
0.071944
0.0707195
0.0695422
0.0684139
0.0673358
0.066309
0.0653339
0.0644108
0.0635398
0.0627202
0.0619514
0.0612323
0.0605615
0.0599376
0.0593588
0.0588231
0.0583284
0.0578727
0.0574536
0.0570689
0.0567164
0.0563938
0.0560988
0.0558294
0.0555833
0.0553586
0.0551533
0.0549663
0.054796
0.0546409
0.0544993
0.0543701
0.0542519
0.0541436
0.0540443
0.0539529
0.0538686
0.0537907
0.0537185
0.0536513
0.0535886
0.05353
0.0534749
0.053423
0.0533739
0.0533273
0.0532829
0.0532404
0.0531996
0.0531604
0.0531225
0.0530857
0.05305
0.0530151
0.0529809
0.0529474
0.0529144
0.0528819
0.0528497
0.0528178
0.0527861
0.0527546
0.0527232
0.0526919
0.0526606
0.0526292
0.0525977
0.0525661
0.0525344
0.0525025
0.0524703
0.0524378
0.0524051
0.0523719
0.0523383
0.0523042
0.0522695
0.0522342
0.052198
0.0521608
0.0521223
0.0520824
0.0520405
0.0519962
0.0519487
0.051897
0.0518397
0.0517748
0.0516993
0.0516089
0.051497
0.0513546
0.0511715
0.0509596
0.0144425
0.0280931
0.0346633
0.0390548
0.0424531
0.0452991
0.0478096
0.0501026
0.0522462
0.0542799
0.0562276
0.0581034
0.0599166
0.0616733
0.0633782
0.0650355
0.0666492
0.0682237
0.0697636
0.071274
0.0727606
0.0742294
0.0756869
0.0771395
0.0785939
0.0800565
0.0815334
0.0830302
0.0845515
0.0861008
0.0876804
0.0892911
0.0909339
0.0926095
0.0943159
0.0960482
0.0977991
0.0995588
0.101316
0.103056
0.104764
0.106425
0.10802
0.109533
0.110946
0.112246
0.113415
0.114443
0.115318
0.116032
0.11658
0.116958
0.117165
0.117203
0.117075
0.116786
0.116345
0.115762
0.115049
0.114218
0.113277
0.112238
0.11111
0.109903
0.108627
0.107289
0.105899
0.104464
0.102992
0.101488
0.0999601
0.0984134
0.0968536
0.0952858
0.093715
0.0921456
0.0905823
0.0890292
0.0874904
0.0859698
0.0844713
0.0829985
0.081555
0.0801442
0.0787691
0.0774329
0.0761382
0.0748876
0.0736833
0.0725271
0.0714206
0.0703651
0.0693613
0.0684098
0.0675107
0.0666637
0.0658683
0.0651235
0.0644281
0.0637807
0.0631796
0.0626229
0.0621086
0.0616345
0.0611984
0.0607979
0.0604308
0.0600948
0.0597876
0.059507
0.0592508
0.0590169
0.0588033
0.0586086
0.0584312
0.0582695
0.0581219
0.0579872
0.0578639
0.0577509
0.0576472
0.0575518
0.0574638
0.0573824
0.0573069
0.0572367
0.0571712
0.0571098
0.0570522
0.0569978
0.0569464
0.0568975
0.0568509
0.0568064
0.0567636
0.0567224
0.0566825
0.0566438
0.0566062
0.0565694
0.0565335
0.0564981
0.0564634
0.056429
0.0563951
0.0563614
0.056328
0.0562947
0.0562615
0.0562284
0.0561953
0.0561621
0.0561289
0.0560955
0.0560619
0.0560282
0.0559941
0.0559598
0.0559252
0.0558901
0.0558546
0.0558186
0.055782
0.0557447
0.0557066
0.0556674
0.055627
0.0555851
0.0555412
0.055495
0.0554456
0.0553921
0.0553332
0.055267
0.0551908
0.0551007
0.0549913
0.0548557
0.0546874
0.0544996
0.0151016
0.0291544
0.0360035
0.0405968
0.0441558
0.047129
0.0497362
0.0520999
0.0542926
0.0563587
0.0583258
0.0602113
0.0620264
0.0637789
0.0654745
0.0671181
0.0687142
0.0702674
0.0717825
0.0732647
0.0747196
0.0761534
0.0775724
0.0789835
0.0803935
0.0818094
0.0832381
0.0846859
0.0861587
0.0876612
0.0891971
0.0907685
0.0923778
0.0940275
0.095717
0.0974427
0.0991981
0.100974
0.102759
0.104538
0.106296
0.108015
0.109677
0.111262
0.112754
0.114133
0.115384
0.116492
0.117447
0.118238
0.11886
0.119308
0.119583
0.119684
0.119615
0.119385
0.119002
0.118477
0.117819
0.117041
0.116151
0.115162
0.114082
0.112922
0.111691
0.110397
0.10905
0.107656
0.106223
0.104758
0.103266
0.101754
0.100226
0.0986886
0.0971452
0.0956006
0.0940593
0.0925252
0.0910024
0.0894948
0.0880062
0.0865404
0.0851008
0.0836909
0.0823141
0.0809736
0.0796722
0.0784127
0.0771976
0.076029
0.0749087
0.0738382
0.0728186
0.0718507
0.0709347
0.0700708
0.0692584
0.0684969
0.0677853
0.0671222
0.066506
0.065935
0.0654071
0.0649202
0.0644722
0.0640607
0.0636834
0.063338
0.0630223
0.0627339
0.0624706
0.0622304
0.0620112
0.0618112
0.0616289
0.0614628
0.0613112
0.0611727
0.061046
0.0609299
0.0608234
0.0607253
0.0606348
0.0605511
0.0604735
0.0604013
0.0603339
0.0602707
0.0602114
0.0601554
0.0601024
0.0600521
0.0600041
0.0599582
0.059914
0.0598715
0.0598303
0.0597904
0.0597515
0.0597135
0.0596763
0.0596398
0.0596038
0.0595683
0.0595331
0.0594982
0.0594636
0.0594291
0.0593947
0.0593604
0.059326
0.0592916
0.0592571
0.0592225
0.0591877
0.0591527
0.0591174
0.0590818
0.0590458
0.0590095
0.0589727
0.0589353
0.0588974
0.0588587
0.0588192
0.0587787
0.058737
0.0586937
0.0586486
0.0586011
0.0585505
0.058496
0.0584363
0.0583696
0.0582935
0.0582048
0.0580986
0.0579699
0.0578149
0.057647
0.0155438
0.0298176
0.0368544
0.0415894
0.0452666
0.0483378
0.0510228
0.0534447
0.0556781
0.0577701
0.0597511
0.0616409
0.063453
0.0651967
0.0668789
0.0685051
0.0700803
0.0716091
0.0730963
0.0745467
0.0759659
0.0773596
0.0787339
0.0800957
0.0814519
0.0828099
0.084177
0.0855605
0.0869674
0.088404
0.0898753
0.0913854
0.0929384
0.0945386
0.0961872
0.0978821
0.0996183
0.101387
0.103177
0.104975
0.106763
0.108523
0.110235
0.111879
0.113435
0.114883
0.116206
0.117387
0.118415
0.11928
0.119973
0.120492
0.120835
0.121002
0.121001
0.120839
0.120525
0.120068
0.119479
0.118768
0.117945
0.117022
0.116008
0.114914
0.113747
0.112518
0.111234
0.109903
0.108531
0.107126
0.105692
0.104236
0.102763
0.101277
0.0997823
0.098284
0.0967857
0.0952915
0.0938051
0.0923305
0.0908713
0.0894312
0.0880138
0.0866226
0.0852611
0.0839326
0.0826401
0.0813867
0.080175
0.0790074
0.077886
0.0768126
0.0757884
0.0748146
0.0738918
0.0730201
0.0721995
0.0714294
0.0707089
0.070037
0.0694121
0.0688326
0.0682966
0.067802
0.0673468
0.0669285
0.066545
0.0661939
0.0658729
0.0655798
0.0653123
0.0650683
0.0648458
0.0646428
0.0644578
0.0642891
0.0641352
0.0639947
0.0638661
0.0637482
0.0636401
0.0635406
0.0634488
0.0633639
0.0632851
0.0632118
0.0631434
0.0630794
0.0630192
0.0629624
0.0629086
0.0628575
0.0628087
0.0627621
0.0627172
0.062674
0.0626321
0.0625915
0.0625519
0.0625133
0.0624754
0.0624382
0.0624015
0.0623653
0.0623295
0.0622939
0.0622586
0.0622234
0.0621883
0.0621533
0.0621182
0.0620831
0.0620479
0.0620125
0.0619769
0.0619411
0.0619051
0.0618687
0.061832
0.0617949
0.0617573
0.0617192
0.0616804
0.061641
0.0616007
0.0615594
0.0615169
0.061473
0.0614272
0.061379
0.061328
0.0612731
0.0612133
0.0611469
0.0610718
0.0609851
0.060883
0.0607615
0.0606187
0.0604677
0.0157947
0.0301478
0.0373013
0.0421309
0.0458909
0.0490341
0.0517788
0.0542473
0.0565143
0.0586282
0.0606208
0.0625138
0.0643221
0.0660564
0.0677247
0.0693329
0.0708864
0.0723897
0.0738474
0.0752641
0.0766448
0.0779946
0.0793195
0.0806258
0.0819206
0.0832112
0.0845055
0.0858117
0.0871378
0.0884914
0.0898797
0.0913084
0.0927841
0.0943129
0.0958981
0.0975394
0.0992331
0.100972
0.102746
0.10454
0.106338
0.10812
0.109866
0.111552
0.113158
0.114663
0.116047
0.117293
0.118388
0.119322
0.120083
0.12067
0.121081
0.121322
0.121396
0.12131
0.121074
0.120696
0.120186
0.119555
0.118813
0.117971
0.117039
0.116025
0.11494
0.113791
0.112588
0.111336
0.110043
0.108715
0.107358
0.105976
0.104575
0.103158
0.101731
0.100296
0.0988583
0.0974212
0.0959883
0.0945633
0.0931498
0.0917514
0.0903717
0.0890143
0.0876827
0.0863803
0.0851104
0.083876
0.0826801
0.0815253
0.080414
0.0793482
0.0783295
0.0773593
0.0764384
0.0755674
0.0747462
0.0739747
0.0732522
0.0725777
0.07195
0.0713674
0.0708283
0.0703306
0.0698723
0.0694513
0.0690651
0.0687116
0.0683885
0.0680935
0.0678243
0.067579
0.0673553
0.0671513
0.0669654
0.0667959
0.0666414
0.0665002
0.0663711
0.0662529
0.0661443
0.0660445
0.0659524
0.0658673
0.0657883
0.0657149
0.0656463
0.0655821
0.0655218
0.0654648
0.0654109
0.0653597
0.0653108
0.065264
0.065219
0.0651756
0.0651336
0.0650929
0.0650531
0.0650143
0.0649763
0.0649389
0.064902
0.0648656
0.0648296
0.0647938
0.0647582
0.0647228
0.0646875
0.0646522
0.0646169
0.0645816
0.0645461
0.0645104
0.0644746
0.0644386
0.0644022
0.0643656
0.0643286
0.0642912
0.0642533
0.0642149
0.0641759
0.0641361
0.0640956
0.064054
0.0640113
0.0639672
0.0639213
0.0638731
0.0638221
0.0637675
0.0637083
0.0636429
0.0635695
0.0634857
0.0633882
0.0632741
0.0631429
0.0630068
0.0158723
0.0301941
0.0374114
0.0423014
0.0461182
0.049314
0.0521047
0.054611
0.0569071
0.0590412
0.0610459
0.0629438
0.0647508
0.0664783
0.0681349
0.0697272
0.0712606
0.0727396
0.0741684
0.0755512
0.0768925
0.0781968
0.0794695
0.0807166
0.0819448
0.0831615
0.0843748
0.0855934
0.0868266
0.0880835
0.0893729
0.090703
0.0920827
0.0935203
0.0950209
0.0965864
0.0982148
0.0999005
0.101634
0.103402
0.105187
0.10697
0.108729
0.110438
0.112077
0.113622
0.115058
0.116356
0.117505
0.118496
0.119322
0.119978
0.120464
0.120782
0.120938
0.120937
0.120787
0.120497
0.120077
0.119538
0.118888
0.118139
0.1173
0.116381
0.11539
0.114336
0.113226
0.112068
0.110868
0.109632
0.108364
0.107071
0.105755
0.104423
0.103076
0.10172
0.100357
0.0989906
0.0976251
0.0962635
0.0949093
0.093566
0.0922371
0.0909263
0.0896369
0.0883727
0.0871368
0.0859327
0.0847634
0.0836318
0.0825404
0.0814916
0.0804874
0.0795292
0.0786182
0.0777552
0.0769405
0.0761742
0.0754557
0.0747844
0.0741591
0.0735784
0.0730407
0.0725442
0.0720868
0.0716665
0.071281
0.0709282
0.0706058
0.0703114
0.070043
0.0697984
0.0695756
0.0693725
0.0691875
0.0690189
0.0688651
0.0687247
0.0685964
0.0684789
0.0683711
0.068272
0.0681806
0.0680961
0.0680178
0.067945
0.0678771
0.0678134
0.0677536
0.0676972
0.0676438
0.067593
0.0675446
0.0674982
0.0674536
0.0674106
0.0673689
0.0673285
0.0672891
0.0672506
0.0672128
0.0671757
0.0671391
0.0671029
0.0670671
0.0670316
0.0669962
0.066961
0.0669259
0.0668908
0.0668557
0.0668205
0.0667852
0.0667497
0.066714
0.0666781
0.0666419
0.0666054
0.0665686
0.0665313
0.0664936
0.0664554
0.0664165
0.066377
0.0663366
0.0662953
0.0662529
0.0662091
0.0661635
0.0661159
0.0660656
0.0660118
0.0659537
0.06589
0.065819
0.0657386
0.0656462
0.0655398
0.0654195
0.0652968
0.0157891
0.0299955
0.0372402
0.0421693
0.0460279
0.0492651
0.0520943
0.0546346
0.0569589
0.059115
0.0611353
0.0630427
0.0648534
0.0665793
0.0682294
0.0698105
0.0713279
0.0727862
0.0741891
0.0755404
0.0768439
0.0781038
0.0793247
0.080512
0.081672
0.0828118
0.0839398
0.0850651
0.0861976
0.087348
0.0885269
0.0897447
0.0910133
0.0923425
0.0937395
0.0952081
0.0967479
0.0983551
0.100022
0.101735
0.10348
0.105238
0.106988
0.108696
0.110341
0.111903
0.113361
0.114695
0.115891
0.116938
0.117827
0.118553
0.119117
0.119517
0.119759
0.119849
0.119792
0.119599
0.119277
0.118838
0.11829
0.117644
0.116909
0.116094
0.115207
0.114258
0.113253
0.112199
0.111102
0.109967
0.1088
0.107606
0.106388
0.105149
0.103895
0.102627
0.10135
0.100066
0.0987791
0.0974919
0.0962079
0.0949305
0.0936631
0.0924094
0.0911727
0.0899567
0.0887649
0.0876006
0.0864672
0.0853676
0.0843049
0.0832813
0.0822993
0.0813606
0.0804666
0.0796183
0.0788165
0.0780612
0.0773524
0.0766893
0.0760713
0.0754969
0.0749649
0.0744733
0.0740205
0.0736042
0.0732226
0.0728732
0.072554
0.0722628
0.0719973
0.0717555
0.0715354
0.0713349
0.0711524
0.0709861
0.0708345
0.0706962
0.0705698
0.0704542
0.0703481
0.0702507
0.0701609
0.0700779
0.070001
0.0699296
0.0698629
0.0698005
0.0697419
0.0696865
0.0696342
0.0695844
0.0695369
0.0694915
0.0694477
0.0694056
0.0693647
0.0693251
0.0692864
0.0692486
0.0692115
0.0691751
0.0691392
0.0691036
0.0690685
0.0690335
0.0689988
0.0689642
0.0689296
0.0688951
0.0688606
0.0688259
0.0687912
0.0687563
0.0687211
0.0686858
0.0686502
0.0686142
0.0685779
0.0685412
0.0685041
0.0684664
0.0684281
0.0683892
0.0683495
0.0683089
0.0682671
0.0682241
0.0681794
0.0681327
0.0680835
0.0680312
0.0679748
0.0679133
0.0678452
0.0677687
0.0676819
0.0675831
0.0674734
0.0673629
0.0155524
0.0295837
0.036835
0.0417958
0.0456925
0.0489694
0.0518374
0.0544137
0.0567701
0.0589536
0.0609961
0.0629203
0.0647426
0.0664748
0.068126
0.0697031
0.0712114
0.0726551
0.0740379
0.075363
0.0766338
0.0778537
0.0790268
0.0801579
0.0812527
0.082318
0.0833619
0.0843936
0.0854238
0.0864639
0.0875264
0.088624
0.0897708
0.090978
0.0922557
0.0936083
0.0950362
0.096538
0.0981076
0.0997341
0.101403
0.103095
0.104788
0.10646
0.108084
0.109641
0.111107
0.112465
0.113697
0.114792
0.11574
0.116535
0.117175
0.117659
0.117991
0.118175
0.118217
0.118126
0.117909
0.117576
0.117137
0.1166
0.115975
0.115272
0.114497
0.113659
0.112765
0.111821
0.110834
0.109809
0.10875
0.107661
0.106547
0.105411
0.104256
0.103085
0.101902
0.100708
0.0995073
0.0983028
0.0970974
0.0958944
0.094697
0.0935088
0.0923332
0.0911738
0.0900342
0.0889178
0.0878281
0.0867683
0.0857415
0.0847503
0.0837974
0.0828847
0.0820139
0.0811863
0.0804029
0.079664
0.0789697
0.0783197
0.0777133
0.0771494
0.0766268
0.0761438
0.0756987
0.0752896
0.0749145
0.0745712
0.0742577
0.0739717
0.0737113
0.0734742
0.0732585
0.0730622
0.0728836
0.0727209
0.0725728
0.0724377
0.0723143
0.0722015
0.0720982
0.0720033
0.0719159
0.0718352
0.0717605
0.071691
0.0716263
0.0715657
0.0715088
0.0714551
0.0714043
0.071356
0.07131
0.0712659
0.0712235
0.0711826
0.071143
0.0711045
0.071067
0.0710303
0.0709943
0.0709589
0.070924
0.0708894
0.0708552
0.0708213
0.0707875
0.0707538
0.0707202
0.0706866
0.070653
0.0706193
0.0705854
0.0705514
0.0705172
0.0704828
0.070448
0.070413
0.0703776
0.0703418
0.0703056
0.0702689
0.0702316
0.0701936
0.0701549
0.0701154
0.0700747
0.0700329
0.0699895
0.0699442
0.0698966
0.0698461
0.0697919
0.069733
0.0696683
0.0695962
0.0695151
0.0694241
0.0693243
0.0692251
0.0151565
0.0289758
0.0362351
0.0412364
0.0451803
0.0485053
0.0514201
0.0540407
0.0564378
0.0586577
0.0607319
0.0626829
0.0645266
0.0662751
0.0679372
0.0695199
0.0710283
0.0724665
0.073838
0.0751457
0.0763924
0.0775811
0.0787152
0.079799
0.0808374
0.0818367
0.0828046
0.0837501
0.0846841
0.0856185
0.0865668
0.087544
0.0885641
0.0896387
0.0907779
0.0919887
0.0932753
0.0946378
0.0960726
0.0975718
0.099123
0.10071
0.102315
0.103915
0.105488
0.107012
0.108465
0.109827
0.111081
0.112214
0.113213
0.114071
0.114784
0.115351
0.115772
0.116051
0.116194
0.116206
0.116097
0.115873
0.115545
0.115121
0.11461
0.11402
0.113359
0.112635
0.111855
0.111025
0.110151
0.109238
0.10829
0.107311
0.106305
0.105275
0.104224
0.103154
0.102069
0.100971
0.0998622
0.0987461
0.0976253
0.0965028
0.0953818
0.0942655
0.0931575
0.0920613
0.0909804
0.0899185
0.0888789
0.0878653
0.0868806
0.085928
0.0850099
0.0841289
0.0832868
0.0824852
0.0817251
0.0810073
0.0803321
0.0796993
0.0791085
0.0785587
0.0780489
0.0775777
0.0771434
0.0767442
0.0763782
0.0760434
0.0757377
0.0754591
0.0752054
0.0749747
0.074765
0.0745744
0.074401
0.0742432
0.0740997
0.0739689
0.0738495
0.0737405
0.0736407
0.0735491
0.0734649
0.0733871
0.0733152
0.0732484
0.0731861
0.0731279
0.0730733
0.0730217
0.072973
0.0729266
0.0728824
0.0728401
0.0727994
0.0727602
0.0727221
0.0726852
0.0726492
0.0726139
0.0725793
0.0725453
0.0725118
0.0724786
0.0724457
0.072413
0.0723805
0.0723481
0.0723157
0.0722834
0.072251
0.0722185
0.0721859
0.0721531
0.0721201
0.0720868
0.0720533
0.0720195
0.0719854
0.0719509
0.0719159
0.0718804
0.0718444
0.0718078
0.0717705
0.0717323
0.0716931
0.0716528