/*--------------------------------*- C++ -*----------------------------------*\
  =========                 |
  \\      /  F ield         | OpenFOAM: The Open Source CFD Toolbox
   \\    /   O peration     | Website:  https://openfoam.org
    \\  /    A nd           | Version:  6
     \\/     M anipulation  |
\*---------------------------------------------------------------------------*/
FoamFile
{
    version     2.0;
    format      ascii;
    class       volScalarField;
    location    "0.09";
    object      nut;
}
// * * * * * * * * * * * * * * * * * * * * * * * * * * * * * * * * * * * * * //

dimensions      [0 2 -1 0 0 0 0];

internalField   nonuniform List<scalar> 
12225
(
1.77723e-05
1.42682e-05
1.23507e-05
1.11625e-05
1.03604e-05
9.78974e-06
9.36368e-06
9.02982e-06
8.75725e-06
8.52775e-06
8.33024e-06
8.1576e-06
8.00503e-06
7.86917e-06
7.7476e-06
7.63869e-06
7.54371e-06
7.4708e-06
0.000144881
0.000101912
8.78936e-05
8.05341e-05
7.60805e-05
7.31035e-05
7.08056e-05
6.88057e-05
6.69772e-05
6.52934e-05
6.37466e-05
6.23294e-05
6.10343e-05
5.98542e-05
5.87885e-05
5.78229e-05
5.69773e-05
5.63078e-05
0.000323319
0.000223569
0.000189794
0.000172558
0.000162037
0.000154952
0.000149704
0.000145453
0.000141798
0.000138555
0.000135636
0.000132988
0.000130578
0.000128386
0.000126403
0.000124624
0.00012307
0.000121869
0.000493963
0.000355234
0.000299434
0.000269637
0.000251108
0.00023852
0.00022932
0.000222136
0.000216224
0.000211182
0.000206777
0.000202868
0.000199368
0.000196218
0.000193388
0.000190861
0.000188652
0.00018688
0.000624469
0.00047868
0.000407363
0.000366219
0.000339652
0.000321205
0.00030763
0.000297116
0.000288623
0.000281532
0.000275463
0.000270176
0.000265511
0.000261362
0.000257664
0.000254378
0.000251503
0.000249132
0.000713111
0.000583365
0.000506536
0.000457935
0.000424932
0.000401286
0.000383569
0.000369759
0.000358625
0.000349397
0.000341577
0.000334833
0.000328941
0.000323745
0.000319142
0.000315068
0.000311502
0.00030851
0.000769323
0.000665594
0.000592326
0.000541191
0.000504372
0.000476964
0.000455905
0.000439242
0.000425709
0.000414469
0.000404957
0.000396781
0.000389667
0.000383421
0.000377907
0.000373038
0.000368773
0.00036515
0.000803471
0.000726322
0.000662573
0.000613462
0.000575779
0.000546486
0.000523289
0.000504551
0.000489125
0.000476206
0.000465222
0.000455762
0.000447528
0.000440301
0.000433925
0.000428294
0.000423354
0.000419116
0.000823638
0.000768944
0.000717253
0.00067347
0.000637597
0.000608375
0.000584433
0.00056461
0.000547995
0.000533902
0.000521813
0.000511337
0.00050218
0.000494121
0.000486996
0.000480693
0.000475142
0.00047034
0.000835327
0.00079761
0.000757873
0.00072116
0.000689064
0.000661618
0.000638294
0.000618438
0.000601442
0.000586792
0.000574069
0.000562942
0.000553147
0.000544479
0.000536782
0.000529946
0.000523896
0.000518619
0.000842019
0.000816212
0.000786778
0.000757467
0.000730228
0.000705787
0.000684214
0.000665295
0.000648717
0.00063416
0.00062133
0.000609976
0.000599886
0.000590889
0.00058285
0.000575664
0.000569268
0.000563642
0.00084551
0.000826951
0.000804892
0.00078174
0.000759164
0.000738063
0.000718801
0.000701437
0.000685876
0.000671958
0.000659504
0.000648344
0.000638324
0.000629311
0.000621196
0.000613892
0.000607353
0.000601563
0.000847621
0.000833954
0.000817509
0.000799599
0.000781411
0.000763763
0.000747122
0.0007317
0.000717556
0.000704655
0.000692922
0.000682262
0.000672577
0.00066378
0.000655785
0.000648534
0.000641997
0.000636159
0.000848983
0.000838786
0.000826795
0.000813519
0.000799613
0.000785652
0.000772053
0.000759077
0.000746864
0.000735472
0.000724908
0.000715148
0.000706152
0.000697868
0.000690253
0.000683279
0.000676931
0.000671194
0.000849784
0.000841799
0.000832951
0.000823297
0.000813075
0.000802579
0.000792077
0.000781779
0.000771832
0.000762332
0.00075333
0.000744849
0.000736888
0.000729441
0.000722501
0.000716064
0.000710132
0.000704687
0.00085021
0.000843475
0.000836566
0.000829368
0.000821881
0.000814182
0.000806381
0.000798587
0.0007909
0.000783395
0.000776127
0.000769136
0.000762447
0.00075608
0.00075005
0.000744372
0.000739059
0.00073409
0.00085041
0.000844286
0.000838397
0.000832597
0.000826797
0.000820961
0.00081509
0.000809204
0.000803336
0.000797524
0.0007918
0.000786197
0.000780741
0.000775457
0.000770369
0.000765502
0.000760871
0.000756451
0.000850482
0.000844585
0.000839093
0.000833871
0.000828814
0.000823847
0.000818927
0.000814031
0.000809153
0.000804299
0.000799482
0.000794719
0.000790029
0.000785433
0.000780956
0.000776621
0.000772444
0.00076839
0.000850461
0.000844497
0.000838892
0.000833505
0.000828239
0.00082303
0.000817844
0.00081267
0.000807512
0.000802382
0.000797297
0.000792277
0.000787343
0.000782514
0.000777815
0.000773269
0.000768889
0.000764644
0.000850263
0.000843693
0.000837068
0.000830264
0.000823255
0.000816081
0.000808812
0.000801528
0.000794304
0.000787201
0.000780269
0.000773542
0.000767048
0.000760807
0.000754834
0.000749147
0.000743752
0.000738615
0.000849707
0.000841529
0.000832438
0.000822531
0.000812069
0.000801347
0.000790629
0.000780115
0.000769946
0.000760207
0.000750946
0.000742181
0.000733914
0.000726136
0.000718836
0.000712005
0.000705631
0.000699672
0.000848163
0.000835941
0.0008214
0.000805487
0.000789126
0.000773009
0.00075757
0.000743043
0.000729524
0.000717023
0.000705502
0.000694896
0.000685133
0.000676143
0.000667862
0.000660239
0.000653232
0.000646785
0.000844085
0.000822736
0.000797908
0.000772447
0.000748075
0.000725608
0.000705308
0.00068714
0.000670936
0.00065648
0.000643553
0.000631955
0.000621507
0.000612059
0.000603488
0.0005957
0.000588624
0.000582191
0.000833787
0.000794228
0.00075333
0.000715953
0.000683449
0.000655714
0.000632157
0.000612091
0.000594889
0.000580021
0.000567061
0.000555668
0.000545572
0.000536561
0.000528469
0.000521176
0.000514597
0.000508664
0.00080907
0.000738665
0.00067847
0.000630794
0.000593404
0.000563839
0.000540127
0.000520784
0.000504732
0.000491194
0.000479605
0.00046955
0.000460723
0.000452894
0.000445892
0.000439595
0.000433926
0.00042883
0.000753678
0.000642653
0.000568171
0.000517491
0.000481422
0.000454751
0.000434359
0.000418274
0.000405222
0.000394369
0.000385151
0.000377178
0.000370178
0.000363956
0.000358372
0.000353327
0.000348764
0.000344658
0.00064146
0.000499119
0.000426727
0.00038388
0.0003557
0.000335938
0.000321357
0.000310084
0.000301004
0.000293438
0.00028696
0.000281295
0.000276259
0.000271724
0.000267605
0.000263841
0.000260402
0.000257288
0.000448549
0.000320165
0.000270243
0.000243401
0.000226616
0.000215295
0.000207119
0.000200781
0.000195564
0.000191081
0.000187117
0.000183545
0.000180287
0.00017729
0.000174521
0.000171953
0.000169577
0.000167406
0.000203094
0.000143542
0.000122954
0.000111674
0.000104762
0.000100297
9.7091e-05
9.44807e-05
9.21713e-05
9.0054e-05
8.80896e-05
8.6261e-05
8.45579e-05
8.2972e-05
8.14952e-05
8.01196e-05
7.88392e-05
7.76552e-05
2.40294e-05
1.96337e-05
1.71025e-05
1.54658e-05
1.43224e-05
1.34888e-05
1.28595e-05
1.23671e-05
1.19682e-05
1.16353e-05
1.13507e-05
1.11028e-05
1.08839e-05
1.06885e-05
1.05124e-05
1.03527e-05
1.02071e-05
1.00743e-05
2.67446e-06
7.56847e-06
8.64052e-06
9.65517e-06
1.05849e-05
1.12806e-05
1.18809e-05
1.24232e-05
1.29265e-05
1.34034e-05
1.38619e-05
1.43065e-05
1.47392e-05
1.51609e-05
1.55714e-05
1.59704e-05
1.63576e-05
1.67327e-05
1.70956e-05
1.74462e-05
1.77845e-05
1.81109e-05
1.84255e-05
1.87288e-05
1.90212e-05
1.93031e-05
1.95752e-05
1.98381e-05
2.00926e-05
2.03397e-05
2.05804e-05
2.08153e-05
2.10702e-05
2.1312e-05
2.15412e-05
2.17585e-05
2.19638e-05
2.2157e-05
2.23374e-05
2.25046e-05
2.26579e-05
2.27966e-05
2.29201e-05
2.30277e-05
2.31188e-05
2.31929e-05
2.32495e-05
2.32883e-05
2.33089e-05
2.33112e-05
2.32953e-05
2.32611e-05
2.32088e-05
2.31387e-05
2.30511e-05
2.29461e-05
2.28237e-05
2.26832e-05
2.2523e-05
2.23429e-05
2.21562e-05
2.20071e-05
2.18872e-05
2.17671e-05
2.16408e-05
2.1507e-05
2.13657e-05
2.12174e-05
2.10625e-05
2.09015e-05
2.07349e-05
2.05631e-05
2.03868e-05
2.02064e-05
2.00224e-05
1.98353e-05
1.96455e-05
1.94537e-05
1.92603e-05
1.90658e-05
1.88709e-05
1.86759e-05
1.84816e-05
1.82884e-05
1.8097e-05
1.79079e-05
1.77217e-05
1.75389e-05
1.73602e-05
1.71859e-05
1.70166e-05
1.68527e-05
1.66945e-05
1.65424e-05
1.63966e-05
1.62574e-05
1.61247e-05
1.59988e-05
1.58795e-05
1.57668e-05
1.56605e-05
1.55606e-05
1.54668e-05
1.53789e-05
1.52965e-05
1.52194e-05
1.51473e-05
1.50798e-05
1.50162e-05
1.49565e-05
1.49013e-05
1.485e-05
1.48021e-05
1.47571e-05
1.47147e-05
1.46748e-05
1.46369e-05
1.46009e-05
1.45665e-05
1.45336e-05
1.45021e-05
1.44716e-05
1.44422e-05
1.44137e-05
1.4386e-05
1.43589e-05
1.43324e-05
1.43065e-05
1.4281e-05
1.42559e-05
1.42312e-05
1.42067e-05
1.41824e-05
1.41584e-05
1.41345e-05
1.41107e-05
1.4087e-05
1.40634e-05
1.40398e-05
1.40162e-05
1.39927e-05
1.39691e-05
1.39454e-05
1.39218e-05
1.3898e-05
1.38742e-05
1.38503e-05
1.38262e-05
1.38021e-05
1.37778e-05
1.37535e-05
1.37289e-05
1.37042e-05
1.36794e-05
1.36544e-05
1.36292e-05
1.36038e-05
1.35782e-05
1.35524e-05
1.35264e-05
1.35001e-05
1.34736e-05
1.34468e-05
1.34197e-05
1.33923e-05
1.33645e-05
1.33362e-05
1.33074e-05
1.32779e-05
1.32477e-05
1.32165e-05
1.31839e-05
1.31496e-05
1.31129e-05
1.30727e-05
1.3027e-05
1.29724e-05
1.29017e-05
1.28012e-05
1.26437e-05
4.24086e-06
3.0966e-05
4.74907e-05
5.57945e-05
6.07605e-05
6.4474e-05
6.7645e-05
7.05432e-05
7.33095e-05
7.60427e-05
7.88191e-05
8.16948e-05
8.47076e-05
8.78793e-05
9.12186e-05
9.47247e-05
9.83895e-05
0.000102201
0.000106142
0.000110198
0.00011435
0.000118581
0.000122873
0.000127208
0.000131567
0.00013593
0.000140271
0.000144562
0.000148769
0.000152848
0.000156747
0.000160415
0.00016374
0.000166983
0.000170194
0.000173377
0.000176526
0.00017963
0.000182675
0.000185649
0.000188536
0.000191321
0.000193989
0.000196523
0.000198911
0.000201138
0.00020319
0.000205058
0.00020673
0.0002082
0.000209459
0.000210503
0.000211328
0.000211929
0.000212302
0.000212439
0.000212329
0.000211951
0.000211275
0.000210269
0.000208931
0.000207352
0.000205608
0.000203729
0.000201729
0.000199623
0.000197422
0.000195135
0.000192773
0.000190346
0.000187861
0.000185327
0.000182752
0.000180145
0.000177512
0.000174861
0.000172198
0.000169532
0.000166869
0.000164217
0.000161581
0.00015897
0.000156391
0.000153849
0.000151351
0.000148905
0.000146517
0.000144192
0.000141935
0.000139753
0.000137649
0.000135627
0.000133691
0.000131842
0.000130084
0.000128416
0.000126839
0.000125353
0.000123956
0.000122647
0.000121423
0.000120282
0.00011922
0.000118233
0.000117319
0.000116472
0.000115689
0.000114965
0.00011429
0.000113639
0.000113019
0.000112451
0.00011193
0.000111453
0.000111015
0.000110612
0.00011024
0.000109894
0.000109574
0.000109274
0.000108993
0.000108729
0.00010848
0.000108244
0.000108019
0.000107804
0.000107598
0.000107399
0.000107207
0.000107021
0.00010684
0.000106662
0.000106488
0.000106317
0.000106149
0.000105982
0.000105817
0.000105654
0.000105491
0.000105328
0.000105166
0.000105004
0.000104842
0.00010468
0.000104517
0.000104354
0.00010419
0.000104025
0.00010386
0.000103693
0.000103525
0.000103356
0.000103185
0.000103013
0.000102839
0.000102664
0.000102487
0.000102308
0.000102128
0.000101945
0.000101759
0.000101571
0.000101379
0.000101184
0.000100985
0.000100781
0.000100571
0.000100353
0.000100125
9.98849e-05
9.96275e-05
9.9347e-05
9.90334e-05
9.86709e-05
9.82316e-05
9.76652e-05
9.68617e-05
9.56263e-05
9.33628e-05
8.98444e-05
5.33725e-06
4.35428e-05
7.34268e-05
9.17015e-05
0.000103454
0.00011198
0.000119029
0.000125461
0.000131697
0.000137949
0.000144336
0.000150917
0.00015772
0.000164745
0.000171979
0.000179393
0.000186955
0.000194626
0.000202372
0.000210158
0.000217953
0.000225729
0.000233464
0.000241136
0.000248725
0.000256212
0.000263579
0.000270806
0.00027787
0.000284748
0.000291418
0.000297862
0.000304102
0.000310249
0.00031634
0.000322377
0.00032835
0.000334241
0.000340027
0.000345682
0.000351181
0.000356494
0.000361593
0.000366449
0.000371034
0.000375322
0.000379287
0.000382907
0.000386161
0.000389033
0.000391509
0.000393575
0.000395224
0.000396448
0.000397241
0.000397596
0.000397508
0.000396969
0.000395973
0.00039452
0.000392631
0.000390363
0.000387773
0.0003849
0.000381774
0.000378416
0.000374848
0.000371088
0.000367153
0.000363062
0.000358829
0.000354471
0.000350003
0.000345439
0.000340794
0.000336083
0.000331318
0.000326514
0.000321686
0.000316847
0.000312012
0.000307195
0.00030241
0.000297671
0.000292993
0.000288389
0.000283873
0.000279457
0.000275154
0.000270975
0.00026693
0.000263029
0.00025928
0.000255688
0.000252261
0.000249
0.000245908
0.000242986
0.000240233
0.000237648
0.000235226
0.000232964
0.000230856
0.000228896
0.000227078
0.000225394
0.000223836
0.000222396
0.000221063
0.000219821
0.000218654
0.000217563
0.000216559
0.000215635
0.000214785
0.000214001
0.000213279
0.00021261
0.00021199
0.000211414
0.000210877
0.000210374
0.000209903
0.000209458
0.000209038
0.00020864
0.00020826
0.000207896
0.000207547
0.000207211
0.000206886
0.00020657
0.000206262
0.000205962
0.000205667
0.000205377
0.000205091
0.000204809
0.000204529
0.000204251
0.000203975
0.0002037
0.000203425
0.00020315
0.000202875
0.0002026
0.000202324
0.000202047
0.000201768
0.000201488
0.000201206
0.000200922
0.000200636
0.000200348
0.000200057
0.000199763
0.000199467
0.000199167
0.000198863
0.000198556
0.000198244
0.000197927
0.000197605
0.000197276
0.00019694
0.000196595
0.000196238
0.000195868
0.00019548
0.000195069
0.000194628
0.000194146
0.000193607
0.000192984
0.000192234
0.000191281
0.000189973
0.000188034
0.000184789
0.000179688
6.00561e-06
5.16544e-05
9.20916e-05
0.000119485
0.000138414
0.000152485
0.000163977
0.000174214
0.000183924
0.000193488
0.000203097
0.000212836
0.000222727
0.00023276
0.000242905
0.000253121
0.000263364
0.000273591
0.000283762
0.000293845
0.000303811
0.000313638
0.000323312
0.00033282
0.000342156
0.000351313
0.000360289
0.000369082
0.000377688
0.000386106
0.000394333
0.000402364
0.000410241
0.000418028
0.000425752
0.000433415
0.000441008
0.000448511
0.0004559
0.000463146
0.000470217
0.000477079
0.000483696
0.000490032
0.000496051
0.000501718
0.000506998
0.000511863
0.000516282
0.000520233
0.000523693
0.000526646
0.000529077
0.000530976
0.000532337
0.000533155
0.000533429
0.000533159
0.000532352
0.000531015
0.000529172
0.000526867
0.000524144
0.000521036
0.000517575
0.000513786
0.000509694
0.000505322
0.000500692
0.000495824
0.000490739
0.000485457
0.000479998
0.00047438
0.000468623
0.000462744
0.000456764
0.000450699
0.00044457
0.000438396
0.000432196
0.000425989
0.000419795
0.000413634
0.000407525
0.000401489
0.000395544
0.000389709
0.000384001
0.000378437
0.000373033
0.000367802
0.000362758
0.000357911
0.00035327
0.000348841
0.00034463
0.000340639
0.00033687
0.00033332
0.000329988
0.000326869
0.000323957
0.000321245
0.000318725
0.000316389
0.000314225
0.000312224
0.000310374
0.000308661
0.000307069
0.000305584
0.000304213
0.000302949
0.000301785
0.000300711
0.00029972
0.000298805
0.000297956
0.000297169
0.000296436
0.000295752
0.000295112
0.000294511
0.000293944
0.000293408
0.000292899
0.000292415
0.000291951
0.000291506
0.000291077
0.000290663
0.00029026
0.000289869
0.000289486
0.000289111
0.000288743
0.000288379
0.000288021
0.000287666
0.000287313
0.000286963
0.000286614
0.000286266
0.000285918
0.00028557
0.000285221
0.000284871
0.00028452
0.000284168
0.000283813
0.000283456
0.000283097
0.000282734
0.000282369
0.000282
0.000281628
0.000281251
0.00028087
0.000280484
0.000280093
0.000279695
0.00027929
0.000278877
0.000278455
0.00027802
0.000277572
0.000277106
0.000276618
0.000276101
0.000275546
0.000274941
0.000274265
0.000273488
0.000272561
0.000271402
0.000269857
0.000267659
0.000264278
0.000259368
6.43784e-06
5.70016e-05
0.00010562
0.000140898
0.000166608
0.000186267
0.000202324
0.000216353
0.000229315
0.000241761
0.000253986
0.000266135
0.000278261
0.000290367
0.000302431
0.000314416
0.000326283
0.000337993
0.000349514
0.00036082
0.000371891
0.000382715
0.000393289
0.000403612
0.00041369
0.000423532
0.000433148
0.000442551
0.000451753
0.000460765
0.000469594
0.000478245
0.000486761
0.000495199
0.000503587
0.000511935
0.000520236
0.000528477
0.000536636
0.000544686
0.000552594
0.000560326
0.000567841
0.0005751
0.00058206
0.000588681
0.000594923
0.000600746
0.000606116
0.000611
0.000615369
0.000619199
0.000622471
0.00062517
0.000627284
0.000628807
0.000629737
0.000630075
0.000629828
0.000628993
0.000627607
0.000625704
0.000623318
0.000620478
0.000617212
0.000613547
0.000609507
0.000605118
0.000600401
0.000595381
0.00059008
0.000584519
0.000578722
0.000572708
0.0005665
0.000560118
0.000553586
0.000546924
0.000540154
0.000533299
0.000526382
0.000519425
0.000512453
0.000505488
0.000498554
0.000491675
0.000484874
0.000478174
0.000471596
0.000465162
0.000458891
0.000452801
0.00044691
0.00044123
0.000435775
0.000430555
0.000425576
0.000420845
0.000416365
0.000412136
0.000408156
0.000404422
0.00040093
0.000397671
0.000394637
0.00039182
0.000389208
0.000386791
0.000384555
0.000382487
0.000380573
0.000378798
0.000377151
0.000375633
0.000374235
0.000372945
0.000371755
0.000370655
0.000369637
0.000368692
0.000367814
0.000366995
0.00036623
0.000365513
0.000364839
0.000364202
0.000363599
0.000363027
0.00036248
0.000361957
0.000361454
0.00036097
0.000360501
0.000360045
0.000359601
0.000359167
0.000358742
0.000358324
0.000357912
0.000357505
0.000357101
0.000356701
0.000356303
0.000355906
0.000355511
0.000355115
0.000354719
0.000354323
0.000353925
0.000353526
0.000353124
0.000352721
0.000352314
0.000351905
0.000351492
0.000351075
0.000350655
0.000350229
0.000349799
0.000349363
0.000348921
0.000348472
0.000348015
0.000347549
0.000347072
0.000346582
0.000346075
0.000345549
0.000344999
0.000344416
0.000343791
0.00034311
0.000342352
0.000341485
0.00034046
0.000339196
0.000337553
0.000335301
0.000332062
0.000327714
6.74117e-06
6.04477e-05
0.000115268
0.000157091
0.000188797
0.000213632
0.000234018
0.000251625
0.000267549
0.000282474
0.000296803
0.000310759
0.000324448
0.00033791
0.000351147
0.000364141
0.000376867
0.000389297
0.00040141
0.000413189
0.000424626
0.000435718
0.000446471
0.000456897
0.000467011
0.000476836
0.000486394
0.000495709
0.000504806
0.000513706
0.000522428
0.000530986
0.000539427
0.000547813
0.000556183
0.000564555
0.000572934
0.000581314
0.000589681
0.000598012
0.000606277
0.000614443
0.000622468
0.000630311
0.000637924
0.000645261
0.000652274
0.000658917
0.000665147
0.000670921
0.000676203
0.00068096
0.000685164
0.000688792
0.000691827
0.000694256
0.000696071
0.000697271
0.000697835
0.000697792
0.000697167
0.000695988
0.000694279
0.000692066
0.000689374
0.000686226
0.000682647
0.000678661
0.000674291
0.000669562
0.000664495
0.000659115
0.000653443
0.000647503
0.000641318
0.000634911
0.000628305
0.000621523
0.00061459
0.00060753
0.000600369
0.000593131
0.000585842
0.000578529
0.000571217
0.000563934
0.000556705
0.000549556
0.000542512
0.000535598
0.000528836
0.000522247
0.000515852
0.000509668
0.00050371
0.000497991
0.000492523
0.000487311
0.000482363
0.000477681
0.000473264
0.000469111
0.000465218
0.000461579
0.000458185
0.000455028
0.000452097
0.000449381
0.000446868
0.000444543
0.000442393
0.000440403
0.000438557
0.000436855
0.000435286
0.000433839
0.000432503
0.000431268
0.000430126
0.000429066
0.000428082
0.000427165
0.000426309
0.000425508
0.000424755
0.000424046
0.000423376
0.00042274
0.000422135
0.000421556
0.000421001
0.000420467
0.000419951
0.000419452
0.000418966
0.000418492
0.000418028
0.000417572
0.000417124
0.000416682
0.000416245
0.000415812
0.000415381
0.000414953
0.000414526
0.0004141
0.000413673
0.000413247
0.000412819
0.00041239
0.000411959
0.000411525
0.000411089
0.00041065
0.000410207
0.00040976
0.000409309
0.000408854
0.000408392
0.000407925
0.000407452
0.000406971
0.000406481
0.000405981
0.00040547
0.000404945
0.000404403
0.00040384
0.000403251
0.000402628
0.000401962
0.000401237
0.000400432
0.000399517
0.000398444
0.000397137
0.000395475
0.000393271
0.00039027
0.000386491
6.95516e-06
6.25552e-05
0.000121902
0.00016895
0.000205708
0.00023507
0.000259334
0.000280165
0.00029872
0.000315771
0.000331807
0.000347127
0.0003619
0.000376212
0.0003901
0.000403572
0.000416624
0.000429243
0.000441421
0.000453153
0.000464439
0.000475287
0.000485712
0.000495734
0.000505379
0.00051468
0.000523669
0.000532383
0.000540857
0.000549124
0.000557217
0.000565161
0.00057301
0.00058084
0.000588701
0.000596628
0.000604638
0.000612739
0.000620924
0.000629178
0.000637479
0.000645793
0.00065408
0.000662296
0.00067039
0.000678309
0.000685997
0.0006934
0.000700463
0.000707135
0.000713368
0.000719118
0.000724348
0.000729025
0.000733123
0.000736622
0.000739494
0.000741719
0.000743311
0.000744285
0.000744658
0.000744449
0.000743676
0.000742359
0.000740521
0.000738182
0.000735365
0.000732092
0.000728386
0.000724271
0.000719768
0.000714901
0.000709694
0.00070417
0.000698352
0.000692264
0.000685931
0.000679378
0.000672629
0.000665711
0.000658649
0.000651472
0.000644206
0.000636879
0.000629519
0.000622155
0.000614816
0.000607528
0.000600319
0.000593217
0.000586246
0.000579431
0.000572794
0.000566355
0.000560133
0.000554143
0.000548398
0.000542908
0.000537682
0.000532724
0.000528037
0.00052362
0.00051947
0.000515583
0.000511952
0.000508569
0.000505423
0.000502504
0.0004998
0.000497298
0.000494984
0.000492843
0.000490861
0.00048903
0.000487341
0.000485782
0.000484344
0.000483014
0.000481784
0.000480643
0.000479584
0.000478599
0.000477679
0.000476819
0.000476012
0.000475252
0.000474535
0.000473855
0.000473209
0.000472592
0.000472002
0.000471435
0.000470888
0.000470358
0.000469844
0.000469343
0.000468854
0.000468374
0.000467903
0.000467439
0.00046698
0.000466526
0.000466075
0.000465627
0.00046518
0.000464735
0.00046429
0.000463845
0.000463399
0.000462952
0.000462503
0.000462051
0.000461597
0.00046114
0.000460679
0.000460215
0.000459746
0.000459272
0.000458792
0.000458307
0.000457814
0.000457314
0.000456805
0.000456286
0.000455755
0.00045521
0.000454647
0.000454063
0.000453453
0.000452808
0.000452118
0.00045137
0.000450543
0.000449608
0.000448519
0.00044721
0.000445577
0.000443475
0.000440735
0.000437454
7.10192e-06
6.36823e-05
0.000126143
0.000177185
0.000218025
0.000251179
0.000278769
0.0003024
0.000323236
0.000342093
0.000359523
0.000375887
0.00039141
0.000406226
0.000420411
0.000434003
0.000447019
0.000459468
0.000471352
0.00048268
0.00049346
0.00050371
0.00051345
0.000522711
0.000531527
0.000539938
0.000547987
0.000555722
0.000563189
0.000570437
0.00057751
0.00058445
0.000591322
0.000598218
0.000605207
0.000612339
0.000619651
0.000627164
0.000634884
0.000642808
0.000650918
0.000659185
0.000667571
0.000676028
0.000684501
0.000692929
0.000701248
0.000709392
0.000717296
0.000724895
0.000732128
0.000738942
0.000745286
0.000751113
0.000756396
0.000761059
0.000765102
0.000768518
0.000771308
0.000773476
0.00077503
0.000775981
0.000776342
0.000776128
0.000775356
0.000774045
0.000772214
0.000769884
0.000767077
0.000763813
0.000760117
0.000756009
0.000751514
0.000746655
0.000741456
0.000735942
0.000730136
0.000724066
0.000717756
0.000711233
0.000704525
0.00069766
0.000690666
0.000683572
0.000676409
0.000669205
0.00066199
0.000654795
0.000647648
0.000640578
0.000633613
0.000626778
0.000620099
0.000613597
0.000607294
0.000601207
0.000595353
0.000589743
0.000584389
0.000579296
0.000574469
0.000569911
0.000565619
0.000561592
0.000557823
0.000554305
0.000551029
0.000547986
0.000545163
0.000542549
0.00054013
0.000537893
0.000535823
0.000533908
0.000532142
0.000530511
0.000529005
0.000527614
0.000526326
0.000525132
0.000524024
0.000522994
0.000522032
0.000521134
0.000520291
0.000519499
0.000518751
0.000518044
0.000517372
0.000516731
0.000516119
0.000515531
0.000514964
0.000514417
0.000513886
0.000513369
0.000512864
0.000512371
0.000511886
0.000511409
0.000510938
0.000510472
0.000510009
0.00050955
0.000509093
0.000508638
0.000508183
0.000507728
0.000507273
0.000506816
0.000506357
0.000505897
0.000505434
0.000504967
0.000504497
0.000504024
0.000503545
0.000503062
0.000502573
0.000502079
0.000501577
0.000501067
0.000500549
0.00050002
0.00049948
0.000498925
0.000498352
0.000497758
0.000497138
0.000496484
0.000495786
0.00049503
0.000494198
0.000493261
0.00049218
0.000490895
0.000489321
0.000487345
0.000484861
0.000482002
7.19503e-06
6.40641e-05
0.000128454
0.000182371
0.000226363
0.000262569
0.00029291
0.000318896
0.000341662
0.000362037
0.000380607
0.000397778
0.000413821
0.000428913
0.000443165
0.000456644
0.000469393
0.000481438
0.000492796
0.000503486
0.000513526
0.00052294
0.000531756
0.000540012
0.000547747
0.000555009
0.000561852
0.000568333
0.00057451
0.000580447
0.000586204
0.000591839
0.000597437
0.000603108
0.000608941
0.00061501
0.000621369
0.000628059
0.000635102
0.000642507
0.000650264
0.000658349
0.000666725
0.000675341
0.000684135
0.000693038
0.000701976
0.000710867
0.000719633
0.0007282
0.000736484
0.000744424
0.000751963
0.000758994
0.000765493
0.000771424
0.000776766
0.0007815
0.000785618
0.000789113
0.000791986
0.000794239
0.000795881
0.000796921
0.000797372
0.000797249
0.000796569
0.00079535
0.000793612
0.000791375
0.000788661
0.000785491
0.000781889
0.000777877
0.000773481
0.000768723
0.000763631
0.000758228
0.000752543
0.000746602
0.000740433
0.000734065
0.000727528
0.000720851
0.000714065
0.0007072
0.000700288
0.000693359
0.000686445
0.000679575
0.000672777
0.000666081
0.000659513
0.000653097
0.000646856
0.00064081
0.000634977
0.000629372
0.000624007
0.000618892
0.000614032
0.000609431
0.000605091
0.000601009
0.000597183
0.000593606
0.00059027
0.000587166
0.000584284
0.000581613
0.000579139
0.000576851
0.000574734
0.000572775
0.000570966
0.000569296
0.000567753
0.000566327
0.000565007
0.000563784
0.000562648
0.000561592
0.000560608
0.000559688
0.000558826
0.000558016
0.000557253
0.00055653
0.000555845
0.000555192
0.000554568
0.00055397
0.000553394
0.000552838
0.000552299
0.000551775
0.000551264
0.000550764
0.000550273
0.000549791
0.000549315
0.000548845
0.000548378
0.000547915
0.000547455
0.000546996
0.000546538
0.00054608
0.000545621
0.000545162
0.000544701
0.000544238
0.000543772
0.000543303
0.000542831
0.000542355
0.000541874
0.000541389
0.000540898
0.000540401
0.000539897
0.000539385
0.000538865
0.000538334
0.000537791
0.000537235
0.000536661
0.000536066
0.000535445
0.000534791
0.000534094
0.000533343
0.000532518
0.000531595
0.000530537
0.000529294
0.000527796
0.000525956
0.000523713
0.000521209
7.24305e-06
6.38632e-05
0.000129185
0.000184981
0.000231264
0.000269818
0.000302352
0.000330259
0.000354622
0.000376253
0.000395754
0.000413555
0.000429962
0.000445184
0.000459362
0.000472592
0.000484938
0.000496441
0.000507136
0.00051705
0.000526209
0.000534643
0.000542387
0.000549481
0.000555972
0.000561914
0.000567368
0.000572399
0.000577082
0.00058149
0.000585704
0.000589802
0.000593893
0.000598108
0.000602563
0.000607354
0.000612562
0.000618248
0.000624453
0.000631199
0.000638488
0.0006463
0.000654598
0.000663326
0.000672415
0.000681785
0.000691349
0.000701004
0.00071066
0.00072024
0.000729614
0.00073869
0.000747406
0.000755695
0.000763504
0.00077079
0.000777518
0.000783659
0.000789193
0.000794107
0.000798393
0.000802046
0.00080507
0.000807468
0.000809249
0.000810424
0.000811008
0.000811016
0.000810466
0.000809376
0.000807766
0.000805659
0.000803075
0.000800039
0.000796574
0.000792705
0.000788456
0.000783855
0.000778928
0.000773703
0.000768208
0.000762472
0.000756526
0.0007504
0.000744126
0.000737734
0.000731257
0.000724726
0.000718173
0.000711629
0.000705125
0.00069869
0.000692352
0.000686137
0.00068007
0.000674172
0.000668465
0.000662963
0.000657683
0.000652635
0.000647827
0.000643265
0.000638952
0.000634888
0.00063107
0.000627496
0.000624158
0.000621047
0.000618156
0.000615474
0.000612988
0.000610686
0.000608557
0.000606587
0.000604766
0.000603084
0.000601529
0.000600092
0.000598762
0.000597529
0.000596385
0.000595321
0.00059433
0.000593404
0.000592536
0.000591721
0.000590954
0.000590228
0.000589539
0.000588884
0.000588258
0.000587658
0.000587082
0.000586525
0.000585986
0.000585462
0.000584951
0.000584452
0.000583962
0.000583481
0.000583006
0.000582538
0.000582073
0.000581612
0.000581154
0.000580697
0.000580241
0.000579786
0.00057933
0.000578873
0.000578415
0.000577954
0.000577492
0.000577026
0.000576557
0.000576084
0.000575606
0.000575124
0.000574636
0.000574143
0.000573642
0.000573134
0.000572618
0.000572091
0.000571552
0.000571
0.000570431
0.000569842
0.000569228
0.000568582
0.000567895
0.000567156
0.000566348
0.000565449
0.000564426
0.000563237
0.000561824
0.000560123
0.000558101
0.000555898
7.25146e-06
6.3198e-05
0.000128613
0.000185413
0.000233204
0.000273453
0.000307656
0.000337077
0.000362723
0.000385377
0.000405632
0.000423931
0.000440595
0.00045586
0.00046989
0.000482802
0.000494679
0.000505579
0.000515547
0.000524619
0.000532831
0.000540216
0.000546812
0.000552664
0.000557821
0.000562342
0.000566294
0.000569753
0.000572801
0.00057553
0.000578037
0.000580421
0.000582825
0.000585409
0.000588313
0.000591666
0.000595574
0.000600123
0.000605377
0.000611372
0.000618121
0.00062561
0.000633799
0.000642621
0.000651998
0.00066184
0.000672061
0.000682495
0.000693034
0.000703579
0.000714022
0.000724265
0.000734223
0.00074382
0.000752991
0.00076168
0.00076984
0.000777435
0.000784434
0.000790816
0.000796565
0.000801671
0.000806131
0.000809945
0.000813117
0.000815654
0.000817567
0.000818871
0.000819579
0.000819709
0.000819281
0.000818314
0.00081683
0.000814852
0.000812403
0.000809508
0.000806192
0.000802482
0.000798404
0.000793988
0.000789261
0.000784253
0.000778995
0.000773517
0.000767851
0.00076203
0.000756085
0.00075005
0.000743955
0.000737835
0.000731719
0.000725638
0.000719623
0.000713699
0.000707894
0.000702231
0.000696731
0.000691413
0.000686294
0.000681385
0.000676699
0.000672242
0.000668019
0.000664031
0.000660279
0.000656759
0.000653467
0.000650396
0.000647537
0.000644882
0.00064242
0.000640139
0.000638028
0.000636074
0.000634267
0.000632597
0.000631053
0.000629626
0.000628304
0.000627079
0.000625943
0.000624886
0.000623901
0.000622982
0.000622121