/*--------------------------------*- C++ -*----------------------------------*\
  =========                 |
  \\      /  F ield         | OpenFOAM: The Open Source CFD Toolbox
   \\    /   O peration     | Website:  https://openfoam.org
    \\  /    A nd           | Version:  6
     \\/     M anipulation  |
\*---------------------------------------------------------------------------*/
FoamFile
{
    version     2.0;
    format      ascii;
    class       volScalarField;
    location    "0.09";
    object      p;
}
// * * * * * * * * * * * * * * * * * * * * * * * * * * * * * * * * * * * * * //

dimensions      [0 2 -2 0 0 0 0];

internalField   nonuniform List<scalar> 
12225
(
0.330044
0.0776624
-0.000276048
-0.0106507
-0.0150099
-0.0194225
-0.0217769
-0.0229794
-0.024065
-0.0251802
-0.0262529
-0.0273008
-0.0283759
-0.029516
-0.0307941
-0.0322711
-0.0346319
-0.0379889
-0.0518034
-0.0215596
-0.0206021
-0.0140233
-0.014517
-0.018328
-0.0209296
-0.0224564
-0.0237506
-0.0249775
-0.0261162
-0.0272103
-0.0283194
-0.0294824
-0.0307768
-0.0322643
-0.0344219
-0.0369595
-0.0888139
-0.0178263
-0.0159821
-0.0135347
-0.0142395
-0.0176461
-0.0202006
-0.0218492
-0.0232593
-0.024571
-0.0257799
-0.0269341
-0.0280917
-0.0292904
-0.0306011
-0.0320489
-0.0339136
-0.0355091
-0.0434437
-0.00459755
-0.0125035
-0.0136751
-0.014554
-0.0174737
-0.0198206
-0.0214562
-0.0228958
-0.0242427
-0.0254921
-0.026686
-0.0278749
-0.0290914
-0.030387
-0.0317563
-0.0333109
-0.0344746
-0.0230229
-0.00463822
-0.0129659
-0.0143854
-0.0151179
-0.0175819
-0.0196997
-0.021275
-0.0226961
-0.0240391
-0.0252975
-0.026505
-0.0277023
-0.028914
-0.0301702
-0.0314465
-0.0327576
-0.033719
-0.0206567
-0.0089135
-0.0141309
-0.0150854
-0.015724
-0.0178078
-0.0197119
-0.0212144
-0.0225962
-0.0239138
-0.0251612
-0.026364
-0.0275528
-0.028744
-0.0299502
-0.031139
-0.0322796
-0.0331353
-0.0205063
-0.0118076
-0.0148459
-0.0156652
-0.0163127
-0.0180859
-0.0197966
-0.0212216
-0.0225536
-0.0238342
-0.0250582
-0.0262437
-0.0274124
-0.0285734
-0.0297278
-0.0308426
-0.0318732
-0.0326878
-0.0194946
-0.0134016
-0.0153383
-0.0161777
-0.0168603
-0.0183834
-0.0199229
-0.0212691
-0.0225457
-0.0237826
-0.0249747
-0.0261338
-0.0272742
-0.0283996
-0.0295047
-0.0305609
-0.0315281
-0.0323442
-0.0184743
-0.0145193
-0.0158088
-0.0166419
-0.0173515
-0.0186772
-0.0200678
-0.0213364
-0.0225553
-0.0237445
-0.0248988
-0.0260251
-0.0271316
-0.0282189
-0.0292794
-0.0302914
-0.0312266
-0.0320653
-0.0178557
-0.015416
-0.0162693
-0.017055
-0.0177794
-0.0189511
-0.020213
-0.0214065
-0.022567
-0.0237062
-0.0248189
-0.0259076
-0.0269768
-0.0280251
-0.0290457
-0.0300243
-0.0309453
-0.0318113
-0.0175643
-0.0161193
-0.0166982
-0.0174204
-0.0181459
-0.0191968
-0.0203468
-0.0214676
-0.0225697
-0.0236576
-0.0247257
-0.0257737
-0.0268032
-0.0278125
-0.0287966
-0.0297478
-0.0306606
-0.0315478
-0.0174769
-0.0166173
-0.0170555
-0.0177181
-0.0184317
-0.0193923
-0.0204515
-0.0215071
-0.0225553
-0.0235952
-0.0246204
-0.0256289
-0.0266207
-0.0275941
-0.0285463
-0.0294739
-0.0303774
-0.031272
-0.0174923
-0.0170211
-0.017366
-0.017974
-0.0186694
-0.0195536
-0.0205332
-0.021528
-0.0225237
-0.0235157
-0.0244972
-0.0254649
-0.0264178
-0.0273547
-0.0282745
-0.0291771
-0.0300665
-0.0309558
-0.0175906
-0.0173873
-0.0176731
-0.0182232
-0.0188878
-0.0196966
-0.0205948
-0.0215219
-0.0224576
-0.0233937
-0.0243231
-0.0252414
-0.026147
-0.0270391
-0.0279177
-0.0287852
-0.0296467
-0.0305115
-0.0177491
-0.0177006
-0.0179558
-0.018448
-0.0190676
-0.0198025
-0.0206179
-0.0214706
-0.022338
-0.0232092
-0.0240766
-0.0249351
-0.0257825
-0.0266181
-0.0274426
-0.0282588
-0.0290709
-0.0298846
-0.0179201
-0.0179445
-0.0181816
-0.0186191
-0.0191836
-0.0198457
-0.0205786
-0.0213514
-0.0221426
-0.0229396
-0.023734
-0.0245204
-0.0252958
-0.026059
-0.0268106
-0.0275526
-0.028287
-0.0290159
-0.0180356
-0.0180857
-0.0183045
-0.0186921
-0.0191978
-0.0197889
-0.0204416
-0.0211321
-0.021841
-0.022555
-0.0232651
-0.0239652
-0.0246517
-0.0253226
-0.0259776
-0.0266172
-0.0272407
-0.0278485
-0.0180106
-0.0180638
-0.0182598
-0.0186022
-0.0190527
-0.0195793
-0.0201587
-0.02077
-0.0213955
-0.0220213
-0.022638
-0.023239
-0.0238199
-0.0243783
-0.0249125
-0.0254221
-0.0259044
-0.0263601
-0.0177435
-0.0177868
-0.0179527
-0.0182557
-0.0186631
-0.0191398
-0.0196611
-0.020206
-0.0207559
-0.0212964
-0.0218175
-0.0223124
-0.0227765
-0.0232068
-0.0236016
-0.0239599
-0.0242785
-0.0245593
-0.0172567
-0.0172653
-0.0173902
-0.017678
-0.018081
-0.0185514
-0.019062
-0.0195877
-0.0201052
-0.0205989
-0.0210597
-0.0214815
-0.0218603
-0.022194
-0.0224816
-0.0227229
-0.0229152
-0.0230616
-0.0167981
-0.0167066
-0.0167656
-0.0170641
-0.0174895
-0.0179803
-0.018515
-0.0190585
-0.0195787
-0.02006
-0.0204953
-0.0208798
-0.0212105
-0.0214866
-0.021708
-0.0218756
-0.0219877
-0.0220481
-0.0164815
-0.0160886
-0.0160296
-0.0163861
-0.0168568
-0.0173899
-0.017984
-0.0185776
-0.0191263
-0.0196185
-0.0200514
-0.0204214
-0.0207269
-0.0209689
-0.0211489
-0.0212689
-0.0213286
-0.0213319
-0.0165476
-0.0154405
-0.0151998
-0.0156677
-0.0161785
-0.0167754
-0.0174729
-0.0181484
-0.0187462
-0.0192686
-0.0197179
-0.0200914
-0.0203895
-0.0206156
-0.0207731
-0.0208654
-0.0208933
-0.0208606
-0.0170102
-0.0146192
-0.0143186
-0.014959
-0.01544
-0.0161271
-0.0169883
-0.0177772
-0.018441
-0.0190099
-0.0194911
-0.0198817
-0.0201852
-0.0204083
-0.0205567
-0.0206351
-0.0206459
-0.0205924
-0.0172296
-0.0126233
-0.0131196
-0.014237
-0.0146142
-0.0154466
-0.0165482
-0.0174796
-0.018223
-0.0188517
-0.0193758
-0.0197917
-0.0201078
-0.0203354
-0.0204826
-0.0205556
-0.0205585
-0.0204941
-0.0189458
-0.00818169
-0.0108268
-0.0132042
-0.0136184
-0.0147503
-0.0161838
-0.0172831
-0.0181168
-0.0188135
-0.0193844
-0.0198266
-0.020156
-0.0203895
-0.020538
-0.020609
-0.0206086
-0.0205391
-0.0359538
-0.00614195
-0.00857411
-0.0118023
-0.012435
-0.0141196
-0.0159721
-0.0172551
-0.0181832
-0.0189442
-0.0195518
-0.0200092
-0.0203427
-0.0205753
-0.0207204
-0.0207869
-0.0207824
-0.0207093
-0.0800835
-0.0194347
-0.0126179
-0.01163
-0.0116222
-0.0139129
-0.0161595
-0.0175765
-0.0185601
-0.0193483
-0.0199571
-0.0203992
-0.0207127
-0.0209264
-0.0210547
-0.0211068
-0.0210916
-0.0210123
-0.0597112
-0.0292737
-0.0225265
-0.013883
-0.0121095
-0.014706
-0.0170723
-0.0184021
-0.0192952
-0.020019
-0.0205707
-0.0209594
-0.0212275
-0.0214054
-0.0215059
-0.0215354
-0.0215017
-0.0214212
0.304608
0.0849012
0.00783516
-0.00519467
-0.0103913
-0.0153593
-0.0181427
-0.0192758
-0.0199235
-0.0204781
-0.020922
-0.0212391
-0.0214589
-0.0216046
-0.021683
-0.0216948
-0.021637
-0.0214935
-0.0732501
-0.073587
-0.0740319
-0.0745793
-0.0753085
-0.0762682
-0.0774772
-0.0789486
-0.080688
-0.0826933
-0.0849533
-0.0874471
-0.0901436
-0.0930012
-0.0959697
-0.0989911
-0.102002
-0.104935
-0.107721
-0.110293
-0.112584
-0.114531
-0.116078
-0.117171
-0.117763
-0.117812
-0.117284
-0.116152
-0.114404
-0.112038
-0.109037
-0.105344
-0.100891
-0.0956708
-0.0897226
-0.0830772
-0.0757633
-0.0678125
-0.0592606
-0.0501495
-0.0405267
-0.030446
-0.0199664
-0.00915188
0.00193002
0.0132089
0.0246126
0.0360689
0.0475062
0.0588548
0.0700483
0.0810238
0.0917236
0.102095
0.112091
0.121672
0.130802
0.139454
0.14761
0.155268
0.16245
0.169152
0.175343
0.18102
0.186192
0.190869
0.195067
0.198805
0.202103
0.204982
0.207464
0.209574
0.211335
0.212771
0.213906
0.214765
0.215371
0.215746
0.215914
0.215895
0.215711
0.215382
0.214926
0.21436
0.213701
0.212965
0.212166
0.211316
0.210427
0.209509
0.208573
0.207626
0.206675
0.205728
0.204789
0.203863
0.202955
0.202067
0.201201
0.200361
0.199547
0.198761
0.198003
0.197274
0.196574
0.195904
0.195262
0.194649
0.194069
0.193515
0.192981
0.192469
0.19198
0.191514
0.191071
0.19065
0.190249
0.189868
0.189505
0.189159
0.188831
0.188517
0.188218
0.187933
0.187661
0.1874
0.187151
0.186913
0.186684
0.186464
0.186252
0.186048
0.185852
0.185662
0.185478
0.1853
0.185127
0.184959
0.184795
0.184635
0.184479
0.184326
0.184175
0.184028
0.183882
0.183739
0.183597
0.183457
0.183318
0.183181
0.183044
0.182909
0.182774
0.182641
0.182508
0.182376
0.182245
0.182115
0.181986
0.181859
0.181734
0.181612
0.181494
0.18138
0.181272
0.181173
0.181084
0.18101
0.180955
0.180927
0.180933
0.180988
0.18111
0.181328
0.18169
0.18227
0.183218
0.184765
0.187635
0.191987
-0.0711468
-0.0722342
-0.0728512
-0.0729297
-0.0730698
-0.0735451
-0.0744003
-0.0756362
-0.0772492
-0.0792285
-0.0815525
-0.0841883
-0.0870915
-0.0902069
-0.0934706
-0.0968124
-0.100159
-0.103434
-0.106565
-0.109482
-0.112116
-0.114408
-0.1163
-0.117741
-0.118684
-0.119087
-0.118911
-0.118122
-0.116684
-0.11456
-0.111718
-0.108168
-0.103958
-0.0991026
-0.0935841
-0.0873998
-0.0805607
-0.0730873
-0.0650081
-0.0563587
-0.047182
-0.037527
-0.0274488
-0.0170072
-0.00626667
0.00470563
0.0158403
0.0270673
0.0383166
0.0495201
0.0606121
0.0715304
0.0822176
0.092621
0.102694
0.112396
0.121693
0.130557
0.138961
0.146877
0.154259
0.161108
0.167456
0.17331
0.178678
0.183569
0.187996
0.191976
0.195527
0.198667
0.201416
0.203798
0.205832
0.207543
0.208952
0.210082
0.210956
0.211594
0.21202
0.212253
0.212313
0.212219
0.211989
0.211642
0.211191
0.210653
0.210041
0.209369
0.208647
0.207886
0.207097
0.206286
0.205463
0.204633
0.203803
0.202977
0.20216
0.201355
0.200566
0.199796
0.199045
0.198315
0.197609
0.196926
0.196268
0.195634
0.195025
0.19444
0.193878
0.193341
0.192828
0.192338
0.191869
0.19142
0.190992
0.190583
0.190192
0.18982
0.189464
0.189125
0.188802
0.188493
0.188198
0.187916
0.187646
0.187388
0.187141
0.186904
0.186676
0.186457
0.186246
0.186042
0.185846
0.185657
0.185473
0.185295
0.185122
0.184953
0.184789
0.184629
0.184472
0.184319
0.184168
0.18402
0.183874
0.183731
0.183589
0.183448
0.18331
0.183172
0.183035
0.1829
0.182765
0.182631
0.182498
0.182366
0.182235
0.182105
0.181976
0.181849
0.181724
0.181602
0.181484
0.181371
0.181264
0.181165
0.181078
0.181005
0.180951
0.180924
0.180933
0.18099
0.181115
0.181335
0.181695
0.182262
0.183171
0.184586
0.187112
0.190704
-0.0671056
-0.0691978
-0.0710628
-0.071949
-0.0724863
-0.0731793
-0.0741986
-0.0755889
-0.0773575
-0.0794903
-0.0819566
-0.0847128
-0.0877056
-0.0908753
-0.0941574
-0.0974857
-0.100794
-0.104017
-0.107092
-0.10996
-0.112564
-0.114852
-0.116775
-0.118287
-0.119346
-0.119913
-0.119951
-0.119429
-0.118315
-0.116575
-0.114181
-0.11112
-0.107396
-0.103011
-0.0979634
-0.092255
-0.0858964
-0.0789048
-0.0713046
-0.0631276
-0.0544121
-0.0452035
-0.0355529
-0.025517
-0.0151566
-0.00453641
0.0062769
0.0172152
0.0282105
0.0391957
0.0501063
0.0608807
0.0714615
0.0817962
0.0918377
0.101545
0.110883
0.119822
0.128337
0.136402
0.143995
0.15111
0.157749
0.16391
0.169597
0.174818
0.179583
0.183907
0.187804
0.191293
0.194391
0.19712
0.199499
0.20155
0.203295
0.204753
0.205948
0.206899
0.207628
0.208154
0.208497
0.208674
0.208705
0.208604
0.20839
0.208075
0.207674
0.2072
0.206665
0.206079
0.205451
0.204792
0.204109
0.203409
0.202698
0.201982
0.201266
0.200553
0.199848
0.199154
0.198472
0.197806
0.197156
0.196525
0.195912
0.19532
0.194747
0.194195
0.193664
0.193153
0.192664
0.192195
0.191744
0.191312
0.190898
0.190502
0.190123
0.189761
0.189414
0.189082
0.188765
0.188462
0.188172
0.187894
0.187628
0.187373
0.187128
0.186893
0.186667
0.186449
0.186239
0.186037
0.185842
0.185652
0.185469
0.185291
0.185118
0.18495
0.184786
0.184626
0.184469
0.184315
0.184165
0.184016
0.18387
0.183726
0.183584
0.183444
0.183305
0.183167
0.18303
0.182894
0.182759
0.182625
0.182492
0.18236
0.182228
0.182098
0.18197
0.181843
0.181718
0.181597
0.181479
0.181366
0.181259
0.181161
0.181074
0.181002
0.18095
0.180925
0.180935
0.180994
0.181121
0.181341
0.181697
0.182248
0.183106
0.18438
0.186482
0.188994
-0.0640612
-0.0670588
-0.0702372
-0.0722554
-0.0736006
-0.0748588
-0.0762842
-0.0779698
-0.07995
-0.0822275
-0.0847821
-0.0875792
-0.090574
-0.0937158
-0.0969496
-0.100219
-0.103466
-0.106634
-0.109668
-0.112513
-0.115117
-0.117431
-0.119407
-0.120999
-0.122166
-0.122866
-0.123062
-0.122718
-0.121803
-0.120287
-0.118147
-0.115367
-0.111937
-0.107848
-0.103097
-0.0976836
-0.0916146
-0.0849047
-0.0775753
-0.0696558
-0.0611825
-0.0521988
-0.0427547
-0.0329057
-0.0227123
-0.0122385
-0.00155107
0.00928184
0.020192
0.0311121
0.041977
0.0527249
0.0632978
0.0736424
0.0837107
0.0934604
0.102855
0.111863
0.120461
0.12863
0.136355
0.143625
0.150432
0.156776
0.162658
0.168084
0.173064
0.17761
0.181737
0.185459
0.188796
0.191765
0.194387
0.19668
0.198665
0.200363
0.201794
0.202978
0.203934
0.204683
0.205241
0.205629
0.205861
0.205956
0.205928
0.205792
0.205561
0.205249
0.204866
0.204425
0.203933
0.203401
0.202837
0.202248
0.201641
0.201021
0.200394
0.199763
0.199134
0.198509
0.197891
0.197283
0.196687
0.196104
0.195536
0.194983
0.194447
0.193928
0.193426
0.192941
0.192475
0.192027
0.191595
0.191181
0.190782
0.1904
0.190034
0.189682
0.189346
0.189023
0.188714
0.188417
0.188133
0.187861
0.187599
0.187348
0.187106
0.186874
0.186651
0.186435
0.186228
0.186027
0.185833
0.185645
0.185462
0.185285
0.185113
0.184945
0.184782
0.184622
0.184465
0.184312
0.184161
0.184013
0.183867
0.183723
0.183581
0.18344
0.183301
0.183163
0.183026
0.18289
0.182755
0.182621
0.182488
0.182355
0.182224
0.182094
0.181965
0.181838
0.181713
0.181592
0.181473
0.18136
0.181253
0.181155
0.181068
0.180995
0.180942
0.180915
0.180923
0.180978
0.181098
0.181307
0.181641
0.182149
0.182916
0.183996
0.185627
0.187286
-0.063779
-0.0672573
-0.0711988
-0.074008
-0.0760178
-0.0777975
-0.0796228
-0.0816092
-0.0838099
-0.0862422
-0.0888973
-0.09175
-0.0947642
-0.0978971
-0.101102
-0.10433
-0.10753
-0.110652
-0.113647
-0.116466
-0.11906
-0.121382
-0.123388
-0.125034
-0.126276
-0.127075
-0.127392
-0.127188
-0.126432
-0.12509
-0.123137
-0.120551
-0.117315
-0.113416
-0.108845
-0.103601
-0.0976872
-0.0911171
-0.08391
-0.0760941
-0.0677052
-0.0587867
-0.0493891
-0.0395688
-0.0293877
-0.0189115
-0.00820867
0.00265087
0.0135972
0.0245616
0.0354777
0.0462826
0.0569175
0.0673287
0.077468
0.0872925
0.0967654
0.105856
0.114539
0.122799
0.130619
0.137991
0.144908
0.151368
0.157376
0.162936
0.168057
0.172752
0.177032
0.180915
0.184415
0.187552
0.190344
0.192809
0.194968
0.196839
0.198443
0.199798
0.200923
0.201837
0.202559
0.203105
0.203492
0.203736
0.203852
0.203854
0.203757
0.203571
0.20331
0.202983
0.2026
0.202171
0.201704
0.201206
0.200684
0.200144
0.199591
0.199031
0.198466
0.197901
0.197338
0.196781
0.196232
0.195692
0.195163
0.194647
0.194144
0.193655
0.19318
0.192721
0.192277
0.191849
0.191436
0.191038
0.190655
0.190287
0.189933
0.189593
0.189266
0.188952
0.188651
0.188362
0.188084
0.187817
0.187561
0.187314
0.187077
0.186848
0.186628
0.186415
0.18621
0.186011
0.185819
0.185632
0.185452
0.185276
0.185104
0.184938
0.184775
0.184615
0.184459
0.184306
0.184156
0.184008
0.183862
0.183719
0.183577
0.183436
0.183297
0.183159
0.183022
0.182886
0.182751
0.182617
0.182483
0.182351
0.18222
0.182089
0.18196
0.181833
0.181708
0.181586
0.181467
0.181353
0.181245
0.181145
0.181056
0.180982
0.180925
0.180894
0.180896
0.180942
0.181047
0.181234
0.181531
0.181975
0.182624
0.183494
0.184701
0.185735
-0.0662582
-0.0698387
-0.0740615
-0.0773089
-0.0797695
-0.0819422
-0.084087
-0.0863214
-0.0887062
-0.0912678
-0.0940067
-0.0969058
-0.0999365
-0.103064
-0.106247
-0.109445
-0.112612
-0.115704
-0.118677
-0.121483
-0.12408
-0.126422
-0.128464
-0.130165
-0.13148
-0.132369
-0.132789
-0.132704
-0.132074
-0.130866
-0.129049
-0.126597
-0.123487
-0.119703
-0.115233
-0.110071
-0.104219
-0.0976896
-0.0905
-0.0826784
-0.0742614
-0.0652936
-0.0558278
-0.045923
-0.0356441
-0.02506
-0.0142425
-0.00326457
0.00780118
0.0188837
0.0299146
0.0408299
0.0515701
0.0620812
0.0723149
0.0822291
0.0917872
0.10096
0.109725
0.118064
0.125965
0.133418
0.14042
0.146971
0.153072
0.158732
0.163958
0.168762
0.173158
0.17716
0.180784
0.184048
0.18697
0.189568
0.19186
0.193867
0.195605
0.197095
0.198354
0.1994
0.200252
0.200925
0.201436
0.201801
0.202034
0.20215
0.202161
0.20208
0.201919
0.201687
0.201396
0.201053
0.200668
0.200247
0.199798
0.199326
0.198838
0.198338
0.197829
0.197317
0.196803
0.196292
0.195785
0.195284
0.194792
0.194309
0.193837
0.193376
0.192927
0.192492
0.19207
0.191662
0.191267
0.190885
0.190518
0.190163
0.189822
0.189493
0.189177
0.188872
0.188579
0.188298
0.188027
0.187766
0.187515
0.187273
0.18704
0.186816
0.186599
0.186389
0.186187
0.185991
0.185801
0.185616
0.185437
0.185263
0.185093
0.184927
0.184765
0.184607
0.184452
0.184299
0.184149
0.184002
0.183857
0.183713
0.183572
0.183431
0.183292
0.183154
0.183018
0.182882
0.182747
0.182612
0.182479
0.182346
0.182215
0.182084
0.181955
0.181827
0.181701
0.181578
0.181459
0.181344
0.181234
0.181132
0.181041
0.180962
0.180901
0.180863
0.180855
0.180887
0.180973
0.181129
0.181379
0.181747
0.182269
0.182932
0.183781
0.184346
-0.0708324
-0.0742828
-0.0784638
-0.0818672
-0.0845713
-0.0869885
-0.0893463
-0.0917527
-0.0942678
-0.0969217
-0.0997206
-0.102654
-0.105699
-0.108828
-0.112004
-0.115192
-0.11835
-0.121439
-0.124416
-0.127238
-0.129863
-0.132247
-0.134346
-0.136117
-0.137515
-0.138498
-0.139022
-0.139046
-0.138529
-0.137434
-0.135724
-0.133371
-0.130346
-0.126629
-0.122203
-0.117062
-0.111204
-0.10464
-0.0973867
-0.0894736
-0.0809387
-0.0718295
-0.0622022
-0.0521201
-0.0416528
-0.0308738
-0.0198597
-0.00868765
0.00256593
0.0138269
0.0250249
0.0360943
0.0469749
0.0576126
0.0679593
0.0779739
0.0876224
0.0968778
0.105719
0.114129
0.122098
0.129617
0.136686
0.143304
0.149476
0.155209
0.160512
0.165399
0.16988
0.173973
0.177692
0.181054
0.184077
0.186779
0.189177
0.191291
0.193138
0.194737
0.196104
0.197259
0.198217
0.198995
0.199609
0.200075
0.200406
0.200616
0.200719
0.200726
0.200649
0.200499
0.200285
0.200017
0.199702
0.199349
0.198963
0.198552
0.19812
0.197673
0.197215
0.19675
0.196281
0.195811
0.195342
0.194878
0.194419
0.193968
0.193524
0.193091
0.192667
0.192255
0.191854
0.191465
0.191088
0.190723
0.19037
0.19003
0.189701
0.189384
0.189078
0.188783
0.188499
0.188225
0.187962
0.187707
0.187462
0.187226
0.186998
0.186778
0.186565
0.186359
0.186159
0.185966
0.185779
0.185596
0.185419
0.185247
0.185079
0.184914
0.184754
0.184596
0.184442
0.184291
0.184142
0.183995
0.18385
0.183707
0.183566
0.183426
0.183287
0.18315
0.183013
0.182877
0.182742
0.182608
0.182474
0.182342
0.18221
0.182079
0.181949
0.181821
0.181694
0.18157
0.181449
0.181333
0.181221
0.181116
0.181021
0.180937
0.18087
0.180822
0.180802
0.180817
0.180879
0.180999
0.181195
0.181481
0.181875
0.182345
0.182894
0.1831
-0.076799
-0.0799795
-0.0839072
-0.0872523
-0.0900223
-0.0925461
-0.0950135
-0.097517
-0.10011
-0.102823
-0.105663
-0.108624
-0.111688
-0.114829
-0.118018
-0.12122
-0.124398
-0.127514
-0.130529
-0.1334
-0.136086
-0.138543
-0.140727
-0.142594
-0.144099
-0.145195
-0.145838
-0.145981
-0.145582
-0.144597
-0.142987
-0.140718
-0.137757
-0.134078
-0.129663
-0.1245
-0.118586
-0.11193
-0.10455
-0.0964757
-0.0877492
-0.0784217
-0.0685543
-0.0582165
-0.0474839
-0.0364364
-0.0251566
-0.0137271
-0.00222883
0.00926065
0.0206681
0.0319265
0.0429745
0.0537582
0.0642313
0.0743547
0.0840976
0.0934345
0.102346
0.110818
0.118842
0.126413
0.133531
0.140199
0.146421
0.152207
0.157566
0.162512
0.167057
0.171218
0.175008
0.178446
0.181548
0.184332
0.186816
0.189016
0.190952
0.19264
0.194097
0.195342
0.196389
0.197256
0.197957
0.198507
0.198921
0.199213
0.199394
0.199478
0.199474
0.199394
0.199248
0.199044
0.198791
0.198497
0.198168
0.19781
0.197429
0.19703
0.196617
0.196195
0.195766
0.195335
0.194902
0.194472
0.194044
0.193622
0.193207
0.192799
0.192399
0.192009
0.191629
0.191259
0.1909
0.190551
0.190214
0.189887
0.189571
0.189266
0.188971
0.188686
0.188411
0.188145
0.187889
0.187642
0.187403
0.187172
0.18695
0.186734
0.186525
0.186323
0.186128
0.185937
0.185753
0.185573
0.185399
0.185228
0.185062
0.184899
0.18474
0.184584
0.184431
0.184281
0.184133
0.183987
0.183843
0.1837
0.183559
0.18342
0.183282
0.183144
0.183008
0.182872
0.182737
0.182603
0.182469
0.182337
0.182204
0.182073
0.181943
0.181814
0.181687
0.181561
0.181439
0.18132
0.181206
0.181098
0.180998
0.180908
0.180833
0.180775
0.18074
0.180735
0.180768
0.180849
0.180988
0.18119
0.181459
0.181754
0.182051
0.18198
-0.083511
-0.0863347
-0.0898713
-0.0930036
-0.0957014
-0.0982196
-0.100709
-0.103246
-0.105873
-0.108617
-0.111485
-0.114472
-0.117561
-0.120731
-0.123953
-0.127197
-0.130426
-0.133604
-0.136692
-0.13965
-0.142435
-0.145004
-0.14731
-0.149309
-0.150953
-0.152193
-0.152981
-0.153267
-0.153003
-0.152143
-0.15064
-0.148456
-0.145554
-0.141902
-0.137477
-0.132265
-0.126259
-0.119468
-0.11191
-0.103619
-0.0946394
-0.0850283
-0.074854
-0.0641935
-0.0531304
-0.0417525
-0.0301497
-0.0184112
-0.00662306
0.00513299
0.0167803
0.0282501
0.0394818
0.0504228
0.0610293
0.0712648
0.0811001
0.0905125
0.0994856
0.108008
0.116075
0.123683
0.130834
0.137534
0.143789
0.14961
0.155007
0.159994
0.164585
0.168794
0.172639
0.176135
0.179299
0.182148
0.1847
0.186972
0.188981
0.190743
0.192277
0.193597
0.19472
0.195662
0.196438
0.197062
0.197549
0.197911
0.198161
0.198311
0.198372
0.198354
0.198268
0.198121
0.197923
0.197682
0.197403
0.197093
0.196758
0.196403
0.196032
0.195649
0.195258
0.194862
0.194463
0.194064
0.193666
0.193273
0.192883
0.1925
0.192124
0.191756
0.191396
0.191045
0.190703
0.190371
0.190048
0.189736
0.189432
0.189139
0.188855
0.18858
0.188315
0.188058
0.18781
0.18757
0.187338
0.187113
0.186896
0.186686
0.186482
0.186284
0.186092
0.185905
0.185724
0.185547
0.185375
0.185207
0.185043
0.184882
0.184725
0.18457
0.184418
0.184269
0.184122
0.183977
0.183834
0.183692
0.183552
0.183413
0.183275
0.183138
0.183002
0.182867
0.182732
0.182598
0.182464
0.182331
0.182199
0.182067
0.181936
0.181807
0.181678
0.181552
0.181427
0.181306
0.181189
0.181077
0.180971
0.180875
0.18079
0.180721
0.18067
0.180643
0.180646
0.180685
0.180764
0.180883
0.181036
0.181173
0.18126
0.180975
-0.0903689
-0.0927825
-0.0958402
-0.0986522
-0.101176
-0.103604
-0.106049
-0.108569
-0.111197
-0.113954
-0.116843
-0.119859
-0.122986
-0.126204
-0.129486
-0.1328
-0.136115
-0.139392
-0.142594
-0.14568
-0.148606
-0.151329
-0.153801
-0.155973
-0.157796
-0.159218
-0.160186
-0.160648
-0.160549
-0.159836
-0.158461
-0.156376
-0.153539
-0.149914
-0.145472
-0.140193
-0.134071
-0.127112
-0.119337
-0.110781
-0.101495
-0.0915448
-0.0810061
-0.069966
-0.058518
-0.046759
-0.0347879
-0.0227021
-0.0105937
0.00145107
0.0133543
0.0250468
0.036469
0.0475702
0.0583082
0.0686493
0.0785674
0.0880434
0.0970645
0.105623
0.113716
0.121345
0.128513
0.135229
0.1415
0.147339
0.152757
0.157769
0.16239
0.166633
0.170517
0.174057
0.177269
0.18017
0.182778
0.185108
0.187177
0.189003
0.1906
0.191986
0.193175
0.194183
0.195024
0.195713
0.196263
0.196688
0.196999
0.197208
0.197326
0.197364
0.197331
0.197236
0.197088
0.196894
0.196661
0.196396
0.196103
0.195788
0.195455
0.195109
0.194753
0.19439
0.194023
0.193654
0.193285
0.192918
0.192554
0.192195
0.191841
0.191494
0.191154
0.190822
0.190498
0.190182
0.189875
0.189576
0.189286
0.189005
0.188732
0.188468
0.188212
0.187964
0.187724
0.187492
0.187267
0.187049
0.186838
0.186633
0.186434
0.18624
0.186053
0.18587
0.185692
0.185518
0.185349
0.185183
0.185022
0.184863
0.184707
0.184555
0.184404
0.184257
0.184111
0.183967
0.183825
0.183684
0.183544
0.183406
0.183269
0.183132
0.182996
0.182861
0.182727
0.182593
0.182459
0.182326
0.182193
0.182061
0.181929
0.181799
0.181669
0.181541
0.181415
0.181291
0.18117
0.181054
0.180943
0.180839
0.180744
0.180661
0.180593
0.180543
0.180514
0.18051
0.18053
0.18057
0.180613
0.180611
0.180523
0.18007
-0.0968275
-0.0988
-0.101326
-0.103746
-0.106027
-0.108303
-0.110656
-0.113126
-0.115735
-0.118495
-0.121407
-0.124463
-0.127646
-0.130936
-0.134306
-0.137725
-0.141162
-0.144578
-0.147935
-0.151192
-0.154304
-0.157226
-0.159907
-0.162297
-0.164344
-0.16599
-0.16718
-0.167854
-0.167955
-0.167422
-0.1662
-0.164236
-0.16148
-0.15789
-0.15343
-0.148077
-0.141821
-0.134668
-0.126641
-0.117781
-0.108145
-0.097807
-0.0868557
-0.0753901
-0.0635153
-0.0513403
-0.0389742
-0.0265208
-0.0140779
-0.00173514
0.0104284
0.0223431
0.0339502
0.0452009
0.0560564
0.0664868
0.07647
0.085991
0.095041
0.103616
0.111717
0.119348
0.126515
0.133229
0.1395
0.14534
0.150764
0.155787
0.160422
0.164687
0.168596
0.172167
0.175415
0.178357
0.181009
0.183387
0.185508
0.187387
0.18904
0.190482
0.191729
0.192795
0.193694
0.19444
0.195047
0.195527
0.195893
0.196155
0.196325
0.196413
0.196429
0.196382
0.196279
0.196129
0.195938
0.195713
0.195459
0.195182
0.194885
0.194573
0.19425
0.193919
0.193581
0.193241
0.192899
0.192558
0.192219
0.191883
0.191552
0.191226
0.190905
0.190591
0.190285
0.189985
0.189693
0.189409
0.189132
0.188863
0.188602
0.188349
0.188103
0.187864
0.187633
0.187409
0.187191
0.18698
0.186774
0.186575
0.186382
0.186193
0.18601
0.185831
0.185657
0.185487
0.18532
0.185158
0.184998
0.184842
0.184688
0.184538
0.184389
0.184243
0.184098
0.183955
0.183814
0.183674
0.183536
0.183398
0.183261
0.183125
0.18299
0.182855
0.182721
0.182587
0.182453
0.18232
0.182187
0.182054
0.181922
0.181791
0.18166
0.18153
0.181401
0.181275
0.18115
0.181029
0.180912
0.1808
0.180695
0.180598
0.180511
0.180437
0.180376
0.180329
0.180292
0.180256
0.1802
0.180076
0.17984
0.179256
-0.102399
-0.103916
-0.105882
-0.10787
-0.109863
-0.111951
-0.114183
-0.116584
-0.119165
-0.121931
-0.124875
-0.127988
-0.13125
-0.13464
-0.13813
-0.141691
-0.145287
-0.148883
-0.152438
-0.155909
-0.159251
-0.162415
-0.16535
-0.168003
-0.170316
-0.172229
-0.173681
-0.174607
-0.174944
-0.174624
-0.173584
-0.171765
-0.169108
-0.165564
-0.16109
-0.155657
-0.149254
-0.141886
-0.133578
-0.124379
-0.114355
-0.103595
-0.0921992
-0.0802804
-0.0679566
-0.0553489
-0.042576
-0.0297495
-0.0169729
-0.004339
0.00807131
0.0201895
0.0319591
0.0433348
0.054282
0.0647753
0.0747972
0.0843376
0.0933917
0.10196
0.110046
0.117658
0.124804
0.131498
0.13775
0.143577
0.148991
0.15401
0.158647
0.16292
0.166844
0.170434
0.173708
0.176681
0.179368
0.181785
0.183949
0.185873
0.187574
0.189065
0.190362
0.19148
0.19243
0.193228
0.193886
0.194417
0.194832
0.195143
0.19536
0.195495
0.195555
0.195551
0.19549
0.195381
0.195229
0.195042
0.194824
0.194582
0.194319
0.19404
0.193748
0.193446
0.193138
0.192825
0.19251
0.192194
0.191879
0.191566
0.191256
0.19095
0.190649
0.190354
0.190064
0.189781
0.189504
0.189234
0.188971
0.188715
0.188465
0.188223
0.187988
0.187759
0.187536
0.18732
0.18711
0.186906
0.186707
0.186514
0.186326
0.186142
0.185964
0.185789
0.185619
0.185452
0.185289
0.18513
0.184973
0.184819
0.184668
0.184519
0.184372
0.184228
0.184085
0.183943
0.183803
0.183664
0.183527
0.18339
0.183254
0.183118
0.182983
0.182849
0.182715
0.182581
0.182447
0.182314
0.182181
0.182048
0.181915
0.181782
0.18165
0.181518
0.181387
0.181258
0.181129
0.181003
0.180879
0.180759
0.180643
0.180532
0.180427
0.180328
0.180235
0.180146
0.180054
0.179946
0.179801
0.17957
0.179212
0.178523
-0.10665
-0.107716
-0.109118
-0.110657
-0.11234
-0.11422
-0.11632
-0.118649
-0.121206
-0.123988
-0.126983
-0.130176
-0.133546
-0.137069
-0.140715
-0.144454
-0.148249
-0.152064
-0.155857
-0.159583
-0.163196
-0.166644
-0.169874
-0.172828
-0.175446
-0.177663
-0.179413
-0.180625
-0.181228
-0.181149
-0.180317
-0.178662
-0.176119
-0.172627
-0.168139
-0.162621
-0.156059
-0.148459
-0.139851
-0.130291
-0.119859
-0.108655
-0.0967965
-0.0844105
-0.0716307
-0.0585909
-0.0454201
-0.0322381
-0.0191529
-0.00625908
0.00636298
0.018647
0.0305402
0.042002
0.0530027
0.063522
0.0735479
0.0830748
0.0921026
0.100636
0.108682
0.116251
0.123355
0.130009
0.136226
0.142022
0.147412
0.152413
0.15704
0.161309
0.165235
0.168836
0.172126
0.17512
0.177834
0.180283
0.182481
0.184444
0.186186
0.18772
0.189062
0.190225
0.191222
0.192066
0.192771
0.193347
0.193808
0.194163
0.194424
0.194601
0.194703
0.194739
0.194718
0.194646
0.194531
0.194379
0.194196
0.193987
0.193756
0.193508
0.193246
0.192973
0.192692
0.192406
0.192116
0.191824
0.191533
0.191242
0.190953
0.190668
0.190386
0.190109
0.189836
0.18957
0.189308
0.189053
0.188803
0.18856
0.188323
0.188092
0.187867
0.187647
0.187434
0.187226
0.187024
0.186827
0.186636
0.186449
0.186266
0.186088
0.185914
0.185745
0.185578
0.185416
0.185256
0.185099
0.184946
0.184794
0.184646
0.184499
0.184354
0.184211
0.18407
0.18393
0.183791
0.183653
0.183517
0.183381
0.183245
0.183111
0.182976
0.182842
0.182708
0.182575
0.182441
0.182308
0.182174
0.18204
0.181907
0.181773
0.18164
0.181506
0.181373
0.18124
0.181108
0.180976
0.180846
0.180717
0.18059
0.180464
0.180341
0.180217
0.180093
0.179963
0.179819
0.179646
0.179421
0.179096
0.178634
0.177861
-0.10914
-0.109854
-0.110716
-0.111807
-0.113177
-0.114848
-0.116818
-0.119083
-0.121631
-0.12445
-0.127522
-0.130826
-0.134337
-0.138028
-0.141867
-0.145822
-0.149855
-0.153927
-0.157994
-0.162012
-0.16593
-0.169695
-0.173251
-0.176536
-0.179487
-0.182035
-0.184107
-0.185627
-0.186517
-0.186697
-0.186086
-0.184608
-0.182185
-0.17875
-0.174245
-0.168634
-0.161899
-0.15405
-0.145123
-0.135186
-0.124332
-0.112676
-0.100355
-0.0875126
-0.074298
-0.0608575
-0.0473295
-0.0338395
-0.0204984
-0.00740061
0.00537582
0.0177686
0.0297299
0.0412247
0.052229
0.0627284
0.072716
0.0821912
0.0911582
0.0996253
0.107603
0.115105
0.122145
0.128739
0.134903
0.140652
0.146004
0.150974
0.155578
0.159832
0.163753
0.167354
0.170651
0.173659
0.176392
0.178865
0.181092
0.183087
0.184864
0.186436
0.187818
0.189021
0.19006
0.190946
0.191693
0.192312
0.192814
0.19321
0.193512
0.193728
0.193869
0.193943
0.193958
0.193921
0.193841
0.193723
0.193572
0.193395
0.193194
0.192976
0.192743
0.192497
0.192243
0.191983
0.191718
0.19145
0.191181
0.190912
0.190645
0.190379
0.190117
0.189858
0.189603
0.189352
0.189106
0.188865
0.18863
0.188399
0.188174
0.187955
0.18774
0.187531
0.187327
0.187129
0.186934
0.186745
0.18656
0.18638
0.186204
0.186031
0.185862
0.185697
0.185535
0.185377
0.185221
0.185067
0.184917
0.184768
0.184622
0.184478
0.184335
0.184194
0.184054
0.183916
0.183778
0.183642
0.183506
0.183371
0.183237
0.183103
0.182969
0.182835
0.182702
0.182568
0.182435
0.182301
0.182167
0.182033
0.181899
0.181764
0.181629
0.181494
0.181358
0.181222
0.181086
0.180949
0.180812
0.180675
0.180536
0.180396
0.180254
0.180107
0.179952