/*--------------------------------*- C++ -*----------------------------------*\
  =========                 |
  \\      /  F ield         | OpenFOAM: The Open Source CFD Toolbox
   \\    /   O peration     | Website:  https://openfoam.org
    \\  /    A nd           | Version:  6
     \\/     M anipulation  |
\*---------------------------------------------------------------------------*/
FoamFile
{
    version     2.0;
    format      ascii;
    class       surfaceScalarField;
    location    "0.09";
    object      phi;
}
// * * * * * * * * * * * * * * * * * * * * * * * * * * * * * * * * * * * * * //

dimensions      [0 3 -1 0 0 0 0];

internalField   nonuniform List<scalar> 
24170
(
3.25674e-07
-6.83367e-09
3.19439e-07
6.23508e-09
3.15871e-07
3.56782e-09
3.08842e-07
7.02945e-09
3.01957e-07
6.88537e-09
2.97053e-07
4.90344e-09
2.93859e-07
3.19377e-09
2.91666e-07
2.19371e-09
2.9003e-07
1.63551e-09
2.88755e-07
1.27481e-09
2.87744e-07
1.01129e-09
2.8694e-07
8.04455e-10
2.86314e-07
6.2598e-10
2.85858e-07
4.55205e-10
2.85606e-07
2.52304e-10
2.85538e-07
6.76493e-11
2.86166e-07
-6.27716e-10
-1.76238e-09
2.87929e-07
3.5038e-07
-1.54885e-08
3.47829e-07
8.7862e-09
3.44105e-07
7.29125e-09
3.42294e-07
8.84044e-09
3.40178e-07
9.00131e-09
3.37771e-07
7.31091e-09
3.35531e-07
5.43377e-09
3.3366e-07
4.06493e-09
3.32157e-07
3.13783e-09
3.30959e-07
2.47292e-09
3.30002e-07
1.96892e-09
3.29237e-07
1.56873e-09
3.28636e-07
1.22759e-09
3.28179e-07
9.11783e-10
3.27872e-07
5.59464e-10
3.27789e-07
1.50865e-10
3.27943e-07
-7.81595e-10
-2.06848e-09
3.28249e-07
3.63438e-07
-1.26748e-08
3.66574e-07
5.64996e-09
3.66757e-07
7.10874e-09
3.66963e-07
8.63449e-09
3.66642e-07
9.32217e-09
3.65719e-07
8.23342e-09
3.64522e-07
6.63124e-09
3.63324e-07
5.26249e-09
3.62257e-07
4.20504e-09
3.61354e-07
3.37628e-09
3.60609e-07
2.71329e-09
3.6001e-07
2.16774e-09
3.59544e-07
1.69354e-09
3.59205e-07
1.25065e-09
3.58991e-07
7.73919e-10
3.58929e-07
2.12602e-10
3.58889e-07
-7.41064e-10
-1.95508e-09
3.58775e-07
3.89241e-07
-9.37723e-09
3.91473e-07
3.4185e-09
3.92431e-07
6.15047e-09
3.93134e-07
7.93175e-09
3.93462e-07
8.99414e-09
3.93273e-07
8.42262e-09
3.92726e-07
7.1775e-09
3.92035e-07
5.95356e-09
3.9134e-07
4.90036e-09
3.90708e-07
4.00862e-09
3.90165e-07
3.25562e-09
3.89722e-07
2.61084e-09
3.8938e-07
2.03574e-09
3.89139e-07
1.49167e-09
3.88993e-07
9.20044e-10
3.88936e-07
2.69144e-10
3.88838e-07
-6.42772e-10
-1.71911e-09
3.88602e-07
4.18275e-07
-6.93905e-09
4.19431e-07
2.26233e-09
4.20344e-07
5.23738e-09
4.21148e-07
7.12753e-09
4.21765e-07
8.37708e-09
4.21996e-07
8.1913e-09
4.21889e-07
7.28468e-09
4.21588e-07
6.25516e-09
4.2121e-07
5.27818e-09
4.20828e-07
4.39077e-09
4.20482e-07
3.60144e-09
4.20195e-07
2.89809e-09
4.19977e-07
2.25372e-09
4.19832e-07
1.63644e-09
4.19752e-07
9.99843e-10
4.19717e-07
3.03916e-10
4.19621e-07
-5.46972e-10
-1.46936e-09
4.19372e-07
4.49042e-07
-5.07188e-09
4.49627e-07
1.67735e-09
4.50395e-07
4.46864e-09
4.51201e-07
6.32188e-09
4.51955e-07
7.62301e-09
4.52439e-07
7.70721e-09
4.52635e-07
7.08841e-09
4.52634e-07
6.25692e-09
4.52523e-07
5.38882e-09
4.52367e-07
4.54667e-09
4.52209e-07
3.75965e-09
4.52076e-07
3.03105e-09
4.51984e-07
2.34606e-09
4.51938e-07
1.6823e-09
4.5193e-07
1.0076e-09
4.51937e-07
2.97115e-10
4.51879e-07
-4.88972e-10
-1.27759e-09
4.51687e-07
4.81766e-07
-3.56563e-09
4.8208e-07
1.36343e-09
4.82713e-07
3.83521e-09
4.83476e-07
5.55848e-09
4.84281e-07
6.81841e-09
4.84913e-07
7.07527e-09
4.85318e-07
6.6833e-09
4.85545e-07
6.03014e-09
4.85655e-07
5.27895e-09
4.85698e-07
4.50321e-09
4.85714e-07
3.74379e-09
4.8573e-07
3.01524e-09
4.85762e-07
2.31368e-09
4.85818e-07
1.62674e-09
4.85889e-07
9.35992e-10
4.85956e-07
2.30652e-10
4.85963e-07
-4.96113e-10
-1.18472e-09
4.8587e-07
5.16759e-07
-2.3664e-09
5.16926e-07
1.19666e-09
5.17441e-07
3.31984e-09
5.1814e-07
4.85911e-09
5.18943e-07
6.01531e-09
5.19654e-07
6.36443e-09
5.202e-07
6.13788e-09
5.20598e-07
5.63232e-09
5.20885e-07
4.99103e-09
5.211e-07
4.28872e-09
5.21273e-07
3.57118e-09
5.21428e-07
2.8602e-09
5.21581e-07
2.1606e-09
5.21738e-07
1.4691e-09
5.21896e-07
7.7879e-10
5.22036e-07
8.97326e-11
5.22128e-07
-5.88157e-10
-1.21003e-09
5.22154e-07
5.54221e-07
-1.45325e-09
5.54301e-07
1.11598e-09
5.54722e-07
2.89894e-09
5.55353e-07
4.22796e-09
5.56127e-07
5.24192e-09
5.56871e-07
5.61966e-09
5.57507e-07
5.50228e-09
5.5803e-07
5.10981e-09
5.58458e-07
4.56289e-09
5.58815e-07
3.93147e-09
5.59125e-07
3.2615e-09
5.59406e-07
2.57862e-09
5.59673e-07
1.89391e-09
5.59931e-07
1.21126e-09
5.60177e-07
5.32338e-10
5.60403e-07
-1.35739e-10
5.60591e-07
-7.76694e-10
-1.35936e-09
5.60741e-07
5.94317e-07
-7.92951e-10
5.94358e-07
1.07534e-09
5.94712e-07
2.54463e-09
5.95283e-07
3.65767e-09
5.96014e-07
4.5101e-09
5.96765e-07
4.86903e-09
5.97455e-07
4.81272e-09
5.98065e-07
4.49947e-09
5.986e-07
4.02739e-09
5.99073e-07
3.45835e-09
5.995e-07
2.83543e-09
5.99893e-07
2.18544e-09
6.00263e-07
1.52331e-09
6.00617e-07
8.57919e-10
6.00953e-07
1.96478e-10
6.01267e-07
-4.50268e-10
6.01556e-07
-1.06554e-09
-1.62947e-09
6.01826e-07
6.37233e-07
-3.44713e-10
6.37267e-07
1.04082e-09
6.37583e-07
2.22881e-09
6.38106e-07
3.13454e-09
6.38795e-07
3.82137e-09
6.39536e-07
4.12838e-09
6.40254e-07
4.09436e-09
6.40924e-07
3.82989e-09
6.41539e-07
3.41229e-09
6.42103e-07
2.89402e-09
6.42625e-07
2.31354e-09
6.43114e-07
1.69685e-09
6.43576e-07
1.06066e-09
6.44018e-07
4.16687e-10
6.44439e-07
-2.24954e-10
6.44841e-07
-8.52481e-10
6.45227e-07
-1.45134e-09
-2.01009e-09
6.45608e-07
5.73838e-07
-9.93375e-11
5.73876e-07
1.0026e-09
5.74132e-07
1.97283e-09
5.74551e-07
2.71603e-09
5.75103e-07
3.26901e-09
5.75716e-07
3.51566e-09
5.76333e-07
3.4777e-09
5.76927e-07
3.235e-09
5.77491e-07
2.84884e-09
5.78021e-07
2.36378e-09
5.78521e-07
1.81383e-09
5.78994e-07
1.2233e-09
5.79446e-07
6.09108e-10
5.79879e-07
-1.6046e-11
5.80295e-07
-6.41117e-10
5.80697e-07
-1.2547e-09
5.8109e-07
-1.84479e-09
-2.40552e-09
5.81486e-07
6.99646e-07
7.06967e-11
6.99727e-07
9.21499e-10
7.00017e-07
1.68232e-09
7.00478e-07
2.25482e-09
7.01085e-07
2.66225e-09
7.0177e-07
2.83069e-09
7.02478e-07
2.76948e-09
7.0318e-07
2.53314e-09
7.03861e-07
2.16815e-09
7.04514e-07
1.71047e-09
7.05139e-07
1.18872e-09
7.05738e-07
6.24527e-10
7.06313e-07
3.39435e-11
7.06868e-07
-5.70436e-10
7.07404e-07
-1.17779e-09
7.07928e-07
-1.77795e-09
7.08445e-07
-2.36194e-09
-2.92826e-09
7.08967e-07
8.52999e-07
1.56227e-10
8.53138e-07
7.82547e-10
8.53481e-07
1.33938e-09
8.53996e-07
1.73948e-09
8.54662e-07
1.99647e-09
8.55421e-07
2.07199e-09
8.56221e-07
1.96899e-09
8.57032e-07
1.72251e-09
8.57834e-07
1.36624e-09
8.58617e-07
9.27657e-10
8.59376e-07
4.29504e-10
8.60111e-07
-1.10124e-10
8.60822e-07
-6.77092e-10
8.61511e-07
-1.26e-09
8.62183e-07
-1.84923e-09
8.62841e-07
-2.43641e-09
8.63494e-07
-3.01531e-09
-3.5873e-09
8.64153e-07
1.03992e-06
1.5954e-10
1.04013e-06
5.7452e-10
1.04054e-06
9.26886e-10
1.04112e-06
1.15457e-09
1.04186e-06
1.26224e-09
1.04269e-06
1.23533e-09
1.04359e-06
1.07565e-09
1.04451e-06
8.04449e-10
1.04543e-06
4.44826e-10
1.04634e-06
1.65852e-11
1.04723e-06
-4.63396e-10
1.0481e-06
-9.81094e-10
1.04895e-06
-1.52509e-09
1.04978e-06
-2.08601e-09
1.05058e-06
-2.65603e-09
1.05138e-06
-3.22867e-09
1.05216e-06
-3.79978e-09
-4.37204e-09
1.05294e-06
1.26774e-06
9.54067e-11
1.26802e-06
2.92677e-10
1.26852e-06
4.34854e-10
1.26918e-06
4.86936e-10
1.27e-06
4.4784e-10
1.27092e-06
3.14353e-10
1.27191e-06
8.87733e-11
1.27293e-06
-2.16845e-10
1.27396e-06
-5.88074e-10
1.27499e-06
-1.01189e-09
1.276e-06
-1.47694e-09
1.277e-06
-1.97341e-09
1.27796e-06
-2.49304e-09
1.27891e-06
-3.02884e-09
1.27983e-06
-3.57497e-09
1.28072e-06
-4.12659e-09
1.2816e-06
-4.68077e-09
-5.24034e-09
1.28247e-06
1.54543e-06
-1.53608e-11
1.54578e-06
-5.62724e-11
1.54635e-06
-1.35276e-10
1.5471e-06
-2.67144e-10
1.548e-06
-4.53547e-10
1.54901e-06
-6.94789e-10
1.55009e-06
-9.89495e-10
1.55121e-06
-1.33231e-09
1.55233e-06
-1.71627e-09
1.55346e-06
-2.13468e-09
1.55456e-06
-2.58144e-09
1.55564e-06
-3.05099e-09
1.55668e-06
-3.53828e-09
1.55769e-06
-4.03883e-09
1.55867e-06
-4.5486e-09
1.55961e-06
-5.06408e-09
1.56051e-06
-5.58299e-09
-6.10765e-09
1.56138e-06
1.8839e-06
-1.51679e-10
1.8843e-06
-4.52941e-10
1.88493e-06
-7.69155e-10
1.88576e-06
-1.09856e-09
1.88675e-06
-1.43778e-09
1.88784e-06
-1.78765e-09
1.889e-06
-2.14968e-09
1.89019e-06
-2.52449e-09
1.89139e-06
-2.91239e-09
1.89257e-06
-3.31342e-09
1.89371e-06
-3.72704e-09
1.89481e-06
-4.15213e-09
1.89586e-06
-4.58711e-09
1.89685e-06
-5.03004e-09
1.89778e-06
-5.47875e-09
1.89865e-06
-5.93092e-09
1.89945e-06
-6.38482e-09
-6.84214e-09
1.90019e-06
2.29647e-06
-2.84427e-10
2.29687e-06
-8.54005e-10
2.29753e-06
-1.4343e-09
2.29842e-06
-1.98583e-09
2.29947e-06
-2.49255e-09
2.30064e-06
-2.95691e-09
2.30188e-06
-3.38248e-09
2.30313e-06
-3.77574e-09
2.30436e-06
-4.14603e-09
2.30555e-06
-4.502e-09
2.30667e-06
-4.85009e-09
2.30772e-06
-5.19474e-09
2.30867e-06
-5.5387e-09
2.30952e-06
-5.88331e-09
2.31027e-06
-6.22874e-09
2.31091e-06
-6.57433e-09
2.31145e-06
-6.91922e-09
-7.26508e-09
2.31187e-06
1.6811e-06
-3.09426e-10
1.68127e-06
-1.03232e-09
1.68166e-06
-1.82361e-09
1.68223e-06
-2.5537e-09
1.68293e-06
-3.19612e-09
1.68373e-06
-3.75296e-09
1.68457e-06
-4.22282e-09
1.68541e-06
-4.61718e-09
1.68622e-06
-4.95581e-09
1.68698e-06
-5.25631e-09
1.68766e-06
-5.53191e-09
1.68826e-06
-5.79239e-09
1.68876e-06
-6.04466e-09
1.68917e-06
-6.29308e-09
1.68948e-06
-6.53997e-09
1.68969e-06
-6.78613e-09
1.68981e-06
-7.03161e-09
-7.27805e-09
1.68982e-06
1.46333e-06
-1.82409e-10
1.46332e-06
-1.0246e-09
1.46357e-06
-2.07213e-09
1.46402e-06
-3.00461e-09
1.46463e-06
-3.80732e-09
1.46535e-06
-4.47277e-09
1.46611e-06
-4.98382e-09
1.46686e-06
-5.36374e-09
1.46756e-06
-5.65072e-09
1.46817e-06
-5.875e-09
1.4687e-06
-6.0585e-09
1.46913e-06
-6.21774e-09
1.46945e-06
-6.36442e-09
1.46966e-06
-6.50608e-09
1.46977e-06
-6.64706e-09
1.46977e-06
-6.78944e-09
1.46967e-06
-6.9339e-09
-7.08198e-09
1.46948e-06
1.2736e-06
2.32796e-10
1.27337e-06
-8.00489e-10
1.27353e-06
-2.22497e-09
1.27393e-06
-3.40991e-09
1.27455e-06
-4.42167e-09
1.27529e-06
-5.21578e-09
1.27606e-06
-5.75113e-09
1.27678e-06
-6.08393e-09
1.27741e-06
-6.28462e-09
1.27794e-06
-6.40074e-09
1.27834e-06
-6.46517e-09
1.27863e-06
-6.50232e-09
1.27879e-06
-6.52876e-09
1.27884e-06
-6.55458e-09
1.27878e-06
-6.58533e-09
1.27861e-06
-6.62356e-09
1.27835e-06
-6.66988e-09
-6.72518e-09
1.27799e-06
1.10822e-06
1.10898e-09
1.10778e-06
-3.64199e-10
1.10792e-06
-2.36411e-09
1.10838e-06
-3.86732e-09
1.1091e-06
-5.14489e-09
1.10995e-06
-6.06346e-09
1.11077e-06
-6.56988e-09
1.11148e-06
-6.79408e-09
1.11205e-06
-6.85498e-09
1.11247e-06
-6.82022e-09
1.11274e-06
-6.73443e-09
1.11286e-06
-6.62941e-09
1.11286e-06
-6.52494e-09
1.11274e-06
-6.43162e-09
1.11251e-06
-6.35439e-09
1.11218e-06
-6.29476e-09
1.11176e-06
-6.25212e-09
-6.22591e-09
1.11126e-06
9.6402e-07
2.61043e-09
9.63439e-07
2.17155e-10
9.63679e-07
-2.60414e-09
9.64299e-07
-4.48782e-09
9.65223e-07
-6.06903e-09
9.66211e-07
-7.05143e-09
9.67066e-07
-7.42428e-09
9.6772e-07
-7.4484e-09
9.68167e-07
-7.30232e-09
9.68419e-07
-7.07155e-09
9.68494e-07
-6.80956e-09
9.68416e-07
-6.55178e-09
9.68208e-07
-6.31692e-09
9.67889e-07
-6.11244e-09
9.67475e-07
-5.93992e-09
9.66978e-07
-5.79792e-09
9.66409e-07
-5.68326e-09
-5.59314e-09
9.65776e-07
8.38121e-07
5.02462e-09
8.37665e-07
6.7282e-10
8.38189e-07
-3.1279e-09
8.3908e-07
-5.37847e-09
8.40246e-07
-7.23567e-09
8.41333e-07
-8.1376e-09
8.4213e-07
-8.22168e-09
8.42618e-07
-7.93618e-09
8.42833e-07
-7.51739e-09
8.4282e-07
-7.05866e-09
8.42624e-07
-6.61336e-09
8.42284e-07
-6.21216e-09
8.41833e-07
-5.86584e-09
8.41295e-07
-5.57391e-09
8.40686e-07
-5.33152e-09
8.40021e-07
-5.13255e-09
8.39308e-07
-4.97033e-09
-4.83929e-09
8.38554e-07
7.27616e-07
9.13688e-09
7.28051e-07
2.37848e-10
7.29166e-07
-4.24241e-09
7.30428e-07
-6.64068e-09
7.31802e-07
-8.6096e-09
7.32844e-07
-9.18002e-09
7.33406e-07
-8.78341e-09
7.33554e-07
-8.08412e-09
7.3339e-07
-7.35311e-09
7.33e-07
-6.66942e-09
7.32455e-07
-6.06839e-09
7.31806e-07
-5.56272e-09
7.31087e-07
-5.14701e-09
7.30322e-07
-4.80835e-09
7.29524e-07
-4.53353e-09
7.28702e-07
-4.31112e-09
7.27863e-07
-4.13122e-09
-3.9855e-09
7.27009e-07
6.30206e-07
1.59375e-08
6.32695e-07
-2.25119e-09
6.34609e-07
-6.15608e-09
6.36291e-07
-8.3231e-09
6.37729e-07
-1.00478e-08
6.38462e-07
-9.91228e-09
6.38509e-07
-8.83093e-09
6.38082e-07
-7.65708e-09
6.37367e-07
-6.63813e-09
6.36493e-07
-5.79496e-09
6.3554e-07
-5.1158e-09
6.34557e-07
-4.58006e-09
6.33571e-07
-4.16018e-09
6.32592e-07
-3.82971e-09
6.31626e-07
-3.56797e-09
6.30675e-07
-3.35986e-09
6.29738e-07
-3.19385e-09
-3.05977e-09
6.28812e-07
5.47183e-07
2.33005e-08
5.51785e-07
-6.85293e-09
5.53428e-07
-7.79894e-09
5.5505e-07
-9.94504e-09
5.56035e-07
-1.10331e-08
5.55917e-07
-9.79376e-09
5.55e-07
-7.91373e-09
5.53684e-07
-6.34155e-09
5.52234e-07
-5.18855e-09
5.50787e-07
-4.34747e-09
5.494e-07
-3.72857e-09
5.48091e-07
-3.27145e-09
5.46861e-07
-2.92994e-09
5.45701e-07
-2.66987e-09
5.44602e-07
-2.46854e-09
5.43554e-07
-2.31204e-09
5.42551e-07
-2.19066e-09
-2.0957e-09
5.41586e-07
4.91611e-07
1.44501e-08
4.90676e-07
-5.9174e-09
4.87197e-07
-4.32005e-09
4.86167e-07
-8.91537e-09
4.84629e-07
-9.49509e-09
4.82169e-07
-7.33341e-09
4.79377e-07
-5.12191e-09
4.76703e-07
-3.66813e-09
4.74319e-07
-2.8045e-09
4.72239e-07
-2.26708e-09
4.70421e-07
-1.91063e-09
4.68815e-07
-1.66547e-09
4.67376e-07
-1.49102e-09
4.66068e-07
-1.36185e-09
4.64863e-07
-1.26364e-09
4.63742e-07
-1.19088e-09
4.62696e-07
-1.14466e-09
-1.1697e-09
4.6177e-07
4.34718e-07
4.288e-07
4.2448e-07
4.15565e-07
4.0607e-07
3.98736e-07
3.93614e-07
3.89946e-07
3.87142e-07
3.84875e-07
3.82964e-07
3.81299e-07
3.79808e-07
3.78446e-07
3.77182e-07
3.75991e-07
3.74847e-07
3.73677e-07
1.54498e-08
-1.54498e-08
1.87815e-08
-3.33175e-09
1.19178e-08
6.8637e-09
-1.44228e-09
1.33601e-08
-1.82983e-08
1.6856e-08
-3.7184e-08
1.88857e-08
-5.74054e-08
2.02214e-08
-7.86268e-08
2.12214e-08
-1.00647e-07
2.20197e-08
-1.23295e-07
2.26482e-08
-1.46393e-07
2.30984e-08
-1.69746e-07
2.33527e-08
-1.93143e-07
2.33969e-08
-2.16368e-07
2.32251e-08
-2.39209e-07
2.28409e-08
-2.61464e-07
2.22555e-08
-2.8295e-07
2.1486e-08
-3.03504e-07
2.05533e-08
-3.22983e-07
1.94795e-08
-3.4127e-07
1.82868e-08
-3.58266e-07
1.69958e-08
-3.7389e-07
1.56246e-08
-3.88079e-07
1.41886e-08
-4.00779e-07
1.27002e-08
-4.11948e-07
1.11691e-08
-4.21551e-07
9.60272e-09
-4.29557e-07
8.00638e-09
-4.35942e-07
6.38427e-09
-4.40681e-07
4.73946e-09
-4.43759e-07
3.07793e-09
-4.45184e-07
1.42506e-09
-4.45022e-07
-1.62142e-10
-4.4338e-07
-1.64145e-09
-4.40348e-07
-3.03242e-09
-4.35974e-07
-4.37395e-09
-4.30289e-07
-5.68554e-09
-4.23314e-07
-6.97463e-09
-4.15071e-07
-8.24245e-09
-4.05585e-07
-9.4868e-09
-3.94881e-07
-1.07035e-08
-3.82994e-07
-1.18871e-08
-3.69962e-07
-1.30318e-08
-3.55831e-07
-1.41313e-08
-3.40651e-07
-1.51795e-08
-3.24481e-07
-1.61705e-08
-3.07382e-07
-1.70987e-08
-2.89423e-07
-1.79592e-08
-2.70675e-07
-1.87477e-08
-2.51215e-07
-1.94606e-08
-2.31119e-07
-2.00953e-08
-2.10469e-07
-2.06499e-08
-1.89346e-07
-2.1123e-08
-1.67832e-07
-2.15142e-08
-1.46009e-07
-2.18232e-08
-1.23959e-07
-2.20499e-08
-1.01765e-07
-2.2194e-08
-7.95109e-08
-2.22543e-08
-5.72825e-08
-2.22284e-08
-3.51639e-08
-2.21186e-08
-1.32146e-08
-2.19493e-08
8.57232e-09
-2.17869e-08
3.01709e-08
-2.15986e-08
5.1501e-08
-2.13301e-08
7.25064e-08
-2.10054e-08
9.31411e-08
-2.06347e-08
1.13365e-07
-2.02243e-08
1.33144e-07
-1.97785e-08
1.52445e-07
-1.93011e-08
1.7124e-07
-1.8795e-08
1.89503e-07
-1.8263e-08
2.07211e-07
-1.77077e-08
2.24342e-07
-1.71316e-08
2.40879e-07
-1.65371e-08
2.56806e-07
-1.59264e-08
2.72108e-07
-1.53019e-08
2.86773e-07
-1.46657e-08
3.00794e-07
-1.40202e-08
3.14161e-07
-1.33676e-08
3.26872e-07
-1.27103e-08
3.38922e-07
-1.20507e-08
3.50314e-07
-1.13913e-08
3.61048e-07
-1.07344e-08
3.71131e-07
-1.00827e-08
3.80569e-07
-9.43867e-09
3.89374e-07
-8.80478e-09
3.97558e-07
-8.1835e-09
4.05135e-07
-7.57718e-09
4.12123e-07
-6.98805e-09
4.18541e-07
-6.41818e-09
4.2441e-07
-5.86943e-09
4.29754e-07
-5.34345e-09
4.34596e-07
-4.84164e-09
4.38961e-07
-4.36511e-09
4.42875e-07
-3.91471e-09
4.46366e-07
-3.49095e-09
4.4946e-07
-3.09408e-09
4.52184e-07
-2.72403e-09
4.54565e-07
-2.3805e-09
4.56628e-07
-2.06294e-09
4.58399e-07
-1.77059e-09
4.59901e-07
-1.50256e-09
4.61159e-07
-1.25774e-09
4.62194e-07
-1.03497e-09
4.63027e-07
-8.32946e-10
4.63677e-07
-6.50214e-10
4.64162e-07
-4.8501e-10
4.64497e-07
-3.35552e-10
4.64694e-07
-1.96216e-10
4.64749e-07
-5.55503e-11
4.64669e-07
8.01605e-11
4.64476e-07
1.93448e-10
4.64193e-07
2.82954e-10
4.63838e-07
3.54446e-10
4.63426e-07
4.12454e-10
4.62966e-07
4.5999e-10
4.62466e-07
4.99331e-10
4.61934e-07
5.32127e-10
4.61375e-07
5.59578e-10
4.60792e-07
5.82524e-10
4.60191e-07
6.01669e-10
4.59573e-07
6.17545e-10
4.58942e-07
6.3063e-10
4.58301e-07
6.4131e-10
4.57651e-07
6.49942e-10
4.56994e-07
6.56822e-10
4.56332e-07
6.62215e-10
4.55666e-07
6.66376e-10
4.54996e-07
6.69496e-10
4.54324e-07
6.71768e-10
4.53651e-07
6.73355e-10
4.52977e-07
6.74385e-10
4.52302e-07
6.74996e-10
4.51626e-07
6.75277e-10
4.50951e-07
6.75333e-10
4.50276e-07
6.7524e-10
4.49601e-07
6.75074e-10
4.48926e-07
6.74881e-10
4.48251e-07
6.74737e-10
4.47577e-07
6.7467e-10
4.46902e-07
6.74721e-10
4.46227e-07
6.74927e-10
4.45552e-07
6.75309e-10
4.44876e-07
6.75898e-10
4.44199e-07
6.76703e-10
4.43521e-07
6.77746e-10
4.42842e-07
6.79041e-10
4.42162e-07
6.80616e-10
4.41479e-07
6.82492e-10
4.40794e-07
6.84702e-10
4.40107e-07
6.87268e-10
4.39417e-07
6.90218e-10
4.38723e-07
6.936e-10
4.38026e-07
6.97459e-10
4.37324e-07
7.0184e-10
4.36617e-07
7.06825e-10
4.35905e-07
7.12498e-10
4.35186e-07
7.18983e-10
4.34459e-07
7.26418e-10
4.33724e-07
7.35e-10
4.32979e-07
7.44976e-10
4.32223e-07
7.56686e-10
4.31452e-07
7.70559e-10
4.30665e-07
7.87183e-10
4.29858e-07
8.07325e-10
4.29026e-07
8.32039e-10
4.28163e-07
8.62742e-10
4.27261e-07
9.01376e-10
4.26311e-07
9.50671e-10
4.25296e-07
1.01449e-09
4.24198e-07
1.09845e-09
4.22987e-07
1.21096e-09
4.21622e-07
1.36506e-09
4.2004e-07
1.58206e-09
4.18141e-07
1.89838e-09
4.15758e-07
2.3835e-09
4.12589e-07
3.16903e-09
4.08e-07
4.58845e-09
4.00791e-07
7.2094e-09
3.87313e-07
1.34781e-08
2.37791e-08
3.63534e-07
-8.34947e-09
-7.1003e-09
-2.15807e-08
9.89953e-09
-3.61252e-08
2.14081e-08
-5.26539e-08
2.98888e-08
-7.15959e-08
3.5798e-08
-9.2496e-08
3.97858e-08
-1.14723e-07
4.24487e-08
-1.37692e-07
4.41904e-08
-1.6092e-07
4.52474e-08
-1.84019e-07
4.57475e-08
-2.0668e-07
4.57594e-08
-2.28654e-07
4.53269e-08
-2.49745e-07
4.44875e-08
-2.698e-07
4.32805e-08
-2.88708e-07
4.17489e-08
-3.06391e-07
3.99386e-08
-3.22801e-07
3.78959e-08
-3.37913e-07
3.56652e-08
-3.51721e-07
3.32875e-08
-3.64233e-07
3.07987e-08
-3.75467e-07
2.82291e-08
-3.85445e-07
2.56031e-08
-3.94197e-07
2.29401e-08
-4.01751e-07
2.02546e-08
-4.08139e-07
1.75573e-08
-4.13393e-07
1.48564e-08
-4.17545e-07
1.2158e-08
-4.20628e-07
9.46797e-09
-4.22682e-07
6.7931e-09
-4.23747e-07
4.14324e-09
-4.2385e-07
1.52796e-09
-4.22956e-07
-1.05617e-09
-4.20971e-07
-3.62625e-09
-4.17814e-07
-6.1898e-09
-4.13445e-07
-8.74283e-09
-4.0785e-07
-1.12804e-08
-4.01029e-07
-1.3796e-08
-3.9299e-07
-1.62813e-08
-3.8375e-07
-1.87264e-08
-3.73334e-07
-2.11202e-08
-3.6177e-07
-2.34506e-08
-3.49097e-07
-2.57051e-08
-3.35357e-07
-2.7871e-08
-3.20601e-07
-2.99359e-08
-3.04883e-07
-3.18882e-08
-2.88265e-07
-3.37169e-08
-2.70812e-07
-3.54122e-08
-2.52594e-07
-3.6966e-08
-2.33683e-07
-3.83714e-08
-2.14155e-07
-3.96234e-08
-1.94086e-07
-4.07185e-08
-1.73554e-07
-4.16548e-08
-1.52636e-07
-4.24322e-08
-1.31408e-07
-4.30517e-08
-1.09942e-07
-4.35155e-08
-8.83096e-08
-4.38266e-08
-6.65751e-08
-4.39889e-08
-4.47965e-08
-4.4007e-08
-2.30257e-08
-4.38893e-08
-1.32071e-09
-4.36543e-08
2.02136e-08
-4.33213e-08
4.15053e-08
-4.28903e-08
6.25339e-08
-4.23587e-08
8.32636e-08
-4.17352e-08
1.03658e-07
-4.10287e-08
1.2368e-07
-4.0247e-08
1.43299e-07
-3.93968e-08
1.62482e-07
-3.84846e-08
1.81203e-07
-3.7516e-08
1.99437e-07
-3.64964e-08
2.1716e-07
-3.5431e-08
2.34353e-07
-3.43246e-08
2.50997e-07
-3.31816e-08
2.67078e-07
-3.20066e-08
2.8258e-07
-3.08038e-08
2.97491e-07
-2.95775e-08
3.11803e-07
-2.83319e-08
3.25507e-07
-2.70713e-08
3.38596e-07
-2.57999e-08
3.51068e-07
-2.45222e-08
3.62919e-07
-2.32426e-08
3.7415e-07
-2.19658e-08
3.84764e-07
-2.06962e-08
3.94764e-07
-1.94387e-08
4.04157e-07
-1.81977e-08
4.12951e-07
-1.69778e-08
4.21158e-07
-1.57836e-08
4.28789e-07
-1.46193e-08
4.3586e-07
-1.34889e-08
4.42386e-07
-1.23961e-08
4.48387e-07
-1.13442e-08
4.53882e-07
-1.03362e-08
4.58891e-07
-9.37451e-09
4.63437e-07
-8.46102e-09
4.67544e-07
-7.59715e-09
4.71233e-07
-6.78377e-09
4.74531e-07
-6.0212e-09
4.77459e-07
-5.30932e-09
4.80044e-07
-4.64748e-09
4.82308e-07
-4.0347e-09
4.84275e-07
-3.46957e-09
4.85968e-07
-2.95039e-09
4.87408e-07
-2.47517e-09
4.88617e-07
-2.04171e-09
4.89614e-07
-1.64756e-09
4.90419e-07
-1.29008e-09
4.9105e-07
-9.66556e-10
4.91527e-07
-6.73554e-10
4.91879e-07
-4.07171e-10
4.92123e-07
-1.6382e-10
4.9226e-07
5.60845e-11
4.92293e-07
2.49921e-10
4.92229e-07
4.18397e-10
4.92078e-07
5.64097e-10
4.91848e-07
6.89712e-10
4.9155e-07
7.97844e-10
4.91191e-07
8.90821e-10
4.9078e-07
9.70656e-10
4.90323e-07
1.03908e-09
4.89827e-07
1.09757e-09
4.89297e-07
1.1474e-09
4.88738e-07
1.18969e-09
4.88154e-07
1.22542e-09
4.87549e-07
1.25545e-09
4.86925e-07
1.28057e-09
4.86286e-07
1.30143e-09
4.85634e-07
1.31865e-09
4.8497e-07
1.33276e-09
4.84298e-07
1.34423e-09
4.83618e-07
1.35349e-09
4.82931e-07
1.3609e-09
4.82239e-07
1.36679e-09
4.81543e-07
1.37144e-09
4.80843e-07
1.37511e-09
4.80141e-07
1.37801e-09
4.79435e-07
1.38033e-09
4.78728e-07
1.38227e-09
4.78019e-07
1.38394e-09
4.77308e-07
1.38549e-09
4.76596e-07
1.38702e-09
4.75882e-07
1.38864e-09
4.75167e-07
1.39041e-09
4.7445e-07
1.39242e-09
4.73732e-07
1.39472e-09
4.73013e-07
1.39738e-09
4.72291e-07
1.40044e-09
4.71568e-07
1.40396e-09
4.70842e-07
1.40798e-09
4.70115e-07
1.41259e-09
4.69384e-07
1.41782e-09
4.68651e-07
1.42374e-09
4.67914e-07
1.43044e-09
4.67173e-07
1.43798e-09
4.66429e-07
1.4465e-09
4.65679e-07
1.45609e-09
4.64925e-07
1.46695e-09
4.64165e-07
1.47924e-09
4.63398e-07
1.49326e-09
4.62623e-07
1.50933e-09
4.6184e-07
1.52789e-09
4.61048e-07
1.54952e-09
4.60243e-07
1.57495e-09
4.59425e-07
1.60522e-09
4.58591e-07
1.64163e-09
4.57737e-07
1.68597e-09
4.56859e-07
1.74066e-09
4.55951e-07
1.80898e-09
4.55007e-07
1.89552e-09
4.54014e-07
2.00668e-09
4.52961e-07
2.15168e-09
4.51828e-07
2.34411e-09
4.50589e-07
2.60455e-09
4.49205e-07
2.96576e-09
4.47622e-07
3.48154e-09
4.45755e-07
4.24967e-09
4.43481e-07
5.44402e-09
4.40594e-07
7.47507e-09
4.36795e-07
1.10083e-08
4.31609e-07
1.8664e-08
3.28885e-08
4.225e-07
-2.10034e-08
1.3903e-08
-4.03903e-08
2.92865e-08
-5.87245e-08
3.97423e-08
-7.67137e-08
4.7878e-08
-9.49961e-08
5.40804e-08
-1.13796e-07
5.85859e-08
-1.33014e-07
6.16664e-08
-1.52401e-07
6.35779e-08
-1.71684e-07
6.45302e-08
-1.9062e-07
6.4683e-08
-2.09017e-07
6.41572e-08
-2.2674e-07
6.30491e-08
-2.43693e-07
6.14409e-08
-2.5982e-07
5.9407e-08
-2.75087e-07
5.70161e-08
-2.89479e-07
5.4331e-08
-3.02992e-07
5.14088e-08
-3.15626e-07
4.82991e-08
-3.27383e-07
4.50444e-08
-3.38264e-07
4.16797e-08
-3.48268e-07
3.82329e-08
-3.5739e-07
3.47254e-08
-3.65623e-07
3.11732e-08
-3.72956e-07
2.75877e-08
-3.79376e-07
2.39769e-08
-3.84865e-07
2.03462e-08
-3.89407e-07
1.66994e-08
-3.92978e-07
1.30391e-08
-3.95553e-07
9.3681e-09
-3.97098e-07
5.68814e-09
-3.97569e-07
1.99921e-09
-3.96922e-07
-1.70287e-09
-3.95127e-07
-5.42119e-09
-3.92165e-07
-9.15193e-09
-3.88022e-07
-1.28863e-08
-3.8269e-07
-1.66124e-08
-3.76169e-07
-2.03166e-08
-3.68467e-07
-2.39833e-08
-3.59598e-07
-2.75955e-08
-3.49583e-07
-3.1135e-08
-3.38451e-07
-3.45829e-08
-3.26236e-07
-3.79196e-08
-3.12982e-07
-4.11258e-08
-2.98735e-07
-4.41827e-08
-2.83551e-07
-4.70725e-08
-2.67488e-07
-4.9779e-08
-2.50613e-07
-5.22878e-08
-2.32992e-07
-5.45865e-08
-2.14698e-07
-5.66654e-08
-1.95805e-07
-5.85172e-08
-1.76386e-07
-6.01371e-08
-1.56518e-07
-6.15232e-08
-1.36274e-07
-6.26756e-08
-1.15729e-07
-6.35969e-08
-9.49528e-08
-6.42918e-08
-7.40127e-08
-6.47667e-08
-5.2972e-08
-6.50296e-08
-3.18888e-08
-6.50902e-08
-1.08176e-08
-6.49605e-08
1.01804e-08
-6.46523e-08
3.10381e-08
-6.4179e-08
5.17017e-08
-6.35538e-08
7.21298e-08
-6.27867e-08
9.22833e-08
-6.18886e-08
1.12125e-07
-6.08704e-08
1.31621e-07
-5.97426e-08
1.50739e-07
-5.85148e-08
1.6945e-07
-5.71961e-08
1.87729e-07
-5.5795e-08
2.05552e-07
-5.43195e-08
2.22898e-07
-5.27769e-08
2.39748e-07
-5.11742e-08
2.56084e-07
-4.95181e-08
2.71892e-07
-4.78148e-08
2.87159e-07
-4.60705e-08
3.01873e-07
-4.42913e-08
3.16024e-07
-4.2483e-08
3.29604e-07
-4.06515e-08
3.42607e-07
-3.88031e-08
3.55029e-07
-3.69436e-08
3.66866e-07
-3.50795e-08
3.78117e-07
-3.32169e-08
3.88783e-07
-3.13623e-08
3.98866e-07
-2.95222e-08
4.08372e-07
-2.77032e-08
4.17306e-07
-2.59116e-08
4.25676e-07
-2.41538e-08
4.33492e-07
-2.24359e-08
4.40767e-07
-2.07637e-08
4.47514e-07
-1.91428e-08
4.53747e-07
-1.7578e-08
4.59485e-07
-1.60738e-08
4.64745e-07
-1.4634e-08
4.69545e-07
-1.32618e-08
4.73908e-07
-1.19595e-08
4.77853e-07
-1.07289e-08
4.81403e-07
-9.57086e-09
4.84579e-07
-8.48565e-09
4.87404e-07
-7.47287e-09
4.89901e-07
-6.53147e-09
4.92091e-07
-5.65989e-09
4.93997e-07
-4.85602e-09
4.95639e-07
-4.11736e-09
4.97039e-07
-3.44104e-09
4.98215e-07
-2.8239e-09
4.99187e-07
-2.26252e-09
4.99974e-07
-1.75339e-09
5.00594e-07
-1.29293e-09
5.01064e-07
-8.77321e-10
5.01402e-07
-5.02124e-10
5.01622e-07
-1.63991e-10
5.01734e-07
1.38431e-10
5.01745e-07
4.06697e-10
5.01666e-07
6.43234e-10
5.01505e-07
8.50816e-10
5.01271e-07
1.0323e-09
5.00971e-07
1.19047e-09
5.00614e-07
1.32796e-09
5.00206e-07
1.4471e-09
4.99753e-07
1.55006e-09
4.99262e-07
1.63876e-09
4.98737e-07
1.71491e-09
4.98182e-07
1.78005e-09
4.97602e-07
1.83556e-09
4.97e-07
1.88267e-09
4.96379e-07
1.92248e-09
4.95741e-07
1.95597e-09
4.9509e-07
1.98402e-09
4.94427e-07
2.00742e-09
4.93754e-07
2.02684e-09
4.93072e-07
2.0429e-09
4.92382e-07
2.05615e-09
4.91687e-07
2.06706e-09
4.90986e-07
2.07607e-09
4.9028e-07
2.08353e-09
4.89571e-07
2.0898e-09
4.88858e-07
2.09514e-09
4.88142e-07
2.09983e-09
4.87423e-07
2.10407e-09
4.86702e-07
2.10806e-09
4.85979e-07
2.11197e-09
4.85253e-07
2.11595e-09
4.84526e-07
2.12011e-09
4.83796e-07
2.12457e-09
4.83064e-07
2.12945e-09
4.82329e-07
2.13482e-09
4.81593e-07
2.14078e-09
4.80853e-07
2.14744e-09
4.80111e-07
2.15486e-09
4.79365e-07
2.16316e-09
4.78617e-07
2.17242e-09
4.77864e-07
2.18276e-09
4.77108e-07
2.19431e-09
4.76347e-07
2.20723e-09
4.75582e-07
2.2217e-09
4.74811e-07
2.23796e-09
4.74034e-07
2.2563e-09
4.7325e-07
2.27711e-09
4.72458e-07
2.30087e-09
4.71658e-07
2.32821e-09
4.70848e-07
2.35994e-09
4.70025e-07
2.39715e-09
4.69189e-07
2.44126e-09
4.68337e-07
2.49417e-09
4.67464e-07
2.5584e-09
4.66568e-07
2.63736e-09
4.65641e-07
2.73571e-09
4.64677e-07
2.85986e-09
4.63665e-07
3.01878e-09
4.62591e-07
3.22525e-09
4.61437e-07
3.49792e-09
4.60177e-07
3.86472e-09
4.58774e-07
4.36914e-09
4.57174e-07
5.08115e-09
4.55302e-07
6.12199e-09
4.53045e-07
7.70108e-09
4.50262e-07
1.02582e-08
4.46756e-07
1.45138e-08
4.42814e-07
2.26064e-08
3.68021e-08
4.389e-07
-2.3832e-08
3.7735e-08
-4.51867e-08
5.06413e-08
-6.47379e-08
5.92934e-08
-8.30389e-08
6.6179e-08
-1.00584e-07
7.1626e-08
-1.17704e-07
7.57052e-08
-1.34545e-07
7.85077e-08
-1.51127e-07
8.01598e-08
-1.674e-07
8.08029e-08
-1.83292e-07
8.0575e-08
-1.98736e-07
7.96019e-08
-2.13682e-07
7.79946e-08
-2.28092e-07
7.58511e-08
-2.41943e-07
7.32577e-08
-2.55217e-07
7.02902e-08
-2.67901e-07
6.70149e-08
-2.7998e-07
6.34883e-08
-2.91439e-07
5.97582e-08
-3.02259e-07
5.58636e-08
-3.12415e-07
5.18359e-08
-3.21881e-07
4.76994e-08
-3.30628e-07
4.34722e-08
-3.38623e-07
3.91676e-08
-3.4583e-07
3.47948e-08
-3.52213e-07
3.03598e-08
-3.57733e-07
2.58665e-08
-3.62351e-07
2.13176e-08
-3.66027e-07
1.67149e-08
-3.68719e-07
1.20601e-08
-3.70386e-07
7.35504e-09
-3.70988e-07
2.60178e-09
-3.70494e-07
-2.19709e-09
-3.68879e-07
-7.03626e-09
-3.66125e-07
-1.19062e-08
-3.62218e-07
-1.67932e-08
-3.5715e-07
-2.16799e-08
-3.50921e-07
-2.65465e-08
-3.43533e-07
-3.13707e-08
-3.35e-07
-3.61284e-08
-3.25341e-07
-4.07939e-08
-3.14583e-07
-4.53408e-08
-3.02761e-07
-4.9742e-08
-2.89916e-07
-5.39711e-08
-2.76096e-07
-5.80023e-08
-2.61357e-07
-6.18116e-08
-2.45759e-07
-6.53772e-08
-2.29367e-07
-6.86798e-08
-2.1225e-07
-7.17034e-08
-1.9448e-07
-7.44352e-08
-1.76131e-07
-7.68661e-08
-1.57278e-07
-7.89906e-08
-1.37994e-07
-8.08065e-08
-1.18354e-07
-8.23153e-08
-9.843e-08
-8.35213e-08
-7.82901e-08
-8.44317e-08
-5.80009e-08
-8.5056e-08
-3.76244e-08
-8.5406e-08
-1.72193e-08
-8.54953e-08
3.15789e-09
-8.53377e-08
2.34532e-08
-8.49476e-08
4.3616e-08
-8.43418e-08
6.35985e-08
-8.35363e-08
8.33581e-08
-8.25463e-08
1.02856e-07
-8.13866e-08
1.22057e-07
-8.00716e-08
1.40929e-07
-7.86147e-08
1.59443e-07
-7.70286e-08
1.77572e-07
-7.53253e-08
1.95293e-07
-7.35157e-08
2.12584e-07
-7.16102e-08
2.29425e-07
-6.96181e-08
2.45799e-07
-6.75486e-08
2.61691e-07
-6.541e-08
2.77087e-07
-6.32104e-08
2.91974e-07
-6.09575e-08
3.06341e-07
-5.86588e-08
3.2018e-07
-5.63218e-08
3.33482e-07
-5.39538e-08
3.46242e-07
-5.15625e-08
3.58453e-07
-4.91553e-08
3.70114e-07
-4.67399e-08
3.81221e-07
-4.43243e-08
3.91775e-07
-4.19163e-08
4.01777e-07
-3.95242e-08
4.1123e-07
-3.71561e-08
4.20139e-07
-3.48201e-08
4.28509e-07
-3.25242e-08
4.3635e-07
-3.02763e-08
4.4367e-07
-2.80838e-08
4.50481e-07
-2.59539e-08
4.56796e-07
-2.38931e-08
4.6263e-07
-2.19074e-08
4.67997e-07
-2.00018e-08
4.72916e-07
-1.81809e-08
4.77405e-07
-1.6448e-08
4.81482e-07
-1.48058e-08
4.85167e-07
-1.3256e-08
4.88481e-07
-1.17994e-08
4.91444e-07
-1.0436e-08
4.94077e-07
-9.16479e-09
4.96401e-07
-7.98433e-09
4.98438e-07
-6.8923e-09
5.00206e-07
-5.88583e-09
5.01727e-07
-4.96159e-09
5.03019e-07
-4.11582e-09
5.04101e-07
-3.34447e-09
5.04991e-07
-2.6433e-09
5.05706e-07
-2.008e-09
5.06262e-07
-1.43406e-09
5.06677e-07
-9.16536e-10
5.06964e-07
-4.50742e-10
5.07135e-07
-3.30209e-11
5.07202e-07
3.39798e-10
5.07174e-07
6.70988e-10
5.07061e-07
9.63972e-10
5.06871e-07
1.22217e-09
5.06613e-07
1.44893e-09
5.06293e-07
1.64744e-09
5.0592e-07
1.8207e-09
5.05498e-07
1.97146e-09
5.05035e-07
2.10222e-09
5.04534e-07
2.2153e-09
5.04002e-07
2.31276e-09
5.03441e-07
2.39649e-09
5.02855e-07
2.46817e-09
5.02248e-07