/*--------------------------------*- C++ -*----------------------------------*\
  =========                 |
  \\      /  F ield         | OpenFOAM: The Open Source CFD Toolbox
   \\    /   O peration     | Website:  https://openfoam.org
    \\  /    A nd           | Version:  6
     \\/     M anipulation  |
\*---------------------------------------------------------------------------*/
FoamFile
{
    version     2.0;
    format      ascii;
    class       volVectorField;
    location    "0.09";
    object      U;
}
// * * * * * * * * * * * * * * * * * * * * * * * * * * * * * * * * * * * * * //

dimensions      [0 1 -1 0 0 0 0];

internalField   nonuniform List<vector> 
12225
(
(0.948756 -0.405568 0)
(1.01274 -0.190679 0)
(1.01489 -0.051417 0)
(0.983706 -0.00518013 0)
(0.955913 0.00447143 0)
(0.937822 0.00416793 0)
(0.925998 0.0025084 0)
(0.917808 0.00138895 0)
(0.911904 0.000820158 0)
(0.907441 0.000537492 0)
(0.90392 0.000375971 0)
(0.901098 0.000264069 0)
(0.898859 0.000168952 0)
(0.897178 7.4196e-05 0)
(0.895993 -6.03761e-05 0)
(0.895852 -0.000176934 0)
(0.895361 -0.000647901 0)
(0.902671 -0.00147023 0)
(1.03698 0.0761168 0)
(1.02003 0.0532978 0)
(1.01146 0.0193536 0)
(1.00456 0.00894284 0)
(0.998403 0.00661951 0)
(0.991915 0.00514899 0)
(0.985082 0.0038584 0)
(0.978939 0.00295929 0)
(0.973989 0.00237014 0)
(0.970089 0.00194765 0)
(0.966975 0.00161866 0)
(0.964477 0.00134815 0)
(0.962488 0.00110561 0)
(0.960958 0.000864482 0)
(0.959807 0.000561649 0)
(0.95926 0.000220573 0)
(0.959122 -0.000844078 0)
(0.960481 -0.00218336 0)
(0.998332 0.0132059 0)
(0.995394 0.0119189 0)
(1.00094 0.006335 0)
(1.00218 0.00640795 0)
(1.00171 0.0068592 0)
(1.00006 0.00611846 0)
(0.997072 0.00499752 0)
(0.993629 0.00404865 0)
(0.990466 0.00332592 0)
(0.987773 0.00275873 0)
(0.985532 0.00229864 0)
(0.983703 0.00191059 0)
(0.982251 0.00155781 0)
(0.981158 0.00120544 0)
(0.980388 0.000784204 0)
(0.980026 0.000234343 0)
(0.979871 -0.000905902 0)
(0.979977 -0.00266126 0)
(0.995105 -0.00696065 0)
(0.992525 0.00120403 0)
(0.998732 0.00383843 0)
(1.00111 0.00579446 0)
(1.00211 0.00682313 0)
(1.00236 0.0065065 0)
(1.00138 0.00564362 0)
(0.999662 0.00478635 0)
(0.99782 0.00405027 0)
(0.996105 0.0034212 0)
(0.9946 0.00287953 0)
(0.993339 0.00240121 0)
(0.992335 0.00195291 0)
(0.991593 0.00149763 0)
(0.991095 0.000967237 0)
(0.990861 0.000289136 0)
(0.990704 -0.000839618 0)
(0.990442 -0.00237285 0)
(0.996672 -0.00695451 0)
(0.993865 0.00076142 0)
(0.998196 0.00362127 0)
(1.00036 0.00534486 0)
(1.00186 0.00647596 0)
(1.00297 0.00647794 0)
(1.00311 0.00589284 0)
(1.00253 0.00519223 0)
(1.00166 0.00451348 0)
(1.00072 0.00388123 0)
(0.999843 0.00330126 0)
(0.99908 0.0027635 0)
(0.998473 0.00224273 0)
(0.998041 0.00170555 0)
(0.997775 0.00109355 0)
(0.997663 0.000344421 0)
(0.997557 -0.000716499 0)
(0.997228 -0.00201125 0)
(0.99783 -0.00416879 0)
(0.995202 0.00119276 0)
(0.998019 0.00331661 0)
(0.999877 0.00479663 0)
(1.00151 0.0059537 0)
(1.00299 0.00618254 0)
(1.00376 0.00583985 0)
(1.00391 0.00530687 0)
(1.00374 0.00471909 0)
(1.00342 0.00412211 0)
(1.00306 0.0035387 0)
(1.00272 0.00297088 0)
(1.00246 0.00240283 0)
(1.00231 0.00180845 0)
(1.00225 0.00114366 0)
(1.00227 0.000364814 0)
(1.00226 -0.000614225 0)
(1.00201 -0.00171142 0)
(0.998454 -0.00259735 0)
(0.996261 0.00107291 0)
(0.998102 0.0028479 0)
(0.99966 0.00422643 0)
(1.00124 0.00536238 0)
(1.00283 0.00573483 0)
(1.00393 0.00558105 0)
(1.00454 0.00519813 0)
(1.00486 0.00470834 0)
(1.005 0.00416536 0)
(1.00504 0.00360079 0)
(1.00506 0.00302516 0)
(1.00511 0.00243136 0)
(1.0052 0.001802 0)
(1.00533 0.00110816 0)
(1.00549 0.000325233 0)
(1.0056 -0.000577356 0)
(1.00551 -0.00152416 0)
(0.998888 -0.00176328 0)
(0.99717 0.000861448 0)
(0.998375 0.00243232 0)
(0.999651 0.00369876 0)
(1.00109 0.00475842 0)
(1.00263 0.00520443 0)
(1.00388 0.00518518 0)
(1.00477 0.00492345 0)
(1.00541 0.00452356 0)
(1.00588 0.00403914 0)
(1.00624 0.00350466 0)
(1.00655 0.00293571 0)
(1.00684 0.00233229 0)
(1.00714 0.00168544 0)
(1.00745 0.000979723 0)
(1.00775 0.000206219 0)
(1.00799 -0.000634395 0)
(1.00809 -0.00147925 0)
(0.999238 -0.00115694 0)
(0.997955 0.000755432 0)
(0.998739 0.00211052 0)
(0.999774 0.00322512 0)
(1.00104 0.0041698 0)
(1.00247 0.00463425 0)
(1.00375 0.00469981 0)
(1.00479 0.00452699 0)
(1.00563 0.00420087 0)
(1.00633 0.00377033 0)
(1.00692 0.00326883 0)
(1.00745 0.00271429 0)
(1.00794 0.00211184 0)
(1.00841 0.00145962 0)
(1.00886 0.000752683 0)
(1.00929 -6.93607e-06 0)
(1.00968 -0.000803992 0)
(1.00997 -0.00159087 0)
(0.999506 -0.000678706 0)
(0.998601 0.000720957 0)
(0.999123 0.00185239 0)
(0.999968 0.00279976 0)
(1.00107 0.00361018 0)
(1.00237 0.00405174 0)
(1.00361 0.00415927 0)
(1.0047 0.00404369 0)
(1.00566 0.00377157 0)
(1.0065 0.00338468 0)
(1.00725 0.00291317 0)
(1.00794 0.00237523 0)
(1.00857 0.00177927 0)
(1.00918 0.00112854 0)
(1.00976 0.000425251 0)
(1.01031 -0.000322319 0)
(1.01082 -0.00109475 0)
(1.01128 -0.00185935 0)
(0.999697 -0.000333959 0)
(0.999107 0.000703167 0)
(0.999482 0.00162856 0)
(1.00019 0.00241252 0)
(1.00115 0.00308296 0)
(1.00231 0.0034723 0)
(1.00348 0.00358688 0)
(1.00457 0.00349983 0)
(1.00558 0.00326119 0)
(1.0065 0.00290482 0)
(1.00735 0.00245642 0)
(1.00814 0.00193308 0)
(1.00888 0.00134472 0)
(1.00959 0.00069774 0)
(1.01027 -1.64281e-06 0)
(1.01091 -0.000742749 0)
(1.01153 -0.00150764 0)
(1.01212 -0.00227636 0)
(0.999814 -0.000124711 0)
(0.999453 0.000678607 0)
(0.999764 0.0014371 0)
(1.00038 0.00208172 0)
(1.00124 0.00262692 0)
(1.00228 0.00295158 0)
(1.00338 0.00304864 0)
(1.00444 0.00296603 0)
(1.00545 0.0027408 0)
(1.0064 0.00239985 0)
(1.0073 0.00196454 0)
(1.00814 0.0014501 0)
(1.00895 0.000866641 0)
(1.00972 0.000221778 0)
(1.01046 -0.000476844 0)
(1.01117 -0.00121875 0)
(1.01186 -0.00198948 0)
(1.01254 -0.00277809 0)
(0.999894 6.47576e-06 0)
(0.99971 0.000639375 0)
(0.999996 0.00124999 0)
(1.00056 0.0017665 0)
(1.00133 0.00219336 0)
(1.00227 0.00244549 0)
(1.00329 0.00251014 0)
(1.0043 0.00241699 0)
(1.00529 0.00219229 0)
(1.00625 0.00185664 0)
(1.00716 0.00142718 0)
(1.00804 0.000916914 0)
(1.00887 0.000335332 0)
(1.00968 -0.000309846 0)
(1.01046 -0.00101096 0)
(1.01121 -0.00175888 0)
(1.01196 -0.00254322 0)
(1.01269 -0.00336061 0)
(0.999952 8.38835e-05 0)
(0.999909 0.000568475 0)
(1.00019 0.00103423 0)
(1.00071 0.00141852 0)
(1.00141 0.00171979 0)
(1.00226 0.00188435 0)
(1.00319 0.00189821 0)
(1.00414 0.00177735 0)
(1.00509 0.00153888 0)
(1.00602 0.00119728 0)
(1.00693 0.000765218 0)
(1.0078 0.000252922 0)
(1.00865 -0.000331605 0)
(1.00947 -0.00098158 0)
(1.01027 -0.00169051 0)
(1.01105 -0.00245157 0)
(1.01181 -0.00325869 0)
(1.01258 -0.00411435 0)
(0.999987 0.000107516 0)
(1.00005 0.000453419 0)
(1.00034 0.000775709 0)
(1.00083 0.00102612 0)
(1.00147 0.00119901 0)
(1.00224 0.0012647 0)
(1.00308 0.00121133 0)
(1.00395 0.00104585 0)
(1.00484 0.000778292 0)
(1.00573 0.000417822 0)
(1.0066 -2.72082e-05 0)
(1.00744 -0.000549673 0)
(1.00827 -0.00114372 0)
(1.00908 -0.00180435 0)
(1.00986 -0.00252705 0)
(1.01063 -0.00330765 0)
(1.01139 -0.00414378 0)
(1.01214 -0.00504161 0)
(1.00001 8.4287e-05 0)
(1.00012 0.000289018 0)
(1.00042 0.000464253 0)
(1.00088 0.000577985 0)
(1.00148 0.000622313 0)
(1.00217 0.000582186 0)
(1.00293 0.000449322 0)
(1.00372 0.000225539 0)
(1.00454 -8.42917e-05 0)
(1.00535 -0.000475295 0)
(1.00616 -0.000942912 0)
(1.00695 -0.00148312 0)
(1.00773 -0.00209253 0)
(1.00848 -0.00276834 0)
(1.00922 -0.00350823 0)
(1.00993 -0.00431042 0)
(1.01063 -0.00517503 0)
(1.01132 -0.00610984 0)
(1.00001 2.5951e-05 0)
(1.00015 7.67539e-05 0)
(1.00044 9.64787e-05 0)
(1.00088 6.71541e-05 0)
(1.00142 -1.85442e-05 0)
(1.00204 -0.000168523 0)
(1.00272 -0.000388264 0)
(1.00344 -0.000678692 0)
(1.00417 -0.0010387 0)
(1.0049 -0.0014669 0)
(1.00562 -0.00196194 0)
(1.00633 -0.00252262 0)
(1.00702 -0.00314796 0)
(1.00768 -0.00383723 0)
(1.00832 -0.00458994 0)
(1.00894 -0.00540595 0)
(1.00954 -0.00628654 0)
(1.01011 -0.00723936 0)
(1.00001 -5.4202e-05 0)
(1.00015 -0.000174019 0)
(1.00042 -0.000321782 0)
(1.00081 -0.000504151 0)
(1.0013 -0.00072469 0)
(1.00185 -0.0009878 0)
(1.00246 -0.00129752 0)
(1.00309 -0.00165649 0)
(1.00372 -0.00206666 0)
(1.00436 -0.00252975 0)
(1.00498 -0.00304731 0)
(1.00557 -0.00362065 0)
(1.00615 -0.00425094 0)
(1.00669 -0.00493912 0)
(1.0072 -0.00568603 0)
(1.00768 -0.00649234 0)
(1.00812 -0.00735954 0)
(1.00853 -0.00829417 0)
(1.00001 -0.000142777 0)
(1.00012 -0.000446536 0)
(1.00035 -0.000776263 0)
(1.00069 -0.00112391 0)
(1.00112 -0.0014861 0)
(1.00161 -0.00186457 0)
(1.00213 -0.00226218 0)
(1.00268 -0.00268287 0)
(1.00322 -0.0031316 0)
(1.00375 -0.00361339 0)
(1.00426 -0.00413271 0)
(1.00473 -0.00469335 0)
(1.00517 -0.00529844 0)
(1.00556 -0.00595042 0)
(1.00591 -0.0066511 0)
(1.00622 -0.00740168 0)
(1.00648 -0.0082035 0)
(1.00669 -0.00906172 0)
(1 -0.000196378 0)
(1.00005 -0.000643808 0)
(1.0002 -0.00113621 0)
(1.00049 -0.00163332 0)
(1.00088 -0.00212276 0)
(1.00133 -0.00260244 0)
(1.00182 -0.00307062 0)
(1.00233 -0.00353118 0)
(1.00282 -0.00399247 0)
(1.00329 -0.0044633 0)
(1.00372 -0.0049514 0)
(1.00411 -0.00546334 0)
(1.00444 -0.00600451 0)
(1.00471 -0.00657911 0)
(1.00492 -0.00719017 0)
(1.00508 -0.00783969 0)
(1.00518 -0.00852924 0)
(1.00522 -0.00926311 0)
(0.999977 -0.000173215 0)
(0.999886 -0.000712184 0)
(0.999945 -0.00135649 0)
(1.00019 -0.00199119 0)
(1.00057 -0.00259998 0)
(1.00103 -0.00317369 0)
(1.00155 -0.00369987 0)
(1.00207 -0.00418304 0)
(1.00257 -0.00463766 0)
(1.00302 -0.00507785 0)
(1.00342 -0.00551551 0)
(1.00374 -0.00596078 0)
(1.004 -0.00642196 0)
(1.00418 -0.00690534 0)
(1.00429 -0.00741548 0)
(1.00433 -0.00795542 0)
(1.0043 -0.00852725 0)
(1.0042 -0.00913488 0)
(0.999907 -2.18387e-05 0)
(0.999539 -0.000641599 0)
(0.999475 -0.00148143 0)
(0.999718 -0.0022813 0)
(1.00014 -0.00303836 0)
(1.00069 -0.0037224 0)
(1.0013 -0.00430202 0)
(1.00189 -0.00479011 0)
(1.00243 -0.00521467 0)
(1.00289 -0.00559863 0)
(1.00326 -0.00596029 0)
(1.00353 -0.00631505 0)
(1.00371 -0.00667504 0)
(1.00379 -0.00704912 0)
(1.00379 -0.00744344 0)
(1.0037 -0.00786207 0)
(1.00353 -0.00830757 0)
(1.00328 -0.00878349 0)
(0.999759 0.000313585 0)
(0.998899 -0.000456648 0)
(0.99873 -0.0015638 0)
(0.999068 -0.00256443 0)
(0.999636 -0.00351395 0)
(1.00037 -0.00432288 0)
(1.00114 -0.00493531 0)
(1.00185 -0.00539286 0)
(1.00243 -0.00574932 0)
(1.00288 -0.00604077 0)
(1.00319 -0.00629431 0)
(1.00337 -0.00653209 0)
(1.00343 -0.00677043 0)
(1.00337 -0.0070204 0)
(1.00321 -0.0072892 0)
(1.00295 -0.00758128 0)
(1.00262 -0.00789912 0)
(1.0022 -0.00824553 0)
(0.999508 0.000951997 0)
(0.997862 -0.000247658 0)
(0.997721 -0.00172624 0)
(0.998326 -0.00293961 0)
(0.99917 -0.00411038 0)
(1.00019 -0.00502776 0)
(1.00119 -0.00561717 0)
(1.00199 -0.00598201 0)
(1.00256 -0.00621526 0)
(1.00292 -0.0063688 0)
(1.00308 -0.00647958 0)
(1.00308 -0.00657632 0)
(1.00292 -0.00667829 0)
(1.00265 -0.00679703 0)
(1.00226 -0.00693921 0)
(1.00179 -0.00710837 0)
(1.00124 -0.00730582 0)
(1.00062 -0.00753298 0)
(0.998977 0.00253312 0)
(0.996211 0.000167338 0)
(0.99654 -0.00201618 0)
(0.997702 -0.00350056 0)
(0.998949 -0.00489242 0)
(1.00032 -0.00584365 0)
(1.0015 -0.00630864 0)
(1.00228 -0.00649312 0)
(1.00268 -0.00653733 0)
(1.00279 -0.00650754 0)
(1.00265 -0.00644815 0)
(1.00232 -0.00639121 0)
(1.00185 -0.00635515 0)
(1.00125 -0.00634872 0)
(1.00057 -0.00637553 0)
(0.999807 -0.00643645 0)
(0.998985 -0.00653042 0)
(0.998115 -0.00665669 0)
(0.997454 0.00614362 0)
(0.99342 0.00150586 0)
(0.995263 -0.00209712 0)
(0.997483 -0.00418114 0)
(0.999233 -0.00583239 0)
(1.00089 -0.00669124 0)
(1.00205 -0.00689462 0)
(1.00253 -0.00680042 0)
(1.00248 -0.00659547 0)
(1.00207 -0.00635307 0)
(1.00142 -0.00611748 0)
(1.00059 -0.00591636 0)
(0.999644 -0.005761 0)
(0.998624 -0.00565293 0)
(0.997552 -0.00558997 0)
(0.996444 -0.00556874 0)
(0.995307 -0.0055851 0)
(0.994155 -0.00563565 0)
(0.994436 0.00858871 0)
(0.98943 0.00229746 0)
(0.994067 -0.00196046 0)
(0.997919 -0.00482994 0)
(1.00023 -0.00676941 0)
(1.0019 -0.00736976 0)
(1.00255 -0.00716607 0)
(1.0022 -0.00671624 0)
(1.00122 -0.00623809 0)
(0.999934 -0.00579407 0)
(0.99848 -0.00541354 0)
(0.996949 -0.00510874 0)
(0.995395 -0.00487671 0)
(0.993849 -0.00470804 0)
(0.992322 -0.00459324 0)
(0.990817 -0.00452449 0)
(0.989334 -0.00449494 0)
(0.987878 -0.00449812 0)
(0.994525 -0.00665924 0)
(0.98947 -0.00854701 0)
(0.995423 -0.00532235 0)
(0.999871 -0.00626572 0)
(1.00213 -0.00767603 0)
(1.00288 -0.00765354 0)
(1.00194 -0.00689168 0)
(0.999793 -0.00606672 0)
(0.997186 -0.00536383 0)
(0.994529 -0.00479213 0)
(0.991963 -0.00434299 0)
(0.989529 -0.00400352 0)
(0.987239 -0.00375382 0)
(0.985087 -0.00357374 0)
(0.983053 -0.00344798 0)
(0.98112 -0.0033663 0)
(0.979271 -0.00332165 0)
(0.977499 -0.00330186 0)
(1.02649 -0.0702315 0)
(1.01708 -0.0624027 0)
(1.0118 -0.029238 0)
(1.00836 -0.0149031 0)
(1.00545 -0.0103746 0)
(1.00144 -0.00790246 0)
(0.996018 -0.00605021 0)
(0.990201 -0.004793 0)
(0.98487 -0.00398058 0)
(0.980249 -0.003431 0)
(0.976241 -0.00304211 0)
(0.972717 -0.00276487 0)
(0.969578 -0.00256796 0)
(0.966745 -0.00242827 0)
(0.964153 -0.00233069 0)
(0.96175 -0.00226782 0)
(0.959508 -0.00223848 0)
(0.957409 -0.00226454 0)
(0.966188 0.350229 0)
(1.02692 0.194266 0)
(1.03267 0.0679107 0)
(1.00447 0.0152506 0)
(0.976132 -0.00129048 0)
(0.955974 -0.00435062 0)
(0.941963 -0.00364443 0)
(0.931802 -0.00250747 0)
(0.924199 -0.00170397 0)
(0.91827 -0.00122845 0)
(0.913388 -0.000958713 0)
(0.909182 -0.000806443 0)
(0.905451 -0.000720649 0)
(0.902073 -0.000672887 0)
(0.898963 -0.000647895 0)
(0.896054 -0.000640042 0)
(0.893286 -0.000645464 0)
(0.890611 -0.000714114 0)
(0.00673635 -0.0283135 -2.39731e-21)
(0.0174842 -0.0156909 2.24979e-21)
(0.0157217 0.00290835 0)
(0.00577759 0.0141682 0)
(-0.00823574 0.018711 0)
(-0.0243321 0.0205325 -2.02408e-21)
(-0.0418252 0.0215216 0)
(-0.0603215 0.0223054 0)
(-0.0796186 0.0230331 0)
(-0.0995667 0.023695 0)
(-0.120016 0.024238 1.74834e-21)
(-0.140801 0.0246078 0)
(-0.161739 0.0247632 0)
(-0.182638 0.0246798 0)
(-0.203307 0.0243495 0)
(-0.223559 0.0237776 1.67366e-21)
(-0.243222 0.02298 0)
(-0.262138 0.0219791 0)
(-0.280173 0.0208007 0)
(-0.297208 0.0194713 0)
(-0.313146 0.0180162 0)
(-0.327907 0.0164582 0)
(-0.341425 0.0148169 0)
(-0.353646 0.0131087 1.62299e-21)
(-0.364527 0.0113476 -1.60598e-21)
(-0.374029 0.00954606 1.58493e-21)
(-0.382123 0.00771657 1.55947e-21)
(-0.388781 0.00587492 0)
(-0.393986 0.00404223 0)
(-0.397731 0.00225173 -1.45382e-21)
(-0.399985 0.000556905 -1.40784e-21)
(-0.400712 -0.000990849 0)
(-0.400067 -0.00238424 0)
(-0.398174 -0.00366866 -1.22702e-21)
(-0.395054 -0.00489333 0)
(-0.390736 -0.00608031 0)
(-0.385241 -0.0072387 9.84256e-22)
(-0.378587 -0.00837132 0)
(-0.370792 -0.00947763 7.87221e-22)
(-0.361876 -0.0105552 1.35614e-21)
(-0.351865 -0.0116007 0)
(-0.340789 -0.0126102 0)
(-0.328684 -0.0135797 0)
(-0.315593 -0.0145051 0)
(-0.301562 -0.0153828 0)
(-0.286644 -0.0162093 -2.41266e-22)
(-0.270898 -0.0169816 -5.52282e-22)
(-0.254384 -0.0176974 -8.74814e-22)
(-0.237168 -0.0183546 0)
(-0.219318 -0.0189518 1.55202e-21)
(-0.200907 -0.0194876 0)
(-0.182005 -0.0199609 -2.26778e-21)
(-0.162686 -0.0203702 -2.63842e-21)
(-0.143025 -0.020713 0)
(-0.123096 -0.0209852 0)
(-0.102974 -0.0211795 0)
(-0.0827355 -0.0212837 -4.19011e-21)
(-0.0624571 -0.0212782 0)
(-0.0422158 -0.0211351 0)
(-0.0220758 -0.0208258 0)
(-0.00206395 -0.020343 0)
(0.0178168 -0.0197483 0)
(0.0375254 -0.0191168 0)
(0.0569919 -0.0184699 0)
(0.0761673 -0.017815 0)
(0.0950113 -0.0171564 5.73143e-21)
(0.113489 -0.0164968 0)
(0.131569 -0.015838 0)
(0.149223 -0.0151815 -5.64578e-21)
(0.166426 -0.0145287 -5.60287e-21)
(0.183153 -0.0138805 0)
(0.199385 -0.0132382 5.50187e-21)
(0.215101 -0.0126026 -5.44556e-21)
(0.230284 -0.0119749 0)
(0.244921 -0.0113558 5.32509e-21)
(0.258998 -0.0107464 0)
(0.272505 -0.0101476 0)
(0.285432 -0.00956046 -5.13382e-21)
(0.297774 -0.00898587 0)
(0.309525 -0.00842487 5.00486e-21)
(0.320683 -0.00787848 0)
(0.331249 -0.00734773 -4.87807e-21)
(0.341224 -0.00683364 -4.81615e-21)
(0.350614 -0.00633717 -4.75548e-21)
(0.359426 -0.00585928 -9.39246e-21)
(0.367668 -0.00540083 9.27702e-21)
(0.375353 -0.00496259 0)
(0.382494 -0.00454524 0)
(0.389107 -0.0041493 0)
(0.39521 -0.00377517 8.84904e-21)
(0.400822 -0.00342309 8.75085e-21)
(0.405964 -0.00309314 -8.65618e-21)
(0.410659 -0.00278523 0)
(0.414929 -0.00249913 8.47719e-21)
(0.418798 -0.00223441 8.39271e-21)
(0.422291 -0.00199052 8.31144e-21)
(0.425432 -0.00176676 0)
(0.428245 -0.00156231 0)
(0.430755 -0.00137626 0)
(0.432984 -0.00120761 8.01597e-21)
(0.434956 -0.00105534 0)
(0.436693 -0.000918375 0)
(0.438214 -0.000795618 -7.82182e-21)
(0.439541 -0.000685985 0)
(0.440691 -0.000588325 0)
(0.441682 -0.000501381 -7.64739e-21)
(0.442529 -0.00042433 0)
(0.443246 -0.000354133 0)
(0.443842 -0.000281562 7.49e-21)
(0.444296 -0.000206247 7.44053e-21)
(0.444636 -0.000140569 0)
(0.444888 -9.08622e-05 -7.34598e-21)
(0.445067 -5.5007e-05 0)
(0.445189 -2.91382e-05 7.25654e-21)
(0.445265 -1.03229e-05 0)
(0.445303 3.50658e-06 7.17147e-21)
(0.445312 1.37743e-05 7.1304e-21)
(0.445295 2.14113e-05 0)
(0.445258 2.70246e-05 0)
(0.445205 3.10295e-05 0)
(0.445139 3.37268e-05 0)
(0.445062 3.53462e-05 0)
(0.444979 3.60717e-05 0)
(0.44489 3.60566e-05 0)
(0.444797 3.54312e-05 6.82937e-21)
(0.444703 3.43083e-05 -6.7945e-21)
(0.444608 3.27855e-05 0)
(0.444514 3.09471e-05 0)
(0.444421 2.88657e-05 0)
(0.44433 2.6603e-05 0)
(0.444243 2.42114e-05 -1.32539e-20)
(0.444159 2.1735e-05 0)
(0.444078 1.92111e-05 1.31251e-20)
(0.444002 1.66712e-05 -1.30617e-20)
(0.44393 1.4142e-05 0)
(0.443863 1.16457e-05 0)
(0.443801 9.20112e-06 0)
(0.443743 6.82387e-06 1.28136e-20)
(0.44369 4.52649e-06 1.27529e-20)
(0.443642 2.3187e-06 0)
(0.443598 2.07858e-07 1.26326e-20)
(0.443558 -1.80075e-06 1.25731e-20)
(0.443523 -3.70362e-06 -1.2514e-20)
(0.443493 -5.49834e-06 0)
(0.443466 -7.18258e-06 0)
(0.443443 -8.75314e-06 -1.23388e-20)
(0.443423 -1.02054e-05 0)
(0.443407 -1.15333e-05 0)
(0.443394 -1.27294e-05 0)
(0.443384 -1.37856e-05 0)
(0.443377 -1.46921e-05 1.20531e-20)
(0.443371 -1.54369e-05 1.19968e-20)
(0.443367 -1.60054e-05 0)
(0.443365 -1.63796e-05 1.18852e-20)
(0.443363 -1.65367e-05 0)
(0.443362 -1.64468e-05 0)
(0.443359 -1.60716e-05 1.17199e-20)
(0.443356 -1.53614e-05 0)
(0.44335 -1.42513e-05 1.16114e-20)
(0.44334 -1.26562e-05 0)
(0.443325 -1.0464e-05 0)
(0.443303 -7.52705e-06 1.14516e-20)
(0.443271 -3.64979e-06 0)
(0.443227 1.42816e-06 1.13477e-20)
(0.443165 8.05602e-06 0)
(0.443081 1.67058e-05 0)
(0.442967 2.80228e-05 0)
(0.442814 4.29022e-05 -1.11505e-20)
(0.442609 6.26079e-05 0)
(0.442334 8.89644e-05 1.10614e-20)
(0.441964 0.000124686 0)
(0.441462 0.000173943 0)
(0.440776 0.000243519 0)
(0.439821 0.000344762 0)
(0.438468 0.000499576 0)
(0.436456 0.000746585 0)
(0.433444 0.00119398 0)
(0.428067 0.00198153 -2.20616e-20)
(0.420389 0.00399926 0)
(0.397463 0.00681083 0)
(-0.00894207 -0.0246012 6.49081e-21)
(-0.0136718 0.00414814 -5.20314e-21)
(-0.0245341 0.0246827 0)
(-0.0385075 0.0393129 2.6094e-21)
(-0.0546263 0.0486782 0)
(-0.0725345 0.0544127 1.18832e-21)
(-0.0918667 0.0579553 -2.24278e-21)
(-0.112113 0.0601779 -2.17986e-21)
(-0.132801 0.0615197 0)
(-0.153547 0.0621706 -2.10403e-21)
(-0.174044 0.0622043 -1.06189e-21)
(-0.194047 0.0616545 0)
(-0.213357 0.0605517 0)
(-0.231821 0.0589359 0)
(-0.249321 0.0568594 0)
(-0.265773 0.0543833 -1.05809e-21)
(-0.28112 0.0515738 0)
(-0.29533 0.0484971 2.12217e-21)
(-0.308389 0.0452156 0)
(-0.320298 0.0417858 0)
(-0.331067 0.038256 -2.13963e-21)
(-0.340714 0.0346661 0)
(-0.349261 0.0310478 2.13031e-21)
(-0.356732 0.0274249 -1.05372e-21)
(-0.363154 0.0238149 1.04228e-21)
(-0.368553 0.0202299 -1.02746e-21)
(-0.372956 0.0166783 -1.00912e-21)
(-0.376392 0.0131661 0)
(-0.378891 0.00970092 0)
(-0.38048 0.00629696 9.32224e-22)
(-0.381192 0.00298207 -9.41072e-22)
(-0.381066 -0.000206806 0)
(-0.380019 -0.00325924 0)
(-0.377924 -0.0061986 7.70996e-22)
(-0.374746 -0.00904919 0)
(-0.370465 -0.0118241 0)
(-0.365073 -0.0145266 -6.06408e-22)
(-0.358571 -0.0171538 0)
(-0.350971 -0.0196989 5.70466e-22)
(-0.342287 -0.0221528 -8.16682e-22)
(-0.332543 -0.0245055 0)
(-0.321766 -0.026746 0)
(-0.309992 -0.0288636 -9.63327e-22)
(-0.297261 -0.030848 -6.50886e-22)
(-0.283618 -0.03269 -3.28582e-22)
(-0.269115 -0.0343811 1.35201e-22)
(-0.253807 -0.0359148 3.12453e-22)
(-0.237754 -0.0372857 1.17771e-21)
(-0.22102 -0.0384905 -1.03929e-21)
(-0.203669 -0.0395276 -8.52558e-22)
(-0.185771 -0.0403968 0)
(-0.167394 -0.0411 1.22088e-21)
(-0.148607 -0.0416402 -1.07847e-21)
(-0.12948 -0.0420214 0)
(-0.110079 -0.0422487 0)
(-0.0904686 -0.0423272 0)
(-0.0707103 -0.0422619 2.14451e-21)
(-0.0508595 -0.0420562 0)
(-0.0309661 -0.0417119 -4.68199e-21)
(-0.0110804 -0.0412268 0)
(0.00872444 -0.0405981 -5.24476e-21)
(0.0283681 -0.0398451 0)
(0.0478056 -0.0389991 5.59717e-21)
(0.0670117 -0.0380804 0)
(0.0859546 -0.037102 -5.88172e-21)
(0.1046 -0.0360738 2.86591e-21)
(0.122917 -0.0350031 0)
(0.140874 -0.0338968 6.19584e-21)
(0.158445 -0.0327604 3.25407e-21)
(0.175605 -0.0315995 3.28163e-21)
(0.192332 -0.0304187 0)
(0.208604 -0.0292226 3.12106e-21)
(0.224403 -0.0280154 3.33406e-21)
(0.239714 -0.0268012 0)
(0.254521 -0.0255838 -3.34814e-21)
(0.268812 -0.0243668 6.54232e-21)
(0.282574 -0.0231538 0)
(0.2958 -0.0219483 3.3457e-21)
(0.308482 -0.0207539 0)
(0.320613 -0.019574 -9.87642e-21)
(0.33219 -0.018412 0)
(0.343211 -0.0172713 9.83252e-21)
(0.353676 -0.0161551 3.30012e-21)
(0.363586 -0.0150668 -3.19826e-21)
(0.372945 -0.0140094 -6.38273e-21)
(0.38176 -0.0129859 6.36681e-21)
(0.390037 -0.011999 0)
(0.397787 -0.011051 0)
(0.405022 -0.0101443 0)
(0.411753 -0.00928061 -1.90713e-20)
(0.417998 -0.00846137 -6.35966e-21)
(0.423772 -0.00768769 6.327e-21)
(0.429093 -0.00696021 0)
(0.433982 -0.00627917 6.19074e-21)
(0.438456 -0.0056444 -6.22885e-21)
(0.442539 -0.00505534 -6.19632e-21)
(0.446251 -0.00451102 0)
(0.449614 -0.0040102 0)
(0.452651 -0.00355132 0)
(0.455382 -0.00313259 -6.06841e-21)
(0.45783 -0.00275205 0)
(0.460015 -0.00240757 1.19834e-20)
(0.461959 -0.00209693 1.7901e-20)
(0.463681 -0.00181781 -1.18679e-20)
(0.465199 -0.00156779 0)
(0.466532 -0.00134434 -5.86825e-21)
(0.467698 -0.00114488 0)
(0.468712 -0.000964864 -1.16423e-20)
(0.469596 -0.000797811 5.78764e-21)
(0.470383 -0.000644521 5.76097e-21)
(0.471073 -0.000511799 0)
(0.471665 -0.000401309 1.71396e-20)
(0.472166 -0.000310013 -1.13699e-20)
(0.472583 -0.000234485 -5.66136e-21)
(0.472925 -0.000172046 0)
(0.473202 -0.000120494 -5.60838e-21)
(0.473421 -7.80211e-05 -1.67437e-20)
(0.473591 -4.31896e-05 0)
(0.473719 -1.4841e-05 -1.10607e-20)
(0.473811 7.98198e-06 -1.10113e-20)
(0.473871 2.60852e-05 -1.09626e-20)
(0.473906 4.01543e-05 0)
(0.473919 5.07798e-05 0)
(0.473914 5.84736e-05 0)
(0.473895 6.36819e-05 5.38578e-21)
(0.473863 6.67944e-05 5.36347e-21)
(0.473822 6.81514e-05 0)
(0.473774 6.80495e-05 1.06346e-20)
(0.473721 6.67464e-05 1.05894e-20)
(0.473664 6.44653e-05 0)
(0.473605 6.13992e-05 1.05003e-20)
(0.473544 5.77144e-05 2.09112e-20)
(0.473484 5.35543e-05 -1.04119e-20)
(0.473424 4.90425e-05 -1.03675e-20)
(0.473366 4.42849e-05 0)
(0.47331 3.93725e-05 0)
(0.473257 3.43826e-05 0)
(0.473207 2.93808e-05 -1.0195e-20)
(0.473159 2.44223e-05 1.01517e-20)
(0.473116 1.95523e-05 2.02186e-20)
(0.473075 1.48078e-05 -1.00671e-20)
(0.473039 1.02191e-05 1.00242e-20)
(0.473006 5.8102e-06 9.98246e-21)
(0.472977 1.60148e-06 0)
(0.472952 -2.38926e-06 0)
(0.47293 -6.14486e-06 -9.85572e-21)
(0.472912 -9.6479e-06 0)
(0.472898 -1.28802e-05 0)
(0.472886 -1.58226e-05 1.94615e-20)
(0.472878 -1.84547e-05 0)
(0.472872 -2.07538e-05 9.6472e-21)
(0.472869 -2.26933e-05 -9.60653e-21)
(0.472868 -2.42413e-05 0)
(0.472869 -2.53589e-05 9.52307e-21)
(0.472872 -2.59967e-05 0)
(0.472875 -2.60916e-05 0)
(0.472879 -2.55625e-05 -9.40062e-21)
(0.472883 -2.43045e-05 1.87187e-20)
(0.472885 -2.21813e-05 -9.31905e-21)
(0.472886 -1.90145e-05 0)
(0.472883 -1.45703e-05 0)
(0.472875 -8.54097e-06 9.1973e-21)
(0.472861 -5.19792e-07 0)
(0.472838 1.00339e-05 9.11819e-21)
(0.472804 2.38439e-05 0)
(0.472753 4.18869e-05 0)
(0.472681 6.54952e-05 0)
(0.472581 9.65111e-05 8.96745e-21)
(0.472444 0.000137526 0)
(0.472258 0.000192265 -8.89846e-21)
(0.472006 0.00026623 0)
(0.471664 0.000367819 0)
(0.471199 0.000510515 1.7629e-20)
(0.470562 0.000716724 -1.7592e-20)
(0.469685 0.00102821 0)
(0.468439 0.00152 0)
(0.466723 0.00237946 0)
(0.463991 0.00389556 5.3167e-20)
(0.460866 0.00736484 0)
(0.454168 0.0133858 -3.64098e-20)
(-0.0173315 0.00757885 -2.07576e-22)
(-0.0289298 0.0362092 5.6936e-21)
(-0.0436954 0.0563185 0)
(-0.0597274 0.0715828 -3.96752e-21)
(-0.0760116 0.0826756 0)
(-0.0925946 0.0902845 0)
(-0.109589 0.0951706 -2.09965e-23)
(-0.126864 0.0979784 1.6099e-21)
(-0.144178 0.0991762 1.60591e-21)
(-0.161293 0.0990791 1.55799e-21)
(-0.178018 0.0979006 0)
(-0.194206 0.0957993 0)
(-0.209756 0.0929087 -1.5731e-21)
(-0.224604 0.0893521 -3.15333e-21)
(-0.23871 0.0852472 3.16446e-21)
(-0.252053 0.0807054 0)
(-0.264626 0.0758296 3.19041e-21)
(-0.276426 0.0707118 -1.57657e-21)
(-0.287454 0.0654313 0)
(-0.297712 0.0600541 3.21433e-21)
(-0.307198 0.0546331 1.58548e-21)
(-0.315908 0.0492093 -3.20617e-21)
(-0.323837 0.0438132 -1.57509e-21)
(-0.330975 0.038467 0)
(-0.33731 0.033186 3.14094e-21)
(-0.342827 0.027981 3.10262e-21)
(-0.34751 0.0228599 0)
(-0.351339 0.0178284 2.9984e-21)
(-0.354292 0.0128909 0)
(-0.35634 0.00804915 2.85497e-21)
(-0.357446 0.00329845 1.34556e-21)
(-0.35757 -0.00137903 0)
(-0.356674 -0.0060001 0)
(-0.354733 -0.0105628 0)
(-0.351732 -0.0150554 0)
(-0.347658 -0.0194643 0)
(-0.342508 -0.0237749 0)
(-0.336283 -0.0279711 1.81186e-21)
(-0.32899 -0.0320359 -2.38298e-21)
(-0.320643 -0.0359511 0)
(-0.311264 -0.0396979 0)
(-0.300878 -0.0432577 0)
(-0.289519 -0.0466126 -1.64623e-22)
(-0.277227 -0.0497455 4.56069e-22)
(-0.264045 -0.0526412 6.3471e-22)
(-0.250024 -0.0552865 -1.77599e-22)
(-0.235219 -0.0576707 5.05475e-23)
(-0.219688 -0.0597858 -4.74155e-22)
(-0.203494 -0.0616267 1.94472e-22)
(-0.186701 -0.0631913 -7.56697e-22)
(-0.169377 -0.0644801 0)
(-0.151587 -0.0654967 -1.23385e-21)
(-0.1334 -0.0662471 2.06722e-22)
(-0.114881 -0.0667396 0)
(-0.0960963 -0.0669843 0)
(-0.0771076 -0.0669934 2.18189e-21)
(-0.0579739 -0.06678 0)
(-0.0387498 -0.0663592 0)
(-0.0194863 -0.0657477 -2.65944e-21)
(-0.000234751 -0.0649644 -6.13623e-21)
(0.0189458 -0.0640299 3.43415e-21)
(0.0379983 -0.0629592 0)
(0.0568789 -0.0617619 -3.71199e-21)
(0.0755521 -0.0604504 0)
(0.093983 -0.059038 -3.58675e-21)
(0.112138 -0.0575371 -4.05512e-21)
(0.129987 -0.0559594 7.96515e-21)
(0.147502 -0.0543152 3.91482e-21)
(0.164657 -0.0526145 0)
(0.181428 -0.050866 -8.48347e-21)
(0.197795 -0.0490781 0)
(0.213739 -0.0472583 -1.32695e-20)
(0.229241 -0.0454138 -8.87303e-21)
(0.244287 -0.0435512 -8.97824e-21)
(0.258863 -0.0416768 9.07252e-21)
(0.272956 -0.0397966 -1.38448e-20)
(0.286556 -0.0379165 0)
(0.299653 -0.0360422 0)
(0.31224 -0.0341791 9.35568e-21)
(0.324311 -0.0323328 1.4196e-20)
(0.335861 -0.0305087 0)
(0.346888 -0.0287121 -4.8198e-21)
(0.35739 -0.0269483 0)
(0.367367 -0.0252225 1.43878e-20)
(0.376821 -0.0235395 1.21573e-22)
(0.385757 -0.0219042 -1.12624e-22)
(0.39418 -0.020321 -9.6028e-21)
(0.402098 -0.018794 0)
(0.409519 -0.0173271 9.61991e-21)
(0.416454 -0.0159234 8.11552e-23)
(0.422916 -0.0145857 0)
(0.428919 -0.0133163 0)
(0.434477 -0.0121166 0)
(0.439608 -0.0109876 -9.66545e-21)
(0.444329 -0.00992964 0)
(0.448659 -0.00894248 0)
(0.452617 -0.00802523 0)
(0.456223 -0.0071765 0)
(0.459497 -0.00639439 0)
(0.462459 -0.00567662 -9.51713e-21)
(0.46513 -0.00502053 0)
(0.46753 -0.00442318 -9.49668e-21)
(0.469678 -0.0038814 -9.46929e-21)
(0.471594 -0.00339182 9.44086e-21)
(0.473296 -0.00295098 0)
(0.474803 -0.00255529 9.38131e-21)
(0.476131 -0.00220119 0)
(0.477297 -0.00188521 9.31888e-21)
(0.478318 -0.00160389 -9.28688e-21)
(0.479213 -0.00135316 -2.77449e-20)
(0.479994 -0.00113014 0)
(0.480673 -0.000933945 -2.75481e-20)
(0.481257 -0.000763409 -9.13991e-21)
(0.481755 -0.000616517 0)
(0.482176 -0.000490874 -1.81568e-20)
(0.482527 -0.000384018 -1.80885e-20)
(0.482817 -0.000293607 2.70338e-20)
(0.483052 -0.000217523 0)
(0.48324 -0.000153893 8.94435e-21)
(0.483387 -0.000101076 8.90978e-21)
(0.483499 -5.76324e-05 2.66218e-20)
(0.48358 -2.2303e-05 0)
(0.483635 6.01766e-06 0)
(0.483668 2.83007e-05 0)
(0.483684 4.54004e-05 8.73641e-21)
(0.483683 5.8068e-05 0)
(0.483671 6.69635e-05 0)
(0.483648 7.26665e-05 -8.63729e-21)
(0.483618 7.56841e-05 -8.60371e-21)
(0.483581 7.64595e-05 0)
(0.48354 7.53793e-05 0)
(0.483496 7.27801e-05 -1.7007e-20)
(0.483451 6.89545e-05 0)
(0.483404 6.41559e-05 1.68741e-20)
(0.483357 5.86041e-05 1.68073e-20)
(0.483311 5.24886e-05 0)
(0.483267 4.59722e-05 0)
(0.483224 3.91941e-05 -1.66091e-20)
(0.483183 3.2273e-05 -3.33993e-25)
(0.483145 2.53089e-05 -3.21172e-25)
(0.48311 1.83859e-05 0)
(0.483078 1.15746e-05 -3.26907e-20)
(0.483049 4.93451e-06 0)
(0.483023 -1.48342e-06 0)
(0.483001 -7.63467e-06 0)
(0.482981 -1.34791e-05 1.60816e-20)
(0.482965 -1.89795e-05 0)
(0.482951 -2.40997e-05 -3.18983e-20)
(0.482941 -2.8804e-05 -1.58834e-20)
(0.482933 -3.30557e-05 0)
(0.482928 -3.68154e-05 -1.57512e-20)
(0.482925 -4.00393e-05 0)
(0.482925 -4.26759e-05 0)
(0.482925 -4.46632e-05 -4.66569e-20)
(0.482928 -4.59247e-05 3.09719e-20)
(0.48293 -4.63638e-05 0)
(0.482934 -4.58573e-05 3.07072e-20)
(0.482937 -4.4247e-05 -1.5288e-20)
(0.482939 -4.13282e-05 0)
(0.482938 -3.68348e-05 0)
(0.482935 -3.04193e-05 0)
(0.482926 -2.16253e-05 -4.5075e-20)
(0.482912 -9.8515e-06 0)
(0.482888 5.69963e-06 -1.4896e-20)
(0.482852 2.60921e-05 0)
(0.482799 5.27572e-05 0)
(0.482726 8.76395e-05 0)
(0.482625 0.000133413 0)
(0.482486 0.000193813 0)
(0.482298 0.000274159 0)
(0.482043 0.000382216 -2.89637e-20)
(0.481699 0.000529647 0)
(0.481233 0.000734737 -1.43953e-20)
(0.480597 0.00102712 4.30921e-20)
(0.479728 0.00145918 0)
(0.478516 0.0021225 0)
(0.47686 0.0032193 -2.87554e-20)
(0.474438 0.00508225 -2.89442e-20)
(0.471622 0.0088072 2.91824e-20)
(0.467718 0.0156317 2.9751e-20)
(-0.0187747 0.0491203 -1.06656e-20)
(-0.0328454 0.0750276 -7.47054e-21)
(-0.0488618 0.0923759 -3.91326e-21)