/*--------------------------------*- C++ -*----------------------------------*\
  =========                 |
  \\      /  F ield         | OpenFOAM: The Open Source CFD Toolbox
   \\    /   O peration     | Website:  https://openfoam.org
    \\  /    A nd           | Version:  6
     \\/     M anipulation  |
\*---------------------------------------------------------------------------*/
FoamFile
{
    version     2.0;
    format      ascii;
    class       volScalarField;
    location    "0.03";
    object      epsilon;
}
// * * * * * * * * * * * * * * * * * * * * * * * * * * * * * * * * * * * * * //

dimensions      [0 2 -3 0 0 0 0];

internalField   nonuniform List<scalar> 
3081
(
6.32531
6.32371
6.32245
6.32151
6.32087
6.3205
6.32038
6.32045
6.32084
6.32178
6.32307
6.32461
6.32634
6.32824
6.33029
6.33247
6.33479
6.33723
6.33978
6.34244
6.34522
6.3481
6.35108
6.35416
6.35733
6.36061
6.36397
6.36743
6.37098
6.37463
6.37835
6.38217
6.38607
6.39004
6.3941
6.39824
6.40246
6.40674
6.4111
6.41553
6.42003
6.4246
6.42923
6.43393
6.43868
6.44349
6.44836
6.45328
6.45826
6.46329
6.46837
6.4735
6.47869
6.48392
6.48921
6.49455
6.49995
3.45594
3.4549
3.45399
3.45319
3.45251
3.45192
3.45144
3.45104
3.45078
3.45072
3.4508
3.45097
3.45122
3.45152
3.45188
3.45228
3.45272
3.45319
3.45371
3.45425
3.45483
3.45544
3.45609
3.45676
3.45747
3.4582
3.45896
3.45976
3.46058
3.46143
3.4623
3.4632
3.46413
3.46509
3.46606
3.46706
3.46809
3.46914
3.47021
3.4713
3.47241
3.47354
3.47469
3.47586
3.47704
3.47825
3.47947
3.4807
3.48195
3.48322
3.4845
3.4858
3.48711
3.48844
3.48979
3.49115
3.49252
3.1011
3.10012
3.09921
3.09839
3.09763
3.09694
3.09632
3.09576
3.09527
3.09487
3.09455
3.0943
3.0941
3.09395
3.09382
3.09373
3.09367
3.09363
3.09361
3.09361
3.09364
3.09368
3.09374
3.09382
3.09392
3.09404
3.09417
3.09432
3.09448
3.09467
3.09486
3.09507
3.0953
3.09553
3.09579
3.09605
3.09633
3.09661
3.09691
3.09722
3.09754
3.09787
3.09821
3.09856
3.09891
3.09928
3.09965
3.10003
3.10041
3.1008
3.1012
3.1016
3.10202
3.10243
3.10286
3.10328
3.10372
3.04381
3.04284
3.04195
3.04111
3.04033
3.03961
3.03893
3.0383
3.03772
3.0372
3.03673
3.0363
3.03591
3.03556
3.03523
3.03493
3.03464
3.03438
3.03413
3.0339
3.03369
3.03348
3.03329
3.03312
3.03295
3.0328
3.03266
3.03253
3.03241
3.0323
3.03219
3.0321
3.03202
3.03194
3.03188
3.03182
3.03177
3.03172
3.03168
3.03165
3.03162
3.03159
3.03158
3.03156
3.03155
3.03154
3.03154
3.03154
3.03154
3.03155
3.03155
3.03156
3.03157
3.03158
3.0316
3.03162
3.03164
3.05756
3.05663
3.05576
3.05494
3.05417
3.05344
3.05275
3.05211
3.0515
3.05093
3.0504
3.0499
3.04943
3.04899
3.04857
3.04817
3.04778
3.04741
3.04706
3.04671
3.04638
3.04606
3.04575
3.04545
3.04515
3.04487
3.04459
3.04433
3.04406
3.04381
3.04356
3.04332
3.04308
3.04285
3.04262
3.0424
3.04218
3.04197
3.04176
3.04155
3.04134
3.04114
3.04094
3.04074
3.04054
3.04034
3.04015
3.03995
3.03975
3.03956
3.03936
3.03917
3.03897
3.03877
3.03858
3.03838
3.03818
3.08999
3.08911
3.08827
3.08749
3.08675
3.08605
3.08538
3.08475
3.08414
3.08357
3.08303
3.08252
3.08202
3.08155
3.0811
3.08066
3.08024
3.07983
3.07943
3.07904
3.07866
3.07829
3.07793
3.07757
3.07723
3.07689
3.07655
3.07622
3.07589
3.07557
3.07526
3.07495
3.07464
3.07433
3.07403
3.07373
3.07343
3.07314
3.07284
3.07255
3.07226
3.07197
3.07168
3.07139
3.0711
3.07081
3.07051
3.07022
3.06993
3.06963
3.06934
3.06904
3.06874
3.06844
3.06814
3.06783
3.06752
3.12379
3.12301
3.12227
3.12158
3.12091
3.12028
3.11968
3.11911
3.11856
3.11804
3.11754
3.11705
3.11659
3.11614
3.1157
3.11528
3.11487
3.11446
3.11407
3.11368
3.1133
3.11293
3.11257
3.11221
3.11185
3.1115
3.11115
3.11081
3.11047
3.11014
3.1098
3.10947
3.10914
3.10881
3.10849
3.10816
3.10784
3.10751
3.10719
3.10687
3.10654
3.10622
3.10589
3.10557
3.10524
3.10491
3.10458
3.10425
3.10391
3.10357
3.10323
3.10289
3.10255
3.1022
3.10185
3.1015
3.15512
3.1544
3.15371
3.15306
3.15245
3.15186
3.1513
3.15077
3.15026
3.14977
3.1493
3.14885
3.14841
3.14798
3.14757
3.14716
3.14677
3.14639
3.14601
3.14564
3.14528
3.14492
3.14457
3.14422
3.14388
3.14354
3.1432
3.14287
3.14253
3.14221
3.14188
3.14155
3.14123
3.14091
3.14058
3.14026
3.13994
3.13962
3.13929
3.13897
3.13865
3.13832
3.13799
3.13767
3.13734
3.137
3.13667
3.13633
3.136
3.13566
3.13531
3.13497
3.13462
3.13426
3.13391
3.13355
3.18083
3.1802
3.1796
3.17903
3.1785
3.17799
3.1775
3.17703
3.17658
3.17615
3.17573
3.17533
3.17494
3.17456
3.17419
3.17382
3.17347
3.17312
3.17278
3.17245
3.17212
3.17179
3.17147
3.17115
3.17084
3.17053
3.17022
3.16991
3.1696
3.1693
3.169
3.16869
3.16839
3.16809
3.16779
3.16749
3.16718
3.16688
3.16658
3.16627
3.16596
3.16566
3.16535
3.16503
3.16472
3.1644
3.16409
3.16377
3.16344
3.16312
3.16279
3.16245
3.16212
3.16178
3.16144
3.20226
3.20168
3.20113
3.20061
3.20012
3.19966
3.19922
3.19879
3.19839
3.198
3.19762
3.19725
3.1969
3.19656
3.19622
3.1959
3.19558
3.19526
3.19496
3.19466
3.19436
3.19407
3.19378
3.1935
3.19322
3.19294
3.19266
3.19238
3.19211
3.19183
3.19156
3.19129
3.19102
3.19074
3.19047
3.1902
3.18992
3.18965
3.18937
3.1891
3.18882
3.18854
3.18826
3.18798
3.18769
3.1874
3.18712
3.18682
3.18653
3.18623
3.18593
3.18563
3.18532
3.18501
3.1847
3.21922
3.21868
3.21818
3.21771
3.21726
3.21684
3.21644
3.21606
3.21569
3.21534
3.215
3.21467
3.21436
3.21405
3.21376
3.21347
3.21318
3.21291
3.21264
3.21237
3.21211
3.21185
3.2116
3.21135
3.2111
3.21086
3.21061
3.21037
3.21013
3.20989
3.20965
3.20941
3.20917
3.20893
3.20869
3.20845
3.20821
3.20797
3.20773
3.20749
3.20724
3.20699
3.20675
3.2065
3.20625
3.20599
3.20574
3.20548
3.20522
3.20496
3.20469
3.20442
3.20415
3.20388
3.2036
3.23241
3.23191
3.23144
3.23101
3.2306
3.23021
3.22985
3.22951
3.22918
3.22886
3.22856
3.22827
3.22799
3.22772
3.22746
3.2272
3.22695
3.22671
3.22648
3.22625
3.22602
3.2258
3.22558
3.22536
3.22514
3.22493
3.22472
3.22451
3.2243
3.2241
3.22389
3.22368
3.22348
3.22327
3.22307
3.22286
3.22265
3.22245
3.22224
3.22203
3.22182
3.2216
3.22139
3.22117
3.22096
3.22074
3.22052
3.2203
3.22007
3.21984
3.21962
3.21938
3.21915
3.21891
3.21867
3.21843
3.24251
3.24204
3.24161
3.24121
3.24083
3.24048
3.24015
3.23984
3.23954
3.23926
3.23899
3.23873
3.23848
3.23824
3.23801
3.23778
3.23757
3.23736
3.23715
3.23695
3.23676
3.23656
3.23637
3.23619
3.236
3.23582
3.23564
3.23547
3.23529
3.23511
3.23494
3.23476
3.23459
3.23441
3.23424
3.23406
3.23389
3.23371
3.23353
3.23336
3.23318
3.233
3.23282
3.23264
3.23245
3.23227
3.23208
3.23189
3.2317
3.23151
3.23131
3.23112
3.23092
3.23072
3.23052
3.23031
3.24971
3.24931
3.24893
3.24858
3.24826
3.24795
3.24766
3.24739
3.24714
3.24689
3.24666
3.24644
3.24623
3.24602
3.24583
3.24564
3.24545
3.24528
3.2451
3.24493
3.24477
3.24461
3.24445
3.24429
3.24414
3.24399
3.24384
3.24369
3.24354
3.24339
3.24324
3.2431
3.24295
3.24281
3.24266
3.24251
3.24237
3.24222
3.24207
3.24192
3.24177
3.24162
3.24147
3.24131
3.24116
3.241
3.24085
3.24069
3.24053
3.24036
3.2402
3.24003
3.23987
3.2397
3.23953
3.25544
3.25505
3.2547
3.25437
3.25407
3.25379
3.25352
3.25327
3.25304
3.25282
3.25261
3.25241
3.25222
3.25204
3.25186
3.2517
3.25154
3.25138
3.25123
3.25108
3.25094
3.2508
3.25067
3.25054
3.25041
3.25028
3.25015
3.25003
3.2499
3.24978
3.24966
3.24954
3.24941
3.24929
3.24917
3.24905
3.24893
3.24881
3.24868
3.24856
3.24844
3.24831
3.24819
3.24806
3.24793
3.24781
3.24768
3.24755
3.24741
3.24728
3.24715
3.24701
3.24687
3.24673
3.24659
3.25974
3.25937
3.25904
3.25873
3.25844
3.25818
3.25793
3.2577
3.25748
3.25728
3.25709
3.2569
3.25673
3.25657
3.25641
3.25627
3.25612
3.25599
3.25586
3.25573
3.25561
3.25549
3.25537
3.25526
3.25515
3.25504
3.25493
3.25483
3.25472
3.25462
3.25452
3.25442
3.25432
3.25422
3.25412
3.25402
3.25391
3.25381
3.25371
3.25361
3.25351
3.25341
3.2533
3.2532
3.2531
3.25299
3.25288
3.25278
3.25267
3.25256
3.25245
3.25234
3.25222
3.25211
3.25199
3.26276
3.26241
3.26209
3.2618
3.26153
3.26127
3.26104
3.26082
3.26062
3.26043
3.26026
3.26009
3.25993
3.25979
3.25965
3.25952
3.25939
3.25927
3.25915
3.25904
3.25894
3.25884
3.25874
3.25864
3.25855
3.25846
3.25837
3.25828
3.25819
3.25811
3.25802
3.25794
3.25786
3.25777
3.25769
3.25761
3.25753
3.25745
3.25736
3.25728
3.2572
3.25712
3.25703
3.25695
3.25687
3.25678
3.2567
3.25661
3.25652
3.25644
3.25635
3.25626
3.25617
3.25608
3.25598
3.26444
3.26413
3.26385
3.26359
3.26335
3.26313
3.26292
3.26274
3.26256
3.2624
3.26224
3.2621
3.26197
3.26184
3.26172
3.26161
3.2615
3.2614
3.26131
3.26121
3.26113
3.26104
3.26096
3.26088
3.26081
3.26073
3.26066
3.26059
3.26052
3.26045
3.26038
3.26031
3.26025
3.26018
3.26012
3.26005
3.25999
3.25992
3.25986
3.25979
3.25973
3.25966
3.2596
3.25953
3.25946
3.2594
3.25933
3.25926
3.2592
3.25913
3.25906
3.25899
3.25892
3.25885
3.26549
3.26522
3.26497
3.26474
3.26453
3.26434
3.26416
3.264
3.26385
3.2637
3.26357
3.26345
3.26334
3.26323
3.26313
3.26303
3.26294
3.26286
3.26278
3.2627
3.26263
3.26256
3.26249
3.26243
3.26237
3.26231
3.26225
3.26219
3.26214
3.26208
3.26203
3.26198
3.26192
3.26187
3.26182
3.26177
3.26172
3.26167
3.26162
3.26157
3.26152
3.26147
3.26142
3.26137
3.26131
3.26126
3.26121
3.26116
3.26111
3.26106
3.261
3.26095
3.2609
3.26638
3.26613
3.26589
3.26568
3.26548
3.2653
3.26513
3.26497
3.26483
3.2647
3.26457
3.26446
3.26435
3.26426
3.26417
3.26408
3.264
3.26393
3.26386
3.26379
3.26373
3.26367
3.26361
3.26356
3.2635
3.26345
3.26341
3.26336
3.26331
3.26327
3.26323
3.26318
3.26314
3.2631
3.26306
3.26302
3.26298
3.26294
3.2629
3.26287
3.26283
3.26279
3.26275
3.26271
3.26268
3.26264
3.2626
3.26256
3.26252
3.26248
3.26244
3.26241
3.26237
3.26697
3.26673
3.2665
3.2663
3.26611
3.26593
3.26577
3.26562
3.26549
3.26536
3.26525
3.26514
3.26505
3.26496
3.26487
3.2648
3.26472
3.26466
3.2646
3.26454
3.26448
3.26443
3.26438
3.26434
3.26429
3.26425
3.26421
3.26417
3.26414
3.2641
3.26406
3.26403
3.264
3.26396
3.26393
3.2639
3.26387
3.26384
3.26381
3.26378
3.26375
3.26372
3.2637
3.26367
3.26364
3.26361
3.26358
3.26355
3.26353
3.2635
3.26347
3.26344
3.26342
3.26733
3.26711
3.26689
3.2667
3.26652
3.26635
3.2662
3.26606
3.26593
3.26581
3.2657
3.2656
3.26551
3.26543
3.26535
3.26528
3.26522
3.26516
3.2651
3.26505
3.265
3.26496
3.26491
3.26487
3.26484
3.2648
3.26477
3.26474
3.26471
3.26468
3.26465
3.26462
3.26459
3.26457
3.26454
3.26452
3.26449
3.26447
3.26445
3.26443
3.2644
3.26438
3.26436
3.26434
3.26432
3.2643
3.26428
3.26426
3.26424
3.26422
3.2642
3.26418
3.26416
3.26755
3.26733
3.26713
3.26694
3.26677
3.26661
3.26646
3.26633
3.26621
3.2661
3.266
3.2659
3.26582
3.26574
3.26567
3.26561
3.26555
3.26549
3.26544
3.2654
3.26535
3.26531
3.26528
3.26524
3.26521
3.26518
3.26515
3.26512
3.2651
3.26507
3.26505
3.26503
3.26501
3.26499
3.26497
3.26495
3.26493
3.26491
3.26489
3.26487
3.26486
3.26484
3.26483
3.26481
3.26479
3.26478
3.26476
3.26475
3.26474
3.26472
3.26471
3.26469
3.26468
3.26766
3.26745
3.26726
3.26708
3.26691
3.26676
3.26662
3.26649
3.26638
3.26627
3.26618
3.26609
3.26601
3.26594
3.26587
3.26581
3.26576
3.26571
3.26566
3.26562
3.26558
3.26555
3.26552
3.26549
3.26546
3.26543
3.26541
3.26538
3.26536
3.26534
3.26532
3.2653
3.26529
3.26527
3.26525
3.26524
3.26522
3.26521
3.26519
3.26518
3.26517
3.26516
3.26514
3.26513
3.26512
3.26511
3.2651
3.26509
3.26508
3.26507
3.26506
3.26505
3.26504
3.26769
3.26749
3.2673
3.26713
3.26697
3.26682
3.26669
3.26657
3.26646
3.26636
3.26627
3.26619
3.26612
3.26605
3.26599
3.26594
3.26589
3.26584
3.2658
3.26576
3.26573
3.2657
3.26567
3.26564
3.26562
3.26559
3.26557
3.26555
3.26553
3.26552
3.2655
3.26548
3.26547
3.26545
3.26544
3.26543
3.26542
3.26541
3.26539
3.26538
3.26537
3.26536
3.26536
3.26535
3.26534
3.26533
3.26532
3.26531
3.26531
3.2653
3.26529
3.26529
3.26528
3.26765
3.26746
3.26728
3.26712
3.26697
3.26683
3.2667
3.26659
3.26648
3.26639
3.26631
3.26623
3.26616
3.2661
3.26604
3.26599
3.26595
3.26591
3.26587
3.26583
3.2658
3.26577
3.26575
3.26573
3.2657
3.26568
3.26567
3.26565
3.26563
3.26562
3.2656
3.26559
3.26558
3.26557
3.26555
3.26554
3.26553
3.26552
3.26552
3.26551
3.2655
3.26549
3.26548
3.26548
3.26547
3.26546
3.26546
3.26545
3.26545
3.26544
3.26544
3.26543
3.26543
3.26756
3.26738
3.26721
3.26706
3.26691
3.26678
3.26666
3.26655
3.26645
3.26637
3.26629
3.26622
3.26615
3.2661
3.26605
3.266
3.26596
3.26592
3.26589
3.26586
3.26583
3.2658
3.26578
3.26576
3.26574
3.26572
3.2657
3.26569
3.26567
3.26566
3.26565
3.26564
3.26563
3.26562
3.26561
3.2656
3.26559
3.26558
3.26557
3.26557
3.26556
3.26555
3.26555
3.26554
3.26554
3.26553
3.26552
3.26552
3.26552
3.26551
3.26551
3.2655
3.2655
3.26741
3.26724
3.26709
3.26694
3.26681
3.26668
3.26657
3.26647
3.26638
3.2663
3.26623
3.26616
3.2661
3.26605
3.266
3.26596
3.26592
3.26589
3.26586
3.26583
3.26581
3.26578
3.26576
3.26574
3.26573
3.26571
3.2657
3.26568
3.26567
3.26566
3.26565
3.26564
3.26563
3.26562
3.26561
3.2656
3.26559
3.26558
3.26558
3.26557
3.26556
3.26556
3.26555
3.26555
3.26554
3.26554
3.26553
3.26553
3.26552
3.26552
3.26552
3.26551
3.26551
3.26721
3.26705
3.26691
3.26677
3.26665
3.26653
3.26643
3.26634
3.26626
3.26618
3.26612
3.26606
3.266
3.26596
3.26591
3.26587
3.26584
3.26581
3.26578
3.26575
3.26573
3.26571
3.26569
3.26567
3.26566
3.26564
3.26563
3.26562
3.2656
3.26559
3.26558
3.26557
3.26556
3.26555
3.26554
3.26554
3.26553
3.26552
3.26551
3.26551
3.2655
3.26549
3.26549
3.26548
3.26547
3.26547
3.26546
3.26546
3.26545
3.26545
3.26544
3.26544
3.26544
3.26695
3.26681
3.26667
3.26655
3.26643
3.26633
3.26624
3.26615
3.26608
3.26601
3.26595
3.2659
3.26585
3.26581
3.26577
3.26573
3.2657
3.26567
3.26564
3.26562
3.2656
3.26558
3.26556
3.26554
3.26553
3.26551
3.2655
3.26549
3.26547
3.26546
3.26545
3.26544
3.26543
3.26542
3.26541
3.2654
3.26539
3.26538
3.26537
3.26536
3.26535
3.26535
3.26534
3.26533
3.26532
3.26531
3.26531
3.2653
3.26529
3.26528
3.26528
3.26527
3.26526
3.26663
3.2665
3.26638
3.26627
3.26616
3.26607
3.26599
3.26591
3.26584
3.26578
3.26573
3.26568
3.26563
3.26559
3.26556
3.26552
3.26549
3.26547
3.26544
3.26542
3.2654
3.26538
3.26536
3.26534
3.26533
3.26531
3.2653
3.26528
3.26527
3.26525
3.26524
3.26523
3.26521
3.2652
3.26519
3.26517
3.26516
3.26515
3.26514
3.26513
3.26511
3.2651
3.26509
3.26508
3.26507
3.26505
3.26504
3.26503
3.26502
3.26501
3.26499
3.26498
3.26497
3.26624
3.26613
3.26602
3.26592
3.26582
3.26574
3.26566
3.26559
3.26553
3.26548
3.26543
3.26538
3.26534
3.2653
3.26527
3.26524
3.26521
3.26518
3.26515
3.26513
3.26511
3.26509
3.26507
3.26505
3.26503
3.26501
3.26499
3.26497
3.26496
3.26494
3.26492
3.2649
3.26489
3.26487
3.26485
3.26483
3.26482
3.2648
3.26478
3.26476
3.26474
3.26473
3.26471
3.26469
3.26467
3.26465
3.26463
3.26462
3.2646
3.26458
3.26456
3.26454
3.26452
3.26578
3.26567
3.26557
3.26548
3.26539
3.26532
3.26525
3.26519
3.26513
3.26508
3.26503
3.26499
3.26495
3.26491
3.26487
3.26484
3.26481
3.26478
3.26475
3.26473
3.2647
3.26468
3.26465
3.26463
3.26461
3.26458
3.26456
3.26454
3.26451
3.26449
3.26446
3.26444
3.26441
3.26439
3.26436
3.26434
3.26431
3.26429
3.26426
3.26423
3.26421
3.26418
3.26415
3.26412
3.26409
3.26407
3.26404
3.26401
3.26398
3.26395
3.26392
3.26388
3.26385
3.2652
3.2651
3.26501
3.26493
3.26485
3.26478
3.26471
3.26465
3.2646
3.26455
3.2645
3.26446
3.26442
3.26438
3.26434
3.26431
3.26427
3.26424
3.26421
3.26417
3.26414
3.26411
3.26408
3.26405
3.26402
3.26398
3.26395
3.26392
3.26389
3.26385
3.26382
3.26378
3.26375
3.26371
3.26367
3.26364
3.2636
3.26356
3.26352
3.26348
3.26344
3.2634
3.26335
3.26331
3.26327
3.26322
3.26318
3.26313
3.26308
3.26304
3.26299
3.26294
3.26289
3.26448
3.26439
3.2643
3.26422
3.26415
3.26408
3.26401
3.26396
3.2639
3.26385
3.2638
3.26375
3.26371
3.26366
3.26362
3.26358
3.26353
3.26349
3.26345
3.26341
3.26337
3.26333
3.26328
3.26324
3.2632
3.26315
3.26311
3.26306
3.26301
3.26296
3.26291
3.26286
3.26281
3.26276
3.2627
3.26265
3.26259
3.26253
3.26248
3.26242
3.26235
3.26229
3.26223
3.26216
3.2621
3.26203
3.26196
3.26189
3.26182
3.26175
3.26167
3.2616
3.26152
3.26356
3.26347
3.26339
3.26331
3.26323
3.26316
3.26309
3.26303
3.26297
3.26291
3.26286
3.2628
3.26275
3.26269
3.26264
3.26258
3.26253
3.26248
3.26242
3.26236
3.26231
3.26225
3.26219
3.26213
3.26207
3.262
3.26194
3.26187
3.2618
3.26173
3.26166
3.26159
3.26151
3.26144
3.26136
3.26128
3.26119
3.26111
3.26102
3.26094
3.26085
3.26075
3.26066
3.26056
3.26047
3.26037
3.26026
3.26016
3.26005
3.25994
3.25983
3.25972
3.2596
3.26238
3.26228
3.26219
3.26211
3.26203
3.26195
3.26187
3.2618
3.26173
3.26166
3.26159
3.26152
3.26145
3.26138
3.26131
3.26124
3.26116
3.26109
3.26101
3.26093
3.26085
3.26077
3.26069
3.2606
3.26052
3.26043
3.26033
3.26024
3.26014
3.26004
3.25994
3.25983
3.25972
3.25961
3.2595
3.25938
3.25926
3.25914
3.25902
3.25889
3.25876
3.25863
3.25849
3.25835
3.25821
3.25806
3.25791
3.25776
3.2576
3.25744
3.25728
3.25711
3.25694
3.26082
3.26072
3.26062
3.26052
3.26042
3.26033
3.26024
3.26015
3.26006
3.25997
3.25988
3.25979
3.2597
3.2596
3.2595
3.25941
3.25931
3.2592
3.2591
3.25899
3.25887
3.25876
3.25864
3.25852
3.2584
3.25827
3.25814
3.258
3.25786
3.25772
3.25758
3.25743
3.25727
3.25711
3.25695
3.25679
3.25662
3.25645
3.25627
3.25609
3.2559
3.25571
3.25551
3.25531
3.25511
3.2549
3.25468
3.25446
3.25424
3.25401
3.25377
3.25353
3.25329
3.25885
3.25872
3.2586
3.25848
3.25836
3.25824
3.25813
3.25801
3.25789
3.25777
3.25765
3.25753
3.2574
3.25727
3.25714
3.257
3.25686
3.25672
3.25657
3.25642
3.25626
3.2561
3.25594
3.25577
3.25559
3.25541
3.25523
3.25504
3.25485
3.25465
3.25444
3.25423
3.25402
3.2538
3.25357
3.25334
3.2531
3.25285
3.2526
3.25235
3.25209
3.25182
3.25154
3.25126
3.25097
3.25067
3.25037
3.25006
3.24974
3.24941
3.24908
3.24873
3.24838
3.25628
3.25613
3.25597
3.25582
3.25567
3.25552
3.25537
3.25521
3.25505
3.25489
3.25473
3.25456
3.25439
3.25421
3.25403
3.25384
3.25364
3.25345
3.25324
3.25303
3.25281
3.25259
3.25236
3.25213
3.25189
3.25164
3.25138
3.25112
3.25085
3.25058
3.25029
3.25
3.2497
3.2494
3.24908
3.24876
3.24843
3.24809
3.24774
3.24739
3.24702
3.24665
3.24626
3.24587
3.24547
3.24505
3.24463
3.2442
3.24375
3.2433
3.24283
3.24235
3.24186
3.25264
3.25244
3.25224
3.25205
3.25185
3.25164
3.25144
3.25123
3.25102
3.2508
3.25057
3.25034
3.2501
3.24986
3.24961
3.24935
3.24909
3.24881
3.24853
3.24824
3.24795
3.24764
3.24733
3.247
3.24667
3.24633
3.24598
3.24562
3.24525
3.24488
3.24449
3.24409
3.24368
3.24326
3.24283
3.24239
3.24194
3.24148
3.241
3.24051
3.24002
3.2395
3.23898
3.23844
3.23789
3.23732
3.23675
3.23615
3.23554
3.23492
3.23428
3.23363
3.23295
3.24731
3.24705
3.24679
3.24652
3.24626
3.24598
3.24571
3.24542
3.24513
3.24483
3.24452
3.24421
3.24388
3.24355
3.24321
3.24286
3.24249
3.24212
3.24174
3.24134
3.24094
3.24052
3.2401
3.23966
3.23921
3.23875
3.23827
3.23779
3.23729
3.23678
3.23625
3.23571
3.23516
3.2346
3.23402
3.23342
3.23282
3.23219
3.23155
3.2309
3.23023
3.22954
3.22883
3.22811
3.22737
3.22661
3.22584
3.22504
3.22423
3.22339
3.22254
3.22166
3.22076
3.23939
3.23905
3.2387
3.23835
3.23799
3.23762
3.23725
3.23687
3.23647
3.23607
3.23566
3.23523
3.2348
3.23435
3.23389
3.23341
3.23293
3.23243
3.23192
3.23139
3.23085
3.2303
3.22973
3.22915
3.22855
3.22794
3.22731
3.22667
3.22601
3.22534
3.22465
3.22394
3.22321
3.22247
3.22171
3.22093
3.22014
3.21932
3.21849
3.21763
3.21676
3.21586
3.21494
3.21401
3.21305
3.21206
3.21106
3.21003
3.20898
3.2079
3.2068
3.20567
3.20451
3.22748
3.22703
3.22658
3.22612
3.22565
3.22518
3.22469
3.22419
3.22368
3.22315
3.22261
3.22206
3.22149
3.22091
3.22031
3.2197
3.21907
3.21843
3.21777
3.2171
3.2164
3.2157
3.21497
3.21423
3.21347
3.21269
3.2119
3.21108
3.21025
3.2094
3.20853
3.20764
3.20673
3.2058
3.20485
3.20388
3.20289
3.20187
3.20083
3.19978
3.19869
3.19759
3.19646
3.1953
3.19413
3.19292
3.19169
3.19044
3.18915
3.18784
3.1865
3.18514
3.18374
3.20896
3.20841
3.20784
3.20727
3.20668
3.20609
3.20547
3.20485
3.20421
3.20356
3.20288
3.2022
3.2015
3.20078
3.20004
3.19929
3.19852
3.19773
3.19692
3.1961
3.19526
3.1944
3.19352
3.19263
3.19171
3.19078
3.18982
3.18885
3.18786
3.18684
3.18581
3.18476
3.18368
3.18259
3.18147
3.18033
3.17917
3.17798
3.17678
3.17555
3.1743
3.17302
3.17172
3.1704
3.16905
3.16768
3.16628
3.16485
3.1634
3.16192
3.16042
3.15889
3.15733
3.17924
3.1786
3.17795
3.17728
3.17661
3.17592
3.17521
3.17449
3.17375
3.173
3.17224
3.17145
3.17065
3.16983
3.169
3.16815
3.16728
3.16639
3.16549
3.16457
3.16364
3.16268
3.16171
3.16072
3.15971
3.15869
3.15765
3.15659
3.15551
3.15441
3.1533
3.15217
3.15102
3.14985
3.14866
3.14745
3.14622
3.14498
3.14371
3.14243
3.14113
3.13981
3.13847
3.1371
3.13572
3.13432
3.1329
3.13146
3.13
3.12852
3.12702
3.1255
3.12396
3.13928
3.13864
3.13799
3.13733
3.13666
3.13598
3.13528
3.13456
3.13383
3.13309
3.13233
3.13156
3.13077
3.12997
3.12915
3.12832
3.12747
3.12661
3.12573
3.12484
3.12394
3.12302
3.12209
3.12114
3.12018
3.1192
3.11821
3.11721
3.11619
3.11517
3.11412
3.11307
3.112
3.11091
3.10982
3.10871
3.10758
3.10645
3.1053
3.10414
3.10296
3.10178
3.10058
3.09937
3.09815
3.09691
3.09567
3.09441
3.09314
3.09186
3.09057
3.08927
3.08796
3.09965
3.09909
3.09852
3.09794
3.09735
3.09674
3.09613
3.09549
3.09485
3.09419
3.09353
3.09284
3.09215
3.09144
3.09072
3.08999
3.08925
3.0885
3.08773
3.08696
3.08617
3.08538
3.08457
3.08376
3.08293
3.0821
3.08125
3.0804
3.07954
3.07867
3.07779
3.07691
3.07601
3.07511
3.0742
3.07329
3.07236
3.07144
3.0705
3.06956
3.06862
3.06766
3.06671
3.06575
3.06479
3.06382
3.06285
3.06188
3.0609
3.05993
3.05895
3.05797
3.05699
3.062
3.06162
3.06123
3.06083
3.06042
3.06
3.05957
3.05912
3.05867
3.05821
3.05774
3.05725
3.05676
3.05626
3.05576
3.05524
3.05472
3.05419
3.05365
3.05311
3.05256
3.052
3.05144
3.05088
3.05031
3.04974
3.04916
3.04858
3.048
3.04742
3.04683
3.04624
3.04565
3.04506
3.04447
3.04388
3.04329
3.04271
3.04212
3.04154
3.04095
3.04038
3.0398
3.03923
3.03867
3.03811
3.03756
3.03701
3.03647
3.03594
3.03542
3.03491
3.03441
3.03392
3.03301
3.03291
3.03281
3.0327
3.03258
3.03245
3.03232
3.03217
3.03202
3.03187
3.0317
3.03153
3.03136
3.03118
3.031
3.03082
3.03063
3.03044
3.03025
3.03005
3.02986
3.02967
3.02948
3.02929
3.0291
3.02891
3.02873
3.02855
3.02837
3.0282
3.02803
3.02787
3.02771
3.02756
3.02742
3.02729
3.02716
3.02705
3.02694
3.02685
3.02676
3.02669
3.02663
3.02659
3.02656
3.02654
3.02654
3.02656
3.0266
3.02665
3.02673
3.02682
3.02694
3.02708
3.02218
3.02248
3.02278
3.02307
3.02336
3.02364
3.02391
3.02418
3.02445
3.02472
3.02498
3.02524
3.0255
3.02576
3.02603
3.02629
3.02656
3.02683
3.02711
3.02739
3.02767
3.02796
3.02826
3.02857
3.02888
3.02921
3.02954
3.02989
3.03024
3.03061
3.03099
3.03138
3.03179
3.03221
3.03265
3.0331
3.03357
3.03406
3.03457
3.03509
3.03564
3.03621
3.0368
3.03742
3.03806
3.03873
3.03942
3.04015
3.0409
3.04168
3.04249
3.04333
3.04421
3.04512
3.04395
3.04477
3.0456
3.04641
3.04723
3.04804
3.04885
3.04967
3.05048
3.05129
3.05211
3.05293
3.05375
3.05458
3.05542
3.05626
3.05711
3.05798
3.05885
3.05973
3.06063
3.06154
3.06246
3.0634
3.06435
3.06532
3.06631
3.06731
3.06834
3.06938
3.07045
3.07154
3.07265
3.07378
3.07494
3.07612
3.07733
3.07857
3.07984
3.08113
3.08246
3.08382
3.08522
3.08665
3.08811
3.08961
3.09115
3.09273
3.09435
3.09601
3.09772
3.09947
3.10126
3.10311
3.12308
3.12458
3.12608
3.12758
3.12908
3.13059
3.13209
3.1336
3.13511
3.13663
3.13816
3.1397
3.14124
3.1428
3.14437
3.14596
3.14756
3.14917
3.15081
3.15246
3.15413
3.15583
3.15754
3.15928
3.16104
3.16283
3.16465
3.16649
3.16836
3.17026
3.17219
3.17416
3.17615
3.17818
3.18025
3.18235
3.18449
3.18666
3.18888
3.19114
3.19344
3.19579
3.19819
3.20063
3.20312
3.20566
3.20825
3.2109
3.2136
3.21635
3.21917
3.22204
3.22497
3.22797
3.31029
3.31272
3.31514
3.31757
3.32
3.32244
3.32488
3.32733
3.32979
3.33227
3.33476
3.33726
3.33978
3.34232
3.34488
3.34747
3.35007
3.35271
3.35536
3.35805
3.36077
3.36351
3.36629
3.36911
3.37196
3.37484
3.37777
3.38073
3.38373
3.38678
3.38987
3.393
3.39618
3.39941
3.40268
3.40601
3.40939
3.41282
3.41631
3.41985
3.42345
3.42712
3.43085
3.43464
3.43849
3.44242
3.44641
3.45048
3.45462
3.45883
3.46312
3.46749
3.47193
3.47646
3.7392
3.74305
3.74691
3.75077
3.75464
3.75852
3.76242
3.76633
3.77026
3.77421
3.77819
3.78219
3.78622
3.79027
3.79437
3.79849
3.80266
3.80686
3.8111
3.81538
3.81971
3.82409
3.82851
3.83299
3.83752
3.8421
3.84674
3.85143
3.85619
3.86101
3.86589
3.87083
3.87584
3.88092
3.88607
3.89129
3.89659
3.90196
3.90741
3.91295
3.91857
3.92427
3.93006
3.93595
3.94192
3.94799
3.95416
3.96043
3.9668
3.97328
3.97986
3.98655
3.99335
4.00026
4.94083
4.94769
4.95456
4.96146
4.96837
4.97531
4.98228
4.98929
4.99633
5.00341
5.01053
5.0177
5.02493
5.03221
5.03955
5.04695
5.05442
5.06195
5.06956
5.07724
5.08499
5.09283
5.10075
5.10876
5.11686
5.12506
5.13335
5.14173
5.15022
5.15881
5.16751
5.17632
5.18524
5.19427
5.20342
5.2127
5.22209
5.23162
5.24128
5.25107
5.261
5.27107
5.28129
5.29166
5.30218
5.31285
5.32369
5.33469
5.34586
5.35719
5.36871
5.38039
5.39226
5.40431
11.6226
11.6433
11.6641
11.685
11.7059
11.7268
11.7479
11.769
11.7903
11.8116
11.8331
11.8548
11.8765
11.8985
11.9206
11.9429
11.9654
11.9881
12.0109
12.034
12.0574
12.0809
12.1047
12.1288
12.1531
12.1776
12.2025
12.2276
12.253
12.2788
12.3048
12.3311
12.3578
12.3847
12.412
12.4397
12.4677
12.4961
12.5248
12.5539
12.5835
12.6134
12.6437
12.6744
12.7056
12.7372
12.7693
12.8018
12.8348
12.8683
12.9022
12.9367
12.9716
13.0071
)
;

boundaryField
{
    inlet
    {
        type            fixedValue;
        value           nonuniform 0();
    }
    outlet
    {
        type            zeroGradient;
    }
    upperWall
    {
        Cmu             0.09;
        kappa           0.41;
        E               9.8;
        type            epsilonWallFunction;
        value           nonuniform List<scalar> 
54
(
11.6226
11.6433
11.6641
11.685
11.7059
11.7268
11.7479
11.769
11.7903
11.8116
11.8331
11.8548
11.8765
11.8985
11.9206
11.9429
11.9654
11.9881
12.0109
12.034
12.0574
12.0809
12.1047
12.1288
12.1531
12.1776
12.2025
12.2276
12.253
12.2788
12.3048
12.3311
12.3578
12.3847
12.412
12.4397
12.4677
12.4961
12.5248
12.5539
12.5835
12.6134
12.6437
12.6744
12.7056
12.7372
12.7693
12.8018
12.8348
12.8683
12.9022
12.9367
12.9716
13.0071
)
;
    }
    lowerWall
    {
        Cmu             0.09;
        kappa           0.41;
        E               9.8;
        type            epsilonWallFunction;
        value           nonuniform List<scalar> 
57
(
6.32531
6.32371
6.32245
6.32151
6.32087
6.3205
6.32038
6.32045
6.32084
6.32178
6.32307
6.32461
6.32634
6.32824
6.33029
6.33247
6.33479
6.33723
6.33978
6.34244
6.34522
6.3481
6.35108
6.35416
6.35733
6.36061
6.36397
6.36743
6.37098
6.37463
6.37835
6.38217
6.38607
6.39004
6.3941
6.39824
6.40246
6.40674
6.4111
6.41553
6.42003
6.4246
6.42923
6.43393
6.43868
6.44349
6.44836
6.45328
6.45826
6.46329
6.46837
6.4735
6.47869
6.48392
6.48921
6.49455
6.49995
)
;
    }
    frontAndBack
    {
        type            empty;
    }
    procBoundary1to0
    {
        type            processor;
        value           nonuniform List<scalar> 
59
(
6.5054
3.49392
3.10417
3.03166
3.03799
3.06722
3.10115
3.13319
3.1611
3.18439
3.20332
3.20332
3.21819
3.2301
3.23935
3.24645
3.25188
3.25589
3.25877
3.26084
3.26233
3.26339
3.26414
3.26467
3.26503
3.26528
3.26543
3.2655
3.26551
3.26543
3.26526
3.26496
3.2645
3.26382
3.26284
3.26144
3.25948
3.25677
3.25303
3.24802
3.24135
3.23226
3.21984
3.20333
3.18232
3.15574
3.12239
3.08663
3.05601
3.05601
3.03344
3.02724
3.04606
3.105
3.23103
3.48108
4.0073
5.41656
13.0431
)
;
    }
    procBoundary1to3
    {
        type            processor;
        value           nonuniform List<scalar> 
62
(
6.32727
3.4571
3.10218
3.04484
3.05854
3.09093
3.12462
3.12462
3.1559
3.1815
3.1815
3.20288
3.2198
3.23294
3.24301
3.25015
3.25015
3.25585
3.26014
3.26314
3.26476
3.26476
3.26578
3.26578
3.26665
3.26722
3.26757
3.26777
3.26786
3.26787
3.26781
3.26771
3.26755
3.26733
3.26707
3.26674
3.26634
3.26587
3.26529
3.26457
3.26365
3.26247
3.26093
3.25897
3.25644
3.25284
3.24757
3.23973
3.22792
3.20951
3.17987
3.1399
3.10019
3.06237
3.03309
3.02187
3.04312
3.12157
3.30787
3.73535
4.93398
11.6019
)
;
    }
}


// ************************************************************************* //
