/*--------------------------------*- C++ -*----------------------------------*\
  =========                 |
  \\      /  F ield         | OpenFOAM: The Open Source CFD Toolbox
   \\    /   O peration     | Website:  https://openfoam.org
    \\  /    A nd           | Version:  6
     \\/     M anipulation  |
\*---------------------------------------------------------------------------*/
FoamFile
{
    version     2.0;
    format      ascii;
    class       volScalarField;
    location    "0.03";
    object      k;
}
// * * * * * * * * * * * * * * * * * * * * * * * * * * * * * * * * * * * * * //

dimensions      [0 2 -2 0 0 0 0];

internalField   nonuniform List<scalar> 
3081
(
0.0400337
0.0400002
0.0399681
0.0399372
0.0399075
0.0398789
0.0398513
0.0398243
0.0397982
0.0397744
0.0397521
0.0397307
0.0397099
0.0396897
0.0396699
0.0396506
0.0396315
0.0396128
0.0395944
0.0395762
0.0395582
0.0395405
0.0395229
0.0395055
0.0394882
0.0394711
0.0394542
0.0394374
0.0394206
0.039404
0.0393875
0.039371
0.0393547
0.0393383
0.039322
0.0393058
0.0392895
0.0392733
0.0392571
0.0392408
0.0392245
0.0392082
0.0391918
0.0391754
0.0391588
0.0391422
0.0391255
0.0391087
0.0390917
0.0390746
0.0390574
0.03904
0.0390224
0.0390047
0.0389869
0.0389689
0.0389507
0.0818907
0.0818143
0.081741
0.0816704
0.0816025
0.081537
0.0814737
0.0814124
0.0813525
0.081294
0.0812375
0.0811829
0.0811299
0.0810783
0.0810281
0.0809791
0.0809311
0.0808841
0.080838
0.0807926
0.080748
0.080704
0.0806606
0.0806178
0.0805754
0.0805336
0.0804921
0.080451
0.0804103
0.0803699
0.0803298
0.08029
0.0802503
0.0802108
0.0801714
0.0801322
0.080093
0.0800539
0.0800148
0.0799756
0.0799364
0.0798972
0.0798578
0.0798182
0.0797786
0.0797387
0.0796986
0.0796582
0.0796176
0.0795767
0.0795356
0.0794941
0.0794523
0.0794101
0.0793677
0.0793249
0.0792818
0.103968
0.103877
0.10379
0.103706
0.103625
0.103547
0.103471
0.103398
0.103327
0.103257
0.103189
0.103123
0.103059
0.102996
0.102935
0.102875
0.102816
0.102758
0.102701
0.102645
0.102589
0.102535
0.102481
0.102427
0.102375
0.102322
0.10227
0.102219
0.102168
0.102117
0.102067
0.102017
0.101967
0.101917
0.101867
0.101817
0.101768
0.101718
0.101669
0.101619
0.101569
0.101519
0.101469
0.101419
0.101368
0.101318
0.101267
0.101215
0.101164
0.101112
0.101059
0.101006
0.100953
0.100899
0.100845
0.100791
0.100736
0.119389
0.119292
0.119199
0.119109
0.119023
0.118939
0.118858
0.118779
0.118702
0.118628
0.118555
0.118484
0.118414
0.118346
0.118279
0.118214
0.118149
0.118086
0.118023
0.117961
0.117901
0.11784
0.117781
0.117722
0.117664
0.117606
0.117549
0.117492
0.117435
0.117378
0.117322
0.117266
0.117211
0.117155
0.117099
0.117044
0.116988
0.116933
0.116877
0.116822
0.116766
0.11671
0.116653
0.116597
0.11654
0.116483
0.116426
0.116368
0.11631
0.116251
0.116192
0.116132
0.116073
0.116012
0.115951
0.11589
0.115828
0.131226
0.131128
0.131034
0.130943
0.130855
0.13077
0.130687
0.130607
0.130529
0.130453
0.130379
0.130306
0.130235
0.130165
0.130096
0.130028
0.129962
0.129897
0.129832
0.129768
0.129705
0.129643
0.129581
0.12952
0.12946
0.129399
0.12934
0.12928
0.129221
0.129162
0.129104
0.129045
0.128987
0.128928
0.12887
0.128812
0.128754
0.128695
0.128637
0.128578
0.12852
0.128461
0.128401
0.128342
0.128282
0.128222
0.128161
0.1281
0.128039
0.127977
0.127915
0.127852
0.127789
0.127725
0.127661
0.127596
0.12753
0.140612
0.140517
0.140424
0.140335
0.140249
0.140166
0.140085
0.140006
0.139929
0.139855
0.139782
0.13971
0.139639
0.13957
0.139502
0.139436
0.13937
0.139305
0.139241
0.139177
0.139115
0.139053
0.138991
0.138931
0.13887
0.13881
0.138751
0.138691
0.138632
0.138573
0.138514
0.138456
0.138397
0.138339
0.138281
0.138222
0.138164
0.138105
0.138046
0.137987
0.137928
0.137869
0.137809
0.137749
0.137689
0.137628
0.137567
0.137505
0.137443
0.137381
0.137318
0.137255
0.137191
0.137126
0.137061
0.136995
0.136929
0.148048
0.14796
0.147875
0.147793
0.147713
0.147636
0.147561
0.147488
0.147416
0.147346
0.147278
0.14721
0.147144
0.147079
0.147014
0.146951
0.146889
0.146827
0.146766
0.146706
0.146646
0.146587
0.146528
0.14647
0.146412
0.146354
0.146297
0.14624
0.146183
0.146126
0.146069
0.146012
0.145956
0.145899
0.145842
0.145785
0.145728
0.145671
0.145614
0.145556
0.145498
0.14544
0.145382
0.145323
0.145264
0.145204
0.145144
0.145084
0.145023
0.144961
0.144899
0.144837
0.144774
0.14471
0.144646
0.144581
0.154099
0.154017
0.153938
0.153861
0.153787
0.153715
0.153645
0.153577
0.15351
0.153444
0.15338
0.153317
0.153255
0.153194
0.153134
0.153075
0.153016
0.152958
0.152901
0.152844
0.152788
0.152733
0.152678
0.152623
0.152568
0.152514
0.15246
0.152406
0.152352
0.152299
0.152245
0.152192
0.152138
0.152085
0.152031
0.151977
0.151923
0.151869
0.151815
0.15176
0.151706
0.151651
0.151595
0.151539
0.151483
0.151427
0.15137
0.151312
0.151254
0.151196
0.151137
0.151078
0.151018
0.150957
0.150896
0.150834
0.158869
0.158796
0.158726
0.158658
0.158592
0.158528
0.158466
0.158405
0.158345
0.158286
0.158228
0.158171
0.158115
0.15806
0.158006
0.157952
0.157899
0.157847
0.157795
0.157743
0.157692
0.157642
0.157591
0.157541
0.157492
0.157442
0.157392
0.157343
0.157294
0.157244
0.157195
0.157146
0.157096
0.157047
0.156997
0.156947
0.156897
0.156847
0.156797
0.156746
0.156695
0.156644
0.156592
0.15654
0.156488
0.156435
0.156382
0.156328
0.156274
0.156219
0.156164
0.156108
0.156052
0.155995
0.155938
0.162728
0.162662
0.162599
0.162538
0.162479
0.162421
0.162365
0.16231
0.162257
0.162204
0.162152
0.162101
0.162051
0.162001
0.161952
0.161904
0.161857
0.161809
0.161763
0.161717
0.161671
0.161625
0.16158
0.161535
0.16149
0.161446
0.161401
0.161357
0.161312
0.161268
0.161223
0.161179
0.161134
0.16109
0.161045
0.161
0.160955
0.160909
0.160864
0.160818
0.160772
0.160725
0.160679
0.160631
0.160584
0.160536
0.160488
0.160439
0.16039
0.16034
0.16029
0.160239
0.160188
0.160137
0.160085
0.165769
0.165711
0.165655
0.165601
0.165548
0.165497
0.165448
0.1654
0.165352
0.165305
0.16526
0.165214
0.16517
0.165127
0.165084
0.165041
0.164999
0.164958
0.164917
0.164876
0.164836
0.164796
0.164756
0.164716
0.164677
0.164637
0.164598
0.164559
0.16452
0.16448
0.164441
0.164402
0.164362
0.164323
0.164283
0.164244
0.164204
0.164163
0.164123
0.164082
0.164041
0.164
0.163959
0.163917
0.163875
0.163832
0.163789
0.163746
0.163702
0.163658
0.163613
0.163568
0.163523
0.163477
0.16343
0.168139
0.168088
0.168039
0.167992
0.167946
0.167902
0.167859
0.167816
0.167775
0.167734
0.167695
0.167656
0.167617
0.167579
0.167542
0.167505
0.167469
0.167433
0.167398
0.167363
0.167328
0.167293
0.167259
0.167225
0.167191
0.167157
0.167123
0.167089
0.167055
0.167021
0.166987
0.166953
0.166919
0.166884
0.16685
0.166815
0.166781
0.166746
0.166711
0.166675
0.16664
0.166604
0.166568
0.166531
0.166495
0.166458
0.16642
0.166382
0.166344
0.166306
0.166267
0.166227
0.166187
0.166147
0.166107
0.166065
0.169963
0.169919
0.169876
0.169835
0.169796
0.169758
0.16972
0.169684
0.169649
0.169614
0.16958
0.169546
0.169514
0.169481
0.16945
0.169418
0.169388
0.169357
0.169327
0.169297
0.169268
0.169239
0.169209
0.16918
0.169151
0.169123
0.169094
0.169065
0.169036
0.169007
0.168978
0.168949
0.16892
0.168891
0.168862
0.168832
0.168803
0.168773
0.168743
0.168713
0.168683
0.168652
0.168621
0.16859
0.168559
0.168527
0.168495
0.168463
0.16843
0.168397
0.168364
0.16833
0.168296
0.168261
0.168226
0.168191
0.171309
0.171272
0.171237
0.171203
0.171171
0.171139
0.171108
0.171078
0.171049
0.17102
0.170992
0.170964
0.170937
0.17091
0.170884
0.170859
0.170833
0.170808
0.170783
0.170759
0.170734
0.17071
0.170686
0.170661
0.170637
0.170613
0.170589
0.170565
0.170541
0.170517
0.170493
0.170469
0.170444
0.17042
0.170395
0.170371
0.170346
0.170321
0.170296
0.17027
0.170244
0.170219
0.170193
0.170166
0.17014
0.170113
0.170085
0.170058
0.17003
0.170002
0.169974
0.169945
0.169916
0.169886
0.169856
0.172349
0.172318
0.172288
0.172259
0.172231
0.172205
0.172178
0.172153
0.172128
0.172104
0.172081
0.172058
0.172035
0.172013
0.171992
0.17197
0.171949
0.171929
0.171908
0.171888
0.171868
0.171848
0.171829
0.171809
0.171789
0.171769
0.17175
0.17173
0.17171
0.171691
0.171671
0.171651
0.171631
0.171611
0.171591
0.17157
0.17155
0.171529
0.171509
0.171488
0.171467
0.171445
0.171424
0.171402
0.17138
0.171358
0.171336
0.171313
0.17129
0.171267
0.171243
0.171219
0.171195
0.171171
0.171146
0.173131
0.173105
0.173079
0.173054
0.173031
0.173008
0.172986
0.172965
0.172944
0.172924
0.172905
0.172886
0.172867
0.172849
0.172831
0.172814
0.172797
0.17278
0.172764
0.172747
0.172731
0.172715
0.172699
0.172683
0.172667
0.172651
0.172635
0.172619
0.172603
0.172587
0.172571
0.172555
0.172538
0.172522
0.172506
0.172489
0.172472
0.172456
0.172439
0.172422
0.172404
0.172387
0.17237
0.172352
0.172334
0.172316
0.172297
0.172279
0.17226
0.172241
0.172222
0.172202
0.172182
0.172162
0.172142
0.173681
0.173658
0.173636
0.173616
0.173596
0.173577
0.173558
0.17354
0.173523
0.173507
0.173491
0.173475
0.17346
0.173445
0.173431
0.173417
0.173403
0.17339
0.173377
0.173364
0.173351
0.173338
0.173325
0.173313
0.1733
0.173287
0.173275
0.173262
0.173249
0.173237
0.173224
0.173211
0.173198
0.173185
0.173172
0.173159
0.173146
0.173133
0.173119
0.173106
0.173092
0.173078
0.173064
0.17305
0.173036
0.173022
0.173007
0.172992
0.172977
0.172962
0.172947
0.172931
0.172915
0.172899
0.172883
0.174028
0.174009
0.173992
0.173975
0.173959
0.173943
0.173929
0.173914
0.173901
0.173888
0.173875
0.173863
0.173851
0.17384
0.173829
0.173818
0.173807
0.173797
0.173787
0.173777
0.173767
0.173757
0.173747
0.173738
0.173728
0.173718
0.173709
0.173699
0.173689
0.173679
0.17367
0.17366
0.17365
0.17364
0.17363
0.17362
0.17361
0.173599
0.173589
0.173579
0.173568
0.173557
0.173547
0.173536
0.173525
0.173513
0.173502
0.173491
0.173479
0.173467
0.173455
0.173443
0.173431
0.173419
0.174261
0.174246
0.174231
0.174218
0.174205
0.174192
0.174181
0.174169
0.174159
0.174149
0.174139
0.174129
0.17412
0.174112
0.174103
0.174095
0.174087
0.174079
0.174072
0.174064
0.174057
0.174049
0.174042
0.174035
0.174027
0.17402
0.174013
0.174006
0.173998
0.173991
0.173984
0.173976
0.173969
0.173961
0.173954
0.173946
0.173939
0.173931
0.173923
0.173915
0.173908
0.1739
0.173891
0.173883
0.173875
0.173867
0.173858
0.17385
0.173841
0.173832
0.173823
0.173814
0.173805
0.174432
0.174418
0.174406
0.174394
0.174383
0.174373
0.174363
0.174354
0.174345
0.174337
0.174329
0.174321
0.174314
0.174307
0.174301
0.174294
0.174288
0.174282
0.174277
0.174271
0.174266
0.17426
0.174255
0.174249
0.174244
0.174238
0.174233
0.174228
0.174222
0.174217
0.174212
0.174206
0.174201
0.174195
0.17419
0.174184
0.174179
0.174173
0.174168
0.174162
0.174157
0.174151
0.174145
0.174139
0.174133
0.174127
0.174121
0.174115
0.174109
0.174103
0.174096
0.17409
0.174083
0.174547
0.174536
0.174525
0.174515
0.174506
0.174497
0.174488
0.174481
0.174473
0.174466
0.17446
0.174454
0.174448
0.174443
0.174438
0.174433
0.174428
0.174424
0.17442
0.174416
0.174411
0.174407
0.174403
0.174399
0.174396
0.174392
0.174388
0.174384
0.17438
0.174376
0.174372
0.174369
0.174365
0.174361
0.174357
0.174353
0.174349
0.174345
0.174341
0.174337
0.174333
0.174329
0.174325
0.174321
0.174317
0.174313
0.174309
0.174305
0.1743
0.174296
0.174292
0.174287
0.174282
0.174626
0.174615
0.174606
0.174597
0.174589
0.174581
0.174574
0.174568
0.174562
0.174556
0.174551
0.174546
0.174541
0.174537
0.174533
0.174529
0.174526
0.174523
0.174519
0.174516
0.174513
0.17451
0.174508
0.174505
0.174502
0.174499
0.174496
0.174494
0.174491
0.174488
0.174486
0.174483
0.17448
0.174478
0.174475
0.174472
0.17447
0.174467
0.174464
0.174462
0.174459
0.174456
0.174453
0.174451
0.174448
0.174445
0.174442
0.174439
0.174437
0.174434
0.174431
0.174428
0.174425
0.174678
0.174669
0.17466
0.174653
0.174645
0.174639
0.174633
0.174627
0.174622
0.174617
0.174613
0.174609
0.174605
0.174602
0.174599
0.174596
0.174593
0.174591
0.174589
0.174586
0.174584
0.174582
0.17458
0.174578
0.174576
0.174574
0.174572
0.17457
0.174569
0.174567
0.174565
0.174563
0.174561
0.174559
0.174558
0.174556
0.174554
0.174552
0.174551
0.174549
0.174547
0.174545
0.174543
0.174542
0.17454
0.174538
0.174536
0.174534
0.174533
0.174531
0.174529
0.174527
0.174525
0.174711
0.174703
0.174696
0.174689
0.174682
0.174677
0.174671
0.174666
0.174662
0.174658
0.174654
0.174651
0.174648
0.174646
0.174643
0.174641
0.174639
0.174637
0.174636
0.174634
0.174633
0.174631
0.17463
0.174628
0.174627
0.174626
0.174625
0.174623
0.174622
0.174621
0.17462
0.174618
0.174617
0.174616
0.174615
0.174614
0.174613
0.174611
0.17461
0.174609
0.174608
0.174607
0.174606
0.174605
0.174604
0.174603
0.174602
0.1746
0.174599
0.174598
0.174597
0.174596
0.174595
0.174731
0.174724
0.174717
0.174711
0.174705
0.1747
0.174695
0.174691
0.174687
0.174684
0.174681
0.174678
0.174676
0.174674
0.174672
0.17467
0.174669
0.174668
0.174667
0.174665
0.174664
0.174663
0.174663
0.174662
0.174661
0.17466
0.174659
0.174658
0.174657
0.174657
0.174656
0.174655
0.174654
0.174654
0.174653
0.174652
0.174652
0.174651
0.17465
0.17465
0.174649
0.174648
0.174648
0.174647
0.174646
0.174646
0.174645
0.174645
0.174644
0.174643
0.174643
0.174642
0.174642
0.174741
0.174734
0.174728
0.174722
0.174717
0.174713
0.174709
0.174705
0.174702
0.174699
0.174696
0.174694
0.174692
0.17469
0.174689
0.174688
0.174687
0.174686
0.174685
0.174684
0.174684
0.174683
0.174682
0.174682
0.174681
0.174681
0.17468
0.17468
0.174679
0.174679
0.174678
0.174678
0.174677
0.174677
0.174676
0.174676
0.174676
0.174675
0.174675
0.174675
0.174674
0.174674
0.174673
0.174673
0.174673
0.174673
0.174672
0.174672
0.174672
0.174671
0.174671
0.174671
0.17467
0.174742
0.174736
0.17473
0.174725
0.174721
0.174717
0.174713
0.17471
0.174707
0.174704
0.174702
0.1747
0.174699
0.174697
0.174696
0.174695
0.174695
0.174694
0.174693
0.174693
0.174693
0.174692
0.174692
0.174691
0.174691
0.174691
0.17469
0.17469
0.17469
0.17469
0.174689
0.174689
0.174689
0.174688
0.174688
0.174688
0.174688
0.174687
0.174687
0.174687
0.174687
0.174687
0.174686
0.174686
0.174686
0.174686
0.174686
0.174686
0.174686
0.174685
0.174685
0.174685
0.174685
0.174736
0.17473
0.174725
0.174721
0.174717
0.174713
0.17471
0.174707
0.174705
0.174702
0.174701
0.174699
0.174698
0.174697
0.174696
0.174695
0.174694
0.174694
0.174694
0.174693
0.174693
0.174693
0.174693
0.174692
0.174692
0.174692
0.174692
0.174691
0.174691
0.174691
0.174691
0.17469
0.17469
0.17469
0.17469
0.17469
0.174689
0.174689
0.174689
0.174689
0.174689
0.174689
0.174688
0.174688
0.174688
0.174688
0.174688
0.174688
0.174688
0.174688
0.174687
0.174687
0.174687
0.174722
0.174717
0.174712
0.174708
0.174705
0.174701
0.174698
0.174696
0.174693
0.174691
0.17469
0.174688
0.174687
0.174686
0.174685
0.174685
0.174684
0.174684
0.174684
0.174683
0.174683
0.174683
0.174683
0.174682
0.174682
0.174682
0.174682
0.174681
0.174681
0.174681
0.17468
0.17468
0.17468
0.174679
0.174679
0.174679
0.174678
0.174678
0.174678
0.174677
0.174677
0.174677
0.174676
0.174676
0.174676
0.174675
0.174675
0.174675
0.174675
0.174674
0.174674
0.174674
0.174673
0.174698
0.174694
0.17469
0.174686
0.174683
0.17468
0.174677
0.174675
0.174672
0.174671
0.174669
0.174668
0.174666
0.174665
0.174665
0.174664
0.174663
0.174663
0.174662
0.174662
0.174662
0.174661
0.174661
0.17466
0.17466
0.174659
0.174659
0.174658
0.174658
0.174657
0.174657
0.174656
0.174655
0.174655
0.174654
0.174653
0.174653
0.174652
0.174651
0.174651
0.17465
0.174649
0.174649
0.174648
0.174647
0.174646
0.174646
0.174645
0.174644
0.174643
0.174642
0.174642
0.174641
0.174665
0.17466
0.174656
0.174653
0.17465
0.174647
0.174644
0.174642
0.17464
0.174638
0.174636
0.174635
0.174633
0.174632
0.174631
0.17463
0.17463
0.174629
0.174628
0.174627
0.174627
0.174626
0.174625
0.174624
0.174623
0.174622
0.174621
0.17462
0.174619
0.174618
0.174617
0.174616
0.174615
0.174613
0.174612
0.174611
0.17461
0.174608
0.174607
0.174606
0.174604
0.174603
0.174601
0.1746
0.174599
0.174597
0.174595
0.174594
0.174592
0.174591
0.174589
0.174587
0.174586
0.174618
0.174613
0.17461
0.174606
0.174603
0.1746
0.174597
0.174595
0.174593
0.174591
0.174589
0.174587
0.174585
0.174584
0.174582
0.174581
0.17458
0.174578
0.174577
0.174576
0.174574
0.174573
0.174571
0.17457
0.174568
0.174567
0.174565
0.174563
0.174561
0.174559
0.174557
0.174555
0.174553
0.174551
0.174549
0.174547
0.174544
0.174542
0.17454
0.174537
0.174535
0.174532
0.17453
0.174527
0.174524
0.174522
0.174519
0.174516
0.174513
0.17451
0.174507
0.174504
0.174501
0.174554
0.17455
0.174546
0.174542
0.174539
0.174536
0.174533
0.17453
0.174527
0.174524
0.174522
0.17452
0.174517
0.174515
0.174513
0.174511
0.174509
0.174507
0.174505
0.174502
0.1745
0.174498
0.174495
0.174492
0.17449
0.174487
0.174484
0.174481
0.174478
0.174475
0.174472
0.174468
0.174465
0.174461
0.174458
0.174454
0.17445
0.174446
0.174442
0.174438
0.174434
0.17443
0.174425
0.174421
0.174417
0.174412
0.174407
0.174402
0.174398
0.174393
0.174388
0.174382
0.174377
0.174469
0.174464
0.17446
0.174456
0.174452
0.174448
0.174444
0.174441
0.174437
0.174434
0.174431
0.174427
0.174424
0.174421
0.174417
0.174414
0.174411
0.174407
0.174404
0.1744
0.174396
0.174393
0.174388
0.174384
0.17438
0.174375
0.174371
0.174366
0.174361
0.174356
0.174351
0.174345
0.17434
0.174334
0.174329
0.174323
0.174317
0.17431
0.174304
0.174298
0.174291
0.174284
0.174277
0.17427
0.174263
0.174256
0.174248
0.17424
0.174233
0.174225
0.174216
0.174208
0.174199
0.174355
0.174349
0.174344
0.17434
0.174335
0.17433
0.174325
0.17432
0.174316
0.174311
0.174306
0.174301
0.174296
0.174292
0.174287
0.174282
0.174276
0.174271
0.174265
0.17426
0.174254
0.174248
0.174241
0.174235
0.174228
0.174221
0.174214
0.174207
0.174199
0.174191
0.174183
0.174175
0.174167
0.174158
0.174149
0.17414
0.174131
0.174121
0.174112
0.174102
0.174091
0.174081
0.17407
0.174059
0.174048
0.174037
0.174025
0.174013
0.174001
0.173988
0.173975
0.173962
0.173949
0.174203
0.174196
0.17419
0.174184
0.174177
0.174171
0.174164
0.174158
0.174151
0.174144
0.174138
0.174131
0.174123
0.174116
0.174109
0.174101
0.174093
0.174085
0.174077
0.174068
0.174059
0.17405
0.17404
0.174031
0.174021
0.17401
0.173999
0.173988
0.173977
0.173965
0.173953
0.173941
0.173928
0.173916
0.173902
0.173889
0.173875
0.17386
0.173846
0.173831
0.173816
0.1738
0.173784
0.173767
0.17375
0.173733
0.173716
0.173698
0.173679
0.17366
0.173641
0.173621
0.173601
0.174
0.173992
0.173983
0.173975
0.173966
0.173957
0.173948
0.173939
0.17393
0.17392
0.17391
0.1739
0.173889
0.173879
0.173868
0.173857
0.173845
0.173833
0.173821
0.173808
0.173795
0.173781
0.173767
0.173753
0.173738
0.173723
0.173707
0.173691
0.173674
0.173657
0.173639
0.173621
0.173603
0.173584
0.173565
0.173545
0.173524
0.173504
0.173482
0.17346
0.173438
0.173415
0.173391
0.173367
0.173342
0.173317
0.173291
0.173264
0.173237
0.173209
0.173181
0.173151
0.173121
0.173729
0.173718
0.173706
0.173695
0.173683
0.17367
0.173658
0.173645
0.173631
0.173618
0.173603
0.173589
0.173574
0.173558
0.173543
0.173526
0.173509
0.173492
0.173474
0.173456
0.173437
0.173417
0.173397
0.173376
0.173355
0.173333
0.17331
0.173287
0.173263
0.173239
0.173214
0.173188
0.173162
0.173134
0.173107
0.173078
0.173049
0.173019
0.172988
0.172957
0.172924
0.172891
0.172857
0.172823
0.172787
0.172751
0.172713
0.172675
0.172636
0.172596
0.172554
0.172512
0.172469
0.173381
0.173365
0.17335
0.173334
0.173317
0.1733
0.173282
0.173264
0.173245
0.173225
0.173205
0.173185
0.173164
0.173142
0.173119
0.173096
0.173072
0.173047
0.173022
0.172996
0.172969
0.172941
0.172913
0.172883
0.172853
0.172822
0.17279
0.172758
0.172724
0.17269
0.172654
0.172618
0.172581
0.172542
0.172503
0.172463
0.172422
0.17238
0.172336
0.172292
0.172246
0.1722
0.172152
0.172103
0.172053
0.172001
0.171948
0.171894
0.171839
0.171782
0.171724
0.171664
0.171603
0.172929
0.172908
0.172887
0.172864
0.172841
0.172817
0.172793
0.172767
0.172741
0.172714
0.172686
0.172657
0.172628
0.172597
0.172566
0.172533
0.1725
0.172466
0.17243
0.172394
0.172356
0.172318
0.172278
0.172238
0.172196
0.172153
0.172109
0.172063
0.172017
0.171969
0.17192
0.171869
0.171818
0.171765
0.171711
0.171655
0.171598
0.171539
0.171479
0.171418
0.171355
0.17129
0.171224
0.171156
0.171086
0.171014
0.170941
0.170866
0.170789
0.17071
0.170629
0.170546
0.170461
0.172288
0.17226
0.17223
0.172199
0.172167
0.172134
0.1721
0.172065
0.172029
0.171992
0.171953
0.171913
0.171873
0.17183
0.171787
0.171742
0.171697
0.171649
0.171601
0.171551
0.171499
0.171447
0.171392
0.171337
0.171279
0.171221
0.17116
0.171098
0.171035
0.17097
0.170903
0.170834
0.170764
0.170692
0.170618
0.170542
0.170464
0.170384
0.170303
0.170219
0.170133
0.170045
0.169955
0.169863
0.169768
0.169671
0.169571
0.169469
0.169364
0.169257
0.169147
0.169034
0.168919
0.171355
0.171316
0.171275
0.171233
0.171189
0.171144
0.171097
0.171049
0.171
0.170949
0.170896
0.170842
0.170786
0.170728
0.170669
0.170609
0.170546
0.170482
0.170416
0.170348
0.170279
0.170207
0.170134
0.170058
0.169981
0.169902
0.169821
0.169737
0.169652
0.169564
0.169474
0.169382
0.169288
0.169191
0.169092
0.16899
0.168886
0.16878
0.168671
0.168559
0.168444
0.168327
0.168206
0.168083
0.167957
0.167828
0.167695
0.167559
0.16742
0.167278
0.167131
0.166982
0.166828
0.16998
0.169927
0.169871
0.169814
0.169755
0.169695
0.169632
0.169567
0.169501
0.169432
0.169362
0.169289
0.169214
0.169138
0.169059
0.168978
0.168895
0.168809
0.168722
0.168632
0.16854
0.168445
0.168348
0.168249
0.168147
0.168043
0.167936
0.167827
0.167715
0.1676
0.167482
0.167362
0.167239
0.167113
0.166984
0.166852
0.166717
0.166578
0.166436
0.166291
0.166143
0.165991
0.165836
0.165677
0.165514
0.165347
0.165176
0.165002
0.164823
0.16464
0.164452
0.16426
0.164064
0.167932
0.167863
0.16779
0.167716
0.167639
0.16756
0.167478
0.167394
0.167308
0.167219
0.167128
0.167034
0.166938
0.166839
0.166738
0.166634
0.166527
0.166418
0.166306
0.166192
0.166075
0.165955
0.165832
0.165706
0.165577
0.165446
0.165311
0.165173
0.165033
0.164889
0.164741
0.164591
0.164437
0.16428
0.164119
0.163955
0.163787
0.163615
0.16344
0.163261
0.163077
0.16289
0.162699
0.162503
0.162303
0.162099
0.16189
0.161677
0.161459
0.161236
0.161008
0.160775
0.160536
0.164784
0.164696
0.164605
0.164512
0.164416
0.164317
0.164215
0.164111
0.164003
0.163893
0.16378
0.163664
0.163546
0.163424
0.1633
0.163172
0.163042
0.162909
0.162772
0.162633
0.162491
0.162345
0.162197
0.162045
0.16189
0.161732
0.16157
0.161405
0.161237
0.161065
0.16089
0.160711
0.160529
0.160342
0.160153
0.159959
0.159761
0.15956
0.159354
0.159144
0.15893
0.158712
0.15849
0.158263
0.158031
0.157795
0.157554
0.157308
0.157057
0.156801
0.15654
0.156273
0.156002
0.159755
0.159652
0.159545
0.159435
0.159323
0.159207
0.159088
0.158966
0.158841
0.158713
0.158582
0.158448
0.158311
0.158171
0.158028
0.157882
0.157733
0.157581
0.157426
0.157268
0.157106
0.156942
0.156774
0.156603
0.156429
0.156252
0.156072
0.155888
0.1557
0.15551
0.155316
0.155118
0.154917
0.154713
0.154504
0.154292
0.154077
0.153857
0.153634
0.153406
0.153175
0.15294
0.1527
0.152457
0.152209
0.151956
0.151699
0.151438
0.151172
0.150901
0.150626
0.150345
0.15006
0.152876
0.152766
0.152653
0.152536
0.152417
0.152294
0.152168
0.152039
0.151907
0.151772
0.151634
0.151493
0.151349
0.151202
0.151052
0.1509
0.150744
0.150585
0.150424
0.150259
0.150092
0.149921
0.149748
0.149571
0.149392
0.149209
0.149024
0.148836
0.148644
0.148449
0.148252
0.148051
0.147847
0.147639
0.147428
0.147214
0.146997
0.146776
0.146552
0.146324
0.146093
0.145858
0.14562
0.145378
0.145132
0.144882
0.144628
0.144371
0.144109
0.143843
0.143573
0.143299
0.143021
0.145581
0.145468
0.145352
0.145233
0.145111
0.144985
0.144857
0.144725
0.14459
0.144452
0.144312
0.144168
0.144022
0.143872
0.14372
0.143565
0.143407
0.143246
0.143083
0.142917
0.142748
0.142576
0.142401
0.142224
0.142043
0.14186
0.141674
0.141486
0.141294
0.1411
0.140902
0.140702
0.140499
0.140293
0.140084
0.139872
0.139656
0.139438
0.139217
0.138992
0.138764
0.138533
0.138299
0.138061
0.13782
0.137576
0.137328
0.137077
0.136822
0.136563
0.136301
0.136035
0.135765
0.137511
0.137401
0.137287
0.137171
0.137051
0.136928
0.136802
0.136673
0.136541
0.136407
0.136269
0.136129
0.135986
0.13584
0.135691
0.13554
0.135386
0.135229
0.13507
0.134908
0.134744
0.134577
0.134408
0.134235
0.134061
0.133883
0.133704
0.133521
0.133336
0.133149
0.132958
0.132765
0.13257
0.132372
0.132171
0.131967
0.131761
0.131552
0.13134
0.131125
0.130907
0.130687
0.130463
0.130237
0.130008
0.129775
0.12954
0.129302
0.12906
0.128815
0.128567
0.128316
0.128061
0.127803
0.128805
0.128701
0.128595
0.128485
0.128372
0.128256
0.128137
0.128016
0.127891
0.127764
0.127634
0.127502
0.127367
0.127229
0.127089
0.126946
0.126801
0.126653
0.126504
0.126351
0.126196
0.126039
0.12588
0.125718
0.125554
0.125388
0.125219
0.125048
0.124874
0.124699
0.12452
0.12434
0.124157
0.123972
0.123784
0.123594
0.123402
0.123207
0.12301
0.12281
0.122607
0.122402
0.122195
0.121985
0.121772
0.121557
0.121339
0.121119
0.120895
0.120669
0.12044
0.120208
0.119974
0.119736
0.119556
0.119462
0.119365
0.119265
0.119162
0.119057
0.118948
0.118837
0.118723
0.118607
0.118489
0.118367
0.118244
0.118118
0.11799
0.117859
0.117726
0.117591
0.117454
0.117315
0.117173
0.11703
0.116884
0.116736
0.116586
0.116434
0.11628
0.116124
0.115966
0.115806
0.115643
0.115479
0.115312
0.115144
0.114973
0.1148
0.114625
0.114448
0.114269
0.114087
0.113904
0.113718
0.11353
0.11334
0.113147
0.112952
0.112755
0.112556
0.112354
0.11215
0.111943
0.111734
0.111522
0.111308
0.109786
0.109704
0.109618
0.10953
0.10944
0.109347
0.109251
0.109153
0.109052
0.108949
0.108844
0.108736
0.108627
0.108515
0.108401
0.108285
0.108167
0.108047
0.107925
0.107801
0.107675
0.107547
0.107417
0.107286
0.107153
0.107017
0.10688
0.106742
0.106601
0.106459
0.106314
0.106168
0.10602
0.105871
0.105719
0.105566
0.10541
0.105253
0.105094
0.104933
0.104771
0.104606
0.10444
0.104271
0.104101
0.103929
0.103754
0.103578
0.1034
0.103219
0.103037
0.102852
0.102666
0.102477
0.0994066
0.099337
0.0992649
0.0991902
0.099113
0.0990335
0.0989517
0.0988676
0.0987813
0.0986928
0.0986023
0.0985098
0.0984153
0.098319
0.0982207
0.0981206
0.0980187
0.097915
0.0978096
0.0977025
0.0975937
0.0974832
0.0973711
0.0972574
0.0971421
0.0970251
0.0969066
0.0967865
0.0966649
0.0965417
0.0964169
0.0962905
0.0961626
0.0960331
0.095902
0.0957693
0.0956351
0.0954993
0.0953619
0.0952229
0.0950823
0.0949401
0.0947963
0.0946509
0.0945039
0.0943552
0.0942048
0.0940528
0.093899
0.0937435
0.0935863
0.0934273
0.0932665
0.0931038
0.0881302
0.0880739
0.0880152
0.0879543
0.0878912
0.087826
0.0877587
0.0876893
0.0876181
0.0875449
0.0874699
0.0873932
0.0873147
0.0872345
0.0871527
0.0870693
0.0869843
0.0868978
0.0868098
0.0867203
0.0866294
0.086537
0.0864432
0.0863481
0.0862515
0.0861536
0.0860544
0.0859538
0.0858519
0.0857487
0.0856442
0.0855383
0.0854311
0.0853225
0.0852127
0.0851015
0.084989
0.0848752
0.0847601
0.0846436
0.0845258
0.0844067
0.0842862
0.0841645
0.0840413
0.0839168
0.0837909
0.0836636
0.0835349
0.0834048
0.0832732
0.0831402
0.0830057
0.0828696
0.0752101
0.0751671
0.0751221
0.0750752
0.0750263
0.0749756
0.0749232
0.074869
0.0748132
0.0747557
0.0746967
0.0746362
0.0745742
0.0745108
0.0744461
0.07438
0.0743125
0.0742438
0.0741739
0.0741027
0.0740303
0.0739567
0.073882
0.0738061
0.0737291
0.073651
0.0735718
0.0734915
0.0734102
0.0733277
0.0732442
0.0731595
0.0730738
0.0729871
0.0728992
0.0728103
0.0727203
0.0726293
0.0725372
0.072444
0.0723498
0.0722545
0.0721582
0.0720607
0.0719622
0.0718626
0.0717619
0.0716601
0.0715572
0.0714532
0.071348
0.0712416
0.071134
0.0710252
0.058394
0.0583645
0.0583334
0.0583009
0.0582669
0.0582314
0.0581946
0.0581565
0.0581171
0.0580765
0.0580347
0.0579918
0.0579477
0.0579026
0.0578564
0.0578092
0.0577611
0.0577119
0.0576619
0.0576109
0.057559
0.0575062
0.0574526
0.0573981
0.0573428
0.0572867
0.0572297
0.057172
0.0571134
0.0570541
0.0569939
0.056933
0.0568713
0.0568087
0.0567454
0.0566814
0.0566165
0.0565509
0.0564845
0.0564173
0.0563494
0.0562807
0.0562112
0.0561409
0.0560699
0.0559981
0.0559255
0.055852
0.0557778
0.0557028
0.0556269
0.0555502
0.0554726
0.0553942
0.0291431
0.02913
0.0291164
0.0291023
0.0290876
0.0290726
0.029057
0.029041
0.0290246
0.0290077
0.0289904
0.0289727
0.0289546
0.0289362
0.0289173
0.0288981
0.0288786
0.0288587
0.0288384
0.0288178
0.0287969
0.0287756
0.0287541
0.0287322
0.0287099
0.0286874
0.0286646
0.0286414
0.028618
0.0285942
0.0285701
0.0285457
0.028521
0.028496
0.0284707
0.028445
0.028419
0.0283928
0.0283662
0.0283393
0.0283121
0.0282845
0.0282567
0.0282286
0.0282001
0.0281713
0.0281422
0.0281127
0.028083
0.0280529
0.0280224
0.0279916
0.0279605
0.027929
)
;

boundaryField
{
    inlet
    {
        type            fixedValue;
        value           nonuniform 0();
    }
    outlet
    {
        type            zeroGradient;
    }
    upperWall
    {
        type            kqRWallFunction;
        value           nonuniform List<scalar> 
54
(
0.0291431
0.02913
0.0291164
0.0291023
0.0290876
0.0290726
0.029057
0.029041
0.0290246
0.0290077
0.0289904
0.0289727
0.0289546
0.0289362
0.0289173
0.0288981
0.0288786
0.0288587
0.0288384
0.0288178
0.0287969
0.0287756
0.0287541
0.0287322
0.0287099
0.0286874
0.0286646
0.0286414
0.028618
0.0285942
0.0285701
0.0285457
0.028521
0.028496
0.0284707
0.028445
0.028419
0.0283928
0.0283662
0.0283393
0.0283121
0.0282845
0.0282567
0.0282286
0.0282001
0.0281713
0.0281422
0.0281127
0.028083
0.0280529
0.0280224
0.0279916
0.0279605
0.027929
)
;
    }
    lowerWall
    {
        type            kqRWallFunction;
        value           nonuniform List<scalar> 
57
(
0.0400337
0.0400002
0.0399681
0.0399372
0.0399075
0.0398789
0.0398513
0.0398243
0.0397982
0.0397744
0.0397521
0.0397307
0.0397099
0.0396897
0.0396699
0.0396506
0.0396315
0.0396128
0.0395944
0.0395762
0.0395582
0.0395405
0.0395229
0.0395055
0.0394882
0.0394711
0.0394542
0.0394374
0.0394206
0.039404
0.0393875
0.039371
0.0393547
0.0393383
0.039322
0.0393058
0.0392895
0.0392733
0.0392571
0.0392408
0.0392245
0.0392082
0.0391918
0.0391754
0.0391588
0.0391422
0.0391255
0.0391087
0.0390917
0.0390746
0.0390574
0.03904
0.0390224
0.0390047
0.0389869
0.0389689
0.0389507
)
;
    }
    frontAndBack
    {