/*--------------------------------*- C++ -*----------------------------------*\
  =========                 |
  \\      /  F ield         | OpenFOAM: The Open Source CFD Toolbox
   \\    /   O peration     | Website:  https://openfoam.org
    \\  /    A nd           | Version:  6
     \\/     M anipulation  |
\*---------------------------------------------------------------------------*/
FoamFile
{
    version     2.0;
    format      ascii;
    class       volScalarField;
    location    "0.03";
    object      nut;
}
// * * * * * * * * * * * * * * * * * * * * * * * * * * * * * * * * * * * * * //

dimensions      [0 2 -1 0 0 0 0];

internalField   nonuniform List<scalar> 
3081
(
2.2804e-05
2.27717e-05
2.27396e-05
2.27079e-05
2.26765e-05
2.26453e-05
2.26143e-05
2.25834e-05
2.25525e-05
2.25222e-05
2.24923e-05
2.24626e-05
2.2433e-05
2.24035e-05
2.23739e-05
2.23443e-05
2.23148e-05
2.22851e-05
2.22554e-05
2.22256e-05
2.21957e-05
2.21657e-05
2.21357e-05
2.21055e-05
2.20751e-05
2.20447e-05
2.20141e-05
2.19833e-05
2.19525e-05
2.19214e-05
2.18902e-05
2.18589e-05
2.18274e-05
2.17957e-05
2.17638e-05
2.17318e-05
2.16995e-05
2.16671e-05
2.16344e-05
2.16016e-05
2.15685e-05
2.15353e-05
2.15018e-05
2.14681e-05
2.14341e-05
2.13999e-05
2.13655e-05
2.13308e-05
2.12959e-05
2.12607e-05
2.12253e-05
2.11896e-05
2.11536e-05
2.11173e-05
2.10808e-05
2.1044e-05
2.10069e-05
0.000174641
0.000174367
0.000174101
0.000173841
0.000173586
0.000173337
0.000173092
0.000172852
0.00017261
0.000172365
0.000172122
0.000171882
0.000171645
0.000171412
0.000171182
0.000170955
0.000170731
0.000170509
0.00017029
0.000170072
0.000169855
0.00016964
0.000169426
0.000169213
0.000169001
0.00016879
0.000168579
0.000168368
0.000168158
0.000167948
0.000167738
0.000167528
0.000167317
0.000167107
0.000166896
0.000166684
0.000166472
0.000166259
0.000166046
0.000165831
0.000165616
0.000165399
0.000165181
0.000164962
0.000164742
0.000164521
0.000164298
0.000164073
0.000163847
0.000163619
0.00016339
0.000163158
0.000162925
0.000162691
0.000162454
0.000162216
0.000161976
0.000313709
0.000313262
0.000312827
0.000312404
0.000311992
0.000311591
0.000311198
0.000310813
0.000310433
0.000310055
0.00030968
0.00030931
0.000308944
0.000308584
0.000308228
0.000307877
0.00030753
0.000307187
0.000306848
0.000306513
0.00030618
0.00030585
0.000305522
0.000305196
0.000304872
0.000304549
0.000304227
0.000303907
0.000303587
0.000303268
0.000302949
0.000302631
0.000302312
0.000301994
0.000301675
0.000301355
0.000301035
0.000300714
0.000300391
0.000300068
0.000299743
0.000299417
0.000299089
0.000298759
0.000298428
0.000298094
0.000297758
0.00029742
0.000297079
0.000296736
0.00029639
0.000296042
0.000295691
0.000295337
0.00029498
0.00029462
0.000294258
0.000421455
0.000420906
0.000420373
0.000419856
0.000419353
0.000418863
0.000418385
0.000417917
0.000417458
0.000417005
0.000416558
0.000416116
0.000415681
0.000415251
0.000414827
0.000414408
0.000413995
0.000413586
0.000413182
0.000412782
0.000412386
0.000411993
0.000411603
0.000411216
0.000410831
0.000410448
0.000410066
0.000409686
0.000409307
0.000408929
0.000408552
0.000408175
0.000407798
0.000407421
0.000407043
0.000406666
0.000406287
0.000405907
0.000405527
0.000405145
0.000404761
0.000404376
0.000403989
0.000403599
0.000403208
0.000402814
0.000402417
0.000402018
0.000401616
0.00040121
0.000400802
0.00040039
0.000399976
0.000399557
0.000399136
0.000398711
0.000398282
0.00050688
0.000506278
0.000505695
0.000505129
0.000504578
0.000504042
0.000503519
0.000503009
0.000502508
0.000502016
0.000501532
0.000501054
0.000500583
0.000500118
0.00049966
0.000499207
0.00049876
0.000498318
0.000497881
0.000497448
0.000497019
0.000496594
0.000496173
0.000495754
0.000495338
0.000494923
0.000494511
0.000494101
0.000493691
0.000493283
0.000492875
0.000492468
0.000492061
0.000491654
0.000491247
0.000490839
0.00049043
0.00049002
0.00048961
0.000489197
0.000488783
0.000488367
0.000487949
0.000487529
0.000487107
0.000486681
0.000486253
0.000485822
0.000485388
0.00048495
0.000484509
0.000484065
0.000483617
0.000483165
0.000482709
0.00048225
0.000481786
0.000575881
0.000575261
0.000574661
0.000574077
0.000573511
0.000572959
0.000572421
0.000571896
0.000571382
0.000570877
0.00057038
0.00056989
0.000569407
0.000568931
0.000568461
0.000567997
0.000567538
0.000567085
0.000566637
0.000566193
0.000565754
0.000565318
0.000564885
0.000564456
0.000564028
0.000563604
0.000563181
0.000562759
0.000562339
0.00056192
0.000561502
0.000561084
0.000560666
0.000560248
0.00055983
0.000559412
0.000558992
0.000558571
0.000558149
0.000557726
0.000557301
0.000556874
0.000556444
0.000556013
0.000555578
0.000555141
0.000554701
0.000554258
0.000553812
0.000553362
0.000552908
0.000552451
0.00055199
0.000551525
0.000551057
0.000550584
0.000550107
0.000631489
0.000630896
0.000630321
0.000629761
0.000629217
0.000628686
0.000628167
0.000627659
0.000627161
0.000626671
0.000626188
0.000625711
0.000625241
0.000624777
0.000624319
0.000623866
0.000623419
0.000622976
0.000622538
0.000622104
0.000621673
0.000621245
0.00062082
0.000620398
0.000619978
0.00061956
0.000619143
0.000618727
0.000618312
0.000617898
0.000617484
0.00061707
0.000616657
0.000616242
0.000615827
0.000615412
0.000614995
0.000614576
0.000614156
0.000613735
0.000613311
0.000612885
0.000612456
0.000612025
0.000611591
0.000611154
0.000610714
0.000610271
0.000609824
0.000609373
0.000608919
0.000608461
0.000607999
0.000607532
0.000607062
0.000606587
0.000677374
0.000676807
0.000676258
0.000675723
0.000675203
0.000674696
0.0006742
0.000673714
0.000673238
0.000672769
0.000672306
0.00067185
0.0006714
0.000670956
0.000670517
0.000670084
0.000669655
0.000669231
0.000668811
0.000668395
0.000667981
0.000667571
0.000667164
0.000666759
0.000666355
0.000665953
0.000665553
0.000665153
0.000664755
0.000664357
0.000663959
0.000663561
0.000663162
0.000662764
0.000662364
0.000661964
0.000661562
0.000661159
0.000660754
0.000660347
0.000659939
0.000659528
0.000659115
0.000658699
0.00065828
0.000657858
0.000657433
0.000657004
0.000656573
0.000656137
0.000655698
0.000655255
0.000654808
0.000654356
0.000653901
0.000653441
0.000714132
0.000713622
0.000713126
0.000712642
0.00071217
0.000711709
0.000711258
0.000710815
0.000710377
0.000709947
0.000709521
0.000709102
0.000708688
0.000708279
0.000707875
0.000707475
0.000707079
0.000706687
0.000706298
0.000705912
0.000705529
0.000705149
0.00070477
0.000704393
0.000704017
0.000703642
0.000703268
0.000702895
0.000702522
0.000702149
0.000701776
0.000701402
0.000701028
0.000700653
0.000700277
0.0006999
0.000699521
0.000699141
0.000698759
0.000698374
0.000697988
0.000697599
0.000697207
0.000696813
0.000696416
0.000696015
0.000695612
0.000695205
0.000694794
0.00069438
0.000693962
0.00069354
0.000693114
0.000692683
0.000692249
0.000744233
0.00074377
0.00074332
0.000742882
0.000742454
0.000742036
0.000741626
0.000741224
0.000740826
0.000740435
0.000740048
0.000739666
0.00073929
0.000738917
0.00073855
0.000738186
0.000737825
0.000737469
0.000737115
0.000736763
0.000736414
0.000736067
0.000735722
0.000735377
0.000735034
0.000734692
0.000734351
0.000734009
0.000733668
0.000733327
0.000732986
0.000732644
0.000732301
0.000731957
0.000731613
0.000731267
0.000730919
0.00073057
0.000730219
0.000729866
0.000729511
0.000729154
0.000728794
0.000728431
0.000728065
0.000727697
0.000727325
0.00072695
0.000726571
0.00072619
0.000725804
0.000725415
0.000725022
0.000724624
0.000724223
0.000768242
0.000767832
0.000767433
0.000767045
0.000766666
0.000766295
0.000765932
0.000765575
0.000765222
0.000764873
0.00076453
0.000764191
0.000763856
0.000763525
0.000763198
0.000762874
0.000762554
0.000762237
0.000761922
0.000761609
0.000761299
0.00076099
0.000760682
0.000760375
0.000760069
0.000759764
0.000759459
0.000759154
0.00075885
0.000758545
0.000758239
0.000757933
0.000757626
0.000757319
0.00075701
0.0007567
0.000756388
0.000756075
0.00075576
0.000755443
0.000755124
0.000754802
0.000754479
0.000754152
0.000753823
0.000753491
0.000753157
0.000752819
0.000752478
0.000752133
0.000751785
0.000751434
0.000751079
0.00075072
0.000750358
0.000787144
0.000786788
0.000786442
0.000786105
0.000785776
0.000785455
0.00078514
0.000784829
0.000784522
0.000784219
0.000783921
0.000783626
0.000783335
0.000783047
0.000782763
0.000782482
0.000782203
0.000781927
0.000781654
0.000781382
0.000781112
0.000780843
0.000780575
0.000780308
0.000780041
0.000779775
0.000779509
0.000779243
0.000778976
0.00077871
0.000778443
0.000778175
0.000777906
0.000777637
0.000777366
0.000777094
0.000776821
0.000776546
0.000776269
0.00077599
0.00077571
0.000775427
0.000775142
0.000774855
0.000774565
0.000774273
0.000773978
0.00077368
0.000773379
0.000773075
0.000772768
0.000772457
0.000772143
0.000771826
0.000771505
0.000771181
0.000801807
0.000801505
0.000801211
0.000800924
0.000800645
0.000800371
0.000800103
0.000799838
0.000799577
0.000799319
0.000799065
0.000798814
0.000798566
0.000798322
0.00079808
0.000797841
0.000797604
0.00079737
0.000797137
0.000796906
0.000796676
0.000796447
0.000796219
0.000795992
0.000795764
0.000795537
0.00079531
0.000795083
0.000794855
0.000794627
0.000794399
0.00079417
0.000793939
0.000793708
0.000793476
0.000793243
0.000793008
0.000792772
0.000792534
0.000792295
0.000792053
0.00079181
0.000791565
0.000791317
0.000791067
0.000790815
0.00079056
0.000790303
0.000790043
0.00078978
0.000789514
0.000789245
0.000788974
0.000788699
0.000788421
0.000788139
0.000812752
0.000812506
0.000812267
0.000812033
0.000811805
0.000811581
0.00081136
0.000811142
0.000810926
0.000810714
0.000810505
0.000810298
0.000810095
0.000809893
0.000809695
0.000809498
0.000809303
0.000809109
0.000808917
0.000808726
0.000808536
0.000808346
0.000808156
0.000807967
0.000807777
0.000807588
0.000807398
0.000807207
0.000807017
0.000806825
0.000806633
0.00080644
0.000806246
0.000806051
0.000805855
0.000805658
0.000805459
0.000805259
0.000805057
0.000804854
0.000804649
0.000804442
0.000804233
0.000804022
0.000803809
0.000803593
0.000803376
0.000803156
0.000802933
0.000802708
0.00080248
0.000802249
0.000802016
0.000801779
0.00080154
0.000821205
0.000821003
0.000820806
0.000820615
0.000820428
0.000820243
0.000820062
0.000819883
0.000819706
0.000819533
0.000819361
0.000819193
0.000819026
0.000818862
0.0008187
0.00081854
0.000818381
0.000818224
0.000818068
0.000817912
0.000817757
0.000817603
0.000817448
0.000817294
0.000817139
0.000816984
0.000816829
0.000816673
0.000816516
0.000816359
0.000816202
0.000816043
0.000815884
0.000815724
0.000815562
0.0008154
0.000815236
0.000815071
0.000814905
0.000814737
0.000814568
0.000814396
0.000814224
0.000814049
0.000813873
0.000813694
0.000813514
0.000813331
0.000813146
0.000812959
0.00081277
0.000812578
0.000812384
0.000812187
0.000811987
0.000827583
0.000827419
0.000827259
0.000827104
0.000826952
0.000826803
0.000826656
0.000826511
0.000826369
0.000826228
0.000826091
0.000825955
0.000825821
0.000825689
0.000825559
0.000825431
0.000825304
0.000825178
0.000825053
0.000824929
0.000824805
0.000824681
0.000824556
0.000824432
0.000824308
0.000824183
0.000824058
0.000823932
0.000823805
0.000823678
0.00082355
0.000823422
0.000823292
0.000823162
0.000823031
0.000822898
0.000822765
0.000822631
0.000822495
0.000822358
0.000822219
0.000822079
0.000821938
0.000821795
0.00082165
0.000821503
0.000821355
0.000821205
0.000821053
0.000820899
0.000820743
0.000820585
0.000820424
0.000820262
0.000820097
0.000832076
0.000831944
0.000831816
0.000831692
0.000831571
0.000831452
0.000831335
0.00083122
0.000831108
0.000830997
0.000830888
0.000830781
0.000830677
0.000830574
0.000830472
0.000830372
0.000830273
0.000830175
0.000830078
0.000829982
0.000829885
0.000829789
0.000829692
0.000829595
0.000829498
0.0008294
0.000829302
0.000829204
0.000829104
0.000829005
0.000828904
0.000828803
0.000828701
0.000828598
0.000828495
0.00082839
0.000828285
0.000828178
0.000828071
0.000827962
0.000827852
0.000827741
0.000827629
0.000827515
0.0008274
0.000827284
0.000827166
0.000827046
0.000826925
0.000826802
0.000826677
0.000826551
0.000826422
0.000826292
0.00082616
0.000834974
0.000834874
0.000834776
0.00083468
0.000834587
0.000834495
0.000834406
0.000834318
0.000834232
0.000834148
0.000834066
0.000833986
0.000833908
0.00083383
0.000833755
0.00083368
0.000833607
0.000833534
0.000833461
0.000833388
0.000833316
0.000833243
0.000833171
0.000833097
0.000833024
0.00083295
0.000832875
0.0008328
0.000832725
0.000832648
0.000832572
0.000832494
0.000832416
0.000832338
0.000832258
0.000832178
0.000832097
0.000832016
0.000831933
0.000831849
0.000831765
0.000831679
0.000831593
0.000831505
0.000831416
0.000831326
0.000831235
0.000831142
0.000831049
0.000830953
0.000830857
0.000830759
0.000830659
0.000830557
0.000836941
0.000836864
0.000836789
0.000836717
0.000836646
0.000836576
0.000836509
0.000836443
0.00083638
0.000836318
0.000836257
0.000836199
0.000836141
0.000836085
0.000836031
0.000835977
0.000835923
0.00083587
0.000835818
0.000835765
0.000835712
0.000835659
0.000835606
0.000835552
0.000835498
0.000835443
0.000835388
0.000835332
0.000835277
0.00083522
0.000835163
0.000835106
0.000835048
0.00083499
0.000834931
0.000834871
0.000834811
0.000834751
0.000834689
0.000834627
0.000834564
0.0008345
0.000834436
0.000834371
0.000834304
0.000834237
0.000834169
0.0008341
0.00083403
0.000833959
0.000833886
0.000833813
0.000833738
0.00083835
0.000838289
0.00083823
0.000838173
0.000838119
0.000838065
0.000838014
0.000837964
0.000837917
0.00083787
0.000837826
0.000837783
0.000837741
0.000837701
0.000837662
0.000837623
0.000837585
0.000837548
0.000837511
0.000837474
0.000837436
0.000837399
0.000837361
0.000837323
0.000837284
0.000837246
0.000837206
0.000837167
0.000837127
0.000837087
0.000837046
0.000837005
0.000836964
0.000836922
0.00083688
0.000836838
0.000836795
0.000836752
0.000836708
0.000836664
0.000836619
0.000836574
0.000836528
0.000836481
0.000836434
0.000836387
0.000836338
0.000836289
0.000836239
0.000836189
0.000836137
0.000836085
0.000836032
0.000839314
0.000839265
0.000839219
0.000839175
0.000839132
0.000839092
0.000839053
0.000839016
0.00083898
0.000838946
0.000838914
0.000838883
0.000838853
0.000838825
0.000838798
0.000838772
0.000838746
0.00083872
0.000838695
0.00083867
0.000838645
0.000838619
0.000838593
0.000838567
0.000838541
0.000838514
0.000838487
0.00083846
0.000838433
0.000838405
0.000838377
0.000838348
0.00083832
0.000838291
0.000838262
0.000838233
0.000838203
0.000838174
0.000838143
0.000838113
0.000838082
0.000838051
0.00083802
0.000837988
0.000837955
0.000837923
0.000837889
0.000837856
0.000837822
0.000837787
0.000837752
0.000837716
0.000837679
0.000839972
0.000839933
0.000839897
0.000839863
0.00083983
0.0008398
0.000839771
0.000839743
0.000839717
0.000839693
0.00083967
0.000839648
0.000839628
0.000839609
0.000839591
0.000839574
0.000839557
0.000839541
0.000839524
0.000839508
0.000839492
0.000839476
0.000839459
0.000839442
0.000839425
0.000839407
0.000839389
0.000839371
0.000839353
0.000839335
0.000839316
0.000839297
0.000839278
0.000839259
0.00083924
0.000839221
0.000839201
0.000839181
0.000839161
0.000839141
0.000839121
0.0008391
0.00083908
0.000839058
0.000839037
0.000839016
0.000838994
0.000838972
0.000838949
0.000838926
0.000838903
0.00083888
0.000838856
0.000840417
0.000840386
0.000840358
0.000840332
0.000840308
0.000840285
0.000840264
0.000840244
0.000840225
0.000840208
0.000840192
0.000840178
0.000840164
0.000840152
0.000840141
0.000840131
0.000840121
0.000840111
0.000840102
0.000840093
0.000840083
0.000840074
0.000840064
0.000840054
0.000840043
0.000840032
0.000840021
0.00084001
0.000839999
0.000839987
0.000839975
0.000839964
0.000839952
0.00083994
0.000839928
0.000839915
0.000839903
0.000839891
0.000839878
0.000839866
0.000839853
0.00083984
0.000839827
0.000839814
0.000839801
0.000839787
0.000839774
0.00083976
0.000839746
0.000839732
0.000839717
0.000839703
0.000839688
0.000840712
0.000840687
0.000840665
0.000840645
0.000840627
0.000840611
0.000840596
0.000840582
0.000840569
0.000840557
0.000840547
0.000840538
0.00084053
0.000840523
0.000840517
0.000840512
0.000840507
0.000840503
0.000840499
0.000840494
0.00084049
0.000840485
0.00084048
0.000840475
0.000840469
0.000840464
0.000840457
0.000840451
0.000840445
0.000840438
0.000840431
0.000840424
0.000840418
0.000840411
0.000840404
0.000840397
0.000840389
0.000840382
0.000840375
0.000840368
0.00084036
0.000840353
0.000840346
0.000840338
0.000840331
0.000840323
0.000840315
0.000840307
0.000840299
0.000840291
0.000840283
0.000840274
0.000840266
0.000840896
0.000840876
0.000840859
0.000840845
0.000840832
0.00084082
0.00084081
0.0008408
0.000840792
0.000840785
0.000840778
0.000840773
0.00084077
0.000840767
0.000840765
0.000840763
0.000840762
0.000840762
0.000840761
0.00084076
0.000840759
0.000840758
0.000840757
0.000840755
0.000840753
0.000840751
0.000840748
0.000840745
0.000840742
0.000840739
0.000840736
0.000840732
0.000840729
0.000840726
0.000840722
0.000840719
0.000840715
0.000840711
0.000840708
0.000840704
0.000840701
0.000840697
0.000840693
0.000840689
0.000840686
0.000840682
0.000840678
0.000840674
0.00084067
0.000840666
0.000840662
0.000840658
0.000840653
0.000840997
0.000840981
0.000840969
0.000840958
0.000840949
0.000840941
0.000840934
0.000840928
0.000840923
0.000840919
0.000840916
0.000840914
0.000840913
0.000840913
0.000840914
0.000840915
0.000840917
0.000840919
0.000840921
0.000840922
0.000840924
0.000840925
0.000840926
0.000840927
0.000840927
0.000840927
0.000840927
0.000840926
0.000840926
0.000840925
0.000840924
0.000840923
0.000840922
0.00084092
0.000840919
0.000840918
0.000840917
0.000840915
0.000840914
0.000840913
0.000840911
0.00084091
0.000840909
0.000840907
0.000840906
0.000840905
0.000840903
0.000840902
0.0008409
0.000840899
0.000840897
0.000840896
0.000840894
0.000841033
0.000841021
0.000841011
0.000841003
0.000840997
0.000840992
0.000840988
0.000840984
0.000840981
0.00084098
0.000840979
0.000840979
0.00084098
0.000840982
0.000840984
0.000840987
0.000840991
0.000840994
0.000840998
0.000841001
0.000841004
0.000841007
0.00084101
0.000841012
0.000841014
0.000841015
0.000841016
0.000841017
0.000841017
0.000841018
0.000841018
0.000841018
0.000841018
0.000841018
0.000841018
0.000841018
0.000841018
0.000841018
0.000841018
0.000841018
0.000841018
0.000841018
0.000841018
0.000841017
0.000841017
0.000841017
0.000841017
0.000841017
0.000841017
0.000841016
0.000841016
0.000841016
0.000841015
0.000841014
0.000841004
0.000840997
0.000840991
0.000840987
0.000840984
0.000840981
0.000840979
0.000840978
0.000840978
0.000840978
0.00084098
0.000840982
0.000840985
0.000840988
0.000840993
0.000840997
0.000841001
0.000841006
0.00084101
0.000841014
0.000841017
0.000841021
0.000841023
0.000841026
0.000841027
0.000841029
0.00084103
0.000841031
0.000841032
0.000841033
0.000841033
0.000841034
0.000841034
0.000841034
0.000841035
0.000841035
0.000841035
0.000841035
0.000841035
0.000841035
0.000841035
0.000841035
0.000841035
0.000841035
0.000841035
0.000841035
0.000841035
0.000841035
0.000841035
0.000841035
0.000841035
0.000841034
0.00084093
0.000840922
0.000840916
0.000840911
0.000840908
0.000840906
0.000840904
0.000840903
0.000840902
0.000840902
0.000840903
0.000840905
0.000840907
0.00084091
0.000840914
0.000840918
0.000840922
0.000840926
0.00084093
0.000840934
0.000840938
0.000840941
0.000840943
0.000840945
0.000840947
0.000840948
0.000840949
0.000840949
0.000840949
0.000840949
0.000840949
0.000840948
0.000840948
0.000840947
0.000840946
0.000840945
0.000840944
0.000840943
0.000840942
0.00084094
0.000840939
0.000840938
0.000840936
0.000840935
0.000840933
0.000840932
0.00084093
0.000840928
0.000840927
0.000840925
0.000840923
0.000840921
0.000840919
0.000840773
0.000840765
0.00084076
0.000840756
0.000840752
0.00084075
0.000840748
0.000840746
0.000840745
0.000840745
0.000840745
0.000840745
0.000840747
0.000840749
0.000840751
0.000840754
0.000840757
0.000840759
0.000840762
0.000840764
0.000840765
0.000840767
0.000840767
0.000840767
0.000840767
0.000840766
0.000840764
0.000840762
0.00084076
0.000840757
0.000840755
0.000840751
0.000840748
0.000840745
0.000840741
0.000840737
0.000840733
0.000840729
0.000840725
0.00084072
0.000840716
0.000840711
0.000840706
0.000840701
0.000840696
0.000840691
0.000840686
0.00084068
0.000840675
0.000840669
0.000840663
0.000840657
0.000840651
0.000840528
0.00084052
0.000840514
0.000840509
0.000840505
0.000840501
0.000840497
0.000840494
0.000840491
0.000840489
0.000840487
0.000840486
0.000840485
0.000840484
0.000840484
0.000840484
0.000840483
0.000840483
0.000840482
0.000840481
0.000840479
0.000840477
0.000840474
0.00084047
0.000840466
0.000840461
0.000840455
0.000840449
0.000840443
0.000840436
0.000840428
0.000840421
0.000840413
0.000840404
0.000840396
0.000840387
0.000840377
0.000840368
0.000840358
0.000840348
0.000840338
0.000840328
0.000840317
0.000840306
0.000840295
0.000840283
0.000840272
0.00084026
0.000840248
0.000840235
0.000840222
0.000840209
0.000840196
0.000840175
0.000840165
0.000840157
0.00084015
0.000840143
0.000840137
0.00084013
0.000840124
0.000840118
0.000840112
0.000840106
0.000840101
0.000840096
0.000840091
0.000840086
0.000840081
0.000840076
0.000840071
0.000840065
0.000840058
0.000840051
0.000840043
0.000840034
0.000840025
0.000840014
0.000840003
0.000839991
0.000839978
0.000839965
0.000839951
0.000839936
0.000839921
0.000839906
0.000839889
0.000839873
0.000839856
0.000839839
0.000839821
0.000839802
0.000839784
0.000839765
0.000839745
0.000839725
0.000839704
0.000839683
0.000839662
0.00083964
0.000839618
0.000839595
0.000839572
0.000839548
0.000839523
0.000839498
0.000839682
0.00083967
0.000839658
0.000839647
0.000839636
0.000839625
0.000839614
0.000839603
0.000839591
0.00083958
0.000839568
0.000839557
0.000839545
0.000839534
0.000839522
0.00083951
0.000839497
0.000839484
0.00083947
0.000839456
0.00083944
0.000839423
0.000839405
0.000839387
0.000839367
0.000839346
0.000839324
0.000839301
0.000839278
0.000839253
0.000839228
0.000839202
0.000839175
0.000839147
0.000839119
0.000839089
0.00083906
0.000839029
0.000838998
0.000838965
0.000838933
0.000838899
0.000838865
0.00083883
0.000838794
0.000838757
0.00083872
0.000838681
0.000838642
0.000838602
0.000838561
0.000838519
0.000838476
0.000839009
0.000838992
0.000838975
0.000838957
0.00083894
0.000838922
0.000838903
0.000838884
0.000838864
0.000838844
0.000838824
0.000838803
0.000838782
0.000838761
0.000838739
0.000838716
0.000838693
0.000838668
0.000838643
0.000838616
0.000838588
0.000838558
0.000838528
0.000838495
0.000838462
0.000838427
0.000838391
0.000838353
0.000838314
0.000838274
0.000838233
0.00083819
0.000838147
0.000838102
0.000838056
0.000838009
0.000837961
0.000837911
0.00083786
0.000837809
0.000837755
0.000837701
0.000837646
0.000837589
0.000837531
0.000837471
0.00083741
0.000837348
0.000837285
0.000837219
0.000837153
0.000837085
0.000837015
0.000838099
0.000838073
0.000838047
0.000838021
0.000837994
0.000837965
0.000837936
0.000837905
0.000837874
0.000837841
0.000837808
0.000837774
0.000837739
0.000837703
0.000837666
0.000837628
0.000837589
0.000837548
0.000837506
0.000837462
0.000837416
0.000837368
0.000837319
0.000837267
0.000837214
0.000837159
0.000837102
0.000837043
0.000836982
0.00083692
0.000836856
0.00083679
0.000836722
0.000836652
0.000836581
0.000836508
0.000836433
0.000836356
0.000836278
0.000836197
0.000836115
0.00083603
0.000835944
0.000835856
0.000835765
0.000835673
0.000835578
0.000835481
0.000835381
0.00083528
0.000835176
0.000835069
0.00083496
0.000836874
0.000836836
0.000836797
0.000836757
0.000836716
0.000836672
0.000836627
0.00083658
0.000836532
0.000836482
0.00083643
0.000836377
0.000836322
0.000836266
0.000836208
0.000836149
0.000836087
0.000836023
0.000835957
0.000835889
0.000835818
0.000835744
0.000835668
0.00083559
0.000835508
0.000835425
0.000835338
0.000835249
0.000835158
0.000835064
0.000834967
0.000834868
0.000834766
0.000834661
0.000834554
0.000834444
0.000834332
0.000834216
0.000834098
0.000833977
0.000833853
0.000833726
0.000833596
0.000833462
0.000833326
0.000833186
0.000833043
0.000832897
0.000832746
0.000832593
0.000832435
0.000832274
0.000832109
0.000835229
0.000835175
0.000835117
0.000835058
0.000834996
0.000834931
0.000834864
0.000834794
0.000834722
0.000834647
0.00083457
0.00083449
0.000834408
0.000834323
0.000834236
0.000834146
0.000834053
0.000833957
0.000833858
0.000833756
0.00083365
0.000833541
0.000833428
0.000833312
0.000833192
0.000833069
0.000832942
0.000832811
0.000832676
0.000832538
0.000832397
0.000832251
0.000832102
0.000831949
0.000831792
0.000831631
0.000831466
0.000831296
0.000831123
0.000830945
0.000830763
0.000830577
0.000830386
0.00083019
0.000829989
0.000829784
0.000829573
0.000829358
0.000829137
0.00082891
0.000828678
0.000828441
0.000828197
0.000833027
0.000832947
0.000832864
0.000832777
0.000832687
0.000832592
0.000832494
0.000832393
0.000832287
0.000832178
0.000832065
0.000831949
0.000831829
0.000831705
0.000831578
0.000831446
0.000831311
0.000831171
0.000831027
0.000830878
0.000830725
0.000830567
0.000830404
0.000830236
0.000830063
0.000829885
0.000829703
0.000829515
0.000829322
0.000829124
0.00082892
0.000828712
0.000828498
0.000828278
0.000828053
0.000827822
0.000827586
0.000827343
0.000827094
0.00082684
0.000826578
0.000826311
0.000826037
0.000825756
0.000825468
0.000825172
0.00082487
0.00082456
0.000824242
0.000823917
0.000823583
0.000823241
0.000822891
0.000830195
0.000830081
0.000829962
0.000829838
0.000829708
0.000829573
0.000829433
0.000829288
0.000829137
0.000828982
0.000828821
0.000828655
0.000828484
0.000828307
0.000828125
0.000827938
0.000827745
0.000827546
0.000827341
0.00082713
0.000826912
0.000826688
0.000826458
0.000826221
0.000825977
0.000825726
0.000825468
0.000825204
0.000824932
0.000824653
0.000824367
0.000824073
0.000823772
0.000823463
0.000823147
0.000822822
0.000822489
0.000822148
0.000821798
0.000821439
0.000821071
0.000820695
0.000820308
0.000819913
0.000819507
0.000819091
0.000818665
0.000818228
0.00081778
0.000817321
0.00081685
0.000816368
0.000815873
0.000826527
0.000826366
0.000826198
0.000826023
0.000825841
0.000825652
0.000825455
0.000825252
0.000825041
0.000824823
0.000824598
0.000824366
0.000824127
0.00082388
0.000823626
0.000823364
0.000823095
0.000822817
0.000822532
0.000822238
0.000821936
0.000821625
0.000821305
0.000820976
0.000820638
0.000820291
0.000819934
0.000819568
0.000819193
0.000818807
0.000818411
0.000818006
0.00081759
0.000817163
0.000816725
0.000816277
0.000815817
0.000815345
0.000814862
0.000814367
0.000813859
0.000813338
0.000812804
0.000812257
0.000811697
0.000811122
0.000810533
0.000809929
0.00080931
0.000808675
0.000808024
0.000807357
0.000806673
0.000821332
0.000821107
0.000820873
0.00082063
0.000820377
0.000820115
0.000819843
0.000819561
0.00081927
0.000818969
0.000818659
0.000818339
0.000818009
0.00081767
0.000817321
0.000816961
0.000816591
0.00081621
0.000815819
0.000815416
0.000815003
0.000814577
0.000814141
0.000813692
0.000813231
0.000812758
0.000812273
0.000811775
0.000811264
0.00081074
0.000810203
0.000809652
0.000809087
0.000808508
0.000807915
0.000807307
0.000806684
0.000806045
0.00080539
0.000804719
0.000804032
0.000803328
0.000802606
0.000801866
0.000801108
0.000800331
0.000799535
0.000798719
0.000797883
0.000797026
0.000796148
0.000795248
0.000794325
0.000813792
0.000813482
0.00081316
0.000812825
0.000812478
0.000812118
0.000811746
0.000811361
0.000810963
0.000810553
0.00081013
0.000809695
0.000809247
0.000808786
0.000808311
0.000807824
0.000807323
0.000806808
0.000806279
0.000805735
0.000805177
0.000804605
0.000804017
0.000803414
0.000802795
0.000802161
0.000801511
0.000800844
0.000800161
0.00079946
0.000798743
0.000798008
0.000797255
0.000796484
0.000795694
0.000794884
0.000794056
0.000793207
0.000792337
0.000791447
0.000790536
0.000789602
0.000788646
0.000787667
0.000786664
0.000785637
0.000784586
0.000783509
0.000782406
0.000781276
0.000780119
0.000778933
0.000777719
0.000802739
0.00080232
0.000801885
0.000801434
0.000800967
0.000800484
0.000799985
0.00079947
0.000798939
0.000798392
0.000797828
0.000797249
0.000796654
0.000796042
0.000795413
0.000794768
0.000794106
0.000793426
0.000792729
0.000792014
0.00079128
0.000790529
0.000789759
0.000788969
0.000788161
0.000787333
0.000786485
0.000785617
0.000784728
0.000783818
0.000782887
0.000781935
0.00078096
0.000779962
0.000778942
0.000777897
0.000776829
0.000775736
0.000774618
0.000773474
0.000772304
0.000771108
0.000769883
0.000768631
0.000767349
0.000766038
0.000764697
0.000763326
0.000761922
0.000760486
0.000759016
0.000757513
0.000755974
0.000786409
0.000785863
0.000785297
0.000784712
0.000784106
0.000783482
0.000782838
0.000782174
0.000781491
0.000780789
0.000780067
0.000779326
0.000778565
0.000777785
0.000776985
0.000776164
0.000775324
0.000774463
0.000773581
0.000772678
0.000771754
0.000770808
0.000769841
0.000768851
0.000767839
0.000766804
0.000765746
0.000764664
0.000763559
0.000762429
0.000761275
0.000760096
0.000758891
0.00075766
0.000756402
0.000755118
0.000753806
0.000752465
0.000751096
0.000749698
0.000748269
0.00074681
0.00074532
0.000743798
0.000742243
0.000740654
0.000739032
0.000737375
0.000735682
0.000733952
0.000732185
0.00073038
0.000728535
0.000761566
0.000760886
0.000760182
0.000759456
0.000758707
0.000757935
0.000757141
0.000756325
0.000755487
0.000754626
0.000753744
0.000752839
0.000751913
0.000750964
0.000749993
0.000749
0.000747984
0.000746946
0.000745884
0.0007448
0.000743692
0.000742561
0.000741405
0.000740226
0.000739023
0.000737795
0.000736542
0.000735263
0.000733959
0.000732629
0.000731273
0.00072989
0.00072848
0.000727042
0.000725576
0.000724081
0.000722557
0.000721003
0.00071942
0.000717805
0.000716159
0.000714481
0.00071277
0.000711026
0.000709248
0.000707436
0.000705588
0.000703704
0.000701783
0.000699824
0.000697827
0.000695791
0.000693714
0.000722484
0.000721693
0.000720878
0.000720037
0.000719173
0.000718284
0.000717371
0.000716435
0.000715476
0.000714493
0.000713487
0.000712459
0.000711407
0.000710333
0.000709236
0.000708116
0.000706973
0.000705808
0.000704619
0.000703408
0.000702173
0.000700914
0.000699633
0.000698327
0.000696998