/*--------------------------------*- C++ -*----------------------------------*\
  =========                 |
  \\      /  F ield         | OpenFOAM: The Open Source CFD Toolbox
   \\    /   O peration     | Website:  https://openfoam.org
    \\  /    A nd           | Version:  6
     \\/     M anipulation  |
\*---------------------------------------------------------------------------*/
FoamFile
{
    version     2.0;
    format      ascii;
    class       volScalarField;
    location    "0.03";
    object      p;
}
// * * * * * * * * * * * * * * * * * * * * * * * * * * * * * * * * * * * * * //

dimensions      [0 2 -2 0 0 0 0];

internalField   nonuniform List<scalar> 
3081
(
0.202048
0.201702
0.201365
0.201035
0.200714
0.200401
0.200096
0.199799
0.19951
0.199228
0.19895
0.198678
0.198411
0.19815
0.197894
0.197644
0.197399
0.197158
0.196923
0.196691
0.196464
0.196241
0.196021
0.195805
0.195592
0.195383
0.195176
0.194972
0.194771
0.194572
0.194375
0.194181
0.193988
0.193797
0.193608
0.19342
0.193234
0.193049
0.192865
0.192682
0.1925
0.192318
0.192137
0.191957
0.191777
0.191597
0.191418
0.191238
0.191059
0.190879
0.190699
0.190518
0.190337
0.190156
0.189973
0.189791
0.189607
0.201783
0.201455
0.201134
0.20082
0.200513
0.200212
0.199919
0.199632
0.199351
0.199077
0.198809
0.198547
0.198289
0.198036
0.197788
0.197545
0.197306
0.197071
0.19684
0.196614
0.196391
0.196172
0.195956
0.195743
0.195534
0.195327
0.195123
0.194922
0.194723
0.194526
0.194332
0.194139
0.193948
0.193759
0.193571
0.193384
0.193199
0.193015
0.192832
0.19265
0.192468
0.192288
0.192107
0.191928
0.191748
0.191569
0.19139
0.191211
0.191032
0.190852
0.190673
0.190493
0.190312
0.190131
0.189949
0.189767
0.189584
0.201514
0.201204
0.2009
0.200602
0.200309
0.200023
0.199742
0.199467
0.199197
0.198933
0.198675
0.198421
0.198171
0.197926
0.197685
0.197449
0.197216
0.196987
0.196762
0.19654
0.196322
0.196107
0.195895
0.195686
0.19548
0.195276
0.195075
0.194877
0.19468
0.194486
0.194293
0.194102
0.193913
0.193726
0.193539
0.193354
0.19317
0.192987
0.192805
0.192624
0.192443
0.192263
0.192084
0.191904
0.191726
0.191547
0.191369
0.19119
0.191011
0.190832
0.190653
0.190474
0.190293
0.190113
0.189931
0.189749
0.189566
0.201286
0.200991
0.200701
0.200416
0.200136
0.199861
0.199591
0.199325
0.199065
0.19881
0.198559
0.198312
0.19807
0.197831
0.197597
0.197366
0.197139
0.196915
0.196695
0.196477
0.196263
0.196052
0.195844
0.195638
0.195435
0.195234
0.195036
0.19484
0.194645
0.194453
0.194263
0.194074
0.193886
0.1937
0.193515
0.193331
0.193148
0.192966
0.192785
0.192605
0.192425
0.192246
0.192067
0.191888
0.19171
0.191532
0.191354
0.191176
0.190997
0.190819
0.19064
0.190461
0.190281
0.1901
0.189919
0.189738
0.189555
0.201083
0.200801
0.200524
0.20025
0.19998
0.199715
0.199455
0.199198
0.198946
0.198698
0.198454
0.198214
0.197978
0.197745
0.197516
0.197291
0.197068
0.196849
0.196633
0.19642
0.19621
0.196002
0.195797
0.195594
0.195394
0.195196
0.195
0.194806
0.194614
0.194424
0.194235
0.194048
0.193862
0.193677
0.193493
0.193311
0.193129
0.192948
0.192768
0.192588
0.192409
0.192231
0.192053
0.191875
0.191697
0.191519
0.191342
0.191164
0.190986
0.190808
0.190629
0.19045
0.190271
0.190091
0.18991
0.189728
0.189546
0.200894
0.200624
0.200357
0.200094
0.199834
0.199578
0.199326
0.199077
0.198833
0.198592
0.198354
0.198121
0.19789
0.197663
0.197439
0.197219
0.197001
0.196786
0.196574
0.196365
0.196158
0.195954
0.195752
0.195552
0.195355
0.19516
0.194966
0.194775
0.194585
0.194396
0.194209
0.194024
0.193839
0.193656
0.193474
0.193292
0.193111
0.192932
0.192752
0.192574
0.192395
0.192218
0.19204
0.191863
0.191686
0.191508
0.191331
0.191154
0.190976
0.190798
0.19062
0.190441
0.190262
0.190082
0.189901
0.18972
0.189538
0.200454
0.200198
0.199944
0.199693
0.199446
0.199201
0.19896
0.198723
0.198488
0.198257
0.198029
0.197804
0.197583
0.197364
0.197148
0.196935
0.196724
0.196516
0.196311
0.196107
0.195907
0.195708
0.195511
0.195317
0.195124
0.194933
0.194743
0.194556
0.194369
0.194184
0.194
0.193817
0.193635
0.193454
0.193274
0.193095
0.192916
0.192738
0.19256
0.192382
0.192205
0.192028
0.191852
0.191675
0.191498
0.191321
0.191145
0.190967
0.19079
0.190612
0.190433
0.190254
0.190074
0.189894
0.189713
0.189531
0.20029
0.200043
0.199798
0.199556
0.199316
0.199079
0.198846
0.198615
0.198387
0.198161
0.197939
0.197719
0.197503
0.197289
0.197077
0.196869
0.196662
0.196458
0.196257
0.196057
0.19586
0.195664
0.19547
0.195279
0.195088
0.1949
0.194713
0.194527
0.194343
0.194159
0.193977
0.193796
0.193616
0.193436
0.193257
0.193079
0.192901
0.192724
0.192547
0.19237
0.192194
0.192018
0.191841
0.191665
0.191489
0.191313
0.191136
0.190959
0.190782
0.190604
0.190426
0.190247
0.190067
0.189887
0.189706
0.189524
0.199891
0.199655
0.19942
0.199188
0.198959
0.198732
0.198507
0.198285
0.198066
0.197849
0.197634
0.197423
0.197213
0.197007
0.196802
0.1966
0.1964
0.196202
0.196006
0.195812
0.19562
0.195429
0.19524
0.195053
0.194867
0.194682
0.194499
0.194316
0.194135
0.193954
0.193775
0.193596
0.193418
0.19324
0.193063
0.192886
0.19271
0.192534
0.192358
0.192183
0.192007
0.191832
0.191656
0.19148
0.191304
0.191128
0.190952
0.190775
0.190597
0.190419
0.19024
0.190061
0.189881
0.1897
0.189518
0.199741
0.199513
0.199286
0.199061
0.198838
0.198618
0.198399
0.198183
0.197969
0.197758
0.197549
0.197342
0.197137
0.196935
0.196735
0.196537
0.196341
0.196147
0.195955
0.195764
0.195575
0.195388
0.195202
0.195017
0.194833
0.194651
0.19447
0.19429
0.19411
0.193932
0.193754
0.193577
0.1934
0.193224
0.193048
0.192872
0.192697
0.192522
0.192347
0.192172
0.191997
0.191822
0.191647
0.191472
0.191296
0.191121
0.190944
0.190768
0.190591
0.190413
0.190234
0.190055
0.189875
0.189694
0.189513
0.199592
0.199371
0.199152
0.198933
0.198717
0.198503
0.19829
0.19808
0.197872
0.197666
0.197462
0.19726
0.19706
0.196863
0.196667
0.196474
0.196282
0.196091
0.195903
0.195716
0.19553
0.195346
0.195163
0.194981
0.1948
0.19462
0.194441
0.194263
0.194085
0.193909
0.193733
0.193557
0.193382
0.193207
0.193032
0.192858
0.192684
0.19251
0.192336
0.192161
0.191987
0.191813
0.191638
0.191464
0.191289
0.191113
0.190938
0.190761
0.190584
0.190407
0.190229
0.19005
0.18987
0.189689
0.189507
0.199442
0.199228
0.199016
0.198805
0.198595
0.198387
0.19818
0.197976
0.197773
0.197572
0.197373
0.197177
0.196982
0.196789
0.196598
0.196409
0.196221
0.196035
0.19585
0.195666
0.195484
0.195303
0.195123
0.194943
0.194765
0.194588
0.194411
0.194236
0.19406
0.193885
0.193711
0.193537
0.193363
0.19319
0.193017
0.192844
0.19267
0.192497
0.192324
0.192151
0.191977
0.191804
0.19163
0.191456
0.191281
0.191106
0.190931
0.190755
0.190578
0.190401
0.190223
0.190044
0.189864
0.189684
0.189502
0.18932
0.19929
0.199084
0.198879
0.198674
0.19847
0.198268
0.198068
0.197869
0.197672
0.197477
0.197283
0.197092
0.196902
0.196714
0.196527
0.196342
0.196159
0.195977
0.195796
0.195616
0.195437
0.195259
0.195082
0.194906
0.19473
0.194555
0.194381
0.194208
0.194035
0.193862
0.193689
0.193517
0.193345
0.193173
0.193001
0.192829
0.192657
0.192485
0.192313
0.19214
0.191968
0.191795
0.191621
0.191448
0.191274
0.191099
0.190924
0.190749
0.190572
0.190395
0.190218
0.190039
0.189859
0.189679
0.189498
0.189315
0.198937
0.198739
0.198541
0.198344
0.198148
0.197953
0.19776
0.197569
0.197379
0.197191
0.197005
0.19682
0.196637
0.196455
0.196274
0.196095
0.195917
0.19574
0.195564
0.195389
0.195214
0.19504
0.194867
0.194694
0.194522
0.194351
0.194179
0.194008
0.193838
0.193667
0.193497
0.193326
0.193156
0.192985
0.192814
0.192644
0.192472
0.192301
0.19213
0.191958
0.191785
0.191613
0.19144
0.191266
0.191092
0.190917
0.190742
0.190566
0.19039
0.190212
0.190034
0.189854
0.189674
0.189493
0.18931
0.198787
0.198596
0.198405
0.198214
0.198025
0.197836
0.197649
0.197464
0.19728
0.197097
0.196916
0.196736
0.196558
0.196381
0.196205
0.196031
0.195857
0.195684
0.195511
0.195339
0.195168
0.194998
0.194827
0.194658
0.194488
0.194319
0.19415
0.193982
0.193813
0.193644
0.193476
0.193307
0.193138
0.192969
0.192799
0.19263
0.19246
0.192289
0.192119
0.191947
0.191776
0.191604
0.191431
0.191258
0.191085
0.190911
0.190736
0.19056
0.190384
0.190207
0.190029
0.189849
0.189669
0.189488
0.189306
0.198632
0.198447
0.198263
0.19808
0.197897
0.197715
0.197534
0.197355
0.197176
0.196999
0.196824
0.19665
0.196477
0.196305
0.196134
0.195964
0.195794
0.195625
0.195457
0.195289
0.195121
0.194954
0.194787
0.19462
0.194453
0.194287
0.19412
0.193954
0.193788
0.193621
0.193454
0.193287
0.19312
0.192952
0.192784
0.192615
0.192446
0.192277
0.192107
0.191937
0.191766
0.191595
0.191423
0.19125
0.191077
0.190904
0.190729
0.190554
0.190378
0.190201
0.190023
0.189844
0.189664
0.189483
0.189301
0.198475
0.198298
0.198121
0.197944
0.197768
0.197593
0.197418
0.197245
0.197072
0.196901
0.196731
0.196563
0.196395
0.196228
0.196062
0.195896
0.195731
0.195566
0.195402
0.195237
0.195073
0.194909
0.194746
0.194582
0.194418
0.194254
0.19409
0.193926
0.193762
0.193597
0.193432
0.193267
0.193101
0.192935
0.192768
0.192601
0.192433
0.192264
0.192095
0.191926
0.191756
0.191585
0.191414
0.191242
0.19107
0.190896
0.190723
0.190548
0.190372
0.190196
0.190018
0.189839
0.18966
0.189479
0.189297
0.198154
0.197984
0.197814
0.197644
0.197475
0.197306
0.197138
0.196972
0.196806
0.196642
0.196479
0.196316
0.196154
0.195992
0.195831
0.19567
0.195509
0.195348
0.195188
0.195027
0.194866
0.194706
0.194545
0.194384
0.194222
0.194061
0.193899
0.193737
0.193574
0.193411
0.193247
0.193083
0.192918
0.192752
0.192586
0.192419
0.192252
0.192084
0.191915
0.191746
0.191576
0.191405
0.191234
0.191062
0.190889
0.190716
0.190541
0.190366
0.19019
0.190013
0.189834
0.189655
0.189474
0.189292
0.197852
0.197688
0.197524
0.197361
0.197198
0.197036
0.196875
0.196715
0.196556
0.196397
0.196239
0.196082
0.195925
0.195768
0.195611
0.195454
0.195296
0.195139
0.194982
0.194824
0.194667
0.194509
0.19435
0.194191
0.194032
0.193872
0.193712
0.193551
0.19339
0.193228
0.193065
0.192901
0.192737
0.192572
0.192406
0.192239
0.192072
0.191904
0.191736
0.191566
0.191396
0.191226
0.191054
0.190882
0.190709
0.190535
0.19036
0.190184
0.190007
0.189829
0.18965
0.189469
0.189287
0.197725
0.197567
0.197409
0.197251
0.197094
0.196937
0.196781
0.196626
0.196472
0.196319
0.196166
0.196013
0.19586
0.195707
0.195553
0.1954
0.195246
0.195092
0.194938
0.194784
0.194629
0.194473
0.194317
0.194161
0.194004
0.193846
0.193688
0.193529
0.193369
0.193209
0.193047
0.192885
0.192722
0.192558
0.192393
0.192227
0.192061
0.191893
0.191726
0.191557
0.191388
0.191218
0.191047
0.190875
0.190702
0.190529
0.190354
0.190179
0.190002
0.189824
0.189645
0.189465
0.189283
0.197603
0.19745
0.197298
0.197145
0.196993
0.196842
0.196691
0.196541
0.196392
0.196243
0.196094
0.195945
0.195796
0.195647
0.195498
0.195348
0.195197
0.195047
0.194896
0.194744
0.194592
0.194439
0.194286
0.194131
0.193977
0.193821
0.193664
0.193507
0.193349
0.19319
0.19303
0.192868
0.192706
0.192543
0.19238
0.192215
0.192049
0.191883
0.191716
0.191548
0.191379
0.191209
0.191039
0.190868
0.190696
0.190523
0.190348
0.190173
0.189997
0.189819
0.18964
0.18946
0.189278
0.197485
0.197338
0.197191
0.197043
0.196896
0.19675
0.196604
0.196459
0.196314
0.19617
0.196025
0.19588
0.195735
0.19559
0.195444
0.195297
0.19515
0.195002
0.194854
0.194705
0.194556
0.194406
0.194254
0.194103
0.19395
0.193796
0.193641
0.193486
0.193329
0.193171
0.193012
0.192852
0.192691
0.192529
0.192366
0.192202
0.192038
0.191872
0.191705
0.191538
0.19137
0.191201
0.191031
0.190861
0.190689
0.190516
0.190342
0.190167
0.189991
0.189814
0.189635
0.189455
0.189274
0.197372
0.19723
0.197087
0.196945
0.196803
0.196661
0.19652
0.196379
0.196239
0.196099
0.195958
0.195817
0.195676
0.195534
0.195391
0.195248
0.195104
0.194959
0.194814
0.194668
0.194521
0.194373
0.194224
0.194074
0.193923
0.193772
0.193619
0.193464
0.193309
0.193153
0.192995
0.192836
0.192676
0.192515
0.192353
0.19219
0.192026
0.191861
0.191695
0.191529
0.191361
0.191193
0.191024
0.190853
0.190682
0.19051
0.190336
0.190162
0.189986
0.189809
0.189631
0.189451
0.18927
0.197262
0.197125
0.196987
0.19685
0.196712
0.196575
0.196439
0.196303
0.196166
0.19603
0.195894
0.195756
0.195618
0.19548
0.19534
0.1952
0.195059
0.194917
0.194775
0.194631
0.194486
0.194341
0.194194
0.194047
0.193898
0.193747
0.193596
0.193444
0.19329
0.193135
0.192978
0.19282
0.192662
0.192501
0.19234
0.192178
0.192015
0.19185
0.191685
0.191519
0.191352
0.191185
0.191016
0.190846
0.190675
0.190503
0.19033
0.190156
0.189981
0.189804
0.189626
0.189446
0.189265
0.197156
0.197023
0.19689
0.196757
0.196625
0.196492
0.19636
0.196228
0.196096
0.195963
0.195831
0.195697
0.195562
0.195427
0.195291
0.195153
0.195015
0.194876
0.194736
0.194595
0.194453
0.19431
0.194165
0.194019
0.193872
0.193724
0.193574
0.193423
0.19327
0.193117
0.192961
0.192805
0.192647
0.192487
0.192327
0.192166
0.192003
0.19184
0.191675
0.19151
0.191343
0.191176
0.191008
0.190839
0.190668
0.190497
0.190324
0.19015
0.189975
0.189799
0.189621
0.189442
0.189261
0.197051
0.196924
0.196795
0.196667
0.196539
0.196411
0.196283
0.196155
0.196027
0.195898
0.195769
0.195638
0.195507
0.195375
0.195241
0.195107
0.194972
0.194836
0.194698
0.19456
0.19442
0.194279
0.194136
0.193992
0.193847
0.1937
0.193552
0.193402
0.193251
0.193098
0.192944
0.192789
0.192632
0.192473
0.192314
0.192153
0.191991
0.191829
0.191665
0.1915
0.191335
0.191168
0.191
0.190831
0.190662
0.190491
0.190318
0.190145
0.18997
0.189794
0.189616
0.189437
0.189256
0.19695
0.196827
0.196703
0.196579
0.196455
0.196332
0.196208
0.196084
0.195959
0.195834
0.195708
0.195581
0.195453
0.195324
0.195194
0.195062
0.19493
0.194796
0.194661
0.194525
0.194387
0.194248
0.194108
0.193966
0.193822
0.193677
0.19353
0.193382
0.193232
0.193081
0.192927
0.192773
0.192617
0.192459
0.192301
0.192141
0.19198
0.191818
0.191655
0.191491
0.191326
0.19116
0.190992
0.190824
0.190655
0.190484
0.190312
0.190139
0.189965
0.189789
0.189611
0.189433
0.189252
0.196848
0.196729
0.19661
0.196491
0.196372
0.196252
0.196132
0.196012
0.195892
0.19577
0.195648
0.195524
0.195399
0.195273
0.195145
0.195017
0.194887
0.194756
0.194624
0.19449
0.194354
0.194217
0.194079
0.193938
0.193797
0.193653
0.193508
0.193361
0.193212
0.193062
0.19291
0.192756
0.192601
0.192445
0.192287
0.192128
0.191968
0.191806
0.191644
0.191481
0.191316
0.191151
0.190984
0.190817
0.190648
0.190477
0.190306
0.190133
0.189959
0.189784
0.189607
0.189428
0.189248
0.196744
0.19663
0.196516
0.196401
0.196286
0.196171
0.196056
0.19594
0.195823
0.195705
0.195585
0.195465
0.195343
0.19522
0.195096
0.19497
0.194843
0.194715
0.194585
0.194453
0.19432
0.194185
0.194049
0.19391
0.19377
0.193628
0.193484
0.193339
0.193192
0.193042
0.192892
0.192739
0.192585
0.192429
0.192273
0.192114
0.191955
0.191795
0.191633
0.191471
0.191307
0.191142
0.190976
0.190809
0.19064
0.190471
0.1903
0.190127
0.189953
0.189778
0.189602
0.189423
0.189243
0.19664
0.196531
0.196421
0.196311
0.196201
0.19609
0.195979
0.195867
0.195753
0.195639
0.195523
0.195406
0.195288
0.195168
0.195047
0.194924
0.194799
0.194674
0.194546
0.194417
0.194286
0.194153
0.194018
0.193882
0.193743
0.193603
0.193461
0.193317
0.193171
0.193023
0.192873
0.192722
0.192568
0.192414
0.192258
0.192101
0.191942
0.191783
0.191622
0.19146
0.191297
0.191133
0.190967
0.190801
0.190633
0.190464
0.190293
0.190121
0.189948
0.189773
0.189597
0.189419
0.189239
0.196534
0.19643
0.196325
0.19622
0.196115
0.196008
0.195901
0.195793
0.195684
0.195573
0.195461
0.195347
0.195232
0.195115
0.194997
0.194877
0.194755
0.194632
0.194507
0.19438
0.194251
0.19412
0.193988
0.193853
0.193716
0.193578
0.193437
0.193294
0.193149
0.193003
0.192854
0.192704
0.192552
0.192398
0.192243
0.192087
0.191929
0.191771
0.191611
0.19145
0.191287
0.191124
0.190959
0.190793
0.190625
0.190457
0.190287
0.190115
0.189942
0.189768
0.189592
0.189414
0.189235
0.196427
0.196328
0.196229
0.196129
0.196028
0.195926
0.195823
0.195719
0.195613
0.195506
0.195397
0.195287
0.195175
0.195062
0.194946
0.194829
0.194711
0.19459
0.194467
0.194343
0.194216
0.194088
0.193957
0.193824
0.193689
0.193552
0.193413
0.193271
0.193128
0.192982
0.192835
0.192686
0.192535
0.192382
0.192228
0.192073
0.191916
0.191759
0.191599
0.191439
0.191277
0.191114
0.19095
0.190785
0.190618
0.19045
0.19028
0.190109
0.189936
0.189762
0.189587
0.189409
0.18923
0.196319
0.196226
0.196132
0.196036
0.19594
0.195843
0.195744
0.195644
0.195543
0.195439
0.195334
0.195227
0.195119
0.195008
0.194896
0.194782
0.194666
0.194548
0.194428
0.194305
0.194181
0.194055
0.193926
0.193795
0.193662
0.193526
0.193388
0.193248
0.193106
0.192962
0.192815
0.192667
0.192518
0.192366
0.192213
0.192059
0.191903
0.191746
0.191588
0.191428
0.191267
0.191105
0.190942
0.190777
0.19061
0.190443
0.190273
0.190103
0.189931
0.189757
0.189582
0.189405
0.189226
0.19621
0.196123
0.196034
0.195944
0.195852
0.19576
0.195665
0.195569
0.195472
0.195372
0.195271
0.195167
0.195062
0.194955
0.194846
0.194734
0.194621
0.194506
0.194388
0.194268
0.194146
0.194021
0.193895
0.193765
0.193634
0.1935
0.193364
0.193225
0.193084
0.192941
0.192796
0.192649
0.1925
0.19235
0.192198
0.192045
0.19189
0.191734
0.191576
0.191418
0.191257
0.191096
0.190933
0.190769
0.190603
0.190436
0.190267
0.190097
0.189925
0.189752
0.189577
0.1894
0.189222
0.196101
0.196019
0.195935
0.19585
0.195764
0.195676
0.195586
0.195494
0.1954
0.195305
0.195207
0.195107
0.195005
0.194901
0.194795
0.194687
0.194576
0.194463
0.194348
0.194231
0.194111
0.193988
0.193863
0.193736
0.193606
0.193474
0.193339
0.193201
0.193062
0.19292
0.192776
0.192631
0.192483
0.192334
0.192183
0.192031
0.191877
0.191722
0.191565
0.191407
0.191248
0.191087
0.190924
0.190761
0.190595
0.190429
0.190261
0.190091
0.18992
0.189747
0.189572
0.189396
0.189218
0.195991
0.195914
0.195836
0.195757
0.195675
0.195592
0.195507
0.195419
0.195329
0.195237
0.195143
0.195047
0.194948
0.194848
0.194745
0.194639
0.194531
0.194421
0.194308
0.194193
0.194075
0.193955
0.193832
0.193706
0.193578
0.193447
0.193314
0.193178
0.19304
0.192899
0.192757
0.192612
0.192466
0.192318
0.192168
0.192017
0.191864
0.191709
0.191554
0.191396
0.191238
0.191078
0.190916
0.190753
0.190588
0.190422
0.190254
0.190085
0.189914
0.189742
0.189568
0.189392
0.189214
0.19588
0.195809
0.195737
0.195663
0.195586
0.195508
0.195427
0.195344
0.195258
0.19517
0.19508
0.194987
0.194892
0.194794
0.194694
0.194592
0.194487
0.194379
0.194269
0.194156
0.19404
0.193922
0.193801
0.193677
0.19355
0.193421
0.193289
0.193155
0.193018
0.192878
0.192737
0.192594
0.192449
0.192302
0.192153
0.192003
0.191851
0.191697
0.191542
0.191386
0.191228
0.191069
0.190908
0.190745
0.190581
0.190415
0.190248
0.190079
0.189909
0.189737
0.189563
0.189388
0.189211
0.195769
0.195704
0.195637
0.195569
0.195497
0.195424
0.195347
0.195268
0.195187
0.195103
0.195016
0.194927
0.194835
0.194741
0.194644
0.194544
0.194442
0.194337
0.194229
0.194119
0.194005
0.193889
0.193769
0.193647
0.193522
0.193395
0.193264
0.193131
0.192996
0.192858
0.192718
0.192576
0.192432
0.192286
0.192138
0.191989
0.191838
0.191685
0.191531
0.191376
0.191218
0.19106
0.190899
0.190737
0.190574
0.190409
0.190242
0.190074
0.189904
0.189732
0.189559
0.189384
0.189207
0.195661
0.195602
0.195541
0.195477
0.195411
0.195342
0.19527
0.195196
0.195118
0.195038
0.194955
0.194869
0.194781
0.19469
0.194595
0.194499
0.194399
0.194296
0.194191
0.194082
0.193971
0.193856
0.193739
0.193619
0.193495
0.193369
0.19324
0.193108
0.192974
0.192837
0.192699
0.192558
0.192415
0.19227
0.192124
0.191975
0.191825
0.191674
0.191521
0.191366
0.191209
0.191051
0.190891
0.19073
0.190567
0.190402
0.190236
0.190068
0.189899
0.189727
0.189555
0.18938
0.189204
0.195554
0.195501
0.195445
0.195387
0.195326
0.195262
0.195194
0.195124
0.19505
0.194974
0.194894
0.194812
0.194727
0.194639
0.194548
0.194453
0.194356
0.194256
0.194153
0.194046
0.193937
0.193825
0.193709
0.19359
0.193468
0.193344
0.193216
0.193086
0.192953
0.192818
0.19268
0.19254
0.192399
0.192255
0.19211
0.191962
0.191813
0.191663
0.19151
0.191356
0.1912
0.191043
0.190884
0.190723
0.19056
0.190396
0.190231
0.190063
0.189894
0.189723
0.189551
0.189377
0.189201
0.195441
0.195394
0.195345
0.195292
0.195236
0.195177
0.195114
0.195048
0.194979
0.194907
0.194831
0.194753
0.194671
0.194586
0.194498
0.194407
0.194312
0.194214
0.194114
0.19401
0.193902
0.193792
0.193678
0.193561
0.193441
0.193318
0.193192
0.193063
0.192931
0.192797
0.192661
0.192523
0.192382
0.19224
0.192096
0.191949
0.191801
0.191652
0.1915
0.191347
0.191192
0.191035
0.190876
0.190716
0.190554
0.190391
0.190225
0.190058
0.18989
0.189719
0.189547
0.189373
0.189198
0.195321
0.195281
0.195238
0.195192
0.195142
0.195088
0.19503
0.194969
0.194905
0.194837
0.194765
0.19469
0.194612
0.194531
0.194446
0.194358
0.194266
0.194171
0.194073
0.193971
0.193866
0.193758
0.193646
0.193531
0.193413
0.193291
0.193167
0.193039
0.19291
0.192777
0.192642
0.192505
0.192366
0.192225
0.192082
0.191937
0.19179
0.191641
0.19149
0.191337
0.191183
0.191027
0.190869
0.19071
0.190548
0.190385
0.19022
0.190054
0.189885
0.189716
0.189544
0.189371
0.189196
0.195194
0.195162
0.195126
0.195086
0.195042
0.194994
0.194942
0.194886
0.194827
0.194763
0.194697
0.194626
0.194552
0.194474
0.194393
0.194308
0.194219
0.194127
0.194032
0.193932
0.19383
0.193724
0.193614
0.193501
0.193384
0.193265
0.193142
0.193016
0.192888
0.192757
0.192624
0.192488
0.19235
0.19221
0.192068
0.191924
0.191778
0.19163
0.191481
0.191329
0.191175
0.19102
0.190863
0.190704
0.190543
0.19038
0.190216
0.19005
0.189882
0.189713
0.189541
0.189369
0.189194
0.19506
0.195035
0.195007
0.194974
0.194937
0.194895
0.19485
0.1948
0.194746
0.194688
0.194626
0.19456
0.19449
0.194416
0.194338
0.194257
0.194172
0.194082
0.19399
0.193893
0.193793
0.193689
0.193582
0.193471
0.193356
0.193239
0.193118
0.192994
0.192867
0.192738
0.192606
0.192472
0.192336
0.192197
0.192056
0.191913
0.191768
0.191621
0.191472
0.191321
0.191168
0.191014
0.190857
0.190699
0.190539
0.190377
0.190213
0.190047
0.18988
0.189711
0.18954
0.189367
0.189193
0.194915
0.194899
0.194879
0.194854
0.194825
0.19479
0.194752
0.194708
0.19466
0.194608
0.194551
0.19449
0.194425
0.194356
0.194282
0.194204
0.194123
0.194037
0.193947
0.193854
0.193756
0.193655
0.19355
0.193441
0.193329
0.193213
0.193094
0.192972
0.192847
0.19272
0.19259
0.192457
0.192322
0.192184
0.192045
0.191903
0.191759
0.191613
0.191465
0.191315
0.191163
0.191009
0.190853
0.190695
0.190535
0.190374
0.190211
0.190045
0.189878
0.18971
0.189539
0.189367
0.189193
0.194754
0.194749
0.194739
0.194723
0.194702
0.194676
0.194645
0.194609
0.194568
0.194522
0.194472
0.194416
0.194356
0.194292
0.194223
0.194149
0.194072
0.19399
0.193903
0.193813
0.193719
0.19362
0.193518
0.193412
0.193302
0.193188
0.193071
0.192951
0.192828
0.192702
0.192574
0.192443
0.192309
0.192173
0.192035
0.191894
0.191751
0.191606
0.191459
0.19131
0.191158
0.191005
0.19085
0.190692
0.190533
0.190372
0.190209
0.190044
0.189878
0.18971
0.189539
0.189367
0.189194
0.194602
0.194607
0.194606
0.1946
0.194588
0.19457
0.194547
0.194518
0.194483
0.194444
0.194399
0.194349
0.194294
0.194234
0.194169
0.1941
0.194026
0.193947
0.193864
0.193777
0.193685
0.193589
0.193489
0.193385
0.193277
0.193166
0.193051
0.192933
0.192811
0.192687
0.19256
0.19243
0.192298
0.192163
0.192025
0.191886
0.191744
0.191599
0.191453
0.191305
0.191154
0.191001
0.190846
0.19069
0.190531
0.19037
0.190207
0.190043
0.189877
0.189709
0.189539
0.189367
0.189194
0.194479
0.194493
0.1945
0.194501
0.194496
0.194485
0.194468
0.194445
0.194416
0.194381
0.194341
0.194296
0.194244
0.194188
0.194127
0.194061
0.19399
0.193914
0.193833
0.193749
0.193659
0.193565
0.193467
0.193365
0.193259
0.193149
0.193035
0.192918
0.192798
0.192675
0.192549
0.19242
0.192289
0.192155
0.192018
0.19188
0.191738
0.191595
0.191449
0.191301
0.191151
0.190998
0.190844
0.190687
0.190529
0.190369
0.190206
0.190042
0.189876
0.189708
0.189538
0.189367
0.189193
0.19437
0.194391
0.194406
0.194414
0.194415
0.19441
0.194399
0.194381
0.194357
0.194327
0.194291
0.194249
0.194202
0.194149
0.19409
0.194027
0.193959
0.193885
0.193807
0.193724
0.193637
0.193545
0.193449
0.193348
0.193243
0.193134
0.193022
0.192907
0.192788
0.192665
0.19254
0.192413
0.192282
0.192149
0.192013
0.191875
0.191734
0.191591
0.191445
0.191298
0.191148
0.190996
0.190842
0.190686
0.190528
0.190367
0.190205
0.190041
0.189875
0.189707
0.189538
0.189366
0.189193
0.189018
0.194272
0.1943
0.194322
0.194336
0.194343
0.194344
0.194337
0.194324
0.194305
0.194279
0.194246
0.194208
0.194164
0.194114
0.194058
0.193998
0.193932
0.193861
0.193784
0.193704
0.193618
0.193527
0.193432
0.193333
0.19323
0.193122
0.193011
0.192896
0.192778
0.192657
0.192533
0.192406
0.192276
0.192143
0.192008
0.19187
0.19173
0.191587
0.191442
0.191295
0.191146
0.190994
0.19084
0.190684
0.190526
0.190366
0.190204
0.19004
0.189874
0.189706
0.189537
0.189365
0.189192
0.189017
0.194183
0.194218
0.194246
0.194266
0.194279
0.194284
0.194282
0.194274
0.194258
0.194236
0.194207
0.194172
0.19413
0.194083
0.19403
0.193971
0.193908
0.193839
0.193764
0.193685
0.193601
0.193512
0.193418
0.19332
0.193218
0.193111
0.193001
0.192887
0.19277
0.19265
0.192526
0.1924
0.19227
0.192138
0.192004
0.191866
0.191726
0.191584
0.191439
0.191292
0.191143
0.190992
0.190838
0.190682
0.190524
0.190364
0.190202
0.190039
0.189873
0.189705
0.189535
0.189364
0.189191
0.189016
0.194102
0.194144
0.194177
0.194202
0.19422
0.19423
0.194233
0.194228
0.194216
0.194197
0.194171
0.194139
0.1941
0.194055
0.194004
0.193948
0.193886
0.193819
0.193746
0.193669
0.193586
0.193498
0.193406
0.193309
0.193207
0.193102
0.192992
0.192879
0.192763
0.192643
0.19252
0.192394
0.192265
0.192134
0.191999
0.191862
0.191723
0.191581
0.191436
0.19129
0.191141
0.190989
0.190836
0.19068
0.190522
0.190362
0.1902
0.190037
0.189871
0.189703
0.189534
0.189362
0.189189
0.189014
0.194028
0.194075
0.194113
0.194144
0.194166
0.19418
0.194187
0.194186
0.194177
0.194161
0.194138
0.194108
0.194072
0.194029
0.193981
0.193927
0.193866
0.193801
0.19373
0.193653
0.193572
0.193485
0.193394
0.193298
0.193197
0.193093
0.192984
0.192872
0.192756
0.192637
0.192514
0.192389
0.19226
0.192129
0.191995
0.191858
0.191719
0.191577
0.191433
0.191287
0.191138
0.190986
0.190833
0.190677
0.19052
0.19036
0.190198
0.190034
0.189868
0.189701
0.189531
0.18936
0.189187
0.189012
0.193958
0.19401
0.194054
0.194089
0.194115
0.194133
0.194144
0.194146
0.19414
0.194127
0.194107
0.19408
0.194046
0.194005
0.193959
0.193906
0.193848
0.193784
0.193714
0.193639
0.193558
0.193473
0.193383
0.193287
0.193188
0.193084
0.192976
0.192864
0.192749
0.19263
0.192508
0.192383
0.192255
0.192124
0.19199
0.191854
0.191715
0.191573
0.191429
0.191283
0.191134
0.190983
0.19083
0.190674
0.190516
0.190356
0.190195
0.190031
0.189865
0.189697
0.189528
0.189356
0.189183
0.189008
0.193891
0.193948
0.193997
0.194036
0.194067
0.194089
0.194103
0.194108
0.194106
0.194095
0.194078
0.194053
0.194021
0.193983
0.193938
0.193887
0.19383
0.193767
0.193699
0.193625
0.193546
0.193461
0.193372
0.193278
0.193179
0.193075
0.192968
0.192857
0.192742
0.192624
0.192502
0.192378
0.19225
0.192119
0.191986
0.19185
0.191711
0.191569
0.191425
0.191279
0.19113
0.190979
0.190826
0.19067
0.190513
0.190353
0.190191
0.190027
0.189861
0.189694
0.189524
0.189353
0.189179
0.189004
0.193834
0.193896
0.193949
0.193992
0.194027
0.194052
0.194069
0.194077
0.194078
0.19407
0.194054
0.194031
0.194002
0.193965
0.193922
0.193873
0.193817
0.193756
0.193688
0.193615
0.193537
0.193454
0.193365
0.193271
0.193173
0.19307
0.192964
0.192853
0.192739
0.192621
0.1925
0.192375
0.192248
0.192117
0.191984
0.191848
0.191709
0.191568
0.191424
0.191278
0.191129
0.190978
0.190825
0.190669
0.190511
0.190352
0.19019
0.190026
0.18986
0.189692
0.189523
0.189351
0.189178
0.189003
0.193802
0.193867
0.193922
0.193968
0.194005
0.194032
0.194051
0.194062
0.194064
0.194057
0.194043
0.194022
0.193993
0.193958
0.193915
0.193867
0.193812
0.193752
0.193685
0.193613
0.193535
0.193452
0.193364
0.193271
0.193173
0.193071
0.192964
0.192854
0.19274
0.192622
0.192501
0.192377
0.19225
0.192119
0.191986
0.19185
0.191712
0.19157
0.191426
0.19128
0.191131
0.19098
0.190827
0.190672
0.190514
0.190354
0.190192
0.190028
0.189862
0.189694
0.189525
0.189353
0.18918
0.189004
)
;

boundaryField
{
    inlet
    {
        type            zeroGradient;
    }
    outlet
    {
        type            fixedValue;
        value           nonuniform 0();
    }
    upperWall
    {
        type            zeroGradient;
    }
    lowerWall
    {
        type            zeroGradient;
    }
    frontAndBack
    {
        type            empty;
    }
    procBoundary1to0
    {
        type            processor;
        value           nonuniform List<scalar> 
59
(
0.189423
0.1894
0.189383
0.189372
0.189363
0.189355
0.189348
0.189341
0.189335
0.18933
0.189325
0.189325
0.189136
0.189132
0.189127
0.189122
0.189118
0.189113
0.189109
0.189104
0.1891
0.189095
0.189091
0.189087
0.189083
0.189078
0.189074
0.18907
0.189066
0.189062
0.189058
0.189054
0.18905
0.189046
0.189042
0.189039
0.189035
0.189032
0.189029
0.189026
0.189023
0.189021
0.189019
0.189018
0.189017
0.189018
0.189019
0.189019
0.189018
0.189018
0.188842
0.188841
0.18884
0.188838
0.188835
0.188831
0.188827
0.188826
0.188828
)
;
    }
    procBoundary1to3
    {
        type            processor;
        value           nonuniform List<scalar> 
62
(
0.202402
0.202118
0.20183
0.201586
0.201369
0.201167
0.200714
0.200714
0.200539
0.20013
0.20013
0.199971
0.199814
0.199656
0.199497
0.199136
0.199136
0.198979
0.198816
0.198651
0.198324
0.198324
0.198016
0.198016
0.197883
0.197755
0.197632
0.197514
0.197399
0.197288
0.197179
0.197073
0.196966
0.196857
0.196748
0.196637
0.196525
0.196411
0.196297
0.196182
0.196065
0.195949
0.195832
0.195718
0.195605
0.195485
0.195358
0.195224
0.195081
0.194926
0.194754
0.194591
0.194459
0.194341
0.194236
0.19414
0.194053
0.193972
0.193896
0.193824
0.193762
0.193727
)
;
    }
}


// ************************************************************************* //
