/*--------------------------------*- C++ -*----------------------------------*\
  =========                 |
  \\      /  F ield         | OpenFOAM: The Open Source CFD Toolbox
   \\    /   O peration     | Website:  https://openfoam.org
    \\  /    A nd           | Version:  6
     \\/     M anipulation  |
\*---------------------------------------------------------------------------*/
FoamFile
{
    version     2.0;
    format      ascii;
    class       surfaceScalarField;
    location    "0.03";
    object      phi;
}
// * * * * * * * * * * * * * * * * * * * * * * * * * * * * * * * * * * * * * //

dimensions      [0 3 -1 0 0 0 0];

internalField   nonuniform List<scalar> 
6046
(
4.71093e-07
-3.74902e-10
4.71412e-07
-3.1902e-10
4.71679e-07
-2.66375e-10
4.71895e-07
-2.16732e-10
4.72065e-07
-1.69807e-10
4.7219e-07
-1.25225e-10
4.72273e-07
-8.24456e-11
4.72312e-07
-3.9504e-11
4.72307e-07
5.70661e-12
4.72257e-07
5.01442e-11
4.72167e-07
8.95871e-11
4.72043e-07
1.23847e-10
4.71889e-07
1.5414e-10
4.71708e-07
1.81387e-10
4.71501e-07
2.06219e-10
4.71272e-07
2.29109e-10
4.71022e-07
2.50414e-10
4.70751e-07
2.7038e-10
4.70462e-07
2.89181e-10
4.70155e-07
3.06943e-10
4.69832e-07
3.2377e-10
4.69492e-07
3.39741e-10
4.69137e-07
3.54924e-10
4.68768e-07
3.69355e-10
4.68384e-07
3.83099e-10
4.67988e-07
3.96166e-10
4.6758e-07
4.08615e-10
4.67159e-07
4.20455e-10
4.66727e-07
4.31735e-10
4.66285e-07
4.42473e-10
4.65832e-07
4.52718e-10
4.6537e-07
4.62493e-10
4.64898e-07
4.7183e-10
4.64417e-07
4.80778e-10
4.63928e-07
4.89351e-10
4.6343e-07
4.97586e-10
4.62925e-07
5.05516e-10
4.62412e-07
5.13154e-10
4.61891e-07
5.20548e-10
4.61363e-07
5.27708e-10
4.60829e-07
5.34681e-10
4.60287e-07
5.41496e-10
4.59739e-07
5.48191e-10
4.59184e-07
5.54786e-10
4.58623e-07
5.6134e-10
4.58055e-07
5.67863e-10
4.57481e-07
5.74391e-10
4.569e-07
5.80954e-10
4.56312e-07
5.8757e-10
4.55718e-07
5.94268e-10
4.55117e-07
6.01051e-10
4.54509e-07
6.07933e-10
4.53894e-07
6.14914e-10
4.53272e-07
6.21997e-10
4.52643e-07
6.29182e-10
4.52006e-07
6.3647e-10
6.43855e-10
4.96959e-07
-7.98521e-10
4.97321e-07
-6.81491e-10
4.97626e-07
-5.71212e-10
4.97877e-07
-4.67234e-10
4.98076e-07
-3.69117e-10
4.98227e-07
-2.76359e-10
4.98333e-07
-1.88505e-10
4.98399e-07
-1.04843e-10
4.98429e-07
-2.44372e-11
4.98426e-07
5.30385e-11
4.98389e-07
1.26587e-10
4.98318e-07
1.95155e-10
4.98213e-07
2.58677e-10
4.98077e-07
3.17518e-10
4.97911e-07
3.72133e-10
4.97717e-07
4.22968e-10
4.97497e-07
4.70463e-10
4.97252e-07
5.14975e-10
4.96985e-07
5.56829e-10
4.96695e-07
5.96283e-10
4.96386e-07
6.33572e-10
4.96057e-07
6.68858e-10
4.95709e-07
7.02321e-10
4.95344e-07
7.34081e-10
4.94963e-07
7.64244e-10
4.94567e-07
7.92915e-10
4.94155e-07
8.20176e-10
4.93729e-07
8.46101e-10
4.9329e-07
8.70767e-10
4.92839e-07
8.94241e-10
4.92375e-07
9.16601e-10
4.91899e-07
9.37923e-10
4.91413e-07
9.58276e-10
4.90916e-07
9.77724e-10
4.90409e-07
9.96344e-10
4.89892e-07
1.0142e-09
4.89366e-07
1.03135e-09
4.88832e-07
1.04785e-09
4.88288e-07
1.06377e-09
4.87737e-07
1.07917e-09
4.87178e-07
1.0941e-09
4.8661e-07
1.10864e-09
4.86036e-07
1.12285e-09
4.85454e-07
1.1368e-09
4.84865e-07
1.15055e-09
4.84268e-07
1.16417e-09
4.83665e-07
1.17772e-09
4.83055e-07
1.19126e-09
4.82437e-07
1.20483e-09
4.81813e-07
1.2185e-09
4.81182e-07
1.23227e-09
4.80544e-07
1.2462e-09
4.79898e-07
1.2603e-09
4.79246e-07
1.27459e-09
4.78586e-07
1.28905e-09
4.77919e-07
1.30372e-09
1.31858e-09
5.05839e-07
-1.2394e-09
5.06216e-07
-1.05918e-09
5.06534e-07
-8.89366e-10
5.06796e-07
-7.293e-10
5.07006e-07
-5.78357e-10
5.07165e-07
-4.35946e-10
5.07278e-07
-3.0148e-10
5.07348e-07
-1.74394e-10
5.07377e-07
-5.39736e-11
5.0737e-07
6.04626e-11
5.07327e-07
1.69007e-10
5.07251e-07
2.71355e-10
5.07143e-07
3.67425e-10
5.07003e-07
4.57403e-10
5.06833e-07
5.41633e-10
5.06636e-07
6.20508e-10
5.06412e-07
6.94462e-10
5.06163e-07
7.63934e-10
5.0589e-07
8.29304e-10
5.05596e-07
8.90925e-10
5.0528e-07
9.49126e-10
5.04945e-07
1.00418e-09
5.04591e-07
1.05632e-09
5.04219e-07
1.10576e-09
5.03831e-07
1.15269e-09
5.03426e-07
1.19726e-09
5.03007e-07
1.23961e-09
5.02573e-07
1.27987e-09
5.02126e-07
1.31817e-09
5.01665e-07
1.35461e-09
5.01193e-07
1.38933e-09
5.00708e-07
1.42242e-09
5.00212e-07
1.454e-09
4.99706e-07
1.48418e-09
4.99189e-07
1.51305e-09
4.98663e-07
1.54073e-09
4.98127e-07
1.56731e-09
4.97582e-07
1.59288e-09
4.97028e-07
1.61753e-09
4.96466e-07
1.64136e-09
4.95895e-07
1.66446e-09
4.95317e-07
1.68691e-09
4.94731e-07
1.70883e-09
4.94138e-07
1.7303e-09
4.93537e-07
1.75143e-09
4.92929e-07
1.7723e-09
4.92313e-07
1.793e-09
4.91691e-07
1.81362e-09
4.91061e-07
1.83425e-09
4.90425e-07
1.85494e-09
4.89782e-07
1.87574e-09
4.89131e-07
1.89673e-09
4.88473e-07
1.91793e-09
4.87809e-07
1.93936e-09
4.87137e-07
1.96106e-09
4.86457e-07
1.98303e-09
2.0053e-09
5.10883e-07
-1.68534e-09
5.11265e-07
-1.44104e-09
5.11586e-07
-1.21084e-09
5.11851e-07
-9.93895e-10
5.12062e-07
-7.89401e-10
5.12223e-07
-5.96613e-10
5.12336e-07
-4.14799e-10
5.12405e-07
-2.43304e-10
5.12432e-07
-8.13896e-11
5.12421e-07
7.16941e-11
5.12374e-07
2.16437e-10
5.12292e-07
3.53062e-10
5.12178e-07
4.81737e-10
5.12032e-07
6.02749e-10
5.11858e-07
7.16452e-10
5.11655e-07
8.23285e-10
5.11426e-07
9.23699e-10
5.11171e-07
1.01816e-09
5.10894e-07
1.10714e-09
5.10593e-07
1.19106e-09
5.10272e-07
1.2703e-09
5.09931e-07
1.34523e-09
5.09571e-07
1.41617e-09
5.09194e-07
1.4834e-09
5.08799e-07
1.54717e-09
5.08389e-07
1.60772e-09
5.07963e-07
1.66522e-09
5.07523e-07
1.71988e-09
5.07069e-07
1.77187e-09
5.06603e-07
1.82134e-09
5.06124e-07
1.86846e-09
5.05633e-07
1.91338e-09
5.0513e-07
1.95625e-09
5.04617e-07
1.99722e-09
5.04094e-07
2.03642e-09
5.03561e-07
2.074e-09
5.03018e-07
2.11008e-09
5.02466e-07
2.14479e-09
5.01905e-07
2.17826e-09
5.01336e-07
2.2106e-09
5.00759e-07
2.24194e-09
5.00173e-07
2.27239e-09
4.9958e-07
2.30211e-09
4.98979e-07
2.33118e-09
4.98371e-07
2.35976e-09
4.97755e-07
2.38794e-09
4.97132e-07
2.41586e-09
4.96502e-07
2.44361e-09
4.95865e-07
2.47131e-09
4.95221e-07
2.49903e-09
4.9457e-07
2.52686e-09
4.93912e-07
2.55487e-09
4.93246e-07
2.58312e-09
4.92574e-07
2.61164e-09
4.91895e-07
2.64048e-09
4.91208e-07
2.66967e-09
2.69923e-09
5.14336e-07
-2.12776e-09
5.14714e-07
-1.81922e-09
5.15032e-07
-1.52848e-09
5.15292e-07
-1.25451e-09
5.15499e-07
-9.96328e-10
5.15656e-07
-7.52995e-10
5.15764e-07
-5.23655e-10
5.15829e-07
-3.07478e-10
5.15851e-07
-1.0363e-10
5.15834e-07
8.86984e-11
5.1578e-07
2.70225e-10
5.15692e-07
4.4146e-10
5.1557e-07
6.0285e-10
5.15418e-07
7.54841e-10
5.15237e-07
8.97897e-10
5.15028e-07
1.03253e-09
5.14792e-07
1.15925e-09
5.14532e-07
1.2786e-09
5.14248e-07
1.39109e-09
5.13942e-07
1.49722e-09
5.13614e-07
1.59746e-09
5.13267e-07
1.69223e-09
5.12902e-07
1.78192e-09
5.12518e-07
1.8669e-09
5.12118e-07
1.94748e-09
5.11702e-07
2.02395e-09
5.1127e-07
2.09657e-09
5.10825e-07
2.16559e-09
5.10365e-07
2.23121e-09
5.09893e-07
2.29367e-09
5.09408e-07
2.35317e-09
5.08912e-07
2.40989e-09
5.08404e-07
2.46403e-09
5.07885e-07
2.51577e-09
5.07356e-07
2.5653e-09
5.06818e-07
2.61277e-09
5.06269e-07
2.65837e-09
5.05712e-07
2.70223e-09
5.05146e-07
2.74452e-09
5.04571e-07
2.78539e-09
5.03988e-07
2.825e-09
5.03397e-07
2.86349e-09
5.02798e-07
2.90102e-09
5.02191e-07
2.93774e-09
5.01577e-07
2.97378e-09
5.00956e-07
3.00931e-09
5.00327e-07
3.04445e-09
4.99692e-07
3.07934e-09
4.99049e-07
3.11409e-09
4.98399e-07
3.14884e-09
4.97742e-07
3.18366e-09
4.97078e-07
3.21865e-09
4.96408e-07
3.25388e-09
4.9573e-07
3.28941e-09
4.95045e-07
3.32531e-09
4.94353e-07
3.3616e-09
3.39836e-09
5.16937e-07
5.17305e-07
-2.18679e-09
5.17612e-07
-1.83593e-09
5.17863e-07
-1.50533e-09
5.1806e-07
-1.1938e-09
5.18208e-07
-9.00243e-10
5.18308e-07
-6.23631e-10
5.18363e-07
-3.62981e-10
5.18377e-07
-1.17341e-10
5.18351e-07
1.14234e-10
5.18289e-07
3.3258e-10
5.18192e-07
5.38439e-10
5.18062e-07
7.32456e-10
5.17902e-07
9.15257e-10
5.17712e-07
1.08744e-09
5.17495e-07
1.24962e-09
5.17252e-07
1.4024e-09
5.16984e-07
1.54639e-09
5.16693e-07
1.68217e-09
5.1638e-07
1.81031e-09
5.16046e-07
1.93135e-09
5.15693e-07
2.04578e-09
5.15321e-07
2.15408e-09
5.14931e-07
2.25665e-09
5.14524e-07
2.35389e-09
5.14102e-07
2.44616e-09
5.13665e-07
2.53376e-09
5.13214e-07
2.61701e-09
5.12749e-07
2.69617e-09
5.12271e-07
2.77151e-09
5.11781e-07
2.84328e-09
5.11279e-07
2.91172e-09
5.10766e-07
2.97705e-09
5.10242e-07
3.0395e-09
5.09708e-07
3.09929e-09
5.09164e-07
3.15661e-09
5.08611e-07
3.21167e-09
5.08049e-07
3.26465e-09
5.07477e-07
3.31574e-09
5.06898e-07
3.36513e-09
5.0631e-07
3.41299e-09
5.05714e-07
3.4595e-09
5.0511e-07
3.50484e-09
5.04498e-07
3.54919e-09
5.03879e-07
3.5927e-09
5.03253e-07
3.63555e-09
5.0262e-07
3.67791e-09
5.01979e-07
3.71991e-09
5.01331e-07
3.76171e-09
5.00677e-07
3.80343e-09
5.00015e-07
3.8452e-09
4.99347e-07
3.88711e-09
4.98672e-07
3.92925e-09
4.97989e-07
3.97172e-09
4.973e-07
4.01457e-09
4.96604e-07
4.05787e-09
4.1017e-09
5.19386e-07
-2.53708e-09
5.19677e-07
-2.12706e-09
5.19912e-07
-1.74068e-09
5.20095e-07
-1.37662e-09
5.20228e-07
-1.03358e-09
5.20315e-07
-7.10375e-10
5.20358e-07
-4.05868e-10
5.2036e-07
-1.18955e-10
5.20322e-07
1.51408e-10
5.20249e-07
4.06217e-10
5.20141e-07
6.46358e-10
5.20001e-07
8.72667e-10
5.1983e-07
1.08592e-09
5.19631e-07
1.28685e-09
5.19404e-07
1.47619e-09
5.19152e-07
1.65465e-09
5.18875e-07
1.8229e-09
5.18576e-07
1.98162e-09
5.18255e-07
2.13145e-09
5.17913e-07
2.27299e-09
5.17552e-07
2.40681e-09
5.17173e-07
2.53344e-09
5.16776e-07
2.65337e-09
5.16363e-07
2.76705e-09
5.15934e-07
2.8749e-09
5.1549e-07
2.97729e-09
5.15033e-07
3.07457e-09
5.14562e-07
3.16709e-09
5.14078e-07
3.25516e-09
5.13583e-07
3.33906e-09
5.13075e-07
3.41907e-09
5.12557e-07
3.49547e-09
5.12028e-07
3.56852e-09
5.11489e-07
3.63847e-09
5.1094e-07
3.70554e-09
5.10381e-07
3.76999e-09
5.09814e-07
3.83201e-09
5.09238e-07
3.89185e-09
5.08653e-07
3.94969e-09
5.08061e-07
4.00576e-09
5.0746e-07
4.06024e-09
5.06851e-07
4.11336e-09
5.06235e-07
4.16529e-09
5.05612e-07
4.21624e-09
5.04981e-07
4.26639e-09
5.04343e-07
4.31592e-09
5.03698e-07
4.36501e-09
5.03046e-07
4.41379e-09
5.02387e-07
4.46246e-09
5.01721e-07
4.5111e-09
5.01048e-07
4.55987e-09
5.00368e-07
4.60886e-09
4.99682e-07
4.65816e-09
4.98989e-07
4.70787e-09
4.98288e-07
4.75808e-09
4.80887e-09
5.21156e-07
5.21425e-07
-2.39574e-09
5.21639e-07
-1.95494e-09
5.21802e-07
-1.53958e-09
5.21917e-07
-1.1482e-09
5.21986e-07
-7.79463e-10
5.22012e-07
-4.32056e-10
5.21998e-07
-1.04762e-10
5.21946e-07
2.036e-10
5.21858e-07
4.94152e-10
5.21736e-07
7.67947e-10
5.21583e-07
1.02594e-09
5.214e-07
1.26907e-09
5.21189e-07
1.49819e-09
5.20951e-07
1.71415e-09
5.20687e-07
1.91775e-09
5.20401e-07
2.10978e-09
5.20091e-07
2.29097e-09
5.19761e-07
2.46204e-09
5.1941e-07
2.62366e-09
5.1904e-07
2.77649e-09
5.18653e-07
2.9211e-09
5.18248e-07
3.05806e-09
5.17827e-07
3.18787e-09
5.17391e-07
3.31101e-09
5.1694e-07
3.42792e-09
5.16476e-07
3.53901e-09
5.15998e-07
3.64466e-09
5.15508e-07
3.74523e-09
5.15006e-07
3.84106e-09
5.14493e-07
3.93246e-09
5.13969e-07
4.01977e-09
5.13434e-07
4.10326e-09
5.12889e-07
4.18322e-09
5.12335e-07
4.25993e-09
5.11771e-07
4.33365e-09
5.11199e-07
4.40462e-09
5.10617e-07
4.47309e-09
5.10028e-07
4.53931e-09
5.0943e-07
4.60351e-09
5.08824e-07
4.66591e-09
5.08211e-07
4.72673e-09
5.0759e-07
4.7862e-09
5.06962e-07
4.84453e-09
5.06326e-07
4.90191e-09
5.05684e-07
4.95857e-09
5.05034e-07
5.01468e-09
5.04377e-07
5.07041e-09
5.03714e-07
5.12593e-09
5.03043e-07
5.1814e-09
5.02366e-07
5.23695e-09
5.01683e-07
5.29269e-09
5.00992e-07
5.34875e-09
5.00295e-07
5.40523e-09
4.9959e-07
5.46223e-09
5.51986e-09
5.22985e-07
-2.63586e-09
5.23173e-07
-2.1424e-09
5.23311e-07
-1.67737e-09
5.23402e-07
-1.23919e-09
5.23448e-07
-8.26324e-10
5.23454e-07
-4.37342e-10
5.2342e-07
-7.08759e-11
5.23349e-07
2.74385e-10
5.23243e-07
5.99683e-10
5.23105e-07
9.06196e-10
5.22936e-07
1.19503e-09
5.22738e-07
1.46723e-09
5.22512e-07
1.72379e-09
5.22261e-07
1.96566e-09
5.21985e-07
2.19373e-09
5.21686e-07
2.40889e-09
5.21365e-07
2.61196e-09
5.21023e-07
2.80371e-09
5.20662e-07
2.98492e-09
5.20282e-07
3.15626e-09
5.19885e-07
3.31841e-09
5.19471e-07
3.47198e-09
5.19041e-07
3.61753e-09
5.18597e-07
3.75562e-09
5.18138e-07
3.88672e-09
5.17666e-07
4.0113e-09
5.1718e-07
4.12979e-09
5.16683e-07
4.2426e-09
5.16174e-07
4.35011e-09
5.15654e-07
4.45269e-09
5.15123e-07
4.55069e-09
5.14582e-07
4.64443e-09
5.14031e-07
4.73424e-09
5.1347e-07
4.82042e-09
5.12901e-07
4.90326e-09
5.12322e-07
4.98304e-09
5.11735e-07
5.06004e-09
5.1114e-07
5.13452e-09
5.10537e-07
5.20675e-09
5.09926e-07
5.27696e-09
5.09307e-07
5.34541e-09
5.08681e-07
5.41234e-09
5.08047e-07
5.47797e-09
5.07407e-07
5.54253e-09
5.06759e-07
5.60624e-09
5.06104e-07
5.66929e-09
5.05443e-07
5.73189e-09
5.04775e-07
5.79421e-09
5.041e-07
5.85642e-09
5.03418e-07
5.91866e-09
5.0273e-07
5.98108e-09
5.02035e-07
6.04379e-09
5.01333e-07
6.10693e-09
5.00624e-07
6.17061e-09
6.23497e-09
5.24446e-07
-2.84123e-09
5.24601e-07
-2.2973e-09
5.24708e-07
-1.78465e-09
5.24771e-07
-1.30154e-09
5.24791e-07
-8.46308e-10
5.24771e-07
-4.17375e-10
5.24713e-07
-1.32511e-11
5.2462e-07
3.6751e-10
5.24493e-07
7.26273e-10
5.24335e-07
1.06433e-09
5.24147e-07
1.38291e-09
5.23931e-07
1.68318e-09
5.23689e-07
1.96622e-09
5.23422e-07
2.23312e-09
5.2313e-07
2.48484e-09
5.22817e-07
2.72237e-09
5.22482e-07
2.94658e-09
5.22128e-07
3.15836e-09
5.21754e-07
3.3585e-09
5.21363e-07
3.54779e-09
5.20954e-07
3.72694e-09
5.20529e-07
3.89662e-09
5.20089e-07
4.05747e-09
5.19635e-07
4.21005e-09
5.19167e-07
4.35496e-09
5.18685e-07
4.49265e-09
5.18192e-07
4.62365e-09
5.17686e-07
4.74839e-09
5.17169e-07
4.8673e-09
5.16641e-07
4.98078e-09
5.16102e-07
5.08923e-09
5.15553e-07
5.193e-09
5.14995e-07
5.29244e-09
5.14428e-07
5.38789e-09
5.13851e-07
5.47969e-09
5.13266e-07
5.56811e-09
5.12673e-07
5.6535e-09
5.12071e-07
5.73611e-09
5.11462e-07
5.81624e-09
5.10845e-07
5.89415e-09
5.1022e-07
5.97012e-09
5.09588e-07
6.0444e-09
5.08948e-07
6.11723e-09
5.08302e-07
6.18887e-09
5.07649e-07
6.25955e-09
5.06989e-07
6.32947e-09
5.06322e-07
6.39885e-09
5.05648e-07
6.46788e-09
5.04968e-07
6.53674e-09
5.04281e-07
6.60558e-09
5.03587e-07
6.67458e-09
5.02887e-07
6.74385e-09
5.02181e-07
6.81355e-09
5.01467e-07
6.88379e-09
6.95475e-09
5.25872e-07
-3.00573e-09
5.25989e-07
-2.4139e-09
5.2606e-07
-1.85602e-09
5.26089e-07
-1.33022e-09
5.26077e-07
-8.34693e-10
5.26028e-07
-3.67743e-10
5.25942e-07
7.22534e-11
5.25823e-07
4.86862e-10
5.25671e-07
8.77555e-10
5.2549e-07
1.24574e-09
5.2528e-07
1.59275e-09
5.25043e-07
1.91987e-09
5.24781e-07
2.22828e-09
5.24495e-07
2.51914e-09
5.24187e-07
2.79354e-09
5.23857e-07
3.05252e-09
5.23506e-07
3.29704e-09
5.23136e-07
3.52804e-09
5.22748e-07
3.7464e-09
5.22343e-07
3.95295e-09
5.21922e-07
4.14847e-09
5.21485e-07
4.33369e-09
5.21033e-07
4.50928e-09
5.20567e-07
4.6759e-09
5.20088e-07
4.83412e-09
5.19596e-07
4.98453e-09
5.19092e-07
5.12764e-09
5.18576e-07
5.26394e-09
5.1805e-07
5.39391e-09
5.17513e-07
5.51799e-09
5.16965e-07
5.63659e-09
5.16408e-07
5.75012e-09
5.15842e-07
5.85895e-09
5.15266e-07
5.96347e-09
5.14682e-07
6.064e-09
5.14089e-07
6.1609e-09
5.13488e-07
6.25448e-09
5.12879e-07
6.34506e-09
5.12262e-07
6.43294e-09
5.11638e-07
6.51841e-09
5.11006e-07
6.60177e-09
5.10368e-07
6.68327e-09
5.09722e-07
6.76321e-09
5.09069e-07
6.84182e-09
5.08409e-07
6.91935e-09
5.07742e-07
6.99604e-09
5.07069e-07
7.0721e-09
5.06389e-07
7.14774e-09
5.05703e-07
7.22315e-09
5.0501e-07
7.2985e-09
5.0431e-07
7.37396e-09
5.03605e-07
7.44968e-09
5.02892e-07
7.52582e-09
5.02174e-07
7.60251e-09
7.67993e-09
5.2731e-07
-3.12335e-09
5.27382e-07
-2.48654e-09
5.27412e-07
-1.88617e-09
5.27402e-07
-1.32022e-09
5.27354e-07
-7.86779e-10
5.27271e-07
-2.84012e-10
5.27153e-07
1.89811e-10
5.27004e-07
6.36354e-10
5.26824e-07
1.05721e-09
5.26616e-07
1.4539e-09
5.26381e-07
1.82783e-09
5.2612e-07
2.18039e-09
5.25836e-07
2.51286e-09
5.25528e-07
2.82649e-09
5.25199e-07
3.12244e-09
5.2485e-07
3.40182e-09
5.24481e-07
3.66568e-09
5.24094e-07
3.91501e-09
5.2369e-07
4.15076e-09
5.23269e-07
4.3738e-09
5.22833e-07
4.58498e-09
5.22381e-07
4.78506e-09
5.21916e-07
4.97479e-09
5.21437e-07
5.15486e-09
5.20945e-07
5.3259e-09
5.20441e-07
5.48852e-09
5.19925e-07
5.6433e-09
5.19399e-07
5.79076e-09
5.18861e-07
5.9314e-09
5.18313e-07
6.06573e-09
5.17756e-07
6.19416e-09
5.17189e-07
6.31715e-09
5.16613e-07
6.4351e-09
5.16028e-07
6.54842e-09
5.15434e-07
6.65746e-09
5.14833e-07
6.7626e-09
5.14223e-07
6.86419e-09
5.13605e-07
6.96254e-09
5.1298e-07
7.05801e-09
5.12348e-07
7.15088e-09
5.11708e-07
7.24147e-09
5.11061e-07
7.33007e-09
5.10408e-07
7.41696e-09
5.09747e-07
7.50241e-09
5.0908e-07
7.58668e-09
5.08406e-07
7.67002e-09
5.07725e-07
7.75264e-09
5.07038e-07
7.83478e-09
5.06345e-07
7.91662e-09
5.05645e-07
7.99836e-09
5.04939e-07
8.08017e-09
5.04226e-07
8.16222e-09
5.03507e-07
8.24466e-09
5.02782e-07
8.32767e-09
5.02051e-07
8.41141e-09
8.49609e-09
5.28791e-07
5.28814e-07
-2.50983e-09
5.28798e-07
-1.86999e-09
5.28744e-07
-1.26672e-09
5.28655e-07
-6.97986e-10
5.28533e-07
-1.61861e-10
5.2838e-07
3.43503e-10
5.28196e-07
8.19872e-10
5.27984e-07
1.26892e-09
5.27746e-07
1.69226e-09
5.27482e-07
2.09142e-09
5.27195e-07
2.46785e-09
5.26885e-07
2.82293e-09
5.26553e-07
3.15797e-09
5.26202e-07
3.47421e-09
5.25831e-07
3.77283e-09
5.25441e-07
4.05494e-09
5.25035e-07
4.3216e-09
5.24612e-07
4.5738e-09
5.24173e-07
4.81248e-09
5.2372e-07
5.0385e-09
5.23252e-07
5.25273e-09
5.22771e-07
5.45591e-09
5.22277e-07
5.6488e-09
5.21771e-07
5.83208e-09
5.21253e-07
6.00638e-09
5.20724e-07
6.17232e-09
5.20184e-07
6.33047e-09
5.19634e-07
6.48138e-09
5.19074e-07
6.62554e-09
5.18505e-07
6.76345e-09
5.17927e-07
6.89557e-09
5.17339e-07
7.02233e-09
5.16744e-07
7.14416e-09
5.1614e-07
7.26144e-09
5.15528e-07
7.37459e-09
5.14908e-07
7.48394e-09
5.14281e-07
7.58987e-09
5.13646e-07
7.69272e-09
5.13004e-07
7.7928e-09
5.12355e-07
7.89046e-09
5.11699e-07
7.98598e-09
5.11036e-07
8.07968e-09
5.10367e-07
8.17182e-09
5.09691e-07
8.26269e-09
5.09008e-07
8.35253e-09
5.08319e-07
8.44159e-09
5.07624e-07
8.53009e-09
5.06923e-07
8.61824e-09
5.06215e-07
8.70624e-09
5.05501e-07
8.79427e-09
5.0478e-07
8.88251e-09
5.04054e-07
8.97113e-09
5.03321e-07
9.0603e-09
5.02582e-07
9.15022e-09
9.24108e-09
5.30304e-07
-2.47873e-09
5.30237e-07
-1.80271e-09
5.30135e-07
-1.16519e-09
5.30001e-07
-5.64025e-10
5.29837e-07
2.79611e-12
5.29643e-07
5.37211e-10
5.29422e-07
1.04109e-09
5.29175e-07
1.51618e-09
5.28903e-07
1.96419e-09
5.28607e-07
2.38672e-09
5.2829e-07
2.78529e-09
5.27951e-07
3.16138e-09
5.27593e-07
3.51634e-09
5.27216e-07
3.8515e-09
5.26821e-07
4.16808e-09
5.26408e-07
4.46726e-09
5.2598e-07
4.75014e-09
5.25536e-07
5.01777e-09
5.25077e-07
5.27114e-09
5.24604e-07
5.51115e-09
5.24118e-07
5.73869e-09
5.2362e-07
5.95459e-09
5.23109e-07
6.1596e-09
5.22587e-07
6.35447e-09
5.22053e-07
6.53987e-09
5.21509e-07
6.71643e-09
5.20955e-07
6.88477e-09
5.20391e-07
7.04546e-09
5.19817e-07
7.19904e-09
5.19235e-07
7.34603e-09
5.18643e-07
7.4869e-09
5.18043e-07
7.62213e-09
5.17435e-07
7.75215e-09
5.16819e-07
7.8774e-09
5.16196e-07
7.99827e-09
5.15565e-07
8.11514e-09
5.14926e-07
8.2284e-09
5.1428e-07
8.33841e-09
5.13628e-07
8.44552e-09
5.12968e-07
8.55004e-09
5.12302e-07
8.6523e-09
5.11629e-07
8.75263e-09
5.10949e-07
8.8513e-09
5.10263e-07
8.9486e-09
5.09571e-07
9.0448e-09
5.08873e-07
9.14014e-09
5.08168e-07
9.23485e-09
5.07457e-07
9.32917e-09
5.0674e-07
9.42328e-09
5.06017e-07
9.51739e-09
5.05288e-07
9.61167e-09
5.04552e-07
9.70631e-09
5.03811e-07
9.8015e-09
5.03064e-07
9.89742e-09
9.99429e-09
5.31861e-07
-2.38879e-09
5.31739e-07
-1.6801e-09
5.31585e-07
-1.01159e-09
5.31402e-07
-3.81046e-10
5.31191e-07
2.13627e-10
5.30954e-07
7.74455e-10
5.30692e-07
1.30337e-09
5.30406e-07
1.80221e-09
5.30097e-07
2.27275e-09
5.29767e-07
2.71665e-09
5.29417e-07
3.13554e-09
5.29047e-07
3.53091e-09
5.2866e-07
3.9042e-09
5.28254e-07
4.25679e-09
5.27832e-07
4.58997e-09
5.27395e-07
4.90494e-09
5.26942e-07
5.20286e-09
5.26475e-07
5.48483e-09
5.25994e-07
5.75186e-09
5.255e-07
6.00491e-09
5.24994e-07
6.24491e-09
5.24476e-07
6.47271e-09
5.23947e-07
6.68911e-09
5.23406e-07
6.89487e-09
5.22855e-07
7.09071e-09
5.22294e-07
7.27731e-09
5.21724e-07
7.45529e-09
5.21144e-07
7.62527e-09
5.20555e-07
7.7878e-09
5.19958e-07
7.94343e-09
5.19352e-07
8.09266e-09
5.18738e-07
8.23598e-09
5.18117e-07
8.37387e-09
5.17487e-07
8.50674e-09
5.16851e-07
8.63505e-09
5.16207e-07
8.75917e-09
5.15555e-07
8.87951e-09
5.14897e-07
8.99644e-09
5.14233e-07
9.11032e-09
5.13561e-07
9.2215e-09
5.12883e-07
9.33031e-09
5.12199e-07
9.43707e-09
5.11508e-07
9.54208e-09
5.10811e-07
9.64565e-09
5.10108e-07
9.74802e-09
5.09398e-07
9.84947e-09
5.08683e-07
9.95025e-09
5.07961e-07
1.00506e-08
5.07234e-07
1.01506e-08
5.06501e-07
1.02506e-08
5.05762e-07
1.03508e-08
5.05017e-07
1.04513e-08
5.04266e-07
1.05523e-08
5.03509e-07
1.06541e-08
1.07568e-08
5.56299e-07
-2.05522e-09
5.55934e-07
-1.3148e-09
5.55538e-07
-6.16057e-10
5.55114e-07
4.32663e-11
5.54662e-07
6.65349e-10
5.54184e-07
1.25229e-09
5.53682e-07
1.80608e-09
5.53155e-07
2.32864e-09
5.52606e-07
2.8218e-09
5.52036e-07
3.2873e-09
5.51444e-07
3.72681e-09
5.50833e-07
4.14189e-09
5.50203e-07
4.53405e-09
5.49556e-07
4.90468e-09
5.4889e-07
5.25514e-09
5.48209e-07
5.58669e-09
5.47511e-07
5.90051e-09
5.46798e-07
6.19774e-09
5.4607e-07
6.47943e-09
5.45329e-07
6.74659e-09
5.44574e-07
7.00017e-09
5.43805e-07
7.24104e-09
5.43024e-07
7.47006e-09
5.42231e-07
7.68802e-09
5.41426e-07
7.89565e-09
5.4061e-07
8.09366e-09
5.39782e-07
8.28272e-09
5.38944e-07
8.46346e-09
5.38096e-07
8.63645e-09
5.37237e-07
8.80228e-09
5.36368e-07
8.96146e-09
5.35489e-07
9.11451e-09
5.34601e-07
9.26191e-09
5.33704e-07
9.40411e-09
5.32797e-07
9.54156e-09
5.31882e-07
9.67469e-09
5.30958e-07
9.80388e-09
5.30024e-07
9.92954e-09
5.29083e-07
1.0052e-08
5.28132e-07
1.01717e-08
5.27174e-07
1.02889e-08
5.26207e-07
1.0404e-08
5.25232e-07
1.05173e-08
5.24248e-07
1.06291e-08
5.23257e-07
1.07396e-08
5.22257e-07
1.08491e-08
5.21249e-07
1.09579e-08
5.20234e-07
1.10663e-08
5.1921e-07
1.11743e-08
5.18178e-07
1.12823e-08
5.17139e-07
1.13904e-08
5.16091e-07
1.14988e-08
5.15036e-07
1.16078e-08
5.13972e-07
1.17174e-08
1.18281e-08
5.18395e-07
5.18287e-07
-1.20624e-09
5.18156e-07
-4.85415e-10
5.18004e-07
1.94882e-10
5.17833e-07
8.36895e-10
5.17642e-07
1.44276e-09
5.17434e-07
2.01453e-09
5.17208e-07
2.55416e-09
5.16967e-07
3.06355e-09
5.16709e-07
3.54448e-09
5.16437e-07
3.99865e-09
5.16152e-07
4.42769e-09
5.15853e-07
4.83311e-09
5.15541e-07
5.21639e-09
5.15217e-07
5.57888e-09
5.14882e-07
5.92189e-09
5.14536e-07
6.24663e-09
5.14179e-07
6.55427e-09
5.13813e-07
6.84589e-09
5.13437e-07
7.12252e-09
5.13052e-07
7.38514e-09
5.12658e-07
7.63465e-09
5.12256e-07
7.87192e-09
5.11847e-07
8.09778e-09
5.11429e-07
8.31298e-09
5.11005e-07
8.51825e-09
5.10573e-07
8.71428e-09
5.10135e-07
8.90171e-09
5.0969e-07
9.08115e-09
5.09239e-07
9.25319e-09
5.08782e-07
9.41837e-09
5.0832e-07
9.57722e-09
5.07851e-07
9.73023e-09
5.07378e-07
9.87788e-09
5.06899e-07
1.00206e-08
5.06414e-07
1.01589e-08
5.05925e-07
1.02931e-08
5.05431e-07
1.04236e-08
5.04932e-07
1.05509e-08
5.04429e-07
1.06752e-08
5.03921e-07
1.0797e-08
5.03408e-07
1.09165e-08
5.02892e-07
1.10342e-08
5.0237e-07
1.11502e-08
5.01845e-07
1.12649e-08
5.01316e-07
1.13786e-08
5.00782e-07
1.14915e-08
5.00244e-07
1.16039e-08
4.99703e-07
1.17159e-08
4.99157e-07
1.18278e-08
4.98608e-07
1.19398e-08
4.98055e-07
1.20521e-08
4.97498e-07
1.21648e-08
4.96937e-07
1.22782e-08
1.23926e-08
4.84408e-07
4.84522e-07
-5.98818e-10
4.84621e-07
9.58941e-11
4.84706e-07
7.5151e-10
4.84779e-07
1.37022e-09
4.84839e-07
1.95412e-09
4.84888e-07
2.50519e-09
4.84926e-07
3.02536e-09
4.84954e-07
3.51645e-09
4.84973e-07
3.98019e-09
4.84982e-07
4.41824e-09
4.84983e-07
4.83215e-09
4.84976e-07
5.2234e-09
4.84962e-07
5.59339e-09
4.8494e-07
5.94344e-09
4.84912e-07
6.27479e-09
4.84878e-07
6.58863e-09
4.84837e-07
6.88606e-09
4.84792e-07
7.16813e-09
4.84741e-07
7.43583e-09
4.84686e-07
7.6901e-09
4.84626e-07
7.93182e-09
4.84562e-07
8.16183e-09
4.84494e-07
8.3809e-09
4.84422e-07
8.58978e-09
4.84347e-07
8.78917e-09
4.84269e-07
8.97974e-09
4.84188e-07
9.1621e-09
4.84105e-07
9.33685e-09
4.84019e-07
9.50456e-09
4.8393e-07
9.66575e-09
4.83839e-07
9.82094e-09
4.83747e-07
9.97061e-09
4.83652e-07
1.01152e-08
4.83556e-07
1.02552e-08
4.83458e-07
1.0391e-08
4.83358e-07
1.0523e-08
4.83258e-07
1.06516e-08
4.83156e-07
1.07772e-08
4.83052e-07
1.09001e-08
4.82948e-07
1.10207e-08
4.82843e-07
1.11393e-08
4.82737e-07
1.12562e-08
4.82631e-07
1.13716e-08
4.82523e-07
1.1486e-08
4.82415e-07
1.15995e-08
4.82307e-07
1.17124e-08
4.82198e-07
1.18248e-08
4.82089e-07
1.19371e-08
4.81979e-07
1.20494e-08
4.81869e-07
1.21618e-08
4.81759e-07
1.22747e-08
4.81649e-07
1.23882e-08
1.25025e-08
4.54253e-07
-9.37082e-10
4.54582e-07
-2.33485e-10
4.54903e-07
4.30429e-10
4.55216e-07
1.05686e-09
4.55523e-07
1.64793e-09
4.55822e-07
2.20567e-09
4.56115e-07
2.73199e-09
4.56403e-07
3.22876e-09
4.56686e-07
3.69772e-09
4.56963e-07
4.14055e-09
4.57237e-07
4.55883e-09
4.57506e-07
4.95406e-09
4.57772e-07
5.32764e-09
4.58034e-07
5.68092e-09
4.58294e-07
6.01516e-09
4.58551e-07
6.33156e-09
4.58806e-07
6.63123e-09
4.59059e-07
6.91523e-09
4.5931e-07
7.18459e-09
4.5956e-07
7.44024e-09
4.59808e-07
7.68308e-09
4.60056e-07
7.91396e-09
4.60304e-07
8.13367e-09
4.6055e-07
8.34297e-09
4.60797e-07
8.54258e-09
4.61044e-07
8.73315e-09
4.6129e-07
8.91534e-09
4.61537e-07
9.08974e-09
4.61785e-07
9.25692e-09
4.62033e-07
9.41742e-09
4.62283e-07
9.57177e-09
4.62533e-07
9.72045e-09
4.62784e-07
9.86392e-09
4.63037e-07
1.00026e-08
4.63291e-07
1.0137e-08
4.63546e-07
1.02675e-08
4.63803e-07
1.03945e-08
4.64062e-07
1.05183e-08
4.64323e-07
1.06394e-08
4.64585e-07
1.0758e-08
4.6485e-07
1.08744e-08
4.65117e-07
1.09891e-08
4.65387e-07
1.11023e-08
4.65658e-07
1.12143e-08
4.65933e-07
1.13253e-08
4.66209e-07
1.14356e-08
4.66489e-07
1.15453e-08
4.66771e-07
1.16548e-08
4.67056e-07
1.17642e-08
4.67345e-07
1.18737e-08
4.67636e-07
1.19835e-08
4.6793e-07
1.20938e-08
1.22048e-08
4.27007e-07
-1.48231e-09
4.27548e-07
-7.74458e-10
4.28085e-07
-1.06721e-10
4.28619e-07
5.23118e-10
4.29149e-07
1.11719e-09
4.29678e-07
1.67752e-09
4.30204e-07
2.20608e-09
4.30728e-07
2.70471e-09
4.3125e-07
3.17518e-09
4.31771e-07
3.61919e-09
4.32292e-07
4.03831e-09
4.32812e-07
4.43407e-09
4.33332e-07
4.80789e-09
4.33852e-07
5.16112e-09
4.34372e-07
5.49503e-09
4.34892e-07
5.81082e-09
4.35414e-07
6.10963e-09
4.35937e-07
6.39254e-09
4.36461e-07
6.66056e-09
4.36986e-07
6.91465e-09
4.37514e-07
7.15572e-09
4.38043e-07
7.38461e-09
4.38575e-07
7.60214e-09
4.39108e-07
7.80907e-09
4.39645e-07
8.00612e-09
4.40184e-07
8.19397e-09
4.40726e-07
8.37327e-09
4.41271e-07
8.54461e-09
4.4182e-07
8.70859e-09
4.42371e-07
8.86574e-09
4.42926e-07
9.01659e-09
4.43485e-07
9.16164e-09
4.44048e-07
9.30135e-09
4.44614e-07
9.43617e-09
4.45185e-07
9.56654e-09
4.45759e-07
9.69287e-09
4.46338e-07
9.81555e-09
4.46922e-07
9.93497e-09
4.4751e-07
1.00515e-08
4.48102e-07
1.01654e-08
4.48699e-07
1.02772e-08
4.49302e-07
1.0387e-08
4.49909e-07
1.04952e-08
4.50521e-07
1.06021e-08
4.51138e-07
1.07078e-08
4.51761e-07
1.08128e-08
4.52389e-07
1.09171e-08
4.53023e-07
1.1021e-08
4.53663e-07
1.11247e-08
4.54308e-07
1.12284e-08
4.54959e-07
1.13323e-08
4.55617e-07
1.14365e-08
1.15414e-08
4.02481e-07
-2.21765e-09
4.03216e-07
-1.50943e-09
4.03951e-07
-8.41636e-10
4.04686e-07
-2.1204e-10
4.05422e-07
3.81489e-10
4.06158e-07
9.40997e-10
4.06896e-07
1.46844e-09
4.07635e-07
1.96568e-09
4.08376e-07
2.43449e-09
4.09118e-07
2.87657e-09
4.09863e-07
3.29353e-09
4.1061e-07
3.68686e-09
4.1136e-07
4.05802e-09
4.12113e-07
4.40836e-09
4.12869e-07
4.73915e-09
4.13628e-07
5.05161e-09
4.14391e-07
5.34688e-09
4.15157e-07
5.62605e-09
4.15928e-07
5.89013e-09
4.16702e-07
6.14009e-09
4.17481e-07
6.37685e-09
4.18264e-07
6.60126e-09
4.19052e-07
6.81414e-09
4.19845e-07
7.01626e-09
4.20643e-07
7.20834e-09
4.21446e-07
7.39107e-09
4.22254e-07
7.56509e-09
4.23068e-07
7.73101e-09
4.23887e-07
7.88943e-09
4.24712e-07
8.04089e-09
4.25542e-07
8.18591e-09
4.26379e-07
8.32499e-09
4.27222e-07
8.45861e-09
4.28071e-07
8.58721e-09
4.28926e-07
8.71123e-09
4.29788e-07
8.83108e-09
4.30656e-07
8.94716e-09
4.31531e-07
9.05985e-09
4.32413e-07
9.16951e-09
4.33302e-07
9.27649e-09
4.34198e-07
9.38112e-09
4.35102e-07
9.48371e-09
4.36012e-07
9.58455e-09
4.3693e-07
9.68392e-09
4.37856e-07
9.78207e-09
4.3879e-07
9.87925e-09
4.39731e-07
9.97569e-09
4.40681e-07
1.00716e-08
4.41638e-07
1.01671e-08
4.42604e-07
1.02625e-08
4.43578e-07
1.0358e-08
4.44561e-07
1.04537e-08
1.05498e-08
3.80404e-07
-3.12717e-09
3.81317e-07
-2.42186e-09
3.82232e-07
-1.75719e-09
3.83151e-07
-1.13093e-09
3.84073e-07
-5.4094e-10
3.85e-07
1.48141e-11
3.8593e-07
5.38291e-10
3.86864e-07
1.03136e-09
3.87803e-07
1.4958e-09
3.88746e-07
1.9333e-09
3.89694e-07
2.34547e-09
3.90647e-07
2.73384e-09
3.91605e-07
3.09983e-09
3.92569e-07
3.44481e-09
3.93538e-07
3.77008e-09
3.94513e-07
4.07683e-09
3.95493e-07
4.36622e-09
3.9648e-07
4.63935e-09
3.97473e-07
4.89722e-09
3.98472e-07
5.14082e-09
3.99478e-07
5.37106e-09
4.0049e-07
5.58881e-09
4.0151e-07
5.79487e-09
4.02536e-07
5.99003e-09
4.03569e-07
6.17501e-09
4.0461e-07
6.3505e-09
4.05658e-07
6.51716e-09
4.06713e-07
6.67558e-09
4.07776e-07
6.82637e-09
4.08847e-07
6.97007e-09
4.09926e-07
7.10721e-09
4.11013e-07
7.23828e-09
4.12107e-07
7.36375e-09
4.13211e-07
7.48409e-09
4.14322e-07
7.59971e-09
4.15442e-07
7.71104e-09
4.16571e-07
7.81847e-09
4.17708e-07
7.92238e-09
4.18855e-07
8.02313e-09
4.2001e-07
8.12106e-09
4.21175e-07
8.21651e-09
4.22349e-07
8.30978e-09
4.23532e-07
8.40116e-09
4.24725e-07
8.49094e-09
4.25928e-07
8.57936e-09
4.2714e-07
8.66667e-09
4.28363e-07
8.75308e-09
4.29596e-07
8.8388e-09
4.30839e-07
8.92404e-09
4.32092e-07
9.00897e-09
4.33357e-07
9.09378e-09
4.34632e-07
9.17864e-09
9.26376e-09
3.60533e-07
-4.19584e-09
3.61608e-07
-3.49622e-09
3.62688e-07
-2.83736e-09
3.63774e-07
-2.21705e-09
3.64866e-07
-1.63317e-09
3.65965e-07
-1.08366e-09
3.6707e-07
-5.66591e-10
3.68181e-07
-8.00812e-11
3.69299e-07
3.77642e-10
3.70424e-07
8.08273e-10
3.71556e-07
1.21342e-09
3.72695e-07
1.5946e-09
3.73842e-07
1.95326e-09
3.74996e-07
2.29077e-09
3.76158e-07
2.6084e-09
3.77327e-07
2.90738e-09
3.78505e-07
3.18886e-09
3.7969e-07
3.45392e-09
3.80884e-07
3.70361e-09
3.82086e-07
3.93888e-09
3.83296e-07
4.16066e-09
3.84515e-07