/*--------------------------------*- C++ -*----------------------------------*\
  =========                 |
  \\      /  F ield         | OpenFOAM: The Open Source CFD Toolbox
   \\    /   O peration     | Website:  https://openfoam.org
    \\  /    A nd           | Version:  6
     \\/     M anipulation  |
\*---------------------------------------------------------------------------*/
FoamFile
{
    version     2.0;
    format      ascii;
    class       volVectorField;
    location    "0.03";
    object      U;
}
// * * * * * * * * * * * * * * * * * * * * * * * * * * * * * * * * * * * * * //

dimensions      [0 1 -1 0 0 0 0];

internalField   nonuniform List<vector> 
3081
(
(0.443049 -0.000520128 6.79721e-21)
(0.44379 -0.000485568 6.75575e-21)
(0.444485 -0.000453372 6.71493e-21)
(0.445136 -0.000423358 0)
(0.445746 -0.00039533 0)
(0.446318 -0.00036903 0)
(0.446852 -0.0003442 6.55753e-21)
(0.447353 -0.000319652 0)
(0.447816 -0.000293142 0)
(0.448237 -0.000265594 -6.44508e-21)
(0.448624 -0.000240648 0)
(0.44898 -0.000219855 0)
(0.449311 -0.000202708 -6.33666e-21)
(0.449618 -0.000188269 0)
(0.449905 -0.000175808 0)
(0.450173 -0.000164809 6.23185e-21)
(0.450425 -0.00015492 6.19762e-21)
(0.450661 -0.000145907 0)
(0.450883 -0.000137621 -6.13017e-21)
(0.451092 -0.000129965 0)
(0.451288 -0.000122871 6.06394e-21)
(0.451473 -0.00011629 0)
(0.451648 -0.000110185 5.99884e-21)
(0.451812 -0.000104527 5.96669e-21)
(0.451968 -9.9294e-05 0)
(0.452115 -9.44637e-05 0)
(0.452254 -9.00174e-05 0)
(0.452385 -8.5936e-05 0)
(0.45251 -8.21999e-05 0)
(0.452629 -7.87879e-05 0)
(0.452742 -7.5678e-05 0)
(0.45285 -7.2848e-05 5.71797e-21)
(0.452953 -7.02757e-05 -5.68782e-21)
(0.453052 -6.79407e-05 0)
(0.453147 -6.58242e-05 0)
(0.453238 -6.39091e-05 0)
(0.453326 -6.21797e-05 0)
(0.453411 -6.06201e-05 -1.10795e-20)
(0.453494 -5.92144e-05 0)
(0.453574 -5.79449e-05 1.09634e-20)
(0.453653 -5.67932e-05 -1.09058e-20)
(0.453729 -5.57399e-05 0)
(0.453804 -5.47658e-05 0)
(0.453877 -5.3852e-05 0)
(0.453948 -5.29807e-05 1.06783e-20)
(0.454018 -5.21356e-05 1.06222e-20)
(0.454087 -5.13024e-05 0)
(0.454155 -5.04686e-05 1.05106e-20)
(0.454221 -4.96239e-05 1.04553e-20)
(0.454285 -4.87605e-05 -1.04002e-20)
(0.454349 -4.78738e-05 0)
(0.45441 -4.6962e-05 0)
(0.45447 -4.60259e-05 -1.02363e-20)
(0.454529 -4.50687e-05 0)
(0.454586 -4.40948e-05 0)
(0.454641 -4.31087e-05 0)
(0.454694 -4.2114e-05 0)
(0.467362 -0.00119008 4.93652e-21)
(0.468169 -0.00110753 -4.92835e-21)
(0.468926 -0.00103072 -4.90726e-21)
(0.469634 -0.000959206 0)
(0.470298 -0.000892555 0)
(0.470919 -0.000830266 0)
(0.471501 -0.000771791 -4.82444e-21)
(0.472047 -0.00071586 0)
(0.472561 -0.000661153 9.56037e-21)
(0.473049 -0.000608796 1.4284e-20)
(0.47351 -0.000560986 -9.48054e-21)
(0.473943 -0.00051827 0)
(0.474348 -0.000480083 -4.69791e-21)
(0.474727 -0.00044576 0)
(0.475081 -0.000414759 -9.32315e-21)
(0.475412 -0.000386618 4.63981e-21)
(0.475722 -0.000360948 4.62055e-21)
(0.476012 -0.000337437 0)
(0.476284 -0.000315837 1.37541e-20)
(0.47654 -0.000295946 -9.12969e-21)
(0.476779 -0.000277598 -4.54732e-21)
(0.477005 -0.000260656 0)
(0.477217 -0.000245005 -4.50893e-21)
(0.477416 -0.000230551 -1.34667e-20)
(0.477604 -0.000217211 0)
(0.477781 -0.000204914 -8.90097e-21)
(0.477948 -0.000193595 -8.86312e-21)
(0.478106 -0.000183197 -8.82534e-21)
(0.478256 -0.000173661 0)
(0.478397 -0.000164933 0)
(0.478531 -0.000156958 0)
(0.478659 -0.000149681 4.33647e-21)
(0.478781 -0.00014305 4.3194e-21)
(0.478896 -0.000137015 0)
(0.479007 -0.000131528 8.5621e-21)
(0.479113 -0.000126545 8.52463e-21)
(0.479215 -0.000122026 0)
(0.479314 -0.000117929 8.45112e-21)
(0.479408 -0.000114217 1.68247e-20)
(0.4795 -0.000110849 -8.37625e-21)
(0.479588 -0.000107787 -8.3364e-21)
(0.479675 -0.000104989 0)
(0.479759 -0.000102417 0)
(0.47984 -0.000100031 0)
(0.47992 -9.77936e-05 -8.18943e-21)
(0.479999 -9.567e-05 8.14999e-21)
(0.480075 -9.36281e-05 1.62276e-20)
(0.48015 -9.16393e-05 -8.07755e-21)
(0.480224 -8.96786e-05 8.03829e-21)
(0.480297 -8.77256e-05 8.00302e-21)
(0.480367 -8.57645e-05 0)
(0.480437 -8.37844e-05 0)
(0.480505 -8.17789e-05 -7.8895e-21)
(0.480572 -7.97458e-05 0)
(0.480637 -7.76857e-05 0)
(0.480701 -7.55992e-05 1.55578e-20)
(0.480763 -7.34888e-05 0)
(0.475708 -0.00201812 -7.80911e-21)
(0.476539 -0.0018774 0)
(0.477317 -0.00174646 0)
(0.478045 -0.00162459 0)
(0.478727 -0.00151115 0)
(0.479365 -0.0014055 0)
(0.479962 -0.00130701 -7.64313e-21)
(0.480522 -0.00121512 0)
(0.481047 -0.00112911 -7.59622e-21)
(0.48154 -0.00104832 -7.56929e-21)
(0.482005 -0.000972738 7.54229e-21)
(0.482441 -0.000902698 0)
(0.48285 -0.000838258 7.48834e-21)
(0.483234 -0.000779186 0)
(0.483594 -0.000725108 7.43438e-21)
(0.483931 -0.000675594 -7.40737e-21)
(0.484246 -0.000630207 -2.21348e-20)
(0.484542 -0.000588541 0)
(0.484819 -0.000550232 -2.19732e-20)
(0.485079 -0.00051496 -7.29404e-21)
(0.485323 -0.000482449 0)
(0.485552 -0.000452459 -1.44851e-20)
(0.485767 -0.000424784 -1.4431e-20)
(0.48597 -0.000399245 2.1567e-20)
(0.486161 -0.000375688 0)
(0.48634 -0.000353976 7.1356e-21)
(0.48651 -0.000333989 7.10818e-21)
(0.48667 -0.000315615 2.12391e-20)
(0.486822 -0.000298751 0)
(0.486965 -0.000283298 0)
(0.487102 -0.000269158 0)
(0.487231 -0.00025624 6.96785e-21)
(0.487354 -0.000244452 0)
(0.487472 -0.000233709 0)
(0.487584 -0.000223929 -6.88663e-21)
(0.487691 -0.000215034 -6.85864e-21)
(0.487794 -0.000206953 0)
(0.487893 -0.000199616 0)
(0.487989 -0.000192957 -1.35485e-20)
(0.488081 -0.000186911 0)
(0.488171 -0.000181413 1.34353e-20)
(0.488258 -0.000176398 1.33771e-20)
(0.488342 -0.000171803 0)
(0.488424 -0.000167565 0)
(0.488505 -0.000163625 -1.3206e-20)
(0.488583 -0.000159925 -1.27272e-24)
(0.48866 -0.000156412 -1.23487e-24)
(0.488735 -0.000153038 0)
(0.488809 -0.00014976 -2.59533e-20)
(0.488882 -0.000146541 0)
(0.488953 -0.00014335 0)
(0.489023 -0.000140162 0)
(0.489092 -0.000136962 1.27452e-20)
(0.489159 -0.000133737 0)
(0.489225 -0.000130481 -2.52548e-20)
(0.48929 -0.00012719 -1.25699e-20)
(0.489353 -0.000123859 0)
(0.480452 -0.00287929 -1.33601e-20)
(0.481292 -0.00267787 1.33214e-20)
(0.482077 -0.00249045 1.32824e-20)
(0.482813 -0.00231606 -1.3243e-20)
(0.483501 -0.00215381 -1.32034e-20)
(0.484145 -0.00200287 0)
(0.484748 -0.00186244 -6.55699e-21)
(0.485313 -0.00173178 0)
(0.485841 -0.0016101 0)
(0.486337 -0.00149662 -1.30009e-20)
(0.486801 -0.00139085 0)
(0.487237 -0.00129262 0)
(0.487647 -0.00120177 -1.28746e-20)
(0.48803 -0.00111795 0)
(0.48839 -0.00104077 0)
(0.488726 -0.000969756 0)
(0.489042 -0.000904427 2.54122e-20)
(0.489338 -0.000844309 0)
(0.489615 -0.000788957 2.52385e-20)
(0.489875 -0.000737961 1.25774e-20)
(0.490119 -0.000690952 1.25298e-20)
(0.490348 -0.000647601 3.33947e-24)
(0.490563 -0.000607614 1.24448e-20)
(0.490765 -0.000570734 -2.47975e-20)
(0.490956 -0.000536734 -1.23527e-20)
(0.491135 -0.00050541 0)
(0.491305 -0.000476581 -1.22629e-20)
(0.491465 -0.000450079 -2.44375e-20)
(0.491616 -0.000425751 0)
(0.491759 -0.000403448 0)
(0.491895 -0.000383033 0)
(0.492024 -0.000364371 -1.69122e-24)
(0.492147 -0.000347332 0)
(0.492264 -0.000331794 0)
(0.492375 -0.000317641 0)
(0.492482 -0.000304761 0)
(0.492585 -0.000293052 2.36022e-20)
(0.492683 -0.000282413 0)
(0.492778 -0.000272751 -2.34124e-20)
(0.49287 -0.000263972 0)
(0.492959 -0.000255987 -2.3221e-20)
(0.493045 -0.000248706 -1.15633e-20)
(0.493129 -0.000242042 2.3028e-20)
(0.49321 -0.000235911 -2.29309e-20)
(0.49329 -0.00023023 -1.14159e-20)
(0.493368 -0.000224922 1.1367e-20)
(0.493444 -0.000219914 -1.13195e-20)
(0.493518 -0.000215138 0)
(0.493592 -0.000210535 -1.12192e-20)
(0.493663 -0.000206051 0)
(0.493734 -0.000201643 0)
(0.493803 -0.000197272 0)
(0.493871 -0.000192911 -2.20408e-20)
(0.493938 -0.000188538 0)
(0.494004 -0.000184139 1.23464e-24)
(0.494068 -0.000179701 0)
(0.494132 -0.000175211 0)
(0.483702 -0.00374438 2.40043e-20)
(0.484541 -0.00348167 -1.19756e-20)
(0.485326 -0.0032372 -2.38753e-20)
(0.486061 -0.00300977 1.19096e-20)
(0.486749 -0.00279824 1.18762e-20)
(0.487392 -0.00260153 0)
(0.487994 -0.00241867 7.83538e-24)
(0.488558 -0.00224872 0)
(0.489085 -0.00209076 -1.17324e-20)
(0.489578 -0.00194387 1.17036e-20)
(0.49004 -0.00180731 0)
(0.490474 -0.00168054 0)
(0.49088 -0.0015631 1.15944e-20)
(0.49126 -0.0014545 -1.15527e-20)
(0.491617 -0.00135422 0)
(0.49195 -0.00126171 0)
(0.492263 -0.00117643 -1.1446e-20)
(0.492557 -0.00109783 0)
(0.492831 -0.00102539 -1.13704e-20)
(0.493089 -0.000958608 0)
(0.493331 -0.000897036 -1.1294e-20)
(0.493558 -0.00084026 1.12554e-20)
(0.493771 -0.000787906 -2.24281e-20)
(0.493971 -0.000739639 1.11776e-20)
(0.49416 -0.00069516 1.11384e-20)
(0.494337 -0.000654196 0)
(0.494505 -0.000616504 1.10592e-20)
(0.494663 -0.00058186 1.10192e-20)
(0.494813 -0.000550054 0)
(0.494954 -0.000520893 0)
(0.495088 -0.000494192 2.17929e-20)
(0.495216 -0.000469775 -1.0857e-20)
(0.495337 -0.000447473 2.16292e-20)
(0.495453 -0.000427128 0)
(0.495563 -0.000408588 0)
(0.495669 -0.000391709 0)
(0.49577 -0.000376355 -4.25939e-20)
(0.495867 -0.000362397 0)
(0.495961 -0.000349713 2.11283e-20)
(0.496051 -0.000338183 0)
(0.496139 -0.000327691 2.09569e-20)
(0.496224 -0.000318126 0)
(0.496306 -0.000309377 -2.07837e-20)
(0.496387 -0.000301339 2.06964e-20)
(0.496465 -0.000293907 2.06088e-20)
(0.496541 -0.000286986 -2.05207e-20)
(0.496616 -0.000280484 0)
(0.49669 -0.000274317 0)
(0.496762 -0.000268408 1.12495e-24)
(0.496832 -0.00026269 0)
(0.496902 -0.000257103 0)
(0.49697 -0.000251599 0)
(0.497037 -0.000246138 1.98931e-20)
(0.497103 -0.000240687 0)
(0.497168 -0.000235222 1.97104e-20)
(0.497232 -0.000229719 0)
(0.497295 -0.000224158 1.95255e-20)
(0.486155 -0.00460306 -1.1093e-20)
(0.486986 -0.0042793 0)
(0.487763 -0.00397802 1.10365e-20)
(0.488491 -0.00369776 0)
(0.489172 -0.00343713 -1.09704e-20)
(0.489809 -0.00319483 0)
(0.490405 -0.00296965 6.93628e-24)
(0.490962 -0.00276048 0)
(0.491484 -0.00256621 1.08577e-20)
(0.491971 -0.0023858 0)
(0.492428 -0.00221831 0)
(0.492855 -0.00206293 0)
(0.493256 -0.00191895 0)
(0.493631 -0.00178569 1.06952e-20)
(0.493982 -0.00166251 0)
(0.494311 -0.00154873 0)
(0.494619 -0.00144372 2.11821e-20)
(0.494907 -0.00134684 0)
(0.495178 -0.00125749 0)
(0.495431 -0.00117508 0)
(0.495669 -0.00109909 2.09088e-20)
(0.495892 -0.00102902 0)
(0.496102 -0.000964425 2.07737e-20)
(0.496299 -0.000904888 0)
(0.496484 -0.00085004 -2.0627e-20)
(0.496658 -0.000799544 2.05553e-20)
(0.496823 -0.000753093 0)
(0.496978 -0.000710403 -2.04102e-20)
(0.497125 -0.000671214 0)
(0.497264 -0.000635281 0)
(0.497396 -0.000602373 -4.03799e-20)
(0.497521 -0.000572274 2.01137e-20)
(0.49764 -0.000544775 -2.00406e-20)
(0.497753 -0.00051968 0)
(0.497861 -0.000496804 0)
(0.497965 -0.000475969 0)
(0.498064 -0.00045701 3.9465e-20)
(0.498159 -0.000439767 0)
(0.498251 -0.000424089 -1.95753e-20)
(0.49834 -0.000409832 0)
(0.498426 -0.000396855 0)
(0.498509 -0.000385024 0)
(0.498589 -0.000374206 0)
(0.498668 -0.000364275 -1.91761e-20)
(0.498745 -0.000355109 0)
(0.498819 -0.000346594 1.90132e-20)
(0.498893 -0.00033862 -1.89312e-20)
(0.498964 -0.000331088 -1.88487e-20)
(0.499035 -0.000323906 1.87667e-20)
(0.499104 -0.000316992 0)
(0.499172 -0.000310274 0)
(0.499239 -0.000303692 0)
(0.499305 -0.000297193 0)
(0.499369 -0.000290734 0)
(0.499433 -0.00028428 0)
(0.499496 -0.000277798 0)
(0.499558 -0.000271253 -1.80887e-20)
(0.488953 -0.00506547 0)
(0.489717 -0.00470807 -2.07703e-20)
(0.490432 -0.00437562 0)
(0.4911 -0.00406646 1.03407e-20)
(0.491726 -0.00377909 0)
(0.492311 -0.00351208 -1.02738e-20)
(0.492858 -0.0032641 0)
(0.493369 -0.00303388 2.04505e-20)
(0.493848 -0.00282021 2.03926e-20)
(0.494295 -0.00262197 -2.03336e-20)
(0.494714 -0.00243816 0)
(0.495106 -0.00226786 0)
(0.495473 -0.00211022 2.01535e-20)
(0.495816 -0.00196442 0)
(0.496138 -0.00182967 2.00308e-20)
(0.496439 -0.00170523 -6.71255e-24)
(0.496721 -0.00159035 -1.99058e-20)
(0.496985 -0.00148435 0)
(0.497233 -0.00138658 0)
(0.497465 -0.0012964 -1.97194e-20)
(0.497683 -0.00121325 0)
(0.497887 -0.00113661 0)
(0.498079 -0.00106598 -1.95179e-20)
(0.49826 -0.00100094 1.94552e-20)
(0.49843 -0.000941073 -3.8772e-20)
(0.498591 -0.000886014 0)
(0.498742 -0.000835423 1.92515e-20)
(0.498885 -0.000788984 0)
(0.49902 -0.000746403 0)
(0.499149 -0.000707405 3.80836e-20)
(0.49927 -0.000671729 -1.89725e-20)
(0.499386 -0.00063913 0)
(0.499497 -0.000609374 0)
(0.499602 -0.000582242 0)
(0.499703 -0.000557524 0)
(0.499799 -0.000535023 -1.86122e-20)
(0.499892 -0.000514552 1.85371e-20)
(0.499981 -0.000495933 1.84645e-20)
(0.500067 -0.000478995 0)
(0.500151 -0.000463575 0)
(0.500231 -0.000449514 0)
(0.50031 -0.000436662 1.81624e-20)
(0.500386 -0.000424871 3.6173e-20)
(0.50046 -0.000414003 0)
(0.500533 -0.000403926 -5.37966e-20)
(0.500604 -0.000394514 1.7855e-20)
(0.500674 -0.000385653 1.77768e-20)
(0.500742 -0.000377238 0)
(0.500809 -0.000369173 -3.52368e-20)
(0.500875 -0.000361375 0)
(0.50094 -0.000353769 0)
(0.501004 -0.000346294 0)
(0.501068 -0.000338895 0)
(0.50113 -0.000331526 -3.44343e-20)
(0.501192 -0.000324142 0)
(0.501252 -0.000316698 0)
(0.490632 -0.00583439 0)
(0.491375 -0.00542205 1.98418e-20)
(0.492071 -0.00503846 0)
(0.492722 -0.00468177 1.97307e-20)
(0.49333 -0.00435023 0)
(0.4939 -0.00404221 1.96433e-20)
(0.494432 -0.00375618 0)
(0.49493 -0.00349067 -1.95394e-20)
(0.495395 -0.00324433 -3.89582e-20)
(0.49583 -0.00301587 1.94279e-20)
(0.496238 -0.0028041 0)
(0.496618 -0.00260792 -1.93057e-20)
(0.496975 -0.00242632 -1.92563e-20)
(0.497308 -0.00225833 0)
(0.49762 -0.00210304 -1.91393e-20)
(0.497912 -0.00195956 -1.908e-20)
(0.498186 -0.00182709 1.90202e-20)
(0.498442 -0.00170481 -1.89542e-20)
(0.498682 -0.001592 1.88937e-20)
(0.498907 -0.00148794 1.88326e-20)
(0.499118 -0.00139201 0)
(0.499316 -0.00130359 0)
(0.499501 -0.00122213 3.90994e-24)
(0.499676 -0.00114712 0)
(0.499841 -0.0010781 1.85221e-20)
(0.499996 -0.00101463 1.84542e-20)
(0.500142 -0.000956328 0)
(0.50028 -0.000902813 0)
(0.500411 -0.000853746 1.82576e-20)
(0.500535 -0.000808806 -1.81933e-20)
(0.500652 -0.000767692 0)
(0.500764 -0.000730119 0)
(0.50087 -0.000695817 0)
(0.500972 -0.000664533 1.7919e-20)
(0.501069 -0.000636027 1.78497e-20)
(0.501162 -0.000610072 0)
(0.501251 -0.000586451 -1.77108e-20)
(0.501337 -0.000564962 0)
(0.50142 -0.000545408 0)
(0.5015 -0.000527602 0)
(0.501578 -0.000511367 0)
(0.501653 -0.00049653 -1.73512e-20)
(0.501727 -0.000482927 -1.72778e-20)
(0.501798 -0.000470402 -3.44063e-20)
(0.501868 -0.000458806 3.42595e-20)
(0.501936 -0.000448 3.41086e-20)
(0.502003 -0.000437856 3.39583e-20)
(0.502069 -0.000428254 0)
(0.502133 -0.000419088 6.73119e-20)
(0.502197 -0.000410261 0)
(0.50226 -0.00040169 0)
(0.502321 -0.000393301 0)
(0.502382 -0.000385029 0)
(0.502443 -0.000376816 3.28842e-20)
(0.502502 -0.000368607 0)
(0.502561 -0.000360343 0)
(0.492859 -0.00611453 1.91192e-20)
(0.49353 -0.00568131 0)
(0.494157 -0.00527847 -1.90415e-20)
(0.494745 -0.00490404 0)
(0.495294 -0.00455618 1.89344e-20)
(0.495807 -0.00423317 0)
(0.496287 -0.00393337 1.88368e-20)
(0.496735 -0.00365525 1.87939e-20)
(0.497155 -0.00339735 -1.8731e-20)
(0.497547 -0.00315835 0)
(0.497914 -0.00293696 3.7254e-20)
(0.498257 -0.00273203 0)
(0.498578 -0.00254245 0)
(0.498878 -0.00236716 0)
(0.499158 -0.0022052 0)
(0.499421 -0.00205561 0)
(0.499667 -0.00191752 1.82909e-20)
(0.499898 -0.00179011 -1.82323e-20)
(0.500114 -0.00167259 -1.81732e-20)
(0.500316 -0.00156424 0)
(0.500506 -0.00146438 0)
(0.500684 -0.0013724 3.80097e-24)
(0.500851 -0.00128773 0)
(0.501009 -0.00120982 1.7866e-20)
(0.501157 -0.0011382 -3.56107e-20)
(0.501297 -0.00107241 0)
(0.501429 -0.00101203 3.53556e-20)
(0.501554 -0.00095668 -5.28443e-20)
(0.501672 -0.000905982 0)
(0.501784 -0.000859599 -3.49692e-20)
(0.501891 -0.000817206 0)
(0.501992 -0.000778501 0)
(0.502089 -0.000743195 -1.72881e-20)
(0.502182 -0.00071102 -1.72209e-20)
(0.50227 -0.000681718 3.43035e-20)
(0.502355 -0.000655046 3.41672e-20)
(0.502437 -0.000630776 0)
(0.502516 -0.000608688 0)
(0.502592 -0.000588573 0)
(0.502666 -0.000570232 0)
(0.502737 -0.000553475 0)
(0.502807 -0.00053812 0)
(0.502875 -0.000523995 6.6372e-20)
(0.502941 -0.000510935 0)
(0.503006 -0.000498789 -1.39355e-24)
(0.503069 -0.000487414 -3.27515e-20)
(0.503131 -0.00047668 3.26034e-20)
(0.503193 -0.000466467 -3.2457e-20)
(0.503253 -0.000456671 0)
(0.503313 -0.000447194 0)
(0.503371 -0.000437954 0)
(0.503429 -0.000428876 0)
(0.503487 -0.000419891 3.17051e-20)
(0.503544 -0.000410932 0)
(0.5036 -0.00040193 3.13993e-20)
(0.494252 -0.00678019 -1.39399e-23)
(0.494892 -0.00629927 -1.854e-20)
(0.495492 -0.00585204 0)
(0.496052 -0.00543634 0)
(0.496576 -0.00505015 -3.68225e-20)
(0.497066 -0.00469153 0)
(0.497524 -0.0043587 -9.99696e-24)
(0.497952 -0.00404996 0)
(0.498352 -0.00376369 1.82178e-20)
(0.498726 -0.00349841 0)
(0.499076 -0.00325271 -1.81121e-20)
(0.499402 -0.00302527 0)
(0.499708 -0.00281485 0)
(0.499994 -0.00262028 -1.79429e-20)
(0.500261 -0.00244048 0)
(0.500511 -0.00227441 0)
(0.500744 -0.00212108 0)
(0.500963 -0.0019796 1.772e-20)
(0.501168 -0.0018491 1.76629e-20)
(0.50136 -0.00172879 0)
(0.50154 -0.00161792 3.50937e-20)
(0.501709 -0.00151581 1.74917e-20)
(0.501867 -0.00142181 -3.48571e-20)
(0.502016 -0.00133535 -1.73718e-20)
(0.502157 -0.00125588 -1.7305e-20)
(0.502289 -0.00118288 3.44937e-20)
(0.502413 -0.0011159 -5.09945e-24)
(0.502531 -0.0010545 3.42505e-20)
(0.502642 -0.000998261 3.41201e-20)
(0.502748 -0.000946808 6.79908e-20)
(0.502848 -0.00089978 -3.38656e-20)
(0.502943 -0.00085684 0)
(0.503034 -0.000817669 -3.36066e-20)
(0.503121 -0.000781965 -3.34755e-20)
(0.503204 -0.000749446 -3.33461e-20)
(0.503284 -0.000719842 -2.4582e-24)
(0.50336 -0.0006929 0)
(0.503434 -0.000668377 0)
(0.503505 -0.000646045 0)
(0.503574 -0.000625684 0)
(0.503641 -0.000607086 0)
(0.503706 -0.000590053 0)
(0.503769 -0.000574396 -6.45009e-20)
(0.503831 -0.000559939 0)
(0.503891 -0.000546516 -6.39348e-20)
(0.50395 -0.000533973 0)
(0.504008 -0.000522168 -6.33615e-20)
(0.504065 -0.000510972 0)
(0.504122 -0.000500267 3.13901e-20)
(0.504177 -0.00048995 0)
(0.504232 -0.000479926 -3.10967e-20)
(0.504286 -0.000470111 0)
(0.50434 -0.000460426 -6.1601e-20)
(0.504393 -0.000450795 0)
(0.504446 -0.000441136 -3.05011e-20)
(0.495614 -0.00741378 -1.8188e-20)
(0.496219 -0.00688745 1.81458e-20)
(0.496784 -0.00639797 0)
(0.497313 -0.00594297 0)
(0.497808 -0.00552025 1.80136e-20)
(0.49827 -0.00512771 0)
(0.498702 -0.00476339 -3.58306e-20)
(0.499105 -0.00442543 0)
(0.499483 -0.00411209 0)
(0.499835 -0.00382172 0)
(0.500164 -0.00355279 -1.7708e-20)
(0.500472 -0.00330384 0)
(0.500759 -0.00307351 0)
(0.501028 -0.00286053 5.26576e-20)
(0.501279 -0.00266368 0)
(0.501513 -0.00248186 0)
(0.501733 -0.00231398 0)
(0.501938 -0.00215905 -5.20016e-20)
(0.50213 -0.00201616 -1.72809e-20)
(0.502309 -0.00188442 0)
(0.502477 -0.00176303 -3.43331e-20)
(0.502635 -0.00165124 -3.42096e-20)
(0.502783 -0.00154835 6.8193e-20)
(0.502922 -0.00145371 -3.39753e-20)
(0.503052 -0.00136674 3.38623e-20)
(0.503175 -0.00128686 -5.47804e-24)
(0.503291 -0.00121358 -3.36203e-20)
(0.5034 -0.0011464 0)
(0.503503 -0.00108488 -3.33739e-20)
(0.503601 -0.00102859 -3.3249e-20)
(0.503693 -0.00097714 3.31231e-20)
(0.503781 -0.000930162 0)
(0.503865 -0.000887304 3.08588e-24)
(0.503944 -0.000848238 6.54749e-20)
(0.504021 -0.000812654 0)
(0.504094 -0.000780257 -3.24775e-20)
(0.504164 -0.00075077 0)
(0.504231 -0.000723931 0)
(0.504296 -0.00069949 0)
(0.504359 -0.000677209 0)
(0.50442 -0.000656863 0)
(0.504479 -0.000638239 0)
(0.504537 -0.000621135 3.1531e-20)
(0.504593 -0.000605359 0)
(0.504648 -0.000590734 3.12521e-20)
(0.504702 -0.000577095 -3.11101e-20)
(0.504755 -0.00056429 3.09696e-20)
(0.504807 -0.000552179 0)
(0.504858 -0.000540637 -3.06837e-20)
(0.504909 -0.00052955 0)
(0.504959 -0.000518814 9.08148e-25)
(0.505008 -0.000508337 0)
(0.505057 -0.000498029 8.42504e-25)
(0.505106 -0.000487805 0)
(0.505154 -0.000477573 0)
(0.49699 -0.00801017 1.78625e-20)
(0.497553 -0.00744109 0)
(0.49808 -0.00691182 0)
(0.498573 -0.0064198 -1.77383e-20)
(0.499033 -0.00596265 0)
(0.499463 -0.00553813 0)
(0.499865 -0.00514411 1.7614e-20)
(0.50024 -0.0047786 1.75553e-20)
(0.500591 -0.00443969 0)
(0.500918 -0.00412564 0)
(0.501223 -0.00383475 1.74132e-20)
(0.501509 -0.00356547 -3.47084e-20)
(0.501775 -0.00331632 0)
(0.502024 -0.00308592 -3.45137e-20)
(0.502256 -0.00287296 0)
(0.502473 -0.00267624 0)
(0.502675 -0.00249459 -3.41802e-20)
(0.502865 -0.00232696 3.40811e-20)
(0.503041 -0.00217233 3.39609e-20)
(0.503207 -0.00202978 0)
(0.503361 -0.00189844 0)
(0.503506 -0.00177749 3.36305e-20)
(0.503641 -0.00166618 -3.3515e-20)
(0.503768 -0.00156382 3.33983e-20)
(0.503887 -0.00146975 -3.32747e-20)
(0.503999 -0.00138337 -3.31617e-20)
(0.504104 -0.00130412 -3.30367e-20)
(0.504203 -0.00123148 -3.2916e-20)
(0.504296 -0.00116496 0)
(0.504384 -0.00110411 3.26712e-20)
(0.504468 -0.00104848 3.25471e-20)
(0.504547 -0.000997692 0)
(0.504622 -0.000951356 3.22987e-20)
(0.504693 -0.000909117 -2.81905e-24)
(0.504762 -0.000870641 3.20398e-20)
(0.504827 -0.000835612 0)
(0.504889 -0.000803729 0)
(0.504949 -0.00077471 0)
(0.505007 -0.000748286 0)
(0.505062 -0.000724203 0)
(0.505116 -0.000702219 0)
(0.505169 -0.000682107 -3.11116e-20)
(0.505219 -0.00066365 0)
(0.505269 -0.000646646 -3.08376e-20)
(0.505317 -0.000630907 0)
(0.505365 -0.000616256 3.0561e-20)
(0.505411 -0.000602532 0)
(0.505457 -0.000589587 0)
(0.505502 -0.000577286 -3.01367e-20)
(0.505546 -0.000565506 0)
(0.505591 -0.000554138 5.97016e-20)
(0.505634 -0.000543078 0)
(0.505678 -0.000532229 2.95615e-20)
(0.505721 -0.000521498 0)
(0.505763 -0.000510784 0)
(0.505806 -0.000499979 0)
(0.49841 -0.00856437 -1.3525e-23)
(0.498927 -0.00795556 0)
(0.49941 -0.00738927 0)
(0.499861 -0.0068628 1.75149e-20)
(0.500283 -0.00637361 0)
(0.500676 -0.00591929 0)
(0.501044 -0.0054976 3.47411e-20)
(0.501387 -0.00510639 1.7313e-20)
(0.501708 -0.00474365 0)
(0.502007 -0.00440749 0)
(0.502285 -0.00409611 0)
(0.502545 -0.00380784 3.4263e-20)
(0.502788 -0.00354111 0)
(0.503014 -0.00329443 0)
(0.503225 -0.00306641 0)
(0.503421 -0.00285575 0)
(0.503605 -0.00266123 6.74635e-20)
(0.503776 -0.00248171 -3.36185e-20)
(0.503935 -0.00231611 -9.38572e-24)
(0.504084 -0.00216345 3.33992e-20)
(0.504222 -0.00202279 0)
(0.504352 -0.00189328 -3.31752e-20)
(0.504473 -0.00177409 0)
(0.504586 -0.00166449 3.29465e-20)
(0.504692 -0.00156379 3.28363e-20)
(0.504791 -0.00147132 0)
(0.504884 -0.0013865 3.25997e-20)
(0.504971 -0.00130876 6.49548e-20)
(0.505053 -0.00123757 0)
(0.50513 -0.00117244 -3.22364e-20)
(0.505203 -0.00111292 -6.42225e-20)
(0.505272 -0.00105857 0)
(0.505337 -0.00100899 0)
(0.505398 -0.000963791 -6.34702e-20)
(0.505457 -0.000922622 -2.59576e-24)
(0.505513 -0.000885142 0)
(0.505566 -0.000851032 0)
(0.505617 -0.000819988 0)
(0.505666 -0.000791726 -3.10859e-20)
(0.505713 -0.000765975 0)
(0.505759 -0.000742479 0)
(0.505803 -0.000720996 6.13714e-20)
(0.505846 -0.000701299 3.05493e-20)
(0.505887 -0.000683173 3.04141e-20)
(0.505928 -0.000666419 0)
(0.505967 -0.000650853 0)
(0.506006 -0.000636303 -2.99977e-20)
(0.506045 -0.000622614 0)
(0.506082 -0.000609642 -2.97157e-20)
(0.50612 -0.000597258 0)
(0.506157 -0.000585345 -2.94329e-20)
(0.506193 -0.000573791 0)
(0.50623 -0.000562492 -5.82885e-20)
(0.506266 -0.000551346 -5.79983e-20)
(0.506302 -0.000540247 5.77067e-20)
(0.506338 -0.000529076 0)
(0.500358 -0.0084265 3.481e-20)
(0.500792 -0.00782624 0)
(0.501198 -0.00726814 0)
(0.501577 -0.00674952 -3.45658e-20)
(0.50193 -0.00626783 0)
(0.50226 -0.00582069 -3.44057e-20)
(0.502568 -0.00540585 -3.43094e-20)
(0.502855 -0.00502118 0)
(0.503122 -0.00466466 -3.40965e-20)
(0.503371 -0.00433441 0)
(0.503603 -0.00402864 0)
(0.503818 -0.0037457 3.37971e-20)
(0.504019 -0.003484 0)
(0.504206 -0.00324209 0)
(0.50438 -0.00301857 0)
(0.504542 -0.00281217 -1.09112e-23)
(0.504692 -0.00262167 3.32848e-20)
(0.504832 -0.00244594 -3.3176e-20)
(0.504962 -0.00228394 -3.30661e-20)
(0.505083 -0.00213468 0)
(0.505195 -0.00199725 6.56776e-20)
(0.5053 -0.00187079 -3.27221e-20)
(0.505398 -0.00175451 -3.26145e-20)
(0.505488 -0.00164767 3.24927e-20)
(0.505573 -0.00154959 0)
(0.505652 -0.00145962 -3.22586e-20)
(0.505726 -0.00137717 -3.21445e-20)
(0.505795 -0.00130167 -3.20198e-20)
(0.505859 -0.00123261 0)
(0.50592 -0.00116949 3.17801e-20)
(0.505977 -0.00111187 0)
(0.50603 -0.0010593 0)
(0.50608 -0.00101139 6.28085e-20)
(0.506128 -0.000967744 -3.12787e-20)
(0.506173 -0.000928018 0)
(0.506216 -0.000891868 0)
(0.506257 -0.000858975 0)
(0.506296 -0.000829038 3.07602e-20)
(0.506333 -0.000801772 0)
(0.506369 -0.000776906 0)
(0.506403 -0.000754187 -3.03607e-20)
(0.506437 -0.000733375 -3.02256e-20)
(0.506469 -0.000714246 -6.01765e-20)
(0.506501 -0.000696593 5.99028e-20)
(0.506531 -0.00068022 -5.96272e-20)
(0.506561 -0.00066495 2.9676e-20)
(0.506591 -0.000650619 0)
(0.50662 -0.000637078 5.87917e-20)
(0.506649 -0.000624189 0)
(0.506678 -0.000611828 0)
(0.506706 -0.000599879 0)
(0.506735 -0.00058823 5.76512e-20)
(0.506763 -0.000576772 1.14723e-19)
(0.506791 -0.000565391 -5.70714e-20)
(0.50682 -0.000553966 -5.67779e-20)
(0.501853 -0.00884977 -3.46949e-20)
(0.502235 -0.00821886 0)
(0.502592 -0.00763218 0)
(0.502925 -0.00708694 3.44501e-20)
(0.503234 -0.00658049 0)
(0.503523 -0.00611034 0)
(0.503792 -0.0056741 3.41511e-20)
(0.504042 -0.00526955 0)
(0.504275 -0.00489458 3.39753e-20)
(0.504491 -0.00454721 3.38597e-20)
(0.504692 -0.00422557 0)
(0.504878 -0.00392791 -3.36739e-20)
(0.505051 -0.00365257 0)
(0.505212 -0.00339803 0)
(0.505361 -0.00316283 0)
(0.505499 -0.00294562 -6.64997e-20)
(0.505626 -0.00274514 -3.31374e-20)
(0.505745 -0.0025602 0)
(0.505854 -0.0023897 0)
(0.505955 -0.00223262 0)
(0.506049 -0.00208798 -7.72886e-24)
(0.506135 -0.00195491 6.51748e-20)
(0.506215 -0.00183255 -3.24694e-20)
(0.506289 -0.00172014 -3.23598e-20)
(0.506358 -0.00161695 -3.22368e-20)
(0.506421 -0.00152231 6.42424e-20)
(0.50648 -0.00143558 3.19992e-20)
(0.506534 -0.00135617 3.18831e-20)
(0.506585 -0.00128354 0)
(0.506631 -0.00121717 0)
(0.506675 -0.00115658 0)
(0.506715 -0.00110132 0)
(0.506753 -0.00105095 -6.25187e-20)
(0.506788 -0.00100508 -3.11303e-20)
(0.506821 -0.000963335 -3.10015e-20)
(0.506852 -0.000925357 0)
(0.506881 -0.000890812 0)
(0.506909 -0.000859383 0)
(0.506935 -0.000830771 0)
(0.50696 -0.000804696 0)
(0.506983 -0.000780892 0)
(0.507006 -0.00075911 0)
(0.507028 -0.000739115 5.98676e-20)
(0.507049 -0.000720692 -5.9591e-20)
(0.50707 -0.000703638 5.93126e-20)
(0.50709 -0.000687769 0)
(0.507109 -0.000672913 0)
(0.507129 -0.000658915 0)
(0.507148 -0.000645632 5.81791e-20)
(0.507167 -0.000632935 0)
(0.507186 -0.0006207 0)
(0.507205 -0.000608811 0)
(0.507225 -0.000597154 -5.70213e-20)
(0.507244 -0.000585609 0)
(0.507264 -0.000574048 1.12862e-19)
(0.503444 -0.00922977 0)
(0.503769 -0.00857101 3.35058e-20)
(0.504072 -0.00795841 -3.34391e-20)
(0.504353 -0.007389 0)
(0.504616 -0.00686006 0)
(0.504859 -0.00636897 -3.32121e-20)
(0.505085 -0.00591328 -1.99454e-23)
(0.505295 -0.00549065 0)
(0.50549 -0.0050989 -3.29652e-20)
(0.50567 -0.00473594 -3.28973e-20)
(0.505837 -0.00439985 3.27945e-20)
(0.505991 -0.00408878 0)
(0.506133 -0.00380102 -3.26187e-20)
(0.506264 -0.00353497 0)
(0.506386 -0.00328912 -3.24377e-20)
(0.506497 -0.00306206 3.23566e-20)
(0.506599 -0.00285247 3.22621e-20)
(0.506694 -0.00265914 0)
(0.50678 -0.0024809 0)
(0.506859 -0.00231668 0)
(0.506931 -0.00216549 -3.1871e-20)
(0.506998 -0.00202639 -6.35326e-20)
(0.507058 -0.0018985 6.33286e-20)
(0.507113 -0.00178103 0)
(0.507164 -0.00167319 3.14594e-20)
(0.50721 -0.0015743 -6.27012e-20)
(0.507251 -0.00148369 -4.94563e-24)
(0.507289 -0.00140075 3.11328e-20)
(0.507324 -0.00132489 -3.10233e-20)
(0.507355 -0.00125558 3.09126e-20)
(0.507383 -0.00119231 0)
(0.507409 -0.00113462 0)
(0.507432 -0.00108204 3.05759e-20)
(0.507454 -0.00103418 3.04599e-20)
(0.507473 -0.000990631 3.03427e-20)
(0.50749 -0.000951025 0)
(0.507506 -0.000915014 0)
(0.507521 -0.000882269 0)
(0.507534 -0.00085248 0)
(0.507546 -0.000825353 0)
(0.507558 -0.000800613 0)
(0.507568 -0.000778002 5.89784e-20)
(0.507578 -0.000757278 -5.87265e-20)
(0.507588 -0.000738216 -5.84724e-20)
(0.507597 -0.000720607 5.82163e-20)
(0.507605 -0.000704261 0)
(0.507614 -0.000689 0)
(0.507622 -0.000674664 0)
(0.50763 -0.000661104 -5.71737e-20)
(0.507638 -0.000648186 -5.6906e-20)
(0.507647 -0.000635781 0)
(0.507656 -0.000623769 5.63684e-20)
(0.507665 -0.00061203 0)
(0.507674 -0.000600443 0)
(0.507684 -0.000588874 -1.11099e-19)
(0.505059 -0.00954725 0)
(0.505326 -0.00886499 -3.4397e-20)
(0.505573 -0.00823038 6.85967e-20)
(0.505803 -0.00764051 -3.41946e-20)
(0.506015 -0.00709248 -3.40968e-20)
(0.506212 -0.00658362 3.40186e-20)
(0.506395 -0.00611139 -3.39174e-20)
(0.506563 -0.00567338 0)
(0.506718 -0.00526733 1.74569e-23)
(0.506861 -0.0048911 3.35909e-20)
(0.506992 -0.00454267 -3.35019e-20)
(0.507113 -0.00422015 3.33808e-20)
(0.507223 -0.00392178 3.32877e-20)
(0.507324 -0.00364589 3.31661e-20)
(0.507416 -0.00339093 1.19219e-23)
(0.5075 -0.00315545 0)
(0.507576 -0.00293808 0)
(0.507645 -0.00273756 3.27227e-20)
(0.507707 -0.00255269 0)
(0.507764 -0.00238237 -3.24938e-20)
(0.507814 -0.00222557 3.23777e-20)
(0.507859 -0.00208132 3.22676e-20)
(0.507899 -0.0019487 -6.68805e-24)
(0.507934 -0.00182689 0)
(0.507966 -0.0017151 0)
(0.507993 -0.00161259 3.17852e-20)
(0.508017 -0.00151867 -4.85655e-24)
(0.508037 -0.00143271 -3.15375e-20)
(0.508055 -0.00135411 3.14121e-20)
(0.50807 -0.00128231 -3.12856e-20)
(0.508082 -0.00121678 0)
(0.508093 -0.00115704 0)
(0.508101 -0.00110262 0)
(0.508107 -0.00105308 0)
(0.508112 -0.00100803 0)
(0.508115 -0.000967083 0)
(0.508117 -0.000929871 0)
(0.508118 -0.000896057 0)
(0.508117 -0.00086532 0)
(0.508116 -0.000837359 0)
(0.508115 -0.000811889 -5.96534e-20)
(0.508112 -0.000788644 -5.93806e-20)
(0.50811 -0.000767375 1.18203e-19)
(0.508106 -0.000747852 1.17645e-19)
(0.508103 -0.000729859 -5.85429e-20)
(0.508099 -0.000713199 -5.82583e-20)
(0.508096 -0.000697691 0)
(0.508092 -0.00068317 0)
(0.508089 -0.000669483 0)
(0.508085 -0.00065649 1.1423e-19)
(0.508082 -0.00064406 0)
(0.50808 -0.000632069 -5.65349e-20)
(0.508078 -0.000620396 0)
(0.508076 -0.000608913 0)
(0.508075 -0.000597488 5.56536e-20)
(0.506794 -0.00909064 -3.47505e-20)
(0.506989 -0.00843885 -3.46729e-20)