
900
(
(0.1 0.000166667 0.000333333)
(0.1 0.0005 0.000333333)
(0.1 0.000833333 0.000333333)
(0.1 0.00116667 0.000333333)
(0.1 0.0015 0.000333333)
(0.1 0.00183333 0.000333333)
(0.1 0.00216667 0.000333333)
(0.1 0.0025 0.000333333)
(0.1 0.00283333 0.000333333)
(0.1 0.00316667 0.000333333)
(0.1 0.0035 0.000333333)
(0.1 0.00383333 0.000333333)
(0.1 0.00416667 0.000333333)
(0.1 0.0045 0.000333333)
(0.1 0.00483333 0.000333333)
(0.1 0.00516667 0.000333333)
(0.1 0.0055 0.000333333)
(0.1 0.00583333 0.000333333)
(0.1 0.00616667 0.000333333)
(0.1 0.0065 0.000333333)
(0.1 0.00683333 0.000333333)
(0.1 0.00716667 0.000333333)
(0.1 0.0075 0.000333333)
(0.1 0.00783333 0.000333333)
(0.1 0.00816667 0.000333333)
(0.1 0.0085 0.000333333)
(0.1 0.00883333 0.000333333)
(0.1 0.00916667 0.000333333)
(0.1 0.0095 0.000333333)
(0.1 0.00983333 0.000333333)
(0.1 0.000166667 0.001)
(0.1 0.0005 0.001)
(0.1 0.000833333 0.001)
(0.1 0.00116667 0.001)
(0.1 0.0015 0.001)
(0.1 0.00183333 0.001)
(0.1 0.00216667 0.001)
(0.1 0.0025 0.001)
(0.1 0.00283333 0.001)
(0.1 0.00316667 0.001)
(0.1 0.0035 0.001)
(0.1 0.00383333 0.001)
(0.1 0.00416667 0.001)
(0.1 0.0045 0.001)
(0.1 0.00483333 0.001)
(0.1 0.00516667 0.001)
(0.1 0.0055 0.001)
(0.1 0.00583333 0.001)
(0.1 0.00616667 0.001)
(0.1 0.0065 0.001)
(0.1 0.00683333 0.001)
(0.1 0.00716667 0.001)
(0.1 0.0075 0.001)
(0.1 0.00783333 0.001)
(0.1 0.00816667 0.001)
(0.1 0.0085 0.001)
(0.1 0.00883333 0.001)
(0.1 0.00916667 0.001)
(0.1 0.0095 0.001)
(0.1 0.00983333 0.001)
(0.1 0.000166667 0.00166667)
(0.1 0.0005 0.00166667)
(0.1 0.000833333 0.00166667)
(0.1 0.00116667 0.00166667)
(0.1 0.0015 0.00166667)
(0.1 0.00183333 0.00166667)
(0.1 0.00216667 0.00166667)
(0.1 0.0025 0.00166667)
(0.1 0.00283333 0.00166667)
(0.1 0.00316667 0.00166667)
(0.1 0.0035 0.00166667)
(0.1 0.00383333 0.00166667)
(0.1 0.00416667 0.00166667)
(0.1 0.0045 0.00166667)
(0.1 0.00483333 0.00166667)
(0.1 0.00516667 0.00166667)
(0.1 0.0055 0.00166667)
(0.1 0.00583333 0.00166667)
(0.1 0.00616667 0.00166667)
(0.1 0.0065 0.00166667)
(0.1 0.00683333 0.00166667)
(0.1 0.00716667 0.00166667)
(0.1 0.0075 0.00166667)
(0.1 0.00783333 0.00166667)
(0.1 0.00816667 0.00166667)
(0.1 0.0085 0.00166667)
(0.1 0.00883333 0.00166667)
(0.1 0.00916667 0.00166667)
(0.1 0.0095 0.00166667)
(0.1 0.00983333 0.00166667)
(0.1 0.000166667 0.00233333)
(0.1 0.0005 0.00233333)
(0.1 0.000833333 0.00233333)
(0.1 0.00116667 0.00233333)
(0.1 0.0015 0.00233333)
(0.1 0.00183333 0.00233333)
(0.1 0.00216667 0.00233333)
(0.1 0.0025 0.00233333)
(0.1 0.00283333 0.00233333)
(0.1 0.00316667 0.00233333)
(0.1 0.0035 0.00233333)
(0.1 0.00383333 0.00233333)
(0.1 0.00416667 0.00233333)
(0.1 0.0045 0.00233333)
(0.1 0.00483333 0.00233333)
(0.1 0.00516667 0.00233333)
(0.1 0.0055 0.00233333)
(0.1 0.00583333 0.00233333)
(0.1 0.00616667 0.00233333)
(0.1 0.0065 0.00233333)
(0.1 0.00683333 0.00233333)
(0.1 0.00716667 0.00233333)
(0.1 0.0075 0.00233333)
(0.1 0.00783333 0.00233333)
(0.1 0.00816667 0.00233333)
(0.1 0.0085 0.00233333)
(0.1 0.00883333 0.00233333)
(0.1 0.00916667 0.00233333)
(0.1 0.0095 0.00233333)
(0.1 0.00983333 0.00233333)
(0.1 0.000166667 0.003)
(0.1 0.0005 0.003)
(0.1 0.000833333 0.003)
(0.1 0.00116667 0.003)
(0.1 0.0015 0.003)
(0.1 0.00183333 0.003)
(0.1 0.00216667 0.003)
(0.1 0.0025 0.003)
(0.1 0.00283333 0.003)
(0.1 0.00316667 0.003)
(0.1 0.0035 0.003)
(0.1 0.00383333 0.003)
(0.1 0.00416667 0.003)
(0.1 0.0045 0.003)
(0.1 0.00483333 0.003)
(0.1 0.00516667 0.003)
(0.1 0.0055 0.003)
(0.1 0.00583333 0.003)
(0.1 0.00616667 0.003)
(0.1 0.0065 0.003)
(0.1 0.00683333 0.003)
(0.1 0.00716667 0.003)
(0.1 0.0075 0.003)
(0.1 0.00783333 0.003)
(0.1 0.00816667 0.003)
(0.1 0.0085 0.003)
(0.1 0.00883333 0.003)
(0.1 0.00916667 0.003)
(0.1 0.0095 0.003)
(0.1 0.00983333 0.003)
(0.1 0.000166667 0.00366667)
(0.1 0.0005 0.00366667)
(0.1 0.000833333 0.00366667)
(0.1 0.00116667 0.00366667)
(0.1 0.0015 0.00366667)
(0.1 0.00183333 0.00366667)
(0.1 0.00216667 0.00366667)
(0.1 0.0025 0.00366667)
(0.1 0.00283333 0.00366667)
(0.1 0.00316667 0.00366667)
(0.1 0.0035 0.00366667)
(0.1 0.00383333 0.00366667)
(0.1 0.00416667 0.00366667)
(0.1 0.0045 0.00366667)
(0.1 0.00483333 0.00366667)
(0.1 0.00516667 0.00366667)
(0.1 0.0055 0.00366667)
(0.1 0.00583333 0.00366667)
(0.1 0.00616667 0.00366667)
(0.1 0.0065 0.00366667)
(0.1 0.00683333 0.00366667)
(0.1 0.00716667 0.00366667)
(0.1 0.0075 0.00366667)
(0.1 0.00783333 0.00366667)
(0.1 0.00816667 0.00366667)
(0.1 0.0085 0.00366667)
(0.1 0.00883333 0.00366667)
(0.1 0.00916667 0.00366667)
(0.1 0.0095 0.00366667)
(0.1 0.00983333 0.00366667)
(0.1 0.000166667 0.00433333)
(0.1 0.0005 0.00433333)
(0.1 0.000833333 0.00433333)
(0.1 0.00116667 0.00433333)
(0.1 0.0015 0.00433333)
(0.1 0.00183333 0.00433333)
(0.1 0.00216667 0.00433333)
(0.1 0.0025 0.00433333)
(0.1 0.00283333 0.00433333)
(0.1 0.00316667 0.00433333)
(0.1 0.0035 0.00433333)
(0.1 0.00383333 0.00433333)
(0.1 0.00416667 0.00433333)
(0.1 0.0045 0.00433333)
(0.1 0.00483333 0.00433333)
(0.1 0.00516667 0.00433333)
(0.1 0.0055 0.00433333)
(0.1 0.00583333 0.00433333)
(0.1 0.00616667 0.00433333)
(0.1 0.0065 0.00433333)
(0.1 0.00683333 0.00433333)
(0.1 0.00716667 0.00433333)
(0.1 0.0075 0.00433333)
(0.1 0.00783333 0.00433333)
(0.1 0.00816667 0.00433333)
(0.1 0.0085 0.00433333)
(0.1 0.00883333 0.00433333)
(0.1 0.00916667 0.00433333)
(0.1 0.0095 0.00433333)
(0.1 0.00983333 0.00433333)
(0.1 0.000166667 0.005)
(0.1 0.0005 0.005)
(0.1 0.000833333 0.005)
(0.1 0.00116667 0.005)
(0.1 0.0015 0.005)
(0.1 0.00183333 0.005)
(0.1 0.00216667 0.005)
(0.1 0.0025 0.005)
(0.1 0.00283333 0.005)
(0.1 0.00316667 0.005)
(0.1 0.0035 0.005)
(0.1 0.00383333 0.005)
(0.1 0.00416667 0.005)
(0.1 0.0045 0.005)
(0.1 0.00483333 0.005)
(0.1 0.00516667 0.005)
(0.1 0.0055 0.005)
(0.1 0.00583333 0.005)
(0.1 0.00616667 0.005)
(0.1 0.0065 0.005)
(0.1 0.00683333 0.005)
(0.1 0.00716667 0.005)
(0.1 0.0075 0.005)
(0.1 0.00783333 0.005)
(0.1 0.00816667 0.005)
(0.1 0.0085 0.005)
(0.1 0.00883333 0.005)
(0.1 0.00916667 0.005)
(0.1 0.0095 0.005)
(0.1 0.00983333 0.005)
(0.1 0.000166667 0.00566667)
(0.1 0.0005 0.00566667)
(0.1 0.000833333 0.00566667)
(0.1 0.00116667 0.00566667)
(0.1 0.0015 0.00566667)
(0.1 0.00183333 0.00566667)
(0.1 0.00216667 0.00566667)
(0.1 0.0025 0.00566667)
(0.1 0.00283333 0.00566667)
(0.1 0.00316667 0.00566667)
(0.1 0.0035 0.00566667)
(0.1 0.00383333 0.00566667)
(0.1 0.00416667 0.00566667)
(0.1 0.0045 0.00566667)
(0.1 0.00483333 0.00566667)
(0.1 0.00516667 0.00566667)
(0.1 0.0055 0.00566667)
(0.1 0.00583333 0.00566667)
(0.1 0.00616667 0.00566667)
(0.1 0.0065 0.00566667)
(0.1 0.00683333 0.00566667)
(0.1 0.00716667 0.00566667)
(0.1 0.0075 0.00566667)
(0.1 0.00783333 0.00566667)
(0.1 0.00816667 0.00566667)
(0.1 0.0085 0.00566667)
(0.1 0.00883333 0.00566667)
(0.1 0.00916667 0.00566667)
(0.1 0.0095 0.00566667)
(0.1 0.00983333 0.00566667)
(0.1 0.000166667 0.00633333)
(0.1 0.0005 0.00633333)
(0.1 0.000833333 0.00633333)
(0.1 0.00116667 0.00633333)
(0.1 0.0015 0.00633333)
(0.1 0.00183333 0.00633333)
(0.1 0.00216667 0.00633333)
(0.1 0.0025 0.00633333)
(0.1 0.00283333 0.00633333)
(0.1 0.00316667 0.00633333)
(0.1 0.0035 0.00633333)
(0.1 0.00383333 0.00633333)
(0.1 0.00416667 0.00633333)
(0.1 0.0045 0.00633333)
(0.1 0.00483333 0.00633333)
(0.1 0.00516667 0.00633333)
(0.1 0.0055 0.00633333)
(0.1 0.00583333 0.00633333)
(0.1 0.00616667 0.00633333)
(0.1 0.0065 0.00633333)
(0.1 0.00683333 0.00633333)
(0.1 0.00716667 0.00633333)
(0.1 0.0075 0.00633333)
(0.1 0.00783333 0.00633333)
(0.1 0.00816667 0.00633333)
(0.1 0.0085 0.00633333)
(0.1 0.00883333 0.00633333)
(0.1 0.00916667 0.00633333)
(0.1 0.0095 0.00633333)
(0.1 0.00983333 0.00633333)
(0.1 0.000166667 0.007)
(0.1 0.0005 0.007)
(0.1 0.000833333 0.007)
(0.1 0.00116667 0.007)
(0.1 0.0015 0.007)
(0.1 0.00183333 0.007)
(0.1 0.00216667 0.007)
(0.1 0.0025 0.007)
(0.1 0.00283333 0.007)
(0.1 0.00316667 0.007)
(0.1 0.0035 0.007)
(0.1 0.00383333 0.007)
(0.1 0.00416667 0.007)
(0.1 0.0045 0.007)
(0.1 0.00483333 0.007)
(0.1 0.00516667 0.007)
(0.1 0.0055 0.007)
(0.1 0.00583333 0.007)
(0.1 0.00616667 0.007)
(0.1 0.0065 0.007)
(0.1 0.00683333 0.007)
(0.1 0.00716667 0.007)
(0.1 0.0075 0.007)
(0.1 0.00783333 0.007)
(0.1 0.00816667 0.007)
(0.1 0.0085 0.007)
(0.1 0.00883333 0.007)
(0.1 0.00916667 0.007)
(0.1 0.0095 0.007)
(0.1 0.00983333 0.007)
(0.1 0.000166667 0.00766667)
(0.1 0.0005 0.00766667)
(0.1 0.000833333 0.00766667)
(0.1 0.00116667 0.00766667)
(0.1 0.0015 0.00766667)
(0.1 0.00183333 0.00766667)
(0.1 0.00216667 0.00766667)
(0.1 0.0025 0.00766667)
(0.1 0.00283333 0.00766667)
(0.1 0.00316667 0.00766667)
(0.1 0.0035 0.00766667)
(0.1 0.00383333 0.00766667)
(0.1 0.00416667 0.00766667)
(0.1 0.0045 0.00766667)
(0.1 0.00483333 0.00766667)
(0.1 0.00516667 0.00766667)
(0.1 0.0055 0.00766667)
(0.1 0.00583333 0.00766667)
(0.1 0.00616667 0.00766667)
(0.1 0.0065 0.00766667)
(0.1 0.00683333 0.00766667)
(0.1 0.00716667 0.00766667)
(0.1 0.0075 0.00766667)
(0.1 0.00783333 0.00766667)
(0.1 0.00816667 0.00766667)
(0.1 0.0085 0.00766667)
(0.1 0.00883333 0.00766667)
(0.1 0.00916667 0.00766667)
(0.1 0.0095 0.00766667)
(0.1 0.00983333 0.00766667)
(0.1 0.000166667 0.00833333)
(0.1 0.0005 0.00833333)
(0.1 0.000833333 0.00833333)
(0.1 0.00116667 0.00833333)
(0.1 0.0015 0.00833333)
(0.1 0.00183333 0.00833333)
(0.1 0.00216667 0.00833333)
(0.1 0.0025 0.00833333)
(0.1 0.00283333 0.00833333)
(0.1 0.00316667 0.00833333)
(0.1 0.0035 0.00833333)
(0.1 0.00383333 0.00833333)
(0.1 0.00416667 0.00833333)
(0.1 0.0045 0.00833333)
(0.1 0.00483333 0.00833333)
(0.1 0.00516667 0.00833333)
(0.1 0.0055 0.00833333)
(0.1 0.00583333 0.00833333)
(0.1 0.00616667 0.00833333)
(0.1 0.0065 0.00833333)
(0.1 0.00683333 0.00833333)
(0.1 0.00716667 0.00833333)
(0.1 0.0075 0.00833333)
(0.1 0.00783333 0.00833333)
(0.1 0.00816667 0.00833333)
(0.1 0.0085 0.00833333)
(0.1 0.00883333 0.00833333)
(0.1 0.00916667 0.00833333)
(0.1 0.0095 0.00833333)
(0.1 0.00983333 0.00833333)
(0.1 0.000166667 0.009)
(0.1 0.0005 0.009)
(0.1 0.000833333 0.009)
(0.1 0.00116667 0.009)
(0.1 0.0015 0.009)
(0.1 0.00183333 0.009)
(0.1 0.00216667 0.009)
(0.1 0.0025 0.009)
(0.1 0.00283333 0.009)
(0.1 0.00316667 0.009)
(0.1 0.0035 0.009)
(0.1 0.00383333 0.009)
(0.1 0.00416667 0.009)
(0.1 0.0045 0.009)
(0.1 0.00483333 0.009)
(0.1 0.00516667 0.009)
(0.1 0.0055 0.009)
(0.1 0.00583333 0.009)
(0.1 0.00616667 0.009)
(0.1 0.0065 0.009)
(0.1 0.00683333 0.009)
(0.1 0.00716667 0.009)
(0.1 0.0075 0.009)
(0.1 0.00783333 0.009)
(0.1 0.00816667 0.009)
(0.1 0.0085 0.009)
(0.1 0.00883333 0.009)
(0.1 0.00916667 0.009)
(0.1 0.0095 0.009)
(0.1 0.00983333 0.009)
(0.1 0.000166667 0.00966667)
(0.1 0.0005 0.00966667)
(0.1 0.000833333 0.00966667)
(0.1 0.00116667 0.00966667)
(0.1 0.0015 0.00966667)
(0.1 0.00183333 0.00966667)
(0.1 0.00216667 0.00966667)
(0.1 0.0025 0.00966667)
(0.1 0.00283333 0.00966667)
(0.1 0.00316667 0.00966667)
(0.1 0.0035 0.00966667)
(0.1 0.00383333 0.00966667)
(0.1 0.00416667 0.00966667)
(0.1 0.0045 0.00966667)
(0.1 0.00483333 0.00966667)
(0.1 0.00516667 0.00966667)
(0.1 0.0055 0.00966667)
(0.1 0.00583333 0.00966667)
(0.1 0.00616667 0.00966667)
(0.1 0.0065 0.00966667)
(0.1 0.00683333 0.00966667)
(0.1 0.00716667 0.00966667)
(0.1 0.0075 0.00966667)
(0.1 0.00783333 0.00966667)
(0.1 0.00816667 0.00966667)
(0.1 0.0085 0.00966667)
(0.1 0.00883333 0.00966667)
(0.1 0.00916667 0.00966667)
(0.1 0.0095 0.00966667)
(0.1 0.00983333 0.00966667)
(0.1 0.000166667 0.0103333)
(0.1 0.0005 0.0103333)
(0.1 0.000833333 0.0103333)
(0.1 0.00116667 0.0103333)
(0.1 0.0015 0.0103333)
(0.1 0.00183333 0.0103333)
(0.1 0.00216667 0.0103333)
(0.1 0.0025 0.0103333)
(0.1 0.00283333 0.0103333)
(0.1 0.00316667 0.0103333)
(0.1 0.0035 0.0103333)
(0.1 0.00383333 0.0103333)
(0.1 0.00416667 0.0103333)
(0.1 0.0045 0.0103333)
(0.1 0.00483333 0.0103333)
(0.1 0.00516667 0.0103333)
(0.1 0.0055 0.0103333)
(0.1 0.00583333 0.0103333)
(0.1 0.00616667 0.0103333)
(0.1 0.0065 0.0103333)
(0.1 0.00683333 0.0103333)
(0.1 0.00716667 0.0103333)
(0.1 0.0075 0.0103333)
(0.1 0.00783333 0.0103333)
(0.1 0.00816667 0.0103333)
(0.1 0.0085 0.0103333)
(0.1 0.00883333 0.0103333)
(0.1 0.00916667 0.0103333)
(0.1 0.0095 0.0103333)
(0.1 0.00983333 0.0103333)
(0.1 0.000166667 0.011)
(0.1 0.0005 0.011)
(0.1 0.000833333 0.011)
(0.1 0.00116667 0.011)
(0.1 0.0015 0.011)
(0.1 0.00183333 0.011)
(0.1 0.00216667 0.011)
(0.1 0.0025 0.011)
(0.1 0.00283333 0.011)
(0.1 0.00316667 0.011)
(0.1 0.0035 0.011)
(0.1 0.00383333 0.011)
(0.1 0.00416667 0.011)
(0.1 0.0045 0.011)
(0.1 0.00483333 0.011)
(0.1 0.00516667 0.011)
(0.1 0.0055 0.011)
(0.1 0.00583333 0.011)
(0.1 0.00616667 0.011)
(0.1 0.0065 0.011)
(0.1 0.00683333 0.011)
(0.1 0.00716667 0.011)
(0.1 0.0075 0.011)
(0.1 0.00783333 0.011)
(0.1 0.00816667 0.011)
(0.1 0.0085 0.011)
(0.1 0.00883333 0.011)
(0.1 0.00916667 0.011)
(0.1 0.0095 0.011)
(0.1 0.00983333 0.011)
(0.1 0.000166667 0.0116667)
(0.1 0.0005 0.0116667)
(0.1 0.000833333 0.0116667)
(0.1 0.00116667 0.0116667)
(0.1 0.0015 0.0116667)
(0.1 0.00183333 0.0116667)
(0.1 0.00216667 0.0116667)
(0.1 0.0025 0.0116667)
(0.1 0.00283333 0.0116667)
(0.1 0.00316667 0.0116667)
(0.1 0.0035 0.0116667)
(0.1 0.00383333 0.0116667)
(0.1 0.00416667 0.0116667)
(0.1 0.0045 0.0116667)
(0.1 0.00483333 0.0116667)
(0.1 0.00516667 0.0116667)
(0.1 0.0055 0.0116667)
(0.1 0.00583333 0.0116667)
(0.1 0.00616667 0.0116667)
(0.1 0.0065 0.0116667)
(0.1 0.00683333 0.0116667)
(0.1 0.00716667 0.0116667)
(0.1 0.0075 0.0116667)
(0.1 0.00783333 0.0116667)
(0.1 0.00816667 0.0116667)
(0.1 0.0085 0.0116667)
(0.1 0.00883333 0.0116667)
(0.1 0.00916667 0.0116667)
(0.1 0.0095 0.0116667)
(0.1 0.00983333 0.0116667)
(0.1 0.000166667 0.0123333)
(0.1 0.0005 0.0123333)
(0.1 0.000833333 0.0123333)
(0.1 0.00116667 0.0123333)
(0.1 0.0015 0.0123333)
(0.1 0.00183333 0.0123333)
(0.1 0.00216667 0.0123333)
(0.1 0.0025 0.0123333)
(0.1 0.00283333 0.0123333)
(0.1 0.00316667 0.0123333)
(0.1 0.0035 0.0123333)
(0.1 0.00383333 0.0123333)
(0.1 0.00416667 0.0123333)
(0.1 0.0045 0.0123333)
(0.1 0.00483333 0.0123333)
(0.1 0.00516667 0.0123333)
(0.1 0.0055 0.0123333)
(0.1 0.00583333 0.0123333)
(0.1 0.00616667 0.0123333)
(0.1 0.0065 0.0123333)
(0.1 0.00683333 0.0123333)
(0.1 0.00716667 0.0123333)
(0.1 0.0075 0.0123333)
(0.1 0.00783333 0.0123333)
(0.1 0.00816667 0.0123333)
(0.1 0.0085 0.0123333)
(0.1 0.00883333 0.0123333)
(0.1 0.00916667 0.0123333)
(0.1 0.0095 0.0123333)
(0.1 0.00983333 0.0123333)
(0.1 0.000166667 0.013)
(0.1 0.0005 0.013)
(0.1 0.000833333 0.013)
(0.1 0.00116667 0.013)
(0.1 0.0015 0.013)
(0.1 0.00183333 0.013)
(0.1 0.00216667 0.013)
(0.1 0.0025 0.013)
(0.1 0.00283333 0.013)
(0.1 0.00316667 0.013)
(0.1 0.0035 0.013)
(0.1 0.00383333 0.013)
(0.1 0.00416667 0.013)
(0.1 0.0045 0.013)
(0.1 0.00483333 0.013)
(0.1 0.00516667 0.013)
(0.1 0.0055 0.013)
(0.1 0.00583333 0.013)
(0.1 0.00616667 0.013)
(0.1 0.0065 0.013)
(0.1 0.00683333 0.013)
(0.1 0.00716667 0.013)
(0.1 0.0075 0.013)
(0.1 0.00783333 0.013)
(0.1 0.00816667 0.013)
(0.1 0.0085 0.013)
(0.1 0.00883333 0.013)
(0.1 0.00916667 0.013)
(0.1 0.0095 0.013)
(0.1 0.00983333 0.013)
(0.1 0.000166667 0.0136667)
(0.1 0.0005 0.0136667)
(0.1 0.000833333 0.0136667)
(0.1 0.00116667 0.0136667)
(0.1 0.0015 0.0136667)
(0.1 0.00183333 0.0136667)
(0.1 0.00216667 0.0136667)
(0.1 0.0025 0.0136667)
(0.1 0.00283333 0.0136667)
(0.1 0.00316667 0.0136667)
(0.1 0.0035 0.0136667)
(0.1 0.00383333 0.0136667)
(0.1 0.00416667 0.0136667)
(0.1 0.0045 0.0136667)
(0.1 0.00483333 0.0136667)
(0.1 0.00516667 0.0136667)
(0.1 0.0055 0.0136667)
(0.1 0.00583333 0.0136667)
(0.1 0.00616667 0.0136667)
(0.1 0.0065 0.0136667)
(0.1 0.00683333 0.0136667)
(0.1 0.00716667 0.0136667)
(0.1 0.0075 0.0136667)
(0.1 0.00783333 0.0136667)
(0.1 0.00816667 0.0136667)
(0.1 0.0085 0.0136667)
(0.1 0.00883333 0.0136667)
(0.1 0.00916667 0.0136667)
(0.1 0.0095 0.0136667)
(0.1 0.00983333 0.0136667)
(0.1 0.000166667 0.0143333)
(0.1 0.0005 0.0143333)
(0.1 0.000833333 0.0143333)
(0.1 0.00116667 0.0143333)
(0.1 0.0015 0.0143333)
(0.1 0.00183333 0.0143333)
(0.1 0.00216667 0.0143333)
(0.1 0.0025 0.0143333)
(0.1 0.00283333 0.0143333)
(0.1 0.00316667 0.0143333)
(0.1 0.0035 0.0143333)
(0.1 0.00383333 0.0143333)
(0.1 0.00416667 0.0143333)
(0.1 0.0045 0.0143333)
(0.1 0.00483333 0.0143333)
(0.1 0.00516667 0.0143333)
(0.1 0.0055 0.0143333)
(0.1 0.00583333 0.0143333)
(0.1 0.00616667 0.0143333)
(0.1 0.0065 0.0143333)
(0.1 0.00683333 0.0143333)
(0.1 0.00716667 0.0143333)
(0.1 0.0075 0.0143333)
(0.1 0.00783333 0.0143333)
(0.1 0.00816667 0.0143333)
(0.1 0.0085 0.0143333)
(0.1 0.00883333 0.0143333)
(0.1 0.00916667 0.0143333)
(0.1 0.0095 0.0143333)
(0.1 0.00983333 0.0143333)
(0.1 0.000166667 0.015)
(0.1 0.0005 0.015)
(0.1 0.000833333 0.015)
(0.1 0.00116667 0.015)
(0.1 0.0015 0.015)
(0.1 0.00183333 0.015)
(0.1 0.00216667 0.015)
(0.1 0.0025 0.015)
(0.1 0.00283333 0.015)
(0.1 0.00316667 0.015)
(0.1 0.0035 0.015)
(0.1 0.00383333 0.015)
(0.1 0.00416667 0.015)
(0.1 0.0045 0.015)
(0.1 0.00483333 0.015)
(0.1 0.00516667 0.015)
(0.1 0.0055 0.015)
(0.1 0.00583333 0.015)
(0.1 0.00616667 0.015)
(0.1 0.0065 0.015)
(0.1 0.00683333 0.015)
(0.1 0.00716667 0.015)
(0.1 0.0075 0.015)
(0.1 0.00783333 0.015)
(0.1 0.00816667 0.015)
(0.1 0.0085 0.015)
(0.1 0.00883333 0.015)
(0.1 0.00916667 0.015)
(0.1 0.0095 0.015)
(0.1 0.00983333 0.015)
(0.1 0.000166667 0.0156667)
(0.1 0.0005 0.0156667)
(0.1 0.000833333 0.0156667)
(0.1 0.00116667 0.0156667)
(0.1 0.0015 0.0156667)
(0.1 0.00183333 0.0156667)
(0.1 0.00216667 0.0156667)
(0.1 0.0025 0.0156667)
(0.1 0.00283333 0.0156667)
(0.1 0.00316667 0.0156667)
(0.1 0.0035 0.0156667)
(0.1 0.00383333 0.0156667)
(0.1 0.00416667 0.0156667)
(0.1 0.0045 0.0156667)
(0.1 0.00483333 0.0156667)
(0.1 0.00516667 0.0156667)
(0.1 0.0055 0.0156667)
(0.1 0.00583333 0.0156667)
(0.1 0.00616667 0.0156667)
(0.1 0.0065 0.0156667)
(0.1 0.00683333 0.0156667)
(0.1 0.00716667 0.0156667)
(0.1 0.0075 0.0156667)
(0.1 0.00783333 0.0156667)
(0.1 0.00816667 0.0156667)
(0.1 0.0085 0.0156667)
(0.1 0.00883333 0.0156667)
(0.1 0.00916667 0.0156667)
(0.1 0.0095 0.0156667)
(0.1 0.00983333 0.0156667)
(0.1 0.000166667 0.0163333)
(0.1 0.0005 0.0163333)
(0.1 0.000833333 0.0163333)
(0.1 0.00116667 0.0163333)
(0.1 0.0015 0.0163333)
(0.1 0.00183333 0.0163333)
(0.1 0.00216667 0.0163333)
(0.1 0.0025 0.0163333)
(0.1 0.00283333 0.0163333)
(0.1 0.00316667 0.0163333)
(0.1 0.0035 0.0163333)
(0.1 0.00383333 0.0163333)
(0.1 0.00416667 0.0163333)
(0.1 0.0045 0.0163333)
(0.1 0.00483333 0.0163333)
(0.1 0.00516667 0.0163333)
(0.1 0.0055 0.0163333)
(0.1 0.00583333 0.0163333)
(0.1 0.00616667 0.0163333)
(0.1 0.0065 0.0163333)
(0.1 0.00683333 0.0163333)
(0.1 0.00716667 0.0163333)
(0.1 0.0075 0.0163333)
(0.1 0.00783333 0.0163333)
(0.1 0.00816667 0.0163333)
(0.1 0.0085 0.0163333)
(0.1 0.00883333 0.0163333)
(0.1 0.00916667 0.0163333)
(0.1 0.0095 0.0163333)
(0.1 0.00983333 0.0163333)
(0.1 0.000166667 0.017)
(0.1 0.0005 0.017)
(0.1 0.000833333 0.017)
(0.1 0.00116667 0.017)
(0.1 0.0015 0.017)
(0.1 0.00183333 0.017)
(0.1 0.00216667 0.017)
(0.1 0.0025 0.017)
(0.1 0.00283333 0.017)
(0.1 0.00316667 0.017)
(0.1 0.0035 0.017)
(0.1 0.00383333 0.017)
(0.1 0.00416667 0.017)
(0.1 0.0045 0.017)
(0.1 0.00483333 0.017)
(0.1 0.00516667 0.017)
(0.1 0.0055 0.017)
(0.1 0.00583333 0.017)
(0.1 0.00616667 0.017)
(0.1 0.0065 0.017)
(0.1 0.00683333 0.017)
(0.1 0.00716667 0.017)
(0.1 0.0075 0.017)
(0.1 0.00783333 0.017)
(0.1 0.00816667 0.017)
(0.1 0.0085 0.017)
(0.1 0.00883333 0.017)
(0.1 0.00916667 0.017)
(0.1 0.0095 0.017)
(0.1 0.00983333 0.017)
(0.1 0.000166667 0.0176667)
(0.1 0.0005 0.0176667)
(0.1 0.000833333 0.0176667)
(0.1 0.00116667 0.0176667)
(0.1 0.0015 0.0176667)
(0.1 0.00183333 0.0176667)
(0.1 0.00216667 0.0176667)
(0.1 0.0025 0.0176667)
(0.1 0.00283333 0.0176667)
(0.1 0.00316667 0.0176667)
(0.1 0.0035 0.0176667)
(0.1 0.00383333 0.0176667)
(0.1 0.00416667 0.0176667)
(0.1 0.0045 0.0176667)
(0.1 0.00483333 0.0176667)
(0.1 0.00516667 0.0176667)
(0.1 0.0055 0.0176667)
(0.1 0.00583333 0.0176667)
(0.1 0.00616667 0.0176667)
(0.1 0.0065 0.0176667)
(0.1 0.00683333 0.0176667)
(0.1 0.00716667 0.0176667)
(0.1 0.0075 0.0176667)
(0.1 0.00783333 0.0176667)
(0.1 0.00816667 0.0176667)
(0.1 0.0085 0.0176667)
(0.1 0.00883333 0.0176667)
(0.1 0.00916667 0.0176667)
(0.1 0.0095 0.0176667)
(0.1 0.00983333 0.0176667)
(0.1 0.000166667 0.0183333)
(0.1 0.0005 0.0183333)
(0.1 0.000833333 0.0183333)
(0.1 0.00116667 0.0183333)
(0.1 0.0015 0.0183333)
(0.1 0.00183333 0.0183333)
(0.1 0.00216667 0.0183333)
(0.1 0.0025 0.0183333)
(0.1 0.00283333 0.0183333)
(0.1 0.00316667 0.0183333)
(0.1 0.0035 0.0183333)
(0.1 0.00383333 0.0183333)
(0.1 0.00416667 0.0183333)
(0.1 0.0045 0.0183333)
(0.1 0.00483333 0.0183333)
(0.1 0.00516667 0.0183333)
(0.1 0.0055 0.0183333)
(0.1 0.00583333 0.0183333)
(0.1 0.00616667 0.0183333)
(0.1 0.0065 0.0183333)
(0.1 0.00683333 0.0183333)
(0.1 0.00716667 0.0183333)
(0.1 0.0075 0.0183333)
(0.1 0.00783333 0.0183333)
(0.1 0.00816667 0.0183333)
(0.1 0.0085 0.0183333)
(0.1 0.00883333 0.0183333)
(0.1 0.00916667 0.0183333)
(0.1 0.0095 0.0183333)
(0.1 0.00983333 0.0183333)
(0.1 0.000166667 0.019)
(0.1 0.0005 0.019)
(0.1 0.000833333 0.019)
(0.1 0.00116667 0.019)
(0.1 0.0015 0.019)
(0.1 0.00183333 0.019)
(0.1 0.00216667 0.019)
(0.1 0.0025 0.019)
(0.1 0.00283333 0.019)
(0.1 0.00316667 0.019)
(0.1 0.0035 0.019)
(0.1 0.00383333 0.019)
(0.1 0.00416667 0.019)
(0.1 0.0045 0.019)
(0.1 0.00483333 0.019)
(0.1 0.00516667 0.019)
(0.1 0.0055 0.019)
(0.1 0.00583333 0.019)
(0.1 0.00616667 0.019)
(0.1 0.0065 0.019)
(0.1 0.00683333 0.019)
(0.1 0.00716667 0.019)
(0.1 0.0075 0.019)
(0.1 0.00783333 0.019)
(0.1 0.00816667 0.019)
(0.1 0.0085 0.019)
(0.1 0.00883333 0.019)
(0.1 0.00916667 0.019)
(0.1 0.0095 0.019)
(0.1 0.00983333 0.019)
(0.1 0.000166667 0.0196667)
(0.1 0.0005 0.0196667)
(0.1 0.000833333 0.0196667)
(0.1 0.00116667 0.0196667)
(0.1 0.0015 0.0196667)
(0.1 0.00183333 0.0196667)
(0.1 0.00216667 0.0196667)
(0.1 0.0025 0.0196667)
(0.1 0.00283333 0.0196667)
(0.1 0.00316667 0.0196667)
(0.1 0.0035 0.0196667)
(0.1 0.00383333 0.0196667)
(0.1 0.00416667 0.0196667)
(0.1 0.0045 0.0196667)
(0.1 0.00483333 0.0196667)
(0.1 0.00516667 0.0196667)
(0.1 0.0055 0.0196667)
(0.1 0.00583333 0.0196667)
(0.1 0.00616667 0.0196667)
(0.1 0.0065 0.0196667)
(0.1 0.00683333 0.0196667)
(0.1 0.00716667 0.0196667)
(0.1 0.0075 0.0196667)
(0.1 0.00783333 0.0196667)
(0.1 0.00816667 0.0196667)
(0.1 0.0085 0.0196667)
(0.1 0.00883333 0.0196667)
(0.1 0.00916667 0.0196667)
(0.1 0.0095 0.0196667)
(0.1 0.00983333 0.0196667)
)
