/*--------------------------------*- C++ -*----------------------------------*\
  =========                 |
  \\      /  F ield         | OpenFOAM: The Open Source CFD Toolbox
   \\    /   O peration     | Website:  https://openfoam.org
    \\  /    A nd           | Version:  6
     \\/     M anipulation  |
\*---------------------------------------------------------------------------*/
FoamFile
{
    version     2.0;
    format      ascii;
    class       volScalarField;
    location    "0.06";
    object      epsilon;
}
// * * * * * * * * * * * * * * * * * * * * * * * * * * * * * * * * * * * * * //

dimensions      [0 2 -3 0 0 0 0];

internalField   nonuniform List<scalar> 
3032
(
307.542
159.141
103.233
76.2398
60.9865
51.4878
45.0912
40.4798
36.9702
34.1913
31.9287
30.0503
28.4696
27.1361
26.0109
25.0696
24.3416
23.9476
71.5967
59.7477
44.4113
34.3527
27.8154
23.3758
20.2337
17.9225
16.1589
14.7689
13.6442
12.7154
11.9362
11.2772
10.7159
10.2334
9.81941
9.45197
33.6095
34.3981
29.2851
24.3846
20.5387
17.6177
15.3938
13.6762
12.3236
11.2369
10.3475
9.6079
8.98443
8.45374
7.99835
7.60381
7.25945
6.95448
22.4928
24.1932
22.2182
19.5391
17.0649
14.9862
13.2903
11.9143
10.7919
9.86742
9.09734
8.44877
7.89692
7.42354
7.01437
6.65791
6.34535
6.07102
18.0515
19.1632
18.2231
16.593
14.8955
13.3506
12.015
10.883
9.92864
9.12269
8.43851
7.85389
7.35083
6.91539
6.53609
6.2037
5.91116
5.65509
15.9656
16.3983
15.7646
14.6406
13.3947
12.1983
11.1178
10.1692
9.34655
8.63597
8.0218
7.4894
7.02598
6.62097
6.26537
5.95179
5.67461
5.43173
14.9026
14.7881
14.1876
13.2983
12.3126
11.3427
10.4425
9.63203
8.91352
8.28115
7.72594
7.23829
6.80923
6.43075
6.09585
5.79864
5.53469
5.30271
14.3401
13.8251
13.1585
12.3634
11.5217
10.6955
9.92034
9.21207
8.57469
8.00581
7.50006
7.05093
6.65202
6.2972
5.98095
5.6986
5.44667
5.22442
14.0385
13.2454
12.4862
11.7133
10.9447
10.2058
9.51451
8.8798
8.30404
7.78553
7.3204
6.90394
6.53118
6.19728
5.89784
5.62906
5.38817
5.17485
13.8767
12.899
12.0515
11.2668
10.529
9.83948
9.20189
8.61814
8.08762
7.60782
7.17516
6.78562
6.43499
6.11923
5.83465
5.57806
5.34722
5.14207
13.7905
12.6954
11.7761
10.9665
10.2359
9.57103
8.96557
8.41538
7.91668
7.46553
7.05793
6.68984
6.35736
6.05684
5.78502
5.53911
5.31721
5.11939
13.7488
12.588
11.6203
10.7865
10.0517
9.39561
8.80607
8.27486
7.79563
7.36307
6.97244
6.6194
6.30006
6.01088
5.74877
5.51116
5.29632
5.10437
13.7254
12.5234
11.5209
10.6659
9.92296
9.26872
8.68735
8.16771
7.70151
7.2821
6.90399
6.56246
6.25344
5.97338
5.71926
5.48859
5.27975
5.09283
13.7116
12.4831
11.4547
10.5811
9.82827
9.17161
8.59338
8.0805
7.62303
7.21321
6.84475
6.5125
6.21211
5.93992
5.69284
5.46843
5.2651
5.08287
13.7045
12.4608
11.4161
10.5287
9.76663
9.10554
8.52697
8.01678
7.56404
7.16013
6.79816
6.4725
6.17853
5.91241
5.67094
5.45164
5.2529
5.07463
13.7012
12.4503
11.3968
10.5009
9.73222
9.06687
8.4864
7.97638
7.52538
7.12433
6.76592
6.4442
6.15429
5.89218
5.65458
5.4389
5.24348
5.06814
13.7
12.4462
11.3888
10.4888
9.71638
9.04816
8.46588
7.95507
7.50422
7.10405
6.74706
6.42713
6.13923
5.87922
5.64371
5.43007
5.23656
5.0629
13.6996
12.445
11.3863
10.4849
9.71094
9.04141
8.4581
7.9466
7.49539
7.09516
6.73835
6.41878
6.13136
5.87189
5.63695
5.42387
5.23088
5.05765
13.6998
12.4453
11.3869
10.4858
9.7121
9.04267
8.45932
7.94762
7.49604
7.09531
6.73788
6.41758
6.12935
5.86899
5.63311
5.41905
5.22505
5.05083
13.701
12.4493
11.3946
10.4973
9.72703
9.06021
8.47841
7.96718
7.51509
7.11299
6.75353
6.4307
6.13959
5.87614
5.63704
5.41971
5.2225
5.04523
13.7054
12.4634
11.42
10.5334
9.77136
9.10967
8.52995
8.01818
7.56349
7.15731
6.79278
6.4643
6.16727
5.89786
5.6529
5.42993
5.22738
5.04526
13.7204
12.5082
11.4949
10.6317
9.88401
9.22794
8.64687
8.1288
7.66462
7.2472
6.87067
6.53014
6.22144
5.941
5.68581
5.45342
5.24232
5.05269
13.7671
12.6332
11.6845
10.8599
10.1265
9.46659
8.87019
8.33044
7.84191
7.39975
6.9995
6.63699
6.30837
6.01013
5.73917
5.49291
5.26966
5.06968
13.9007
12.9464
12.1092
11.3259
10.585
9.88995
9.24574
8.65479
8.11678
7.62939
7.18907
6.79178
6.43331
6.10966
5.81712
5.55255
5.31377
5.10092
14.2608
13.6662
12.9749
12.1899
11.3729
10.574
9.82303
9.13388
8.51048
7.95105
7.451
7.00463
6.60602
6.24956
5.93018
5.64356
5.38656
5.15891
15.1941
15.2324
14.6359
13.695
12.6465
11.6175
10.6657
9.81156
9.05649
8.39344
7.81228
7.30241
6.85394
6.45812
6.10746
5.79573
5.51835
5.27425
17.6336
18.6184
17.7655
16.259
14.6631
13.1873
11.8932
10.7839
9.84021
9.03759
8.35237
7.7641
7.25579
6.81367
6.42665
6.08591
5.78492
5.52145
24.705
26.4226
23.9016
20.7808
17.9978
15.6998
13.845
12.3524
11.1433
10.1529
9.33159
8.64197
8.05621
7.55338
7.11765
6.73696
6.40241
6.1102
51.9636
47.7335
37.7966
30.1698
24.754
20.8676
18.0217
15.8876
14.2443
12.9452
11.8935
11.0248
10.2947
9.67218
9.13498
8.66669
8.25536
7.89508
251.828
137.357
90.7745
67.1131
53.2838
44.4905
38.5278
34.2454
31.012
28.4688
26.4028
24.6822
23.2214
21.9621
20.8635
19.8954
19.0357
18.2701
0.170905
0.306111
0.528793
0.730648
0.9169
1.09358
1.26366
1.42888
1.59056
1.7498
1.90752
2.06448
2.22124
2.3782
2.53555
2.69333
2.85147
3.00981
3.16812
3.32624
3.48406
3.64174
3.79985
3.95962
4.12348
4.296
4.46556
4.62768
4.78177
4.92714
5.06297
5.18842
5.30262
5.40477
5.49412
5.57002
5.63196
5.67953
5.71251
5.73087
5.73478
5.72472
5.7015
5.66652
0.948727
0.603486
0.643859
0.736284
0.840556
0.944329
1.04282
1.1344
1.21895
1.29706
1.36955
1.43729
1.50107
1.5616
1.61948
1.67519
1.72917
1.78175
1.83326
1.88399
1.93425
1.98435
2.03469
2.08575
2.13809
2.19234
2.24777
2.30196
2.35414
2.40388
2.45079
2.49454
2.53476
2.57113
2.60331
2.63105
2.65409
2.67225
2.68542
2.69356
2.69668
2.69493
2.68854
2.67786
1.77756
0.904984
0.831957
0.863853
0.925043
0.995103
1.06568
1.13293
1.19527
1.25236
1.30452
1.35233
1.39652
1.43777
1.47677
1.51409
1.55026
1.58572
1.62087
1.65603
1.69149
1.72748
1.7642
1.80181
1.8404
1.88
1.92006
1.95981
1.99874
2.03648
2.07266
2.10695
2.13898
2.16844
2.19501
2.2184
2.23836
2.25467
2.26718
2.27578
2.28043
2.28114
2.27799
2.2711
2.50419
1.17299
1.00633
0.992478
1.02246
1.06875
1.12061
1.17287
1.22302
1.26995
1.31339
1.35354
1.39081
1.42573
1.45887
1.49074
1.52184
1.55258
1.58336
1.61446
1.64614
1.67859
1.71193
1.74622
1.78147
1.81759
1.85416
1.89072
1.92688
1.96226
1.99648
2.02919
2.06002
2.08861
2.11461
2.13772
2.15766
2.17418
2.18709
2.19627
2.20163
2.20314
2.20083
2.19477
3.15982
1.41322
1.16406
1.11253
1.11821
1.14653
1.18451
1.22601
1.26784
1.3084
1.34696
1.38335
1.41771
1.45035
1.48167
1.51209
1.54201
1.57181
1.60182
1.63232
1.66352
1.69558
1.72859
1.76258
1.79752
1.83328
1.8695
1.90581
1.94183
1.9772
2.01152
2.04441
2.07547
2.10431
2.13057
2.15392
2.17405
2.19072
2.20371
2.21289
2.21817
2.21951
2.21693
2.2105
3.75172
1.63057
1.30743
1.22345
1.20921
1.22334
1.25061
1.28397
1.3197
1.35581
1.39127
1.42561
1.45873
1.49076
1.52193
1.55254
1.58291
1.61333
1.6441
1.67544
1.70756
1.74056
1.77454
1.80949
1.84534
1.88195
1.91898
1.95608
1.99289
2.02902
2.06407
2.0976
2.12922
2.15849
2.18504
2.2085
2.22858
2.24502
2.2576
2.26621
2.27075
2.27122
2.26765
2.26013
4.28329
1.82745
1.43791
1.32536
1.29418
1.29666
1.31539
1.34239
1.37348
1.40636
1.43973
1.47292
1.50564
1.53785
1.56965
1.60121
1.63278
1.66458
1.69683
1.72974
1.76346
1.79808
1.83367
1.87019
1.90758
1.94561
1.98397
2.02234
2.06032
2.09752
2.13349
2.16778
2.19995
2.22955
2.25618
2.27947
2.29911
2.31486
2.32653
2.33401
2.33724
2.33625
2.33111
2.32194
4.75467
2.0045
1.55595
1.4181
1.37221
1.36483
1.37651
1.39839
1.42584
1.45627
1.48818
1.52075
1.55352
1.58631
1.61911
1.652
1.68514
1.71868
1.75281
1.78766
1.82337
1.86
1.89757
1.93605
1.97533
2.01514
2.05517
2.09508
2.13446
2.17288
2.20985
2.24488
2.27749
2.30722
2.33365
2.35641
2.37519
2.38977
2.4
2.4058
2.40718
2.40419
2.39696
2.38571
5.16258
2.16106
1.66116
1.50109
1.44233
1.42644
1.43213
1.44975
1.47423
1.50274
1.53361
1.56585
1.5989
1.63247
1.66646
1.70085
1.73574
1.77122
1.80743
1.84446
1.88241
1.92132
1.96117
2.0019
2.04338
2.08526
2.12724
2.16894
2.20991
2.24966
2.28766
2.32338
2.35629
2.3859
2.41179
2.43359
2.45103
2.46392
2.47217
2.47575
2.47473
2.46924
2.45955
2.44592
5.50089
2.29545
1.75256
1.57342
1.50349
1.48019
1.48073
1.4947
1.51669
1.54363
1.57371
1.60581
1.63926
1.67371
1.70895
1.74492
1.78164
1.81918
1.8576
1.89699
1.93739
1.97882
2.02124
2.06453
2.10852
2.1528
2.19703
2.24078
2.28354
2.32473
2.36377
2.40006
2.43304
2.4622
2.48712
2.50747
2.52301
2.53363
2.53929
2.54008
2.53616
2.52781
2.51533
2.49904
5.76141
2.40543
1.82886
1.63405
1.55469
1.52506
1.52114
1.53198
1.55184
1.57748
1.60693
1.639
1.67292
1.70827
1.74479
1.78237
1.82098
1.86064
1.90141
1.94332
1.98639
2.03062
2.07591
2.12212
2.16899
2.21604
2.26287
2.30895
2.35367
2.39636
2.43635
2.47299
2.50567
2.5339
2.55727
2.5755
2.58848
2.59613
2.59857
2.59605
2.58884
2.57728
2.56173
2.54255
5.9348
2.48851
1.88879
1.68216
1.59528
1.56045
1.55282
1.56102
1.57911
1.60368
1.63266
1.66478
1.69923
1.73551
1.77333
1.81253
1.85308
1.89495
1.93818
1.98279
2.02879
2.07613
2.12469
2.17428
2.22444
2.27469
2.32447
2.3731
2.41985
2.46394
2.5046
2.54109
2.57282
2.59938
2.62036
2.63557
2.64509
2.64907
2.64775
2.64146
2.63058
2.61552
2.59669
2.57453
6.01155
2.54234
1.93142
1.7174
1.62526
1.58656
1.57608
1.58226
1.59899
1.6228
1.65153
1.68385
1.71892
1.7562
1.79536
1.83626
1.8788
1.923
1.96886
2.01641
2.06564
2.11647
2.16874
2.22219
2.27617
2.33005
2.38304
2.43427
2.48281
2.52782
2.56851
2.60385
2.63343
2.65698
2.67435
2.68558
2.69085
2.69047
2.6848
2.6743
2.65943
2.64068
2.61853
2.59342
5.98265
2.56513
1.95656
1.74033
1.64563
1.60474
1.59256
1.59752
1.61352
1.63703
1.66587
1.69868
1.73459
1.77305
1.81373
1.85646
1.90118
1.9479
1.99665
2.04745
2.1003
2.1551
2.21163
2.26949
2.32776
2.38565
2.44183
2.49513
2.54451
2.58901
2.62782
2.66034
2.68621
2.70533
2.7178
2.72387
2.72391
2.71838
2.70781
2.69273
2.6737
2.65126
2.6259
2.5981
5.83914
2.55605
1.96521
1.7529
1.659
1.61807
1.60571
1.61062
1.6268
1.65076
1.68034
1.71418
1.75141
1.79148
1.83407
1.87902
1.92631
1.97596
2.02806
2.08265
2.13972
2.19914
2.26064
2.32328
2.38579
2.44685
2.505
2.55883
2.60714
2.64895
2.68365
2.71092
2.73074
2.74334
2.74912
2.74858
2.74231
2.73091
2.71501
2.69521
2.6721
2.64621
2.61803
2.58801
5.57044
2.5213
1.9623
1.76029
1.67104
1.63271
1.62218
1.62867
1.64641
1.67204
1.70345
1.73931
1.77878
1.82131
1.86664
1.91463
1.96529
2.01871
2.075
2.13422
2.19636
2.26124
2.32837
2.39581
2.46184
2.52462
2.58233
2.63343
2.67678
2.71174
2.73816
2.75628
2.76661
2.76984
2.76671
2.75796
2.74432
2.72647
2.70506
2.68065
2.65379
2.62494
2.59455
2.56298
5.25384
2.48242
1.95906
1.77063
1.68902
1.65599
1.64971
1.65998
1.68134
1.71058
1.74568
1.78537
1.82884
1.87559
1.92537
1.97811
2.03386
2.09275
2.1549
2.2204
2.28917
2.36096
2.43374
2.50477
2.57164
2.63196
2.68373
2.72563
2.75714
2.77849
2.79046
2.79418
2.79084
2.78158
2.76742
2.74919
2.72761
2.70327
2.67668
2.64827
2.61844
2.58754
2.55586
2.52367
4.8794
2.43263
1.9565
1.78725
1.71734
1.69304
1.69413
1.71111
1.73889
1.77444
1.81588
1.86199
1.91202
1.9655
2.02221
2.08212
2.14529
2.21184
2.28188
2.35538
2.43203
2.51082
2.58692
2.65722
2.71866
2.76869
2.80579
2.82968
2.84121
2.84206
2.83428
2.81988
2.8006
2.77778
2.75241
2.72516
2.69651
2.66679
2.63623
2.60506
2.57344
2.54155
2.50956
2.47761
4.46157
2.36983
1.9543
1.81164
1.75902
1.74837
1.76141
1.7895
1.82795
1.87394
1.92571
1.98213
2.04246
2.10629
2.17341
2.24375
2.31736
2.39427
2.47443
2.5576
2.64308
2.72425
2.79699
2.85739
2.90235
2.93024
2.94122
2.9371
2.92084
2.89577
2.86502
2.83111
2.79582
2.76025
2.72498
2.69027
2.65614
2.62254
2.58941
2.55667
2.5243
2.4923
2.46069
2.42954
4.02212
2.29336
1.95213
1.84563
1.81848
1.82907
1.8613
1.9074
1.96304
2.02562
2.09347
2.16552
2.24108
2.31973
2.40122
2.48541
2.57217
2.66131
2.75242
2.84481
2.93093
3.00412
3.05987
3.0948
3.10751
3.099
3.07244
3.03243
2.98391
2.93135
2.87814
2.82651
2.77763
2.73191
2.68924
2.64928
2.61157
2.57567
2.54121
2.50788
2.47549
2.4439
2.41305
2.38294
3.58585
2.20406
1.95279
1.89679
1.90839
1.9527
2.01572
2.09041
2.17277
2.26037
2.35164
2.44557
2.54149
2.63894
2.73756
2.83697
2.93672
3.03617
3.13439
3.22224
3.29065
3.33485
3.35171
3.34071
3.30431
3.24752
3.17685
3.099
3.01971
2.9432
2.872
2.80723
2.74898
2.69671
2.64958
2.60667
2.56714
2.53022
2.49535
2.46205
2.43003
2.39907
2.36906
2.33996
3.18013
2.10848
1.97109
1.99092
2.06449
2.1631
2.27472
2.39301
2.51433
2.63648
2.75811
2.87835
2.99659
3.1123
3.22496
3.33377
3.43784
3.5361
3.61625
3.66823
3.688
3.67377
3.62688
3.55197
3.45626
3.34822
3.23604
3.12641
3.02398
2.93127
2.84909
2.77707
2.71412
2.65888
2.60994
2.56598
2.52592
2.48886
2.45409
2.42111
2.38956
2.35921
2.32993
2.30167
2.83521
2.03293
2.05802
2.20211
2.37836
2.56374
2.74863
2.92789
3.09874
3.25981
3.41054
3.55075
3.68036
3.79904
3.90649
4.00113
4.08236
4.13285
4.14568
4.11916
4.05429
3.95532
3.82951
3.68619
3.53523
3.38555
3.24403
3.11503
3.0006
2.90094
2.81502
2.74118
2.67749
2.62205
2.57318
2.52943
2.48963
2.45285
2.4184
2.38578
2.35463
2.32473
2.29597
2.2683
2.58298
2.07225
2.37054
2.73377
3.08203
3.39812
3.67796
3.92107
4.12887
4.304
4.44948
4.56829
4.66305
4.73408
4.78465
4.80581
4.7834
4.71873
4.6138
4.47319
4.30408
4.11575
3.91844
3.72207
3.53489
3.36279
3.20906
3.07472
2.95906
2.86035
2.77629
2.70447
2.64261
2.58867
2.54094
2.49802
2.45881
2.42246
2.38832
2.35596
2.32504
2.29539
2.2669
2.23957
2.44735
2.55806
3.40427
4.1713
4.77798
5.22735
5.54635
5.76063
5.89202
5.95877
5.97527
5.95304
5.90334
5.82075
5.69799
5.53846
5.3465
5.12749
4.88797
4.63584
4.37982
4.12866
3.8901
3.6701
3.4724
3.2985
3.14805
3.01938
2.91004
2.81725
2.73824
2.67046
2.61165
2.55993
2.51374
2.47183
2.43326
2.39728
2.36335
2.33108
2.30022
2.27062
2.2422
2.21499
2.65556
4.92555
6.80414
8.06856
8.73223
8.94143
8.88024
8.66824
8.37651
8.04641
7.70051
7.34859
6.98922
6.63069
6.2739
5.91986
5.57044
5.22861
4.8983
4.58405
4.29035
4.02097
3.77848
3.56394
3.37694
3.21588
3.07829
2.96128
2.86183
2.77702
2.70418
2.641
2.5855
2.53606
2.49138
2.45041
2.41236
2.37662
2.34275
2.31043
2.27947
2.24974
2.22122
2.19394
5.17482
12.6179
14.7371
14.8927
14.1297
13.058
11.9542
10.9263
10.0056
9.19184
8.47318
7.83411
7.25913
6.73701
6.25895
5.81869
5.41234
5.03787
4.69458
4.38244
4.10156
3.85165
3.6318
3.44037
3.2751
3.13327
3.01195
2.90819
2.81918
2.74236
2.67548
2.6166
2.56412
2.5167
2.47329
2.43306
2.39536
2.35971
2.32576
2.29326
2.26206
2.23209
2.20333
2.17585
18.4682
15.5499
13.9825
12.9395
12.0722
11.2615
10.4786
9.7278
9.01949
8.36065
7.75332
7.19589
6.68459
6.21539
5.78457
5.38917
5.027
4.69661
4.397
4.12731
3.8866
3.67358
3.4866
3.32362
3.18228
3.06008
2.95447
2.86302
2.78344
2.71368
2.65196
2.59674
2.54676
2.50098
2.45855
2.41883
2.38131
2.3456
2.31144
2.27865
2.24712
2.21679
2.18769
2.15988
8.91222
8.44867
8.13634
7.94414
7.81467
7.68976
7.52895
7.31699
7.05713
6.76116
6.44278
6.11429
5.7854
5.46331
5.15315
4.85854
4.58199
4.32521
4.08926
3.87459
3.68111
3.50824
3.35489
3.21965
3.10084
2.99661
2.90511
2.82452
2.75316
2.6895
2.63217
2.58004
2.53214
2.48765
2.44596
2.40655
2.36904
2.33316
2.29868
2.2655
2.23353
2.20275
2.17321
2.14498
6.7065
6.47271
6.27268
6.1155
5.99751
5.90511
5.82026
5.72709
5.61542
5.481
5.3243
5.14884
4.95966
4.76223
4.56176
4.36284
4.16931
3.9842
3.80977
3.64752
3.49832
3.36242
3.2396
3.12922
3.03036
2.94193
2.86273
2.79158
2.72731
2.66885
2.61526
2.56571
2.51949
2.47601
2.43483
2.39556
2.35793
2.32174
2.28685
2.25318
2.22069
2.18939
2.15932
2.13057
5.8736
5.69067
5.52128
5.36999
5.23849
5.12494
5.02431
4.93009
4.83604
4.73727
4.63078
4.51544
4.39173
4.26122
4.12618
3.98916
3.85271
3.71914
3.59041
3.46801
3.35302
3.24604
3.14727
3.05661
2.97366
2.89786
2.82853
2.76493
2.70633
2.65203
2.60137
2.55379
2.50882
2.46603
2.4251
2.38579
2.3479
2.31129
2.27589
2.24165
2.20857
2.17666
2.14599
2.11667
5.47507
5.31096
5.15558
5.01049
4.87678
4.75453
4.64252
4.53852
4.43981
4.34368
4.24784
4.15071
4.05144
3.94992
3.84663
3.74245
3.63852
3.53605
3.43619
3.33993
3.24804
3.16107
3.07929
3.00276
2.93136
2.86481
2.80275
2.74472
2.69029
2.63901
2.59044
2.54423
2.50003
2.45758
2.41667
2.37713
2.33883
2.3017
2.2657
2.23082
2.19707
2.1645
2.13318
2.10322
5.26111
5.10716
4.96022
4.82075
4.68917
4.56564
4.44988
4.34115
4.23833
4.14016
4.04535
3.95281
3.86171
3.77156
3.68219
3.5937
3.50642
3.42079
3.33732
3.25649
3.17872
3.1043
3.03341
2.96613
2.90238
2.84201
2.78482
2.73053
2.67886
2.62953
2.58225
2.53679
2.49294
2.45051
2.40936
2.36941
2.33057
2.29282
2.25615
2.22056
2.1861
2.15282
2.12081
2.09016
5.13888
4.99209
4.85138
4.71682
4.58854
4.46658
4.35085
4.24108
4.13681
4.03744
3.94231
3.85079
3.76231
3.67642
3.59282
3.51135
3.43198
3.35477
3.27985
3.20736
3.13744
3.07018
3.00565
2.94381
2.88462
2.82796
2.77366
2.72154
2.67143
2.62311
2.57642
2.53118
2.48726
2.44454
2.40295
2.36243
2.32294
2.28449
2.24707
2.21073
2.17552
2.1415
2.10876
2.07739
5.06634
4.92544
4.78993
4.65978
4.535
4.41556
4.30142
4.19243
4.08838
3.98898
3.89389
3.80274
3.71517
3.63087
3.54956
3.47103
3.39514
3.32178
3.2509
3.18247
3.11645
3.05282
2.99152
2.93248
2.8756
2.82077
2.76785
2.7167
2.66717
2.61912
2.57242
2.52696
2.48264
2.4394
2.39717
2.35595
2.31571
2.27648
2.23828
2.20116
2.16516
2.13038
2.09689
2.06479
5.02198
4.88628
4.7554
4.6293
4.50794
4.39128
4.27927
4.17182
4.06882
3.97011
3.87549
3.78474
3.69765
3.61398
3.53353
3.4561
3.38152
3.30965
3.24037
3.17356
3.10911
3.04692
2.98688
2.92889
2.87281
2.81853
2.76592
2.71485
2.66519
2.61684
2.56969
2.52366
2.47869
2.43471
2.39172
2.34969
2.30863
2.26857
2.22955
2.19162
2.15484
2.11928
2.08503
2.0522
4.99401
4.863
4.73633
4.61395
4.49583
4.38192
4.27217
4.16653
4.0649
3.96721
3.87331
3.78308
3.69636
3.61299
3.53281
3.45567
3.3814
3.30986
3.24091
3.1744
3.11022
3.04821
2.98826
2.93024
2.87401
2.81946
2.76644
2.71485
2.66459
2.61554
2.56763
2.52078
2.47496
2.43012
2.38624
2.34334
2.30141
2.2605
2.22064
2.18189
2.14432
2.10799
2.07299
2.03943
4.97571
4.84891
4.72604
4.60706
4.49193
4.38061
4.27306
4.16923
4.06906
3.97248
3.87941
3.78974
3.70337
3.62018
3.54005
3.46283
3.38841
3.31664
3.2474
3.18053
3.11592
3.05342
2.99291
2.93425
2.87732
2.82199
2.76814
2.71567
2.66449
2.61449
2.56562
2.51781
2.47102
2.42522
2.38041
2.33658
2.29376
2.25198
2.21128
2.17172
2.13336
2.09628
2.06055
2.02627
4.9642
4.84079
4.72102
4.60483
4.49219
4.38305
4.27738
4.17514
4.07627
3.98071
3.8884
3.79926
3.71321
3.63014
3.54995
3.47255
3.3978
3.3256
3.25581
3.18833
3.12301
3.05974
2.99839
2.93884
2.88097
2.82467
2.76983
2.71634
2.66413
2.61311
2.56323
2.51442
2.46665
2.4199
2.37417
2.32946
2.28579
2.24319
2.2017
2.16138
2.12229
2.0845
2.0481
2.01316
4.95578
4.83533
4.71825
4.6045
4.49404
4.38683
4.28283
4.182
4.08429
3.98966
3.89804
3.80937
3.72357
3.64058
3.56029
3.48263
3.40748
3.33476
3.26434
3.19612
3.13
3.06584
3.00356
2.94302
2.88413
2.82678
2.77088
2.71633
2.66306
2.611
2.56009
2.51028
2.46155
2.41387
2.36724
2.32167
2.27718
2.23379
2.19155
2.15051
2.11073
2.07228
2.03523
1.99967
4.94875
4.8311
4.71658
4.60515
4.49677
4.3914
4.289
4.18953
4.09294
3.99918
3.90821
3.81997
3.73439
3.65141
3.57095
3.49295
3.4173
3.34394
3.27276
3.20368
3.13659
3.0714
3.00801
2.94633
2.88626
2.82771
2.7706
2.71485
2.6604
2.60718
2.55514
2.50424
2.45445
2.40577
2.35818
2.31169
2.26633
2.22211
2.17908
2.13729
2.09679
2.05765
2.01995
1.98376
4.94302
4.82777
4.71547
4.60605
4.49948
4.39572
4.29471
4.19641
4.10078
4.00777
3.91733
3.82941
3.74395
3.6609
3.58019
3.50176
3.42553
3.35144
3.27941
3.20936
3.14121
3.07488
3.01028
2.94735
2.88599
2.82614
2.76773
2.71069
2.65496
2.60049
2.54725
2.49519
2.44429
2.39454
2.34594
2.29849
2.25221
2.20714
2.1633
2.12074
2.07951
2.03967
2.00132
4.93836
4.82492
4.71428
4.60638
4.50117
4.3986
4.29861
4.20117
4.10621
4.01369
3.92356
3.83578
3.75028
3.66701
3.58592
3.50696
3.43005
3.35515
3.28219
3.2111
3.14182
3.07428
3.00842
2.94418
2.88149
2.82028
2.76052
2.70213
2.64508
2.58933
2.53483
2.48157
2.42952
2.37868
2.32904
2.28061
2.23341
2.18747
2.14281
2.09948
2.05753
2.017
1.97798
4.93414
4.82175
4.71206
4.60502
4.50056
4.39862
4.29915
4.20209
4.10739
4.01498
3.92483
3.83688
3.75108
3.66738
3.58572
3.50606
3.42834
3.35251
3.27852
3.20632
3.13585
3.06706
2.99989
2.93431
2.87025
2.80768
2.74654
2.68679
2.62841
2.57136
2.51561
2.46114
2.40794
2.35601
2.30534
2.25594
2.20783
2.16104
2.11559
2.07152
2.02888
1.98771
1.94807
4.92906
4.81688
4.70735
4.6004
4.49596
4.39396
4.29435
4.19707
4.10205
4.00924
3.91859
3.83004
3.74355
3.65906
3.57653
3.4959
3.41714
3.34019
3.26501
3.19155
3.11978
3.04964
2.98111
2.91413
2.84867
2.7847
2.72218
2.66107
2.60136
2.54302
2.48603
2.43038
2.37605
2.32306
2.27139
2.22107
2.17211
2.12452
2.07834
2.03361
1.99036
1.94864
1.9085
4.92145
4.8085
4.69816
4.59034
4.48499
4.38203
4.2814
4.18305
4.08691
3.99294
3.90107
3.81126
3.72346
3.63761
3.55369
3.47163
3.39141
3.31298
3.23629
3.16132
3.08802
3.01636
2.9463
2.87782
2.81088
2.74545
2.68152
2.61905
2.55802
2.49843
2.44025
2.38347
2.32811
2.27414
2.22159
2.17045
2.12076
2.07252
2.02577
1.98054
1.93686
1.89478
1.85433
4.91371
4.79861
4.68608
4.57607
4.46851
4.36334
4.26051
4.15997
4.06165
3.96552
3.87151
3.7796
3.68973
3.60185
3.51593
3.43193
3.34981
3.26952
3.19104
3.11432
3.03933
2.96605
2.89444
2.82446
2.75611
2.68933
2.62413
2.56047
2.49833
2.43771
2.37859
2.32097
2.26483
2.21019
2.15705
2.10542
2.05531
2.00675
1.95976
1.91437
1.87061
1.82852
1.78814
4.91049
4.79218
4.67649
4.56338
4.45279
4.34468
4.239
4.13568
4.0347
3.93601
3.83955
3.74528
3.65316
3.56315
3.47521
3.38929
3.30535
3.22336
3.14327
3.06506
2.98867
2.91409
2.84128
2.7702
2.70083
2.63314
2.5671
2.5027
2.43991
2.37872
2.31912
2.26109
2.20464
2.14975
2.09645
2.04472
1.9946
1.94608
1.89921
1.854
1.81048
1.76868
1.72864
4.9131
4.79011
4.66993
4.55254
4.43787
4.32589
4.21655
4.10979
4.00557
3.90384
3.80454
3.70764
3.61307
3.5208
3.43077
3.34294
3.25725
3.17367
3.09214
3.01263
2.93509
2.85948
2.78577
2.7139
2.64386
2.5756
2.50909
2.44432
2.38125
2.31986
2.26014
2.20208
2.14566
2.09088
2.03774
1.98625
1.93642
1.88826
1.84179
1.79703
1.75401
1.71275
1.67328
4.92372
4.79463
4.66874
4.54602
4.42641
4.30984
4.19625
4.08559
3.97779
3.87278
3.77051
3.6709
3.5739
3.47943
3.38744
3.29786
3.21064
3.12571
3.04301
2.9625
2.88411
2.80779
2.7335
2.66118
2.5908
2.5223
2.45566
2.39084
2.3278
2.26652
2.20698
2.14916
2.09304
2.03862
1.98589
1.93486
1.88552
1.8379
1.79201
1.74786
1.70547
1.66488
1.62609
4.94743
4.81114
4.67866
4.54992
4.42482
4.30327
4.18518
4.07045
3.959
3.85073
3.74555
3.64336
3.54408
3.44762
3.35389
3.26281
3.17431
3.08829
3.00469
2.92344
2.84447
2.7677
2.69308
2.62054
2.55004
2.48152
2.41493
2.35023
2.28738
2.22635
2.16711
2.10964
2.05391
1.99992
1.94765
1.89711
1.8483
1.80123
1.7559
1.71234
1.67055
1.63057
1.59241
4.99729
4.85312
4.71355
4.57844
4.44763
4.32097
4.19832
4.07954
3.96449
3.85304
3.74505
3.6404
3.53897
3.44064
3.34529
3.25283
3.16314
3.07612
2.99169
2.90975
2.83021
2.753
2.67803
2.60524
2.53457
2.46594
2.3993
2.33461
2.27181
2.21087
2.15176
2.09444
2.0389
1.98511
1.93308
1.88278
1.83424
1.78744
1.7424
1.69914
1.65767
1.61801
1.58018
5.10423
4.95166
4.80458
4.66275
4.52592
4.39389
4.26643
4.14335
4.02445
3.90955
3.79848
3.69107
3.58717
3.48663
3.3893
3.29505
3.20375
3.11529
3.02955
2.94643
2.86581
2.78761
2.71174
2.63812
2.56666
2.49731
2.42999
2.36465
2.30125
2.23972
2.18005
2.1222
2.06614
2.01186
1.95934
1.90859
1.8596
1.81238
1.76693
1.72327
1.68142
1.64139
1.60321
5.34209
5.17975
5.02381
4.8739
4.72968
4.59086
4.45716
4.3283
4.20405
4.08419
3.96849
3.85675
3.74879
3.64442
3.54348
3.44581
3.35126
3.25969
3.17097
3.08497
3.00158
2.9207
2.84222
2.76605
2.69211
2.62032
2.55061
2.48293
2.41722
2.35342
2.29152
2.23146
2.17324
2.11682
2.06221
2.00939
1.95838
1.90917
1.86177
1.81621
1.77249
1.73065
1.69069
5.91689
5.73956
5.56947
5.40612
5.24911
5.09808
4.95271
4.81269
4.67774
4.5476
4.42202
4.30075
4.18359
4.07031
3.96073
3.85465
3.75191
3.65234
3.5558
3.46214
3.37124
3.28298
3.19724
3.11393
3.03295
2.95423
2.87769
2.80326
2.73089
2.66054
2.59216
2.52572
2.46121
2.3986
2.33789
2.27907
2.22216
2.16716
2.11409
2.06297
2.01382
1.96667
1.92155
7.66583
7.45055
7.24301
7.0429
6.84999
6.66406
6.4848
6.31189
6.145
5.98382
5.82804
5.67735
5.53147
5.39015
5.25312
5.12017
4.99108
4.86566
4.74371
4.62507
4.50959
4.39713
4.28755
4.18075
4.07662
3.97507
3.87601
3.77937
3.68511
3.59316
3.50351
3.4161
3.33095
3.24802
3.16734
3.08891
3.01275
2.93889
2.86737
2.79823
2.73152
2.66729
2.60559
17.7778
17.3115
16.8603
16.424
16.0023
15.5944
15.1996
14.817
14.446
14.0857
13.7355
13.3946
13.0626
12.7388
12.4229
12.1143
11.8127
11.5177
11.2291
10.9464
10.6696
10.3983
10.1324
9.87178
9.61626
9.36579
9.12031
8.87979
8.64426
8.41376
8.18838
7.96821
7.7534
7.54413
7.34058
7.14297
6.95154
6.76654
6.58822
6.41684
6.25267
6.09595
5.94693
)
;

boundaryField
{
    inlet
    {
        type            fixedValue;
        value           uniform 14.855;
    }
    outlet
    {
        type            zeroGradient;
    }
    upperWall
    {
        Cmu             0.09;
        kappa           0.41;
        E               9.8;
        type            epsilonWallFunction;
        value           nonuniform List<scalar> 
61
(
251.828
137.357
90.7745
67.1131
53.2838
44.4905
38.5278
34.2454
31.012
28.4688
26.4028
24.6822
23.2214
21.9621
20.8635
19.8954
19.0357
18.2701
17.7778
17.3115
16.8603
16.424
16.0023
15.5944
15.1996
14.817
14.446
14.0857
13.7355
13.3946
13.0626
12.7388
12.4229
12.1143
11.8127
11.5177
11.2291
10.9464
10.6696
10.3983
10.1324
9.87178
9.61626
9.36579
9.12031
8.87979
8.64426
8.41376
8.18838
7.96821
7.7534
7.54413
7.34058
7.14297
6.95154
6.76654
6.58822
6.41684
6.25267
6.09595
5.94693
)
;
    }
    lowerWall
    {
        Cmu             0.09;
        kappa           0.41;
        E               9.8;
        type            epsilonWallFunction;
        value           nonuniform List<scalar> 
89
(
307.542
159.141
103.233
76.2398
60.9865
51.4878
45.0912
40.4798
36.9702
34.1913
31.9287
30.0503
28.4696
27.1361
26.0109
25.0696
24.3416
23.9476
0.170905
0.948727
1.77756
2.50419
3.15982
3.75172
4.28329
4.75467
5.16258
5.50089
5.76141
5.9348
6.01155
5.98265
5.83914
5.57044
5.25384
4.8794
4.46157
4.02212
3.58585
3.18013
2.83521
2.58298
2.44735
2.65556
5.17482
0.170905
0.306111
0.528793
0.730648
0.9169
1.09358
1.26366
1.42888
1.59056
1.7498
1.90752
2.06448
2.22124
2.3782
2.53555
2.69333
2.85147
3.00981
3.16812
3.32624
3.48406
3.64174
3.79985
3.95962
4.12348
4.296
4.46556
4.62768
4.78177
4.92714
5.06297
5.18842
5.30262
5.40477
5.49412
5.57002
5.63196
5.67953
5.71251
5.73087
5.73478
5.72472
5.7015
5.66652
)
;
    }
    frontAndBack
    {
        type            empty;
    }
    procBoundary2to3
    {
        type            processor;
        value           nonuniform List<scalar> 
58
(
5.62204
2.66336
2.26064
2.18503
2.20028
2.24871
2.30881
2.37059
2.4285
2.47908
2.51992
2.54921
2.56557
2.56806
2.55631
2.53033
2.49096
2.44559
2.39863
2.35327
2.31144
2.27407
2.24134
2.21301
2.18858
2.16751
2.14927
2.13304
2.11775
2.10289
2.08845
2.0744
2.06071
2.04727
2.03398
2.02069
2.00723
1.99339
1.97965
1.96555
1.94901
1.96444
1.96444
1.94046
1.90999
1.86996
1.81555
1.74949
1.69038
1.63562
1.58914
1.55609
1.54418
1.56688
1.65263
1.87847
2.5465
5.8058
)
;
    }
}


// ************************************************************************* //
