/*--------------------------------*- C++ -*----------------------------------*\
  =========                 |
  \\      /  F ield         | OpenFOAM: The Open Source CFD Toolbox
   \\    /   O peration     | Website:  https://openfoam.org
    \\  /    A nd           | Version:  6
     \\/     M anipulation  |
\*---------------------------------------------------------------------------*/
FoamFile
{
    version     2.0;
    format      ascii;
    class       volScalarField;
    location    "0.06";
    object      k;
}
// * * * * * * * * * * * * * * * * * * * * * * * * * * * * * * * * * * * * * //

dimensions      [0 2 -2 0 0 0 0];

internalField   nonuniform List<scalar> 
3032
(
0.246434
0.158837
0.119026
0.0972468
0.0837983
0.074852
0.0685141
0.0637566
0.0600128
0.0569627
0.0544168
0.0522559
0.0504011
0.048806
0.0474378
0.0462749
0.0453591
0.0448443
0.339494
0.260114
0.208282
0.175364
0.153393
0.137862
0.126254
0.117161
0.10979
0.103669
0.0984967
0.0940693
0.0902421
0.0869163
0.0840174
0.0814868
0.0793242
0.0775008
0.347488
0.292336
0.248543
0.216274
0.192366
0.174252
0.160134
0.148815
0.139521
0.131744
0.12514
0.119468
0.114553
0.110269
0.106517
0.103224
0.100362
0.0979305
0.351365
0.309038
0.27192
0.242002
0.218279
0.199393
0.184152
0.171648
0.161224
0.152411
0.144873
0.138363
0.1327
0.127744
0.123385
0.119545
0.11618
0.113295
0.353915
0.319272
0.287233
0.259899
0.237174
0.218391
0.202793
0.189723
0.178657
0.169196
0.161033
0.153938
0.147735
0.142277
0.137458
0.133195
0.129437
0.12619
0.355677
0.326039
0.297902
0.27299
0.25156
0.233323
0.217818
0.204582
0.193212
0.18338
0.174822
0.167331
0.160741
0.154913
0.149743
0.14515
0.141082
0.137543
0.356918
0.330718
0.305602
0.282834
0.262758
0.245284
0.230138
0.216998
0.205562
0.195567
0.186792
0.179055
0.172204
0.166113
0.160684
0.155839
0.151529
0.147758
0.357803
0.334036
0.311269
0.290343
0.271569
0.254944
0.240305
0.227432
0.216098
0.206095
0.197241
0.189379
0.182371
0.176109
0.170499
0.165472
0.16098
0.157028
0.358434
0.336412
0.315472
0.296101
0.278521
0.262753
0.248696
0.236195
0.225078
0.215181
0.206354
0.198461
0.191385
0.185028
0.179307
0.174157
0.169538
0.165452
0.358882
0.338114
0.318585
0.300503
0.283984
0.269036
0.255585
0.243512
0.232687
0.222976
0.214255
0.206407
0.199333
0.192946
0.187172
0.181954
0.177253
0.173075
0.359196
0.339322
0.32087
0.303837
0.288238
0.274043
0.261184
0.249563
0.239071
0.229599
0.221039
0.213294
0.206278
0.199914
0.194136
0.188893
0.184152
0.17992
0.359395
0.340098
0.322385
0.306118
0.291229
0.277649
0.265299
0.254087
0.243916
0.234688
0.226311
0.218699
0.211775
0.205471
0.199727
0.194497
0.189753
0.185502
0.359536
0.340657
0.323506
0.307853
0.293559
0.280517
0.268631
0.257807
0.247951
0.238976
0.230796
0.223336
0.216525
0.210303
0.204615
0.199419
0.194692
0.190441
0.359644
0.34109
0.324401
0.309281
0.29553
0.283003
0.27158
0.261158
0.251644
0.242952
0.235004
0.22773
0.221067
0.214958
0.209355
0.20422
0.199533
0.195299
0.35972
0.341397
0.325054
0.310358
0.297064
0.284991
0.273996
0.263963
0.254791
0.246395
0.238699
0.231635
0.225145
0.219175
0.213682
0.208633
0.204007
0.199811
0.359768
0.341592
0.325481
0.311084
0.298133
0.28642
0.275782
0.266086
0.257225
0.249107
0.241656
0.234803
0.228492
0.222673
0.217303
0.212352
0.207801
0.203656
0.359794
0.341698
0.32572
0.311505
0.298773
0.287302
0.276914
0.267467
0.258843
0.250946
0.243694
0.237018
0.230861
0.225173
0.219914
0.215053
0.210572
0.206476
0.359804
0.341741
0.325818
0.311681
0.299047
0.287689
0.277424
0.268101
0.259598
0.251816
0.244669
0.238088
0.232012
0.226393
0.22119
0.216372
0.211922
0.207842
0.359801
0.341728
0.325787
0.311624
0.298956
0.287558
0.277246
0.267874
0.25932
0.251483
0.244281
0.237644
0.231512
0.225835
0.220574
0.215698
0.211189
0.207053
0.359775
0.341619
0.32554
0.311184
0.298277
0.286608
0.276006
0.266336
0.257487
0.249365
0.241892
0.235001
0.228632
0.222738
0.217277
0.212218
0.207544
0.20326
0.359715
0.341373
0.324999
0.310259
0.29691
0.28477
0.273697
0.263571
0.254294
0.245779
0.237949
0.230738
0.224085
0.21794
0.212257
0.207004
0.20216
0.197731
0.359585
0.340847
0.32389
0.308451
0.294359
0.281485
0.269724
0.258976
0.249149
0.240155
0.231914
0.224353
0.217406
0.211013
0.205123
0.199696
0.19471
0.190168
0.359328
0.339829
0.321843
0.305276
0.290083
0.276208
0.263575
0.252091
0.241655
0.232166
0.223529
0.215654
0.208461
0.201879
0.195845
0.190311
0.185248
0.180657
0.358859
0.338002
0.318352
0.300134
0.283468
0.268362
0.254743
0.242494
0.231478
0.221561
0.212617
0.20453
0.197199
0.190536
0.184464
0.178925
0.173879
0.169329
0.358049
0.334902
0.312731
0.292261
0.273781
0.257304
0.242698
0.229768
0.218308
0.208123
0.199041
0.190911
0.183603
0.177011
0.171044
0.165628
0.160718
0.156311
0.356705
0.329792
0.303947
0.280578
0.260034
0.242201
0.226775
0.213406
0.20177
0.191587
0.182622
0.174683
0.167612
0.161282
0.155588
0.150448
0.145805
0.141655
0.354514
0.32132
0.290208
0.263305
0.240673
0.221783
0.205969
0.192625
0.181256
0.171473
0.162977
0.155534
0.148963
0.143122
0.137896
0.133199
0.12897
0.125199
0.350895
0.306577
0.267876
0.237029
0.212824
0.19372
0.178402
0.165884
0.155466
0.146654
0.139097
0.13254
0.126792
0.121709
0.117182
0.113124
0.109476
0.106223
0.342433
0.275903
0.227213
0.193449
0.169702
0.152436
0.139358
0.129055
0.120674
0.113688
0.107753
0.102636
0.0981695
0.0942327
0.0907334
0.0876014
0.0847848
0.0822631
0.259299
0.173101
0.131334
0.107385
0.092075
0.0816452
0.0741786
0.0685767
0.0641913
0.0606342
0.0576665
0.0551358
0.0529409
0.051012
0.0492991
0.047765
0.0463819
0.0451327
0.00230147
0.00552861
0.00798482
0.00993137
0.0115614
0.0130067
0.0143259
0.0155522
0.0167079
0.0178092
0.0188685
0.0198951
0.0208957
0.0218749
0.0228359
0.0237804
0.024709
0.0256218
0.0265187
0.0273994
0.028264
0.0291137
0.0299514
0.030783
0.0316194
0.0324796
0.0333395
0.0341524
0.0349168
0.0356315
0.0362943
0.0369027
0.0374541
0.037946
0.0383758
0.0387417
0.0390417
0.0392747
0.0394398
0.0395371
0.0395669
0.039531
0.0394318
0.0392739
0.00717596
0.0157256
0.0203585
0.0240075
0.0271803
0.0300232
0.0326038
0.0349694
0.0371601
0.0392119
0.041156
0.0430191
0.0448228
0.0465844
0.0483173
0.0500312
0.0517327
0.053426
0.0551129
0.0567935
0.0584663
0.0601284
0.0617757
0.0634029
0.0650034
0.0665703
0.0680813
0.0695437
0.0709556
0.0723114
0.0736044
0.0748268
0.0759709
0.0770291
0.0779938
0.0788583
0.0796163
0.0802627
0.0807932
0.0812047
0.0814955
0.0816652
0.0817146
0.0816462
0.0109642
0.0228689
0.0289913
0.0335694
0.0374589
0.0409261
0.0440805
0.0469799
0.0496658
0.0521733
0.054534
0.0567756
0.0589225
0.060995
0.0630098
0.0649803
0.0669172
0.0688283
0.0707196
0.0725948
0.0744562
0.0763045
0.0781387
0.0799568
0.0817554
0.0835296
0.0852685
0.086969
0.088625
0.0902283
0.0917697
0.0932389
0.0946255
0.095919
0.0971091
0.0981864
0.0991421
0.0999685
0.100659
0.101209
0.101616
0.101876
0.10199
0.101959
0.013787
0.0283861
0.0357204
0.0410193
0.0454111
0.049272
0.0527642
0.0559694
0.0589376
0.0617054
0.0643037
0.0667594
0.0690965
0.0713363
0.0734972
0.0755953
0.0776442
0.0796551
0.0816375
0.0835985
0.0855438
0.0874768
0.0893994
0.0913117
0.0932115
0.0950947
0.0969528
0.0987802
0.100569
0.102311
0.103994
0.105606
0.107136
0.108571
0.109899
0.111109
0.112189
0.113131
0.113927
0.11457
0.115056
0.115382
0.115546
0.115549
0.0160944
0.0328154
0.0411522
0.047059
0.0518689
0.0560403
0.0597802
0.0631957
0.0663501
0.0692864
0.0720374
0.0746306
0.0770901
0.0794374
0.081692
0.0838712
0.0859904
0.0880632
0.0901011
0.0921138
0.0941089
0.096092
0.0980666
0.100034
0.101992
0.103939
0.105865
0.107767
0.109635
0.11146
0.11323
0.114932
0.116553
0.118079
0.119497
0.120794
0.121958
0.122978
0.123845
0.124552
0.125094
0.125467
0.125668
0.125699
0.0180316
0.0364579
0.0456226
0.0520407
0.0572066
0.0616399
0.0655813
0.0691591
0.0724502
0.0755051
0.078361
0.0810474
0.0835894
0.0860089
0.088326
0.0905589
0.0927239
0.0948358
0.0969075
0.0989501
0.100973
0.102982
0.104984
0.106978
0.108967
0.110944
0.112905
0.114845
0.116757
0.118629
0.120451
0.122208
0.123886
0.12547
0.126947
0.128301
0.129521
0.130594
0.13151
0.132263
0.132845
0.133252
0.133483
0.133538
0.0196738
0.0394801
0.0493248
0.0561657
0.0616287
0.0662812
0.070389
0.0740968
0.0774924
0.0806339
0.0835632
0.0863123
0.088908
0.0913732
0.0937285
0.0959925
0.0981823
0.100313
0.102399
0.104452
0.106482
0.108497
0.110503
0.112502
0.114496
0.116478
0.118448
0.120401
0.12233
0.124225
0.126073
0.12786
0.129572
0.131193
0.132707
0.134099
0.135357
0.136466
0.137418
0.138204
0.138817
0.139252
0.139509
0.139587
0.0210618
0.0419755
0.0523714
0.0595534
0.0652558
0.0700846
0.0743248
0.0781335
0.0816069
0.0848092
0.0877865
0.0905736
0.093199
0.0956867
0.0980578
0.100332
0.102525
0.104655
0.106736
0.108779
0.110796
0.112797
0.114786
0.116768
0.118745
0.120713
0.122671
0.124618
0.126546
0.128444
0.130302
0.132104
0.133834
0.135477
0.137015
0.138434
0.139719
0.140856
0.141836
0.142648
0.143288
0.14375
0.144032
0.144135
0.0222143
0.0439929
0.0548242
0.0622713
0.0681569
0.0731186
0.0774565
0.0813368
0.0848621
0.0881011
0.0911033
0.0939058
0.0965387
0.099027
0.101393
0.103655
0.105832
0.10794
0.109995
0.112008
0.113993
0.115958
0.117912
0.119858
0.121799
0.123734
0.125665
0.127589
0.129502
0.131393
0.133249
0.135055
0.136796
0.138453
0.140009
0.141449
0.142756
0.143918
0.144923
0.145763
0.146429
0.14692
0.147231
0.147366
0.0231353
0.0455532
0.0567126
0.0643539
0.070369
0.0754212
0.0798221
0.0837447
0.0872962
0.0905487
0.0935538
0.0963504
0.0989699
0.101438
0.103777
0.106008
0.108147
0.110213
0.112221
0.114185
0.116116
0.118027
0.119925
0.121817
0.123704
0.125591
0.12748
0.129372
0.13126
0.133134
0.134982
0.136788
0.138535
0.140204
0.141777
0.143237
0.144569
0.145757
0.14679
0.14766
0.148358
0.148881
0.149232
0.149412
0.023819
0.0466602
0.0580477
0.0658177
0.0719129
0.0770158
0.0814471
0.0853846
0.0889385
0.0921828
0.0951706
0.097942
0.100529
0.102958
0.105251
0.107429
0.109512
0.111515
0.113456
0.115348
0.117207
0.119043
0.120866
0.122685
0.124502
0.126326
0.128162
0.130011
0.131866
0.133718
0.135554
0.137358
0.13911
0.140792
0.142384
0.143868
0.145229
0.146448
0.147513
0.148417
0.149157
0.14973
0.150136
0.150376
0.0242534
0.0473098
0.0588325
0.066673
0.0728052
0.0779251
0.0823592
0.0862885
0.0898248
0.0930431
0.0959971
0.0987272
0.101265
0.103638
0.105868
0.107977
0.109983
0.111904
0.113757
0.115558
0.117323
0.119063
0.120791
0.122516
0.124247
0.125994
0.127765
0.12956
0.131375
0.1332
0.135021
0.136819
0.138577
0.140275
0.14189
0.143399
0.144787
0.146042
0.147152
0.14811
0.14891
0.14955
0.15003
0.150351
0.0244224
0.0474956
0.0590713
0.0669345
0.0730708
0.078183
0.0826007
0.0865062
0.090012
0.093193
0.0961024
0.0987804
0.101258
0.103563
0.105717
0.10774
0.109653
0.111474
0.11322
0.114909
0.116558
0.118181
0.119792
0.121402
0.123027
0.124683
0.126374
0.128103
0.129865
0.131653
0.133455
0.135243
0.136998
0.138702
0.140334
0.141874
0.143306
0.144614
0.145789
0.14682
0.147702
0.148431
0.149006
0.149427
0.0243073
0.0472145
0.0587761
0.0666297
0.0727516
0.0778447
0.082239
0.0861165
0.089589
0.0927304
0.0955929
0.0982157
0.100629
0.10286
0.104929
0.106857
0.108664
0.110369
0.111991
0.113549
0.11506
0.116542
0.118012
0.119484
0.120985
0.122531
0.124124
0.125765
0.127453
0.12918
0.130931
0.13269
0.134436
0.136148
0.137806
0.139389
0.14088
0.142261
0.14352
0.144646
0.145632
0.146473
0.147167
0.147713
0.0238826
0.046466
0.0579702
0.0658042
0.0719134
0.0769943
0.0813743
0.0852338
0.0886829
0.0917941
0.0946181
0.0971926
0.0995474
0.101706
0.10369
0.10552
0.107214
0.108794
0.110279
0.111689
0.113043
0.114363
0.115665
0.116978
0.118325
0.119721
0.121176
0.122693
0.124271
0.125907
0.127588
0.129301
0.131028
0.132747
0.134436
0.136074
0.137639
0.139112
0.140477
0.141722
0.142835
0.143811
0.144645
0.145336
0.0231367
0.0451863
0.0566427
0.0644849
0.0706116
0.0757096
0.0801031
0.0839705
0.0874202
0.0905227
0.0933271
0.0958691
0.0981766
0.100273
0.102178
0.103912
0.105493
0.106942
0.108279
0.109526
0.110704
0.111836
0.112944
0.114069
0.115227
0.116436
0.117706
0.119049
0.120471
0.121973
0.123551
0.125195
0.126889
0.128613
0.13034
0.132045
0.133703
0.135288
0.136781
0.138165
0.139427
0.140558
0.141552
0.142405
0.0222367
0.0435199
0.054954
0.0628501
0.0690412
0.074202
0.0786526
0.0825695
0.0860591
0.0891906
0.0920111
0.0945547
0.0968477
0.0989117
0.100766
0.102428
0.103916
0.105249
0.106447
0.10753
0.108523
0.10945
0.110347
0.111243
0.112157
0.113108
0.114119
0.115211
0.116404
0.117711
0.119141
0.120687
0.122335
0.124061
0.125832
0.127617
0.129381
0.131094
0.132729
0.134265
0.135685
0.136978
0.138137
0.139156
0.0211552
0.0416115
0.0530556
0.0610674
0.067385
0.0726666
0.0772284
0.0812453
0.0848231
0.08803
0.0909125
0.0935035
0.0958281
0.0979062
0.0997553
0.101391
0.102831
0.10409
0.105186
0.106141
0.106974
0.107713
0.108394
0.109035
0.109661
0.110302
0.110997
0.111786
0.11271
0.1138
0.11507
0.116518
0.118126
0.119861
0.121683
0.123547
0.125412
0.127241
0.129002
0.130669
0.132223
0.133652
0.134947
0.136103
0.0199239
0.0395638
0.051027
0.0592023
0.0657019
0.0711597
0.0758864
0.0800552
0.0837719
0.0871044
0.0900989
0.0927879
0.095195
0.0973388
0.0992342
0.100895
0.102333
0.103563
0.104597
0.105451
0.106143
0.1067
0.107138
0.107483
0.107772
0.108058
0.108403
0.108876
0.109538
0.110432
0.111575
0.11296
0.114555
0.116317
0.118193
0.12013
0.122078
0.123995
0.125847
0.127607
0.129254
0.130777
0.132165
0.133416
0.0185945
0.0374772
0.0489469
0.0573128
0.0640373
0.0697207
0.0746639
0.0790371
0.0829448
0.0864551
0.0896137
0.0924521
0.0949925
0.0972509
0.0992391
0.100966
0.10244
0.103668
0.104657
0.105416
0.105953
0.10628
0.10642
0.106415
0.106329
0.106245
0.106261
0.106468
0.10694
0.107717
0.108807
0.110186
0.111807
0.113612
0.115538
0.117526
0.119524
0.121488
0.123384
0.125186
0.126875
0.12844
0.129873
0.131171
0.0172337
0.0354652
0.0469347
0.0555097
0.0624955
0.06845
0.0736596
0.0782883
0.0824383
0.0861764
0.089547
0.0925796
0.0952932
0.0976997
0.0998056
0.101614
0.103125
0.104337
0.105249
0.105853
0.106151
0.106162
0.105934
0.10554
0.105086
0.104692
0.104479
0.104546
0.104957
0.105733
0.106859
0.108289
0.109962
0.11181
0.113766
0.11577
0.117773
0.119733
0.121619
0.12341
0.125088
0.126644
0.128073
0.129373
0.0159258
0.0336729
0.0451946
0.0540213
0.0613121
0.0675834
0.0731059
0.0780364
0.0824724
0.086477
0.0900906
0.0933382
0.096233
0.0987802
0.100979
0.102822
0.104303
0.10541
0.106121
0.106431
0.106363
0.10597
0.10534
0.104595
0.103877
0.103325
0.10306
0.103158
0.103654
0.104537
0.105765
0.107277
0.109002
0.11087
0.112819
0.114794
0.116752
0.118656
0.120483
0.122213
0.123833
0.125337
0.126721
0.127984
0.0147785
0.032334
0.0440805
0.0532638
0.0609305
0.0675731
0.0734537
0.0787203
0.0834619
0.0877342
0.0915705
0.0949882
0.0979935
0.100583
0.102749
0.104476
0.105752
0.106543
0.106852
0.106712
0.106189
0.105388
0.104443
0.103508
0.102733
0.102243
0.102122
0.102408
0.103093
0.10414
0.105489
0.107071
0.108818
0.110668
0.112565
0.114465
0.116331
0.118137
0.119862
0.121493
0.12302
0.124438
0.125745
0.126942
0.0139192
0.0319237
0.0442476
0.0540164
0.0622046
0.0692978
0.0755587
0.0811301
0.086095
0.0905053
0.0943921
0.0977711
0.100647
0.103014
0.104867
0.106184
0.106948
0.107187
0.10695
0.10632
0.105412
0.104368
0.103339
0.102472
0.101883
0.101654
0.101817
0.102369
0.103274
0.104477
0.105917
0.107528
0.109252
0.111037
0.112839
0.114624
0.116365
0.11804
0.119636
0.121141
0.12255
0.12386
0.12507
0.12618
0.0134553
0.0335313
0.0472298
0.0581055
0.0670189
0.0744934
0.0808764
0.0863729
0.0911078
0.0951644
0.098597
0.101439
0.103713
0.105415
0.106543
0.107126
0.107208
0.106856
0.106159
0.105233
0.104209
0.103222
0.102398
0.101837
0.101606
0.101733
0.102215
0.103021
0.104105
0.105411
0.106884
0.108471
0.110124
0.111805
0.11348
0.115123
0.116715
0.118241
0.11969
0.121056
0.122334
0.123523
0.124623
0.125635
0.0142497
0.0412607
0.0571693
0.0691749
0.0780282
0.0846834
0.0899109
0.0941429
0.0976083
0.100435
0.102695
0.104429
0.105656
0.106413
0.106734
0.106662
0.10626
0.105605
0.104794
0.103931
0.103122
0.102465
0.102037
0.101892
0.102051
0.102514
0.103257
0.104244
0.105429
0.106768
0.108214
0.109728
0.111273
0.112821
0.114348
0.115835
0.117268
0.118637
0.119934
0.121154
0.122296
0.123359
0.124344
0.125253
0.0224088
0.0552142
0.0711358
0.0809659
0.0874619
0.0920882
0.0956028
0.0983723
0.100574
0.102303
0.103618
0.104554
0.105141
0.10541
0.105398
0.105151
0.104727
0.104195
0.103631
0.103112
0.102709
0.102483
0.102474
0.102705
0.103178
0.103879
0.104784
0.10586
0.107069
0.108377
0.109749
0.111155
0.112569
0.11397
0.11534
0.116666
0.117938
0.119149
0.120294
0.121371
0.122378
0.123316
0.124186
0.12499
0.0483458
0.0554699
0.0645218
0.0735303
0.0813068
0.0874903
0.0921969
0.0957151
0.0983315
0.100268
0.101681
0.102676
0.103331
0.103706
0.103856
0.103835
0.103701
0.103514
0.103334
0.103216
0.103209
0.103351
0.103663
0.104156
0.104826
0.105657
0.10663
0.107716
0.108889
0.110122
0.111388
0.112666
0.113936
0.115183
0.116394
0.11756
0.118674
0.119731
0.120728
0.121665
0.12254
0.123354
0.12411
0.12481
0.0771625
0.0778759
0.0796137
0.0822203
0.0854037
0.0887654
0.091952
0.0947556
0.0971018
0.0989957
0.10048
0.101609
0.102441
0.103031
0.10343
0.103691
0.103865
0.104002
0.104148
0.104344
0.104625
0.105014
0.105527
0.106167
0.106928
0.107801
0.108766
0.109804
0.110894
0.112016
0.113151
0.114283
0.115397
0.116481
0.117528
0.11853
0.119483
0.120384
0.121232
0.122026
0.122766
0.123455
0.124093
0.124684
0.0966892
0.0958616
0.0954436
0.0954852
0.0959854
0.0968628
0.0979815
0.0992008
0.100407
0.101521
0.102501
0.103329
0.104009
0.104556
0.104995
0.105353
0.105665
0.10596
0.106271
0.106624
0.107041
0.107537
0.108119
0.10879
0.109544
0.110371
0.111258
0.11219
0.113151
0.114125
0.115099
0.11606
0.116998
0.117906
0.118775
0.119603
0.120387
0.121124
0.121814
0.122458
0.123058
0.123613
0.124128
0.124604
0.111604
0.110214
0.109027
0.10808
0.1074
0.10699
0.10682
0.10684
0.106995
0.107233
0.107509
0.107795
0.108071
0.10833
0.108573
0.108809
0.109049
0.109309
0.109602
0.109943
0.110342
0.110807
0.111338
0.111935
0.112592
0.1133
0.114048
0.114824
0.115615
0.11641
0.117198
0.11797
0.118717
0.119434
0.120117
0.120762
0.121369
0.121935
0.122463
0.122952
0.123404
0.123822
0.124207
0.124563
0.124172
0.122454
0.120869
0.119436
0.118174
0.117096
0.116205
0.115487
0.114924
0.114493
0.114168
0.11393
0.11376
0.113648
0.113587
0.113574
0.11361
0.113698
0.113843
0.114047
0.114313
0.114642
0.11503
0.115474
0.115967
0.116499
0.117062
0.117645
0.118237
0.118829
0.119412
0.119979
0.120523
0.121042
0.12153
0.121987
0.122411
0.122803
0.123163
0.123493
0.123795
0.12407
0.124322
0.124552
0.135262
0.133309
0.131462
0.129731
0.128128
0.126662
0.125342
0.124168
0.123136
0.122238
0.121463
0.120801
0.120242
0.119775
0.119395
0.119096
0.118874
0.118726
0.118652
0.118648
0.118713
0.118841
0.119028
0.119268
0.119552
0.119872
0.120219
0.120584
0.120957
0.12133
0.121696
0.122049
0.122385
0.122699
0.122988
0.123253
0.123493
0.123707
0.123898
0.124066
0.124215
0.124345
0.12446
0.124561
0.145261
0.143124
0.141083
0.139142
0.137308
0.135587
0.133987
0.132511
0.131161
0.129934
0.128829
0.12784
0.126961
0.126189
0.125516
0.124939
0.124452
0.124052
0.123733
0.123492
0.123323
0.12322
0.123176
0.123185
0.123237
0.123325
0.12344
0.123573
0.123716
0.123863
0.124007
0.124142
0.124265
0.124373
0.124463
0.124535
0.124589
0.124626
0.124646
0.124653
0.124646
0.12463
0.124606
0.124577
0.154356
0.152073
0.149879
0.147778
0.145772
0.143867
0.142066
0.140375
0.138795
0.137327
0.135972
0.134728
0.133592
0.132562
0.131634
0.130804
0.130068
0.129421
0.128859
0.128376
0.127966
0.127622
0.127339
0.127107
0.12692
0.126769
0.126647
0.126545
0.126457
0.126377
0.126297
0.126216
0.126127
0.12603
0.125922
0.125804
0.125674
0.125534
0.125386
0.12523
0.12507
0.124907
0.124744
0.124584
0.162639
0.160239
0.157925
0.155696
0.153556
0.151508
0.149555
0.147699
0.145944
0.144291
0.14274
0.141291
0.139945
0.138698
0.137549
0.136495
0.135532
0.134656
0.133863
0.133147
0.132503
0.131924
0.131405
0.130937
0.130513
0.130127
0.129771
0.129438
0.129123
0.128819
0.128522
0.128227
0.127932
0.127634
0.127333
0.127027
0.126717
0.126404
0.12609
0.125775
0.125463
0.125155
0.124854
0.124562
0.170153
0.167662
0.165252
0.162923
0.160676
0.158515
0.15644
0.154454
0.152558
0.150755
0.149045
0.147429
0.145906
0.144475
0.143135
0.141883
0.140717
0.139633
0.138627
0.137695
0.136831
0.136029
0.135285
0.134591
0.133941
0.133329
0.132749
0.132194
0.13166
0.131141
0.130634
0.130134
0.12964
0.129148
0.128659
0.128173
0.127688
0.127207
0.12673
0.12626
0.125799
0.125349
0.124912
0.12449
0.176914
0.174355
0.171871
0.169464
0.167133
0.16488
0.162707
0.160615
0.158605
0.156678
0.154836
0.153078
0.151405
0.149816
0.14831
0.146884
0.145537
0.144266
0.143066
0.141936
0.140869
0.139861
0.138907
0.138002
0.13714
0.136316
0.135525
0.134761
0.134019
0.133297
0.13259
0.131895
0.13121
0.130534
0.129865
0.129204
0.128552
0.127909
0.127276
0.126655
0.12605
0.125461
0.124891
0.124342
0.182455
0.179857
0.177327
0.174868
0.17248
0.170164
0.167921
0.165751
0.163657
0.161639
0.159696
0.157831
0.156042
0.154329
0.152691
0.151127
0.149634
0.14821
0.146851
0.145556
0.144319
0.143138
0.142007
0.140921
0.139877
0.13887
0.137896
0.136949
0.136027
0.135126
0.134243
0.133376
0.132522
0.131681
0.130853
0.130036
0.129233
0.128443
0.127669
0.126912
0.126175
0.125459
0.124767
0.124102
0.187362
0.184733
0.182169
0.179669
0.177234
0.174865
0.172562
0.170327
0.16816
0.166062
0.164032
0.162072
0.16018
0.158357
0.156602
0.154912
0.153287
0.151725
0.150223
0.148778
0.147387
0.146046
0.144753
0.143503
0.142293
0.141119
0.139976
0.138862
0.137774
0.136709
0.135664
0.134637
0.133628
0.132634
0.131657
0.130696
0.129752
0.128826
0.12792
0.127035
0.126174
0.125338
0.124532
0.123756
0.192197
0.189542
0.186946
0.184408
0.181929
0.179509
0.177149
0.174848
0.172609
0.17043
0.168313
0.166256
0.164261
0.162326
0.16045
0.158633
0.156874
0.15517
0.15352
0.151921
0.150371
0.148868
0.147408
0.145989
0.144607
0.14326
0.141945
0.140659
0.139399
0.138164
0.136951
0.13576
0.134589
0.133438
0.132307
0.131195
0.130105
0.129037
0.127993
0.126975
0.125985
0.125025
0.124097
0.123206
0.196697
0.194024
0.191403
0.188833
0.186316
0.18385
0.181437
0.179076
0.176768
0.174512
0.17231
0.17016
0.168063
0.166018
0.164024
0.162082
0.160189
0.158345
0.156548
0.154796
0.153089
0.151422
0.149796
0.148207
0.146654
0.145134
0.143644
0.142185
0.140752
0.139345
0.137964
0.136606
0.135271
0.133959
0.132671
0.131407
0.130168
0.128955
0.12777
0.126615
0.125492
0.124404
0.123353
0.200543
0.19786
0.195221
0.192627
0.190077
0.187571
0.18511
0.182694
0.180323
0.177996
0.175714
0.173476
0.171282
0.169133
0.167027
0.164964
0.162944
0.160965
0.159027
0.157128
0.155268
0.153445
0.151658
0.149904
0.148184
0.146495
0.144837
0.143208
0.141606
0.140031
0.138483
0.136961
0.135465
0.133995
0.132552
0.131136
0.129749
0.128392
0.127068
0.125777
0.124522
0.123306
0.122132
0.203366
0.200675
0.19802
0.195403
0.192824
0.190282
0.187776
0.185308
0.182877
0.180483
0.178126
0.175806
0.173522
0.171275
0.169064
0.166889
0.164749
0.162645
0.160575
0.158539
0.156536
0.154566
0.152628
0.150721
0.148845
0.146998
0.14518
0.143391
0.141631
0.139898
0.138193
0.136515
0.134867
0.133246
0.131656
0.130096
0.128568
0.127074
0.125616
0.124196
0.122816
0.121478
0.120186
0.204721
0.202007
0.199325
0.196674
0.194056
0.191468
0.188912
0.186386
0.183892
0.181428
0.178996
0.176594
0.174222
0.171881
0.16957
0.167289
0.165039
0.162819
0.160628
0.158467
0.156335
0.154232
0.152158
0.150113
0.148096
0.146108
0.144148
0.142217
0.140314
0.13844
0.136594
0.134778
0.132993
0.131239
0.129517
0.127828
0.126175
0.124559
0.122983
0.121447
0.119956
0.11851
0.117114
0.203874
0.201099
0.198353
0.195635
0.192946
0.190286
0.187655
0.185051
0.182475
0.179928
0.177408
0.174916
0.172452
0.170015
0.167606
0.165225
0.162871
0.160545
0.158246
0.155975
0.153732
0.151516
0.149329
0.147169
0.145037
0.142934
0.140859
0.138813
0.136796
0.13481
0.132854
0.130929
0.129037
0.127179
0.125355
0.123568
0.121819
0.12011
0.118443
0.116821
0.115246
0.113721
0.112248
0.199967
0.197083
0.194231
0.19141
0.18862
0.185862
0.183135
0.180438
0.177772
0.175135
0.172529
0.169953
0.167407
0.16489
0.162403
0.159945
0.157517
0.155118
0.152748
0.150407
0.148095
0.145812
0.143559
0.141336
0.139141
0.136977
0.134843
0.13274
0.130668
0.128628
0.12662
0.124646
0.122706
0.120802
0.118935
0.117107
0.11532
0.113575
0.111874
0.110221
0.108617
0.107066
0.105569
0.194338
0.191358
0.188415
0.185509
0.18264
0.179807
0.17701
0.174249
0.171522
0.168831
0.166174
0.163551
0.160961
0.158405
0.155882
0.153392
0.150934
0.148509
0.146115
0.143754
0.141424
0.139125
0.136858
0.134623
0.132419
0.130247
0.128107
0.126
0.123925
0.121884
0.119876
0.117904
0.115968
0.114068
0.112207
0.110387
0.108608
0.106872
0.105183
0.103542
0.101952
0.100415
0.0989334
0.186708
0.183661
0.180658
0.1777
0.174786
0.171914
0.169084
0.166297
0.16355
0.160843
0.158176
0.155548
0.152958
0.150405
0.14789
0.145411
0.142968
0.140561
0.138188
0.13585
0.133546
0.131276
0.12904
0.126837
0.124668
0.122532
0.120429
0.11836
0.116325
0.114324
0.112358
0.110428
0.108535
0.106679
0.104862
0.103086
0.101352
0.0996621
0.0980183
0.096423
0.0948785
0.0933873
0.0919521
0.177188
0.174122
0.171109
0.168149
0.165238
0.162378
0.159566
0.156802
0.154084
0.151412
0.148784
0.146199
0.143656
0.141155
0.138694
0.136273
0.13389
0.131546
0.129239
0.126968
0.124733
0.122534
0.120369
0.118239
0.116144
0.114082
0.112055
0.110061
0.108102
0.106177
0.104287
0.102433
0.100616
0.0988354
0.0970938
0.0953924
0.0937326
0.0921164
0.0905456
0.0890225
0.0875495
0.0861289
0.0847632
0.165924
0.162901
0.159939
0.157036
0.15419
0.151399
0.148661
0.145976
0.143342
0.140757
0.138219
0.135728
0.133282
0.130879
0.128519
0.126201
0.123922
0.121683
0.119482
0.117319
0.115192
0.113101
0.111044
0.109023
0.107036
0.105082
0.103162
0.101276
0.0994225
0.0976033
0.0958182
0.0940678
0.0923527
0.090674
0.0890327
0.0874302
0.085868
0.0843479
0.0828718
0.0814417
0.08006
0.0787289
0.0774509
0.153053
0.150144
0.1473
0.144519
0.1418
0.139139
0.136535
0.133986
0.131489
0.129044
0.126647
0.124298
0.121995
0.119737
0.117521
0.115347
0.113213
0.111117
0.10906
0.107039
0.105054
0.103104
0.101188
0.0993049
0.0974551
0.0956377
0.0938524
0.0920992
0.0903778
0.0886885
0.0870316
0.0854075
0.0838169
0.0822608
0.0807401
0.0792562
0.0778104
0.0764046
0.0750404
0.0737199
0.0724453
0.0712187
0.0700425
0.138632
0.135909
0.133253
0.130661
0.128132
0.125662
0.123249
0.120891
0.118585
0.11633
0.114123
0.111962
0.109846
0.107773
0.105741
0.103749
0.101795
0.0998785
0.0979975
0.0961512
0.0943385
0.0925585
0.0908103
0.0890933
0.0874068
0.0857504
0.0841238
0.0825267
0.0809591
0.0794211
0.0779129
0.0764351
0.0749883
0.0735733
0.072191
0.0708428
0.0695301
0.0682543
0.0670173
0.0658209
0.0646672
0.0635582
0.062496
0.122498
0.120037
0.11764
0.115306
0.113031
0.110813
0.108649
0.106537
0.104474
0.102459
0.100488
0.0985611
0.096675
0.0948284
0.0930196
0.0912471
0.0895095
0.0878054
0.0861337
0.0844933
0.082883
0.0813022
0.0797498
0.0782254
0.0767282
0.0752579
0.0738141
0.0723968
0.0710058
0.0696412
0.0683034
0.0669927
0.0657099
0.0644556
0.0632309
0.0620368
0.0608748
0.0597462
0.0586527
0.057596
0.0565778
0.0556002
0.054665
0.10394
0.101824
0.0997679
0.0977678
0.0958213
0.0939257
0.0920785
0.0902771
0.0885191
0.0868025
0.0851251
0.083485
0.0818805
0.0803101
0.0787721
0.0772651
0.075788
0.0743395
0.0729185
0.0715241
0.0701554
0.0688116
0.0674921
0.0661962
0.0649236
0.0636737
0.0624465
0.0612417
0.0600594
0.0588997
0.0577629
0.0566494
0.0555598
0.0544948
0.0534553
0.0524422
0.0514567
0.0505001
0.0495738
0.0486792
0.0478178
0.0469913
0.0462012
0.0805361
0.0789034
0.0773197
0.0757825
0.0742886
0.0728353
0.07142
0.0700402
0.0686941
0.0673796
0.0660953
0.0648395
0.0636109
0.0624082
0.0612303
0.0600761
0.0589446
0.057835
0.0567463
0.055678
0.0546292
0.0535995
0.0525883
0.0515952
0.0506198
0.0496618
0.0487211
0.0477976
0.0468913
0.0460022
0.0451305
0.0442766
0.0434408
0.0426236
0.0418256
0.0410475
0.04029
0.039554
0.0388404
0.0381503
0.0374847
0.0368448
0.0362315
0.0443058
0.043501
0.0427155
0.0419495
0.0412026
0.0404742
0.0397631
0.0390685
0.0383891
0.0377241
0.0370724
0.036433
0.0358053
0.0351883
0.0345814
0.033984
0.0333955
0.0328153
0.0322431
0.0316783
0.0311207
0.0305699
0.0300256
0.0294876
0.0289558
0.02843
0.0279102
0.0273964
0.0268887
0.0263872
0.0258921
0.0254037
0.0249223
0.0244485
0.0239826
0.0235253
0.0230772
0.022639
0.0222114
0.0217954
0.0213917
0.0210012
0.0206247
)
;

boundaryField
{
    inlet
    {
        type            fixedValue;
        value           uniform 0.375;
    }
    outlet
    {
        type            zeroGradient;
    }
    upperWall
    {
        type            kqRWallFunction;
        value           nonuniform List<scalar> 
61
(
0.259299
0.173101
0.131334
0.107385
0.092075
0.0816452
0.0741786
0.0685767
0.0641913
0.0606342
0.0576665
0.0551358
0.0529409
0.051012
0.0492991
0.047765
0.0463819
0.0451327
0.0443058
0.043501
0.0427155
0.0419495
0.0412026
0.0404742
0.0397631
0.0390685
0.0383891
0.0377241
0.0370724
0.036433
0.0358053
0.0351883
0.0345814
0.033984
0.0333955
0.0328153
0.0322431
0.0316783
0.0311207
0.0305699
0.0300256
0.0294876
0.0289558
0.02843
0.0279102
0.0273964
0.0268887
0.0263872
0.0258921
0.0254037
0.0249223
0.0244485
0.0239826
0.0235253
0.0230772
0.022639
0.0222114
0.0217954
0.0213917
0.0210012
0.0206247
)
;
    }
    lowerWall
    {
        type            kqRWallFunction;
        value           nonuniform List<scalar> 
89
(
0.246434
0.158837
0.119026
0.0972468
0.0837983
0.074852
0.0685141
0.0637566
0.0600128
0.0569627
0.0544168
0.0522559
0.0504011
0.048806
0.0474378
0.0462749
0.0453591
0.0448443
0.00230147
0.00717596
0.0109642
0.013787
0.0160944
0.0180316
0.0196738
0.0210618
0.0222143
0.0231353
0.023819
0.0242534
0.0244224
0.0243073
0.0238826
0.0231367
0.0222367
0.0211552
0.0199239
0.0185945
0.0172337
0.0159258
0.0147785
0.0139192
0.0134553
0.0142497
0.0224088
0.00230147
0.00552861
0.00798482
0.00993137
0.0115614
0.0130067
0.0143259