/*--------------------------------*- C++ -*----------------------------------*\
  =========                 |
  \\      /  F ield         | OpenFOAM: The Open Source CFD Toolbox
   \\    /   O peration     | Website:  https://openfoam.org
    \\  /    A nd           | Version:  6
     \\/     M anipulation  |
\*---------------------------------------------------------------------------*/
FoamFile
{
    version     2.0;
    format      ascii;
    class       volScalarField;
    location    "0.06";
    object      nut;
}
// * * * * * * * * * * * * * * * * * * * * * * * * * * * * * * * * * * * * * //

dimensions      [0 2 -1 0 0 0 0];

internalField   nonuniform List<scalar> 
3032
(
1.77721e-05
1.4268e-05
1.2351e-05
1.11638e-05
1.03628e-05
9.79367e-06
9.36938e-06
9.03763e-06
8.76755e-06
8.54098e-06
8.34692e-06
8.17834e-06
8.03049e-06
7.90025e-06
7.78638e-06
7.68751e-06
7.60717e-06
7.55779e-06
0.000144882
0.000101917
8.79127e-05
8.05684e-05
7.6132e-05
7.31755e-05
7.09019e-05
6.89306e-05
6.71361e-05
6.54925e-05
6.39936e-05
6.26337e-05
6.14038e-05
6.02899e-05
5.92859e-05
5.83981e-05
5.76724e-05
5.71917e-05
0.00032334
0.0002236
0.000189845
0.000172638
0.000162153
0.000155114
0.000149921
0.000145737
0.000142161
0.000139014
0.000136207
0.000133695
0.000131451
0.00012945
0.000127666
0.000126118
0.000124874
0.000124112
0.000493988
0.000355282
0.000299513
0.000269758
0.000251284
0.000238764
0.000229648
0.000222563
0.000216771
0.000211871
0.000207636
0.000203934
0.000200691
0.000197838
0.000195333
0.000193183
0.000191447
0.000190284
0.000624491
0.000478736
0.000407463
0.000366375
0.000339879
0.00032152
0.000308053
0.000297669
0.000289329
0.000282421
0.000276573
0.000271552
0.000267222
0.000263449
0.000260173
0.000257374
0.000255087
0.000253428
0.000713129
0.000583422
0.000506647
0.000458115
0.000425199
0.00040166
0.000384072
0.000370416
0.000359466
0.000350456
0.000342898
0.000336472
0.000330971
0.00032621
0.000322098
0.000318587
0.000315683
0.000313461
0.000769338
0.000665649
0.000592442
0.000541386
0.000504667
0.000477381
0.000456469
0.000439982
0.000426656
0.000415664
0.000406449
0.000398639
0.00039195
0.000386178
0.000381199
0.000376938
0.000373373
0.000370548
0.000803483
0.000726373
0.000662687
0.000613661
0.000576087
0.000546928
0.000523892
0.000505346
0.000490148
0.0004775
0.000466843
0.000457782
0.000449989
0.000443257
0.000437439
0.000432437
0.000428211
0.000424776
0.000823648
0.000768988
0.000717359
0.000673663
0.000637904
0.000608822
0.000585051
0.000565431
0.000549059
0.000535256
0.00052352
0.000513448
0.000504739
0.000497181
0.000490618
0.000484943
0.000480102
0.000476088
0.000835335
0.000797648
0.000757967
0.000721339
0.000689356
0.000662053
0.000638903
0.000619257
0.000602512
0.000588164
0.000575801
0.000565071
0.000555717
0.000547542
0.000540395
0.000534172
0.000528811
0.000524293
0.000842025
0.000816243
0.000786859
0.000757626
0.000730495
0.000706192
0.000684792
0.000666083
0.00064976
0.000635509
0.000623021
0.000612047
0.000602381
0.000593856
0.000586341
0.000579741
0.000574002
0.000569091
0.000845515
0.000826977
0.000804961
0.000781879
0.000759402
0.000738431
0.000719334
0.000702175
0.000686866
0.000673235
0.000661105
0.000650308
0.000640691
0.000632127
0.000624511
0.000617767
0.000611849
0.000606731
0.000847625
0.000833975
0.000817565
0.000799714
0.000781614
0.000764085
0.000747597
0.00073237
0.000718455
0.000705818
0.000694383
0.000684058
0.000674747
0.000666364
0.000658835
0.000652104
0.000646141
0.000640919
0.000848986
0.000838802
0.000826839
0.000813611
0.000799778
0.000785921
0.000772457
0.000759647
0.000747631
0.000736467
0.000726164
0.000716697
0.000708027
0.000700112
0.000692912
0.0006864
0.000680557
0.000675359
0.000849787
0.000841811
0.000832983
0.000823365
0.0008132
0.000802784
0.000792387
0.000782219
0.000772428
0.000763109
0.000754315
0.000746071
0.00073838
0.000731241
0.000724645
0.000718589
0.000713071
0.000708069
0.000850212
0.000843482
0.000836587
0.000829412
0.000821962
0.000814316
0.000806585
0.00079888
0.000791299
0.000783921
0.000776802
0.000769985
0.000763496
0.000757355
0.000751578
0.000746181
0.000741172
0.000736527
0.000850411
0.00084429
0.000838408
0.000832619
0.000826838
0.000821029
0.000815194
0.000809355
0.000803546
0.000797805
0.000792166
0.000786663
0.000781322
0.000776169
0.000771229
0.000766526
0.000762074
0.000757845
0.000850482
0.000844586
0.000839096
0.000833876
0.000828823
0.000823861
0.000818948
0.000814061
0.000809194
0.000804354
0.000799554
0.000794812
0.000790147
0.000785581
0.000781139
0.000776845
0.000772713
0.00076871
0.000850461
0.000844496
0.000838887
0.000833494
0.000828217
0.000822992
0.000817784
0.000812581
0.000807386
0.000802212
0.000797076
0.000791998
0.000786998
0.000782099
0.000777325
0.0007727
0.000768239
0.000763912
0.000850262
0.000843688
0.000837054
0.000830232
0.000823195
0.000815981
0.000808658
0.000801305
0.000793997
0.000786796
0.00077975
0.000772897
0.000766264
0.000759871
0.000753738
0.000747881
0.00074231
0.000736995
0.000849705
0.00084152
0.000832411
0.000822474
0.000811965
0.000801179
0.000790378
0.000779762
0.000769471
0.000759594
0.000750176
0.000741239
0.000732784
0.000724805
0.000717292
0.000710239
0.000703636
0.000697445
0.00084816
0.000835926
0.000821358
0.0008054
0.000788974
0.000772769
0.000757222
0.000742567
0.000728901
0.000716234
0.000704528
0.000693722
0.000683745
0.000674527
0.000666006
0.000658133
0.00065087
0.000644164
0.000844081
0.000822715
0.000797851
0.00077233
0.000747877
0.000725307
0.000704884
0.000686574
0.00067021
0.000655576
0.000642456
0.000630648
0.000619977
0.000610293
0.000601475
0.00059343
0.000586091
0.000579394
0.000833782
0.000794205
0.000753259
0.000715813
0.00068322
0.000655377
0.000631694
0.000611486
0.000594124
0.000579082
0.000565932
0.000554336
0.000544023
0.000534783
0.000526452
0.00051891
0.000512077
0.000505888
0.000809065
0.000738636
0.000678391
0.000630646
0.000593168
0.000563501
0.00053967
0.000520195
0.000503996
0.000490297
0.000478534
0.000468293
0.000459266
0.000451227
0.000444005
0.000437481
0.000431577
0.000426247
0.000753674
0.000642622
0.000568094
0.000517352
0.000481207
0.000454446
0.000433952
0.000417751
0.000404573
0.000393581
0.000384211
0.000376077
0.000368905
0.000362502
0.000356727
0.000351485
0.000346719
0.00034241
0.000641459
0.000499087
0.000426662
0.000383767
0.000355527
0.000335693
0.00032103
0.000309666
0.000300485
0.000292808
0.000286211
0.000280417
0.000275243
0.000270565
0.000266295
0.000262375
0.000258775
0.0002555
0.000448552
0.000320144
0.000270198
0.000243323
0.000226498
0.000215128
0.000206895
0.000200494
0.000195208
0.00019065
0.000186604
0.000182945
0.000179594
0.000176501
0.000173631
0.000170959
0.000168476
0.000166199
0.000203092
0.000143527
0.000122929
0.000111636
0.000104705
0.000100218
9.69866e-05
9.43484e-05
9.20086e-05
8.98586e-05
8.78594e-05
8.59942e-05
8.42527e-05
8.26269e-05
8.1109e-05
7.96914e-05
7.83686e-05
7.7143e-05
2.40293e-05
1.96332e-05
1.71015e-05
1.5464e-05
1.43196e-05
1.34846e-05
1.28537e-05
1.23593e-05
1.19582e-05
1.16228e-05
1.13355e-05
1.10847e-05
1.08627e-05
1.06638e-05
1.04841e-05
1.03207e-05
1.01711e-05
1.00342e-05
2.78931e-06
8.98659e-06
1.08514e-05
1.21493e-05
1.31203e-05
1.39228e-05
1.46169e-05
1.52346e-05
1.57956e-05
1.63134e-05
1.67977e-05
1.72554e-05
1.76913e-05
1.81087e-05
1.85101e-05
1.88969e-05
1.927e-05
1.96302e-05
1.99777e-05
2.03129e-05
2.06359e-05
2.09473e-05
2.12477e-05
2.15383e-05
2.18216e-05
2.21004e-05
2.24019e-05
2.26842e-05
2.29469e-05
2.31908e-05
2.3416e-05
2.36224e-05
2.38095e-05
2.39771e-05
2.41246e-05
2.42517e-05
2.43579e-05
2.4443e-05
2.45067e-05
2.45488e-05
2.45692e-05
2.45676e-05
2.45441e-05
2.44981e-05
4.88497e-06
3.68799e-05
5.79351e-05
7.04518e-05
7.91015e-05
8.59077e-05
9.17426e-05
9.70182e-05
0.000101955
0.000106688
0.000111309
0.000115883
0.000120459
0.00012507
0.00012974
0.00013448
0.000139295
0.000144178
0.000149116
0.000154085
0.000159053
0.000163977
0.000168803
0.00017346
0.000177865
0.000181926
0.000185586
0.000189086
0.000192479
0.000195769
0.00019895
0.000202007
0.000204927
0.000207696
0.000210299
0.00021272
0.000214947
0.000216966
0.000218766
0.000220333
0.000221657
0.000222725
0.000223524
0.00022404
6.08653e-06
5.20107e-05
9.09239e-05
0.000117406
0.000136518
0.000151487
0.0001641
0.000175334
0.000185734
0.000195618
0.000205176
0.000214527
0.000223748
0.000232884
0.000241961
0.000250989
0.000259964
0.000268874
0.000277698
0.000286408
0.000294969
0.00030334
0.000311478
0.000319334
0.000326861
0.000334014
0.000340804
0.000347343
0.00035367
0.000359789
0.000365689
0.00037135
0.000376748
0.000381859
0.000386657
0.000391116
0.000395211
0.00039892
0.00040222
0.000405092
0.000407517
0.000409479
0.000410965
0.000411963
6.83146e-06
6.18243e-05
0.000114113
0.00015258
0.000181518
0.00020444
0.000223598
0.000240377
0.000255619
0.000269837
0.000283348
0.000296345
0.00030895
0.000321237
0.000333249
0.000345009
0.000356527
0.000367803
0.000378829
0.000389595
0.000400086
0.000410284
0.000420172
0.00042973
0.000438938
0.000447775
0.000456263
0.000464466
0.00047241
0.000480098
0.000487518
0.00049465
0.000501467
0.000507942
0.000514044
0.000519742
0.000525005
0.000529804
0.00053411
0.0005379
0.000541151
0.000543844
0.000545964
0.000547499
7.37783e-06
6.85787e-05
0.000130935
0.000179149
0.000216537
0.000246523
0.00027153
0.000293173
0.000312507
0.000330217
0.000346741
0.000362364
0.000377271
0.00039158
0.000405368
0.000418688
0.000431574
0.000444049
0.00045613
0.000467829
0.000479156
0.000490117
0.000500717
0.000510959
0.000520841
0.000530357
0.000539541
0.000548445
0.000557095
0.000565497
0.000573641
0.000581511
0.000589082
0.000596323
0.000603201
0.000609682
0.000615731
0.000621311
0.00062639
0.000630937
0.000634923
0.000638325
0.000641122
0.0006433
7.79975e-06
7.33645e-05
0.000143279
0.000199224
0.000243575
0.000279525
0.000309513
0.000335264
0.00035797
0.000378439
0.000397221
0.000414688
0.00043109
0.000446602
0.000461343
0.000475402
0.000488844
0.000501722
0.000514078
0.000525951
0.000537374
0.000548376
0.000558984
0.000569219
0.000579099
0.000588624
0.000597856
0.000606849
0.000615634
0.000624222
0.000632613
0.00064079
0.000648732
0.000656408
0.000663783
0.000670818
0.000677471
0.000683702
0.000689468
0.000694732
0.000699457
0.00070361
0.000707165
0.000710098
8.13283e-06
7.67634e-05
0.000152279
0.000214216
0.000264128
0.000304928
0.000338997
0.000368097
0.000393493
0.000416086
0.000436508
0.000455208
0.000472501
0.000488614
0.000503714
0.000517926
0.000531351
0.000544071
0.000556156
0.00056767
0.00057867
0.000589209
0.000599333
0.000609084
0.000618496
0.000627586
0.000636444
0.000645133
0.000653694
0.000662146
0.000670496
0.000678734
0.000686838
0.000694778
0.000702515
0.000710005
0.000717201
0.000724051
0.000730505
0.000736514
0.000742031
0.000747014
0.000751426
0.000755234
8.39679e-06
7.91093e-05
0.000158648
0.000225086
0.000279292
0.000323898
0.000361185
0.000392906
0.000420365
0.000444517
0.000466059
0.000485499
0.00050321
0.000519467
0.00053448
0.000548413
0.000561398
0.000573548
0.000584962
0.000595728
0.000605927
0.000615634
0.000624916
0.000633835
0.000642444
0.000650794
0.000658992
0.000667118
0.000675223
0.000683341
0.000691484
0.000699649
0.000707814
0.000715949
0.000724009
0.000731944
0.000739695
0.000747201
0.0007544
0.000761229
0.00076763
0.000773547
0.000778932
0.000783727
8.60283e-06
8.06013e-05
0.000162845
0.000232493
0.000289865
0.000337323
0.000377029
0.0004107
0.000439648
0.000464859
0.000487074
0.000506847
0.000524594
0.000540633
0.000555214
0.000568533
0.000580755
0.000592021
0.000602456
0.000612173
0.000621277
0.000629866
0.00063803
0.000645852
0.000653403
0.000660782
0.000668116
0.000675498
0.000683
0.000690666
0.000698516
0.000706553
0.000714756
0.00072309
0.000731504
0.000739936
0.000748316
0.000756567
0.000764613
0.000772375
0.000779779
0.000786757
0.000793207
0.000799093
8.75709e-06
8.136e-05
0.000165169
0.000236891
0.000296419
0.000345868
0.00038727
0.000422284
0.000452207
0.000478038
0.000500542
0.000520303
0.000537774
0.000553305
0.000567176
0.000579616
0.000590817
0.000600946
0.000610152
0.000618575
0.000626343
0.000633577
0.000640392
0.000646895
0.000653183
0.00065941
0.000665723
0.000672238
0.000679043
0.000686196
0.000693729
0.000701644
0.000709923
0.000718521
0.000727376
0.000736412
0.000745542
0.00075467
0.000763701
0.000772546
0.000781062
0.000789185
0.000796842
0.000803976
8.86262e-06
8.14598e-05
0.000165819
0.000238595
0.000299373
0.000350038
0.000392486
0.000428301
0.000458747
0.000484817
0.000507282
0.000526748
0.000543686
0.000558473
0.000571414
0.000582761
0.000592731
0.000601513
0.000609282
0.0006162
0.00062242
0.00062809
0.000633352
0.00063834
0.000643186
0.000648111
0.000653285
0.000658848
0.000664908
0.000671539
0.00067878
0.000686636
0.000695081
0.000704061
0.000713495
0.000723285
0.000733336
0.000743502
0.000753643
0.000763658
0.000773437
0.000782883
0.000791912
0.000800446
8.92033e-06
8.09479e-05
0.000164928
0.000237835
0.000299041
0.000350225
0.000393139
0.000429278
0.000459856
0.000485841
0.000507998
0.000526936
0.000543139
0.000556998
0.000568834
0.000578919
0.000587487
0.00059475
0.000600903
0.000606131
0.000610615
0.000614529
0.000618042
0.000621319
0.000624584
0.000628089
0.000632039
0.000636605
0.000641917
0.000648065
0.000655095
0.000663005
0.000671758
0.000681293
0.000691492
0.000702197
0.000713283
0.00072461
0.000736035
0.000747423
0.000758648
0.000769592
0.000780151
0.000790232
8.92963e-06
7.98574e-05
0.000162599
0.000234786
0.000295671
0.000346745
0.00038961
0.000425657
0.000456033
0.000481665
0.000503298
0.00052153
0.000536845
0.00054964
0.000560243
0.000568938
0.000575974
0.000581579
0.000585969
0.000589351
0.000591931
0.000593916
0.000595509
0.00059691
0.00059847
0.000600468
0.000603152
0.000606725
0.00061134
0.000617104
0.000624072
0.000632204
0.000641433
0.00065166
0.00066275
0.000674544
0.000686877
0.000699581
0.000712489
0.00072544
0.000738285
0.000750885
0.000763117
0.000774873
8.88837e-06
7.82139e-05
0.00015891
0.000229587
0.000289464
0.000339857
0.000382211
0.0004178
0.000447689
0.000472749
0.000493689
0.000511084
0.000525406
0.000537046
0.000546334
0.000553557
0.000558974
0.000562824
0.00056534
0.000566752
0.000567294
0.000567207
0.000566739
0.000566156
0.000565939
0.000566405
0.000567856
0.000570522
0.000574568
0.000580094
0.000587129
0.000595636
0.000605523
0.000616656
0.000628868
0.00064197
0.000655762
0.000670045
0.00068462
0.000699301
0.000713912
0.000728295
0.000742309
0.000755828
8.79138e-06
7.60229e-05
0.000153901
0.000222327
0.000280553
0.000329733
0.000371151
0.000405951
0.0004351
0.000459399
0.000479507
0.000495967
0.000509229
0.000519664
0.000527595
0.000533306
0.000537061
0.000539107
0.000539693
0.000539068
0.000537497
0.000535253
0.000532619
0.000530087
0.000528157
0.000527204
0.000527554
0.000529464
0.000533114
0.000538598
0.00054593
0.00055505
0.000565833
0.00057811
0.000591674
0.000606297
0.000621742
0.000637773
0.00065416
0.000670689
0.00068716
0.000703397
0.00071924
0.000734552
8.64884e-06
7.28839e-05
0.000147152
0.000212605
0.000268539
0.000315962
0.000355993
0.000389639
0.00041776
0.000441075
0.000460181
0.000475578
0.000487682
0.000496848
0.000503381
0.00050756
0.000509641
0.000509878
0.000508529
0.000505866
0.000502184
0.000497804
0.000493083
0.000488793
0.000485394
0.000483301
0.000482869
0.000484366
0.00048797
0.000493763
0.000501735
0.000511792
0.000523776
0.000537472
0.000552632
0.000568985
0.000586256
0.000604171
0.00062247
0.000640914
0.000659284
0.000677383
0.000695043
0.000712116
8.47047e-06
6.86662e-05
0.000138737
0.000200783
0.000253995
0.000299237
0.00033749
0.000369639
0.000396442
0.000418541
0.000436474
0.000450692
0.00046158
0.000469462
0.000474628
0.000477338
0.000477842
0.000476387
0.000473237
0.000468679
0.000463032
0.000456648
0.000450286
0.00044465
0.000440233
0.000437476
0.00043674
0.000438293
0.000442299
0.000448818
0.00045781
0.000469147
0.000482626
0.000497987
0.000514936
0.000533157
0.000552333
0.000572159
0.000592347
0.000612637
0.000632796
0.00065262
0.000671933
0.000690585
8.25491e-06
6.40608e-05
0.000129487
0.000187792
0.000237965
0.000280701
0.000316848
0.000347185
0.000372391
0.000393045
0.00040964
0.000422591
0.000432251
0.000438925
0.000442881
0.000444364
0.000443611
0.000440864
0.000436385
0.000430472
0.000423479
0.000415879
0.000408759
0.000402664
0.000398096
0.00039549
0.000395192
0.000397451
0.000402409
0.000410101
0.000420456
0.00043331
0.00044842
0.000465481
0.000484158
0.000504097
0.000524953
0.000546398
0.000568132
0.000589886
0.000611427
0.000632552
0.000653089
0.000672893
8.00759e-06
5.94458e-05
0.000119909
0.00017412
0.000220865
0.000260662
0.000294245
0.000322322
0.000345521
0.00036439
0.000379393
0.000390925
0.000399316
0.000404851
0.000407778
0.000408324
0.000406708
0.00040316
0.000397928
0.000391303
0.000383635
0.000376116
0.000369348
0.000363874
0.000360169
0.000358633
0.000359582
0.000363236
0.000369715
0.000379025
0.000391066
0.000405632
0.000422439
0.000441146
0.000461383
0.000482778
0.000504971
0.000527632
0.000550465
0.000573213
0.000595652
0.000617594
0.00063888
0.000659376
7.73673e-06
5.51195e-05
0.000110455
0.000160177
0.000202955
0.000239186
0.000269555
0.000294756
0.000315422
0.000332098
0.000345243
0.000355233
0.000362379
0.000366937
0.000369127
0.000369146
0.000367185
0.000363444
0.000358151
0.000351563
0.000344716
0.000338398
0.000333111
0.00032932
0.000327439
0.000327822
0.000330753
0.000336428
0.000344934
0.000356243
0.00037021
0.000386585
0.000405048
0.000425228
0.000446746
0.000469227
0.000492325
0.000515728
0.000539164
0.000562401
0.00058524
0.000607516
0.000629087
0.000649835
7.45428e-06
5.13598e-05
0.000101526
0.000146205
0.000184193
0.00021595
0.000242254
0.000263878
0.000281505
0.000295693
0.000306884
0.000315422
0.000321571
0.000325536
0.000327483
0.000327562
0.000325914
0.000322693
0.000318072
0.000312963
0.000308181
0.000304164
0.000301332
0.000300082
0.00030078
0.000303749
0.000309243
0.00031742
0.00032832
0.000341858
0.000357833
0.000375955
0.000395876
0.000417225
0.000439633
0.000462754
0.000486278
0.000509931
0.00053348
0.000556729
0.00057951
0.000601686
0.000623135
0.000643756
7.17791e-06
4.83987e-05
9.32629e-05
0.000131922
0.000163879
0.00019004
0.000211456
0.00022903
0.000243465
0.000255281
0.000264844
0.000272407
0.00027814
0.000282163
0.000284562
0.000285419
0.000284805
0.000282801
0.000280279
0.000277923
0.000276078
0.000275102
0.000275356
0.000277201
0.000280977
0.000286974
0.000295398
0.000306341
0.000319769
0.000335527
0.000353364
0.000372965
0.000393984
0.000416076
0.000438912
0.000462199
0.000485678
0.000509126
0.000532357
0.000555213
0.000577561
0.000599287
0.000620292
0.000640487
6.93296e-06
4.6285e-05
8.49741e-05
0.000115949
0.000140487
0.000160293
0.000176666
0.000190485
0.000202318
0.000212514
0.000221274
0.000228698
0.000234826
0.000239675
0.000243227
0.000245525
0.000246552
0.000247197
0.000247863
0.000248805
0.000250316
0.000252721
0.000256365
0.000261586
0.000268687
0.000277895
0.000289334
0.000303002
0.000318783
0.000336465
0.000355773
0.0003764
0.000398034
0.000420382
0.000443178
0.000466189
0.000489216
0.000512088
0.000534663
0.000556821
0.000578457
0.000599482
0.000619813
0.000639372
6.75067e-06
4.42617e-05
7.43316e-05
9.60576e-05
0.000112993
0.000127187
0.000139703
0.000151078
0.000161572
0.000171285
0.000180221
0.000188326
0.000195512
0.000201743
0.000206856
0.000211152
0.000215206
0.000219129
0.000223122
0.000227432
0.000232349
0.000238191
0.000245278
0.000253902
0.000264286
0.000276559
0.00029074
0.000306742
0.00032439
0.000343453
0.000363668
0.00038477
0.000406505
0.000428646
0.000450991
0.000473369
0.000495634
0.000517663
0.000539351
0.000560608
0.000581354
0.000601518
0.00062103
0.000639821
6.65781e-06
3.95577e-05
5.89725e-05
7.2846e-05
8.46045e-05
9.55424e-05
0.00010614
0.000116554
0.000126791
0.000136784
0.000146424
0.000155566
0.000163989
0.000171816
0.000179295
0.000186484
0.000193476
0.000200416
0.000207505
0.000214991
0.000223149
0.000232262
0.000242584
0.000254316
0.000267577
0.000282392
0.000298698
0.000316359
0.000335187
0.00035497
0.000375488
0.000396534
0.000417918
0.000439475
0.000461061
0.000482557
0.000503859
0.000524881
0.000545548
0.000565793
0.000585554
0.000604774
0.000623392
0.000641345
6.88175e-06
3.11073e-05
4.32309e-05
5.33757e-05
6.27509e-05
7.21825e-05
8.19299e-05
9.20209e-05
0.000102365
0.000112826
0.000123261
0.000133562
0.000143748
0.000153701
0.000163421
0.000172962
0.000182427
0.000191968
0.000201777
0.000212071
0.000223076
0.000234997
0.000247996
0.000262174
0.000277559
0.000294109
0.000311725
0.000330264
0.000349559
0.00036944
0.000389739
0.000410305
0.000431002
0.000451716
0.000472349
0.000492818
0.000513053
0.000532993
0.000552584
0.000571775
0.00059052
0.000608769
0.000626471
0.000643565
8.7334e-06
2.17449e-05
3.09034e-05
3.96164e-05
4.87243e-05
5.84485e-05
6.88116e-05
7.971e-05
9.09852e-05
0.000102476
0.000114042
0.000125584
0.000137057
0.000148436
0.000159737
0.000171018
0.000182379
0.00019395
0.000205885
0.000218345
0.00023148
0.000245414
0.000260225
0.000275943
0.000292543
0.000309958
0.000328085
0.000346801
0.000365973
0.000385471
0.000405174
0.000424974
0.000444777
0.000464504
0.000484088
0.000503473
0.00052261
0.000541456
0.000559972
0.00057812
0.000595861
0.000613154
0.000629951
0.000646197
1.13903e-05
1.78086e-05
2.67961e-05
3.7606e-05
4.92844e-05
6.11742e-05
7.30082e-05
8.47596e-05
9.64819e-05
0.000108225
0.000120014
0.000131855
0.000143756
0.000155732
0.000167815
0.000180056
0.000192532
0.000205333
0.00021856
0.000232311
0.000246667
0.000261685
0.000277389
0.000293766
0.000310771
0.00032833
0.000346353
0.000364737
0.000383382
0.000402188
0.000421068
0.000439943
0.000458748
0.000477426
0.000495932
0.000514227
0.000532276
0.000550048
0.000567515
0.000584645
0.000601407
0.000617767
0.00063368
0.000649094
6.0127e-05
6.46042e-05
7.01115e-05
7.65867e-05
8.40012e-05
9.22184e-05
0.000101072
0.000110438
0.000120245
0.000130453
0.000141035
0.000151972
0.000163252
0.000174872
0.000186837
0.000199169
0.000211899
0.00022507
0.000238724
0.000252901
0.000267627
0.000282911
0.000298737
0.000315071
0.000331857
0.000349023
0.000366491
0.000384178
0.000402002
0.000419889
0.000437772
0.000455593
0.000473305
0.000490867
0.000508248
0.000525418
0.000542355
0.000559036
0.000575438
0.000591537
0.000607308
0.000622718
0.00063773
0.000652294
0.000125459
0.000127775
0.000130702
0.000134178
0.000138255
0.000142997
0.000148453
0.000154646
0.000161579
0.000169237
0.000177597
0.000186629
0.000196306
0.000206601
0.000217492
0.000228966
0.000241011
0.000253621
0.000266792
0.000280514
0.000294769
0.00030953
0.000324757
0.000340398
0.000356391
0.000372669
0.000389158
0.00040579
0.000422496
0.000439217
0.0004559
0.000472499
0.00048898
0.00050531
0.000521467
0.000537431
0.000553182
0.000568705
0.000583983
0.000598995
0.000613721
0.000628132
0.000642193
0.000655858
0.000190853
0.000192111
0.000193764
0.000195776
0.000198174
0.00020102
0.000204394
0.00020838
0.00021305
0.000218458
0.000224637
0.0002316
0.000239345
0.00024786
0.000257124
0.000267111
0.000277794
0.000289141
0.000301118
0.000313688
0.000326806
0.000340424
0.000354483
0.000368924
0.00038368
0.000398682
0.000413865
0.000429165
0.000444522
0.000459885
0.000475208
0.000490454
0.000505592
0.000520599
0.000535454
0.000550141
0.000564647
0.000578959
0.000593062
0.00060694
0.000620574
0.00063394
0.000647006
0.000659729
0.000253455
0.000254107
0.000255034
0.000256231
0.000257722
0.000259551
0.00026178
0.000264482
0.000267734
0.000271607
0.000276163
0.000281446
0.000287485
0.000294293
0.000301869
0.000310201
0.000319264
0.000329027
0.000339451
0.000350488
0.000362087
0.000374191
0.000386737
0.000399661
0.000412896
0.000426377
0.000440039
0.000453824
0.000467678
0.000481552
0.000495407
0.000509207
0.000522926
0.000536543
0.000550039
0.000563401
0.000576616
0.000589675
0.000602563
0.000615269
0.000627775
0.000640059
0.000652091
0.000663833
0.000312981
0.00031317
0.000313575
0.000314207
0.000315088
0.000316254
0.000317752
0.000319637
0.000321971
0.000324815
0.000328228
0.000332261
0.000336955
0.000342338
0.000348424
0.000355215
0.000362701
0.00037086
0.000379659
0.000389059
0.000399011
0.000409461
0.000420351
0.00043162
0.000443205
0.000455046
0.000467083
0.000479262
0.000491532
0.000503849
0.000516176
0.00052848
0.000540736
0.000552924
0.000565027
0.000577033
0.000588929
0.000600707
0.000612355
0.000623861
0.00063521
0.000646382
0.000657351
0.00066808
0.000369549
0.000369306
0.000369256
0.000369411
0.000369792
0.00037043
0.000371359
0.000372624
0.000374269
0.000376342
0.000378893
0.000381965
0.000385595
0.000389815
0.000394646
0.000400096
0.000406166
0.000412844
0.000420109
0.00042793
0.000436269
0.000445081
0.000454317
0.000463923
0.000473846
0.00048403
0.000494425
0.00050498
0.000515649
0.000526394
0.000537178
0.000547973
0.000558754
0.000569501
0.0005802
0.000590838
0.000601403
0.000611887
0.00062228
0.00063257
0.000642744
0.000652785
0.000662668
0.000672359
0.000423248
0.000422573
0.000422083
0.000421789
0.000421709
0.000421868
0.000422292
0.000423014
0.00042407
0.000425495
0.000427325
0.000429597
0.000432341
0.000435583
0.000439344
0.000443636
0.000448463
0.000453819
0.000459693
0.000466063
0.0004729
0.00048017
0.000487834
0.000495848
0.000504167
0.000512747
0.000521542
0.000530509
0.00053961
0.000548808
0.000558071
0.000567375
0.000576695
0.000586014
0.000595317
0.000604592
0.00061383
0.000623021
0.000632156
0.000641225
0.000650217
0.000659116
0.000667898
0.000676536
0.00047404
0.000472936
0.000472014
0.000471284
0.000470761
0.000470462
0.000470409
0.000470625
0.000471137
0.000471972
0.000473158
0.00047472
0.000476684
0.000479069
0.000481893
0.000485166
0.000488894
0.000493075
0.000497702
0.00050276
0.000508229
0.000514082
0.00052029
0.000526819
0.000533634
0.000540697
0.000547971
0.000555422
0.000563016
0.000570722
0.000578514
0.000586368
0.000594263
0.000602184
0.000610118
0.000618053
0.00062598
0.000633891
0.000641778
0.000649633
0.000657445
0.000665199
0.000672877
0.000680451
0.000521759
0.000520244
0.00051891
0.000517764
0.000516817
0.00051608
0.000515571
0.000515306
0.000515305
0.000515588
0.000516175
0.000517087
0.00051834
0.000519951
0.000521932
0.000524293
0.000527037
0.000530165
0.000533671
0.000537546
0.000541775
0.000546339
0.000551215
0.000556378
0.000561799
0.00056745
0.000573302
0.000579325
0.000585494
0.000591782
0.000598167
0.00060463
0.000611153
0.000617722
0.000624325
0.000630954
0.0006376
0.000644256
0.000650916
0.000657572
0.000664215
0.000670833
0.000677409
0.000683919
0.000566127
0.000564243
0.000562537
0.000561012
0.000559672
0.000558528
0.000557591
0.000556874
0.000556391
0.000556157
0.000556186
0.000556493
0.000557092
0.000557993
0.000559206
0.000560737
0.000562591
0.000564767
0.000567261
0.000570067
0.000573173
0.000576566
0.000580228
0.00058414
0.000588281
0.000592628
0.00059716
0.000601853
0.000606686
0.000611638
0.000616693
0.000621833
0.000627046
0.000632318
0.000637642
0.000643009
0.000648413
0.000653848
0.00065931
0.000664792
0.000670286
0.000675784
0.00068127
0.000686724
0.00060354
0.000601422
0.000599458
0.000597657
0.000596024
0.000594568
0.000593298
0.000592223
0.000591356
0.000590706
0.000590285
0.000590103
0.000590171
0.000590495
0.000591083
0.00059194
0.000593067
0.000594464
0.000596128
0.000598054
0.000600232
0.000602652
0.0006053
0.000608162
0.000611221
0.000614461
0.000617863
0.00062141
0.000625085
0.000628874
0.000632761
0.000636735
0.000640784
0.000644901
0.000649077
0.000653307
0.000657586
0.000661912
0.000666279
0.000670684
0.000675122
0.000679584
0.000684058
0.000688528
0.000637522
0.000635196
0.000633009
0.000630965
0.00062907
0.00062733
0.000625754
0.000624347
0.000623119
0.000622078
0.000621232
0.000620588
0.000620155
0.000619937
0.000619939
0.000620164
0.000620614
0.000621288
0.000622184
0.000623297
0.000624619
0.000626144
0.000627861
0.000629758
0.000631823
0.000634043
0.000636405
0.000638895
0.000641502
0.000644212
0.000647016
0.000649905
0.00065287
0.000655905
0.000659006
0.000662167
0.000665388
0.000668664
0.000671995
0.000675378
0.000678808
0.000682281
0.000685786
0.000689309
0.0006718
0.000669281
0.000666879
0.000664596
0.000662436
0.000660406
0.000658509
0.000656752
0.00065514
0.00065368
0.000652377
0.000651238
0.000650266
0.000649466
0.000648842
0.000648395
0.000648127
0.000648036
0.000648122
0.000648381
0.000648808
0.000649396
0.00065014
0.000651032
0.000652061
0.00065322
0.000654498
0.000655887
0.000657378
0.000658963
0.000660634
0.000662387
0.000664214
0.000666113
0.000668081
0.000670116
0.000672218
0.000674385
0.000676617
0.000678915
0.000681275
0.000683693
0.000686164
0.000688674
0.000704444
0.000701791
0.000699222
0.000696741
0.000694351
0.000692055
0.000689857
0.000687762
0.000685774
0.000683898
0.000682137
0.000680495
0.000678976
0.000677584
0.00067632
0.000675187
0.000674185
0.000673315
0.000672574
0.000671963
0.000671477
0.000671113
0.000670867
0.000670734
0.000670709
0.000670786
0.000670959
0.000671224
0.000671574
0.000672005
0.000672513
0.000673096
0.000673751
0.000674477
0.000675273
0.000676139
0.000677078
0.000678089
0.000679176
0.000680338
0.000681577
0.000682889
0.000684269
0.000732951
0.000730243
0.000727579
0.000724962
0.000722395
0.000719882
0.000717424
0.000715027
0.000712692
0.000710424
0.000708226
0.000706101
0.000704051
0.00070208
0.000700189
0.00069838
0.000696655
0.000695015
0.000693459
0.000691987
0.000690599
0.000689294
0.000688068
0.000686921
0.000685851
0.000684854
0.000683929
0.000683074
0.000682286
0.000681565
0.00068091
0.00068032
0.000679796
0.000679339
0.000678952
0.000678636
0.000678396
0.000678234
0.000678153
0.000678158
0.000678251
0.000678433
0.000678702
0.000754379
0.000751663
0.000748947
0.000746235
0.000743528
0.00074083
0.000738144
0.000735473
0.000732818
0.000730184
0.000727572
0.000724986
0.000722429
0.000719903
0.00071741
0.000714953
0.000712533
0.000710152
0.000707812
0.000705514
0.00070326
0.000701049
0.000698882
0.000696761
0.000694685
0.000692656
0.000690673
0.000688739
0.000686853
0.000685017
0.000683235
0.000681507
0.000679837
0.000678229