/*--------------------------------*- C++ -*----------------------------------*\
  =========                 |
  \\      /  F ield         | OpenFOAM: The Open Source CFD Toolbox
   \\    /   O peration     | Website:  https://openfoam.org
    \\  /    A nd           | Version:  6
     \\/     M anipulation  |
\*---------------------------------------------------------------------------*/
FoamFile
{
    version     2.0;
    format      ascii;
    class       volScalarField;
    location    "0.06";
    object      p;
}
// * * * * * * * * * * * * * * * * * * * * * * * * * * * * * * * * * * * * * //

dimensions      [0 2 -2 0 0 0 0];

internalField   nonuniform List<scalar> 
3032
(
0.345944
0.0934555
0.0153883
0.00485963
0.000261509
-0.00446971
-0.00722073
-0.0089061
-0.0105722
-0.0123783
-0.0142685
-0.0162813
-0.0184902
-0.0209873
-0.0239629
-0.0276785
-0.0332474
-0.041866
-0.036273
-0.00586005
-0.00492806
0.00148248
0.000740277
-0.00339724
-0.00640452
-0.00842386
-0.0103087
-0.0122377
-0.0142068
-0.0162828
-0.0185584
-0.0211245
-0.0241526
-0.0278656
-0.0330875
-0.0397531
-0.0728636
-0.00196257
-0.00028435
0.00195461
0.000989295
-0.00275256
-0.00572259
-0.00787482
-0.00988815
-0.0119162
-0.0139722
-0.0161283
-0.0184771
-0.0211038
-0.0241575
-0.027781
-0.0324485
-0.0373608
-0.0275235
0.0112173
0.00316221
0.00179368
0.000652304
-0.00260841
-0.00537829
-0.00752573
-0.00957736
-0.0116502
-0.0137567
-0.0159622
-0.0183504
-0.0209957
-0.0240096
-0.0274569
-0.0315293
-0.0354704
-0.0071734
0.0111434
0.00268859
0.00107534
7.70491e-05
-0.00273172
-0.00527616
-0.00736711
-0.00940374
-0.0114751
-0.0135912
-0.0158072
-0.0181927
-0.0208063
-0.0237192
-0.0269395
-0.0304956
-0.0338297
-0.00481067
0.00687886
0.00153262
0.000379278
-0.000528293
-0.002958
-0.0052891
-0.0073066
-0.00930153
-0.0113426
-0.0134387
-0.015634
-0.0179825
-0.0205252
-0.0232987
-0.0262775
-0.0294098
-0.0323107
-0.00463804
0.00400994
0.000837558
-0.000184035
-0.00110123
-0.00321895
-0.00535341
-0.00728807
-0.0092248
-0.0112162
-0.0132699
-0.0154191
-0.0177026
-0.0201452
-0.0227578
-0.0254985
-0.0282866
-0.0308719
-0.00359719
0.00244831
0.000376833
-0.000664699
-0.001615
-0.00347792
-0.00543398
-0.00727938
-0.00914588
-0.0110726
-0.013065
-0.0151462
-0.0173414
-0.0196619
-0.0221021
-0.0246154
-0.027122
-0.0294688
-0.00253867
0.00137377
-4.72883e-05
-0.00107908
-0.00205117
-0.00370841
-0.00550379
-0.00725546
-0.00904231
-0.0108918
-0.0128065
-0.0148006
-0.0168881
-0.0190703
-0.0213325
-0.023631
-0.0259003
-0.0280506
-0.00186833
0.000534382
-0.00044464
-0.00142242
-0.00240035
-0.00389113
-0.00554086
-0.007195
-0.00889401
-0.010655
-0.0124775
-0.0143681
-0.016332
-0.018364
-0.0204456
-0.0225399
-0.0245988
-0.0265697
-0.00150929
-9.5771e-05
-0.000792314
-0.0016968
-0.00266292
-0.00401561
-0.00553094
-0.00708335
-0.00868672
-0.0103489
-0.0120663
-0.0138394
-0.015667
-0.0175399
-0.0194394
-0.0213363
-0.0231974
-0.0249903
-0.00134306
-0.000510215
-0.00105698
-0.00188991
-0.00282833
-0.00407042
-0.00546897
-0.00692339
-0.00843163
-0.00999418
-0.0116047
-0.0132594
-0.0149529
-0.0166743
-0.0184061
-0.0201252
-0.0218088
-0.0234312
-0.00126326
-0.000815725
-0.00125856
-0.00202252
-0.00292411
-0.00406546
-0.00535398
-0.00670954
-0.00811845
-0.00957552
-0.0110722
-0.0126014
-0.0141551
-0.0157216
-0.0172855
-0.018829
-0.0203356
-0.0217837
-0.00123108
-0.00104846
-0.00141869
-0.00210566
-0.00295125
-0.00398488
-0.00515134
-0.0063895
-0.00767775
-0.00900579
-0.0103629
-0.0117394
-0.0131254
-0.0145091
-0.0158774
-0.0172169
-0.0185152
-0.0197535
-0.00121133
-0.00118003
-0.00150341
-0.00210761
-0.00287528
-0.00379268
-0.00482387
-0.0059237
-0.00706706
-0.00823946
-0.00942831
-0.0106221
-0.0118098
-0.0129803
-0.0141226
-0.0152264
-0.0162809
-0.0172705
-0.00114145
-0.00117869
-0.00146452
-0.00198278
-0.00265338
-0.00344434
-0.0043271
-0.00526783
-0.00624139
-0.00723062
-0.00822151
-0.00920166
-0.0101599
-0.0110858
-0.0119702
-0.0128048
-0.0135795
-0.0142816
-0.000937096
-0.000994387
-0.00123923
-0.00166926
-0.00222939
-0.00288411
-0.00360705
-0.00437101
-0.00515247
-0.00593329
-0.00669886
-0.00743675
-0.00813628
-0.0087882
-0.00938474
-0.00991939
-0.0103825
-0.0107654
-0.000500837
-0.000553981
-0.000749556
-0.00108933
-0.00153337
-0.00204743
-0.00260552
-0.00318354
-0.0037596
-0.00431577
-0.00483776
-0.00531402
-0.0057351
-0.00609338
-0.00638288
-0.00659905
-0.00673383
-0.00678391
0.000267423
0.000233528
9.8546e-05
-0.000150767
-0.000483184
-0.000863101
-0.0012635
-0.00166084
-0.00203363
-0.00236449
-0.0026404
-0.00285162
-0.0029908
-0.00305273
-0.00303395
-0.00293253
-0.00274337
-0.00246824
0.00118753
0.00119498
0.00112477
0.000930833
0.000655633
0.000346311
3.12917e-05
-0.000262583
-0.000510547
-0.000695479
-0.000806588
-0.000836585
-0.000780666
-0.000636244
-0.000402489
-8.00303e-05
0.000333126
0.000832357
0.00194311
0.00205496
0.00206753
0.00189039
0.00162827
0.00134104
0.00105067
0.000793334
0.000601477
0.000491269
0.000470351
0.000543647
0.000713741
0.000980824
0.00134342
0.00179879
0.00234646
0.00298041
0.00247392
0.00289106
0.00303529
0.00282043
0.0025381
0.00223776
0.00192128
0.00165006
0.00146861
0.00138806
0.0014112
0.00154083
0.00177731
0.00211827
0.00255994
0.00309768
0.00372887
0.00444654
0.00255573
0.00369123
0.00402786
0.00371554
0.00340943
0.0030639
0.00266472
0.00233416
0.00212746
0.00204165
0.00207357
0.00222474
0.00249304
0.00287306
0.00335875
0.00394375
0.00462353
0.00539083
0.00218989
0.00461335
0.00501792
0.00454131
0.00427361
0.00384781
0.00329607
0.00286442
0.0026047
0.00248597
0.00249967
0.00264721
0.00292302
0.0033179
0.00382335
0.00443138
0.00513567
0.00592905
0.0020289
0.0066701
0.00628248
0.00533261
0.0051719
0.00460413
0.00381631
0.00324724
0.00291349
0.00274061
0.00271708
0.00284473
0.0031128
0.0035073
0.00401712
0.00463268
0.00534587
0.00614976
0.000351306
0.0111449
0.00860632
0.00639672
0.006199
0.00533131
0.0042114
0.00347459
0.00305083
0.0028102
0.00274002
0.00284103
0.00309493
0.00348204
0.00398847
0.00460313
0.00531618
0.00612054
-0.0165946
0.0132263
0.0108765
0.0078049
0.00738472
0.00596112
0.00441884
0.00349495
0.0029734
0.00266474
0.00255359
0.00263469
0.0028794
0.00326174
0.00376534
0.00437785
0.00508807
0.00588886
-0.0606732
-1.15344e-05
0.00685956
0.0079754
0.00818283
0.00614604
0.00420316
0.00313866
0.00255451
0.0022112
0.00209099
0.002179
0.00243483
0.00282685
0.0033376
0.00395472
0.00466593
0.00546345
-0.0406182
-0.0100102
-0.00309236
0.00570271
0.00767184
0.00532079
0.00324913
0.00226185
0.00175787
0.00146847
0.00139447
0.00152481
0.00181463
0.00223073
0.0027575
0.00338525
0.00410294
0.00489036
0.323957
0.10425
0.0272475
0.0143713
0.00936874
0.00464068
0.00214647
0.00134948
0.0010832
0.000954611
0.000979791
0.00117284
0.00150183
0.00194083
0.00248022
0.00311596
0.00384751
0.0046858
-0.0663531
-0.0667639
-0.0673642
-0.0681031
-0.0689777
-0.0699741
-0.0710652
-0.0722215
-0.0734115
-0.0745999
-0.0757467
-0.076807
-0.0777315
-0.0784674
-0.0789592
-0.0791498
-0.0789826
-0.0784025
-0.0773575
-0.0758003
-0.0736904
-0.0709969
-0.0677007
-0.0637958
-0.05927
-0.0540714
-0.0481602
-0.0415596
-0.0343156
-0.0264745
-0.0180847
-0.00919891
0.000125374
0.00982599
0.0198367
0.030088
0.0405083
0.051025
0.0615658
0.0720597
0.0824383
0.0926364
0.102594
0.112255
-0.0637779
-0.0647871
-0.065584
-0.0660485
-0.0665285
-0.0671829
-0.0680217
-0.0690196
-0.0701436
-0.0713535
-0.0726025
-0.0738384
-0.0750046
-0.0760409
-0.076885
-0.0774733
-0.077743
-0.0776326
-0.0770838
-0.0760425
-0.0744593
-0.0722906
-0.0694972
-0.0660402
-0.0618894
-0.0570615
-0.0515994
-0.0455201
-0.0388314
-0.0315547
-0.0237235
-0.0153803
-0.00657459
0.00263783
0.0121961
0.0220356
0.0320889
0.0422869
0.0525606
0.0628415
0.0730633
0.0831628
0.0930808
0.102763
-0.0606274
-0.0626531
-0.0646281
-0.0657271
-0.0664132
-0.0670968
-0.0679067
-0.0688602
-0.0699434
-0.0711266
-0.072368
-0.0736179
-0.0748214
-0.07592
-0.0768536
-0.0775612
-0.0779829
-0.0780603
-0.0777382
-0.0769649
-0.0756937
-0.0738831
-0.0714964
-0.0685001
-0.0648685
-0.0605952
-0.0556885
-0.0501583
-0.0440174
-0.0372871
-0.029997
-0.0221848
-0.013895
-0.00517844
0.00390855
0.0133055
0.0229488
0.0327729
0.0427114
0.0526985
0.0626696
0.0725632
0.0823213
0.0918902
-0.0591196
-0.0619394
-0.0650564
-0.0670931
-0.0683862
-0.0694442
-0.0704849
-0.0715783
-0.0727447
-0.0739785
-0.0752549
-0.0765359
-0.0777748
-0.0789192
-0.0799131
-0.0806987
-0.0812177
-0.0814125
-0.0812275
-0.0806101
-0.079512
-0.0778898
-0.0757059
-0.0729296
-0.0695389
-0.065523
-0.0608793
-0.0556113
-0.0497295
-0.0432524
-0.0362067
-0.0286275
-0.020557
-0.0120444
-0.00314414
0.00608428
0.0155781
0.0252725
0.0351013
0.0449989
0.0549006
0.0647446
0.0744721
0.0840285
-0.0600773
-0.0633377
-0.0671871
-0.0699715
-0.0718673
-0.0733785
-0.0747552
-0.0760956
-0.0774428
-0.0788097
-0.080186
-0.0815445
-0.082847
-0.0840474
-0.0850947
-0.0859347
-0.086512
-0.0867709
-0.086657
-0.0861181
-0.0851057
-0.0835758
-0.0814898
-0.0788158
-0.0755297
-0.0716165
-0.0670686
-0.0618867
-0.0560793
-0.0496639
-0.0426665
-0.0351219
-0.0270724
-0.0185676
-0.00966298
-0.000418909
0.00910072
0.0188298
0.0287011
0.0386478
0.0486047
0.058509
0.0683016
0.0779275
-0.0634532
-0.0669356
-0.0712134
-0.0745231
-0.0769087
-0.0788321
-0.0805444
-0.0821528
-0.0837118
-0.0852453
-0.0867531
-0.0882164
-0.0896038
-0.0908747
-0.0919824
-0.0928759
-0.0935021
-0.0938067
-0.0937358
-0.0932373
-0.0922617
-0.0907639
-0.0887035
-0.0860467
-0.0827671
-0.0788466
-0.0742756
-0.0690531
-0.0631872
-0.0566953
-0.0496046
-0.041951
-0.0337791
-0.0251408
-0.0160943
-0.00670278
0.00296711
0.0128467
0.0228665
0.0329579
0.0430543
0.0530921
0.0630119
0.0727587
-0.0689503
-0.0725149
-0.0770041
-0.0806438
-0.0833845
-0.085638
-0.0876408
-0.0894986
-0.0912683
-0.0929788
-0.0946352
-0.0962239
-0.0977176
-0.0990793
-0.100265
-0.101225
-0.101908
-0.102259
-0.102225
-0.101751
-0.100786
-0.099284
-0.0972019
-0.0945033
-0.0911601
-0.0871518
-0.0824677
-0.0771061
-0.0710757
-0.0643953
-0.0570946
-0.0492127
-0.040798
-0.0319068
-0.0226018
-0.0129508
-0.0030246
0.00710418
0.017363
0.0276806
0.0379886
0.0482225
0.0583221
0.0682324
-0.0762
-0.0797464
-0.084283
-0.0880885
-0.0910564
-0.0935493
-0.0957831
-0.0978558
-0.0998215
-0.101709
-0.103525
-0.105258
-0.106881
-0.10836
-0.109651
-0.110703
-0.111465
-0.111881
-0.111894
-0.111448
-0.11049
-0.108969
-0.10684
-0.104063
-0.100608
-0.0964525
-0.0915851
-0.0860046
-0.079721
-0.0727564
-0.0651442
-0.0569291
-0.0481652
-0.0389152
-0.0292484
-0.0192389
-0.00896317
0.00150104
0.0120772
0.0226911
0.0332721
0.0437538
0.0540761
0.0641861
-0.0847988
-0.0882477
-0.0927011
-0.0965367
-0.0996196
-0.102268
-0.104674
-0.106925
-0.10907
-0.111133
-0.11312
-0.115018
-0.1168
-0.118429
-0.119861
-0.121043
-0.12192
-0.122432
-0.122521
-0.122125
-0.121185
-0.119648
-0.117463
-0.114587
-0.110988
-0.106639
-0.101532
-0.0956634
-0.0890481
-0.0817122
-0.0736956
-0.0650502
-0.0558387
-0.0461326
-0.0360099
-0.0255526
-0.0148447
-0.00396997
0.00699018
0.0179574
0.0288585
0.0396274
0.0502055
0.0605422
-0.0943118
-0.0975918
-0.101848
-0.105597
-0.108698
-0.111429
-0.113957
-0.116357
-0.118668
-0.120911
-0.123087
-0.125178
-0.127155
-0.128978
-0.130598
-0.131959
-0.133
-0.133657
-0.133864
-0.133553
-0.132661
-0.131125
-0.12889
-0.125907
-0.122141
-0.117564
-0.112166
-0.105947
-0.0989263
-0.091136
-0.0826253
-0.0734564
-0.0637034
-0.0534492
-0.0427833
-0.0317976
-0.0205849
-0.00923755
0.0021577
0.0135199
0.0247755
0.0358595
0.0467146
0.0572911
-0.104264
-0.107303
-0.111256
-0.114813
-0.117849
-0.120601
-0.123211
-0.125739
-0.128215
-0.130652
-0.133042
-0.135366
-0.137587
-0.139659
-0.141528
-0.14313
-0.1444
-0.145263
-0.145645
-0.145471
-0.144666
-0.143162
-0.140894
-0.137807
-0.13386
-0.129026
-0.123292
-0.116663
-0.109162
-0.100835
-0.0917404
-0.0819561
-0.0715703
-0.0606809
-0.0493926
-0.03781
-0.026037
-0.0141718
-0.00230518
0.00948021
0.0211104
0.0325204
0.0436552
0.0544686
-0.114127
-0.116851
-0.120395
-0.123664
-0.126561
-0.129286
-0.13195
-0.134598
-0.137248
-0.139904
-0.14255
-0.145157
-0.147682
-0.150072
-0.152263
-0.154185
-0.155759
-0.156904
-0.157534
-0.15756
-0.156899
-0.155468
-0.153194
-0.150013
-0.145879
-0.140761
-0.134645
-0.127543
-0.119488
-0.110537
-0.100768
-0.0902779
-0.0791742
-0.0675756
-0.0556023
-0.0433717
-0.0309977
-0.0185844
-0.00622756
0.0059881
0.0179893
0.0297142
0.0411117
0.0521407
-0.123309
-0.125639
-0.128671
-0.131565
-0.134263
-0.136923
-0.139627
-0.1424
-0.145249
-0.148163
-0.151117
-0.154072
-0.156975
-0.159764
-0.162364
-0.164695
-0.166665
-0.168181
-0.169141
-0.169445
-0.168992
-0.167685
-0.165439
-0.16218
-0.157853
-0.152421
-0.145875
-0.138233
-0.129543
-0.119881
-0.109353
-0.0980776
-0.0861853
-0.0738162
-0.0611085
-0.0481954
-0.035201
-0.022237
-0.00940123
0.00322253
0.0155646
0.0275682
0.0391887
0.0503917
-0.131147
-0.133009
-0.135436
-0.13788
-0.140334
-0.142908
-0.145652
-0.148572
-0.151657
-0.154882
-0.158211
-0.161591
-0.164958
-0.168238
-0.171345
-0.174184
-0.17665
-0.178633
-0.180015
-0.180678
-0.180503
-0.179376
-0.177192
-0.173867
-0.169332
-0.163553
-0.156525
-0.148276
-0.138876
-0.128427
-0.117061
-0.104927
-0.0921869
-0.0790067
-0.0655453
-0.051951
-0.0383565
-0.0248769
-0.0116093
0.00136702
0.013989
0.0262078
0.0379873
0.0493015
-0.13688
-0.138246
-0.139991
-0.141927
-0.144108
-0.146596
-0.149401
-0.152506
-0.155884
-0.159492
-0.163277
-0.167172
-0.171101
-0.174973
-0.17869
-0.182139
-0.185202
-0.187748
-0.189641
-0.190742
-0.190909
-0.190008
-0.187916
-0.184532
-0.179778
-0.173614
-0.166043
-0.157115
-0.146927
-0.135616
-0.123351
-0.11032
-0.0967186
-0.0827381
-0.0685574
-0.0543361
-0.0402117
-0.0262983
-0.0126876
0.000549171
0.0133588
0.0257029
0.0375556
0.0489007
-0.139817
-0.140724
-0.141742
-0.143138
-0.145037
-0.147455
-0.150362
-0.153716
-0.157465
-0.161549
-0.165895
-0.170418
-0.175023
-0.179606
-0.184049
-0.188223
-0.19199
-0.195199
-0.197694
-0.199311
-0.199884
-0.199256
-0.197279
-0.193825
-0.188806
-0.182183
-0.173977
-0.164269
-0.153195
-0.140939
-0.127718
-0.113764
-0.0993086
-0.0845683
-0.0697377
-0.0549824
-0.0404383
-0.0262121
-0.0123845
0.000986014
0.0138597
0.0262113
0.0380269
0.0493011
-0.138846
-0.139289
-0.139591
-0.140499
-0.142183
-0.144603
-0.147691
-0.151381
-0.155598
-0.160256
-0.16526
-0.170507
-0.175881
-0.18126
-0.186507
-0.191475
-0.196004
-0.199924
-0.203052
-0.205198
-0.206171
-0.205786
-0.203867
-0.200267
-0.194895
-0.187723
-0.178799
-0.168246
-0.156252
-0.143058
-0.128933
-0.114153
-0.0989813
-0.0836535
-0.0683695
-0.0532911
-0.038543
-0.0242169
-0.0103766
0.00293631
0.0156981
0.0278979
0.0395339
0.0506108
-0.134376
-0.134248
-0.133916
-0.134457
-0.136037
-0.138551
-0.141902
-0.145997
-0.150737
-0.156012
-0.161702
-0.167684
-0.173823
-0.179977
-0.185994
-0.191708
-0.196939
-0.201497
-0.205177
-0.207766
-0.209047
-0.208808
-0.206843
-0.203003
-0.197204
-0.189443
-0.179808
-0.168473
-0.155683
-0.141735
-0.126943
-0.111612
-0.0960223
-0.0804116
-0.0649716
-0.0498494
-0.0351515
-0.0209508
-0.00729323
0.00579602
0.0183068
0.0302395
0.0416014
0.0524041
-0.127516
-0.126737
-0.125868
-0.126157
-0.127724
-0.130402
-0.134065
-0.1386
-0.143879
-0.149765
-0.156117
-0.16279
-0.169633
-0.176486
-0.18318
-0.189532
-0.195347
-0.200414
-0.204509
-0.207397
-0.20884
-0.208591
-0.206439
-0.202245
-0.195948
-0.187585
-0.177293
-0.165303
-0.151915
-0.137467
-0.122301
-0.106734
-0.0910428
-0.0754513
-0.0601323
-0.0452114
-0.0307747
-0.0168766
-0.00354738
0.0092002
0.0213658
0.0329575
0.0439879
0.0544721
-0.119521
-0.117964
-0.116576
-0.116661
-0.118243
-0.121094
-0.125066
-0.130019
-0.135798
-0.142239
-0.149181
-0.156459
-0.163904
-0.17134
-0.178583
-0.185435
-0.191683
-0.197099
-0.201443
-0.204465
-0.205887
-0.20545
-0.202966
-0.198322
-0.191494
-0.18257
-0.171745
-0.159299
-0.145573
-0.130927
-0.115706
-0.100218
-0.0847191
-0.0694084
-0.0544346
-0.0399013
-0.0258762
-0.0123992
0.000510061
0.0128469
0.0246164
0.0358305
0.0465039
0.0566526
-0.111607
-0.109106
-0.107094
-0.106916
-0.108443
-0.11139
-0.115585
-0.120864
-0.127044
-0.133938
-0.141361
-0.149129
-0.157054
-0.164943
-0.172596
-0.179798
-0.186322
-0.191927
-0.196358
-0.199322
-0.200526
-0.199747
-0.196825
-0.191687
-0.184362
-0.174994
-0.163827
-0.151181
-0.137411
-0.122872
-0.107892
-0.0927518
-0.0776763
-0.0628381
-0.0483625
-0.0343349
-0.0208098
-0.00781797
0.00462699
0.0165238
0.0278798
0.0387074
0.0490215
0.0588365
-0.104774
-0.101179
-0.0983172
-0.0976542
-0.0989037
-0.101739
-0.105977
-0.111431
-0.117886
-0.125121
-0.13292
-0.141072
-0.149368
-0.157593
-0.16553
-0.172949
-0.179611
-0.185258
-0.189588
-0.192295
-0.193132
-0.191909
-0.188509
-0.18291
-0.175201
-0.165575
-0.15431
-0.141737
-0.1282
-0.11403
-0.0995198
-0.0849165
-0.0704149
-0.0561632
-0.0422682
-0.0288033
-0.0158149
-0.00332947
0.00864154
0.0200974
0.0310447
0.0414951
0.0514619
0.0609569
-0.099669
-0.0948717
-0.0907662
-0.089103
-0.0896586
-0.0920995
-0.0961988
-0.10172
-0.108386
-0.115913
-0.124037
-0.132512
-0.141103
-0.149575
-0.157694
-0.165221
-0.171889
-0.177393
-0.18143
-0.183747
-0.184132
-0.182438
-0.178602
-0.172659
-0.164747
-0.15509
-0.143974
-0.131714
-0.118626
-0.105004
-0.0911047
-0.0771421
-0.0632864
-0.0496671
-0.0363789
-0.0234876
-0.0110361
0.000950514
0.0124605
0.0234917
0.034049
0.044142
0.0537816
0.0629763
-0.0964883
-0.090323
-0.0841432
-0.0806607
-0.080171
-0.0821351
-0.0861221
-0.0917785
-0.0987159
-0.106564
-0.115007
-0.123769
-0.132593
-0.141235
-0.14944
-0.15693
-0.163408
-0.16859
-0.172222
-0.174086
-0.174014
-0.171909
-0.167762
-0.161654
-0.153748
-0.144274
-0.133503
-0.121722
-0.10921
-0.0962259
-0.0829947
-0.0697045
-0.0565063
-0.0435171
-0.0308236
-0.0184875
-0.0065503
0.00496244
0.0160374
0.0266701
0.0368631
0.0466234
0.0559598
0.0648767
-0.0952273
-0.087109
-0.0773258
-0.0715802
-0.0702805
-0.0720517
-0.0761554
-0.0821081
-0.089391
-0.0975607
-0.10628
-0.115261
-0.124222
-0.13289
-0.14099
-0.148241
-0.15438
-0.159159
-0.162356
-0.163791
-0.163342
-0.16096
-0.156671
-0.150579
-0.142854
-0.133712
-0.123401
-0.112175
-0.100284
-0.0879557
-0.0753894
-0.0627543
-0.0501876
-0.0377968
-0.0256636
-0.0138474
-0.00238955
0.00868322
0.0193555
0.0296204
0.0394779
0.0489325
0.0579906
0.0666529
-0.0940315
-0.0823294
-0.0682649
-0.0617861
-0.0607379
-0.0627107
-0.0670962
-0.0733927
-0.0809654
-0.0893381
-0.0981803
-0.107198
-0.1161
-0.124603
-0.132445
-0.139371
-0.145135
-0.149517
-0.152328
-0.153425
-0.152725
-0.150207
-0.145919
-0.13997
-0.132524
-0.123781
-0.113965
-0.103303
-0.0920194
-0.0803172
-0.0683772
-0.056353
-0.044371
-0.032532
-0.0209138
-0.00957451
0.00144432
0.0121146
0.0224188
0.0323477
0.0418988
0.0510742
0.0598783
0.0683083
-0.094599
-0.0697895
-0.0543117
-0.0508637
-0.0514771
-0.0539714
-0.0587055
-0.0653429
-0.0731727
-0.0817003
-0.0905985
-0.0995703
-0.108332
-0.116617
-0.124172
-0.130763
-0.136169
-0.140197
-0.142691
-0.143538
-0.14268
-0.140116
-0.135902
-0.130148
-0.123007
-0.114666
-0.105326
-0.095194
-0.0844715
-0.0733431
-0.0619733
-0.0505035
-0.0390513
-0.0277121
-0.0165604
-0.00565332
0.00496734
0.0152722
0.025242
0.0348655
0.0441377
0.0530589
0.0616314
0.0698495
-0.0589459
-0.0422105
-0.0346008
-0.0364057
-0.0402339
-0.0448228
-0.0509137
-0.0583537
-0.0665928
-0.0752696
-0.0841423
-0.0929626
-0.101478
-0.109449
-0.116646
-0.122858
-0.127889
-0.131571
-0.133771
-0.1344
-0.133415
-0.130829
-0.126701
-0.121138
-0.114286
-0.106315
-0.0974083
-0.0877556
-0.0775387
-0.0669262
-0.0560692
-0.0450987
-0.0341247
-0.0232376
-0.0125093
-0.00199562
0.00826158
0.018232
0.0278949
0.0372373
0.0462523
0.0549383
0.063296
0.0713171
-0.0473315
-0.0415322
-0.0359815
-0.0355649
-0.0378203
-0.0416777
-0.0472698
-0.0542785
-0.062127
-0.0704108
-0.0788618
-0.0872303
-0.0952707
-0.102754
-0.109466
-0.115209
-0.119808
-0.123112
-0.125008
-0.12542
-0.124319
-0.121722
-0.117692
-0.112328
-0.105766
-0.0981587
-0.0896754
-0.0804862
-0.0707565
-0.0606404
-0.0502766
-0.0397866
-0.0292737
-0.0188234
-0.00850499
0.00162685
0.0115303
0.0211744
0.0305371
0.039604
0.0483663
0.0568207
0.064966
0.0727924
-0.0417275
-0.0397915
-0.0358988
-0.035201
-0.0372756
-0.0409223
-0.0459524
-0.0521917
-0.0592397
-0.0667391
-0.0744232
-0.0820474
-0.089373
-0.0961771
-0.102255
-0.10742
-0.11151
-0.114389
-0.115954
-0.116143
-0.114933
-0.112342
-0.108429
-0.103285
-0.0970308
-0.0898057
-0.0817597
-0.073046
-0.0638137
-0.0542026
-0.04434
-0.0343382
-0.0242938
-0.0142879
-0.00438707
0.00535523
0.0148973
0.0242076
0.0332629
0.0420471
0.05055
0.0587662
0.0666927
0.0743188
-0.0384266
-0.0378608
-0.0358718
-0.0357127
-0.0376325
-0.0408893
-0.0452938
-0.0507407
-0.0569376
-0.0635724
-0.0703911
-0.077164
-0.083669
-0.0896978
-0.0950594
-0.0995821
-0.103116
-0.105539
-0.106759
-0.10672
-0.105403
-0.102825
-0.0990365
-0.0941196
-0.08818
-0.0813403
-0.0737336
-0.0654959
-0.0567609
-0.0476549
-0.038294
-0.0287815
-0.0192075
-0.00964891
-0.000169398
0.00917898
0.0183548
0.027326
0.0360683
0.0445642
0.052802
0.0607745
0.0684768
0.0758975
-0.0360222
-0.0362437
-0.0357329
-0.0361907
-0.0380172
-0.0409165
-0.0447617
-0.0494677
-0.0548237
-0.0605783
-0.0665052
-0.0723955
-0.0780473
-0.0832701
-0.0878893
-0.0917487
-0.094713
-0.0966717
-0.097543
-0.0972761
-0.0958529
-0.0932869
-0.089622
-0.0849282
-0.0792968
-0.0728347
-0.0656583
-0.0578874
-0.0496409
-0.0410324
-0.0321668
-0.0231391
-0.014033
-0.00492055
0.00413724
0.01309
0.0218968
0.0305254
0.0389506
0.0471539
0.0551218
0.0628459
0.0703191
0.0775299
-0.0341555
-0.0348884
-0.0352912
-0.0362194
-0.0380303
-0.0406624
-0.044041
-0.0480933
-0.0526709
-0.057583
-0.0626406
-0.0676615
-0.0724679
-0.0768904
-0.0807726
-0.0839746
-0.0863752
-0.0878758
-0.088403
-0.0879106
-0.0863806
-0.0838231
-0.0802738
-0.0757919
-0.0704549
-0.0643547
-0.0575919
-0.0502716
-0.0424984
-0.0343736
-0.0259918
-0.0174397
-0.00879432
-0.000123244
0.00851576
0.0170741
0.0255118
0.0337963
0.0419023
0.04981
0.0575048
0.0649767
0.0722171
0.0792143
-0.0325836
-0.0336127
-0.0345273
-0.0357625
-0.0375725
-0.0399833
-0.0429579
-0.0464393
-0.0503213
-0.0544618
-0.0587086
-0.0629085
-0.0669095
-0.0705652
-0.073739
-0.0763077
-0.0781647
-0.0792227
-0.0794162
-0.0787031
-0.0770656
-0.0745101
-0.071065
-0.0667791
-0.0617175
-0.0559581
-0.0495873
-0.042696
-0.0353759
-0.0277165
-0.0198026
-0.0117125
-0.0035171
0.00472097
0.0129472
0.0211152
0.029186
0.0371275
0.0449139
0.0525247
0.0599446
0.0671619
0.0741669
0.0809476
-0.0311244
-0.0323033
-0.033479
-0.0348747
-0.0366494
-0.0388477
-0.041456
-0.0444313
-0.0476958
-0.0511429
-0.0546522
-0.058098
-0.0613535
-0.0642948
-0.0668054
-0.068779
-0.0701232
-0.0707619
-0.0706373
-0.0697113
-0.0679666
-0.0654062
-0.0620524
-0.0579444
-0.0531365
-0.0476939
-0.0416899
-0.0352028
-0.028312
-0.0210962
-0.0136308
-0.00598605
0.00177344
0.00958986
0.0174122
0.0251965
0.032905
0.0405063
0.0479747
0.0552893
0.0624337
0.0693954
0.0761635
0.0827259
-0.0296604
-0.0308904
-0.0321665
-0.0336042
-0.0352939
-0.0372734
-0.0395387
-0.0420576
-0.0447712
-0.0475986
-0.0504452
-0.0532097
-0.055788
-0.0580772
-0.0599794
-0.061405
-0.0622749
-0.0625238
-0.0621013
-0.0609736
-0.0591242
-0.0565535
-0.0532784
-0.0493304
-0.0447537
-0.0396027
-0.0339391
-0.0278294
-0.0213422
-0.0145459
-0.00750702
-0.000288336
0.00705181
0.0144604
0.0218902
0.0292996
0.0366527
0.0439189
0.0510727
0.0580931
0.0649632
0.0716696
0.0782006
0.0845437
-0.0281161
-0.029326
-0.0305965
-0.0319878
-0.0335459
-0.0352949
-0.0372326
-0.0393337
-0.0415524
-0.0438263
-0.0460815
-0.0482368
-0.0502078
-0.0519104
-0.0532636
-0.0541928
-0.0546316
-0.0545246
-0.0538287
-0.0525142
-0.0505658
-0.0479821
-0.0447756
-0.0409713
-0.036605
-0.0317213
-0.0263719
-0.0206128
-0.0145027
-0.00810073
-0.00146506
0.00534859
0.0122879
0.0193047
0.0263554
0.033401
0.0404077
0.0473459
0.0541907
0.060921
0.0675198
0.073973
0.0802681
0.0863926
-0.0264428
-0.02758
-0.0287749
-0.0300578
-0.031447
-0.0329543
-0.0345758
-0.0362903
-0.0380614
-0.0398402
-0.0415686
-0.043182
-0.0446128
-0.0457929
-0.0466562
-0.0471414
-0.0471937
-0.0467666
-0.0458239
-0.0443399
-0.0423007
-0.0397039
-0.0365586
-0.0328841
-0.0287093
-0.0240705
-0.0190105
-0.0135762
-0.00781727
-0.00178457
0.00447141
0.0109016
0.0174595
0.0241015
0.0307878
0.0374823
0.0441529
0.0507718
0.0573144
0.0637603
0.070092
0.0762952
0.082357
0.0882645
-0.024776
-0.025809
-0.0268917
-0.0280385
-0.0292505
-0.0305304
-0.0318721
-0.0332564
-0.0346529
-0.0360219
-0.0373165
-0.0384845
-0.039471
-0.0402205
-0.0406788
-0.0407955
-0.040525
-0.0398289
-0.0386763
-0.0370455
-0.0349243
-0.03231
-0.0292092
-0.0256375
-0.0216183
-0.0171816
-0.0123633
-0.00720285
-0.0017428
0.00397306
0.00990068
0.0159969
0.02222
0.0285309
0.0348931
0.0412734
0.0476419
0.0539718
0.06024
0.0664261
0.072513
0.0784862
0.0843323
0.0900383
-0.0230022
-0.0239112
-0.0248565
-0.0258448
-0.0268667
-0.027918
-0.028991
-0.0300684
-0.0311242
-0.0321258
-0.0330351
-0.0338098
-0.0344053
-0.0347765
-0.0348794
-0.0346724
-0.0341184
-0.0331852
-0.0318476
-0.0300871
-0.0278931
-0.0252629
-0.0222016
-0.0187216
-0.0148419
-0.0105874
-0.00598782
-0.0010767
0.00410987
0.00953421
0.0151581
0.0209435
0.0268535
0.0328531
0.0389092
0.0449911
0.0510712
0.0571244
0.0631283
0.0690636
0.0749133
0.0806627
0.0862981
0.0918069
-0.0207978
-0.0215493
-0.0223208
-0.0231135
-0.0239115
-0.0247064
-0.0254891
-0.0262443
-0.0269503
-0.0275806
-0.0281049
-0.02849
-0.0287009
-0.0287021
-0.0284589
-0.0279385
-0.0271113
-0.0259518
-0.0244394
-0.0225593
-0.0203024
-0.0176662
-0.014654
-0.0112755
-0.0075456
-0.00348419
0.000884661
0.00553353
0.0104325
0.0155499
0.0208534
0.0263103
0.0318886
0.0375573
0.043287
0.04905
0.054821
0.0605767
0.0662959
0.0719601
0.0775527
0.0830589
0.0884652
0.093759
-0.0180994
-0.0186614
-0.0192263
-0.0197912
-0.0203375
-0.0208543
-0.0213323
-0.0217581
-0.0221138
-0.0223785
-0.0225285
-0.0225385
-0.022382
-0.0220318
-0.0214618
-0.0206469
-0.0195646
-0.0181952
-0.0165228
-0.0145357
-0.0122266
-0.00959319
-0.00663767
-0.00336706
0.000207266
0.00406995
0.00820213
0.012582
0.0171856
0.021987
0.0269595
0.0320758
0.0373088
0.0426318
0.0480191
0.0534463
0.0588904
0.0643302
0.0697461
0.0751204
0.0804372
0.0856819
0.090841
-0.0148568
-0.0152031
-0.0155368
-0.0158513
-0.016128
-0.0163553
-0.0165247
-0.0166247
-0.0166408
-0.0165569
-0.016355
-0.0160164
-0.0155214
-0.0148503
-0.0139837
-0.0129035
-0.0115931
-0.010038
-0.00822645
-0.00614953
-0.00380176
-0.00118105
0.00171111
0.00486972
0.00828644
0.0119498
0.0158454
0.0199566
0.0242644
0.0287487
0.0333879
0.0381597
0.0430418
0.0480118
0.0530479
0.0581288
0.0632344
0.0683456
0.0734445
0.0785147
0.0835409
0.0885091
0.0934063
-0.0110569
-0.0111723
-0.0112621
-0.0113166
-0.0113188
-0.0112583
-0.0111277
-0.0109175
-0.0106166
-0.0102125
-0.00969212
-0.0090419
-0.00824778
-0.00729578
-0.00617234
-0.00486461
-0.00336093
-0.0016511
0.00027326
0.00241846
0.00478853
0.00738503
0.010207
0.013251
0.0165109
0.0199785
0.0236432
0.0274924
0.031512
0.0356863
0.0399986
0.0444313
0.0489664
0.0535856
0.0582708
0.0630041
0.067768
0.0725459
0.0773216
0.0820802
0.0868074
0.09149
0.0961154
-0.00678055
-0.00666454
-0.00651212
-0.00631144
-0.00604873
-0.00571569
-0.00530619
-0.00481281
-0.00422705
-0.00353988
-0.00274193
-0.0018236
-0.000775193
0.000412847
0.00174975
0.00324418
0.00490401
0.00673608
0.00874604
0.0109381
0.013315
0.0158778
0.0186257
0.0215563
0.0246653
0.0279467
0.031393
0.034995
0.0387422
0.0426228
0.0466243
0.0507331
0.0549351
0.0592158
0.0635604
0.0679541
0.0723823
0.0768307
0.0812851
0.0857321
0.0901586
0.0945521
0.0989007
-0.00217716
-0.00184525
-0.00147036
-0.00103845
-0.000539499
3.22514e-05
0.000681529
0.00141407
0.00223612
0.00315416
0.00417475
0.0053045
0.00654998
0.00791764
0.00941359
0.0110436
0.0128127
0.0147256
0.0167858
0.0189961
0.0213583
0.0238728
0.0265393
0.0293557
0.0323193
0.0354257
0.0386694
0.042044
0.0455417
0.049154
0.0528713
0.0566834
0.0605794
0.0645479
0.0685771
0.072655
0.0767694
0.080908
0.0850586
0.0892092
0.093348
0.0974633
0.101544
0.00131894
0.00179489
0.00231827
0.00290298
0.00355651
0.00428285
0.00508585
0.00597022
0.00694085
0.00800271
0.00916073
0.0104198
0.0117847
0.0132602
0.0148504
0.0165595
0.0183911
0.0203481
0.022433
0.0246476
0.026993
0.0294693
0.0320758
0.0348111
0.0376727
0.0406573
0.0437605
0.0469772
0.0503015
0.0537265
0.0572447
0.0608478
0.0645271
0.0682732
0.0720762
0.075926
0.0798121
0.0837239
0.0876505
0.091581
0.0955045
0.0994101
0.103287
0.00358412
0.00414506
0.00475462
0.00542682
0.00616793
0.0069809
0.007869
0.0088363
0.00988694
0.011025
0.0122546
0.0135797
0.015004
0.0165314
0.0181651
0.0199085
0.0217641
0.0237344
0.0258212
0.0280258
0.0303489
0.0327906
0.0353501
0.0380262
0.0408167
0.0437188
0.0467289
0.0498425
0.0530547
0.0563595
0.0597506
0.0632207
0.0667623
0.0703671
0.0740263
0.0777309
0.0814713
0.0852378
0.0890203
0.0928086
0.0965923
0.100361
0.104104
0.0051214
0.00573469
0.00639734
0.00712289
0.00791707
0.00878218
0.00972111
0.0107375
0.011835
0.0130172
0.0142875
0.0156493
0.017106
0.0186604
0.0203157
0.0220742
0.0239383
0.0259099
0.0279905
0.030181
0.0324819
0.0348933
0.0374144
0.040044
0.0427801
0.0456203
0.0485613
0.0515992
0.0547295
0.057947
0.0612459
0.0646199
0.068062
0.0715645
0.0751197
0.0787189
0.0823534
0.0860139
0.0896909
0.0933746
0.097055
0.100722
0.104365
0.00610678
0.00675078
0.00744434
0.00820037
0.00902453
0.00991878
0.0108857
0.0119287
0.013051
0.0142559
0.0155464
0.0169255
0.0183962
0.0199611
0.0216228
0.0233835
0.0252452
0.0272094
0.0292775
0.0314504
0.0337283
0.0361111
0.0385983
0.0411887
0.0438804
0.0466712
0.0495581
0.0525375
0.0556053
0.0587567
0.0619863
0.0652882
0.068656
0.0720824
0.0755601
0.0790809
0.0826365
0.0862179
0.089816
0.0934213
0.097024
0.100614
0.104182
0.00666494
0.00732473
0.00803433
0.00880556
0.00964427
0.0105523
0.0115322
0.0125869
0.0137196
0.0149332
0.0162306
0.0176145
0.0190875
0.0206522
0.0223108
0.0240654
0.0259178
0.0278694
0.0299214
0.0320745
0.034329
0.0366848
0.0391414
0.0416975
0.0443516
0.0471014
0.0499442
0.0528766
0.0558948
0.0589941
0.0621696
0.0654156
0.0687258
0.0720936
0.0755116
0.0789722
0.082467
0.0859876
0.0895249
0.0930697
0.0966123