/*--------------------------------*- C++ -*----------------------------------*\
  =========                 |
  \\      /  F ield         | OpenFOAM: The Open Source CFD Toolbox
   \\    /   O peration     | Website:  https://openfoam.org
    \\  /    A nd           | Version:  6
     \\/     M anipulation  |
\*---------------------------------------------------------------------------*/
FoamFile
{
    version     2.0;
    format      ascii;
    class       surfaceScalarField;
    location    "0.06";
    object      phi;
}
// * * * * * * * * * * * * * * * * * * * * * * * * * * * * * * * * * * * * * //

dimensions      [0 3 -1 0 0 0 0];

internalField   nonuniform List<scalar> 
5945
(
3.25689e-07
-6.84826e-09
3.19473e-07
6.21578e-09
3.15961e-07
3.51225e-09
3.09019e-07
6.94196e-09
3.02252e-07
6.76663e-09
2.97502e-07
4.74983e-09
2.945e-07
3.00267e-09
2.92539e-07
1.96094e-09
2.91184e-07
1.35498e-09
2.90245e-07
9.38872e-10
2.89634e-07
6.11077e-10
2.89303e-07
3.30632e-10
2.89212e-07
9.10189e-11
2.89339e-07
-1.26954e-10
2.89757e-07
-4.17463e-10
2.90571e-07
-8.14298e-10
2.92688e-07
-2.11657e-09
-4.77597e-09
2.97463e-07
3.50362e-07
-1.54849e-08
3.4784e-07
8.73692e-09
3.44168e-07
7.18492e-09
3.4243e-07
8.67925e-09
3.40416e-07
8.78109e-09
3.3814e-07
7.0256e-09
3.36065e-07
5.07742e-09
3.34397e-07
3.62983e-09
3.33138e-07
2.61366e-09
3.3223e-07
1.84663e-09
3.31617e-07
1.22433e-09
3.31262e-07
6.85113e-10
3.3117e-07
1.83541e-10
3.31365e-07
-3.22464e-10
3.31886e-07
-9.38353e-10
3.32855e-07
-1.78286e-09
3.34332e-07
-3.59398e-09
-6.5631e-09
3.36119e-07
3.63443e-07
-1.26766e-08
3.66609e-07
5.57172e-09
3.66842e-07
6.95121e-09
3.67127e-07
8.39447e-09
3.66915e-07
8.99273e-09
3.66135e-07
7.80587e-09
3.65116e-07
6.09621e-09
3.64138e-07
4.60845e-09
3.63334e-07
3.41705e-09
3.62746e-07
2.43538e-09
3.62374e-07
1.59544e-09
3.62218e-07
8.41372e-10
3.62285e-07
1.16577e-10
3.626e-07
-6.37418e-10
3.63193e-07
-1.53139e-09
3.6412e-07
-2.70977e-09
3.65212e-07
-4.68546e-09
-7.54463e-09
3.66193e-07
3.89255e-07
-9.39301e-09
3.91518e-07
3.30932e-09
3.92533e-07
5.93608e-09
3.93322e-07
7.605e-09
3.93769e-07
8.54592e-09
3.93733e-07
7.84148e-09
3.93379e-07
6.45049e-09
3.92923e-07
5.06494e-09
3.9251e-07
3.83021e-09
3.92213e-07
2.73177e-09
3.92069e-07
1.74006e-09
3.92095e-07
8.14551e-10
3.92311e-07
-9.88392e-11
3.92737e-07
-1.0632e-09
3.93388e-07
-2.18278e-09
3.94267e-07
-3.5888e-09
3.95187e-07
-5.60517e-09
-8.25009e-09
3.95892e-07
4.18289e-07
-6.9698e-09
4.19482e-07
2.11674e-09
4.20459e-07
4.95866e-09
4.21359e-07
6.70546e-09
4.22105e-07
7.80012e-09
4.22501e-07
7.44513e-09
4.22599e-07
6.35259e-09
4.22547e-07
5.11695e-09
4.22469e-07
3.90872e-09
4.22442e-07
2.75864e-09
4.22515e-07
1.66688e-09
4.2272e-07
6.0954e-10
4.23079e-07
-4.58398e-10
4.23612e-07
-1.59538e-09
4.24319e-07
-2.88996e-09
4.25175e-07
-4.44481e-09
4.26016e-07
-6.44667e-09
-8.85935e-09
4.26626e-07
4.49057e-07
-5.11855e-09
4.49685e-07
1.48955e-09
4.50525e-07
4.11833e-09
4.51434e-07
5.79608e-09
4.52327e-07
6.90757e-09
4.52987e-07
6.78482e-09
4.53401e-07
5.93858e-09
4.53663e-07
4.85493e-09
4.53868e-07
3.70434e-09
4.54084e-07
2.54218e-09
4.54363e-07
1.38827e-09
4.54739e-07
2.33017e-10
4.55238e-07
-9.57016e-10
4.55872e-07
-2.23001e-09
4.56637e-07
-3.65422e-09
4.57492e-07
-5.30056e-09
4.58308e-07
-7.26191e-09
-9.47473e-09
4.58923e-07
4.81783e-07
-3.63004e-09
4.82145e-07
1.128e-09
4.82857e-07
3.40632e-09
4.83732e-07
4.92075e-09
4.84685e-07
5.95507e-09
4.85504e-07
5.96601e-09
4.86138e-07
5.3039e-09
4.86642e-07
4.35147e-09
4.8708e-07
3.26568e-09
4.8751e-07
2.1122e-09
4.87977e-07
9.2197e-10
4.88513e-07
-3.03617e-10
4.89143e-07
-1.58633e-09
4.89874e-07
-2.96156e-09
4.90697e-07
-4.47658e-09
4.9157e-07
-6.17355e-09
4.92394e-07
-8.08628e-09
-1.01469e-08
4.93066e-07
5.16779e-07
-2.45072e-09
5.16998e-07
9.08394e-10
5.17599e-07
2.80551e-09
5.18418e-07
4.1015e-09
5.19378e-07
4.99518e-09
5.20286e-07
5.05853e-09
5.21071e-07
4.51839e-09
5.21757e-07
3.66598e-09
5.22385e-07
2.63792e-09
5.22996e-07
1.50083e-09
5.23627e-07
2.90454e-10
5.24308e-07
-9.84069e-10
5.25056e-07
-2.33399e-09
5.25876e-07
-3.7818e-09
5.26755e-07
-5.35579e-09
5.27657e-07
-7.0753e-09
5.28511e-07
-8.94083e-09
-1.08928e-08
5.29257e-07
5.54243e-07
-1.5595e-09
5.54381e-07
7.69928e-10
5.54894e-07
2.2926e-09
5.55652e-07
3.34299e-09
5.56591e-07
4.05692e-09
5.57541e-07
4.10861e-09
5.58425e-07
3.63405e-09
5.59243e-07
2.84741e-09
5.60019e-07
1.86247e-09
5.60779e-07
7.41084e-10
5.6155e-07
-4.80396e-10
5.62353e-07
-1.78785e-09
5.63203e-07
-3.1838e-09
5.64101e-07
-4.67921e-09
5.65032e-07
-6.28695e-09
5.65967e-07
-8.01014e-09
5.66859e-07
-9.8331e-09
-1.1709e-08
5.67675e-07
5.94341e-07
-9.22772e-10
5.94444e-07
6.67046e-10
5.94896e-07
1.84036e-09
5.956e-07
2.63877e-09
5.96504e-07
3.15346e-09
5.97466e-07
3.14621e-09
5.9841e-07
2.68971e-09
5.99322e-07
1.93614e-09
6.00207e-07
9.76769e-10
6.01083e-07
-1.34241e-10
6.01965e-07
-1.36256e-09
6.02868e-07
-2.69124e-09
6.03801e-07
-4.11605e-09
6.0476e-07
-5.63868e-09
6.05734e-07
-7.26055e-09
6.06698e-07
-8.97449e-09
6.07624e-07
-1.07589e-08
-1.25793e-08
6.08494e-07
6.37258e-07
-4.99305e-10
6.37358e-07
5.66797e-10
6.37776e-07
1.42188e-09
6.38439e-07
1.97661e-09
6.39304e-07
2.28829e-09
6.4026e-07
2.18982e-09
6.41236e-07
1.71399e-09
6.42207e-07
9.65237e-10
6.43169e-07
1.42865e-11
6.44128e-07
-1.09342e-09
6.45093e-07
-2.32695e-09
6.4607e-07
-3.66813e-09
6.47062e-07
-5.10797e-09
6.48064e-07
-6.64132e-09
6.49066e-07
-8.2619e-09
6.50048e-07
-9.95684e-09
6.50993e-07
-1.17038e-08
-1.34786e-08
6.51892e-07
5.7386e-07
-2.75378e-10
5.73955e-07
4.7168e-10
5.74299e-07
1.07703e-09
5.74838e-07
1.43853e-09
5.7554e-07
1.58542e-09
5.76336e-07
1.3946e-09
5.77168e-07
8.81498e-10
5.78013e-07
1.19893e-10
5.78863e-07
-8.35102e-10
5.79715e-07
-1.94517e-09
5.8057e-07
-3.18257e-09
5.81431e-07
-4.529e-09
5.82296e-07
-5.9728e-09
5.83159e-07
-7.50479e-09
5.84012e-07
-9.11451e-09
5.84842e-07
-1.07867e-08
5.85639e-07
-1.25004e-08
-1.42378e-08
5.86398e-07
6.9967e-07
-1.29695e-10
6.99816e-07
3.25044e-10
7.00209e-07
6.84484e-10
7.00807e-07
8.40671e-10
7.01584e-07
8.07844e-10
7.02475e-07
5.04229e-10
7.03424e-07
-6.74226e-11
7.04402e-07
-8.58492e-10
7.05395e-07
-1.82801e-09
7.06395e-07
-2.94521e-09
7.07399e-07
-4.18614e-09
7.08403e-07
-5.53308e-09
7.09403e-07
-6.97256e-09
7.1039e-07
-8.49258e-09
7.11356e-07
-1.008e-08
7.12288e-07
-1.17185e-08
7.13177e-07
-1.33897e-08
-1.50811e-08
7.1402e-07
8.53026e-07
-7.05494e-11
8.53237e-07
1.13921e-10
8.53692e-07
2.29194e-10
8.54357e-07
1.75423e-10
8.55209e-07
-4.40161e-11
8.56189e-07
-4.76111e-10
8.57247e-07
-1.1247e-09
8.58348e-07
-1.96029e-09
8.59474e-07
-2.95385e-09
8.60611e-07
-4.08169e-09
8.61749e-07
-5.32393e-09
8.6288e-07
-6.66406e-09
8.63995e-07
-8.08793e-09
8.65084e-07
-9.58199e-09
8.66136e-07
-1.11319e-08
8.67139e-07
-1.27216e-08
8.68085e-07
-1.43351e-08
-1.5964e-08
8.68968e-07
1.03995e-06
-9.39853e-11
1.04023e-06
-1.68144e-10
1.04076e-06
-2.98684e-10
1.04149e-06
-5.62851e-10
1.04242e-06
-9.67137e-10
1.04348e-06
-1.53513e-09
1.04462e-06
-2.27181e-09
1.04582e-06
-3.1609e-09
1.04705e-06
-4.18285e-09
1.04829e-06
-5.32009e-09
1.04952e-06
-6.55662e-09
1.05074e-06
-7.87775e-09
1.05192e-06
-9.26966e-09
1.05306e-06
-1.07186e-08
1.05413e-06
-1.22102e-08
1.05514e-06
-1.37295e-08
1.05607e-06
-1.52624e-08
-1.68031e-08
1.05691e-06
1.26777e-06
-1.82232e-10
1.26812e-06
-5.16867e-10
1.26871e-06
-8.94772e-10
1.26952e-06
-1.36785e-09
1.2705e-06
-1.94868e-09
1.27161e-06
-2.64935e-09
1.27281e-06
-3.47392e-09
1.27407e-06
-4.41447e-09
1.27534e-06
-5.45885e-09
1.27662e-06
-6.59465e-09
1.27787e-06
-7.80949e-09
1.27909e-06
-9.09093e-09
1.28024e-06
-1.04264e-08
1.28133e-06
-1.1803e-08
1.28232e-06
-1.32074e-08
1.28322e-06
-1.46259e-08
1.284e-06
-1.60462e-08
-1.74635e-08
1.28466e-06
1.54545e-06
-3.09431e-10
1.54584e-06
-9.10476e-10
1.54648e-06
-1.53326e-09
1.54732e-06
-2.21008e-09
1.54832e-06
-2.95364e-09
1.54945e-06
-3.77234e-09
1.55064e-06
-4.67023e-09
1.55187e-06
-5.64497e-09
1.55311e-06
-6.69052e-09
1.55431e-06
-7.7993e-09
1.55546e-06
-8.96265e-09
1.55654e-06
-1.01709e-08
1.55753e-06
-1.14137e-08
1.55841e-06
-1.26797e-08
1.55916e-06
-1.39574e-08
1.55977e-06
-1.52348e-08
1.56022e-06
-1.65014e-08
-1.77527e-08
1.56051e-06
1.8839e-06
-4.46511e-10
1.8843e-06
-1.30668e-09
1.88493e-06
-2.16299e-09
1.88575e-06
-3.03043e-09
1.88671e-06
-3.91531e-09
1.88776e-06
-4.82523e-09
1.88886e-06
-5.76577e-09
1.88995e-06
-6.73927e-09
1.89101e-06
-7.74573e-09
1.89199e-06
-8.78311e-09
1.89288e-06
-9.84733e-09
1.89364e-06
-1.09325e-08
1.89425e-06
-1.20314e-08
1.89471e-06
-1.31355e-08
1.89499e-06
-1.42356e-08
1.89508e-06
-1.53224e-08
1.89496e-06
-1.63872e-08
-1.74262e-08
1.89464e-06
2.29644e-06
-5.5218e-10
2.29676e-06
-1.63054e-09
2.2973e-06
-2.70225e-09
2.29801e-06
-3.74177e-09
2.29884e-06
-4.74065e-09
2.29972e-06
-5.7063e-09
2.3006e-06
-6.64486e-09
2.30142e-06
-7.56326e-09
2.30215e-06
-8.46947e-09
2.30273e-06
-9.36944e-09
2.30315e-06
-1.02658e-08
2.30338e-06
-1.11583e-08
2.30339e-06
-1.20445e-08
2.30318e-06
-1.29202e-08
2.30272e-06
-1.37799e-08
2.30201e-06
-1.46176e-08
2.30105e-06
-1.54272e-08
-1.62063e-08
2.29984e-06
1.68106e-06
-5.41668e-10
1.68114e-06
-1.70866e-09
1.68137e-06
-2.93106e-09
1.68172e-06
-4.09032e-09
1.68214e-06
-5.16557e-09
1.6826e-06
-6.16237e-09
1.68303e-06
-7.08069e-09
1.6834e-06
-7.93161e-09
1.68366e-06
-8.73308e-09
1.68379e-06
-9.49986e-09
1.68377e-06
-1.02415e-08
1.68358e-06
-1.09635e-08
1.6832e-06
-1.16683e-08
1.68263e-06
-1.23556e-08
1.68188e-06
-1.30231e-08
1.68093e-06
-1.36673e-08
1.67978e-06
-1.42843e-08
-1.48724e-08
1.67845e-06
1.46329e-06
-3.75179e-10
1.46317e-06
-1.58982e-09
1.46324e-06
-3.00339e-09
1.46346e-06
-4.303e-09
1.46377e-06
-5.47722e-09
1.46413e-06
-6.52041e-09
1.46446e-06
-7.41572e-09
1.46472e-06
-8.18539e-09
1.46485e-06
-8.86561e-09
1.46483e-06
-9.48387e-09
1.46465e-06
-1.00588e-08
1.46429e-06
-1.06032e-08
1.46375e-06
-1.11249e-08
1.46302e-06
-1.16277e-08
1.46211e-06
-1.21122e-08
1.46102e-06
-1.25772e-08
1.45975e-06
-1.30201e-08
-1.34399e-08
1.45832e-06
1.27356e-06
7.92227e-11
1.27323e-06
-1.25647e-09
1.27321e-06
-2.98446e-09
1.27338e-06
-4.47723e-09
1.27371e-06
-5.80207e-09
1.2741e-06
-6.91485e-09
1.27446e-06
-7.77388e-09
1.27471e-06
-8.434e-09
1.2748e-06
-8.96372e-09
1.27473e-06
-9.40806e-09
1.27447e-06
-9.79709e-09
1.27402e-06
-1.01521e-08
1.27338e-06
-1.04866e-08
1.27256e-06
-1.08076e-08
1.27156e-06
-1.11176e-08
1.2704e-06
-1.14166e-08
1.26909e-06
-1.17027e-08
-1.19747e-08
1.26762e-06
1.10818e-06
9.91384e-10
1.10765e-06
-7.20741e-10
1.10763e-06
-2.96747e-09
1.10787e-06
-4.72416e-09
1.10833e-06
-6.26094e-09
1.10886e-06
-7.44359e-09
1.10931e-06
-8.21777e-09
1.10958e-06
-8.71204e-09
1.10966e-06
-9.04354e-09
1.10953e-06
-9.27781e-09
1.10919e-06
-9.45714e-09
1.10865e-06
-9.61086e-09
1.10792e-06
-9.75622e-09
1.10702e-06
-9.90138e-09
1.10595e-06
-1.0049e-08
1.10473e-06
-1.01985e-08
1.10337e-06
-1.03475e-08
-1.04935e-08
1.10189e-06
9.63989e-07
2.52336e-09
9.63323e-07
-5.38206e-11
9.63427e-07
-3.07157e-09
9.63862e-07
-5.15957e-09
9.64552e-07
-6.95102e-09
9.65256e-07
-8.14771e-09
9.65776e-07
-8.73742e-09
9.66044e-07
-8.97966e-09
9.66052e-07
-9.05153e-09
9.65811e-07
-9.03682e-09
9.65341e-07
-8.98717e-09
9.64666e-07
-8.93606e-09
9.6381e-07
-8.90026e-09
9.62794e-07
-8.88533e-09
9.61636e-07
-8.89109e-09
9.60352e-07
-8.91453e-09
9.58956e-07
-8.95107e-09
-8.99639e-09
9.57458e-07
8.38098e-07
4.96082e-09
8.37571e-07
4.7278e-10
8.37979e-07
-3.47953e-09
8.3871e-07
-5.89042e-09
8.39673e-07
-7.91384e-09
8.4051e-07
-8.9852e-09
8.41013e-07
-9.24023e-09
8.4116e-07
-9.12619e-09
8.40986e-07
-8.87822e-09
8.40538e-07
-8.58837e-09
8.39859e-07
-8.30867e-09
8.38992e-07
-8.06835e-09
8.37968e-07
-7.87672e-09
8.36815e-07
-7.73185e-09
8.35551e-07
-7.62758e-09
8.34193e-07
-7.55661e-09
8.32753e-07
-7.51125e-09
-7.48469e-09
8.31242e-07
7.27602e-07
9.08749e-09
7.27979e-07
9.56815e-11
7.28995e-07
-4.49578e-09
7.30121e-07
-7.01587e-09
7.31319e-07
-9.11213e-09
7.32146e-07
-9.81197e-09
7.32451e-07
-9.54525e-09
7.323e-07
-8.97567e-09
7.31795e-07
-8.37345e-09
7.31024e-07
-7.81677e-09
7.30055e-07
-7.34006e-09
7.28942e-07
-6.95501e-09
7.2772e-07
-6.65516e-09
7.26415e-07
-6.42655e-09
7.25042e-07
-6.25498e-09
7.23614e-07
-6.12821e-09
7.22138e-07
-6.03562e-09
-5.96797e-09
7.20622e-07
6.302e-07
1.58946e-08
6.32643e-07
-2.34752e-09
6.34473e-07
-6.32627e-09
6.36039e-07
-8.58216e-09
6.37328e-07
-1.04004e-08
6.37875e-07
-1.03588e-08
6.377e-07
-9.37061e-09
6.37013e-07
-8.28919e-09
6.36002e-07
-7.36164e-09
6.34793e-07
-6.6084e-09
6.3347e-07
-6.01717e-09
6.32082e-07
-5.56669e-09
6.30656e-07
-5.22868e-09
6.29205e-07
-4.97592e-09
6.27737e-07
-4.78703e-09
6.26255e-07
-4.64634e-09
6.24761e-07
-4.5419e-09
-4.46304e-09
6.23256e-07
5.47174e-07
2.32671e-08
5.51744e-07
-6.91772e-09
5.53321e-07
-7.90323e-09
5.54847e-07
-1.01084e-08
5.55707e-07
-1.12597e-08
5.5543e-07
-1.00821e-08
5.54322e-07
-8.26213e-09
5.52781e-07
-6.74902e-09
5.51074e-07
-5.65426e-09
5.49336e-07
-4.87044e-09
5.47626e-07
-4.30753e-09
5.45964e-07
-3.90469e-09
5.44351e-07
-3.61527e-09
5.4278e-07
-3.40461e-09
5.41242e-07
-3.24953e-09
5.39732e-07
-3.13568e-09
5.38243e-07
-3.05302e-09
-2.99291e-09
5.36773e-07
4.91583e-07
1.44445e-08
4.90626e-07
-5.96067e-09
4.87109e-07
-4.38555e-09
4.86007e-07
-9.00648e-09
4.84366e-07
-9.61912e-09
4.81772e-07
-7.48792e-09
4.78816e-07
-5.306e-09
4.75948e-07
-3.88162e-09
4.73341e-07
-3.04712e-09
4.71009e-07
-2.53841e-09
4.68912e-07
-2.21002e-09
4.66999e-07
-1.99202e-09
4.65227e-07
-1.84354e-09
4.63562e-07
-1.73887e-09
4.61975e-07
-1.66341e-09
4.60451e-07
-1.61133e-09
4.58981e-07
-1.58316e-09
-1.62281e-09
4.57611e-07
4.34712e-07
4.28751e-07
4.24366e-07
4.15359e-07
4.0574e-07
3.98252e-07
3.92946e-07
3.89065e-07
3.86018e-07
3.83479e-07
3.81269e-07
3.79277e-07
3.77434e-07
3.75695e-07
3.74031e-07
3.7242e-07
3.70837e-07
3.69214e-07
6.59167e-09
-6.59167e-09
2.59237e-09
3.99931e-09
-7.9175e-09
1.05099e-08
-2.23094e-08
1.43919e-08
-3.89655e-08
1.66561e-08
-5.69711e-08
1.80056e-08
-7.57752e-08
1.88041e-08
-9.50091e-08
1.9234e-08
-1.14402e-07
1.93927e-08
-1.33734e-07
1.93322e-08
-1.52814e-07
1.90795e-08
-1.71463e-07
1.86493e-08
-1.89513e-07
1.80507e-08
-2.06805e-07
1.72912e-08
-2.23183e-07
1.63783e-08
-2.38504e-07
1.53206e-08
-2.52631e-07
1.41278e-08
-2.65442e-07
1.28105e-08
-2.76822e-07
1.13805e-08
-2.86673e-07
9.85023e-09
-2.94905e-07
8.23244e-09
-3.01445e-07
6.54029e-09
-3.06233e-07
4.78774e-09
-3.09225e-07
2.99204e-09
-3.10411e-07
1.18594e-09
-3.09847e-07
-5.63863e-10
-3.0763e-07
-2.21727e-09
-3.03838e-07
-3.79179e-09
-2.98531e-07
-5.30671e-09
-2.91761e-07
-6.7701e-09
-2.83578e-07
-8.18303e-09
-2.74035e-07
-9.54306e-09
-2.63189e-07
-1.08459e-08
-2.51103e-07
-1.20864e-08
-2.37844e-07
-1.32591e-08
-2.23485e-07
-1.43588e-08
-2.08105e-07
-1.53803e-08
-1.91785e-07
-1.63194e-08
-1.74613e-07
-1.71719e-08
-1.56679e-07
-1.79346e-08
-1.38074e-07
-1.86046e-08
-1.18894e-07
-1.91796e-08
-9.92369e-08
-1.96575e-08
-2.00358e-08
-1.16854e-08
5.09376e-09
-2.44233e-08
1.67372e-08
-3.83279e-08
2.44144e-08
-5.37361e-08
2.98001e-08
-7.04869e-08
3.34069e-08
-8.81753e-08
3.5694e-08
-1.06378e-07
3.70071e-08
-1.24724e-07
3.75795e-08
-1.429e-07
3.75687e-08
-1.60649e-07
3.70816e-08
-1.77761e-07
3.61917e-08
-1.94064e-07
3.49514e-08
-2.09414e-07
3.34015e-08
-2.23699e-07
3.15757e-08
-2.36825e-07
2.95046e-08
-2.48721e-07
2.72165e-08
-2.59332e-07
2.47391e-08
-2.68621e-07
2.20989e-08
-2.76563e-07
1.93222e-08
-2.83147e-07
1.64344e-08
-2.88375e-07
1.34606e-08
-2.9226e-07
1.04257e-08
-2.94828e-07
7.35513e-09
-2.96112e-07
4.27633e-09
-2.96142e-07
1.21584e-09
-2.94893e-07
-1.81266e-09
-2.92304e-07
-4.80601e-09
-2.88341e-07
-7.75552e-09
-2.82998e-07
-1.0649e-08
-2.76294e-07
-1.34744e-08
-2.68257e-07
-1.62196e-08
-2.58928e-07
-1.88721e-08
-2.48355e-07
-2.14192e-08
-2.36593e-07
-2.38485e-08
-2.23704e-07
-2.61482e-08
-2.09755e-07
-2.83074e-08
-1.94819e-07
-3.03161e-08
-1.78973e-07
-3.21657e-08
-1.62296e-07
-3.38489e-08
-1.44871e-07
-3.536e-08
-1.26781e-07
-3.66946e-08
-1.0811e-07
-3.78501e-08
-8.8943e-08
-3.8825e-08
-3.96192e-08
-1.81854e-08
2.32792e-08
-3.48552e-08
3.3407e-08
-5.06832e-08
4.02424e-08
-6.62398e-08
4.53566e-08
-8.18685e-08
4.90356e-08
-9.76525e-08
5.14781e-08
-1.13519e-07
5.28731e-08
-1.29324e-07
5.33848e-08
-1.44905e-07
5.31501e-08
-1.60104e-07
5.22804e-08
-1.74777e-07
5.0865e-08
-1.88802e-07
4.89756e-08
-2.02072e-07
4.66718e-08
-2.145e-07
4.40038e-08
-2.26011e-07
4.10161e-08
-2.36544e-07
3.77489e-08
-2.46044e-07
3.42389e-08
-2.54465e-07
3.05206e-08
-2.6177e-07
2.66265e-08
-2.67923e-07
2.25873e-08
-2.72894e-07
1.84323e-08
-2.76658e-07
1.41897e-08
-2.7919e-07
9.88665e-09
-2.80462e-07
5.54873e-09
-2.80445e-07
1.19851e-09
-2.79111e-07
-3.1464e-09
-2.76448e-07
-7.46926e-09
-2.72454e-07
-1.17498e-08
-2.67136e-07
-1.59664e-08
-2.60514e-07
-2.0097e-08
-2.52613e-07
-2.41198e-08
-2.43472e-07
-2.80133e-08
-2.33134e-07
-3.1757e-08
-2.21652e-07
-3.5331e-08
-2.09083e-07
-3.8717e-08
-1.95492e-07
-4.18981e-08
-1.80949e-07
-4.48596e-08
-1.65526e-07
-4.75885e-08
-1.49301e-07
-5.00744e-08
-1.32352e-07
-5.23091e-08
-1.14759e-07
-5.4287e-08
-9.66041e-08
-5.6005e-08
-7.7967e-08
-5.74621e-08
-5.86598e-08
-1.93941e-08
4.26733e-08
-3.73022e-08
5.13152e-08
-5.39731e-08
5.69133e-08
-6.97812e-08
6.11648e-08
-8.50398e-08
6.42942e-08
-9.99389e-08
6.63772e-08
-1.14558e-07
6.74922e-08
-1.28899e-07
6.77262e-08
-1.42918e-07
6.71691e-08
-1.56545e-07
6.59073e-08
-1.697e-07
6.40198e-08
-1.82302e-07
6.15772e-08
-1.94271e-07
5.86414e-08
-2.05535e-07
5.52675e-08
-2.16024e-07
5.15048e-08
-2.25673e-07
4.73978e-08
-2.34421e-07
4.29876e-08
-2.42213e-07
3.83122e-08
-2.48994e-07
3.34073e-08
-2.54714e-07
2.83071e-08
-2.59325e-07
2.30441e-08
-2.62785e-07
1.76496e-08
-2.65053e-07
1.21543e-08
-2.66092e-07
6.58761e-09
-2.65871e-07
9.77986e-10
-2.6437e-07
-4.64751e-09
-2.61578e-07
-1.02611e-08
-2.57495e-07
-1.58332e-08
-2.52128e-07
-2.13332e-08
-2.45495e-07
-2.673e-08
-2.37622e-07
-3.19927e-08
-2.28544e-07
-3.70911e-08
-2.18305e-07
-4.19965e-08
-2.06955e-07
-4.66814e-08
-1.94551e-07
-5.11207e-08
-1.81158e-07
-5.52914e-08
-1.66843e-07
-5.91737e-08
-1.51681e-07
-6.27507e-08
-1.35747e-07
-6.60087e-08
-1.19119e-07
-6.89374e-08
-1.01875e-07
-7.15301e-08
-8.40973e-08
-7.37832e-08
-6.5863e-08
-7.56964e-08
-7.72724e-08
-1.90937e-08
6.1767e-08
-3.70001e-08
6.92216e-08
-5.3724e-08
7.36372e-08
-6.94744e-08
7.69152e-08
-8.44603e-08
7.92801e-08
-9.88455e-08
8.07623e-08
-1.12737e-07
8.13837e-08
-1.2619e-07
8.11794e-08
-1.39219e-07
8.01978e-08
-1.51807e-07
7.84955e-08
-1.63919e-07
7.61315e-08
-1.75505e-07
7.31638e-08
-1.86511e-07
6.96472e-08
-1.96877e-07
6.56331e-08
-2.06541e-07
6.11687e-08
-2.15441e-07
5.62981e-08
-2.23516e-07
5.10625e-08
-2.30705e-07
4.55009e-08
-2.36948e-07
3.96506e-08
-2.42188e-07
3.35477e-08
-2.46372e-07
2.72277e-08
-2.49448e-07
2.07259e-08
-2.51371e-07
1.40774e-08
-2.52102e-07
7.31789e-09
-2.51607e-07
4.83425e-10
-2.49865e-07
-6.38972e-09
-2.46862e-07
-1.32639e-08
-2.42596e-07
-2.00996e-08
-2.37072e-07
-2.68566e-08
-2.30309e-07
-3.34939e-08
-2.2233e-07
-3.9971e-08
-2.13173e-07
-4.62486e-08
-2.02881e-07
-5.22887e-08
-1.91506e-07
-5.8056e-08
-1.79109e-07
-6.35181e-08
-1.65754e-07
-6.86459e-08
-1.51513e-07
-7.34144e-08
-1.36461e-07
-7.78028e-08
-1.20675e-07
-8.17947e-08
-1.04235e-07
-8.53781e-08
-8.7219e-08
-8.85457e-08
-6.97081e-08
-9.12941e-08
-5.17803e-08
-9.36242e-08
-9.55406e-08
-1.82991e-08
8.0066e-08
-3.56653e-08
8.65878e-08
-5.19905e-08
8.99623e-08
-6.73832e-08
9.23079e-08
-8.19711e-08
9.3868e-08
-9.58714e-08
9.46627e-08
-1.09177e-07
9.46893e-08
-1.21951e-07
9.39537e-08
-1.34229e-07
9.24758e-08
-1.46021e-07
9.0287e-08
-1.57315e-07
8.74258e-08
-1.68086e-07
8.39344e-08
-1.78295e-07
7.98562e-08
-1.87895e-07
7.52336e-08
-1.96834e-07
7.0108e-08
-2.05056e-07
6.45192e-08
-2.12499e-07
5.85057e-08
-2.19103e-07
5.21048e-08
-2.24806e-07
4.53538e-08
-2.29548e-07
3.82897e-08
-2.3327e-07
3.09503e-08
-2.35919e-07
2.33745e-08
-2.37444e-07
1.56024e-08
-2.37802e-07
7.6763e-09
-2.36959e-07
-3.59794e-10
-2.34889e-07
-8.46046e-09
-2.31575e-07
-1.65778e-08
-2.27012e-07
-2.46618e-08
-2.21208e-07
-3.26612e-08
-2.14178e-07
-4.0524e-08
-2.0595e-07
-4.81991e-08
-1.96562e-07
-5.56364e-08
-1.86062e-07
-6.27883e-08
-1.74507e-07
-6.96108e-08
-1.61962e-07
-7.60636e-08
-1.48496e-07
-8.21115e-08
-1.34186e-07
-8.77246e-08
-1.1911e-07
-9.28785e-08
-1.0335e-07
-9.75547e-08
-8.69881e-08
-1.0174e-07
-7.0105e-08
-1.05429e-07
-5.27814e-08
-1.08618e-07
-3.50952e-08
-1.1131e-07
-1.13514e-07
-1.73137e-08
9.73797e-08
-3.38807e-08
1.03155e-07
-4.95372e-08
1.05619e-07
-6.43375e-08
1.07108e-07
-7.83576e-08
1.07888e-07
-9.16773e-08
1.07982e-07
-1.04368e-07
1.0738e-07
-1.16486e-07
1.06071e-07
-1.28069e-07
1.04059e-07
-1.39137e-07
1.01355e-07
-1.49693e-07
9.79816e-08
-1.59723e-07
9.39643e-08
-1.69201e-07
8.93337e-08
-1.78089e-07
8.41219e-08
-1.86342e-07
7.83614e-08
-1.93908e-07
7.20853e-08
-2.0073e-07
6.5327e-08
-2.06746e-07
5.81206e-08
-2.11893e-07
5.05012e-08
-2.16109e-07
4.25057e-08
-2.19332e-07
3.41731e-08
-2.21503e-07
2.55455e-08
-2.22568e-07
1.66681e-08
-2.22482e-07
7.58947e-09
-2.21204e-07
-1.6378e-09
-2.18705e-07
-1.09587e-08
-2.14969e-07
-2.03144e-08
-2.09988e-07
-2.96428e-08
-2.03769e-07
-3.88802e-08
-1.96331e-07
-4.79619e-08
-1.87706e-07
-5.68243e-08
-1.77937e-07
-6.54053e-08
-1.67078e-07
-7.36466e-08
-1.55195e-07
-8.14943e-08
-1.42358e-07
-8.89002e-08
-1.28647e-07
-9.58227e-08
-1.14144e-07
-1.02228e-07
-9.89349e-08
-1.08088e-07
-8.31058e-08
-1.13384e-07
-6.67428e-08
-1.18103e-07
-4.99299e-08
-1.22242e-07
-3.27481e-08
-1.258e-07
-1.52748e-08
-1.28784e-07
-1.31205e-07
-1.62364e-08
1.13616e-07
-3.18431e-08
1.18761e-07
-4.66371e-08
1.20413e-07
-6.06463e-08
1.21117e-07
-7.39185e-08
1.2116e-07
-8.65086e-08
1.20573e-07
-9.84707e-08
1.19342e-07
-1.09852e-07
1.17452e-07
-1.20687e-07
1.14894e-07
-1.30998e-07
1.11667e-07
-1.40794e-07
1.07777e-07
-1.50068e-07
1.03238e-07
-1.58801e-07
9.80668e-08
-1.66963e-07
9.22834e-08
-1.74512e-07
8.59108e-08
-1.814e-07
7.89735e-08
-1.87571e-07
7.14981e-08
-1.92964e-07
6.35134e-08
-1.97514e-07
5.5051e-08
-2.01155e-07
4.61463e-08
-2.0382e-07
3.68388e-08
-2.05448e-07
2.71728e-08
-2.05978e-07
1.71983e-08
-2.05359e-07
6.9707e-09
-2.03548e-07
-3.44861e-09
-2.00513e-07
-1.3994e-08
-1.96234e-07
-2.45939e-08
-1.90704e-07
-3.51727e-08
-1.83932e-07
-4.56516e-08
-1.75943e-07
-5.59514e-08
-1.66773e-07
-6.59935e-08
-1.56477e-07
-7.57022e-08
-1.45117e-07
-8.50066e-08
-1.32769e-07
-9.38424e-08
-1.19515e-07
-1.02153e-07
-1.05446e-07
-1.09892e-07
-9.06542e-08
-1.1702e-07
-7.52325e-08
-1.23509e-07
-5.92743e-08
-1.29342e-07
-4.28698e-08
-1.34508e-07
-2.61052e-08
-1.39006e-07
-9.06234e-09
-1.42842e-07
8.18242e-09
-1.46028e-07
-1.48581e-07
-1.50687e-08
1.28685e-07
-2.95713e-08
1.33264e-07
-4.33263e-08
1.34168e-07
-5.63524e-08
1.34143e-07
-6.86835e-08
1.33491e-07
-8.03615e-08
1.3225e-07
-9.14294e-08
1.3041e-07
-1.01927e-07
1.2795e-07
-1.11887e-07
1.24854e-07
-1.2133e-07
1.21111e-07
-1.30269e-07
1.16716e-07
-1.38699e-07
1.11669e-07
-1.46608e-07
1.05975e-07
-1.53968e-07
9.96434e-08
-1.60742e-07
9.26846e-08
-1.66882e-07
8.51139e-08
-1.72334e-07
7.69493e-08
-1.77033e-07
6.82128e-08
-1.80913e-07
5.8931e-08
-1.83903e-07
4.91364e-08
-1.85932e-07
3.88675e-08
-1.86929e-07
2.81707e-08
-1.86831e-07
1.71002e-08
-1.8558e-07
5.71885e-09
-1.83126e-07
-5.90253e-09
-1.79434e-07
-1.76859e-08
-1.74483e-07
-2.95449e-08
-1.68268e-07
-4.13873e-08
-1.60803e-07
-5.31171e-08
-1.52117e-07
-6.46367e-08
-1.42261e-07
-7.585e-08
-1.31298e-07
-8.66654e-08
-1.19306e-07
-9.69982e-08
-1.06376e-07
-1.06773e-07
-9.26051e-08
-1.15924e-07
-7.80964e-08
-1.244e-07
-6.29542e-08
-1.32162e-07
-4.72818e-08
-1.39182e-07
-3.11789e-08
-1.45445e-07
-1.47401e-08
-1.50947e-07
1.94656e-09
-1.55693e-07
1.88007e-08
-1.59696e-07
3.57496e-08
-1.62977e-07
-1.65561e-07
-1.37691e-08
1.42454e-07
-2.69979e-08
1.46493e-07
-3.95184e-08
1.46688e-07
-5.13491e-08
1.45974e-07
-6.25204e-08
1.44663e-07
-7.30688e-08
1.42799e-07
-8.30325e-08
1.40373e-07
-9.24479e-08
1.37365e-07
-1.01346e-07
1.33752e-07
-1.09749e-07
1.29514e-07
-1.1767e-07
1.24637e-07
-1.25109e-07
1.19108e-07
-1.32054e-07
1.12921e-07
-1.38483e-07
1.06072e-07
-1.44358e-07
9.85604e-08
-1.49635e-07
9.03902e-08
-1.54255e-07
8.15694e-08
-1.58154e-07
7.21115e-08
-1.61259e-07
6.20364e-08
-1.63494e-07
5.13718e-08
-1.64782e-07
4.01546e-08
-1.65043e-07
2.8432e-08
-1.64205e-07
1.62626e-08
-1.62204e-07
3.71734e-09
-1.58984e-07
-9.12273e-09
-1.54505e-07
-2.21644e-08
-1.48746e-07
-3.53037e-08
-1.41705e-07
-4.84281e-08
-1.33403e-07
-6.14198e-08
-1.2388e-07
-7.41595e-08
-1.132e-07
-8.65299e-08
-1.01445e-07
-9.84205e-08
-8.8712e-08
-1.09731e-07
-7.511e-08
-1.20375e-07
-6.07551e-08
-1.30279e-07
-4.57665e-08
-1.39389e-07
-3.02614e-08
-1.47667e-07
-1.43537e-08
-1.5509e-07
1.85067e-09
-1.61649e-07
1.82548e-08
-1.67351e-07
3.47719e-08
-1.7221e-07
5.13262e-08
-1.76251e-07
6.78521e-08
-1.79503e-07
-1.82003e-07
-1.22753e-08
1.54729e-07
-2.40094e-08
1.58227e-07
-3.5056e-08
1.57735e-07
-4.54395e-08
1.56358e-07
-5.51925e-08
1.54416e-07
-6.43517e-08
1.51958e-07
-7.29554e-08
1.48977e-07
-8.10401e-08
1.4545e-07
-8.86375e-08
1.41349e-07
-9.57722e-08
1.36649e-07
-1.02459e-07
1.31323e-07
-1.08701e-07
1.2535e-07
-1.14491e-07
1.1871e-07
-1.19805e-07
1.11387e-07
-1.24611e-07
1.03366e-07
-1.28861e-07
9.46401e-08
-1.32496e-07
8.52049e-08
-1.35449e-07
7.50636e-08
-1.3764e-07
6.42275e-08
-1.38986e-07
5.27179e-08
-1.39399e-07
4.05683e-08
-1.38794e-07
2.78261e-08
-1.37085e-07
1.45542e-08
-1.342e-07
8.31973e-10
-1.30075e-07
-1.3247e-08
-1.24668e-07
-2.75715e-08
-1.17957e-07
-4.20154e-08
-1.09944e-07
-5.64409e-08
-1.0066e-07
-7.07032e-08
-9.01642e-08
-8.46555e-08
-7.85386e-08
-9.81556e-08
-6.58885e-08
-1.11071e-07
-5.23359e-08
-1.23284e-07
-3.8013e-08
-1.34698e-07
-2.30581e-08
-1.45234e-07
-7.60842e-09
-1.54839e-07
8.20491e-09
-1.63481e-07
2.42604e-08
-1.71145e-07
4.04483e-08
-1.77837e-07
5.66736e-08
-1.83576e-07
7.28552e-08
-1.88392e-07
8.89261e-08
-1.92322e-07
1.04832e-07
-1.95409e-07
-1.97702e-07
-1.05105e-08
1.6524e-07
-2.04609e-08
1.68177e-07
-2.97347e-08
1.67009e-07
-3.83649e-08
1.64988e-07
-4.63899e-08
1.62441e-07
-5.38506e-08
1.59419e-07
-6.07883e-08
1.55915e-07
-6.72426e-08
1.51904e-07
-7.32486e-08
1.47355e-07
-7.8834e-08
1.42234e-07
-8.40172e-08
1.36507e-07
-8.88053e-08
1.30138e-07
-9.31927e-08
1.23098e-07
-9.71601e-08
1.15354e-07
-1.00674e-07
1.0688e-07
-1.03688e-07
9.7654e-08
-1.06141e-07
8.76575e-08
-1.07959e-07
7.68814e-08
-1.09058e-07
6.53262e-08
-1.09345e-07
5.30048e-08
-1.08721e-07
3.99453e-08
-1.0709e-07
2.61941e-08
-1.04354e-07
1.18185e-08
-1.00429e-07
-3.093e-09
-9.52444e-08
-1.84317e-08
-8.87521e-08
-3.40638e-08
-8.09322e-08
-4.98353e-08
-7.17972e-08
-6.5576e-08
-6.13937e-08
-8.11067e-08
-4.98019e-08
-9.62473e-08
-3.71325e-08
-1.10825e-07
-2.35214e-08
-1.24682e-07
-9.1211e-09
-1.37684e-07
5.90734e-09
-1.49726e-07
2.14028e-08
-1.60729e-07
3.72104e-08
-1.70646e-07
5.31877e-08
-1.79458e-07
6.92097e-08
-1.87167e-07
8.51694e-08
-1.93797e-07
1.00979e-07
-1.99386e-07
1.1657e-07
-2.03983e-07
1.31891e-07
-2.07642e-07
1.46904e-07
-2.10422e-07
-2.12383e-07
-8.38351e-09
1.73623e-07
-1.61809e-08
1.75975e-07
-2.33118e-08
1.7414e-07
-2.98184e-08
1.71495e-07
-3.57466e-08
1.68369e-07
-4.11432e-08
1.64815e-07
-4.60551e-08
1.60827e-07
-5.05268e-08
1.56376e-07
-5.45982e-08
1.51427e-07
-5.83017e-08
1.45938e-07
-6.16601e-08
1.39865e-07
-6.46846e-08
1.33163e-07
-6.73732e-08
1.25786e-07
-6.97092e-08
1.1769e-07
-7.16606e-08
1.08832e-07
-7.31799e-08
9.91732e-08
-7.42034e-08
8.86811e-08
-7.46531e-08
7.73311e-08
-7.4437e-08
6.51101e-08
-7.34525e-08
5.20203e-08
-7.15896e-08
3.80824e-08
-6.87362e-08
2.33407e-08
-6.4784e-08
7.86641e-09
-5.96343e-08
-8.24274e-09
-5.32082e-08
-2.48578e-08
-4.5455e-08
-4.18169e-08
-3.63603e-08
-5.893e-08
-2.59512e-08
-7.59851e-08
-1.42988e-08
-9.2759e-08
-1.51581e-09
-1.0903e-07
1.22503e-08
-1.24591e-07
2.68257e-08
-1.39257e-07
4.20215e-08
-1.5288e-07
5.76453e-08
-1.6535e-07
7.35135e-08
-1.76597e-07
8.94586e-08
-1.86592e-07
1.05335e-07
-1.95334e-07
1.21022e-07
-2.02854e-07
1.36424e-07
-2.09199e-07
1.51471e-07
-2.14433e-07
1.66115e-07
-2.18627e-07
1.80328e-07
-2.21855e-07
1.94096e-07
-2.2419e-07
-2.25705e-07
-5.77449e-09
1.79398e-07
-1.09658e-08
1.81166e-07
-1.55095e-08
1.78683e-07
-1.94531e-08
1.75438e-07
-2.28515e-08
1.71767e-07
-2.57591e-08
1.67723e-07
-2.82297e-08
1.63297e-07
-3.03137e-08
1.5846e-07
-3.20568e-08
1.5317e-07
-3.34964e-08
1.47377e-07
-3.46602e-08
1.41029e-07
-3.55635e-08
1.34066e-07
-3.62077e-08
1.2643e-07
-3.65785e-08
1.18061e-07
-3.66452e-08
1.08899e-07
-3.63595e-08
9.88876e-08
-3.56556e-08
8.79771e-08
-3.44499e-08
7.61254e-08
-3.26433e-08
6.33035e-08
-3.01227e-08
4.94997e-08
-2.67655e-08
3.47252e-08
-2.24455e-08
1.90207e-08
-1.704e-08
2.46097e-09
-1.04378e-08
-1.4845e-08
-2.55303e-09
-3.27425e-08
6.66378e-09
-5.10337e-08
1.72147e-08
-6.94809e-08
2.90473e-08
-8.78177e-08
4.20539e-08
-1.05766e-07
5.60764e-08
-1.23053e-07
7.09175e-08
-1.39432e-07
8.63572e-08
-1.54697e-07
1.02168e-07
-1.68691e-07
1.18132e-07
-1.81313e-07
1.34049e-07
-1.92515e-07
1.49751e-07
-2.02293e-07
1.65102e-07
-2.10685e-07
1.8e-07
-2.17752e-07
1.94377e-07
-2.23576e-07
2.08191e-07
-2.28248e-07
2.21426e-07
-2.31862e-07
2.34085e-07
-2.34513e-07
2.46183e-07
-2.36288e-07
-2.3727e-07
-2.44974e-09
1.81847e-07
-4.55938e-09
1.83276e-07
-6.00277e-09
1.80127e-07
-6.8761e-09
1.76312e-07
-7.24918e-09
1.7214e-07
-7.18618e-09
1.6766e-07
-6.74819e-09
1.62859e-07
-5.99224e-09
1.57704e-07
-4.96915e-09
1.52147e-07
-3.72117e-09
1.46129e-07
-2.27966e-09
1.39587e-07
-6.63064e-10
1.3245e-07
1.12502e-09
1.24642e-07
3.09743e-09
1.16088e-07
5.28479e-09
1.06711e-07
7.73663e-09
9.64357e-08
1.0522e-08
8.51917e-08
1.37296e-08
7.29179e-08
1.74664e-08
5.95667e-08
2.18557e-08
4.51104e-08
2.7032e-08
2.95489e-08
3.31345e-08
1.29181e-08
4.03015e-08
-4.70606e-09
4.8654e-08
-2.31975e-08
5.82787e-08
-4.23672e-08
6.9211e-08
-6.1966e-08
8.14223e-08
-8.16923e-08
9.48154e-08
-1.01211e-07
1.09226e-07
-1.20176e-07
1.24435e-07
-1.38262e-07
1.40188e-07
-1.55185e-07
1.56218e-07
-1.70726e-07
1.72264e-07
-1.84737e-07
1.88096e-07
-1.97145e-07
2.0352e-07
-2.07938e-07
2.18387e-07
-2.17161e-07
2.32595e-07
-2.24893e-07
2.46081e-07
-2.31238e-07
2.58818e-07
-2.36313e-07
2.7081e-07