/*--------------------------------*- C++ -*----------------------------------*\
  =========                 |
  \\      /  F ield         | OpenFOAM: The Open Source CFD Toolbox
   \\    /   O peration     | Website:  https://openfoam.org
    \\  /    A nd           | Version:  6
     \\/     M anipulation  |
\*---------------------------------------------------------------------------*/
FoamFile
{
    version     2.0;
    format      ascii;
    class       volVectorField;
    location    "0.06";
    object      U;
}
// * * * * * * * * * * * * * * * * * * * * * * * * * * * * * * * * * * * * * //

dimensions      [0 1 -1 0 0 0 0];

internalField   nonuniform List<vector> 
3032
(
(0.948798 -0.405348 0)
(1.01282 -0.190425 0)
(1.01508 -0.0513188 0)
(0.984099 -0.00518479 0)
(0.956625 0.00441379 0)
(0.93896 0.00407738 0)
(0.927673 0.00239006 0)
(0.920144 0.00124102 0)
(0.915038 0.000637266 0)
(0.911536 0.000312216 0)
(0.909161 9.93529e-05 0)
(0.907701 -7.58842e-05 0)
(0.907083 -0.000233461 0)
(0.907161 -0.00037505 0)
(0.907907 -0.000570856 0)
(0.910134 -0.000809459 0)
(0.913095 -0.0017919 0)
(0.926326 -0.00307053 0)
(1.03693 0.0761083 0)
(1.02001 0.0532497 0)
(1.01154 0.0192703 0)
(1.00483 0.00884025 0)
(0.998927 0.00648409 0)
(0.992778 0.00496834 0)
(0.986376 0.0036245 0)
(0.980767 0.00266305 0)
(0.976466 0.00199935 0)
(0.973342 0.00148681 0)
(0.97115 0.0010485 0)
(0.969746 0.000644669 0)
(0.969064 0.000253691 0)
(0.969211 -0.000154715 0)
(0.97021 -0.00070069 0)
(0.9724 -0.00148735 0)
(0.975648 -0.00353275 0)
(0.981218 -0.00717424 0)
(0.998323 0.0131098 0)
(0.995428 0.0118071 0)
(1.00108 0.00622121 0)
(1.00251 0.00626032 0)
(1.00228 0.00665491 0)
(1.00098 0.00584288 0)
(0.998422 0.00463808 0)
(0.995518 0.00359071 0)
(0.99301 0.00275095 0)
(0.991102 0.00204325 0)
(0.989792 0.00141289 0)
(0.989068 0.000815811 0)
(0.988928 0.000203783 0)
(0.989434 -0.000479601 0)
(0.990636 -0.00136078 0)
(0.992718 -0.00262583 0)
(0.99546 -0.00505442 0)
(0.998792 -0.00915954 0)
(0.995113 -0.00698226 0)
(0.992583 0.00113855 0)
(0.9989 0.00371282 0)
(1.00146 0.00559353 0)
(1.00272 0.00653497 0)
(1.00331 0.00611685 0)
(1.00276 0.00513556 0)
(1.00159 0.00413922 0)
(1.0004 0.00323814 0)
(0.99947 0.00241131 0)
(0.998892 0.00163014 0)
(0.998728 0.000857637 0)
(0.99902 4.07907e-05 0)
(0.999822 -0.000889477 0)
(1.00117 -0.00206461 0)
(1.00315 -0.003678 0)
(1.00551 -0.00627718 0)
(1.00788 -0.0100885 0)
(0.996679 -0.00696475 0)
(0.993927 0.000683297 0)
(0.998376 0.00345506 0)
(1.00073 0.00507841 0)
(1.00249 0.00609512 0)
(1.00395 0.00596412 0)
(1.00452 0.00522369 0)
(1.00448 0.00434057 0)
(1.00426 0.00344552 0)
(1.0041 0.00255455 0)
(1.00413 0.00166191 0)
(1.00444 0.000741162 0)
(1.0051 -0.000257935 0)
(1.00615 -0.00140687 0)
(1.00761 -0.00282829 0)
(1.0095 -0.00468967 0)
(1.0116 -0.0073388 0)
(1.0135 -0.0108437 0)
(0.997835 -0.00419065 0)
(0.995268 0.00108502 0)
(0.998209 0.00310175 0)
(1.00026 0.00445849 0)
(1.00216 0.00547317 0)
(1.00399 0.00553612 0)
(1.00519 0.00499952 0)
(1.00587 0.00423868 0)
(1.00634 0.00338116 0)
(1.00678 0.00246228 0)
(1.0073 0.00149109 0)
(1.00801 0.000450581 0)
(1.00897 -0.000702997 0)
(1.01022 -0.00203616 0)
(1.01177 -0.0036535 0)
(1.0136 -0.00568491 0)
(1.01552 -0.00833342 0)
(1.0172 -0.011591 0)
(0.998459 -0.00263217 0)
(0.99633 0.000933834 0)
(0.9983 0.00258099 0)
(1.00005 0.00381113 0)
(1.0019 0.00477519 0)
(1.00383 0.00494751 0)
(1.00536 0.00455985 0)
(1.0065 0.00390225 0)
(1.00744 0.00308781 0)
(1.00831 0.00215844 0)
(1.00922 0.00113035 0)
(1.01024 -6.73799e-06 0)
(1.01143 -0.00128897 0)
(1.01284 -0.00277339 0)
(1.01445 -0.00454281 0)
(1.01623 -0.00668967 0)
(1.01804 -0.00932078 0)
(1.01963 -0.0123955 0)
(0.998893 -0.00181041 0)
(0.997243 0.000689218 0)
(0.99858 0.0021092 0)
(1.00005 0.00320062 0)
(1.00176 0.00405773 0)
(1.00364 0.00426826 0)
(1.0053 0.00397406 0)
(1.0067 0.0033898 0)
(1.00795 0.00260951 0)
(1.00912 0.0016739 0)
(1.01031 0.000600855 0)
(1.01156 -0.000615648 0)
(1.01293 -0.00200429 0)
(1.01444 -0.00361087 0)
(1.01609 -0.00549677 0)
(1.01783 -0.00772249 0)
(1.01957 -0.0103359 0)
(1.02112 -0.0132898 0)
(0.999243 -0.00121724 0)
(0.99803 0.000546828 0)
(0.998948 0.00172648 0)
(1.00018 0.00263853 0)
(1.00171 0.00334922 0)
(1.00347 0.00354205 0)
(1.00515 0.00329093 0)
(1.00668 0.00274729 0)
(1.0081 0.00198506 0)
(1.00947 0.00103934 0)
(1.01084 -7.35689e-05 0)
(1.01225 -0.00135733 0)
(1.01373 -0.0028339 0)
(1.01531 -0.00453803 0)
(1.01696 -0.0065124 0)
(1.01866 -0.00879322 0)
(1.02033 -0.0113958 0)
(1.02187 -0.0142801 0)
(0.999512 -0.000753311 0)
(0.998676 0.000472788 0)
(0.999333 0.00140311 0)
(1.00037 0.0021197 0)
(1.00173 0.00266421 0)
(1.00335 0.0027977 0)
(1.00498 0.00254674 0)
(1.00654 0.00201242 0)
(1.00804 0.00124952 0)
(1.00951 0.000285594 0)
(1.01098 -0.000866358 0)
(1.01248 -0.0022089 0)
(1.01402 -0.00375836 0)
(1.01561 -0.00553975 0)
(1.01724 -0.00758095 0)
(1.01888 -0.00990143 0)
(1.02048 -0.012501 0)
(1.02199 -0.0153516 0)
(0.999703 -0.000424016 0)
(0.999181 0.000412529 0)
(0.999688 0.00111008 0)
(1.00058 0.00163448 0)
(1.00179 0.00200692 0)
(1.00325 0.00205191 0)
(1.00479 0.00176677 0)
(1.00633 0.00121429 0)
(1.00784 0.000432333 0)
(1.00934 -0.000559435 0)
(1.01085 -0.00175193 0)
(1.01237 -0.00314736 0)
(1.01391 -0.00475759 0)
(1.01548 -0.00659976 0)
(1.01705 -0.00869096 0)
(1.01862 -0.0110402 0)
(1.02014 -0.0136415 0)
(1.02158 -0.0164785 0)
(0.999819 -0.000229168 0)
(0.999524 0.000347662 0)
(0.999963 0.000852995 0)
(1.00076 0.00121143 0)
(1.00185 0.00142947 0)
(1.00319 0.00137722 0)
(1.00462 0.00103808 0)
(1.00609 0.000449273 0)
(1.00757 -0.00036432 0)
(1.00905 -0.00138967 0)
(1.01054 -0.00262108 0)
(1.01203 -0.00406082 0)
(1.01354 -0.00571763 0)
(1.01504 -0.00760323 0)
(1.01654 -0.00972794 0)
(1.01801 -0.0120953 0)
(1.01943 -0.0146984 0)
(1.02079 -0.0175285 0)
(0.999899 -0.000112971 0)
(0.999777 0.000267411 0)
(1.00018 0.000599495 0)
(1.00092 0.000803505 0)
(1.00191 0.000874867 0)
(1.00312 0.000718938 0)
(1.00445 0.000312969 0)
(1.00583 -0.000324203 0)
(1.00725 -0.0011783 0)
(1.00867 -0.00224196 0)
(1.0101 -0.00351247 0)
(1.01154 -0.00499225 0)
(1.01297 -0.00668773 0)
(1.0144 -0.00860657 0)
(1.0158 -0.0107544 0)
(1.01716 -0.0131317 0)
(1.01846 -0.0157323 0)
(1.01971 -0.0185542 0)
(0.999956 -5.17256e-05 0)
(0.99997 0.00015063 0)
(1.00036 0.000309255 0)
(1.00104 0.000351826 0)
(1.00193 0.000266758 0)
(1.00302 -9.91953e-06 0)
(1.00423 -0.000502581 0)
(1.0055 -0.00120602 0)
(1.00681 -0.0021146 0)
(1.00814 -0.00322602 0)
(1.00948 -0.00454032 0)
(1.01081 -0.00606022 0)
(1.01213 -0.00779029 0)
(1.01342 -0.00973505 0)
(1.01468 -0.0118969 0)
(1.01589 -0.0142744 0)
(1.01703 -0.0168629 0)
(1.01812 -0.0196652 0)
(0.999991 -4.50736e-05 0)
(1.0001 -1.35178e-05 0)
(1.00048 -2.90458e-05 0)
(1.0011 -0.000151293 0)
(1.00191 -0.00039664 0)
(1.00287 -0.00080553 0)
(1.00394 -0.00140031 0)
(1.00508 -0.00218449 0)
(1.00625 -0.0031586 0)
(1.00744 -0.00432415 0)
(1.00863 -0.00568335 0)
(1.00981 -0.00723912 0)
(1.01097 -0.00899463 0)
(1.01208 -0.0109522 0)
(1.01315 -0.013112 0)
(1.01416 -0.0154716 0)
(1.01509 -0.0180273 0)
(1.01595 -0.0207842 0)
(1.00001 -8.45178e-05 0)
(1.00016 -0.000225567 0)
(1.00052 -0.000418164 0)
(1.00109 -0.000706828 0)
(1.0018 -0.00111052 0)
(1.00263 -0.00165503 0)
(1.00355 -0.00235881 0)
(1.00453 -0.00322974 0)
(1.00553 -0.00427219 0)
(1.00654 -0.00549005 0)
(1.00754 -0.00688676 0)
(1.00852 -0.00846525 0)
(1.00946 -0.0102276 0)
(1.01034 -0.0121746 0)
(1.01117 -0.014305 0)
(1.01192 -0.0166156 0)
(1.01258 -0.0191028 0)
(1.01317 -0.0217714 0)
(1.00001 -0.000155806 0)
(1.00017 -0.00047619 0)
(1.0005 -0.00084836 0)
(1.00098 -0.00130318 0)
(1.00159 -0.00185876 0)
(1.00228 -0.00253309 0)
(1.00304 -0.00334094 0)
(1.00383 -0.00429164 0)
(1.00463 -0.00539156 0)
(1.00543 -0.00664579 0)
(1.00619 -0.00805832 0)
(1.00692 -0.00963184 0)
(1.00759 -0.0113676 0)
(1.0082 -0.0132652 0)
(1.00873 -0.0153223 0)
(1.00917 -0.017535 0)
(1.00952 -0.0198991 0)
(1.00977 -0.0224173 0)
(1.00001 -0.000241533 0)
(1.00015 -0.00074349 0)
(1.00042 -0.00129271 0)
(1.00081 -0.00190823 0)
(1.00129 -0.00260338 0)
(1.00183 -0.0033914 0)
(1.0024 -0.00428411 0)
(1.00299 -0.0052908 0)
(1.00357 -0.00641878 0)
(1.00411 -0.0076739 0)
(1.00461 -0.00906043 0)
(1.00505 -0.0105809 0)
(1.00542 -0.012236 0)
(1.00571 -0.0140247 0)
(1.00591 -0.015944 0)
(1.00601 -0.0179892 0)
(1.006 -0.0201555 0)
(1.00589 -0.0224434 0)
(1.00001 -0.000322304 0)
(1.0001 -0.00099229 0)
(1.00028 -0.00170588 0)
(1.00055 -0.00246593 0)
(1.0009 -0.00327706 0)
(1.00127 -0.00414808 0)
(1.00166 -0.00508774 0)
(1.00204 -0.00610459 0)
(1.00238 -0.00720687 0)
(1.00267 -0.00840155 0)
(1.00289 -0.0096937 0)
(1.00304 -0.0110864 0)
(1.00309 -0.0125805 0)
(1.00305 -0.0141753 0)
(1.00291 -0.0158679 0)
(1.00266 -0.0176539 0)
(1.0023 -0.0195282 0)
(1.00183 -0.0214899 0)
(0.999998 -0.00035532 0)
(1 -0.00112654 0)
(1.00008 -0.00195846 0)
(1.00026 -0.00282005 0)
(1.0005 -0.00370541 0)
(1.00077 -0.0046179 0)
(1.00104 -0.00556006 0)
(1.00129 -0.00653875 0)
(1.00148 -0.00756412 0)
(1.0016 -0.0086456 0)
(1.00164 -0.00979039 0)
(1.00157 -0.0110035 0)
(1.00141 -0.0122875 0)
(1.00113 -0.0136433 0)
(1.00074 -0.0150693 0)
(1.00023 -0.0165626 0)
(0.999611 -0.0181191 0)
(0.998876 -0.0197374 0)
(0.999973 -0.000308219 0)
(0.999832 -0.00112353 0)
(0.999795 -0.00205978 0)
(0.999898 -0.00300937 0)
(1.00009 -0.00396089 0)
(1.00033 -0.00490918 0)
(1.00058 -0.00584474 0)
(1.00079 -0.00677396 0)
(1.00093 -0.00771217 0)
(1.00097 -0.00867338 0)
(1.00091 -0.00966848 0)
(1.00072 -0.0107057 0)
(1.00042 -0.0117908 0)
(0.999984 -0.0129265 0)
(0.999425 -0.0141135 0)
(0.998742 -0.0153503 0)
(0.997939 -0.0166344 0)
(0.997018 -0.0179645 0)
(0.999902 -0.000131669 0)
(0.999478 -0.000978999 0)
(0.999305 -0.00206294 0)
(0.999389 -0.0031285 0)
(0.999607 -0.00417598 0)
(0.999904 -0.00517778 0)
(1.00022 -0.00610431 0)
(1.00047 -0.00696948 0)
(1.00061 -0.00780156 0)
(1.00063 -0.00862303 0)
(1.0005 -0.009451 0)
(1.00022 -0.010299 0)
(0.999793 -0.0111768 0)
(0.999221 -0.0120901 0)
(0.998509 -0.0130419 0)
(0.997662 -0.0140323 0)
(0.99669 -0.01506 0)
(0.995597 -0.016124 0)
(0.999753 0.000227842 0)
(0.998835 -0.000724295 0)
(0.998551 -0.00203126 0)
(0.998724 -0.00325196 0)
(0.999079 -0.0044433 0)
(0.999546 -0.00551708 0)
(1.00001 -0.00641834 0)
(1.00036 -0.00718919 0)
(1.00053 -0.00788337 0)
(1.0005 -0.00853637 0)
(1.00029 -0.00917415 0)
(0.999896 -0.0098172 0)
(0.999321 -0.0104798 0)
(0.998582 -0.0111703 0)
(0.99769 -0.0118933 0)
(0.996658 -0.0126502 0)
(0.995497 -0.01344 0)
(0.994218 -0.0142619 0)
(0.999503 0.000887525 0)
(0.9978 -0.000453733 0)
(0.997545 -0.00209258 0)
(0.997984 -0.00348489 0)
(0.998611 -0.0048533 0)
(0.999364 -0.00598726 0)
(1.00004 -0.00681251 0)
(1.00047 -0.00743264 0)
(1.00061 -0.00794047 0)
(1.00049 -0.00838728 0)
(1.00012 -0.00880902 0)
(0.99952 -0.00923306 0)
(0.998723 -0.00967692 0)
(0.99775 -0.0101501 0)
(0.996622 -0.010657 0)
(0.995355 -0.0111987 0)
(0.993965 -0.011774 0)
(0.992467 -0.012381 0)
(0.998974 0.00248503 0)
(0.996155 1.19025e-05 0)
(0.996374 -0.00229631 0)
(0.997372 -0.00392239 0)
(0.998403 -0.00547207 0)
(0.999505 -0.00659636 0)
(1.00036 -0.00724942 0)
(1.00076 -0.00763704 0)
(1.00073 -0.00789927 0)
(1.00035 -0.00810186 0)
(0.999669 -0.00828844 0)
(0.998741 -0.00848997 0)
(0.997609 -0.00872353 0)
(0.996309 -0.00899627 0)
(0.994867 -0.00931003 0)
(0.993305 -0.00966378 0)
(0.991638 -0.0100544 0)
(0.989884 -0.0104786 0)
(0.997455 0.00610624 0)
(0.993374 0.00138905 0)
(0.995112 -0.00230654 0)
(0.997171 -0.00449791 0)
(0.998708 -0.0062709 0)
(1.0001 -0.00726378 0)
(1.00094 -0.0076125 0)
(1.00104 -0.00767488 0)
(1.00055 -0.00763758 0)
(0.99965 -0.00757356 0)
(0.998445 -0.00752648 0)
(0.997011 -0.00752325 0)
(0.995406 -0.00757414 0)
(0.993674 -0.00767947 0)
(0.99184 -0.00783571 0)
(0.989924 -0.0080381 0)
(0.987937 -0.00828098 0)
(0.985896 -0.00855896 0)
(0.994443 0.00857076 0)
(0.989396 0.00222127 0)
(0.993934 -0.00210858 0)
(0.99763 -0.00505755 0)
(0.999735 -0.00708713 0)
(1.00114 -0.00778678 0)
(1.00147 -0.00769032 0)
(1.00074 -0.00735553 0)
(0.999332 -0.00700025 0)
(0.997548 -0.00668676 0)
(0.995541 -0.00644406 0)
(0.993401 -0.00628388 0)
(0.991184 -0.00620254 0)
(0.988922 -0.00618974 0)
(0.98663 -0.006235 0)
(0.984314 -0.0063295 0)
(0.981977 -0.00646539 0)
(0.979628 -0.00663483 0)
(0.994522 -0.00660834 0)
(0.989432 -0.00853382 0)
(0.995301 -0.00539192 0)
(0.999608 -0.00641059 0)
(1.00167 -0.00789071 0)
(1.00217 -0.00793852 0)
(1.00091 -0.00725034 0)
(0.998387 -0.00650368 0)
(0.995345 -0.00588416 0)
(0.992194 -0.00540099 0)
(0.989076 -0.00504539 0)
(0.986033 -0.0048041 0)
(0.983079 -0.00465669 0)
(0.98021 -0.00458241 0)
(0.97741 -0.00456523 0)
(0.974664 -0.00459418 0)
(0.97196 -0.00466155 0)
(0.969291 -0.00475445 0)
(1.02646 -0.0702275 0)
(1.01701 -0.0623996 0)
(1.01167 -0.0292589 0)
(1.00812 -0.0149783 0)
(1.00503 -0.0105036 0)
(1.00078 -0.00807949 0)
(0.995045 -0.00627428 0)
(0.988857 -0.00506585 0)
(0.983093 -0.00430461 0)
(0.977981 -0.00380893 0)
(0.973424 -0.00347675 0)
(0.969292 -0.00325885 0)
(0.965491 -0.00312357 0)
(0.961943 -0.00304737 0)
(0.958585 -0.00301466 0)
(0.95537 -0.00301746 0)
(0.952271 -0.00305391 0)
(0.949272 -0.00314481 0)
(0.966205 0.350114 0)
(1.02688 0.19408 0)
(1.0325 0.0677828 0)
(1.00411 0.0151593 0)
(0.975514 -0.00137377 0)
(0.955027 -0.00444057 0)
(0.940614 -0.00374999 0)
(0.92998 -0.00263424 0)
(0.921835 -0.00185497 0)
(0.915295 -0.00140525 0)
(0.909734 -0.00116229 0)
(0.904784 -0.00103749 0)
(0.900245 -0.0009797 0)
(0.895999 -0.000960272 0)
(0.891964 -0.000963734 0)
(0.888078 -0.000984218 0)
(0.884288 -0.00101732 0)
(0.880549 -0.00111307 0)
(0.00255162 -0.0106621 -1.90418e-21)
(0.00511897 0.0019613 1.79218e-21)
(-0.00135074 0.0117176 0)
(-0.0128619 0.0169091 0)
(-0.0269367 0.0193654 0)
(-0.0424722 0.0205748 -1.53683e-21)
(-0.0589228 0.0211876 0)
(-0.0759139 0.0214532 0)
(-0.0931705 0.0214773 0)
(-0.11048 0.0213045 0)
(-0.127662 0.0209506 1.36042e-21)
(-0.144554 0.0204194 0)
(-0.161001 0.0197112 0)
(-0.176858 0.0188267 0)
(-0.191981 0.0177685 0)
(-0.206238 0.016542 1.23723e-21)
(-0.219503 0.0151554 0)
(-0.231657 0.0136193 0)
(-0.242594 0.0119469 0)
(-0.252215 0.0101537 0)
(-0.260434 0.00825832 0)
(-0.267181 0.00628412 0)
(-0.272397 0.00426273 0)
(-0.276039 0.00223678 9.00862e-22)
(-0.278072 0.000267156 -8.34955e-22)
(-0.278412 -0.00157155 7.61213e-22)
(-0.277277 -0.00326355 6.80039e-22)
(-0.274711 -0.0048493 0)
(-0.270758 -0.00635958 0)
(-0.265463 -0.00780729 -3.93999e-22)
(-0.258869 -0.00919677 -2.84413e-22)
(-0.251021 -0.0105282 0)
(-0.241967 -0.0117996 0)
(-0.231757 -0.013008 8.60661e-23)
(-0.220449 -0.0141499 0)
(-0.208104 -0.0152215 0)
(-0.194789 -0.0162194 -5.15503e-22)
(-0.180575 -0.0171398 0)
(-0.165536 -0.0179792 -8.31174e-22)
(-0.14975 -0.0187337 -1.99372e-21)
(-0.1333 -0.0193989 0)
(-0.116269 -0.0199695 0)
(-0.0987432 -0.0204382 0)
(-0.0808114 -0.0207942 0)
(-0.00976038 -0.00199396 5.06836e-21)
(-0.0163538 0.0178771 -3.97099e-21)
(-0.027162 0.0315785 0)
(-0.0403597 0.040867 1.9919e-21)
(-0.0548846 0.0466688 0)
(-0.0703281 0.0500525 9.04498e-22)
(-0.0863929 0.0518079 -1.70448e-21)
(-0.10275 0.0524298 -1.65346e-21)
(-0.119096 0.0522206 0)
(-0.135181 0.0513646 -1.58117e-21)
(-0.150797 0.0499768 -7.95338e-22)
(-0.165776 0.0481333 0)
(-0.179978 0.0458899 0)
(-0.19329 0.0432929 0)
(-0.205618 0.0403839 0)
(-0.216888 0.0372028 -7.29122e-22)
(-0.227044 0.0337887 0)
(-0.236043 0.0301797 1.3858e-21)
(-0.243856 0.0264134 0)
(-0.250466 0.0225261 0)
(-0.255868 0.018553 -1.26294e-21)
(-0.260068 0.0145281 0)
(-0.26308 0.0104861 1.15054e-21)
(-0.264924 0.00646601 -5.23065e-22)
(-0.265625 0.00251562 4.82819e-22)
(-0.265241 -0.00131062 -4.37827e-22)
(-0.263675 -0.00498565 -3.89061e-22)
(-0.260873 -0.00851471 0)
(-0.256827 -0.0119025 0)
(-0.251545 -0.0151493 2.21322e-22)
(-0.245045 -0.01825 -2.49075e-22)
(-0.237356 -0.0211969 0)
(-0.228517 -0.0239809 0)
(-0.218573 -0.0265924 -4.69304e-23)
(-0.207574 -0.0290224 0)
(-0.195577 -0.0312629 0)
(-0.182643 -0.033307 2.74107e-22)
(-0.168839 -0.0351493 0)
(-0.154233 -0.0367861 -2.90745e-22)
(-0.138896 -0.0382152 1.03221e-21)
(-0.122904 -0.039436 0)
(-0.10633 -0.0404494 0)
(-0.0892497 -0.0412571 2.74785e-21)
(-0.0717357 -0.0418617 3.0804e-21)
(-0.0141305 0.0269065 -1.17012e-22)
(-0.0250016 0.0464612 4.42495e-21)
(-0.0377934 0.0597012 0)
(-0.0516441 0.0692528 -3.0496e-21)
(-0.0656434 0.0757603 0)
(-0.079687 0.0797862 0)
(-0.0938211 0.0818369 -2.23734e-23)
(-0.107977 0.0823192 1.19087e-21)
(-0.122019 0.081547 1.17922e-21)
(-0.135799 0.0797573 1.13173e-21)
(-0.149184 0.0771288 0)
(-0.162054 0.0737983 0)
(-0.174306 0.0698755 -1.09591e-21)
(-0.185857 0.0654521 -2.16034e-21)
(-0.196631 0.0606079 2.12849e-21)
(-0.206569 0.0554148 0)
(-0.215617 0.0499386 2.0572e-21)
(-0.223731 0.0442404 -9.83631e-22)
(-0.230871 0.0383768 0)
(-0.237005 0.032401 1.91213e-21)
(-0.242101 0.0263626 8.94734e-22)
(-0.246135 0.0203081 -1.779e-21)
(-0.249081 0.0142806 -8.13913e-22)
(-0.250915 0.00831907 0)
(-0.251609 0.00245377 1.51213e-21)
(-0.251138 -0.00329981 1.39962e-21)
(-0.249477 -0.00892965 0)
(-0.246618 -0.0144126 1.14675e-21)
(-0.242563 -0.0197236 0)
(-0.237322 -0.0248384 8.57104e-22)
(-0.230914 -0.0297342 2.83672e-22)
(-0.223365 -0.0343896 0)
(-0.21471 -0.0387845 0)
(-0.204991 -0.0429008 0)
(-0.194256 -0.0467221 0)
(-0.182558 -0.0502347 0)
(-0.169956 -0.0534272 0)
(-0.156513 -0.0562912 -5.99413e-22)
(-0.142295 -0.0588212 1.2971e-21)
(-0.127371 -0.0610148 0)
(-0.111813 -0.0628725 0)
(-0.0956912 -0.0643977 0)
(-0.0790781 -0.0655969 -1.95559e-22)
(-0.0620445 -0.0664786 -2.05964e-21)
(-0.0146219 0.0623841 -8.47763e-21)
(-0.0269621 0.0795023 -5.97851e-21)
(-0.0405918 0.0905328 -3.12084e-21)
(-0.0548299 0.0986228 -1.38338e-21)
(-0.0687331 0.104284 0)
(-0.0821907 0.107779 2.26733e-21)
(-0.0953486 0.109372 -1.12825e-21)
(-0.108273 0.109318 0)
(-0.120948 0.107857 -9.5541e-22)
(-0.133319 0.105201 0)
(-0.145317 0.101531 1.92432e-21)
(-0.156868 0.0970013 0)
(-0.167902 0.0917423 8.85339e-22)
(-0.17835 0.0858659 1.74604e-21)
(-0.188146 0.0794699 -1.72153e-21)
(-0.197231 0.0726407 0)
(-0.205548 0.0654559 -1.66718e-21)
(-0.213043 0.057986 0)
(-0.219667 0.0502954 0)
(-0.225372 0.0424433 -1.55538e-21)
(-0.230112 0.0344846 0)
(-0.233847 0.0264703 -9.26421e-23)
(-0.236535 0.018448 0)
(-0.238142 0.0104618 0)
(-0.238635 0.0025515 9.80311e-23)
(-0.237989 -0.00524812 -1.14393e-21)
(-0.236188 -0.0129035 -1.14618e-21)
(-0.233225 -0.0203788 -9.36843e-22)
(-0.229101 -0.0276371 0)
(-0.223826 -0.0346421 -1.50668e-21)
(-0.217418 -0.0413591 0)
(-0.209903 -0.0477553 -5.45243e-22)
(-0.201314 -0.0538005 0)
(-0.191692 -0.0594672 0)
(-0.181083 -0.0647316 1.07839e-22)
(-0.169541 -0.0695734 0)
(-0.157124 -0.0739762 2.06707e-22)
(-0.143895 -0.0779282 1.1666e-22)
(-0.129919 -0.0814218 -1.18482e-21)
(-0.115265 -0.0844538 1.40108e-21)
(-0.100003 -0.0870251 0)
(-0.0842026 -0.0891412 0)
(-0.0679356 -0.0908109 1.08839e-21)
(-0.0512718 -0.0920466 0)
(-0.0140766 0.0989484 5.37349e-21)
(-0.0266968 0.113391 3.73119e-21)
(-0.0404518 0.121885 2.85125e-21)
(-0.0546582 0.12797 2.40726e-21)
(-0.0683954 0.132121 0)
(-0.0814949 0.134462 -4.10855e-21)
(-0.0940904 0.135108 -1.30135e-22)
(-0.106283 0.134198 0)
(-0.11811 0.131883 0)
(-0.129566 0.128323 0)
(-0.140628 0.123668 -1.66588e-21)
(-0.151256 0.118057 0)
(-0.161402 0.111618 0)
(-0.171014 0.104463 0)
(-0.180038 0.0966943 0)
(-0.188418 0.0884031 0)
(-0.196097 0.0796727 1.64358e-21)
(-0.203019 0.0705795 1.61694e-21)
(-0.20913 0.0611938 0)
(-0.214377 0.0515814 0)
(-0.218708 0.0418043 -1.51175e-21)
(-0.222075 0.0319212 2.82315e-21)
(-0.224433 0.0219884 0)
(-0.225743 0.0120599 1.35346e-21)
(-0.225969 0.00218752 -1.17785e-21)
(-0.225085 -0.00757887 0)
(-0.223075 -0.0171897 3.25245e-21)
(-0.219929 -0.0265943 -2.05178e-21)
(-0.215646 -0.035742 1.85036e-21)
(-0.210235 -0.0445832 7.14283e-22)
(-0.203714 -0.0530703 0)
(-0.196108 -0.0611583 1.64937e-21)
(-0.187451 -0.068806 0)
(-0.177786 -0.0759763 0)
(-0.167161 -0.082637 -9.5361e-23)
(-0.155631 -0.0887611 1.05668e-22)
(-0.143257 -0.0943275 -3.61155e-22)
(-0.130102 -0.0993208 7.93591e-22)
(-0.116235 -0.103732 4.70811e-22)
(-0.101724 -0.107557 -1.23465e-21)
(-0.086641 -0.110799 0)
(-0.0710567 -0.113465 0)
(-0.0550417 -0.115568 -1.702e-22)
(-0.0386652 -0.117124 0)
(-0.013278 0.134452 0)
(-0.025655 0.146663 -3.9485e-21)
(-0.0391314 0.152838 0)
(-0.0529958 0.156911 0)
(-0.066386 0.159372 0)
(-0.0790909 0.160299 -1.55675e-22)
(-0.0912082 0.159738 -1.51329e-22)
(-0.102833 0.157753 -1.89492e-21)
(-0.114017 0.154432 0)
(-0.124777 0.149882 0)
(-0.135113 0.144216 0)
(-0.145007 0.137548 0)
(-0.154429 0.129986 0)
(-0.16334 0.121636 -3.37033e-21)
(-0.171695 0.112592 0)
(-0.179443 0.102943 3.29323e-21)
(-0.186533 0.0927724 -1.49792e-21)
(-0.192908 0.0821581 -1.47649e-21)
(-0.198513 0.0711733 0)
(-0.203292 0.0598886 0)
(-0.207189 0.0483721 1.38846e-21)
(-0.210154 0.0366905 -1.34864e-21)
(-0.212137 0.0249097 0)
(-0.213096 0.0130951 -1.24962e-21)
(-0.212994 0.00131219 2.61008e-21)
(-0.211801 -0.0103743 0)
(-0.209497 -0.0218989 -2.0729e-21)
(-0.206071 -0.0331952 1.90083e-21)
(-0.201522 -0.0441971 -1.71517e-21)
(-0.195858 -0.05484 0)
(-0.189096 -0.065062 0)
(-0.181265 -0.0748047 -1.08246e-21)
(-0.172403 -0.0840148 0)
(-0.162554 -0.0926446 0)
(-0.151771 -0.100653 5.34408e-22)
(-0.140115 -0.108007 -3.68293e-22)
(-0.127649 -0.114679 1.65463e-22)
(-0.114443 -0.120653 -7.06199e-22)
(-0.100567 -0.125917 5.49466e-22)
(-0.0860935 -0.130469 0)
(-0.0710964 -0.134314 0)
(-0.0556475 -0.137463 0)
(-0.0398176 -0.139933 -1.79848e-21)
(-0.0236752 -0.141748 0)
(-0.0124224 0.168221 0)
(-0.0243041 0.178626 3.79763e-21)
(-0.0372636 0.182758 0)
(-0.0505722 0.184955 5.1962e-21)
(-0.0634383 0.185742 4.61899e-21)
(-0.0756316 0.185192 -2.30447e-21)
(-0.0872173 0.183322 -2.17664e-21)
(-0.0982751 0.180156 -2.08722e-21)
(-0.108853 0.17574 -3.73013e-21)
(-0.118978 0.170139 0)
(-0.128658 0.163434 0)
(-0.137888 0.15571 3.51761e-21)
(-0.146648 0.147054 0)
(-0.15491 0.137554 6.5844e-21)
(-0.162637 0.127294 0)
(-0.169783 0.116355 -3.08617e-21)
(-0.176298 0.104816 0)
(-0.182128 0.092751 0)
(-0.187217 0.0802347 3.24845e-21)
(-0.191507 0.06734 0)
(-0.194941 0.05414 3.13037e-21)
(-0.197463 0.0407089 0)
(-0.199022 0.0271223 0)
(-0.19957 0.0134576 0)
(-0.199067 -0.000205691 2.54986e-22)
(-0.197481 -0.0137875 0)
(-0.194789 -0.0272052 0)
(-0.190978 -0.0403753 0)
(-0.186046 -0.0532142 0)
(-0.180003 -0.06564 0)
(-0.17287 -0.0775744 0)
(-0.164679 -0.0889437 -1.42577e-21)
(-0.155473 -0.099681 0)
(-0.145303 -0.109727 9.39902e-22)
(-0.13423 -0.119032 1.7369e-22)
(-0.12232 -0.127555 2.58373e-22)
(-0.109645 -0.135266 0)
(-0.0962798 -0.142145 2.60549e-22)
(-0.0823007 -0.148182 -5.2423e-22)
(-0.0677849 -0.153377 0)
(-0.0528081 -0.15774 0)
(-0.0374443 -0.161285 0)
(-0.0217643 -0.164039 0)
(-0.00583613 -0.16603 0)
(-0.0115624 0.200023 1.30303e-20)
(-0.0227965 0.208913 0)
(-0.0350723 0.211227 0)
(-0.0476562 0.211701 -1.04581e-20)
(-0.059831 0.210896 -4.41979e-21)
(-0.0713656 0.208894 -3.77001e-22)
(-0.0823029 0.205702 3.82505e-21)
(-0.0927078 0.201324 -3.405e-22)
(-0.102623 0.19578 3.5434e-21)
(-0.112074 0.189106 0)
(-0.121074 0.181353 0)
(-0.129624 0.17258 -3.34725e-21)
(-0.13771 0.162853 0)
(-0.145312 0.15224 -3.27992e-21)
(-0.152395 0.140811 0)
(-0.158919 0.128635 0)
(-0.164836 0.115782 0)
(-0.170093 0.102322 0)
(-0.174631 0.0883264 -3.12953e-21)
(-0.178392 0.0738686 0)
(-0.181314 0.0590257 -3.02793e-21)
(-0.183338 0.0438783 0)
(-0.184408 0.0285114 0)
(-0.184471 0.0130148 -3.06839e-21)
(-0.183484 -0.00251726 -2.66813e-21)
(-0.181411 -0.0179879 -2.79802e-21)
(-0.178226 -0.0332959 -2.63619e-21)
(-0.173916 -0.0483376 0)
(-0.16848 -0.0630093 -2.26529e-21)
(-0.16193 -0.077209 -2.05735e-21)
(-0.154293 -0.0908391 -1.83574e-21)
(-0.145608 -0.103808 1.39381e-21)
(-0.135926 -0.116035 0)
(-0.125307 -0.127446 -9.18624e-22)
(-0.113824 -0.137983 1.72978e-22)
(-0.101551 -0.147599 5.75061e-22)
(-0.0885704 -0.156261 3.04361e-22)
(-0.0749649 -0.163949 0)
(-0.0608181 -0.170655 2.42153e-22)
(-0.0462119 -0.176384 0)
(-0.0312254 -0.181152 0)
(-0.0159337 -0.184985 -2.10706e-21)
(-0.000408036 -0.187913 -2.62281e-21)
(0.0152862 -0.189976 0)
(-0.0106912 0.229702 -1.26863e-20)
(-0.0211455 0.23726 -9.59173e-21)
(-0.0325885 0.23792 0)
(-0.0442879 0.236801 5.31469e-21)
(-0.0556007 0.234496 0)
(-0.0663083 0.2311 -3.92295e-22)
(-0.0764415 0.226618 4.40624e-21)
(-0.0860544 0.221044 3.86402e-21)
(-0.0951844 0.214381 0)
(-0.103856 0.206643 3.98094e-21)
(-0.112084 0.197857 0)
(-0.119871 0.18806 0)
(-0.127209 0.177295 0)
(-0.13408 0.165611 3.79668e-21)
(-0.140455 0.15306 0)
(-0.146293 0.139698 0)
(-0.15155 0.125583 -3.73045e-21)
(-0.156169 0.110778 0)
(-0.160093 0.0953479 0)
(-0.163258 0.0793659 3.6318e-21)
(-0.165598 0.0629106 0)
(-0.167049 0.0460682 3.51604e-21)
(-0.167548 0.0289332 0)
(-0.16704 0.0116081 6.37959e-21)
(-0.165473 -0.00579648 -3.21296e-21)
(-0.162808 -0.0231651 -2.8843e-22)
(-0.159018 -0.0403747 -2.78859e-22)
(-0.154088 -0.0572984 2.71017e-21)
(-0.148021 -0.0738082 2.25147e-21)
(-0.140834 -0.0897781 4.33458e-21)
(-0.132561 -0.105088 -2.29859e-22)
(-0.123252 -0.119626 0)
(-0.11297 -0.133293 0)
(-0.101789 -0.146004 2.5679e-21)
(-0.0897937 -0.157689 -8.36473e-22)
(-0.0770732 -0.168298 -5.71003e-22)
(-0.0637201 -0.177796 -3.0199e-22)
(-0.0498275 -0.186165 0)
(-0.0354866 -0.193405 -4.69965e-22)
(-0.0207843 -0.19953 7.89248e-22)
(-0.00580279 -0.204565 1.33733e-21)
(0.0093826 -0.208545 2.06065e-21)
(0.0247031 -0.211514 2.55344e-21)
(0.0400974 -0.213523 0)
(-0.00977608 0.257058 0)
(-0.0193007 0.263386 9.42616e-21)
(-0.0297468 0.262501 0)
(-0.0403838 0.259891 6.23308e-21)
(-0.0506435 0.25617 0)
(-0.0603291 0.251447 4.59289e-21)
(-0.0694668 0.245728 -4.31275e-21)
(-0.0781049 0.239001 4.46974e-21)
(-0.086278 0.231256 0)
(-0.0940101 0.222491 -3.8979e-21)
(-0.101317 0.212712 0)
(-0.108203 0.201935 0)
(-0.114665 0.190182 0)
(-0.120685 0.177481 -3.73682e-21)
(-0.126237 0.163867 4.04287e-21)
(-0.131283 0.149378 0)
(-0.135776 0.134058 7.71173e-21)
(-0.139661 0.11796 -4.00288e-21)
(-0.142874 0.101143 0)
(-0.145348 0.0836743 -3.61897e-21)
(-0.147012 0.0656335 0)
(-0.147794 0.0471116 -3.51928e-21)
(-0.147625 0.0282123 -3.77561e-21)
(-0.14644 0.00905237 -7.04009e-21)
(-0.144185 -0.0102404 6.77758e-21)
(-0.140813 -0.0295279 3.08319e-21)
(-0.136296 -0.0486615 9.34588e-21)
(-0.130619 -0.067486 -2.73258e-21)
(-0.12379 -0.0858441 5.60089e-21)
(-0.115835 -0.103581 -7.44061e-21)
(-0.106798 -0.120549 2.07438e-21)
(-0.0967446 -0.136613 0)
(-0.0857537 -0.151654 3.54079e-21)
(-0.0739175 -0.165574 -2.58902e-21)
(-0.0613369 -0.178294 -2.3808e-21)
(-0.0481175 -0.189761 0)
(-0.0343654 -0.199944 0)
(-0.0201845 -0.208832 5.93956e-22)
(-0.0056737 -0.216438 2.30308e-22)
(0.00907605 -0.222784 -1.35629e-21)
(0.0239821 -0.227912 -2.44866e-21)
(0.0389715 -0.231873 0)
(0.0539806 -0.234727 0)
(0.0689552 -0.236537 0)
(-0.00877332 0.281794 1.64987e-20)
(-0.0171793 0.28693 -1.12361e-20)
(-0.0264277 0.284573 0)
(-0.0357877 0.280544 -6.17787e-21)
(-0.0447675 0.275482 0)
(-0.0531997 0.2695 -5.31684e-21)
(-0.0611116 0.262607 0)
(-0.0685495 0.254787 -4.42363e-21)
(-0.0755478 0.246019 0)
(-0.0821317 0.236287 4.5029e-21)
(-0.0883185 0.225577 0)
(-0.0941164 0.213886 0)
(-0.0995229 0.201215 0)
(-0.104524 0.187571 -4.35997e-21)
(-0.109095 0.172968 -4.03569e-21)
(-0.113198 0.157426 0)
(-0.116785 0.140973 -4.02857e-21)
(-0.119799 0.123647 4.02187e-21)
(-0.122173 0.105497 0)
(-0.123832 0.0865846 0)
(-0.124699 0.0669881 0)
(-0.124694 0.0468018 0)
(-0.123737 0.0261392 3.8399e-21)
(-0.121756 0.00513237 3.7488e-21)
(-0.118688 -0.0160714 -3.61539e-21)
(-0.114482 -0.0373065 0)
(-0.109106 -0.058393 -6.56651e-21)
(-0.102549 -0.0791409 6.76671e-21)
(-0.0948251 -0.0993567 -1.20217e-20)
(-0.0859719 -0.11885 5.24808e-21)
(-0.0760514 -0.13744 0)
(-0.0651477 -0.154964 0)
(-0.0533623 -0.171283 -3.61827e-21)
(-0.0408095 -0.186283 0)
(-0.0276111 -0.199883 2.42866e-21)
(-0.0138909 -0.212031 -2.12296e-21)
(0.000229399 -0.222705 0)
(0.014637 -0.231905 -1.4308e-21)
(0.0292272 -0.239661 0)
(0.0439081 -0.246018 5.69705e-22)
(0.0586003 -0.251037 1.12189e-21)
(0.0732373 -0.254787 -1.50311e-21)
(0.0877647 -0.257347 0)
(0.102139 -0.258798 0)
(-0.00763319 0.303474 -1.62482e-20)
(-0.0146777 0.307421 1.11657e-20)
(-0.0224762 0.303635 -8.80975e-21)
(-0.0302942 0.298248 0)
(-0.0377203 0.291909 0)
(-0.0446229 0.284737 -3.4717e-22)
(-0.0510343 0.276742 0)
(-0.0570016 0.267903 0)
(-0.0625612 0.25819 0)
(-0.0677411 0.24757 2.91881e-22)
(-0.0725619 0.236015 0)
(-0.0770348 0.2235 0)
(-0.0811605 0.210003 0)
(-0.0849277 0.195511 4.3927e-21)
(-0.0883126 0.180015 9.42114e-21)
(-0.0912787 0.163514 0)
(-0.093777 0.146017 0)
(-0.0957465 0.127544 0)
(-0.0971156 0.108131 9.55252e-21)
(-0.0978034 0.0878308 9.55237e-21)
(-0.097723 0.0667174 -9.52345e-21)
(-0.0967836 0.0448877 -9.45812e-21)
(-0.0948961 0.0224648 0)
(-0.0919768 -0.000401977 0)
(-0.0879534 -0.0235417 0)
(-0.0827696 -0.046756 0)
(-0.0763914 -0.0698253 0)
(-0.0688133 -0.0925158 6.19153e-22)
(-0.0600598 -0.114588 6.52226e-21)
(-0.0501863 -0.135808 0)
(-0.0392782 -0.155955 0)
(-0.0274457 -0.174836 0)
(-0.0148189 -0.192289 0)
(-0.00154028 -0.208193 0)
(0.0122459 -0.222462 0)
(0.0263961 -0.235055 2.14685e-21)
(0.0407762 -0.245965 0)
(0.0552656 -0.25522 8.37979e-22)
(0.0697597 -0.262872 0)
(0.0841708 -0.268993 0)
(0.0984287 -0.27367 0)
(0.112479 -0.276996 1.50078e-21)
(0.126282 -0.279072 0)
(0.13981 -0.279996 0)
(-0.00629947 0.32151 0)
(-0.011673 0.324245 0)
(-0.0177079 0.319068 8.85614e-21)
(-0.0236594 0.312377 0)
(-0.0292029 0.304827 0)
(-0.0342483 0.296541 5.71372e-21)
(-0.0388357 0.287526 0)
(-0.0430145 0.277757 5.37035e-21)
(-0.0468248 0.267192 0)
(-0.0502987 0.255787 5.3633e-21)
(-0.0534608 0.243493 0)
(-0.0563265 0.230266 0)
(-0.0588997 0.216062 0)
(-0.0611719 0.200841 0)
(-0.0631214 0.184572 -9.61463e-21)
(-0.064712 0.16723 1.02823e-20)
(-0.0658937 0.1488 0)
(-0.0666022 0.129282 0)
(-0.0667605 0.108696 -9.85382e-21)
(-0.06628 0.0870808 -9.88417e-21)
(-0.0650639 0.0645037 -7.16036e-22)
(-0.0630096 0.0410625 9.8503e-21)
(-0.0600166 0.0168906 0)
(-0.0559881 -0.00784437 0)
(-0.0508422 -0.032942 0)
(-0.0445163 -0.0581623 0)
(-0.0369779 -0.0832356 0)