/*--------------------------------*- C++ -*----------------------------------*\
  =========                 |
  \\      /  F ield         | OpenFOAM: The Open Source CFD Toolbox
   \\    /   O peration     | Website:  https://openfoam.org
    \\  /    A nd           | Version:  6
     \\/     M anipulation  |
\*---------------------------------------------------------------------------*/
FoamFile
{
    version     2.0;
    format      ascii;
    class       volScalarField;
    location    "0.01";
    object      epsilon;
}
// * * * * * * * * * * * * * * * * * * * * * * * * * * * * * * * * * * * * * //

dimensions      [0 2 -3 0 0 0 0];

internalField   nonuniform List<scalar> 
12225
(
307.489
159.173
103.23
76.1237
61.0969
52.5198
47.7673
45.2933
44.1546
43.9028
44.1855
44.824
45.7688
47.0655
48.8883
51.6056
56.5473
66.904
71.523
59.6931
44.4517
34.5319
28.2573
24.2713
21.7759
20.2602
19.386
18.9513
18.7963
18.8146
18.9527
19.192
19.5471
20.0639
20.9076
22.4648
33.5908
34.3902
29.3506
24.5902
20.9763
18.4048
16.6507
15.5006
14.7785
14.3569
14.138
14.0495
14.0485
14.1136
14.2426
14.4523
14.804
15.3989
22.4893
24.208
22.3037
19.7635
17.508
15.7368
14.436
13.5276
12.9208
12.5365
12.3094
12.188
12.139
12.1439
12.1984
12.3128
12.5201
12.8619
18.0544
19.1908
18.3229
16.8301
15.3429
14.0819
13.0987
12.375
11.8661
11.525
11.3074
11.1767
11.1077
11.0857
11.1067
11.1782
11.3201
11.5526
15.9718
16.4339
15.874
14.8853
13.8417
12.9119
12.1542
11.5728
11.1463
10.8477
10.6465
10.517
10.4406
10.4062
10.4105
10.4591
10.5644
10.7358
14.9108
14.8291
14.3034
13.5461
12.7544
12.036
11.4353
10.9605
10.601
10.3403
10.1574
10.0343
9.95717
9.9179
9.91414
9.9496
10.0318
10.1643
14.3498
13.8699
13.2781
12.6109
11.9543
11.3655
10.8699
10.4714
10.1642
9.93529
9.76998
9.65522
9.58099
9.54117
9.53397
9.56166
9.62832
9.73412
14.049
13.2925
12.6072
11.9577
11.3653
10.8505
10.421
10.0755
9.80617
9.60218
9.45215
9.34608
9.27632
9.23818
9.23005
9.25295
9.30859
9.39527
13.8877
12.9472
12.1725
11.5062
10.9359
10.458
10.0673
9.75535
9.51186
9.32619
9.18842
9.09021
9.02529
8.98971
8.98177
9.00143
9.04877
9.1211
13.8017
12.7438
11.8957
11.2001
10.6289
10.1649
9.79327
9.50015
9.27264
9.09934
8.97062
8.87881
8.81822
8.78515
8.7776
8.79464
8.8352
8.89617
13.7599
12.6359
11.7378
11.0143
10.4325
9.96869
9.60277
9.31736
9.09752
8.93087
8.80751
8.71977
8.66204
8.63049
8.62272
8.63708
8.67178
8.72351
13.7363
12.5707
11.6361
10.888
10.2927
9.82335
9.45698
9.17383
8.9574
8.79436
8.67431
8.58931
8.53355
8.50291
8.49453
8.50618
8.53557
8.57935
13.7224
12.5294
11.5675
10.7974
10.187
9.70834
9.33713
9.05217
8.83583
8.67392
8.55538
8.47181
8.41698
8.38631
8.37642
8.38457
8.40808
8.4437
13.7151
12.5064
11.5264
10.7396
10.1153
9.62611
9.24749
8.95777
8.73869
8.57544
8.45636
8.37248
8.31702
8.28489
8.27217
8.27569
8.29252
8.31955
13.7117
12.4952
11.5051
10.7073
10.0725
9.57389
9.18743
8.89158
8.66797
8.50144
8.37989
8.29385
8.23601
8.20077
8.18378
8.18152
8.19092
8.20909
13.7104
12.4906
11.4956
10.6918
10.0501
9.54459
9.15151
8.84975
8.62109
8.4503
8.32503
8.23545
8.17387
8.13429
8.11204
8.10338
8.10522
8.11485
13.71
12.489
11.492
10.6853
10.0399
9.53012
9.13254
8.82633
8.59347
8.41877
8.28977
8.19646
8.1309
8.08687
8.0595
8.04495
8.04013
8.04252
13.7101
12.489
11.4918
10.6844
10.038
9.52691
9.12773
8.81977
8.58507
8.40848
8.27749
8.18199
8.11393
8.06697
8.03614
8.01756
8.0082
8.00564
13.7112
12.4929
11.4993
10.6961
10.0541
9.54707
9.15152
8.84667
8.61458
8.4401
8.31074
8.21641
8.14902
8.10222
8.07105
8.05165
8.04102
8.03683
13.7157
12.5075
11.5264
10.736
10.1057
9.60862
9.22114
8.92268
8.6956
8.52506
8.39882
8.30693
8.24146
8.1961
8.16596
8.14721
8.13691
8.1328
13.7311
12.5537
11.6052
10.8429
10.2339
9.75175
9.37408
9.08183
8.85867
8.69071
8.5663
8.47586
8.4116
8.36732
8.33812
8.32021
8.31064
8.30714
13.7781
12.6806
11.8004
11.0837
10.4996
10.0276
9.65126
9.35591
9.12813
8.95567
8.82763
8.73459
8.6687
8.62355
8.59405
8.57622
8.567
8.56399
13.9119
12.9952
12.2305
11.5635
10.9853
10.496
10.0933
9.77098
9.51975
9.32883
9.18726
9.08487
9.01284
8.96385
8.93211
8.91312
8.90341
8.90035
14.2715
13.7146
13.0993
12.4392
11.7994
11.2262
10.7415
10.3499
10.0452
9.81546
9.64717
9.52711
9.44377
9.38776
9.35174
9.33018
9.31897
9.31504
15.2035
15.2784
14.7597
13.9511
13.0933
12.3099
11.6513
11.1279
10.7294
10.4364
10.227
10.0811
9.98183
9.91614
9.87413
9.8487
9.83479
9.82883
17.6403
18.6588
17.8839
16.5145
15.1201
13.9089
12.9376
12.199
11.6593
11.2773
11.0137
10.8355
10.7172
10.6401
10.5907
10.5599
10.5417
10.5318
24.7067
26.4533
24.009
21.0263
18.4521
16.4408
14.95
13.8867
13.151
12.6543
12.3251
12.1096
11.9697
11.8789
11.8198
11.7808
11.7545
11.7365
51.9494
47.7482
37.8886
30.3911
25.1911
21.6389
19.2498
17.672
16.6472
15.9903
15.5718
15.3047
15.1318
15.0167
14.9364
14.8769
14.8294
14.7891
251.816
137.367
90.7446
67.022
53.3157
45.0234
39.988
36.9559
35.1333
34.024
33.3292
32.8724
32.5497
32.3002
32.0884
31.8931
31.7011
31.5041
4.79905
7.20468
9.89346
11.9451
13.5653
14.8462
15.8556
16.6488
17.2664
17.7424
18.1058
18.3805
18.5867
18.7405
18.855
18.9404
19.0044
19.0529
19.09
19.1187
19.1413
19.1591
19.173
19.1838
19.1919
19.1975
19.2009
19.2023
19.2018
19.1996
19.1957
19.1904
19.1838
19.1761
19.1674
19.1578
19.1476
19.1368
19.1257
19.1142
19.1026
19.0909
19.0792
19.0676
19.0563
19.0452
19.0344
19.024
19.014
19.0044
18.9952
18.9866
18.9784
18.9707
18.9636
18.9569
18.9507
18.945
18.9399
18.9352
18.9309
18.9271
18.9238
18.9209
18.9184
18.9163
18.9147
18.9134
18.9124
18.9118
18.9116
18.9117
18.9121
18.9128
18.9138
18.915
18.9166
18.9184
18.9204
18.9227
18.9252
18.928
18.9309
18.934
18.9374
18.9409
18.9446
18.9484
18.9524
18.9566
18.9609
18.9653
18.9699
18.9746
18.9794
18.9843
18.9893
18.9945
18.9996
19.0053
19.0116
19.0182
19.0248
19.0315
19.0382
19.045
19.0519
19.0588
19.0658
19.0729
19.0801
19.0874
19.0947
19.1021
19.1096
19.1172
19.1248
19.1326
19.1404
19.1483
19.1563
19.1643
19.1725
19.1808
19.1891
19.1976
19.2061
19.2147
19.2235
19.2323
19.2413
19.2503
19.2594
19.2686
19.2779
19.2873
19.2967
19.3063
19.3159
19.3256
19.3354
19.3453
19.3553
19.3654
19.3756
19.386
19.3964
19.4069
19.4175
19.4283
19.4392
19.4501
19.4612
19.4725
19.4838
19.4952
19.5067
19.5184
19.5301
19.5419
19.5538
19.5658
19.5777
19.5897
19.6016
19.6135
19.6251
19.6365
19.6475
19.6578
19.6672
19.6753
19.6814
19.6845
19.6825
19.6717
19.6435
19.5748
19.4095
18.9949
11.5042
8.78139
9.12609
9.61353
10.0284
10.3525
10.5988
10.7841
10.9227
11.0258
11.1023
11.1589
11.2007
11.2315
11.2541
11.2707
11.2829
11.2918
11.2982
11.3028
11.3059
11.3079
11.309
11.3093
11.309
11.3082
11.307
11.3054
11.3034
11.3012
11.2988
11.2962
11.2936
11.2908
11.288
11.2852
11.2824
11.2797
11.2771
11.2746
11.2722
11.27
11.2679
11.266
11.2642
11.2627
11.2612
11.26
11.2589
11.258
11.2573
11.2567
11.2563
11.256
11.2559
11.2559
11.256
11.2562
11.2566
11.257
11.2575
11.2582
11.2589
11.2596
11.2605
11.2614
11.2624
11.2634
11.2645
11.2656
11.2668
11.268
11.2693
11.2705
11.2719
11.2732
11.2746
11.276
11.2774
11.2789
11.2804
11.2818
11.2834
11.2849
11.2864
11.288
11.2896
11.2912
11.2928
11.2944
11.296
11.2977
11.2994
11.301
11.3027
11.3044
11.3061
11.3078
11.3096
11.3114
11.3135
11.3156
11.3177
11.3199
11.322
11.3241
11.3263
11.3284
11.3306
11.3327
11.3348
11.337
11.3392
11.3413
11.3435
11.3457
11.3479
11.3501
11.3524
11.3546
11.3568
11.3591
11.3614
11.3637
11.366
11.3684
11.3707
11.3731
11.3755
11.3779
11.3804
11.3828
11.3853
11.3878
11.3903
11.3929
11.3954
11.398
11.4006
11.4033
11.4059
11.4086
11.4113
11.4141
11.4168
11.4196
11.4224
11.4253
11.4281
11.431
11.434
11.4369
11.4399
11.4429
11.446
11.449
11.4522
11.4553
11.4585
11.4617
11.4649
11.4681
11.4714
11.4747
11.4781
11.4814
11.4848
11.4881
11.4915
11.4948
11.4981
11.5013
11.5045
11.5075
11.5104
11.5131
11.5161
11.5197
11.5282
11.558
15.8085
10.3241
9.76908
9.71509
9.74583
9.78142
9.8059
9.81894
9.82375
9.82359
9.82098
9.81754
9.81424
9.81149
9.80941
9.8079
9.80678
9.80585
9.80491
9.80382
9.80247
9.8008
9.79877
9.79638
9.79367
9.79066
9.78742
9.78398
9.78041
9.77675
9.77307
9.76941
9.76581
9.76231
9.75895
9.75576
9.75275
9.74996
9.7474
9.74508
9.743
9.74117
9.73959
9.73826
9.73717
9.73632
9.7357
9.7353
9.73511
9.73511
9.7353
9.73566
9.73618
9.73685
9.73765
9.73858
9.73962
9.74076
9.74199
9.7433
9.74469
9.74613
9.74764
9.74919
9.75078
9.7524
9.75406
9.75574
9.75744
9.75915
9.76088
9.76262
9.76436
9.76611
9.76785
9.7696
9.77135
9.77309
9.77483
9.77657
9.7783
9.78003
9.78174
9.78346
9.78516
9.78686
9.78856
9.79025
9.79193
9.79361
9.79528
9.79695
9.79862
9.80028
9.80194
9.8036
9.80525
9.8069
9.80856
9.81025
9.812
9.8138
9.81562
9.81745
9.81928
9.82111
9.82293
9.82475
9.82657
9.82839
9.83021
9.83203
9.83385
9.83567
9.83749
9.83932
9.84116
9.843
9.84484
9.8467
9.84856
9.85043
9.85231
9.85419
9.85609
9.858
9.85992
9.86185
9.86379
9.86575
9.86772
9.8697
9.8717
9.87371
9.87574
9.87779
9.87985
9.88192
9.88402
9.88613
9.88826
9.8904
9.89257
9.89475
9.89694
9.89916
9.9014
9.90365
9.90592
9.90822
9.91053
9.91286
9.91522
9.91759
9.91999
9.92241
9.92485
9.92731
9.9298
9.93231
9.93485
9.93742
9.94001
9.94263
9.94529
9.94797
9.9507
9.95347
9.95629
9.95917
9.96213
9.96518
9.96838
9.97181
9.97561
9.98014
9.9862
9.99572
10.0143
10.0563
18.2689
11.1965
10.1847
9.86404
9.70499
9.59619
9.50783
9.4317
9.3658
9.30968
9.263
9.22514
9.19517
9.17198
9.15437
9.14116
9.13126
9.12372
9.11775
9.11274
9.10823
9.10387
9.09946
9.09488
9.09005
9.08499
9.0797
9.07424
9.06865
9.06301
9.05738
9.0518
9.04635
9.04106
9.03598
9.03114
9.02658
9.02232
9.01836
9.01474
9.01144
9.00848
9.00585
9.00355
9.00157
8.99989
8.99852
8.99743
8.9966
8.99604
8.99571
8.9956
8.9957
8.99599
8.99646
8.99709
8.99786
8.99876
8.99978
9.00091
9.00213
9.00344
9.00482
9.00627
9.00777
9.00932
9.01091
9.01254
9.0142
9.01588
9.01758
9.01929
9.02102
9.02275
9.02449
9.02624
9.02798
9.02973
9.03147
9.03321
9.03495
9.03668
9.0384
9.04012
9.04184
9.04355
9.04525
9.04695
9.04864
9.05032
9.052
9.05368
9.05535
9.05702
9.05869
9.06035
9.06202
9.06368
9.06534
9.06702
9.06875
9.07049
9.07226
9.07404
9.07582
9.0776
9.07938
9.08116
9.08294
9.08472
9.08651
9.08829
9.09007
9.09186
9.09365
9.09545
9.09725
9.09906
9.10087
9.10269
9.10452
9.10636
9.10821
9.11006
9.11193
9.1138
9.11569
9.11759
9.1195
9.12142
9.12336
9.12531
9.12727
9.12925
9.13125
9.13326
9.13529
9.13733
9.13939
9.14147
9.14357
9.14568
9.14781
9.14996
9.15213
9.15431
9.15652
9.15874
9.16098
9.16324
9.16552
9.16782
9.17014
9.17248
9.17485
9.17723
9.17964
9.18207
9.18453
9.18701
9.18952
9.19206
9.19463
9.19723
9.19988
9.20256
9.20529
9.20808
9.21094
9.21389
9.21695
9.22016
9.22358
9.22732
9.23159
9.23677
9.24375
9.25448
9.27355
9.30975
19.6589
11.6549
10.4051
9.95125
9.69656
9.51289
9.36391
9.23807
9.13126
9.04154
8.96737
8.90719
8.85924
8.82171
8.79275
8.77062
8.75373
8.7407
8.73036
8.72179
8.71428
8.7073
8.70049
8.69363
8.68659
8.67932
8.67183
8.66415
8.65634
8.64848
8.64064
8.63288
8.62527
8.61787
8.61074
8.60391
8.59743
8.59131
8.58557
8.58024
8.57531
8.57079
8.56668
8.56297
8.55964
8.5567
8.55412
8.55188
8.54998
8.54839
8.54709
8.54607
8.5453
8.54477
8.54446
8.54435
8.54443
8.54467
8.54507
8.54561
8.54628
8.54706
8.54794
8.54891
8.54996
8.55108
8.55226
8.5535
8.55478
8.55611
8.55747
8.55886
8.56028
8.56171
8.56317
8.56464
8.56612
8.56761
8.56911
8.57061
8.57212
8.57363
8.57514
8.57665
8.57817
8.57968
8.58119
8.5827
8.58421
8.58572
8.58722
8.58873
8.59023
8.59174
8.59324
8.59475
8.59626
8.59777
8.59928
8.60082
8.60238
8.60397
8.60557
8.60717
8.60879
8.61041
8.61203
8.61365
8.61528
8.6169
8.61853
8.62016
8.6218
8.62344
8.62508
8.62673
8.62839
8.63005
8.63172
8.6334
8.63508
8.63678
8.63849
8.6402
8.64193
8.64366
8.64541
8.64717
8.64894
8.65073
8.65252
8.65433
8.65616
8.658
8.65986
8.66173
8.66362
8.66553
8.66745
8.66939
8.67135
8.67333
8.67532
8.67733
8.67936
8.68141
8.68348
8.68556
8.68767
8.68979
8.69194
8.6941
8.69629
8.69849
8.70072
8.70297
8.70524
8.70754
8.70986
8.71221
8.71459
8.717
8.71944
8.72191
8.72442
8.72698
8.72959
8.73226
8.735
8.73783
8.74079
8.7439
8.74724
8.75091
8.7551
8.7602
8.76697
8.77706
8.79383
8.82231
20.4542
11.8912
10.5166
9.99719
9.69599
9.47527
9.29538
9.14329
9.01406
8.90522
8.81481
8.74091
8.68146
8.63433
8.59741
8.56869
8.54632
8.52871
8.51448
8.50252
8.49198
8.48221
8.47277
8.46336
8.45382
8.44407
8.4341
8.42396
8.4137
8.40341
8.39317
8.38306
8.37316
8.36353
8.35423
8.34532
8.33682
8.32876
8.32118
8.31407
8.30744
8.3013
8.29564
8.29045
8.28572
8.28143
8.27757
8.27411
8.27105
8.26834
8.26599
8.26395
8.26222
8.26077
8.25957
8.25862
8.25789
8.25737
8.25703
8.25686
8.25685
8.25698
8.25723
8.2576
8.25807
8.25864
8.25929
8.26001
8.2608
8.26164
8.26254
8.26348
8.26447
8.26548
8.26653
8.2676
8.2687
8.26982
8.27095
8.2721
8.27326
8.27443
8.27561
8.27679
8.27799
8.27919
8.28039
8.2816
8.28281
8.28403
8.28524
8.28647
8.28769
8.28892
8.29015
8.29138
8.29262
8.29386
8.29512
8.2964
8.2977
8.29901
8.30034
8.30167
8.30301
8.30436
8.30571
8.30706
8.30842
8.30978
8.31114
8.31251
8.31388
8.31526
8.31664
8.31803
8.31943
8.32083
8.32224
8.32366
8.32508
8.32652
8.32796
8.32942
8.33088
8.33235
8.33384
8.33534
8.33685
8.33837
8.3399
8.34145
8.34301
8.34458
8.34617
8.34777
8.34939
8.35103
8.35268
8.35435
8.35603
8.35773
8.35945
8.36118
8.36293
8.3647
8.36649
8.36829
8.37011
8.37195
8.37381
8.37569
8.37759
8.37951
8.38145
8.38341
8.38539
8.3874
8.38943
8.39148
8.39356
8.39567
8.39781
8.39998
8.40219
8.40444
8.40674
8.4091
8.41152
8.41403
8.41665
8.41942
8.4224
8.42567
8.42942
8.43396
8.4399
8.44851
8.4621
8.48344
20.9315
12.0171
10.575
10.0238
9.70138
9.46427
9.27076
9.10696
8.96754
8.84973
8.75142
8.67053
8.60488
8.55222
8.51036
8.47717
8.45073
8.42936
8.4116
8.39629
8.38252
8.36961
8.35708
8.34462
8.33206
8.31934
8.30644
8.29342
8.28036
8.26733
8.25445
8.24179
8.22944
8.21747
8.20594
8.1949
8.18438
8.17441
8.165
8.15617
8.14792
8.14023
8.13311
8.12653
8.12048
8.11494
8.10989
8.1053
8.10115
8.09742
8.09408
8.09111
8.08848
8.08616
8.08415
8.08241
8.08092
8.07967
8.07863
8.07778
8.07712
8.07662
8.07627
8.07605
8.07596
8.07598
8.0761
8.07631
8.0766
8.07696
8.07738
8.07787
8.07841
8.07899
8.07962
8.08028
8.08097
8.08169
8.08244
8.08321
8.08399
8.0848
8.08562
8.08646
8.0873
8.08816
8.08903
8.0899
8.09078
8.09167
8.09257
8.09347
8.09438
8.09529
8.09621
8.09714
8.09807
8.09901
8.09996
8.10094
8.10193
8.10293
8.10394
8.10496
8.10599
8.10702
8.10805
8.10909
8.11014
8.11118
8.11224
8.11329
8.11435
8.11542
8.11649
8.11756
8.11865
8.11974
8.12083
8.12194
8.12305
8.12417
8.12529
8.12643
8.12758
8.12873
8.1299
8.13107
8.13226
8.13345
8.13466
8.13588
8.13711
8.13835
8.1396
8.14087
8.14215
8.14345
8.14476
8.14608
8.14742
8.14877
8.15014
8.15152
8.15291
8.15432
8.15575
8.15719
8.15865
8.16013
8.16162
8.16313
8.16466
8.1662
8.16776
8.16935
8.17095
8.17257
8.17421
8.17587
8.17756
8.17927
8.18101
8.18278
8.18458
8.18642
8.1883
8.19023
8.19221
8.19428
8.19643
8.19871
8.20117
8.20388
8.20698
8.21072
8.21557
8.22244
8.23283
8.24824
21.2565
12.0942
10.6118
10.045
9.71439
9.47229
9.27547
9.10931
8.96803
8.84859
8.74868
8.66607
8.59849
8.54364
8.49929
8.46331
8.4338
8.40911
8.38782
8.3688
8.3512
8.33438
8.31791
8.30151
8.28507
8.26853
8.25194
8.23536
8.21888
8.20262
8.18667
8.17112
8.15606
8.14156
8.12767
8.11443
8.10186
8.08999
8.07882
8.06834
8.05855
8.04944
8.04098
8.03315
8.02593
8.01929
8.0132
8.00763
8.00256
7.99795
7.99378
7.99001
7.98662
7.98359
7.98088
7.97848
7.97635
7.97449
7.97286
7.97145
7.97024
7.96921
7.96834
7.96763
7.96706
7.96661
7.96628
7.96604
7.96591
7.96585
7.96587
7.96596
7.96611
7.96631
7.96656
7.96686
7.96719
7.96757
7.96797
7.9684
7.96885
7.96933
7.96983
7.97034
7.97088
7.97142
7.97198
7.97255
7.97313
7.97372
7.97432
7.97493
7.97554
7.97616
7.97679
7.97742
7.97807
7.97872
7.97939
7.98007
7.98076
7.98147
7.98218
7.9829
7.98363
7.98436
7.98509
7.98583
7.98657
7.98732
7.98807
7.98883
7.98958
7.99035
7.99111
7.99189
7.99267
7.99345
7.99424
7.99504
7.99584
7.99665
7.99746
7.99829
7.99912
7.99996
8.0008
8.00166
8.00252
8.00339
8.00427
8.00516
8.00606
8.00697
8.00789
8.00882
8.00977
8.01072
8.01168
8.01266
8.01364
8.01464
8.01565
8.01668
8.01771
8.01876
8.01982
8.02089
8.02198
8.02308
8.02419
8.02532
8.02646
8.02762
8.02879
8.02998
8.03118
8.0324
8.03364
8.0349
8.03618
8.03747
8.03879
8.04013
8.0415
8.0429
8.04433
8.0458
8.04732
8.0489
8.05056
8.05231
8.05421
8.05631
8.05871
8.0616
8.06533
8.07051
8.07811
8.08887
21.5304
12.1567
10.6454
10.071
9.73948
9.49948
9.30628
9.1444
9.00746
8.89198
8.79533
8.71505
8.64874
8.59404
8.54874
8.51077
8.47835
8.44994
8.42429
8.40043
8.37764
8.35543
8.33348
8.31163
8.28985
8.26815
8.24663
8.22539
8.20456
8.18423
8.16453
8.14554
8.12733
8.10995
8.09344
8.07782
8.0631
8.04927
8.03632
8.02423
8.01297
8.00252
7.99283
7.98388
7.97562
7.96803
7.96106
7.95467
7.94883
7.94351
7.93866
7.93426
7.93027
7.92667
7.92342
7.9205
7.91789
7.91555
7.91347
7.91162
7.90999
7.90855
7.9073
7.9062
7.90526
7.90445
7.90377
7.9032
7.90273
7.90235
7.90205
7.90183
7.90168
7.90159
7.90155
7.90156
7.90161
7.90171
7.90184
7.902
7.90219
7.90241
7.90265
7.90291
7.90319
7.90349
7.9038
7.90412
7.90446
7.9048
7.90516
7.90553
7.9059
7.90629
7.90668
7.90708
7.90748
7.9079
7.90833
7.90877
7.90922
7.90967
7.91014
7.91061
7.91108
7.91156
7.91204
7.91253
7.91302
7.91351
7.91401
7.91451
7.91502
7.91552
7.91604
7.91655
7.91707
7.9176
7.91812
7.91866
7.9192
7.91974
7.92029
7.92085
7.92141
7.92197
7.92255
7.92313
7.92371
7.9243
7.9249
7.92551
7.92612
7.92674
7.92737
7.92801
7.92865
7.92931
7.92997
7.93064
7.93132
7.93201
7.9327
7.93341
7.93413
7.93485
7.93559
7.93633
7.93709
7.93785
7.93863
7.93942
7.94022
7.94103
7.94185
7.94268
7.94353
7.94439
7.94526
7.94615
7.94705
7.94797
7.9489
7.94986
7.95083
7.95183
7.95285
7.9539
7.95499
7.95613
7.95732
7.95859
7.95997
7.96149
7.96325
7.96537
7.96809
7.97183
7.97717
7.98448
21.8232
12.2276
10.6906
10.1133
9.7864
9.55446
9.37094
9.21918
9.09195
8.98512
8.89556
8.82053
8.75743
8.7039
8.65777
8.61718
8.58054
8.5466
8.5144
8.48324
8.45267
8.42244
8.39245
8.36271
8.3333
8.30436
8.27605
8.24851
8.22188
8.19628
8.1718
8.14851
8.12645
8.10565
8.08609
8.06777
8.05065
8.0347
8.01988
8.00612
7.99339
7.98162
7.97077
7.96077
7.95158
7.94314
7.9354
7.92831
7.92184
7.91593
7.91054
7.90564
7.90119
7.89715
7.89349
7.89019
7.88721
7.88452
7.88211
7.87994
7.87801
7.87628
7.87474
7.87338
7.87217
7.87111
7.87018
7.86936
7.86866
7.86805
7.86753
7.86709
7.86672
7.86642
7.86617
7.86598
7.86583
7.86573
7.86566
7.86563
7.86564
7.86566
7.86572
7.8658
7.86589
7.86601
7.86614
7.86628
7.86644
7.86661
7.86679
7.86699
7.86719
7.86739
7.86761
7.86783
7.86807
7.86831
7.86856
7.86882
7.86908
7.86936
7.86963
7.86992
7.8702
7.87049
7.87079
7.87109
7.87139
7.87169
7.87199
7.8723
7.87261
7.87293
7.87325
7.87357
7.87389
7.87422
7.87455
7.87488
7.87522
7.87556
7.87591
7.87626
7.87661
7.87697
7.87733
7.87769
7.87807
7.87844
7.87882
7.87921
7.8796
7.88
7.8804
7.8808
7.88122
7.88164
7.88206
7.88249
7.88293
7.88337
7.88382
7.88428
7.88475
7.88522
7.88569
7.88618
7.88667
7.88717
7.88768
7.88819
7.88872
7.88925
7.88979
7.89034
7.8909
7.89147
7.89204
7.89263
7.89323
7.89384
7.89446
7.8951
7.89575
7.89642
7.8971
7.89781
7.89855
7.89931
7.90012
7.90099
7.90193
7.90299
7.90421
7.90569
7.90759
7.91019
7.91383
7.91869
22.2013
12.3352
10.7678
10.1906
9.87425
9.65719
9.49016
9.35477
9.24258
9.14855
9.06895
9.00066
8.94099
8.88762
8.83863
8.79251
8.74811
8.70464
8.6616
8.61875
8.57605
8.5336
8.49158
8.45024
8.40985
8.37065
8.33287
8.2967
8.26228
8.2297
8.19903
8.17026
8.14339
8.11837
8.09515
8.07364
8.05375
8.0354
8.0185
8.00294
7.98864
7.97552
7.96348
7.95244
7.94234
7.9331
7.92466
7.91695
7.90991
7.9035
7.89766
7.89235
7.88752
7.88314
7.87917
7.87557
7.87232
7.86938
7.86672
7.86433
7.86218
7.86025
7.85851
7.85696
7.85557
7.85433
7.85323
7.85225
7.85139
7.85062
7.84995
7.84936
7.84885
7.8484
7.84802
7.84769
7.84741
7.84717
7.84698
7.84682
7.8467
7.8466
7.84653
7.84648
7.84646
7.84645
7.84646
7.84649
7.84653
7.84658
7.84664
7.84672
7.8468
7.84689
7.84699
7.84709
7.84721
7.84733
7.84746
7.84759
7.84773
7.84788
7.84803
7.84819
7.84835
7.84851
7.84867
7.84884
7.84901
7.84918
7.84936
7.84953
7.84971
7.84989
7.85008
7.85026
7.85045
7.85064
7.85083
7.85103
7.85122
7.85142
7.85163
7.85183
7.85204
7.85225
7.85247
7.85268
7.8529
7.85313
7.85335
7.85358
7.85382
7.85405
7.85429
7.85454
7.85479
7.85504
7.8553
7.85556
7.85582
7.85609
7.85636
7.85664
7.85692
7.85721
7.8575
7.8578
7.8581
7.85841
7.85872
7.85903
7.85936
7.85969
7.86002
7.86036
7.86071
7.86106
7.86142
7.86179
7.86216
7.86254
7.86293
7.86333
7.86374
7.86416
7.8646
7.86505
7.86552
7.86601
7.86653
7.86709
7.8677
7.8684
7.86921
7.87021
7.8715
7.87326
7.8757
7.8789
22.8306
12.5339
10.9134
10.3368
10.0374
9.84362
9.70127
9.58917
9.49726
9.41928
9.35078
9.28837
9.22944
9.17203
9.11479
9.05687
8.99788
8.93777
8.87677
8.81527
8.75378
8.69287
8.6331
8.57497
8.51895
8.46539
8.41459
8.36672
8.32189
8.28013
8.24142
8.20566
8.17274
8.14251
8.11481
8.08947
8.06631
8.04517
8.02589
8.00831
7.99228
7.97768
7.96437
7.95225
7.94122
7.93117
7.92203
7.91371
7.90615
7.89927
7.89302
7.88734
7.88219
7.87751
7.87328
7.86944
7.86596
7.86282
7.85998
7.85741
7.8551
7.85301
7.85113
7.84944
7.84792
7.84656
7.84534
7.84425
7.84327
7.8424
7.84163
7.84094
7.84033
7.83979
7.83931
7.83889
7.83852
7.8382
7.83792
7.83768
7.83747
7.83729
7.83714
7.83702
7.83691
7.83683
7.83676
7.83671
7.83668
7.83665
7.83664
7.83664
7.83665
7.83667
7.83669
7.83672
7.83676
7.8368
7.83686
7.83691
7.83698
7.83704
7.83711
7.83719
7.83726
7.83734
7.83743
7.83751
7.8376
7.83769
7.83778
7.83787
7.83796
7.83806
7.83816
7.83826
7.83836
7.83846
7.83856
7.83867
7.83878
7.83889
7.839
7.83911
7.83922
7.83934
7.83946
7.83958
7.8397
7.83983
7.83995
7.84008
7.84021
7.84035
7.84048
7.84062
7.84076
7.8409
7.84105
7.84119
7.84134
7.8415
7.84165
7.84181
7.84197
7.84214
7.84231
7.84248
7.84265
7.84283
7.84301
7.84319
7.84338
7.84357
7.84377
7.84397
7.84417
7.84438
7.84459
7.8448
7.84502
7.84525
7.84548
7.84572
7.84596
7.84622
7.84648
7.84675
7.84703
7.84733
7.84765
7.84799
7.84838
7.84882
7.84934
7.85
7.85087
7.85205
7.85368
7.8558
23.8275
12.8728
11.1735
10.6001
10.3278
10.1686
10.061
9.97993
9.91258
9.85138
9.79153
9.72974
9.664
9.59328
9.51735
9.43658
9.35174
9.26391
9.17428
9.08409
8.99454
8.90672
8.82158
8.73992
8.66234
8.58928
8.52102
8.45769
8.39929
8.34571
8.29677
8.25223
8.2118
8.17519
8.14207
8.11216
8.08514
8.06075
8.03873
8.01884
8.00087
7.98463
7.96994
7.95665
7.94461
7.93371
7.92384
7.91489
7.90679
7.89944
7.89278
7.88674
7.88127
7.87632
7.87183
7.86777
7.86409
7.86077
7.85776
7.85504
7.85259
7.85037
7.84837
7.84657
7.84495
7.84349
7.84217
7.84099
7.83993
7.83898
7.83813
7.83737
7.83668
7.83607
7.83553
7.83505
7.83462
7.83423
7.83389
7.8336
7.83333
7.8331
7.83289
7.83272
7.83256
7.83243
7.83231
7.83221
7.83212
7.83205
7.83199
7.83194
7.83191
7.83188
7.83185
7.83184
7.83183
7.83183
7.83183
7.83184
7.83186
7.83187
7.83189
7.83192
7.83195
7.83198
7.83201
7.83204
7.83208
7.83212
7.83216
7.8322
7.83224
7.83229
7.83233
7.83238
7.83243
7.83248
7.83253
7.83258
7.83264
7.83269
7.83275
7.8328
7.83286
7.83292
7.83298
7.83304
7.83311
7.83317
7.83324
7.8333
7.83337
7.83344
7.83351
7.83359
7.83366
7.83373
7.83381
7.83389
7.83397
7.83405
7.83414
7.83422
7.83431
7.8344
7.83449
7.83458
7.83468
7.83477
7.83487
7.83497
7.83507
7.83518
7.83529
7.8354
7.83551
7.83562
7.83574
7.83586
7.83599
7.83611
7.83624
7.83638
7.83651
7.83666
7.83681
7.83696
7.83712
7.8373
7.83749
7.83769
7.83793
7.8382
7.83854
7.83897
7.83956
7.84036
7.84147
7.8429
25.2724
13.4119
11.6135
11.052
10.8215
10.711
10.6489
10.6046
10.5625
10.5138
10.4535
10.3793
10.2914
10.1905
10.0785
9.95765
9.83035
9.69917
9.5665
9.43452
9.30515
9.17999
9.06032
8.94714
8.84112
8.74268
8.65198
8.569
8.49353
8.42525
8.36372
8.30848
8.259
8.21477
8.17526
8.13999
8.10851
8.0804
8.05527
8.03279
8.01265
7.99459
7.97838
7.9638
7.95069
7.93887
7.92822
7.91861
7.90993
7.90208
7.89499
7.88859
7.88279
7.87754
7.8728
7.86851
7.86463
7.86112
7.85795
7.85508
7.85248
7.85014
7.84802
7.84611
7.84439
7.84283
7.84143
7.84017
7.83903
7.83801
7.83708
7.83626
7.83551
7.83484
7.83424
7.8337
7.83322
7.83279
7.8324
7.83206
7.83175
7.83147
7.83123
7.83101
7.83082
7.83064
7.83049
7.83036
7.83024
7.83013
7.83004
7.82996
7.82989
7.82982
7.82977
7.82973
7.82969
7.82966
7.82963
7.82961
7.82959
7.82958
7.82957
7.82956
7.82956
7.82956
7.82956
7.82957
7.82958
7.82958
7.82959
7.82961
7.82962
7.82963
7.82965
7.82967
7.82968
7.8297
7.82972
7.82974
7.82977
7.82979
7.82981
7.82984
7.82986
7.82989
7.82992
7.82994
7.82997
7.83
7.83003
7.83006
7.8301
7.83013
7.83016
7.8302
7.83023
7.83027
7.83031
7.83035
7.83039
7.83043
7.83047
7.83051
7.83055
7.8306
7.83064
7.83069
7.83074
7.83079
7.83084
7.83089
7.83094
7.831
7.83105
7.83111
7.83117
7.83123
7.83129
7.83135
7.83142
7.83149
7.83156
7.83163
7.8317
7.83178
7.83186
7.83195
7.83204
7.83213
7.83224
7.83236
7.83251
7.83268
7.8329
7.83319
7.8336
7.83417
7.83495
7.83596
27.2829
14.2346
12.3245
11.7914
11.6223
11.576
11.5679
11.5607
11.5357
11.4839
11.4017
11.2899
11.1528
10.9949
10.821
10.6358
10.4441
10.2498
10.0567
9.86764
9.68521
9.51129
9.34734
9.19432
9.05281
8.92306
8.80497
8.69823
8.60233
8.51659
8.44026
8.37253
8.31259
8.25962
8.21284
8.17155
8.13508
8.10283
8.07429
8.04898
8.02649
8.00649
7.98864
7.97271
7.95844
7.94566
7.93418
7.92387
7.91458
7.90622
7.89868
7.89188
7.88573
7.88018
7.87517
7.87064
7.86654
7.86283
7.85948
7.85645
7.85371
7.85123
7.84899
7.84696
7.84513
7.84347
7.84198
7.84063
7.83941
7.83831
7.83731
7.83642
7.83561
7.83488
7.83422
7.83363
7.8331
7.83262
7.83218
7.83179
7.83144
7.83113
7.83085
7.83059
7.83036
7.83016
7.82997
7.8298
7.82966
7.82952
7.8294
7.82929
7.8292
7.82911
7.82903
7.82896
7.8289
7.82885
7.8288
7.82876
7.82872
7.82869
7.82866
7.82863
7.82861
7.82859
7.82857
7.82856
7.82854
7.82853
7.82852
7.82852
7.82851
7.82851
7.8285
7.8285
7.8285
7.8285
7.82851
7.82851
7.82851
7.82852
7.82852
7.82853
7.82853
7.82854
7.82855
7.82856
7.82857
7.82858
7.82859
7.8286
7.82861
7.82862
7.82863
7.82865
7.82866
7.82868
7.82869
7.82871
7.82872
7.82874
7.82876
7.82878
7.8288
7.82882
7.82884
7.82886
7.82888
7.8289
7.82893
7.82895
7.82897
7.829
7.82903
7.82905
7.82908
7.82911
7.82914
7.82917
7.82921
7.82924
7.82927
7.82931
7.82935
7.82939
7.82943
7.82948
7.82953
7.82958
7.82964
7.82971
7.8298
7.82992
7.83007
7.83028
7.83057
7.83099
7.83158
7.83233
30.1909
15.5115
13.461
12.9774
12.8927
12.9245
12.9707
12.9862
12.9506
12.8579
12.7103
12.5157
12.2862
12.0312
11.7594
11.4785
11.1951
10.9147
10.6415
10.379
10.1298
9.89562
9.67777
9.47692
9.29329
9.12672
8.97671
8.8425
8.72313
8.61749
8.5244
8.44264
8.37101
8.30835
8.25359
8.20571
8.16383
8.12715
8.09495
8.06664
8.04169
8.01963
8.00009
7.98274
7.96729
7.9535
7.94118
7.93014
7.92024
7.91133
7.90333
7.89611
7.88961
7.88374
7.87843
7.87364
7.86931
7.8654
7.86185
7.85865
7.85574
7.85312
7.85074
7.84858
7.84663
7.84487
7.84327
7.84182
7.84051
7.83933
7.83825
7.83728
7.8364
7.83561
7.83489
7.83423
7.83364
7.83311
7.83263
7.83219
7.83179
7.83143
7.83111
7.83082
7.83055
7.83031
7.83009
7.82989
7.82972
7.82955
7.82941
7.82927
7.82915
7.82904
7.82894
7.82885
7.82877
7.82869
7.82862
7.82856
7.82851
7.82846
7.82841
7.82837
7.82833
7.82829
7.82826
7.82823
7.8282
7.82818
7.82816
7.82813
7.82812
7.8281
7.82808
7.82807
7.82806
7.82805
7.82803
7.82803
7.82802
7.82801
7.828
7.828
7.82799
7.82799
7.82798
7.82798
7.82798
7.82798
7.82797
7.82797
7.82797
7.82797
7.82797
7.82798
7.82798
7.82798
7.82798
7.82799
7.82799
7.82799
7.828
7.828
7.82801
7.82801
7.82802
7.82803
7.82804
7.82804
7.82805
7.82806
7.82807
7.82808
7.82809
7.8281
7.82812
7.82813
7.82814
7.82815
7.82817
7.82818
7.8282
7.82822
7.82824
7.82826
7.82828
7.8283
7.82833
7.82836
7.8284
7.82844
7.8285
7.82858
7.82869
7.82885
7.82908
7.82941
7.82987
7.83048
34.5787
17.4905
15.2461
14.8038
14.8141
14.921
14.9953
14.9839
14.8712
14.6625
14.3742
14.0306
13.6508
13.2499
12.8401
12.4312
12.0307
11.644
11.2753
10.9273
10.602
10.3005
10.0233
9.77037
9.5414
9.33555
9.15174
8.98864
8.84476
8.71847
8.6081
8.51197
8.42846
8.35603
8.29325
8.23884
8.19163
8.1506
8.11488
8.08368
8.05637
8.03238
8.01125
7.99258
7.97603
7.96132
7.94821
7.93651
7.92603
7.91664
7.90819
7.9006
7.89376
7.88759
7.88202
7.87698
7.87243
7.86831
7.86458
7.86121
7.85815
7.85537
7.85286
7.85058
7.84851
7.84663
7.84493
7.84338
7.84198
7.8407
7.83955
7.8385
7.83754
7.83668
7.83589
7.83518
7.83453
7.83394
7.8334
7.83291
7.83247
7.83207
7.8317
7.83137
7.83106
7.83079
7.83053
7.8303
7.83009
7.8299
7.82973
7.82957
7.82942
7.82928
7.82916
7.82905
7.82895
7.82885
7.82876
7.82868
7.82861
7.82854
7.82848
7.82842
7.82837
7.82832
7.82827
7.82823
7.82819
7.82816
7.82812
7.82809
7.82806
7.82803
7.82801
7.82798
7.82796
7.82794
7.82792
7.8279
7.82788
7.82787
7.82785
7.82784
7.82782
7.82781
7.8278
7.82779
7.82778
7.82777
7.82776
7.82775
7.82774
7.82774
7.82773
7.82772
7.82772
7.82771
7.82771
7.8277
7.8277
7.8277
7.82769
7.82769
7.82769
7.82769
7.82769
7.82769
7.82768
7.82768
7.82769
7.82769
7.82769
7.82769
7.82769
7.82769
7.8277
7.8277
7.8277
7.82771
7.82771
7.82772
7.82773
7.82773
7.82774
7.82775
7.82776
7.82777
7.82779
7.82781
7.82783
7.82786
7.8279
7.82796
7.82805
7.82818
7.82837
7.82864
7.82903
7.82953
39.6996
19.9607
17.5409
17.1499
17.2472
17.3935
17.4278
17.2981
17.0093
16.5933
16.096
15.5517
14.9847
14.4135
13.8513
13.3074
12.788
12.2971
11.8371
11.4093
11.0143
10.6519
10.3217
10.0227
9.75382
9.5136
9.30034
9.11217
8.94709
8.80299
8.67777
8.56935
8.47572
8.39501
8.3255
8.26562
8.21399
8.1694
8.13079
8.09727
8.06808
8.04256
8.02017
8.00047
7.98307
7.96766
7.95396
7.94175
7.93084
7.92107
7.9123
7.90442
7.89732
7.89092
7.88514
7.87992
7.8752
7.87092
7.86705
7.86353
7.86035
7.85745
7.85483
7.85244
7.85027
7.8483
7.84651
7.84488
7.84339
7.84205
7.84082
7.8397
7.83868
7.83776
7.83691
7.83614
7.83544
7.8348
7.83422
7.83368
7.8332
7.83275
7.83235
7.83198
7.83164
7.83133
7.83105
7.83079
7.83055
7.83033
7.83013
7.82994
7.82977
7.82962
7.82947
7.82934
7.82922
7.82911
7.829
7.82891
7.82882
7.82873
7.82866
7.82859
7.82852
7.82846
7.8284
7.82835
7.8283
7.82825
7.82821
7.82817
7.82813
7.82809