/*--------------------------------*- C++ -*----------------------------------*\
  =========                 |
  \\      /  F ield         | OpenFOAM: The Open Source CFD Toolbox
   \\    /   O peration     | Website:  https://openfoam.org
    \\  /    A nd           | Version:  6
     \\/     M anipulation  |
\*---------------------------------------------------------------------------*/
FoamFile
{
    version     2.0;
    format      ascii;
    class       volScalarField;
    location    "0.01";
    object      k;
}
// * * * * * * * * * * * * * * * * * * * * * * * * * * * * * * * * * * * * * //

dimensions      [0 2 -2 0 0 0 0];

internalField   nonuniform List<scalar> 
12225
(
0.246403
0.158864
0.119096
0.0972827
0.0839493
0.0756094
0.0705369
0.0676186
0.0660816
0.0654961
0.06555
0.06603
0.0668531
0.068033
0.0697019
0.0721584
0.0764778
0.085048
0.339338
0.260132
0.208575
0.17598
0.154887
0.141288
0.132763
0.127645
0.124778
0.12342
0.123067
0.123399
0.124267
0.125659
0.127726
0.130807
0.135858
0.144868
0.347479
0.292585
0.249238
0.217608
0.194922
0.179104
0.16855
0.161876
0.157936
0.155869
0.15505
0.155104
0.155839
0.157218
0.159379
0.162671
0.167889
0.176245
0.351413
0.309425
0.272928
0.24397
0.221847
0.205597
0.194224
0.186687
0.182011
0.179367
0.178117
0.177867
0.178402
0.179665
0.181768
0.185026
0.190042
0.197549
0.354005
0.319777
0.288521
0.262435
0.241664
0.22584
0.214357
0.206458
0.201352
0.198284
0.196675
0.196143
0.196463
0.197566
0.199536
0.202631
0.207285
0.213914
0.355802
0.326655
0.299451
0.276039
0.256877
0.24189
0.230713
0.222788
0.217483
0.214137
0.212253
0.211476
0.211589
0.212514
0.214309
0.217168
0.221383
0.227165
0.357076
0.331441
0.307394
0.286344
0.268804
0.254828
0.244185
0.236454
0.231116
0.227619
0.225541
0.224565
0.224492
0.225237
0.226834
0.229415
0.233162
0.238154
0.35799
0.334859
0.313284
0.294261
0.278242
0.265316
0.255318
0.247917
0.242658
0.239111
0.236913
0.235786
0.235551
0.236123
0.237511
0.239794
0.243072
0.24734
0.358649
0.337328
0.317687
0.300368
0.285716
0.273801
0.264482
0.257462
0.252371
0.248853
0.246597
0.245365
0.244995
0.245404
0.246581
0.248563
0.251385
0.255001
0.359121
0.339111
0.32097
0.30506
0.291598
0.280608
0.271938
0.265324
0.260452
0.257016
0.254752
0.253452
0.252974
0.253234
0.254205
0.25589
0.258284
0.261315
0.359454
0.340387
0.323392
0.308618
0.296158
0.285975
0.277902
0.271689
0.267056
0.263737
0.2615
0.260164
0.259599
0.259724
0.260498
0.261899
0.263896
0.266407
0.359666
0.34121
0.325001
0.311044
0.299333
0.289775
0.282183
0.276311
0.271898
0.268702
0.266512
0.265166
0.264542
0.26456
0.265168
0.266328
0.267995
0.270085
0.359817
0.341804
0.326188
0.312872
0.301767
0.292728
0.285546
0.279974
0.275762
0.272684
0.270545
0.269195
0.268518
0.268433
0.268882
0.269815
0.271179
0.272893
0.359932
0.34226
0.327123
0.314345
0.303764
0.295187
0.288379
0.283088
0.279071
0.27611
0.274025
0.272672
0.271938
0.271743
0.27202
0.272715
0.273769
0.275106
0.360011
0.342576
0.327784
0.315408
0.305233
0.29702
0.290515
0.285455
0.281601
0.27874
0.276697
0.275332
0.274536
0.274222
0.274322
0.274777
0.275526
0.276502
0.360058
0.342765
0.328185
0.316065
0.306152
0.29818
0.291874
0.286968
0.283219
0.280417
0.278388
0.276993
0.27612
0.27568
0.275603
0.275826
0.27629
0.276939
0.360081
0.342856
0.328379
0.316382
0.306596
0.298735
0.292517
0.287671
0.283953
0.281152
0.279095
0.27764
0.276673
0.276102
0.275853
0.275863
0.276078
0.276446
0.360088
0.342882
0.32843
0.316461
0.306694
0.29884
0.292612
0.287739
0.283979
0.281122
0.278993
0.277448
0.276371
0.275666
0.275259
0.275086
0.275094
0.275237
0.360082
0.342857
0.328372
0.31635
0.30651
0.298567
0.292237
0.287254
0.283381
0.280411
0.278169
0.276508
0.27531
0.274478
0.273931
0.273608
0.273454
0.273427
0.360055
0.342745
0.32812
0.315905
0.305835
0.29764
0.291054
0.285829
0.281737
0.278575
0.276168
0.274366
0.273043
0.272097
0.271442
0.271011
0.270748
0.270609
0.359992
0.342488
0.327557
0.314952
0.304442
0.295798
0.28879
0.283191
0.278785
0.275372
0.272769
0.270816
0.269376
0.268335
0.267601
0.267097
0.266764
0.266555
0.359852
0.341928
0.326378
0.313033
0.301747
0.292361
0.284694
0.278548
0.273712
0.269977
0.267142
0.265027
0.263474
0.262351
0.261554
0.260998
0.260617
0.26036
0.359578
0.340842
0.324189
0.309627
0.297152
0.286701
0.278146
0.271305
0.265959
0.261869
0.258801
0.256537
0.254894
0.253715
0.252881
0.252295
0.251887
0.251601
0.35908
0.338913
0.320483
0.304124
0.290021
0.278206
0.268586
0.260968
0.255095
0.250673
0.247412
0.245048
0.243358
0.242162
0.241322
0.240733
0.240317
0.240018
0.358233
0.335682
0.314583
0.295771
0.279623
0.266221
0.255458
0.247082
0.240752
0.23609
0.232726
0.23034
0.228667
0.227501
0.226691
0.226123
0.225717
0.225418
0.356845
0.330421
0.30547
0.2835
0.264978
0.249919
0.238098
0.229129
0.222528
0.217795
0.214469
0.212167
0.210586
0.209504
0.208757
0.208232
0.207851
0.207559
0.354607
0.321784
0.291363
0.265543
0.244543
0.228046
0.215527
0.206342
0.199804
0.19526
0.19216
0.190068
0.188662
0.187712
0.187059
0.186595
0.186246
0.185965
0.350936
0.306861
0.268619
0.238481
0.215456
0.198314
0.185919
0.177216
0.171259
0.167258
0.164607
0.162861
0.161708
0.160934
0.160397
0.160004
0.159693
0.159425
0.34239
0.275957
0.227457
0.193994
0.170985
0.155259
0.144646
0.137582
0.132934
0.1299
0.127931
0.126653
0.125812
0.125243
0.124835
0.12452
0.124253
0.124002
0.259289
0.173105
0.131325
0.107316
0.0920437
0.081981
0.0753639
0.0710755
0.0683266
0.0665634
0.0654166
0.0646484
0.0641088
0.0637039
0.0633758
0.0630884
0.0628185
0.0625515
0.0196404
0.043032
0.0535072
0.0610326
0.0667322
0.0711508
0.074565
0.0772276
0.0792972
0.0808958
0.0821214
0.0830531
0.0837553
0.0842802
0.0846693
0.0849558
0.0851651
0.085317
0.0854259
0.0855027
0.085555
0.0855883
0.0856065
0.0856121
0.0856071
0.0855926
0.0855698
0.0855392
0.0855016
0.0854576
0.0854077
0.0853524
0.0852924
0.0852282
0.0851602
0.0850892
0.0850155
0.0849397
0.0848622
0.0847836
0.0847041
0.0846242
0.0845442
0.0844645
0.0843852
0.0843066
0.084229
0.0841524
0.084077
0.0840029
0.0839303
0.0838591
0.0837894
0.0837213
0.0836547
0.0835897
0.0835262
0.0834643
0.0834038
0.0833448
0.0832872
0.083231
0.083176
0.0831224
0.08307
0.0830187
0.0829685
0.0829194
0.0828713
0.0828242
0.0827779
0.0827325
0.0826879
0.0826441
0.0826009
0.0825584
0.0825165
0.0824752
0.0824344
0.0823941
0.0823542
0.0823148
0.0822757
0.0822369
0.0821984
0.0821601
0.0821221
0.0820843
0.0820466
0.0820091
0.0819717
0.0819344
0.0818971
0.0818598
0.0818225
0.0817852
0.0817477
0.0817102
0.0816724
0.0816357
0.0816005
0.0815656
0.0815306
0.0814952
0.0814596
0.0814237
0.0813876
0.0813512
0.0813146
0.0812777
0.0812407
0.0812033
0.0811657
0.0811278
0.0810897
0.0810513
0.0810126
0.0809737
0.0809345
0.0808949
0.0808551
0.080815
0.0807747
0.080734
0.080693
0.0806518
0.0806103
0.0805684
0.0805263
0.0804839
0.0804411
0.0803981
0.0803546
0.0803108
0.0802666
0.0802221
0.0801771
0.0801317
0.0800859
0.0800397
0.0799931
0.0799462
0.0798988
0.079851
0.0798028
0.0797542
0.0797053
0.0796559
0.0796061
0.0795559
0.0795053
0.0794543
0.0794029
0.079351
0.0792987
0.0792459
0.0791926
0.0791388
0.0790844
0.0790295
0.078974
0.0789178
0.0788608
0.078803
0.0787442
0.0786843
0.078623
0.07856
0.078495
0.0784273
0.0783562
0.0782804
0.0781981
0.0781062
0.0779994
0.0778669
0.0776843
0.0773884
0.0768243
0.0755835
0.0360375
0.084546
0.109007
0.125741
0.138186
0.147731
0.155155
0.160964
0.165513
0.169066
0.171822
0.173942
0.175551
0.176753
0.177632
0.178255
0.178679
0.178947
0.179094
0.179148
0.179131
0.179058
0.178942
0.178793
0.178617
0.17842
0.178206
0.177978
0.17774
0.177492
0.177237
0.176976
0.176712
0.176445
0.176176
0.175906
0.175638
0.17537
0.175105
0.174843
0.174585
0.174331
0.174081
0.173837
0.173598
0.173364
0.173137
0.172915
0.1727
0.172491
0.172288
0.172091
0.1719
0.171715
0.171535
0.171362
0.171194
0.171032
0.170874
0.170722
0.170575
0.170432
0.170294
0.17016
0.17003
0.169904
0.169782
0.169663
0.169548
0.169436
0.169327
0.169221
0.169118
0.169018
0.16892
0.168824
0.16873
0.168639
0.16855
0.168462
0.168376
0.168292
0.168209
0.168128
0.168047
0.167969
0.167891
0.167814
0.167738
0.167664
0.167589
0.167516
0.167443
0.167371
0.1673
0.167229
0.167158
0.167088
0.167018
0.166948
0.166877
0.166807
0.166736
0.166665
0.166594
0.166523
0.166453
0.166382
0.166312
0.166242
0.166171
0.166101
0.166031
0.16596
0.16589
0.165819
0.165748
0.165677
0.165606
0.165534
0.165462
0.16539
0.165318
0.165245
0.165172
0.165098
0.165024
0.16495
0.164876
0.1648
0.164725
0.164649
0.164572
0.164495
0.164417
0.164338
0.164259
0.164179
0.164099
0.164018
0.163936
0.163853
0.16377
0.163686
0.163602
0.163516
0.163431
0.163344
0.163257
0.163169
0.16308
0.162991
0.162901
0.16281
0.162718
0.162626
0.162532
0.162438
0.162343
0.162246
0.162149
0.16205
0.16195
0.161849
0.161746
0.16164
0.161533
0.161423
0.161309
0.161191
0.161067
0.160936
0.160793
0.160634
0.160449
0.160217
0.159891
0.159353
0.158276
0.156214
0.0449344
0.103311
0.132414
0.152233
0.167043
0.178514
0.187549
0.194724
0.200438
0.204986
0.208593
0.211435
0.213654
0.215365
0.216664
0.217627
0.218321
0.218799
0.219105
0.219274
0.219335
0.219312
0.219222
0.219081
0.218898
0.218683
0.218443
0.218183
0.217908
0.217621
0.217326
0.217024
0.216718
0.21641
0.216102
0.215794
0.215488
0.215186
0.214887
0.214593
0.214305
0.214023
0.213747
0.213478
0.213217
0.212963
0.212716
0.212477
0.212245
0.212022
0.211805
0.211596
0.211394
0.2112
0.211012
0.21083
0.210655
0.210486
0.210323
0.210166
0.210014
0.209867
0.209726
0.209589
0.209456
0.209328
0.209203
0.209083
0.208966
0.208852
0.208742
0.208635
0.20853
0.208429
0.20833
0.208233
0.208138
0.208046
0.207955
0.207866
0.207779
0.207694
0.20761
0.207527
0.207446
0.207366
0.207287
0.207209
0.207132
0.207055
0.20698
0.206905
0.20683
0.206756
0.206683
0.20661
0.206538
0.206465
0.206393
0.206321
0.206249
0.206175
0.206102
0.206028
0.205954
0.205881
0.205807
0.205734
0.20566
0.205586
0.205513
0.205439
0.205365
0.205291
0.205217
0.205143
0.205068
0.204994
0.204918
0.204843
0.204767
0.204691
0.204615
0.204538
0.20446
0.204383
0.204304
0.204226
0.204146
0.204067
0.203986
0.203906
0.203824
0.203742
0.203659
0.203576
0.203491
0.203406
0.203321
0.203234
0.203147
0.203059
0.20297
0.202881
0.20279
0.202699
0.202608
0.202515
0.202422
0.202328
0.202233
0.202137
0.20204
0.201942
0.201844
0.201744
0.201644
0.201542
0.20144
0.201336
0.201231
0.201125
0.201018
0.200908
0.200797
0.200685
0.200569
0.200451
0.20033
0.200204
0.200073
0.199934
0.199785
0.199621
0.199433
0.199203
0.198893
0.19841
0.197531
0.195985
0.0497721
0.113375
0.145063
0.166577
0.182686
0.195227
0.205177
0.213149
0.219567
0.224738
0.228897
0.232227
0.234874
0.236958
0.238576
0.239811
0.240731
0.241393
0.241847
0.242132
0.242281
0.242321
0.242275
0.24216
0.241991
0.241781
0.241537
0.241268
0.24098
0.240677
0.240365
0.240045
0.239722
0.239397
0.239072
0.238749
0.23843
0.238115
0.237806
0.237504
0.237208
0.236921
0.236641
0.23637
0.236107
0.235854
0.235609
0.235372
0.235145
0.234925
0.234714
0.234512
0.234317
0.23413
0.23395
0.233777
0.233611
0.233451
0.233298
0.23315
0.233008
0.232872
0.23274
0.232613
0.232491
0.232373
0.232258
0.232148
0.232041
0.231938
0.231837
0.23174
0.231645
0.231553
0.231463
0.231375
0.23129
0.231206
0.231124
0.231044
0.230966
0.230888
0.230813
0.230738
0.230665
0.230592
0.230521
0.23045
0.23038
0.230311
0.230243
0.230175
0.230108
0.230041
0.229974
0.229908
0.229842
0.229776
0.22971
0.229644
0.229578
0.229511
0.229444
0.229376
0.229309
0.229241
0.229174
0.229106
0.229038
0.228971
0.228903
0.228835
0.228767
0.228699
0.22863
0.228561
0.228492
0.228423
0.228354
0.228284
0.228213
0.228143
0.228072
0.228
0.227928
0.227856
0.227783
0.22771
0.227636
0.227562
0.227487
0.227411
0.227335
0.227259
0.227181
0.227103
0.227024
0.226945
0.226865
0.226784
0.226702
0.226619
0.226536
0.226452
0.226368
0.226282
0.226196
0.226109
0.226021
0.225932
0.225843
0.225753
0.225661
0.225569
0.225476
0.225382
0.225287
0.225191
0.225094
0.224996
0.224897
0.224797
0.224695
0.224591
0.224486
0.224379
0.22427
0.224158
0.224044
0.223925
0.223801
0.223671
0.223532
0.22338
0.223207
0.223
0.222728
0.222325
0.221649
0.220557
0.0524829
0.118987
0.152182
0.17475
0.191701
0.204955
0.215526
0.224048
0.230957
0.236569
0.241123
0.244808
0.24777
0.250133
0.251995
0.253439
0.254538
0.255349
0.255924
0.256305
0.256527
0.256622
0.256615
0.256525
0.25637
0.256164
0.255919
0.255643
0.255345
0.255031
0.254706
0.254373
0.254037
0.253701
0.253366
0.253034
0.252708
0.252388
0.252075
0.251771
0.251475
0.251189
0.250912
0.250645
0.250388
0.250141
0.249904
0.249677
0.249459
0.24925
0.249051
0.24886
0.248677
0.248503
0.248336
0.248177
0.248025
0.247879
0.24774
0.247606
0.247478
0.247356
0.247238
0.247126
0.247017
0.246913
0.246813
0.246716
0.246623
0.246533
0.246445
0.246361
0.246279
0.2462
0.246122
0.246047
0.245974
0.245902
0.245832
0.245764
0.245697
0.245631
0.245567
0.245503
0.245441
0.245379
0.245318
0.245258
0.245199
0.24514
0.245082
0.245024
0.244967
0.24491
0.244853
0.244797
0.24474
0.244684
0.244628
0.244572
0.244515
0.244457
0.2444
0.244342
0.244284
0.244226
0.244168
0.24411
0.244052
0.243994
0.243935
0.243877
0.243818
0.243759
0.2437
0.243641
0.243581
0.243521
0.243461
0.243401
0.24334
0.243279
0.243217
0.243155
0.243093
0.24303
0.242967
0.242903
0.242839
0.242774
0.242709
0.242643
0.242577
0.24251
0.242443
0.242374
0.242306
0.242236
0.242166
0.242095
0.242024
0.241952
0.241879
0.241805
0.241731
0.241656
0.241581
0.241504
0.241427
0.241349
0.24127
0.241191
0.241111
0.241029
0.240947
0.240865
0.240781
0.240696
0.24061
0.240524
0.240436
0.240347
0.240257
0.240165
0.240072
0.239978
0.239881
0.239782
0.23968
0.239575
0.239466
0.239351
0.239228
0.239095
0.238945
0.238767
0.23854
0.238216
0.237707
0.236942
0.0540494
0.122164
0.156237
0.17947
0.196987
0.21074
0.22176
0.230687
0.237962
0.243906
0.24876
0.252713
0.255916
0.25849
0.260536
0.26214
0.263371
0.264293
0.264956
0.265405
0.265679
0.265809
0.265822
0.265743
0.26559
0.265379
0.265124
0.264835
0.264521
0.264191
0.263849
0.2635
0.26315
0.2628
0.262453
0.262113
0.261779
0.261454
0.261139
0.260833
0.260539
0.260255
0.259983
0.259722
0.259473
0.259234
0.259007
0.25879
0.258584
0.258387
0.2582
0.258023
0.257854
0.257694
0.257542
0.257397
0.25726
0.257129
0.257005
0.256886
0.256774
0.256666
0.256564
0.256466
0.256372
0.256282
0.256197
0.256114
0.256035
0.255959
0.255886
0.255815
0.255747
0.25568
0.255616
0.255554
0.255494
0.255435
0.255377
0.255321
0.255266
0.255213
0.25516
0.255108
0.255057
0.255007
0.254958
0.254909
0.254861
0.254813
0.254766
0.254719
0.254673
0.254626
0.25458
0.254535
0.254489
0.254443
0.254398
0.254351
0.254305
0.254258
0.254211
0.254164
0.254117
0.25407
0.254022
0.253975
0.253927
0.25388
0.253832
0.253784
0.253736
0.253688
0.253639
0.25359
0.253542
0.253492
0.253443
0.253393
0.253343
0.253293
0.253242
0.253191
0.25314
0.253088
0.253036
0.252983
0.25293
0.252876
0.252822
0.252768
0.252713
0.252658
0.252602
0.252545
0.252488
0.25243
0.252372
0.252313
0.252254
0.252194
0.252133
0.252072
0.25201
0.251947
0.251884
0.25182
0.251756
0.251691
0.251625
0.251558
0.251491
0.251423
0.251354
0.251284
0.251214
0.251143
0.251071
0.250998
0.250924
0.250849
0.250773
0.250696
0.250617
0.250537
0.250455
0.250372
0.250286
0.250197
0.250104
0.250007
0.249904
0.249792
0.249667
0.249521
0.249337
0.249085
0.24871
0.248177
0.055002
0.124043
0.15863
0.18228
0.200178
0.214285
0.225635
0.234869
0.242428
0.248631
0.25372
0.257884
0.261272
0.264008
0.266193
0.267912
0.269237
0.270232
0.270948
0.271434
0.271728
0.271866
0.271877
0.271785
0.271613
0.271379
0.271096
0.270779
0.270436
0.270077
0.269708
0.269334
0.268961
0.268591
0.268228
0.267873
0.267528
0.267195
0.266874
0.266565
0.26627
0.265987
0.265718
0.265462
0.265219
0.264988
0.264769
0.264562
0.264366
0.264181
0.264007
0.263842
0.263686
0.263539
0.263401
0.26327
0.263147
0.26303
0.26292
0.262816
0.262718
0.262624
0.262536
0.262452
0.262372
0.262297
0.262224
0.262155
0.26209
0.262027
0.261966
0.261909
0.261853
0.261799
0.261748
0.261698
0.261649
0.261602
0.261557
0.261512
0.261469
0.261427
0.261385
0.261345
0.261305
0.261266
0.261227
0.261189
0.261152
0.261115
0.261078
0.261041
0.261005
0.26097
0.260934
0.260898
0.260863
0.260827
0.260792
0.260756
0.26072
0.260683
0.260647
0.26061
0.260573
0.260536
0.260499
0.260462
0.260425
0.260388
0.260351
0.260313
0.260275
0.260238
0.2602
0.260162
0.260123
0.260085
0.260046
0.260007
0.259968
0.259928
0.259888
0.259848
0.259807
0.259767
0.259725
0.259684
0.259642
0.2596
0.259557
0.259514
0.25947
0.259426
0.259382
0.259337
0.259292
0.259246
0.2592
0.259153
0.259106
0.259058
0.25901
0.258961
0.258911
0.258861
0.258811
0.25876
0.258708
0.258656
0.258603
0.25855
0.258496
0.258441
0.258386
0.25833
0.258273
0.258216
0.258158
0.258099
0.258039
0.257978
0.257917
0.257854
0.257791
0.257726
0.25766
0.257592
0.257522
0.25745
0.257375
0.257296
0.257213
0.257122
0.257022
0.256906
0.256762
0.256572
0.256302
0.255936
0.0556583
0.125312
0.16022
0.184146
0.202309
0.216676
0.228278
0.237753
0.24554
0.251953
0.257234
0.261568
0.265105
0.267966
0.270252
0.272049
0.27343
0.274459
0.275192
0.275678
0.275957
0.276068
0.276042
0.275908
0.275688
0.275402
0.275067
0.274698
0.274306
0.273899
0.273486
0.273073
0.272664
0.272263
0.271873
0.271495
0.271132
0.270783
0.27045
0.270133
0.269832
0.269547
0.269277
0.269022
0.268782
0.268556
0.268343
0.268144
0.267956
0.267781
0.267616
0.267461
0.267317
0.267181
0.267054
0.266935
0.266824
0.26672
0.266622
0.26653
0.266444
0.266363
0.266287
0.266215
0.266147
0.266083
0.266023
0.265966
0.265912
0.26586
0.265811
0.265765
0.26572
0.265678
0.265637
0.265597
0.26556
0.265523
0.265488
0.265454
0.26542
0.265388
0.265357
0.265326
0.265296
0.265266
0.265237
0.265209
0.265181
0.265153
0.265126
0.265099
0.265072
0.265045
0.265019
0.264992
0.264966
0.26494
0.264913
0.264886
0.264859
0.264832
0.264805
0.264778
0.26475
0.264723
0.264695
0.264668
0.26464
0.264612
0.264584
0.264556
0.264528
0.2645
0.264472
0.264443
0.264414
0.264386
0.264356
0.264327
0.264298
0.264268
0.264238
0.264208
0.264177
0.264146
0.264115
0.264084
0.264052
0.26402
0.263988
0.263956
0.263923
0.263889
0.263856
0.263822
0.263787
0.263753
0.263717
0.263682
0.263646
0.263609
0.263572
0.263535
0.263497
0.263459
0.26342
0.263381
0.263342
0.263302
0.263261
0.26322
0.263179
0.263136
0.263094
0.263051
0.263007
0.262963
0.262918
0.262872
0.262826
0.262779
0.262731
0.262682
0.262633
0.262583
0.262531
0.262478
0.262424
0.262367
0.262309
0.262248
0.262182
0.262112
0.262035
0.261946
0.261839
0.2617
0.261511
0.261266
0.0562164
0.126413
0.161571
0.185711
0.204086
0.218667
0.230481
0.240163
0.248147
0.254745
0.260191
0.264669
0.268325
0.27128
0.273634
0.275473
0.276871
0.277895
0.278602
0.279043
0.279263
0.279304
0.2792
0.27898
0.278673
0.2783
0.277879
0.277427
0.276957
0.276478
0.275998
0.275525
0.275062
0.274614
0.274183
0.273771
0.273378
0.273005
0.272652
0.272319
0.272006
0.271712
0.271436
0.271178
0.270937
0.270711
0.270501
0.270305
0.270122
0.269952
0.269794
0.269647
0.26951
0.269383
0.269265
0.269155
0.269053
0.268958
0.26887
0.268788
0.268711
0.26864
0.268574
0.268512
0.268454
0.268399
0.268349
0.268301
0.268256
0.268214
0.268174
0.268137
0.268101
0.268067
0.268035
0.268004
0.267975
0.267947
0.26792
0.267895
0.26787
0.267846
0.267822
0.267799
0.267777
0.267756
0.267735
0.267714
0.267694
0.267674
0.267654
0.267635
0.267616
0.267597
0.267578
0.267559
0.26754
0.267521
0.267503
0.267483
0.267464
0.267445
0.267426
0.267406
0.267387
0.267367
0.267348
0.267328
0.267308
0.267288
0.267269
0.267249
0.267229
0.267209
0.267188
0.267168
0.267147
0.267127
0.267106
0.267085
0.267064
0.267043
0.267021
0.266999
0.266977
0.266955
0.266933
0.26691
0.266888
0.266865
0.266841
0.266818
0.266794
0.26677
0.266745
0.266721
0.266696
0.26667
0.266645
0.266619
0.266593
0.266566
0.266539
0.266512
0.266484
0.266456
0.266428
0.266399
0.26637
0.266341
0.266311
0.266281
0.26625
0.266219
0.266188
0.266156
0.266123
0.266091
0.266057
0.266023
0.265989
0.265954
0.265919
0.265882
0.265845
0.265808
0.265769
0.26573
0.265689
0.265647
0.265603
0.265557
0.265508
0.265456
0.265399
0.265334
0.265257
0.26516
0.265033
0.264874
0.0568175
0.127669
0.163092
0.18745
0.206037
0.22083
0.232854
0.242741
0.250917
0.257689
0.263288
0.267892
0.271644
0.274664
0.27705
0.27889
0.28026
0.281228
0.281856
0.282198
0.282304
0.282219
0.281981
0.281625
0.28118
0.280672
0.280122
0.279547
0.278962
0.278378
0.277804
0.277245
0.276707
0.276192
0.275703
0.275241
0.274805
0.274397
0.274014
0.273657
0.273325
0.273015
0.272727
0.27246
0.272212
0.271983
0.271771
0.271574
0.271392
0.271224
0.271069
0.270926
0.270794
0.270672
0.270559
0.270455
0.270359
0.270271
0.270189
0.270114
0.270044
0.26998
0.269921
0.269866
0.269815
0.269767
0.269724
0.269683
0.269645
0.26961
0.269577
0.269546
0.269517
0.26949
0.269464
0.26944
0.269418
0.269396
0.269376
0.269356
0.269337
0.26932
0.269302
0.269286
0.26927
0.269254
0.269239
0.269225
0.26921
0.269196
0.269183
0.269169
0.269156
0.269143
0.26913
0.269117
0.269104
0.269091
0.269078
0.269065
0.269052
0.269039
0.269026
0.269013
0.268999
0.268986
0.268973
0.268959
0.268946
0.268933
0.268919
0.268906
0.268892
0.268878
0.268864
0.268851
0.268837
0.268823
0.268808
0.268794
0.26878
0.268765
0.26875
0.268735
0.26872
0.268705
0.26869
0.268674
0.268659
0.268643
0.268627
0.26861
0.268594
0.268577
0.26856
0.268543
0.268526
0.268508
0.268491
0.268473
0.268454
0.268436
0.268417
0.268398
0.268379
0.268359
0.268339
0.268319
0.268299
0.268278
0.268257
0.268236
0.268214
0.268192
0.26817
0.268147
0.268124
0.268101
0.268078
0.268053
0.268029
0.268004
0.267979
0.267953
0.267926
0.2679
0.267872
0.267843
0.267814
0.267784
0.267753
0.26772
0.267685
0.267647
0.267607
0.267562
0.267509
0.267444
0.267363
0.267265
0.0576268
0.129352
0.165127
0.189768
0.208613
0.223654
0.235919
0.246032
0.254415
0.261366
0.267112
0.271825
0.275647
0.278695
0.281069
0.282857
0.284139
0.284988
0.285468
0.285642
0.285563
0.285281
0.284841
0.284282
0.283638
0.282937
0.282204
0.281458
0.280715
0.279987
0.279283
0.278608
0.277968
0.277364
0.276798
0.276269
0.275777
0.27532
0.274897
0.274507
0.274146
0.273814
0.273508
0.273226
0.272967
0.272728
0.272509
0.272308
0.272124
0.271954
0.271798
0.271656
0.271525
0.271405
0.271294
0.271194
0.271101
0.271016
0.270938
0.270867
0.270802
0.270742
0.270687
0.270636
0.27059
0.270547
0.270508
0.270472
0.270439
0.270408
0.27038
0.270354
0.270329
0.270307
0.270286
0.270266
0.270248
0.270231
0.270215
0.2702
0.270186
0.270172
0.270159
0.270147
0.270136
0.270124
0.270114
0.270103
0.270093
0.270083
0.270074
0.270065
0.270056
0.270047
0.270038
0.27003
0.270021
0.270012
0.270004
0.269995
0.269987
0.269978
0.269969
0.269961
0.269952
0.269943
0.269935
0.269926
0.269917
0.269908
0.2699
0.269891
0.269882
0.269873
0.269864
0.269855
0.269846
0.269837
0.269827
0.269818
0.269809
0.269799
0.269789
0.26978
0.26977
0.26976
0.26975
0.26974
0.269729
0.269719
0.269708
0.269697
0.269687
0.269676
0.269664
0.269653
0.269642
0.26963
0.269618
0.269606
0.269594
0.269582
0.269569
0.269556
0.269543
0.26953
0.269517
0.269504
0.26949
0.269476
0.269462
0.269447
0.269433
0.269418
0.269403
0.269388
0.269372
0.269356
0.26934
0.269324
0.269307
0.26929
0.269273
0.269255
0.269237
0.269218
0.269199
0.26918
0.26916
0.269139
0.269117
0.269095
0.269071
0.269045
0.269018
0.268988
0.268954
0.268914
0.268865
0.268808
0.0589563
0.131785
0.168046
0.193046
0.212221
0.227575
0.240134
0.250524
0.25914
0.266281
0.272165
0.276963
0.280816
0.28384
0.286139
0.287804
0.288921
0.289566
0.289814
0.289732
0.28938
0.288817
0.288093
0.287253
0.286335
0.285373
0.284394
0.283421
0.282469
0.281552
0.280679
0.279855
0.279083
0.278365
0.277701
0.277087
0.276523
0.276006
0.275532
0.275098
0.274702
0.274339
0.274009
0.273707
0.273431
0.27318
0.27295
0.272741
0.27255
0.272375
0.272216
0.272071
0.271938
0.271817
0.271707
0.271607
0.271515
0.271431
0.271355
0.271285
0.271222
0.271164
0.271111
0.271063
0.271019
0.270979
0.270943
0.270909
0.270879
0.270851
0.270825
0.270802
0.270781
0.270761
0.270743
0.270726
0.27071
0.270696
0.270683
0.270671
0.270659
0.270648
0.270638
0.270629
0.27062
0.270612
0.270604
0.270596
0.270589
0.270582
0.270576
0.270569
0.270563
0.270557
0.270551
0.270545
0.27054
0.270534
0.270528
0.270523
0.270517
0.270512
0.270506
0.270501
0.270495
0.27049
0.270484
0.270479
0.270473
0.270468
0.270462
0.270456
0.270451
0.270445
0.27044
0.270434
0.270428
0.270422
0.270417
0.270411
0.270405
0.270399
0.270393
0.270387
0.27038
0.270374
0.270368
0.270361
0.270355
0.270348
0.270342
0.270335
0.270328
0.270321
0.270314
0.270307
0.270299
0.270292
0.270284
0.270277
0.270269
0.270261
0.270253
0.270245
0.270237
0.270228
0.27022
0.270211
0.270202
0.270193
0.270184
0.270175
0.270165
0.270156
0.270146
0.270136
0.270126
0.270116
0.270105
0.270094
0.270083
0.270072
0.270061
0.270049
0.270037
0.270025
0.270013
0.27
0.269986
0.269973
0.269958
0.269944
0.269928
0.269912
0.269894
0.269875
0.269855
0.269832
0.269805
0.269775
0.0608926
0.135329
0.172284
0.197775
0.217367
0.233089
0.245973
0.25664
0.265498
0.272832
0.278838
0.28368
0.287502
0.290428
0.292566
0.294015
0.294868
0.29521
0.295123
0.294683
0.29396
0.293019
0.291919
0.29071
0.289438
0.288141
0.286848
0.285586
0.284371
0.283218
0.282135
0.281126
0.280193
0.279335
0.27855
0.277834
0.277183
0.276591
0.276055
0.27557
0.27513
0.274732
0.274371
0.274045
0.273748
0.27348
0.273237
0.273016
0.272815
0.272633
0.272468
0.272318
0.272181
0.272057
0.271945
0.271842
0.27175
0.271665
0.271588
0.271519
0.271456
0.271398
0.271346
0.271298
0.271255
0.271216
0.271181
0.271148
0.271119
0.271092
0.271068
0.271046
0.271026
0.271007
0.270991
0.270975
0.270961
0.270949
0.270937
0.270926
0.270916
0.270907
0.270899
0.270891
0.270884
0.270877
0.270871
0.270865
0.270859
0.270854
0.270849
0.270844
0.27084
0.270835
0.270831
0.270827
0.270823
0.27082
0.270816
0.270812
0.270808
0.270805
0.270801
0.270798
0.270794
0.270791
0.270787
0.270784
0.27078
0.270777
0.270774
0.27077
0.270767
0.270763
0.27076
0.270756
0.270753
0.270749
0.270746
0.270742
0.270739
0.270735
0.270731
0.270728
0.270724
0.27072
0.270716
0.270712
0.270708
0.270704
0.2707
0.270696
0.270692
0.270688
0.270683
0.270679
0.270674
0.27067
0.270665
0.270661
0.270656
0.270651
0.270646
0.270641
0.270636
0.270631
0.270625
0.27062
0.270614
0.270609
0.270603
0.270597
0.270592
0.270586
0.270579
0.270573
0.270567
0.27056
0.270554
0.270547
0.27054
0.270533
0.270526
0.270519
0.270511
0.270503
0.270496
0.270487
0.270479
0.27047
0.270461
0.270452
0.270442
0.270432
0.270422
0.270411
0.2704
0.270388
0.270376
0.270364
0.0635617
0.140337
0.17825
0.204379
0.224469
0.240603
0.253827
0.264763
0.273819
0.281275
0.287339
0.292155
0.295856
0.298581
0.300449
0.301571
0.302048
0.301976
0.301446
0.300544
0.299349
0.297934
0.296366
0.294704
0.292999
0.291293
0.289621
0.28801
0.286481
0.285045
0.283712
0.282484
0.28136
0.280338
0.279413
0.278578
0.277826
0.27715
0.276542
0.275997
0.275508
0.275069
0.274674
0.274318
0.273998
0.27371
0.27345
0.273215
0.273003
0.272812
0.272638
0.272482
0.27234
0.272211
0.272094
0.271989
0.271893
0.271807
0.271728
0.271657
0.271592
0.271534
0.271481
0.271433
0.271389
0.27135
0.271314
0.271282
0.271252
0.271226
0.271202
0.27118
0.27116
0.271142
0.271126
0.271111
0.271097
0.271085
0.271074
0.271064
0.271054
0.271046
0.271038
0.271031
0.271025
0.271019
0.271013
0.271008
0.271003
0.270999
0.270995
0.270991
0.270987
0.270984
0.270981
0.270978
0.270975
0.270972
0.270969
0.270967
0.270964
0.270962
0.270959
0.270957
0.270954
0.270952
0.27095
0.270948
0.270946
0.270943
0.270941
0.270939
0.270937
0.270935
0.270933
0.270931
0.270928
0.270926
0.270924
0.270922
0.27092
0.270918
0.270915
0.270913
0.270911
0.270909
0.270906
0.270904
0.270902
0.270899
0.270897
0.270894
0.270892
0.270889
0.270887
0.270884
0.270881
0.270879
0.270876
0.270873
0.27087
0.270867
0.270865
0.270862
0.270858
0.270855
0.270852
0.270849
0.270846
0.270842
0.270839
0.270835
0.270832
0.270828
0.270825
0.270821
0.270817
0.270813
0.270809
0.270805
0.270801
0.270797
0.270792
0.270788
0.270783
0.270778
0.270774
0.270769
0.270764
0.270758
0.270753
0.270747
0.270742
0.270736
0.27073
0.270725
0.27072
0.270715
0.270712
0.27071
0.0671322
0.147134
0.186293
0.213183
0.233812
0.250342
0.263854
0.274985
0.284146
0.291618
0.297608
0.302272
0.305724
0.308121
0.309598
0.310276
0.310269
0.309682
0.308614
0.307161
0.30541
0.303443
0.301334
0.299149
0.296946
0.294773
0.292669
0.290662
0.288774
0.287019
0.285404
0.283929
0.282592
0.281387
0.280305
0.279338
0.278475
0.277706
0.277021
0.276411
0.275868
0.275384
0.274952
0.274565
0.27422
0.27391
0.273632
0.273382
0.273157
0.272955
0.272772
0.272608
0.272459
0.272325
0.272203
0.272093
0.271994
0.271904
0.271823
0.271749
0.271682
0.271622
0.271567
0.271518
0.271473
0.271432
0.271396
0.271362
0.271332
0.271305
0.27128
0.271258
0.271237
0.271219
0.271202
0.271187
0.271174
0.271161
0.27115
0.27114
0.27113
0.271122
0.271114
0.271107
0.271101
0.271095
0.27109
0.271085
0.27108
0.271076
0.271072
0.271069
0.271066
0.271063
0.27106
0.271057
0.271055
0.271052
0.27105
0.271048
0.271046
0.271044
0.271042
0.27104
0.271039
0.271037
0.271035
0.271034
0.271032
0.271031
0.271029
0.271028
0.271026
0.271025
0.271024
0.271022
0.271021
0.27102
0.271018
0.271017
0.271016
0.271014
0.271013
0.271012
0.27101
0.271009
0.271007
0.271006
0.271005
0.271003
0.271002
0.271
0.270999
0.270997
0.270996
0.270994
0.270993
0.270991
0.270989
0.270988
0.270986
0.270984
0.270983
0.270981
0.270979
0.270977
0.270975
0.270973
0.270971
0.27097
0.270968
0.270965
0.270963
0.270961
0.270959
0.270957
0.270955
0.270952
0.27095
0.270948
0.270945
0.270943
0.27094
0.270937
0.270935
0.270932
0.270929
0.270926
0.270923
0.27092
0.270917
0.270914
0.270911
0.270908
0.270905
0.270903
0.270902
0.270902
0.270904
0.270908
0.0723768
0.156335
0.196909
0.224593
0.245685
0.262474
0.276107
0.287254
0.296336
0.303641
0.309378
0.313703
0.316745
0.318677
0.319646
0.319783
0.319207
0.31803
0.31636
0.314296
0.311935
0.309366
0.306669
0.303917
0.301175
0.298494
0.29592
0.293483
0.291207
0.289105
0.287183
0.285442
0.283874
0.282472