/*--------------------------------*- C++ -*----------------------------------*\
  =========                 |
  \\      /  F ield         | OpenFOAM: The Open Source CFD Toolbox
   \\    /   O peration     | Website:  https://openfoam.org
    \\  /    A nd           | Version:  6
     \\/     M anipulation  |
\*---------------------------------------------------------------------------*/
FoamFile
{
    version     2.0;
    format      ascii;
    class       volScalarField;
    location    "0.01";
    object      nut;
}
// * * * * * * * * * * * * * * * * * * * * * * * * * * * * * * * * * * * * * //

dimensions      [0 2 -1 0 0 0 0];

internalField   nonuniform List<scalar> 
12225
(
1.77708e-05
1.427e-05
1.23661e-05
1.11891e-05
1.03814e-05
9.79651e-06
9.37443e-06
9.08534e-06
8.90076e-06
8.79391e-06
8.75201e-06
8.75416e-06
8.78854e-06
8.85073e-06
8.94391e-06
9.0807e-06
9.30897e-06
9.73013e-06
0.000144898
0.000102025
8.80801e-05
8.07144e-05
7.64081e-05
7.40218e-05
7.28479e-05
7.23774e-05
7.22824e-05
7.23388e-05
7.25192e-05
7.28401e-05
7.33302e-05
7.40469e-05
7.51129e-05
7.67525e-05
7.94522e-05
8.40783e-05
0.000323504
0.000224033
0.000190482
0.000173313
0.000163017
0.000156864
0.000153557
0.000152146
0.000151906
0.000152301
0.000153038
0.000154108
0.000155583
0.000157619
0.000160515
0.000164787
0.000171359
0.000181544
0.000494201
0.000355955
0.00030058
0.000271051
0.000252995
0.000241747
0.00023518
0.000231875
0.000230753
0.000230967
0.000231962
0.000233616
0.000235972
0.000239226
0.000243766
0.000250235
0.000259618
0.00027308
0.000624713
0.000479561
0.000408888
0.000368297
0.000342579
0.000325972
0.000315713
0.000310001
0.000307501
0.000307026
0.000307879
0.000309793
0.000312737
0.000316884
0.000322625
0.000330584
0.000341606
0.000356482
0.000713358
0.000584362
0.0005084
0.000460711
0.000429046
0.000407838
0.000394146
0.000386
0.000381913
0.000380443
0.000380842
0.00038271
0.000385924
0.000390597
0.000397057
0.000405827
0.000417532
0.000432606
0.000769593
0.000666716
0.000594557
0.00054476
0.000509864
0.000485573
0.00046928
0.000459101
0.000453474
0.000450949
0.000450725
0.000452317
0.000455519
0.000460366
0.000467093
0.000476081
0.000487731
0.000502206
0.000803786
0.000727604
0.000665251
0.000617964
0.000582859
0.000557415
0.000539735
0.000528262
0.000521381
0.000517918
0.000517043
0.000518224
0.000521196
0.000525917
0.000532519
0.000541237
0.000552281
0.000565634
0.000824018
0.000770445
0.000720482
0.000679052
0.000646445
0.000621817
0.000604122
0.000592114
0.000584552
0.000580441
0.000579013
0.000579745
0.000582344
0.000586705
0.000592869
0.000600944
0.000610996
0.000622898
0.000835782
0.000799376
0.000761714
0.000727914
0.000699774
0.000677629
0.000661102
0.000649461
0.000641847
0.000637468
0.000635677
0.000636006
0.000638163
0.00064201
0.000647515
0.000654693
0.00066351
0.000673789
0.000842551
0.00081826
0.000791245
0.000765355
0.000742679
0.000724098
0.00070974
0.000699289
0.000692222
0.000687977
0.000686061
0.00068609
0.000687807
0.000691064
0.000695786
0.000701928
0.0007094
0.00071801
0.000846106
0.00082924
0.000809887
0.000790547
0.000772967
0.000758099
0.000746288
0.000737472
0.000731362
0.000727594
0.000725812
0.000725728
0.000727132
0.000729886
0.000733904
0.00073911
0.000745394
0.000752578
0.000848271
0.000836446
0.000822941
0.000809146
0.000796262
0.000785075
0.000775964
0.000769001
0.000764066
0.00076095
0.000759431
0.000759309
0.000760432
0.000762688
0.000765994
0.000770266
0.000775393
0.000781217
0.000849676
0.000841443
0.000832578
0.000823634
0.000815213
0.000807778
0.000801598
0.000796771
0.000793276
0.000791029
0.000789923
0.000789852
0.000790728
0.000792477
0.000795034
0.000798326
0.000802256
0.000806695
0.000850503
0.00084455
0.000838923
0.000833683
0.000828948
0.00082483
0.0008214
0.00081869
0.000816704
0.000815426
0.000814833
0.000814897
0.00081559
0.000816882
0.000818736
0.000821103
0.00082391
0.000827064
0.000850933
0.000846237
0.000842538
0.000839681
0.000837495
0.000835818
0.000834527
0.00083355
0.000832857
0.000832452
0.000832351
0.000832576
0.000833144
0.000834063
0.000835325
0.000836908
0.000838767
0.000840844
0.000851122
0.000846997
0.000844227
0.000842592
0.00084179
0.000841509
0.000841498
0.000841596
0.000841728
0.000841886
0.000842097
0.000842403
0.000842845
0.000843452
0.000844241
0.000845207
0.000846332
0.000847582
0.000851179
0.000847231
0.000844758
0.000843525
0.000843187
0.000843378
0.000843792
0.000844229
0.000844591
0.000844859
0.000845059
0.000845241
0.00084545
0.000845726
0.000846092
0.000846557
0.000847113
0.000847743
0.000851151
0.000847112
0.000844478
0.000843002
0.000842336
0.000842122
0.000842074
0.000842013
0.000841863
0.00084162
0.000841318
0.000841006
0.000840728
0.000840515
0.000840385
0.000840343
0.00084038
0.000840482
0.000850951
0.000846298
0.000842628
0.000839711
0.000837288
0.000835131
0.0008331
0.000831142
0.000829269
0.00082752
0.00082594
0.000824555
0.000823378
0.000822403
0.000821611
0.000820977
0.000820469
0.000820053
0.000850372
0.000844039
0.000837767
0.000831547
0.00082544
0.000819546
0.000813995
0.000808918
0.000804417
0.00080054
0.000797284
0.000794601
0.000792422
0.000790663
0.000789241
0.00078808
0.000787113
0.000786278
0.000848765
0.000838186
0.000826099
0.000813347
0.000800728
0.000788856
0.000778162
0.000768896
0.000761134
0.000754815
0.000749781
0.000745827
0.000742742
0.000740326
0.000738411
0.000736856
0.000735552
0.000734413
0.000844578
0.000824533
0.000801573
0.000778457
0.000756879
0.00073774
0.000721447
0.000708066
0.000697414
0.00068915
0.000682856
0.000678112
0.000674537
0.000671815
0.000669694
0.000667982
0.000666538
0.000665259
0.00083414
0.000795492
0.000755802
0.000719868
0.00068911
0.000663669
0.000643242
0.000627308
0.000615207
0.000606222
0.000599651
0.000594876
0.000591388
0.000588791
0.00058679
0.000585173
0.000583788
0.000582537
0.000809291
0.000739462
0.000679929
0.000632937
0.000596387
0.000568195
0.000546782
0.000530868
0.00051931
0.000511076
0.000505282
0.00050121
0.000498314
0.000496191
0.000494559
0.000493221
0.000492045
0.000490947
0.000753805
0.000643129
0.000568989
0.000518491
0.000482629
0.000456655
0.000437908
0.000424609
0.00041537
0.00040906
0.000404786
0.000401875
0.000399845
0.000398366
0.000397214
0.000396241
0.000395348
0.000394477
0.00064155
0.000499443
0.000427218
0.000384279
0.000355959
0.000336508
0.000323141
0.00031412
0.00030816
0.000304274
0.000301741
0.000300061
0.000298901
0.000298046
0.000297356
0.000296742
0.000296147
0.000295532
0.000448625
0.000320366
0.000270483
0.000243438
0.00022642
0.000215293
0.000208089
0.00020354
0.000200718
0.000198966
0.000197857
0.000197127
0.000196617
0.000196227
0.000195896
0.000195583
0.000195259
0.000194902
0.000203098
0.000143538
0.000122894
0.000111449
0.000104451
0.000100259
9.78199e-05
9.6401e-05
9.55367e-05
9.49742e-05
9.45924e-05
9.43297e-05
9.41455e-05
9.40101e-05
9.39012e-05
9.38018e-05
9.36984e-05
9.35748e-05
2.40285e-05
1.96326e-05
1.71048e-05
1.54652e-05
1.43013e-05
1.34348e-05
1.27832e-05
1.23027e-05
1.19592e-05
1.172e-05
1.15556e-05
1.14427e-05
1.1364e-05
1.13076e-05
1.12653e-05
1.12317e-05
1.12033e-05
1.11777e-05
7.23415e-06
2.31318e-05
2.60447e-05
2.80658e-05
2.9545e-05
3.06893e-05
3.15596e-05
3.22408e-05
3.27761e-05
3.31957e-05
3.35227e-05
3.37751e-05
3.39677e-05
3.41124e-05
3.4219e-05
3.42956e-05
3.43488e-05
3.43838e-05
3.44046e-05
3.44146e-05
3.44162e-05
3.4411e-05
3.44005e-05
3.43857e-05
3.43672e-05
3.43455e-05
3.4321e-05
3.42941e-05
3.42649e-05
3.42336e-05
3.42005e-05
3.41657e-05
3.41294e-05
3.40917e-05
3.40528e-05
3.4013e-05
3.39722e-05
3.39308e-05
3.38887e-05
3.38462e-05
3.38034e-05
3.37603e-05
3.37171e-05
3.36739e-05
3.36308e-05
3.35877e-05
3.35449e-05
3.35023e-05
3.34599e-05
3.34178e-05
3.33761e-05
3.33347e-05
3.32936e-05
3.3253e-05
3.32127e-05
3.31727e-05
3.31331e-05
3.30939e-05
3.3055e-05
3.30165e-05
3.29782e-05
3.29403e-05
3.29026e-05
3.28652e-05
3.28281e-05
3.27912e-05
3.27545e-05
3.2718e-05
3.26817e-05
3.26455e-05
3.26095e-05
3.25736e-05
3.25377e-05
3.2502e-05
3.24664e-05
3.24308e-05
3.23953e-05
3.23598e-05
3.23243e-05
3.22887e-05
3.22532e-05
3.22177e-05
3.21821e-05
3.21464e-05
3.21107e-05
3.20749e-05
3.2039e-05
3.2003e-05
3.19668e-05
3.19306e-05
3.18942e-05
3.18577e-05
3.1821e-05
3.17842e-05
3.17472e-05
3.171e-05
3.16726e-05
3.1635e-05
3.15972e-05
3.15593e-05
3.15216e-05
3.14838e-05
3.14458e-05
3.14075e-05
3.1369e-05
3.13302e-05
3.12911e-05
3.12518e-05
3.12121e-05
3.11723e-05
3.11321e-05
3.10917e-05
3.10509e-05
3.10099e-05
3.09687e-05
3.09271e-05
3.08852e-05
3.08431e-05
3.08006e-05
3.07578e-05
3.07147e-05
3.06714e-05
3.06277e-05
3.05837e-05
3.05394e-05
3.04947e-05
3.04498e-05
3.04045e-05
3.03589e-05
3.0313e-05
3.02667e-05
3.02201e-05
3.01732e-05
3.01259e-05
3.00782e-05
3.00302e-05
2.99819e-05
2.99332e-05
2.98841e-05
2.98346e-05
2.97848e-05
2.97345e-05
2.9684e-05
2.9633e-05
2.95817e-05
2.953e-05
2.94779e-05
2.94254e-05
2.93725e-05
2.93193e-05
2.92656e-05
2.92116e-05
2.91571e-05
2.91023e-05
2.9047e-05
2.89913e-05
2.89352e-05
2.88787e-05
2.88217e-05
2.87643e-05
2.87064e-05
2.86481e-05
2.85893e-05
2.85299e-05
2.847e-05
2.84096e-05
2.83485e-05
2.82867e-05
2.82241e-05
2.81606e-05
2.80961e-05
2.80302e-05
2.79626e-05
2.78927e-05
2.78192e-05
2.77399e-05
2.76498e-05
2.75357e-05
2.73669e-05
2.70682e-05
1.016e-05
7.32597e-05
0.000117183
0.000148017
0.00017137
0.000189733
0.000204417
0.00021623
0.000225725
0.000233315
0.000239325
0.000244021
0.00024763
0.000250344
0.000252331
0.000253731
0.000254663
0.000255226
0.000255502
0.000255554
0.000255434
0.000255181
0.000254827
0.000254394
0.0002539
0.000253359
0.000252779
0.00025217
0.000251536
0.000250884
0.000250217
0.000249539
0.000248853
0.000248161
0.000247467
0.000246772
0.000246079
0.000245389
0.000244705
0.000244027
0.000243358
0.000242698
0.000242048
0.00024141
0.000240784
0.000240171
0.000239571
0.000238985
0.000238412
0.000237854
0.00023731
0.000236779
0.000236263
0.000235761
0.000235272
0.000234797
0.000234334
0.000233885
0.000233448
0.000233023
0.00023261
0.000232208
0.000231817
0.000231436
0.000231066
0.000230705
0.000230353
0.000230011
0.000229677
0.00022935
0.000229032
0.000228721
0.000228417
0.000228119
0.000227828
0.000227543
0.000227263
0.000226988
0.000226719
0.000226454
0.000226194
0.000225937
0.000225685
0.000225436
0.00022519
0.000224948
0.000224708
0.000224471
0.000224237
0.000224004
0.000223774
0.000223545
0.000223319
0.000223093
0.000222869
0.000222647
0.000222425
0.000222204
0.000221984
0.000221762
0.000221535
0.000221305
0.000221075
0.000220845
0.000220616
0.000220387
0.000220159
0.000219931
0.000219704
0.000219477
0.00021925
0.000219023
0.000218795
0.000218568
0.00021834
0.000218112
0.000217883
0.000217654
0.000217424
0.000217193
0.000216961
0.000216729
0.000216495
0.000216261
0.000216026
0.000215789
0.000215551
0.000215312
0.000215072
0.000214831
0.000214588
0.000214343
0.000214097
0.000213849
0.000213599
0.000213347
0.000213093
0.000212838
0.00021258
0.000212321
0.00021206
0.000211796
0.000211531
0.000211264
0.000210995
0.000210724
0.000210451
0.000210176
0.000209899
0.00020962
0.000209339
0.000209055
0.00020877
0.000208482
0.000208191
0.000207899
0.000207603
0.000207306
0.000207005
0.000206702
0.000206395
0.000206086
0.000205773
0.000205456
0.000205135
0.000204808
0.000204477
0.000204138
0.000203791
0.000203434
0.000203063
0.000202674
0.00020226
0.000201807
0.000201292
0.000200663
0.000199795
0.000198392
0.000195575
0.000190021
1.1495e-05
9.3042e-05
0.000161532
0.00021469
0.00025768
0.000293214
0.000322838
0.000347548
0.000368065
0.000384964
0.000398737
0.000409821
0.000418609
0.000425461
0.000430697
0.000434603
0.000437429
0.000439388
0.000440658
0.000441388
0.000441696
0.000441679
0.000441409
0.000440945
0.000440331
0.000439602
0.000438783
0.000437894
0.00043695
0.000435963
0.000434944
0.0004339
0.000432838
0.000431763
0.000430681
0.000429596
0.000428511
0.000427431
0.000426357
0.000425293
0.000424242
0.000423205
0.000422184
0.00042118
0.000420196
0.000419231
0.000418288
0.000417365
0.000416465
0.000415587
0.000414731
0.000413897
0.000413086
0.000412297
0.000411529
0.000410783
0.000410057
0.000409352
0.000408667
0.000408001
0.000407354
0.000406725
0.000406113
0.000405517
0.000404938
0.000404375
0.000403826
0.000403291
0.00040277
0.000402262
0.000401766
0.000401282
0.000400809
0.000400347
0.000399894
0.000399451
0.000399017
0.000398591
0.000398173
0.000397763
0.00039736
0.000396963
0.000396573
0.000396188
0.000395809
0.000395434
0.000395064
0.000394698
0.000394337
0.000393978
0.000393623
0.000393271
0.000392922
0.000392575
0.00039223
0.000391887
0.000391545
0.000391205
0.000390866
0.000390527
0.000390182
0.000389833
0.000389483
0.000389132
0.000388781
0.000388431
0.000388081
0.000387732
0.000387383
0.000387034
0.000386685
0.000386337
0.000385988
0.000385638
0.000385289
0.000384938
0.000384586
0.000384234
0.00038388
0.000383526
0.000383169
0.000382812
0.000382453
0.000382092
0.00038173
0.000381365
0.000380999
0.000380631
0.000380261
0.000379889
0.000379514
0.000379137
0.000378758
0.000378375
0.00037799
0.000377602
0.000377211
0.000376816
0.000376419
0.000376019
0.000375615
0.000375208
0.000374799
0.000374386
0.00037397
0.00037355
0.000373128
0.000372702
0.000372273
0.000371841
0.000371405
0.000370966
0.000370523
0.000370076
0.000369626
0.000369172
0.000368714
0.000368251
0.000367784
0.000367313
0.000366836
0.000366355
0.000365867
0.000365374
0.000364873
0.000364364
0.000363846
0.000363317
0.000362774
0.000362213
0.000361631
0.000361019
0.000360365
0.00035965
0.000358836
0.000357849
0.000356517
0.000354451
0.000350665
0.000343753
1.2204e-05
0.000103324
0.000185956
0.000253173
0.000309498
0.000357456
0.00039849
0.000433532
0.000463268
0.000488272
0.000509064
0.000526134
0.00053995
0.000550961
0.000559586
0.00056621
0.000571182
0.000574806
0.000577346
0.000579024
0.000580024
0.000580494
0.000580554
0.000580297
0.000579797
0.00057911
0.00057828
0.00057734
0.000576316
0.000575228
0.000574092
0.000572919
0.00057172
0.000570504
0.000569277
0.000568045
0.000566813
0.000565585
0.000564366
0.000563157
0.000561963
0.000560785
0.000559626
0.000558487
0.00055737
0.000556276
0.000555205
0.000554159
0.000553138
0.000552142
0.000551172
0.000550226
0.000549306
0.000548411
0.00054754
0.000546693
0.00054587
0.00054507
0.000544292
0.000543536
0.0005428
0.000542085
0.000541389
0.000540712
0.000540053
0.000539412
0.000538787
0.000538177
0.000537583
0.000537003
0.000536437
0.000535884
0.000535343
0.000534814
0.000534296
0.000533789
0.000533291
0.000532802
0.000532323
0.000531851
0.000531388
0.000530931
0.000530481
0.000530038
0.0005296
0.000529168
0.00052874
0.000528317
0.000527899
0.000527484
0.000527072
0.000526664
0.000526258
0.000525855
0.000525454
0.000525055
0.000524657
0.000524261
0.000523866
0.000523467
0.000523065
0.000522659
0.000522252
0.000521843
0.000521433
0.000521023
0.000520614
0.000520205
0.000519796
0.000519386
0.000518977
0.000518567
0.000518157
0.000517746
0.000517334
0.000516921
0.000516507
0.000516091
0.000515674
0.000515255
0.000514835
0.000514412
0.000513988
0.000513561
0.000513132
0.000512701
0.000512267
0.000511831
0.000511392
0.00051095
0.000510506
0.000510058
0.000509607
0.000509153
0.000508695
0.000508233
0.000507768
0.000507299
0.000506826
0.000506349
0.000505868
0.000505383
0.000504895
0.000504402
0.000503905
0.000503405
0.0005029
0.000502391
0.000501878
0.000501361
0.000500839
0.000500313
0.000499782
0.000499247
0.000498707
0.000498162
0.000497612
0.000497056
0.000496496
0.000495929
0.000495356
0.000494777
0.00049419
0.000493595
0.000492992
0.000492379
0.000491754
0.000491115
0.00049046
0.000489784
0.000489081
0.000488342
0.000487553
0.000486691
0.000485716
0.000484543
0.000482997
0.000480693
0.000476791
0.000470269
1.26101e-05
0.000109328
0.000200319
0.000276184
0.000341095
0.000397418
0.000446462
0.00048904
0.000525743
0.000557077
0.000583521
0.000605553
0.000623655
0.000638309
0.00064998
0.000659114
0.000666122
0.000671375
0.000675199
0.000677875
0.00067964
0.000680689
0.00068118
0.00068124
0.000680969
0.000680445
0.000679729
0.000678868
0.000677897
0.000676845
0.000675732
0.000674575
0.000673388
0.000672181
0.000670962
0.000669738
0.000668515
0.000667298
0.00066609
0.000664896
0.000663716
0.000662555
0.000661414
0.000660294
0.000659197
0.000658124
0.000657075
0.000656051
0.000655052
0.000654079
0.000653131
0.000652208
0.000651311
0.000650438
0.000649589
0.000648764
0.000647962
0.000647182
0.000646424
0.000645687
0.000644971
0.000644274
0.000643596
0.000642936
0.000642294
0.000641668
0.000641058
0.000640463
0.000639882
0.000639315
0.000638761
0.00063822
0.00063769
0.000637172
0.000636663
0.000636165
0.000635676
0.000635196
0.000634724
0.000634259
0.000633802
0.000633351
0.000632907
0.000632468
0.000632035
0.000631607
0.000631183
0.000630763
0.000630347
0.000629934
0.000629524
0.000629117
0.000628712
0.00062831
0.000627909
0.000627509
0.000627111
0.000626713
0.000626316
0.000625914
0.000625509
0.000625101
0.00062469
0.000624278
0.000623866
0.000623452
0.000623039
0.000622625
0.000622211
0.000621796
0.000621381
0.000620966
0.000620549
0.000620132
0.000619713
0.000619293
0.000618872
0.000618448
0.000618023
0.000617596
0.000617167
0.000616735
0.000616302
0.000615865
0.000615427
0.000614985
0.000614541
0.000614094
0.000613643
0.00061319
0.000612733
0.000612273
0.00061181
0.000611342
0.000610871
0.000610395
0.000609916
0.000609432
0.000608945
0.000608452
0.000607956
0.000607455
0.00060695
0.00060644
0.000605926
0.000605408
0.000604885
0.000604357
0.000603825
0.000603287
0.000602745
0.000602198
0.000601646
0.000601089
0.000600526
0.000599958
0.000599384
0.000598805
0.000598219
0.000597627
0.000597028
0.000596421
0.000595807
0.000595184
0.000594552
0.000593909
0.000593253
0.000592583
0.000591894
0.000591183
0.000590444
0.000589668
0.000588839
0.000587936
0.000586918
0.000585705
0.000584136
0.000581881
0.000578296
0.000572723
1.28541e-05
0.000112955
0.000208899
0.000289965
0.000360184
0.000421838
0.000476147
0.000523825
0.000565378
0.000601234
0.000631817
0.00065757
0.000678959
0.000696467
0.000710576
0.000721761
0.000730467
0.000737107
0.000742048
0.000745613
0.000748078
0.000749672
0.000750586
0.000750973
0.000750955
0.000750629
0.00075007
0.000749337
0.000748475
0.000747518
0.000746493
0.000745421
0.000744318
0.000743195
0.000742062
0.000740928
0.000739797
0.000738675
0.000737565
0.000736471
0.000735394
0.000734338
0.000733303
0.00073229
0.0007313
0.000730335
0.000729394
0.000728478
0.000727586
0.000726718
0.000725875
0.000725056
0.00072426
0.000723487
0.000722737
0.000722008
0.000721301
0.000720614
0.000719947
0.000719298
0.000718668
0.000718056
0.00071746
0.000716881
0.000716317
0.000715767
0.000715232
0.00071471
0.0007142
0.000713702
0.000713216
0.00071274
0.000712274
0.000711818
0.000711371
0.000710932
0.000710502
0.000710078
0.000709662
0.000709252
0.000708848
0.000708449
0.000708056
0.000707667
0.000707283
0.000706903
0.000706527
0.000706153
0.000705783
0.000705415
0.00070505
0.000704687
0.000704326
0.000703966
0.000703607
0.000703249
0.000702892
0.000702534
0.000702176
0.000701813
0.000701447
0.000701078
0.000700707
0.000700335
0.000699962
0.000699588
0.000699213
0.000698838
0.000698462
0.000698085
0.000697708
0.00069733
0.000696951
0.00069657
0.000696189
0.000695805
0.000695421
0.000695034
0.000694645
0.000694254
0.000693861
0.000693466
0.000693068
0.000692667
0.000692264
0.000691858
0.00069145
0.000691038
0.000690623
0.000690205
0.000689784
0.000689359
0.00068893
0.000688498
0.000688062
0.000687622
0.000687178
0.000686729
0.000686277
0.00068582
0.000685359
0.000684893
0.000684423
0.000683949
0.000683469
0.000682986
0.000682498
0.000682005
0.000681507
0.000681004
0.000680497
0.000679984
0.000679466
0.000678943
0.000678415
0.00067788
0.000677341
0.000676795
0.000676243
0.000675684
0.000675119
0.000674546
0.000673965
0.000673376
0.000672777
0.000672167
0.000671545
0.000670909
0.000670255
0.000669579
0.000668877
0.000668138
0.000667351
0.000666494
0.00066553
0.000664392
0.000662946
0.000660931
0.000657886
0.000653422
1.30077e-05
0.000115236
0.000214156
0.000298326
0.000371741
0.000436658
0.000494244
0.000545157
0.00058984
0.000628669
0.000662022
0.00069031
0.000713978
0.000733498
0.000749357
0.000762037
0.000772003
0.000779687
0.000785483
0.000789737
0.000792751
0.00079478
0.000796034
0.000796687
0.000796878
0.000796719
0.000796296
0.000795679
0.000794918
0.000794056
0.000793123
0.000792144
0.000791135
0.000790111
0.000789082
0.000788056
0.000787039
0.000786036
0.00078505
0.000784084
0.000783139
0.000782217
0.000781318
0.000780444
0.000779594
0.000778769
0.000777969
0.000777192
0.00077644
0.000775712
0.000775006
0.000774323
0.000773661
0.000773021
0.000772401
0.000771801
0.000771219
0.000770656
0.00077011
0.000769581
0.000769067
0.000768569
0.000768085
0.000767615
0.000767157
0.000766712
0.000766279
0.000765857
0.000765445
0.000765043
0.000764651
0.000764267
0.000763892
0.000763524
0.000763163
0.000762809
0.000762462
0.00076212
0.000761784
0.000761453
0.000761126
0.000760804
0.000760486
0.000760171
0.00075986
0.000759552
0.000759247
0.000758944
0.000758643
0.000758344
0.000758047
0.000757751
0.000757457
0.000757163
0.00075687
0.000756577
0.000756285
0.000755992
0.000755696
0.000755397
0.000755095
0.000754791
0.000754485
0.000754178
0.000753869
0.00075356
0.00075325
0.000752939
0.000752627
0.000752315
0.000752002
0.000751688
0.000751372
0.000751056
0.000750738
0.000750418
0.000750097
0.000749774
0.000749449
0.000749122
0.000748793
0.000748462
0.000748129
0.000747792
0.000747454
0.000747113
0.000746769
0.000746422
0.000746073
0.00074572
0.000745364
0.000745005
0.000744643
0.000744277
0.000743908
0.000743535
0.000743158
0.000742777
0.000742393
0.000742004
0.000741612
0.000741215
0.000740814
0.000740409
0.00074
0.000739586
0.000739168
0.000738746
0.000738319
0.000737888
0.000737452
0.000737011
0.000736565
0.000736114
0.000735659
0.000735198
0.000734731
0.000734259
0.000733781
0.000733297
0.000732806
0.000732309
0.000731804
0.000731291
0.00073077
0.000730238
0.000729696
0.000729139
0.000728568
0.000727977
0.000727361
0.000726714
0.000726025
0.000725275
0.000724435
0.00072345
0.000722217
0.000720544
0.000718122
0.000714736
1.31163e-05
0.000116856
0.000217714
0.000303821
0.00037919
0.000446078
0.000505633
0.000558484
0.000605046
0.000645667
0.000680702
0.000710544
0.000735625
0.000756412
0.000773388
0.000787038
0.000797832
0.000806211
0.000812581
0.000817301
0.000820685
0.000823003
0.00082448
0.000825302
0.000825621
0.000825558
0.000825211
0.000824654
0.000823947
0.000823136
0.000822256
0.000821332
0.000820386
0.000819432
0.00081848
0.00081754
0.000816616
0.000815713
0.000814834
0.000813981
0.000813154
0.000812354
0.000811581
0.000810836
0.000810117
0.000809425
0.000808758
0.000808116
0.000807499
0.000806904
0.000806332
0.000805782
0.000805251
0.000804741
0.00080425
0.000803776
0.000803319
0.000802879
0.000802454
0.000802043
0.000801646
0.000801262
0.000800891
0.000800531
0.000800182
0.000799843
0.000799514
0.000799194
0.000798882
0.000798579
0.000798283
0.000797994
0.000797711
0.000797435
0.000797164
0.000796899
0.000796638
0.000796382
0.00079613
0.000795882
0.000795638
0.000795396
0.000795158
0.000794922
0.000794689
0.000794458
0.000794229
0.000794002
0.000793776
0.000793551
0.000793328
0.000793106
0.000792884
0.000792663
0.000792442
0.000792221
0.000791999
0.000791777
0.000791552
0.000791325
0.000791095
0.000790863
0.00079063
0.000790395
0.00079016
0.000789924
0.000789687
0.000789449
0.00078921
0.000788971
0.000788731
0.00078849
0.000788247
0.000788004
0.000787759
0.000787513
0.000787266
0.000787016
0.000786766
0.000786513
0.000786258
0.000786002
0.000785743
0.000785483
0.00078522
0.000784954
0.000784687
0.000784417
0.000784144
0.000783869
0.000783592
0.000783311
0.000783027
0.000782741
0.000782451
0.000782159
0.000781863
0.000781563
0.000781261
0.000780955
0.000780645
0.000780332
0.000780016
0.000779695
0.000779371
0.000779044
0.000778712
0.000778377
0.000778037
0.000777694
0.000777346
0.000776995
0.000776639
0.000776279
0.000775914
0.000775544
0.00077517
0.000774791
0.000774407
0.000774017
0.000773622
0.000773221
0.000772813
0.000772398
0.000771976
0.000771545
0.000771105
0.000770653
0.000770188
0.000769707
0.000769206
0.000768678
0.000768116
0.000767505
0.000766823
0.000766028
0.000765047
0.000763746
0.000761929
0.000759488
1.32104e-05
0.000118308
0.000220701
0.000308208
0.000384886
0.000453009
0.00051373
0.000567677
0.00061526
0.000656831
0.000692746
0.0007234
0.000749226
0.000770692
0.00078828
0.000802474
0.000813742
0.000822527
0.000829233
0.000834223
0.000837816
0.000840288
0.000841871
0.00084276
0.000843113
0.000843062
0.00084271
0.00084214
0.000841416
0.00084059
0.000839699
0.000838773
0.000837833
0.000836895
0.000835971
0.000835068
0.000834193
0.000833348
0.000832535
0.000831756
0.00083101
0.000830297
0.000829617
0.000828968
0.00082835
0.00082776
0.000827199
0.000826663
0.000826153
0.000825667
0.000825203
0.000824761
0.000824339
0.000823936
0.00082355
0.000823182
0.000822829
0.000822492
0.000822168
0.000821858
0.000821559
0.000821273
0.000820997
0.000820731
0.000820474
0.000820226
0.000819987
0.000819755
0.00081953
0.000819311
0.000819099
0.000818892
0.000818691
0.000818494
0.000818302
0.000818114
0.00081793
0.000817749
0.000817572
0.000817397
0.000817225
0.000817056
0.000816889
0.000816723
0.00081656
0.000816398
0.000816237
0.000816078
0.000815919
0.000815762
0.000815605
0.000815449
0.000815293
0.000815138
0.000814983
0.000814827
0.000814671
0.000814514
0.000814355
0.000814193
0.00081403
0.000813866
0.0008137
0.000813534
0.000813366
0.000813198
0.00081303
0.00081286
0.00081269
0.000812519
0.000812348
0.000812175
0.000812002
0.000811827
0.000811652
0.000811475
0.000811297
0.000811118
0.000810938
0.000810756
0.000810572
0.000810387
0.0008102
0.000810012
0.000809821
0.000809629
0.000809435
0.000809239
0.000809041
0.000808841
0.000808638
0.000808434
0.000808227
0.000808018
0.000807806
0.000807591
0.000807375
0.000807155
0.000806933
0.000806708
0.00080648
0.000806249
0.000806015
0.000805779
0.000805539
0.000805297
0.000805051
0.000804802
0.00080455
0.000804294
0.000804036
0.000803774
0.000803508
0.000803238
0.000802965
0.000802689
0.000802408
0.000802123
0.000801834
0.000801541
0.000801243
0.00080094
0.000800631
0.000800317
0.000799997
0.00079967
0.000799336
0.000798992
0.000798637
0.00079827
0.000797887
0.000797484
0.000797054
0.000796588
0.000796068
0.000795466
0.000794733
0.000793781
0.00079249
0.000790814
1.33134e-05
0.00011997
0.000223926
0.000312695
0.000390401
0.000459358
0.000520747
0.000575222
0.000623225
0.000665136
0.000701343
0.000732262
0.000758344
0.000780065
0.000797907
0.000812349
0.000823852
0.000832849
0.000839735
0.000844867
0.000848561
0.000851091
0.000852693
0.000853566
0.000853875
0.000853757
0.000853324
0.000852664
0.00085185
0.000850936
0.000849965
0.000848968
0.00084797
0.000846988
0.000846033
0.000845112
0.000844232
0.000843395
0.000842601
0.00084185
0.000841142
0.000840474
0.000839845
0.000839254
0.000838697
0.000838174
0.000837681
0.000837217
0.000836781
0.000836369
0.000835982
0.000835616
0.000835271
0.000834945
0.000834637
0.000834346
0.00083407
0.000833808
0.000833559
0.000833323
0.000833098
0.000832884
0.00083268
0.000832485
0.000832298
0.000832119
0.000831947
0.000831782
0.000831623
0.00083147
0.000831321
0.000831178
0.000831039
0.000830904
0.000830772
0.000830644
0.00083052
0.000830397
0.000830278
0.000830161
0.000830046
0.000829932
0.000829821
0.000829711
0.000829602
0.000829495
0.000829388
0.000829283
0.000829178
0.000829074
0.00082897
0.000828867
0.000828764
0.000828661
0.000828559
0.000828456
0.000828353
0.000828248
0.000828142
0.000828034
0.000827926
0.000827816
0.000827706
0.000827595
0.000827483
0.000827371
0.000827258
0.000827145
0.000827031
0.000826916
0.000826801
0.000826686
0.000826569
0.000826452
0.000826334
0.000826215
0.000826095
0.000825974
0.000825852
0.000825729
0.000825605
0.000825479
0.000825353
0.000825225
0.000825095
0.000824965
0.000824832
0.000824699
0.000824564
0.000824427
0.000824288
0.000824148
0.000824006
0.000823863
0.000823717
0.00082357
0.00082342
0.000823269
0.000823115
0.00082296
0.000822802
0.000822642
0.00082248
0.000822316
0.000822149
0.00082198
0.000821809
0.000821635
0.000821459
0.00082128
0.000821099
0.000820915
0.000820728
0.000820539
0.000820347
0.000820151
0.000819953
0.000819752
0.000819547
0.000819339
0.000819127
0.000818912
0.000818692
0.000818468
0.000818239
0.000818006
0.000817766
0.000817519
0.000817264
0.000817
0.000816725
0.000816434
0.000816124
0.000815788
0.000815415
0.000814986
0.000814468
0.000813809
0.000812939
0.000811843
1.34621e-05
0.00012208
0.000227903
0.000318042
0.000396661
0.000466172
0.00052783
0.000582364
0.000630281
0.000672032
0.000708062
0.000738834
0.000764828
0.000786529
0.000804418
0.00081896
0.000830597
0.000839738
0.00084676
0.000852003
0.000855772
0.000858334
0.000859923
0.000860741
0.000860959
0.000860722
0.000860149
0.000859339
0.000858369
0.000857302
0.000856185
0.000855055
0.000853938
0.000852852
0.000851809
0.000850819
0.000849884
0.000849006
0.000848186
0.000847421
0.000846709
0.000846047
0.000845432
0.000844862
0.000844332
0.00084384
0.000843383
0.000842959
0.000842565
0.000842198
0.000841856
0.000841538
0.000841241
0.000840964
0.000840706
0.000840464
0.000840238
0.000840026
0.000839827
0.000839641
0.000839465
0.0008393
0.000839144
0.000838997
0.000838858
0.000838726
0.0008386
0.000838481
0.000838368
0.000838259
0.000838155
0.000838056
0.00083796
0.000837868
0.000837779
0.000837693
0.00083761
0.000837529
0.00083745
0.000837373
0.000837299
0.000837225
0.000837153
0.000837083
0.000837013
0.000836945
0.000836877
0.00083681
0.000836744
0.000836678
0.000836612
0.000836547
0.000836483
0.000836418
0.000836354
0.000836289
0.000836224
0.000836158
0.000836091
0.000836023
0.000835955
0.000835885
0.000835816
0.000835746
0.000835675
0.000835604
0.000835533
0.000835461
0.000835389
0.000835317
0.000835244
0.00083517
0.000835096
0.000835022
0.000834947
0.000834871
0.000834795
0.000834718
0.00083464
0.000834561
0.000834482
0.000834401
0.00083432
0.000834238
0.000834155