/*--------------------------------*- C++ -*----------------------------------*\
  =========                 |
  \\      /  F ield         | OpenFOAM: The Open Source CFD Toolbox
   \\    /   O peration     | Website:  https://openfoam.org
    \\  /    A nd           | Version:  6
     \\/     M anipulation  |
\*---------------------------------------------------------------------------*/
FoamFile
{
    version     2.0;
    format      ascii;
    class       volScalarField;
    location    "0.01";
    object      p;
}
// * * * * * * * * * * * * * * * * * * * * * * * * * * * * * * * * * * * * * //

dimensions      [0 2 -2 0 0 0 0];

internalField   nonuniform List<scalar> 
12225
(
0.393898
0.140875
0.0621066
0.0506781
0.0444733
0.0371808
0.0310532
0.02548
0.0194916
0.0126119
0.00446126
-0.00538493
-0.017632
-0.0333987
-0.0547506
-0.0858782
-0.138916
-0.24563
0.00968874
0.0409689
0.0417596
0.0475719
0.0457032
0.0393164
0.0328907
0.0266555
0.0199592
0.0124623
0.00381287
-0.00651373
-0.0192941
-0.0356785
-0.057813
-0.0894816
-0.141238
-0.224231
-0.0245499
0.0456353
0.0464866
0.0482705
0.0465824
0.0408644
0.034449
0.0277678
0.0204543
0.0123215
0.00306196
-0.00787001
-0.0212774
-0.0383138
-0.0610391
-0.0925441
-0.140149
-0.206427
0.0205664
0.0584858
0.0497563
0.0481235
0.0464564
0.0414098
0.0352695
0.0284736
0.020832
0.0122835
0.00259341
-0.00874777
-0.0225101
-0.0397626
-0.0622589
-0.0922068
-0.133961
-0.186616
0.0405141
0.0582647
0.0492522
0.0473594
0.0458343
0.041327
0.0355191
0.0288045
0.0210903
0.0123861
0.00252123
-0.00894653
-0.0226971
-0.03963
-0.0610668
-0.088357
-0.123626
-0.164499
0.0428861
0.0541333
0.0481994
0.046641
0.0450978
0.040975
0.0354804
0.0289447
0.0213297
0.0126765
0.00286588
-0.00846183
-0.0218579
-0.0380052
-0.0577758
-0.0818075
-0.110725
-0.1417
0.0432245
0.0514867
0.0476783
0.0461062
0.0443966
0.0405423
0.035337
0.0290442
0.0216563
0.0132248
0.00367339
-0.00726658
-0.0199996
-0.0349804
-0.0526786
-0.0732042
-0.0962923
-0.119244
0.0444764
0.0501891
0.0474575
0.0457293
0.0438188
0.0401588
0.0352279
0.0292305
0.022175
0.0141139
0.00500931
-0.00531536
-0.0171167
-0.030637
-0.0460238
-0.0630401
-0.0809873
-0.0975508
0.0458031
0.0494377
0.0473524
0.0455213
0.0434408
0.0399368
0.0352783
0.0296232
0.0229891
0.0154276
0.00693582
-0.00257588
-0.0132294
-0.0250887
-0.0380718
-0.0517515
-0.0652945
-0.0768366
0.046821
0.0489961
0.0473653
0.0455124
0.0433215
0.0399686
0.0355966
0.0303291
0.0241923
0.0172394
0.00949986
0.000959687
-0.00839116
-0.0184831
-0.0290927
-0.039723
-0.0495787
-0.0572204
0.0476193
0.0488497
0.0475303
0.0457202
0.0434958
0.0403168
0.0362594
0.0314246
0.0258491
0.0195922
0.0127116
0.00525426
-0.00270596
-0.011012
-0.0193721
-0.0272999
-0.0341219
-0.0387551
0.0482832
0.048969
0.0478417
0.0461196
0.0439422
0.0409631
0.0372313
0.032836
0.0278249
0.0222654
0.0162367
0.0098262
0.00315764
-0.00356997
-0.0100511
-0.0158496
-0.020424
-0.0229333
0.0489515
0.0492764
0.0483083
0.0467049
0.0446318
0.0418899
0.0385127
0.0345845
0.0301667
0.0253362
0.020188
0.0148364
0.00943272
0.00418966
-0.000604866
-0.00458616
-0.00733475
-0.00823378
0.0497829
0.0498647
0.0490446
0.0476111
0.0457253
0.0433037
0.0403749
0.0370199
0.0333139
0.0293434
0.0252149
0.0210576
0.0170322
0.0133417
0.0102314
0.00797913
0.00688339
0.00735542
0.0508849
0.0508379
0.0501602
0.0489525
0.0473494
0.0453434
0.0429681
0.0403003
0.0374238
0.0344319
0.0314345
0.0285608
0.0259612
0.0238072
0.022285
0.0215825
0.0218889
0.0234519
0.0524072
0.052317
0.0517947
0.0508689
0.0496419
0.0481462
0.046422
0.044541
0.0425877
0.0406544
0.0388437
0.0372696
0.0360548
0.035326
0.0352056
0.035802
0.0372181
0.0395845
0.0545209
0.0544417
0.0541011
0.0535085
0.0527359
0.0518275
0.0508266
0.0497959
0.0488117
0.0479551
0.0473106
0.0469651
0.0470043
0.0475072
0.0485394
0.0501488
0.0523767
0.0552757
0.0573751
0.05734
0.0572107
0.0569929
0.0567268
0.0564507
0.0562017
0.0560285
0.0559908
0.0561504
0.0565663
0.0572941
0.0583827
0.0598704
0.0617805
0.0641216
0.0668966
0.0701116
0.0610126
0.0610505
0.0611686
0.0613612
0.061634
0.0620084
0.0625045
0.0631487
0.0639768
0.0650259
0.0663283
0.0679108
0.0697926
0.0719826
0.0744779
0.0772648
0.0803256
0.0836412
0.0642872
0.0643966
0.0647132
0.0651966
0.0658403
0.0666585
0.067654
0.0688351
0.07022
0.0718265
0.0736687
0.075757
0.0780952
0.0806786
0.0834933
0.0865177
0.0897273
0.0930972
0.0665718
0.0668053
0.0673058
0.0679898
0.0688966
0.0700289
0.0713536
0.072862
0.0745622
0.0764625
0.0785708
0.0808935
0.0834307
0.086173
0.0891028
0.0921955
0.0954246
0.0987636
0.0681252
0.0686778
0.0693901
0.0701938
0.071304
0.0726773
0.0742166
0.0759084
0.0777627
0.0797863
0.081991
0.0843887
0.0869819
0.0897612
0.0927072
0.0957942
0.0989948
0.102283
0.0688374
0.0701152
0.0710802
0.0719274
0.0732273
0.0747843
0.0764235
0.0781634
0.0800288
0.0820319
0.0841987
0.0865538
0.0891046
0.091841
0.0947415
0.0977782
0.100921
0.104145
0.0688175
0.0713789
0.0724499
0.0732609
0.0748047
0.0764794
0.0780802
0.0797302
0.0814764
0.0833405
0.0853704
0.0876059
0.0900562
0.0927072
0.0955322
0.098499
0.101575
0.104732
0.0688097
0.0735612
0.0738558
0.0743096
0.0761452
0.0778229
0.0792158
0.0806415
0.0821621
0.0838055
0.0856444
0.0877282
0.0900604
0.0926166
0.0953619
0.0982582
0.101268
0.104363
0.067211
0.078032
0.0761552
0.0754485
0.0773866
0.0788203
0.0798018
0.0808819
0.0821067
0.0834981
0.0851435
0.0870884
0.08932
0.0917984
0.0944782
0.0973148
0.100266
0.103302
0.0505258
0.0802028
0.0783766
0.0768194
0.0785742
0.079372
0.0797211
0.0803602
0.0812712
0.0824437
0.0839508
0.0858125
0.0879903
0.0904262
0.0930654
0.0958596
0.0987651
0.10175
0.00672508
0.0672465
0.0744417
0.0768589
0.0790572
0.0789803
0.0786036
0.0788224
0.079507
0.0805822
0.0820689
0.0839414
0.0861319
0.0885691
0.0911945
0.0939614
0.0968284
0.0997673
0.0250569
0.0565093
0.0643194
0.0742631
0.0777786
0.0769282
0.076075
0.0761893
0.0769261
0.0781103
0.0797137
0.0816835
0.0839382
0.086403
0.0890243
0.0917624
0.0945814
0.0974484
0.390991
0.17133
0.0947338
0.0826946
0.0786171
0.0747928
0.073212
0.0734919
0.074582
0.0760532
0.0778387
0.0799158
0.0822306
0.0847201
0.0873376
0.0900517
0.092834
0.0956678
0.116705
0.117147
0.118239
0.119955
0.122186
0.124841
0.12783
0.13107
0.134494
0.138047
0.141687
0.145381
0.149102
0.152829
0.156544
0.160233
0.163882
0.16748
0.171018
0.174483
0.177868
0.181162
0.184356
0.187442
0.190412
0.193259
0.195976
0.198559
0.201003
0.203306
0.205465
0.207479
0.20935
0.211078
0.212665
0.214114
0.21543
0.216617
0.21768
0.218623
0.219453
0.220176
0.220797
0.221324
0.221761
0.222114
0.222391
0.222596
0.222734
0.222813
0.222835
0.222808
0.222734
0.222618
0.222465
0.222278
0.222061
0.221817
0.22155
0.221262
0.220955
0.220634
0.220299
0.219953
0.219597
0.219234
0.218866
0.218492
0.218116
0.217737
0.217357
0.216978
0.216598
0.21622
0.215844
0.21547
0.2151
0.214732
0.214368
0.214008
0.213651
0.213299
0.212952
0.212609
0.212271
0.211937
0.211609
0.211286
0.210968
0.210655
0.210347
0.210045
0.209747
0.209454
0.209165
0.208879
0.208597
0.208318
0.208044
0.207773
0.207504
0.207237
0.206971
0.206708
0.206448
0.20619
0.205935
0.205682
0.205432
0.205184
0.204938
0.204695
0.204453
0.204214
0.203976
0.20374
0.203506
0.203273
0.203041
0.20281
0.20258
0.202352
0.202124
0.201896
0.20167
0.201443
0.201217
0.200991
0.200765
0.200539
0.200313
0.200086
0.19986
0.199633
0.199405
0.199177
0.198948
0.198719
0.198489
0.198257
0.198025
0.197792
0.197558
0.197323
0.197086
0.196849
0.19661
0.19637
0.196129
0.195887
0.195643
0.195398
0.195152
0.194905
0.194657
0.194408
0.194158
0.193907
0.193656
0.193404
0.193153
0.192902
0.192653
0.192405
0.192161
0.191921
0.191688
0.191465
0.191254
0.191061
0.190893
0.190761
0.19068
0.190673
0.190782
0.191078
0.19172
0.192993
0.195925
0.201092
0.113302
0.114152
0.115296
0.116614
0.118254
0.120292
0.1227
0.125423
0.128408
0.131604
0.134967
0.138454
0.14203
0.145664
0.149329
0.153003
0.156668
0.160304
0.163899
0.167437
0.170908
0.174298
0.177599
0.180799
0.183891
0.186867
0.18972
0.192443
0.195033
0.197485
0.199798
0.20197
0.204
0.20589
0.20764
0.209254
0.210734
0.212085
0.213311
0.214416
0.215406
0.216287
0.217064
0.217742
0.218328
0.218827
0.219246
0.219589
0.219861
0.22007
0.220218
0.220312
0.220355
0.220352
0.220308
0.220226
0.220109
0.219962
0.219787
0.219587
0.219365
0.219125
0.218867
0.218595
0.21831
0.218014
0.21771
0.217397
0.217079
0.216756
0.216429
0.216099
0.215767
0.215434
0.215101
0.214767
0.214435
0.214104
0.213774
0.213447
0.213122
0.212799
0.212479
0.212163
0.211849
0.211539
0.211233
0.210931
0.210633
0.210339
0.210049
0.209763
0.209482
0.209203
0.208928
0.208656
0.208387
0.208119
0.207854
0.207592
0.207331
0.207073
0.206817
0.206563
0.206311
0.20606
0.205812
0.205565
0.205321
0.205078
0.204838
0.204599
0.204362
0.204127
0.203893
0.20366
0.203429
0.203199
0.202971
0.202743
0.202516
0.202289
0.202064
0.201838
0.201614
0.201389
0.201164
0.20094
0.200715
0.200491
0.200266
0.200041
0.199815
0.199589
0.199363
0.199135
0.198908
0.198679
0.19845
0.198219
0.197988
0.197756
0.197522
0.197288
0.197052
0.196815
0.196577
0.196338
0.196098
0.195856
0.195613
0.195369
0.195124
0.194877
0.19463
0.194381
0.194132
0.193882
0.193631
0.193381
0.19313
0.192881
0.192632
0.192386
0.192144
0.191907
0.191677
0.191457
0.191251
0.191064
0.190904
0.190782
0.190715
0.190726
0.190857
0.191177
0.191835
0.193049
0.195712
0.199914
0.107814
0.109567
0.111534
0.113049
0.114461
0.116081
0.117996
0.12021
0.12271
0.125473
0.128466
0.131655
0.135001
0.13847
0.142029
0.145648
0.149302
0.152965
0.156616
0.160237
0.163809
0.167318
0.17075
0.174093
0.177335
0.180467
0.18348
0.186368
0.189125
0.191746
0.194229
0.196572
0.198773
0.200833
0.202753
0.204535
0.206182
0.207698
0.209086
0.210352
0.211499
0.212534
0.213462
0.214288
0.215018
0.215658
0.216212
0.216688
0.217089
0.217422
0.217691
0.217901
0.218057
0.218162
0.218222
0.21824
0.21822
0.218165
0.218079
0.217964
0.217824
0.217661
0.217478
0.217277
0.217061
0.21683
0.216587
0.216334
0.216072
0.215802
0.215526
0.215245
0.214959
0.21467
0.214379
0.214085
0.21379
0.213495
0.213199
0.212904
0.212609
0.212315
0.212023
0.211732
0.211443
0.211156
0.210872
0.21059
0.210311
0.210036
0.209764
0.209495
0.209229
0.208965
0.208704
0.208445
0.208188
0.207932
0.207678
0.207425
0.207175
0.206925
0.206678
0.206431
0.206186
0.205943
0.205701
0.20546
0.205222
0.204984
0.204749
0.204515
0.204282
0.204051
0.203821
0.203592
0.203364
0.203137
0.202911
0.202686
0.202462
0.202238
0.202014
0.201791
0.201568
0.201345
0.201122
0.200899
0.200676
0.200452
0.200229
0.200005
0.19978
0.199555
0.199329
0.199103
0.198876
0.198648
0.19842
0.19819
0.19796
0.197728
0.197496
0.197262
0.197027
0.196791
0.196553
0.196315
0.196075
0.195834
0.195591
0.195348
0.195103
0.194857
0.19461
0.194362
0.194113
0.193864
0.193614
0.193364
0.193115
0.192866
0.192619
0.192375
0.192134
0.1919
0.191673
0.191457
0.191256
0.191075
0.190924
0.190813
0.190759
0.190787
0.19094
0.191282
0.191948
0.193094
0.195396
0.198303
0.100788
0.103034
0.105681
0.107718
0.10945
0.111237
0.113206
0.115388
0.117797
0.120435
0.123292
0.126349
0.129582
0.132963
0.136464
0.140056
0.143713
0.147407
0.151115
0.154814
0.158482
0.162101
0.165653
0.169124
0.172499
0.175767
0.178917
0.181943
0.184836
0.187593
0.190208
0.192681
0.19501
0.197195
0.199238
0.20114
0.202905
0.204536
0.206037
0.207412
0.208668
0.209808
0.210839
0.211766
0.212595
0.21333
0.213979
0.214546
0.215037
0.215456
0.215809
0.216101
0.216336
0.216518
0.216652
0.216742
0.216791
0.216803
0.216781
0.216728
0.216648
0.216543
0.216415
0.216267
0.216101
0.215919
0.215722
0.215514
0.215294
0.215065
0.214828
0.214583
0.214333
0.214078
0.213818
0.213555
0.213289
0.213021
0.212752
0.212481
0.21221
0.211939
0.211668
0.211397
0.211127
0.210858
0.210591
0.210325
0.210062
0.209801
0.209543
0.209287
0.209033
0.208782
0.208531
0.208283
0.208035
0.207788
0.207542
0.207298
0.207054
0.206812
0.20657
0.20633
0.206091
0.205853
0.205616
0.205381
0.205147
0.204914
0.204682
0.204452
0.204223
0.203994
0.203768
0.203541
0.203316
0.203092
0.202868
0.202645
0.202423
0.202201
0.201979
0.201757
0.201536
0.201314
0.201093
0.200871
0.200649
0.200427
0.200204
0.199981
0.199757
0.199533
0.199308
0.199082
0.198856
0.198629
0.198401
0.198172
0.197942
0.197711
0.197479
0.197245
0.197011
0.196775
0.196538
0.1963
0.19606
0.195819
0.195577
0.195334
0.19509
0.194844
0.194597
0.19435
0.194101
0.193852
0.193603
0.193353
0.193104
0.192856
0.19261
0.192367
0.192128
0.191894
0.191669
0.191454
0.191256
0.191079
0.190931
0.190824
0.190774
0.190806
0.190957
0.191285
0.191895
0.192881
0.19467
0.196579
0.0926138
0.0950239
0.0980203
0.100484
0.102611
0.104733
0.106976
0.109376
0.111956
0.114727
0.117693
0.120844
0.124165
0.127636
0.131233
0.134931
0.138705
0.142527
0.146373
0.150217
0.154038
0.157813
0.161524
0.165152
0.168682
0.172101
0.175398
0.178564
0.181592
0.184476
0.187213
0.189801
0.192239
0.194528
0.196669
0.198665
0.200519
0.202235
0.203818
0.205272
0.206604
0.207818
0.20892
0.209917
0.210813
0.211615
0.212327
0.212957
0.213509
0.213988
0.214399
0.214747
0.215037
0.215273
0.21546
0.2156
0.215699
0.215759
0.215783
0.215776
0.215739
0.215676
0.215588
0.215479
0.215351
0.215205
0.215044
0.214869
0.214681
0.214483
0.214275
0.214059
0.213835
0.213606
0.213371
0.213131
0.212888
0.212642
0.212393
0.212142
0.211889
0.211636
0.211381
0.211126
0.210871
0.210617
0.210363
0.210111
0.20986
0.20961
0.209363
0.209118
0.208874
0.208632
0.20839
0.20815
0.207909
0.20767
0.207431
0.207193
0.206955
0.206718
0.206482
0.206247
0.206013
0.205779
0.205547
0.205316
0.205085
0.204856
0.204628
0.204401
0.204174
0.203949
0.203725
0.203501
0.203278
0.203056
0.202834
0.202613
0.202392
0.202172
0.201951
0.201731
0.201511
0.201291
0.20107
0.200849
0.200628
0.200407
0.200185
0.199962
0.19974
0.199516
0.199292
0.199067
0.198841
0.198614
0.198387
0.198158
0.197928
0.197698
0.197466
0.197233
0.196999
0.196763
0.196526
0.196288
0.196049
0.195808
0.195567
0.195324
0.195079
0.194834
0.194587
0.19434
0.194092
0.193843
0.193593
0.193344
0.193095
0.192848
0.192602
0.192358
0.192119
0.191886
0.19166
0.191446
0.191248
0.19107
0.190921
0.190812
0.190757
0.190779
0.19091
0.191195
0.191709
0.192494
0.193796
0.194984
0.0833743
0.0857487
0.0888454
0.0915822
0.0940624
0.0965584
0.0991738
0.101936
0.104861
0.10796
0.111236
0.114683
0.118286
0.12203
0.125892
0.12985
0.133877
0.137949
0.142038
0.146121
0.150172
0.154169
0.158091
0.16192
0.165639
0.169236
0.172697
0.176015
0.179182
0.182193
0.185047
0.18774
0.190274
0.19265
0.194871
0.196939
0.19886
0.200638
0.202278
0.203786
0.205168
0.20643
0.207578
0.208618
0.209556
0.210399
0.211152
0.21182
0.21241
0.212926
0.213374
0.213758
0.214084
0.214355
0.214575
0.214749
0.214881
0.214973
0.215029
0.215052
0.215045
0.215011
0.214952
0.214871
0.214769
0.214649
0.214513
0.214362
0.214198
0.214023
0.213837
0.213641
0.213438
0.213228
0.213012
0.21279
0.212564
0.212334
0.212101
0.211865
0.211627
0.211387
0.211146
0.210904
0.210661
0.210418
0.210175
0.209933
0.209692
0.209452
0.209213
0.208976
0.208741
0.208506
0.208271
0.208037
0.207803
0.20757
0.207337
0.207104
0.206871
0.206639
0.206407
0.206177
0.205946
0.205717
0.205488
0.20526
0.205033
0.204807
0.204581
0.204357
0.204133
0.20391
0.203688
0.203467
0.203246
0.203025
0.202805
0.202586
0.202367
0.202147
0.201928
0.201709
0.20149
0.201271
0.201051
0.200831
0.200611
0.200391
0.200169
0.199948
0.199725
0.199502
0.199279
0.199054
0.198829
0.198602
0.198375
0.198147
0.197918
0.197687
0.197456
0.197223
0.196989
0.196754
0.196517
0.196279
0.19604
0.1958
0.195558
0.195315
0.195071
0.194825
0.194579
0.194332
0.194083
0.193834
0.193585
0.193336
0.193087
0.192839
0.192593
0.192349
0.192109
0.191875
0.191648
0.191433
0.191232
0.191051
0.190897
0.19078
0.190713
0.190716
0.190813
0.191036
0.191437
0.192019
0.19291
0.193556
0.0729382
0.0751656
0.0781995
0.0810747
0.0838328
0.0866854
0.0897079
0.0929117
0.0962998
0.0998726
0.103624
0.107542
0.11161
0.115806
0.120106
0.124486
0.128919
0.133376
0.137832
0.142259
0.146634
0.150932
0.155133
0.159218
0.163171
0.166978
0.170629
0.174116
0.177434
0.180578
0.183547
0.186342
0.188963
0.191416
0.193702
0.195827
0.197797
0.199618
0.201296
0.202837
0.204249
0.205537
0.20671
0.207773
0.208733
0.209596
0.210369
0.211057
0.211666
0.212201
0.212668
0.213071
0.213416
0.213706
0.213945
0.214139
0.214289
0.2144
0.214476
0.214518
0.21453
0.214514
0.214474
0.214411
0.214327
0.214224
0.214105
0.213971
0.213823
0.213663
0.213493
0.213313
0.213124
0.212928
0.212725
0.212517
0.212304
0.212086
0.211865
0.21164
0.211413
0.211184
0.210953
0.210721
0.210487
0.210253
0.210019
0.209785
0.209551
0.209319
0.209087
0.208857
0.208628
0.208399
0.20817
0.207941
0.207713
0.207484
0.207255
0.207027
0.206798
0.20657
0.206343
0.206115
0.205889
0.205662
0.205437
0.205212
0.204988
0.204764
0.204541
0.204319
0.204098
0.203877
0.203657
0.203437
0.203218
0.202999
0.202781
0.202563
0.202345
0.202127
0.201909
0.201691
0.201473
0.201254
0.201036
0.200817
0.200597
0.200377
0.200157
0.199936
0.199714
0.199491
0.199268
0.199044
0.198819
0.198593
0.198366
0.198138
0.197909
0.197679
0.197448
0.197215
0.196981
0.196746
0.19651
0.196272
0.196033
0.195793
0.195551
0.195308
0.195064
0.194819
0.194572
0.194325
0.194076
0.193827
0.193578
0.193328
0.193079
0.19283
0.192583
0.192339
0.192097
0.191862
0.191633
0.191414
0.191209
0.191022
0.19086
0.190731
0.190647
0.190622
0.190675
0.190828
0.19111
0.191499
0.192051
0.192284
0.0610715
0.0630834
0.0659471
0.0688587
0.0718259
0.0750072
0.0784505
0.0821495
0.0860901
0.0902564
0.0946275
0.099178
0.103879
0.108701
0.113611
0.118579
0.123571
0.128558
0.13351
0.138398
0.143197
0.147884
0.152437
0.156839
0.161075
0.165132
0.169004
0.172682
0.176165
0.17945
0.182539
0.185434
0.18814
0.190661
0.193004
0.195175
0.197182
0.199032
0.200733
0.202292
0.203718
0.205017
0.206199
0.207269
0.208235
0.209103
0.209881
0.210574
0.211188
0.211729
0.212202
0.212611
0.212963
0.21326
0.213508
0.213709
0.213869
0.213989
0.214074
0.214127
0.214149
0.214144
0.214114
0.214062
0.213989
0.213898
0.213789
0.213666
0.213529
0.21338
0.21322
0.21305
0.212872
0.212686
0.212493
0.212294
0.21209
0.211882
0.21167
0.211454
0.211235
0.211014
0.210791
0.210566
0.21034
0.210113
0.209885
0.209658
0.209431
0.209204
0.208978
0.208753
0.208529
0.208305
0.208081
0.207857
0.207632
0.207408
0.207183
0.206958
0.206734
0.206509
0.206285
0.206061
0.205837
0.205614
0.205391
0.205169
0.204947
0.204726
0.204506
0.204286
0.204066
0.203847
0.203629
0.203411
0.203193
0.202976
0.202759
0.202542
0.202325
0.202109
0.201892
0.201675
0.201458
0.20124
0.201022
0.200804
0.200585
0.200366
0.200146
0.199926
0.199704
0.199482
0.199259
0.199036
0.198811
0.198585
0.198359
0.198131
0.197902
0.197672
0.197441
0.197209
0.196975
0.19674
0.196504
0.196266
0.196027
0.195787
0.195546
0.195303
0.195058
0.194813
0.194567
0.194319
0.19407
0.193821
0.193571
0.193321
0.193071
0.192822
0.192574
0.192328
0.192085
0.191846
0.191614
0.191391
0.19118
0.190985
0.190812
0.190668
0.190561
0.190503
0.190507
0.190585
0.190747
0.190961
0.191233
0.191153
0.0474736
0.0492045
0.0518054
0.0546716
0.0577962
0.06129
0.0651755
0.0694279
0.0740137
0.0788956
0.0840319
0.0893776
0.0948861
0.100511
0.106207
0.111932
0.117646
0.12331
0.128893
0.134362
0.139691
0.144856
0.149838
0.15462
0.15919
0.163539
0.167662
0.171555
0.17522
0.178657
0.181871
0.184869
0.187657
0.190243
0.192636
0.194845
0.19688
0.198749
0.200462
0.202028
0.203457
0.204757
0.205936
0.207002
0.207963
0.208826
0.209599
0.210286
0.210896
0.211433
0.211902
0.212309
0.212659
0.212955
0.213203
0.213406
0.213567
0.21369
0.213778
0.213834
0.21386
0.213861
0.213836
0.21379
0.213723
0.213638
0.213536
0.21342
0.21329
0.213148
0.212995
0.212832
0.212661
0.212482
0.212297
0.212105
0.211908
0.211707
0.211501
0.211292
0.21108
0.210866
0.210649
0.210431
0.21021
0.209989
0.209767
0.209545
0.209323
0.209101
0.20888
0.20866
0.20844
0.20822
0.208
0.207779
0.207559
0.207338
0.207116
0.206895
0.206673
0.206452
0.206231
0.20601
0.205789
0.205568
0.205348
0.205129
0.204909
0.20469
0.204472
0.204254
0.204037
0.20382
0.203603
0.203387
0.203171
0.202955
0.202739
0.202523
0.202308
0.202092
0.201876
0.20166
0.201444
0.201227
0.20101
0.200793
0.200575
0.200356
0.200137
0.199917
0.199696
0.199474
0.199252
0.199029
0.198804
0.198579
0.198353
0.198125
0.197897
0.197667
0.197436
0.197204
0.19697
0.196735
0.196499
0.196262
0.196023
0.195783
0.195541
0.195298
0.195054
0.194809
0.194562
0.194314
0.194065
0.193816
0.193565
0.193315
0.193064
0.192813
0.192564
0.192316
0.19207
0.191829
0.191593
0.191365
0.191146
0.190942
0.190756
0.190593
0.190461
0.190366
0.190318
0.190318
0.190368
0.190423
0.190465
0.190147
0.031783
0.0331424
0.0353682
0.0381081
0.0413528
0.0451647
0.0495394
0.0544317
0.0597843
0.0655327
0.0716073
0.0779358
0.0844466
0.091071
0.0977451
0.104411
0.111016
0.117515
0.123868
0.130041
0.136007
0.141742
0.147229
0.152455
0.15741
0.162091
0.166495
0.170626
0.174488
0.178087
0.181433
0.184535
0.187404
0.190052
0.192491
0.194732
0.196787
0.198668
0.200386
0.201951
0.203375
0.204666
0.205835
0.20689
0.207838
0.208689
0.209449
0.210125
0.210723
0.211249
0.211709
0.212108
0.21245
0.21274
0.212983
0.213181
0.21334
0.213461
0.213547
0.213603
0.213631
0.213632
0.213609
0.213565
0.213502
0.21342
0.213322
0.21321
0.213085
0.212947
0.2128
0.212642
0.212476
0.212303
0.212123
0.211937
0.211745
0.211549
0.211349
0.211146
0.21094
0.21073
0.210519
0.210306
0.210091
0.209874
0.209657
0.20944
0.209222
0.209005
0.208788
0.208571
0.208355
0.208139
0.207922
0.207705
0.207488
0.20727
0.207052
0.206834
0.206615
0.206397
0.206179
0.20596
0.205742
0.205524
0.205307
0.205089
0.204873
0.204656
0.20444
0.204224
0.204008
0.203793
0.203578
0.203363
0.203149
0.202934
0.20272
0.202505
0.202291
0.202076
0.201862
0.201647
0.201431
0.201215
0.200999
0.200782
0.200565
0.200347
0.200128
0.199909
0.199689
0.199467
0.199245
0.199022
0.198798
0.198573
0.198347
0.19812
0.197892
0.197662
0.197431
0.197199
0.196966
0.196731
0.196495
0.196258
0.196019
0.195779
0.195537
0.195294
0.19505
0.194805
0.194558
0.19431
0.194061
0.19381
0.19356
0.193308
0.193056
0.192804
0.192553
0.192303
0.192055
0.19181
0.19157
0.191335
0.191109
0.190893
0.190692
0.190509
0.19035
0.190217
0.190114
0.19004
0.189983
0.189898
0.189753
0.189252
0.0135454
0.0144042
0.0160962
0.0186128
0.021952
0.0261179
0.0310714
0.0367409
0.0430368
0.0498577
0.0570959
0.0646425
0.0723922
0.0802471
0.0881189
0.0959299
0.103614
0.111114
0.118385
0.125391
0.132102
0.138498
0.144565
0.150294
0.155682
0.16073
0.165443
0.16983
0.173902
0.177671
0.181151
0.184358
0.187307
0.190013
0.192493
0.19476
0.19683
0.198717
0.200433
0.201992
0.203404
0.204682
0.205835
0.206872
0.207803
0.208637
0.209379
0.210039
0.210621
0.211133
0.21158
0.211966
0.212298
0.212579
0.212813
0.213005
0.213157
0.213273
0.213356
0.213409
0.213435
0.213435
0.213412
0.213369
0.213306
0.213226
0.213131
0.213021
0.212899
0.212765
0.21262
0.212467
0.212305
0.212136
0.21196
0.211778
0.211592
0.211401
0.211206
0.211007
0.210805
0.210601
0.210394
0.210186
0.209975
0.209764
0.209551
0.209337
0.209124
0.208911
0.208697
0.208484
0.208272
0.208059
0.207845
0.207632
0.207418
0.207203
0.206988
0.206773
0.206557
0.206342
0.206127
0.205911
0.205696
0.20548
0.205265
0.205051
0.204836
0.204621
0.204407
0.204193
0.20398
0.203766
0.203553
0.20334
0.203127
0.202914
0.202701
0.202487
0.202274
0.202061
0.201847
0.201633
0.201419
0.201204
0.200988
0.200772
0.200555
0.200338
0.20012
0.199901
0.199681
0.199461
0.199239
0.199016
0.198793
0.198568
0.198342
0.198115
0.197887
0.197658
0.197427
0.197195
0.196962
0.196728
0.196492
0.196254
0.196016
0.195776
0.195534
0.195291
0.195047
0.194801
0.194554
0.194306
0.194056
0.193805
0.193554
0.193302
0.193049
0.192796
0.192542
0.19229
0.192039
0.19179
0.191544
0.191303
0.191067
0.19084
0.190623
0.19042
0.190231
0.190059
0.189904
0.189757
0.189604
0.189397
0.189096
0.188454
-0.00780651
-0.00766091
-0.00673747
-0.00456481
-0.00113623
0.00346881
0.00916077
0.0158276
0.0233313
0.0315164
0.040223
0.0492928
0.0585772
0.0679417
0.0772686
0.0864577
0.0954265
0.104109
0.112453
0.120421
0.127986
0.135131
0.141847
0.148134
0.153995
0.15944
0.164483
0.16914
0.17343
0.177372
0.180987
0.184296
0.187321
0.190081
0.192595
0.194883
0.196962
0.198849
0.200558
0.202104
0.203501
0.20476
0.205893
0.206909
0.20782
0.208632
0.209355
0.209995
0.210559
0.211054
0.211485
0.211858
0.212176
0.212446
0.21267
0.212853
0.212997
0.213107
0.213185
0.213234
0.213256
0.213254
0.21323
0.213186
0.213123
0.213044
0.21295
0.212842
0.212721
0.21259
0.212448
0.212298
0.21214
0.211974
0.211802
0.211625
0.211442
0.211255
0.211065
0.210871
0.210673
0.210474
0.210271
0.210067
0.209861
0.209654
0.209445
0.209236
0.209026
0.208816
0.208607
0.208397
0.208188
0.207978
0.207768
0.207557
0.207346
0.207135
0.206923
0.206711
0.206499
0.206286
0.206074
0.205861
0.205648
0.205436
0.205223
0.205011
0.204799
0.204586
0.204374
0.204163
0.203951
0.203739
0.203528
0.203316
0.203104
0.202893
0.202681
0.202469
0.202257
0.202045
0.201832
0.201619
0.201406
0.201192
0.200977
0.200762
0.200546
0.200329
0.200112
0.199893
0.199674
0.199454
0.199233
0.199011
0.198787
0.198563
0.198338
0.198111
0.197883
0.197654
0.197423
0.197192
0.196959
0.196724
0.196488
0.196251
0.196012
0.195772
0.195531
0.195288
0.195043
0.194797
0.19455
0.194302
0.194052
0.193801
0.193548
0.193295
0.193041
0.192786
0.192531
0.192276
0.192022
0.191769
0.191517
0.191269
0.191024
0.190785
0.190551
0.190326
0.190108
0.189898
0.189691
0.189477
0.189236
0.188922
0.188493
0.187741
-0.0330504
-0.0339449
-0.0341285
-0.0324378
-0.0288751
-0.0236554
-0.0169504
-0.00893909
0.000164593
0.0101284
0.0207182
0.031709
0.0428986
0.0541099
0.0651924
0.0760226
0.0865025
0.0965576
0.106133
0.115193
0.123715
0.13169
0.139117
0.146007
0.152373
0.158237
0.163623
0.168556
0.173064
0.177177
0.180922
0.184328
0.187421
0.190226
0.192769
0.19507
0.197152
0.199032
0.200729
0.202258
0.203635
0.204872
0.205981
0.206974
0.207861
0.20865
0.209351
0.20997
0.210515
0.210992
0.211406
0.211763
0.212068
0.212325
0.212538
0.212711
0.212847
0.21295
0.213022
0.213066
0.213084
0.213079
0.213053
0.213008
0.212945
0.212866
0.212772
0.212665
0.212547
0.212417
0.212278
0.212131
0.211976
0.211813
0.211645
0.211471
0.211293
0.21111
0.210924
0.210734
0.210541
0.210345
0.210147
0.209947
0.209746
0.209542
0.209338
0.209132
0.208927
0.208721
0.208514
0.208308
0.208102
0.207895
0.207689
0.207481
0.207273
0.207065
0.206857
0.206648
0.206438
0.206229
0.206019
0.20581
0.2056
0.20539
0.20518
0.20497
0.20476
0.20455
0.204341
0.204131
0.203921
0.203711
0.203501
0.203291
0.203081
0.202871
0.202661
0.202451
0.20224
0.202029
0.201817
0.201605
0.201393
0.20118
0.200966
0.200751
0.200536
0.20032
0.200103
0.199886
0.199667
0.199447
0.199226
0.199005
0.198782
0.198558
0.198333
0.198106
0.197879
0.19765
0.197419
0.197188
0.196955
0.196721
0.196485
0.196248
0.196009
0.195769
0.195528
0.195285
0.19504
0.194794
0.194547
0.194298
0.194047
0.193796
0.193543
0.193288
0.193033
0.192777
0.19252
0.192262
0.192004
0.191747
0.19149
0.191234
0.190979
0.190727
0.190477
0.19023
0.189984
0.189736
0.189481
0.189204
0.188884
0.188477
0.187941
0.187101
-0.0633607
-0.065732
-0.0674698
-0.0663828
-0.0625235
-0.0563439
-0.0481609
-0.0382666
-0.0269873
-0.0146657
-0.00163786
0.0117853
0.0253373
0.0387955
0.0519773
0.0647383
0.0769693
0.0885918
0.099554
0.109826
0.119396
0.128266
0.136451
0.143974
0.150864
0.157154
0.162883
0.168088
0.172808
0.177082
0.180947
0.184438
0.187589
0.19043
0.192992
0.195299
0.197375
0.199244
0.200923
0.202431
0.203783
0.204995
0.206079
0.207046
0.207908
0.208673
0.209351
0.209948
0.210473
0.210931
0.211328
0.21167
0.21196
0.212205
0.212407
0.21257
0.212697
0.212793
0.212858
0.212897
0.212912
0.212904
0.212875
0.212829
0.212765
0.212686
0.212593
0.212487
0.212371
0.212243
0.212107
0.211962
0.21181
0.211651
0.211486
0.211316
0.211141
0.210962
0.21078
0.210594
0.210406
0.210215
0.210021
0.209825
0.209628
0.209429
0.209228
0.209027
0.208825
0.208622
0.208419
0.208217
0.208014
0.20781
0.207607
0.207403
0.207198
0.206993
0.206788
0.206582
0.206376
0.20617
0.205963
0.205757
0.20555
0.205343
0.205135
0.204928
0.204721
0.204513
0.204306
0.204098
0.20389
0.203682
0.203474
0.203266
0.203058
0.202849
0.20264
0.202431
0.202222
0.202012
0.201802
0.201591
0.201379
0.201167
0.200954
0.20074
0.200526
0.200311
0.200095
0.199877
0.199659
0.19944
0.19922
0.198999
0.198776
0.198552
0.198328
0.198101
0.197874
0.197645
0.197415
0.197184
0.196951
0.196717
0.196482
0.196245
0.196006
0.195766
0.195525
0.195281
0.195037
0.194791
0.194543
0.194294
0.194043
0.193791
0.193537
0.193281
0.193025
0.192767
0.192508
0.192247
0.191986
0.191724
0.191461
0.191198
0.190933
0.190669
0.190402
0.190134
0.18986
0.189577
0.189275
0.188941
0.188551
0.188062
0.187438
0.186528
-0.100534
-0.104911
-0.108701
-0.10821
-0.103631
-0.0958289
-0.0853747
-0.0727485
-0.058453
-0.0429871
-0.0268129
-0.0103379
0.00610349
0.0222468
0.0378852
0.0528628
0.0670683
0.0804289
0.0929038
0.104478
0.115157
0.124961
0.133924
0.142087
0.149498
0.156207
0.162266
0.167728
0.172644
0.177063
0.181033
0.184596
0.187793
0.19066
0.193231
0.195536
0.197602
0.199453
0.201111
0.202594
0.203921
0.205106
0.206163
0.207105
0.207941
0.208682
0.209337
0.209913
0.210418
0.210858
0.211239
0.211565
0.211843
0.212075
0.212266
0.21242
0.21254
0.212628
0.212688
0.212722
0.212733
0.212722
0.212692
0.212644
0.21258
0.212501
0.212409
0.212305
0.21219
0.212064
0.21193
0.211788
0.211639
0.211484
0.211322
0.211156
0.210985
0.210811
0.210633
0.210451
0.210267
0.21008
0.209891
0.209699
0.209506
0.209311
0.209115
0.208917
0.208719
0.20852
0.208321
0.208122
0.207922
0.207723
0.207522
0.207322
0.20712
0.206919
0.206717
0.206515
0.206312
0.206109
0.205906
0.205702
0.205498
0.205294
0.205089
0.204885
0.20468
0.204475
0.204269
0.204064
0.203858
0.203652
0.203446
0.20324
0.203033
0.202826
0.202619
0.202411
0.202203
0.201995
0.201785
0.201576
0.201365
0.201154
0.200942
0.200729
0.200516
0.200301
0.200086
0.199869
0.199652
0.199433
0.199213
0.198992
0.19877
0.198547
0.198322
0.198097
0.19787