/*--------------------------------*- C++ -*----------------------------------*\
  =========                 |
  \\      /  F ield         | OpenFOAM: The Open Source CFD Toolbox
   \\    /   O peration     | Website:  https://openfoam.org
    \\  /    A nd           | Version:  6
     \\/     M anipulation  |
\*---------------------------------------------------------------------------*/
FoamFile
{
    version     2.0;
    format      ascii;
    class       surfaceScalarField;
    location    "0.01";
    object      phi;
}
// * * * * * * * * * * * * * * * * * * * * * * * * * * * * * * * * * * * * * //

dimensions      [0 3 -1 0 0 0 0];

internalField   nonuniform List<scalar> 
24170
(
3.25787e-07
-6.94628e-09
3.1965e-07
6.13648e-09
3.15569e-07
4.08171e-09
3.06623e-07
8.94555e-09
2.96634e-07
9.98914e-09
2.88639e-07
7.99476e-09
2.83518e-07
5.12105e-09
2.80971e-07
2.54706e-09
2.80322e-07
6.49159e-10
2.81152e-07
-8.29946e-10
2.83407e-07
-2.25482e-09
2.87111e-07
-3.7038e-09
2.92377e-07
-5.26615e-09
2.99504e-07
-7.12717e-09
3.09309e-07
-9.80482e-09
3.2331e-07
-1.40018e-08
3.49211e-07
-2.59003e-08
-5.4378e-08
4.03589e-07
3.50298e-07
-1.55197e-08
3.48236e-07
8.19878e-09
3.45164e-07
7.15389e-09
3.43357e-07
1.0752e-08
3.4002e-07
1.33269e-08
3.35497e-07
1.25173e-08
3.31236e-07
9.38217e-09
3.28346e-07
5.43676e-09
3.27338e-07
1.65695e-09
3.2821e-07
-1.70188e-09
3.30736e-07
-4.78055e-09
3.34815e-07
-7.78289e-09
3.40539e-07
-1.09904e-08
3.48243e-07
-1.48304e-08
3.58657e-07
-2.02196e-08
3.73463e-07
-2.88076e-08
3.94392e-07
-4.68288e-08
-8.23673e-08
4.22381e-07
3.63517e-07
-1.27854e-08
3.67006e-07
4.71049e-09
3.6771e-07
6.44971e-09
3.68239e-07
1.0223e-08
3.67641e-07
1.39242e-08
3.65874e-07
1.42848e-08
3.638e-07
1.14566e-08
3.62381e-07
6.85486e-09
3.62254e-07
1.78447e-09
3.63648e-07
-3.09565e-09
3.66561e-07
-7.6936e-09
3.70992e-07
-1.22145e-08
3.77062e-07
-1.70602e-08
3.85082e-07
-2.285e-08
3.95615e-07
-3.07525e-08
4.09573e-07
-4.27658e-08
4.2686e-07
-6.41158e-08
-1.00912e-07
4.45405e-07
3.89369e-07
-9.61602e-09
3.91888e-07
2.19184e-09
3.93312e-07
5.0256e-09
3.94538e-07
8.99759e-09
3.95246e-07
1.32155e-08
3.95228e-07
1.43036e-08
3.9487e-07
1.18146e-08
3.94827e-07
6.89774e-09
3.95665e-07
9.45904e-10
3.97707e-07
-5.13719e-09
4.01083e-07
-1.10698e-08
4.05878e-07
-1.70099e-08
4.12234e-07
-2.34158e-08
4.20405e-07
-3.10209e-08
4.3074e-07
-4.10876e-08
4.43566e-07
-5.55922e-08
4.58014e-07
-7.85629e-08
-1.13991e-07
4.71092e-07
4.18399e-07
-7.3024e-09
4.19829e-07
7.61516e-10
4.21212e-07
3.64349e-09
4.22725e-07
7.48435e-09
4.24254e-07
1.1686e-08
4.25507e-07
1.30508e-08
4.26556e-07
1.07656e-08
4.27773e-07
5.68097e-09
4.29592e-07
-8.73473e-10
4.32343e-07
-7.8882e-09
4.36226e-07
-1.49525e-08
4.4138e-07
-2.21635e-08
4.47947e-07
-2.99836e-08
4.56107e-07
-3.91802e-08
4.65995e-07
-5.09758e-08
4.77515e-07
-6.71121e-08
4.89416e-07
-9.04641e-08
-1.23284e-07
4.98709e-07
4.49163e-07
-5.55693e-09
4.50029e-07
-1.04112e-10
4.51305e-07
2.36726e-09
4.5301e-07
5.7791e-09
4.55138e-07
9.55856e-09
4.57375e-07
1.08133e-08
4.59598e-07
8.54302e-09
4.61949e-07
3.32942e-09
4.64718e-07
-3.64222e-09
4.68191e-07
-1.13615e-08
4.72589e-07
-1.93498e-08
4.7807e-07
-2.76452e-08
4.84763e-07
-3.66758e-08
4.92755e-07
-4.71725e-08
5.02e-07
-6.02214e-08
5.12112e-07
-7.72241e-08
5.21713e-07
-1.00065e-07
-1.29771e-07
5.28201e-07
4.81892e-07
-4.17672e-09
4.82505e-07
-7.17746e-10
4.83713e-07
1.15942e-09
4.85576e-07
3.9166e-09
4.88165e-07
6.96891e-09
4.91183e-07
7.79545e-09
4.94382e-07
5.34378e-09
4.97732e-07
-2.0129e-11
5.0138e-07
-7.29006e-09
5.05544e-07
-1.55258e-08
5.10427e-07
-2.42323e-08
5.1618e-07
-3.33985e-08
5.22896e-07
-4.33916e-08
5.30577e-07
-5.48537e-08
5.39032e-07
-6.86767e-08
5.47702e-07
-8.58936e-08
5.5525e-07
-1.07613e-07
-1.34083e-07
5.59562e-07
5.16893e-07
-3.11155e-09
5.17391e-07
-1.21611e-09
5.18572e-07
-2.11324e-11
5.20576e-07
1.91264e-09
5.23532e-07
4.01257e-09
5.27168e-07
4.1592e-09
5.31166e-07
1.34621e-09
5.35364e-07
-4.2182e-09
5.39786e-07
-1.17125e-08
5.44569e-07
-2.03085e-08
5.49871e-07
-2.95341e-08
5.55813e-07
-3.9341e-08
5.62442e-07
-5.00205e-08
5.69682e-07
-6.20936e-08
5.77242e-07
-7.62363e-08
5.84486e-07
-9.31372e-08
5.90216e-07
-1.13343e-07
-1.36655e-07
5.92788e-07
5.54364e-07
-2.34181e-09
5.5482e-07
-1.67189e-09
5.56013e-07
-1.21456e-09
5.58152e-07
-2.26027e-10
5.614e-07
7.64741e-10
5.65515e-07
4.42012e-11
5.70141e-07
-3.27986e-09
5.75025e-07
-9.10253e-09
5.80087e-07
-1.67746e-08
5.85378e-07
-2.55997e-08
5.90999e-07
-3.51546e-08
5.97023e-07
-4.53656e-08
6.03446e-07
-5.64436e-08
6.10129e-07
-6.87765e-08
6.16723e-07
-8.28302e-08
6.2259e-07
-9.90036e-08
6.26713e-07
-1.17466e-07
-1.37801e-07
6.27859e-07
5.9447e-07
-1.83441e-09
5.94937e-07
-2.13833e-09
5.96177e-07
-2.45478e-09
5.98442e-07
-2.49111e-09
6.01912e-07
-2.70546e-09
6.06375e-07
-4.41895e-09
6.11461e-07
-8.36583e-09
6.16856e-07
-1.44975e-08
6.22396e-07
-2.23147e-08
6.28053e-07
-3.12563e-08
6.3386e-07
-4.09618e-08
6.39838e-07
-5.13437e-08
6.45931e-07
-6.25366e-08
6.51954e-07
-7.47996e-08
6.57539e-07
-8.84143e-08
6.62092e-07
-1.03557e-07
6.6479e-07
-1.20165e-07
-1.37748e-07
6.64737e-07
6.37394e-07
-1.54763e-09
6.37905e-07
-2.64916e-09
6.39213e-07
-3.76228e-09
6.41585e-07
-4.86384e-09
6.45204e-07
-6.32418e-09
6.49884e-07
-9.09907e-09
6.55258e-07
-1.37392e-08
6.60974e-07
-2.02143e-08
6.66808e-07
-2.8148e-08
6.72658e-07
-3.71066e-08
6.78494e-07
-4.67974e-08
6.84279e-07
-5.71291e-08
6.89913e-07
-6.8171e-08
6.95184e-07
-8.00701e-08
6.9973e-07
-9.29603e-08
7.03035e-07
-1.06862e-07
7.04457e-07
-1.21587e-07
-1.36659e-07
7.03368e-07
5.7398e-07
-1.44403e-09
5.74451e-07
-3.12078e-09
5.75608e-07
-4.91872e-09
5.77667e-07
-6.92287e-09
5.80771e-07
-9.42809e-09
5.84784e-07
-1.31127e-08
5.89407e-07
-1.83618e-08
5.9433e-07
-2.51375e-08
5.99329e-07
-3.31464e-08
6.04272e-07
-4.20502e-08
6.09088e-07
-5.16136e-08
6.13708e-07
-6.17486e-08
6.18018e-07
-7.2481e-08
6.2183e-07
-8.38817e-08
6.2486e-07
-9.59904e-08
6.26738e-07
-1.0874e-07
6.27049e-07
-1.21898e-07
-1.35022e-07
6.25413e-07
6.99809e-07
-1.43767e-09
7.00411e-07
-3.72223e-09
7.01773e-07
-6.28062e-09
7.04144e-07
-9.29473e-09
7.07674e-07
-1.29574e-08
7.12221e-07
-1.76597e-08
7.17461e-07
-2.36021e-08
7.2304e-07
-3.0717e-08
7.28675e-07
-3.87811e-08
7.34175e-07
-4.75497e-08
7.3941e-07
-5.68491e-08
7.44264e-07
-6.66023e-08
7.48584e-07
-7.68008e-08
7.52154e-07
-8.74518e-08
7.54685e-07
-9.85221e-08
7.55834e-07
-1.09888e-07
7.55242e-07
-1.21307e-07
-1.32403e-07
7.52623e-07
8.5318e-07
-1.53295e-09
8.53912e-07
-4.45438e-09
8.55463e-07
-7.83129e-09
8.58086e-07
-1.19183e-08
8.61925e-07
-1.67961e-08
8.6684e-07
-2.25752e-08
8.72497e-07
-2.92589e-08
8.78508e-07
-3.67276e-08
8.84535e-07
-4.48077e-08
8.90323e-07
-5.33379e-08
8.95681e-07
-6.22075e-08
9.00439e-07
-7.136e-08
9.04406e-07
-8.07683e-08
9.07353e-07
-9.03981e-08
9.09003e-07
-1.00173e-07
9.09062e-07
-1.09947e-07
9.07253e-07
-1.19498e-07
-1.28534e-07
9.03384e-07
1.0401e-06
-1.71423e-09
1.04093e-06
-5.27936e-09
1.04258e-06
-9.48485e-09
1.04529e-06
-1.46288e-08
1.04918e-06
-2.06865e-08
1.05412e-06
-2.75164e-08
1.05979e-06
-3.49244e-08
1.06578e-06
-4.2717e-08
1.07172e-06
-5.0745e-08
1.07729e-06
-5.89131e-08
1.08225e-06
-6.71705e-08
1.08639e-06
-7.54913e-08
1.08947e-06
-8.38511e-08
1.09127e-06
-9.2203e-08
1.09156e-06
-1.0046e-07
1.0901e-06
-1.08489e-07
1.08672e-06
-1.1611e-07
-1.2312e-07
1.0813e-06
1.2679e-06
-1.9396e-09
1.26873e-06
-6.10172e-09
1.27029e-06
-1.10524e-08
1.27278e-06
-1.71166e-08
1.27628e-06
-2.41856e-08
1.28068e-06
-3.1916e-08
1.28569e-06
-3.99325e-08
1.29092e-06
-4.79526e-08
1.296e-06
-5.58231e-08
1.30058e-06
-6.34917e-08
1.30437e-06
-7.09597e-08
1.30712e-06
-7.82414e-08
1.30861e-06
-8.53369e-08
1.30862e-06
-9.22165e-08
1.30697e-06
-9.88148e-08
1.30352e-06
-1.05034e-07
1.29816e-06
-1.10752e-07
-1.15843e-07
1.29088e-06
1.54552e-06
-2.1428e-09
1.54618e-06
-6.75653e-09
1.54736e-06
-1.22362e-08
1.54917e-06
-1.89301e-08
1.55167e-06
-2.66815e-08
1.55476e-06
-3.50106e-08
1.55823e-06
-4.33953e-08
1.56173e-06
-5.1459e-08
1.56493e-06
-5.90198e-08
1.56748e-06
-6.60443e-08
1.5691e-06
-7.25743e-08
1.56952e-06
-7.86692e-08
1.56856e-06
-8.43708e-08
1.56603e-06
-8.96896e-08
1.56182e-06
-9.46035e-08
1.55585e-06
-9.90648e-08
1.54811e-06
-1.03011e-07
-1.06381e-07
1.53865e-06
1.88386e-06
-2.23647e-09
1.88412e-06
-7.01786e-09
1.88455e-06
-1.26696e-08
1.88518e-06
-1.95613e-08
1.88603e-06
-2.75285e-08
1.88704e-06
-3.60215e-08
1.88806e-06
-4.44136e-08
1.88884e-06
-5.22415e-08
1.8891e-06
-5.92802e-08
1.88856e-06
-6.54972e-08
1.88695e-06
-7.09652e-08
1.88407e-06
-7.57893e-08
1.87976e-06
-8.00625e-08
1.87392e-06
-8.38472e-08
1.86649e-06
-8.71734e-08
1.85747e-06
-9.00457e-08
1.84691e-06
-9.24528e-08
-9.43815e-08
1.83491e-06
2.2962e-06
-2.09952e-09
2.29579e-06
-6.60805e-09
2.2951e-06
-1.19822e-08
2.29413e-06
-1.85943e-08
2.2929e-06
-2.62945e-08
2.29137e-06
-3.4497e-08
2.28945e-06
-4.24893e-08
2.28693e-06
-4.97265e-08
2.2836e-06
-5.59435e-08
2.27921e-06
-6.11134e-08
2.2736e-06
-6.53481e-08
2.26662e-06
-6.88077e-08
2.2582e-06
-7.16438e-08
2.24832e-06
-7.39737e-08
2.23703e-06
-7.58763e-08
2.22438e-06
-7.73978e-08
2.21049e-06
-7.85625e-08
-7.93837e-08
2.19549e-06
1.68079e-06
-1.81839e-09
1.68006e-06
-5.87589e-09
1.67896e-06
-1.08883e-08
1.67754e-06
-1.71759e-08
1.67584e-06
-2.45872e-08
1.67382e-06
-3.24828e-08
1.67139e-06
-4.00596e-08
1.66838e-06
-4.67127e-08
1.66461e-06
-5.21718e-08
1.65994e-06
-5.64464e-08
1.6543e-06
-5.97043e-08
1.64765e-06
-6.21624e-08
1.64003e-06
-6.40195e-08
1.63148e-06
-6.54278e-08
1.6221e-06
-6.64898e-08
1.61196e-06
-6.72674e-08
1.6012e-06
-6.7794e-08
-6.80864e-08
1.5899e-06
1.463e-06
-1.3647e-09
1.46203e-06
-4.90289e-09
1.46075e-06
-9.6039e-09
1.45922e-06
-1.56456e-08
1.4575e-06
-2.28739e-08
1.45556e-06
-3.05419e-08
1.45322e-06
-3.77135e-08
1.45024e-06
-4.37334e-08
1.44643e-06
-4.83647e-08
1.44168e-06
-5.1695e-08
1.43595e-06
-5.39771e-08
1.42928e-06
-5.54967e-08
1.42176e-06
-5.64971e-08
1.41349e-06
-5.71536e-08
1.40458e-06
-5.75774e-08
1.39514e-06
-5.78303e-08
1.38529e-06
-5.79416e-08
-5.79209e-08
1.37512e-06
1.27328e-06
-6.34755e-10
1.27213e-06
-3.74656e-09
1.27082e-06
-8.29803e-09
1.2694e-06
-1.42209e-08
1.26793e-06
-2.14084e-08
1.26632e-06
-2.8932e-08
1.26429e-06
-3.56827e-08
1.26154e-06
-4.09858e-08
1.25787e-06
-4.46914e-08
1.25319e-06
-4.70108e-08
1.24752e-06
-4.83074e-08
1.24096e-06
-4.89394e-08
1.23364e-06
-4.91839e-08
1.22571e-06
-4.92231e-08
1.2173e-06
-4.91602e-08
1.20851e-06
-4.90441e-08
1.19946e-06
-4.88898e-08
-4.86942e-08
1.19023e-06
1.10794e-06
5.18161e-10
1.10666e-06
-2.47101e-09
1.10548e-06
-7.11518e-09
1.1043e-06
-1.3038e-08
1.10318e-06
-2.02938e-08
1.10193e-06
-2.76829e-08
1.10017e-06
-3.39169e-08
1.09755e-06
-3.83665e-08
1.09389e-06
-4.10326e-08
1.08917e-06
-4.22901e-08
1.08349e-06
-4.26235e-08
1.077e-06
-4.24515e-08
1.06988e-06
-4.20627e-08
1.06228e-06
-4.16239e-08
1.05433e-06
-4.12142e-08
1.04615e-06
-4.08586e-08
1.03781e-06
-4.05527e-08
-4.02782e-08
1.02939e-06
9.63802e-07
2.23778e-09
9.62514e-07
-1.18332e-09
9.61602e-07
-6.20255e-09
9.60768e-07
-1.22043e-08
9.60033e-07
-1.95592e-08
9.59051e-07
-2.67002e-08
9.57352e-07
-3.22179e-08
9.54616e-07
-3.56304e-08
9.50737e-07
-3.71538e-08
9.45795e-07
-3.73483e-08
9.39976e-07
-3.6805e-08
9.33494e-07
-3.59689e-08
9.26538e-07
-3.51069e-08
9.1926e-07
-3.43463e-08
9.11774e-07
-3.37281e-08
9.04164e-07
-3.3248e-08
8.96492e-07
-3.28811e-08
-3.25959e-08
8.8881e-07
8.37976e-07
4.79738e-09
8.36966e-07
-1.73487e-10
8.36524e-07
-5.761e-09
8.36137e-07
-1.18173e-08
8.35752e-07
-1.91741e-08
8.34846e-07
-2.57936e-08
8.3292e-07
-3.02929e-08
8.29756e-07
-3.24659e-08
8.25396e-07
-3.27937e-08
8.20058e-07
-3.20101e-08
8.14014e-07
-3.07616e-08
8.0751e-07
-2.94647e-08
8.00728e-07
-2.83248e-08
7.93791e-07
-2.74098e-08
7.8678e-07
-2.67164e-08
7.79743e-07
-2.62115e-08
7.72716e-07
-2.58541e-08
-2.56045e-08
7.65725e-07
7.27552e-07
8.97369e-09
7.27587e-07
-2.08059e-10
7.27936e-07
-6.11057e-09
7.28097e-07
-1.19777e-08
7.27959e-07
-1.9036e-08
7.26834e-07
-2.46686e-08
7.24307e-07
-2.77664e-08
7.20372e-07
-2.85304e-08
7.15293e-07
-2.77152e-08
7.09442e-07
-2.61592e-08
7.03153e-07
-2.44721e-08
6.9666e-07
-2.29718e-08
6.90104e-07
-2.17685e-08
6.83557e-07
-2.08631e-08
6.77052e-07
-2.02118e-08
6.70603e-07
-1.97619e-08
6.64214e-07
-1.94648e-08
-1.92786e-08
6.57888e-07
6.30214e-07
1.57668e-08
6.32461e-07
-2.45564e-09
6.33835e-07
-7.48481e-09
6.346e-07
-1.27422e-08
6.34488e-07
-1.89241e-08
6.32706e-07
-2.28863e-08
6.29107e-07
-2.41679e-08
6.24047e-07
-2.34705e-08
6.18073e-07
-2.17413e-08
6.11684e-07
-1.977e-08
6.05211e-07
-1.79989e-08
5.98822e-07
-1.65828e-08
5.92579e-07
-1.55252e-08
5.86487e-07
-1.47712e-08
5.80528e-07
-1.42536e-08
5.7468e-07
-1.3914e-08
5.68923e-07
-1.37071e-08
-1.35973e-08
5.63242e-07
5.47181e-07
2.31324e-08
5.51742e-07
-7.01673e-09
5.53152e-07
-8.89494e-09
5.54052e-07
-1.36418e-08
5.53311e-07
-1.81834e-08
5.50091e-07
-1.9666e-08
5.44774e-07
-1.88511e-08
5.38232e-07
-1.69283e-08
5.31281e-07
-1.47902e-08
5.2444e-07
-1.29289e-08
5.17929e-07
-1.1488e-08
5.11783e-07
-1.04375e-08
5.05959e-07
-9.70135e-09
5.00391e-07
-9.20274e-09
4.95015e-07
-8.87716e-09
4.89778e-07
-8.67784e-09
4.84644e-07
-8.57228e-09
-8.53854e-09
4.79585e-07
4.91475e-07
1.44176e-08
4.90728e-07
-6.26904e-09
4.87461e-07
-5.62803e-09
4.85799e-07
-1.19798e-08
4.81969e-07
-1.43536e-08
4.754e-07
-1.30966e-08
4.67276e-07
-1.07272e-08
4.58899e-07
-8.55159e-09
4.51059e-07
-6.94994e-09
4.44011e-07
-5.88116e-09
4.37704e-07
-5.18098e-09
4.31985e-07
-4.71854e-09
4.26701e-07
-4.41712e-09
4.21725e-07
-4.22724e-09
4.16963e-07
-4.11487e-09
4.12346e-07
-4.06033e-09
4.07826e-07
-4.05252e-09
-4.11018e-09
4.03397e-07
4.34685e-07
4.28416e-07
4.22788e-07
4.10808e-07
3.96455e-07
3.83358e-07
3.72631e-07
3.64079e-07
3.57129e-07
3.51248e-07
3.46067e-07
3.41349e-07
3.36932e-07
3.32704e-07
3.28589e-07
3.24529e-07
3.20477e-07
3.16366e-07
-7.90034e-09
7.90034e-09
-1.05313e-08
2.63097e-09
-9.5181e-09
-1.01321e-09
-5.76876e-09
-3.74934e-09
3.59926e-12
-5.77235e-09
7.2707e-09
-7.2671e-09
1.56335e-08
-8.36284e-09
2.47846e-08
-9.15108e-09
3.44892e-08
-9.70456e-09
4.45704e-08
-1.00812e-08
5.48971e-08
-1.03268e-08
6.53745e-08
-1.04773e-08
7.59354e-08
-1.05609e-08
8.65343e-08
-1.05989e-08
9.71415e-08
-1.06072e-08
1.07739e-07
-1.05971e-08
1.18314e-07
-1.05759e-08
1.28863e-07
-1.05481e-08
1.39378e-07
-1.05156e-08
1.49857e-07
-1.04788e-08
1.60294e-07
-1.04369e-08
1.70682e-07
-1.03884e-08
1.81014e-07
-1.03316e-08
1.91279e-07
-1.02647e-08
2.01465e-07
-1.01862e-08
2.1156e-07
-1.00948e-08
2.21549e-07
-9.98959e-09
2.31419e-07
-9.87006e-09
2.41155e-07
-9.73607e-09
2.50743e-07
-9.58782e-09
2.60169e-07
-9.42582e-09
2.6942e-07
-9.2508e-09
2.78484e-07
-9.06373e-09
2.87349e-07
-8.8657e-09
2.96007e-07
-8.65791e-09
3.04449e-07
-8.44165e-09
3.12667e-07
-8.21819e-09
3.20656e-07
-7.98884e-09
3.28411e-07
-7.75484e-09
3.35928e-07
-7.51744e-09
3.43206e-07
-7.27777e-09
3.50243e-07
-7.03692e-09
3.57039e-07
-6.79588e-09
3.63594e-07
-6.55559e-09
3.69911e-07
-6.31685e-09
3.75992e-07
-6.08042e-09
3.81839e-07
-5.84694e-09
3.87456e-07
-5.61699e-09
3.92847e-07
-5.39106e-09
3.98016e-07
-5.16957e-09
4.02969e-07
-4.95288e-09
4.0771e-07
-4.74126e-09
4.12245e-07
-4.53495e-09
4.16579e-07
-4.33414e-09
4.20718e-07
-4.13894e-09
4.24668e-07
-3.94945e-09
4.28434e-07
-3.76572e-09
4.32021e-07
-3.58776e-09
4.35437e-07
-3.41558e-09
4.38686e-07
-3.24913e-09
4.41774e-07
-3.08837e-09
4.44708e-07
-2.93322e-09
4.47491e-07
-2.78359e-09
4.50131e-07
-2.6394e-09
4.52631e-07
-2.50053e-09
4.54998e-07
-2.36686e-09
4.57236e-07
-2.23829e-09
4.59351e-07
-2.11467e-09
4.61347e-07
-1.99589e-09
4.63229e-07
-1.8818e-09
4.65001e-07
-1.77228e-09
4.66668e-07
-1.66717e-09
4.68234e-07
-1.56635e-09
4.69704e-07
-1.46968e-09
4.71081e-07
-1.37701e-09
4.72369e-07
-1.28822e-09
4.73573e-07
-1.20316e-09
4.74694e-07
-1.1217e-09
4.75738e-07
-1.04369e-09
4.76707e-07
-9.69028e-10
4.77604e-07
-8.97559e-10
4.78434e-07
-8.29159e-10
4.79197e-07
-7.63707e-10
4.79898e-07
-7.0107e-10
4.8054e-07
-6.41128e-10
4.81123e-07
-5.83754e-10
4.81652e-07
-5.28849e-10
4.82128e-07
-4.76298e-10
4.82554e-07
-4.26018e-10
4.82932e-07
-3.7792e-10
4.83264e-07
-3.31904e-10
4.83552e-07
-2.87869e-10
4.83798e-07
-2.45677e-10
4.84003e-07
-2.05196e-10
4.84169e-07
-1.66264e-10
4.84298e-07
-1.2876e-10
4.84391e-07
-9.24991e-11
4.84448e-07
-5.7134e-11
4.84469e-07
-2.14189e-11
4.84454e-07
1.53213e-11
4.84403e-07
5.07371e-11
4.84321e-07
8.24747e-11
4.8421e-07
1.10508e-10
4.84074e-07
1.357e-10
4.83916e-07
1.58792e-10
4.83735e-07
1.80332e-10
4.83535e-07
2.00653e-10
4.83315e-07
2.19973e-10
4.83076e-07
2.38416e-10
4.8282e-07
2.56065e-10
4.82547e-07
2.72976e-10
4.82258e-07
2.89188e-10
4.81953e-07
3.0473e-10
4.81634e-07
3.19642e-10
4.813e-07
3.33955e-10
4.80952e-07
3.47707e-10
4.80591e-07
3.6092e-10
4.80217e-07
3.7365e-10
4.79831e-07
3.85902e-10
4.79434e-07
3.9773e-10
4.79025e-07
4.0913e-10
4.78605e-07
4.20133e-10
4.78174e-07
4.30731e-10
4.77733e-07
4.40938e-10
4.77282e-07
4.50747e-10
4.76822e-07
4.60166e-10
4.76353e-07
4.69235e-10
4.75875e-07
4.7797e-10
4.75388e-07
4.86428e-10
4.74894e-07
4.9467e-10
4.74391e-07
5.02741e-10
4.7388e-07
5.10719e-10
4.73362e-07
5.1864e-10
4.72835e-07
5.26567e-10
4.723e-07
5.34535e-10
4.71758e-07
5.42577e-10
4.71207e-07
5.50697e-10
4.70648e-07
5.58922e-10
4.70081e-07
5.6722e-10
4.69505e-07
5.75574e-10
4.68921e-07
5.83955e-10
4.68329e-07
5.92328e-10
4.67728e-07
6.00677e-10
4.67119e-07
6.08975e-10
4.66502e-07
6.17224e-10
4.65877e-07
6.25425e-10
4.65243e-07
6.33594e-10
4.64602e-07
6.41743e-10
4.63952e-07
6.49888e-10
4.63294e-07
6.5804e-10
4.62627e-07
6.66212e-10
4.61953e-07
6.74441e-10
4.6127e-07
6.82764e-10
4.60579e-07
6.91215e-10
4.59879e-07
6.99865e-10
4.5917e-07
7.08782e-10
4.58452e-07
7.18065e-10
4.57724e-07
7.27818e-10
4.56986e-07
7.38189e-10
4.56237e-07
7.4936e-10
4.55475e-07
7.61578e-10
4.547e-07
7.75148e-10
4.5391e-07
7.90491e-10
4.53102e-07
8.08148e-10
4.52273e-07
8.28859e-10
4.51419e-07
8.53617e-10
4.50535e-07
8.83763e-10
4.49614e-07
9.21181e-10
4.48646e-07
9.68516e-10
4.47616e-07
1.02958e-09
4.46506e-07
1.11008e-09
4.45287e-07
1.21888e-09
4.43916e-07
1.37055e-09
4.42325e-07
1.59097e-09
4.40394e-07
1.93134e-09
4.37892e-07
2.50176e-09
4.34294e-07
3.59855e-09
4.28405e-07
5.88863e-09
4.16401e-07
1.20045e-08
2.40407e-08
3.9236e-07
2.41243e-09
5.48791e-09
5.71072e-09
-6.6732e-10
9.73946e-09
-5.04195e-09
1.44933e-08
-8.50316e-09
2.00012e-08
-1.12803e-08
2.62491e-08
-1.3515e-08
3.31951e-08
-1.53089e-08
4.07824e-08
-1.67384e-08
4.89451e-08
-1.78672e-08
5.76136e-08
-1.87497e-08
6.67194e-08
-1.94326e-08
7.61973e-08
-1.99552e-08
8.59871e-08
-2.03507e-08
9.60343e-08
-2.06461e-08
1.06291e-07
-2.08635e-08
1.16713e-07
-2.10198e-08
1.27265e-07
-2.11279e-08
1.37914e-07
-2.11967e-08
1.4863e-07
-2.12322e-08
1.59389e-07
-2.12376e-08
1.70167e-07
-2.12144e-08
1.80941e-07
-2.11626e-08
1.91691e-07
-2.10817e-08
2.02397e-07
-2.09706e-08
2.13039e-07
-2.08283e-08
2.23598e-07
-2.0654e-08
2.34056e-07
-2.04473e-08
2.44394e-07
-2.02083e-08
2.54596e-07
-1.99375e-08
2.64644e-07
-1.9636e-08
2.74523e-07
-1.93053e-08
2.8422e-07
-1.89473e-08
2.9372e-07
-1.85642e-08
3.03013e-07
-1.81583e-08
3.12087e-07
-1.77323e-08
3.20934e-07
-1.72888e-08
3.29547e-07
-1.68305e-08
3.37918e-07
-1.63601e-08
3.46043e-07
-1.58802e-08
3.53919e-07
-1.53932e-08
3.61543e-07
-1.49016e-08
3.68913e-07
-1.44074e-08
3.7603e-07
-1.39128e-08
3.82894e-07
-1.34196e-08
3.89507e-07
-1.29296e-08
3.95871e-07
-1.24442e-08
4.01989e-07
-1.19647e-08
4.07864e-07
-1.14924e-08
4.13501e-07
-1.10282e-08
4.18905e-07
-1.05731e-08
4.2408e-07
-1.01278e-08
4.29031e-07
-9.69278e-09
4.33765e-07
-9.26862e-09
4.38286e-07
-8.8557e-09
4.42602e-07
-8.45428e-09
4.46717e-07
-8.06456e-09
4.50638e-07
-7.68666e-09
4.54371e-07
-7.32064e-09
4.57922e-07
-6.96647e-09
4.61297e-07
-6.62412e-09
4.64502e-07
-6.29348e-09
4.67543e-07
-5.97441e-09
4.70426e-07
-5.66673e-09
4.73157e-07
-5.37026e-09
4.75741e-07
-5.08478e-09
4.78184e-07
-4.81007e-09
4.80492e-07
-4.54585e-09
4.82669e-07
-4.29188e-09
4.84721e-07
-4.04788e-09
4.86653e-07
-3.81358e-09
4.88469e-07
-3.58871e-09
4.90175e-07
-3.37297e-09
4.91775e-07
-3.16608e-09
4.93273e-07
-2.96775e-09
4.94674e-07
-2.77771e-09
4.95981e-07
-2.59566e-09
4.97199e-07
-2.42133e-09
4.98332e-07
-2.25443e-09
4.99383e-07
-2.0947e-09
5.00356e-07
-1.94185e-09
5.01254e-07
-1.79563e-09
5.0208e-07
-1.65577e-09
5.02839e-07
-1.52201e-09
5.03532e-07
-1.39409e-09
5.04162e-07
-1.27177e-09
5.04733e-07
-1.1548e-09
5.05248e-07
-1.04297e-09
5.05707e-07
-9.36028e-10
5.06115e-07
-8.33798e-10
5.06473e-07
-7.36062e-10
5.06784e-07
-6.42625e-10
5.07049e-07
-5.5327e-10
5.07271e-07
-4.67769e-10
5.07452e-07
-3.85883e-10
5.07593e-07
-3.0739e-10
5.07697e-07
-2.32095e-10
5.07764e-07
-1.59816e-10
5.07797e-07
-9.04123e-11
5.07799e-07
-2.36498e-11
5.07774e-07
4.07534e-11
5.07722e-07
1.02758e-10
5.07643e-07
1.61636e-10
5.07536e-07
2.16786e-10
5.07404e-07
2.68241e-10
5.07246e-07
3.16384e-10
5.07065e-07
3.6166e-10
5.06861e-07
4.04455e-10
5.06636e-07
4.4508e-10
5.06391e-07
4.83758e-10
5.06126e-07
5.20677e-10
5.05843e-07
5.55956e-10
5.05543e-07
5.8971e-10
5.05225e-07
6.22023e-10
5.04892e-07
6.52991e-10
5.04543e-07
6.82663e-10
5.0418e-07
7.11138e-10
5.03802e-07
7.38477e-10
5.03411e-07
7.64745e-10
5.03007e-07
7.90021e-10
5.0259e-07
8.14363e-10
5.02162e-07
8.37819e-10
5.01721e-07
8.60431e-10
5.0127e-07
8.82225e-10
5.00808e-07
9.03224e-10
5.00335e-07
9.23453e-10
4.99852e-07
9.42931e-10
4.9936e-07
9.6169e-10
4.98858e-07
9.79796e-10
4.98347e-07
9.9732e-10
4.97827e-07
1.01435e-09
4.97299e-07
1.03097e-09
4.96763e-07
1.0473e-09
4.96218e-07
1.06341e-09
4.95665e-07
1.07941e-09
4.95104e-07
1.09538e-09
4.94535e-07
1.11135e-09
4.93959e-07
1.12741e-09
4.93374e-07
1.14354e-09
4.92781e-07
1.15977e-09
4.92181e-07
1.17607e-09
4.91573e-07
1.19242e-09
4.90956e-07
1.20877e-09
4.90332e-07
1.22508e-09
4.89699e-07
1.24134e-09
4.89059e-07
1.25753e-09
4.88411e-07
1.27366e-09
4.87755e-07
1.28974e-09
4.87091e-07
1.3058e-09
4.86419e-07
1.32186e-09
4.85739e-07
1.33795e-09
4.85051e-07
1.3541e-09
4.84355e-07
1.37039e-09
4.83651e-07
1.38685e-09
4.82938e-07
1.4036e-09
4.82217e-07
1.42073e-09
4.81488e-07
1.4384e-09
4.80749e-07
1.45676e-09
4.80001e-07
1.47605e-09
4.79243e-07
1.49653e-09
4.78473e-07
1.51858e-09
4.77692e-07
1.54265e-09
4.76898e-07
1.56934e-09
4.76089e-07
1.59945e-09
4.75263e-07
1.63405e-09
4.74418e-07
1.67452e-09
4.73548e-07
1.72276e-09
4.72651e-07
1.78133e-09
4.71718e-07
1.85379e-09
4.70742e-07
1.94509e-09
4.69709e-07
2.06233e-09
4.68603e-07
2.21598e-09
4.674e-07
2.42198e-09
4.66065e-07
2.70598e-09
4.64544e-07
3.11169e-09
4.62754e-07
3.72093e-09
4.60559e-07
4.69729e-09
4.5772e-07
6.43677e-09
4.53846e-07
9.76302e-09
4.48261e-07
1.75895e-08
3.29979e-08
4.39304e-07
7.04178e-09
-1.55387e-09
1.3421e-08
-7.0465e-09
1.93593e-08
-1.09803e-08
2.51522e-08
-1.42961e-08
3.10381e-08
-1.71661e-08
3.71798e-08
-1.96567e-08
4.36822e-08
-2.18113e-08
5.06078e-08
-2.3664e-08
5.79872e-08
-2.52466e-08
6.58269e-08
-2.65895e-08
7.41158e-08
-2.77214e-08
8.28299e-08
-2.86693e-08
9.19368e-08
-2.94576e-08
1.01398e-07
-3.01078e-08
1.11174e-07
-3.06387e-08
1.2122e-07
-3.10663e-08
1.31496e-07
-3.14035e-08
1.41959e-07
-3.16602e-08
1.52571e-07
-3.18442e-08
1.63295e-07
-3.19608e-08
1.74094e-07
-3.20135e-08
1.84936e-07
-3.20047e-08
1.9579e-07
-3.19358e-08
2.06627e-07
-3.18076e-08
2.1742e-07
-3.16211e-08
2.28143e-07
-3.1377e-08
2.38772e-07
-3.10766e-08
2.49285e-07
-3.07217e-08
2.59662e-07
-3.03145e-08
2.69884e-07
-2.98575e-08
2.79932e-07
-2.9354e-08
2.89793e-07
-2.88076e-08
2.9945e-07
-2.82219e-08
3.08893e-07
-2.76012e-08
3.18111e-07
-2.69495e-08
3.27093e-07
-2.62713e-08
3.35833e-07
-2.55706e-08
3.44325e-07
-2.48516e-08
3.52563e-07
-2.41184e-08
3.60544e-07
-2.33748e-08
3.68267e-07
-2.26242e-08
3.7573e-07
-2.18702e-08
3.82933e-07
-2.11157e-08
3.89877e-07
-2.03636e-08
3.96564e-07
-1.96165e-08
4.02996e-07
-1.88766e-08
4.09177e-07
-1.81459e-08
4.15111e-07
-1.74262e-08
4.20802e-07
-1.67191e-08
4.26255e-07
-1.60258e-08
4.31474e-07
-1.53474e-08
4.36466e-07
-1.46849e-08
4.41237e-07
-1.40389e-08
4.45791e-07
-1.34101e-08
4.50136e-07
-1.27988e-08
4.54277e-07
-1.22054e-08
4.5822e-07
-1.16301e-08
4.61972e-07
-1.10728e-08
4.65539e-07
-1.05337e-08
4.68928e-07
-1.00126e-08
4.72144e-07
-9.50931e-09
4.75193e-07
-9.02373e-09
4.78082e-07
-8.55556e-09
4.80816e-07
-8.1045e-09
4.83401e-07
-7.67022e-09
4.85844e-07
-7.25236e-09
4.88148e-07
-6.85054e-09
4.90321e-07
-6.46437e-09
4.92366e-07
-6.09343e-09
4.9429e-07
-5.73729e-09
4.96097e-07
-5.39555e-09
4.97792e-07
-5.06775e-09
4.99379e-07
-4.75345e-09
5.00864e-07
-4.45224e-09
5.0225e-07
-4.16366e-09
5.03541e-07
-3.88729e-09
5.04743e-07
-3.62271e-09
5.05858e-07
-3.36948e-09
5.0689e-07
-3.12719e-09
5.07844e-07
-2.89543e-09
5.08722e-07
-2.67378e-09
5.09528e-07
-2.46186e-09
5.10265e-07
-2.25927e-09
5.10937e-07
-2.06562e-09
5.11546e-07
-1.88055e-09
5.12094e-07
-1.70367e-09
5.12586e-07
-1.53465e-09
5.13023e-07
-1.37315e-09
5.13408e-07
-1.21883e-09
5.13744e-07
-1.07139e-09
5.14031e-07
-9.30513e-10
5.14274e-07
-7.9588e-10
5.14473e-07
-6.67175e-10
5.14632e-07
-5.44079e-10
5.14751e-07
-4.26317e-10
5.14832e-07
-3.13639e-10
5.14878e-07
-2.05841e-10
5.14891e-07
-1.02763e-10
5.14871e-07
-4.3002e-12
5.14822e-07
8.97582e-11
5.14745e-07
1.79614e-10
5.14642e-07
2.65195e-10
5.14512e-07
3.46281e-10
5.14358e-07
4.22863e-10
5.14179e-07
4.9517e-10
5.13977e-07
5.63548e-10
5.13753e-07
6.28348e-10
5.13508e-07
6.89908e-10
5.13243e-07
7.48503e-10
5.1296e-07
8.04369e-10
5.12658e-07
8.57717e-10
5.12339e-07
9.08704e-10
5.12004e-07
9.57469e-10
5.11652e-07
1.00416e-09
5.11286e-07
1.04888e-09
5.10906e-07
1.09176e-09
5.10511e-07
1.13289e-09
5.10104e-07
1.17241e-09
5.09683e-07
1.21038e-09
5.09251e-07
1.24693e-09
5.08806e-07
1.28212e-09
5.08351e-07
1.31604e-09
5.07884e-07
1.34872e-09
5.07407e-07
1.38024e-09
5.0692e-07
1.4106e-09
5.06423e-07
1.43989e-09
5.05917e-07
1.46815e-09
5.05401e-07
1.49546e-09
5.04876e-07
1.52191e-09
5.04343e-07
1.54762e-09
5.03801e-07
1.57269e-09
5.03251e-07
1.59727e-09
5.02693e-07
1.62148e-09
5.02127e-07
1.64542e-09
5.01553e-07
1.6692e-09
5.00972e-07
1.69291e-09
5.00383e-07
1.71662e-09
4.99786e-07
1.74037e-09
4.99181e-07
1.76416e-09
4.9857e-07
1.78801e-09
4.9795e-07
1.81189e-09
4.97323e-07
1.83576e-09
4.96689e-07
1.85959e-09
4.96047e-07
1.88336e-09
4.95397e-07
1.90706e-09
4.9474e-07
1.9307e-09
4.94075e-07
1.95429e-09
4.93403e-07
1.97787e-09
4.92724e-07
2.00148e-09
4.92037e-07
2.02517e-09
4.91342e-07
2.04899e-09
4.90639e-07
2.07302e-09
4.89928e-07
2.09736e-09
4.8921e-07
2.12215e-09
4.88483e-07
2.14754e-09
4.87748e-07
2.17375e-09
4.87004e-07
2.20102e-09
4.8625e-07
2.2297e-09
4.85486e-07
2.2602e-09
4.84712e-07
2.29306e-09
4.83925e-07
2.32897e-09
4.83126e-07
2.36884e-09
4.82311e-07
2.41388e-09
4.8148e-07
2.46565e-09
4.80628e-07
2.52626e-09
4.79752e-07
2.59853e-09
4.78847e-07
2.68631e-09
4.77906e-07
2.79485e-09
4.7692e-07
2.93149e-09
4.75876e-07
3.10671e-09
4.74756e-07
3.33576e-09
4.73536e-07
3.64171e-09
4.72181e-07
4.06091e-09
4.70639e-07
4.65389e-09
4.68831e-07
5.52902e-09
4.66636e-07
6.89223e-09
4.63881e-07
9.19162e-09
4.60333e-07
1.33113e-08
4.56187e-07
2.17348e-08
3.69923e-08
4.52193e-07
8.19949e-09
-9.75336e-09
1.58188e-08
-1.46658e-08
2.28101e-08
-1.79717e-08
2.9423e-08
-2.09089e-08
3.588e-08
-2.36231e-08
4.23555e-08
-2.61322e-08
4.89822e-08
-2.8438e-08
5.58595e-08
-3.05413e-08
6.30581e-08
-3.24452e-08
7.06244e-08
-3.41558e-08
7.85844e-08
-3.56814e-08
8.69467e-08
-3.70317e-08
9.57061e-08
-3.82169e-08
1.04846e-07
-3.92474e-08
1.1434e-07
-4.01328e-08
1.24156e-07
-4.08823e-08
1.34256e-07
-4.1504e-08
1.44601e-07
-4.20052e-08
1.55149e-07
-4.23918e-08
1.65857e-07
-4.26689e-08
1.76684e-07
-4.28408e-08
1.87591e-07
-4.29111e-08
1.98538e-07
-4.28829e-08
2.09489e-07
-4.27594e-08
2.20412e-07
-4.25437e-08
2.31274e-07
-4.22391e-08
2.42047e-07
-4.18495e-08
2.52704e-07
-4.13789e-08
2.63222e-07
-4.0832e-08
2.73578e-07
-4.02139e-08
2.83754e-07
-3.953e-08
2.93733e-07
-3.87861e-08
3.03499e-07
-3.79883e-08
3.1304e-07
-3.71425e-08
3.22346e-07
-3.6255e-08
3.31406e-07
-3.53318e-08
3.40215e-07
-3.4379e-08
3.48765e-07
-3.34023e-08
3.57054e-07
-3.24071e-08
3.65078e-07
-3.13987e-08
3.72836e-07
-3.03818e-08
3.80326e-07
-2.93611e-08
3.87551e-07
-2.83406e-08
3.94512e-07
-2.73241e-08
4.0121e-07
-2.63149e-08
4.0765e-07
-2.53161e-08
4.13834e-07
-2.43302e-08
4.19768e-07
-2.33597e-08
4.25455e-07
-2.24064e-08
4.30901e-07
-2.14722e-08
4.36112e-07
-2.05584e-08
4.41094e-07
-1.96662e-08
4.45851e-07
-1.87966e-08
4.50391e-07
-1.79502e-08
4.5472e-07
-1.71276e-08
4.58844e-07
-1.63293e-08
4.62769e-07
-1.55553e-08
4.66502e-07
-1.48058e-08
4.70049e-07
-1.40809e-08
4.73417e-07
-1.33802e-08
4.76612e-07
-1.27037e-08
4.79639e-07
-1.2051e-08
4.82505e-07
-1.14219e-08
4.85216e-07
-1.08158e-08
4.87778e-07
-1.02323e-08
4.90197e-07
-9.67097e-09
4.92478e-07
-9.13128e-09
4.94626e-07
-8.61267e-09
4.96647e-07
-8.11459e-09
4.98546e-07
-7.63646e-09
5.00329e-07
-7.17772e-09
5.01999e-07
-6.73776e-09
5.03561e-07
-6.31601e-09
5.05021e-07
-5.91188e-09
5.06382e-07
-5.52477e-09
5.07649e-07
-5.1541e-09
5.08825e-07
-4.79932e-09
5.09916e-07
-4.45983e-09
5.10924e-07
-4.13508e-09
5.11853e-07
-3.82451e-09
5.12707e-07
-3.5276e-09
5.13488e-07
-3.24378e-09
5.14202e-07
-2.97254e-09
5.14849e-07
-2.71338e-09
5.15435e-07
-2.46577e-09
5.1596e-07
-2.22924e-09
5.16429e-07
-2.00331e-09
5.16843e-07
-1.78754e-09
5.17206e-07
-1.58145e-09
5.17519e-07
-1.38464e-09
5.17785e-07
-1.19669e-09
5.18007e-07
-1.01717e-09
5.18185e-07
-8.4568e-10
5.18323e-07
-6.81843e-10
5.18422e-07
-5.25315e-10
5.18484e-07
-3.75775e-10
5.18511e-07
-2.32963e-10
5.18505e-07
-9.66717e-11
5.18467e-07
3.32707e-11
5.184e-07
1.57101e-10
5.18305e-07
2.75066e-10
5.18183e-07
3.87347e-10
5.18035e-07
4.94007e-10
5.17863e-07
5.95153e-10
5.17667e-07
6.91038e-10
5.17448e-07
7.81967e-10
5.17208e-07
8.68298e-10
5.16948e-07
9.50365e-10
5.16668e-07
1.0285e-09
5.16369e-07
1.10297e-09
5.16053e-07
1.17404e-09
5.1572e-07
1.24193e-09
5.1537e-07
1.30683e-09
5.15006e-07
1.36892e-09
5.14626e-07
1.42837e-09
5.14232e-07
1.48534e-09
5.13825e-07
1.53997e-09
5.13405e-07
1.5924e-09
5.12973e-07
1.64279e-09
5.12529e-07
1.69125e-09
5.12073e-07
1.73788e-09
5.11606e-07
1.78282e-09
5.11129e-07
1.82611e-09
5.10641e-07
1.86786e-09
5.10144e-07
1.90813e-09