/*--------------------------------*- C++ -*----------------------------------*\
  =========                 |
  \\      /  F ield         | OpenFOAM: The Open Source CFD Toolbox
   \\    /   O peration     | Website:  https://openfoam.org
    \\  /    A nd           | Version:  6
     \\/     M anipulation  |
\*---------------------------------------------------------------------------*/
FoamFile
{
    version     2.0;
    format      ascii;
    class       volVectorField;
    location    "0.01";
    object      U;
}
// * * * * * * * * * * * * * * * * * * * * * * * * * * * * * * * * * * * * * //

dimensions      [0 1 -1 0 0 0 0];

internalField   nonuniform List<vector> 
12225
(
(0.948958 -0.404127 0)
(1.01345 -0.189063 0)
(1.01584 -0.0500766 0)
(0.98124 -0.00305255 0)
(0.944739 0.0073954 0)
(0.915727 0.00693687 0)
(0.895415 0.00425114 0)
(0.883673 0.00186949 0)
(0.879117 0.000310068 0)
(0.879445 -0.000708311 0)
(0.884283 -0.00163848 0)
(0.893637 -0.00266643 0)
(0.907609 -0.00387028 0)
(0.926991 -0.00534846 0)
(0.953101 -0.0075998 0)
(0.991488 -0.0105277 0)
(1.04801 -0.021327 0)
(1.16847 -0.0298355 0)
(1.0366 0.0759578 0)
(1.02012 0.0527949 0)
(1.01365 0.019255 0)
(1.00856 0.0103979 0)
(1.00077 0.00974574 0)
(0.988737 0.00880608 0)
(0.975034 0.00656626 0)
(0.963942 0.00382982 0)
(0.957975 0.00124436 0)
(0.957926 -0.0011194 0)
(0.963017 -0.00346971 0)
(0.972683 -0.00595543 0)
(0.986896 -0.00879404 0)
(1.00632 -0.0123731 0)
(1.03224 -0.0176169 0)
(1.06857 -0.0262664 0)
(1.11874 -0.0460347 0)
(1.19446 -0.0928738 0)
(0.99826 0.0124952 0)
(0.995817 0.0109387 0)
(1.00277 0.00589748 0)
(1.0056 0.00763635 0)
(1.00538 0.0102579 0)
(1.00193 0.0106484 0)
(0.996076 0.00874277 0)
(0.990699 0.00546726 0)
(0.98826 0.00171827 0)
(0.989937 -0.0020699 0)
(0.995823 -0.00587827 0)
(1.00581 -0.00989796 0)
(1.02 -0.0145055 0)
(1.039 -0.0203363 0)
(1.06384 -0.0287118 0)
(1.09698 -0.0421499 0)
(1.13923 -0.0682227 0)
(1.19245 -0.11842 0)
(0.99516 -0.00717652 0)
(0.993045 0.000470271 0)
(1.00028 0.00322827 0)
(1.00408 0.00674748 0)
(1.00636 0.0101576 0)
(1.00724 0.0112496 0)
(1.00644 0.00962289 0)
(1.00548 0.00600901 0)
(1.00618 0.00137979 0)
(1.00972 -0.00362479 0)
(1.01655 -0.00882992 0)
(1.02688 -0.0144142 0)
(1.04095 -0.0208524 0)
(1.05927 -0.0289663 0)
(1.08255 -0.0403188 0)
(1.11206 -0.0576592 0)
(1.1472 -0.087317 0)
(1.18585 -0.137221 0)
(0.996724 -0.00711368 0)
(0.994363 -0.000100075 0)
(0.999559 0.00270468 0)
(1.00314 0.00587364 0)
(1.00661 0.00933817 0)
(1.01004 0.0107525 0)
(1.01267 0.00931533 0)
(1.01508 0.00549301 0)
(1.01843 0.000204094 0)
(1.0237 -0.0058168 0)
(1.03149 -0.0122881 0)
(1.04213 -0.0193588 0)
(1.05595 -0.0275532 0)
(1.07333 -0.0377983 0)
(1.09467 -0.0517238 0)
(1.12034 -0.071946 0)
(1.14893 -0.103342 0)
(1.17684 -0.151004 0)
(0.997874 -0.00442022 0)
(0.995676 0.000122623 0)
(0.999297 0.00205662 0)
(1.00264 0.00475241 0)
(1.00679 0.00795957 0)
(1.0118 0.00936374 0)
(1.01677 0.0079552 0)
(1.02169 0.00396135 0)
(1.02718 -0.0018255 0)
(1.03396 -0.00866988 0)
(1.04257 -0.0162371 0)
(1.05344 -0.0246451 0)
(1.06685 -0.034425 0)
(1.08308 -0.0465234 0)
(1.10222 -0.0624892 0)
(1.12404 -0.0845916 0)
(1.14674 -0.116346 0)
(1.16656 -0.160767 0)
(0.9985 -0.00294295 0)
(0.996724 -0.000197971 0)
(0.999368 0.00121726 0)
(1.00252 0.00346802 0)
(1.00706 0.00618288 0)
(1.01303 0.00729022 0)
(1.01956 0.0057237 0)
(1.02629 0.00152593 0)
(1.03341 -0.00466436 0)
(1.04138 -0.0121747 0)
(1.05064 -0.0206646 0)
(1.06157 -0.0302268 0)
(1.07442 -0.0413649 0)
(1.08932 -0.0549732 0)
(1.10614 -0.0724183 0)
(1.12425 -0.0955257 0)
(1.14181 -0.126666 0)
(1.15548 -0.167406 0)
(0.998936 -0.0021934 0)
(0.997634 -0.000615545 0)
(0.999678 0.000379579 0)
(1.0027 0.00208073 0)
(1.00742 0.00410342 0)
(1.01395 0.00468047 0)
(1.02146 0.00277857 0)
(1.02939 -0.00168742 0)
(1.03766 -0.00823281 0)
(1.04646 -0.0162835 0)
(1.05612 -0.0255276 0)
(1.06692 -0.0360393 0)
(1.07904 -0.0482702 0)
(1.09248 -0.0630099 0)
(1.10694 -0.0813864 0)
(1.12163 -0.104768 0)
(1.1348 -0.134631 0)
(1.14379 -0.171609 0)
(0.999286 -0.00167384 0)
(0.998424 -0.000952116 0)
(1.00011 -0.000433883 0)
(1.00303 0.000599923 0)
(1.00783 0.00178223 0)
(1.0146 0.00164967 0)
(1.02263 -0.000739366 0)
(1.03127 -0.00554633 0)
(1.04022 -0.0124243 0)
(1.0495 -0.0209122 0)
(1.05928 -0.0307469 0)
(1.06974 -0.0419897 0)
(1.08097 -0.0550241 0)
(1.09285 -0.0705045 0)
(1.10501 -0.0893027 0)
(1.11658 -0.112369 0)
(1.12609 -0.140526 0)
(1.13152 -0.173846 0)
(0.999552 -0.00128864 0)
(0.999076 -0.00124982 0)
(1.00056 -0.00126169 0)
(1.00342 -0.000974447 0)
(1.00819 -0.000729375 0)
(1.01498 -0.00169892 0)
(1.02316 -0.00469402 0)
(1.03207 -0.00990765 0)
(1.04129 -0.0171067 0)
(1.05069 -0.0259423 0)
(1.0603 -0.0362088 0)
(1.07021 -0.047958 0)
(1.08039 -0.0614985 0)
(1.09067 -0.0773382 0)
(1.10061 -0.0961041 0)
(1.10943 -0.118397 0)
(1.11591 -0.14459 0)
(1.11861 -0.174451 0)
(0.999738 -0.00104356 0)
(0.999584 -0.00156594 0)
(1.00098 -0.00213295 0)
(1.00377 -0.00263587 0)
(1.00843 -0.0033806 0)
(1.01504 -0.00526721 0)
(1.02307 -0.00895133 0)
(1.03188 -0.0146215 0)
(1.04099 -0.0221316 0)
(1.05017 -0.0312339 0)
(1.05934 -0.0417798 0)
(1.06847 -0.0538135 0)
(1.07748 -0.0675692 0)
(1.08614 -0.0834135 0)
(1.09401 -0.101759 0)
(1.10041 -0.122935 0)
(1.10438 -0.147028 0)
(1.10499 -0.173663 0)
(0.99985 -0.000929848 0)
(0.999922 -0.00189204 0)
(1.00127 -0.00297857 0)
(1.00398 -0.00422126 0)
(1.00844 -0.00588541 0)
(1.01473 -0.00864327 0)
(1.02239 -0.0129982 0)
(1.03082 -0.0191104 0)
(1.03954 -0.0268897 0)
(1.04823 -0.0361652 0)
(1.05676 -0.0468356 0)
(1.06502 -0.0589387 0)
(1.07286 -0.0726463 0)
(1.08003 -0.0882106 0)
(1.08614 -0.105885 0)
(1.09061 -0.125817 0)
(1.09271 -0.147935 0)
(1.09182 -0.171826 0)
(0.999927 -0.000897529 0)
(1.00016 -0.00224926 0)
(1.00148 -0.00384977 0)
(1.00406 -0.00582023 0)
(1.00825 -0.00838083 0)
(1.01409 -0.0119995 0)
(1.02121 -0.0170272 0)
(1.02906 -0.0235806 0)
(1.03715 -0.0316051 0)
(1.04516 -0.0409915 0)
(1.05287 -0.0516777 0)
(1.06013 -0.0636968 0)
(1.06675 -0.0771668 0)
(1.07248 -0.0922445 0)
(1.07697 -0.109058 0)
(1.07974 -0.127628 0)
(1.08027 -0.147793 0)
(1.07819 -0.169144 0)
(0.99998 -0.000930251 0)
(1.00033 -0.002693 0)
(1.00157 -0.00486174 0)
(1.00395 -0.00763047 0)
(1.00772 -0.0111632 0)
(1.01291 -0.0157229 0)
(1.01921 -0.0214953 0)
(1.02616 -0.0285324 0)
(1.0333 -0.0367971 0)
(1.04029 -0.0462294 0)
(1.04687 -0.0568024 0)
(1.05286 -0.0685448 0)
(1.05804 -0.0815276 0)
(1.06217 -0.0958253 0)
(1.06496 -0.111467 0)
(1.06607 -0.128384 0)
(1.06513 -0.146371 0)
(1.06196 -0.165063 0)
(1.00001 -0.00102371 0)
(1.0004 -0.00321748 0)
(1.00151 -0.00598462 0)
(1.00355 -0.00957754 0)
(1.00672 -0.0141012 0)
(1.01101 -0.0196264 0)
(1.01619 -0.0261683 0)
(1.02189 -0.0336953 0)
(1.02771 -0.0421637 0)
(1.03331 -0.0515447 0)
(1.03844 -0.0618381 0)
(1.04287 -0.073071 0)
(1.0464 -0.085279 0)
(1.04882 -0.0984778 0)
(1.04989 -0.112632 0)
(1.0494 -0.127626 0)
(1.04712 -0.143252 0)
(1.043 -0.15921 0)
(1.00002 -0.00115805 0)
(1.00038 -0.00377842 0)
(1.00126 -0.00712482 0)
(1.00282 -0.0114923 0)
(1.00518 -0.0169334 0)
(1.00833 -0.0233547 0)
(1.0121 -0.0306084 0)
(1.01622 -0.038565 0)
(1.02036 -0.0471497 0)
(1.02423 -0.0563424 0)
(1.02759 -0.0661586 0)
(1.03022 -0.0766267 0)
(1.03195 -0.0877647 0)
(1.03259 -0.0995588 0)
(1.03199 -0.111947 0)
(1.03002 -0.124808 0)
(1.02657 -0.137963 0)
(1.02167 -0.151185 0)
(1.00002 -0.00129839 0)
(1.00027 -0.00428686 0)
(1.00083 -0.00810903 0)
(1.00178 -0.0130904 0)
(1.00317 -0.0192478 0)
(1.005 -0.0263662 0)
(1.00717 -0.0341581 0)
(1.00948 -0.0423904 0)
(1.01171 -0.0509362 0)
(1.01362 -0.0597617 0)
(1.01502 -0.0688861 0)
(1.01572 -0.0783428 0)
(1.01559 -0.0881505 0)
(1.0145 -0.0982957 0)
(1.01234 -0.108724 0)
(1.00907 -0.119339 0)
(1.00464 -0.13001 0)
(0.99913 -0.140584 0)
(1.00001 -0.00139562 0)
(1.0001 -0.0046088 0)
(1.00027 -0.0086969 0)
(1.00055 -0.0140057 0)
(1.00094 -0.02054 0)
(1.00145 -0.0280135 0)
(1.00201 -0.0360347 0)
(1.00253 -0.0442753 0)
(1.00285 -0.0525444 0)
(1.00281 -0.0607776 0)
(1.00227 -0.0689882 0)
(1.00112 -0.0772175 0)
(0.999233 -0.0855004 0)
(0.996559 -0.0938457 0)
(0.99305 -0.10223 0)
(0.988689 -0.110601 0)
(0.983491 -0.11888 0)
(0.977531 -0.126981 0)
(0.999991 -0.00138821 0)
(0.99988 -0.00457372 0)
(0.999645 -0.00861219 0)
(0.999284 -0.0138584 0)
(0.998805 -0.0203277 0)
(0.998211 -0.0277057 0)
(0.997477 -0.0355324 0)
(0.996537 -0.0434006 0)
(0.995293 -0.0510577 0)
(0.99364 -0.0584061 0)
(0.991485 -0.0654531 0)
(0.98876 -0.0722547 0)
(0.985419 -0.0788734 0)
(0.981443 -0.0853545 0)
(0.976834 -0.0917169 0)
(0.971617 -0.0979541 0)
(0.965831 -0.104039 0)
(0.959547 -0.109935 0)
(0.999973 -0.00125351 0)
(0.999677 -0.00416352 0)
(0.999131 -0.00791035 0)
(0.998376 -0.0128448 0)
(0.997445 -0.0189936 0)
(0.996349 -0.026017 0)
(0.99505 -0.0333905 0)
(0.993462 -0.0406414 0)
(0.991473 -0.0474778 0)
(0.988986 -0.0537951 0)
(0.985933 -0.0596203 0)
(0.982284 -0.0650437 0)
(0.97804 -0.0701672 0)
(0.973227 -0.0750755 0)
(0.967885 -0.0798242 0)
(0.96207 -0.08444 0)
(0.955842 -0.0889262 0)
(0.949273 -0.093271 0)
(0.999943 -0.00102832 0)
(0.999434 -0.00360193 0)
(0.998641 -0.0070732 0)
(0.997665 -0.0117511 0)
(0.996559 -0.0176629 0)
(0.995331 -0.0244125 0)
(0.993905 -0.0313851 0)
(0.992129 -0.0380451 0)
(0.989844 -0.0440869 0)
(0.986939 -0.0494324 0)
(0.983365 -0.0541559 0)
(0.979127 -0.0583987 0)
(0.97427 -0.0623073 0)
(0.968859 -0.0659998 0)
(0.962973 -0.0695567 0)
(0.956688 -0.0730222 0)
(0.950083 -0.0764127 0)
(0.943233 -0.0797257 0)
(0.999871 -0.000671655 0)
(0.999038 -0.00289705 0)
(0.998029 -0.0061587 0)
(0.996951 -0.0106654 0)
(0.995828 -0.0164492 0)
(0.994659 -0.0230078 0)
(0.993292 -0.0295982 0)
(0.991476 -0.0356277 0)
(0.988993 -0.040809 0)
(0.985725 -0.0451289 0)
(0.981656 -0.0487392 0)
(0.976841 -0.0518483 0)
(0.971377 -0.0546486 0)
(0.965373 -0.0572852 0)
(0.958937 -0.0598517 0)
(0.952167 -0.062398 0)
(0.94515 -0.0649422 0)
(0.937965 -0.0674813 0)
(0.999725 -0.000146289 0)
(0.998389 -0.00212019 0)
(0.997234 -0.00527802 0)
(0.996203 -0.00970362 0)
(0.995196 -0.0154693 0)
(0.99419 -0.0218962 0)
(0.992921 -0.028082 0)
(0.991017 -0.0334038 0)
(0.988219 -0.0376379 0)
(0.984438 -0.0408763 0)
(0.979725 -0.0433732 0)
(0.974208 -0.0454087 0)
(0.968042 -0.047213 0)
(0.961378 -0.0489436 0)
(0.954347 -0.0506926 0)
(0.947055 -0.0525031 0)
(0.93959 -0.0543856 0)
(0.932029 -0.0563308 0)
(0.999481 0.00065111 0)
(0.99739 -0.00139493 0)
(0.996279 -0.0045837 0)
(0.995502 -0.00897073 0)
(0.994738 -0.014772 0)
(0.993935 -0.0210455 0)
(0.992667 -0.0267242 0)
(0.990444 -0.0312094 0)
(0.987028 -0.0343963 0)
(0.98243 -0.0365181 0)
(0.976813 -0.0379409 0)
(0.970398 -0.0390053 0)
(0.9634 -0.0399578 0)
(0.956 -0.0409473 0)
(0.948332 -0.0420481 0)
(0.940497 -0.043286 0)
(0.932569 -0.0446582 0)
(0.924614 -0.0461463 0)
(0.998965 0.00234325 0)
(0.995825 -0.000567928 0)
(0.995254 -0.00414365 0)
(0.995066 -0.00855361 0)
(0.994655 -0.0143682 0)
(0.993995 -0.0203502 0)
(0.992453 -0.0253247 0)
(0.989475 -0.0288018 0)
(0.984961 -0.0308535 0)
(0.979122 -0.0318746 0)
(0.972282 -0.0323279 0)
(0.964762 -0.0325815 0)
(0.956818 -0.0328657 0)
(0.948631 -0.0332971 0)
(0.940317 -0.0339184 0)
(0.931949 -0.0347319 0)
(0.923573 -0.0357198 0)
(0.915236 -0.0368556 0)
(0.99747 0.00601037 0)
(0.99316 0.0010591 0)
(0.994233 -0.00364284 0)
(0.9952 -0.00838199 0)
(0.995232 -0.0141732 0)
(0.994478 -0.0196094 0)
(0.992114 -0.0236014 0)
(0.987678 -0.0258892 0)
(0.981402 -0.026771 0)
(0.973815 -0.0267927 0)
(0.965432 -0.0264648 0)
(0.956641 -0.0261286 0)
(0.947692 -0.0259602 0)
(0.938723 -0.0260245 0)
(0.929798 -0.0263266 0)
(0.920943 -0.0268455 0)
(0.912167 -0.0275519 0)
(0.903486 -0.0284153 0)
(0.994484 0.00855504 0)
(0.989306 0.002094 0)
(0.993401 -0.00305673 0)
(0.996217 -0.00828826 0)
(0.996736 -0.0139507 0)
(0.995323 -0.0184785 0)
(0.991145 -0.0211765 0)
(0.984187 -0.0221535 0)
(0.975303 -0.0219469 0)
(0.965438 -0.0211917 0)
(0.955256 -0.0203598 0)
(0.945123 -0.0197013 0)
(0.935196 -0.0193076 0)
(0.925516 -0.0191856 0)
(0.916064 -0.0193069 0)
(0.906805 -0.0196355 0)
(0.897699 -0.0201381 0)
(0.888733 -0.0207855 0)
(0.994503 -0.00626667 0)
(0.989379 -0.00822885 0)
(0.995231 -0.00597632 0)
(0.999118 -0.0091012 0)
(0.999428 -0.0136556 0)
(0.995893 -0.0166357 0)
(0.98803 -0.0177197 0)
(0.976956 -0.0174083 0)
(0.964467 -0.0163763 0)
(0.951872 -0.0152009 0)
(0.939789 -0.014205 0)
(0.928385 -0.0134987 0)
(0.917615 -0.0130837 0)
(0.907368 -0.0129213 0)
(0.897523 -0.0129651 0)
(0.887972 -0.0131761 0)
(0.878632 -0.0135257 0)
(0.86945 -0.0139881 0)
(1.02627 -0.0701436 0)
(1.01681 -0.0622392 0)
(1.01223 -0.0297573 0)
(1.009 -0.0172962 0)
(1.00343 -0.0151115 0)
(0.992614 -0.0143994 0)
(0.976951 -0.0132008 0)
(0.959311 -0.0117019 0)
(0.942221 -0.0102904 0)
(0.926759 -0.00917642 0)
(0.91299 -0.00838937 0)
(0.900611 -0.00788513 0)
(0.889277 -0.00761071 0)
(0.878699 -0.00751591 0)
(0.86865 -0.00755823 0)
(0.858963 -0.00770979 0)
(0.849516 -0.00795399 0)
(0.840222 -0.00829346 0)
(0.966251 0.349487 0)
(1.02675 0.1931 0)
(1.0312 0.066473 0)
(0.998185 0.0125461 0)
(0.960055 -0.0054422 0)
(0.926503 -0.00906473 0)
(0.898437 -0.0079374 0)
(0.875699 -0.00599965 0)
(0.857456 -0.00456585 0)
(0.842395 -0.00378331 0)
(0.829401 -0.00342165 0)
(0.817736 -0.00326794 0)
(0.806936 -0.00321941 0)
(0.796697 -0.00323765 0)
(0.786807 -0.00330465 0)
(0.777112 -0.00341208 0)
(0.767479 -0.00355694 0)
(0.757854 -0.00376901 0)
(-0.00362575 0.00882039 1.73163e-21)
(-0.00865921 0.00316604 -1.59674e-21)
(-0.00934972 -0.00205684 0)
(-0.00714828 -0.00614174 0)
(-0.00277848 -0.0089792 0)
(0.00309112 -0.0108845 1.52906e-21)
(0.0100796 -0.0121209 0)
(0.0178987 -0.0128721 0)
(0.0263146 -0.0132738 0)
(0.0351463 -0.0134298 0)
(0.0442583 -0.013419 -1.57072e-21)
(0.0535515 -0.0133004 0)
(0.0629548 -0.0131173 0)
(0.072419 -0.0129005 0)
(0.0819113 -0.0126711 0)
(0.0914109 -0.0124421 -1.64845e-21)
(0.100905 -0.0122209 0)
(0.110387 -0.0120104 0)
(0.119851 -0.0118106 0)
(0.129295 -0.0116197 0)
(0.138713 -0.0114348 0)
(0.148101 -0.0112528 0)
(0.157453 -0.0110705 0)
(0.166759 -0.0108852 -1.74701e-21)
(0.176011 -0.0106945 1.75456e-21)
(0.185197 -0.0104967 -1.7609e-21)
(0.194306 -0.0102908 -1.76604e-21)
(0.203324 -0.0100759 0)
(0.212239 -0.00985208 0)
(0.221037 -0.00961947 1.77429e-21)
(0.229707 -0.00937865 1.77473e-21)
(0.238235 -0.00913042 0)
(0.24661 -0.00887578 0)
(0.254822 -0.00861582 1.76968e-21)
(0.262862 -0.00835173 0)
(0.27072 -0.0080847 0)
(0.27839 -0.00781593 -1.75614e-21)
(0.285866 -0.00754656 0)
(0.293141 -0.00727771 -1.74316e-21)
(0.300214 -0.00701039 -3.47133e-21)
(0.30708 -0.00674554 0)
(0.313739 -0.00648402 0)
(0.320188 -0.00622657 0)
(0.326429 -0.00597386 0)
(0.332462 -0.00572646 0)
(0.338288 -0.00548485 -3.36048e-21)
(0.343909 -0.00524942 -3.33949e-21)
(0.349329 -0.00502051 -3.31801e-21)
(0.35455 -0.00479834 0)
(0.359576 -0.00458312 3.27393e-21)
(0.364411 -0.00437495 0)
(0.369059 -0.00417391 -3.22881e-21)
(0.373524 -0.00398002 -3.20601e-21)
(0.377812 -0.00379326 0)
(0.381926 -0.00361358 0)
(0.385873 -0.00344089 0)
(0.389656 -0.00327509 -3.11432e-21)
(0.393282 -0.00311604 0)
(0.396754 -0.00296359 0)
(0.400078 -0.00281759 0)
(0.40326 -0.00267786 0)
(0.406303 -0.00254422 0)
(0.409213 -0.00241649 0)
(0.411994 -0.00229449 0)
(0.414652 -0.00217802 0)
(0.417191 -0.00206689 2.91401e-21)
(0.419616 -0.00196092 0)
(0.42193 -0.00185991 0)
(0.424139 -0.00176369 -2.85089e-21)
(0.426246 -0.00167207 -2.83034e-21)
(0.428255 -0.00158486 0)
(0.430172 -0.00150189 2.78997e-21)
(0.431998 -0.00142299 -2.77015e-21)
(0.433739 -0.00134799 0)
(0.435398 -0.00127672 2.73127e-21)
(0.436978 -0.00120902 0)
(0.438483 -0.00114474 0)
(0.439915 -0.00108371 -2.67474e-21)
(0.441279 -0.00102579 0)
(0.442577 -0.000970836 2.63823e-21)
(0.443812 -0.00091871 0)
(0.444986 -0.000869273 -2.60261e-21)
(0.446104 -0.000822393 -2.58513e-21)
(0.447166 -0.000777939 -2.56786e-21)
(0.448176 -0.000735788 -5.10159e-21)
(0.449136 -0.000695819 5.06787e-21)
(0.450049 -0.000657921 0)
(0.450915 -0.000621992 0)
(0.451739 -0.000587943 0)
(0.452521 -0.000555689 4.93691e-21)
(0.453263 -0.00052515 4.90512e-21)
(0.453967 -0.000496232 -4.87369e-21)
(0.454636 -0.000468818 0)
(0.45527 -0.000442773 4.81183e-21)
(0.455871 -0.000417965 4.78138e-21)
(0.456441 -0.000394282 4.75123e-21)
(0.45698 -0.000371608 0)
(0.45749 -0.000349772 0)
(0.457973 -0.000327979 0)
(0.458424 -0.000305379 4.63341e-21)
(0.458844 -0.000283052 0)
(0.459237 -0.00026302 0)
(0.459607 -0.00024603 -4.54766e-21)
(0.459955 -0.00023165 0)
(0.460285 -0.000219129 0)
(0.460599 -0.000207866 -4.46402e-21)
(0.460896 -0.000197499 0)
(0.46118 -0.000187834 0)
(0.461449 -0.000178767 4.38236e-21)
(0.461706 -0.000170242 4.35556e-21)
(0.46195 -0.000162224 0)
(0.462184 -0.000154688 -4.30257e-21)
(0.462406 -0.000147612 0)
(0.462618 -0.000140974 4.25036e-21)
(0.462821 -0.000134752 0)
(0.463014 -0.000128922 4.19889e-21)
(0.463199 -0.000123458 4.17342e-21)
(0.463376 -0.000118335 0)
(0.463546 -0.00011353 0)
(0.463709 -0.000109023 0)
(0.463865 -0.0001048 0)
(0.464014 -0.000100855 0)
(0.464158 -9.71848e-05 0)
(0.464297 -9.37903e-05 0)
(0.46443 -9.06708e-05 3.97561e-21)
(0.464559 -8.78192e-05 -3.95157e-21)
(0.464683 -8.52199e-05 0)
(0.464804 -8.28472e-05 0)
(0.464921 -8.06677e-05 0)
(0.465035 -7.86428e-05 0)
(0.465146 -7.67327e-05 -7.66688e-21)
(0.465254 -7.48993e-05 0)
(0.465359 -7.31086e-05 7.57422e-21)
(0.465461 -7.13316e-05 -7.52828e-21)
(0.465561 -6.95456e-05 0)
(0.465658 -6.77348e-05 0)
(0.465752 -6.58908e-05 0)
(0.465843 -6.40144e-05 7.34697e-21)
(0.465931 -6.2116e-05 7.30225e-21)
(0.466016 -6.02137e-05 0)
(0.466098 -5.8331e-05 7.21352e-21)
(0.466178 -5.64907e-05 7.1695e-21)
(0.466254 -5.47111e-05 -7.12572e-21)
(0.466327 -5.30022e-05 0)
(0.466398 -5.13656e-05 0)
(0.466466 -4.97966e-05 -6.99574e-21)
(0.466531 -4.8288e-05 0)
(0.466594 -4.68325e-05 0)
(0.466654 -4.54238e-05 0)
(0.466712 -4.40558e-05 0)
(0.466767 -4.27208e-05 6.78365e-21)
(0.46682 -4.14072e-05 6.74191e-21)
(0.46687 -4.00998e-05 0)
(0.466918 -3.8779e-05 6.65912e-21)
(0.466963 -3.74206e-05 0)
(0.467005 -3.59953e-05 0)
(0.467044 -3.44679e-05 6.53669e-21)
(0.467079 -3.27959e-05 0)
(0.46711 -3.09262e-05 6.45629e-21)
(0.467136 -2.87916e-05 0)
(0.467157 -2.6306e-05 0)
(0.467171 -2.33573e-05 6.33772e-21)
(0.467176 -1.97997e-05 0)
(0.467171 -1.54403e-05 6.26025e-21)
(0.467152 -1.00229e-05 0)
(0.467117 -3.2036e-06 0)
(0.467059 5.48436e-06 0)
(0.466974 1.66837e-05 -6.11054e-21)
(0.466851 3.12953e-05 0)
(0.46668 5.06124e-05 6.03975e-21)
(0.466441 7.65489e-05 0)
(0.466112 0.000112057 0)
(0.465655 0.000161955 0)
(0.465014 0.00023467 0)
(0.464095 0.00034674 0)
(0.462709 0.000532595 0)
(0.460559 0.000887845 0)
(0.456468 0.00160736 -1.17793e-20)
(0.450145 0.00361779 0)
(0.428287 0.00738221 0)
(0.00295818 0.0147512 -4.71472e-21)
(0.00377881 0.00397766 3.71826e-21)
(0.00663745 -0.0041658 0)
(0.0105449 -0.0105331 -1.85383e-21)
(0.0151585 -0.0154223 0)
(0.0204052 -0.019127 -8.60422e-22)
(0.0262841 -0.0218953 1.61452e-21)
(0.0327658 -0.0239208 1.58975e-21)
(0.0397966 -0.0253608 0)
(0.0473152 -0.0263452 1.58033e-21)
(0.0552602 -0.0269803 8.34625e-22)
(0.0635722 -0.0273522 0)
(0.0721958 -0.0275297 0)
(0.0810804 -0.0275671 0)
(0.0901805 -0.0275056 0)
(0.0994561 -0.0273761 8.94478e-22)
(0.108872 -0.0271999 0)
(0.118397 -0.0269911 -1.76655e-21)
(0.128005 -0.0267581 0)
(0.137672 -0.0265045 0)
(0.147376 -0.0262314 1.85876e-21)
(0.157097 -0.0259377 0)
(0.166815 -0.0256213 -1.91714e-21)
(0.176514 -0.0252801 1.00896e-21)
(0.186175 -0.024912 -1.02128e-21)
(0.195781 -0.0245154 1.0329e-21)
(0.205314 -0.0240895 1.0438e-21)
(0.21476 -0.0236344 0)
(0.224101 -0.0231508 0)
(0.233322 -0.0226399 -1.07193e-21)
(0.24241 -0.022104 1.01988e-21)
(0.25135 -0.0215453 0)
(0.26013 -0.0209667 0)
(0.268739 -0.0203713 -1.0986e-21)
(0.277166 -0.0197621 0)
(0.285404 -0.0191425 0)
(0.293443 -0.0185155 1.11086e-21)
(0.301277 -0.0178842 0)
(0.308902 -0.0172516 -1.0712e-21)
(0.316314 -0.0166203 2.2344e-21)
(0.323508 -0.0159929 0)
(0.330483 -0.0153716 0)
(0.337239 -0.0147585 4.39886e-21)
(0.343775 -0.0141554 4.39993e-21)
(0.350092 -0.0135639 4.39917e-21)
(0.356192 -0.0129852 -2.16569e-21)
(0.362076 -0.0124206 2.22751e-21)
(0.367747 -0.0118709 6.6105e-21)
(0.373209 -0.0113369 -4.38037e-21)
(0.378465 -0.0108191 -2.21308e-21)
(0.383519 -0.010318 0)
(0.388376 -0.00983376 2.2008e-21)
(0.39304 -0.0093666 -2.14768e-21)
(0.397517 -0.00891653 0)
(0.40181 -0.00848349 0)
(0.405926 -0.00806733 0)
(0.40987 -0.00766785 2.1634e-21)
(0.413646 -0.00728476 0)
(0.41726 -0.00691776 -4.25936e-21)
(0.420718 -0.00656646 0)
(0.424025 -0.00623048 -4.22775e-21)
(0.427186 -0.00590941 0)
(0.430206 -0.0056028 4.19478e-21)
(0.43309 -0.00531021 0)
(0.435843 -0.00503117 -4.1608e-21)
(0.438471 -0.00476522 2.06031e-21)
(0.440978 -0.0045119 0)
(0.443369 -0.00427074 4.10854e-21)
(0.445648 -0.00404129 2.0551e-21)
(0.44782 -0.00382309 2.04569e-21)
(0.44989 -0.00361568 0)
(0.451861 -0.00341864 2.01066e-21)
(0.453738 -0.00323152 2.01749e-21)
(0.455524 -0.0030539 0)
(0.457224 -0.00288538 -1.99876e-21)
(0.458841 -0.00272554 3.96606e-21)
(0.460379 -0.00257401 0)
(0.461842 -0.0024304 1.97087e-21)
(0.463232 -0.00229434 0)
(0.464553 -0.00216548 -5.84726e-21)
(0.465808 -0.00204347 0)
(0.467 -0.00192799 5.79356e-21)
(0.468132 -0.0018187 1.92508e-21)
(0.469207 -0.00171529 -1.90812e-21)
(0.470227 -0.00161747 -3.79917e-21)
(0.471196 -0.00152494 3.78213e-21)
(0.472115 -0.00143744 0)
(0.472986 -0.00135471 0)
(0.473813 -0.00127652 0)
(0.474596 -0.00120264 -1.11649e-20)
(0.475339 -0.00113285 -3.70778e-21)
(0.476044 -0.00106691 3.69036e-21)
(0.476711 -0.00100457 0)
(0.477343 -0.000945579 3.64722e-21)
(0.477941 -0.000889706 -3.63854e-21)
(0.478508 -0.000836733 -3.62139e-21)
(0.479045 -0.000786432 0)
(0.479553 -0.000738538 0)
(0.480034 -0.000692396 0)
(0.480492 -0.000647563 -3.55323e-21)
(0.48093 -0.000604983 0)
(0.481347 -0.000565964 7.03329e-21)
(0.481743 -0.000530802 1.05022e-20)
(0.482118 -0.000499065 -6.96639e-21)
(0.482473 -0.000470174 0)
(0.482809 -0.000443643 -3.4478e-21)
(0.483128 -0.0004191 0)
(0.48343 -0.000396275 -6.83334e-21)
(0.483718 -0.000374975 3.39838e-21)
(0.483991 -0.00035506 3.38196e-21)
(0.484251 -0.000336425 0)
(0.484498 -0.000318984 1.00535e-20)
(0.484733 -0.000302666 -6.66851e-21)
(0.484957 -0.000287403 -3.31919e-21)
(0.485171 -0.000273132 0)
(0.485375 -0.000259793 -3.28638e-21)
(0.48557 -0.000247325 -9.8078e-21)
(0.485757 -0.000235671 0)
(0.485935 -0.000224777 -6.47275e-21)
(0.486106 -0.000214594 -6.44032e-21)
(0.486269 -0.000205082 -6.40795e-21)
(0.486426 -0.000196211 0)
(0.486577 -0.000187955 0)
(0.486722 -0.000180297 0)
(0.486862 -0.000173218 3.13867e-21)
(0.486997 -0.000166696 3.12415e-21)
(0.487127 -0.000160697 0)
(0.487253 -0.000155177 6.18262e-21)
(0.487375 -0.000150083 6.15061e-21)
(0.487493 -0.000145354 0)
(0.487608 -0.000140924 6.08799e-21)
(0.48772 -0.00013673 1.21097e-20)
(0.487829 -0.000132713 -6.0242e-21)
(0.487936 -0.000128821 -5.99003e-21)
(0.488039 -0.00012501 0)
(0.488141 -0.000121247 0)
(0.488239 -0.000117511 0)
(0.488336 -0.000113794 -5.86554e-21)
(0.48843 -0.000110099 5.83193e-21)
(0.488522 -0.000106443 1.16029e-20)
(0.488611 -0.00010285 -5.77092e-21)
(0.488698 -9.93437e-05 5.73763e-21)
(0.488783 -9.59453e-05 5.7081e-21)
(0.488866 -9.26672e-05 0)
(0.488946 -8.95126e-05 0)
(0.489024 -8.64761e-05 -5.61261e-21)
(0.489101 -8.35476e-05 0)
(0.489175 -8.07147e-05 0)
(0.489247 -7.79641e-05 1.10404e-20)
(0.489317 -7.52808e-05 0)
(0.489386 -7.26465e-05 5.45762e-21)
(0.489452 -7.00369e-05 -5.42822e-21)
(0.489516 -6.74204e-05 0)
(0.489579 -6.47576e-05 5.36542e-21)
(0.489639 -6.19992e-05 0)
(0.489696 -5.90846e-05 0)
(0.489751 -5.59399e-05 -5.27517e-21)
(0.489803 -5.24735e-05 1.04885e-20)
(0.489851 -4.8571e-05 -5.21459e-21)
(0.489895 -4.40868e-05 0)
(0.489935 -3.88339e-05 0)
(0.489968 -3.25704e-05 5.12368e-21)
(0.489993 -2.49804e-05 0)
(0.490009 -1.56478e-05 5.06469e-21)
(0.490013 -4.02073e-06 0)
(0.490002 1.06401e-05 0)
(0.489971 2.93359e-05 0)
(0.489914 5.34422e-05 4.95039e-21)
(0.489823 8.48827e-05 0)
(0.489688 0.000126409 -4.89564e-21)
(0.489493 0.000182081 0)
(0.489217 0.000258128 0)
(0.48883 0.000364644 9.64414e-21)
(0.488287 0.000519118 -9.60281e-21)
(0.487518 0.000755188 0)
(0.486402 0.00114188 0)
(0.484786 0.00185718 0)
(0.482133 0.00326804 2.8695e-20)
(0.478768 0.00683126 0)
(0.471293 0.0135995 -1.96433e-20)
(0.00652097 0.00431845 1.70863e-22)
(0.00991959 -0.00650667 -4.32161e-21)
(0.0144885 -0.0143249 0)
(0.0196421 -0.0206118 2.95389e-21)
(0.0248763 -0.0257635 0)
(0.0302271 -0.0299886 0)
(0.0358429 -0.0334332 -4.7905e-23)
(0.0418174 -0.0362108 -1.17836e-21)
(0.0481937 -0.0384195 -1.10863e-21)
(0.0549867 -0.0401466 -1.14814e-21)
(0.0621937 -0.04147 0)
(0.0697988 -0.0424581 0)
(0.0777772 -0.0431701 1.11241e-21)
(0.0860973 -0.0436567 2.25459e-21)
(0.0947241 -0.0439599 -2.29105e-21)
(0.103621 -0.044114 0)
(0.112749 -0.0441459 -2.37798e-21)
(0.122073 -0.044076 1.26511e-21)
(0.131556 -0.043919 0)
(0.141165 -0.0436848 -2.52672e-21)
(0.150866 -0.0433799 -1.33863e-21)
(0.160631 -0.043008 2.62883e-21)
(0.170431 -0.0425715 1.38712e-21)
(0.180239 -0.0420715 0)
(0.190029 -0.0415092 -2.77629e-21)
(0.199779 -0.0408859 -2.82263e-21)
(0.209467 -0.0402032 0)
(0.219071 -0.0394638 -2.90981e-21)
(0.228572 -0.0386707 0)
(0.237954 -0.0378279 -2.98881e-21)
(0.247198 -0.0369397 -1.55025e-21)
(0.256291 -0.0360112 0)
(0.265219 -0.0350478 0)
(0.273969 -0.0340548 0)
(0.282532 -0.033038 0)
(0.290897 -0.0320029 0)
(0.299058 -0.030955 0)
(0.307008 -0.0298995 -3.21613e-21)
(0.314741 -0.0288413 4.88063e-21)
(0.322255 -0.027785 0)
(0.329545 -0.026735 0)
(0.33661 -0.0256949 0)
(0.343451 -0.0246683 -4.82769e-23)
(0.350065 -0.0236582 -3.34684e-21)
(0.356456 -0.0226671 -6.6617e-21)
(0.362624 -0.0216975 6.67312e-21)
(0.368572 -0.0207511 3.32059e-21)
(0.374303 -0.0198295 -3.36342e-21)
(0.37982 -0.0189341 3.71503e-23)
(0.385126 -0.0180657 -3.32889e-21)
(0.390228 -0.017225 0)
(0.395128 -0.0164126 -3.32896e-21)
(0.399832 -0.0156287 3.07901e-23)
(0.404344 -0.0148734 0)
(0.40867 -0.0141466 0)
(0.412816 -0.0134481 3.31856e-21)
(0.416786 -0.0127776 0)
(0.420586 -0.0121345 0)
(0.424221 -0.0115185 -3.28063e-21)
(0.427698 -0.0109289 -6.59463e-21)
(0.43102 -0.010365 3.31127e-21)
(0.434194 -0.00982622 0)
(0.437226 -0.00931178 -3.29469e-21)
(0.440119 -0.00882093 0)
(0.44288 -0.00835291 -3.24356e-21)
(0.445513 -0.00790695 -3.26748e-21)
(0.448023 -0.00748227 6.486e-21)
(0.450416 -0.00707808 3.21991e-21)
(0.452695 -0.00669362 0)
(0.454866 -0.00632811 -6.43081e-21)
(0.456933 -0.00598081 0)
(0.4589 -0.00565096 -9.5994e-21)
(0.460771 -0.00533785 -6.37225e-21)
(0.462551 -0.00504075 -6.35214e-21)
(0.464243 -0.00475897 6.33178e-21)
(0.465852 -0.00449184 -9.47572e-21)
(0.46738 -0.00423869 0)
(0.468832 -0.0039989 0)
(0.470211 -0.00377185 6.2482e-21)
(0.47152 -0.00355692 9.34737e-21)
(0.472763 -0.00335355 0)
(0.473942 -0.00316118 -3.09815e-21)
(0.475061 -0.00297926 0)
(0.476122 -0.00280726 9.21581e-21)
(0.477128 -0.0026447 1.04598e-23)
(0.478082 -0.00249109 -9.84219e-24)
(0.478986 -0.00234596 -6.07401e-21)
(0.479842 -0.00220889 0)
(0.480654 -0.00207947 6.02952e-21)
(0.481422 -0.00195729 7.6912e-24)
(0.48215 -0.00184197 0)
(0.482839 -0.00173314 0)
(0.483491 -0.0016304 0)
(0.484108 -0.00153339 -5.92332e-21)
(0.484692 -0.00144176 0)
(0.485244 -0.00135521 0)
(0.485767 -0.00127349 0)
(0.486261 -0.00119636 0)
(0.486729 -0.00112366 0)
(0.487173 -0.00105517 -5.78019e-21)
(0.487594 -0.000990657 0)
(0.487994 -0.000930198 -5.73722e-21)
(0.488374 -0.00087401 -5.71364e-21)
(0.488734 -0.000822056 5.69001e-21)
(0.489075 -0.00077406 0)
(0.489399 -0.000729651 5.64262e-21)
(0.489705 -0.000688456 0)
(0.489996 -0.000650146 5.59505e-21)
(0.490271 -0.000614447 -5.57121e-21)
(0.490533 -0.000581136 -1.66375e-20)
(0.490782 -0.00055003 0)
(0.491018 -0.000520972 -1.64944e-20)
(0.491243 -0.00049383 -5.47174e-21)
(0.491457 -0.000468481 0)
(0.491661 -0.000444814 -1.08514e-20)
(0.491856 -0.000422723 -1.08034e-20)
(0.492042 -0.000402106 1.61345e-20)
(0.49222 -0.000382866 0)
(0.492389 -0.000364913 5.33081e-21)
(0.492552 -0.000348161 5.30657e-21)
(0.492708 -0.000332539 1.58445e-20)
(0.492858 -0.000317983 0)
(0.493002 -0.000304441 0)
(0.49314 -0.000291869 0)
(0.493274 -0.000280225 5.18286e-21)
(0.493402 -0.000269467 0)
(0.493527 -0.000259542 0)
(0.493647 -0.000250389 -5.11139e-21)
(0.493764 -0.000241933 -5.08684e-21)
(0.493877 -0.000234091 0)
(0.493987 -0.000226777 0)
(0.494094 -0.000219902 -1.0026e-20)
(0.494198 -0.000213382 0)
(0.4943 -0.000207141 9.9272e-21)
(0.494399 -0.000201115 9.87639e-21)
(0.494497 -0.000195249 0)
(0.494592 -0.000189506 0)
(0.494684 -0.00018386 -9.72786e-21)
(0.494775 -0.000178304 -1.18717e-24)
(0.494864 -0.000172844 -1.15044e-24)
(0.494952 -0.000167499 0)
(0.495037 -0.000162291 -1.90595e-20)
(0.495121 -0.00015724 0)
(0.495203 -0.00015236 0)
(0.495283 -0.000147655 0)
(0.495362 -0.000143119 9.33109e-21)
(0.495439 -0.000138739 0)
(0.495514 -0.000134497 -1.8461e-20)
(0.495588 -0.000130371 -9.18152e-21)
(0.495661 -0.000126338 0)
(0.495732 -0.000122365 -9.08182e-21)
(0.495801 -0.000118417 0)
(0.495869 -0.000114443 0)
(0.495935 -0.000110383 -2.67957e-20)
(0.495999 -0.000106161 1.77639e-20)
(0.496061 -0.000101682 0)
(0.49612 -9.68302e-05 1.75654e-20)
(0.496177 -9.14611e-05 -8.73384e-21)
(0.496231 -8.53925e-05 0)
(0.49628 -7.83933e-05 0)
(0.496325 -7.0167e-05 0)
(0.496363 -6.03297e-05 -2.56094e-20)
(0.496395 -4.83812e-05 0)
(0.496416 -3.36642e-05 -8.43944e-21)
(0.496425 -1.53083e-05 0)
(0.496419 7.84901e-06 0)
(0.496392 3.73777e-05 0)
(0.496339 7.54255e-05 0)
(0.496251 0.00012498 0)
(0.496116 0.000190286 0)
(0.495921 0.000277543 -1.62321e-20)
(0.495641 0.000396134 0)
(0.495249 0.000560948 -8.0357e-21)
(0.494697 0.000797026 2.40067e-20)
(0.49392 0.00115009 0)
(0.492809 0.00170912 0)
(0.491232 0.00267665 -1.59002e-20)
(0.488844 0.00446452 -1.59412e-20)
(0.485934 0.00832841 1.60649e-20)
(0.481655 0.0156805 1.63688e-20)
(0.00712182 -0.0107776 7.98464e-21)
(0.0116739 -0.0202851 5.72676e-21)
(0.01717 -0.0268036 2.90053e-21)
(0.0231242 -0.0323785 1.15758e-21)
(0.0289707 -0.0372947 0)
(0.03472 -0.0416224 -2.03039e-21)
(0.0405339 -0.0454013 9.10602e-22)
(0.0465356 -0.0486666 0)