
961
(
2.07587
1.73686
1.83148
2.57236
1.42297
0.989595
1.47079
0.872751
1.50858
0.858139
1.53195
0.862145
1.54426
0.866715
1.55009
0.86943
1.55268
0.870814
1.55381
0.871503
1.55433
0.871864
1.55459
0.87207
1.55473
0.872195
1.55481
0.872272
1.55485
0.872314
1.55487
0.872327
1.55485
0.872314
1.55481
0.872272
1.55473
0.872195
1.55459
0.87207
1.55433
0.871865
1.55381
0.871505
1.55268
0.870815
1.55008
0.869432
1.54426
0.866716
1.53195
0.862145
1.50858
0.858139
1.47079
0.872752
1.42297
0.989595
1.73687
1.83148
2.07588
2.57236
1.9281
3.11399
0.497037
0.197707
0.131966
0.117892
0.114955
0.114514
0.114614
0.114791
0.114945
0.115059
0.115139
0.115192
0.115221
0.115231
0.115222
0.115193
0.115141
0.115062
0.114949
0.114796
0.114619
0.114521
0.114962
0.117899
0.131973
0.197713
0.49704
1.92811
3.114
1.93634
3.169
0.436401
0.114437
0.0487828
0.0352061
0.0319038
0.0310323
0.0308264
0.0308074
0.0308337
0.0308638
0.0308874
0.0309034
0.0309124
0.0309155
0.0309128
0.0309041
0.0308889
0.0308663
0.0308375
0.0308129
0.0308337
0.0310414
0.0319142
0.0352174
0.0487944
0.114449
0.436408
1.93635
3.16902
1.94504
3.1813
0.436515
0.108316
0.0407204
0.0259101
0.0217077
0.0202451
0.0196763
0.0194398
0.0193351
0.0192849
0.0192585
0.0192438
0.0192361
0.0192335
0.0192357
0.0192431
0.0192579
0.019285
0.0193366
0.0194433
0.0196824
0.0202542
0.0217195
0.0259242
0.0407361
0.108333
0.43653
1.94506
3.18133
1.94882
3.18484
0.439171
0.108889
0.0401852
0.0247394
0.0201121
0.0183555
0.0175856
0.0172135
0.0170181
0.0169072
0.0168408
0.0168009
0.016779
0.0167715
0.0167774
0.016798
0.0168371
0.0169034
0.017015
0.0172124
0.0175875
0.0183613
0.0201221
0.0247536
0.0402033
0.108911
0.439193
1.94885
3.18487
1.95106
3.18671
0.441054
0.109655
0.0403782
0.024653
0.0198461
0.0179555
0.0170822
0.0166313
0.0163768
0.0162231
0.0161266
0.0160667
0.0160334
0.0160219
0.0160307
0.0160615
0.0161194
0.0162147
0.0163685
0.0166245
0.0170786
0.0179565
0.0198528
0.0246658
0.0403973
0.109681
0.441083
1.95109
3.18675
1.9527
3.18807
0.442453
0.110256
0.0406037
0.0247219
0.0198228
0.0178609
0.0169282
0.0164281
0.0161344
0.0159506
0.0158323
0.0157579
0.0157161
0.0157015
0.0157124
0.0157507
0.0158222
0.0159383
0.0161214
0.0164162
0.0169195
0.0178574
0.019826
0.024733
0.040623
0.110285
0.442486
1.95273
3.18811
1.95395
3.18912
0.443509
0.110715
0.0407913
0.0248052
0.0198489
0.0178433
0.0168731
0.0163408
0.0160207
0.0158164
0.0156832
0.0155987
0.0155511
0.0155344
0.0155468
0.0155902
0.015671
0.0158013
0.0160043
0.0163252
0.0168606
0.0178365
0.0198497
0.0248149
0.0408105
0.110745
0.443546
1.95399
3.18916
1.9549
3.18992
0.444299
0.111059
0.040938
0.0248797
0.0198861
0.0178527
0.0168585
0.0163055
0.0159683
0.0157507
0.0156078
0.0155169
0.0154656
0.0154476
0.0154609
0.0155076
0.0155943
0.0157339
0.0159498
0.0162876
0.0168437
0.0178438
0.0198854
0.0248886
0.0409572
0.11109
0.444338
1.95494
3.18997
1.9556
3.19054
0.444881
0.111312
0.0410485
0.0249404
0.0199227
0.0178718
0.0168628
0.0162971
0.0159493
0.0157236
0.0155749
0.0154801
0.0154266
0.0154077
0.0154216
0.0154702
0.0155607
0.0157059
0.0159298
0.0162779
0.0168469
0.0178619
0.0199212
0.0249489
0.0410677
0.111343
0.444921
1.95565
3.19058
1.95613
3.19099
0.445304
0.111494
0.0411289
0.0249866
0.0199533
0.0178919
0.016874
0.0163007
0.0159467
0.0157162
0.015564
0.015467
0.0154122
0.0153929
0.0154071
0.015457
0.0155495
0.0156981
0.0159267
0.016281
0.0168576
0.0178816
0.0199516
0.024995
0.0411481
0.111525
0.445344
1.95617
3.19104
1.9565
3.19133
0.445604
0.111621
0.041185
0.0250197
0.0199765
0.0179085
0.0168854
0.0163078
0.0159503
0.015717
0.0155628
0.0154645
0.015409
0.0153895
0.0154039
0.0154545
0.0155483
0.0156988
0.0159301
0.016288
0.016869
0.0178982
0.0199747
0.025028
0.0412041
0.111652
0.445644
1.95655
3.19137
1.95676
3.19155
0.445805
0.111705
0.0412218
0.0250416
0.0199922
0.0179205
0.0168944
0.0163143
0.0159547
0.0157199
0.0155647
0.0154657
0.0154098
0.0153902
0.0154047
0.0154557
0.0155502
0.0157018
0.0159347
0.0162946
0.016878
0.0179103
0.0199905
0.0250498
0.0412407
0.111736
0.445844
1.9568
3.1916
1.95691
3.19169
0.445922
0.111753
0.0412426
0.025054
0.0200014
0.0179276
0.0169
0.0163186
0.015958
0.0157225
0.0155667
0.0154673
0.0154112
0.0153916
0.0154061
0.0154573
0.0155522
0.0157045
0.0159381
0.0162991
0.0168838
0.0179176
0.0199997
0.0250622
0.0412613
0.111783
0.445961
1.95695
3.19173
1.95696
3.19173
0.44596
0.111769
0.0412493
0.0250581
0.0200045
0.0179302
0.0169021
0.0163202
0.0159594
0.0157235
0.0155676
0.015468
0.0154119
0.0153922
0.0154069
0.0154581
0.0155532
0.0157056
0.0159396
0.0163009
0.016886
0.0179202
0.0200029
0.0250663
0.0412679
0.111799
0.445999
1.957
3.19177
1.95691
3.19169
0.445921
0.111753
0.0412426
0.0250543
0.0200018
0.0179282
0.0169006
0.0163192
0.0159586
0.0157229
0.0155671
0.0154676
0.0154116
0.0153919
0.0154065
0.0154577
0.0155527
0.015705
0.0159388
0.0162999
0.0168846
0.0179183
0.0200002
0.0250624
0.041261
0.111783
0.44596
1.95695
3.19173
1.95676
3.19155
0.445804
0.111704
0.0412218
0.0250422
0.0199933
0.0179218
0.0168958
0.0163155
0.0159559
0.0157209
0.0155656
0.0154664
0.0154105
0.0153909
0.0154055
0.0154566
0.0155512
0.0157031
0.0159362
0.0162963
0.0168798
0.0179119
0.0199918
0.0250503
0.0412402
0.111734
0.445842
1.9568
3.1916
1.9565
3.19133
0.445603
0.11162
0.0411851
0.0250208
0.0199783
0.0179107
0.0168876
0.0163098
0.015952
0.0157185
0.0155641
0.0154656
0.0154101
0.0153906
0.0154051
0.0154558
0.0155499
0.0157008
0.0159325
0.0162907
0.0168718
0.0179009
0.0199768
0.0250289
0.0412034
0.11165
0.445641
1.95654
3.19137
1.95613
3.19099
0.445303
0.111493
0.041129
0.0249882
0.0199559
0.0178948
0.0168769
0.0163033
0.0159489
0.015718
0.0155655
0.0154682
0.0154133
0.0153941
0.0154084
0.0154585
0.0155514
0.0157006
0.0159297
0.0162846
0.0168614
0.0178853
0.0199545
0.0249963
0.0411472
0.111522
0.445341
1.95617
3.19104
1.9556
3.19054
0.44488
0.111311
0.0410487
0.0249423
0.0199258
0.0178753
0.0168661
0.0162999
0.0159516
0.0157252
0.015576
0.0154809
0.0154272
0.0154084
0.0154224
0.0154714
0.0155624
0.0157084
0.0159331
0.016282
0.0168515
0.0178665
0.0199249
0.0249506
0.0410666
0.11134
0.444916
1.95564
3.19058
1.9549
3.18992
0.444297
0.111058
0.0409381
0.0248818
0.0198895
0.0178564
0.0168618
0.016308
0.0159699
0.0157515
0.015608
0.0155166
0.0154651
0.015447
0.0154605
0.0155077
0.0155952
0.0157358
0.0159528
0.0162917
0.0168487
0.0178489
0.0198896
0.0248905
0.0409559
0.111086
0.444333
1.95493
3.18996
1.95395
3.18912
0.443508
0.110714
0.0407914
0.0248074
0.0198523
0.0178468
0.0168759
0.0163425
0.0160212
0.0158157
0.0156817
0.0155966
0.0155487
0.015532
0.0155446
0.0155887
0.0156704
0.015802
0.0160065
0.0163289
0.0168655
0.0178417
0.0198541
0.024817
0.0408091
0.110741
0.443541
1.95398
3.18916
1.9527
3.18807
0.442452
0.110255
0.0406039
0.0247241
0.019826
0.017864
0.0169304
0.0164289
0.0161337
0.0159485
0.0158292
0.015754
0.0157118
0.0156972
0.0157085
0.0157476
0.0158202
0.0159379
0.0161228
0.0164194
0.0169242
0.0178627
0.0198306
0.0247352
0.0406215
0.11028
0.442481
1.95273
3.18811
1.95106
3.18671
0.441055
0.109654
0.0403785
0.0246553
0.0198495
0.0179588
0.0170845
0.0166321
0.0163761
0.0162209
0.0161232
0.0160625
0.0160288
0.0160172
0.0160265
0.0160582
0.0161173
0.0162143
0.01637
0.0166279
0.0170835
0.017962
0.0198576
0.0246682
0.0403958
0.109676
0.441079
1.95109
3.18674
1.94882
3.18484
0.439171
0.108888
0.0401858
0.0247421
0.0201162
0.0183599
0.0175893
0.0172161
0.0170193
0.0169072
0.0168398
0.0167991
0.0167768
0.0167693
0.0167756
0.016797
0.0168373
0.016905
0.0170184
0.0172174
0.0175936
0.0183677
0.0201273
0.0247561
0.0402019
0.108907
0.439189
1.94884
3.18487
1.94504
3.1813
0.436515
0.108315
0.0407209
0.0259131
0.0217127
0.020251
0.0196822
0.0194453
0.0193399
0.0192889
0.0192618
0.0192467
0.0192388
0.0192362
0.0192386
0.0192466
0.0192622
0.0192902
0.0193428
0.0194504
0.0196898
0.0202611
0.0217247
0.0259263
0.0407344
0.108328
0.436526
1.94506
3.18132
1.93634
3.169
0.436399
0.114435
0.0487824
0.035208
0.0319078
0.0310377
0.0308327
0.0308142
0.0308405
0.0308706
0.0308941
0.0309099
0.0309189
0.0309219
0.0309193
0.0309108
0.0308957
0.0308733
0.0308445
0.0308197
0.0308399
0.0310463
0.0319172
0.0352175
0.0487913
0.114444
0.436404
1.93635
3.16902
1.9281
3.11399
0.497035
0.197705
0.131965
0.117893
0.114957
0.114518
0.114618
0.114797
0.114951
0.115066
0.115146
0.115198
0.115228
0.115238
0.115228
0.115199
0.115148
0.115068
0.114954
0.114801
0.114623
0.114523
0.114962
0.117897
0.13197
0.197709
0.497036
1.92811
3.11401
1.83148
2.57236
0.989595
0.872751
0.858139
0.862146
0.866716
0.869432
0.870817
0.871506
0.871868
0.872074
0.872199
0.872276
0.872318
0.872332
0.872318
0.872276
0.872199
0.872074
0.871868
0.871507
0.870817
0.869433
0.866716
0.862145
0.858139
0.872751
0.989594
1.83148
2.57237
1.73687
2.07588
1.42297
1.4708
1.50858
1.53195
1.54426
1.55009
1.55268
1.55381
1.55433
1.55459
1.55473
1.55481
1.55486
1.55487
1.55485
1.55481
1.55473
1.55459
1.55433
1.55381
1.55268
1.55008
1.54426
1.53195
1.50858
1.47079
1.42297
1.73687
2.07588
)
