
961
(
0.0107163
0.0108033
0.00988453
0.0111131
0.011053
0.0082167
0.0113564
0.00764741
0.0115901
0.00750189
0.0117351
0.00749736
0.0118129
0.00751959
0.0118508
0.00753811
0.0118684
0.00754964
0.0118765
0.00755638
0.0118804
0.00756039
0.0118825
0.00756287
0.0118838
0.00756445
0.0118845
0.00756543
0.0118849
0.00756598
0.011885
0.00756615
0.0118849
0.00756598
0.0118845
0.00756544
0.0118838
0.00756447
0.0118825
0.00756289
0.0118804
0.00756042
0.0118765
0.00755642
0.0118684
0.00754968
0.0118508
0.00753815
0.0118129
0.00751963
0.0117351
0.0074974
0.0115901
0.00750192
0.0113564
0.00764743
0.011053
0.0082167
0.0108033
0.00988454
0.0107164
0.0111131
0.00877516
0.0116294
0.00470671
0.00309779
0.00260813
0.00250006
0.00249233
0.002505
0.00251799
0.00252754
0.0025339
0.00253798
0.00254053
0.00254207
0.0025429
0.00254316
0.00254292
0.00254212
0.0025406
0.00253807
0.00253402
0.00252768
0.00251815
0.00250516
0.00249249
0.0025002
0.00260825
0.00309789
0.00470676
0.00877519
0.0116294
0.00859114
0.0117782
0.00398358
0.00217132
0.00171556
0.00165637
0.00167606
0.00170388
0.00172594
0.00174105
0.00175071
0.00175665
0.00176019
0.00176222
0.00176326
0.0017636
0.00176331
0.00176232
0.00176035
0.00175686
0.00175097
0.00174135
0.00172627
0.00170421
0.00167638
0.00165664
0.00171579
0.00217151
0.00398368
0.00859119
0.0117783
0.00860819
0.0118162
0.0039426
0.00208795
0.00162744
0.0015691
0.00158957
0.00161863
0.00164239
0.00165916
0.00167014
0.00167694
0.00168098
0.00168325
0.0016844
0.00168477
0.00168448
0.00168342
0.00168124
0.00167729
0.00167057
0.00165967
0.00164294
0.00161919
0.0015901
0.00156958
0.00162783
0.00208827
0.00394279
0.00860828
0.0118163
0.00862505
0.0118295
0.00395861
0.00209617
0.00163027
0.0015688
0.00158761
0.00161601
0.00163973
0.00165675
0.00166801
0.001675
0.00167912
0.0016814
0.00168253
0.0016829
0.00168264
0.00168163
0.00167948
0.00167549
0.00166861
0.00165746
0.00164051
0.0016168
0.00158837
0.00156949
0.00163085
0.00209663
0.00395889
0.00862518
0.0118296
0.00863609
0.0118374
0.00397159
0.00210597
0.00163683
0.00157336
0.00159104
0.00161879
0.00164213
0.0016589
0.00166993
0.00167671
0.00168062
0.00168273
0.00168374
0.00168408
0.00168388
0.00168301
0.00168107
0.00167731
0.00167068
0.00165977
0.00164309
0.00161979
0.00159201
0.00157423
0.00163757
0.00210654
0.00397193
0.00863626
0.0118375
0.00864423
0.0118432
0.00398104
0.0021129
0.00164117
0.00157604
0.00159272
0.00161975
0.00164251
0.00165877
0.00166934
0.00167572
0.00167928
0.00168112
0.00168197
0.00168225
0.00168212
0.00168144
0.00167978
0.00167639
0.00167018
0.00165975
0.00164359
0.00162087
0.00159381
0.00157704
0.00164201
0.00211355
0.00398143
0.00864442
0.0118433
0.00865041
0.0118477
0.00398811
0.00211795
0.00164413
0.00157761
0.00159337
0.0016197
0.00164184
0.00165754
0.00166762
0.00167355
0.00167675
0.00167831
0.00167899
0.00167923
0.00167916
0.00167865
0.00167727
0.00167426
0.0016685
0.00165858
0.00164299
0.00162089
0.00159453
0.00157867
0.00164503
0.00211864
0.00398853
0.00865062
0.0118479
0.00865507
0.0118511
0.0039934
0.00212173
0.00164636
0.00157877
0.00159381
0.00161956
0.00164119
0.00165641
0.00166607
0.00167163
0.00167453
0.00167587
0.00167642
0.0016766
0.00167658
0.00167621
0.00167505
0.00167235
0.00166696
0.00165747
0.00164236
0.00162077
0.001595
0.00157986
0.00164727
0.00212243
0.00399383
0.00865529
0.0118513
0.00865855
0.0118537
0.00399731
0.00212454
0.00164808
0.00157976
0.00159429
0.00161963
0.0016409
0.00165579
0.00166514
0.00167045
0.00167313
0.00167432
0.00167477
0.00167492
0.00167493
0.00167465
0.00167365
0.00167115
0.00166604
0.00165685
0.00164207
0.00162085
0.00159548
0.00158085
0.001649
0.00212525
0.00399775
0.00865877
0.0118539
0.0086611
0.0118556
0.00400016
0.00212659
0.00164939
0.00158059
0.0015948
0.00161988
0.00164092
0.0016556
0.00166476
0.0016699
0.00167246
0.00167355
0.00167393
0.00167407
0.00167409
0.00167387
0.00167297
0.0016706
0.00166565
0.00165665
0.00164208
0.00162109
0.00159598
0.00158167
0.0016503
0.0021273
0.0040006
0.00866132
0.0118558
0.00866293
0.011857
0.00400218
0.00212805
0.00165034
0.00158124
0.00159526
0.00162019
0.00164109
0.00165565
0.0016647
0.00166974
0.00167222
0.00167326
0.00167361
0.00167373
0.00167377
0.00167358
0.00167273
0.00167044
0.00166557
0.00165668
0.00164223
0.00162138
0.00159642
0.0015823
0.00165125
0.00212875
0.00400262
0.00866315
0.0118572
0.00866417
0.0118579
0.00400353
0.00212901
0.00165098
0.00158169
0.0015956
0.00162044
0.00164127
0.00165576
0.00166475
0.00166975
0.00167219
0.00167319
0.00167353
0.00167364
0.00167368
0.00167351
0.00167269
0.00167043
0.00166562
0.00165678
0.0016424
0.00162162
0.00159674
0.00158274
0.00165187
0.00212971
0.00400397
0.00866438
0.0118581
0.00866489
0.0118585
0.00400431
0.00212956
0.00165135
0.00158195
0.0015958
0.0016206
0.00164139
0.00165586
0.00166482
0.00166979
0.00167221
0.0016732
0.00167353
0.00167364
0.00167368
0.00167352
0.0016727
0.00167047
0.00166567
0.00165686
0.00164251
0.00162176
0.00159693
0.00158298
0.00165222
0.00213025
0.00400474
0.0086651
0.0118586
0.00866513
0.0118587
0.00400457
0.00212974
0.00165146
0.00158203
0.00159586
0.00162065
0.00164143
0.00165588
0.00166483
0.0016698
0.00167222
0.0016732
0.00167353
0.00167364
0.00167368
0.00167352
0.00167271
0.00167047
0.00166568
0.00165688
0.00164253
0.00162179
0.00159697
0.00158305
0.00165232
0.00213041
0.00400499
0.00866534
0.0118588
0.00866489
0.0118585
0.0040043
0.00212954
0.00165131
0.00158191
0.00159576
0.00162056
0.00164136
0.00165582
0.00166479
0.00166977
0.00167219
0.00167318
0.00167351
0.00167362
0.00167366
0.00167349
0.00167268
0.00167044
0.00166563
0.00165682
0.00164246
0.00162171
0.00159687
0.00158293
0.00165218
0.00213021
0.00400473
0.0086651
0.0118586
0.00866416
0.0118579
0.00400351
0.00212897
0.00165091
0.00158161
0.00159551
0.00162036
0.00164119
0.00165569
0.00166469
0.0016697
0.00167214
0.00167315
0.00167349
0.0016736
0.00167364
0.00167346
0.00167263
0.00167037
0.00166554
0.00165669
0.00164229
0.0016215
0.00159662
0.00158262
0.00165177
0.00212964
0.00400393
0.00866437
0.0118581
0.00866292
0.011857
0.00400215
0.00212797
0.00165022
0.0015811
0.00159512
0.00162005
0.00164097
0.00165554
0.0016646
0.00166966
0.00167215
0.00167319
0.00167355
0.00167367
0.0016737
0.00167351
0.00167264
0.00167033
0.00166545
0.00165654
0.00164207
0.00162119
0.00159623
0.00158211
0.00165108
0.00212864
0.00400257
0.00866313
0.0118571
0.00866109
0.0118556
0.00400011
0.00212648
0.00164922
0.0015804
0.00159461
0.0016197
0.00164075
0.00165545
0.00166463
0.00166979
0.00167236
0.00167346
0.00167385
0.00167398
0.00167401
0.00167377
0.00167285
0.00167046
0.00166548
0.00165645
0.00164185
0.00162084
0.00159571
0.0015814
0.00165007
0.00212715
0.00400053
0.0086613
0.0118558
0.00865854
0.0118537
0.00399725
0.0021244
0.00164786
0.00157951
0.00159404
0.0016194
0.00164068
0.0016556
0.00166498
0.00167031
0.00167301
0.00167421
0.00167467
0.00167482
0.00167482
0.00167453
0.00167351
0.00167099
0.00166583
0.0016566
0.00164178
0.00162053
0.00159514
0.00158051
0.0016487
0.00212505
0.00399766
0.00865874
0.0118539
0.00865506
0.0118511
0.00399333
0.00212156
0.0016461
0.00157848
0.00159351
0.00161928
0.00164094
0.0016562
0.00166588
0.00167148
0.00167441
0.00167576
0.00167632
0.00167651
0.00167648
0.00167609
0.00167491
0.00167216
0.00166673
0.00165719
0.00164202
0.0016204
0.00159459
0.00157946
0.00164692
0.0021222
0.00399373
0.00865526
0.0118513
0.0086504
0.0118477
0.00398804
0.00211776
0.00164384
0.00157728
0.00159304
0.0016194
0.00164158
0.00165732
0.00166744
0.00167342
0.00167665
0.00167824
0.00167893
0.00167917
0.00167909
0.00167856
0.00167714
0.00167409
0.00166827
0.00165829
0.00164263
0.00162048
0.00159408
0.00157822
0.00164464
0.00211837
0.00398841
0.00865058
0.0118478
0.00864422
0.0118432
0.00398097
0.0021127
0.00164086
0.00157569
0.00159238
0.00161945
0.00164227
0.00165858
0.00166921
0.00167564
0.00167924
0.00168111
0.00168197
0.00168226
0.00168212
0.00168141
0.00167971
0.00167627
0.00166999
0.00165948
0.00164324
0.00162045
0.00159334
0.00157656
0.00164159
0.00211326
0.00398131
0.00864439
0.0118433
0.00863608
0.0118374
0.00397152
0.00210576
0.00163652
0.00157302
0.00159072
0.00161852
0.00164193
0.00165876
0.00166986
0.0016767
0.00168066
0.0016828
0.00168383
0.00168417
0.00168396
0.00168307
0.00168107
0.00167725
0.00167054
0.00165954
0.00164277
0.00161938
0.00159154
0.00157374
0.00163713
0.00210624
0.0039718
0.00863622
0.0118375
0.00862504
0.0118295
0.00395855
0.00209598
0.00162997
0.00156848
0.00158731
0.00161576
0.00163956
0.00165666
0.00166798
0.00167504
0.00167921
0.00168153
0.00168268
0.00168305
0.00168278
0.00168174
0.00167954
0.00167548
0.00166851
0.00165726
0.0016402
0.00161641
0.00158791
0.00156901
0.00163042
0.00209634
0.00395876
0.00862515
0.0118296
0.00860818
0.0118162
0.00394254
0.00208777
0.00162715
0.00156879
0.00158928
0.0016184
0.00164223
0.00165907
0.00167012
0.00167699
0.00168108
0.00168338
0.00168455
0.00168492
0.00168462
0.00168353
0.0016813
0.00167728
0.00167047
0.00165947
0.00164264
0.0016188
0.00158965
0.00156911
0.00162742
0.00208799
0.00394267
0.00860825
0.0118163
0.00859113
0.0117782
0.00398352
0.00217116
0.00171532
0.00165609
0.0016758
0.00170366
0.00172578
0.00174095
0.00175067
0.00175666
0.00176024
0.0017623
0.00176336
0.00176369
0.00176339
0.00176238
0.00176036
0.00175682
0.00175086
0.00174115
0.00172599
0.00170386
0.00167598
0.00165623
0.00171543
0.00217127
0.00398358
0.00859116
0.0117783
0.00877515
0.0116294
0.00470666
0.00309769
0.00260799
0.0024999
0.00249219
0.00250488
0.0025179
0.00252749
0.00253388
0.00253798
0.00254056
0.00254212
0.00254295
0.00254322
0.00254297
0.00254215
0.00254061
0.00253805
0.00253396
0.00252757
0.00251799
0.00250496
0.00249226
0.00249996
0.00260804
0.00309774
0.00470669
0.00877517
0.0116294
0.00988453
0.0111131
0.00821669
0.00764738
0.00750186
0.00749733
0.00751957
0.00753809
0.00754963
0.00755638
0.0075604
0.00756289
0.00756447
0.00756546
0.00756601
0.00756618
0.00756601
0.00756547
0.00756448
0.0075629
0.00756042
0.0075564
0.00754965
0.0075381
0.00751958
0.00749734
0.00750187
0.00764739
0.00821668
0.00988454
0.0111131
0.0108033
0.0107164
0.011053
0.0113564
0.0115901
0.0117351
0.0118129
0.0118508
0.0118684
0.0118765
0.0118804
0.0118825
0.0118838
0.0118845
0.0118849
0.011885
0.0118849
0.0118845
0.0118838
0.0118825
0.0118804
0.0118765
0.0118684
0.0118508
0.0118129
0.0117351
0.0115901
0.0113564
0.011053
0.0108033
0.0107164
)
