/*--------------------------------*- C++ -*----------------------------------*\
  =========                 |
  \\      /  F ield         | OpenFOAM: The Open Source CFD Toolbox
   \\    /   O peration     | Website:  https://openfoam.org
    \\  /    A nd           | Version:  6
     \\/     M anipulation  |
\*---------------------------------------------------------------------------*/
FoamFile
{
    version     2.0;
    format      ascii;
    class       volScalarField;
    location    "0.03";
    object      epsilon;
}
// * * * * * * * * * * * * * * * * * * * * * * * * * * * * * * * * * * * * * //

dimensions      [0 2 -3 0 0 0 0];

internalField   nonuniform List<scalar> 
12225
(
307.532
159.149
103.279
76.3329
61.1357
51.7035
45.3857
40.8673
37.4672
34.8177
32.7273
31.0536
29.7156
28.6681
27.8958
27.4153
27.3676
28.1073
71.5843
59.7332
44.4071
34.3614
27.8386
23.4153
20.2921
18.003
16.2657
14.9084
13.8313
12.9621
12.2531
11.673
11.2018
10.8257
10.5437
10.3465
33.6057
34.3909
29.2798
24.3845
20.5458
17.6339
15.4208
13.716
12.3788
11.3103
10.4462
9.73832
9.15255
8.66493
8.25841
7.92029
7.64193
7.41229
22.4911
24.189
22.2137
19.5368
17.0668
14.9942
13.306
11.9393
10.8282
9.91714
9.16492
8.53854
8.01325
7.57058
7.19673
6.88121
6.61602
6.39393
18.0506
19.1604
18.2194
16.5902
14.8954
13.3549
12.0252
10.9006
9.95537
9.16056
8.4908
7.92396
7.44229
7.03181
6.68164
6.3833
6.13015
5.91733
15.965
16.3963
15.7616
14.638
13.3938
12.2007
11.125
10.1826
9.36766
8.66704
8.06543
7.54844
7.10357
6.72044
6.3906
6.10728
5.8651
5.6607
14.9022
14.7866
14.1853
13.2961
12.3116
11.3443
10.4482
9.643
8.93143
8.30817
7.76438
7.29074
6.87851
6.52002
6.20877
5.93937
5.70752
5.51086
14.3398
13.824
13.1568
12.3616
11.5209
10.6969
9.9252
9.22165
8.59083
8.03046
7.53535
7.0993
6.71608
6.37995
6.08586
5.8295
5.60744
5.41802
14.0383
13.2447
12.4849
11.7121
10.9443
10.2073
9.51907
8.8889
8.31936
7.80889
7.35386
6.94974
6.59181
6.27563
5.99714
5.75282
5.5399
5.35721
13.8766
12.8985
12.0508
11.2661
10.5292
9.84135
9.20672
8.62733
8.10273
7.63061
7.20757
6.82975
6.49326
6.19436
5.92965
5.69615
5.49154
5.31499
13.7905
12.6952
11.7757
10.9664
10.2367
9.57354
8.97097
8.42499
7.93197
7.48816
7.08971
6.73282
6.41383
6.12939
5.87643
5.65229
5.45496
5.28381
13.7488
12.5879
11.6202
10.7869
10.053
9.39874
8.81204
8.28488
7.81111
7.38557
7.00369
6.66139
6.35498
6.08116
5.837
5.61999
5.42826
5.26127
13.7254
12.5235
11.5211
10.6667
9.92486
9.27245
8.69387
8.17817
7.71719
7.3045
6.93478
6.60354
6.3069
6.0415
5.80442
5.59321
5.40609
5.24252
13.7116
12.4832
11.4552
10.5823
9.83064
9.17585
8.60036
8.09125
7.63878
7.23535
6.87489
6.55242
6.26377
6.00542
5.77438
5.56817
5.38503
5.22443
13.7045
12.4611
11.4167
10.5301
9.76928
9.11005
8.53411
8.02751
7.57949
7.18162
6.82718
6.51072
6.22776
5.97455
5.74799
5.54553
5.36538
5.20694
13.7013
12.4506
11.3975
10.5024
9.73486
9.07125
8.49325
7.98656
7.53994
7.14448
6.79305
6.47984
6.2001
5.9499
5.72597
5.5257
5.34723
5.18991
13.7001
12.4464
11.3894
10.4901
9.7187
9.05201
8.4719
7.96407
7.51713
7.122
6.77132
6.4591
6.18042
5.93121
5.7081
5.50841
5.33022
5.17285
13.6997
12.4452
11.3868
10.4858
9.7127
9.04439
8.46285
7.95383
7.50597
7.1101
6.75882
6.44606
6.16684
5.91701
5.69317
5.49261
5.31339
5.15482
13.6998
12.4455
11.3872
10.4864
9.71322
9.04464
8.4626
7.95284
7.50398
7.10688
6.75413
6.43969
6.15859
5.90671
5.68066
5.47775
5.29609
5.13506
13.701
12.4494
11.3948
10.4977
9.72781
9.0616
8.48081
7.97113
7.52124
7.12218
6.7667
6.44893
6.16406
5.90809
5.67776
5.47047
5.28443
5.11919
13.7054
12.4635
11.4203
10.5339
9.77215
9.11098
8.5321
8.0216
7.56875
7.16514
6.80403
6.47997
6.18846
5.92575
5.68874
5.47494
5.2827
5.11176
13.7205
12.5084
11.4954
10.6325
9.88511
9.22951
8.64912
8.13205
7.66936
7.25404
6.88039
6.54365
6.23979
5.96532
5.7173
5.49332
5.29178
5.1126
13.7672
12.6336
11.6852
10.8611
10.128
9.46856
8.87265
8.3336
7.84613
7.40558
7.00764
6.6483
6.32385
6.03089
5.76642
5.52788
5.31353
5.1234
13.9009
12.947
12.1103
11.3276
10.587
9.89225
9.24825
8.65761
8.12021
7.63389
7.19532
6.80059
6.44567
6.12668
5.84002
5.5826
5.3522
5.14874
14.261
13.6668
12.9764
12.192
11.3753
10.5764
9.82519
9.13589
8.51259
7.9537
7.45484
7.01049
6.61489
6.26257
5.94859
5.66869
5.41973
5.20117
15.1943
15.2334
14.6377
13.6974
12.6488
11.6193
10.6669
9.81203
9.05652
8.39349
7.81302
7.30469
6.8588
6.46673
6.12113
5.81586
5.54635
5.31129
17.6335
18.6194
17.7674
16.2611
14.6647
13.1877
11.8923
10.7816
9.83693
9.03381
8.34882
7.76168
7.2556
6.81696
6.43482
6.10047
5.80742
5.55321
24.7044
26.4231
23.9028
20.7816
17.997
15.6968
13.8397
12.3449
11.134
10.1426
9.32091
8.63198
8.0481
7.54854
7.11765
6.74349
6.41725
6.1349
51.9613
47.7331
37.7958
30.1659
24.7456
20.8546
18.0042
15.8661
14.2195
12.9177
11.8644
10.9951
10.2658
9.64586
9.11304
8.65123
8.24859
7.89902
251.823
137.34
90.741
67.0593
53.2079
44.3917
38.4064
34.1017
30.846
28.2799
26.1906
24.4465
22.9624
21.6816
20.5643
19.5818
18.7131
17.9445
0.652475
1.09264
1.67536
2.19495
2.66211
3.08612
3.47287
3.8267
4.15153
4.45107
4.72904
4.98954
5.23719
5.47687
5.70437
5.91794
6.11801
6.30508
6.47944
6.64142
6.79139
6.92975
7.0575
7.17538
7.28485
7.38756
7.48157
7.56529
7.6376
7.69818
7.74711
7.78467
7.8113
7.82753
7.83399
7.8314
7.8205
7.80209
7.77698
7.74599
7.70992
7.66956
7.62565
7.57892
7.53001
7.47953
7.42804
7.37603
7.32395
7.27217
7.22102
7.1708
7.12172
7.07399
7.02776
6.98314
6.94022
6.89908
6.85973
6.82221
6.7865
6.7526
6.72049
6.69012
6.66145
6.63444
6.60903
6.58515
6.56277
6.5418
6.5222
6.5039
6.48683
6.47095
6.45619
6.44249
6.4298
6.41807
6.40725
6.39728
6.38813
6.37974
6.37207
6.36509
6.35875
6.35302
6.34787
6.34326
6.33915
6.33553
6.33237
6.32963
6.3273
6.32534
6.32375
6.3225
6.32157
6.32093
6.32057
6.32046
6.32052
6.3209
6.32183
6.3231
6.32462
6.32632
6.3282
6.33022
6.33239
6.33469
6.33712
6.33967
6.34234
6.34513
6.34803
6.35104
6.35414
6.35735
6.36066
6.36406
6.36754
6.37112
6.37478
6.37853
6.38235
6.38625
6.39023
6.39429
6.39842
6.40262
6.4069
6.41125
6.41566
6.42015
6.42469
6.42931
6.43398
6.43872
6.44351
6.44836
6.45327
6.45823
6.46324
6.46831
6.47343
6.47861
6.48384
6.48913
6.49447
6.49987
6.50533
6.51085
6.51642
6.52204
6.52772
6.53345
6.53923
6.54506
6.55092
6.55682
6.56274
6.56867
6.57459
6.58048
6.58631
6.59205
6.59763
6.60299
6.60803
6.6126
6.61651
6.61945
6.62097
6.62033
6.61628
6.6064
6.58587
6.54381
6.4573
6.27794
2.35292
1.60578
1.71961
1.91628
2.11882
2.30995
2.48535
2.64465
2.78888
2.91953
3.03827
3.14677
3.24663
3.33934
3.42614
3.50695
3.58185
3.65121
3.7154
3.7747
3.82936
3.87954
3.92541
3.96705
4.00452
4.03781
4.06682
4.09117
4.111
4.12638
4.13743
4.14429
4.14715
4.14624
4.14181
4.13414
4.12353
4.1103
4.09476
4.07722
4.05801
4.03743
4.01578
3.99331
3.97029
3.94694
3.92347
3.90008
3.87691
3.8541
3.83178
3.81003
3.78894
3.76856
3.74895
3.73013
3.71212
3.69493
3.67857
3.66303
3.64829
3.63435
3.62117
3.60874
3.59704
3.58602
3.57567
3.56596
3.55686
3.54833
3.54035
3.5329
3.52594
3.51944
3.51339
3.50776
3.50252
3.49766
3.49314
3.48896
3.48508
3.4815
3.4782
3.47515
3.47235
3.46977
3.46742
3.46526
3.4633
3.46152
3.4599
3.45844
3.45714
3.45597
3.45493
3.45402
3.45323
3.45254
3.45196
3.45148
3.45108
3.45081
3.45075
3.45082
3.45099
3.45123
3.45153
3.45188
3.45227
3.45271
3.45318
3.45369
3.45424
3.45482
3.45544
3.45609
3.45677
3.45749
3.45823
3.459
3.4598
3.46063
3.46149
3.46237
3.46327
3.4642
3.46515
3.46613
3.46713
3.46815
3.46919
3.47026
3.47134
3.47245
3.47357
3.47471
3.47588
3.47706
3.47825
3.47947
3.4807
3.48195
3.48321
3.48449
3.48578
3.48709
3.48842
3.48976
3.49112
3.4925
3.4939
3.49531
3.49674
3.49818
3.49965
3.50112
3.50262
3.50413
3.50566
3.50719
3.50874
3.5103
3.51186
3.51343
3.51499
3.51654
3.51807
3.51957
3.52102
3.52239
3.52366
3.52477
3.52567
3.52625
3.52638
3.52583
3.52437
3.52174
3.51943
3.52848
3.72943
2.15405
2.05306
2.12852
2.24566
2.371
2.49303
2.60751
2.71311
2.80985
2.89831
2.97933
3.05385
3.12275
3.18685
3.24656
3.30211
3.35376
3.40175
3.44624
3.48733
3.52506
3.55944
3.59041
3.61794
3.64193
3.66226
3.67882
3.69169
3.70095
3.70669
3.70902
3.70809
3.70409
3.69724
3.68776
3.67593
3.66201
3.64627
3.62899
3.61045
3.59092
3.57064
3.54985
3.52877
3.50761
3.48652
3.46568
3.4452
3.42521
3.40579
3.38702
3.36895
3.35163
3.33507
3.3193
3.30431
3.29011
3.27669
3.26402
3.25209
3.24087
3.23033
3.22044
3.21118
3.20252
3.19442
3.18685
3.17978
3.17319
3.16704
3.16131
3.15597
3.151
3.14638
3.14208
3.13808
3.13436
3.1309
3.12769
3.12471
3.12195
3.11938
3.117
3.1148
3.11276
3.11087
3.10912
3.1075
3.10601
3.10463
3.10336
3.1022
3.10112
3.10014
3.09924
3.09841
3.09766
3.09697
3.09635
3.09578
3.09529
3.09489
3.09457
3.09432
3.09412
3.09395
3.09383
3.09373
3.09366
3.09362
3.0936
3.09361
3.09364
3.09368
3.09375
3.09383
3.09394
3.09406
3.0942
3.09435
3.09452
3.09471
3.0949
3.09512
3.09534
3.09558
3.09583
3.09609
3.09636
3.09665
3.09695
3.09725
3.09757
3.09789
3.09823
3.09857
3.09892
3.09928
3.09965
3.10002
3.10041
3.1008
3.10119
3.10159
3.102
3.10242
3.10284
3.10327
3.10371
3.10416
3.10461
3.10507
3.10554
3.10601
3.10649
3.10698
3.10747
3.10797
3.10848
3.10899
3.1095
3.11001
3.11053
3.11104
3.11154
3.11203
3.11249
3.11293
3.11333
3.11368
3.11394
3.11409
3.11408
3.11385
3.1133
3.11232
3.11094
3.11006
3.11551
4.83582
2.6193
2.36897
2.36752
2.43343
2.52121
2.61443
2.70621
2.79356
2.87538
2.95147
3.02209
3.08772
3.14892
3.20621
3.25996
3.31031
3.35742
3.4014
3.44229
3.48011
3.51479
3.54626
3.57442
3.59916
3.62037
3.63791
3.65171
3.66184
3.66837
3.67139
3.67102
3.66744
3.66083
3.65142
3.63946
3.62523
3.60899
3.59105
3.57169
3.55119
3.52984
3.50788
3.48557
3.46313
3.44074
3.4186
3.39686
3.37564
3.35505
3.33517
3.31608
3.29781
3.28041
3.26388
3.24823
3.23345
3.21954
3.20647
3.19421
3.18273
3.172
3.16199
3.15265
3.14395
3.13586
3.12833
3.12134
3.11484
3.10881
3.1032
3.09801
3.09318
3.08871
3.08456
3.08071
3.07713
3.07382
3.07074
3.06789
3.06523
3.06277
3.06049
3.05836
3.05639
3.05456
3.05285
3.05127
3.04979
3.04842
3.04715
3.04596
3.04485
3.04382
3.04286
3.04196
3.04113
3.04035
3.03963
3.03895
3.03832
3.03774
3.03721
3.03674
3.03631
3.03592
3.03556
3.03523
3.03493
3.03464
3.03438
3.03413
3.0339
3.03368
3.03348
3.0333
3.03312
3.03296
3.03281
3.03268
3.03255
3.03243
3.03232
3.03222
3.03213
3.03205
3.03198
3.03191
3.03185
3.03179
3.03175
3.0317
3.03167
3.03164
3.03161
3.03159
3.03157
3.03156
3.03155
3.03154
3.03154
3.03154
3.03154
3.03155
3.03155
3.03156
3.03158
3.03159
3.03161
3.03163
3.03165
3.03168
3.03171
3.03174
3.03177
3.03181
3.03185
3.03189
3.03193
3.03197
3.03201
3.03205
3.03209
3.03213
3.03216
3.03218
3.03219
3.03219
3.03216
3.0321
3.032
3.03183
3.03159
3.03124
3.03073
3.03
3.02898
3.02769
3.02656
3.02825
5.79019
3.01575
2.64615
2.58875
2.6199
2.68357
2.75928
2.83809
2.91578
2.9904
3.06116
3.12787
3.19067
3.24983
3.30568
3.35842
3.40807
3.45467
3.4982
3.53863
3.57586
3.60978
3.64026
3.66715
3.69033
3.70968
3.72505
3.73643
3.74387
3.74748
3.74738
3.74373
3.73673
3.72661
3.71363
3.69808
3.68025
3.66046
3.63903
3.61626
3.59248
3.56797
3.543
3.51785
3.49273
3.46786
3.44342
3.41956
3.39642
3.37409
3.35267
3.3322
3.31272
3.29427
3.27684
3.26043
3.24502
3.23059
3.2171
3.20453
3.19282
3.18193
3.17183
3.16246
3.15377
3.14573
3.1383
3.13142
3.12506
3.11919
3.11376
3.10875
3.10412
3.09983
3.09588
3.09222
3.08884
3.08571
3.08282
3.08014
3.07766
3.07536
3.07322
3.07124
3.0694
3.06769
3.0661
3.06461
3.06323
3.06194
3.06074
3.05961
3.05855
3.05757
3.05664
3.05577
3.05495
3.05418
3.05345
3.05276
3.05212
3.05151
3.05094
3.05041
3.04991
3.04944
3.04899
3.04857
3.04817
3.04778
3.04741
3.04705
3.04671
3.04638
3.04606
3.04575
3.04545
3.04516
3.04488
3.04461
3.04434
3.04408
3.04383
3.04358
3.04334
3.0431
3.04287
3.04265
3.04242
3.0422
3.04199
3.04177
3.04156
3.04136
3.04115
3.04095
3.04074
3.04054
3.04035
3.04015
3.03995
3.03975
3.03955
3.03936
3.03916
3.03896
3.03877
3.03857
3.03838
3.03818
3.03798
3.03779
3.03759
3.03739
3.0372
3.037
3.0368
3.0366
3.0364
3.0362
3.036
3.03579
3.03558
3.03536
3.03514
3.03491
3.03466
3.0344
3.03412
3.03382
3.03347
3.03308
3.03262
3.03208
3.03141
3.03057
3.0295
3.0282
3.02688
3.02683
6.668
3.36817
2.89377
2.7918
2.79783
2.84563
2.91092
2.9829
3.0563
3.12848
3.19815
3.26476
3.32816
3.38839
3.4456
3.49982
3.55093
3.59883
3.6434
3.68452
3.72201
3.75573
3.78549
3.81113
3.83253
3.84959
3.86218
3.87034
3.87418
3.87385
3.86952
3.86141
3.84977
3.83489
3.81709
3.79668
3.77403
3.74948
3.72338
3.69608
3.66792
3.63921
3.61025
3.58131
3.55264
3.52445
3.49693
3.47023
3.44448
3.41978
3.39621
3.37381
3.35261
3.33263
3.31386
3.29627
3.27985
3.26454
3.25031
3.23711
3.22488
3.21357
3.20312
3.19347
3.18458
3.17639
3.16885
3.16191
3.15553
3.14965
3.14425
3.13928
3.13472
3.13051
3.12664
3.12308
3.1198
3.11678
3.11399
3.11142
3.10904
3.10684
3.10481
3.10293
3.10118
3.09956
3.09806
3.09666
3.09535
3.09413
3.09299
3.09193
3.09093
3.08999
3.08911
3.08828
3.08749
3.08675
3.08605
3.08538
3.08475
3.08415
3.08358
3.08304
3.08252
3.08203
3.08155
3.0811
3.08066
3.08024
3.07983
3.07943
3.07904
3.07866
3.07829
3.07793
3.07758
3.07723
3.07689
3.07656
3.07623
3.07591
3.07559
3.07528
3.07496
3.07466
3.07435
3.07405
3.07375
3.07345
3.07315
3.07286
3.07256
3.07227
3.07198
3.07169
3.07139
3.0711
3.07081
3.07052
3.07022
3.06993
3.06963
3.06933
3.06903
3.06873
3.06843
3.06813
3.06783
3.06752
3.06721
3.0669
3.06659
3.06628
3.06596
3.06565
3.06533
3.06501
3.06468
3.06436
3.06402
3.06369
3.06335
3.063
3.06265
3.06228
3.06191
3.06151
3.0611
3.06067
3.0602
3.05969
3.05913
3.05849
3.05775
3.05687
3.05581
3.05455
3.0532
3.05245
7.52353
3.69976
3.12649
2.98605
2.97267
3.00981
3.06935
3.13868
3.21151
3.28456
3.35609
3.42523
3.49156
3.55494
3.61533
3.67256
3.72637
3.77653
3.8228
3.86498
3.90285
3.9362
3.96484
3.98862
4.00742
4.02119
4.02989
4.03361
4.03254
4.0269
4.01696
4.003
3.98534
3.96435
3.94039
3.91385
3.88514
3.85464
3.82276
3.78987
3.75634
3.72251
3.68869
3.65517
3.6222
3.59001
3.55878
3.52866
3.49979
3.47224
3.44609
3.42138
3.39811
3.37628
3.35587
3.33686
3.31918
3.30279
3.28763
3.27363
3.26072
3.24884
3.23791
3.22788
3.21867
3.21023
3.20249
3.1954
3.18891
3.18296
3.17752
3.17253
3.16797
3.16379
3.15996
3.15644
3.15322
3.15026
3.14754
3.14504
3.14274
3.14063
3.13867
3.13687
3.1352
3.13366
3.13223
3.1309
3.12967
3.12852
3.12745
3.12644
3.1255
3.12462
3.12379
3.12301
3.12227
3.12158
3.12091
3.12028
3.11968
3.11911
3.11856
3.11804
3.11754
3.11706
3.11659
3.11614
3.1157
3.11528
3.11486
3.11446
3.11407
3.11368
3.1133
3.11293
3.11257
3.11221
3.11186
3.11151
3.11116
3.11082
3.11048
3.11015
3.10981
3.10948
3.10915
3.10883
3.1085
3.10817
3.10785
3.10752
3.1072
3.10687
3.10655
3.10622
3.1059
3.10557
3.10524
3.10491
3.10458
3.10424
3.10391
3.10357
3.10323
3.10289
3.10255
3.1022
3.10185
3.1015
3.10114
3.10079
3.10043
3.10007
3.0997
3.09933
3.09896
3.09859
3.09821
3.09783
3.09744
3.09705
3.09665
3.09625
3.09583
3.09541
3.09498
3.09453
3.09407
3.09358
3.09306
3.09251
3.09191
3.09124
3.0905
3.08963
3.08863
3.08746
3.0862
3.08527
8.40088
4.03079
3.35888
3.18269
3.15305
3.18267
3.23943
3.30887
3.38365
3.45987
3.53535
3.60889
3.67984
3.74784
3.81267
3.87394
3.9312
3.98408
4.03225
4.07541
4.11331
4.1457
4.1724
4.1933
4.20833
4.21749
4.22087
4.21867
4.21119
4.19874
4.18169
4.16041
4.13532
4.10684
4.07542
4.0415
4.00556
3.96801
3.92931
3.88987
3.85007
3.81028
3.77083
3.73202
3.6941
3.65732
3.62184
3.58782
3.55538
3.52459
3.4955
3.46815
3.44252
3.4186
3.39634
3.3757
3.3566
3.33897
3.32274
3.30782
3.29413
3.28159
3.27011
3.25961
3.25002
3.24127
3.23328
3.22599
3.21935
3.21329
3.20777
3.20273
3.19814
3.19395
3.19012
3.18663
3.18344
3.18052
3.17785
3.17541
3.17317
3.17112
3.16923
3.16749
3.1659
3.16442
3.16306
3.1618
3.16063
3.15955
3.15854
3.1576
3.15672
3.15589
3.15512
3.15439
3.15371
3.15306
3.15244
3.15186
3.1513
3.15077
3.15026
3.14977
3.1493
3.14885
3.14841
3.14798
3.14756
3.14716
3.14677
3.14638
3.14601
3.14564
3.14528
3.14492
3.14457
3.14422
3.14388
3.14354
3.14321
3.14287
3.14254
3.14221
3.14189
3.14156
3.14124
3.14092
3.14059
3.14027
3.13995
3.13962
3.1393
3.13898
3.13865
3.13833
3.138
3.13767
3.13734
3.13701
3.13667
3.13633
3.136
3.13565
3.13531
3.13496
3.13461
3.13426
3.13391
3.13355
3.13319
3.13282
3.13246
3.13209
3.13171
3.13134
3.13095
3.13057
3.13018
3.12979
3.12939
3.12899
3.12858
3.12816
3.12774
3.1273
3.12686
3.1264
3.12593
3.12543
3.12492
3.12437
3.12378
3.12313
3.12242
3.12162
3.1207
3.11967
3.11856
3.11767
9.33354
4.3774
3.60311
3.39159
3.34705
3.37079
3.42649
3.49772
3.5761
3.65702
3.73789
3.81717
3.89394
3.96762
4.0378
4.10374
4.16483
4.22053
4.27043
4.31412
4.35132
4.38178
4.40537
4.42202
4.43176
4.43473
4.43114
4.42139
4.40589
4.38507
4.3594
4.32937
4.29548
4.25824
4.21816
4.17576
4.13154
4.08599
4.03959
3.99276
3.94594
3.89949
3.85377
3.80908
3.76569
3.72381
3.68364
3.6453
3.60892
3.57456
3.54224
3.51199
3.48377
3.45754
3.43325
3.41081
3.39015
3.37117
3.35376
3.33784
3.32329
3.31001
3.29792
3.2869
3.27689
3.26778
3.2595
3.25199
3.24516
3.23896
3.23333
3.22822
3.22358
3.21936
3.21552
3.21203
3.20886
3.20597
3.20333
3.20093
3.19874
3.19674
3.1949
3.19322
3.19168
3.19027
3.18897
3.18777
3.18666
3.18564
3.18469
3.1838
3.18298
3.18222
3.1815
3.18082
3.18019
3.17959
3.17903
3.17849
3.17798
3.17749
3.17703
3.17658
3.17615
3.17573
3.17533
3.17493
3.17455
3.17418
3.17382
3.17347
3.17312
3.17278
3.17245
3.17212
3.17179
3.17147
3.17116
3.17084
3.17053
3.17022
3.16992
3.16961
3.16931
3.169
3.1687
3.1684
3.1681
3.1678
3.16749
3.16719
3.16689
3.16658
3.16628
3.16597
3.16566
3.16535
3.16504
3.16472
3.1644
3.16409
3.16376
3.16344
3.16311
3.16278
3.16245
3.16212
3.16178
3.16144
3.16109
3.16075
3.16039
3.16004
3.15968
3.15932
3.15896
3.15859
3.15821
3.15784
3.15745
3.15707
3.15667
3.15627
3.15586
3.15545
3.15502
3.15458
3.15413
3.15366
3.15317
3.15265
3.1521
3.1515
3.15085
3.15013
3.14933
3.14845
3.14752
3.14677
10.3397
4.74966
3.86722
3.61938
3.56016
3.57865
3.63413
3.70811
3.79106
3.87772
3.965
4.05099
4.13449
4.21464
4.2908
4.36177
4.42675
4.48505
4.53611
4.57947
4.61482
4.64197
4.66084
4.6715
4.67413
4.66903
4.6567
4.63767
4.61251
4.58178
4.54608
4.506
4.46212
4.41503
4.36532
4.31356
4.26028
4.20601
4.15125
4.09646
4.04207
3.98848
3.93604
3.88505
3.83579
3.78847
3.74328
3.70034
3.65974
3.62155
3.58578
3.55242
3.52143
3.49274
3.46627
3.44192
3.41959
3.39915
3.38049
3.36349
3.34801
3.33396
3.3212
3.30963
3.29915
3.28966
3.28107
3.2733
3.26627
3.25991
3.25415
3.24895
3.24423
3.23997
3.23611
3.23261
3.22944
3.22656
3.22395
3.22157
3.21942
3.21745
3.21566
3.21403
3.21254
3.21118
3.20993
3.20878
3.20772
3.20675
3.20586
3.20503
3.20426
3.20354
3.20288
3.20225
3.20167
3.20112
3.2006
3.20011
3.19965
3.19921
3.19879
3.19838
3.19799
3.19761
3.19725
3.19689
3.19655
3.19622
3.19589
3.19557
3.19526
3.19496
3.19466
3.19436
3.19407
3.19378
3.1935
3.19322
3.19294
3.19266
3.19239
3.19211
3.19184
3.19157
3.19129
3.19102
3.19075
3.19048
3.1902
3.18993
3.18965
3.18938
3.1891
3.18882
3.18854
3.18826
3.18798
3.18769
3.1874
3.18711
3.18682
3.18653
3.18623
3.18593
3.18563
3.18532
3.18501
3.1847
3.18439
3.18407
3.18375
3.18342
3.18309
3.18276
3.18243
3.18209
3.18175
3.1814
3.18105
3.18069
3.18033
3.17996
3.17958
3.1792
3.17881
3.17841
3.17799
3.17756
3.17711
3.17664
3.17614
3.17561
3.17503
3.17441
3.17373
3.173
3.17226
3.17168
11.4175
5.14985
4.15371
3.86817
3.79392
3.80728
3.8629
3.94016
4.02838
4.12156
4.21609
4.30966
4.4007
4.48803
4.57063
4.64677
4.7154
4.77567
4.82688
4.86854
4.90036
4.92225
4.9343
4.93679
4.93011
4.91491
4.89193
4.86188
4.82548
4.78346
4.73651
4.68532
4.63057
4.5729
4.51294
4.45129
4.38851
4.32516
4.26174
4.19872
4.13654
4.0756
4.01624
3.95879
3.9035
3.85058
3.80021
3.75252
3.70758
3.66544
3.62609
3.58951
3.55564
3.52439
3.49565
3.46931
3.44523
3.42328
3.40331
3.38518
3.36874
3.35386
3.34041
3.32825
3.31729
3.30739
3.29847
3.29042
3.28317
3.27664
3.27074
3.26543
3.26064
3.25632
3.25241
3.24889
3.24571
3.24283
3.24023
3.23788
3.23574
3.23381
3.23205
3.23046
3.229
3.22768
3.22647
3.22537
3.22436
3.22344
3.22259
3.2218
3.22108
3.22041
3.21979
3.21921
3.21867
3.21817
3.21769
3.21725
3.21683
3.21643
3.21605
3.21568
3.21533
3.21499
3.21467
3.21435
3.21405
3.21375
3.21346
3.21318
3.21291
3.21264
3.21237
3.21211
3.21185
3.2116
3.21135
3.2111
3.21086
3.21062
3.21037
3.21013
3.20989
3.20965
3.20941
3.20918
3.20894
3.2087
3.20846
3.20822
3.20797
3.20773
3.20749
3.20724
3.207
3.20675
3.2065
3.20625
3.20599
3.20574
3.20548
3.20522
3.20496
3.20469
3.20442
3.20415
3.20388
3.2036
3.20332
3.20304
3.20276
3.20247
3.20218
3.20188
3.20158
3.20128
3.20098
3.20067
3.20035
3.20003
3.19971
3.19938
3.19905
3.19871
3.19836
3.198
3.19763
3.19725
3.19685
3.19643
3.19599
3.19553
3.19504
3.19451
3.19395
3.19337
3.1928
3.19238
12.5412
5.57129
4.45871
4.13471
4.04518
4.05345
4.10952
4.19059
4.28481
4.3854
4.48819
4.59039
4.69002
4.78551
4.87477
4.95594
5.02762
5.08872
5.13845
5.17633
5.2022
5.21619
5.21869
5.21029
5.19185
5.16438
5.12883
5.08612
5.03714
4.98272
4.92368
4.86078
4.79472
4.7262
4.65586
4.58429
4.51207
4.43974
4.36779
4.2967
4.22689
4.15875
4.09263
4.02884
3.96762
3.9092
3.85373
3.80134
3.75209
3.70601
3.66309
3.6233
3.58654
3.55271
3.52169
3.49334
3.4675
3.44401
3.42271
3.40344
3.38602
3.3703
3.35614
3.3434
3.33193
3.32162
3.31235
3.30403
3.29655
3.28982
3.28378
3.27835
3.27347
3.26908
3.26513
3.26158
3.25838
3.25549
3.25289
3.25054
3.24842
3.24651
3.24477
3.2432
3.24178
3.24049
3.23932
3.23825
3.23728
3.23639
3.23558
3.23483
3.23415
3.23352
3.23293
3.23239
3.23189
3.23143
3.23099
3.23058
3.2302
3.22984
3.22949
3.22917
3.22885
3.22855
3.22826
3.22798
3.22771
3.22745
3.2272
3.22695
3.22671
3.22647
3.22624
3.22602
3.2258
3.22558
3.22536
3.22515
3.22493
3.22472
3.22452
3.22431
3.2241
3.22389
3.22369
3.22348
3.22328
3.22307
3.22286
3.22266
3.22245
3.22224
3.22203
3.22182
3.22161
3.22139
3.22118
3.22096
3.22074
3.22052
3.2203
3.22007
3.21984
3.21961
3.21938
3.21915
3.21891
3.21867
3.21843
3.21819
3.21794
3.21769
3.21744
3.21718
3.21692
3.21666
3.2164
3.21613
3.21585
3.21558
3.21529
3.21501
3.21472
3.21442
3.21411
3.2138
3.21348
3.21315
3.21281
3.21245
3.21207
3.21168
3.21127
3.21083
3.21038
3.20993
3.20952
3.20925
13.6594
5.99794
4.77161
4.41
4.30568
4.30936
4.36654
4.45237
4.55379
4.66321
4.77581
4.88821
4.99783
5.10254
5.19891
5.28478
5.3584
5.41845
5.46411
5.49509
5.51156
5.51409
5.50355
5.48124
5.44848
5.40657
5.3567
5.3
5.23749
5.17011
5.09872
5.0241
4.94697
4.86799
4.78776
4.70687
4.62585
4.5452
4.4654
4.38689
4.31007
4.23532
4.16297
4.09331
4.02661
3.96306
3.90282
3.846
3.79267
3.74286
3.69654
3.65366
3.61412
3.57781
3.54458
3.51427
3.48672
3.46173
3.43913
3.41873
3.40034
3.38381
3.36895
3.35562
3.34366
3.33294
3.32333
3.31472
3.30701
3.30011
3.29392
3.28837
3.28339
3.27893
3.27493
3.27133
3.26811
3.2652
3.2626
3.26025
3.25813
3.25623
3.25451
3.25296
3.25156
3.2503
3.24915
3.24811
3.24716
3.2463
3.24552
3.24481
3.24415
3.24355
3.243
3.2425
3.24203
3.24159
3.24119
3.24082
3.24046
3.24013
3.23982
3.23952
3.23924
3.23897
3.23871
3.23847
3.23823
3.238
3.23778
3.23756
3.23735
3.23715
3.23695
3.23675
3.23656
3.23637
3.23619
3.23601
3.23582
3.23565
3.23547
3.23529
3.23511
3.23494
3.23476
3.23459
3.23442
3.23424
3.23407
3.23389
3.23371
3.23354
3.23336
3.23318
3.233
3.23282
3.23264
3.23245
3.23227
3.23208
3.23189
3.2317
3.23151
3.23131
3.23112
3.23092
3.23072
3.23051
3.23031
3.2301
3.22989
3.22968
3.22946
3.22925
3.22903
3.2288
3.22858
3.22835
3.22811
3.22788
3.22764
3.22739
3.22714
3.22689
3.22663
3.22637
3.22609
3.22581
3.22552
3.22522
3.2249
3.22458
3.22424
3.22389
3.22354
3.22321
3.22292
3.22278
14.6939
6.40461
5.07521
4.67947
4.56211
4.56263
4.62247
4.71488
4.82565
4.94635
5.07137
5.19653
5.31835
5.4336
5.53744
5.62717
5.70063
5.75639
5.79389
5.81333
5.8156
5.80211
5.77474
5.73537
5.68576
5.62753
5.5621
5.49073
5.41452
5.33443
5.25129
5.16581
5.07865
4.9904
4.90157
4.81268
4.72418
4.63652
4.55012
4.46537
4.38266
4.30232
4.22469
4.15003
4.07859
4.01059
3.94618
3.88546
3.82851
3.77536
3.72596
3.68028
3.6382
3.5996
3.56433
3.5322
3.50305
3.47666
3.45283
3.43138
3.41209
3.39478
3.37926
3.36537
3.35295
3.34184
3.33191
3.32304
3.31511
3.30802
3.30169
3.29603
3.29096
3.28643
3.28238
3.27874
3.27549
3.27257
3.26995
3.26759
3.26548
3.26358
3.26187
3.26034
3.25895
3.2577
3.25657
3.25555
3.25463
3.25379
3.25304
3.25235
3.25172
3.25114
3.25062
3.25014
3.24969
3.24929
3.24891
3.24856
3.24824
3.24793
3.24765
3.24738
3.24712
3.24688
3.24665
3.24643
3.24622
3.24601
3.24582
3.24563
3.24545
3.24527
3.2451
3.24493
3.24477
3.24461
3.24445
3.24429
3.24414
3.24399
3.24384
3.24369
3.24354
3.24339
3.24325
3.2431
3.24295
3.24281
3.24266
3.24251
3.24237
3.24222
3.24207
3.24192
3.24177
3.24162
3.24147
3.24131
3.24116
3.241
3.24085
3.24069
3.24053
3.24036
3.2402
3.24003
3.23987
3.2397
3.23953
3.23935
3.23918
3.239
3.23882
3.23864
3.23845
3.23827
3.23808
3.23788
3.23769
3.23749
3.23729
3.23709
3.23688
3.23666
3.23645
3.23622
3.236
3.23576
3.23552
3.23527
3.23501
3.23474
3.23447
3.2342
3.23394
3.23371
3.23353
3.23349
15.5401
6.758
5.34676
4.9238
4.79703
4.79718
4.86251
4.96468
5.08843
5.22439
5.36595
5.50782
5.64536
5.77248
5.88357
5.975
6.04425
6.09016
6.11304
6.11426
6.09628
6.06188
6.01378
5.95445
5.88608
5.81053
5.72933
5.64377
5.55487
5.46349
5.37031
5.27592
5.1808
5.0854
4.99011
4.89531
4.80137
4.70865
4.61748
4.52822
4.44121
4.35675
4.27516
4.1967
4.12163
4.05015
3.98241
3.91856
3.85865
3.80272
3.75075
3.70269
3.65844
3.61787
3.58081
3.5471
3.51653
3.4889
3.46399
3.44159
3.42149
3.40349
3.38738
3.373
3.36015
3.3487
3.33848
3.32937
3.32125
3.31401
3.30755
3.30178
3.29664
3.29205
3.28794
3.28427
3.28099
3.27805
3.27542
3.27307
3.27096
3.26906
3.26736
3.26583
3.26446
3.26322
3.26211
3.2611
3.2602
3.25938
3.25864
3.25797
3.25736
3.2568
3.2563
3.25584
3.25542
3.25503
3.25467
3.25435
3.25404
3.25376
3.2535
3.25325
3.25302
3.2528
3.25259
3.25239
3.2522
3.25202
3.25185
3.25169
3.25153
3.25138
3.25123
3.25108
3.25094
3.2508
3.25067
3.25054
3.25041
3.25028
3.25015
3.25003
3.24991
3.24978
3.24966
3.24954
3.24942
3.24929
3.24917
3.24905
3.24893
3.24881
3.24869
3.24856
3.24844
3.24831
3.24819
3.24806
3.24793
3.24781
3.24768
3.24755
3.24741
3.24728
3.24715
3.24701
3.24687
3.24673
3.24659
3.24645
3.2463
3.24616
3.24601
3.24586
3.24571
3.24555
3.2454
3.24524
3.24508
3.24492
3.24475
3.24458
3.24441
3.24423
3.24405
3.24387
3.24368
3.24349
3.24329
3.24309
3.24288
3.24267
3.24246
3.24225
3.24207
3.24192
3.24183
3.24187
16.0872
7.02862
5.5677
5.12787
4.99727
5.0016
5.07716
5.19447
5.33735
5.49528
5.66019
5.82486
5.98229
6.12199
6.2376
6.32462
6.38106
6.40675
6.40474
6.37904
6.33388
6.2733
6.20085
6.11951
6.03168
5.93923
5.84359
5.74583
5.64672
5.54685
5.44663
5.34639
5.24639
5.14686
5.04804
4.95014
4.85341
4.7581
4.66448
4.57285
4.48349
4.39671
4.31278
4.232
4.1546
4.0808
4.01079
3.9447
3.88263
3.82463
3.77069
3.72078
3.6748
3.63263
3.59413
3.5591
3.52736
3.49868
3.47285
3.44966
3.42886
3.41027
3.39366
3.37885
3.36565
3.3539
3.34344
3.33413
3.32585
3.31848
3.31192
3.30607
3.30087
3.29622
3.29208
3.28839
3.28509
3.28214
3.27951
3.27715
3.27504
3.27315
3.27146
3.26994
3.26857
3.26735
3.26625
3.26526
3.26437
3.26356
3.26284
3.26218
3.26159
3.26105
3.26056
3.26012
3.25972
3.25935
3.25901
3.2587
3.25841
3.25814
3.2579
3.25767
3.25745
3.25725
3.25706
3.25688
3.25672
3.25655
3.2564
3.25626
3.25612
3.25598
3.25585
3.25573
3.25561
3.25549
3.25537
3.25526
3.25515
3.25504
3.25494
3.25483
3.25473
3.25462
3.25452
3.25442
3.25432
3.25422
3.25412
3.25402
3.25392
3.25382
3.25371
3.25361
3.25351
3.25341
3.25331
3.2532
3.2531
3.25299
3.25288
3.25278
3.25267
3.25256
3.25245
3.25234
3.25222
3.25211
3.25199
3.25188
3.25176
3.25164
3.25152
3.25139
3.25127
3.25114
3.25101
3.25088
3.25075
3.25062
3.25048
3.25034
3.2502
3.25006
3.24991
3.24976
3.24961
3.24945
3.24929
3.24912
3.24896
3.24879
3.24863
3.24848
3.24835
3.24827
3.24825
3.24836
16.1341
7.14551
5.68849
5.25025
5.12578
5.14177
5.23466
5.37484
5.54557
5.73514
5.9332
6.12912
6.30924
6.46053
6.57301
6.64288
6.67168
6.66403
6.6264
6.56557
6.48774
6.3981
6.3007
6.1986
6.09397
5.9883
5.88254
5.77728
5.67285
5.56938
5.46693
5.36549
5.26504
5.16558
5.06714
4.96979
4.87365
4.77888
4.68569
4.59433
4.50505
4.41814
4.33389
4.25258
4.17449
4.09985
4.02887
3.96173
3.89854
3.83939
3.78429
3.73323
3.68614
3.64292
3.60342
3.56749
3.53491
3.50548
3.47899
3.45521
3.43391
3.41488
3.3979
3.38278
3.36932
3.35736
3.34673
3.33728
3.32889
3.32144
3.31481
3.30892
3.30368
3.29901
3.29486
3.29116
3.28786
3.28491
3.28228
3.27993
3.27783
3.27595
3.27427
3.27277
3.27142
3.2702
3.26912
3.26814
3.26727
3.26648
3.26577
3.26513
3.26455
3.26402
3.26355
3.26312
3.26273
3.26238
3.26205
3.26176
3.26148
3.26123
3.261
3.26079
3.26059
3.2604
3.26023
3.26007
3.25991
3.25977
3.25963
3.2595
3.25938
3.25926
3.25915
3.25904
3.25894
3.25883
3.25874
3.25864
3.25855
3.25846
3.25837
3.25828
3.25819
3.25811
3.25802
3.25794
3.25786
3.25777
3.25769
3.25761
3.25753
3.25745
3.25736
3.25728
3.2572
3.25712
3.25703
3.25695
3.25687
3.25678
3.2567
3.25661
3.25652
3.25644
3.25635
3.25626
3.25617
3.25608
3.25598
3.25589
3.25579
3.2557
3.2556
3.2555
3.2554
3.2553
3.2552
3.2551
3.25499
3.25488
3.25477
3.25466
3.25455
3.25443
3.25432
3.2542
3.25407
3.25395
3.25382
3.25369
3.25356
3.25344
3.25332
3.25322
3.25315
3.25312
3.25316
3.25331
15.6684
7.11457
5.7166
5.29898
5.19045
5.22469
5.34043
5.509
5.71369
5.94184
6.1799
6.40918
6.6058
6.75431
6.84622
6.88177
6.86812
6.81575
6.73555
6.637
6.52755
6.41259
6.29581
6.17959
6.0653
5.95362
5.8448
5.73876
5.63526
5.53399
5.4346
5.33677
5.24025
5.14483
5.05038
4.95687
4.86432
4.77284
4.68259
4.59378
4.50669
4.42159
4.33879
4.2586
4.1813
4.10718
4.03649
3.96941
3.90613
3.84673
3.7913
3.73983
3.69228
3.64858
3.6086
3.57219
3.53917
3.50933
3.48246
3.45834
3.43675
3.41746
3.40027
3.38496
3.37136
3.35928
3.34856
3.33904
3.3306
3.32311
3.31646
3.31056
3.30532
3.30065
3.29651
3.29282
3.28953
3.2866
3.28399
3.28165
3.27957
3.27771
3.27605
3.27456
3.27323
3.27204
3.27097
3.27001
3.26915
3.26837
3.26768
3.26705
3.26649
3.26598
3.26552
3.26511
3.26473
3.26439
3.26408
3.2638
3.26354
3.2633
3.26308
3.26288
3.2627
3.26252
3.26236
3.26222
3.26208
3.26195
3.26182
3.26171
3.2616
3.2615
3.2614
3.2613
3.26121