/*--------------------------------*- C++ -*----------------------------------*\
  =========                 |
  \\      /  F ield         | OpenFOAM: The Open Source CFD Toolbox
   \\    /   O peration     | Website:  https://openfoam.org
    \\  /    A nd           | Version:  6
     \\/     M anipulation  |
\*---------------------------------------------------------------------------*/
FoamFile
{
    version     2.0;
    format      ascii;
    class       volScalarField;
    location    "0.03";
    object      k;
}
// * * * * * * * * * * * * * * * * * * * * * * * * * * * * * * * * * * * * * //

dimensions      [0 2 -2 0 0 0 0];

internalField   nonuniform List<scalar> 
12225
(
0.246428
0.158841
0.119059
0.097322
0.0839275
0.0750488
0.0687937
0.0641366
0.0605137
0.0576085
0.0552551
0.0533283
0.0517542
0.0504925
0.0495336
0.0489009
0.0487554
0.0494921
0.339466
0.260106
0.208331
0.175484
0.153598
0.138171
0.12669
0.11775
0.110566
0.104672
0.099781
0.0956902
0.0922672
0.089426
0.0871219
0.0853411
0.0841662
0.0836866
0.34748
0.292346
0.2486
0.216401
0.192586
0.174592
0.16062
0.149482
0.14041
0.132913
0.126639
0.121356
0.116904
0.113175
0.110105
0.107667
0.105895
0.10485
0.351363
0.309052
0.271976
0.242127
0.218501
0.199739
0.184656
0.172347
0.162165
0.153657
0.146475
0.140386
0.135222
0.130866
0.127243
0.124314
0.122084
0.12058
0.353915
0.319287
0.287288
0.260021
0.237394
0.218738
0.203304
0.190439
0.179631
0.170487
0.162697
0.156044
0.150363
0.145538
0.141489
0.13817
0.135565
0.133679
0.355678
0.326055
0.297955
0.273109
0.251775
0.233668
0.218331
0.205308
0.194208
0.184699
0.176524
0.169487
0.163438
0.158265
0.153888
0.150256
0.14734
0.145133
0.356919
0.330735
0.305655
0.28295
0.262969
0.245626
0.230649
0.217729
0.206567
0.196897
0.188511
0.181237
0.174941
0.169519
0.164895
0.161015
0.157843
0.155367
0.357805
0.334053
0.311321
0.290457
0.271775
0.25528
0.240813
0.228162
0.217099
0.207423
0.19896
0.191566
0.185122
0.179536
0.174734
0.170663
0.167284
0.164583
0.358437
0.336429
0.315523
0.296211
0.278721
0.263082
0.249197
0.236913
0.226064
0.216492
0.208056
0.200634
0.194125
0.188443
0.183523
0.179312
0.175772
0.172886
0.358886
0.338131
0.318634
0.300609
0.284179
0.269357
0.256072
0.244211
0.233648
0.224259
0.215926
0.208548
0.202037
0.196319
0.191331
0.187025
0.183362
0.180327
0.359199
0.339339
0.320918
0.30394
0.288425
0.274351
0.261651
0.250235
0.239999
0.230841
0.222666
0.215385
0.208924
0.203214
0.198201
0.193837
0.190087
0.186936
0.359398
0.340115
0.322431
0.306216
0.291407
0.277942
0.265745
0.254731
0.24481
0.235891
0.227893
0.220737
0.214356
0.20869
0.203687
0.199303
0.195504
0.192279
0.35954
0.340673
0.32355
0.307946
0.293727
0.280793
0.269053
0.258419
0.248805
0.240131
0.23232
0.225303
0.21902
0.213415
0.208439
0.204051
0.20022
0.196935
0.359648
0.341105
0.324442
0.309367
0.295686
0.283259
0.271973
0.261731
0.252448
0.244044
0.236449
0.229601
0.223441
0.217919
0.21299
0.208615
0.204765
0.201429
0.359723
0.341411
0.325092
0.310435
0.297205
0.285223
0.274355
0.264489
0.255534
0.247408
0.240044
0.23338
0.227362
0.221941
0.217074
0.212726
0.20887
0.205495
0.359771
0.341605
0.325515
0.311154
0.298259
0.286627
0.276103
0.266559
0.257895
0.250025
0.242878
0.236393
0.230515
0.225196
0.220397
0.216082
0.212226
0.20882
0.359797
0.34171
0.32575
0.311565
0.298881
0.28748
0.277192
0.267878
0.259429
0.251752
0.244772
0.238424
0.232653
0.227412
0.22266
0.218363
0.214497
0.211053
0.359807
0.341752
0.325843
0.311731
0.299135
0.287835
0.277652
0.268441
0.260086
0.252491
0.245577
0.239277
0.233535
0.228301
0.223536
0.219205
0.215286
0.211771
0.359803
0.341736
0.325805
0.311659
0.299019
0.287663
0.277413
0.268127
0.259687
0.251999
0.244984
0.238574
0.232714
0.227355
0.222456
0.217986
0.213922
0.210259
0.359776
0.341625
0.325551
0.311204
0.298313
0.286669
0.276106
0.266494
0.257725
0.24971
0.242376
0.235658
0.229501
0.223857
0.218687
0.213957
0.209647
0.205755
0.359716
0.341376
0.325003
0.310265
0.296921
0.284791
0.273736
0.263643
0.254417
0.245975
0.238244
0.231162
0.224672
0.218723
0.213274
0.20829
0.203748
0.199649
0.359585
0.340847
0.323888
0.308443
0.294344
0.281466
0.269706
0.258968
0.249165
0.240213
0.232038
0.224568
0.217739
0.211497
0.20579
0.200581
0.195843
0.191576
0.359328
0.339827
0.321834
0.305255
0.290045
0.276151
0.263503
0.252009
0.241576
0.232104
0.223503
0.215687
0.208577
0.202105
0.196213
0.190851
0.185989
0.181626
0.358859
0.337998
0.318337
0.300099
0.283407
0.268272
0.254624
0.24235
0.231319
0.221399
0.212468
0.204412
0.197135
0.190549
0.184583
0.179176
0.174292
0.169927
0.358048
0.334896
0.312709
0.292214
0.273699
0.257184
0.242539
0.229573
0.218084
0.207881
0.198794
0.190674
0.183396
0.176854
0.17096
0.165645
0.16086
0.156603
0.356703
0.329782
0.303917
0.280517
0.259934
0.242056
0.226583
0.213171
0.201497
0.191285
0.182301
0.174356
0.167295
0.160992
0.155346
0.150276
0.145729
0.141696
0.354511
0.321304
0.290169
0.263232
0.240557
0.221617
0.205753
0.192361
0.180949
0.171129
0.162605
0.155143
0.148565
0.142731
0.137531
0.13288
0.128718
0.125036
0.350889
0.306554
0.267828
0.236945
0.212694
0.19354
0.178172
0.165605
0.155141
0.146288
0.138696
0.13211
0.126342
0.121252
0.116731
0.112697
0.109093
0.105904
0.342422
0.275875
0.22716
0.193361
0.169569
0.152258
0.139135
0.128788
0.120365
0.113339
0.107368
0.10222
0.0977293
0.093777
0.0902742
0.0871535
0.0843655
0.0818899
0.259296
0.173087
0.131303
0.107329
0.0919886
0.0815249
0.0740222
0.0683827
0.0639586
0.0603613
0.0573516
0.0547773
0.0525378
0.0505644
0.0488085
0.047235
0.0458178
0.0445413
0.00541048
0.0126967
0.0169154
0.0202772
0.0230805
0.0254884
0.0275934
0.0294549
0.0311164
0.0326121
0.0339704
0.035217
0.036376
0.037471
0.0385292
0.0395281
0.0404577
0.0413209
0.04212
0.0428572
0.0435343
0.044153
0.0447166
0.0452279
0.0456919
0.0461165
0.0465071
0.0468661
0.0471823
0.0474502
0.0476676
0.0478351
0.047954
0.0480265
0.0480552
0.0480429
0.0479928
0.0479082
0.0477925
0.0476492
0.0474817
0.0472934
0.0470875
0.0468673
0.0466357
0.0463954
0.046149
0.0458987
0.0456467
0.0453947
0.0451444
0.0448972
0.0446543
0.0444166
0.0441849
0.04396
0.0437422
0.043532
0.0433297
0.0431353
0.0429489
0.0427706
0.0426002
0.0424377
0.0422828
0.0421355
0.0419953
0.0418622
0.0417359
0.041616
0.0415024
0.0413946
0.0412926
0.0411959
0.0411043
0.0410175
0.0409353
0.0408575
0.0407838
0.0407139
0.0406477
0.0405848
0.0405253
0.0404687
0.040415
0.040364
0.0403154
0.0402693
0.0402253
0.0401834
0.0401434
0.0401052
0.0400687
0.0400338
0.0400003
0.0399683
0.0399375
0.0399078
0.0398792
0.0398516
0.0398246
0.0397985
0.0397747
0.0397523
0.0397308
0.0397099
0.0396896
0.0396697
0.0396503
0.0396312
0.0396124
0.039594
0.0395758
0.0395579
0.0395402
0.0395227
0.0395054
0.0394883
0.0394714
0.0394545
0.0394378
0.0394212
0.0394047
0.0393882
0.0393718
0.0393555
0.0393391
0.0393228
0.0393066
0.0392903
0.039274
0.0392577
0.0392414
0.039225
0.0392086
0.0391922
0.0391757
0.0391591
0.0391424
0.0391256
0.0391086
0.0390916
0.0390744
0.0390571
0.0390397
0.0390221
0.0390044
0.0389866
0.0389686
0.0389504
0.0389321
0.0389136
0.038895
0.0388762
0.0388572
0.038838
0.0388186
0.038799
0.0387791
0.0387589
0.0387384
0.0387175
0.0386961
0.0386742
0.0386516
0.0386281
0.0386036
0.0385778
0.0385502
0.0385203
0.0384873
0.0384501
0.0384068
0.0383546
0.0382885
0.0381992
0.0380681
0.037853
0.0374654
0.0367161
0.0128731
0.0293114
0.0385146
0.0456682
0.051704
0.0569403
0.0615462
0.065635
0.069292
0.072585
0.0755689
0.0782888
0.0807814
0.0830764
0.0851975
0.0871671
0.0889948
0.0906898
0.0922592
0.0937085
0.0950413
0.0962599
0.0973658
0.0983597
0.0992421
0.100013
0.100672
0.101217
0.101651
0.101977
0.102199
0.102319
0.102344
0.102277
0.102125
0.101894
0.101591
0.101224
0.100799
0.100325
0.0998072
0.0992544
0.0986731
0.0980699
0.0974508
0.0968215
0.0961873
0.0955526
0.0949218
0.0942982
0.093685
0.0930849
0.0924998
0.0919316
0.0913815
0.0908506
0.0903395
0.0898487
0.0893783
0.0889283
0.0884986
0.0880888
0.0876986
0.0873273
0.0869744
0.0866394
0.0863214
0.0860199
0.0857341
0.0854632
0.0852067
0.0849638
0.0847337
0.0845159
0.0843096
0.0841143
0.0839293
0.0837541
0.083588
0.0834306
0.0832814
0.0831397
0.0830053
0.0828776
0.0827563
0.0826409
0.0825311
0.0824265
0.0823268
0.0822316
0.0821408
0.082054
0.0819709
0.0818913
0.0818149
0.0817416
0.0816712
0.0816033
0.0815379
0.0814747
0.0814134
0.0813534
0.0812949
0.0812383
0.0811835
0.0811304
0.0810787
0.0810283
0.0809792
0.0809311
0.080884
0.0808379
0.0807925
0.080748
0.0807041
0.0806609
0.0806183
0.0805761
0.0805345
0.0804932
0.0804524
0.0804118
0.0803715
0.0803315
0.0802917
0.0802521
0.0802125
0.0801731
0.0801338
0.0800945
0.0800552
0.080016
0.0799767
0.0799373
0.0798979
0.0798584
0.0798187
0.0797788
0.0797388
0.0796986
0.0796581
0.0796174
0.0795764
0.0795351
0.0794936
0.0794517
0.0794096
0.0793671
0.0793244
0.0792813
0.0792379
0.0791942
0.0791502
0.0791057
0.0790609
0.0790157
0.0789701
0.078924
0.0788774
0.0788302
0.0787823
0.0787337
0.0786843
0.0786338
0.0785822
0.078529
0.078474
0.0784166
0.0783563
0.078292
0.0782223
0.0781454
0.0780581
0.0779554
0.0778283
0.0776605
0.0774171
0.0770308
0.0763239
0.0752005
0.0175823
0.0393683
0.0509993
0.0597547
0.0670727
0.0734238
0.0790322
0.0840345
0.0885273
0.0925858
0.096271
0.0996334
0.102715
0.105551
0.10817
0.110596
0.112846
0.114929
0.116857
0.118636
0.120271
0.121764
0.123117
0.124331
0.125407
0.126343
0.127138
0.127791
0.128307
0.128688
0.128941
0.129068
0.129077
0.128973
0.128764
0.128458
0.128064
0.127589
0.127045
0.126439
0.125782
0.125082
0.124348
0.123588
0.12281
0.122022
0.121229
0.120438
0.119653
0.11888
0.118121
0.117381
0.116661
0.115963
0.11529
0.114642
0.11402
0.113424
0.112854
0.112311
0.111793
0.111301
0.110833
0.110389
0.109968
0.109568
0.10919
0.108832
0.108494
0.108173
0.10787
0.107583
0.107312
0.107056
0.106813
0.106583
0.106366
0.10616
0.105965
0.10578
0.105605
0.105439
0.105281
0.105131
0.104989
0.104853
0.104724
0.104601
0.104483
0.104371
0.104264
0.104161
0.104063
0.103969
0.103878
0.103791
0.103707
0.103626
0.103548
0.103472
0.103399
0.103328
0.103258
0.10319
0.103124
0.10306
0.102997
0.102935
0.102875
0.102816
0.102758
0.102701
0.102645
0.102589
0.102535
0.102481
0.102428
0.102375
0.102323
0.102272
0.10222
0.102169
0.102119
0.102069
0.102018
0.101968
0.101919
0.101869
0.101819
0.101769
0.10172
0.10167
0.10162
0.10157
0.10152
0.10147
0.101419
0.101369
0.101318
0.101267
0.101215
0.101163
0.101111
0.101059
0.101006
0.100953
0.100899
0.100845
0.10079
0.100735
0.10068
0.100624
0.100568
0.100511
0.100454
0.100397
0.100338
0.10028
0.10022
0.10016
0.100099
0.100037
0.0999746
0.0999107
0.0998453
0.0997783
0.0997092
0.0996375
0.0995626
0.0994834
0.0993985
0.0993059
0.0992023
0.0990826
0.098938
0.0987528
0.0984954
0.0981072
0.097461
0.096485
0.0209854
0.0466472
0.0600498
0.0699423
0.0781339
0.0852231
0.0914874
0.0970869
0.10213
0.106696
0.110851
0.114647
0.118128
0.121333
0.124292
0.12703
0.129565
0.131911
0.134079
0.136075
0.137906
0.139576
0.141085
0.142435
0.143626
0.144659
0.145529
0.146239
0.146793
0.147195
0.147451
0.147565
0.147545
0.147398
0.147133
0.146759
0.146285
0.145722
0.145082
0.144373
0.143607
0.142795
0.141946
0.14107
0.140177
0.139273
0.138367
0.137465
0.136573
0.135696
0.134838
0.134003
0.133194
0.132412
0.13166
0.130938
0.130246
0.129586
0.128957
0.128359
0.127791
0.127251
0.126741
0.126257
0.125799
0.125367
0.124958
0.124572
0.124207
0.123863
0.123538
0.123231
0.122941
0.122667
0.122408
0.122164
0.121933
0.121714
0.121507
0.121311
0.121125
0.120949
0.120781
0.120623
0.120472
0.120328
0.120191
0.12006
0.119936
0.119817
0.119703
0.119594
0.119489
0.119389
0.119292
0.1192
0.11911
0.119023
0.11894
0.118859
0.11878
0.118703
0.118629
0.118556
0.118485
0.118415
0.118347
0.11828
0.118214
0.118149
0.118086
0.118023
0.117962
0.117901
0.117841
0.117781
0.117723
0.117664
0.117607
0.11755
0.117493
0.117436
0.11738
0.117324
0.117268
0.117212
0.117157
0.117101
0.117046
0.11699
0.116934
0.116879
0.116823
0.116767
0.116711
0.116654
0.116597
0.116541
0.116483
0.116426
0.116368
0.116309
0.116251
0.116192
0.116132
0.116072
0.116012
0.115951
0.115889
0.115827
0.115765
0.115702
0.115639
0.115575
0.11551
0.115445
0.115379
0.115313
0.115246
0.115178
0.115109
0.115039
0.114969
0.114897
0.114823
0.114748
0.11467
0.11459
0.114507
0.114419
0.114326
0.114225
0.114112
0.113985
0.113833
0.113642
0.113386
0.113017
0.112449
0.111646
0.0237424
0.0524144
0.0672327
0.0780507
0.0869545
0.0946403
0.101429
0.107504
0.112981
0.117949
0.122474
0.126613
0.13041
0.133904
0.137128
0.140108
0.142863
0.145407
0.147752
0.149906
0.151875
0.153664
0.155274
0.156708
0.157965
0.159046
0.159949
0.160676
0.16123
0.161619
0.161847
0.161922
0.161851
0.161642
0.161306
0.160852
0.160292
0.159636
0.158898
0.158087
0.157218
0.1563
0.155345
0.154364
0.153366
0.15236
0.151355
0.150358
0.149375
0.148412
0.147473
0.146561
0.145681
0.144833
0.14402
0.143242
0.142501
0.141794
0.141124
0.140487
0.139885
0.139316
0.138778
0.13827
0.137791
0.13734
0.136915
0.136514
0.136136
0.135781
0.135446
0.13513
0.134833
0.134552
0.134288
0.134038
0.133803
0.13358
0.13337
0.13317
0.132982
0.132803
0.132634
0.132473
0.13232
0.132175
0.132037
0.131905
0.131779
0.131659
0.131544
0.131433
0.131328
0.131226
0.131128
0.131034
0.130943
0.130856
0.130771
0.130688
0.130608
0.13053
0.130454
0.13038
0.130307
0.130236
0.130166
0.130097
0.130029
0.129963
0.129897
0.129832
0.129769
0.129706
0.129643
0.129582
0.129521
0.12946
0.1294
0.129341
0.129281
0.129222
0.129164
0.129105
0.129047
0.128988
0.12893
0.128872
0.128813
0.128755
0.128697
0.128638
0.128579
0.128521
0.128461
0.128402
0.128342
0.128282
0.128222
0.128161
0.1281
0.128039
0.127977
0.127915
0.127852
0.127788
0.127724
0.12766
0.127595
0.12753
0.127464
0.127397
0.12733
0.127263
0.127194
0.127125
0.127056
0.126985
0.126914
0.126843
0.12677
0.126696
0.126621
0.126545
0.126467
0.126388
0.126306
0.126222
0.126134
0.126042
0.125944
0.125839
0.125724
0.125593
0.125439
0.12525
0.125003
0.12466
0.124163
0.123501
0.0261675
0.0573271
0.0733324
0.084939
0.0944554
0.102655
0.109895
0.116373
0.122218
0.127523
0.132357
0.136779
0.140835
0.144565
0.148004
0.151176
0.154101
0.156795
0.15927
0.161536
0.163598
0.165462
0.16713
0.168605
0.169887
0.170977
0.171875
0.172581
0.173103
0.173447
0.173619
0.173627
0.173481
0.173189
0.172763
0.172213
0.171552
0.170792
0.169946
0.169028
0.168049
0.167023
0.16596
0.164874
0.163773
0.162669
0.161569
0.160482
0.159415
0.158372
0.157359
0.15638
0.155437
0.154532
0.153668
0.152844
0.152061
0.151318
0.150616
0.149952
0.149326
0.148736
0.148181
0.147658
0.147167
0.146706
0.146273
0.145866
0.145484
0.145125
0.144788
0.144471
0.144173
0.143893
0.143629
0.143381
0.143147
0.142926
0.142718
0.142521
0.142336
0.14216
0.141993
0.141835
0.141685
0.141542
0.141407
0.141277
0.141154
0.141036
0.140924
0.140816
0.140712
0.140613
0.140517
0.140425
0.140336
0.14025
0.140167
0.140086
0.140007
0.139931
0.139856
0.139783
0.139711
0.139641
0.139572
0.139504
0.139437
0.139371
0.139306
0.139241
0.139178
0.139115
0.139053
0.138992
0.138931
0.138871
0.138811
0.138751
0.138692
0.138633
0.138574
0.138516
0.138457
0.138399
0.13834
0.138282
0.138223
0.138165
0.138106
0.138047
0.137988
0.137929
0.137869
0.13781
0.137749
0.137689
0.137628
0.137567
0.137505
0.137443
0.137381
0.137318
0.137254
0.13719
0.137126
0.137061
0.136995
0.136929
0.136862
0.136795
0.136727
0.136658
0.136589
0.136519
0.136449
0.136378
0.136305
0.136233
0.136159
0.136084
0.136008
0.135931
0.135852
0.135771
0.135689
0.135603
0.135515
0.135422
0.135324
0.135219
0.135103
0.134974
0.134823
0.134641
0.134407
0.134094
0.133662
0.133113
0.0284429
0.0617815
0.0788277
0.0911263
0.10118
0.10983
0.11746
0.124286
0.130445
0.136033
0.141125
0.14578
0.150047
0.153967
0.157574
0.160893
0.163946
0.166748
0.169312
0.171649
0.173765
0.175665
0.177354
0.178833
0.180104
0.181169
0.182028
0.182684
0.183143
0.183414
0.183504
0.183423
0.183179
0.182785
0.182251
0.18159
0.180814
0.179938
0.178976
0.17794
0.176845
0.175704
0.17453
0.173334
0.172129
0.170925
0.169731
0.168554
0.167403
0.166283
0.165199
0.164154
0.163153
0.162196
0.161285
0.16042
0.159601
0.158828
0.158099
0.157413
0.156769
0.156165
0.155598
0.155067
0.15457
0.154105
0.15367
0.153263
0.152881
0.152524
0.15219
0.151877
0.151583
0.151308
0.15105
0.150807
0.150579
0.150364
0.150162
0.149972
0.149792
0.149622
0.149462
0.14931
0.149165
0.149029
0.148898
0.148775
0.148657
0.148544
0.148436
0.148333
0.148235
0.14814
0.148049
0.147961
0.147876
0.147794
0.147714
0.147637
0.147562
0.147489
0.147418
0.147348
0.147279
0.147212
0.147145
0.14708
0.147016
0.146952
0.14689
0.146828
0.146767
0.146706
0.146647
0.146587
0.146529
0.14647
0.146413
0.146355
0.146298
0.146241
0.146184
0.146127
0.14607
0.146013
0.145957
0.1459
0.145843
0.145786
0.145729
0.145672
0.145615
0.145557
0.145499
0.145441
0.145382
0.145323
0.145264
0.145204
0.145144
0.145083
0.145022
0.144961
0.144899
0.144836
0.144773
0.14471
0.144645
0.144581
0.144515
0.144449
0.144383
0.144316
0.144248
0.14418
0.14411
0.144041
0.14397
0.143898
0.143826
0.143752
0.143678
0.143602
0.143524
0.143445
0.143364
0.143281
0.143194
0.143103
0.143008
0.142905
0.142793
0.142668
0.142525
0.142352
0.142137
0.141855
0.141482
0.141026
0.0306879
0.0660329
0.0840274
0.0969462
0.107474
0.116514
0.124477
0.131595
0.138012
0.14383
0.149128
0.153966
0.158395
0.162457
0.166188
0.169612
0.172751
0.175621
0.178236
0.180607
0.182742
0.184646
0.186322
0.187775
0.189006
0.190019
0.190813
0.191392
0.191766
0.191943
0.191932
0.191743
0.191387
0.190876
0.190221
0.189437
0.188538
0.187536
0.186449
0.185289
0.184071
0.182811
0.18152
0.180212
0.178899
0.177592
0.176301
0.175034
0.173798
0.1726
0.171445
0.170337
0.169277
0.168269
0.167313
0.16641
0.165558
0.164756
0.164005
0.1633
0.162642
0.162026
0.161452
0.160916
0.160417
0.159951
0.159517
0.159113
0.158736
0.158384
0.158057
0.15775
0.157464
0.157197
0.156947
0.156713
0.156493
0.156288
0.156094
0.155912
0.155741
0.15558
0.155428
0.155284
0.155147
0.155018
0.154896
0.15478
0.154669
0.154563
0.154462
0.154366
0.154274
0.154185
0.1541
0.154018
0.153939
0.153862
0.153788
0.153716
0.153646
0.153578
0.153511
0.153446
0.153382
0.153319
0.153257
0.153196
0.153135
0.153076
0.153017
0.152959
0.152902
0.152845
0.152789
0.152734
0.152678
0.152623
0.152569
0.152515
0.152461
0.152407
0.152353
0.1523
0.152246
0.152193
0.152139
0.152086
0.152032
0.151978
0.151924
0.15187
0.151816
0.151761
0.151706
0.151651
0.151596
0.15154
0.151483
0.151427
0.15137
0.151312
0.151254
0.151196
0.151137
0.151077
0.151017
0.150957
0.150896
0.150834
0.150772
0.150709
0.150646
0.150582
0.150517
0.150452
0.150386
0.150319
0.150252
0.150183
0.150114
0.150044
0.149972
0.1499
0.149826
0.14975
0.149673
0.149593
0.14951
0.149424
0.149332
0.149235
0.149129
0.149012
0.148877
0.148718
0.148522
0.148273
0.147954
0.147576
0.0329745
0.0702335
0.0891141
0.102594
0.113535
0.122903
0.131139
0.138486
0.145101
0.151091
0.156537
0.161503
0.166044
0.1702
0.174009
0.177495
0.180679
0.183579
0.186211
0.188584
0.190708
0.192587
0.194226
0.195629
0.196799
0.197739
0.198449
0.198937
0.199212
0.199283
0.199161
0.198856
0.198379
0.197744
0.196964
0.196053
0.195025
0.193895
0.192679
0.191393
0.190051
0.188668
0.187259
0.185837
0.184414
0.183003
0.181613
0.180254
0.178932
0.177656
0.176429
0.175255
0.174138
0.173078
0.172078
0.171135
0.170251
0.169423
0.168649
0.167927
0.167255
0.16663
0.16605
0.165511
0.165011
0.164547
0.164116
0.163717
0.163346
0.163002
0.162683
0.162385
0.162109
0.161851
0.161611
0.161387
0.161178
0.160983
0.1608
0.160628
0.160467
0.160315
0.160173
0.160038
0.159911
0.159792
0.159678
0.15957
0.159468
0.15937
0.159277
0.159189
0.159104
0.159022
0.158944
0.158869
0.158797
0.158727
0.158659
0.158593
0.158529
0.158467
0.158406
0.158346
0.158288
0.15823
0.158173
0.158117
0.158062
0.158007
0.157954
0.1579
0.157848
0.157796
0.157744
0.157693
0.157643
0.157592
0.157542
0.157492
0.157443
0.157393
0.157344
0.157294
0.157245
0.157196
0.157147
0.157097
0.157048
0.156998
0.156948
0.156898
0.156848
0.156797
0.156747
0.156696
0.156644
0.156593
0.15654
0.156488
0.156435
0.156382
0.156328
0.156274
0.156219
0.156164
0.156108
0.156052
0.155995
0.155938
0.15588
0.155822
0.155763
0.155703
0.155643
0.155582
0.15552
0.155458
0.155395
0.155331
0.155267
0.155201
0.155135
0.155067
0.154998
0.154927
0.154855
0.15478
0.154703
0.154622
0.154537
0.154447
0.154349
0.15424
0.154117
0.153973
0.153799
0.153581
0.153311
0.152999
0.0353284
0.0744409
0.0941558
0.108138
0.11943
0.129059
0.137498
0.145008
0.151753
0.15785
0.163383
0.168421
0.173018
0.177219
0.18106
0.184564
0.187755
0.190652
0.19327
0.195619
0.197708
0.199543
0.201127
0.202466
0.203563
0.20442
0.205038
0.205429
0.205601
0.205566
0.205333
0.204913
0.20432
0.203565
0.202664
0.201629
0.200477
0.199224
0.197884
0.196475
0.195012
0.19351
0.191985
0.19045
0.188919
0.187405
0.185917
0.184465
0.183058
0.181702
0.180402
0.179163
0.177987
0.176876
0.175829
0.174848
0.173931
0.173075
0.172279
0.17154
0.170855
0.170221
0.169635
0.169093
0.168593
0.168131
0.167705
0.167311
0.166947
0.166611
0.166301
0.166013
0.165747
0.1655
0.165271
0.165058
0.164859
0.164675
0.164503
0.164342
0.164191
0.16405
0.163918
0.163794
0.163677
0.163567
0.163463
0.163364
0.163271
0.163182
0.163097
0.163017
0.16294
0.162866
0.162796
0.162728
0.162663
0.1626
0.162539
0.16248
0.162423
0.162367
0.162312
0.162258
0.162206
0.162154
0.162103
0.162053
0.162003
0.161954
0.161906
0.161858
0.161811
0.161764
0.161718
0.161672
0.161626
0.161581
0.161536
0.161491
0.161446
0.161402
0.161357
0.161313
0.161269
0.161224
0.16118
0.161135
0.16109
0.161045
0.161
0.160955
0.16091
0.160864
0.160818
0.160772
0.160726
0.160679
0.160632
0.160584
0.160536
0.160488
0.160439
0.16039
0.16034
0.16029
0.160239
0.160188
0.160137
0.160084
0.160032
0.159979
0.159925
0.15987
0.159816
0.15976
0.159704
0.159647
0.159589
0.159531
0.159472
0.159412
0.159351
0.159289
0.159226
0.159161
0.159095
0.159027
0.158956
0.158882
0.158805
0.158722
0.158633
0.158535
0.158425
0.158297
0.158144
0.157957
0.15773
0.157474
0.0377286
0.0786206
0.0991109
0.113531
0.125103
0.134919
0.143486
0.151083
0.157887
0.164021
0.169577
0.174627
0.179227
0.183422
0.18725
0.190732
0.193896
0.19676
0.19934
0.201646
0.203685
0.205465
0.206988
0.208258
0.20928
0.210053
0.210585
0.210887
0.210968
0.210837
0.210507
0.209988
0.209293
0.208434
0.207426
0.206284
0.205023
0.203659
0.202209
0.200689
0.199115
0.197504
0.195871
0.194231
0.192598
0.190985
0.189403
0.187862
0.186371
0.184937
0.183565
0.182261
0.181026
0.179862
0.17877
0.177749
0.176798
0.175914
0.175095
0.174338
0.173639
0.172996
0.172403
0.171858
0.171358
0.170898
0.170475
0.170087
0.16973
0.169402
0.1691
0.168822
0.168566
0.16833
0.168111
0.167909
0.167722
0.167548
0.167387
0.167237
0.167097
0.166967
0.166845
0.166731
0.166624
0.166523
0.166429
0.166339
0.166255
0.166175
0.166099
0.166027
0.165958
0.165892
0.16583
0.165769
0.165711
0.165656
0.165602
0.165549
0.165499
0.16545
0.165401
0.165354
0.165307
0.165262
0.165217
0.165172
0.165129
0.165086
0.165043
0.165001
0.164959
0.164918
0.164877
0.164837
0.164797
0.164757
0.164717
0.164678
0.164638
0.164599
0.16456
0.16452
0.164481
0.164442
0.164403
0.164363
0.164324
0.164284
0.164244
0.164204
0.164164
0.164123
0.164083
0.164042
0.164
0.163959
0.163917
0.163875
0.163832
0.163789
0.163746
0.163702
0.163658
0.163613
0.163568
0.163523
0.163477
0.16343
0.163383
0.163336
0.163288
0.163239
0.16319
0.16314
0.16309
0.163039
0.162988
0.162935
0.162882
0.162829
0.162774
0.162718
0.162662
0.162604
0.162544
0.162483
0.162419
0.162353
0.162284
0.16221
0.162131
0.162044
0.161946
0.161834
0.161702
0.161544
0.161356
0.161149
0.0401083
0.0826505
0.103834
0.118612
0.130381
0.140302
0.148915
0.15652
0.163308
0.169411
0.174927
0.17993
0.184481
0.188626
0.192396
0.195821
0.198929
0.201739
0.204265
0.206516
0.208501
0.210224
0.211689
0.212899
0.213854
0.21456
0.215026
0.215261
0.215275
0.215078
0.214679
0.214089
0.21332
0.212386
0.2113
0.210077
0.208732
0.207282
0.205744
0.204133
0.202468
0.200765
0.199039
0.197307
0.195583
0.193881
0.192213
0.19059
0.189021
0.187513
0.186074
0.184706
0.183414
0.182199
0.181062
0.180001
0.179016
0.178104
0.177261
0.176485
0.175772
0.175118
0.174518
0.173969
0.173467
0.173009
0.172589
0.172206
0.171855
0.171534
0.17124
0.170971
0.170724
0.170498
0.170289
0.170098
0.169921
0.169758
0.169607
0.169467
0.169338
0.169217
0.169105
0.169001
0.168903
0.168812
0.168726
0.168646
0.16857
0.168498
0.168431
0.168367
0.168306
0.168248
0.168192
0.168139
0.168089
0.16804
0.167993
0.167947
0.167903
0.16786
0.167818
0.167777
0.167737
0.167697
0.167658
0.16762
0.167582
0.167544
0.167508
0.167471
0.167435
0.1674
0.167364
0.167329
0.167295
0.16726
0.167226
0.167191
0.167157
0.167123
0.167089
0.167055
0.167021
0.166987
0.166953
0.166919
0.166885
0.16685
0.166816
0.166781
0.166746
0.166711
0.166676
0.16664
0.166604
0.166568
0.166532
0.166495
0.166458
0.16642
0.166382
0.166344
0.166306
0.166267
0.166227
0.166187
0.166147
0.166106
0.166065
0.166024
0.165982
0.165939
0.165896
0.165852
0.165808
0.165764
0.165718
0.165672
0.165626
0.165578
0.16553
0.165481
0.165431
0.16538
0.165328
0.165274
0.165218
0.16516
0.165099
0.165034
0.164964
0.164889
0.164804
0.164708
0.164596
0.164465
0.164311
0.164144
0.0423588
0.0863303
0.108086
0.123121
0.134991
0.144926
0.153499
0.161033
0.167731
0.173736
0.17915
0.184054
0.188507
0.192557
0.196233
0.199574
0.202606
0.205348
0.207814
0.210012
0.211948
0.213627
0.215052
0.216218
0.217133
0.217805
0.218243
0.218453
0.218443
0.218221
0.217797
0.21718
0.216382
0.215414
0.214291
0.213026
0.211634
0.210133
0.208538
0.206868
0.205138
0.203367
0.201571
0.199767
0.19797
0.196195
0.194454
0.19276
0.191122
0.189549
0.188047
0.186622
0.185277
0.184014
0.182833
0.181735
0.180717
0.179776
0.17891
0.178115
0.177387
0.176722
0.176114
0.17556
0.175056
0.174597
0.17418
0.1738
0.173454
0.17314
0.172853
0.172592
0.172353
0.172135
0.171936
0.171754
0.171587
0.171433
0.171292
0.171161
0.171041
0.17093
0.170827
0.170732
0.170643
0.17056
0.170483
0.170411
0.170343
0.170279
0.170219
0.170162
0.170109
0.170058
0.170009
0.169963
0.169919
0.169877
0.169836
0.169797
0.169759
0.169722
0.169686
0.169651
0.169616
0.169582
0.169549
0.169516
0.169484
0.169452
0.169421
0.16939
0.169359
0.169329
0.169299
0.169269
0.16924
0.16921
0.169181
0.169152
0.169123
0.169094
0.169065
0.169037
0.169008
0.168979
0.16895
0.168921
0.168892
0.168862
0.168833
0.168803
0.168773
0.168744
0.168713
0.168683
0.168652
0.168621
0.16859
0.168559
0.168527
0.168495
0.168463
0.16843
0.168397
0.168364
0.16833
0.168296
0.168261
0.168226
0.168191
0.168155
0.168119
0.168082
0.168045
0.168008
0.16797
0.167931
0.167892
0.167852
0.167812
0.167771
0.16773
0.167687
0.167644
0.1676
0.167554
0.167508
0.167459
0.167409
0.167356
0.1673
0.167241
0.167176
0.167104
0.167023
0.16693
0.166822
0.166698
0.166566
0.0443326
0.0893918
0.11155
0.126712
0.138574
0.148425
0.156871
0.164256
0.170795
0.17664
0.1819
0.186656
0.190968
0.194881
0.198436
0.201673
0.204618
0.20729
0.209701
0.211858
0.213767
0.215426
0.216834
0.217999
0.218928
0.219624
0.220092
0.220337
0.220365
0.220181
0.219792
0.219207
0.218437
0.217491
0.216382
0.215125
0.213734
0.212225
0.210616
0.208922
0.207163
0.205357
0.20352
0.201669
0.199823
0.197995
0.1962
0.19445
0.192757
0.19113
0.189577
0.188102
0.186711
0.185405
0.184186
0.183053
0.182004
0.181037
0.180149
0.179336
0.178593
0.177916
0.177301
0.176741
0.176234
0.175775
0.175358
0.174981
0.174639
0.17433
0.174049
0.173795
0.173563
0.173353
0.173162
0.172988
0.172829
0.172684
0.172551
0.172429
0.172317
0.172214
0.17212
0.172032
0.171951
0.171876
0.171806
0.171741
0.171681
0.171624
0.171571
0.171521
0.171474
0.17143
0.171387
0.171347
0.171309
0.171273
0.171238
0.171204
0.171172
0.171141
0.17111
0.17108
0.171051
0.171022
0.170994
0.170967
0.17094
0.170913
0.170887
0.170861
0.170835
0.17081
0.170785
0.17076
0.170735
0.170711
0.170687
0.170662
0.170638
0.170614
0.17059
0.170566
0.170542
0.170518
0.170493
0.170469
0.170445
0.17042
0.170396
0.170371
0.170346
0.170321
0.170296
0.17027
0.170245
0.170219
0.170193
0.170166
0.17014
0.170113
0.170085
0.170058
0.17003
0.170002
0.169974
0.169945
0.169916
0.169886
0.169856
0.169826
0.169796
0.169765
0.169733
0.169702
0.169669
0.169637
0.169604
0.16957
0.169536
0.169501
0.169466
0.16943
0.169393
0.169356
0.169317
0.169277
0.169236
0.169193
0.169149
0.169101
0.169051
0.168996
0.168936
0.168869
0.168793
0.168706
0.168607
0.168504
0.0458471
0.0915147
0.113851
0.128985
0.140717
0.150383
0.158617
0.165779
0.172098
0.177729
0.182787
0.187351
0.19148
0.195222
0.198633
0.201753
0.204609
0.207218
0.209593
0.211736
0.213644
0.215325
0.216786
0.218026
0.219047
0.219849
0.220432
0.220795
0.220942
0.220875
0.220599
0.22012
0.219446
0.218588
0.217557
0.216366
0.21503
0.213565
0.211988
0.210316
0.208568
0.206763
0.204919
0.203053
0.201185
0.199329
0.197502
0.195718
0.193987
0.192321
0.190729
0.189216
0.187788
0.186448
0.185196
0.184034
0.182959
0.18197
0.181062
0.180232
0.179476
0.178789
0.178166
0.177601
0.177091
0.17663
0.176214
0.175839
0.175501
0.175195
0.17492
0.174671
0.174446
0.174242
0.174058
0.173891
0.17374
0.173602
0.173476
0.173362
0.173257
0.173161
0.173074
0.172993
0.172919
0.172851
0.172788
0.172729
0.172675
0.172625
0.172577
0.172533
0.172492
0.172453
0.172417
0.172382
0.172349
0.172318
0.172288
0.17226
0.172233
0.172206
0.17218
0.172155
0.172131
0.172107
0.172083
0.172061
0.172038
0.172016
0.171994
0.171973
0.171952
0.171931
0.17191
0.17189
0.17187
0.17185
0.17183
0.17181
0.17179
0.17177
0.17175
0.17173
0.171711
0.171691
0.171671
0.171651
0.171631
0.171611
0.171591
0.171571
0.17155
0.17153
0.171509
0.171488
0.171467
0.171445
0.171424
0.171402
0.17138
0.171358
0.171336
0.171313
0.17129
0.171267
0.171243
0.171219
0.171195
0.171171
0.171146
0.171121
0.171096
0.17107
0.171044
0.171018
0.170991
0.170964
0.170936
0.170908
0.17088
0.170851
0.170821
0.170791
0.170761
0.170729
0.170697
0.170664
0.170629
0.170594
0.170556
0.170517
0.170475
0.17043
0.170381
0.170326
0.170265
0.170196
0.170119
0.170041
0.0467115
0.0923781
0.11462
0.129544
0.14101
0.150383