/*--------------------------------*- C++ -*----------------------------------*\
  =========                 |
  \\      /  F ield         | OpenFOAM: The Open Source CFD Toolbox
   \\    /   O peration     | Website:  https://openfoam.org
    \\  /    A nd           | Version:  6
     \\/     M anipulation  |
\*---------------------------------------------------------------------------*/
FoamFile
{
    version     2.0;
    format      ascii;
    class       volScalarField;
    location    "0.03";
    object      nut;
}
// * * * * * * * * * * * * * * * * * * * * * * * * * * * * * * * * * * * * * //

dimensions      [0 2 -1 0 0 0 0];

internalField   nonuniform List<scalar> 
12225
(
1.77719e-05
1.42681e-05
1.23525e-05
1.11674e-05
1.03695e-05
9.80415e-06
9.38471e-06
9.05897e-06
8.79628e-06
8.57859e-06
8.39608e-06
8.24227e-06
8.11238e-06
8.00383e-06
7.91596e-06
7.85023e-06
7.81721e-06
7.84323e-06
0.000144883
0.000101936
8.79626e-05
8.06583e-05
7.62727e-05
7.33803e-05
7.11865e-05
6.9314e-05
6.7641e-05
6.61415e-05
6.47849e-05
6.3577e-05
6.25303e-05
6.16576e-05
6.09831e-05
6.05481e-05
6.04679e-05
6.09204e-05
0.000323363
0.000223662
0.000189966
0.000172841
0.000162469
0.000155576
0.000150569
0.00014662
0.000143339
0.000140572
0.000138172
0.000136108
0.000134389
0.00013304
0.000132118
0.000131724
0.000132066
0.000133484
0.000494019
0.000355376
0.000299698
0.00027007
0.000251766
0.000239467
0.000230634
0.000223909
0.000218575
0.000214269
0.000210689
0.000207734
0.000205367
0.000203596
0.000202476
0.000202125
0.000202752
0.000204656
0.000624523
0.000478853
0.000407702
0.000366782
0.00034051
0.000322441
0.000309345
0.000299436
0.000291706
0.000285563
0.000280579
0.000276562
0.000273413
0.0002711
0.000269654
0.000269169
0.000269815
0.000271797
0.00071316
0.000583552
0.000506926
0.0004586
0.000425956
0.000402769
0.000385633
0.000372558
0.000362366
0.000354241
0.000347713
0.000342499
0.000338434
0.000335441
0.000333512
0.000332703
0.000333124
0.000334893
0.000769367
0.000665783
0.000592744
0.000541924
0.000505519
0.000478641
0.000458255
0.000442448
0.000429973
0.000419968
0.000411916
0.000405475
0.000400434
0.000396672
0.000394142
0.000392855
0.000392865
0.00039422
0.000803509
0.000726503
0.000662995
0.000614227
0.000577001
0.000548297
0.000525851
0.000508067
0.00049377
0.000482188
0.000472793
0.000465225
0.000459244
0.000454701
0.000451517
0.000449664
0.000449146
0.000449959
0.000823673
0.000769112
0.00071766
0.000674233
0.000638844
0.000610254
0.00058713
0.000568294
0.000552862
0.00054018
0.000529772
0.000521297
0.000514516
0.000509268
0.000505453
0.000503015
0.000501925
0.000502136
0.000835357
0.00079776
0.000758251
0.000721892
0.000690292
0.000663505
0.000641004
0.000622152
0.000606369
0.000593173
0.000582189
0.000573126
0.000565774
0.000559977
0.00055563
0.000552662
0.00055102
0.000550634
0.000842045
0.000816343
0.00078712
0.000758148
0.000731392
0.000707591
0.000686829
0.000668912
0.000653552
0.000640464
0.000629392
0.000620123
0.000612491
0.000606364
0.000601646
0.000598262
0.000596151
0.000595226
0.000845533
0.000827065
0.000805194
0.000782353
0.000760231
0.000739741
0.000721267
0.000704888
0.000690536
0.000678083
0.000667384
0.000658305
0.000650728
0.000644555
0.000639705
0.000636112
0.000633716
0.000632432
0.000847642
0.000834052
0.000817769
0.000800135
0.00078236
0.000765282
0.000749387
0.000734913
0.000721943
0.000710473
0.000700457
0.000691833
0.000684534
0.000678495
0.00067366
0.000669974
0.000667384
0.000665808
0.000849001
0.000838868
0.000827013
0.000813972
0.000800427
0.000786978
0.000774064
0.00076197
0.000750864
0.00074083
0.000731902
0.000724082
0.000717354
0.00071169
0.00070706
0.00070343
0.000700755
0.000698955
0.0008498
0.000841867
0.000833129
0.000823668
0.000813751
0.000803697
0.000793799
0.000784293
0.000775352
0.000767095
0.000759599
0.000752908
0.000747043
0.000742012
0.000737808
0.000734416
0.000731804
0.000729899
0.000850223
0.000843531
0.000836711
0.000829668
0.00082243
0.000815099
0.00080781
0.000800699
0.000793889
0.00078748
0.000781548
0.000776153
0.000771331
0.000767107
0.000763494
0.000760489
0.000758075
0.00075618
0.000850421
0.000844333
0.000838515
0.000832839
0.000827238
0.0008217
0.000816249
0.00081093
0.000805799
0.000800914
0.000796326
0.000792079
0.000788209
0.000784739
0.000781689
0.000779064
0.000776853
0.000774987
0.000850491
0.000844623
0.000839187
0.000834062
0.00082916
0.000824425
0.000819835
0.000815385
0.00081109
0.000806973
0.00080306
0.000799376
0.000795945
0.000792787
0.000789918
0.000787345
0.00078506
0.000782999
0.000850468
0.000844525
0.000838958
0.000833636
0.000828473
0.000823417
0.000818452
0.00081358
0.00080882
0.000804197
0.000799738
0.000795471
0.000791418
0.000787598
0.000784029
0.000780722
0.000777673
0.000774831
0.000850267
0.000843706
0.000837093
0.000830308
0.000823329
0.000816205
0.000809016
0.000801857
0.000794812
0.000787957
0.000781348
0.00077503
0.000769032
0.000763375
0.000758072
0.000753133
0.000748554
0.000744291
0.000849707
0.000841523
0.000832412
0.00082247
0.000811958
0.00080118
0.000790408
0.000779858
0.00076968
0.000759973
0.000750794
0.000742169
0.000734103
0.00072659
0.00071962
0.000713179
0.00070725
0.000701787
0.000848158
0.000835911
0.000821311
0.000805301
0.000788808
0.000772532
0.00075692
0.000742222
0.000728544
0.000715907
0.000704282
0.000693612
0.000683829
0.000674864
0.000666656
0.000659153
0.000652312
0.000646075
0.000844075
0.00082268
0.000797752
0.000772135
0.000747561
0.000724858
0.000704302
0.000685873
0.000669412
0.000654712
0.000641562
0.000629765
0.000619147
0.000609561
0.000600884
0.000593024
0.000585912
0.000579482
0.000833772
0.000794151
0.000753113
0.000715539
0.000682793
0.000654782
0.000630931
0.000610563
0.000593058
0.000577894
0.000564648
0.000552982
0.000542627
0.000533375
0.000525061
0.000517568
0.000510815
0.000504739
0.000809053
0.000738575
0.000678216
0.00063033
0.000592691
0.00056285
0.000538844
0.000519198
0.00050284
0.000488995
0.000477101
0.000466743
0.000457615
0.00044949
0.000442201
0.000435628
0.000429697
0.000424364
0.00075366
0.000642537
0.00056791
0.000517041
0.000480748
0.000453829
0.000433172
0.000416812
0.000403479
0.000392338
0.000382826
0.000374555
0.00036725
0.000360718
0.000354822
0.000349469
0.000344607
0.000340219
0.000641449
0.00049901
0.000426504
0.000383506
0.000355145
0.000335181
0.000320384
0.000308883
0.000299567
0.000291757
0.000285025
0.000279095
0.000273782
0.000268962
0.000264551
0.000260495
0.000256768
0.000253379
0.000448548
0.00032009
0.000270087
0.000243141
0.000226232
0.00021477
0.00020644
0.000199941
0.000194554
0.000189894
0.000185742
0.000181971
0.000178503
0.000175289
0.000172297
0.000169506
0.000166913
0.000164536
0.000203089
0.000143498
0.000122875
0.000111548
0.000104578
0.000100047
9.67695e-05
9.40847e-05
9.16974e-05
8.94982e-05
8.74478e-05
8.55293e-05
8.37332e-05
8.2053e-05
8.04834e-05
7.90195e-05
7.76591e-05
7.64065e-05
2.40291e-05
1.96325e-05
1.70996e-05
1.54602e-05
1.43131e-05
1.34748e-05
1.28399e-05
1.23413e-05
1.19355e-05
1.15953e-05
1.13028e-05
1.10466e-05
1.08185e-05
1.0613e-05
1.04261e-05
1.02546e-05
1.00964e-05
9.95035e-06
4.03785e-06
1.32785e-05
1.53709e-05
1.6859e-05
1.80096e-05
1.89459e-05
1.97317e-05
2.04048e-05
2.099e-05
2.15048e-05
2.1962e-05
2.23711e-05
2.27391e-05
2.30728e-05
2.34216e-05
2.37621e-05
2.40788e-05
2.4372e-05
2.46423e-05
2.48902e-05
2.51158e-05
2.5319e-05
2.54994e-05
2.56572e-05
2.57929e-05
2.59092e-05
2.60188e-05
2.61297e-05
2.62327e-05
2.63226e-05
2.63967e-05
2.64542e-05
2.64953e-05
2.65204e-05
2.65301e-05
2.65254e-05
2.6507e-05
2.64759e-05
2.64333e-05
2.63801e-05
2.63175e-05
2.62466e-05
2.61684e-05
2.60841e-05
2.59947e-05
2.59011e-05
2.58043e-05
2.57052e-05
2.56044e-05
2.55029e-05
2.54011e-05
2.52996e-05
2.5199e-05
2.50997e-05
2.5002e-05
2.49061e-05
2.48125e-05
2.47212e-05
2.46323e-05
2.45461e-05
2.44625e-05
2.43815e-05
2.43033e-05
2.42277e-05
2.41547e-05
2.40843e-05
2.40164e-05
2.39509e-05
2.38877e-05
2.38268e-05
2.37681e-05
2.37114e-05
2.36567e-05
2.36038e-05
2.35527e-05
2.35032e-05
2.34553e-05
2.34089e-05
2.33639e-05
2.33202e-05
2.32777e-05
2.32363e-05
2.3196e-05
2.31567e-05
2.31183e-05
2.30808e-05
2.3044e-05
2.30079e-05
2.29726e-05
2.29378e-05
2.29037e-05
2.287e-05
2.28368e-05
2.2804e-05
2.27717e-05
2.27397e-05
2.2708e-05
2.26766e-05
2.26454e-05
2.26144e-05
2.25836e-05
2.25526e-05
2.25223e-05
2.24924e-05
2.24627e-05
2.24331e-05
2.24035e-05
2.23739e-05
2.23444e-05
2.23147e-05
2.22851e-05
2.22553e-05
2.22255e-05
2.21957e-05
2.21657e-05
2.21356e-05
2.21054e-05
2.20751e-05
2.20447e-05
2.20142e-05
2.19835e-05
2.19526e-05
2.19216e-05
2.18904e-05
2.18591e-05
2.18276e-05
2.17959e-05
2.17641e-05
2.1732e-05
2.16998e-05
2.16673e-05
2.16347e-05
2.16018e-05
2.15687e-05
2.15354e-05
2.15019e-05
2.14682e-05
2.14342e-05
2.14e-05
2.13656e-05
2.13309e-05
2.12959e-05
2.12607e-05
2.12252e-05
2.11895e-05
2.11535e-05
2.11173e-05
2.10807e-05
2.10439e-05
2.10069e-05
2.09695e-05
2.09319e-05
2.0894e-05
2.08558e-05
2.08173e-05
2.07785e-05
2.07394e-05
2.07e-05
2.06603e-05
2.06202e-05
2.05798e-05
2.0539e-05
2.04979e-05
2.04563e-05
2.04143e-05
2.03718e-05
2.03287e-05
2.02851e-05
2.02406e-05
2.01953e-05
2.01488e-05
2.01009e-05
2.0051e-05
1.99985e-05
1.99418e-05
1.98786e-05
1.98039e-05
1.97067e-05
1.95637e-05
1.93258e-05
6.33876e-06
4.81536e-05
7.76361e-05
9.79518e-05
0.000113552
0.000126322
0.000137169
0.000146604
0.000154946
0.000162414
0.000169162
0.000175298
0.000180897
0.00018601
0.000190674
0.000194993
0.000199005
0.000202732
0.000206185
0.000209372
0.000212296
0.000214958
0.000217355
0.000219488
0.000221352
0.00022295
0.000224289
0.000225373
0.000226213
0.000226818
0.000227197
0.000227357
0.000227308
0.000227061
0.000226629
0.000226024
0.000225262
0.000224355
0.000223321
0.000222174
0.000220929
0.000219602
0.000218208
0.000216761
0.000215274
0.00021376
0.00021223
0.000210695
0.000209165
0.000207647
0.00020615
0.000204678
0.000203239
0.000201835
0.00020047
0.000199147
0.000197868
0.000196634
0.000195446
0.000194304
0.000193208
0.000192158
0.000191152
0.000190189
0.00018927
0.000188391
0.000187552
0.000186751
0.000185987
0.000185258
0.000184563
0.000183899
0.000183265
0.000182661
0.000182083
0.000181532
0.000181004
0.0001805
0.000180017
0.000179555
0.000179112
0.000178687
0.000178279
0.000177887
0.000177509
0.000177146
0.000176796
0.000176457
0.000176131
0.000175814
0.000175508
0.000175211
0.000174922
0.000174642
0.000174368
0.000174102
0.000173842
0.000173588
0.000173339
0.000173094
0.000172854
0.000172613
0.000172368
0.000172124
0.000171884
0.000171647
0.000171413
0.000171183
0.000170956
0.000170732
0.00017051
0.00017029
0.000170072
0.000169856
0.000169641
0.000169427
0.000169215
0.000169003
0.000168792
0.000168582
0.000168372
0.000168162
0.000167952
0.000167742
0.000167532
0.000167321
0.000167111
0.0001669
0.000166688
0.000166475
0.000166262
0.000166048
0.000165833
0.000165618
0.000165401
0.000165183
0.000164963
0.000164743
0.000164521
0.000164297
0.000164072
0.000163846
0.000163618
0.000163388
0.000163157
0.000162924
0.000162689
0.000162453
0.000162215
0.000161975
0.000161733
0.000161489
0.000161244
0.000160996
0.000160747
0.000160495
0.000160241
0.000159985
0.000159727
0.000159466
0.000159202
0.000158935
0.000158665
0.000158391
0.000158112
0.000157829
0.000157539
0.000157242
0.000156936
0.000156617
0.000156283
0.000155926
0.000155538
0.000155103
0.000154593
0.000153951
0.000153051
0.00015164
0.000148968
0.000144243
7.46019e-06
6.47561e-05
0.000114017
0.000150977
0.000180297
0.000204637
0.000225488
0.000243743
0.000259973
0.000274567
0.000287799
0.00029987
0.00031093
0.000321092
0.000330439
0.000339079
0.000347073
0.000354465
0.000361287
0.000367562
0.000373309
0.00037854
0.000383265
0.00038749
0.000391223
0.00039447
0.000397233
0.000399517
0.000401342
0.000402724
0.000403679
0.000404225
0.000404381
0.000404166
0.000403605
0.00040272
0.000401538
0.000400086
0.00039839
0.00039648
0.000394382
0.000392126
0.000389739
0.000387245
0.000384671
0.000382039
0.000379371
0.000376687
0.000374005
0.00037134
0.000368706
0.000366115
0.000363577
0.0003611
0.000358691
0.000356356
0.000354097
0.000351918
0.00034982
0.000347804
0.00034587
0.000344016
0.000342243
0.000340547
0.000338928
0.000337382
0.000335907
0.000334502
0.000333162
0.000331885
0.000330668
0.000329508
0.000328404
0.000327351
0.000326347
0.00032539
0.000324477
0.000323606
0.000322775
0.00032198
0.00032122
0.000320493
0.000319798
0.000319131
0.000318491
0.000317877
0.000317287
0.00031672
0.000316173
0.000315646
0.000315138
0.000314646
0.000314171
0.00031371
0.000313263
0.000312829
0.000312407
0.000311995
0.000311594
0.000311201
0.000310817
0.000310437
0.000310059
0.000309684
0.000309314
0.000308948
0.000308587
0.00030823
0.000307879
0.000307531
0.000307188
0.000306849
0.000306513
0.00030618
0.000305851
0.000305523
0.000305198
0.000304874
0.000304552
0.000304231
0.000303911
0.000303592
0.000303274
0.000302956
0.000302637
0.000302319
0.000302
0.000301681
0.000301361
0.00030104
0.000300719
0.000300396
0.000300072
0.000299747
0.00029942
0.000299091
0.000298761
0.000298429
0.000298094
0.000297758
0.000297419
0.000297078
0.000296735
0.000296389
0.00029604
0.000295689
0.000295335
0.000294978
0.000294618
0.000294256
0.000293891
0.000293523
0.000293152
0.000292777
0.0002924
0.000292019
0.000291635
0.000291247
0.000290855
0.000290458
0.000290058
0.000289652
0.000289241
0.000288823
0.000288398
0.000287965
0.000287521
0.000287065
0.000286593
0.0002861
0.000285581
0.000285024
0.000284416
0.000283731
0.000282925
0.000281917
0.000280537
0.000278454
0.000274875
0.000268926
8.19609e-06
7.47667e-05
0.000136995
0.000185964
0.000225789
0.000259268
0.000288129
0.000313475
0.000336037
0.000356323
0.000374699
0.000391434
0.000406736
0.000420765
0.000433644
0.000445495
0.000456406
0.000466445
0.000475669
0.00048412
0.000491835
0.000498842
0.000505165
0.000510823
0.000515833
0.000520209
0.000523953
0.000527078
0.000529608
0.000531566
0.000532973
0.000533854
0.000534231
0.000534131
0.000533582
0.000532614
0.00053126
0.000529553
0.000527528
0.000525219
0.000522662
0.000519893
0.000516946
0.000513855
0.000510652
0.000507368
0.00050403
0.000500664
0.000497294
0.000493941
0.000490623
0.000487357
0.000484154
0.000481027
0.000477985
0.000475034
0.00047218
0.000469427
0.000466776
0.000464229
0.000461786
0.000459446
0.000457207
0.000455068
0.000453025
0.000451076
0.000449217
0.000447446
0.000445758
0.000444151
0.00044262
0.000441162
0.000439773
0.000438451
0.000437191
0.00043599
0.000434846
0.000433755
0.000432713
0.000431719
0.00043077
0.000429863
0.000428995
0.000428164
0.000427368
0.000426605
0.000425873
0.000425169
0.000424493
0.000423841
0.000423213
0.000422607
0.000422022
0.000421456
0.000420908
0.000420376
0.000419859
0.000419357
0.000418868
0.00041839
0.000417923
0.000417464
0.000417011
0.000416564
0.000416123
0.000415687
0.000415256
0.000414831
0.000414412
0.000413998
0.000413589
0.000413184
0.000412784
0.000412388
0.000411995
0.000411605
0.000411218
0.000410834
0.000410451
0.000410071
0.000409691
0.000409313
0.000408936
0.000408559
0.000408182
0.000407805
0.000407428
0.000407051
0.000406673
0.000406294
0.000405914
0.000405532
0.00040515
0.000404766
0.00040438
0.000403992
0.000403602
0.000403209
0.000402815
0.000402417
0.000402017
0.000401615
0.000401209
0.0004008
0.000400388
0.000399973
0.000399555
0.000399133
0.000398708
0.00039828
0.000397848
0.000397412
0.000396973
0.00039653
0.000396083
0.000395632
0.000395177
0.000394717
0.000394252
0.000393782
0.000393307
0.000392825
0.000392337
0.000391841
0.000391336
0.00039082
0.000390291
0.000389747
0.000389184
0.000388595
0.000387974
0.000387308
0.000386579
0.000385757
0.000384794
0.0003836
0.000382003
0.000379683
0.000376015
0.000370459
8.7619e-06
8.19875e-05
0.000153741
0.00021179
0.000259741
0.000300387
0.000335563
0.00036649
0.000394003
0.000418698
0.000441008
0.000461261
0.000479711
0.000496557
0.00051196
0.000526061
0.000538981
0.000550815
0.000561645
0.000571536
0.000580544
0.000588716
0.000596088
0.000602692
0.000608554
0.000613695
0.000618122
0.00062185
0.000624907
0.000627318
0.000629109
0.000630304
0.00063093
0.000631014
0.000630587
0.000629681
0.00062833
0.000626571
0.000624442
0.000621981
0.000619229
0.000616224
0.000613006
0.000609614
0.000606085
0.000602453
0.000598751
0.000595011
0.000591258
0.000587519
0.000583815
0.000580165
0.000576584
0.000573088
0.000569685
0.000566385
0.000563194
0.000560117
0.000557155
0.000554311
0.000551585
0.000548974
0.000546479
0.000544096
0.000541821
0.000539653
0.000537586
0.000535618
0.000533743
0.000531958
0.00053026
0.000528643
0.000527103
0.000525638
0.000524242
0.000522913
0.000521646
0.000520439
0.000519287
0.000518189
0.00051714
0.000516138
0.000515179
0.000514263
0.000513385
0.000512544
0.000511737
0.000510962
0.000510218
0.000509501
0.000508811
0.000508146
0.000507503
0.000506882
0.000506281
0.000505698
0.000505133
0.000504583
0.000504048
0.000503526
0.000503016
0.000502517
0.000502025
0.000501541
0.000501063
0.000500592
0.000500126
0.000499667
0.000499213
0.000498765
0.000498322
0.000497884
0.000497451
0.000497022
0.000496597
0.000496175
0.000495757
0.000495341
0.000494928
0.000494516
0.000494106
0.000493697
0.00049329
0.000492883
0.000492476
0.000492069
0.000491662
0.000491255
0.000490846
0.000490437
0.000490027
0.000489616
0.000489203
0.000488788
0.000488371
0.000487953
0.000487532
0.000487108
0.000486682
0.000486253
0.000485822
0.000485387
0.000484949
0.000484507
0.000484062
0.000483614
0.000483162
0.000482706
0.000482247
0.000481784
0.000481317
0.000480846
0.000480371
0.000479891
0.000479408
0.000478919
0.000478426
0.000477928
0.000477425
0.000476916
0.000476401
0.000475878
0.000475349
0.00047481
0.000474262
0.000473702
0.000473128
0.000472537
0.000471925
0.000471285
0.000470609
0.000469884
0.000469091
0.0004682
0.00046716
0.000465882
0.000464208
0.000461862
0.000458387
0.000453517
9.24209e-06
8.7815e-05
0.000167252
0.00023258
0.000286995
0.000333292
0.000373391
0.000408607
0.000439863
0.000467825
0.00049299
0.000515737
0.000536364
0.000555109
0.000572167
0.000587707
0.000601881
0.000614816
0.000626619
0.000637381
0.000647175
0.000656063
0.000664098
0.000671319
0.00067776
0.000683447
0.000688389
0.000692597
0.000696101
0.000698927
0.000701099
0.00070264
0.000703575
0.00070393
0.000703736
0.000703022
0.000701824
0.000700177
0.00069812
0.000695694
0.00069294
0.0006899
0.000686616
0.00068313
0.000679482
0.000675711
0.000671854
0.000667943
0.000664012
0.000660087
0.000656193
0.000652353
0.000648584
0.000644902
0.00064132
0.000637846
0.000634489
0.000631254
0.000628143
0.000625158
0.000622299
0.000619565
0.000616954
0.000614462
0.000612088
0.000609826
0.000607672
0.000605623
0.000603673
0.000601818
0.000600054
0.000598375
0.000596779
0.00059526
0.000593814
0.000592437
0.000591126
0.000589877
0.000588686
0.00058755
0.000586466
0.000585431
0.000584441
0.000583495
0.000582589
0.000581721
0.000580888
0.000580089
0.000579321
0.000578582
0.000577871
0.000577185
0.000576523
0.000575883
0.000575264
0.000574664
0.000574082
0.000573517
0.000572966
0.000572429
0.000571905
0.000571392
0.000570887
0.000570391
0.000569901
0.000569418
0.000568941
0.00056847
0.000568005
0.000567546
0.000567092
0.000566643
0.000566198
0.000565758
0.000565322
0.000564889
0.000564459
0.000564033
0.000563608
0.000563186
0.000562765
0.000562346
0.000561927
0.000561509
0.000561092
0.000560674
0.000560256
0.000559838
0.000559419
0.000558999
0.000558578
0.000558156
0.000557732
0.000557306
0.000556878
0.000556448
0.000556015
0.00055558
0.000555143
0.000554702
0.000554258
0.000553811
0.000553361
0.000552907
0.000552449
0.000551988
0.000551523
0.000551054
0.000550581
0.000550104
0.000549623
0.000549138
0.000548649
0.000548155
0.000547656
0.000547153
0.000546645
0.000546131
0.000545612
0.000545086
0.000544554
0.000544015
0.000543468
0.000542912
0.000542346
0.000541767
0.000541174
0.000540563
0.00053993
0.000539268
0.000538569
0.00053782
0.000537003
0.000536086
0.000535021
0.000533727
0.000532063
0.000529804
0.000526627
0.000522435
9.67762e-06
9.28509e-05
0.000178873
0.000250284
0.000309948
0.000360697
0.000404554
0.000442935
0.000476855
0.000507054
0.000534093
0.000558405
0.000580333
0.000600157
0.000618105
0.000634379
0.000649167
0.000662629
0.000674896
0.000686083
0.000696281
0.000705567
0.000714001
0.00072163
0.000728491
0.00073461
0.000739993
0.000744645
0.000748593
0.000751858
0.000754462
0.000756421
0.000757758
0.000758493
0.000758652
0.000758264
0.000757359
0.000755973
0.000754143
0.000751908
0.000749312
0.000746396
0.000743205
0.000739783
0.000736173
0.000732417
0.000728553
0.000724621
0.000720654
0.000716683
0.000712736
0.000708838
0.000705009
0.000701267
0.000697626
0.000694098
0.000690689
0.000687407
0.000684255
0.000681235
0.000678346
0.000675587
0.000672956
0.00067045
0.000668065
0.000665797
0.00066364
0.00066159
0.000659643
0.000657793
0.000656035
0.000654365
0.000652777
0.000651268
0.000649833
0.000648468
0.000647169
0.000645931
0.000644752
0.000643628
0.000642556
0.000641532
0.000640554
0.000639618
0.000638723
0.000637866
0.000637043
0.000636254
0.000635496
0.000634767
0.000634065
0.000633388
0.000632735
0.000632103
0.000631493
0.000630901
0.000630326
0.000629768
0.000629225
0.000628695
0.000628178
0.000627671
0.000627174
0.000626684
0.000626201
0.000625724
0.000625254
0.000624789
0.00062433
0.000623876
0.000623428
0.000622984
0.000622545
0.000622109
0.000621678
0.00062125
0.000620825
0.000620403
0.000619983
0.000619565
0.000619148
0.000618733
0.000618319
0.000617905
0.000617491
0.000617078
0.000616664
0.00061625
0.000615835
0.000615418
0.000615001
0.000614582
0.000614162
0.000613739
0.000613315
0.000612888
0.000612459
0.000612027
0.000611593
0.000611155
0.000610714
0.00061027
0.000609823
0.000609372
0.000608917
0.000608459
0.000607996
0.00060753
0.000607059
0.000606585
0.000606106
0.000605623
0.000605136
0.000604644
0.000604147
0.000603645
0.000603138
0.000602626
0.000602108
0.000601584
0.000601053
0.000600515
0.000599969
0.000599414
0.000598848
0.00059827
0.000597677
0.000597066
0.000596434
0.000595773
0.000595075
0.000594328
0.000593514
0.000592604
0.000591553
0.000590289
0.000588693
0.000586584
0.000583741
0.000580159
1.00891e-05
9.73582e-05
0.000189187
0.000265773
0.000329702
0.000383888
0.000430482
0.000471024
0.000506629
0.000538126
0.000566144
0.000591176
0.000613615
0.000633784
0.000651949
0.00066835
0.000683215
0.000696734
0.000709068
0.000720348
0.000730682
0.000740156
0.000748834
0.000756767
0.000763986
0.000770515
0.000776345
0.000781476
0.000785927
0.000789711
0.000792842
0.00079533
0.000797187
0.000798431
0.000799078
0.000799154
0.000798685
0.000797702
0.00079624
0.000794339
0.000792039
0.000789384
0.000786419
0.00078319
0.000779742
0.00077612
0.000772366
0.000768522
0.000764624
0.000760708
0.000756805
0.000752941
0.000749142
0.000745426
0.000741809
0.000738305
0.000734923
0.000731669
0.000728548
0.000725562
0.000722711
0.000719994
0.000717408
0.000714949
0.000712614
0.000710398
0.000708295
0.000706301
0.000704409
0.000702615
0.000700914
0.000699299
0.000697767
0.000696313
0.000694931
0.000693619
0.00069237
0.000691183
0.000690052
0.000688975
0.000687948
0.000686968
0.000686032
0.000685138
0.000684282
0.000683463
0.000682677
0.000681924
0.0006812
0.000680504
0.000679833
0.000679187
0.000678563
0.000677961
0.000677377
0.000676812
0.000676264
0.000675731
0.000675212
0.000674706
0.000674212
0.000673727
0.000673252
0.000672784
0.000672322
0.000671866
0.000671415
0.000670971
0.000670531
0.000670096
0.000669667
0.000669241
0.00066882
0.000668402
0.000667988
0.000667577
0.000667169
0.000666764
0.00066636
0.000665959
0.000665559
0.000665159
0.000664761
0.000664363
0.000663965
0.000663567
0.000663169
0.00066277
0.000662371
0.00066197
0.000661568
0.000661164
0.000660759
0.000660352
0.000659943
0.000659531
0.000659117
0.0006587
0.000658281
0.000657858
0.000657433
0.000657004
0.000656572
0.000656136
0.000655696
0.000655253
0.000654805
0.000654354
0.000653899
0.00065344
0.000652976
0.000652508
0.000652036
0.000651559
0.000651077
0.000650591
0.000650099
0.000649602
0.000649099
0.00064859
0.000648074
0.000647552
0.000647021
0.000646481
0.000645931
0.000645369
0.000644792
0.000644198
0.000643583
0.00064294
0.000642262
0.000641538
0.000640749
0.000639871
0.000638864
0.000637663
0.000636172
0.000634249
0.000631744
0.0006287
1.04846e-05
0.000101418
0.000198362
0.000279306
0.000346611
0.000403307
0.000451703
0.000493482
0.000529876
0.00056181
0.000589994
0.000614984
0.000637231
0.000657102
0.000674906
0.000690928
0.000705438
0.000718658
0.000730772
0.000741928
0.000752244
0.000761808
0.000770684
0.000778916
0.000786526
0.000793527
0.000799883
0.000805592
0.000810661
0.000815091
0.000818884
0.00082204
0.000824562
0.000826458
0.00082774
0.000828423
0.000828531
0.00082809
0.000827132
0.000825694
0.000823816
0.000821542
0.000818918
0.00081599
0.000812807
0.000809416
0.000805862
0.00080219
0.000798442
0.000794655
0.000790865
0.000787102
0.000783393
0.00077976
0.000776223
0.000772795
0.000769488
0.00076631
0.000763266
0.000760359
0.000757589
0.000754955
0.000752453
0.000750082
0.000747835
0.000745708
0.000743695
0.000741791
0.00073999
0.000738286
0.000736673
0.000735146
0.0007337
0.000732329
0.00073103
0.000729797
0.000728627
0.000727515
0.000726457
0.000725451
0.000724492
0.000723578
0.000722706
0.000721874
0.000721077
0.000720315
0.000719585
0.000718884
0.000718212
0.000717565
0.000716943
0.000716343
0.000715764
0.000715204
0.000714663
0.000714138
0.000713629
0.000713134
0.000712652
0.000712182
0.000711722
0.000711272
0.00071083
0.000710394
0.000709964
0.000709539
0.000709119
0.000708705
0.000708295
0.00070789
0.000707488
0.000707091
0.000706698
0.000706308
0.000705921
0.000705537
0.000705155
0.000704776
0.000704398
0.000704022
0.000703648
0.000703274
0.000702901
0.000702528
0.000702155
0.000701782
0.000701408
0.000701034
0.000700659
0.000700283
0.000699905
0.000699526
0.000699145
0.000698763
0.000698378
0.000697991
0.000697601
0.000697209
0.000696814
0.000696416
0.000696015
0.000695611
0.000695204
0.000694793
0.000694378
0.00069396
0.000693538
0.000693112
0.000692682
0.000692248
0.00069181
0.000691367
0.00069092
0.000690469
0.000690013
0.000689553
0.000689087
0.000688616
0.000688139
0.000687656
0.000687167
0.000686671
0.000686168
0.000685655
0.000685133
0.000684599
0.000684051
0.000683487
0.000682903
0.000682293
0.00068165
0.000680963
0.000680218
0.000679391
0.000678448
0.000677335
0.000675972
0.000674253
0.000672076
0.000669504
1.08638e-05
0.000105004
0.000206319
0.000290782
0.000360581
0.000418893
0.000468205
0.000510357
0.000546711
0.000578299
0.000605916
0.00063019
0.000651631
0.000670658
0.00068762
0.000702865
0.000716703
0.000729386
0.000741116
0.000752053
0.000762316
0.000771989
0.000781126
0.000789754
0.000797881
0.000805491
0.00081252
0.000818965
0.000824817
0.000830061
0.000834683
0.000838673
0.000842022
0.000844727
0.000846793
0.00084823
0.000849053
0.000849285
0.000848956
0.000848101
0.000846757
0.000844969
0.000842784
0.000840249
0.000837416
0.000834333
0.000831052
0.000827619
0.00082408
0.000820478
0.00081685
0.000813233
0.000809655
0.000806143
0.000802719
0.000799399
0.000796197
0.000793122
0.000790181
0.000787376
0.000784711
0.000782182
0.000779788
0.000777524
0.000775387
0.00077337
0.000771467
0.000769673
0.000767981
0.000766385
0.000764879
0.000763457
0.000762115
0.000760845
0.000759645
0.000758508
0.000757432
0.00075641
0.000755441
0.00075452
0.000753644
0.00075281
0.000752015
0.000751257
0.000750532
0.000749839
0.000749176
0.00074854
0.00074793
0.000747343
0.000746779
0.000746235
0.000745711
0.000745204
0.000744713
0.000744238
0.000743777
0.000743329
0.000742892
0.000742466
0.00074205
0.000741642
0.000741241
0.000740845
0.000740454
0.000740068
0.000739686
0.000739309
0.000738936
0.000738567
0.000738202
0.00073784
0.000737482
0.000737126
0.000736773
0.000736423
0.000736075
0.000735728
0.000735384
0.00073504
0.000734698
0.000734356
0.000734015
0.000733674
0.000733332
0.000732991
0.000732649
0.000732306
0.000731962
0.000731618
0.000731271
0.000730924
0.000730574
0.000730223
0.000729869
0.000729514
0.000729156
0.000728795
0.000728432
0.000728066
0.000727697
0.000727325
0.000726949
0.000726571
0.000726188
0.000725803
0.000725413
0.00072502
0.000724623
0.000724222
0.000723817
0.000723408
0.000722995
0.000722578
0.000722156
0.000721729
0.000721298
0.000720861
0.000720419
0.000719972
0.000719518
0.000719057
0.00071859
0.000718114
0.000717628
0.000717132
0.000716623
0.000716099
0.000715556
0.00071499
0.000714393
0.000713757
0.000713068
0.000712306
0.000711442
0.000710432
0.000709212
0.000707702
0.000705834
0.000703678
1.12205e-05
0.000108024
0.000212838
0.000299895
0.000371269
0.000430304
0.000479674
0.000521384
0.000556933
0.000587463
0.000613859
0.000636827
0.000656939
0.000674668
0.000690411
0.000704595
0.000717565
0.000729598
0.00074091
0.000751662
0.000761964
0.000771885
0.000781457
0.000790683
0.000799542
0.000807951
0.000815866
0.000823261
0.000830105
0.000836365
0.000842011
0.000847018
0.000851367
0.000855044
0.000858046
0.000860376
0.000862046
0.000863074
0.000863488
0.000863319
0.000862606
0.000861394
0.00085973
0.000857663
0.000855248
0.000852537
0.000849584
0.00084644
0.000843154
0.000839775
0.000836345
0.000832902
0.000829482
0.000826113
0.000822821
0.000819625
0.000816542
0.000813582
0.000810755
0.000808064
0.000805511
0.000803096
0.000800817
0.000798669
0.000796648
0.000794748
0.000792963
0.000791286
0.00078971
0.00078823
0.000786838
0.000785529
0.000784297
0.000783137
0.000782042
0.000781009
0.000780033
0.000779109
0.000778235
0.000777406
0.000776619
0.000775871
0.00077516
0.000774482
0.000773836
0.000773218
0.000772628
0.000772062
0.00077152
0.000770999
0.000770499
0.000770016
0.000769551
0.000769102
0.000768668
0.000768247
0.000767839
0.000767442
0.000767056
0.000766679
0.00076631
0.000765949
0.000765593
0.000765242
0.000764895
0.000764552
0.000764213
0.000763878
0.000763546
0.000763218
0.000762893
0.000762571
0.000762252
0.000761935
0.000761621
0.000761309
0.000760998
0.00076069
0.000760382
0.000760075
0.00075977
0.000759464
0.000759159
0.000758854