/*--------------------------------*- C++ -*----------------------------------*\
  =========                 |
  \\      /  F ield         | OpenFOAM: The Open Source CFD Toolbox
   \\    /   O peration     | Website:  https://openfoam.org
    \\  /    A nd           | Version:  6
     \\/     M anipulation  |
\*---------------------------------------------------------------------------*/
FoamFile
{
    version     2.0;
    format      ascii;
    class       volScalarField;
    location    "0.03";
    object      p;
}
// * * * * * * * * * * * * * * * * * * * * * * * * * * * * * * * * * * * * * //

dimensions      [0 2 -2 0 0 0 0];

internalField   nonuniform List<scalar> 
12225
(
0.369844
0.117209
0.038862
0.0279012
0.0226726
0.0171069
0.0133046
0.0103237
0.00708118
0.00338661
-0.000798611
-0.00565408
-0.0114019
-0.018347
-0.0270545
-0.0385523
-0.0558187
-0.0845269
-0.0126762
0.0178149
0.0185376
0.0244955
0.0231061
0.0181155
0.0140334
0.01069
0.00719239
0.00331029
-0.00102865
-0.00600487
-0.0118698
-0.018942
-0.0277889
-0.0393153
-0.0559105
-0.0789308
-0.0489106
0.0218438
0.0231821
0.0249203
0.0232819
0.0186617
0.0145873
0.0110759
0.00740703
0.00337034
-0.00111796
-0.00623697
-0.0122407
-0.0194408
-0.0283571
-0.0396774
-0.0548977
-0.0734096
-0.00359321
0.0349756
0.0265839
0.0247135
0.0228862
0.0187293
0.0148337
0.0113024
0.00756629
0.00345074
-0.00112668
-0.00633194
-0.0123988
-0.0196079
-0.0283831
-0.039176
-0.052762
-0.0681704
0.0167078
0.0348793
0.0260958
0.0239744
0.0222797
0.0185646
0.0148842
0.0113988
0.00766807
0.00354736
-0.00104133
-0.00624526
-0.0122654
-0.0193327
-0.0277545
-0.0377802
-0.0497164
-0.0626338
0.019088
0.0306433
0.0249584
0.0232861
0.0216756
0.0183368
0.01487
0.0114618
0.00778239
0.00371174
-0.000821429
-0.00594201
-0.0118121
-0.0186046
-0.0265147
-0.0356376
-0.045995
-0.056776
0.0193116
0.0278302
0.0243104
0.0227641
0.0211436
0.0181222
0.0148632
0.0115566
0.0079652
0.00399097
-0.000427599
-0.0053902
-0.0110177
-0.0174248
-0.0247105
-0.0328617
-0.0417446
-0.0506901
0.0204239
0.0263482
0.0239294
0.022365
0.0207187
0.0179668
0.0149098
0.0117277
0.00825802
0.00442345
0.000175076
-0.00456016
-0.00986279
-0.0157942
-0.0223786
-0.0295339
-0.0370596
-0.0444192
0.0215801
0.0253829
0.0236229
0.0220784
0.0204267
0.0179062
0.0150475
0.0120124
0.0086968
0.0050435
0.00101802
-0.00342637
-0.00833334
-0.0137197
-0.0195564
-0.0257244
-0.0320095
-0.0379849
0.0223821
0.0246883
0.023386
0.0219144
0.0202838
0.0179681
0.0153081
0.0124432
0.00931361
0.00588177
0.00212837
-0.00196893
-0.00642238
-0.0112145
-0.0162827
-0.0214943
-0.0266494
-0.0314078
0.0229114
0.0242416
0.0232434
0.0218731
0.0202923
0.0181664
0.0157103
0.013039
0.0101267
0.00695381
0.00351615
-0.000187484
-0.00414437
-0.00831317
-0.0126134
-0.0169144
-0.0210427
-0.0247241
0.0232765
0.0240359
0.0232116
0.0219465
0.0204386
0.0184832
0.0162223
0.0137507
0.0110648
0.00816031
0.00504544
0.00173466
-0.00174283
-0.00533256
-0.0089486
-0.01247
-0.0157503
-0.0185574
0.0235954
0.0239755
0.0232835
0.0221273
0.0207095
0.0189251
0.0168647
0.0146074
0.0121669
0.00955213
0.00678139
0.00388128
0.000892098
-0.00212528
-0.0050866
-0.00788535
-0.0103987
-0.0124407
0.0239532
0.0240761
0.023493
0.0224666
0.0211756
0.0195917
0.0177715
0.0157799
0.0136447
0.0113865
0.00903296
0.00661999
0.00419472
0.00181902
-0.000430408
-0.00246561
-0.00418786
-0.00545979
0.0244163
0.0243982
0.0239064
0.0230308
0.021909
0.0205602
0.019025
0.0173568
0.0155921
0.0137611
0.0118983
0.0100447
0.00824885
0.0065678
0.00506562
0.0038094
0.00287349
0.00235102
0.0250825
0.0250092
0.0246071
0.0239018
0.0229909
0.0219148
0.02071
0.0194217
0.01809
0.0167508
0.0154415
0.014203
0.0130797
0.012119
0.0113691
0.0108762
0.0106922
0.010873
0.026073
0.0259963
0.0256953
0.0251787
0.024514
0.023746
0.022911
0.0220491
0.0211996
0.020399
0.0196831
0.0190877
0.0186485
0.0183999
0.0183737
0.0185969
0.0191018
0.0199143
0.0275109
0.0274587
0.0272745
0.026962
0.0265663
0.026129
0.0256861
0.0252735
0.0249266
0.0246782
0.0245579
0.0245931
0.0248081
0.0252236
0.0258561
0.0267168
0.0278223
0.0291748
0.0294844
0.0294768
0.0294274
0.0293279
0.0292056
0.0290992
0.0290429
0.0290685
0.0292059
0.0294809
0.0299145
0.0305232
0.0313194
0.0323109
0.0335009
0.0348884
0.0364777
0.0382541
0.0314299
0.0314799
0.0315494
0.0315944
0.0316447
0.0317459
0.0319304
0.0322296
0.0326721
0.0332785
0.0340625
0.0350326
0.036193
0.0375434
0.0390791
0.0407923
0.0426799
0.0447209
0.0328812
0.0330454
0.0332345
0.033355
0.033492
0.0337009
0.0340053
0.0344428
0.0350466
0.0358334
0.0368104
0.0379807
0.0393431
0.0408917
0.042617
0.0445065
0.0465526
0.0487316
0.0339096
0.0343882
0.0347377
0.034862
0.0350282
0.0352795
0.0356177
0.0361035
0.03678
0.0376573
0.0387359
0.0400152
0.0414899
0.04315
0.0449823
0.046971
0.0491053
0.05136
0.0343322
0.0355389
0.0361033
0.0361576
0.03633
0.0365686
0.0368579
0.0373182
0.0380024
0.0389055
0.0400212
0.0413468
0.0428738
0.0445881
0.0464734
0.0485112
0.0506878
0.0529782
0.0341879
0.0366929
0.0373413
0.0372457
0.0374706
0.0376435
0.0377951
0.0381686
0.0388129
0.0396944
0.0408012
0.04213
0.0436684
0.0453981
0.0472996
0.0493524
0.0515396
0.0538373
0.0341611
0.0388926
0.0387564
0.0381909
0.0385247
0.0385578
0.0384756
0.0387134
0.0392841
0.0401103
0.041177
0.0424809
0.0440042
0.0457237
0.0476167
0.0496607
0.0518361
0.0541204
0.032563
0.0434468
0.0411555
0.0393249
0.0396164
0.0393443
0.0389247
0.0389888
0.0394623
0.0402119
0.0412211
0.0424854
0.0439792
0.0456732
0.0475419
0.049561
0.0517083
0.0539624
0.0156909
0.0455844
0.0434544
0.0407441
0.0408021
0.0399643
0.0391123
0.0389784
0.0393419
0.0400095
0.0409617
0.0421874
0.0436502
0.0453144
0.0471516
0.0491365
0.0512453
0.0534584
-0.0283373
0.0323915
0.0394483
0.0408924
0.0415588
0.0400929
0.0388254
0.0385351
0.038819
0.0394334
0.0403554
0.0415634
0.0430088
0.0446495
0.0464564
0.0484044
0.0504689
0.0526332
-0.00854554
0.022259
0.0294471
0.0385761
0.040988
0.0391883
0.0377715
0.037537
0.0378786
0.0385224
0.0394628
0.040681
0.0421231
0.0437458
0.045522
0.0474304
0.0494481
0.0515489
0.356246
0.136587
0.0597573
0.0472068
0.0426375
0.0384482
0.0365957
0.0365372
0.037101
0.0378885
0.0389079
0.0401643
0.0416159
0.0432265
0.0449757
0.0468482
0.0488311
0.0509238
0.00180664
0.00136964
0.00100608
0.0009261
0.00114899
0.00171618
0.00266439
0.0040166
0.0057864
0.00798177
0.0106069
0.0136627
0.017147
0.0210609
0.0254042
0.0301656
0.0353283
0.0408715
0.0467703
0.052995
0.0595119
0.0662832
0.0732679
0.0804234
0.0877069
0.0950779
0.102492
0.1099
0.11725
0.124497
0.131597
0.138511
0.145201
0.151639
0.157796
0.16365
0.169185
0.174389
0.179253
0.183774
0.187951
0.19179
0.195295
0.198478
0.20135
0.203923
0.206213
0.208235
0.210006
0.211543
0.212862
0.213979
0.214912
0.215675
0.216284
0.216753
0.217096
0.217325
0.217453
0.21749
0.217448
0.217334
0.217159
0.21693
0.216653
0.216337
0.215987
0.215608
0.215205
0.214782
0.214343
0.213893
0.213433
0.212967
0.212497
0.212025
0.211553
0.211082
0.210614
0.210151
0.209692
0.209239
0.208793
0.208353
0.207921
0.207498
0.207082
0.206674
0.206276
0.205885
0.205504
0.20513
0.204765
0.204408
0.204059
0.203718
0.203383
0.203056
0.202736
0.202422
0.202116
0.201817
0.201523
0.201233
0.200947
0.200666
0.20039
0.200118
0.199852
0.19959
0.199332
0.199078
0.198829
0.198583
0.198341
0.198102
0.197867
0.197635
0.197406
0.197179
0.196955
0.196733
0.196514
0.196296
0.196079
0.195864
0.195651
0.195439
0.195227
0.195018
0.194809
0.194601
0.194395
0.194189
0.193985
0.193781
0.193579
0.193378
0.193177
0.192978
0.192779
0.19258
0.192383
0.192185
0.191988
0.19179
0.191592
0.191394
0.191195
0.190995
0.190795
0.190594
0.190392
0.19019
0.189987
0.189783
0.18958
0.189376
0.189172
0.188969
0.188767
0.188566
0.188368
0.188172
0.187982
0.187798
0.187623
0.18746
0.187313
0.187188
0.187094
0.187043
0.187052
0.187149
0.187376
0.187809
0.188604
0.190017
0.192937
0.19774
0.00233899
0.00166554
0.00110863
0.00097613
0.00118025
0.00169704
0.00255257
0.00377135
0.00536896
0.00735622
0.00974152
0.0125318
0.0157326
0.0193419
0.0233519
0.0277566
0.0325478
0.0377121
0.0432313
0.0490824
0.0552378
0.0616658
0.0683301
0.0751904
0.0822009
0.0893087
0.0964679
0.10364
0.110784
0.117855
0.124812
0.131618
0.138236
0.144635
0.150787
0.156669
0.162263
0.167552
0.172528
0.177184
0.181517
0.185529
0.189222
0.192605
0.195685
0.198474
0.200985
0.203231
0.205226
0.206986
0.208525
0.20986
0.211004
0.211974
0.212784
0.213446
0.213976
0.214384
0.214683
0.214884
0.214997
0.215032
0.214997
0.214901
0.214751
0.214554
0.214316
0.214043
0.21374
0.213411
0.213061
0.212694
0.212312
0.211919
0.211517
0.21111
0.210698
0.210284
0.209869
0.209454
0.209042
0.208632
0.208226
0.207825
0.207428
0.207037
0.206652
0.206274
0.205902
0.205536
0.205178
0.204826
0.204482
0.204143
0.203812
0.203487
0.203167
0.202854
0.202547
0.202245
0.201949
0.201658
0.201373
0.201092
0.200816
0.200544
0.200277
0.200013
0.199753
0.199497
0.199245
0.198997
0.198752
0.19851
0.198272
0.198037
0.197806
0.197577
0.19735
0.197126
0.196905
0.196685
0.196468
0.196252
0.196037
0.195824
0.195612
0.195401
0.195191
0.194982
0.194774
0.194568
0.194362
0.194158
0.193954
0.193751
0.193549
0.193349
0.193149
0.19295
0.192751
0.192554
0.192356
0.192159
0.191962
0.191765
0.191568
0.19137
0.191171
0.190972
0.190772
0.190571
0.19037
0.190168
0.189966
0.189763
0.189559
0.189356
0.189153
0.18895
0.188749
0.188549
0.188351
0.188157
0.187968
0.187785
0.187612
0.187452
0.187308
0.187188
0.187099
0.187055
0.187073
0.18718
0.18742
0.187861
0.188649
0.189973
0.192595
0.196532
0.00135437
0.000683564
4.91922e-05
-0.000137111
5.53516e-05
0.000553892
0.00135764
0.00248531
0.00395313
0.00577382
0.00795786
0.0105139
0.0134484
0.016764
0.0204599
0.0245335
0.0289788
0.0337861
0.0389413
0.0444259
0.0502172
0.0562884
0.0626084
0.0691423
0.07585
0.0826893
0.0896196
0.0965986
0.103583
0.110531
0.117401
0.124155
0.130755
0.13717
0.143371
0.149331
0.15503
0.16045
0.165579
0.170408
0.17493
0.179144
0.183052
0.186658
0.189967
0.19299
0.195736
0.198216
0.200445
0.202435
0.2042
0.205756
0.207115
0.208293
0.209304
0.21016
0.210875
0.211461
0.21193
0.212293
0.21256
0.212741
0.212845
0.21288
0.212854
0.212775
0.212647
0.212479
0.212274
0.212038
0.211775
0.21149
0.211185
0.210865
0.210531
0.210187
0.209835
0.209478
0.209115
0.20875
0.208384
0.208018
0.207653
0.207289
0.206928
0.20657
0.206217
0.205867
0.205522
0.205182
0.204848
0.204518
0.204194
0.203875
0.203562
0.203253
0.20295
0.202651
0.202357
0.202068
0.201784
0.201504
0.201229
0.200958
0.200691
0.200427
0.200167
0.199911
0.199658
0.199408
0.199162
0.198919
0.198679
0.198442
0.198208
0.197977
0.197749
0.197523
0.1973
0.197079
0.19686
0.196643
0.196427
0.196213
0.196
0.195789
0.195578
0.195369
0.19516
0.194953
0.194746
0.19454
0.194336
0.194132
0.193929
0.193727
0.193526
0.193326
0.193126
0.192928
0.19273
0.192533
0.192336
0.19214
0.191943
0.191746
0.191549
0.191352
0.191154
0.190955
0.190755
0.190555
0.190354
0.190152
0.18995
0.189748
0.189545
0.189342
0.189139
0.188937
0.188736
0.188536
0.18834
0.188147
0.187959
0.187778
0.187607
0.187448
0.187308
0.187191
0.187108
0.18707
0.187095
0.187211
0.187461
0.187906
0.188676
0.189897
0.192131
0.194871
-0.00149645
-0.0021881
-0.00296344
-0.00332601
-0.0032584
-0.00283801
-0.00209097
-0.00101447
0.000399836
0.00216065
0.0042766
0.00675568
0.00960445
0.0128273
0.0164259
0.0203992
0.0247426
0.0294475
0.0345012
0.0398863
0.0455812
0.0515597
0.0577919
0.0642441
0.0708782
0.0776547
0.0845333
0.0914721
0.0984285
0.105361
0.112228
0.118992
0.125617
0.13207
0.138321
0.144344
0.150119
0.155626
0.160852
0.165786
0.170424
0.174761
0.178798
0.182537
0.185985
0.189149
0.192038
0.194663
0.197036
0.19917
0.201078
0.202775
0.204273
0.205586
0.206728
0.207713
0.208552
0.209258
0.209843
0.210317
0.210691
0.210975
0.211177
0.211306
0.211369
0.211375
0.211329
0.211237
0.211105
0.210939
0.210742
0.210518
0.210273
0.210008
0.209727
0.209433
0.209128
0.208814
0.208494
0.208168
0.207839
0.207507
0.207174
0.206841
0.206509
0.206179
0.20585
0.205525
0.205202
0.204883
0.204568
0.204257
0.20395
0.203648
0.203349
0.203055
0.202764
0.202478
0.202196
0.201917
0.201643
0.201372
0.201105
0.200842
0.200582
0.200326
0.200073
0.199823
0.199576
0.199332
0.19909
0.198852
0.198617
0.198384
0.198154
0.197926
0.197701
0.197479
0.197258
0.19704
0.196823
0.196608
0.196395
0.196182
0.195971
0.195761
0.195552
0.195344
0.195137
0.19493
0.194725
0.19452
0.194316
0.194113
0.193911
0.19371
0.193509
0.19331
0.193111
0.192913
0.192716
0.192519
0.192323
0.192127
0.19193
0.191734
0.191537
0.19134
0.191142
0.190943
0.190744
0.190544
0.190343
0.190142
0.18994
0.189738
0.189535
0.189332
0.18913
0.188928
0.188727
0.188528
0.188331
0.188138
0.187951
0.18777
0.187599
0.187441
0.187301
0.187185
0.187101
0.187063
0.187086
0.187197
0.187433
0.187848
0.188542
0.189586
0.191324
0.193129
-0.0059315
-0.00673095
-0.00770494
-0.00827588
-0.00837211
-0.00807036
-0.00740871
-0.00639322
-0.00502119
-0.00328774
-0.00118678
0.00128818
0.004143
0.0073818
0.0110063
0.0150157
0.0194049
0.024165
0.0292826
0.0347395
0.0405129
0.0465757
0.0528966
0.0594405
0.0661683
0.0730393
0.0800124
0.0870451
0.0940947
0.101119
0.108078
0.114932
0.121646
0.128187
0.134526
0.140638
0.146501
0.152096
0.157412
0.162437
0.167165
0.171595
0.175724
0.179558
0.1831
0.186359
0.189343
0.192063
0.194531
0.19676
0.198762
0.200551
0.20214
0.203544
0.204775
0.205846
0.206769
0.207558
0.208223
0.208775
0.209224
0.209581
0.209853
0.21005
0.210179
0.210247
0.210261
0.210227
0.21015
0.210036
0.209889
0.209714
0.209514
0.209292
0.209053
0.208798
0.20853
0.208252
0.207965
0.207671
0.207371
0.207068
0.206762
0.206455
0.206147
0.205838
0.205531
0.205226
0.204922
0.204621
0.204322
0.204027
0.203734
0.203445
0.20316
0.202877
0.202598
0.202322
0.20205
0.201781
0.201515
0.201253
0.200994
0.200738
0.200485
0.200235
0.199988
0.199743
0.199501
0.199262
0.199026
0.198792
0.19856
0.198331
0.198105
0.197881
0.197659
0.197439
0.197221
0.197005
0.19679
0.196577
0.196365
0.196155
0.195945
0.195737
0.195529
0.195322
0.195116
0.194911
0.194706
0.194502
0.194299
0.194097
0.193896
0.193695
0.193495
0.193296
0.193098
0.192901
0.192704
0.192508
0.192312
0.192116
0.19192
0.191724
0.191528
0.19133
0.191133
0.190934
0.190735
0.190535
0.190335
0.190133
0.189932
0.189729
0.189527
0.189324
0.189121
0.188919
0.188718
0.188519
0.188322
0.188129
0.187941
0.18776
0.187588
0.187428
0.187286
0.187167
0.187079
0.187034
0.187046
0.18714
0.187345
0.187704
0.188288
0.189122
0.190399
0.191528
-0.0118587
-0.0129011
-0.0142121
-0.0150701
-0.0153755
-0.015223
-0.0146638
-0.0137101
-0.0123639
-0.0106243
-0.00848803
-0.00595099
-0.00300902
0.000340466
0.0040978
0.00826063
0.0128221
0.017771
0.0230915
0.0287627
0.034759
0.0410503
0.0476022
0.0543769
0.0613325
0.0684258
0.0756134
0.0828514
0.0900959
0.097304
0.104435
0.111449
0.118312
0.124991
0.131458
0.137687
0.143659
0.149356
0.154766
0.15988
0.164692
0.1692
0.173406
0.177312
0.180925
0.184252
0.187303
0.190089
0.192622
0.194914
0.196979
0.19883
0.200481
0.201946
0.203236
0.204366
0.205348
0.206194
0.206915
0.207522
0.208026
0.208435
0.208759
0.209005
0.209183
0.209298
0.209358
0.209368
0.209334
0.209261
0.209154
0.209017
0.208854
0.208668
0.208462
0.208239
0.208002
0.207753
0.207494
0.207226
0.206952
0.206673
0.20639
0.206104
0.205817
0.205528
0.205239
0.204951
0.204664
0.204378
0.204094
0.203813
0.203533
0.203256
0.202982
0.202711
0.202442
0.202176
0.201912
0.201652
0.201394
0.20114
0.200888
0.200638
0.200392
0.200148
0.199906
0.199667
0.19943
0.199196
0.198964
0.198734
0.198506
0.198281
0.198058
0.197837
0.197618
0.1974
0.197185
0.196971
0.196759
0.196548
0.196338
0.196129
0.195921
0.195714
0.195507
0.195301
0.195096
0.194892
0.194689
0.194486
0.194284
0.194082
0.193881
0.193682
0.193482
0.193284
0.193087
0.19289
0.192693
0.192498
0.192302
0.192107
0.191911
0.191715
0.191519
0.191322
0.191125
0.190926
0.190727
0.190528
0.190327
0.190126
0.189924
0.189722
0.189519
0.189316
0.189113
0.188911
0.18871
0.18851
0.188313
0.188118
0.187929
0.187746
0.187572
0.18741
0.187264
0.187139
0.187043
0.186986
0.186982
0.187049
0.187212
0.1875
0.18796
0.188587
0.189474
0.190097
-0.0193173
-0.0207377
-0.0225457
-0.0237965
-0.0243711
-0.0244029
-0.023963
-0.0230712
-0.0217346
-0.0199564
-0.0177371
-0.0150753
-0.0119694
-0.00841923
-0.00442701
2.06077e-06
0.0048576
0.0101246
0.0157828
0.0218067
0.0281659
0.0348254
0.041746
0.0488852
0.0561971
0.0636344
0.0711504
0.0786989
0.0862343
0.0937125
0.101092
0.108334
0.115403
0.122268
0.128901
0.135279
0.141382
0.147196
0.15271
0.157916
0.16281
0.167391
0.171662
0.175628
0.179295
0.182673
0.185771
0.188601
0.191176
0.193509
0.195614
0.197504
0.199194
0.200696
0.202025
0.203193
0.204213
0.205096
0.205855
0.206499
0.20704
0.207486
0.207846
0.208129
0.208342
0.208492
0.208586
0.20863
0.208629
0.208588
0.208512
0.208405
0.208271
0.208113
0.207935
0.207738
0.207527
0.207302
0.207067
0.206822
0.20657
0.206311
0.206048
0.205781
0.205511
0.20524
0.204967
0.204694
0.204422
0.20415
0.203879
0.20361
0.203342
0.203076
0.202813
0.202551
0.202291
0.202034
0.201779
0.201527
0.201277
0.20103
0.200784
0.200542
0.200301
0.200063
0.199827
0.199593
0.199361
0.199131
0.198903
0.198678
0.198454
0.198232
0.198012
0.197794
0.197578
0.197363
0.19715
0.196938
0.196728
0.196519
0.196311
0.196104
0.195897
0.195691
0.195486
0.195282
0.195078
0.194875
0.194672
0.19447
0.194269
0.194068
0.193868
0.193669
0.193471
0.193273
0.193076
0.19288
0.192684
0.192489
0.192294
0.192098
0.191903
0.191708
0.191511
0.191315
0.191117
0.190919
0.19072
0.19052
0.19032
0.190119
0.189917
0.189714
0.189512
0.189308
0.189105
0.188903
0.188701
0.1885
0.188302
0.188106
0.187915
0.18773
0.187553
0.187387
0.187235
0.187102
0.186996
0.186924
0.186898
0.186932
0.187045
0.187256
0.187588
0.188019
0.188582
0.188817
-0.0284203
-0.0303458
-0.0328079
-0.0345631
-0.0354729
-0.0357269
-0.0354245
-0.0345955
-0.0332529
-0.0314052
-0.0290567
-0.0262092
-0.0228642
-0.0190245
-0.014696
-0.0098881
-0.00461633
0.0010986
0.00723009
0.0137459
0.0206087
0.0277763
0.0352029
0.0428396
0.0506347
0.0585352
0.0664907
0.074452
0.0823713
0.0902029
0.0979047
0.105438
0.112768
0.119865
0.126703
0.13326
0.139519
0.145467
0.151096
0.1564
0.161378
0.16603
0.170362
0.174379
0.178089
0.181504
0.184635
0.187494
0.190095
0.192453
0.19458
0.196492
0.198202
0.199726
0.201076
0.202265
0.203307
0.204212
0.204994
0.205662
0.206226
0.206696
0.207081
0.207388
0.207626
0.207801
0.20792
0.207989
0.208013
0.207997
0.207945
0.207862
0.207751
0.207616
0.20746
0.207285
0.207095
0.206891
0.206675
0.20645
0.206216
0.205975
0.205729
0.205479
0.205225
0.204969
0.204711
0.204451
0.204192
0.203932
0.203673
0.203415
0.203158
0.202903
0.202649
0.202396
0.202145
0.201896
0.20165
0.201405
0.201162
0.200921
0.200683
0.200446
0.200212
0.199979
0.199748
0.199519
0.199292
0.199067
0.198843
0.198622
0.198402
0.198183
0.197967
0.197751
0.197538
0.197326
0.197115
0.196906
0.196698
0.196491
0.196284
0.196079
0.195874
0.195669
0.195466
0.195262
0.19506
0.194858
0.194656
0.194455
0.194255
0.194055
0.193856
0.193657
0.19346
0.193263
0.193066
0.192871
0.192675
0.19248
0.192286
0.192091
0.191896
0.191701
0.191505
0.191308
0.191111
0.190913
0.190714
0.190514
0.190314
0.190112
0.18991
0.189708
0.189505
0.189301
0.189098
0.188894
0.188692
0.18849
0.18829
0.188093
0.1879
0.187712
0.187531
0.187359
0.1872
0.187059
0.186939
0.186849
0.186798
0.186795
0.186853
0.186982
0.187191
0.187443
0.187735
0.187672
-0.0393597
-0.0419074
-0.0451657
-0.0475264
-0.0488305
-0.0493394
-0.0491886
-0.0484205
-0.0470548
-0.0451055
-0.0425808
-0.0394856
-0.0358244
-0.0316036
-0.0268334
-0.0215291
-0.0157131
-0.00941402
-0.00266709
0.00448616
0.0119988
0.0198193
0.0278928
0.0361623
0.0445681
0.0530504
0.061555
0.0700288
0.0784215
0.0866862
0.0947801
0.102665
0.110308
0.11768
0.124758
0.131522
0.137959
0.144059
0.149814
0.155224
0.160289
0.165012
0.169401
0.173464
0.177211
0.180654
0.183808
0.186685
0.1893
0.191668
0.193805
0.195726
0.197444
0.198976
0.200334
0.201532
0.202583
0.203499
0.204292
0.204972
0.20555
0.206034
0.206434
0.206757
0.207012
0.207204
0.207341
0.207427
0.207469
0.207472
0.207438
0.207374
0.207282
0.207165
0.207027
0.206871
0.206698
0.206511
0.206312
0.206103
0.205885
0.20566
0.205429
0.205194
0.204954
0.204711
0.204466
0.204219
0.203971
0.203723
0.203475
0.203227
0.20298
0.202733
0.202488
0.202244
0.202002
0.201761
0.201521
0.201284
0.201048
0.200814
0.200582
0.200352
0.200123
0.199896
0.19967
0.199446
0.199224
0.199003
0.198784
0.198566
0.198349
0.198135
0.197921
0.197709
0.197498
0.197289
0.197081
0.196874
0.196668
0.196462
0.196258
0.196054
0.195851
0.195648
0.195445
0.195243
0.195042
0.194841
0.19464
0.19444
0.194241
0.194042
0.193844
0.193646
0.193449
0.193253
0.193057
0.192862
0.192667
0.192473
0.192278
0.192084
0.191889
0.191694
0.191498
0.191302
0.191105
0.190907
0.190708
0.190508
0.190308
0.190106
0.189904
0.189701
0.189498
0.189294
0.18909
0.188886
0.188682
0.18848
0.188278
0.188079
0.187883
0.187691
0.187506
0.187328
0.187161
0.187008
0.186874
0.186764
0.186684
0.186642
0.186644
0.186692
0.186783
0.186875
0.186941
0.186648
-0.0524016
-0.05567
-0.0598349
-0.0628754
-0.064615
-0.0653995
-0.0654065
-0.064692
-0.063283
-0.0611977
-0.0584474
-0.0550392
-0.0509797
-0.0462793
-0.0409533
-0.0350245
-0.0285246
-0.0214926
-0.0139757
-0.00602774
0.00229149
0.0109182
0.0197863
0.0288277
0.0379725
0.0471549
0.0563159
0.0653983
0.0743493
0.0831209
0.0916707
0.0999616
0.107962
0.115647
0.122996
0.129992
0.136625
0.14289
0.148782
0.154303
0.159458
0.164253
0.168697
0.172803
0.176581
0.180047
0.183215
0.186102
0.188722
0.191093
0.19323
0.195149
0.196866
0.198396
0.199752
0.20095
0.202001
0.202919
0.203714
0.204398
0.204981
0.205472
0.20588
0.206212
0.206477
0.20668
0.206829
0.206928
0.206983
0.206999
0.20698
0.20693
0.206852
0.206751
0.206628
0.206486
0.206328
0.206156
0.205971
0.205777
0.205573
0.205362
0.205144
0.204921
0.204694
0.204463
0.204229
0.203994
0.203757
0.203519
0.20328
0.203042
0.202804
0.202566
0.20233
0.202094
0.201859
0.201626
0.201394
0.201164
0.200935
0.200707
0.200481
0.200257
0.200034
0.199812
0.199592
0.199373
0.199155
0.198939
0.198723
0.19851
0.198297
0.198085
0.197875
0.197666
0.197458
0.197252
0.197046
0.196841
0.196637
0.196434
0.196231
0.196029
0.195827
0.195626
0.195425
0.195224
0.195024
0.194824
0.194625
0.194426
0.194227
0.19403
0.193832
0.193635
0.193439
0.193244
0.193048
0.192854
0.19266
0.192466
0.192272
0.192078
0.191883
0.191688
0.191493
0.191296
0.191099
0.190901
0.190703
0.190503
0.190302
0.190101
0.189898
0.189695
0.189491
0.189287
0.189083
0.188878
0.188673
0.188469
0.188266
0.188064
0.187865
0.187669
0.187478
0.187294
0.187118
0.186953
0.186803
0.186671
0.186562
0.186478
0.186423
0.186392
0.186375
0.186324
0.186203
0.185731
-0.0678648
-0.0719199
-0.07705
-0.0808023
-0.0829916
-0.0840563
-0.0842177
-0.0835449
-0.0820696
-0.0798122
-0.0767842
-0.0729924
-0.0684445
-0.0631545
-0.0571437
-0.0504451
-0.0431026
-0.0351696
-0.0267093
-0.0177924
-0.0084954
0.00110227
0.0109198
0.0208749
0.0308868
0.0408854
0.050805
0.0605848
0.0701701
0.079513
0.0885722
0.0973132
0.105708
0.113734
0.121376
0.128621
0.135464
0.141902
0.147937
0.153574
0.15882
0.163686
0.168184
0.172328
0.176134
0.179617
0.182795
0.185685
0.188305
0.190671
0.192801
0.194713
0.196421
0.197942
0.19929
0.20048
0.201525
0.202438
0.20323
0.203912
0.204495
0.204987
0.205397
0.205733
0.206003
0.206213
0.206369
0.206476
0.206541
0.206567
0.206559
0.20652
0.206454
0.206364
0.206253
0.206124
0.205979
0.205819
0.205647
0.205465
0.205274
0.205074
0.204869
0.204657
0.204442
0.204222
0.203999
0.203774
0.203547
0.203318
0.203089
0.20286
0.20263
0.202401
0.202172
0.201944
0.201717
0.201491
0.201266
0.201043
0.200821
0.2006
0.20038
0.200162
0.199944
0.199728
0.199513
0.199299
0.199086
0.198874
0.198663
0.198453
0.198244
0.198036
0.197829
0.197623
0.197418
0.197214
0.197011
0.196808
0.196606
0.196405
0.196204
0.196004
0.195804
0.195604
0.195404
0.195205
0.195006
0.194807
0.194609
0.194411
0.194214
0.194017
0.193821
0.193625
0.193429
0.193234
0.19304
0.192846
0.192652
0.192459
0.192265
0.192071
0.191877
0.191682
0.191487
0.191291
0.191094
0.190896
0.190697
0.190498
0.190297
0.190095
0.189893
0.189689
0.189485
0.18928
0.189075
0.188869
0.188663
0.188458
0.188252
0.188048
0.187846
0.187646
0.187449
0.187257
0.187072
0.186894
0.186727
0.186572
0.186432
0.186308
0.186197
0.186091
0.185974
0.185798
0.185522
0.18491
-0.0860782
-0.0909348
-0.097013
-0.101452
-0.104073
-0.105406
-0.105711
-0.105067
-0.103505
-0.10104
-0.0976807
-0.0934281
-0.0882895
-0.0822822
-0.0754353
-0.0677958
-0.0594243
-0.0503948
-0.0407924
-0.0307107
-0.0202475
-0.0095029
0.0014228
0.0124313
0.0234354
0.0343577
0.0451265
0.0556785
0.0659588
0.0759212
0.0855276
0.0947475
0.103558
0.111941
0.119886
0.127388
0.134444
0.141058
0.147236
0.152987
0.158322
0.163256
0.167805
0.171984
0.175813
0.17931
0.182493
0.185382
0.187996
0.190354
0.192473
0.194371
0.196066
0.197574
0.19891
0.200088
0.201123
0.202027
0.202811
0.203487
0.204065
0.204554
0.204964
0.2053
0.205572
0.205785
0.205946
0.206059
0.20613
0.206163
0.206163
0.206134
0.206077
0.205997
0.205897
0.205778
0.205644
0.205496
0.205335
0.205164
0.204984
0.204796
0.204601
0.2044
0.204195
0.203985
0.203773
0.203557
0.203339
0.20312
0.202899
0.202678
0.202457
0.202236
0.202015
0.201794
0.201575
0.201356
0.201138
0.200921
0.200706
0.200491
0.200278
0.200065
0.199854
0.199643
0.199433
0.199224
0.199015
0.198808
0.198601
0.198395
0.19819
0.197985
0.197782
0.197579
0.197377
0.197175
0.196975
0.196774
0.196575
0.196376
0.196177
0.195978
0.19578
0.195581
0.195383
0.195185
0.194988
0.194791
0.194593
0.194397
0.1942
0.194004
0.193809
0.193614
0.193419
0.193225
0.193032
0.192838
0.192645
0.192452
0.192259
0.192065
0.191871
0.191677
0.191482
0.191286
0.191089
0.190891
0.190692
0.190493
0.190292
0.19009
0.189887
0.189684
0.189479
0.189274
0.189067
0.188861
0.188653
0.188446
0.188239
0.188032
0.187826
0.187621
0.187419
0.187219
0.187023
0.186833
0.186648
0.18647
0.186299
0.186134
0.18597
0.185794
0.185587
0.185302
0.184897
0.184174
-0.1073
-0.112901
-0.119813
-0.124845
-0.127846
-0.129424
-0.129865
-0.129245
-0.127584
-0.124886
-0.121142
-0.116345
-0.110497
-0.103618
-0.095751
-0.0869629
-0.0773385
-0.0669809
-0.0560063
-0.0445386
-0.0327047
-0.0206334
-0.00844551
0.00375008
0.0158582
0.0277924
0.0394781
0.0508522
0.0618627
0.0724677
0.082635
0.0923402
0.101567
0.110304
0.118548
0.126299
0.133561
0.140342
0.146655
0.152512
0.157929
0.162925
0.167518
0.171727
0.175574
0.17908
0.182264
0.185149
0.187754
0.190099
0.192204
0.194087
0.195766
0.197259
0.198579
0.199743
0.200765
0.201657
0.202432
0.2031
0.203671
0.204156
0.204562
0.204897
0.205169
0.205383
0.205546
0.205663
0.205739
0.205779
0.205785
0.205763
0.205715
0.205643
0.205552
0.205443
0.205318
0.20518
0.20503
0.204869
0.204699
0.204521
0.204337
0.204146
0.203951
0.203751
0.203547
0.203341
0.203132
0.202921
0.202709
0.202496
0.202283
0.202069
0.201856
0.201643
0.201431
0.201219
0.201008
0.200799
0.20059
0.200382
0.200174
0.199968
0.199762
0.199557
0.199352
0.199148
0.198944
0.198741
0.198538
0.198336
0.198135
0.197934
0.197733
0.197534
0.197335
0.197136
0.196938
0.19674
0.196543
0.196345
0.196148
0.195952
0.195755
0.195558
0.195362
0.195166
0.194969
0.194773
0.194578
0.194382
0.194187
0.193992
0.193797
0.193603
0.193409
0.193216
0.193023
0.19283
0.192638
0.192445
0.192252
0.192059
0.191866
0.191672
0.191477
0.191281
0.191084
0.190886
0.190688
0.190488
0.190287
0.190085
0.189882
0.189678
0.189473
0.189267
0.18906
0.188852
0.188644
0.188434
0.188225
0.188015
0.187805
0.187596
0.187387
0.18718
0.186973
0.186769
0.186567
0.186366
0.186165
0.185961
0.185746
0.185505
0.185218
0.184838
0.184325
0.183513
-0.131587
-0.137782
-0.145298
-0.150758
-0.154061
-0.155864
-0.156452
-0.155876
-0.154132
-0.15119
-0.147017
-0.141583
-0.134884
-0.126945
-0.11783
-0.107635
-0.096483
-0.0845209
-0.0719089
-0.0588156
-0.0454077
-0.0318393
-0.0182481
-0.00475513
0.00853393
0.0215299
0.03416
0.0463658
0.0581025
0.0693365
0.0800441
0.0902101
0.0998266
0.108891
0.117408
0.125383
0.132828
0.139757
0.146186
0.152133
0.157619
0.162665
0.167292
0.171524
0.175382
0.178891
0.182072
0.184949
0.187542
0.189873
0.191962
0.193828
0.19549
0.196966
0.19827
0.199419
0.200427
0.201307
0.202071
0.20273
0.203295
0.203774
0.204176
0.204509
0.204779
0.204994
0.205159
0.205279
0.205359
0.205403
0.205416
0.2054
0.205359
0.205296
0.205213
0.205113
0.204997
0.204868
0.204727
0.204576
0.204416
0.204248
0.204073
0.203892
0.203707
0.203516
0.203322
0.203124
0.202924
0.202722
0.202517
0.202312
0.202107
0.201901
0.201695
0.20149
0.201285
0.20108
0.200877
0.200674
0.200472
0.20027
0.200069
0.199869
0.199669
0.199469
0.199269
0.19907
0.198871
0.198673
0.198474
0.198276
0.198079
0.197881
0.197684
0.197488
0.197291
0.197096
0.1969
0.196705
0.19651
0.196315
0.19612
0.195925
0.19573
0.195535
0.19534
0.195145
0.19495
0.194756
0.194561
0.194367
0.194173
0.193979
0.193785
0.193592
0.193399
0.193207
0.193015
0.192822
0.19263
0.192438
0.192246
0.192053
0.19186
0.191666
0.191471
0.191276
0.191079
0.190881
0.190683
0.190483
0.190282
0.19008
0.189877
0.189672
0.189467
0.18926
0.189052
0.188844
0.188634
0.188423
0.188211
0.187998
0.187785
0.18757
0.187355
0.18714
0.186923
0.186705
0.186486
0.186262
0.186032
0.185791
0.185528
0.185229
0.184869
0.184407
0.183805
0.182922
-0.158595
-0.165119
-0.172888
-0.178556
-0.182083
-0.184122
-0.184914
-0.18446
-0.182695
-0.179537
-0.1749
-0.168723
-0.16099
-0.151744
-0.141085
-0.129157
-0.116147
-0.102272
-0.087756
-0.0728192
-0.0576629
-0.0424661
-0.0273851
-0.0125513
0.00192846
0.01597
0.029509
0.0424984
0.0549051
0.0667079
0.0778951
0.0884627
0.0984131
0.107754
0.116495
0.124654
0.132245
0.13929
0.145809
0.151825
0.157361
0.162442
0.167092
0.171336
0.175199
0.178705
0.18188
0.184745
0.187325
0.18964
0.191713
0.193563
0.195208
0.196667
0.197957
0.199092
0.200087
0.200955
0.20171
0.20236
0.202918
0.203392
0.203791
0.204121
0.204391
0.204607
0.204773
0.204896
0.20498
0.205029
0.205047
0.205038
0.205004
0.204949
0.204874
0.204782