/*--------------------------------*- C++ -*----------------------------------*\
  =========                 |
  \\      /  F ield         | OpenFOAM: The Open Source CFD Toolbox
   \\    /   O peration     | Website:  https://openfoam.org
    \\  /    A nd           | Version:  6
     \\/     M anipulation  |
\*---------------------------------------------------------------------------*/
FoamFile
{
    version     2.0;
    format      ascii;
    class       surfaceScalarField;
    location    "0.03";
    object      phi;
}
// * * * * * * * * * * * * * * * * * * * * * * * * * * * * * * * * * * * * * //

dimensions      [0 3 -1 0 0 0 0];

internalField   nonuniform List<scalar> 
24170
(
3.25711e-07
-6.87015e-09
3.19565e-07
6.14617e-09
3.16201e-07
3.36324e-09
3.0949e-07
6.7109e-09
3.03044e-07
6.44604e-09
2.98715e-07
4.32944e-09
2.96243e-07
2.4715e-09
2.94938e-07
1.30517e-09
2.94374e-07
5.64331e-10
2.9432e-07
5.39392e-11
2.94675e-07
-3.54766e-10
2.95459e-07
-7.83931e-10
2.96742e-07
-1.28342e-09
2.98642e-07
-1.89962e-09
3.01416e-07
-2.77409e-09
3.05486e-07
-4.06999e-09
3.13029e-07
-7.5435e-09
-1.53135e-08
3.28343e-07
3.50351e-07
-1.54963e-08
3.47891e-07
8.60589e-09
3.44339e-07
6.91558e-09
3.4279e-07
8.25957e-09
3.41043e-07
8.19371e-09
3.3912e-07
6.2517e-09
3.37497e-07
4.09459e-09
3.36393e-07
2.4098e-09
3.35833e-07
1.1244e-09
3.3582e-07
6.63102e-11
3.36344e-07
-8.79007e-10
3.37381e-07
-1.82021e-09
3.38963e-07
-2.86564e-09
3.41198e-07
-4.13495e-09
3.443e-07
-5.87571e-09
3.48725e-07
-8.4948e-09
3.54877e-07
-1.3696e-08
-2.2987e-08
3.62551e-07
3.63459e-07
-1.27032e-08
3.66695e-07
5.36945e-09
3.67063e-07
6.54725e-09
3.67557e-07
7.76643e-09
3.67636e-07
8.11447e-09
3.67239e-07
6.64816e-09
3.6671e-07
4.62383e-09
3.66342e-07
2.77741e-09
3.66292e-07
1.17438e-09
3.66638e-07
-2.79196e-10
3.67426e-07
-1.66733e-09
3.68694e-07
-3.08777e-09
3.70498e-07
-4.66936e-09
3.72942e-07
-6.57888e-09
3.76187e-07
-9.12148e-09
3.80479e-07
-1.27866e-08
3.85677e-07
-1.88938e-08
-2.84968e-08
3.91187e-07
3.89282e-07
-9.44662e-09
3.91626e-07
3.02517e-09
3.92794e-07
5.38023e-09
3.93813e-07
6.74645e-09
3.94578e-07
7.3504e-09
3.94957e-07
6.26898e-09
3.95128e-07
4.45214e-09
3.95326e-07
2.58001e-09
3.95716e-07
7.84339e-10
3.96403e-07
-9.66436e-10
3.97463e-07
-2.72681e-09
3.98959e-07
-4.58373e-09
4.00961e-07
-6.67193e-09
4.03563e-07
-9.18096e-09
4.06871e-07
-1.24295e-08
4.10975e-07
-1.68905e-08
4.15603e-07
-2.35212e-08
-3.2998e-08
4.20104e-07
4.18321e-07
-7.05526e-09
4.19609e-07
1.73759e-09
4.20756e-07
4.23287e-09
4.21908e-07
5.59434e-09
4.22998e-07
6.26118e-09
4.23839e-07
5.42739e-09
4.24498e-07
3.79322e-09
4.2514e-07
1.93804e-09
4.2591e-07
1.44328e-11
4.26914e-07
-1.97049e-09
4.28237e-07
-4.0494e-09
4.29952e-07
-6.29919e-09
4.32132e-07
-8.85194e-09
4.34851e-07
-1.19e-08
4.38165e-07
-1.57434e-08
4.42065e-07
-2.07907e-08
4.46243e-07
-2.76993e-08
-3.68469e-08
4.50092e-07
4.49094e-07
-5.24087e-09
4.4983e-07
1.00194e-09
4.50858e-07
3.20496e-09
4.52041e-07
4.41104e-09
4.53302e-07
4.99998e-09
4.54437e-07
4.2928e-09
4.55445e-07
2.78541e-09
4.56437e-07
9.45668e-10
4.57529e-07
-1.07772e-09
4.58817e-07
-3.25792e-09
4.60381e-07
-5.61398e-09
4.62296e-07
-8.21372e-09
4.64624e-07
-1.11803e-08
4.67418e-07
-1.4694e-08
4.7069e-07
-1.90154e-08
4.74369e-07
-2.44694e-08
4.78147e-07
-3.14777e-08
-4.02163e-08
4.81517e-07
4.81826e-07
-3.79512e-09
4.8231e-07
5.18543e-10
4.83227e-07
2.28805e-09
4.84396e-07
3.24118e-09
4.85741e-07
3.65504e-09
4.87061e-07
2.97292e-09
4.88319e-07
1.52761e-09
4.89584e-07
-3.19213e-10
4.90942e-07
-2.43563e-09
4.92472e-07
-4.78801e-09
4.94246e-07
-7.38817e-09
4.96328e-07
-1.02954e-08
4.98767e-07
-1.36193e-08
5.0159e-07
-1.75172e-08
5.04775e-07
-2.22005e-08
5.08212e-07
-2.79067e-08
5.11618e-07
-3.48837e-08
-4.31832e-08
5.14585e-07
5.16828e-07
-2.66457e-09
5.17182e-07
1.6393e-10
5.18005e-07
1.4654e-09
5.19138e-07
2.10783e-09
5.20512e-07
2.28094e-09
5.21944e-07
1.54091e-09
5.23377e-07
9.4692e-11
5.24848e-07
-1.78989e-09
5.26416e-07
-4.00369e-09
5.28142e-07
-6.5143e-09
5.30084e-07
-9.33023e-09
5.32291e-07
-1.25022e-08
5.34795e-07
-1.61228e-08
5.37598e-07
-2.03206e-08
5.40652e-07
-2.52541e-08
5.43827e-07
-3.10816e-08
5.46871e-07
-3.79284e-08
-4.57736e-08
5.49461e-07
5.54297e-07
-1.82753e-09
5.54583e-07
-1.22033e-10
5.55333e-07
7.14669e-10
5.56424e-07
1.01741e-09
5.57795e-07
9.09734e-10
5.59288e-07
4.77204e-11
5.60837e-07
-1.45446e-09
5.62455e-07
-3.40774e-09
5.64179e-07
-5.72726e-09
5.6605e-07
-8.38598e-09
5.68111e-07
-1.1391e-08
5.70393e-07
-1.4784e-08
5.72909e-07
-1.86387e-08
5.7564e-07
-2.30518e-08
5.78518e-07
-2.81319e-08
5.81407e-07
-3.39704e-08
5.84088e-07
-4.06099e-08
-4.79894e-08
5.86304e-07
5.94399e-07
-1.24929e-09
5.94661e-07
-3.8335e-10
5.95365e-07
1.06595e-11
5.96416e-07
-3.35819e-11
5.97766e-07
-4.4096e-10
5.99284e-07
-1.47021e-09
6.00902e-07
-3.07198e-09
6.02614e-07
-5.12012e-09
6.0444e-07
-7.55259e-09
6.06403e-07
-1.03491e-08
6.08528e-07
-1.35159e-08
6.10828e-07
-1.70848e-08
6.13299e-07
-2.11097e-08
6.15904e-07
-2.56563e-08
6.18561e-07
-3.0789e-08
6.21137e-07
-3.65466e-08
6.23445e-07
-4.29177e-08
-4.98215e-08
6.25277e-07
6.37319e-07
-8.8735e-10
6.37586e-07
-6.50257e-10
6.38267e-07
-6.70046e-10
6.39286e-07
-1.05277e-09
6.40606e-07
-1.76136e-09
6.42122e-07
-2.98579e-09
6.43768e-07
-4.7177e-09
6.45526e-07
-6.87883e-09
6.47401e-07
-9.42685e-09
6.49399e-07
-1.23478e-08
6.5153e-07
-1.56463e-08
6.53789e-07
-1.93442e-08
6.56156e-07
-2.34759e-08
6.58578e-07
-2.80787e-08
6.60969e-07
-3.31802e-08
6.63203e-07
-3.87803e-08
6.6512e-07
-4.48345e-08
-5.12542e-08
6.66552e-07
5.73913e-07
-7.16567e-10
5.74151e-07
-8.88722e-10
5.74721e-07
-1.24015e-09
5.75563e-07
-1.89498e-09
5.7665e-07
-2.84805e-09
5.77912e-07
-4.2474e-09
5.79297e-07
-6.10254e-09
5.80783e-07
-8.36541e-09
5.82364e-07
-1.10078e-08
5.84036e-07
-1.40199e-08
5.85794e-07
-1.74042e-08
5.87624e-07
-2.11739e-08
5.89496e-07
-2.53483e-08
5.91361e-07
-2.99436e-08
5.93144e-07
-3.49628e-08
5.94745e-07
-4.03814e-08
5.9605e-07
-4.61394e-08
-5.21448e-08
5.9694e-07
6.9973e-07
-6.3115e-10
7.0004e-07
-1.19908e-09
7.00689e-07
-1.88877e-09
7.0163e-07
-2.83625e-09
7.02837e-07
-4.05492e-09
7.04243e-07
-5.65342e-09
7.05795e-07
-7.65422e-09
7.07463e-07
-1.00333e-08
7.09229e-07
-1.2774e-08
7.11079e-07
-1.58699e-08
7.12995e-07
-1.93203e-08
7.1495e-07
-2.31292e-08
7.16902e-07
-2.73001e-08
7.18788e-07
-3.18296e-08
7.20524e-07
-3.66988e-08
7.22008e-07
-4.18649e-08
7.23127e-07
-4.72584e-08
-5.27919e-08
7.23774e-07
8.5309e-07
-6.36853e-10
8.53479e-07
-1.58811e-09
8.54212e-07
-2.62172e-09
8.55247e-07
-3.87137e-09
8.56557e-07
-5.36425e-09
8.58079e-07
-7.17545e-09
8.59758e-07
-9.33376e-09
8.61558e-07
-1.18324e-08
8.63447e-07
-1.46631e-08
8.65398e-07
-1.78209e-08
8.67379e-07
-2.13013e-08
8.69348e-07
-2.50986e-08
8.7125e-07
-2.9202e-08
8.73012e-07
-3.35912e-08
8.74543e-07
-3.82307e-08
8.75744e-07
-4.30658e-08
8.7651e-07
-4.80238e-08
-5.30273e-08
8.76745e-07
1.04001e-06
-7.25022e-10
1.04047e-06
-2.04878e-09
1.04128e-06
-3.42775e-09
1.04238e-06
-4.97704e-09
1.04375e-06
-6.73544e-09
1.04533e-06
-8.75458e-09
1.04706e-06
-1.10632e-08
1.04889e-06
-1.3665e-08
1.05079e-06
-1.65567e-08
1.0527e-06
-1.97332e-08
1.05458e-06
-2.31856e-08
1.05639e-06
-2.68995e-08
1.05804e-06
-3.08528e-08
1.05946e-06
-3.50131e-08
1.06056e-06
-3.93346e-08
1.06125e-06
-4.37579e-08
1.06144e-06
-4.82133e-08
-5.26358e-08
1.06105e-06
1.26782e-06
-8.69696e-10
1.26833e-06
-2.5523e-09
1.26916e-06
-4.2631e-09
1.27028e-06
-6.09301e-09
1.27163e-06
-8.08673e-09
1.27316e-06
-1.02827e-08
1.2748e-06
-1.27062e-08
1.2765e-06
-1.53657e-08
1.27821e-06
-1.82606e-08
1.27986e-06
-2.13849e-08
1.2814e-06
-2.47258e-08
1.28276e-06
-2.82632e-08
1.28388e-06
-3.19681e-08
1.28466e-06
-3.58016e-08
1.28505e-06
-3.97152e-08
1.28494e-06
-4.36509e-08
1.28427e-06
-4.75469e-08
-5.13515e-08
1.28299e-06
1.54548e-06
-1.03181e-09
1.54597e-06
-3.03769e-09
1.54674e-06
-5.03825e-09
1.54775e-06
-7.10257e-09
1.54894e-06
-9.27298e-09
1.55023e-06
-1.15808e-08
1.55158e-06
-1.40475e-08
1.55289e-06
-1.66833e-08
1.55412e-06
-1.94893e-08
1.5552e-06
-2.24595e-08
1.55605e-06
-2.55804e-08
1.55662e-06
-2.88301e-08
1.55683e-06
-3.21782e-08
1.55661e-06
-3.55862e-08
1.55591e-06
-3.90083e-08
1.55465e-06
-4.23938e-08
1.55279e-06
-4.56913e-08
-4.8862e-08
1.5503e-06
1.88389e-06
-1.16254e-09
1.88426e-06
-3.40641e-09
1.88484e-06
-5.61135e-09
1.88556e-06
-7.8237e-09
1.88636e-06
-1.00745e-08
1.88717e-06
-1.23895e-08
1.88791e-06
-1.47874e-08
1.8885e-06
-1.72795e-08
1.88888e-06
-1.987e-08
1.88898e-06
-2.25565e-08
1.88873e-06
-2.53288e-08
1.88807e-06
-2.81687e-08
1.88694e-06
-3.10502e-08
1.88529e-06
-3.39407e-08
1.88309e-06
-3.68022e-08
1.88029e-06
-3.95936e-08
1.87687e-06
-4.22752e-08
-4.48192e-08
1.87283e-06
2.29636e-06
-1.19225e-09
2.29647e-06
-3.51164e-09
2.29665e-06
-5.78905e-09
2.29684e-06
-8.02188e-09
2.29699e-06
-1.02198e-08
2.297e-06
-1.24029e-08
2.2968e-06
-1.45862e-08
2.29631e-06
-1.67829e-08
2.29544e-06
-1.90043e-08
2.29414e-06
-2.12568e-08
2.29235e-06
-2.35394e-08
2.29003e-06
-2.58433e-08
2.28713e-06
-2.81524e-08
2.28363e-06
-3.04439e-08
2.27952e-06
-3.26902e-08
2.27479e-06
-3.48609e-08
2.26944e-06
-3.69263e-08
-3.88665e-08
2.26348e-06
1.68097e-06
-1.09064e-09
1.68079e-06
-3.33097e-09
1.6806e-06
-5.59886e-09
1.68037e-06
-7.79239e-09
1.68005e-06
-9.90317e-09
1.67959e-06
-1.19449e-08
1.67893e-06
-1.39234e-08
1.678e-06
-1.58541e-08
1.67676e-06
-1.77585e-08
1.67515e-06
-1.96534e-08
1.67316e-06
-2.15479e-08
1.67076e-06
-2.34428e-08
1.66794e-06
-2.53309e-08
1.66469e-06
-2.71979e-08
1.66103e-06
-2.90232e-08
1.65695e-06
-3.0783e-08
1.65248e-06
-3.24527e-08
-3.40153e-08
1.64762e-06
1.46319e-06
-8.26326e-10
1.4628e-06
-2.93507e-09
1.46243e-06
-5.22852e-09
1.46204e-06
-7.40319e-09
1.46159e-06
-9.45381e-09
1.46102e-06
-1.13783e-08
1.46026e-06
-1.31624e-08
1.45924e-06
-1.48313e-08
1.4579e-06
-1.64251e-08
1.45623e-06
-1.79754e-08
1.45418e-06
-1.95033e-08
1.45176e-06
-2.10206e-08
1.44896e-06
-2.25296e-08
1.44578e-06
-2.40233e-08
1.44225e-06
-2.54872e-08
1.43837e-06
-2.69019e-08
1.43416e-06
-2.82464e-08
-2.95044e-08
1.42965e-06
1.27346e-06
-2.76555e-10
1.27286e-06
-2.33481e-09
1.27242e-06
-4.78788e-09
1.27203e-06
-7.00883e-09
1.27164e-06
-9.06474e-09
1.27117e-06
-1.09107e-08
1.27051e-06
-1.25049e-08
1.26959e-06
-1.39041e-08
1.26834e-06
-1.5181e-08
1.26675e-06
-1.63867e-08
1.26481e-06
-1.75563e-08
1.2625e-06
-1.87136e-08
1.25984e-06
-1.98697e-08
1.25684e-06
-2.10237e-08
1.25352e-06
-2.21652e-08
1.24989e-06
-2.32778e-08
1.24599e-06
-2.4342e-08
-2.53413e-08
1.24183e-06
1.10809e-06
7.22519e-10
1.10732e-06
-1.55896e-09
1.10692e-06
-4.39333e-09
1.10666e-06
-6.74714e-09
1.10648e-06
-8.88514e-09
1.10624e-06
-1.06691e-08
1.10578e-06
-1.20424e-08
1.10501e-06
-1.31348e-08
1.1039e-06
-1.40681e-08
1.10242e-06
-1.4915e-08
1.10059e-06
-1.57256e-08
1.09841e-06
-1.6534e-08
1.0959e-06
-1.73578e-08
1.09308e-06
-1.81994e-08
1.08996e-06
-1.90502e-08
1.08658e-06
-1.98946e-08
1.08295e-06
-2.07131e-08
-2.14878e-08
1.0791e-06
9.63915e-07
2.32876e-09
9.63043e-07
-6.86684e-10
9.62822e-07
-4.17226e-09
9.62816e-07
-6.74115e-09
9.62949e-07
-9.01824e-09
9.62979e-07
-1.06991e-08
9.62705e-07
-1.17681e-08
9.62055e-07
-1.24853e-08
9.6102e-07
-1.30325e-08
9.59607e-07
-1.35018e-08
9.57835e-07
-1.3954e-08
9.5573e-07
-1.44294e-08
9.53319e-07
-1.49467e-08
9.50627e-07
-1.55073e-08
9.47678e-07
-1.61011e-08
9.44494e-07
-1.6711e-08
9.41097e-07
-1.73163e-08
-1.78973e-08
9.37507e-07
8.38039e-07
4.82515e-09
8.37343e-07
9.26452e-12
8.37477e-07
-4.30606e-09
8.3783e-07
-7.09473e-09
8.38313e-07
-9.50116e-09
8.38567e-07
-1.09532e-08
8.38381e-07
-1.15822e-08
8.37732e-07
-1.18359e-08
8.36653e-07
-1.19541e-08
8.35189e-07
-1.20375e-08
8.33383e-07
-1.21482e-08
8.31277e-07
-1.2323e-08
8.28904e-07
-1.25741e-08
8.26293e-07
-1.28961e-08
8.23466e-07
-1.32739e-08
8.20442e-07
-1.36873e-08
8.1724e-07
-1.41139e-08
-1.45321e-08
8.13875e-07
7.2756e-07
8.99407e-09
7.278e-07
-2.31158e-10
7.28587e-07
-5.09318e-09
7.29393e-07
-7.90028e-09
7.3018e-07
-1.02889e-08
7.30505e-07
-1.1278e-08
7.30216e-07
-1.1293e-08
7.29378e-07
-1.0998e-08
7.28092e-07
-1.06682e-08
7.26445e-07
-1.03905e-08
7.24506e-07
-1.0209e-08
7.22326e-07
-1.01427e-08
7.19939e-07
-1.01878e-08
7.1737e-07
-1.03272e-08
7.14635e-07
-1.05385e-08
7.11746e-07
-1.07979e-08
7.08714e-07
-1.10818e-08
-1.13683e-08
7.0555e-07
6.30172e-07
1.58282e-08
6.32508e-07
-2.56641e-09
6.34148e-07
-6.73359e-09
6.35445e-07
-9.19744e-09
6.36385e-07
-1.12283e-08
6.36502e-07
-1.1395e-08
6.35816e-07
-1.06072e-08
6.34538e-07
-9.71964e-09
6.32854e-07
-8.98474e-09
6.30894e-07
-8.43094e-09
6.2874e-07
-8.05426e-09
6.26436e-07
-7.83933e-09
6.24008e-07
-7.75928e-09
6.21464e-07
-7.78341e-09
6.18808e-07
-7.88279e-09
6.16042e-07
-8.03192e-09
6.13169e-07
-8.20823e-09
-8.39216e-09
6.10193e-07
5.47153e-07
2.32221e-08
5.51644e-07
-7.05737e-09
5.53069e-07
-8.15883e-09
5.54373e-07
-1.05016e-08
5.54939e-07
-1.17942e-08
5.54296e-07
-1.07519e-08
5.52748e-07
-9.05986e-09
5.507e-07
-7.67082e-09
5.48416e-07
-6.70159e-09
5.46037e-07
-6.0511e-09
5.43617e-07
-5.63497e-09
5.41173e-07
-5.39539e-09
5.38699e-07
-5.28513e-09
5.36181e-07
-5.26548e-09
5.33605e-07
-5.30662e-09
5.3096e-07
-5.38658e-09
5.28239e-07
-5.48704e-09
-5.59537e-09
5.25442e-07
4.91554e-07
1.44286e-08
4.90545e-07
-6.04792e-09
4.86922e-07
-4.5358e-09
4.85644e-07
-9.22367e-09
4.83758e-07
-9.90825e-09
4.8085e-07
-7.84405e-09
4.77516e-07
-5.72619e-09
4.74212e-07
-4.36692e-09
4.71114e-07
-3.60267e-09
4.68235e-07
-3.17259e-09
4.65533e-07
-2.93265e-09
4.62949e-07
-2.81216e-09
4.60432e-07
-2.76739e-09
4.57935e-07
-2.76841e-09
4.55424e-07
-2.79576e-09
4.52876e-07
-2.83901e-09
4.50282e-07
-2.89274e-09
-2.99625e-09
4.47683e-07
4.34696e-07
4.28648e-07
4.24112e-07
4.14889e-07
4.04981e-07
3.97136e-07
3.9141e-07
3.87043e-07
3.83441e-07
3.80268e-07
3.77335e-07
3.74523e-07
3.71756e-07
3.68988e-07
3.66192e-07
3.63353e-07
3.6046e-07
3.57464e-07
-9.07621e-09
9.07621e-09
-1.86468e-08
9.57061e-09
-2.79227e-08
9.27587e-09
-3.63993e-08
8.47663e-09
-4.39446e-08
7.54532e-09
-5.05875e-08
6.64288e-09
-5.63877e-08
5.80015e-09
-6.13934e-08
5.00575e-09
-6.56324e-08
4.23903e-09
-6.91114e-08
3.47897e-09
-7.1819e-08
2.70756e-09
-7.37307e-08
1.91172e-09
-7.48152e-08
1.08447e-09
-7.5042e-08
2.26798e-10
-7.43841e-08
-6.57861e-10
-7.2816e-08
-1.56809e-09
-7.03156e-08
-2.50045e-09
-6.68668e-08
-3.4488e-09
-6.24616e-08
-4.40518e-09
-5.71011e-08
-5.36044e-09
-5.07959e-08
-6.30522e-09
-4.35668e-08
-7.22908e-09
-3.54434e-08
-8.12343e-09
-2.64634e-08
-8.97996e-09
-1.66732e-08
-9.79022e-09
-6.11618e-09
-1.0557e-08
5.15692e-09
-1.12731e-08
1.70791e-08
-1.19222e-08
2.95795e-08
-1.25004e-08
4.25853e-08
-1.30057e-08
5.60219e-08
-1.34367e-08
6.98143e-08
-1.37924e-08
8.38873e-08
-1.4073e-08
9.81669e-08
-1.42796e-08
1.12581e-07
-1.44138e-08
1.27059e-07
-1.44784e-08
1.41536e-07
-1.44765e-08
1.55948e-07
-1.44121e-08
1.70237e-07
-1.42895e-08
1.84351e-07
-1.41134e-08
1.98239e-07
-1.38888e-08
2.1186e-07
-1.36207e-08
2.25175e-07
-1.33145e-08
2.3815e-07
-1.29752e-08
2.50758e-07
-1.26079e-08
2.62975e-07
-1.22176e-08
2.74784e-07
-1.18087e-08
2.8617e-07
-1.13858e-08
2.97123e-07
-1.09529e-08
3.07637e-07
-1.05137e-08
3.17708e-07
-1.00717e-08
3.27338e-07
-9.62978e-09
3.36529e-07
-9.19071e-09
3.45286e-07
-8.75681e-09
3.53616e-07
-8.33009e-09
3.61528e-07
-7.91224e-09
3.69033e-07
-7.50468e-09
3.76141e-07
-7.10854e-09
3.82866e-07
-6.72474e-09
3.8922e-07
-6.35394e-09
3.95216e-07
-5.99663e-09
4.0087e-07
-5.65313e-09
4.06193e-07
-5.3236e-09
4.11201e-07
-5.00807e-09
4.15908e-07
-4.70648e-09
4.20326e-07
-4.41867e-09
4.24471e-07
-4.14438e-09
4.28354e-07
-3.88332e-09
4.31989e-07
-3.63515e-09
4.35389e-07
-3.39944e-09
4.38565e-07
-3.17582e-09
4.41528e-07
-2.96382e-09
4.44291e-07
-2.76298e-09
4.46864e-07
-2.57286e-09
4.49257e-07
-2.39297e-09
4.5148e-07
-2.22288e-09
4.53542e-07
-2.06211e-09
4.55452e-07
-1.91023e-09
4.57219e-07
-1.76678e-09
4.5885e-07
-1.63135e-09
4.60354e-07
-1.50352e-09
4.61737e-07
-1.38291e-09
4.63006e-07
-1.26913e-09
4.64168e-07
-1.16182e-09
4.65229e-07
-1.06063e-09
4.66194e-07
-9.65215e-10
4.67069e-07
-8.75281e-10
4.6786e-07
-7.90505e-10
4.6857e-07
-7.10603e-10
4.69205e-07
-6.35297e-10
4.6977e-07
-5.64325e-10
4.70267e-07
-4.97466e-10
4.70702e-07
-4.34503e-10
4.71077e-07
-3.75246e-10
4.71396e-07
-3.19464e-10
4.71663e-07
-2.66946e-10
4.71881e-07
-2.17449e-10
4.72051e-07
-1.70675e-10
4.72178e-07
-1.26228e-10
4.72261e-07
-8.35406e-11
4.72302e-07
-4.05931e-11
4.72297e-07
4.77086e-12
4.72248e-07
4.94836e-11
4.72158e-07
8.92545e-11
4.72034e-07
1.23849e-10
4.7188e-07
1.5446e-10
4.71698e-07
1.81987e-10
4.71491e-07
2.07044e-10
4.71261e-07
2.30091e-10
4.71009e-07
2.51477e-10
4.70738e-07
2.71445e-10
4.70448e-07
2.90167e-10
4.7014e-07
3.07772e-10
4.69816e-07
3.24373e-10
4.69476e-07
3.40059e-10
4.69121e-07
3.54911e-10
4.68752e-07
3.68982e-10
4.68369e-07
3.82356e-10
4.67974e-07
3.95059e-10
4.67567e-07
4.07172e-10
4.67148e-07
4.18717e-10
4.66719e-07
4.29758e-10
4.66278e-07
4.40322e-10
4.65828e-07
4.50463e-10
4.65368e-07
4.60203e-10
4.64898e-07
4.69568e-10
4.64419e-07
4.78603e-10
4.63932e-07
4.87311e-10
4.63436e-07
4.9572e-10
4.62933e-07
5.03853e-10
4.62421e-07
5.11715e-10
4.61902e-07
5.19347e-10
4.61375e-07
5.26754e-10
4.60841e-07
5.33978e-10
4.603e-07
5.41045e-10
4.59752e-07
5.47991e-10
4.59197e-07
5.54834e-10
4.58635e-07
5.61628e-10
4.58067e-07
5.68383e-10
4.57492e-07
5.75128e-10
4.5691e-07
5.81889e-10
4.56321e-07
5.88675e-10
4.55726e-07
5.95508e-10
4.55123e-07
6.02382e-10
4.54514e-07
6.09306e-10
4.53898e-07
6.16277e-10
4.53274e-07
6.23303e-10
4.52644e-07
6.30389e-10
4.52007e-07
6.37548e-10
4.51362e-07
6.44787e-10
4.5071e-07
6.5212e-10
4.5005e-07
6.59581e-10
4.49383e-07
6.67203e-10
4.48708e-07
6.75016e-10
4.48025e-07
6.83087e-10
4.47333e-07
6.91484e-10
4.46633e-07
7.00309e-10
4.45923e-07
7.09674e-10
4.45204e-07
7.19742e-10
4.44473e-07
7.30714e-10
4.4373e-07
7.42869e-10
4.42973e-07
7.5655e-10
4.42201e-07
7.72233e-10
4.41411e-07
7.90528e-10
4.40598e-07
8.1228e-10
4.3976e-07
8.38619e-10
4.38889e-07
8.71088e-10
4.37977e-07
9.11864e-10
4.37013e-07
9.64026e-10
4.35981e-07
1.03205e-09
4.34858e-07
1.12268e-09
4.33612e-07
1.24638e-09
4.32191e-07
1.42049e-09
4.30516e-07
1.67508e-09
4.28447e-07
2.06927e-09
4.25726e-07
2.72075e-09
4.21782e-07
3.94384e-09
4.15435e-07
6.34768e-09
4.02945e-07
1.24899e-08
2.38661e-08
3.79079e-07
-9.07592e-09
1.81521e-08
-1.64233e-08
1.6918e-08
-2.30733e-08
1.59259e-08
-2.94448e-08
1.48481e-08
-3.55617e-08
1.36622e-08
-4.13398e-08
1.2421e-08
-4.66877e-08
1.11481e-08
-5.15242e-08
9.8422e-09
-5.57768e-08
8.49167e-09
-5.93809e-08
7.083e-09
-6.22782e-08
5.60487e-09
-6.44167e-08
4.05027e-09
-6.57494e-08
2.41713e-09
-6.62298e-08
7.07231e-10
-6.58141e-08
-1.07357e-09
-6.44668e-08
-2.91541e-09
-6.21622e-08
-4.80507e-09
-5.88839e-08
-6.72707e-09
-5.46248e-08
-8.66432e-09
-4.93865e-08
-1.05987e-08
-4.31801e-08
-1.25116e-08
-3.60247e-08
-1.43845e-08
-2.79485e-08
-1.61996e-08
-1.89882e-08
-1.79403e-08
-9.18666e-09
-1.95917e-08
1.39683e-09
-2.11405e-08
1.26978e-08
-2.25741e-08
2.46564e-08
-2.38808e-08
3.72078e-08
-2.50518e-08
5.0283e-08
-2.60809e-08
6.38103e-08
-2.6964e-08
7.77166e-08
-2.76987e-08
9.19286e-08
-2.82851e-08
1.06374e-07
-2.87245e-08
1.2098e-07
-2.90203e-08
1.35679e-07
-2.91773e-08
1.50404e-07
-2.92018e-08
1.65093e-07
-2.91009e-08
1.79687e-07
-2.88831e-08
1.9413e-07
-2.85573e-08
2.08375e-07
-2.81332e-08
2.22375e-07
-2.76206e-08
2.3609e-07
-2.70298e-08
2.49486e-07
-2.63707e-08
2.62531e-07
-2.56534e-08
2.75201e-07
-2.48874e-08
2.87474e-07
-2.40821e-08
2.99334e-07
-2.32461e-08
3.10769e-07
-2.23877e-08
3.2177e-07
-2.15143e-08
3.32331e-07
-2.06328e-08
3.4245e-07
-1.97494e-08
3.52129e-07
-1.88695e-08
3.61371e-07
-1.79981e-08
3.7018e-07
-1.71393e-08
3.78564e-07
-1.62966e-08
3.86533e-07
-1.54731e-08
3.94095e-07
-1.46712e-08
4.01263e-07
-1.38928e-08
4.08049e-07
-1.31395e-08
4.14465e-07
-1.24124e-08
4.20524e-07
-1.17123e-08
4.2624e-07
-1.10396e-08
4.31626e-07
-1.03944e-08
4.36697e-07
-9.77687e-09
4.41465e-07
-9.18667e-09
4.45944e-07
-8.62341e-09
4.50147e-07
-8.0866e-09
4.54087e-07
-7.57558e-09
4.57778e-07
-7.08965e-09
4.6123e-07
-6.62802e-09
4.64456e-07
-6.18987e-09
4.67467e-07
-5.77433e-09
4.70275e-07
-5.3805e-09
4.72889e-07
-5.00751e-09
4.75321e-07
-4.65445e-09
4.77579e-07
-4.32043e-09
4.79674e-07
-4.00457e-09
4.81613e-07
-3.70602e-09
4.83405e-07
-3.42392e-09
4.85059e-07
-3.15748e-09
4.86582e-07
-2.90588e-09
4.87982e-07
-2.66838e-09
4.89264e-07
-2.44424e-09
4.90436e-07
-2.23276e-09
4.91504e-07
-2.03327e-09
4.92474e-07
-1.84513e-09
4.93351e-07
-1.66772e-09
4.94141e-07
-1.50049e-09
4.94849e-07
-1.34287e-09
4.95479e-07
-1.19436e-09
4.96036e-07
-1.05447e-09
4.96524e-07
-9.22751e-10
4.96948e-07
-7.9874e-10
4.9731e-07
-6.81983e-10
4.97615e-07
-5.7202e-10
4.97866e-07
-4.6838e-10
4.98066e-07
-3.70598e-10
4.98218e-07
-2.78134e-10
4.98325e-07
-1.90495e-10
4.98391e-07
-1.0692e-10
4.98422e-07
-2.64228e-11
4.98421e-07
5.13349e-11
4.98384e-07
1.25316e-10
4.98314e-07
1.94419e-10
4.9821e-07
2.58524e-10
4.98074e-07
3.1795e-10
4.97908e-07
3.73104e-10
4.97714e-07
4.24393e-10
4.97493e-07
4.72226e-10
4.97247e-07
5.16938e-10
4.96979e-07
5.58841e-10
4.96688e-07
5.98188e-10
4.96377e-07
6.35223e-10
4.96047e-07
6.7012e-10
4.95699e-07
7.03079e-10
4.95334e-07
7.34249e-10
4.94952e-07
7.63766e-10
4.94556e-07
7.91771e-10
4.94145e-07
8.18381e-10
4.9372e-07
8.43703e-10
4.93281e-07
8.67843e-10
4.92831e-07
8.90892e-10
4.92368e-07
9.12942e-10
4.91895e-07
9.34078e-10
4.9141e-07
9.54365e-10
4.90914e-07
9.7386e-10
4.90409e-07
9.92629e-10
4.89894e-07
1.01072e-09
4.8937e-07
1.02817e-09
4.88837e-07
1.04503e-09
4.88295e-07
1.06135e-09
4.87744e-07
1.07716e-09
4.87186e-07
1.09253e-09
4.86619e-07
1.10752e-09
4.86045e-07
1.12218e-09
4.85463e-07
1.13657e-09
4.84874e-07
1.15076e-09
4.84278e-07
1.1648e-09
4.83674e-07
1.17875e-09
4.83063e-07
1.19266e-09
4.82445e-07
1.20655e-09
4.8182e-07
1.22049e-09
4.81188e-07
1.23447e-09
4.80549e-07
1.24853e-09
4.79903e-07
1.26267e-09
4.79249e-07
1.27692e-09
4.78588e-07
1.29128e-09
4.7792e-07
1.30577e-09
4.77244e-07
1.32041e-09
4.76561e-07
1.33524e-09
4.7587e-07
1.35031e-09
4.75172e-07
1.36566e-09
4.74466e-07
1.38139e-09
4.73751e-07
1.39759e-09
4.73028e-07
1.41439e-09
4.72297e-07
1.43197e-09
4.71556e-07
1.45054e-09
4.70805e-07
1.47041e-09
4.70044e-07
1.49193e-09
4.69271e-07
1.51562e-09
4.68485e-07
1.5421e-09
4.67685e-07
1.57224e-09
4.66869e-07
1.60717e-09
4.66033e-07
1.64837e-09
4.65173e-07
1.69793e-09
4.64286e-07
1.75861e-09
4.63363e-07
1.8343e-09
4.62397e-07
1.93045e-09
4.61374e-07
2.05495e-09
4.60277e-07
2.21941e-09
4.59082e-07
2.44165e-09
4.57752e-07
2.75029e-09
4.56234e-07
3.19325e-09
4.54444e-07
3.85961e-09
4.52249e-07
4.91595e-09
4.49426e-07
6.76676e-09
4.45626e-07
1.01479e-08
4.40247e-07
1.78682e-08
3.27959e-08
4.31317e-07
-6.675e-09
2.48271e-08
-1.29109e-08
2.31538e-08
-1.89157e-08
2.19307e-08
-2.48167e-08
2.07491e-08
-3.06131e-08
1.94586e-08
-3.62223e-08
1.80302e-08
-4.15342e-08
1.64601e-08
-4.64374e-08
1.47454e-08
-5.08279e-08
1.28822e-08
-5.46123e-08
1.08674e-08
-5.7708e-08
8.70059e-09
-6.00428e-08
6.38511e-09
-6.15541e-08
3.92836e-09
-6.21888e-08
1.34198e-09
-6.19042e-08
-1.35814e-09
-6.06668e-08
-4.15286e-09
-5.84523e-08
-7.0196e-09
-5.52459e-08
-9.93344e-09
-5.10425e-08
-1.28678e-08
-4.5846e-08
-1.57951e-08
-3.96699e-08
-1.86877e-08
-3.25361e-08
-2.15183e-08
-2.44751e-08
-2.42606e-08
-1.55255e-08
-2.68899e-08
-5.73367e-09
-2.93835e-08
4.84559e-09
-3.17198e-08
1.61526e-08
-3.38811e-08
2.81239e-08
-3.58521e-08
4.06926e-08
-3.76205e-08
5.37887e-08
-3.91771e-08
6.73404e-08
-4.05157e-08
8.12749e-08
-4.16332e-08
9.55191e-08
-4.25292e-08
1.10001e-07
-4.32061e-08
1.24649e-07
-4.36686e-08
1.39396e-07
-4.39239e-08
1.54175e-07
-4.39808e-08
1.68924e-07
-4.38502e-08
1.83585e-07
-4.35441e-08
1.98103e-07
-4.30759e-08
2.1243e-07
-4.24595e-08
2.26519e-07
-4.17097e-08
2.4033e-07
-4.08413e-08
2.53829e-07
-3.98692e-08
2.66984e-07
-3.88082e-08
2.79769e-07
-3.76726e-08
2.92163e-07
-3.64761e-08
3.04148e-07
-3.52318e-08
3.15713e-07
-3.39519e-08
3.26846e-07
-3.26477e-08
3.37543e-07
-3.13295e-08
3.478e-07
-3.00068e-08
3.57618e-07
-2.86877e-08
3.67e-07
-2.73797e-08
3.7595e-07
-2.60891e-08
3.84475e-07
-2.48215e-08
3.92583e-07
-2.35813e-08
4.00284e-07
-2.23724e-08
4.07589e-07
-2.11979e-08
4.14509e-07
-2.006e-08
4.21058e-07
-1.89608e-08
4.27247e-07
-1.79013e-08
4.3309e-07
-1.68823e-08
4.38599e-07
-1.59043e-08
4.4379e-07
-1.49673e-08
4.48674e-07
-1.4071e-08
4.53266e-07
-1.3215e-08
4.57578e-07
-1.23984e-08
4.61622e-07
-1.16204e-08
4.65413e-07
-1.08801e-08
4.68961e-07
-1.01762e-08
4.72279e-07
-9.50759e-09
4.75377e-07
-8.87302e-09
4.78268e-07
-8.27121e-09
4.80961e-07
-7.70083e-09
4.83468e-07
-7.16058e-09
4.85796e-07
-6.64915e-09
4.87957e-07
-6.16523e-09
4.89958e-07
-5.70757e-09
4.91809e-07
-5.27492e-09
4.93518e-07
-4.86606e-09
4.95092e-07
-4.47981e-09
4.96539e-07
-4.11505e-09
4.97865e-07
-3.77067e-09
4.99078e-07
-3.44563e-09
5.00184e-07
-3.13891e-09
5.01188e-07
-2.84957e-09
5.02097e-07
-2.57668e-09
5.02916e-07
-2.31937e-09
5.0365e-07
-2.07685e-09
5.04304e-07
-1.84832e-09
5.04882e-07
-1.63304e-09
5.0539e-07
-1.4303e-09
5.05831e-07
-1.23937e-09
5.06208e-07
-1.05958e-09
5.06526e-07
-8.90231e-10
5.06789e-07
-7.30655e-10
5.06998e-07
-5.80185e-10
5.07158e-07
-4.38187e-10
5.07272e-07
-3.04026e-10
5.07342e-07
-1.7709e-10
5.07372e-07
-5.66205e-11
5.07365e-07
5.80828e-11
5.07324e-07
1.67096e-10
5.07248e-07
2.7007e-10
5.0714e-07
3.66869e-10
5.07e-07
4.57616e-10
5.06831e-07
5.4259e-10
5.06633e-07
6.22127e-10
5.06408e-07
6.96612e-10
5.06159e-07
7.66444e-10
5.05886e-07
8.31981e-10
5.0559e-07
8.93562e-10
5.05274e-07
9.51519e-10
5.04938e-07
1.00614e-09
5.04583e-07
1.05768e-09
5.04211e-07
1.10639e-09
5.03823e-07
1.1525e-09
5.03418e-07
1.19619e-09
5.02999e-07
1.23767e-09
5.02565e-07
1.27711e-09
5.02119e-07
1.31467e-09
5.01659e-07
1.35049e-09
5.01187e-07
1.38473e-09
5.00704e-07
1.41749e-09
5.00209e-07
1.44891e-09
4.99704e-07
1.47908e-09
4.99189e-07
1.50809e-09
4.98663e-07
1.53602e-09
4.98129e-07
1.56296e-09
4.97585e-07
1.58896e-09
4.97032e-07
1.61412e-09
4.9647e-07
1.63849e-09
4.95901e-07
1.66216e-09
4.95323e-07
1.68521e-09
4.94738e-07
1.70773e-09
4.94144e-07
1.7298e-09
4.93544e-07
1.75152e-09
4.92935e-07
1.77295e-09
4.9232e-07
1.79419e-09
4.91697e-07
1.81531e-09
4.91068e-07
1.83638e-09
4.90431e-07
1.85744e-09
4.89787e-07
1.87854e-09
4.89135e-07
1.89973e-09
4.88477e-07
1.92102e-09
4.87811e-07
1.94245e-09
4.87139e-07
1.96404e-09
4.86459e-07
1.98582e-09
4.85771e-07
2.00783e-09
4.85076e-07
2.03012e-09
4.84374e-07
2.05275e-09
4.83664e-07
2.07582e-09
4.82946e-07
2.09943e-09
4.8222e-07
2.12374e-09
4.81485e-07
2.14894e-09
4.80742e-07
2.17529e-09
4.79989e-07
2.2031e-09
4.79227e-07
2.2328e-09
4.78454e-07
2.26494e-09
4.77669e-07
2.30024e-09
4.76872e-07
2.33963e-09
4.76059e-07
2.38437e-09
4.75231e-07
2.43609e-09
4.74382e-07
2.497e-09
4.7351e-07
2.57005e-09
4.72609e-07
2.65931e-09
4.71673e-07
2.77036e-09
4.70692e-07
2.91104e-09
4.69655e-07
3.0926e-09
4.68543e-07
3.33153e-09
4.67332e-07
3.65276e-09
4.65986e-07
4.09559e-09
4.64455e-07
4.72451e-09
4.62661e-07
5.65382e-09
4.60487e-07
7.0898e-09
4.57775e-07
9.47839e-09
4.54307e-07
1.36157e-08
4.50309e-07
2.18663e-08
3.66669e-08
4.46438e-07
-5.30136e-09
3.01285e-08
-1.11018e-08
2.89543e-08
-1.70599e-08
2.78888e-08
-2.30552e-08
2.67444e-08
-2.89904e-08
2.53938e-08
-3.4758e-08
2.37977e-08
-4.0242e-08
2.19441e-08
-4.53268e-08
1.98301e-08
-4.9902e-08
1.74574e-08
-5.38666e-08
1.4832e-08
-5.71298e-08
1.19638e-08
-5.96118e-08
8.86713e-09
-6.12441e-08
5.56071e-09
-6.19696e-08
2.0674e-09
-6.1742e-08
-1.58567e-09
-6.05265e-08
-5.36837e-09
-5.82988e-08
-9.24731e-09
-5.50453e-08
-1.31869e-08
-5.0763e-08
-1.71501e-08
-4.54589e-08
-2.10992e-08
-3.91499e-08
-2.49967e-08
-3.18623e-08
-2.88059e-08
-2.36311e-08
-3.24919e-08
-1.44992e-08
-3.60218e-08
-4.51697e-09
-3.93658e-08
6.25854e-09
-4.24953e-08
1.77647e-08
-4.53872e-08
2.99346e-08
-4.8022e-08
4.2698e-08
-5.03839e-08
5.59825e-08
-5.24615e-08
6.9714e-08
-5.42473e-08
8.38183e-08
-5.57374e-08
9.82212e-08
-5.69321e-08
1.1285e-07
-5.78347e-08
1.27633e-07
-5.8452e-08
1.42503e-07
-5.87935e-08
1.57393e-07
-5.88715e-08
1.72243e-07
-5.87001e-08
1.86995e-07
-5.82956e-08
2.01594e-07
-5.76755e-08
2.15993e-07
-5.68584e-08
2.30147e-07
-5.58637e-08
2.44017e-07
-5.4711e-08
2.57568e-07
-5.34201e-08
2.7077e-07
-5.20105e-08
2.83599e-07
-5.0501e-08
2.96033e-07
-4.89099e-08
3.08055e-07
-4.72545e-08
3.19655e-07
-4.5551e-08
3.30821e-07
-4.38143e-08
3.4155e-07
-4.20583e-08
3.51838e-07
-4.02953e-08
3.61687e-07
-3.85365e-08
3.71099e-07
-3.67917e-08
3.8008e-07
-3.50694e-08
3.88635e-07
-3.33768e-08
3.96774e-07
-3.17203e-08
4.04506e-07
-3.01048e-08
4.11843e-07
-2.85345e-08
4.18795e-07
-2.70126e-08
4.25376e-07
-2.55415e-08
4.31598e-07
-2.4123e-08
4.37474e-07
-2.27581e-08
4.43017e-07
-2.14474e-08
4.4824e-07
-2.0191e-08
4.53158e-07
-1.89886e-08
4.57783e-07
-1.78395e-08
4.62127e-07
-1.67429e-08
4.66204e-07
-1.56975e-08
4.70026e-07
-1.47022e-08
4.73605e-07
-1.37554e-08
4.76953e-07
-1.28555e-08
4.80081e-07
-1.2001e-08
4.83e-07
-1.11903e-08
4.85721e-07
-1.04214e-08
4.88253e-07
-9.69285e-09
4.90607e-07
-9.00282e-09
4.92791e-07
-8.34962e-09
4.94815e-07
-7.7316e-09
4.96688e-07
-7.14709e-09
4.98416e-07
-6.59454e-09
5.00009e-07
-6.07235e-09
5.01473e-07
-5.57904e-09
5.02815e-07
-5.11317e-09
5.04043e-07
-4.67331e-09
5.05162e-07
-4.25817e-09
5.06179e-07
-3.86643e-09
5.07099e-07
-3.49691e-09
5.07928e-07
-3.14844e-09
5.08671e-07
-2.81992e-09
5.09333e-07
-2.51032e-09
5.09919e-07
-2.21861e-09
5.10432e-07
-1.94383e-09
5.10878e-07
-1.68502e-09
5.1126e-07
-1.44127e-09
5.11581e-07
-1.21165e-09
5.11846e-07
-9.95296e-10
5.12057e-07
-7.9137e-10
5.12218e-07
-5.99072e-10
5.12331e-07
-4.17625e-10
5.12401e-07
-2.46323e-10
5.12428e-07
-8.43896e-11
5.12418e-07
6.89442e-11
5.12371e-07
2.14161e-10
5.12289e-07
3.51447e-10
5.12175e-07
4.80918e-10
5.1203e-07
6.02793e-10
5.11855e-07
7.17355e-10
5.11652e-07
8.24974e-10
5.11423e-07
9.26041e-10
5.11168e-07
1.02097e-09
5.1089e-07
1.11021e-09
5.1059e-07
1.19414e-09
5.10268e-07
1.27316e-09
5.09926e-07
1.34765e-09
5.09566e-07
1.41794e-09
5.09188e-07
1.48436e-09
5.08793e-07
1.5472e-09
5.08383e-07
1.60674e-09
5.07957e-07
1.66324e-09
5.07518e-07
1.71691e-09
5.07064e-07
1.76802e-09
5.06598e-07
1.81672e-09