/*--------------------------------*- C++ -*----------------------------------*\
  =========                 |
  \\      /  F ield         | OpenFOAM: The Open Source CFD Toolbox
   \\    /   O peration     | Website:  https://openfoam.org
    \\  /    A nd           | Version:  6
     \\/     M anipulation  |
\*---------------------------------------------------------------------------*/
FoamFile
{
    version     2.0;
    format      ascii;
    class       volVectorField;
    location    "0.03";
    object      U;
}
// * * * * * * * * * * * * * * * * * * * * * * * * * * * * * * * * * * * * * //

dimensions      [0 1 -1 0 0 0 0];

internalField   nonuniform List<vector> 
12225
(
(0.94883 -0.405164 0)
(1.01297 -0.190236 0)
(1.01555 -0.0512914 0)
(0.985146 -0.00527421 0)
(0.958528 0.00424458 0)
(0.942018 0.00383649 0)
(0.932211 0.00207146 0)
(0.92653 0.000832377 0)
(0.923685 0.000123971 0)
(0.922899 -0.000287565 0)
(0.923378 -0.00056418 0)
(0.925127 -0.000829793 0)
(0.928312 -0.0011563 0)
(0.933266 -0.00158542 0)
(0.940407 -0.00224994 0)
(0.951453 -0.00312819 0)
(0.967085 -0.00602839 0)
(1.00241 -0.00889478 0)
(1.03689 0.0760899 0)
(1.02003 0.0531613 0)
(1.01181 0.0191031 0)
(1.00555 0.00859091 0)
(1.00031 0.00612696 0)
(0.995056 0.00447933 0)
(0.989822 0.00297958 0)
(0.985686 0.00183241 0)
(0.983212 0.000949729 0)
(0.982349 0.000209143 0)
(0.983133 -0.000480812 0)
(0.985409 -0.00122633 0)
(0.989192 -0.00212105 0)
(0.994705 -0.00327457 0)
(1.00233 -0.00494236 0)
(1.01319 -0.00754051 0)
(1.02795 -0.0132607 0)
(1.04927 -0.0251648 0)
(0.998313 0.0130153 0)
(0.995522 0.0116361 0)
(1.00145 0.00596905 0)
(1.00334 0.0058818 0)
(1.00379 0.00610964 0)
(1.00339 0.00509476 0)
(1.00202 0.00364699 0)
(1.0006 0.00230716 0)
(0.99994 0.00111487 0)
(1.0003 -1.25012e-05 0)
(1.00182 -0.00114957 0)
(1.00459 -0.00238988 0)
(1.00873 -0.00386312 0)
(1.01445 -0.00575148 0)
(1.02208 -0.00841513 0)
(1.03228 -0.012492 0)
(1.04512 -0.019965 0)
(1.06072 -0.0332292 0)
(0.99512 -0.00702072 0)
(0.992712 0.000976612 0)
(0.999321 0.00338666 0)
(1.00236 0.00506509 0)
(1.00431 0.00576585 0)
(1.00583 0.00506157 0)
(1.00647 0.00373774 0)
(1.00678 0.00232813 0)
(1.00743 0.000926017 0)
(1.00875 -0.000510434 0)
(1.01093 -0.0020411 0)
(1.01414 -0.00376035 0)
(1.01853 -0.0058204 0)
(1.02433 -0.00845037 0)
(1.03177 -0.0120662 0)
(1.0412 -0.0173571 0)
(1.05241 -0.0258943 0)
(1.06476 -0.0392071 0)
(0.996686 -0.00700434 0)
(0.994072 0.000470867 0)
(0.99883 0.00301899 0)
(1.00168 0.00437664 0)
(1.00414 0.00507915 0)
(1.00653 0.00457412 0)
(1.00829 0.00338515 0)
(1.00972 0.00196015 0)
(1.01131 0.00040653 0)
(1.01337 -0.00129052 0)
(1.01608 -0.0031798 0)
(1.01964 -0.00535694 0)
(1.02422 -0.00798681 0)
(1.03 -0.0113234 0)
(1.03712 -0.0157931 0)
(1.04573 -0.0220442 0)
(1.05549 -0.0312444 0)
(1.06554 -0.044365 0)
(0.997843 -0.00425367 0)
(0.995426 0.000802148 0)
(0.99869 0.0025411 0)
(1.00125 0.00356786 0)
(1.00385 0.00419157 0)
(1.00661 0.00378876 0)
(1.00898 0.00269334 0)
(1.01112 0.00125729 0)
(1.01337 -0.000421113 0)
(1.01596 -0.00234551 0)
(1.01907 -0.00456038 0)
(1.02289 -0.00716311 0)
(1.02755 -0.0103233 0)
(1.0332 -0.0142999 0)
(1.03991 -0.0194961 0)
(1.04769 -0.0264743 0)
(1.05612 -0.0360687 0)
(1.0644 -0.04889 0)
(0.998468 -0.00272244 0)
(0.9965 0.000573567 0)
(0.998804 0.00188522 0)
(1.00107 0.0027172 0)
(1.00362 0.00321002 0)
(1.00647 0.00282148 0)
(1.00915 0.0017614 0)
(1.01171 0.000292071 0)
(1.01437 -0.00150809 0)
(1.01732 -0.00364287 0)
(1.0207 -0.0061579 0)
(1.02465 -0.0091522 0)
(1.0293 -0.0127935 0)
(1.03473 -0.0173301 0)
(1.04096 -0.0231209 0)
(1.04789 -0.030626 0)
(1.05512 -0.0404208 0)
(1.06196 -0.0528755 0)
(0.998905 -0.00193007 0)
(0.997423 0.000244209 0)
(0.999102 0.00126697 0)
(1.00109 0.00188902 0)
(1.00349 0.00219195 0)
(1.00627 0.00174397 0)
(1.00906 0.000661546 0)
(1.01183 -0.000872374 0)
(1.01473 -0.00280322 0)
(1.01788 -0.00514121 0)
(1.02139 -0.00793607 0)
(1.02537 -0.0112872 0)
(1.0299 -0.0153544 0)
(1.03502 -0.0203644 0)
(1.0407 -0.0266209 0)
(1.04679 -0.0344817 0)
(1.05292 -0.0443288 0)
(1.05855 -0.0563757 0)
(0.999256 -0.00136952 0)
(0.998216 8.60798e-06 0)
(0.99948 0.000726294 0)
(1.00122 0.00109568 0)
(1.00343 0.00116751 0)
(1.00607 0.000602888 0)
(1.00883 -0.00055278 0)
(1.01167 -0.00218317 0)
(1.01466 -0.00425757 0)
(1.01787 -0.00679542 0)
(1.02139 -0.0098511 0)
(1.02529 -0.013522 0)
(1.0296 -0.0179554 0)
(1.03434 -0.0233489 0)
(1.03943 -0.0299479 0)
(1.04469 -0.0380172 0)
(1.04981 -0.047799 0)
(1.05437 -0.0594059 0)
(0.999526 -0.00094104 0)
(0.998865 -0.000166199 0)
(0.999865 0.000234874 0)
(1.00141 0.000334176 0)
(1.00343 0.000154587 0)
(1.00588 -0.000568007 0)
(1.00854 -0.00183818 0)
(1.01133 -0.0035926 0)
(1.01429 -0.00582219 0)
(1.01746 -0.00855581 0)
(1.02088 -0.0118514 0)
(1.0246 -0.0158017 0)
(1.02861 -0.0205374 0)
(1.03289 -0.0262235 0)
(1.03735 -0.0330495 0)
(1.04181 -0.041201 0)
(1.046 -0.0508209 0)
(1.0496 -0.0619571 0)
(0.999716 -0.000650551 0)
(0.999367 -0.000334647 0)
(1.00021 -0.000235814 0)
(1.00159 -0.000404079 0)
(1.00343 -0.000840429 0)
(1.00569 -0.0017482 0)
(1.00819 -0.00316332 0)
(1.01085 -0.00506247 0)
(1.0137 -0.00745469 0)
(1.01673 -0.0103767 0)
(1.01996 -0.0138878 0)
(1.0234 -0.0180734 0)
(1.02704 -0.0230454 0)
(1.03082 -0.0289352 0)
(1.03463 -0.0358819 0)
(1.03832 -0.0440065 0)
(1.04163 -0.0533829 0)
(1.04436 -0.064017 0)
(0.999832 -0.000490861 0)
(0.999701 -0.000501217 0)
(1.00046 -0.000659741 0)
(1.00173 -0.00106275 0)
(1.00341 -0.00172917 0)
(1.00548 -0.00281898 0)
(1.0078 -0.00438347 0)
(1.01031 -0.00642555 0)
(1.01298 -0.00896711 0)
(1.01581 -0.0120497 0)
(1.0188 -0.0157317 0)
(1.02193 -0.0200898 0)
(1.02517 -0.0252173 0)
(1.02845 -0.0312166 0)
(1.03167 -0.0381866 0)
(1.03466 -0.0462021 0)
(1.03724 -0.0552935 0)
(1.03925 -0.065439 0)
(0.999912 -0.000412212 0)
(0.999943 -0.000684701 0)
(1.00065 -0.00108104 0)
(1.00181 -0.00170549 0)
(1.00335 -0.00259072 0)
(1.00524 -0.0038634 0)
(1.00737 -0.00558181 0)
(1.00967 -0.0077672 0)
(1.01213 -0.0104508 0)
(1.01472 -0.0136769 0)
(1.01742 -0.0175008 0)
(1.02019 -0.0219895 0)
(1.023 -0.0272179 0)
(1.02577 -0.0332618 0)
(1.02839 -0.0401862 0)
(1.03073 -0.0480298 0)
(1.03263 -0.0567925 0)
(1.03397 -0.0664366 0)
(0.999968 -0.000390656 0)
(1.00012 -0.000915156 0)
(1.00078 -0.00155663 0)
(1.00183 -0.00241535 0)
(1.00322 -0.00353337 0)
(1.00489 -0.00500805 0)
(1.00678 -0.00689958 0)
(1.00883 -0.00924185 0)
(1.01099 -0.0120721 0)
(1.01325 -0.0154349 0)
(1.01557 -0.0193804 0)
(1.01789 -0.0239631 0)
(1.02018 -0.0292387 0)
(1.02235 -0.0352567 0)
(1.02431 -0.0420511 0)
(1.02595 -0.0496303 0)
(1.02713 -0.057971 0)
(1.02778 -0.0670276 0)
(1 -0.000425518 0)
(1.00022 -0.00119929 0)
(1.00082 -0.00209013 0)
(1.00175 -0.00318836 0)
(1.00295 -0.00454226 0)
(1.00438 -0.00622595 0)
(1.00599 -0.00829684 0)
(1.00771 -0.0107952 0)
(1.00951 -0.0137604 0)
(1.01135 -0.0172341 0)
(1.01319 -0.0212585 0)
(1.01497 -0.0258747 0)
(1.01665 -0.0311189 0)
(1.01815 -0.0370163 0)
(1.01939 -0.0435753 0)
(1.02028 -0.0507814 0)
(1.02073 -0.0585956 0)
(1.02068 -0.0669698 0)
(1.00002 -0.000503658 0)
(1.00025 -0.00152435 0)
(1.00077 -0.00266296 0)
(1.00155 -0.00399547 0)
(1.00253 -0.00557273 0)
(1.00368 -0.00745284 0)
(1.00494 -0.00968698 0)
(1.00627 -0.012316 0)
(1.00762 -0.0153774 0)
(1.00895 -0.0189069 0)
(1.01023 -0.0229375 0)
(1.01139 -0.0274962 0)
(1.01238 -0.0326017 0)
(1.01315 -0.0382596 0)
(1.01363 -0.0444596 0)
(1.01376 -0.0511723 0)
(1.01347 -0.0583512 0)
(1.01274 -0.0659496 0)
(1.00002 -0.000604152 0)
(1.00021 -0.00186016 0)
(1.00062 -0.00323018 0)
(1.0012 -0.00477488 0)
(1.00192 -0.00654222 0)
(1.00274 -0.00857929 0)
(1.0036 -0.0109294 0)
(1.00447 -0.0136295 0)
(1.00531 -0.0167122 0)
(1.00606 -0.0202062 0)
(1.0067 -0.0241345 0)
(1.00717 -0.0285125 0)
(1.00744 -0.033345 0)
(1.00745 -0.0386245 0)
(1.00717 -0.0443296 0)
(1.00654 -0.0504241 0)
(1.00555 -0.056861 0)
(1.00417 -0.063598 0)
(1.00001 -0.000699191 0)
(1.00014 -0.00215303 0)
(1.00039 -0.00371115 0)
(1.00074 -0.00541812 0)
(1.00115 -0.00731298 0)
(1.00159 -0.00943306 0)
(1.00201 -0.011813 0)
(1.00238 -0.0144836 0)
(1.00265 -0.0174714 0)
(1.00278 -0.0207985 0)
(1.00275 -0.0244803 0)
(1.00252 -0.0285241 0)
(1.00205 -0.0329271 0)
(1.00133 -0.0376754 0)
(1.00031 -0.0427439 0)
(0.998991 -0.0480967 0)
(0.99735 -0.0536912 0)
(0.995384 -0.0594915 0)
(1 -0.000755122 0)
(1.00003 -0.00232388 0)
(1.00009 -0.00398627 0)
(1.00018 -0.00576445 0)
(1.00026 -0.00768265 0)
(1.0003 -0.00976765 0)
(1.00027 -0.0120449 0)
(1.00013 -0.0145383 0)
(0.999844 -0.0172701 0)
(0.999381 -0.0202585 0)
(0.998717 -0.0235159 0)
(0.997828 -0.0270472 0)
(0.996697 -0.0308485 0)
(0.99531 -0.0349067 0)
(0.993657 -0.0391992 0)
(0.991733 -0.0436953 0)
(0.989544 -0.0483596 0)
(0.987086 -0.0531636 0)
(0.999989 -0.000733144 0)
(0.999895 -0.00228973 0)
(0.999779 -0.00394865 0)
(0.999657 -0.00569411 0)
(0.999503 -0.00753487 0)
(0.999283 -0.00948709 0)
(0.99896 -0.0115651 0)
(0.998497 -0.0137871 0)
(0.99786 -0.0161741 0)
(0.99702 -0.0187454 0)
(0.995957 -0.0215153 0)
(0.994656 -0.024492 0)
(0.993107 -0.0276758 0)
(0.991305 -0.0310584 0)
(0.989251 -0.0346232 0)
(0.986947 -0.038346 0)
(0.984407 -0.0421979 0)
(0.981632 -0.0461549 0)
(0.999962 -0.00062582 0)
(0.999699 -0.00210599 0)
(0.999419 -0.00374619 0)
(0.999165 -0.00544995 0)
(0.998891 -0.00721591 0)
(0.998556 -0.00904734 0)
(0.998116 -0.0109427 0)
(0.99752 -0.0129167 0)
(0.996725 -0.0149939 0)
(0.995703 -0.0171977 0)
(0.994437 -0.0195473 0)
(0.992915 -0.022056 0)
(0.991133 -0.0247299 0)
(0.989093 -0.0275663 0)
(0.9868 -0.0305537 0)
(0.984264 -0.0336732 0)
(0.981504 -0.0369004 0)
(0.978522 -0.0402141 0)
(0.99989 -0.000387603 0)
(0.99933 -0.00177924 0)
(0.998889 -0.0034474 0)
(0.998584 -0.00514351 0)
(0.998299 -0.00687318 0)
(0.997979 -0.00861316 0)
(0.997557 -0.0103384 0)
(0.996953 -0.0120686 0)
(0.996111 -0.0138402 0)
(0.995006 -0.0156851 0)
(0.993623 -0.0176302 0)
(0.991956 -0.0196964 0)
(0.990008 -0.0218967 0)
(0.987787 -0.0242342 0)
(0.985305 -0.0267028 0)
(0.982576 -0.0292877 0)
(0.979623 -0.0319681 0)
(0.976452 -0.0347242 0)
(0.999741 3.01105e-05 0)
(0.998681 -0.00135538 0)
(0.998121 -0.00313821 0)
(0.997894 -0.00487815 0)
(0.997731 -0.00663289 0)
(0.997565 -0.00831507 0)
(0.997278 -0.00987148 0)
(0.996744 -0.0113482 0)
(0.995905 -0.0128061 0)
(0.994744 -0.0142904 0)
(0.993257 -0.0158381 0)
(0.99145 -0.0174792 0)
(0.989334 -0.0192336 0)
(0.986927 -0.0211095 0)
(0.984248 -0.0231047 0)
(0.981315 -0.0252074 0)
(0.978153 -0.0273991 0)
(0.974776 -0.0296602 0)
(0.999491 0.000741255 0)
(0.997649 -0.000936737 0)
(0.997122 -0.00295674 0)
(0.997163 -0.00477001 0)
(0.997274 -0.00659649 0)
(0.997391 -0.00822385 0)
(0.99731 -0.00957756 0)
(0.996854 -0.0107638 0)
(0.995984 -0.0118817 0)
(0.994714 -0.0129924 0)
(0.993063 -0.0141436 0)
(0.991054 -0.0153739 0)
(0.988712 -0.0167082 0)
(0.986066 -0.0181573 0)
(0.983141 -0.0197205 0)
(0.979962 -0.0213874 0)
(0.976553 -0.02314 0)
(0.972932 -0.0249585 0)
(0.998965 0.00238066 0)
(0.996017 -0.000347983 0)
(0.995974 -0.00295477 0)
(0.996584 -0.00491482 0)
(0.997106 -0.00682926 0)
(0.997577 -0.00834539 0)
(0.997679 -0.00941572 0)
(0.997198 -0.0102476 0)
(0.996158 -0.0109865 0)
(0.994634 -0.0117081 0)
(0.992681 -0.012468 0)
(0.990347 -0.0133091 0)
(0.987677 -0.0142565 0)
(0.984708 -0.0153198 0)
(0.98147 -0.0164966 0)
(0.977986 -0.0177753 0)
(0.974281 -0.0191377 0)
(0.970374 -0.0205628 0)
(0.997451 0.00603306 0)
(0.993255 0.00112713 0)
(0.994746 -0.00279455 0)
(0.99643 -0.00524212 0)
(0.997469 -0.00729695 0)
(0.998238 -0.00859211 0)
(0.99833 -0.0092607 0)
(0.997554 -0.00966138 0)
(0.996065 -0.00998585 0)
(0.994035 -0.0103163 0)
(0.99157 -0.0107083 0)
(0.988746 -0.0112002 0)
(0.985618 -0.0118101 0)
(0.982228 -0.0125408 0)
(0.978602 -0.0133847 0)
(0.974756 -0.0143276 0)
(0.970709 -0.0153502 0)
(0.966478 -0.016431 0)
(0.994446 0.00853006 0)
(0.989298 0.00204513 0)
(0.993607 -0.00245341 0)
(0.996944 -0.00559201 0)
(0.998565 -0.00783059 0)
(0.999357 -0.00875358 0)
(0.998956 -0.00889155 0)
(0.99736 -0.00880304 0)
(0.994959 -0.00871067 0)
(0.992059 -0.00868532 0)
(0.988813 -0.00876672 0)
(0.985304 -0.00897663 0)
(0.981586 -0.00931796 0)
(0.977683 -0.00978181 0)
(0.973603 -0.0103536 0)
(0.969348 -0.0110159 0)
(0.964922 -0.0117491 0)
(0.960335 -0.0125324 0)
(0.994521 -0.00658076 0)
(0.989346 -0.00859985 0)
(0.995014 -0.00560196 0)
(0.998989 -0.00676744 0)
(1.00058 -0.00839733 0)
(1.00049 -0.00859947 0)
(0.998506 -0.00807068 0)
(0.995131 -0.00749062 0)
(0.991111 -0.00704982 0)
(0.986864 -0.00676494 0)
(0.98253 -0.00663585 0)
(0.978146 -0.00665676 0)
(0.973716 -0.00681147 0)
(0.969223 -0.0070791 0)
(0.964637 -0.00743918 0)
(0.959934 -0.00787312 0)
(0.955098 -0.00836321 0)
(0.950123 -0.00888781 0)
(1.02644 -0.0702326 0)
(1.01692 -0.0624388 0)
(1.01142 -0.0293654 0)
(1.00759 -0.0151855 0)
(1.00407 -0.0108158 0)
(0.999234 -0.00849286 0)
(0.992783 -0.00678849 0)
(0.985751 -0.00568537 0)
(0.979026 -0.0050395 0)
(0.97284 -0.00467533 0)
(0.967095 -0.00449611 0)
(0.961649 -0.0044558 0)
(0.956388 -0.00452299 0)
(0.951213 -0.00467148 0)
(0.946042 -0.00488047 0)
(0.940813 -0.00513538 0)
(0.935492 -0.0054254 0)
(0.930062 -0.005764 0)
(0.96622 0.35002 0)
(1.02678 0.19391 0)
(1.03213 0.0676301 0)
(1.0033 0.0150065 0)
(0.974095 -0.00154729 0)
(0.95284 -0.00464517 0)
(0.937506 -0.00399382 0)
(0.925798 -0.00292596 0)
(0.91642 -0.00220491 0)
(0.908473 -0.0018263 0)
(0.901307 -0.0016692 0)
(0.894529 -0.00164479 0)
(0.88792 -0.00169929 0)
(0.881353 -0.00179986 0)
(0.874745 -0.001926 0)
(0.868049 -0.0020672 0)
(0.861231 -0.00221304 0)
(0.854299 -0.00241248 0)
(-0.006538 0.0101307 5.29971e-23)
(-0.0132272 0.011364 -3.50067e-23)
(-0.0207213 0.0108518 0)
(-0.0287579 0.00944608 0)
(-0.0358884 0.00791699 0)
(-0.042167 0.00654336 3.36594e-23)
(-0.0476861 0.00535066 0)
(-0.0524955 0.00429454 0)
(-0.0566232 0.00332513 0)
(-0.060081 0.00239994 0)
(-0.0628647 0.00148647 -1.84535e-22)
(-0.0649555 0.000563038 0)
(-0.0663262 -0.000381718 0)
(-0.0669397 -0.00134683 0)
(-0.0667792 -0.00233031 0)
(-0.0658193 -0.00333282 -5.03573e-22)
(-0.0640346 -0.00435112 0)
(-0.0614071 -0.00537798 0)
(-0.0579244 -0.0064036 0)
(-0.0535827 -0.00741688 0)
(-0.0483859 -0.00840552 0)
(-0.0423463 -0.00935662 0)
(-0.0354869 -0.0102564 0)
(-0.0278354 -0.0110911 -1.35367e-21)
(-0.0194292 -0.0118487 1.48688e-21)
(-0.0103087 -0.012518 -1.60444e-21)
(-0.00051272 -0.0130942 -1.69728e-21)
(0.00990594 -0.0135822 0)
(0.0208875 -0.0139843 0)
(0.0323683 -0.0143015 1.9364e-21)
(0.0442831 -0.0145356 2.00472e-21)
(0.0565652 -0.014689 0)
(0.0691477 -0.0147648 0)
(0.0819639 -0.0147669 2.17367e-21)
(0.0949482 -0.0146998 0)
(0.108037 -0.0145686 0)
(0.121169 -0.0143786 -2.29009e-21)
(0.134287 -0.0141357 0)
(0.147335 -0.0138456 -2.3412e-21)
(0.160264 -0.0135144 -4.71932e-21)
(0.173026 -0.0131479 0)
(0.185581 -0.0127519 0)
(0.197891 -0.0123318 0)
(0.209923 -0.011893 0)
(0.22165 -0.0114404 0)
(0.233048 -0.0109785 -4.78312e-21)
(0.244098 -0.0105114 -4.77339e-21)
(0.254785 -0.010043 -4.7594e-21)
(0.265096 -0.00957658 0)
(0.275025 -0.00911503 4.72067e-21)
(0.284566 -0.0086609 0)
(0.293719 -0.00821635 -4.67061e-21)
(0.302482 -0.00778316 -4.64233e-21)
(0.310861 -0.00736278 0)
(0.318859 -0.00695637 0)
(0.326484 -0.00656478 0)
(0.333743 -0.00618865 -4.51498e-21)
(0.340647 -0.00582836 0)
(0.347205 -0.00548414 0)
(0.353429 -0.00515601 0)
(0.359329 -0.00484389 0)
(0.364919 -0.00454756 0)
(0.37021 -0.0042667 0)
(0.375214 -0.00400093 0)
(0.379944 -0.00374978 0)
(0.384413 -0.00351277 4.20229e-21)
(0.388632 -0.00328935 0)
(0.392613 -0.00307897 0)
(0.396367 -0.00288105 -4.10165e-21)
(0.399907 -0.00269502 -4.06903e-21)
(0.403242 -0.00252029 0)
(0.406384 -0.00235629 4.00531e-21)
(0.409343 -0.00220247 -3.97425e-21)
(0.412128 -0.00205826 0)
(0.414749 -0.00192313 3.91377e-21)
(0.417215 -0.00179658 0)
(0.419533 -0.0016781 0)
(0.421714 -0.00156722 -3.82714e-21)
(0.423763 -0.00146348 0)
(0.425689 -0.00136646 3.77206e-21)
(0.427499 -0.00127575 0)
(0.429199 -0.00119096 -3.71905e-21)
(0.430795 -0.00111171 -3.69328e-21)
(0.432294 -0.00103768 -3.668e-21)
(0.433702 -0.000968524 -7.28635e-21)
(0.435022 -0.000903943 7.23761e-21)
(0.436262 -0.000843646 0)
(0.437425 -0.000787359 0)
(0.438516 -0.000734821 0)
(0.439539 -0.000685786 7.0511e-21)
(0.440499 -0.00064003 7.00645e-21)
(0.441399 -0.000597346 -6.96253e-21)
(0.442242 -0.000557551 0)
(0.443033 -0.000520473 6.87674e-21)
(0.443775 -0.000485944 6.83482e-21)
(0.44447 -0.000453791 6.79351e-21)
(0.445122 -0.000423834 0)
(0.445733 -0.000395869 0)
(0.446305 -0.000369625 0)
(0.446841 -0.000344833 6.63387e-21)
(0.447342 -0.000320265 0)
(0.447806 -0.000293618 0)
(0.448228 -0.000265818 -6.51944e-21)
(0.448615 -0.000240578 0)
(0.448972 -0.000219517 0)
(0.449302 -0.000202152 -6.4088e-21)
(0.449609 -0.000187551 0)
(0.449895 -0.00017499 0)
(0.450163 -0.000163952 6.3016e-21)
(0.450413 -0.00015408 6.26655e-21)
(0.450649 -0.000145138 0)
(0.45087 -0.000136972 -6.19742e-21)
(0.451077 -0.000129476 0)
(0.451273 -0.000122577 6.12949e-21)
(0.451458 -0.000116217 0)
(0.451632 -0.00011035 6.06268e-21)
(0.451797 -0.000104935 6.02967e-21)
(0.451953 -9.99392e-05 0)
(0.452101 -9.53293e-05 0)
(0.452241 -9.10767e-05 0)
(0.452374 -8.71539e-05 0)
(0.452501 -8.35352e-05 0)
(0.452621 -8.01966e-05 0)
(0.452736 -7.71164e-05 0)
(0.452846 -7.42751e-05 5.77394e-21)
(0.452952 -7.16559e-05 -5.74289e-21)
(0.453053 -6.92444e-05 0)
(0.45315 -6.70284e-05 0)
(0.453243 -6.49972e-05 0)
(0.453333 -6.31404e-05 0)
(0.45342 -6.14466e-05 -1.11805e-20)
(0.453504 -5.99031e-05 0)
(0.453585 -5.84948e-05 1.10609e-20)
(0.453664 -5.7205e-05 -1.10015e-20)
(0.453741 -5.60153e-05 0)
(0.453816 -5.49072e-05 0)
(0.453889 -5.38625e-05 0)
(0.453961 -5.28638e-05 1.07675e-20)
(0.454031 -5.18963e-05 1.07098e-20)
(0.454099 -5.09473e-05 0)
(0.454165 -5.00077e-05 1.05953e-20)
(0.45423 -4.90711e-05 1.05386e-20)
(0.454294 -4.81349e-05 -1.04821e-20)
(0.454356 -4.71994e-05 0)
(0.454416 -4.62667e-05 0)
(0.454475 -4.53388e-05 -1.03145e-20)
(0.454532 -4.44173e-05 0)
(0.454588 -4.35015e-05 0)
(0.454641 -4.2589e-05 0)
(0.454694 -4.1675e-05 0)
(0.454744 -4.07523e-05 1.00403e-20)
(0.454793 -3.98108e-05 9.98621e-21)
(0.454839 -3.88377e-05 0)
(0.454884 -3.78164e-05 9.87877e-21)
(0.454926 -3.67256e-05 0)
(0.454966 -3.55375e-05 0)
(0.455003 -3.42164e-05 9.71958e-21)
(0.455037 -3.27166e-05 0)
(0.455067 -3.09792e-05 9.61489e-21)
(0.455092 -2.89284e-05 0)
(0.455111 -2.64657e-05 0)
(0.455123 -2.34636e-05 9.46039e-21)
(0.455126 -1.97546e-05 0)
(0.455119 -1.51176e-05 9.35953e-21)
(0.455097 -9.25764e-06 0)
(0.455056 -1.77761e-06 0)
(0.454992 7.86437e-06 0)
(0.454896 2.0419e-05 -9.16581e-21)
(0.454759 3.69454e-05 0)
(0.454566 5.89734e-05 9.07572e-21)
(0.454298 8.87819e-05 0)
(0.453926 0.000129886 0)
(0.453407 0.000188048 0)
(0.452674 0.000273061 0)
(0.451621 0.000404291 0)
(0.450025 0.000617672 0)
(0.44759 0.00101785 0)
(0.443018 0.00176859 -1.78979e-20)
(0.436304 0.00378992 0)
(0.4141 0.00719682 0)
(-0.00642329 0.0276335 -1.33475e-22)
(-0.0120433 0.0261344 6.79172e-23)
(-0.0174936 0.0244528 0)
(-0.0233042 0.0224153 -1.066e-23)
(-0.028919 0.0201777 0)
(-0.034238 0.0179366 -1.8729e-23)
(-0.0392106 0.0157627 4.08196e-23)
(-0.0437689 0.0136546 6.26912e-23)
(-0.0478438 0.0115834 0)
(-0.0513729 0.00951503 1.23486e-22)
(-0.0543008 0.00741969 9.3342e-23)
(-0.0565772 0.0052764 0)
(-0.0581567 0.00307494 0)
(-0.0590023 0.000814687 0)
(-0.059067 -0.00149781 0)
(-0.0583135 -0.00385215 2.44325e-22)
(-0.0567143 -0.00623366 0)
(-0.0542497 -0.00862391 -5.90874e-22)
(-0.0509078 -0.0110019 0)
(-0.0466848 -0.0133453 0)
(-0.0415851 -0.0156311 8.55107e-22)
(-0.0356209 -0.0178367 0)
(-0.028812 -0.0199402 -1.05604e-21)
(-0.0211862 -0.0219209 6.27111e-22)
(-0.0127785 -0.0237596 -6.82502e-22)
(-0.00363314 -0.0254382 7.34273e-22)
(0.00619543 -0.0269446 7.83937e-22)
(0.0166519 -0.0282716 0)
(0.0276813 -0.0294147 0)
(0.0392248 -0.0303715 -9.27322e-22)
(0.05122 -0.0311419 8.64728e-22)
(0.0636023 -0.0317279 0)
(0.0763065 -0.0321339 0)
(0.0892673 -0.032366 -1.0967e-21)
(0.10242 -0.0324323 0)
(0.115702 -0.0323423 0)
(0.129053 -0.0321067 1.20191e-21)
(0.142414 -0.0317373 0)
(0.155731 -0.0312465 -1.16258e-21)
(0.168952 -0.0306471 2.57287e-21)
(0.182031 -0.0299523 0)
(0.194925 -0.029175 0)
(0.207594 -0.028328 5.23027e-21)
(0.220005 -0.0274237 5.30536e-21)
(0.232128 -0.0264739 5.37256e-21)
(0.243936 -0.0254896 -2.64025e-21)
(0.255409 -0.0244812 2.81475e-21)
(0.266529 -0.0234582 8.36439e-21)
(0.277282 -0.0224291 -5.5694e-21)
(0.287659 -0.0214015 -2.86356e-21)
(0.297653 -0.0203823 0)
(0.307259 -0.0193774 2.88197e-21)
(0.316477 -0.0183916 -2.78185e-21)
(0.325308 -0.0174293 0)
(0.333756 -0.0164939 0)
(0.341824 -0.0155882 0)
(0.349522 -0.0147142 2.89045e-21)
(0.356856 -0.0138736 0)
(0.363835 -0.0130674 -5.6916e-21)
(0.370471 -0.0122962 0)
(0.376773 -0.0115602 -5.67569e-21)
(0.382753 -0.0108594 0)
(0.388422 -0.0101934 5.65178e-21)
(0.393793 -0.00956159 0)
(0.398878 -0.00896318 -5.62163e-21)
(0.403688 -0.00839726 2.77897e-21)
(0.408235 -0.00786279 0)
(0.412532 -0.00735863 5.5678e-21)
(0.416589 -0.00688361 2.79316e-21)
(0.420419 -0.00643648 2.78176e-21)
(0.424031 -0.006016 0)
(0.427438 -0.00562092 2.72734e-21)
(0.430649 -0.00524997 2.74656e-21)
(0.433674 -0.00490194 0)
(0.436523 -0.00457562 -2.72265e-21)
(0.439205 -0.00426982 5.39773e-21)
(0.441729 -0.00398341 0)
(0.444103 -0.00371529 2.68662e-21)
(0.446337 -0.00346441 0)
(0.448436 -0.00322976 -7.97043e-21)
(0.450409 -0.00301037 0)
(0.452264 -0.00280533 7.90175e-21)
(0.454005 -0.00261377 2.62732e-21)
(0.455641 -0.00243485 -2.60228e-21)
(0.457176 -0.00226781 -5.18325e-21)
(0.458618 -0.00211191 5.16198e-21)
(0.45997 -0.00196644 0)
(0.461239 -0.00183076 0)
(0.462428 -0.00170424 0)
(0.463544 -0.00158631 -1.52675e-20)
(0.46459 -0.00147644 -5.07285e-21)
(0.465571 -0.00137412 5.0509e-21)
(0.46649 -0.00127889 0)
(0.467351 -0.00119031 4.99442e-21)
(0.468159 -0.00110794 -4.986e-21)
(0.468915 -0.00103133 -4.96465e-21)
(0.469624 -0.000960049 0)
(0.470288 -0.000893623 0)
(0.47091 -0.000831532 0)
(0.471493 -0.000773194 -4.88057e-21)
(0.472039 -0.000717292 0)
(0.472554 -0.000662462 9.67106e-21)
(0.473044 -0.000609843 1.44488e-20)
(0.473506 -0.000561685 -9.58946e-21)
(0.473939 -0.000518577 0)
(0.474345 -0.000479988 -4.75143e-21)
(0.474724 -0.000445285 0)
(0.475078 -0.000413955 -9.42811e-21)
(0.475409 -0.000385557 4.69176e-21)
(0.475718 -0.000359719 4.67196e-21)
(0.476008 -0.000336137 0)
(0.476279 -0.000314565 1.39049e-20)
(0.476533 -0.0002948 -9.22907e-21)
(0.476772 -0.000276666 -4.59642e-21)
(0.476996 -0.000260016 0)
(0.477207 -0.000244718 -4.55685e-21)
(0.477406 -0.000230657 -1.36087e-20)
(0.477594 -0.000217729 0)
(0.477771 -0.000205842 -8.99326e-21)
(0.477938 -0.00019491 -8.9542e-21)
(0.478096 -0.000184855 -8.91519e-21)
(0.478247 -0.000175605 0)
(0.478389 -0.000167092 0)
(0.478525 -0.000159258 0)
(0.478654 -0.000152046 4.37888e-21)
(0.478777 -0.000145408 4.36118e-21)
(0.478894 -0.000139302 0)
(0.479007 -0.000133689 8.64304e-21)
(0.479115 -0.000128538 8.60426e-21)
(0.479218 -0.000123816 0)
(0.479318 -0.000119494 8.52816e-21)
(0.479414 -0.000115541 1.69762e-20)
(0.479506 -0.000111923 -8.4507e-21)
(0.479596 -0.000108608 -8.40954e-21)
(0.479683 -0.000105557 0)
(0.479767 -0.000102735 0)
(0.47985 -0.000100105 0)
(0.47993 -9.7633e-05 -8.25779e-21)
(0.480008 -9.5286e-05 8.2172e-21)
(0.480084 -9.30361e-05 1.63598e-20)
(0.480159 -9.08591e-05 -8.14263e-21)
(0.480232 -8.87359e-05 8.10235e-21)
(0.480304 -8.66524e-05 8.0661e-21)
(0.480374 -8.4599e-05 0)
(0.480443 -8.25696e-05 0)
(0.48051 -8.05598e-05 -7.94978e-21)
(0.480576 -7.85659e-05 0)
(0.48064 -7.65824e-05 0)
(0.480703 -7.46021e-05 1.5673e-20)
(0.480764 -7.26144e-05 0)
(0.480824 -7.06046e-05 7.75966e-21)
(0.480882 -6.85524e-05 -7.72329e-21)
(0.480938 -6.64315e-05 0)
(0.480992 -6.42078e-05 7.64593e-21)
(0.481045 -6.18373e-05 0)
(0.481095 -5.92631e-05 0)
(0.481143 -5.64119e-05 -7.53403e-21)
(0.481188 -5.31897e-05 1.49914e-20)
(0.48123 -4.94756e-05 -7.4588e-21)
(0.481267 -4.51131e-05 0)
(0.4813 -3.98999e-05 0)
(0.481327 -3.35723e-05 7.34573e-21)
(0.481347 -2.57852e-05 0)
(0.481357 -1.60828e-05 7.27225e-21)
(0.481355 -3.85772e-06 0)
(0.481338 1.1707e-05 0)
(0.481302 3.17245e-05 0)
(0.48124 5.77333e-05 7.13066e-21)
(0.481144 9.19001e-05 0)
(0.481003 0.000137345 -7.06388e-21)
(0.480801 0.000198698 0)
(0.480518 0.000283073 0)
(0.480122 0.000402012 1.3955e-20)
(0.479565 0.000575083 -1.39106e-20)
(0.478781 0.000839706 0)
(0.477641 0.00126675 0)
(0.476021 0.0020401 0)
(0.473364 0.00348255 4.18213e-20)
(0.470162 0.00699381 0)
(0.463017 0.0134763 -2.86622e-20)
(-0.00406628 0.0411533 8.47371e-23)
(-0.00916886 0.0377972 -1.31179e-23)
(-0.0141005 0.0352489 0)
(-0.0193702 0.032817 -2.62904e-23)
(-0.0246228 0.0302806 0)
(-0.0297327 0.0276233 0)
(-0.0346225 0.0248534 -3.56018e-23)
(-0.0392008 0.0219679 -4.54366e-23)
(-0.0433716 0.0189567 -3.022e-23)
(-0.0470462 0.015809 -8.77579e-23)
(-0.0501456 0.0125183 0)
(-0.0526002 0.00908468 0)
(-0.0543493 0.00551545 1.41671e-22)
(-0.0553405 0.0018249 3.55995e-22)
(-0.05553 -0.00196587 -4.35092e-22)
(-0.0548825 -0.00583035 0)
(-0.0533711 -0.0097369 -6.13591e-22)
(-0.0509773 -0.0136508 4.03061e-22)
(-0.0476907 -0.0175359 0)
(-0.0435096 -0.0213552 -9.31404e-22)
(-0.0384404 -0.0250727 -5.78034e-22)
(-0.0324976 -0.0286535 1.1751e-21)
(-0.0257035 -0.0320654 7.10062e-22)
(-0.0180875 -0.0352791 0)
(-0.00968729 -0.0382692 -1.57716e-21)
(-0.000545946 -0.0410125 -1.70824e-21)
(0.00928533 -0.0434913 0)
(0.0197523 -0.0456903 -1.97163e-21)
(0.0307976 -0.047599 0)
(0.0423606 -0.0492117 -2.23319e-21)
(0.0543784 -0.0505266 -1.24555e-21)
(0.0667866 -0.0515462 0)
(0.0795202 -0.0522762 0)
(0.0925143 -0.0527256 0)
(0.105705 -0.0529064 0)
(0.11903 -0.052833 0)
(0.132428 -0.0525219 0)
(0.145843 -0.051991 -3.17069e-21)
(0.15922 -0.0512597 4.96168e-21)
(0.172508 -0.0503481 0)
(0.18566 -0.0492766 0)
(0.198634 -0.048066 0)
(0.211389 -0.0467364 -1.03979e-22)
(0.223893 -0.0453077 -3.78156e-21)
(0.236114 -0.043799 -7.59232e-21)
(0.248027 -0.0422281 7.71153e-21)
(0.259609 -0.040612 3.86571e-21)
(0.270844 -0.0389661 -4.00266e-21)
(0.281716 -0.0373048 8.1678e-23)
(0.292215 -0.0356407 -4.00628e-21)
(0.302334 -0.0339852 0)
(0.312068 -0.0323484 -4.07794e-21)
(0.321416 -0.0307386 6.72188e-23)
(0.330377 -0.0291633 0)
(0.338956 -0.0276285 0)
(0.347157 -0.026139 4.17608e-21)
(0.354986 -0.0246988 0)
(0.36245 -0.0233108 0)
(0.36956 -0.021977 -4.16875e-21)
(0.376323 -0.0206989 -8.45154e-21)
(0.382752 -0.019477 4.27525e-21)
(0.388856 -0.0183116 0)
(0.394648 -0.0172022 -4.27735e-21)
(0.400138 -0.0161481 0)
(0.405339 -0.0151483 -4.20558e-21)
(0.410263 -0.0142014 -4.26911e-21)
(0.41492 -0.0133059 8.4681e-21)
(0.419324 -0.0124601 4.20161e-21)
(0.423484 -0.0116621 0)
(0.427413 -0.0109101 -8.43566e-21)
(0.431122 -0.0102021 0)
(0.43462 -0.00953604 -1.26299e-20)
(0.43792 -0.00891006 -8.38838e-21)
(0.441029 -0.00832215 -8.37011e-21)
(0.443959 -0.00777038 8.3508e-21)
(0.446718 -0.00725284 -1.25125e-20)
(0.449315 -0.00676772 0)
(0.451759 -0.00631321 0)
(0.454058 -0.00588762 8.26548e-21)
(0.45622 -0.00548929 1.23766e-20)
(0.458252 -0.00511663 0)
(0.460162 -0.00476815 -4.10879e-21)
(0.461956 -0.0044424 0)
(0.463641 -0.00413802 1.22297e-20)
(0.465223 -0.00385372 1.80466e-23)
(0.466708 -0.00358827 -1.68368e-23)
(0.468101 -0.00334051 -8.07167e-21)
(0.469408 -0.00310936 0)
(0.470633 -0.0028938 8.02067e-21)
(0.471782 -0.00269287 1.27292e-23)
(0.472859 -0.00250567 0)
(0.473869 -0.00233135 0)
(0.474815 -0.00216911 0)
(0.475701 -0.00201818 -7.90054e-21)
(0.476531 -0.00187779 0)
(0.477309 -0.0017472 0)
(0.478037 -0.00162572 0)
(0.478719 -0.00151265 0)
(0.479358 -0.00140731 0)
(0.479956 -0.00130905 -7.73217e-21)
(0.480516 -0.00121726 0)
(0.481042 -0.00113119 -7.68413e-21)
(0.481536 -0.00105016 -7.65657e-21)
(0.482001 -0.000974183 7.62891e-21)
(0.482438 -0.000903635 0)
(0.482848 -0.000838623 7.57354e-21)
(0.483232 -0.000778965 0)
(0.483591 -0.000724338 7.51803e-21)
(0.483928 -0.000674351 -7.49021e-21)
(0.484243 -0.000628602 -2.23809e-20)
(0.484538 -0.000586705 0)
(0.484815 -0.000548311 -2.22142e-20)
(0.485074 -0.000513103 -7.37351e-21)
(0.485317 -0.000480798 0)
(0.485546 -0.000451143 -1.46404e-20)
(0.48576 -0.00042391 -1.45845e-20)
(0.485962 -0.000398894 2.17944e-20)
(0.486153 -0.00037591 0)
(0.486333 -0.00035479 7.20954e-21)
(0.486502 -0.000335382 7.18118e-21)
(0.486663 -0.000317544 2.14553e-20)
(0.486815 -0.000301147 0)
(0.486959 -0.000286071 0)
(0.487096 -0.000272208 0)
(0.487226 -0.000259458 7.03596e-21)
(0.487351 -0.000247733 0)
(0.487469 -0.000236955 0)
(0.487583 -0.000227052 -6.9517e-21)
(0.487691 -0.000217963 -6.92268e-21)
(0.487796 -0.000209628 0)
(0.487896 -0.000201995 0)
(0.487992 -0.000195008 -1.36704e-20)
(0.488086 -0.000188613 0)
(0.488176 -0.000182755 1.35532e-20)
(0.488263 -0.000177376 1.34929e-20)
(0.488348 -0.000172419 0)
(0.488431 -0.000167826 0)
(0.488512 -0.000163543 -1.33162e-20)
(0.48859 -0.000159517 -1.29707e-24)
(0.488667 -0.000155701 -1.25417e-24)
(0.488742 -0.000152051 0)
(0.488816 -0.000148532 -2.61601e-20)
(0.488888 -0.000145114 0)
(0.488958 -0.000141773 0)
(0.489028 -0.000138491 0)
(0.489096 -0.000135255 1.28425e-20)
(0.489162 -0.000132054 0)
(0.489227 -0.000128876 -2.54438e-20)
(0.489291 -0.000125707 -1.26629e-20)
(0.489354 -0.00012253 0)
(0.489415 -0.000119322 -1.25427e-20)
(0.489474 -0.000116052 0)
(0.489532 -0.00011268 0)
(0.489589 -0.000109152 -3.7084e-20)
(0.489643 -0.000105402 2.46013e-20)
(0.489696 -0.000101343 0)
(0.489746 -9.68631e-05 2.43597e-20)
(0.489793 -9.18185e-05 -1.21202e-20)
(0.489837 -8.60244e-05 0)
(0.489877 -7.92425e-05 0)
(0.489913 -7.1164e-05 0)
(0.489942 -6.1387e-05 -3.56367e-20)
(0.489964 -4.93859e-05 0)
(0.489977 -3.44675e-05 -1.17601e-20)
(0.489978 -1.57108e-05 0)
(0.489963 8.12082e-06 0)
(0.489929 3.87056e-05 0)
(0.489869 7.83533e-05 0)
(0.489774 0.000130297 0)
(0.489634 0.00019916 0)
(0.489434 0.000291723 -2.27366e-20)
(0.489151 0.000418268 0)
(0.488755 0.000595094 -1.12771e-20)
(0.4882 0.00084917 3.37222e-20)
(0.487424 0.00122923 0)
(0.486314 0.00182473 0)
(0.48476 0.00283854 -2.24192e-20)
(0.482413 0.00463964 -2.25244e-20)
(0.479622 0.00842713 2.27102e-20)
(0.475544 0.0155556 2.31507e-20)