/*--------------------------------*- C++ -*----------------------------------*\
  =========                 |
  \\      /  F ield         | OpenFOAM: The Open Source CFD Toolbox
   \\    /   O peration     | Website:  https://openfoam.org
    \\  /    A nd           | Version:  6
     \\/     M anipulation  |
\*---------------------------------------------------------------------------*/
FoamFile
{
    version     2.0;
    format      ascii;
    class       volScalarField;
    location    "0.01";
    object      epsilon;
}
// * * * * * * * * * * * * * * * * * * * * * * * * * * * * * * * * * * * * * //

dimensions      [0 2 -3 0 0 0 0];

internalField   nonuniform List<scalar> 
3080
(
19.4393
19.4503
19.4614
19.4726
19.4839
19.4953
19.5069
19.5185
19.5302
19.542
19.5539
19.5658
19.5778
19.5897
19.6017
19.6135
19.6251
19.6365
19.6474
19.6577
19.6671
19.6752
19.6812
19.6842
19.6822
19.6714
19.6431
19.5744
19.409
18.9944
11.434
11.4369
11.4399
11.4429
11.446
11.4491
11.4522
11.4553
11.4585
11.4617
11.4649
11.4682
11.4714
11.4747
11.4781
11.4814
11.4848
11.4881
11.4915
11.4948
11.4981
11.5013
11.5045
11.5075
11.5104
11.5131
11.516
11.5196
11.5281
11.5579
9.91054
9.91287
9.91523
9.9176
9.92
9.92242
9.92486
9.92732
9.92981
9.93232
9.93486
9.93742
9.94002
9.94264
9.94529
9.94798
9.95071
9.95348
9.9563
9.95918
9.96213
9.96519
9.96839
9.97181
9.97562
9.98014
9.9862
9.99573
10.0143
10.0563
9.16553
9.16783
9.17015
9.17249
9.17486
9.17724
9.17965
9.18208
9.18453
9.18702
9.18953
9.19207
9.19464
9.19724
9.19988
9.20257
9.2053
9.20809
9.21095
9.2139
9.21696
9.22017
9.22359
9.22734
9.2316
9.23679
9.24377
9.2545
9.27357
9.30978
8.69194
8.69411
8.6963
8.69851
8.70073
8.70298
8.70525
8.70755
8.70987
8.71222
8.71459
8.717
8.71944
8.72192
8.72443
8.72699
8.7296
8.73227
8.73501
8.73784
8.7408
8.74391
8.74725
8.75092
8.75512
8.76022
8.76699
8.77708
8.79386
8.82234
8.37383
8.37571
8.37761
8.37953
8.38147
8.38342
8.3854
8.3874
8.38943
8.39148
8.39356
8.39567
8.39781
8.39998
8.40219
8.40445
8.40675
8.4091
8.41153
8.41404
8.41666
8.41943
8.42241
8.42568
8.42943
8.43397
8.43992
8.44853
8.46212
8.48347
8.16164
8.16316
8.16469
8.16623
8.16779
8.16936
8.17096
8.17258
8.17421
8.17588
8.17756
8.17928
8.18102
8.18279
8.18459
8.18642
8.1883
8.19023
8.19222
8.19428
8.19644
8.19872
8.20118
8.20389
8.20699
8.21073
8.21559
8.22245
8.23285
8.24826
8.02422
8.02536
8.0265
8.02766
8.02882
8.03
8.0312
8.03241
8.03365
8.0349
8.03618
8.03747
8.03879
8.04013
8.0415
8.0429
8.04433
8.04581
8.04733
8.04891
8.05056
8.05232
8.05422
8.05631
8.05872
8.06161
8.06534
8.07052
8.07812
8.08888
7.93867
7.93946
7.94027
7.94107
7.94189
7.94271
7.94355
7.9444
7.94527
7.94615
7.94705
7.94797
7.94891
7.94986
7.95083
7.95183
7.95285
7.95391
7.955
7.95613
7.95733
7.9586
7.95997
7.9615
7.96325
7.96537
7.9681
7.97184
7.97717
7.98448
7.88772
7.88825
7.88878
7.8893
7.88983
7.89037
7.89092
7.89148
7.89205
7.89263
7.89323
7.89384
7.89446
7.8951
7.89575
7.89642
7.8971
7.89781
7.89855
7.89932
7.90013
7.90099
7.90194
7.90299
7.90421
7.90569
7.9076
7.9102
7.91384
7.9187
7.85876
7.85909
7.85942
7.85975
7.86007
7.8604
7.86073
7.86107
7.86143
7.86179
7.86216
7.86254
7.86293
7.86333
7.86374
7.86417
7.8646
7.86505
7.86552
7.86601
7.86653
7.86709
7.8677
7.8684
7.86921
7.87021
7.8715
7.87327
7.87571
7.8789
7.84325
7.84345
7.84363
7.84382
7.844
7.84419
7.84439
7.8446
7.84481
7.84503
7.84525
7.84548
7.84572
7.84596
7.84622
7.84648
7.84675
7.84703
7.84733
7.84765
7.84799
7.84838
7.84882
7.84935
7.85
7.85087
7.85205
7.85369
7.8558
7.83503
7.83514
7.83524
7.83534
7.83543
7.83553
7.83564
7.83575
7.83587
7.83599
7.83611
7.83624
7.83638
7.83651
7.83666
7.83681
7.83696
7.83712
7.8373
7.83749
7.83769
7.83793
7.8382
7.83854
7.83897
7.83956
7.84036
7.84147
7.8429
7.83094
7.831
7.83105
7.8311
7.83114
7.83119
7.83124
7.8313
7.83136
7.83142
7.83149
7.83156
7.83163
7.8317
7.83178
7.83186
7.83195
7.83204
7.83213
7.83224
7.83236
7.83251
7.83268
7.8329
7.83319
7.8336
7.83417
7.83495
7.83596
7.82899
7.82902
7.82905
7.82907
7.82909
7.82911
7.82913
7.82915
7.82918
7.82921
7.82924
7.82927
7.82931
7.82935
7.82939
7.82943
7.82948
7.82953
7.82958
7.82964
7.82972
7.8298
7.82992
7.83007
7.83028
7.83057
7.83099
7.83158
7.83234
7.8281
7.82811
7.82812
7.82813
7.82813
7.82814
7.82814
7.82815
7.82816
7.82817
7.82819
7.8282
7.82822
7.82824
7.82826
7.82828
7.8283
7.82833
7.82836
7.8284
7.82844
7.8285
7.82858
7.82869
7.82885
7.82908
7.82941
7.82988
7.83048
7.82772
7.82773
7.82773
7.82773
7.82772
7.82772
7.82771
7.82771
7.82771
7.82772
7.82772
7.82773
7.82773
7.82774
7.82775
7.82776
7.82777
7.82779
7.82781
7.82783
7.82786
7.8279
7.82796
7.82805
7.82818
7.82837
7.82864
7.82903
7.82953
7.82757
7.82757
7.82757
7.82756
7.82755
7.82754
7.82753
7.82753
7.82752
7.82752
7.82752
7.82752
7.82752
7.82753
7.82753
7.82753
7.82754
7.82755
7.82756
7.82758
7.8276
7.82763
7.82768
7.82776
7.82787
7.82803
7.82827
7.8286
7.82904
7.82751
7.82751
7.8275
7.8275
7.82748
7.82747
7.82746
7.82745
7.82745
7.82744
7.82744
7.82744
7.82744
7.82744
7.82744
7.82744
7.82744
7.82745
7.82745
7.82747
7.82748
7.82751
7.82755
7.82762
7.82772
7.82786
7.82808
7.82837
7.82876
7.82748
7.82748
7.82748
7.82747
7.82746
7.82744
7.82743
7.82742
7.82741
7.82741
7.8274
7.8274
7.8274
7.8274
7.8274
7.8274
7.8274
7.8274
7.82741
7.82742
7.82743
7.82746
7.82749
7.82755
7.82764
7.82778
7.82797
7.82824
7.8286
7.82747
7.82747
7.82747
7.82746
7.82744
7.82743
7.82742
7.82741
7.8274
7.82739
7.82739
7.82738
7.82738
7.82738
7.82738
7.82738
7.82738
7.82738
7.82738
7.82739
7.82741
7.82743
7.82746
7.82752
7.8276
7.82772
7.8279
7.82816
7.82849
7.82746
7.82746
7.82746
7.82745
7.82744
7.82742
7.82741
7.8274
7.82739
7.82739
7.82738
7.82738
7.82737
7.82737
7.82737
7.82737
7.82737
7.82737
7.82738
7.82738
7.82739
7.82741
7.82745
7.8275
7.82757
7.82769
7.82786
7.8281
7.82841
7.82746
7.82746
7.82745
7.82744
7.82743
7.82742
7.82741
7.8274
7.82739
7.82738
7.82738
7.82738
7.82737
7.82737
7.82737
7.82737
7.82737
7.82737
7.82737
7.82738
7.82739
7.82741
7.82744
7.82749
7.82756
7.82767
7.82783
7.82806
7.82836
7.82745
7.82746
7.82745
7.82744
7.82743
7.82742
7.8274
7.8274
7.82739
7.82738
7.82738
7.82738
7.82737
7.82737
7.82737
7.82737
7.82737
7.82737
7.82737
7.82738
7.82739
7.82741
7.82744
7.82748
7.82755
7.82766
7.82782
7.82803
7.82833
7.82745
7.82745
7.82745
7.82744
7.82743
7.82742
7.82741
7.8274
7.82739
7.82739
7.82738
7.82738
7.82738
7.82738
7.82738
7.82738
7.82738
7.82738
7.82738
7.82739
7.8274
7.82741
7.82744
7.82749
7.82756
7.82766
7.82781
7.82802
7.82831
7.82745
7.82745
7.82745
7.82744
7.82743
7.82742
7.82741
7.8274
7.8274
7.82739
7.82739
7.82739
7.82739
7.82738
7.82738
7.82738
7.82738
7.82738
7.82739
7.82739
7.8274
7.82742
7.82745
7.82749
7.82756
7.82767
7.82782
7.82803
7.82831
7.82745
7.82745
7.82745
7.82745
7.82743
7.82742
7.82741
7.82741
7.8274
7.8274
7.82739
7.82739
7.82739
7.82739
7.82739
7.82739
7.82739
7.82739
7.82739
7.8274
7.82741
7.82743
7.82746
7.8275
7.82757
7.82768
7.82783
7.82804
7.82832
7.82745
7.82745
7.82745
7.82745
7.82744
7.82743
7.82742
7.82741
7.8274
7.8274
7.8274
7.8274
7.82739
7.82739
7.82739
7.82739
7.82739
7.82739
7.8274
7.8274
7.82742
7.82743
7.82746
7.82751
7.82758
7.82769
7.82784
7.82805
7.82833
7.82745
7.82745
7.82745
7.82744
7.82743
7.82742
7.82742
7.82741
7.8274
7.8274
7.8274
7.8274
7.82739
7.82739
7.82739
7.82739
7.82739
7.82739
7.8274
7.8274
7.82742
7.82744
7.82747
7.82752
7.82759
7.8277
7.82785
7.82807
7.82835
7.82744
7.82745
7.82744
7.82744
7.82743
7.82742
7.82741
7.8274
7.8274
7.82739
7.82739
7.82739
7.82739
7.82739
7.82739
7.82739
7.82739
7.82739
7.82739
7.8274
7.82741
7.82743
7.82746
7.82751
7.82759
7.8277
7.82786
7.82808
7.82838
7.82743
7.82744
7.82744
7.82743
7.82742
7.82741
7.8274
7.82739
7.82739
7.82739
7.82738
7.82738
7.82738
7.82738
7.82738
7.82738
7.82738
7.82738
7.82738
7.82739
7.82741
7.82743
7.82746
7.82751
7.82759
7.8277
7.82787
7.8281
7.8284
7.82742
7.82743
7.82743
7.82742
7.82741
7.8274
7.82739
7.82739
7.82738
7.82738
7.82737
7.82737
7.82737
7.82737
7.82737
7.82737
7.82737
7.82737
7.82738
7.82739
7.8274
7.82742
7.82746
7.82751
7.82759
7.82771
7.82788
7.82812
7.82844
7.82742
7.82742
7.82742
7.82741
7.8274
7.82739
7.82739
7.82738
7.82738
7.82737
7.82737
7.82737
7.82737
7.82737
7.82737
7.82737
7.82737
7.82737
7.82738
7.82738
7.8274
7.82742
7.82746
7.82751
7.8276
7.82772
7.8279
7.82816
7.8285
7.82742
7.82742
7.82742
7.82741
7.8274
7.8274
7.82739
7.82738
7.82738
7.82738
7.82737
7.82737
7.82737
7.82737
7.82737
7.82738
7.82738
7.82738
7.82739
7.8274
7.82741
7.82744
7.82747
7.82753
7.82762
7.82775
7.82795
7.82822
7.82859
7.82743
7.82743
7.82743
7.82743
7.82742
7.82741
7.82741
7.8274
7.8274
7.8274
7.8274
7.8274
7.8274
7.82741
7.82741
7.82741
7.82742
7.82742
7.82743
7.82744
7.82746
7.82749
7.82753
7.82759
7.82769
7.82784
7.82805
7.82836
7.82877
7.82748
7.82748
7.82748
7.82748
7.82748
7.82747
7.82747
7.82747
7.82747
7.82747
7.82748
7.82748
7.82749
7.8275
7.82751
7.82752
7.82753
7.82754
7.82755
7.82757
7.8276
7.82764
7.82769
7.82776
7.82787
7.82804
7.82829
7.82864
7.82911
7.82759
7.82761
7.82761
7.82762
7.82762
7.82763
7.82763
7.82764
7.82765
7.82766
7.82768
7.8277
7.82771
7.82773
7.82776
7.82778
7.82781
7.82783
7.82787
7.82791
7.82795
7.82801
7.82809
7.82819
7.82833
7.82855
7.82885
7.82928
7.82986
7.82788
7.82791
7.82793
7.82795
7.82797
7.828
7.82802
7.82805
7.82809
7.82812
7.82816
7.82821
7.82826
7.82831
7.82836
7.82842
7.82848
7.82855
7.82863
7.82872
7.82881
7.82892
7.82906
7.82923
7.82945
7.82975
7.83018
7.83077
7.83155
7.82853
7.82859
7.82865
7.82871
7.82878
7.82885
7.82892
7.829
7.82909
7.82918
7.82928
7.82939
7.82951
7.82963
7.82976
7.82991
7.83006
7.83022
7.8304
7.8306
7.83081
7.83105
7.83132
7.83164
7.83204
7.83254
7.83322
7.83413
7.83531
7.82996
7.8301
7.83024
7.83039
7.83055
7.83071
7.83089
7.83109
7.83129
7.83151
7.83175
7.832
7.83227
7.83256
7.83287
7.8332
7.83355
7.83392
7.83433
7.83477
7.83524
7.83576
7.83634
7.837
7.83777
7.8387
7.8399
7.84147
7.84346
7.83312
7.83343
7.83375
7.83409
7.83445
7.83483
7.83523
7.83567
7.83613
7.83662
7.83714
7.8377
7.83829
7.83893
7.8396
7.84032
7.84109
7.84191
7.84278
7.84373
7.84474
7.84584
7.84704
7.84838
7.84991
7.8517
7.85392
7.85676
7.86033
7.84004
7.8407
7.8414
7.84213
7.8429
7.84372
7.84459
7.84551
7.84648
7.84752
7.84862
7.84979
7.85103
7.85235
7.85375
7.85523
7.85681
7.85849
7.86028
7.8622
7.86425
7.86645
7.86884
7.87146
7.87438
7.87776
7.88182
7.88694
7.89338
7.8546
7.85593
7.85733
7.8588
7.86034
7.86197
7.86369
7.86551
7.86743
7.86945
7.87159
7.87385
7.87624
7.87877
7.88143
7.88425
7.88724
7.8904
7.89375
7.89731
7.90109
7.90513
7.90947
7.91418
7.91936
7.92525
7.93224
7.94095
7.95197
7.88283
7.88525
7.88777
7.89042
7.89319
7.89609
7.89914
7.90233
7.90569
7.90921
7.91291
7.9168
7.92087
7.92515
7.92965
7.93438
7.93935
7.94457
7.95008
7.95588
7.96201
7.96851
7.97542
7.98285
7.99094
8.00003
8.01071
8.02401
8.04104
7.93547
7.93942
7.94352
7.94779
7.95222
7.95684
7.96165
7.96666
7.97189
7.97733
7.983
7.98891
7.99507
8.00149
8.00818
8.01516
8.02245
8.03006
8.038
8.04632
8.05503
8.06419
8.07385
8.08412
8.09523
8.10758
8.12205
8.14017
8.16393
8.03126
8.03696
8.04283
8.04889
8.05513
8.06158
8.06825
8.07513
8.08224
8.0896
8.09719
8.10504
8.11315
8.12154
8.13021
8.13918
8.14847
8.15808
8.16803
8.17836
8.18909
8.20027
8.21196
8.2243
8.23753
8.25218
8.26941
8.29139
8.32136
8.18264
8.18971
8.19695
8.20436
8.21196
8.21975
8.22774
8.23594
8.24436
8.25299
8.26186
8.27096
8.2803
8.2899
8.29975
8.30988
8.32028
8.33099
8.34201
8.35336
8.36508
8.3772
8.38981
8.40302
8.41714
8.43276
8.45139
8.47585
8.51122
8.37178
8.37988
8.38814
8.39656
8.40516
8.41394
8.42291
8.43208
8.44145
8.45102
8.46081
8.47081
8.48104
8.4915
8.5022
8.51315
8.52435
8.53583
8.54759
8.55965
8.57205
8.58481
8.59801
8.61178
8.62643
8.64263
8.66217
8.68856
8.72935
8.61129
8.62008
8.62903
8.63813
8.64741
8.65687
8.6665
8.67633
8.68634
8.69655
8.70695
8.71757
8.72839
8.73943
8.7507
8.76221
8.77396
8.78596
8.79823
8.8108
8.82368
8.83696
8.85074
8.86535
8.88146
8.9011
8.92833
8.97393
8.88174
8.8907
8.8998
8.90906
8.91848
8.92807
8.93782
8.94776
8.95787
8.96817
8.97866
8.98934
9.00022
9.0113
9.0226
9.03411
9.04585
9.05782
9.07003
9.0825
9.09524
9.10832
9.12182
9.13605
9.15164
9.17074
9.19769
9.24725
9.19558
9.20459
9.21374
9.22305
9.23252
9.24216
9.25196
9.26195
9.27211
9.28246
9.29299
9.30372
9.31465
9.32578
9.33711
9.34866
9.36042
9.3724
9.38461
9.39704
9.40971
9.42264
9.43591
9.44977
9.46473
9.48292
9.50849
9.56077
9.573
9.5823
9.59175
9.60137
9.61117
9.62114
9.6313
9.64164
9.65218
9.66291
9.67385
9.68499
9.69634
9.70791
9.71969
9.73169
9.74391
9.75634
9.76899
9.78185
9.7949
9.80816
9.82163
9.83552
9.85011
9.8673
9.89039
9.94341
10.0683
10.0786
10.0891
10.0997
10.1106
10.1216
10.1329
10.1444
10.1561
10.1681
10.1802
10.1926
10.2053
10.2182
10.2313
10.2446
10.2582
10.272
10.2861
10.3003
10.3147
10.3292
10.3438
10.3585
10.3734
10.3899
10.4092
10.4594
10.8167
10.8293
10.8421
10.8552
10.8686
10.8821
10.896
10.9101
10.9245
10.9391
10.9541
10.9693
10.9848
11.0005
11.0166
11.0329
11.0495
11.0664
11.0834
11.1007
11.1181
11.1355
11.1527
11.1698
11.1862
11.2024
11.2161
11.2563
12.1968
12.2144
12.2324
12.2506
12.2692
12.2881
12.3074
12.327
12.347
12.3673
12.388
12.409
12.4304
12.4522
12.4743
12.4968
12.5195
12.5426
12.5659
12.5893
12.6128
12.6362
12.6592
12.6813
12.7014
12.718
12.7224
12.7337
15.7211
15.7511
15.7816
15.8126
15.8442
15.8762
15.9087
15.9418
15.9754
16.0096
16.0443
16.0795
16.1153
16.1516
16.1885
16.2258
16.2635
16.3016
16.3399
16.3784
16.4167
16.4544
16.4911
16.5253
16.5548
16.5715
16.5544
16.4585
34.9371
35.0243
35.1128
35.2026
35.2937
35.3861
35.4799
35.575
35.6715
35.7694
35.8686
35.9691
36.071
36.1741
36.2783
36.3836
36.4896
36.5962
36.703
36.8091
36.9141
37.0154
37.113
37.1938
37.2651
37.2406
37.0992
35.9541
19.9758
20.261
20.4518
20.5429
20.5951
20.6743
20.7846
20.9131
21.0559
21.2123
21.3821
21.566
21.7652
21.9811
22.2153
22.4696
22.7467
23.0479
23.3806
23.7369
24.1592
24.5573
25.2022
25.5668
27.6538
11.5898
11.6233
11.6588
11.6857
11.7073
11.731
11.7594
11.792
11.8284
11.8681
11.9113
11.9581
12.0087
12.0637
12.1235
12.1885
12.2595
12.3374
12.4225
12.5176
12.6223
12.741
12.8866
13.0428
13.4283
10.0431
10.0385
10.0466
10.06
10.0755
10.0927
10.1118
10.1327
10.1554
10.1798
10.2059
10.2339
10.2639
10.296
10.3306
10.3678
10.4081
10.4519
10.4992
10.5518
10.6083
10.6742
10.7466
10.8364
10.9756
9.29549
9.284
9.28518
9.29441
9.30805
9.32389
9.34119
9.35977
9.37957
9.40058
9.42287
9.44653
9.47165
9.49836
9.52683
9.55723
9.58976
9.62476
9.66222
9.70331
9.7467
9.79704
9.84872
9.91475
9.97928
8.81214
8.80185
8.80197
8.80964
8.82191
8.83655
8.8526
8.8698
8.88805
8.90737
8.92781
8.94947
8.97245
8.99684
9.02277
9.0504
9.07985
9.11142
9.14508
9.18171
9.22019
9.2643
9.30827
9.36341
9.39965
8.4772
8.46997
8.47057
8.47728
8.48796
8.50086
8.51512
8.53044
8.54675
8.56406
8.58244
8.60197
8.62274
8.64486
8.66845
8.69363
8.72054
8.74942
8.78027
8.81381
8.84913
8.88928
8.92909
8.97781
9.00242
8.2449
8.24058
8.2418
8.24756
8.25644
8.26719
8.27915
8.2921
8.30596
8.32076
8.33657
8.35346
8.37153
8.39088
8.41163
8.43391
8.45784
8.48366
8.51138
8.54164
8.5737
8.61008
8.64633
8.68993
8.70946
8.08745
8.08532
8.08691
8.09166
8.09868
8.10717
8.11667
8.12703
8.13821
8.15024
8.16319
8.17714
8.19217
8.20838
8.2259
8.24485
8.26538
8.28767
8.31181
8.33833
8.36667
8.39893
8.43138
8.47006
8.48695
7.98421
7.98353
7.98521
7.98896
7.99426
8.00063
8.0078
8.01567
8.02425
8.03356
8.04368
8.05467
8.06662
8.07963
8.09382
8.10931
8.12624
8.1448
8.16509
8.18759
8.21188
8.23974
8.26802
8.30175
8.31669
7.91906
7.91922
7.92081
7.92366
7.92751
7.93209
7.93725
7.94296
7.94923
7.95612
7.96367
7.97196
7.98107
7.99109
8.00213
8.01431
8.02776
8.04267
8.05915
8.07763
8.0978
8.1212
8.14514
8.17392
8.18695
7.87957
7.88015
7.88156
7.88369
7.88641
7.88959
7.89317
7.89715
7.90155
7.90644
7.91186
7.91787
7.92455
7.93198
7.94026
7.9495
7.95982
7.97141
7.98437
7.99909
8.01533
8.03448
8.05415
8.07813
8.08912
7.85657
7.85733
7.85853
7.86013
7.86204
7.86422
7.86664
7.86933
7.87234
7.8757
7.87946
7.88368
7.88842
7.89376
7.89978
7.90658
7.91427
7.92302
7.93291
7.94433
7.95705
7.97233
7.98804
8.00756
8.01639
7.84367
7.84447
7.8455
7.84672
7.8481
7.8496
7.85124
7.85305
7.85507
7.85734
7.85991
7.86281
7.86611
7.86986
7.87413
7.87902
7.88462
7.89107
7.89846
7.90713
7.91685
7.9288
7.941
7.95653
7.96322
7.83669
7.83746
7.83835
7.83932
7.84036
7.84145
7.8426
7.84385
7.84522
7.84677
7.84852
7.85051
7.85278
7.85539
7.8584
7.86188
7.8659
7.8706
7.87603
7.88252
7.88982
7.89903
7.90826
7.92035
7.92501
7.833
7.83371
7.8345
7.83533
7.83617
7.83702
7.83788
7.83879
7.83978
7.84087
7.84209
7.84349
7.84508
7.84692
7.84905
7.85154
7.85443
7.85785
7.86183
7.86667
7.8721
7.87914
7.88598
7.8952
7.89806
7.83108
7.83174
7.83246
7.83319
7.83392
7.83464
7.83535
7.83608
7.83684
7.83767
7.83858
7.83961
7.84077
7.84212
7.84367
7.84549
7.84762
7.85015
7.8531
7.85674
7.86079
7.86618
7.87114
7.87804
7.87936
7.83008
7.83069
7.83135
7.83203
7.83271
7.83337
7.83401
7.83464
7.83529
7.83597
7.83671
7.83752
7.83843
7.83947
7.84066
7.84205
7.84368
7.84562
7.84787
7.85068
7.85373
7.85791
7.86146
7.86654
7.8666
7.82954
7.83011
7.83073
7.83138
7.83203
7.83266
7.83327
7.83387
7.83447
7.83508
7.83573
7.83642
7.83719
7.83805
7.83902
7.84016
7.84146
7.84303
7.84482
7.84706
7.84944
7.85275
7.85526
7.85895
7.85802
7.82923
7.82976
7.83035
7.83098
7.83162
7.83225
7.83285
7.83345
7.83403
7.83461
7.83522
7.83585
7.83654
7.8373
7.83816
7.83913
7.84025
7.84158
7.84308
7.84496
7.84688
7.84958
7.85136
7.854
7.8523
7.82903
7.82954
7.83011
7.83072
7.83135
7.83198
7.8326
7.8332
7.83378
7.83436
7.83495
7.83556
7.83621
7.83692
7.8377
7.83859
7.8396
7.84079
7.84211
7.84376
7.84538
7.84767
7.84892
7.85079
7.84853
7.8289
7.82938
7.82993
7.83054
7.83117
7.8318
7.83243
7.83304
7.83363
7.83421
7.8348
7.8354
7.83604
7.83672
7.83747
7.83832
7.83926
7.84036
7.84158
7.84309
7.84451
7.84653
7.84742
7.84871
7.84604
7.8288
7.82927
7.82981
7.8304
7.83103
7.83167
7.83231
7.83293
7.83353
7.83413
7.83472
7.83532
7.83595
7.83662
7.83735
7.83817
7.83908
7.84014
7.84129
7.84271
7.84402
7.84584
7.84648
7.84735
7.8444
7.82873
7.82919
7.82972
7.83031
7.83093
7.83158
7.83222
7.83285
7.83347
7.83407
7.83466
7.83527
7.8359
7.83657
7.83729
7.8381
7.83899
7.84002
7.84113
7.8425
7.84373
7.84542
7.8459
7.84645
7.84331
7.82869
7.82913
7.82965
7.83024
7.83086
7.83151
7.83216
7.8328
7.83342
7.83403
7.83463
7.83524
7.83587
7.83653
7.83726
7.83805
7.83893
7.83995
7.84104
7.84237
7.84356
7.84516
7.84552
7.84585
7.84258
7.82867
7.8291
7.82962
7.8302
7.83082
7.83147
7.83212
7.83276
7.83339
7.834
7.8346
7.83521
7.83584
7.83651
7.83723
7.83802
7.8389
7.8399
7.84098
7.84229
7.84344
7.84498
7.84527
7.84543
7.8421
7.82866
7.82909
7.8296
7.83018
7.8308
7.83145
7.8321
7.83274
7.83337
7.83398
7.83458
7.83519
7.83582
7.83649
7.8372
7.83799
7.83886
7.83986
7.84093
7.84222
7.84335
7.84485
7.8451
7.84514
7.8418
7.82867
7.8291
7.8296
7.83018
7.8308
7.83144
7.83209
7.83273
7.83335
7.83396
7.83457
7.83517
7.8358
7.83646
7.83717
7.83796
7.83882
7.83981
7.84087
7.84215
7.84328
7.84474
7.84499
7.84493
7.84165
7.82868
7.82911
7.82962
7.83019
7.83081
7.83145
7.83209
7.83272
7.83334
7.83395
7.83455
7.83515
7.83577
7.83642
7.83713
7.83791
7.83877
7.83975
7.84081
7.84208
7.84321
7.84464
7.84493
7.84479
7.84163
7.82871
7.82914
7.82965
7.83022
7.83083
7.83147
7.83211
7.83273
7.83334
7.83394
7.83452
7.83512
7.83573
7.83638
7.83708
7.83786
7.83871
7.83969
7.84074
7.842
7.84315
7.84457
7.84492
7.8448
7.8418
7.82874
7.82918
7.82969
7.83026
7.83088
7.83151
7.83214
7.83275
7.83335
7.83393
7.83451
7.83509
7.8357
7.83634
7.83703
7.8378
7.83865
7.83963
7.84068
7.84195
7.84312
7.84458
7.84503
7.84502
7.84223
7.82878
7.82923
7.82975
7.83033
7.83094
7.83157
7.83219
7.83279
7.83337
7.83394
7.83451
7.83508
7.83567
7.83631
7.837
7.83777
7.83862
7.8396
7.84067
7.84196
7.84318
7.84472
7.84532
7.84556
7.84304
7.82883
7.8293
7.82984
7.83043
7.83104
7.83166
7.83227
7.83286
7.83342
7.83398
7.83453
7.83509
7.83568
7.83632
7.83701
7.83778
7.83865
7.83965
7.84076
7.84211
7.84341
7.8451
7.84595
7.84659
7.84447
7.82891
7.8294
7.82996
7.83056
7.83118
7.8318
7.83239
7.83296
7.83351
7.83405
7.8346
7.83516
7.83575
7.83639
7.8371
7.83791
7.83881
7.83987
7.84105
7.84251
7.84398
7.84593
7.84717
7.8484
7.84687
7.82904
7.82956
7.83014
7.83076
7.83139
7.832
7.83259
7.83314
7.83368
7.83422
7.83476
7.83533
7.83595
7.83662
7.83738
7.83825
7.83924
7.84041
7.84175
7.84342
7.84518
7.84755
7.8494
7.85151
7.85083
7.82925
7.82981
7.83043
7.83108
7.83172
7.83233
7.83291
7.83347
7.83401
7.83456
7.83513
7.83574
7.83641
7.83717
7.83804
7.83904
7.84021
7.8416
7.84323
7.84527
7.84753
7.85058
7.85337
7.85677
7.8573
7.82964
7.83026
7.83093
7.83161
7.83229
7.83292
7.83352
7.83409
7.83467
7.83528
7.83593
7.83665
7.83746
7.83839
7.83947
7.84073
7.84223
7.84404
7.84618
7.84887
7.85195
7.85607
7.86027
7.86551
7.86777
7.83045
7.83113
7.83187
7.83263
7.83337
7.83406
7.83473
7.83539
7.83608
7.83683
7.83766
7.8386
7.83969
7.84096
7.84244
7.84419
7.84628
7.8488
7.85181
7.85556
7.85995
7.86572
7.87201
7.87982
7.88443
7.83221
7.83295
7.8338
7.83469
7.83556
7.83641
7.83724
7.83812
7.83906
7.84012
7.84132
7.8427
7.8443
7.84618
7.84838
7.85098
7.85406
7.85776
7.86216
7.86758
7.87398
7.88217
7.89145
7.90279
7.91053
7.83605
7.83688
7.8379
7.83901
7.84016
7.84131
7.84251
7.84381
7.84526
7.8469
7.84878
7.85095
7.85346
7.85637
7.85976
7.86374
7.86841
7.87395
7.88049
7.8884
7.89772
7.90933
7.92273
7.93876
7.95052
7.84432
7.84522
7.84649
7.848
7.84964
7.85138
7.85326
7.85535
7.8577
7.86037
7.86341
7.86688
7.87085
7.87541
7.88067
7.88676
7.89382
7.90207
7.91169
7.92312
7.93648
7.95274
7.97155
7.99363
8.01038
7.86137
7.86232
7.86396
7.8661
7.86857
7.87131
7.87436
7.87777
7.8816
7.8859
7.89075
7.89623
7.90242
7.90943
7.91741
7.92652
7.93694
7.94893
7.96274
7.97886
7.99752
8.01974
8.04537
8.075
8.09773
7.8948
7.89568
7.89781
7.90089
7.90464
7.90893
7.91378
7.9192
7.92524
7.93194
7.93941
7.94772
7.957
7.96739
7.97904
7.99216
8.00698
8.02381
8.04296
8.06496
8.09015
8.11968
8.15348
8.19225
8.22197
7.954
7.95459
7.95723
7.96149
7.96693
7.97333
7.98059
7.98866
7.99755
8.00733
8.01809
8.02993
8.04299
8.05744
8.07348
8.09134
8.11128
8.13368
8.15888
8.18751
8.21997
8.25764
8.30035
8.34946
8.38695
8.04383
8.04374
8.04669
8.05215
8.05946
8.06822
8.07818
8.08918
8.10122
8.11433
8.1286
8.14418
8.16121
8.17989
8.20044
8.22313
8.24827
8.27627
8.30753
8.34278
8.38243
8.42822
8.47973
8.53965
8.58552
8.1674
8.16605
8.16895
8.17544
8.18455
8.1957
8.20836
8.2223
8.23744
8.25382
8.27151
8.29068
8.31151
8.33421
8.35903
8.38629
8.41632
8.44959
8.48653
8.52803
8.57444
8.62802
8.68786
8.7589
8.81414
8.32495
8.32173
8.32411
8.33131
8.34202
8.35538
8.37056
8.38722
8.40522
8.42456
8.44535
8.46775
8.49198
8.51828
8.54694
8.57829
8.61272
8.65076
8.69286
8.74008
8.7927
8.85362
8.92126
9.00375
9.07004
8.51433
8.5087
8.51013
8.51773
8.5298
8.54508
8.56251
8.58158
8.60208
8.62401
8.64747
8.67268
8.69986
8.72929
8.7613
8.79627
8.83461
8.87693
8.92372
8.9762
9.03458
9.1025
9.17756
9.27199
9.35191
8.73241
8.72424
8.7245
8.73233
8.74558
8.76254
8.78197
8.80317
8.82587
8.85005
8.87585
8.90352
8.93331
8.96555
9.00058
9.03885
9.08081
9.12716
9.17839
9.23597
9.29995
9.37485
9.45731
9.56445
9.66176
8.97763
8.96734
8.9666
8.9747
8.98909
9.00768
9.02903
9.05227
9.07705
9.10337
9.13141
9.16145
9.19379
9.2288
9.26687
9.30849
9.35417
9.40469
9.46059
9.52356
9.5935
9.67589
9.7663
9.8874
10.0073
9.25313
9.24193
9.24089
9.24968
9.26545
9.28589
9.30937
9.33484
9.36193
9.39065
9.42123
9.45398
9.48926
9.52749
9.56911
9.61468
9.66475
9.72022
9.78164
9.85099
9.92802
10.0191
10.1189
10.2559
10.4053
9.57164
9.56188
9.56196
9.57227
9.59002
9.6129
9.63914
9.66753
9.69766
9.72957
9.76355
9.79996
9.83922
9.8818
9.92821
9.97907
10.035
10.097
10.1658
10.2434
10.3297
10.4318
10.5436
10.6994
10.8882
9.96434
9.95994
9.96344
9.97651
9.99732
10.0238
10.054
10.0866
10.1213
10.1579
10.197
10.2389
10.284
10.3331
10.3865
10.4451
10.5095
10.5809
10.6601
10.7493
10.8485
10.9654
11.0938
11.273
11.5153
10.4999
10.507
10.5175
10.535
10.5605
10.5924
10.6288
10.6681
10.7098
10.754
10.8011
10.8516
10.9061
10.9651
11.0295
11.0999
11.1773
11.2629
11.3576
11.4641
11.5824
11.7205
11.8732
12.0837
12.402
11.3359
11.3646
11.3874
11.4116
11.4447
11.4854
11.532
11.5823
11.6357
11.6924
11.7529
11.8177
11.8875
11.9631
12.0453
12.1351
12.2335
12.342
12.4618
12.5955
12.7444
12.9156
13.1072
13.363
13.7988
12.9018
12.9707
13.0158
13.0499
13.0958
13.1525
13.2177
13.2883
13.3635
13.4434
13.5286
13.6198
13.718
13.8241
13.9392
14.0645
14.2013
14.3515
14.5171
14.7001
14.9049
15.1348
15.3988
15.7305
16.3789
16.9005
17.0595
17.1559
17.2045
17.2787
17.373
17.4826
17.602
17.7296
17.8653
18.0101
18.1651
18.3317
18.5114
18.7057
18.9165
19.1464
19.3968
19.6734
19.9743
20.3164
20.6839
21.1318
21.6287
22.8091
38.4691
39.023
39.3696
39.4209
39.6016
39.8789
40.2038
40.5593
40.9396
41.3448
41.7774
42.2404
42.7376
43.2725
43.8505
44.4742
45.1561
45.8878
46.7117
47.567
48.6095
49.5843
51.0311
52.142
56.2003
)
;

boundaryField
{
    inlet
    {
        type            fixedValue;
        value           nonuniform 0();
    }
    outlet
    {
        type            zeroGradient;
    }
    upperWall
    {
        Cmu             0.09;
        kappa           0.41;
        E               9.8;
        type            epsilonWallFunction;
        value           nonuniform List<scalar> 
53
(
34.9371
35.0243
35.1128
35.2026
35.2937
35.3861
35.4799
35.575
35.6715
35.7694
35.8686
35.9691
36.071
36.1741
36.2783
36.3836
36.4896
36.5962
36.703
36.8091
36.9141
37.0154
37.113
37.1938
37.2651
37.2406
37.0992
35.9541
38.4691
39.023
39.3696
39.4209
39.6016
39.8789
40.2038
40.5593
40.9396
41.3448
41.7774
42.2404
42.7376
43.2725
43.8505
44.4742
45.1561
45.8878
46.7117
47.567
48.6095
49.5843
51.0311
52.142
56.2003
)
;
    }
    lowerWall
    {
        Cmu             0.09;
        kappa           0.41;
        E               9.8;
        type            epsilonWallFunction;
        value           nonuniform List<scalar> 
55
(
19.4393
19.4503
19.4614
19.4726
19.4839
19.4953
19.5069
19.5185
19.5302
19.542
19.5539
19.5658
19.5778
19.5897
19.6017
19.6135
19.6251
19.6365
19.6474
19.6577
19.6671
19.6752
19.6812
19.6842
19.6822
19.6714
19.6431
19.5744
19.409
18.9944
19.9758
20.261
20.4518
20.5429
20.5951
20.6743
20.7846
20.9131
21.0559
21.2123
21.3821
21.566
21.7652
21.9811
22.2153
22.4696
22.7467
23.0479
23.3806
23.7369
24.1592
24.5573
25.2022
25.5668
27.6538
)
;
    }
    frontAndBack
    {
        type            empty;
    }
    procBoundary0to1
    {
        type            processor;
        value           nonuniform List<scalar> 
59
(
19.4285
11.431
9.90822
9.16324
8.6898
8.37196
8.16014
8.02309
7.93787
7.88719
7.85843
7.84306
7.84306
7.83491
7.83087
7.82895
7.82808
7.82771
7.82756
7.8275
7.82748
7.82747
7.82746
7.82745
7.82745
7.82744
7.82744
7.82744
7.82744
7.82744
7.82743
7.82743
7.82742
7.82741
7.82741
7.82742
7.82747
7.82758
7.82785
7.82847
7.82983
7.83282
7.83941
7.85334
7.88052
7.93167
8.02573
8.17574
8.36383
8.60264
8.60264
8.87291
9.1867
9.56385
10.0582
10.8043
12.1795
15.6916
34.8512
)
;
    }
}


// ************************************************************************* //
