/*--------------------------------*- C++ -*----------------------------------*\
  =========                 |
  \\      /  F ield         | OpenFOAM: The Open Source CFD Toolbox
   \\    /   O peration     | Website:  https://openfoam.org
    \\  /    A nd           | Version:  6
     \\/     M anipulation  |
\*---------------------------------------------------------------------------*/
FoamFile
{
    version     2.0;
    format      ascii;
    class       volScalarField;
    location    "0.01";
    object      k;
}
// * * * * * * * * * * * * * * * * * * * * * * * * * * * * * * * * * * * * * //

dimensions      [0 2 -2 0 0 0 0];

internalField   nonuniform List<scalar> 
3080
(
0.0795058
0.0794547
0.0794033
0.0793514
0.079299
0.0792462
0.0791929
0.0791391
0.0790847
0.0790298
0.0789742
0.078918
0.078861
0.0788031
0.0787443
0.0786843
0.0786229
0.0785599
0.0784948
0.078427
0.0783558
0.0782799
0.0781975
0.0781056
0.0779987
0.077866
0.0776833
0.0773872
0.076823
0.0755821
0.16308
0.162991
0.162901
0.16281
0.162718
0.162626
0.162532
0.162438
0.162342
0.162246
0.162148
0.16205
0.16195
0.161848
0.161745
0.16164
0.161532
0.161422
0.161308
0.16119
0.161066
0.160935
0.160792
0.160633
0.160448
0.160216
0.159889
0.159352
0.158275
0.156213
0.202233
0.202137
0.20204
0.201942
0.201844
0.201744
0.201644
0.201542
0.20144
0.201336
0.201231
0.201125
0.201017
0.200908
0.200797
0.200684
0.200569
0.200451
0.200329
0.200203
0.200072
0.199933
0.199784
0.19962
0.199432
0.199202
0.198892
0.198409
0.197529
0.195983
0.225843
0.225752
0.225661
0.225569
0.225476
0.225382
0.225287
0.225191
0.225094
0.224996
0.224897
0.224796
0.224694
0.224591
0.224486
0.224379
0.22427
0.224158
0.224043
0.223924
0.223801
0.22367
0.223531
0.223379
0.223206
0.222999
0.222727
0.222324
0.221648
0.220556
0.24127
0.241191
0.24111
0.241029
0.240947
0.240864
0.240781
0.240696
0.24061
0.240524
0.240436
0.240347
0.240257
0.240165
0.240072
0.239977
0.239881
0.239782
0.23968
0.239575
0.239465
0.23935
0.239228
0.239094
0.238944
0.238767
0.238539
0.238215
0.237707
0.236941
0.251625
0.251558
0.251491
0.251422
0.251354
0.251284
0.251214
0.251143
0.251071
0.250998
0.250924
0.250849
0.250773
0.250695
0.250617
0.250537
0.250455
0.250371
0.250285
0.250197
0.250104
0.250007
0.249904
0.249792
0.249667
0.24952
0.249336
0.249084
0.248709
0.248177
0.258603
0.258549
0.258495
0.258441
0.258385
0.258329
0.258273
0.258216
0.258157
0.258099
0.258039
0.257978
0.257917
0.257854
0.257791
0.257726
0.257659
0.257592
0.257522
0.25745
0.257375
0.257296
0.257212
0.257122
0.257022
0.256905
0.256762
0.256572
0.256302
0.255936
0.263261
0.26322
0.263178
0.263136
0.263093
0.26305
0.263007
0.262962
0.262917
0.262872
0.262826
0.262779
0.262731
0.262682
0.262633
0.262582
0.262531
0.262478
0.262423
0.262367
0.262309
0.262247
0.262182
0.262112
0.262035
0.261946
0.261838
0.2617
0.261511
0.261266
0.266311
0.26628
0.26625
0.266219
0.266187
0.266155
0.266123
0.26609
0.266057
0.266023
0.265989
0.265954
0.265919
0.265882
0.265845
0.265808
0.265769
0.26573
0.265689
0.265647
0.265603
0.265557
0.265508
0.265456
0.265399
0.265334
0.265257
0.26516
0.265033
0.264874
0.268257
0.268235
0.268213
0.268191
0.268169
0.268147
0.268124
0.268101
0.268077
0.268053
0.268029
0.268004
0.267979
0.267953
0.267926
0.267899
0.267872
0.267843
0.267814
0.267784
0.267752
0.267719
0.267685
0.267647
0.267607
0.267561
0.267509
0.267444
0.267363
0.267264
0.269461
0.269447
0.269432
0.269417
0.269402
0.269387
0.269372
0.269356
0.26934
0.269324
0.269307
0.26929
0.269273
0.269255
0.269237
0.269218
0.269199
0.26918
0.26916
0.269139
0.269117
0.269095
0.269071
0.269045
0.269018
0.268988
0.268954
0.268914
0.268864
0.268808
0.270174
0.270165
0.270155
0.270145
0.270135
0.270125
0.270115
0.270105
0.270094
0.270083
0.270072
0.270061
0.270049
0.270037
0.270025
0.270013
0.27
0.269986
0.269973
0.269958
0.269944
0.269928
0.269912
0.269894
0.269875
0.269855
0.269832
0.269805
0.269775
0.270597
0.270591
0.270585
0.270579
0.270573
0.270566
0.27056
0.270554
0.270547
0.27054
0.270533
0.270526
0.270519
0.270511
0.270503
0.270496
0.270487
0.270479
0.27047
0.270461
0.270452
0.270442
0.270432
0.270422
0.270411
0.2704
0.270388
0.270376
0.270364
0.270835
0.270831
0.270828
0.270824
0.27082
0.270817
0.270813
0.270809
0.270805
0.270801
0.270797
0.270792
0.270788
0.270783
0.270778
0.270774
0.270769
0.270764
0.270758
0.270753
0.270747
0.270742
0.270736
0.27073
0.270725
0.27072
0.270715
0.270712
0.27071
0.270965
0.270963
0.270961
0.270958
0.270956
0.270954
0.270952
0.27095
0.270947
0.270945
0.270943
0.27094
0.270937
0.270935
0.270932
0.270929
0.270926
0.270923
0.27092
0.270917
0.270914
0.270911
0.270908
0.270905
0.270903
0.270902
0.270902
0.270904
0.270908
0.271035
0.271033
0.271032
0.271031
0.27103
0.271029
0.271027
0.271026
0.271025
0.271023
0.271022
0.27102
0.271019
0.271017
0.271016
0.271014
0.271012
0.271011
0.271009
0.271007
0.271006
0.271004
0.271003
0.271002
0.271002
0.271003
0.271005
0.27101
0.271017
0.27107
0.27107
0.271069
0.271068
0.271067
0.271067
0.271066
0.271065
0.271065
0.271064
0.271063
0.271062
0.271061
0.271061
0.27106
0.271059
0.271058
0.271057
0.271056
0.271055
0.271054
0.271054
0.271054
0.271054
0.271055
0.271057
0.271061
0.271067
0.271075
0.271088
0.271088
0.271087
0.271087
0.271086
0.271086
0.271086
0.271085
0.271085
0.271084
0.271084
0.271083
0.271083
0.271082
0.271082
0.271082
0.271081
0.271081
0.27108
0.27108
0.27108
0.27108
0.27108
0.271081
0.271083
0.271085
0.27109
0.271096
0.271104
0.271097
0.271096
0.271096
0.271096
0.271096
0.271095
0.271095
0.271095
0.271095
0.271095
0.271094
0.271094
0.271094
0.271094
0.271093
0.271093
0.271093
0.271093
0.271093
0.271093
0.271093
0.271093
0.271094
0.271095
0.271097
0.271099
0.271104
0.27111
0.271119
0.271101
0.271101
0.271101
0.2711
0.2711
0.2711
0.2711
0.2711
0.2711
0.2711
0.2711
0.271099
0.271099
0.271099
0.271099
0.271099
0.271099
0.271099
0.271099
0.271099
0.271099
0.271099
0.2711
0.271101
0.271103
0.271106
0.271111
0.271117
0.271125
0.271103
0.271103
0.271103
0.271103
0.271103
0.271102
0.271102
0.271102
0.271102
0.271102
0.271102
0.271102
0.271102
0.271102
0.271102
0.271102
0.271102
0.271102
0.271102
0.271102
0.271102
0.271103
0.271103
0.271105
0.271107
0.27111
0.271114
0.27112
0.271128
0.271104
0.271104
0.271104
0.271104
0.271104
0.271104
0.271104
0.271104
0.271104
0.271103
0.271103
0.271103
0.271103
0.271103
0.271103
0.271103
0.271103
0.271103
0.271103
0.271103
0.271104
0.271104
0.271105
0.271106
0.271108
0.271111
0.271115
0.271121
0.271128
0.271105
0.271104
0.271104
0.271104
0.271104
0.271104
0.271104
0.271104
0.271104
0.271104
0.271104
0.271104
0.271104
0.271104
0.271104
0.271104
0.271104
0.271104
0.271104
0.271104
0.271104
0.271105
0.271106
0.271107
0.271109
0.271111
0.271115
0.271121
0.271128
0.271105
0.271104
0.271104
0.271104
0.271104
0.271104
0.271104
0.271104
0.271104
0.271104
0.271104
0.271104
0.271104
0.271104
0.271104
0.271104
0.271104
0.271104
0.271104
0.271105
0.271105
0.271105
0.271106
0.271107
0.271109
0.271112
0.271115
0.271121
0.271128
0.271105
0.271105
0.271104
0.271104
0.271104
0.271104
0.271105
0.271105
0.271105
0.271105
0.271105
0.271105
0.271105
0.271105
0.271105
0.271105
0.271105
0.271105
0.271105
0.271105
0.271105
0.271106
0.271106
0.271107
0.271109
0.271112
0.271115
0.271121
0.271128
0.271105
0.271105
0.271105
0.271105
0.271105
0.271105
0.271105
0.271105
0.271105
0.271105
0.271105
0.271105
0.271105
0.271105
0.271105
0.271105
0.271105
0.271105
0.271105
0.271105
0.271105
0.271106
0.271106
0.271108
0.271109
0.271112
0.271116
0.271121
0.271128
0.271105
0.271105
0.271105
0.271105
0.271105
0.271105
0.271105
0.271105
0.271105
0.271105
0.271105
0.271105
0.271105
0.271105
0.271105
0.271105
0.271105
0.271105
0.271105
0.271105
0.271106
0.271106
0.271107
0.271108
0.27111
0.271112
0.271116
0.271121
0.271128
0.271105
0.271105
0.271105
0.271105
0.271105
0.271105
0.271105
0.271105
0.271105
0.271105
0.271105
0.271105
0.271105
0.271105
0.271105
0.271105
0.271105
0.271105
0.271105
0.271105
0.271106
0.271106
0.271107
0.271108
0.27111
0.271112
0.271116
0.271121
0.271128
0.271105
0.271105
0.271105
0.271105
0.271105
0.271105
0.271105
0.271105
0.271105
0.271105
0.271105
0.271105
0.271105
0.271105
0.271105
0.271105
0.271105
0.271105
0.271105
0.271105
0.271106
0.271106
0.271107
0.271108
0.27111
0.271113
0.271116
0.271122
0.271129
0.271105
0.271105
0.271105
0.271105
0.271105
0.271105
0.271105
0.271105
0.271105
0.271105
0.271105
0.271105
0.271105
0.271105
0.271105
0.271105
0.271105
0.271105
0.271105
0.271105
0.271105
0.271106
0.271107
0.271108
0.27111
0.271113
0.271116
0.271122
0.271129
0.271105
0.271104
0.271104
0.271104
0.271104
0.271104
0.271104
0.271104
0.271104
0.271104
0.271104
0.271104
0.271104
0.271104
0.271104
0.271104
0.271104
0.271104
0.271105
0.271105
0.271105
0.271106
0.271106
0.271108
0.27111
0.271112
0.271116
0.271122
0.271129
0.271104
0.271104
0.271104
0.271104
0.271104
0.271104
0.271104
0.271104
0.271104
0.271104
0.271104
0.271104
0.271104
0.271104
0.271104
0.271104
0.271104
0.271104
0.271104
0.271104
0.271104
0.271105
0.271106
0.271107
0.271109
0.271112
0.271116
0.271122
0.271129
0.271103
0.271103
0.271103
0.271103
0.271103
0.271103
0.271103
0.271103
0.271103
0.271103
0.271103
0.271103
0.271102
0.271102
0.271102
0.271102
0.271102
0.271102
0.271102
0.271102
0.271103
0.271103
0.271104
0.271105
0.271107
0.27111
0.271114
0.27112
0.271128
0.271101
0.271101
0.271101
0.271101
0.271101
0.271101
0.271101
0.271101
0.271101
0.2711
0.2711
0.2711
0.2711
0.2711
0.2711
0.271099
0.271099
0.271099
0.271099
0.271099
0.271099
0.2711
0.2711
0.271101
0.271103
0.271106
0.27111
0.271117
0.271125
0.271098
0.271098
0.271097
0.271097
0.271097
0.271097
0.271096
0.271096
0.271096
0.271096
0.271095
0.271095
0.271095
0.271094
0.271094
0.271094
0.271093
0.271093
0.271092
0.271092
0.271092
0.271092
0.271092
0.271093
0.271094
0.271097
0.271101
0.271107
0.271116
0.271091
0.271091
0.27109
0.271089
0.271089
0.271088
0.271088
0.271087
0.271087
0.271086
0.271085
0.271084
0.271084
0.271083
0.271082
0.271081
0.27108
0.271079
0.271078
0.271077
0.271076
0.271076
0.271075
0.271075
0.271075
0.271077
0.27108
0.271085
0.271094
0.271077
0.271076
0.271075
0.271074
0.271073
0.271071
0.27107
0.271069
0.271067
0.271066
0.271064
0.271062
0.271061
0.271059
0.271057
0.271055
0.271053
0.27105
0.271048
0.271046
0.271043
0.271041
0.271038
0.271036
0.271035
0.271034
0.271035
0.271038
0.271044
0.27105
0.271047
0.271045
0.271042
0.27104
0.271037
0.271034
0.271031
0.271028
0.271025
0.271021
0.271018
0.271014
0.27101
0.271005
0.271001
0.270996
0.270991
0.270986
0.27098
0.270975
0.270969
0.270962
0.270956
0.27095
0.270945
0.27094
0.270938
0.270939
0.270995
0.27099
0.270985
0.27098
0.270975
0.270969
0.270963
0.270957
0.270951
0.270944
0.270937
0.270929
0.270921
0.270912
0.270903
0.270894
0.270884
0.270873
0.270862
0.27085
0.270838
0.270825
0.270811
0.270796
0.270781
0.270766
0.270751
0.270736
0.270725
0.270892
0.270882
0.270873
0.270862
0.270851
0.27084
0.270828
0.270816
0.270802
0.270788
0.270774
0.270758
0.270742
0.270725
0.270707
0.270688
0.270668
0.270646
0.270624
0.2706
0.270574
0.270547
0.270518
0.270488
0.270455
0.270421
0.270385
0.270347
0.270311
0.270692
0.270673
0.270654
0.270634
0.270613
0.270591
0.270568
0.270543
0.270517
0.27049
0.270462
0.270432
0.2704
0.270367
0.270332
0.270295
0.270256
0.270214
0.270171
0.270124
0.270075
0.270023
0.269968
0.269908
0.269845
0.269777
0.269703
0.269624
0.269543
0.270304
0.27027
0.270234
0.270196
0.270156
0.270114
0.270071
0.270025
0.269976
0.269926
0.269873
0.269817
0.269758
0.269696
0.269631
0.269562
0.26949
0.269414
0.269334
0.269249
0.269159
0.269064
0.268963
0.268856
0.26874
0.268616
0.26848
0.268331
0.268173
0.269581
0.269519
0.269454
0.269386
0.269315
0.269241
0.269163
0.269082
0.268997
0.268908
0.268814
0.268717
0.268614
0.268507
0.268394
0.268276
0.268152
0.268022
0.267885
0.26774
0.267588
0.267428
0.267258
0.267078
0.266885
0.266677
0.266451
0.266198
0.265924
0.268312
0.26821
0.268103
0.267992
0.267876
0.267755
0.26763
0.267499
0.267362
0.26722
0.267071
0.266916
0.266755
0.266586
0.26641
0.266226
0.266034
0.265832
0.265622
0.265402
0.265171
0.264928
0.264672
0.264401
0.264114
0.263805
0.263468
0.263089
0.262671
0.266135
0.265979
0.265819
0.265652
0.26548
0.265301
0.265116
0.264924
0.264725
0.264518
0.264304
0.264081
0.263851
0.263611
0.263362
0.263104
0.262835
0.262556
0.262265
0.261962
0.261646
0.261316
0.26097
0.260607
0.260222
0.25981
0.259361
0.258852
0.25828
0.262408
0.262196
0.261978
0.261754
0.261522
0.261284
0.261039
0.260786
0.260526
0.260258
0.259981
0.259696
0.259402
0.259099
0.258786
0.258462
0.258129
0.257784
0.257427
0.257058
0.256675
0.256278
0.255863
0.25543
0.254974
0.254486
0.253956
0.253343
0.252643
0.256724
0.256467
0.256203
0.255933
0.255656
0.255373
0.255083
0.254786
0.254481
0.254169
0.253848
0.25352
0.253183
0.252837
0.252482
0.252118
0.251744
0.251359
0.250963
0.250555
0.250134
0.249699
0.249248
0.248777
0.248283
0.247755
0.247178
0.246494
0.245691
0.249622
0.249324
0.24902
0.248711
0.248394
0.248071
0.247742
0.247405
0.247062
0.24671
0.246352
0.245985
0.24561
0.245227
0.244835
0.244434
0.244023
0.243603
0.243171
0.242728
0.242273
0.241803
0.241317
0.240812
0.240282
0.239714
0.239091
0.238333
0.237414
0.240444
0.240112
0.239774
0.239431
0.239081
0.238725
0.238362
0.237992
0.237616
0.237232
0.236841
0.236442
0.236036
0.235621
0.235198
0.234765
0.234324
0.233872
0.233409
0.232934
0.232445
0.231941
0.231417
0.230868
0.230276
0.229623
0.228803
0.227772
0.229777
0.229431
0.229079
0.228721
0.228358
0.227989
0.227614
0.227233
0.226845
0.22645
0.226049
0.225641
0.225226
0.224803
0.224372
0.223933
0.223486
0.223028
0.222561
0.222082
0.22159
0.221083
0.220556
0.220004
0.219406
0.218739
0.21787
0.216728
0.217272
0.216924
0.216572
0.216214
0.215851
0.215483
0.215109
0.21473
0.214345
0.213954
0.213557
0.213154
0.212745
0.212328
0.211905
0.211474
0.211035
0.210587
0.21013
0.209663
0.209183
0.208688
0.208174
0.207634
0.207045
0.206381
0.205478
0.204223
0.202828
0.202492
0.202152
0.201807
0.201458
0.201104
0.200746
0.200382
0.200014
0.19964
0.199261
0.198876
0.198486
0.19809
0.197687
0.197278
0.196862
0.196438
0.196005
0.195563
0.195108
0.19464
0.194153
0.19364
0.193076
0.19243
0.191509
0.190138
0.186221
0.18591
0.185594
0.185275
0.184952
0.184625
0.184294
0.183959
0.183619
0.183275
0.182926
0.182573
0.182215
0.181851
0.181482
0.181107
0.180726
0.180338
0.179942
0.179538
0.179122
0.178693
0.178246
0.177773
0.177248
0.176635
0.175715
0.17422
0.166925
0.166649
0.166369
0.166087
0.165802
0.165513
0.16522
0.164925
0.164625
0.164322
0.164015
0.163704
0.163389
0.163069
0.162745
0.162416
0.162081
0.16174
0.161393
0.161037
0.160672
0.160294
0.159898
0.159477
0.159006
0.158438
0.157542
0.155919
0.143583
0.143354
0.143121
0.142886
0.142649
0.142409
0.142166
0.14192
0.141672
0.14142
0.141165
0.140907
0.140646
0.140381
0.140113
0.13984
0.139562
0.13928
0.138991
0.138695
0.138391
0.138075
0.137744
0.137386
0.136984
0.136476
0.135637
0.133893
0.111893
0.111723
0.111551
0.111377
0.111201
0.111023
0.110844
0.110662
0.110478
0.110292
0.110103
0.109913
0.109719
0.109523
0.109324
0.109122
0.108917
0.108707
0.108492
0.108272
0.108044
0.107807
0.107557
0.107281
0.10697
0.106549
0.105833
0.104057
0.053394
0.053322
0.0532492
0.0531756
0.0531011
0.0530258
0.0529495
0.0528723
0.0527941
0.0527149
0.0526347
0.0525532
0.0524706
0.0523866
0.0523012
0.052214
0.052125
0.0520337
0.0519398
0.0518424
0.0517409
0.0516328
0.0515181
0.0513844
0.0512378
0.050999
0.0506471
0.0493787
0.0776864
0.0780314
0.0781
0.0778677
0.0774894
0.0771482
0.0768624
0.0765966
0.0763359
0.0760752
0.0758115
0.0755433
0.0752701
0.0749914
0.074707
0.0744163
0.0741207
0.0738168
0.0735159
0.0731905
0.0729281
0.0725194
0.072514
0.0718413
0.0742115
0.158601
0.159735
0.159892
0.159538
0.158942
0.158294
0.157654
0.157016
0.156368
0.155704
0.155019
0.154309
0.153571
0.152802
0.152001
0.151162
0.150287
0.149367
0.148418
0.147391
0.146403
0.145189
0.144329
0.14293
0.144553
0.197436
0.198375
0.198499
0.198148
0.197552
0.196869
0.196165
0.195449
0.194716
0.193961
0.193177
0.192361
0.191509
0.190617
0.189682
0.1887
0.187669
0.186582
0.185448
0.184231
0.183014
0.181611
0.180429
0.178968
0.179889
0.221434
0.222107
0.222167
0.221837
0.221289
0.220647
0.219968
0.219269
0.218549
0.217803
0.217026
0.216213
0.215361
0.214465
0.213522
0.212527
0.211478
0.210368
0.2092
0.207951
0.206673
0.205244
0.203938
0.202521
0.202907
0.237481
0.237942
0.237953
0.237657
0.237177
0.236607
0.235994
0.235357
0.234696
0.234009
0.233291
0.232536
0.231742
0.230903
0.230016
0.229077
0.228082
0.227024
0.225905
0.224706
0.223461
0.222092
0.220779
0.219449
0.219469
0.248513
0.24882
0.248801
0.248546
0.248142
0.247656
0.247127
0.246572
0.245993
0.245389
0.244754
0.244085
0.243378
0.242628
0.241831
0.240983
0.24008
0.239116
0.238089
0.236987
0.235829
0.234568
0.233316
0.232095
0.23188
0.256148
0.256348
0.256315
0.256104
0.255775
0.255376
0.254936
0.254471
0.253982
0.25347
0.25293
0.252358
0.25175
0.251103
0.250412
0.249672
0.24888
0.248031
0.247121
0.24614
0.245098
0.243969
0.242819
0.24172
0.241364
0.261401
0.261529
0.261493
0.261326
0.261068
0.260751
0.260398
0.260022
0.259625
0.259206
0.258761
0.258288
0.257783
0.257242
0.256661
0.256036
0.255362
0.254635
0.253851
0.253002
0.252091
0.251106
0.250079
0.24911
0.248676
0.264961
0.265042
0.26501
0.264885
0.26469
0.264448
0.264176
0.263883
0.263571
0.26324
0.262886
0.262508
0.262102
0.261663
0.26119
0.260677
0.26012
0.259516
0.258858
0.258143
0.257367
0.256528
0.255634
0.254795
0.254329
0.267322
0.267374
0.26735
0.267261
0.26712
0.266943
0.266742
0.266522
0.266286
0.266034
0.265763
0.265471
0.265155
0.264812
0.264438
0.26403
0.263583
0.263095
0.262559
0.261972
0.261327
0.26063
0.25987
0.259159
0.258694
0.268848
0.268882
0.268868
0.268808
0.268712
0.268588
0.268445
0.268288
0.268116
0.267932
0.267732
0.267514
0.267277
0.267017
0.266732
0.266418
0.266071
0.265688
0.265264
0.264796
0.264275
0.26371
0.263079
0.262488
0.262046
0.269804
0.269829
0.269823
0.269787
0.269725
0.269644
0.269547
0.269439
0.269321
0.269191
0.269049
0.268894
0.268723
0.268534
0.268324
0.26809
0.26783
0.26754
0.267214
0.266852
0.266442
0.265997
0.265486
0.265006
0.264599
0.270386
0.270406
0.270406
0.270388
0.270352
0.270302
0.270241
0.270171
0.270092
0.270006
0.26991
0.269804
0.269686
0.269553
0.269405
0.269238
0.26905
0.268838
0.268596
0.268325
0.268013
0.267673
0.267269
0.266888
0.266525
0.270729
0.270745
0.270751
0.270745
0.270727
0.2707
0.270664
0.270622
0.270574
0.270519
0.270458
0.27039
0.270312
0.270224
0.270124
0.27001
0.26988
0.269731
0.269559
0.269364
0.269134
0.268883
0.268571
0.268276
0.267958
0.270924
0.270939
0.270948
0.27095
0.270945
0.270933
0.270915
0.270893
0.270866
0.270834
0.270799
0.270757
0.27071
0.270655
0.270591
0.270518
0.270432
0.270333
0.270216
0.270082
0.26992
0.269742
0.269508
0.269285
0.269011
0.271031
0.271045
0.271056
0.271064
0.271066
0.271065
0.271059
0.27105
0.271038
0.271023
0.271004
0.270982
0.270956
0.270925
0.270888
0.270845
0.270793
0.270731
0.270657
0.27057
0.270461
0.270341
0.27017
0.270006
0.269773
0.271088
0.271101
0.271114
0.271124
0.271132
0.271137
0.271139
0.271139
0.271137
0.271132
0.271126
0.271117
0.271105
0.271091
0.271073
0.27105
0.271023
0.270989
0.270946
0.270895
0.270826
0.270752
0.27063
0.270513
0.270315
0.271116
0.271129
0.271142
0.271154
0.271165
0.271175
0.271182
0.271188
0.271192
0.271194
0.271195
0.271195
0.271194
0.27119
0.271185
0.271177
0.271166
0.271152
0.271132
0.271107
0.271068
0.271028
0.270944
0.270862
0.270693
0.27113
0.271142
0.271155
0.271169
0.271181
0.271193
0.271204
0.271213
0.271221
0.271228
0.271235
0.27124
0.271245
0.271249
0.271252
0.271254
0.271255
0.271254
0.271249
0.271244
0.271226
0.27121
0.271155
0.271099
0.270954
0.271136
0.271147
0.271161
0.271174
0.271188
0.271201
0.271214
0.271225
0.271236
0.271246
0.271256
0.271265
0.271274
0.271282
0.271291
0.271299
0.271308
0.271316
0.271322
0.271329
0.271327
0.271329
0.271293
0.271256
0.271129
0.271137
0.271149
0.271162
0.271176
0.27119
0.271204
0.271218
0.271231
0.271244
0.271255
0.271267
0.271278
0.27129
0.271301
0.271313
0.271326
0.271339
0.271353
0.271367
0.271382
0.271391
0.271404
0.271382
0.271358
0.271244
0.271138
0.271149
0.271161
0.271175
0.27119
0.271205
0.271219
0.271233
0.271247
0.27126
0.271273
0.271285
0.271298
0.271312
0.271326
0.271341
0.271357
0.271375
0.271393
0.271414
0.27143
0.27145
0.271438
0.271422
0.271319
0.271137
0.271148
0.27116
0.271174
0.271189
0.271204
0.271219
0.271234
0.271248
0.271262
0.271275
0.271289
0.271303
0.271317
0.271332
0.271349
0.271367
0.271388
0.271409
0.271433
0.271453
0.271479
0.271472
0.271461
0.271366
0.271137
0.271147
0.27116
0.271173
0.271188
0.271203
0.271219
0.271234
0.271248
0.271262
0.271276
0.27129
0.271305
0.27132
0.271336
0.271354
0.271373
0.271394
0.271417
0.271444
0.271466
0.271495
0.271493
0.271485
0.271394
0.271136
0.271147
0.271159
0.271173
0.271187
0.271203
0.271218
0.271233
0.271248
0.271262
0.271277
0.271291
0.271306
0.271321
0.271338
0.271356
0.271376
0.271398
0.271422
0.27145
0.271474
0.271504
0.271504
0.271497
0.27141
0.271136
0.271146
0.271159
0.271172
0.271187
0.271202
0.271218
0.271233
0.271248
0.271262
0.271277
0.271291
0.271306
0.271321
0.271338
0.271356
0.271377
0.271399
0.271424
0.271452
0.271477
0.271508
0.27151
0.271503
0.271419
0.271136
0.271146
0.271159
0.271172
0.271187
0.271202
0.271218
0.271233
0.271248
0.271262
0.271276
0.271291
0.271306
0.271321
0.271338
0.271356
0.271376
0.271399
0.271424
0.271453
0.271478
0.271509
0.271512
0.271504
0.271423
0.271137
0.271147
0.271159
0.271172
0.271187
0.271202
0.271218
0.271233
0.271247
0.271262
0.271276
0.27129
0.271305
0.27132
0.271337
0.271355
0.271375
0.271398
0.271423
0.271451
0.271477
0.271507
0.271511
0.271502
0.271424
0.271137
0.271147
0.27116
0.271173
0.271188
0.271203
0.271218
0.271233
0.271247
0.271261
0.271275
0.271289
0.271304
0.271319
0.271335
0.271353
0.271373
0.271395
0.271419
0.271447
0.271472
0.271502
0.271505
0.271496
0.271419
0.271138
0.271148
0.27116
0.271174
0.271189
0.271204
0.271218
0.271233
0.271247
0.271261
0.271274
0.271288
0.271302
0.271317
0.271333
0.27135
0.271369
0.271391
0.271414
0.271441
0.271464
0.271492
0.271495
0.271484
0.271408
0.271138
0.271149
0.271162
0.271175
0.27119
0.271205
0.271219
0.271233
0.271247
0.27126
0.271273
0.271286
0.271299
0.271313
0.271329
0.271345
0.271363
0.271383
0.271404
0.271429
0.27145
0.271476
0.271476
0.271463
0.271385
0.271139
0.27115
0.271163
0.271177
0.271191
0.271205
0.271219
0.271233
0.271246
0.271258
0.27127
0.271282
0.271294
0.271307
0.271321
0.271336
0.271352
0.27137
0.271388
0.271409
0.271426
0.271447
0.271442
0.271425
0.271344
0.271138
0.27115
0.271163
0.271177
0.271191
0.271205
0.271218
0.271231
0.271242
0.271253
0.271264
0.271274
0.271285
0.271296
0.271308
0.27132
0.271332
0.271346
0.271359
0.271375
0.271384
0.271397
0.271383
0.27136
0.271271
0.271136
0.271148
0.271162
0.271175
0.271189
0.271202
0.271214
0.271224
0.271234
0.271243
0.271251
0.271259
0.271267
0.271274
0.271282
0.271289
0.271296
0.271303
0.271308
0.271313
0.271311
0.27131
0.271282
0.271246
0.271146
0.271128
0.271141
0.271155
0.271168
0.27118
0.271191
0.2712
0.271208
0.271214
0.27122
0.271224
0.271227
0.27123
0.271232
0.271232
0.271231
0.271229
0.271224
0.271216
0.271205
0.271184
0.271163
0.271112
0.271057
0.270939
0.271107
0.271121
0.271135
0.271147
0.271157
0.271164
0.271169
0.271172
0.271172
0.271171
0.271169
0.271164
0.271158
0.27115
0.271139
0.271125
0.271107
0.271084
0.271054
0.27102
0.27097
0.270918
0.270833
0.270748
0.270606
0.271059
0.271074
0.271088
0.271097
0.271102
0.271103
0.2711
0.271094
0.271085
0.271074
0.27106
0.271043
0.271022
0.270997
0.270968
0.270933
0.27089
0.27084
0.270779
0.270708
0.270618
0.270521
0.270386
0.27026
0.270085
0.270956
0.270973
0.270984
0.270988
0.270985
0.270974
0.270959
0.270938
0.270914
0.270885
0.270852
0.270815
0.270771
0.270721
0.270663
0.270596
0.270517
0.270427
0.27032
0.270198
0.270051
0.269893
0.269691
0.26951
0.269293
0.270746
0.270765
0.270771
0.270765
0.270747
0.270718
0.270681
0.270638
0.270588
0.270533
0.270472
0.270402
0.270324
0.270236
0.270136
0.270023
0.269893
0.269745
0.269576
0.269385
0.269162
0.268925
0.268636
0.268385
0.268121
0.270336
0.270358
0.270356
0.270332
0.270288
0.27023
0.270161
0.270082
0.269996
0.269901
0.269797
0.269682
0.269554
0.269412
0.269254
0.269076
0.268877
0.268654
0.268403
0.268124
0.267805
0.26747
0.267072
0.266739
0.266425
0.269571
0.269597
0.269581
0.269528
0.269446
0.269343
0.269225
0.269096
0.268958
0.268808
0.268645
0.268467
0.268273
0.268059
0.267823
0.267563
0.267275
0.266958
0.266604
0.266219
0.265784
0.265333
0.264808
0.264384
0.264022
0.268204
0.268236
0.268197
0.2681
0.267962
0.267796
0.267612
0.267416
0.267208
0.266986
0.266747
0.266489
0.266209
0.265905
0.265574
0.265213
0.264818
0.264388
0.263915
0.263406
0.26284
0.26226
0.261592
0.261074
0.260674
0.265958
0.266
0.26593
0.265774
0.265561
0.265316
0.265053
0.264777
0.264486
0.264179
0.263852
0.263502
0.263125
0.26272
0.262282
0.26181
0.261299
0.260749
0.26015
0.259513
0.25881
0.258101
0.257287
0.256685
0.256268
0.262714
0.26277
0.262663
0.262436
0.26214
0.261809
0.261462
0.261103
0.260729
0.260336
0.259919
0.259475
0.259002
0.258496
0.257954
0.257374
0.256751
0.256085
0.255368
0.254611
0.253783
0.252957
0.252011
0.251344
0.250938
0.258348
0.258428
0.258279
0.257976
0.257593
0.257176
0.256748
0.25631
0.255857
0.255382
0.254881
0.25435
0.253786
0.253187
0.252549
0.251871
0.251147
0.250379
0.249556
0.248696
0.247759
0.246835
0.245775
0.245064
0.244701
0.252771
0.252884
0.252692
0.25231
0.251841
0.251345
0.250845
0.250337
0.249814
0.249267
0.248691
0.248084
0.247441
0.246761
0.24604
0.245277
0.244468
0.243614
0.242704
0.241758
0.240733
0.239733
0.238582
0.237849
0.237562
0.245925
0.246081
0.245846
0.245387
0.244839
0.244275
0.243715
0.24315
0.242569
0.241962
0.241325
0.240655
0.239948
0.239202
0.238415
0.237585
0.236709
0.235788
0.234811
0.233802
0.232711
0.231658
0.23044
0.229705
0.229528
0.237776
0.237983
0.237706
0.237175
0.236559
0.235941
0.235337
0.23473
0.234105
0.233454
0.232771
0.232053
0.231298
0.230505
0.22967
0.228792
0.227869
0.226903
0.225882
0.224831
0.223701
0.222617
0.22136
0.220641
0.220602
0.228294
0.228557
0.228244
0.22765
0.226979
0.226325
0.225693
0.22506
0.224408
0.223729
0.223017
0.22227
0.221486
0.220663
0.2198
0.218896
0.217948
0.216959
0.215917
0.214849
0.213703
0.212612
0.211344
0.210655
0.210783
0.217446
0.21777
0.217425
0.216779
0.216072
0.215401
0.214758
0.214116
0.213454
0.212764
0.212041
0.211284
0.21049
0.20966
0.20879
0.207881
0.20693
0.205941
0.204903
0.203842
0.202707
0.201631
0.20038
0.199733
0.200047
0.205173
0.205558
0.20519
0.204508
0.203783
0.203114
0.202479
0.201845
0.201191
0.200509
0.199794
0.199046
0.198263
0.197445
0.196591
0.195699
0.194769
0.193803
0.192792
0.191761
0.190662
0.189624
0.188418
0.187821
0.188337
0.191357
0.191799
0.191419
0.190718
0.189996
0.189348
0.188738
0.18813
0.187502
0.186846
0.186159
0.18544
0.184688
0.183904
0.183086
0.182234
0.181347
0.180427
0.179468
0.17849
0.177453
0.176472
0.17534
0.174797
0.175522
0.175749
0.176235
0.175857
0.175153
0.174455
0.173847
0.173282
0.172717
0.172132
0.171521
0.17088
0.17021
0.169511
0.168781
0.168021
0.167231
0.16641
0.165559
0.164675
0.163772
0.162822
0.161918
0.160887
0.1604
0.161331
0.157795
0.158298
0.157936
0.157249
0.156597
0.15605
0.155546
0.155042
0.154519
0.153971
0.153397
0.152796
0.15217
0.151517
0.150837
0.150131
0.149398
0.148639
0.147854
0.147049
0.146212
0.145404
0.144505
0.144073
0.145195
0.136142
0.136608
0.136278
0.135633
0.135053
0.13459
0.134167
0.133743
0.133302
0.132839
0.132354
0.131846
0.131315
0.130763
0.130189
0.129593
0.128976
0.128335
0.127677
0.126996
0.126303
0.125614
0.124884
0.124509
0.125786
0.106597
0.10692
0.106656
0.106101
0.105638
0.105294
0.104982
0.10467
0.104343
0.104
0.103638
0.10326
0.102866
0.102456
0.10203
0.101587
0.101132
0.100657
0.100176
0.0996678
0.0991746
0.0986482
0.0981562
0.0978458
0.0992068
0.0512393
0.0514723
0.0515016
0.051221
0.0510289
0.0509045
0.0508054
0.0507136
0.0506212
0.0505256
0.0504268
0.0503249
0.0502206
0.0501138
0.0500061
0.0498955
0.0497882
0.0496729
0.0495767
0.0494489
0.0493935
0.0492267
0.0493013
0.0490765
0.0505422
)
;

boundaryField
{
    inlet
    {
        type            fixedValue;
        value           nonuniform 0();
    }
    outlet
    {
        type            zeroGradient;
    }
    upperWall
    {
        type            kqRWallFunction;
        value           nonuniform List<scalar> 
53
(
0.053394
0.053322
0.0532492
0.0531756
0.0531011
0.0530258
0.0529495
0.0528723
0.0527941
0.0527149
0.0526347
0.0525532
0.0524706
0.0523866
0.0523012
0.052214
0.052125
0.0520337
0.0519398
0.0518424
0.0517409
0.0516328
0.0515181
0.0513844
0.0512378
0.050999
0.0506471
0.0493787
0.0512393
0.0514723
0.0515016
0.051221
0.0510289
0.0509045
0.0508054
0.0507136
0.0506212
0.0505256
0.0504268
0.0503249
0.0502206
0.0501138
0.0500061
0.0498955
0.0497882
0.0496729
0.0495767
0.0494489
0.0493935
0.0492267
0.0493013
0.0490765
0.0505422
)
;
    }
    lowerWall
    {
        type            kqRWallFunction;
        value           nonuniform List<scalar> 
55
(
0.0795058
0.0794547
0.0794033
0.0793514
0.079299
0.0792462
0.0791929
0.0791391
0.0790847
0.0790298
0.0789742
0.078918
0.078861
0.0788031
0.0787443
0.0786843
0.0786229
0.0785599
0.0784948
0.078427
0.0783558
0.0782799
0.0781975
0.0781056
0.0779987
0.077866
0.0776833
0.0773872
0.076823
0.0755821
0.0776864
0.0780314
0.0781
0.0778677
0.0774894
0.0771482
0.0768624
0.0765966
0.0763359
0.0760752
0.0758115
0.0755433
0.0752701
0.0749914
0.074707
0.0744163
0.0741207
0.0738168
0.0735159
0.0731905
0.0729281
0.0725194
0.072514
0.0718413
0.0742115
)
;
    }
    frontAndBack
    {
        type            empty;
    }
    procBoundary0to1
    {
        type            processor;
        value           nonuniform List<scalar> 
59
(
0.0795564
0.163169
0.202328
0.225932
0.241349
0.251691
0.258656
0.263301
0.266341
0.268278
0.269476
0.270184
0.270184
0.270603
0.270838