/*--------------------------------*- C++ -*----------------------------------*\
  =========                 |
  \\      /  F ield         | OpenFOAM: The Open Source CFD Toolbox
   \\    /   O peration     | Website:  https://openfoam.org
    \\  /    A nd           | Version:  6
     \\/     M anipulation  |
\*---------------------------------------------------------------------------*/
FoamFile
{
    version     2.0;
    format      ascii;
    class       volScalarField;
    location    "0.01";
    object      nut;
}
// * * * * * * * * * * * * * * * * * * * * * * * * * * * * * * * * * * * * * //

dimensions      [0 2 -1 0 0 0 0];

internalField   nonuniform List<scalar> 
3080
(
2.92657e-05
2.92116e-05
2.91572e-05
2.91023e-05
2.9047e-05
2.89914e-05
2.89353e-05
2.88787e-05
2.88218e-05
2.87643e-05
2.87065e-05
2.86481e-05
2.85893e-05
2.85299e-05
2.847e-05
2.84095e-05
2.83484e-05
2.82866e-05
2.82241e-05
2.81606e-05
2.8096e-05
2.80301e-05
2.79625e-05
2.78925e-05
2.78191e-05
2.77398e-05
2.76496e-05
2.75355e-05
2.73666e-05
2.7068e-05
0.000209338
0.000209055
0.000208769
0.000208481
0.000208191
0.000207898
0.000207603
0.000207305
0.000207004
0.000206701
0.000206394
0.000206085
0.000205772
0.000205455
0.000205133
0.000204807
0.000204475
0.000204136
0.000203789
0.000203432
0.000203061
0.000202672
0.000202257
0.000201805
0.000201289
0.00020066
0.000199792
0.000198389
0.000195572
0.000190019
0.000371405
0.000370965
0.000370522
0.000370075
0.000369625
0.000369171
0.000368713
0.00036825
0.000367783
0.000367312
0.000366835
0.000366354
0.000365866
0.000365372
0.000364871
0.000364362
0.000363844
0.000363314
0.000362771
0.00036221
0.000361628
0.000361015
0.000360362
0.000359646
0.000358832
0.000357845
0.000356513
0.000354446
0.000350659
0.000343748
0.000500838
0.000500312
0.000499781
0.000499245
0.000498705
0.000498161
0.000497611
0.000497055
0.000496495
0.000495928
0.000495355
0.000494775
0.000494188
0.000493594
0.00049299
0.000492377
0.000491752
0.000491113
0.000490457
0.000489781
0.000489077
0.000488338
0.000487549
0.000486687
0.000485711
0.000484539
0.000482992
0.000480688
0.000476785
0.000470263
0.000602744
0.000602196
0.000601644
0.000601086
0.000600524
0.000599956
0.000599383
0.000598804
0.000598218
0.000597626
0.000597027
0.00059642
0.000595806
0.000595183
0.00059455
0.000593907
0.000593251
0.00059258
0.000591892
0.000591181
0.000590441
0.000589664
0.000588836
0.000587933
0.000586914
0.0005857
0.000584132
0.000581876
0.00057829
0.000572718
0.000680494
0.000679981
0.000679462
0.000678939
0.000678411
0.000677878
0.000677339
0.000676793
0.000676242
0.000675683
0.000675118
0.000674545
0.000673964
0.000673375
0.000672776
0.000672166
0.000671544
0.000670907
0.000670253
0.000669577
0.000668874
0.000668135
0.000667348
0.00066649
0.000665527
0.000664388
0.000662942
0.000660926
0.000657881
0.000653417
0.000737448
0.000737006
0.00073656
0.000736109
0.000735654
0.000735194
0.000734729
0.000734257
0.00073378
0.000733296
0.000732806
0.000732308
0.000731803
0.000731291
0.000730769
0.000730237
0.000729694
0.000729138
0.000728566
0.000727975
0.000727359
0.000726712
0.000726022
0.000725272
0.000724432
0.000723447
0.000722214
0.00072054
0.000718118
0.000714732
0.000777342
0.000776989
0.000776632
0.000776272
0.000775908
0.00077554
0.000775167
0.000774789
0.000774406
0.000774016
0.000773621
0.00077322
0.000772812
0.000772398
0.000771975
0.000771545
0.000771104
0.000770652
0.000770187
0.000769706
0.000769204
0.000768677
0.000768114
0.000767503
0.000766821
0.000766026
0.000765044
0.000763744
0.000761926
0.000759485
0.00080403
0.000803766
0.000803499
0.00080323
0.000802958
0.000802683
0.000802404
0.000802121
0.000801833
0.00080154
0.000801242
0.000800939
0.000800631
0.000800317
0.000799997
0.00079967
0.000799335
0.000798991
0.000798637
0.000798269
0.000797886
0.000797483
0.000797053
0.000796586
0.000796066
0.000795465
0.000794731
0.000793779
0.000792488
0.000790812
0.000821092
0.000820906
0.000820718
0.000820529
0.000820338
0.000820145
0.000819949
0.000819749
0.000819545
0.000819338
0.000819126
0.000818911
0.000818692
0.000818468
0.000818239
0.000818005
0.000817765
0.000817519
0.000817264
0.000817
0.000816724
0.000816433
0.000816124
0.000815787
0.000815414
0.000814985
0.000814467
0.000813808
0.000812937
0.000811841
0.000831536
0.000831412
0.000831286
0.00083116
0.000831034
0.000830906
0.000830775
0.000830642
0.000830506
0.000830367
0.000830225
0.00083008
0.000829932
0.000829781
0.000829626
0.000829467
0.000829305
0.000829137
0.000828964
0.000828783
0.000828595
0.000828397
0.000828185
0.000827956
0.000827702
0.000827412
0.000827066
0.000826634
0.000826076
0.000825392
0.000837594
0.000837514
0.000837435
0.000837355
0.000837274
0.000837192
0.000837108
0.000837022
0.000836933
0.000836843
0.00083675
0.000836655
0.000836557
0.000836457
0.000836355
0.00083625
0.000836141
0.000836029
0.000835912
0.000835789
0.00083566
0.000835523
0.000835374
0.000835211
0.000835025
0.000834805
0.000834536
0.000834196
0.00083379
0.000841099
0.00084105
0.000841002
0.000840954
0.000840906
0.000840857
0.000840806
0.000840754
0.0008407
0.000840644
0.000840587
0.000840529
0.000840469
0.000840408
0.000840344
0.000840279
0.000840212
0.000840142
0.000840069
0.000839993
0.000839913
0.000839828
0.000839736
0.000839635
0.000839522
0.00083939
0.000839231
0.000839035
0.000838807
0.00084302
0.00084299
0.000842962
0.000842934
0.000842907
0.000842879
0.00084285
0.00084282
0.000842788
0.000842756
0.000842722
0.000842688
0.000842652
0.000842616
0.000842578
0.000842539
0.000842499
0.000842458
0.000842414
0.000842369
0.000842321
0.000842271
0.000842217
0.000842158
0.000842092
0.000842017
0.000841929
0.000841822
0.000841703
0.00084404
0.000844022
0.000844006
0.000843991
0.000843976
0.000843961
0.000843945
0.000843928
0.000843911
0.000843893
0.000843874
0.000843854
0.000843834
0.000843813
0.000843791
0.000843769
0.000843746
0.000843722
0.000843697
0.000843671
0.000843644
0.000843615
0.000843585
0.000843552
0.000843517
0.000843477
0.000843432
0.000843379
0.000843322
0.000844571
0.000844561
0.000844552
0.000844544
0.000844536
0.000844528
0.00084452
0.000844511
0.000844502
0.000844492
0.000844481
0.00084447
0.000844459
0.000844447
0.000844435
0.000844423
0.00084441
0.000844396
0.000844383
0.000844368
0.000844353
0.000844337
0.000844321
0.000844304
0.000844286
0.000844267
0.000844246
0.000844224
0.000844202
0.000844834
0.000844828
0.000844823
0.000844819
0.000844815
0.000844812
0.000844808
0.000844804
0.000844799
0.000844794
0.000844788
0.000844783
0.000844776
0.00084477
0.000844764
0.000844757
0.00084475
0.000844743
0.000844735
0.000844728
0.00084472
0.000844712
0.000844704
0.000844696
0.000844688
0.000844681
0.000844675
0.000844669
0.000844666
0.000844961
0.000844957
0.000844954
0.000844952
0.000844951
0.00084495
0.000844949
0.000844947
0.000844945
0.000844942
0.00084494
0.000844937
0.000844934
0.00084493
0.000844927
0.000844924
0.00084492
0.000844916
0.000844913
0.000844909
0.000844905
0.000844902
0.000844899
0.000844896
0.000844894
0.000844893
0.000844894
0.000844898
0.000844904
0.000845022
0.000845019
0.000845018
0.000845017
0.000845017
0.000845017
0.000845017
0.000845017
0.000845016
0.000845015
0.000845014
0.000845012
0.000845011
0.000845009
0.000845008
0.000845006
0.000845004
0.000845003
0.000845001
0.000844999
0.000844998
0.000844997
0.000844996
0.000844996
0.000844997
0.000845
0.000845005
0.000845012
0.000845023
0.000845051
0.000845049
0.000845048
0.000845048
0.000845049
0.00084505
0.00084505
0.000845051
0.000845051
0.000845051
0.00084505
0.000845049
0.000845049
0.000845048
0.000845047
0.000845047
0.000845046
0.000845045
0.000845044
0.000845044
0.000845044
0.000845044
0.000845044
0.000845045
0.000845048
0.000845052
0.000845059
0.000845068
0.000845081
0.000845066
0.000845064
0.000845063
0.000845063
0.000845064
0.000845065
0.000845067
0.000845067
0.000845068
0.000845068
0.000845068
0.000845068
0.000845067
0.000845067
0.000845067
0.000845066
0.000845066
0.000845066
0.000845066
0.000845066
0.000845066
0.000845066
0.000845067
0.000845069
0.000845073
0.000845077
0.000845085
0.000845094
0.000845108
0.000845072
0.000845071
0.00084507
0.00084507
0.000845072
0.000845073
0.000845074
0.000845075
0.000845076
0.000845076
0.000845076
0.000845076
0.000845076
0.000845076
0.000845076
0.000845076
0.000845076
0.000845076
0.000845076
0.000845076
0.000845077
0.000845077
0.000845079
0.000845081
0.000845084
0.000845089
0.000845096
0.000845106
0.00084512
0.000845075
0.000845074
0.000845073
0.000845074
0.000845075
0.000845077
0.000845078
0.000845079
0.00084508
0.00084508
0.000845081
0.000845081
0.000845081
0.000845081
0.000845081
0.000845081
0.000845081
0.000845081
0.000845081
0.000845081
0.000845082
0.000845083
0.000845084
0.000845086
0.00084509
0.000845095
0.000845102
0.000845112
0.000845124
0.000845077
0.000845075
0.000845075
0.000845075
0.000845077
0.000845078
0.00084508
0.000845081
0.000845082
0.000845082
0.000845083
0.000845083
0.000845083
0.000845083
0.000845083
0.000845083
0.000845083
0.000845083
0.000845083
0.000845084
0.000845084
0.000845085
0.000845087
0.000845089
0.000845092
0.000845097
0.000845104
0.000845114
0.000845126
0.000845077
0.000845076
0.000845075
0.000845076
0.000845078
0.000845079
0.000845081
0.000845082
0.000845083
0.000845083
0.000845084
0.000845084
0.000845084
0.000845084
0.000845084
0.000845084
0.000845084
0.000845084
0.000845084
0.000845085
0.000845085
0.000845086
0.000845088
0.00084509
0.000845093
0.000845098
0.000845105
0.000845114
0.000845127
0.000845078
0.000845076
0.000845076
0.000845077
0.000845078
0.00084508
0.000845081
0.000845082
0.000845083
0.000845084
0.000845084
0.000845084
0.000845084
0.000845084
0.000845085
0.000845085
0.000845085
0.000845085
0.000845085
0.000845085
0.000845086
0.000845087
0.000845088
0.000845091
0.000845094
0.000845099
0.000845105
0.000845115
0.000845127
0.000845078
0.000845077
0.000845076
0.000845077
0.000845078
0.00084508
0.000845082
0.000845083
0.000845084
0.000845084
0.000845084
0.000845085
0.000845085
0.000845085
0.000845085
0.000845085
0.000845085
0.000845085
0.000845085
0.000845086
0.000845086
0.000845087
0.000845089
0.000845091
0.000845094
0.000845099
0.000845106
0.000845115
0.000845127
0.000845078
0.000845077
0.000845077
0.000845077
0.000845079
0.00084508
0.000845082
0.000845083
0.000845084
0.000845084
0.000845085
0.000845085
0.000845085
0.000845085
0.000845085
0.000845085
0.000845085
0.000845085
0.000845086
0.000845086
0.000845087
0.000845088
0.000845089
0.000845091
0.000845095
0.000845099
0.000845106
0.000845115
0.000845128
0.000845079
0.000845077
0.000845077
0.000845077
0.000845079
0.00084508
0.000845082
0.000845083
0.000845084
0.000845084
0.000845084
0.000845085
0.000845085
0.000845085
0.000845085
0.000845085
0.000845085
0.000845085
0.000845085
0.000845086
0.000845086
0.000845087
0.000845089
0.000845091
0.000845095
0.000845099
0.000845106
0.000845116
0.000845128
0.000845079
0.000845077
0.000845077
0.000845077
0.000845079
0.00084508
0.000845082
0.000845083
0.000845083
0.000845084
0.000845084
0.000845084
0.000845084
0.000845084
0.000845084
0.000845084
0.000845085
0.000845085
0.000845085
0.000845085
0.000845086
0.000845087
0.000845088
0.000845091
0.000845094
0.000845099
0.000845106
0.000845116
0.000845128
0.000845078
0.000845077
0.000845076
0.000845077
0.000845078
0.000845079
0.00084508
0.000845081
0.000845082
0.000845083
0.000845083
0.000845083
0.000845083
0.000845083
0.000845083
0.000845083
0.000845083
0.000845083
0.000845083
0.000845084
0.000845084
0.000845085
0.000845087
0.000845089
0.000845092
0.000845097
0.000845105
0.000845114
0.000845127
0.000845076
0.000845075
0.000845074
0.000845075
0.000845076
0.000845077
0.000845078
0.000845079
0.000845079
0.00084508
0.00084508
0.00084508
0.00084508
0.000845079
0.000845079
0.000845079
0.000845079
0.000845079
0.000845079
0.000845079
0.00084508
0.000845081
0.000845082
0.000845084
0.000845088
0.000845093
0.0008451
0.00084511
0.000845123
0.000845071
0.00084507
0.000845069
0.000845069
0.00084507
0.000845071
0.000845072
0.000845072
0.000845073
0.000845073
0.000845073
0.000845072
0.000845072
0.000845072
0.000845071
0.000845071
0.000845071
0.00084507
0.00084507
0.00084507
0.00084507
0.00084507
0.000845071
0.000845073
0.000845076
0.000845081
0.000845088
0.000845098
0.000845111
0.000845061
0.000845059
0.000845058
0.000845058
0.000845058
0.000845058
0.000845059
0.000845059
0.000845059
0.000845058
0.000845057
0.000845057
0.000845056
0.000845055
0.000845054
0.000845053
0.000845052
0.00084505
0.000845049
0.000845048
0.000845047
0.000845047
0.000845047
0.000845047
0.000845049
0.000845053
0.000845058
0.000845067
0.00084508
0.000845038
0.000845035
0.000845034
0.000845032
0.000845032
0.000845031
0.00084503
0.000845029
0.000845028
0.000845026
0.000845024
0.000845022
0.00084502
0.000845017
0.000845014
0.000845012
0.000845009
0.000845006
0.000845003
0.000845
0.000844997
0.000844994
0.000844991
0.000844989
0.000844987
0.000844987
0.000844989
0.000844995
0.000845004
0.000844991
0.000844986
0.000844982
0.000844979
0.000844976
0.000844973
0.00084497
0.000844966
0.000844962
0.000844957
0.000844952
0.000844947
0.000844941
0.000844935
0.000844929
0.000844922
0.000844915
0.000844908
0.0008449
0.000844892
0.000844884
0.000844875
0.000844866
0.000844857
0.000844848
0.00084484
0.000844833
0.000844829
0.000844828
0.000844891
0.000844882
0.000844874
0.000844866
0.000844858
0.00084485
0.000844841
0.000844832
0.000844822
0.000844811
0.000844799
0.000844787
0.000844774
0.00084476
0.000844746
0.00084473
0.000844714
0.000844697
0.000844679
0.000844659
0.000844639
0.000844617
0.000844594
0.00084457
0.000844544
0.000844518
0.00084449
0.000844462
0.000844438
0.000844687
0.000844669
0.000844651
0.000844633
0.000844615
0.000844596
0.000844575
0.000844554
0.00084453
0.000844506
0.00084448
0.000844452
0.000844423
0.000844392
0.00084436
0.000844326
0.000844289
0.000844251
0.00084421
0.000844166
0.00084412
0.00084407
0.000844017
0.00084396
0.000843898
0.000843831
0.000843758
0.000843678
0.0008436
0.000844278
0.000844242
0.000844204
0.000844165
0.000844125
0.000844083
0.000844038
0.000843991
0.000843941
0.000843888
0.000843831
0.000843772
0.000843709
0.000843643
0.000843573
0.000843499
0.00084342
0.000843337
0.000843248
0.000843154
0.000843053
0.000842945
0.000842829
0.000842704
0.000842568
0.000842418
0.00084225
0.000842062
0.000841866
0.000843481
0.000843407
0.000843329
0.000843249
0.000843165
0.000843076
0.000842983
0.000842884
0.00084278
0.000842669
0.000842553
0.000842429
0.000842299
0.000842161
0.000842016
0.000841862
0.000841698
0.000841525
0.00084134
0.000841144
0.000840935
0.000840711
0.00084047
0.00084021
0.000839926
0.000839612
0.000839259
0.000838857
0.000838424
0.000841894
0.000841747
0.000841593
0.000841431
0.000841262
0.000841083
0.000840895
0.000840697
0.000840488
0.000840267
0.000840034
0.000839787
0.000839528
0.000839253
0.000838963
0.000838656
0.000838332
0.000837988
0.000837623
0.000837236
0.000836823
0.000836382
0.00083591
0.0008354
0.000834846
0.000834233
0.000833543
0.000832751
0.000831874
0.000838746
0.000838461
0.000838162
0.000837848
0.000837519
0.000837174
0.00083681
0.000836428
0.000836025
0.0008356
0.000835154
0.000834683
0.000834188
0.000833666
0.000833115
0.000832535
0.000831922
0.000831274
0.00083059
0.000829865
0.000829096
0.000828278
0.000827405
0.000826467
0.000825451
0.000824334
0.000823078
0.000821629
0.000819992
0.000832714
0.000832189
0.000831641
0.000831067
0.000830466
0.000829837
0.000829177
0.000828485
0.000827759
0.000826998
0.000826199
0.000825361
0.000824482
0.000823559
0.00082259
0.000821571
0.000820501
0.000819376
0.000818191
0.000816942
0.000815624
0.00081423
0.000812749
0.00081117
0.000809469
0.00080761
0.000805528
0.000803119
0.000800356
0.000821942
0.000821062
0.000820146
0.000819191
0.000818197
0.00081716
0.000816078
0.00081495
0.000813772
0.000812544
0.000811261
0.000809923
0.000808525
0.000807067
0.000805543
0.000803952
0.000802288
0.000800549
0.000798729
0.000796822
0.000794822
0.00079272
0.000790504
0.000788155
0.000785645
0.000782917
0.000779879
0.000776349
0.000772242
0.00080329
0.000801954
0.000800572
0.00079914
0.000797658
0.000796123
0.000794531
0.000792881
0.00079117
0.000789397
0.000787559
0.000785652
0.000783676
0.000781625
0.000779499
0.000777292
0.000775001
0.000772622
0.00077015
0.000767578
0.0007649
0.000762105
0.00075918
0.000756102
0.000752837
0.000749311
0.000745397
0.000740818
0.000735404
0.000771639
0.000769846
0.000768004
0.000766112
0.000764166
0.000762165
0.000760107
0.000757989
0.000755811
0.000753569
0.000751263
0.00074889
0.000746447
0.000743934
0.000741346
0.000738681
0.000735935
0.000733105
0.000730187
0.000727174
0.00072406
0.000720834
0.000717483
0.000713982
0.000710293
0.000706323
0.000701915
0.000696682
0.000690337
0.000724909
0.00072283
0.000720707
0.000718539
0.000716324
0.00071406
0.000711747
0.000709381
0.000706963
0.00070449
0.000701961
0.000699376
0.000696731
0.000694025
0.000691257
0.000688424
0.000685522
0.00068255
0.000679502
0.000676374
0.000673159
0.000669848
0.000666427
0.000662869
0.000659133
0.000655114
0.000650628
0.000645169
0.000638308
0.00066987
0.000667627
0.000665345
0.000663024
0.000660663
0.000658259
0.000655812
0.00065332
0.000650783
0.000648199
0.000645567
0.000642887
0.000640157
0.000637375
0.00063454
0.000631649
0.000628701
0.000625693
0.00062262
0.000619479
0.000616264
0.000612964
0.000609567
0.000606046
0.000602359
0.00059839
0.000593939
0.000588385
0.00058113
0.000604228
0.000601947
0.000599633
0.000597286
0.000594903
0.000592484
0.000590027
0.000587533
0.000585
0.000582428
0.000579816
0.000577162
0.000574465
0.000571725
0.000568938
0.000566105
0.000563221
0.000560284
0.00055729
0.000554232
0.000551104
0.000547891
0.000544568
0.000541094
0.00053735
0.000533126
0.000527709
0.000520306
0.000535006
0.000532856
0.00053068
0.000528475
0.000526242
0.000523979
0.000521685
0.000519361
0.000517006
0.000514618
0.000512197
0.000509743
0.000507255
0.00050473
0.000502169
0.000499568
0.000496927
0.000494242
0.00049151
0.000488726
0.000485881
0.000482966
0.000479954
0.00047681
0.000473413
0.000469561
0.000464471
0.000457151
0.000462031
0.000460102
0.000458152
0.000456179
0.000454183
0.000452163
0.000450119
0.00044805
0.000445956
0.000443835
0.000441689
0.000439515
0.000437314
0.000435084
0.000432824
0.000430533
0.000428209
0.00042585
0.000423452
0.000421012
0.000418522
0.000415972
0.000413342
0.000410597
0.000407627
0.000404241
0.000399633
0.000392608
0.000386767
0.000385113
0.000383442
0.000381753
0.000380046
0.00037832
0.000376574
0.000374809
0.000373024
0.000371218
0.000369392
0.000367544
0.000365674
0.000363782
0.000361866
0.000359925
0.000357958
0.000355964
0.000353938
0.000351879
0.00034978
0.000347633
0.000345419
0.00034311
0.00034061
0.000337746
0.00033374
0.000327222
0.000309987
0.000308636
0.000307271
0.000305892
0.000304499
0.000303092
0.000301669
0.000300232
0.000298779
0.000297311
0.000295827
0.000294326
0.000292809
0.000291274
0.000289721
0.00028815
0.000286558
0.000284945
0.000283309
0.000281646
0.000279953
0.000278223
0.000276441
0.000274583
0.000272574
0.000270262
0.000266958
0.000261175
0.000231841
0.000230805
0.00022976
0.000228705
0.00022764
0.000226564
0.000225477
0.00022438
0.000223272
0.000222152
0.000221021
0.000219878
0.000218724
0.000217557
0.000216377
0.000215183
0.000213975
0.000212752
0.000211513
0.000210254
0.000208974
0.000207667
0.000206324
0.000204924
0.000203416
0.000201675
0.000199156
0.000194378
0.000152126
0.000151421
0.000150709
0.000149991
0.000149267
0.000148536
0.000147798
0.000147053
0.000146301
0.000145543
0.000144777
0.000144004
0.000143223
0.000142435
0.000141638
0.000140834
0.00014002
0.000139197
0.000138364
0.000137519
0.000136662
0.000135787
0.000134891
0.000133957
0.000132962
0.000131807
0.000130145
0.000126708
7.16746e-05
7.13205e-05
7.09636e-05
7.06038e-05
7.02411e-05
6.98756e-05
6.9507e-05
6.91354e-05
6.87608e-05
6.83831e-05
6.80022e-05
6.76182e-05
6.72309e-05
6.68403e-05
6.64462e-05
6.60486e-05
6.56472e-05
6.52418e-05
6.4832e-05
6.44174e-05
6.39975e-05
6.35701e-05
6.31347e-05
6.26817e-05
6.22081e-05
6.16563e-05
6.08934e-05
5.92101e-05
7.34414e-06
7.30611e-06
7.26781e-06
7.22924e-06
7.1904e-06
7.15128e-06
7.11188e-06
7.07219e-06
7.03222e-06
6.99195e-06
6.95139e-06
6.91053e-06
6.86936e-06
6.82788e-06
6.78606e-06
6.74391e-06
6.70139e-06
6.65849e-06
6.61517e-06
6.57138e-06
6.52707e-06
6.48205e-06
6.43631e-06
6.38901e-06
6.34047e-06
6.28564e-06
6.22281e-06
6.10344e-06
2.71912e-05
2.7047e-05
2.68418e-05
2.65641e-05
2.624e-05
2.59098e-05
2.55817e-05
2.52489e-05
2.49073e-05
2.45551e-05
2.41915e-05
2.38158e-05
2.34274e-05
2.30258e-05
2.26106e-05
2.21811e-05
2.17372e-05
2.12776e-05
2.08041e-05
2.03108e-05
1.9813e-05
1.9274e-05
1.8778e-05
1.81683e-05
1.79238e-05
0.000195334
0.000197566
0.000197353
0.000196027
0.000194207
0.000192238
0.000190226
0.000188167
0.000186043
0.000183848
0.000181573
0.00017921
0.000176752
0.000174189
0.000171517
0.000168724
0.000165811
0.000162753
0.00015959
0.000156195
0.000152828
0.000148904
0.000145484
0.000140966
0.000140048
0.000349325
0.000352814
0.000352973
0.000351258
0.000348607
0.000345611
0.000342496
0.000339298
0.000336008
0.000332608
0.00032908
0.000325413
0.000321595
0.000317612
0.000313451
0.000309099
0.000304549
0.000299769
0.000294801
0.000289496
0.00028416
0.000278092
0.000272636
0.000266015
0.000265351
0.000474742
0.000478224
0.000478422
0.000476528
0.000473483
0.000469937
0.000466186
0.000462307
0.000458306
0.000454166
0.000449866
0.000445384
0.000440707
0.00043582
0.000430705
0.000425344
0.000419726
0.000413819
0.000407653
0.000401092
0.000394412
0.000386981
0.000380068
0.000372308
0.00037131
0.000575996
0.000578911
0.000578955
0.000577012
0.000573887
0.000570183
0.000566206
0.000562059
0.00055776
0.000553296
0.000548645
0.000543784
0.000538691
0.000533349
0.00052774
0.000521842
0.000515638
0.000509097
0.000502234
0.000494935
0.000487423
0.000479178
0.00047129
0.000462889
0.000461187
0.000655676
0.000657858
0.000657711
0.000655845
0.00065289
0.000649347
0.000645494
0.000641443
0.000637217
0.000632807
0.000628191
0.000623344
0.000618243
0.000612865
0.000607189
0.000601192
0.000594853
0.000588138
0.000581051
0.000573494
0.000565636
0.000557073
0.000548685
0.000540011
0.000537541
0.000716209
0.000717703
0.000717412
0.000715734
0.000713127
0.000709975
0.000706511
0.000702835
0.000698973
0.000694917
0.000690646
0.000686136
0.000681362
0.000676298
0.000670921
0.000665203
0.000659119
0.000652635
0.000645744
0.000638359
0.0006306
0.000622165
0.000613726
0.000605135
0.000601998
0.000760404
0.000761348
0.000760991
0.000759575
0.000757415
0.000754787
0.000751868
0.000748741
0.000745429
0.000741926
0.000738211
0.000734261
0.00073005
0.000725552
0.000720739
0.000715584
0.000710056
0.00070412
0.000697757
0.000690894
0.000683603
0.000675668
0.000667571
0.000659381
0.000655778
0.000791359
0.000791911
0.000791556
0.000790435
0.000788747
0.00078668
0.000784361
0.000781852
0.000779172
0.000776312
0.000773257
0.000769982
0.000766462
0.000762671
0.00075858
0.000754161
0.00074938
0.0007442
0.000738594
0.0007325
0.000725945
0.000718784
0.000711339
0.000703807
0.000699979
0.000812154
0.000812454
0.000812148
0.000811311
0.000810063
0.000808524
0.000806779
0.000804872
0.000802814
0.0008006
0.000798212
0.000795631
0.000792831
0.000789788
0.000786473
0.000782856
0.000778905
0.000774582
0.000769852
0.000764661
0.000759006
0.000752785
0.000746202
0.000739508
0.000735686
0.000825567
0.000825719
0.000825482
0.000824892
0.000824017
0.000822928
0.00082168
0.000820301
0.000818798
0.000817165
0.000815387
0.000813445
0.000811319
0.000808984
0.000806415
0.000803581
0.000800452
0.00079699
0.000793157
0.000788905
0.00078421
0.000778999
0.000773383
0.000767627
0.000764004
0.000833888
0.000833962
0.000833795
0.000833402
0.000832819
0.000832086
0.000831235
0.000830283
0.000829235
0.000828084
0.000826818
0.000825421
0.000823875
0.000822158
0.000820248
0.000818118
0.000815736
0.00081307
0.000810081
0.000806725
0.000802965
0.000798748
0.000794117
0.000789318
0.000786033
0.000838864
0.000838901
0.000838795
0.000838548
0.000838179
0.000837708
0.000837154
0.000836527
0.000835827
0.000835051
0.000834186
0.000833222
0.000832143
0.000830932
0.000829567
0.000828026
0.000826281
0.000824303
0.000822055
0.000819497
0.000816589
0.000813286
0.000809587
0.000805704
0.00080284
0.00084174
0.000841763
0.000841702
0.000841558
0.000841336
0.000841049
0.000840705
0.00084031
0.000839863
0.00083936
0.000838794
0.000838156
0.000837432
0.000836609
0.00083567
0.000834596
0.000833364
0.000831948
0.000830315
0.000828431
0.000826253
0.000823748
0.000820881
0.000817828
0.000815413
0.00084335
0.000843368
0.00084334
0.000843263
0.00084314
0.000842974
0.000842772
0.000842534
0.000842261
0.00084195
0.000841595
0.000841189
0.000840722
0.000840184
0.000839562
0.000838841
0.000838001
0.000837022
0.000835876
0.000834534
0.000832954
0.000831111
0.000828952
0.000826615
0.000824639
0.000844225
0.000844243
0.000844236
0.000844201
0.00084414
0.000844052
0.000843941
0.000843806
0.000843649
0.000843465
0.000843253
0.000843005
0.000842717
0.000842379
0.000841983
0.000841517
0.000840965
0.000840312
0.000839534
0.00083861
0.000837499
0.000836185
0.000834601
0.000832858
0.000831282
0.000844687
0.000844706
0.000844712
0.000844703
0.000844679
0.000844639
0.000844584
0.000844515
0.000844431
0.00084433
0.00084421
0.000844067
0.000843898
0.000843696
0.000843455
0.000843165
0.000842818
0.000842398
0.000841889
0.000841274
0.000840518
0.000839609
0.000838478
0.000837209
0.000835977
0.000844924
0.000844943
0.000844957
0.000844963
0.000844961
0.00084495
0.00084493
0.0008449
0.000844861
0.000844811
0.00084475
0.000844674
0.000844582
0.000844468
0.00084433
0.00084416
0.000843951
0.000843694
0.000843375
0.000842981
0.000842484
0.000841877
0.000841088
0.000840185
0.000839238
0.000845042
0.000845062
0.000845079
0.000845094
0.000845105
0.00084511
0.00084511
0.000845104
0.000845092
0.000845074
0.000845048
0.000845014
0.000844969
0.000844912
0.00084484
0.000844748
0.000844631
0.000844483
0.000844294
0.000844055
0.000843741
0.000843351
0.000842814
0.000842184
0.000841463
0.000845099
0.000845118
0.000845138
0.000845158
0.000845175
0.00084519
0.000845201
0.000845209
0.000845213
0.000845214
0.000845209
0.0008452
0.000845185
0.000845163
0.000845131
0.000845089
0.000845031
0.000844955
0.000844852
0.000844718
0.000844531
0.000844292
0.000843935
0.000843505
0.000842957
0.000845125
0.000845144
0.000845165
0.000845187
0.000845208
0.000845228
0.000845246
0.000845262
0.000845275
0.000845286
0.000845295
0.0008453
0.000845303
0.000845301
0.000845295
0.000845283
0.000845263
0.000845232
0.000845186
0.000845121
0.000845018
0.000844883
0.000844651
0.000844361
0.000843943
0.000845136
0.000845155
0.000845176
0.000845199
0.000845222
0.000845245
0.000845267
0.000845287
0.000845306
0.000845323
0.000845339
0.000845353
0.000845366
0.000845377
0.000845386
0.000845392
0.000845395
0.000845393
0.000845381
0.000845361
0.000845314
0.000845248
0.000845101
0.000844908
0.000844583
0.00084514
0.000845159
0.00084518
0.000845203
0.000845227
0.000845252
0.000845276
0.000845299
0.000845321
0.000845341
0.000845361
0.00084538
0.000845399
0.000845417
0.000845434
0.000845452
0.000845468
0.000845484
0.000845495
0.000845502
0.000845491
0.000845469
0.000845379
0.00084525
0.000844992
0.000845142
0.00084516
0.000845181
0.000845204
0.000845229
0.000845254
0.000845279
0.000845304
0.000845327
0.00084535
0.000845372
0.000845394
0.000845415
0.000845437
0.00084546
0.000845484
0.000845509
0.000845534
0.000845558
0.000845583
0.000845594
0.000845601
0.000845546
0.00084546
0.000845248
0.000845142
0.00084516
0.000845181
0.000845204
0.000845229
0.000845255
0.00084528
0.000845305
0.00084533
0.000845354
0.000845377
0.0008454
0.000845423
0.000845448
0.000845473
0.000845501
0.00084553
0.000845561
0.000845593
0.000845628
0.000845652
0.000845676
0.000845644
0.000845584
0.000845402
0.000845142
0.00084516
0.00084518
0.000845204
0.000845229
0.000845254
0.00084528
0.000845306
0.000845331
0.000845355
0.000845379
0.000845403
0.000845427
0.000845452
0.000845479
0.000845509
0.00084554
0.000845575
0.000845611
0.000845651
0.000845683
0.000845716
0.000845698
0.000845652
0.00084549
0.000845142
0.00084516
0.00084518
0.000845203
0.000845228
0.000845254
0.00084528
0.000845306
0.000845331
0.000845355
0.000845379
0.000845403
0.000845428
0.000845454
0.000845481
0.000845511
0.000845544
0.00084558
0.000845618
0.00084566
0.000845695
0.000845733
0.000845721
0.000845682
0.000845532
0.000845142
0.00084516
0.000845181
0.000845204
0.000845229
0.000845254
0.00084528
0.000845306
0.00084533
0.000845355
0.000845379
0.000845403
0.000845427
0.000845453
0.00084548
0.00084551
0.000845543
0.000845579
0.000845616
0.000845659
0.000845694
0.000845732
0.000845722
0.000845683
0.000845537
0.000845143
0.000845161
0.000845182
0.000845205
0.000845229
0.000845255
0.00084528
0.000845305
0.00084533
0.000845353
0.000845377
0.0008454
0.000845424
0.000845449
0.000845475
0.000845504
0.000845535
0.000845569
0.000845604
0.000845643
0.000845674
0.000845706
0.000845689
0.000845641
0.000845489
0.000845144
0.000845162
0.000845183
0.000845206
0.00084523
0.000845255
0.00084528
0.000845305
0.000845328
0.000845351
0.000845373
0.000845395
0.000845417
0.00084544
0.000845464
0.00084549
0.000845517
0.000845547
0.000845576
0.000845607
0.000845627
0.000845645
0.000845612
0.000845544
0.000845371
0.000845143
0.000845162
0.000845183
0.000845206
0.00084523
0.000845255
0.000845278
0.000845301
0.000845323
0.000845344
0.000845364
0.000845383
0.000845402
0.000845422
0.000845442
0.000845462
0.000845482
0.000845502
0.000845519
0.000845534
0.000845535
0.000845527
0.000845461
0.000845355
0.000845143
0.00084514
0.000845159
0.000845181
0.000845203
0.000845227
0.00084525
0.000845271
0.000845292
0.00084531
0.000845327
0.000845343
0.000845358
0.000845372
0.000845384
0.000845395
0.000845404
0.000845411
0.000845413
0.000845408
0.000845395
0.00084536
0.000845306
0.000845183
0.000845012
0.000844732
0.000845129
0.000845149
0.00084517
0.000845192
0.000845214
0.000845234
0.000845251
0.000845267
0.00084528
0.00084529
0.000845298