/*--------------------------------*- C++ -*----------------------------------*\
  =========                 |
  \\      /  F ield         | OpenFOAM: The Open Source CFD Toolbox
   \\    /   O peration     | Website:  https://openfoam.org
    \\  /    A nd           | Version:  6
     \\/     M anipulation  |
\*---------------------------------------------------------------------------*/
FoamFile
{
    version     2.0;
    format      ascii;
    class       volScalarField;
    location    "0.01";
    object      p;
}
// * * * * * * * * * * * * * * * * * * * * * * * * * * * * * * * * * * * * * //

dimensions      [0 2 -2 0 0 0 0];

internalField   nonuniform List<scalar> 
3080
(
0.195894
0.195648
0.1954
0.195152
0.194902
0.194651
0.1944
0.194147
0.193894
0.19364
0.193387
0.193134
0.192882
0.192633
0.192386
0.192144
0.191908
0.191682
0.191469
0.191273
0.191103
0.190968
0.190884
0.190874
0.19098
0.191273
0.191912
0.193181
0.19611
0.201272
0.195864
0.195618
0.195372
0.195124
0.194875
0.194625
0.194373
0.194122
0.193869
0.193617
0.193364
0.193112
0.192862
0.192614
0.192369
0.192129
0.191897
0.191674
0.191466
0.191277
0.191114
0.19099
0.190919
0.190927
0.191056
0.191373
0.192027
0.193238
0.195897
0.200096
0.195842
0.195597
0.195351
0.195103
0.194855
0.194605
0.194355
0.194104
0.193852
0.1936
0.193349
0.193098
0.192849
0.192602
0.19236
0.192122
0.191893
0.191674
0.191471
0.191288
0.191134
0.19102
0.190963
0.190989
0.191139
0.191478
0.192141
0.193284
0.195582
0.198485
0.195828
0.195584
0.195338
0.195091
0.194842
0.194593
0.194343
0.194092
0.193841
0.19359
0.193339
0.193088
0.19284
0.192594
0.192353
0.192117
0.191889
0.191672
0.191471
0.191291
0.191141
0.191031
0.190979
0.191008
0.191157
0.191481
0.192089
0.193071
0.194857
0.196762
0.195817
0.195573
0.195328
0.195081
0.194833
0.194583
0.194333
0.194083
0.193832
0.19358
0.19333
0.19308
0.192832
0.192586
0.192344
0.192109
0.191881
0.191664
0.191463
0.191283
0.191131
0.191019
0.190962
0.190981
0.19111
0.191391
0.191903
0.192684
0.193983
0.195167
0.195809
0.195565
0.195319
0.195072
0.194824
0.194575
0.194325
0.194075
0.193823
0.193572
0.193321
0.193071
0.192822
0.192577
0.192334
0.192098
0.191869
0.191651
0.191447
0.191264
0.191107
0.190988
0.190918
0.190918
0.191012
0.191233
0.191631
0.192209
0.193097
0.19374
0.195802
0.195558
0.195313
0.195066
0.194818
0.194569
0.194318
0.194068
0.193816
0.193565
0.193313
0.193062
0.192813
0.192566
0.192323
0.192085
0.191854
0.191632
0.191425
0.191235
0.19107
0.190939
0.190852
0.190824
0.190875
0.191025
0.191303
0.191689
0.192238
0.192468
0.195797
0.195553
0.195307
0.19506
0.194812
0.194563
0.194313
0.194062
0.19381
0.193558
0.193306
0.193054
0.192804
0.192555
0.19231
0.192069
0.191835
0.191609
0.191396
0.191199
0.191023
0.190876
0.190766
0.190706
0.190707
0.190781
0.190941
0.191151
0.19142
0.191336
0.195793
0.195549
0.195303
0.195056
0.194808
0.194558
0.194308
0.194056
0.193804
0.193551
0.193298
0.193046
0.192794
0.192544
0.192296
0.192052
0.191814
0.191583
0.191362
0.191155
0.190966
0.190801
0.190666
0.190569
0.190517
0.190515
0.190561
0.190613
0.190652
0.19033
0.195789
0.195545
0.195299
0.195052
0.194804
0.194554
0.194303
0.194051
0.193798
0.193545
0.193291
0.193037
0.192784
0.192531
0.192281
0.192034
0.19179
0.191553
0.191325
0.191107
0.190903
0.190718
0.190555
0.19042
0.190314
0.190237
0.190177
0.190089
0.18994
0.189436
0.195786
0.195542
0.195296
0.195049
0.1948
0.19455
0.194299
0.194046
0.193793
0.193538
0.193283
0.193028
0.192773
0.192518
0.192265
0.192013
0.191765
0.191521
0.191284
0.191054
0.190834
0.190628
0.190437
0.190262
0.190104
0.189954
0.189798
0.189587
0.189283
0.188638
0.195539
0.195293
0.195046
0.194797
0.194546
0.194295
0.194042
0.193787
0.193532
0.193276
0.193019
0.192762
0.192505
0.192248
0.191992
0.191739
0.191488
0.19124
0.190998
0.190762
0.190534
0.190314
0.190101
0.189891
0.189674
0.18943
0.189112
0.18868
0.187924
0.195536
0.19529
0.195043
0.194793
0.194543
0.19429
0.194037
0.193782
0.193525
0.193268
0.19301
0.19275
0.19249
0.19223
0.19197
0.191711
0.191452
0.191196
0.190941
0.190688
0.190439
0.19019
0.189939
0.189681
0.189401
0.189078
0.188667
0.188128
0.187285
0.195533
0.195287
0.195039
0.19479
0.194539
0.194286
0.194032
0.193776
0.193519
0.19326
0.193
0.192739
0.192476
0.192212
0.191948
0.191683
0.191417
0.19115
0.190883
0.190614
0.190342
0.190066
0.18978
0.189475
0.189138
0.188745
0.188253
0.187625
0.186711
0.19553
0.195284
0.195036
0.194786
0.194535
0.194282
0.194027
0.19377
0.193512
0.193252
0.19299
0.192727
0.192461
0.192194
0.191925
0.191654
0.191381
0.191104
0.190824
0.190539
0.190247
0.189944
0.189624
0.189277
0.188888
0.188432
0.18787
0.187167
0.186196
0.195527
0.195281
0.195033
0.194783
0.194531
0.194277
0.194022
0.193764
0.193505
0.193244
0.19298
0.192715
0.192447
0.192176
0.191902
0.191626
0.191345
0.191059
0.190767
0.190466
0.190154
0.189826
0.189475
0.189088
0.188651
0.18814
0.187518
0.186751
0.185734
0.195524
0.195278
0.195029
0.194779
0.194527
0.194273
0.194017
0.193759
0.193498
0.193236
0.192971
0.192703
0.192432
0.192158
0.19188
0.191598
0.19131
0.191015
0.190711
0.190396
0.190065
0.189713
0.189333
0.188911
0.188431
0.187871
0.187196
0.186376
0.18532
0.195521
0.195274
0.195026
0.194775
0.194523
0.194269
0.194012
0.193753
0.193492
0.193228
0.192961
0.192692
0.192418
0.192141
0.191859
0.191571
0.191277
0.190973
0.190658
0.190329
0.189981
0.189608
0.189201
0.188747
0.188229
0.187626
0.186906
0.186039
0.184952
0.195518
0.195271
0.195023
0.194772
0.194519
0.194264
0.194007
0.193748
0.193486
0.193221
0.192953
0.192681
0.192405
0.192125
0.191839
0.191547
0.191246
0.190934
0.190609
0.190268
0.189904
0.189511
0.18908
0.188597
0.188046
0.187406
0.186646
0.18574
0.184626
0.195515
0.195268
0.195019
0.194769
0.194516
0.19426
0.194003
0.193743
0.19348
0.193214
0.192944
0.192671
0.192393
0.19211
0.191821
0.191524
0.191217
0.190898
0.190564
0.190211
0.189833
0.189423
0.18897
0.188462
0.187882
0.187209
0.186416
0.185476
0.184341
0.195512
0.195265
0.195016
0.194765
0.194512
0.194256
0.193998
0.193738
0.193474
0.193207
0.192937
0.192662
0.192382
0.192096
0.191804
0.191503
0.191191
0.190866
0.190524
0.19016
0.189769
0.189343
0.188872
0.188342
0.187736
0.187036
0.186214
0.185247
0.184093
0.195509
0.195262
0.195013
0.194762
0.194509
0.194253
0.193994
0.193733
0.193469
0.193201
0.192929
0.192653
0.192372
0.192084
0.191789
0.191484
0.191167
0.190837
0.190487
0.190115
0.189713
0.189274
0.188786
0.188237
0.18761
0.186886
0.186041
0.18505
0.183881
0.195506
0.195259
0.19501
0.194759
0.194505
0.194249
0.193991
0.193729
0.193464
0.193196
0.192923
0.192646
0.192363
0.192073
0.191775
0.191467
0.191147
0.190811
0.190456
0.190076
0.189665
0.189214
0.188713
0.188148
0.187504
0.18676
0.185895
0.184885
0.183704
0.195503
0.195257
0.195007
0.194756
0.194502
0.194246
0.193987
0.193725
0.19346
0.193191
0.192917
0.192639
0.192355
0.192063
0.191764
0.191453
0.19113
0.19079
0.19043
0.190043
0.189625
0.189164
0.188652
0.188075
0.187416
0.186657
0.185777
0.184752
0.183561
0.195501
0.195254
0.195005
0.194753
0.194499
0.194243
0.193984
0.193721
0.193456
0.193186
0.192912
0.192633
0.192348
0.192055
0.191754
0.191441
0.191115
0.190772
0.190408
0.190017
0.189592
0.189125
0.188605
0.188017
0.187348
0.186578
0.185685
0.184649
0.18345
0.195498
0.195251
0.195002
0.194751
0.194497
0.19424
0.193981
0.193718
0.193452
0.193183
0.192908
0.192628
0.192342
0.192049
0.191746
0.191432
0.191104
0.190759
0.190392
0.189997
0.189568
0.189096
0.18857
0.187976
0.187299
0.18652
0.18562
0.184576
0.183372
0.195496
0.195249
0.195
0.194748
0.194494
0.194238
0.193978
0.193716
0.193449
0.193179
0.192905
0.192625
0.192338
0.192044
0.19174
0.191426
0.191097
0.19075
0.190381
0.189984
0.189553
0.189078
0.188548
0.18795
0.187269
0.186486
0.185581
0.184534
0.183325
0.195493
0.195246
0.194997
0.194746
0.194492
0.194235
0.193976
0.193713
0.193447
0.193177
0.192902
0.192621
0.192335
0.19204
0.191736
0.191421
0.191091
0.190744
0.190375
0.189977
0.189545
0.189069
0.188538
0.187939
0.187257
0.186473
0.185567
0.184519
0.183309
0.195491
0.195244
0.194995
0.194743
0.194489
0.194233
0.193973
0.193711
0.193445
0.193174
0.1929
0.192619
0.192333
0.192038
0.191735
0.19142
0.19109
0.190744
0.190375
0.189979
0.189548
0.189073
0.188545
0.187949
0.18727
0.18649
0.185589
0.184545
0.183337
0.195488
0.195241
0.194992
0.194741
0.194487
0.194231
0.193971
0.193709
0.193443
0.193173
0.192898
0.192618
0.192332
0.192038
0.191735
0.191421
0.191094
0.190749
0.190382
0.189989
0.189562
0.189093
0.18857
0.187981
0.18731
0.18654
0.185648
0.184614
0.18341
0.195485
0.195239
0.19499
0.194739
0.194485
0.194229
0.19397
0.193707
0.193442
0.193172
0.192898
0.192619
0.192333
0.19204
0.191739
0.191427
0.191101
0.190759
0.190397
0.190008
0.189588
0.189126
0.188613
0.188035
0.187378
0.186621
0.185744
0.184725
0.183531
0.195483
0.195237
0.194988
0.194737
0.194483
0.194227
0.193968
0.193706
0.193441
0.193172
0.192898
0.19262
0.192336
0.192044
0.191745
0.191435
0.191113
0.190775
0.190418
0.190037
0.189624
0.189173
0.188673
0.188111
0.187471
0.186734
0.185878
0.184879
0.1837
0.195481
0.195234
0.194986
0.194735
0.194482
0.194226
0.193967
0.193706
0.193441
0.193172
0.1929
0.192622
0.19234
0.19205
0.191753
0.191446
0.191128
0.190796
0.190446
0.190073
0.189672
0.189234
0.188751
0.188208
0.187591
0.18688
0.18605
0.185078
0.183918
0.195478
0.195232
0.194984
0.194733
0.19448
0.194225
0.193967
0.193706
0.193441
0.193174
0.192902
0.192626
0.192345
0.192058
0.191764
0.191461
0.191148
0.190822
0.19048
0.190117
0.189729
0.189308
0.188844
0.188326
0.187737
0.187057
0.186261
0.185322
0.184187
0.195476
0.19523
0.194982
0.194732
0.194479
0.194224
0.193966
0.193706
0.193442
0.193175
0.192905
0.19263
0.192351
0.192067
0.191776
0.191478
0.19117
0.190852
0.190519
0.190169
0.189796
0.189394
0.188954
0.188464
0.187909
0.187267
0.186511
0.185614
0.184509
0.195474
0.195228
0.19498
0.19473
0.194478
0.194223
0.193966
0.193706
0.193443
0.193178
0.192909
0.192636
0.192359
0.192077
0.19179
0.191497
0.191196
0.190886
0.190563
0.190227
0.189871
0.189491
0.189078
0.188621
0.188105
0.187509
0.186801
0.185956
0.184888
0.195472
0.195226
0.194979
0.194729
0.194477
0.194223
0.193966
0.193707
0.193445
0.19318
0.192913
0.192642
0.192368
0.192089
0.191806
0.191518
0.191224
0.190923
0.190612
0.19029
0.189954
0.189598
0.189215
0.188796
0.188325
0.187782
0.187132
0.186349
0.185328
0.19547
0.195224
0.194977
0.194728
0.194476
0.194222
0.193966
0.193708
0.193447
0.193184
0.192918
0.192649
0.192377
0.192102
0.191823
0.191541
0.191254
0.190962
0.190664
0.190359
0.190043
0.189713
0.189364
0.188987
0.188567
0.188086
0.187504
0.186798
0.185832
0.195468
0.195223
0.194976
0.194727
0.194475
0.194222
0.193967
0.193709
0.193449
0.193187
0.192923
0.192656
0.192387
0.192115
0.191841
0.191565
0.191286
0.191004
0.190719
0.19043
0.190136
0.189835
0.189522
0.189192
0.18883
0.18842
0.187917
0.187306
0.186405
0.195466
0.195221
0.194974
0.194726
0.194475
0.194222
0.193967
0.19371
0.193451
0.193191
0.192928
0.192663
0.192397
0.192129
0.191859
0.191589
0.191318
0.191046
0.190774
0.190503
0.190232
0.189961
0.189687
0.189408
0.189109
0.188782
0.18837
0.187878
0.187053
0.195464
0.195219
0.194973
0.194725
0.194474
0.194222
0.193968
0.193712
0.193454
0.193194
0.192933
0.19267
0.192407
0.192142
0.191878
0.191613
0.19135
0.191089
0.19083
0.190577
0.19033
0.19009
0.189857
0.189632
0.189403
0.18917
0.188864
0.188522
0.187783
0.195462
0.195218
0.194972
0.194724
0.194474
0.194222
0.193969
0.193713
0.193456
0.193198
0.192938
0.192678
0.192417
0.192156
0.191896
0.191638
0.191382
0.191131
0.190886
0.19065
0.190427
0.190219
0.190028
0.189861
0.189707
0.189582
0.189393
0.189246
0.188598
0.195461
0.195217
0.194971
0.194723
0.194474
0.194223
0.19397
0.193715
0.193459
0.193202
0.192944
0.192686
0.192427
0.19217
0.191914
0.191661
0.191412
0.191171
0.190939
0.190719
0.190518
0.19034
0.19019
0.19008
0.190001
0.189992
0.189926
0.190029
0.189456
0.19546
0.195217
0.194971
0.194724
0.194475
0.194224
0.193972
0.193718
0.193463
0.193207
0.19295
0.192694
0.192438
0.192183
0.191931
0.191682
0.19144
0.191207
0.190985
0.19078
0.190597
0.190445
0.190331
0.190274
0.190262
0.190373
0.190421
0.190824
0.190299
0.195462
0.195218
0.194973
0.194726
0.194478
0.194228
0.193976
0.193723
0.193468
0.193213
0.192958
0.192703
0.192449
0.192196
0.191947
0.191703
0.191466
0.191238
0.191025
0.190832
0.190665
0.190535
0.190449
0.19044
0.190485
0.190715
0.190861
0.191615
0.191106
0.195465
0.195222
0.194977
0.194731
0.194483
0.194233
0.193981
0.193729
0.193475
0.193221
0.192967
0.192713
0.19246
0.192209
0.191962
0.191721
0.191488
0.191265
0.191059
0.190874
0.190719
0.190606
0.190544
0.190574
0.190665
0.191011
0.191235
0.192386
0.191865
0.195469
0.195226
0.194981
0.194735
0.194487
0.194237
0.193986
0.193734
0.19348
0.193227
0.192973
0.192719
0.192467
0.192218
0.191972
0.191733
0.191502
0.191283
0.19108
0.190902
0.190754
0.190654
0.190607
0.19067
0.190792
0.191248
0.191523
0.19311
0.192549
0.195472
0.19523
0.194985
0.194739
0.194491
0.194241
0.19399
0.193738
0.193485
0.193231
0.192977
0.192724
0.192473
0.192224
0.191979
0.19174
0.19151
0.191293
0.191093
0.190917
0.190774
0.190681
0.190643
0.19073
0.190871
0.191423
0.191726
0.19376
0.193149
0.195232
0.194988
0.194741
0.194493
0.194244
0.193993
0.19374
0.193487
0.193234
0.19298
0.192727
0.192475
0.192226
0.191982
0.191743
0.191513
0.191296
0.191097
0.190923
0.190781
0.190692
0.190658
0.19076
0.190908
0.19154
0.191852
0.194319
0.193668
0.195233
0.194989
0.194742
0.194494
0.194244
0.193993
0.193741
0.193487
0.193234
0.19298
0.192726
0.192475
0.192225
0.19198
0.191741
0.191511
0.191294
0.191094
0.190919
0.190776
0.190688
0.190653
0.190765
0.190911
0.191602
0.191909
0.194768
0.194106
0.195231
0.194986
0.19474
0.194491
0.194241
0.19399
0.193738
0.193484
0.19323
0.192976
0.192722
0.19247
0.19222
0.191974
0.191734
0.191503
0.191285
0.191083
0.190907
0.190762
0.190672
0.190633
0.190747
0.190885
0.191613
0.191907
0.195092
0.194467
0.195225
0.19498
0.194734
0.194485
0.194235
0.193983
0.193731
0.193477
0.193222
0.192968
0.192713
0.192461
0.19221
0.191963
0.191723
0.19149
0.19127
0.191066
0.190887
0.190739
0.190645
0.1906
0.19071
0.190836
0.191579
0.191854
0.19528
0.194753
0.195215
0.19497
0.194723
0.194475
0.194224
0.193972
0.193719
0.193465
0.19321
0.192955
0.1927
0.192447
0.192195
0.191947
0.191705
0.191471
0.191249
0.191043
0.19086
0.190708
0.190609
0.190556
0.190657
0.19077
0.191505
0.191761
0.195325
0.194967
0.1952
0.194955
0.194707
0.194458
0.194208
0.193956
0.193702
0.193447
0.193192
0.192936
0.192681
0.192426
0.192174
0.191925
0.191682
0.191446
0.191221
0.191012
0.190826
0.190668
0.190562
0.190501
0.190589
0.190687
0.191391
0.191629
0.195199
0.195096
0.195178
0.194932
0.194685
0.194435
0.194184
0.193932
0.193678
0.193423
0.193167
0.19291
0.192654
0.192399
0.192146
0.191895
0.19165
0.191412
0.191185
0.190972
0.190782
0.190619
0.190505
0.190434
0.190504
0.190587
0.191238
0.191461
0.194867
0.195104
0.195153
0.194907
0.194659
0.19441
0.194158
0.193906
0.193651
0.193396
0.193139
0.192882
0.192625
0.192369
0.192114
0.191863
0.191616
0.191376
0.191146
0.19093
0.190735
0.190567
0.190445
0.190365
0.190417
0.190484
0.191072
0.191282
0.194385
0.194983
0.195138
0.194892
0.194644
0.194394
0.194143
0.193889
0.193635
0.193379
0.193122
0.192864
0.192607
0.19235
0.192095
0.191843
0.191595
0.191354
0.191122
0.190904
0.190707
0.190535
0.190408
0.190322
0.190362
0.19042
0.190969
0.191166
0.194059
0.194867
0.215735
0.205597
0.195774
0.191329
0.187474
0.18293
0.17845
0.174129
0.169719
0.165119
0.160283
0.15515
0.149653
0.14373
0.137317
0.13033
0.122721
0.114296
0.10522
0.0946553
0.0842041
0.0694721
0.0598945
0.0328217
0.0373764
0.208711
0.201275
0.19355
0.189614
0.185892
0.181501
0.177122
0.172838
0.168443
0.163851
0.159019
0.153884
0.148381
0.142449
0.136026
0.129025
0.121401
0.112957
0.103867
0.0932686
0.0828142
0.067993
0.0584817
0.0310606
0.0354707
0.203177
0.197811
0.191728
0.188083
0.184444
0.180218
0.175946
0.171696
0.167311
0.162723
0.157884
0.152736
0.147216
0.141263
0.134816
0.127787
0.120137
0.111654
0.102545
0.0918728
0.0814469
0.0664174
0.0571436
0.0289754
0.0338623
0.199468
0.195342
0.190348
0.186852
0.183267
0.179192
0.175028
0.170821
0.166457
0.161877
0.157038
0.151881
0.146347
0.140376
0.133907
0.126852
0.119178
0.110656
0.101532
0.0907806
0.0803968
0.0651405
0.0561367
0.027251
0.0329469
0.196689
0.193326
0.189114
0.185756
0.182241
0.178308
0.174246
0.170089
0.165753
0.161188
0.156353
0.151192
0.145649
0.139664
0.133179
0.126101
0.118408
0.10985
0.100716
0.0898906
0.0795508
0.0640878
0.0553318
0.0258857
0.0324232
0.194442
0.191579
0.187955
0.184744
0.181315
0.177514
0.173548
0.169444
0.165139
0.160592
0.155763
0.150601
0.145051
0.139054
0.132553
0.125456
0.117744
0.109154
0.10001
0.0891157
0.0788175
0.0631682
0.0546356
0.0247498
0.0320737
0.192598
0.190079
0.186892
0.183824
0.180491
0.176811
0.172934
0.168882
0.16461
0.160083
0.155262
0.150099
0.144544
0.138536
0.132021
0.124905
0.117176
0.108554
0.0994016
0.0884416
0.078182
0.0623631
0.0540344
0.0237912
0.0318373
0.191077
0.188797
0.185934
0.182998
0.179764
0.176194
0.172401
0.168402
0.164164
0.159657
0.154845
0.149684
0.144124
0.138107
0.13158
0.124446
0.116701
0.10805
0.098889
0.0878682
0.0776439
0.061672
0.0535292
0.0229944
0.031694
0.189804
0.187696
0.185073
0.182259
0.179121
0.175653
0.171938
0.16799
0.163787
0.159302
0.154502
0.149345
0.143782
0.137757
0.13122
0.12407
0.116311
0.107633
0.0984647
0.0873885
0.0771966
0.0610888
0.053114
0.0223446
0.0316225
0.188722
0.186739
0.184299
0.181594
0.178548
0.175173
0.171531
0.167635
0.163467
0.159005
0.154218
0.149066
0.143503
0.137473
0.130927
0.123764
0.115993
0.107291
0.0981166
0.0869909
0.0768287
0.0606019
0.0527781
0.0218227
0.0316015
0.18779
0.185899
0.183599
0.180991
0.178032
0.174742
0.171168
0.167322
0.16319
0.158752
0.15398
0.148835
0.143273
0.13724
0.130688
0.123514
0.115733
0.107012
0.0978317
0.0866627
0.0765279
0.0601985
0.0525096
0.021409
0.0316134
0.186976
0.185157
0.182963
0.180441
0.177562
0.17435
0.17084
0.167042
0.162946
0.158533
0.153777
0.14864
0.143082
0.137047
0.130491
0.123309
0.11552
0.106782
0.0975981
0.0863916
0.0762823
0.0598654
0.0522967
0.0210851
0.0316443
0.186259
0.184495
0.182385
0.179937
0.177131
0.173989
0.17054
0.166788
0.162727
0.158339
0.153599
0.148473
0.142919
0.136885
0.130326
0.123138
0.115343
0.106591
0.0974049
0.0861666
0.0760809
0.0595904
0.0521283
0.0208339
0.0316839
0.185624
0.183903
0.181859
0.179474
0.176733
0.173656
0.170261
0.166554
0.162527
0.158164
0.153442
0.148326
0.142778
0.136745
0.130185
0.122993
0.115194
0.10643
0.0972429
0.0859779
0.0759139
0.0593624
0.0519941
0.0206406
0.0317243
0.185059
0.183371
0.181379
0.17905
0.176367
0.173347
0.170003
0.166337
0.162343
0.158004
0.153298
0.148194
0.142652
0.136623
0.130062
0.122867
0.115065
0.106291
0.0971047
0.0858175
0.0757735
0.0591719
0.0518857
0.0204925
0.0317601
0.184555
0.182895
0.180944
0.178661
0.176029
0.17306
0.169762
0.166135
0.162172
0.157856
0.153167
0.148074
0.142539
0.136513
0.129953
0.122756
0.114951
0.106171
0.0969845
0.0856792
0.0756531
0.0590112
0.0517961
0.0203792
0.0317878
0.184107
0.182468
0.18055
0.178306
0.175719
0.172796
0.16954
0.165948
0.162013
0.157719
0.153046
0.147964
0.142436
0.136413
0.129855
0.122656
0.11485
0.106064
0.0968784
0.0855583
0.075548
0.0588742
0.0517199
0.0202925
0.0318059
0.183708
0.182088
0.180196
0.177985
0.175437
0.172554
0.169334
0.165775
0.161866
0.157593
0.152935
0.147863
0.142342
0.136322
0.129766
0.122566
0.114759
0.105969
0.0967834
0.0854515
0.0754548
0.0587563
0.0516531
0.0202262
0.0318137
0.183355
0.18175
0.179879
0.177697
0.175182
0.172334
0.169147
0.165616
0.161731
0.157477
0.152833
0.14777
0.142255
0.136239
0.129684
0.122484
0.114677
0.105882
0.0966977
0.0853563
0.0753709
0.058654
0.0515929
0.0201756
0.0318119
0.183045
0.181454
0.1796
0.17744
0.174954
0.172136
0.168978
0.165472
0.161608
0.157371
0.152739
0.147685
0.142176
0.136164
0.12961
0.12241
0.114602
0.105804
0.0966198
0.0852712
0.0752948
0.058565
0.0515373
0.0201371
0.0318015
0.182777
0.181196
0.179356
0.177215
0.174753
0.17196
0.168827
0.165343
0.161498
0.157275
0.152654
0.147609
0.142105
0.136095
0.129542
0.122343
0.114533
0.105734
0.0965491
0.0851952
0.0752254
0.0584876
0.051485
0.0201084
0.031784
0.182548
0.180976
0.179146
0.177021
0.174579
0.171807
0.168695
0.16523
0.1614
0.15719
0.152579
0.14754
0.14204
0.136033
0.129482
0.122282
0.114472
0.105671
0.0964851
0.0851277
0.075162
0.0584206
0.0514353
0.0200878
0.0317609
0.182356
0.180792
0.178971
0.176858
0.174432
0.171677
0.168582
0.165132
0.161316
0.157116
0.152513
0.14748
0.141983
0.135979
0.129428
0.122228
0.114417
0.105614
0.0964274
0.0850682
0.0751041
0.0583633
0.0513877
0.0200741
0.0317339
0.182202
0.180643
0.178828
0.176725
0.174311
0.171571
0.168488
0.165051
0.161245
0.157053
0.152457
0.147427
0.141934
0.135931
0.12938
0.12218
0.114368
0.105565
0.0963761
0.0850164
0.0750519
0.0583147
0.0513426
0.0200653
0.0317061
0.182084
0.180529
0.178718
0.176622
0.174218
0.171487
0.168414
0.164986
0.161187
0.157002
0.15241
0.147384
0.141892
0.13589
0.129339
0.122139
0.114326
0.105522
0.0963311
0.084972
0.0750053
0.0582739
0.0513008
0.0200593
0.0316809
0.182002
0.180448
0.17864
0.176549
0.17415
0.171426
0.16836
0.164937
0.161144
0.156962
0.152373
0.147348
0.141858
0.135856
0.129305
0.122105
0.11429
0.105487
0.0962919
0.0849356
0.0749629
0.0582433
0.0512577
0.0200637
0.0316486
0.181955
0.1804
0.178594
0.176506
0.17411
0.171389
0.168326
0.164905
0.161114
0.156934
0.152345
0.147322
0.141831
0.135829
0.129278
0.122077
0.11426
0.105459
0.096257
0.0849109
0.074918
0.0582354
0.0511905
0.0201161
0.0315587
0.181941
0.180386
0.17858
0.176491
0.174096
0.171374
0.16831
0.16489
0.161097
0.156916
0.152327
0.147302
0.141811
0.135808
0.129255
0.122055
0.114233
0.105437
0.0962227
0.0848984
0.0748629
0.058258
0.0510793
0.0202455
0.0313714
0.181976
0.180417
0.178609
0.176517
0.174117
0.171391
0.168321
0.164895
0.161098
0.156913
0.15232
0.147293
0.141799
0.135795
0.12924
0.122039
0.114215
0.105421
0.0961998
0.0848843
0.0748309
0.0582566
0.0510262
0.0202844
0.0313094
0.182059
0.180496
0.178683
0.176586
0.174177
0.171441
0.168361
0.164925
0.161119
0.156927
0.152328
0.147296
0.141799
0.135792
0.129235
0.122033
0.114207
0.105412
0.09619
0.0848736
0.0748208
0.0582415
0.0510199
0.020257
0.0313416
0.182193
0.180625
0.178805
0.176698
0.174276
0.171524
0.168429
0.164979
0.161161
0.156958
0.152351
0.147312
0.14181
0.1358
0.12924
0.122037
0.11421
0.105413
0.0961917
0.0848703
0.0748258
0.0582265
0.0510369
0.0202036
0.0314123
0.182378
0.180803
0.178974
0.176854
0.174414
0.171641
0.168526
0.165057
0.161222
0.157005
0.152387
0.147341
0.141833
0.135818
0.129256
0.12205
0.114222
0.105423
0.0962048
0.0848752
0.0748449
0.0582141
0.0510731
0.0201317
0.03151
0.182616
0.181033
0.179192
0.177054
0.17459
0.171791
0.16865
0.165157
0.161302
0.157068
0.152437
0.147381
0.141866
0.135847
0.129281
0.122073
0.114245
0.105443
0.0962296
0.0848884
0.074879
0.0582042
0.0511303
0.0200396
0.0316353
0.18291
0.181317
0.179459
0.177299
0.174806
0.171975
0.168802
0.165281
0.1614
0.157147
0.152501
0.147434
0.141911
0.135886
0.129317
0.122106
0.114279
0.105472
0.0962668
0.0849105
0.0749291
0.0581973
0.0512102
0.019927
0.0317879
0.183263
0.181657
0.179778
0.177591
0.175061
0.172191
0.168981
0.165425
0.161517
0.157241
0.152578
0.147498
0.141967
0.135936
0.129364
0.12215
0.114324
0.105513
0.0963172
0.0849424
0.0749965
0.0581948
0.0513148
0.019795
0.0319663
0.183681
0.182057
0.180151
0.177929
0.175356
0.172439
0.169186
0.165592
0.161651
0.15735
0.152668
0.147574
0.142034
0.135997
0.129422
0.122205
0.114381
0.105565
0.0963825
0.0849858
0.0750837
0.0581992
0.0514473
0.0196461
0.0321698
0.184168
0.182521
0.180581
0.178318
0.175691
0.17272
0.169416
0.165779
0.161802
0.157474
0.152771
0.147663
0.142113
0.13607
0.129492
0.122273
0.114453
0.105631
0.0964653
0.0850437
0.0751943
0.0582143
0.0516127
0.0194843
0.0323992
0.184734
0.183055
0.181071
0.178757
0.176067
0.173033
0.169672
0.165986
0.161971
0.157613
0.152889
0.147766
0.142207
0.136158
0.129578
0.122357
0.114542
0.105715
0.0965699
0.0851206
0.075334
0.0582461
0.0518182
0.0193164
0.0326577
0.185391
0.183665
0.181625
0.179251
0.176486
0.173379
0.169955
0.166215
0.162158
0.15777
0.153024
0.147886
0.142318
0.136264
0.129684
0.122461
0.114655
0.105822
0.0967029
0.0852234
0.0755106
0.0583033
0.0520737
0.0191528
0.032951
0.186158
0.18436
0.18225
0.179805
0.17695
0.173761
0.170265
0.166468
0.162367
0.157947
0.15318
0.148028
0.142452
0.136394
0.129816
0.122594
0.114798
0.105962
0.0968736
0.0853623
0.0757348
0.0583983
0.0523913
0.0190095
0.0332872
0.187064
0.185152
0.182954
0.180427
0.177466
0.174183
0.170609
0.16675
0.162605
0.158153
0.153365
0.148201
0.142619
0.13656
0.129985
0.122765
0.114985
0.106146
0.0970952
0.0855504
0.0760217
0.0585455
0.0527894
0.0189025
0.0336865
0.188153
0.186051
0.183752
0.18113
0.178042
0.174655
0.170997
0.167072
0.162881
0.158399
0.153592
0.148418
0.142833
0.136773
0.130206
0.122991
0.11523
0.106388
0.0973854
0.0858009
0.0763937
0.0587526
0.0533045
0.0188264
0.0342082
0.189441
0.187022
0.184621
0.181896
0.178664
0.175167
0.171421
0.167432
0.163197
0.158687
0.153864
0.148682
0.143096
0.13704
0.130483
0.123274
0.115538
0.106691
0.0977476
0.0861104
0.0768566
0.0590069
0.0539555
0.0187588
0.0349103
0.190893
0.188006
0.185518
0.182689
0.179302
0.175696
0.171864
0.167814
0.16354
0.159007
0.154171
0.148984
0.1434
0.137349
0.130804
0.123602
0.115892
0.107041
0.0981585
0.0864687
0.0773706
0.059315
0.0546642
0.0187681
0.035685
0.19252
0.188988
0.186436
0.183498
0.179949
0.176237
0.172322
0.168216
0.163908
0.159354
0.154509
0.14932
0.143739
0.137693
0.131161
0.123967
0.116283
0.107429
0.098604
0.0868691
0.0779117
0.0596798
0.055384
0.0188882
0.0364715
0.194326
0.189954
0.187363
0.184315
0.180597
0.176783
0.17279
0.168632
0.164295
0.159725
0.154872
0.149682
0.144105
0.138066
0.131546
0.12436
0.116699
0.107845
0.0990705
0.0873003
0.0784629
0.0600903
0.0560914
0.0191133
0.0372526
0.196313
0.190897
0.188285
0.185125
0.181237
0.177325
0.173259
0.169055
0.164692
0.160109
0.15525
0.15006
0.144488
0.138455
0.131947
0.124769
0.11713
0.108277
0.0995452
0.0877492
0.0790105
0.060532
0.0567719
0.0194253
0.0380229
0.198475
0.191814
0.189187
0.185917
0.181858
0.177851
0.173721
0.169476
0.165092
0.160497
0.155635
0.150445
0.144878
0.138851
0.132354
0.125183
0.117563
0.108713
0.100017
0.0882044
0.0795435
0.0609912
0.0574152
0.0198054
0.0387785
0.20079
0.192707
0.190052
0.186677
0.182448
0.178354
0.174166
0.169888
0.165486
0.160882
0.156018
0.150829
0.145266
0.139246
0.132758
0.125595
0.11799
0.109145
0.100477
0.0886566
0.0800545
0.0614571
0.0580151
0.020237
0.0395168
0.203231
0.193584
0.190866
0.187396
0.183002
0.178825
0.174588
0.170283
0.165867
0.161258
0.156392
0.151205
0.145647
0.139632
0.133152
0.125997
0.118406
0.109566
0.100921
0.0890991
0.0805388
0.0619215
0.0585688
0.020706
0.0402369
0.205767
0.19446
0.191621
0.188068
0.183514
0.179261
0.174985
0.170658
0.166233
0.161619
0.156753
0.151569
0.146014
0.140005
0.133533
0.126385
0.118805
0.109973
0.101344
0.0895276
0.0809943
0.0623784
0.0590764
0.0212002
0.0409393
0.208359
0.195347
0.192312
0.188689
0.183981
0.17966
0.175354
0.171011
0.166579
0.161964
0.157098
0.151917
0.146367
0.140363
0.133898
0.126756
0.119185
0.110362
0.101745
0.0899391
0.0814204
0.0628235
0.059539
0.0217097
0.0416238
0.210971
0.196265
0.192939
0.189257
0.184404
0.180021
0.175694
0.171342
0.166906
0.162291
0.157427
0.152248
0.146703
0.140704
0.134245
0.127111
0.119547
0.110733
0.102123
0.0903331
0.0818179
0.0632553
0.0599588
0.0222287
0.0422921
0.213613
0.19726
0.193517
0.189777
0.184788
0.18035
0.176012
0.171655
0.167219
0.162605
0.157744
0.152569
0.147028
0.141034
0.134581
0.127454
0.119896
0.111092
0.102486
0.0907151
0.0821931
0.0636795
0.0603423
0.0227612
0.042958
0.216414
0.198414
0.194075
0.190253
0.185139
0.180654
0.176315
0.17196
0.167527
0.162917
0.158059
0.152888
0.147351
0.141363
0.134915
0.127794
0.120241
0.111449
0.102843
0.091095
0.082558
0.0641043
0.0607038
0.0233087
0.0436514
0.21942
0.199669
0.194595
0.190665
0.185445
0.180927
0.176595
0.172246
0.167818
0.163212
0.158358
0.153191
0.147658
0.141674
0.13523
0.128116
0.120566
0.111783
0.103178
0.0914493
0.0828994
0.0644966
0.0610415
0.0238051
0.0443435
0.221862
0.200569
0.19494
0.190932
0.185648
0.18111
0.176784
0.17244
0.168015
0.163411
0.15856
0.153395
0.147864
0.141883
0.135441
0.12833
0.120783
0.112005
0.103402
0.0916805
0.0831319
0.0647436
0.0612835
0.0240926
0.0448316
)
;

boundaryField
{
    inlet
    {
        type            zeroGradient;
    }
    outlet
    {
        type            fixedValue;
        value           uniform 0;
    }
    upperWall
    {
        type            zeroGradient;
    }
    lowerWall
    {
        type            zeroGradient;
    }
    frontAndBack
    {
        type            empty;
    }
    procBoundary0to1
    {
        type            processor;
        value           nonuniform List<scalar> 
59
(
0.196138
0.196108
0.196085
0.196071
0.19606
0.196052
0.196045
0.19604
0.196036
0.196032
0.196029
0.195783
0.195783
0.195781
0.195778
0.195775
0.195772
0.195769
0.195766
0.195763
0.19576
0.195757
0.195754
0.195751
0.195748
0.195746
0.195743
0.19574
0.195738
0.195735
0.195732
0.19573
0.195727
0.195725
0.195722
0.19572
0.195717
0.195715
0.195713
0.19571
0.195708
0.195706
0.195704
0.195703
0.195702
0.195703
0.195706
0.19571
0.195713
0.195475
0.195475
0.195476
0.195474
0.195468
0.195458
0.195443
0.195422
0.195397
0.195382
)
;
    }
}


// ************************************************************************* //
