/*--------------------------------*- C++ -*----------------------------------*\
  =========                 |
  \\      /  F ield         | OpenFOAM: The Open Source CFD Toolbox
   \\    /   O peration     | Website:  https://openfoam.org
    \\  /    A nd           | Version:  6
     \\/     M anipulation  |
\*---------------------------------------------------------------------------*/
FoamFile
{
    version     2.0;
    format      ascii;
    class       surfaceScalarField;
    location    "0.01";
    object      phi;
}
// * * * * * * * * * * * * * * * * * * * * * * * * * * * * * * * * * * * * * //

dimensions      [0 3 -1 0 0 0 0];

internalField   nonuniform List<scalar> 
6048
(
4.62648e-07
6.6592e-10
4.61974e-07
6.74221e-10
4.61292e-07
6.82599e-10
4.60601e-07
6.911e-10
4.59901e-07
6.99799e-10
4.59192e-07
7.08773e-10
4.58474e-07
7.18127e-10
4.57746e-07
7.27968e-10
4.57007e-07
7.38446e-10
4.56258e-07
7.4974e-10
4.55496e-07
7.62101e-10
4.5472e-07
7.75829e-10
4.53928e-07
7.91348e-10
4.53119e-07
8.09195e-10
4.52289e-07
8.30111e-10
4.51434e-07
8.55084e-10
4.50549e-07
8.85453e-10
4.49625e-07
9.23097e-10
4.48655e-07
9.70656e-10
4.47623e-07
1.03194e-09
4.4651e-07
1.11265e-09
4.45289e-07
1.22165e-09
4.43915e-07
1.37354e-09
4.42321e-07
1.59421e-09
4.40386e-07
1.93488e-09
4.3788e-07
2.50569e-09
4.34277e-07
3.60293e-09
4.28384e-07
5.89344e-09
4.16375e-07
1.20093e-08
2.40446e-08
3.9233e-07
4.85062e-07
1.35347e-09
4.84366e-07
1.3699e-09
4.83662e-07
1.38648e-09
4.8295e-07
1.40332e-09
4.82229e-07
1.42054e-09
4.815e-07
1.4383e-09
4.80761e-07
1.45677e-09
4.80013e-07
1.47619e-09
4.79255e-07
1.49683e-09
4.78485e-07
1.51907e-09
4.77704e-07
1.54335e-09
4.7691e-07
1.57028e-09
4.761e-07
1.60067e-09
4.75274e-07
1.63555e-09
4.74428e-07
1.67633e-09
4.73558e-07
1.72491e-09
4.72659e-07
1.78383e-09
4.71726e-07
1.85665e-09
4.70748e-07
1.94829e-09
4.69714e-07
2.06589e-09
4.68607e-07
2.21987e-09
4.67403e-07
2.4262e-09
4.66066e-07
2.71054e-09
4.64543e-07
3.11663e-09
4.62752e-07
3.72632e-09
4.60554e-07
4.70323e-09
4.57714e-07
6.44339e-09
4.53837e-07
9.77033e-09
4.48249e-07
1.75973e-08
3.30048e-08
4.39289e-07
4.91347e-07
2.04808e-09
4.90645e-07
2.07231e-09
4.89935e-07
2.09681e-09
4.89216e-07
2.12173e-09
4.8849e-07
2.14724e-09
4.87754e-07
2.17357e-09
4.8701e-07
2.20098e-09
4.86256e-07
2.22983e-09
4.85493e-07
2.26052e-09
4.84718e-07
2.2936e-09
4.83932e-07
2.32977e-09
4.83132e-07
2.36993e-09
4.82318e-07
2.41529e-09
4.81486e-07
2.46741e-09
4.80634e-07
2.5284e-09
4.79757e-07
2.60107e-09
4.78852e-07
2.68926e-09
4.7791e-07
2.79823e-09
4.76923e-07
2.9353e-09
4.75878e-07
3.11093e-09
4.74758e-07
3.34039e-09
4.73537e-07
3.64675e-09
4.72181e-07
4.06637e-09
4.70638e-07
4.6598e-09
4.68829e-07
5.53546e-09
4.66633e-07
6.89931e-09
4.63877e-07
9.19945e-09
4.60327e-07
1.33199e-08
4.56181e-07
2.1744e-08
3.70011e-08
4.52184e-07
4.94374e-07
2.74663e-09
4.93668e-07
2.77838e-09
4.92955e-07
2.81055e-09
4.92233e-07
2.84329e-09
4.91503e-07
2.87686e-09
4.90765e-07
2.91154e-09
4.90019e-07
2.94768e-09
4.89263e-07
2.98574e-09
4.88497e-07
3.02628e-09
4.87721e-07
3.07002e-09
4.86933e-07
3.1179e-09
4.86131e-07
3.17114e-09
4.85315e-07
3.23131e-09
4.84482e-07
3.30053e-09
4.83629e-07
3.3816e-09
4.82752e-07
3.47827e-09
4.81845e-07
3.59561e-09
4.80903e-07
3.7406e-09
4.79915e-07
3.92289e-09
4.7887e-07
4.15618e-09
4.7775e-07
4.46032e-09
4.76532e-07
4.86493e-09
4.75183e-07
5.41594e-09
4.73654e-07
6.18786e-09
4.71881e-07
7.309e-09
4.69769e-07
9.01104e-09
4.67214e-07
1.1755e-08
4.64145e-07
1.63889e-08
4.60996e-07
2.48925e-08
3.91356e-08
4.58862e-07
4.96147e-07
3.44784e-09
4.95439e-07
3.48689e-09
4.94723e-07
3.52647e-09
4.93999e-07
3.56683e-09
4.93268e-07
3.60824e-09
4.92529e-07
3.65105e-09
4.91781e-07
3.69571e-09
4.91024e-07
3.74276e-09
4.90257e-07
3.79292e-09
4.8948e-07
3.84708e-09
4.88691e-07
3.90641e-09
4.8789e-07
3.97242e-09
4.87074e-07
4.04709e-09
4.86242e-07
4.13305e-09
4.8539e-07
4.23375e-09
4.84514e-07
4.35387e-09
4.8361e-07
4.49969e-09
4.82671e-07
4.67976e-09
4.81688e-07
4.90597e-09
4.80649e-07
5.19502e-09
4.79538e-07
5.57086e-09
4.78334e-07
6.06886e-09
4.77007e-07
6.74284e-09
4.75517e-07
7.67789e-09
4.73811e-07
9.01497e-09
4.71826e-07
1.09964e-08
4.69513e-07
1.40683e-08
4.66908e-07
1.89938e-08
4.64489e-07
2.73119e-08
4.03388e-08
4.63285e-07
4.97293e-07
4.15093e-09
4.96582e-07
4.19707e-09
4.95865e-07
4.24388e-09
4.9514e-07
4.29165e-09
4.94408e-07
4.34069e-09
4.93667e-07
4.39143e-09
4.92919e-07
4.44438e-09
4.92161e-07
4.50019e-09
4.91395e-07
4.55972e-09
4.90618e-07
4.624e-09
4.8983e-07
4.69445e-09
4.89029e-07
4.77285e-09
4.88215e-07
4.86155e-09
4.87384e-07
4.96366e-09
4.86535e-07
5.0833e-09
4.85662e-07
5.22596e-09
4.84763e-07
5.39905e-09
4.8383e-07
5.61262e-09
4.82856e-07
5.88054e-09
4.81828e-07
6.22216e-09
4.80734e-07
6.66503e-09
4.79554e-07
7.24919e-09
4.78262e-07
8.03453e-09
4.76827e-07
9.11319e-09
4.7521e-07
1.06324e-08
4.73373e-07
1.28332e-08
4.71311e-07
1.613e-08
4.69121e-07
2.11837e-08
4.67262e-07
2.91715e-08
4.09864e-08
4.66614e-07
4.98073e-07
4.85532e-09
4.97362e-07
4.90837e-09
4.96643e-07
4.96224e-09
4.95918e-07
5.01723e-09
4.95185e-07
5.07372e-09
4.94444e-07
5.13218e-09
4.93695e-07
5.1932e-09
4.92938e-07
5.25753e-09
4.92171e-07
5.32611e-09
4.91395e-07
5.40019e-09
4.90608e-07
5.48135e-09
4.89809e-07
5.57165e-09
4.88997e-07
5.67378e-09
4.8817e-07
5.79131e-09
4.87324e-07
5.92891e-09
4.86457e-07
6.09288e-09
4.85565e-07
6.2916e-09
4.84641e-07
6.53647e-09
4.83678e-07
6.84307e-09
4.82667e-07
7.23303e-09
4.81595e-07
7.73679e-09
4.80447e-07
8.39803e-09
4.792e-07
9.28075e-09
4.77833e-07
1.0481e-08
4.76318e-07
1.21468e-08
4.74642e-07
1.45097e-08
4.72828e-07
1.79436e-08
4.71006e-07
2.30059e-08
4.69592e-07
3.05853e-08
4.12675e-08
4.69311e-07
4.9862e-07
5.56061e-09
4.97908e-07
5.62041e-09
4.97189e-07
5.68118e-09
4.96463e-07
5.74324e-09
4.9573e-07
5.80699e-09
4.94989e-07
5.87296e-09
4.94241e-07
5.94181e-09
4.93484e-07
6.01437e-09
4.92718e-07
6.09172e-09
4.91943e-07
6.17521e-09
4.91158e-07
6.26661e-09
4.90361e-07
6.36822e-09
4.89552e-07
6.48306e-09
4.88728e-07
6.61507e-09
4.87888e-07
6.76946e-09
4.87027e-07
6.95317e-09
4.86143e-07
7.17549e-09
4.85231e-07
7.44892e-09
4.84284e-07
7.79049e-09
4.83293e-07
8.22363e-09
4.82249e-07
8.78097e-09
4.81138e-07
9.50872e-09
4.79946e-07
1.04732e-08
4.78655e-07
1.17717e-08
4.77253e-07
1.35486e-08
4.75742e-07
1.60207e-08
4.74168e-07
1.9518e-08
4.72672e-07
2.45015e-08
4.71622e-07
3.1635e-08
4.12873e-08
4.71603e-07
4.99012e-07
6.2666e-09
4.98299e-07
6.33304e-09
4.9758e-07
6.40056e-09
4.96853e-07
6.46952e-09
4.9612e-07
6.54035e-09
4.95379e-07
6.61363e-09
4.94631e-07
6.69008e-09
4.93875e-07
6.77059e-09
4.9311e-07
6.85633e-09
4.92337e-07
6.9488e-09
4.91553e-07
7.04991e-09
4.9076e-07
7.16218e-09
4.89954e-07
7.28888e-09
4.89134e-07
7.43429e-09
4.883e-07
7.60406e-09
4.87447e-07
7.80571e-09
4.86574e-07
8.04923e-09
4.85675e-07
8.34801e-09
4.84745e-07
8.72022e-09
4.83778e-07
9.19062e-09
4.82765e-07
9.79335e-09
4.81698e-07
1.0576e-08
4.80566e-07
1.16058e-08
4.79359e-07
1.29784e-08
4.78075e-07
1.48322e-08
4.7673e-07
1.73658e-08
4.75383e-07
2.08653e-08
4.74178e-07
2.57067e-08
4.73431e-07
3.23811e-08
4.11076e-08
4.73611e-07
4.993e-07
6.97343e-09
4.98587e-07
7.04638e-09
4.97867e-07
7.12052e-09
4.9714e-07
7.19621e-09
4.96407e-07
7.27395e-09
4.95666e-07
7.35433e-09
4.94918e-07
7.43811e-09
4.94162e-07
7.52627e-09
4.93399e-07
7.62003e-09
4.92626e-07
7.72101e-09
4.91845e-07
7.83125e-09
4.91054e-07
7.95343e-09
4.90252e-07
8.09103e-09
4.89437e-07
8.24863e-09
4.88609e-07
8.43221e-09
4.87765e-07
8.64974e-09
4.86903e-07
8.91174e-09
4.86018e-07
9.23232e-09
4.85108e-07
9.63038e-09
4.84167e-07
1.01316e-08
4.8319e-07
1.07708e-08
4.8217e-07
1.15962e-08
4.81101e-07
1.26742e-08
4.79982e-07
1.40976e-08
4.78818e-07
1.59959e-08
4.77636e-07
1.85484e-08
4.76501e-07
2.20002e-08
4.75553e-07
2.66541e-08
4.75064e-07
3.28707e-08
4.07674e-08
4.75404e-07
4.99527e-07
4.98812e-07
7.76092e-09
4.98091e-07
7.84154e-09
4.97363e-07
7.92383e-09
4.96629e-07
8.00828e-09
4.95888e-07
8.09554e-09
4.9514e-07
8.1864e-09
4.94384e-07
8.28187e-09
4.93621e-07
8.38326e-09
4.9285e-07
8.49224e-09
4.9207e-07
8.61096e-09
4.91281e-07
8.74225e-09
4.90482e-07
8.88972e-09
4.89673e-07
9.05817e-09
4.88851e-07
9.25386e-09
4.88016e-07
9.48502e-09
4.87165e-07
9.7626e-09
4.86296e-07
1.01011e-08
4.85407e-07
1.05199e-08
4.84493e-07
1.1045e-08
4.83552e-07
1.17116e-08
4.82581e-07
1.25672e-08
4.81579e-07
1.36766e-08
4.80549e-07
1.51281e-08
4.79503e-07
1.70412e-08
4.78476e-07
1.95757e-08
4.77537e-07
2.29392e-08
4.76817e-07
2.73737e-08
4.76546e-07
3.3142e-08
4.02941e-08
4.77019e-07
4.99008e-07
8.4776e-09
4.98285e-07
8.56456e-09
4.97556e-07
8.65329e-09
4.9682e-07
8.74428e-09
4.96077e-07
8.83819e-09
4.95328e-07
8.93584e-09
4.94571e-07
9.03829e-09
4.93808e-07
9.14687e-09
4.93037e-07
9.26332e-09
4.92258e-07
9.38986e-09
4.91471e-07
9.52938e-09
4.90675e-07
9.68563e-09
4.89869e-07
9.86353e-09
4.89054e-07
1.00695e-08
4.88227e-07
1.03119e-08
4.87387e-07
1.0602e-08
4.86534e-07
1.09544e-08
4.85665e-07
1.13886e-08
4.8478e-07
1.19306e-08
4.83876e-07
1.26152e-08
4.82955e-07
1.34887e-08
4.82018e-07
1.46133e-08
4.81074e-07
1.60716e-08
4.80143e-07
1.79728e-08
4.79261e-07
2.04575e-08
4.785e-07
2.37005e-08
4.7798e-07
2.78937e-08
4.77894e-07
3.32274e-08
3.97088e-08
4.7848e-07
4.99205e-07
9.19784e-09
4.98479e-07
9.29102e-09
4.97746e-07
9.38601e-09
4.97007e-07
9.48335e-09
4.96261e-07
9.58367e-09
4.95509e-07
9.68784e-09
4.94751e-07
9.79691e-09
4.93985e-07
9.91224e-09
4.93213e-07
1.00356e-08
4.92434e-07
1.01692e-08
4.91647e-07
1.03161e-08
4.90853e-07
1.048e-08
4.9005e-07
1.06659e-08
4.89239e-07
1.08802e-08
4.8842e-07
1.11315e-08
4.87591e-07
1.14308e-08
4.86752e-07
1.1793e-08
4.85904e-07
1.22372e-08
4.85045e-07
1.27892e-08
4.84178e-07
1.34826e-08
4.83305e-07
1.43621e-08
4.82431e-07
1.54864e-08
4.81571e-07
1.69321e-08
4.80746e-07
1.87977e-08
4.79998e-07
2.12059e-08
4.79395e-07
2.4303e-08
4.79048e-07
2.82405e-08
4.7912e-07
3.31555e-08
3.90291e-08
4.798e-07
4.99427e-07
9.92363e-09
4.98695e-07
1.00229e-08
4.97957e-07
1.0124e-08
4.97213e-07
1.02274e-08
4.96463e-07
1.03339e-08
4.95706e-07
1.04443e-08
4.94944e-07
1.05596e-08
4.94175e-07
1.06813e-08
4.93399e-07
1.08109e-08
4.92618e-07
1.0951e-08
4.91829e-07
1.11042e-08
4.91035e-07
1.12746e-08
4.90234e-07
1.14669e-08
4.89426e-07
1.16877e-08
4.88613e-07
1.19453e-08
4.87793e-07
1.22508e-08
4.86967e-07
1.26186e-08
4.86137e-07
1.30676e-08
4.85303e-07
1.36225e-08
4.8447e-07
1.43159e-08
4.83642e-07
1.51901e-08
4.82829e-07
1.62998e-08
4.82045e-07
1.77153e-08
4.81318e-07
1.95246e-08
4.8069e-07
2.18343e-08
4.80227e-07
2.47659e-08
4.80029e-07
2.84388e-08
4.80233e-07
3.29515e-08
3.82704e-08
4.80992e-07
4.99694e-07
1.06575e-08
4.98954e-07
1.07627e-08
4.98208e-07
1.08697e-08
4.97457e-07
1.0979e-08
4.96699e-07
1.10914e-08
4.95936e-07
1.12077e-08
4.95167e-07
1.13289e-08
4.94392e-07
1.14563e-08
4.93611e-07
1.15917e-08
4.92825e-07
1.17373e-08
4.92033e-07
1.18961e-08
4.91236e-07
1.20716e-08
4.90434e-07
1.22689e-08
4.89627e-07
1.24942e-08
4.88817e-07
1.27557e-08
4.88003e-07
1.30642e-08
4.87188e-07
1.34335e-08
4.86374e-07
1.3882e-08
4.85563e-07
1.44334e-08
4.84761e-07
1.51184e-08
4.83974e-07
1.59766e-08
4.83215e-07
1.70587e-08
4.82502e-07
1.84284e-08
4.81863e-07
2.01638e-08
4.81341e-07
2.23566e-08
4.80999e-07
2.51078e-08
4.80926e-07
2.85114e-08
4.8124e-07
3.26378e-08
3.74464e-08
4.82064e-07
5.09419e-07
1.17012e-08
5.08367e-07
1.18144e-08
5.07307e-07
1.19295e-08
5.06239e-07
1.20469e-08
5.05163e-07
1.21673e-08
5.04079e-07
1.22915e-08
5.02988e-07
1.24206e-08
5.01888e-07
1.25558e-08
5.00781e-07
1.26987e-08
4.99667e-07
1.28517e-08
4.98545e-07
1.30175e-08
4.97417e-07
1.31997e-08
4.96283e-07
1.34029e-08
4.95144e-07
1.36334e-08
4.94001e-07
1.38989e-08
4.92855e-07
1.42098e-08
4.91709e-07
1.45795e-08
4.90566e-07
1.50252e-08
4.8943e-07
1.55693e-08
4.88308e-07
1.62407e-08
4.87209e-07
1.70759e-08
4.86146e-07
1.81214e-08
4.8514e-07
1.94344e-08
4.8422e-07
2.10836e-08
4.83429e-07
2.31477e-08
4.82826e-07
2.57106e-08
4.82491e-07
2.88463e-08
4.82523e-07
3.26057e-08
3.6946e-08
4.83024e-07
4.9349e-07
1.22406e-08
4.92947e-07
1.23576e-08
4.924e-07
1.24763e-08
4.9185e-07
1.25973e-08
4.91296e-07
1.27212e-08
4.90739e-07
1.28488e-08
4.90178e-07
1.2981e-08
4.89615e-07
1.31191e-08
4.89049e-07
1.32647e-08
4.88481e-07
1.34198e-08
4.87911e-07
1.35873e-08
4.8734e-07
1.37704e-08
4.86769e-07
1.39737e-08
4.862e-07
1.42029e-08
4.85633e-07
1.44656e-08
4.85072e-07
1.47715e-08
4.84518e-07
1.51331e-08
4.83976e-07
1.55667e-08
4.83453e-07
1.60931e-08
4.82954e-07
1.67389e-08
4.82493e-07
1.75378e-08
4.82083e-07
1.85314e-08
4.81746e-07
1.97709e-08
4.81513e-07
2.13163e-08
4.81426e-07
2.32347e-08
4.81541e-07
2.55954e-08
4.81931e-07
2.84569e-08
4.82681e-07
3.18558e-08
3.57498e-08
4.83877e-07
4.79264e-07
1.23297e-08
4.79175e-07
1.24465e-08
4.79086e-07
1.2565e-08
4.78998e-07
1.26856e-08
4.7891e-07
1.2809e-08
4.78823e-07
1.29358e-08
4.78737e-07
1.3067e-08
4.78653e-07
1.32037e-08
4.7857e-07
1.33475e-08
4.78489e-07
1.35002e-08
4.78412e-07
1.36645e-08
4.78339e-07
1.38436e-08
4.78271e-07
1.40416e-08
4.7821e-07
1.42639e-08
4.78158e-07
1.45176e-08
4.78118e-07
1.48116e-08
4.78093e-07
1.51577e-08
4.78089e-07
1.55708e-08
4.78112e-07
1.60701e-08
4.78171e-07
1.66798e-08
4.78279e-07
1.74301e-08
4.78452e-07
1.83585e-08
4.78713e-07
1.95099e-08
4.79093e-07
2.09363e-08
4.79633e-07
2.26946e-08
4.80387e-07
2.48418e-08
4.8142e-07
2.74239e-08
4.82808e-07
3.04673e-08
3.3932e-08
4.84626e-07
4.66547e-07
1.20162e-08
4.66864e-07
1.21295e-08
4.67185e-07
1.22443e-08
4.67509e-07
1.2361e-08
4.67838e-07
1.24803e-08
4.68171e-07
1.26027e-08
4.68509e-07
1.27291e-08
4.68852e-07
1.28606e-08
4.69201e-07
1.29987e-08
4.69556e-07
1.3145e-08
4.69919e-07
1.33019e-08
4.7029e-07
1.34724e-08
4.70671e-07
1.36603e-08
4.71064e-07
1.38707e-08
4.71472e-07
1.41098e-08
4.71898e-07
1.4386e-08
4.72345e-07
1.47099e-08
4.72821e-07
1.50951e-08
4.73332e-07
1.55588e-08
4.73889e-07
1.61228e-08
4.74505e-07
1.68141e-08
4.75198e-07
1.76655e-08
4.75992e-07
1.87161e-08
4.76918e-07
2.00105e-08
4.78016e-07
2.15965e-08
4.79337e-07
2.35207e-08
4.80942e-07
2.58192e-08
4.82898e-07
2.8511e-08
3.15594e-08
4.85271e-07
4.55161e-07
1.13424e-08
4.55841e-07
1.14492e-08
4.56528e-07
1.15572e-08
4.57222e-07
1.1667e-08
4.57924e-07
1.1779e-08
4.58633e-07
1.18938e-08
4.5935e-07
1.20122e-08
4.60075e-07
1.21352e-08
4.6081e-07
1.2264e-08
4.61554e-07
1.24002e-08
4.6231e-07
1.2546e-08
4.63079e-07
1.2704e-08
4.63861e-07
1.28777e-08
4.6466e-07
1.30716e-08
4.65479e-07
1.32913e-08
4.66321e-07
1.35444e-08
4.6719e-07
1.38402e-08
4.68095e-07
1.41908e-08
4.69042e-07
1.46116e-08
4.70043e-07
1.51216e-08
4.71113e-07
1.57445e-08
4.7227e-07
1.65086e-08
4.73538e-07
1.74476e-08
4.7495e-07
1.85989e-08
4.76544e-07
2.00023e-08
4.78369e-07
2.16956e-08
4.80481e-07
2.3707e-08
4.82942e-07
2.605e-08
2.8692e-08
4.85809e-07
4.44947e-07
1.03459e-08
4.45952e-07
1.04435e-08
4.46967e-07
1.05421e-08
4.47992e-07
1.06422e-08
4.49027e-07
1.07442e-08
4.50072e-07
1.08485e-08
4.51128e-07
1.0956e-08
4.52196e-07
1.10675e-08
4.53276e-07
1.1184e-08
4.54369e-07
1.13071e-08
4.55477e-07
1.14384e-08
4.566e-07
1.15805e-08
4.57742e-07
1.17363e-08
4.58904e-07
1.19097e-08
4.60089e-07
1.21057e-08
4.61303e-07
1.23309e-08
4.6255e-07
1.25934e-08
4.63837e-07
1.29038e-08
4.65173e-07
1.32751e-08
4.66571e-07
1.3724e-08
4.68045e-07
1.42704e-08
4.69615e-07
1.49386e-08
4.71306e-07
1.57565e-08
4.7315e-07
1.67554e-08
4.75184e-07
1.79676e-08
4.77456e-07
1.94235e-08
4.80019e-07
2.11447e-08
4.82928e-07
2.31407e-08
2.53836e-08
4.86236e-07
4.35761e-07
9.06011e-09
4.37058e-07
9.14614e-09
4.38367e-07
9.233e-09
4.39688e-07
9.321e-09
4.41022e-07
9.4105e-09
4.42369e-07
9.50198e-09
4.43729e-07
9.59601e-09
4.45103e-07
9.69335e-09
4.46492e-07
9.79493e-09
4.47897e-07
9.90198e-09
4.49319e-07
1.0016e-08
4.50761e-07
1.01391e-08
4.52223e-07
1.02737e-08
4.5371e-07
1.04232e-08
4.55223e-07
1.05919e-08
4.56769e-07
1.07851e-08
4.58353e-07
1.10099e-08
4.59981e-07
1.12749e-08
4.61665e-07
1.15914e-08
4.63416e-07
1.19728e-08
4.65251e-07
1.24359e-08
4.67189e-07
1.30006e-08
4.69256e-07
1.36897e-08
4.71483e-07
1.45283e-08
4.73908e-07
1.55423e-08
4.76576e-07
1.67552e-08
4.79538e-07
1.81834e-08
4.82845e-07
1.98336e-08
2.16826e-08
4.86546e-07
4.27479e-07
7.51478e-09
4.29037e-07
7.58726e-09
4.3061e-07
7.66027e-09
4.32197e-07
7.73408e-09
4.33799e-07
7.80899e-09
4.35415e-07
7.88539e-09
4.37047e-07
7.96375e-09
4.38696e-07
8.0447e-09
4.40362e-07
8.12899e-09
4.42046e-07
8.21762e-09
4.43751e-07
8.31183e-09
4.45476e-07
8.41324e-09
4.47226e-07
8.52393e-09
4.49003e-07
8.64658e-09
4.5081e-07
8.78461e-09
4.52653e-07
8.9424e-09
4.54537e-07
9.12553e-09
4.56471e-07
9.34105e-09
4.58465e-07
9.59777e-09
4.60531e-07
9.90658e-09
4.62686e-07
1.02807e-08
4.64951e-07
1.07356e-08
4.67352e-07
1.12893e-08
4.69919e-07
1.19612e-08
4.7269e-07
1.2771e-08
4.75709e-07
1.37364e-08
4.79023e-07
1.48694e-08
4.82682e-07
1.61741e-08
1.76326e-08
4.86732e-07
4.19993e-07
5.7367e-09
4.21787e-07
5.79382e-09
4.23596e-07
5.85116e-09
4.25421e-07
5.90893e-09
4.27262e-07
5.96737e-09
4.29121e-07
6.02679e-09
4.30997e-07
6.08754e-09
4.32892e-07
6.1501e-09
4.34806e-07
6.21505e-09
4.3674e-07
6.28314e-09
4.38697e-07
6.35531e-09
4.40677e-07
6.43278e-09
4.42684e-07
6.51712e-09
4.4472e-07
6.61033e-09
4.4679e-07
6.71498e-09
4.48898e-07
6.83436e-09
4.51051e-07
6.97262e-09
4.53257e-07
7.13503e-09
4.55527e-07
7.32813e-09
4.57873e-07
7.55998e-09
4.60314e-07
7.84029e-09
4.62869e-07
8.18049e-09
4.65564e-07
8.59355e-09
4.68432e-07
9.0935e-09
4.71509e-07
9.69434e-09
4.74837e-07
1.04085e-08
4.78462e-07
1.1244e-08
4.82433e-07
1.22031e-08
1.3273e-08
4.86793e-07
4.13214e-07
3.74983e-09
4.15218e-07
3.79001e-09
4.17239e-07
3.83008e-09
4.19278e-07
3.87019e-09
4.21335e-07
3.91051e-09
4.2341e-07
3.95126e-09
4.25505e-07
3.99269e-09
4.2762e-07
4.03511e-09
4.29756e-07
4.07894e-09
4.31915e-07
4.12465e-09
4.34097e-07
4.17288e-09
4.36305e-07
4.22444e-09
4.38542e-07
4.28035e-09
4.40811e-07
4.34195e-09
4.43115e-07
4.41091e-09
4.4546e-07
4.48939e-09
4.47852e-07
4.58012e-09
4.50301e-07
4.68651e-09
4.52816e-07
4.81282e-09
4.55412e-07
4.96425e-09
4.58105e-07
5.14705e-09
4.60917e-07
5.3685e-09
4.63874e-07
5.6368e-09
4.67006e-07
5.96072e-09
4.70352e-07
6.34888e-09
4.73952e-07
6.80872e-09
4.77851e-07
7.3448e-09
4.82096e-07
7.95766e-09
8.6395e-09
4.8673e-07
4.07066e-07
1.57563e-09
4.09259e-07
1.59746e-09
4.1147e-07
1.61884e-09
4.137e-07
1.63985e-09
4.1595e-07
1.6606e-09
4.1822e-07
1.68121e-09
4.20511e-07
1.70181e-09
4.22824e-07
1.72258e-09
4.25159e-07
1.74372e-09
4.27518e-07
1.76546e-09
4.29903e-07
1.78812e-09
4.32315e-07
1.81208e-09
4.34758e-07
1.83783e-09
4.37234e-07
1.86599e-09
4.39747e-07
1.89735e-09
4.42304e-07
1.93293e-09
4.4491e-07
1.97397e-09
4.47574e-07
2.02206e-09
4.50308e-07
2.07913e-09
4.53125e-07
2.14752e-09
4.56042e-07
2.23e-09
4.5908e-07
2.32976e-09
4.62267e-07
2.45027e-09
4.65633e-07
2.59517e-09
4.69214e-07
2.76784e-09
4.73051e-07
2.97099e-09
4.7719e-07
3.20585e-09
4.81677e-07
3.47142e-09
3.76447e-09
4.86552e-07
4.01487e-07
-7.66794e-10
4.03849e-07
-7.64543e-10
4.06231e-07
-7.63113e-10
4.08633e-07
-7.6247e-10
4.11057e-07
-7.62581e-10
4.13501e-07
-7.63416e-10
4.15968e-07
-7.64952e-10
4.18458e-07
-7.67174e-10
4.20971e-07
-7.70079e-10
4.23511e-07
-7.73677e-10
4.26077e-07
-7.77989e-10
4.28672e-07
-7.83052e-10
4.31299e-07
-7.88924e-10
4.3396e-07
-7.95684e-10
4.36661e-07
-8.03442e-10
4.39406e-07
-8.12351e-10
4.42203e-07
-8.22617e-10
4.4506e-07
-8.34525e-10
4.47987e-07
-8.48461e-10
4.51e-07
-8.64947e-10
4.54114e-07
-8.84684e-10
4.57353e-07
-9.08592e-10
4.60741e-07
-9.3786e-10
4.6431e-07
-9.73971e-10
4.68096e-07
-1.0187e-09
4.72141e-07
-1.07403e-09
4.76489e-07
-1.14204e-09
4.81186e-07
-1.22521e-09
-1.32282e-09
4.86273e-07
4.66666e-07
-4.04844e-09
4.69974e-07
-4.07306e-09
4.7331e-07
-4.09898e-09
4.76674e-07
-4.12621e-09
4.80066e-07
-4.15481e-09
4.83488e-07
-4.18486e-09
4.86939e-07
-4.21647e-09
4.90422e-07
-4.24982e-09
4.93937e-07
-4.28512e-09
4.97486e-07
-4.3227e-09
5.01071e-07
-4.36297e-09
5.04694e-07
-4.40647e-09
5.08359e-07
-4.45389e-09
5.1207e-07
-4.50618e-09
5.15831e-07
-4.56451e-09
5.19649e-07
-4.63041e-09
5.23532e-07
-4.70586e-09
5.27491e-07
-4.79336e-09
5.31539e-07
-4.89609e-09
5.35692e-07
-5.01802e-09
5.39971e-07
-5.16401e-09
5.44402e-07
-5.33996e-09
5.49017e-07
-5.55272e-09
5.53853e-07
-5.80998e-09
5.58954e-07
-6.11987e-09
5.64371e-07
-6.49022e-09
5.70156e-07
-6.92734e-09
5.76366e-07
-7.43566e-09
-8.01095e-09
5.83054e-07
4.69413e-07
-7.22605e-09
4.72617e-07
-7.27688e-09
4.75847e-07
-7.32945e-09
4.79105e-07
-7.38386e-09
4.8239e-07
-7.44024e-09
4.85704e-07
-7.49879e-09
4.89048e-07
-7.55975e-09
4.92421e-07
-7.62346e-09
4.95827e-07
-7.6904e-09
4.99265e-07
-7.76116e-09
5.02739e-07
-7.83655e-09
5.0625e-07
-7.91759e-09
5.09801e-07
-8.00563e-09
5.13398e-07
-8.10241e-09
5.17043e-07
-8.21018e-09
5.20745e-07
-8.33184e-09
5.2451e-07
-8.47106e-09
5.28349e-07
-8.63256e-09
5.32275e-07
-8.82226e-09
5.36305e-07
-9.04754e-09
5.40458e-07
-9.31742e-09
5.44761e-07
-9.64273e-09
5.49244e-07
-1.0036e-08
5.53946e-07
-1.05114e-08
5.58909e-07
-1.10834e-08
5.64185e-07
-1.1766e-08
5.69828e-07
-1.25702e-08
5.75895e-07
-1.35026e-08
-1.4556e-08
5.8244e-07
4.72329e-07
-1.02956e-08
4.75424e-07
-1.0372e-08
4.78545e-07
-1.04505e-08
4.81693e-07
-1.05314e-08
4.84867e-07
-1.06148e-08
4.8807e-07
-1.07011e-08
4.91301e-07
-1.07906e-08
4.94561e-07
-1.08839e-08
4.97852e-07
-1.09816e-08
5.01176e-07
-1.10847e-08
5.04533e-07
-1.11942e-08
5.07927e-07
-1.13117e-08
5.11361e-07
-1.14392e-08
5.14838e-07
-1.15792e-08
5.18362e-07
-1.17349e-08
5.21941e-07
-1.19106e-08
5.25582e-07
-1.21116e-08
5.29294e-07
-1.23447e-08
5.3309e-07
-1.26187e-08
5.36987e-07
-1.29442e-08
5.41004e-07
-1.33343e-08
5.45166e-07
-1.38049e-08
5.49504e-07
-1.43743e-08
5.54056e-07
-1.50632e-08
5.58866e-07
-1.5893e-08
5.63984e-07
-1.68845e-08
5.69468e-07
-1.80537e-08
5.75376e-07
-1.94104e-08
-2.09445e-08
5.81764e-07
4.75452e-07
-1.3253e-08
4.78434e-07
-1.33542e-08
4.81441e-07
-1.3458e-08
4.84474e-07
-1.35646e-08
4.87534e-07
-1.36743e-08
4.9062e-07
-1.37875e-08
4.93734e-07
-1.39048e-08
4.96877e-07
-1.40267e-08
5.0005e-07
-1.41542e-08
5.03254e-07
-1.42885e-08
5.0649e-07
-1.4431e-08
5.09762e-07
-1.45837e-08
5.13072e-07
-1.47492e-08
5.16424e-07
-1.49307e-08
5.19822e-07
-1.51325e-08
5.23271e-07
-1.536e-08
5.2678e-07
-1.56202e-08
5.30357e-07
-1.5922e-08
5.34015e-07
-1.62765e-08
5.37769e-07
-1.66979e-08
5.41638e-07
-1.72034e-08
5.45646e-07
-1.78137e-08
5.49825e-07
-1.85532e-08
5.54212e-07
-1.94495e-08
5.5885e-07
-2.05314e-08
5.63793e-07
-2.18273e-08
5.69099e-07
-2.33596e-08
5.7483e-07
-2.51421e-08
-2.7162e-08
5.81048e-07
4.78815e-07
-1.60937e-08
4.81679e-07
-1.62189e-08
4.84569e-07
-1.63471e-08
4.87483e-07
-1.64786e-08
4.90422e-07
-1.66138e-08
4.93388e-07
-1.6753e-08
4.9638e-07
-1.6897e-08
4.994e-07
-1.70466e-08
5.02448e-07
-1.72029e-08
5.05527e-07
-1.73671e-08
5.08637e-07
-1.75413e-08
5.11781e-07
-1.77277e-08
5.14962e-07
-1.79295e-08
5.18182e-07
-1.81506e-08
5.21445e-07
-1.83961e-08
5.24758e-07
-1.86727e-08
5.28126e-07
-1.89888e-08
5.3156e-07
-1.93553e-08
5.35069e-07
-1.97859e-08
5.38669e-07
-2.02977e-08
5.42378e-07
-2.09122e-08
5.46219e-07
-2.16551e-08
5.50223e-07
-2.2557e-08
5.54426e-07
-2.36527e-08
5.58874e-07
-2.49794e-08
5.63621e-07
-2.65743e-08
5.68729e-07
-2.84674e-08
5.74265e-07
-3.06784e-08
-3.31921e-08
5.80295e-07
4.82447e-07
-1.88123e-08
4.85188e-07
-1.89607e-08
4.87954e-07
-1.91125e-08
4.90743e-07
-1.92679e-08
4.93557e-07
-1.94275e-08
4.96395e-07
-1.95918e-08
4.9926e-07
-1.97615e-08
5.02151e-07
-1.99375e-08
5.05069e-07
-2.01212e-08
5.08016e-07
-2.03141e-08
5.10993e-07
-2.05184e-08
5.14002e-07
-2.07368e-08
5.17046e-07
-2.09728e-08
5.20126e-07
-2.12311e-08
5.23248e-07
-2.15176e-08
5.26415e-07
-2.184e-08
5.29634e-07
-2.22081e-08
5.32913e-07
-2.26347e-08
5.36263e-07
-2.31357e-08
5.39697e-07
-2.37314e-08
5.43232e-07
-2.44472e-08
5.46891e-07
-2.53139e-08
5.50702e-07
-2.63684e-08
5.54703e-07
-2.76535e-08
5.58939e-07
-2.92156e-08
5.63467e-07
-3.11024e-08
5.68353e-07
-3.33534e-08
5.73672e-07
-3.5997e-08
-3.90159e-08
5.79496e-07
4.8637e-07
-2.14024e-08
4.88983e-07
-2.15731e-08
4.91617e-07
-2.17474e-08
4.94275e-07
-2.19258e-08
4.96957e-07
-2.21088e-08
4.99662e-07
-2.22969e-08
5.02391e-07
-2.2491e-08
5.05146e-07
-2.26922e-08
5.07927e-07
-2.29019e-08
5.10734e-07
-2.31218e-08
5.1357e-07
-2.33544e-08
5.16436e-07
-2.36027e-08
5.19334e-07
-2.38707e-08
5.22267e-07
-2.41635e-08
5.25237e-07
-2.44878e-08
5.28249e-07
-2.48522e-08
5.31309e-07
-2.52678e-08
5.34423e-07
-2.5749e-08
5.37601e-07
-2.63139e-08
5.40856e-07
-2.69857e-08
5.44202e-07
-2.77935e-08
5.47661e-07
-2.87734e-08
5.51262e-07
-2.99688e-08
5.55039e-07
-3.14309e-08
5.5904e-07
-3.32167e-08
5.63324e-07
-3.53862e-08
5.67962e-07
-3.79913e-08
5.73038e-07
-4.10726e-08
-4.46119e-08
5.78634e-07
4.90604e-07
-2.38569e-08
4.9308e-07
-2.40487e-08
4.95577e-07
-2.42445e-08
4.98096e-07
-2.44447e-08
5.00637e-07
-2.46497e-08
5.032e-07
-2.48604e-08
5.05787e-07
-2.50776e-08
5.08397e-07
-2.53025e-08
5.11032e-07
-2.55365e-08
5.13692e-07
-2.57817e-08
5.16378e-07
-2.60406e-08
5.19092e-07
-2.63166e-08
5.21835e-07
-2.66139e-08
5.2461e-07
-2.69382e-08
5.27419e-07
-2.72967e-08
5.30265e-07
-2.76989e-08
5.33154e-07
-2.81569e-08
5.36092e-07
-2.86864e-08
5.39085e-07
-2.93077e-08
5.42146e-07
-3.00466e-08
5.45289e-07
-3.09358e-08
5.48531e-07
-3.20163e-08
5.51901e-07
-3.33384e-08
5.55433e-07
-3.49625e-08
5.59173e-07
-3.69573e-08
5.63185e-07
-3.93979e-08
5.67545e-07
-4.23515e-08
5.7235e-07
-4.58769e-08
-4.99557e-08
5.77693e-07
4.95167e-07
-2.61674e-08
4.97497e-07
-2.63792e-08
4.99848e-07
-2.65952e-08
5.02219e-07
-2.68159e-08
5.04611e-07
-2.70418e-08
5.07024e-07
-2.72737e-08
5.09459e-07
-2.75124e-08
5.11916e-07
-2.77593e-08
5.14396e-07
-2.8016e-08
5.16898e-07
-2.82845e-08
5.19425e-07
-2.85675e-08
5.21977e-07
-2.88686e-08
5.24556e-07
-2.91925e-08
5.27163e-07
-2.95449e-08
5.298e-07
-2.99337e-08
5.3247e-07
-3.0369e-08
5.35177e-07
-3.08637e-08
5.37925e-07
-3.14347e-08
5.40721e-07
-3.21041e-08
5.43575e-07
-3.28999e-08
5.46497e-07
-3.38582e-08
5.49506e-07
-3.5025e-08
5.52625e-07
-3.64573e-08
5.55887e-07
-3.82253e-08
5.59341e-07
-4.04109e-08
5.6305e-07
-4.31074e-08
5.671e-07
-4.64013e-08
5.71601e-07
-5.03779e-08
-5.50201e-08
5.76666e-07
5.00075e-07
-2.83251e-08
5.02251e-07
-2.85557e-08
5.04447e-07
-2.87906e-08
5.06661e-07
-2.90305e-08
5.08895e-07
-2.92758e-08
5.11149e-07
-2.95273e-08
5.13422e-07
-2.9786e-08
5.15716e-07
-3.00532e-08
5.18031e-07
-3.03306e-08
5.20367e-07
-3.06203e-08
5.22724e-07
-3.09252e-08
5.25105e-07
-3.12489e-08
5.27508e-07
-3.15961e-08
5.29937e-07
-3.19732e-08
5.32391e-07
-3.23881e-08
5.34873e-07
-3.28514e-08
5.37386e-07
-3.33767e-08
5.39934e-07
-3.39818e-08
5.42519e-07
-3.46901e-08
5.45151e-07
-3.55315e-08
5.47838e-07
-3.65454e-08
5.50595e-07
-3.7782e-08
5.53443e-07
-3.93052e-08
5.56414e-07
-4.11957e-08
5.59552e-07
-4.35496e-08
5.62928e-07
-4.64826e-08
5.66631e-07
-5.01049e-08
5.70794e-07
-5.45404e-08
-5.97736e-08
5.75547e-07
5.05352e-07
-3.03206e-08
5.07364e-07
-3.05685e-08
5.09395e-07
-3.0821e-08
5.11443e-07
-3.10786e-08
5.13509e-07
-3.13417e-08
5.15593e-07
-3.16113e-08
5.17695e-07
-3.18883e-08
5.19816e-07
-3.2174e-08
5.21956e-07
-3.24702e-08
5.24114e-07
-3.27789e-08
5.26292e-07
-3.31032e-08
5.2849e-07
-3.34467e-08
5.30708e-07
-3.38143e-08
5.32948e-07
-3.42123e-08
5.35208e-07
-3.46489e-08
5.37492e-07
-3.51349e-08
5.39799e-07
-3.56843e-08
5.42133e-07
-3.63156e-08
5.44496e-07
-3.70529e-08
5.46892e-07
-3.79279e-08
5.49329e-07
-3.89822e-08
5.51817e-07
-4.02703e-08
5.54375e-07
-4.18624e-08
5.57029e-07
-4.385e-08
5.59824e-07
-4.63448e-08
5.62831e-07
-4.94894e-08
5.66148e-07
-5.34224e-08
5.69933e-07
-5.83247e-08
-6.41798e-08
5.74339e-07
4.9673e-07
-3.25995e-08
4.99028e-07
-3.28669e-08
5.01346e-07
-3.3139e-08
5.03684e-07
-3.34162e-08
5.06042e-07
-3.36993e-08
5.08419e-07
-3.39889e-08
5.10817e-07
-3.4286e-08
5.13235e-07
-3.4592e-08
5.15673e-07
-3.49086e-08
5.18132e-07
-3.52379e-08
5.20612e-07
-3.55828e-08
5.23112e-07
-3.59471e-08
5.25634e-07
-3.63355e-08
5.28176e-07
-3.67545e-08
5.30739e-07
-3.72121e-08
5.33323e-07
-3.77192e-08
5.35929e-07
-3.829e-08
5.38556e-07
-3.89431e-08
5.41207e-07
-3.97031e-08
5.43881e-07
-4.06027e-08
5.46585e-07
-4.16853e-08
5.49323e-07
-4.30086e-08
5.52109e-07
-4.46488e-08
5.54967e-07
-4.6708e-08
5.57937e-07
-4.93143e-08
5.6109e-07
-5.26426e-08
5.64533e-07
-5.6865e-08
5.68454e-07
-6.22462e-08
-6.8762e-08
5.73036e-07
5.12865e-07
-3.43737e-08
5.14654e-07
-3.46566e-08
5.1646e-07
-3.49444e-08
5.18281e-07
-3.52374e-08
5.20118e-07
-3.55362e-08
5.21971e-07
-3.58416e-08
5.23839e-07
-3.61546e-08
5.25724e-07
-3.64764e-08
5.27624e-07
-3.68087e-08
5.2954e-07
-3.71537e-08
5.31471e-07
-3.75141e-08
5.33417e-07
-3.78936e-08
5.35379e-07
-3.82968e-08
5.37354e-07
-3.87301e-08
5.39343e-07
-3.92014e-08
5.41346e-07
-3.97213e-08
5.43359e-07
-4.03038e-08
5.45383e-07
-4.09673e-08
5.47417e-07
-4.17364e-08
5.49458e-07
-4.26442e-08
5.51508e-07
-4.37348e-08
5.53568e-07
-4.50684e-08
5.55645e-07
-4.67259e-08
5.57757e-07
-4.88199e-08
5.59937e-07
-5.14944e-08
5.62257e-07
-5.49631e-08
5.64826e-07
-5.94341e-08
5.67876e-07
-6.52958e-08
-7.24976e-08
5.71612e-07
5.32581e-07
-3.55321e-08
5.3375e-07
-3.58258e-08
5.3493e-07
-3.61243e-08
5.36121e-07
-3.6428e-08
5.37322e-07
-3.67374e-08
5.38534e-07
-3.70534e-08
5.39756e-07
-3.73768e-08
5.40988e-07
-3.77088e-08
5.42231e-07
-3.8051e-08
5.43483e-07
-3.84056e-08
5.44744e-07
-3.87751e-08
5.46013e-07
-3.91631e-08
5.4729e-07
-3.9574e-08
5.48574e-07
-4.00137e-08
5.49862e-07
-4.049e-08
5.51154e-07
-4.1013e-08
5.52446e-07
-4.15961e-08
5.53736e-07
-4.22572e-08
5.5502e-07
-4.30204e-08
5.56294e-07
-4.3918e-08
5.57554e-07
-4.49943e-08
5.58796e-07
-4.63106e-08
5.60021e-07
-4.79507e-08
5.61238e-07
-5.00371e-08
5.62471e-07
-5.27275e-08
5.6379e-07
-5.62825e-08
5.65301e-07
-6.0945e-08
5.67292e-07
-6.72862e-08
-7.519e-08
5.69984e-07
5.56656e-07
-3.59376e-08
5.57066e-07
-3.62357e-08
5.5748e-07
-3.65385e-08
5.57898e-07
-3.68464e-08
5.58321e-07
-3.71599e-08
5.58747e-07
-3.74796e-08
5.59176e-07
-3.78064e-08
5.59609e-07
-3.81415e-08
5.60044e-07
-3.84863e-08
5.60482e-07
-3.88428e-08
5.6092e-07
-3.92134e-08
5.61358e-07
-3.96014e-08
5.61795e-07
-4.0011e-08
5.62229e-07
-4.04476e-08
5.62657e-07
-4.09185e-08