/*--------------------------------*- C++ -*----------------------------------*\
  =========                 |
  \\      /  F ield         | OpenFOAM: The Open Source CFD Toolbox
   \\    /   O peration     | Website:  https://openfoam.org
    \\  /    A nd           | Version:  6
     \\/     M anipulation  |
\*---------------------------------------------------------------------------*/
FoamFile
{
    version     2.0;
    format      ascii;
    class       volVectorField;
    location    "0.01";
    object      U;
}
// * * * * * * * * * * * * * * * * * * * * * * * * * * * * * * * * * * * * * //

dimensions      [0 1 -1 0 0 0 0];

internalField   nonuniform List<vector> 
3080
(
(0.466788 -4.28392e-05 6.7923e-21)
(0.466841 -4.14924e-05 6.75047e-21)
(0.466892 -4.01589e-05 0)
(0.46694 -3.88152e-05 6.6675e-21)
(0.466985 -3.74338e-05 0)
(0.467027 -3.59815e-05 0)
(0.467066 -3.44199e-05 6.54478e-21)
(0.467101 -3.27047e-05 0)
(0.467132 -3.07828e-05 6.46418e-21)
(0.467158 -2.85872e-05 0)
(0.467178 -2.60323e-05 0)
(0.467191 -2.30069e-05 6.3453e-21)
(0.467196 -1.93654e-05 0)
(0.467189 -1.49157e-05 6.26761e-21)
(0.46717 -9.40212e-06 0)
(0.467133 -2.48198e-06 0)
(0.467074 6.30964e-06 0)
(0.466987 1.7613e-05 -6.11747e-21)
(0.466862 3.23263e-05 0)
(0.466688 5.17406e-05 6.04645e-21)
(0.466447 7.77692e-05 0)
(0.466115 0.000113367 0)
(0.465656 0.000163357 0)
(0.465011 0.000236178 0)
(0.464088 0.00034838 0)
(0.462699 0.000534406 0)
(0.460544 0.000889872 0)
(0.456448 0.00160962 -1.17909e-20)
(0.45012 0.00362022 0)
(0.428257 0.00738441 0)
(0.489397 -7.29504e-05 5.4646e-21)
(0.489463 -7.0268e-05 -5.43514e-21)
(0.489528 -6.75985e-05 0)
(0.48959 -6.48911e-05 5.3722e-21)
(0.489651 -6.20897e-05 0)
(0.489708 -5.91282e-05 0)
(0.489763 -5.59281e-05 -5.28172e-21)
(0.489815 -5.23949e-05 1.05014e-20)
(0.489863 -4.84128e-05 -5.22099e-21)
(0.489908 -4.3836e-05 0)
(0.489947 -3.84781e-05 0)
(0.48998 -3.20981e-05 5.12983e-21)
(0.490005 -2.43807e-05 0)
(0.49002 -1.4911e-05 5.07067e-21)
(0.490024 -3.13827e-06 0)
(0.490012 1.1675e-05 0)
(0.48998 3.05275e-05 0)
(0.489922 5.47912e-05 4.95601e-21)
(0.48983 8.6386e-05 0)
(0.489694 0.000128061 -4.90108e-21)
(0.489498 0.000183874 0)
(0.489221 0.000260058 0)
(0.488832 0.000366715 9.6545e-21)
(0.488287 0.000521346 -9.61298e-21)
(0.487516 0.000757607 0)
(0.486399 0.00114453 0)
(0.48478 0.00186013 0)
(0.482124 0.00327126 2.87233e-20)
(0.478757 0.00683462 0)
(0.471278 0.0136024 -1.96614e-20)
(0.495737 -0.00012284 -9.09345e-21)
(0.495807 -0.000118782 0)
(0.495875 -0.000114726 0)
(0.495941 -0.000110598 -2.68296e-20)
(0.496005 -0.000106314 1.77863e-20)
(0.496067 -0.000101772 0)
(0.496127 -9.68496e-05 1.75872e-20)
(0.496184 -9.13971e-05 -8.74464e-21)
(0.496237 -8.52304e-05 0)
(0.496287 -7.81177e-05 0)
(0.496331 -6.97625e-05 0)
(0.49637 -5.9782e-05 -2.56402e-20)
(0.496401 -4.76769e-05 0)
(0.496422 -3.27911e-05 -8.44942e-21)
(0.496431 -1.42559e-05 0)
(0.496424 9.08943e-06 0)
(0.496397 3.88117e-05 0)
(0.496343 7.70549e-05 0)
(0.496255 0.000126802 0)
(0.49612 0.000192295 0)
(0.495923 0.000279731 -1.625e-20)
(0.495643 0.000398497 0)
(0.495249 0.000563487 -8.04434e-21)
(0.494696 0.000799756 2.40322e-20)
(0.493918 0.00115305 0)
(0.492806 0.00171235 0)
(0.491229 0.0026802 -1.59163e-20)
(0.488839 0.00446841 -1.59569e-20)
(0.485927 0.00833253 1.60804e-20)
(0.481647 0.0156843 1.63839e-20)
(0.498791 -0.000174186 -1.59866e-20)
(0.498862 -0.000168878 0)
(0.498931 -0.000163544 0)
(0.498999 -0.000158088 1.57262e-20)
(0.499065 -0.000152393 -8.95247e-25)
(0.499129 -0.000146323 0)
(0.499191 -0.000139707 -1.54645e-20)
(0.49925 -0.000132339 -1.53765e-20)
(0.499307 -0.00012396 0)
(0.499359 -0.000114244 0)
(0.499407 -0.000102776 1.51157e-20)
(0.49945 -8.90172e-05 7.07662e-25)
(0.499484 -7.22665e-05 0)
(0.49951 -5.16043e-05 1.4857e-20)
(0.499523 -2.58143e-05 0)
(0.49952 6.72536e-06 0)
(0.499498 4.81998e-05 0)
(0.499449 0.000101589 -1.45203e-20)
(0.499365 0.000171025 0)
(0.499235 0.000262344 0)
(0.499045 0.000384011 1.4283e-20)
(0.498772 0.00054869 0)
(0.498388 0.000776141 0)
(0.497852 0.00109876 -2.81585e-20)
(0.497103 0.0015733 0)
(0.496055 0.00230469 0)
(0.494611 0.00350987 1.39796e-20)
(0.492575 0.00560165 2.79668e-20)
(0.49027 0.00961478 -1.41124e-20)
(0.48767 0.0165828 0)
(0.50058 -0.000222937 1.46058e-20)
(0.500651 -0.000216541 -1.45253e-20)
(0.50072 -0.000210082 0)
(0.500789 -0.000203439 1.43654e-20)
(0.500856 -0.00019647 -1.4286e-20)
(0.500921 -0.000189 0)
(0.500985 -0.000180816 -1.41251e-20)
(0.501046 -0.000171653 2.80906e-20)
(0.501104 -0.000161179 0)
(0.501159 -0.000148976 2.77697e-20)
(0.50121 -0.000134507 -1.38055e-20)
(0.501255 -0.00011708 1.37257e-20)
(0.501293 -9.57936e-05 0)
(0.501322 -6.94657e-05 -1.35669e-20)
(0.501339 -3.65361e-05 0)
(0.501341 5.07259e-06 0)
(0.501324 5.81518e-05 0)
(0.501281 0.000126497 1.32555e-20)
(0.501204 0.000215346 0)
(0.501084 0.000332053 0)
(0.500905 0.00048719 0)
(0.500647 0.000696381 0)
(0.500285 0.000983557 0)
(0.499782 0.00138694 1.28443e-20)
(0.499089 0.00197093 0)
(0.498139 0.00284859 2.54966e-20)
(0.496874 0.00423515 0)
(0.495205 0.00651012 -2.54879e-20)
(0.493469 0.0104846 -2.54848e-20)
(0.491935 0.0168635 0)
(0.501736 -0.000270062 0)
(0.501806 -0.000262721 1.36344e-20)
(0.501876 -0.000255271 0)
(0.501945 -0.000247574 -4.04476e-20)
(0.502013 -0.00023946 0)
(0.502079 -0.000230721 2.66608e-20)
(0.502144 -0.000221101 1.32548e-20)
(0.502206 -0.00021028 -1.31787e-20)
(0.502266 -0.000197856 0)
(0.502323 -0.000183323 -2.6053e-20)
(0.502376 -0.000166027 0)
(0.502424 -0.000145128 -2.5748e-20)
(0.502465 -0.000119532 0)
(0.502497 -8.78066e-05 0)
(0.502519 -4.80626e-05 0)
(0.502526 2.20821e-06 0)
(0.502515 6.63683e-05 0)
(0.50248 0.000148973 2.48508e-20)
(0.502413 0.000256274 2.47063e-20)
(0.502305 0.000396997 0)
(0.502143 0.000583556 0)
(0.501908 0.000834058 0)
(0.501578 0.00117571 0)
(0.501122 0.00165083 -2.40487e-20)
(0.500502 0.00232797 0)
(0.499673 0.00332172 -4.77261e-20)
(0.498607 0.00483459 2.37819e-20)
(0.49729 0.0071981 2.37344e-20)
(0.496054 0.0110314 2.38305e-20)
(0.495262 0.0168061 2.36586e-20)
(0.502523 -0.000316158 0)
(0.502594 -0.000307987 0)
(0.502664 -0.000299663 0)
(0.502733 -0.000291027 7.87744e-25)
(0.502801 -0.000281887 2.56661e-20)
(0.502868 -0.000272001 -2.55193e-20)
(0.502934 -0.000261075 2.53707e-20)
(0.502998 -0.000248738 0)
(0.50306 -0.000234522 -2.5075e-20)
(0.503118 -0.000217836 0)
(0.503173 -0.00019792 2.47793e-20)
(0.503224 -0.000173793 2.46327e-20)
(0.503268 -0.000144181 0)
(0.503305 -0.000107418 0)
(0.503331 -6.13118e-05 2.41907e-20)
(0.503345 -2.95676e-06 2.4045e-20)
(0.503341 7.15298e-05 2.39003e-20)
(0.503316 0.000167387 -2.56139e-24)
(0.503261 0.000291765 -2.36185e-20)
(0.503169 0.000454568 0)
(0.503028 0.000669744 0)
(0.502822 0.000957351 0)
(0.502533 0.00134694 2.30807e-20)
(0.502135 0.00188324 2.29733e-20)
(0.501603 0.0026361 0)
(0.500908 0.00371676 4.55235e-20)
(0.500051 0.00530909 -4.0891e-23)
(0.499062 0.00769348 -6.24182e-23)
(0.498261 0.0113352 -2.25248e-20)
(0.498014 0.0165405 -4.49469e-20)
(0.503075 -0.000361463 -2.55064e-20)
(0.503146 -0.00035256 0)
(0.503216 -0.000343462 0)
(0.503286 -0.000333993 6.18415e-25)
(0.503355 -0.000323936 -4.98552e-20)
(0.503422 -0.000313023 -2.47819e-20)
(0.503489 -0.000300923 -2.4637e-20)
(0.503554 -0.000287218 2.44906e-20)
(0.503617 -0.000271381 4.86903e-20)
(0.503678 -0.000252742 -2.4199e-20)
(0.503736 -0.000230445 -9.28352e-25)
(0.503789 -0.00020338 0)
(0.503837 -0.000170111 0)
(0.503878 -0.000128761 0)
(0.50391 -7.68646e-05 -2.34737e-20)
(0.503931 -1.11628e-05 -2.33299e-20)
(0.503936 7.26844e-05 -2.3187e-20)
(0.503922 0.000180507 -2.96527e-24)
(0.503882 0.000320216 0)
(0.503809 0.000502678 0)
(0.503693 0.000743039 0)
(0.503522 0.00106276 0)
(0.50328 0.00149283 -2.23749e-20)
(0.502951 0.00207895 0)
(0.502516 0.00288992 0)
(0.501965 0.0040305 -2.20401e-20)
(0.501317 0.00566334 -2.19496e-20)
(0.500633 0.00802026 -2.18681e-20)
(0.50021 0.0114464 2.17991e-20)
(0.500381 0.0161313 2.1668e-20)
(0.50347 -0.000406106 5.00749e-20)
(0.503541 -0.000396558 -2.48938e-20)
(0.503611 -0.000386776 0)
(0.503681 -0.000376569 2.46065e-20)
(0.50375 -0.000365702 2.44623e-20)
(0.503819 -0.00035388 2.43178e-20)
(0.503887 -0.000340741 2.41725e-20)
(0.503953 -0.000325824 -2.40283e-20)
(0.504017 -0.000308551 -2.38833e-20)
(0.50408 -0.000288185 2.37384e-20)
(0.50414 -0.000263779 -4.7186e-20)
(0.504196 -0.000234115 0)
(0.504248 -0.000197613 0)
(0.504294 -0.000152212 -2.3158e-20)
(0.504332 -9.52109e-05 2.30137e-20)
(0.50436 -2.30504e-05 0)
(0.504375 6.8994e-05 4.54534e-20)
(0.504374 0.000187238 -2.25877e-20)
(0.504351 0.0003402 0)
(0.5043 0.000539481 0)
(0.504213 0.000801071 0)
(0.504081 0.0011473 4.40607e-20)
(0.503893 0.00160978 4.37957e-20)
(0.503638 0.00223392 0)
(0.503309 0.00308582 0)
(0.502905 0.00426177 0)
(0.502462 0.00590289 4.28073e-20)
(0.502059 0.00819743 4.25654e-20)
(0.501965 0.0113983 -4.23123e-20)
(0.502468 0.0156143 0)
(0.503761 -0.000450147 -4.12615e-25)
(0.503832 -0.000440028 4.9216e-20)
(0.503902 -0.000429644 0)
(0.503972 -0.000418791 0)
(0.504041 -0.000407216 0)
(0.50411 -0.000394604 0)
(0.504178 -0.000380564 -2.3888e-20)
(0.504245 -0.000364602 0)
(0.504311 -0.000346094 0)
(0.504375 -0.000324245 0)
(0.504438 -0.000298035 6.99249e-20)
(0.504497 -0.000266153 4.6326e-20)
(0.504552 -0.000226899 0)
(0.504603 -0.00017806 2.28748e-20)
(0.504647 -0.000116742 -2.27306e-20)
(0.504684 -3.91427e-05 -4.51691e-20)
(0.50471 5.97656e-05 -4.48873e-20)
(0.504722 0.000186671 -4.45954e-20)
(0.504717 0.000350534 -4.43109e-20)
(0.50469 0.000563459 4.40286e-20)
(0.504635 0.000841936 0)
(0.504546 0.00120866 -1.97355e-23)
(0.504416 0.00169514 -8.64261e-20)
(0.50424 0.00234553 0)
(0.504017 0.00322198 0)
(0.503761 0.0044114 0)
(0.503516 0.00603433 -8.46533e-23)
(0.503369 0.00824144 -1.13133e-22)
(0.503562 0.0112159 4.17164e-20)
(0.504337 0.0150122 0)
(0.50399 -0.000493533 -2.45818e-20)
(0.50406 -0.000482911 -2.44386e-20)
(0.504129 -0.000472001 0)
(0.504198 -0.000460588 4.83015e-20)
(0.504267 -0.000448406 0)
(0.504336 -0.000435123 0)
(0.504404 -0.000420325 0)
(0.504471 -0.000403491 0)
(0.504538 -0.000383961 4.6855e-20)
(0.504603 -0.000360893 0)
(0.504667 -0.000333212 -4.6276e-20)
(0.504728 -0.000299529 -2.14841e-24)
(0.504787 -0.000258052 -4.5693e-20)
(0.504843 -0.000206452 0)
(0.504893 -0.000141687 0)
(0.504938 -5.97756e-05 4.48274e-20)
(0.504974 4.45289e-05 4.45334e-20)
(0.505001 0.000178168 4.42527e-20)
(0.505015 0.000350382 9.67305e-24)
(0.505013 0.000573543 -4.36844e-20)
(0.504991 0.000864323 0)
(0.504947 0.00124533 -4.31262e-20)
(0.504877 0.00174737 8.56773e-20)
(0.504781 0.00241256 0)
(0.504667 0.00329838 0)
(0.504555 0.00448209 4.19878e-20)
(0.504495 0.00606536 -8.34834e-20)
(0.50458 0.0081674 -1.06748e-22)
(0.505023 0.0109193 0)
(0.506023 0.0143399 0)
(0.504259 -0.000524991 0)
(0.504327 -0.000513626 0)
(0.504394 -0.000501738 -9.6211e-20)
(0.504462 -0.000489049 4.78163e-20)
(0.504529 -0.000475214 4.75269e-20)
(0.504596 -0.000459805 0)
(0.504663 -0.000442279 -4.69468e-20)
(0.504729 -0.00042195 -4.66575e-20)
(0.504794 -0.000397944 0)
(0.504859 -0.000369142 0)
(0.504922 -0.000334104 -2.20392e-24)
(0.504983 -0.000290973 4.54938e-20)
(0.505043 -0.000237336 0)
(0.505099 -0.000170058 4.49082e-20)
(0.505151 -8.50373e-05 0)
(0.505198 2.31003e-05 -4.43321e-20)
(0.505239 0.000161433 0)
(0.505272 0.00033932 8.75002e-20)
(0.505295 0.000569184 0)
(0.505307 0.00086758 4.31668e-20)
(0.505308 0.00125664 0)
(0.505297 0.00176599 -4.26182e-20)
(0.505281 0.00243517 0)
(0.505272 0.0033166 0)
(0.505296 0.0044781 -4.17755e-20)
(0.50541 0.00600459 4.1486e-20)
(0.505702 0.00798949 -1.00005e-22)
(0.50636 0.0105255 -4.07173e-20)
(0.507548 0.0136087 0)
(0.504459 -0.000565845 0)
(0.504524 -0.000554095 0)
(0.504588 -0.000541814 4.79943e-20)
(0.504653 -0.000528717 -8.51188e-25)
(0.504717 -0.000514454 -4.74155e-20)
(0.504782 -0.000498583 0)
(0.504846 -0.00048055 4.68347e-20)
(0.504911 -0.000459654 0)
(0.504975 -0.000435001 0)
(0.505039 -0.000405446 0)
(0.505103 -0.000369521 -4.56691e-20)
(0.505165 -0.000325328 0)
(0.505227 -0.000270415 -4.50818e-20)
(0.505287 -0.000201596 -4.47933e-20)
(0.505346 -0.000114721 0)
(0.505403 -4.36994e-06 4.42034e-20)
(0.505457 0.000136556 -4.39105e-20)
(0.505507 0.000317382 -1.03131e-23)
(0.505555 0.000550382 -4.33246e-20)
(0.5056 0.000851739 -1.67835e-23)
(0.505645 0.00124279 0)
(0.505693 0.00175159 4.24423e-20)
(0.505753 0.00241479 0)
(0.505844 0.00327959 0)
(0.505995 0.00440494 0)
(0.506265 0.00586121 -4.12067e-20)
(0.506739 0.00772102 -9.31338e-23)
(0.507583 0.010049 8.1064e-20)
(0.508928 0.012828 0)
(0.504686 -0.000604787 4.85069e-20)
(0.504746 -0.000592723 4.82189e-20)
(0.504805 -0.000580134 -4.79301e-20)
(0.504865 -0.000566733 -8.61881e-25)
(0.504925 -0.000552165 0)
(0.504985 -0.000535987 0)
(0.505045 -0.00051764 4.67689e-20)
(0.505106 -0.000496418 0)
(0.505167 -0.000471418 -4.61853e-20)
(0.505229 -0.00044149 0)
(0.50529 -0.000405157 0)
(0.505353 -0.000360515 4.53069e-20)
(0.505415 -0.000305105 9.00302e-20)
(0.505478 -0.000235741 0)
(0.505542 -0.000148289 0)
(0.505606 -3.73667e-05 -8.82681e-20)
(0.505671 0.000104038 4.3844e-20)
(0.505738 0.000285077 -4.35506e-20)
(0.505809 0.000517698 4.32571e-20)
(0.505885 0.000817489 -4.29633e-20)
(0.505971 0.00120473 -4.26474e-20)
(0.506074 0.00170567 -8.47186e-20)
(0.506206 0.00235385 0)
(0.506388 0.00319134 0)
(0.506656 0.00426896 0)
(0.507065 0.00564466 4.11343e-20)
(0.507698 0.00737452 -4.07847e-20)
(0.508698 0.00950302 -4.04021e-20)
(0.510175 0.0120055 0)
(0.50496 -0.000640825 -4.85708e-20)
(0.505011 -0.000628525 -4.82796e-20)
(0.505063 -0.000615721 4.79876e-20)
(0.505116 -0.000602126 -8.76494e-25)
(0.505169 -0.000587387 0)
(0.505222 -0.000571065 0)
(0.505276 -0.000552604 -9.3625e-20)
(0.505331 -0.000531303 0)
(0.505386 -0.000506267 9.24437e-20)
(0.505443 -0.000476357 4.59248e-20)
(0.505501 -0.000440107 0)
(0.50556 -0.000395637 -4.53336e-20)
(0.505621 -0.000340518 -4.50365e-20)
(0.505684 -0.000271614 0)
(0.50575 -0.000184864 0)
(0.50582 -7.50039e-05 8.8279e-20)
(0.505894 6.47916e-05 -4.38357e-20)
(0.505975 0.000243376 -4.35342e-20)
(0.506066 0.000472218 0)
(0.50617 0.00076613 0)
(0.506293 0.00114415 4.26397e-20)
(0.506446 0.00163052 4.23339e-20)
(0.506644 0.00225562 -4.19899e-20)
(0.50691 0.00305664 0)
(0.50728 0.00407704 0)
(0.507812 0.00536434 0)
(0.508581 0.00696164 0)
(0.509713 0.00889903 0)
(0.511298 0.0111486 0)
(0.505295 -0.000672945 0)
(0.505336 -0.000660492 0)
(0.505377 -0.000647568 -4.75096e-20)
(0.505419 -0.000633893 -9.44726e-20)
(0.505462 -0.000619122 0)
(0.505506 -0.000602822 0)
(0.50555 -0.000584452 1.21796e-24)
(0.505596 -0.000563325 -4.61328e-20)
(0.505644 -0.000538569 -1.63308e-24)
(0.505693 -0.000509068 -1.93169e-24)
(0.505744 -0.000473397 -4.52976e-20)
(0.505797 -0.000429721 -4.50177e-20)
(0.505854 -0.000375681 4.4737e-20)
(0.505915 -0.000308234 0)
(0.50598 -0.000223451 0)
(0.506052 -0.00011626 -4.38955e-20)
(0.506133 1.98897e-05 4.3612e-20)
(0.506225 0.000193441 8.66443e-20)
(0.506332 0.00041525 -4.30281e-20)
(0.50646 0.000699214 0)
(0.506617 0.00106298 0)
(0.506814 0.00152868 -8.42799e-20)
(0.50707 0.00212359 1.25529e-19)
(0.50741 0.00288028 -8.30285e-20)
(0.50787 0.00383573 -8.23647e-20)
(0.508507 0.00502876 0)
(0.509391 0.00649243 8.09044e-20)
(0.510632 0.00824675 0)
(0.512305 0.0102632 0)
(0.50569 -0.000698844 4.85247e-20)
(0.505717 -0.00068637 0)
(0.505745 -0.000673473 9.58736e-20)
(0.505774 -0.000659882 9.52836e-20)
(0.505804 -0.000645262 0)
(0.505835 -0.000629198 0)
(0.505868 -0.000611168 4.67546e-20)
(0.505902 -0.000590512 4.64578e-20)
(0.505938 -0.000566388 -4.61607e-20)
(0.505977 -0.000537728 -1.87271e-24)
(0.506018 -0.000503161 2.23807e-24)
(0.506063 -0.000460929 2.70358e-24)
(0.506113 -0.000408773 -3.29626e-24)
(0.506168 -0.000343787 0)
(0.50623 -0.000262227 0)
(0.506302 -0.000159277 0)
(0.506386 -2.87426e-05 0)
(0.506485 0.000137316 -4.34633e-20)
(0.506605 0.00034904 4.31584e-20)
(0.506752 0.000619294 0)
(0.506937 0.000964243 0)
(0.507173 0.0014039 8.44491e-20)
(0.507479 0.00196248 -8.38044e-20)
(0.507883 0.00266832 7.51355e-23)
(0.508421 0.00355274 8.24497e-20)
(0.509147 0.00464734 0)
(0.510127 0.00597742 -8.0939e-20)
(0.511457 0.00755604 -7.99368e-20)
(0.513202 0.0093556 0)
(0.506123 -0.000716562 -9.73243e-20)
(0.506134 -0.000704232 0)
(0.506147 -0.000691537 -4.80548e-20)
(0.506161 -0.000678218 -4.77507e-20)
(0.506176 -0.000663958 0)
(0.506192 -0.000648363 0)
(0.506211 -0.000630937 0)
(0.506231 -0.000611055 0)
(0.506254 -0.000587921 4.6227e-20)
(0.506281 -0.000560524 -9.18458e-20)
(0.506311 -0.00052757 4.56189e-20)
(0.506345 -0.000487401 9.06253e-20)
(0.506385 -0.000437889 -4.50087e-20)
(0.506433 -0.0003763 -4.46992e-20)
(0.50649 -0.000299124 0)
(0.506559 -0.000201855 0)
(0.506642 -7.87259e-05 0)
(0.506746 7.76237e-05 0)
(0.506875 0.000276533 0)
(0.507038 0.000529756 0)
(0.507246 0.000851918 0)
(0.507514 0.0012609 0)
(0.507863 0.00177801 0)
(0.508321 0.00242768 1.66066e-19)
(0.508925 0.00323627 0)
(0.509726 0.00422941 0)
(0.510785 0.0054264 -8.06839e-20)
(0.512187 0.00683548 7.99331e-20)
(0.513991 0.00843081 0)
(0.506571 -0.000725257 4.87536e-20)
(0.506566 -0.00071323 4.84425e-20)
(0.506562 -0.000700906 4.81323e-20)
(0.50656 -0.000688041 -4.78221e-20)
(0.506559 -0.000674339 0)
(0.50656 -0.000659431 0)
(0.506563 -0.000642856 0)
(0.506568 -0.000624032 0)
(0.506577 -0.000602218 -4.62741e-20)
(0.50659 -0.000576475 1.70474e-24)
(0.506607 -0.000545601 -4.56533e-20)
(0.506629 -0.000508061 -4.53459e-20)
(0.506659 -0.000461883 0)
(0.506697 -0.000404541 3.60221e-24)
(0.506746 -0.000332797 -4.44118e-20)
(0.50681 -0.00024251 4.40997e-20)
(0.506891 -0.000128393 4.37862e-20)
(0.506996 1.6267e-05 0)
(0.507132 0.000199939 0)
(0.507307 0.000433208 0)
(0.507533 0.000729122 0)
(0.507828 0.00110346 -8.43406e-20)
(0.508212 0.00157475 0)
(0.508715 0.00216388 -8.30085e-20)
(0.509374 0.00289284 0)
(0.510236 0.00378235 0)
(0.51136 0.00484703 8.06914e-20)
(0.512821 0.00609187 0)
(0.514672 0.00749329 0)
(0.50701 -0.000724395 4.88064e-20)
(0.506988 -0.000712822 -4.84931e-20)
(0.506967 -0.000701027 -4.81793e-20)
(0.506948 -0.000688786 4.78657e-20)
(0.50693 -0.000675826 0)
(0.506915 -0.000661809 0)
(0.506902 -0.000646313 0)
(0.506892 -0.000628806 4.6613e-20)
(0.506886 -0.000608613 -4.63006e-20)
(0.506884 -0.000584878 4.59899e-20)
(0.506887 -0.000556507 4.5678e-20)
(0.506897 -0.000522105 0)
(0.506915 -0.000479881 0)
(0.506942 -0.000427547 4.47417e-20)
(0.506983 -0.000362175 4.09335e-24)
(0.50704 -0.000280025 -8.82254e-20)
(0.507118 -0.000176345 -4.38003e-20)
(0.507222 -4.51236e-05 0)
(0.507361 0.000121187 0)
(0.507544 0.000331955 4.28291e-20)
(0.507785 0.000598638 0)
(0.5081 0.000934945 8.4358e-20)
(0.508514 0.00135678 4.18127e-20)
(0.509054 0.00188179 0)
(0.509757 0.00252814 -8.21518e-20)
(0.51067 0.00331245 0)
(0.511846 0.00424573 8.05084e-20)
(0.513353 0.0053308 7.95964e-20)
(0.515241 0.00654666 7.85232e-20)
(0.507414 -0.000713798 -4.88308e-20)
(0.507374 -0.000702816 0)
(0.507337 -0.000691696 -4.81994e-20)
(0.507301 -0.000680235 0)
(0.507267 -0.000668185 0)
(0.507235 -0.000655245 0)
(0.507206 -0.000641034 0)
(0.507181 -0.000625078 -4.66294e-20)
(0.50716 -0.000606776 1.28997e-24)
(0.507143 -0.000585365 -4.60016e-20)
(0.507132 -0.000559873 0)
(0.507129 -0.000529061 0)
(0.507134 -0.000491341 0)
(0.507151 -0.000444686 -4.47477e-20)
(0.507182 -0.000386507 4.44366e-20)
(0.507231 -0.000313509 8.82385e-20)
(0.507304 -0.000221511 0)
(0.507406 -0.000105246 -4.34793e-20)
(0.507546 4.18668e-05 -4.3156e-20)
(0.507734 0.00022795 -1.08269e-23)
(0.507986 0.000462863 -4.24948e-20)
(0.508318 0.000758302 4.21536e-20)
(0.508754 0.00112768 -4.18226e-20)
(0.509324 0.00158565 0)
(0.510063 0.00214705 1.23229e-19)
(0.511016 0.00282504 4.06541e-20)
(0.512233 0.00362785 -8.05315e-20)
(0.513776 0.00455687 -1.19387e-19)
(0.515693 0.00559388 -7.85506e-20)
(0.507757 -0.000693664 4.88307e-20)
(0.507701 -0.000683399 0)
(0.507647 -0.000673084 4.82017e-20)
(0.507595 -0.000662541 0)
(0.507545 -0.000651552 0)
(0.507498 -0.000639852 0)
(0.507454 -0.000627109 0)
(0.507413 -0.000612912 0)
(0.507377 -0.000596738 4.63202e-20)
(0.507346 -0.000577929 1.37067e-24)
(0.507322 -0.000555644 0)
(0.507305 -0.000528814 0)
(0.507299 -0.000496073 0)
(0.507304 -0.000455677 4.47554e-20)
(0.507326 -0.000405402 0)
(0.507367 -0.000342425 -4.06586e-24)
(0.507433 -0.000263172 0)
(0.507531 -0.000163158 4.34886e-20)
(0.507671 -3.67991e-05 4.31657e-20)
(0.507863 0.000122759 -8.56675e-20)
(0.508121 0.000323785 1.17059e-23)
(0.508466 0.000576006 -4.21646e-20)
(0.50892 0.000890468 0)
(0.509512 0.00127909 4.14285e-20)
(0.510279 0.00175372 -2.54692e-23)
(0.511263 0.00232462 -4.06676e-20)
(0.512513 0.00299783 0)
(0.514083 0.00377383 3.97806e-20)
(0.516021 0.00463732 0)
(0.508019 -0.000664556 -4.88148e-20)
(0.507948 -0.000655115 2.42505e-20)
(0.507879 -0.00064572 0)
(0.507812 -0.000636216 0)
(0.507747 -0.000626419 0)
(0.507685 -0.000616102 0)
(0.507627 -0.000604987 4.69392e-20)
(0.507572 -0.000592726 -4.66275e-20)
(0.507522 -0.000578886 4.63159e-20)
(0.507477 -0.000562915 4.60055e-20)
(0.50744 -0.000544117 -4.56926e-20)
(0.507411 -0.000521604 0)
(0.507393 -0.000494244 -4.50681e-20)
(0.507388 -0.000460594 0)
(0.507399 -0.000418819 4.44406e-20)
(0.507432 -0.00036659 -4.41283e-20)
(0.507492 -0.000300969 0)
(0.507586 -0.000218278 -4.34859e-20)
(0.507723 -0.000113957 0)
(0.507916 1.75681e-05 4.28396e-20)
(0.508179 0.000182981 4.25051e-20)
(0.508532 0.000390091 0)
(0.508999 0.000647685 4.17944e-20)
(0.509609 0.000965137 -1.78572e-23)
(0.510396 0.00135162 -8.2096e-20)
(0.511404 0.00181491 0)
(0.512677 0.00235931 4.01938e-20)
(0.514266 0.00298471 0)
(0.51622 0.00367883 3.91869e-20)
(0.508189 -0.000627353 2.43926e-20)
(0.508104 -0.000618829 -2.42379e-20)
(0.50802 -0.000610451 2.40826e-20)
(0.507939 -0.000602091 2.39277e-20)
(0.507861 -0.000593596 0)
(0.507785 -0.000584784 0)
(0.507713 -0.00057543 -4.69276e-20)
(0.507646 -0.000565257 6.9927e-20)
(0.507583 -0.000553921 -4.63089e-20)
(0.507526 -0.000540986 0)
(0.507477 -0.000525906 6.85342e-20)
(0.507436 -0.000507984 2.26892e-20)
(0.507407 -0.000486334 4.50692e-20)
(0.507392 -0.000459828 0)
(0.507394 -0.000427034 -6.66664e-20)
(0.507419 -0.000386139 0)
(0.507471 -0.00033486 0)
(0.50756 -0.000270349 4.34947e-20)
(0.507694 -0.000189085 0)
(0.507886 -8.6784e-05 0)
(0.508152 4.16655e-05 0)
(0.50851 0.000202194 -4.21539e-20)
(0.508985 0.000401422 -4.1809e-20)
(0.509606 0.000646338 -4.14403e-20)
(0.510408 0.000943681 4.10542e-20)
(0.511432 0.00129903 0)
(0.512721 0.00171529 -4.0213e-20)
(0.514323 0.00219198 0)
(0.516286 0.00271986 -7.83903e-20)
(0.50826 -0.000583189 -4.8748e-20)
(0.508162 -0.000575658 -2.42207e-20)
(0.508066 -0.000568378 -2.4068e-20)
(0.507973 -0.000561248 -3.33067e-25)
(0.507882 -0.00055415 0)
(0.507794 -0.000546943 0)
(0.507711 -0.00053946 0)
(0.507631 -0.000531497 -2.33023e-20)
(0.507557 -0.000522802 0)
(0.507489 -0.000513062 0)
(0.507428 -0.000501883 -2.28419e-20)
(0.507377 -0.000488767 -4.53753e-20)
(0.507338 -0.000473082 0)
(0.507313 -0.000454026 2.2378e-20)
(0.507307 -0.000430582 1.00471e-24)
(0.507323 -0.000401467 0)
(0.507369 -0.000365069 2.19076e-20)
(0.507452 -0.000319381 -2.1748e-20)
(0.507582 -0.000261936 0)
(0.507772 -0.000189742 0)
(0.508037 -9.92513e-05 0)
(0.508397 1.36243e-05 4.21687e-20)
(0.508876 0.00015341 0)
(0.509504 0.000324825 0)
(0.510314 0.00053235 0)
(0.511347 0.000779594 0)
(0.512645 0.00106826 0)
(0.514254 0.00139764 0)
(0.516221 0.00176151 5.87981e-20)
(0.508236 -0.000533374 2.43528e-20)
(0.508127 -0.0005269 2.42019e-20)
(0.50802 -0.000520784 1.20253e-20)
(0.507916 -0.000514952 -2.38998e-20)
(0.507814 -0.000509323 0)
(0.507716 -0.000503801 0)
(0.507622 -0.000498275 0)
(0.507532 -0.000492616 0)
(0.507448 -0.000486668 -1.15711e-20)
(0.50737 -0.00048024 0)
(0.5073 -0.000473098 0)
(0.507239 -0.000464945 3.40284e-20)
(0.507191 -0.000455408 0)
(0.507158 -0.000444019 -2.23789e-20)
(0.507143 -0.000430183 2.22243e-20)
(0.507152 -0.000413155 0)
(0.507192 -0.000392005 -2.19116e-20)
(0.507269 -0.000365577 2.17529e-20)
(0.507394 -0.000332462 1.07952e-20)
(0.507579 -0.000290964 1.07131e-20)
(0.507842 -0.000239088 0)
(0.508201 -0.000174563 -1.05429e-20)
(0.50868 -9.49104e-05 0)
(0.509309 2.40525e-06 -1.03609e-20)
(0.510122 0.000119718 0)
(0.511158 0.000258801 0)
(0.512459 0.000420299 0)
(0.514069 0.00060334 -9.93471e-21)
(0.516034 0.00080459 -1.96054e-20)
(0.508127 -0.000479302 0)
(0.508009 -0.000473933 0)
(0.507892 -0.00046903 -1.22901e-20)
(0.507779 -0.00046455 0)
(0.507669 -0.000460445 0)
(0.507561 -0.000456665 0)
(0.507458 -0.000453158 0)
(0.50736 -0.000449869 0)
(0.507267 -0.00044674 1.18331e-20)
(0.507181 -0.000443704 0)
(0.507103 -0.000440685 0)
(0.507034 -0.000437592 -1.16021e-20)
(0.506978 -0.000434316 0)
(0.506937 -0.000430721 0)
(0.506916 -0.000426641 0)
(0.506918 -0.000421874 0)
(0.506951 -0.000416172 0)
(0.507022 -0.000409238 0)
(0.507141 -0.000400724 -1.10461e-20)
(0.507322 -0.000390225 -1.09625e-20)
(0.507579 -0.000377295 0)
(0.507934 -0.000361463 1.0789e-20)
(0.50841 -0.000342268 0)
(0.509036 -0.000319316 1.06031e-20)
(0.509847 -0.000292359 0)
(0.51088 -0.00026139 0)
(0.512177 -0.000226772 0)
(0.513783 -0.000189496 1.01675e-20)
(0.515742 -0.000150266 0)
(0.507932 -0.000417332 0)
(0.507805 -0.000413176 0)
(0.507681 -0.000409608 0)
(0.50756 -0.000406614 -1.17554e-20)
(0.507442 -0.000404185 0)
(0.507327 -0.000402322 -1.1592e-20)
(0.507216 -0.000401035 1.151e-20)
(0.50711 -0.000400353 0)
(0.50701 -0.000400322 1.13457e-20)
(0.506917 -0.000401012 0)
(0.506831 -0.000402523 1.11806e-20)
(0.506756 -0.000404988 0)
(0.506693 -0.000408584 -1.10145e-20)
(0.506645 -0.000413544 0)
(0.506617 -0.000420173 0)
(0.506612 -0.000428862 -1.07623e-20)
(0.506638 -0.000440116 -1.0677e-20)
(0.506702 -0.000454579 0)
(0.506815 -0.000473066 -2.10069e-20)
(0.506988 -0.000496595 0)
(0.507239 -0.000526419 2.06482e-20)
(0.507586 -0.000564043 0)
(0.508055 -0.000611223 0)
(0.508673 -0.000669919 0)
(0.509474 -0.00074218 0)
(0.510498 -0.000829958 0)
(0.511785 -0.000934769 0)
(0.51338 -0.00105773 0)
(0.515327 -0.00119707 -1.88897e-20)
(0.507647 -0.000347535 0)
(0.507515 -0.000344737 0)
(0.507385 -0.000342657 -2.40612e-20)
(0.507258 -0.000341315 1.19487e-20)
(0.507134 -0.000340744 0)
(0.507014 -0.000340997 1.1784e-20)
(0.506898 -0.000342155 -1.17015e-20)
(0.506787 -0.000344333 0)
(0.506681 -0.000347693 -1.15358e-20)
(0.506583 -0.00035245 0)
(0.506492 -0.000358892 1.13691e-20)
(0.506411 -0.000367393 -2.25712e-20)
(0.506343 -0.00037844 1.12017e-20)
(0.50629 -0.000392663 2.22345e-20)
(0.506256 -0.000410869 2.20648e-20)
(0.506245 -0.000434095 1.0947e-20)
(0.506264 -0.000463655 -1.08608e-20)
(0.506321 -0.00050121 2.15473e-20)
(0.506426 -0.000548836 -4.32932e-25)
(0.506591 -0.000609094 0)
(0.506832 -0.000685085 -2.10071e-20)
(0.507167 -0.000780476 0)
(0.507623 -0.000899459 0)
(0.508226 -0.0010466 -4.0851e-20)
(0.50901 -0.00122653 4.04314e-20)
(0.510016 -0.00144342 0)
(0.511284 -0.00170019 3.95237e-20)
(0.512861 -0.00199817 0)
(0.514789 -0.00233329 -1.92301e-20)
(0.507313 -0.000276435 4.87342e-20)
(0.507179 -0.000275078 0)
(0.507047 -0.000274567 2.40397e-20)
(0.506918 -0.000274952 0)
(0.506792 -0.000276307 0)
(0.50667 -0.000278739 0)
(0.506552 -0.000282394 4.67618e-20)
(0.506439 -0.000287475 0)
(0.506331 -0.000294253 0)
(0.50623 -0.000303088 4.57678e-20)
(0.506137 -0.000314448 2.27173e-20)
(0.506054 -0.000328943 6.76515e-20)
(0.505983 -0.000347362 0)
(0.505927 -0.00037072 2.22148e-20)
(0.505889 -0.000400318 -2.20452e-20)
(0.505874 -0.000437818 0)
(0.505888 -0.000485331 6.51097e-20)
(0.505939 -0.000545515 -2.1529e-20)
(0.506036 -0.000621691 -2.13554e-20)
(0.506191 -0.000717947 0)
(0.506419 -0.00083923 0)
(0.506741 -0.000991386 0)
(0.507178 -0.00118108 0)
(0.507761 -0.00141559 4.08194e-20)
(0.508522 -0.00170224 -4.04005e-20)
(0.509501 -0.00204766 0)
(0.510743 -0.00245638 -3.94935e-20)
(0.512294 -0.00293014 0)
(0.514197 -0.00346272 -2.03967e-23)
(0.506956 -0.000205974 -4.86884e-20)
(0.506823 -0.000206109 0)
(0.506692 -0.00020721 0)
(0.506564 -0.000209357 -4.77037e-20)
(0.50644 -0.000212665 0)
(0.506319 -0.000217289 0)
(0.506203 -0.00022344 -3.64115e-25)
(0.506091 -0.000231404 0)
(0.505984 -0.000241558 0)
(0.505884 -0.000254396 -4.57233e-20)
(0.505792 -0.000270562 1.8983e-26)
(0.50571 -0.000290893 -4.50578e-20)
(0.505639 -0.000316463 0)
(0.505582 -0.000348658 6.95072e-25)
(0.505542 -0.000389254 0)
(0.505525 -0.000440516 4.3712e-20)
(0.505535 -0.000505324 -4.3368e-20)
(0.505579 -0.000587309 0)
(0.505668 -0.000691009 8.5347e-20)
(0.505812 -0.000822021 0)
(0.506026 -0.000987139 4.19588e-20)
(0.50633 -0.00119441 0)
(0.506745 -0.00145307 0)
(0.5073 -0.00177322 8.16223e-20)
(0.508031 -0.00216516 0)
(0.508976 -0.00263828 7.99288e-20)
(0.510182 -0.0031991 -7.90092e-20)
(0.5117 -0.00385015 -7.80293e-20)
(0.513571 -0.00458313 1.15293e-19)
(0.506595 -0.000137929 4.86374e-20)
(0.506466 -0.000139565 -4.83098e-20)
(0.50634 -0.000142277 4.79818e-20)
(0.506217 -0.000146174 4.77389e-25)
(0.506097 -0.000151407 0)
(0.505981 -0.000158179 0)
(0.505869 -0.000166761 -4.6667e-20)
(0.505761 -0.000177517 -4.6337e-20)
(0.505659 -0.000190922 9.20138e-20)
(0.505563 -0.000207598 0)
(0.505474 -0.000228354 4.53453e-20)
(0.505394 -0.000254235 9.00261e-20)
(0.505325 -0.000286589 0)
(0.50527 -0.000327149 -4.43448e-20)
(0.50523 -0.000378138 8.80207e-20)
(0.505211 -0.000442396 -4.36706e-20)
(0.505218 -0.000523536 8.66659e-20)
(0.505257 -0.000626123 0)
(0.505336 -0.000755876 -4.26376e-20)
(0.505468 -0.00091988 -8.45822e-20)
(0.505665 -0.00112677 -4.19234e-20)
(0.505946 -0.00138683 8.31319e-20)
(0.506334 -0.00171196 -8.23773e-20)
(0.506855 -0.00211534 -8.15584e-20)
(0.507546 -0.00261054 0)
(0.508448 -0.00321022 -7.98686e-20)
(0.509608 -0.00392343 7.89503e-20)
(0.511082 -0.00475409 7.79712e-20)
(0.512915 -0.00569181 8.08844e-23)
(0.506241 -7.38623e-05 -4.85831e-20)
(0.50612 -7.69602e-05 1.44766e-19)
(0.506001 -8.12312e-05 4.7927e-20)
(0.505886 -8.68121e-05 1.42799e-19)
(0.505773 -9.38868e-05 0)
(0.505664 -0.000102702 -9.38862e-20)
(0.505559 -0.000113584 9.3229e-20)
(0.505459 -0.000126967 -4.62855e-20)
(0.505363 -0.000143417 -1.83826e-19)
(0.505273 -0.000163673 9.12536e-20)