/*--------------------------------*- C++ -*----------------------------------*\
  =========                 |
  \\      /  F ield         | OpenFOAM: The Open Source CFD Toolbox
   \\    /   O peration     | Website:  https://openfoam.org
    \\  /    A nd           | Version:  6
     \\/     M anipulation  |
\*---------------------------------------------------------------------------*/
FoamFile
{
    version     2.0;
    format      ascii;
    class       volScalarField;
    location    "0.15";
    object      epsilon;
}
// * * * * * * * * * * * * * * * * * * * * * * * * * * * * * * * * * * * * * //

dimensions      [0 2 -3 0 0 0 0];

internalField   nonuniform List<scalar> 
12225
(
307.554
159.143
103.209
76.1849
60.899
51.3643
44.9278
40.2719
36.7123
33.877
31.5505
29.5995
27.936
26.4992
25.2451
24.1423
23.1681
22.3606
71.6108
59.7631
44.4175
34.3496
27.8033
23.3547
20.2032
17.8818
16.1072
14.7052
13.5675
12.6245
11.8294
11.1495
10.5615
10.0475
9.5922
9.17987
33.6139
34.4054
29.2905
24.3865
20.536
17.61
15.3806
13.6571
12.2983
11.2048
10.3081
9.5607
8.9288
8.38805
7.92042
7.51227
7.15273
6.8335
22.4947
24.1973
22.2224
19.5419
17.065
14.9831
13.2834
11.9032
10.7762
9.84671
9.0713
8.41706
7.85919
7.37888
6.96177
6.59673
6.27527
5.99267
18.0525
19.1658
18.2264
16.5957
14.8967
13.3496
12.0112
10.8759
9.91785
9.10786
8.41933
7.83007
7.3221
6.88108
6.49562
6.15667
5.85744
5.59499
15.9662
16.4001
15.7671
14.6431
13.3963
12.1983
11.1156
10.1644
9.33868
8.62466
8.00675
7.47032
7.00258
6.59275
6.23189
5.91273
5.62986
5.38142
14.903
14.7894
14.1896
13.3005
12.3142
11.3432
10.4413
9.62859
8.90746
8.27211
7.7136
7.22236
6.78936
6.40653
6.06691
5.7647
5.49561
5.25855
14.3404
13.826
13.16
12.3651
11.5231
10.6961
9.91952
9.20941
8.56978
7.99829
7.48958
7.03721
6.63467
6.27584
5.95527
5.66833
5.41164
5.18466
14.0387
13.2461
12.4872
11.7146
10.9458
10.2062
9.51382
8.87756
8.29985
7.77902
7.31127
6.89183
6.51571
6.17812
5.87469
5.60167
5.35637
5.13862
13.8768
12.8995
12.0523
11.2677
10.5298
9.83968
9.20115
8.61607
8.08384
7.60201
7.167
6.77472
6.42101
6.10187
5.81362
5.55313
5.31822
5.10896
13.7906
12.6957
11.7766
10.9671
10.2363
9.57093
8.96466
8.41332
7.91314
7.4602
7.05046
6.67989
6.34462
6.04104
5.76589
5.51643
5.29082
5.08924
13.7489
12.5882
11.6206
10.7868
10.0518
9.39524
8.80498
8.27275
7.79223
7.35806
6.96549
6.61022
6.28837
5.99643
5.73132
5.4905
5.27231
5.07694
13.7254
12.5235
11.521
10.6659
9.92276
9.26808
8.68605
8.16552
7.69815
7.27729
6.89746
6.55395
6.24271
5.96021
5.70343
5.46992
5.25809
5.06814
13.7116
12.4831
11.4547
10.581
9.82784
9.17077
8.59194
8.07825
7.61975
7.20867
6.83875
6.50481
6.20253
5.92825
5.67892
5.4521
5.24624
5.06143
13.7045
12.4608
11.416
10.5284
9.76607
9.10459
8.52547
8.01459
7.56098
7.15605
6.79288
6.46588
6.1704
5.90262
5.65936
5.43816
5.23741
5.05711
13.7012
12.4503
11.3966
10.5006
9.73165
9.06596
8.48506
7.97449
7.52284
7.12103
6.76176
6.43907
6.14809
5.88481
5.64595
5.42893
5.23212
5.05536
13.7
12.4461
11.3886
10.4886
9.71597
9.04754
8.46499
7.95386
7.50262
7.10202
6.74456
6.42409
6.13561
5.87497
5.6388
5.42445
5.23021
5.05582
13.6996
12.4449
11.3862
10.4848
9.71086
9.04131
8.45797
7.94644
7.49519
7.09492
6.73807
6.41847
6.13101
5.8715
5.63653
5.42341
5.23039
5.05714
13.6998
12.4453
11.387
10.486
9.71244
9.04321
8.46011
7.94871
7.49748
7.09714
6.74015
6.42034
6.13264
5.87286
5.63759
5.42417
5.23085
5.05731
13.701
12.4493
11.3947
10.4976
9.72758
9.0611
8.47974
7.96904
7.51757
7.11619
6.75754
6.43561
6.14548
5.88308
5.64511
5.42896
5.23297
5.05694
13.7054
12.4634
11.4201
10.5336
9.77185
9.11055
8.53135
8.02024
7.56635
7.16111
6.79765
6.47037
6.17465
5.90665
5.66319
5.44178
5.24084
5.06035
13.7204
12.5081
11.4948
10.6317
9.88423
9.22854
8.64805
8.13075
7.66754
7.25125
6.87604
6.53698
6.22987
5.95115
5.69776
5.46726
5.25809
5.0704
13.767
12.6331
11.6842
10.8596
10.1263
9.46681
8.87106
8.33221
7.84482
7.40403
7.00534
6.64456
6.3178
6.02155
5.75267
5.50856
5.2875
5.08971
13.9007
12.9462
12.1086
11.3252
10.5844
9.88983
9.24641
8.65655
8.11992
7.63414
7.19565
6.80034
6.44401
6.12259
5.83238
5.57019
5.33382
5.12337
14.2607
13.6659
12.9741
12.1889
11.372
10.5738
9.82382
9.13604
8.5143
7.95678
7.45885
7.01474
6.61853
6.26456
5.94775
5.66373
5.40936
5.1843
15.1941
15.2319
14.6349
13.6939
12.6457
11.6176
10.6672
9.81479
9.06175
8.40098
7.82227
7.315
6.86923
6.47621
6.12839
5.81954
5.54506
5.30381
17.6338
18.6178
17.7646
16.2581
14.663
13.1885
11.8964
10.7893
9.84818
9.04833
8.36606
7.78085
7.27572
6.83684
6.45312
6.11572
5.81808
5.55792
24.7058
26.423
23.9016
20.7812
17.9997
15.7039
13.8518
12.3624
11.1567
10.17
9.35253
8.66689
8.08522
7.58657
7.1551
6.77872
6.44851
6.1606
51.9669
47.736
37.7988
30.1742
24.762
20.8801
18.0391
15.9105
14.273
12.9799
11.9347
11.0725
10.3493
9.73388
9.20388
8.74292
8.33902
7.98622
251.833
137.372
90.8021
67.1562
53.3453
44.5728
38.6329
34.375
31.1676
28.6517
26.6145
24.9239
23.4941
22.2667
21.2008
20.266
19.4401
18.7082
0.0954739
0.10182
0.122276
0.14394
0.171949
0.205394
0.246509
0.286387
0.327944
0.372448
0.420571
0.472585
0.528415
0.587755
0.650177
0.715206
0.782369
0.851224
0.921371
0.992461
1.0642
1.13634
1.20868
1.28108
1.35342
1.42562
1.49765
1.56947
1.64109
1.7125
1.78375
1.85485
1.92584
1.99677
2.06771
2.13873
2.20994
2.28151
2.35366
2.42674
2.50123
2.57781
2.65666
2.7348
2.8122
2.88873
2.96418
3.03823
3.11053
3.1807
3.24828
3.31282
3.37383
3.43081
3.48323
3.53058
3.57238
3.60813
3.63741
3.65981
3.67502
3.68275
3.68284
3.67517
3.65973
3.6366
3.60595
3.56803
3.52317
3.47177
3.41431
3.3513
3.28335
3.21114
3.1356
3.05823
2.98198
2.91235
2.85567
2.80658
2.75789
2.70845
2.65819
2.60726
2.55584
2.50415
2.45235
2.4006
2.34904
2.29777
2.24688
2.19646
2.14654
2.09717
2.04837
2.00016
1.95256
1.90557
1.85919
1.81342
1.76828
1.72377
1.6799
1.63671
1.5942
1.55242
1.5114
1.47121
1.43188
1.39348
1.35608
1.31974
1.28454
1.25054
1.21782
1.18644
1.15645
1.12791
1.10084
1.07525
1.05112
1.02839
1.00705
0.987313
0.969491
0.953376
0.938835
0.925753
0.914025
0.90355
0.894233
0.885982
0.87871
0.872334
0.866777
0.861963
0.857822
0.854289
0.851303
0.848806
0.846746
0.845075
0.843749
0.842728
0.841976
0.84146
0.841151
0.841023
0.841053
0.841221
0.841508
0.841899
0.842378
0.842935
0.843557
0.844235
0.84496
0.845724
0.84652
0.847341
0.84818
0.849029
0.849882
0.85073
0.851564
0.852371
0.853137
0.853844
0.854465
0.854968
0.855307
0.855416
0.8552
0.854515
0.853134
0.850671
0.846452
0.839107
0.826321
0.803394
0.29097
0.184437
0.190662
0.213129
0.245208
0.283836
0.324528
0.363376
0.399452
0.433017
0.464576
0.49455
0.523243
0.550883
0.577657
0.603731
0.629251
0.654345
0.679116
0.703645
0.727991
0.752195
0.776283
0.80027
0.824163
0.847967
0.871685
0.895319
0.918873
0.942351
0.965762
0.989119
1.01244
1.03574
1.05906
1.08244
1.10594
1.12963
1.15363
1.17806
1.20309
1.22892
1.25583
1.28291
1.30983
1.3365
1.36281
1.38867
1.41395
1.43851
1.46222
1.4849
1.50639
1.52651
1.54508
1.5619
1.57679
1.58957
1.60007
1.60813
1.61362
1.61642
1.61644
1.61362
1.60794
1.5994
1.58804
1.57394
1.55721
1.53799
1.51646
1.49282
1.46732
1.44026
1.41201
1.38307
1.35406
1.32567
1.29902
1.27338
1.2478
1.22206
1.19616
1.17017
1.14418
1.11827
1.09249
1.06692
1.0416
1.01658
0.991893
0.96756
0.943603
0.920036
0.896868
0.874105
0.85175
0.829806
0.808272
0.78715
0.766441
0.746147
0.726272
0.706823
0.687806
0.669232
0.651113
0.633464
0.616301
0.599642
0.583507
0.567914
0.552884
0.538438
0.524593
0.511367
0.498774
0.486826
0.47553
0.464889
0.4549
0.445562
0.436881
0.428905
0.421746
0.415309
0.40946
0.40416
0.399376
0.395075
0.391222
0.387785
0.384731
0.382028
0.379648
0.37756
0.375738
0.374157
0.372794
0.371626
0.370632
0.369795
0.369097
0.368523
0.368059
0.367691
0.367409
0.367202
0.367062
0.366979
0.366947
0.36696
0.367012
0.367098
0.367214
0.367356
0.367521
0.367705
0.367907
0.368124
0.368354
0.368596
0.368848
0.369109
0.369378
0.369653
0.369934
0.37022
0.370511
0.370808
0.37111
0.371423
0.371753
0.372119
0.372558
0.373159
0.374141
0.376034
0.380245
0.391063
0.591925
0.31383
0.286277
0.294133
0.315603
0.343889
0.37417
0.403078
0.429244
0.452669
0.473914
0.493619
0.512322
0.530419
0.548177
0.565765
0.583273
0.600737
0.618155
0.635502
0.652743
0.669843
0.68677
0.703502
0.72003
0.736355
0.752489
0.768453
0.784278
0.799999
0.815658
0.8313
0.846975
0.862735
0.878634
0.89473
0.911079
0.92774
0.944769
0.962217
0.980129
0.998531
1.01738
1.03643
1.05559
1.07477
1.09391
1.11294
1.13176
1.15028
1.16838
1.18594
1.20282
1.21886
1.23391
1.2478
1.26037
1.27145
1.28087
1.28848
1.29415
1.29774
1.29917
1.29835
1.29525
1.28984
1.28214
1.27219
1.26008
1.2459
1.22979
1.21192
1.19246
1.17164
1.1497
1.12689
1.10349
1.07996
1.05685
1.03386
1.01083
0.98774
0.964626
0.941559
0.91861
0.895849
0.873333
0.851114
0.829233
0.807724
0.786611
0.765913
0.745643
0.72581
0.706416
0.687463
0.668949
0.650872
0.633226
0.616009
0.599215
0.582841
0.566886
0.551348
0.536227
0.521526
0.507248
0.493398
0.479984
0.467012
0.454492
0.442432
0.430843
0.419733
0.409111
0.398986
0.389364
0.380248
0.371642
0.363546
0.355957
0.348873
0.342291
0.336215
0.330651
0.325591
0.32102
0.31688
0.313141
0.309777
0.306761
0.304066
0.301667
0.29954
0.297661
0.296009
0.294561
0.293298
0.292201
0.291254
0.290441
0.289746
0.289157
0.288662
0.288249
0.28791
0.287634
0.287415
0.287245
0.287118
0.287029
0.286972
0.286944
0.286941
0.28696
0.286997
0.28705
0.287118
0.287198
0.287289
0.287389
0.287497
0.287613
0.287735
0.287862
0.287995
0.288133
0.288275
0.288422
0.288575
0.288735
0.288906
0.289093
0.289309
0.28958
0.289959
0.290567
0.291697
0.294044
0.299398
0.873977
0.419466
0.361456
0.35486
0.364258
0.380861
0.400339
0.420021
0.438631
0.455909
0.472105
0.487608
0.502755
0.517778
0.532802
0.547876
0.562991
0.578111
0.593184
0.608156
0.622979
0.637617
0.652045
0.666252
0.680242
0.694028
0.707633
0.72109
0.734435
0.747711
0.760966
0.774247
0.787605
0.801091
0.814756
0.82865
0.84282
0.85731
0.872158
0.887394
0.90304
0.919107
0.935568
0.952334
0.969351
0.986571
1.00394
1.0214
1.03887
1.05626
1.07346
1.09034
1.10678
1.12261
1.13767
1.15179
1.16479
1.17648
1.18668
1.19523
1.20197
1.20676
1.20947
1.21002
1.20835
1.20442
1.19823
1.18982
1.17926
1.16664
1.15208
1.13574
1.11778
1.09839
1.07778
1.05613
1.03373
1.01115
0.988423
0.965564
0.942598
0.919584
0.8966
0.873727
0.851043
0.828617
0.806511
0.784773
0.763446
0.74256
0.722139
0.702199
0.682751
0.6638
0.645346
0.627386
0.609915
0.592926
0.576412
0.560362
0.54477
0.529626
0.514923
0.500656
0.486819
0.47341
0.460426
0.447868
0.435736
0.424034
0.412764
0.40193
0.391537
0.38159
0.372093
0.36305
0.354463
0.346336
0.338667
0.331455
0.324698
0.31839
0.312527
0.307104
0.302113
0.297546
0.293393
0.289631
0.28623
0.283166
0.280415
0.277954
0.27576
0.27381
0.272085
0.270563
0.269226
0.268055
0.267034
0.266148
0.265381
0.264721
0.264156
0.263674
0.263266
0.262923
0.262637
0.262401
0.262208
0.262052
0.26193
0.261836
0.261768
0.26172
0.261691
0.261678
0.261679
0.261692
0.261715
0.261748
0.261787
0.261834
0.261886
0.261943
0.262005
0.262071
0.26214
0.262214
0.262291
0.262372
0.26246
0.262555
0.262663
0.262794
0.262964
0.263212
0.263615
0.264351
0.265789
0.268657
1.07061
0.490963
0.410525
0.392756
0.392962
0.400934
0.412642
0.425902
0.439575
0.453211
0.466747
0.480264
0.493859
0.507592
0.521471
0.535472
0.549547
0.563637
0.577687
0.591645
0.605473
0.61914
0.63263
0.645936
0.659062
0.672022
0.684834
0.697527
0.710133
0.722688
0.735233
0.747812
0.760468
0.77325
0.786203
0.799374
0.812808
0.826546
0.840628
0.855087
0.86995
0.88524
0.90096
0.91707
0.933541
0.95034
0.967427
0.984747
1.00223
1.01978
1.0373
1.05465
1.0717
1.08828
1.1042
1.11929
1.13334
1.14615
1.15751
1.16724
1.17516
1.18109
1.18492
1.18651
1.18581
1.18277
1.17737
1.16966
1.15969
1.14757
1.1334
1.11735
1.09959
1.08029
1.05965
1.03791
1.01556
0.992747
0.969585
0.946175
0.92262
0.899022
0.875481
0.852093
0.828944
0.80611
0.783654
0.761629
0.740078
0.719033
0.698518
0.678548
0.659131
0.640271
0.621966
0.60421
0.586996
0.570312
0.554146
0.538487
0.52332
0.508635
0.494419
0.480663
0.467356
0.454492
0.442065
0.43007
0.418504
0.407366
0.396656
0.386374
0.376521
0.3671
0.358112
0.349558
0.34144
0.333757
0.326509
0.319693
0.313306
0.307342
0.301794
0.296656
0.291917
0.287569
0.283598
0.27999
0.276724
0.273778
0.271128
0.268755
0.266635
0.264748
0.263076
0.261597
0.260295
0.259152
0.258153
0.257281
0.256523
0.255868
0.255302
0.254816
0.2544
0.254045
0.253744
0.253491
0.253278
0.2531
0.252953
0.252833
0.252736
0.252659
0.252599
0.252554
0.252521
0.252498
0.252485
0.25248
0.252482
0.252489
0.252502
0.252518
0.252538
0.252562
0.252588
0.252617
0.252649
0.252684
0.252723
0.252769
0.252824
0.252896
0.252998
0.253157
0.253427
0.253922
0.254851
0.256541
1.20942
0.536159
0.438172
0.412172
0.406264
0.408828
0.415767
0.425103
0.435772
0.447226
0.459203
0.471585
0.48431
0.497326
0.51058
0.524014
0.537565
0.551179
0.564802
0.57839
0.59191
0.605334
0.618644
0.63183
0.64489
0.657828
0.670654
0.683385
0.696043
0.708654
0.72125
0.733866
0.746541
0.759316
0.772237
0.785349
0.798698
0.81233
0.826289
0.840618
0.855356
0.870535
0.886182
0.902282
0.918825
0.935791
0.953149
0.970852
0.988834
1.00701
1.02526
1.04347
1.06147
1.0791
1.09615
1.11242
1.12769
1.14173
1.15431
1.16523
1.17427
1.18126
1.18603
1.18847
1.18847
1.186
1.18105
1.17363
1.16382
1.15171
1.13744
1.12117
1.10307
1.08332
1.06223
1.04017
1.01732
0.993861
0.969956
0.945749
0.921376
0.896965
0.872635
0.848492
0.824631
0.801134
0.778069
0.755492
0.733447
0.71197
0.691082
0.6708
0.651131
0.632077
0.613634
0.595794
0.578546
0.561875
0.545768
0.530206
0.515175
0.500657
0.486637
0.473101
0.460035
0.447429
0.435273
0.423559
0.41228
0.401431
0.391011
0.381015
0.371444
0.362297
0.353573
0.345273
0.337396
0.329942
0.322908
0.316291
0.310088
0.304293
0.298899
0.293897
0.289279
0.285032
0.281145
0.277604
0.274392
0.27149
0.268877
0.266532
0.264436
0.262567
0.260907
0.259438
0.258141
0.257001
0.256001
0.255126
0.254364
0.253701
0.253126
0.252629
0.252201
0.251833
0.251517
0.251246
0.251016
0.25082
0.250653
0.250513
0.250394
0.250294
0.250211
0.250141
0.250083
0.250036
0.249996
0.249964
0.249938
0.249917
0.249901
0.249888
0.249878
0.24987
0.249865
0.249862
0.24986
0.249861
0.249865
0.249873
0.249888
0.249916
0.249965
0.250058
0.25023
0.250557
0.251165
0.252216
1.29963
0.562033
0.450719
0.418698
0.40883
0.408201
0.412418
0.419503
0.428407
0.438532
0.449525
0.461167
0.473315
0.485865
0.498734
0.511852
0.525157
0.538596
0.552122
0.565697
0.579286
0.592861
0.6064
0.619885
0.633304
0.64665
0.659922
0.673123
0.686264
0.699359
0.71243
0.725502
0.738609
0.751786
0.765075
0.77852
0.792171
0.806077
0.820289
0.834857
0.84983
0.865251
0.88116
0.897567
0.914474
0.931874
0.949746
0.96805
0.986725
1.00569
1.02482
1.044
1.06306
1.0818
1.10003
1.1175
1.13398
1.14922
1.16297
1.17499
1.18504
1.19294
1.19849
1.20157
1.20207
1.19995
1.19518
1.1878
1.17788
1.16554
1.1509
1.13415
1.11544
1.09519
1.07361
1.05093
1.02737
1.00312
0.978365
0.953282
0.928027
0.902744
0.877564
0.852604
0.827965
0.803735
0.779986
0.756778
0.734158
0.712161
0.690811
0.670123
0.650105
0.630756
0.612072
0.594042
0.576652
0.559885
0.543723
0.528146
0.513133
0.498666
0.484725
0.471291
0.458348
0.445881
0.433877
0.422324
0.411214
0.400538
0.390291
0.380468
0.371066
0.362083
0.353517
0.345367
0.337632
0.330309
0.323397
0.316893
0.310791
0.305087
0.299773
0.294841
0.290282
0.286085
0.282236
0.278723
0.27553
0.272641
0.270036
0.267695
0.265598
0.263728
0.262064
0.260589
0.259285
0.258136
0.257127
0.256242
0.255469
0.254795
0.254208
0.253699
0.253257
0.252875
0.252545
0.25226
0.252014
0.251802
0.25162
0.251462
0.251326
0.251208
0.251106
0.251018
0.250941
0.250873
0.250813
0.25076
0.250713
0.25067
0.250631
0.250595
0.250562
0.250531
0.250501
0.250473
0.250446
0.25042
0.250395
0.250374
0.250357
0.250349
0.250357
0.250395
0.250492
0.250696
0.251087
0.251756
1.35031
0.57423
0.453408
0.417001
0.40449
0.401942
0.404608
0.41041
0.418268
0.427556
0.437886
0.449002
0.46073
0.472948
0.485563
0.498506
0.511719
0.525153
0.538766
0.552522
0.566384
0.580323
0.594309
0.608318
0.622328
0.636319
0.650279
0.664199
0.678077
0.691916
0.705726
0.719524
0.733335
0.747187
0.761119
0.775174
0.789399
0.803848
0.818574
0.833636
0.849088
0.864985
0.881374
0.898285
0.915731
0.933717
0.95223
0.971238
0.990686
1.01049
1.03054
1.0507
1.07079
1.09062
1.10995
1.12854
1.14612
1.16243
1.17719
1.19013
1.20101
1.20961
1.21573
1.21923
1.22001
1.21801
1.21322
1.20568
1.19546
1.1827
1.16751
1.15022
1.13103
1.11021
1.08799
1.0646
1.04026
1.01519
0.989599
0.963662
0.937554
0.911431
0.885435
0.859688
0.834299
0.809359
0.784946
0.761121
0.737934
0.71542
0.693606
0.672506
0.652128
0.63247
0.613525
0.595282
0.577724
0.560832
0.544584
0.528957
0.513928
0.499473
0.485571
0.472198
0.459335
0.446963
0.435067
0.423631
0.412644
0.402094
0.391975
0.382279
0.373001
0.364138
0.355685
0.347642
0.340006
0.332775
0.325946
0.319515
0.313479
0.307833
0.302568
0.297678
0.293152
0.288981
0.285151
0.28165
0.278462
0.275573
0.272964
0.270617
0.268513
0.266633
0.264959
0.263473
0.262157
0.260997
0.259975
0.259078
0.258293
0.257606
0.257007
0.256486
0.256032
0.255637
0.255294
0.254997
0.254738
0.254512
0.254316
0.254145
0.253994
0.253862
0.253745
0.253642
0.253549
0.253465
0.253389
0.25332
0.253255
0.253195
0.253138
0.253084
0.253033
0.252982
0.252933
0.252885
0.252837
0.252789
0.252743
0.252697
0.252654
0.252617
0.252591
0.252587
0.252624
0.252736
0.252974
0.253401
1.36948
0.576762
0.449889
0.410383
0.396035
0.39224
0.393952
0.398967
0.406158
0.414878
0.424724
0.435434
0.446831
0.458789
0.471221
0.484062
0.497259
0.510769
0.524554
0.538578
0.552805
0.567201
0.581734
0.596369
0.611078
0.62583
0.640603
0.655377
0.670137
0.684875
0.699592
0.714294
0.728997
0.743723
0.758504
0.77338
0.788396
0.803604
0.819062
0.83483
0.850968
0.867537
0.884592
0.902175
0.920307
0.939002
0.958254
0.978037
0.998299
1.01896
1.0399
1.06099
1.08203
1.10282
1.12312
1.14265
1.16113
1.17827
1.19379
1.20739
1.21883
1.22785
1.23426
1.23792
1.23872
1.2366
1.23157
1.22366
1.21297
1.19972
1.18407
1.16626
1.14651
1.12507
1.10218
1.07809
1.05302
1.0272
1.00084
0.974136
0.947271
0.920406
0.893689
0.867248
0.841196
0.815628
0.790626
0.766252
0.742559
0.719584
0.697354
0.675884
0.65518
0.635243
0.616063
0.597627
0.579917
0.562911
0.546585
0.530914
0.515872
0.50143
0.487565
0.47425
0.461462
0.44918
0.437384
0.426057
0.415183
0.404751
0.394748
0.385168
0.376002
0.367247
0.358896
0.350948
0.3434
0.336248
0.32949
0.323123
0.317142
0.311543
0.306318
0.30146
0.296961
0.292809
0.288993
0.2855
0.282314
0.279424
0.276811
0.274456
0.272343
0.270453
0.268768
0.26727
0.265943
0.264771
0.263738
0.262829
0.262033
0.261335
0.260725
0.260193
0.259728
0.259323
0.258969
0.25866
0.25839
0.258154
0.257947
0.257764
0.257602
0.257458
0.257329
0.257213
0.257108
0.257011
0.256922
0.256839
0.256761
0.256687
0.256616
0.256548
0.256481
0.256416
0.256351
0.256286
0.256221
0.256157
0.256091
0.256026
0.255963
0.255902
0.255848
0.25581
0.2558
0.255843
0.255973
0.256239
1.36348
0.572359
0.44256
0.401057
0.385416
0.380736
0.381779
0.38624
0.392946
0.401231
0.41069
0.421061
0.432171
0.443906
0.456183
0.468945
0.482147
0.49575
0.509721
0.524025
0.538628
0.553493
0.568583
0.583861
0.59929
0.614834
0.63046
0.646139
0.661847
0.677567
0.693289
0.709009
0.724735
0.740481
0.756273
0.772144
0.788136
0.804299
0.820689
0.837367
0.854397
0.87184
0.889758
0.908195
0.927179
0.946723
0.966824
0.987459
1.00857
1.03009
1.05188
1.07381
1.09567
1.11724
1.13827
1.15847
1.17754
1.19518
1.21109
1.22498
1.23658
1.24565
1.25198
1.25544
1.25594
1.25342
1.24792
1.23952
1.22835
1.21458
1.19841
1.18005
1.15973
1.1377
1.11421
1.0895
1.06381
1.03736
1.01038
0.983062
0.955589
0.928131
0.900839
0.873844
0.847261
0.821191
0.795715
0.770899
0.746797
0.723449
0.700881
0.679111
0.658146
0.637985
0.618618
0.600033
0.582209
0.565123
0.54875
0.53306
0.518027
0.503619
0.489809
0.476568
0.46387
0.451691
0.440007
0.428799
0.418049
0.407742
0.397865
0.388407
0.379361
0.370719
0.362476
0.354627
0.347171
0.340103
0.33342
0.32712
0.321198
0.315649
0.310467
0.305645
0.301175
0.297046
0.293247
0.289766
0.286588
0.2837
0.281086
0.278728
0.27661
0.274713
0.27302
0.271514
0.270178
0.268996
0.267954
0.267037
0.266231
0.265525
0.264906
0.264365
0.263891
0.263477
0.263115
0.262798
0.262519
0.262274
0.262058
0.261866
0.261695
0.261541
0.261403
0.261277
0.261162
0.261055
0.260955
0.260862
0.260773
0.260688
0.260605
0.260525
0.260446
0.260368
0.260291
0.260213
0.260135
0.260057
0.259977
0.259896
0.259815
0.259736
0.25966
0.259595
0.259549
0.25954
0.259593
0.259749
1.33698
0.562877
0.433006
0.390515
0.374032
0.368703
0.369225
0.373241
0.379547
0.387464
0.396584
0.40665
0.417498
0.429019
0.441142
0.453817
0.467006
0.480676
0.494799
0.509343
0.524276
0.539562
0.555163
0.571039
0.587149
0.603453
0.619913
0.636492
0.65316
0.669891
0.686666
0.703474
0.720315
0.737194
0.75413
0.771149
0.788289
0.805595
0.82312
0.840922
0.859065
0.877612
0.896623
0.916136
0.936173
0.956744
0.977838
0.999425
1.02144
1.0438
1.06638
1.089
1.11148
1.13358
1.15502
1.1755
1.19472
1.21237
1.22816
1.24181
1.25308
1.26169
1.26746
1.2703
1.27013
1.26696
1.26082
1.2518
1.24004
1.22569
1.20896
1.19007
1.16924
1.14671
1.12274
1.09757
1.07143
1.04454
1.01713
0.989391
0.961509
0.933652
0.905972
0.878602
0.851659
0.825244
0.79944
0.774317
0.749929
0.726319
0.703514
0.681535
0.660388
0.640075
0.620586
0.601907
0.58402
0.566899
0.550518
0.534847
0.519855
0.505511
0.491784
0.478643
0.466058
0.454003
0.442453
0.431384
0.420776
0.410613
0.400879
0.391561
0.38265
0.374137
0.366016
0.358283
0.350932
0.343961
0.337366
0.331145
0.325292
0.319805
0.314676
0.3099
0.305468
0.301371
0.297599
0.294138
0.290975
0.288098
0.28549
0.283136
0.281019
0.279121
0.277426
0.275917
0.274577
0.27339
0.272343
0.27142
0.270609
0.269896
0.269272
0.268724
0.268245
0.267825
0.267456
0.267132
0.266847
0.266596
0.266372
0.266174
0.265995
0.265835
0.265689
0.265555
0.265432
0.265317
0.26521
0.265107
0.26501
0.264916
0.264824
0.264735
0.264647
0.264559
0.264472
0.264384
0.264295
0.264206
0.264114
0.264021
0.263927
0.263833
0.26374
0.263654
0.263581
0.263534
0.263533
0.263614
1.29327
0.549597
0.422315
0.379821
0.362939
0.357177
0.357296
0.36094
0.366899
0.37449
0.383304
0.39309
0.403688
0.414998
0.426955
0.439519
0.452658
0.466347
0.480563
0.495281
0.51047
0.526099
0.542132
0.558529
0.57525
0.592253
0.609497
0.626942
0.644552
0.662297
0.680151
0.698098
0.716127
0.734239
0.752444
0.770763
0.789226
0.807872
0.82675
0.845914
0.865425
0.885341
0.90572
0.926578
0.947918
0.969731
0.99199
1.01464
1.03761
1.06079
1.08403
1.10715
1.12994
1.15218
1.17361
1.19382
1.21257
1.22956
1.24454
1.25725
1.26747
1.27501
1.27971
1.2815
1.28032
1.2762
1.26918
1.25937
1.24689
1.23191
1.21463
1.19526
1.17402
1.15115
1.12688
1.10144
1.07507
1.04798
1.02037
0.992454
0.9644
0.936376
0.90853
0.880996
0.85389
0.827314
0.801353
0.776078
0.751545
0.7278
0.704874
0.682787
0.661551
0.641166
0.621626
0.602919
0.585024
0.567919
0.551575
0.535963
0.52105
0.506803
0.493189
0.480176
0.467732
0.455828
0.444435
0.433529
0.423087
0.41309
0.40352
0.394363
0.385608
0.377245
0.369266
0.361666
0.35444
0.347584
0.341094
0.334968
0.329202
0.323791
0.318731
0.314014
0.309634
0.305582
0.301847
0.298418
0.295281
0.292425
0.289834
0.287492
0.285384
0.283493
0.281803
0.280296
0.278958
0.277772
0.276724
0.2758
0.274987
0.274272
0.273645
0.273094
0.272612
0.272188
0.271815
0.271488
0.271198
0.270942
0.270714
0.27051
0.270327
0.270161
0.270009
0.26987
0.269741
0.26962
0.269506
0.269397
0.269293
0.269192
0.269094
0.268998
0.268902
0.268807
0.268712
0.268616
0.268519
0.268421
0.268321
0.268219
0.268115
0.268009
0.267904
0.267803
0.26771
0.267636
0.267596
0.267626
1.2335
0.533449
0.41135
0.369842
0.353029
0.347078
0.34693
0.350288
0.355959
0.363271
0.371826
0.381366
0.391734
0.40284
0.414628
0.427062
0.440121
0.453787
0.468042
0.48287
0.498247
0.514147
0.530539
0.547388
0.564656
0.582303
0.60029
0.618575
0.637123
0.655897
0.674871
0.69402
0.713331
0.732796
0.752419
0.772213
0.792202
0.812418
0.832903
0.853707
0.874884
0.896486
0.918559
0.941069
0.96399
0.987277
1.01087
1.03468
1.0586
1.08248
1.10616
1.12942
1.15205
1.17379
1.1944
1.21357
1.23104
1.24658
1.25996
1.27097
1.27945
1.28524
1.28827
1.28848
1.28585
1.28043
1.27226
1.26146
1.24817
1.23253
1.21474
1.19499
1.17349
1.15045
1.12609
1.10063
1.07427
1.04724
1.01971
0.991883
0.96392
0.935982
0.908214
0.880746
0.853692
0.827155
0.80122
0.775961
0.751437
0.727694
0.704769
0.682684
0.661455
0.641085
0.62157
0.6029
0.585056
0.568018
0.551757
0.536244
0.521446
0.50733
0.493861
0.481005
0.468728
0.457
0.44579
0.435071
0.424818
0.41501
0.405627
0.396654
0.388077
0.379885
0.37207
0.364624
0.357543
0.350822
0.344457
0.338445
0.332783
0.327467
0.322491
0.31785
0.313537
0.309544
0.305861
0.302476
0.299379
0.296555
0.293991
0.291672
0.289583
0.287707
0.286029
0.284532
0.283202
0.282022
0.280979
0.280059
0.279248
0.278535
0.277908
0.277358
0.276875
0.27645
0.276076
0.275747
0.275455
0.275196
0.274966
0.274759
0.274572
0.274402
0.274247
0.274104
0.27397
0.273845
0.273726
0.273613
0.273504
0.273398
0.273295
0.273193
0.273092
0.272992
0.272891
0.27279
0.272687
0.272583
0.272476
0.272367
0.272256
0.272143
0.272029
0.271917
0.27181
0.271718
0.271653
0.271648
1.16625
0.518524
0.401808
0.361715
0.3453
0.339381
0.339114
0.342287
0.347745
0.354832
0.363158
0.372481
0.382651
0.393583
0.405225
0.417549
0.430539
0.444186
0.458482
0.473416
0.488974
0.505138
0.521884
0.539184
0.557007
0.575317
0.594077
0.61325
0.632799
0.652689
0.672889
0.693373
0.714122
0.735122
0.75637
0.777872
0.799643
0.821708
0.844101
0.866864
0.890044
0.913687
0.937778
0.962227
0.986955
1.01187
1.03685
1.06177
1.08647
1.11075
1.13442
1.15726
1.17903
1.19949
1.21843
1.23561
1.25083
1.26392
1.27471
1.28309
1.28896
1.29225
1.29292
1.29096
1.28641
1.27931
1.26973
1.25778
1.24359
1.22729
1.20905
1.18904
1.16743
1.14443
1.12022
1.09498
1.06892
1.04222
1.01505
0.987584
0.95998
0.932388
0.904945
0.877776
0.850994
0.824699
0.798977
0.773904
0.749542
0.725942
0.703141
0.681169
0.660044
0.639773
0.620358
0.60179
0.584056
0.567134
0.551
0.535624
0.520976
0.507021
0.493724
0.481051
0.468966
0.457438
0.446433
0.435923
0.425881
0.416283
0.407109
0.398341
0.389964
0.381964
0.374333
0.367063
0.360148
0.353582
0.347362
0.341484
0.335945
0.330742
0.325868
0.32132
0.317091
0.313172
0.309555
0.306229
0.303183
0.300404
0.297879
0.295593
0.293533
0.291681
0.290024
0.288544
0.287229
0.286062
0.285029
0.284117
0.283313
0.282606
0.281984
0.281437
0.280956
0.280533
0.280161
0.279831
0.27954
0.27928
0.279048
0.27884
0.278652
0.27848
0.278322
0.278177
0.278041
0.277913
0.277791
0.277675
0.277562
0.277453
0.277346
0.277241
0.277136
0.277032
0.276928
0.276822
0.276716
0.276607
0.276496
0.276383
0.276268
0.276149
0.27603
0.275911
0.275796
0.275693
0.275612
0.275585
1.09353
0.50513
0.394504
0.356184
0.340447
0.334773
0.334549
0.337664
0.343015
0.349976
0.358171
0.367373
0.377443
0.3883
0.399898
0.412218
0.425249
0.438991
0.453443
0.468603
0.484467
0.501025
0.518264
0.536162
0.554696
0.573838
0.593554
0.613812
0.634577
0.655814
0.67749
0.699577
0.722049
0.744888
0.768083
0.791629
0.815534
0.839812
0.864487
0.889591
0.915161
0.941238
0.967648
0.99425
1.02089
1.04742
1.07364
1.09936
1.12437
1.14843
1.17131
1.1928
1.21267
1.23073
1.24681
1.26077
1.2725
1.28193
1.28901
1.29371
1.29604
1.296
1.29362
1.28895
1.28203
1.27292
1.26171
1.24848
1.23335
1.21641
1.1978
1.17766
1.15613
1.13337
1.10953
1.08477
1.05925
1.03314
1.00658
0.979736
0.952742
0.925736
0.898849
0.872197
0.845891
0.820028
0.794696
0.76997
0.745917
0.722589
0.700031
0.678276
0.657347
0.637257
0.618011
0.599607
0.582033
0.565273
0.549304
0.534101
0.519632
0.505865
0.492764
0.480296
0.468423
0.457113
0.446333
0.43605
0.426238
0.41687
0.407924
0.399379
0.391221
0.383434
0.376007
0.368932
0.362202
0.355811
0.349755
0.344031
0.338634
0.333561
0.328808
0.324369
0.320239
0.316411
0.312875
0.309622
0.30664
0.303919
0.301444
0.299203
0.29718
0.295362
0.293734
0.29228
0.290986
0.289837
0.28882
0.287922
0.28713
0.286432
0.285818
0.285278
0.284803
0.284384
0.284015
0.283688
0.283398
0.28314
0.282909
0.282701
0.282512
0.28234
0.282182
0.282035
0.281898
0.281768
0.281645
0.281527
0.281413
0.281301
0.281193
0.281085
0.280978
0.280872
0.280765
0.280658
0.280549
0.280438
0.280325
0.28021
0.280091
0.279971
0.279849
0.279727
0.279608
0.279498
0.279409
0.279368
1.00726
0.490205
0.388564
0.353106
0.338642
0.333611
0.333727
0.33703
0.342494
0.34954
0.357822
0.36713
0.377341
0.388383
0.400217
0.412831
0.426221
0.440393
0.455355
0.471112
0.48767
0.505028
0.523179
0.542111
0.561808
0.582247
0.603401
0.625239
0.647727
0.67083
0.694513
0.718741
0.743482
0.76871
0.7944
0.820539
0.847119
0.874142
0.901617
0.929567
0.958022
0.98685
1.01572
1.04443
1.07274
1.10042
1.12721
1.15285
1.17708
1.19964
1.22031
1.23888
1.25521
1.26919
1.28074
1.28986
1.29657
1.30093
1.30303
1.30294
1.30077
1.29661
1.29054
1.28264
1.27297
1.2616
1.2486
1.23401
1.21792
1.20039
1.18151
1.16137
1.14008
1.11774
1.09447
1.07039
1.04564
1.02034
0.994615
0.968607
0.942437
0.916229
0.890099
0.864158
0.83851
0.81325
0.788465
0.764233
0.740622
0.717688
0.695482
0.67404
0.653392
0.633557
0.614546
0.596362
0.578997
0.562441
0.546675
0.531675
0.517412
0.503857
0.490975
0.478732
0.467092
0.45602
0.445482
0.435446
0.425882
0.416762
0.408063
0.399763
0.391843
0.384289
0.377088
0.370229
0.363706
0.357511
0.35164
0.346089
0.340854
0.335932
0.331318
0.327007
0.322994
0.319272
0.315833
0.312667
0.309764
0.307112
0.304699
0.302513
0.300538
0.298763
0.297171
0.29575
0.294484
0.29336
0.292364
0.291483
0.290706
0.290022
0.289419
0.288887
0.28842
0.288007
0.287643
0.28732
0.287033
0.286777
0.286547
0.286339
0.286151
0.285979
0.28582
0.285672
0.285533
0.285402
0.285278
0.285158
0.285042
0.284929
0.284818
0.284708
0.2846
0.284491
0.284382
0.284273
0.284162
0.284049
0.283934
0.283817
0.283697
0.283575
0.283452
0.283328
0.283207
0.283095
0.283001
0.282952
0.919626
0.475236
0.384391
0.352758
0.340219
0.336356
0.337289
0.341242
0.347291