/*--------------------------------*- C++ -*----------------------------------*\
  =========                 |
  \\      /  F ield         | OpenFOAM: The Open Source CFD Toolbox
   \\    /   O peration     | Website:  https://openfoam.org
    \\  /    A nd           | Version:  6
     \\/     M anipulation  |
\*---------------------------------------------------------------------------*/
FoamFile
{
    version     2.0;
    format      ascii;
    class       volScalarField;
    location    "0.15";
    object      k;
}
// * * * * * * * * * * * * * * * * * * * * * * * * * * * * * * * * * * * * * //

dimensions      [0 2 -2 0 0 0 0];

internalField   nonuniform List<scalar> 
12225
(
0.24644
0.158838
0.119007
0.097202
0.0837211
0.0747367
0.0683547
0.0635464
0.059744
0.0566265
0.0540029
0.0517524
0.0497942
0.0480711
0.0465413
0.0451746
0.0439495
0.0429199
0.339526
0.260133
0.208259
0.175295
0.153273
0.137687
0.126015
0.116851
0.109397
0.103183
0.0979038
0.093354
0.0893863
0.0858925
0.0827925
0.0800198
0.0775585
0.075337
0.347498
0.292337
0.248514
0.216201
0.192239
0.174063
0.159871
0.148469
0.139079
0.131194
0.124466
0.118651
0.113571
0.109092
0.105113
0.101556
0.0983776
0.0955555
0.35137
0.309034
0.271889
0.241931
0.218154
0.199203
0.183886
0.171293
0.160767
0.151839
0.144169
0.137507
0.131666
0.126504
0.121909
0.117797
0.114114
0.110854
0.353917
0.319266
0.287203
0.25983
0.237053
0.218204
0.202528
0.189367
0.178196
0.168615
0.160316
0.153063
0.146674
0.141007
0.135948
0.131412
0.127341
0.123737
0.355678
0.326032
0.297873
0.272925
0.251444
0.233142
0.217559
0.20423
0.192754
0.1828
0.174102
0.166449
0.159671
0.153632
0.148223
0.14336
0.138987
0.13511
0.356917
0.330711
0.305575
0.282772
0.262647
0.24511
0.229886
0.216655
0.205112
0.194994
0.186077
0.178176
0.171138
0.164838
0.159174
0.154065
0.149462
0.145371
0.357802
0.334028
0.311243
0.290285
0.271465
0.254778
0.240064
0.227101
0.215662
0.205537
0.19654
0.188514
0.181324
0.174856
0.169019
0.163737
0.158965
0.154712
0.358434
0.336405
0.315448
0.296046
0.278423
0.262597
0.248468
0.235879
0.224659
0.214642
0.205675
0.197623
0.19037
0.183816
0.177876
0.172484
0.167599
0.163232
0.358881
0.338107
0.318562
0.300453
0.283894
0.268892
0.255371
0.243215
0.232291
0.222463
0.213607
0.205609
0.198366
0.191792
0.185811
0.180364
0.175416
0.170977
0.359195
0.339315
0.320849
0.303791
0.288155
0.273911
0.260987
0.249288
0.238701
0.229118
0.220433
0.212547
0.205373
0.198834
0.192863
0.187409
0.18244
0.177969
0.359394
0.340092
0.322365
0.306077
0.291154
0.277528
0.265119
0.253834
0.243575
0.234245
0.225751
0.218008
0.210937
0.20447
0.198547
0.193122
0.188169
0.183699
0.359535
0.340651
0.323489
0.307817
0.293493
0.280409
0.26847
0.257579
0.247644
0.238575
0.23029
0.222711
0.215767
0.209396
0.203546
0.198174
0.193259
0.188811
0.359643
0.341085
0.324386
0.30925
0.295473
0.28291
0.271441
0.260962
0.251378
0.242606
0.234566
0.227189
0.220409
0.214171
0.208428
0.203141
0.198291
0.193888
0.359719
0.341393
0.325042
0.310332
0.297018
0.284916
0.273884
0.263804
0.254577
0.246116
0.238345
0.231197
0.224611
0.218537
0.212931
0.207758
0.203001
0.19867
0.359767
0.341588
0.325472
0.311066
0.2981
0.286367
0.275701
0.265972
0.257071
0.248906
0.2414
0.234486
0.228107
0.222211
0.216759
0.211719
0.207075
0.202833
0.359793
0.341696
0.325715
0.311494
0.298754
0.287271
0.276869
0.267403
0.258756
0.250832
0.243549
0.236839
0.230643
0.224912
0.219606
0.214695
0.210162
0.206012
0.359804
0.341741
0.325817
0.311679
0.299044
0.287683
0.277415
0.268089
0.259583
0.251796
0.244644
0.238057
0.231975
0.226349
0.221138
0.216311
0.211852
0.207765
0.359801
0.341729
0.32579
0.31163
0.298968
0.287578
0.277277
0.267918
0.25938
0.251562
0.244382
0.237769
0.231663
0.226016
0.220786
0.215943
0.211468
0.207367
0.359775
0.341621
0.325547
0.311199
0.298305
0.286652
0.276073
0.266431
0.257616
0.249533
0.242104
0.235261
0.228946
0.223109
0.217709
0.212715
0.208107
0.20389
0.359715
0.341376
0.325009
0.310281
0.29695
0.284836
0.273794
0.263708
0.254478
0.246016
0.238246
0.2311
0.224519
0.21845
0.212848
0.207679
0.202921
0.198581
0.359586
0.340852
0.323903
0.30848
0.294411
0.28157
0.26985
0.259151
0.24938
0.240451
0.232282
0.2248
0.217936
0.211632
0.205835
0.200506
0.195619
0.191178
0.359329
0.339834
0.321859
0.305312
0.290148
0.276311
0.263725
0.252297
0.241926
0.23251
0.223953
0.216164
0.209063
0.202577
0.196645
0.191216
0.186259
0.181776
0.35886
0.338008
0.318372
0.300176
0.283543
0.268481
0.254915
0.242727
0.231781
0.221941
0.213081
0.205085
0.19785
0.191287
0.18532
0.179889
0.174953
0.170512
0.35805
0.33491
0.312754
0.29231
0.273866
0.257436
0.242886
0.230021
0.218634
0.208528
0.199532
0.191493
0.184282
0.177791
0.171928
0.166621
0.16182
0.157522
0.356707
0.329802
0.303974
0.280633
0.260128
0.242345
0.226976
0.213673
0.20211
0.192006
0.183126
0.175277
0.168301
0.16207
0.156479
0.151443
0.146908
0.142865
0.354518
0.321335
0.290241
0.263368
0.240777
0.221935
0.206179
0.1929
0.181602
0.171896
0.163481
0.156125
0.149645
0.143898
0.138771
0.134174
0.130047
0.126379
0.350901
0.306598
0.267917
0.2371
0.212934
0.193878
0.178615
0.166158
0.155806
0.147065
0.139585
0.133108
0.127445
0.12245
0.118013
0.114049
0.110496
0.107337
0.342446
0.275933
0.227259
0.193522
0.16981
0.152587
0.139557
0.129306
0.120981
0.114055
0.108184
0.103135
0.0987396
0.0948762
0.0914526
0.0883983
0.0856606
0.0832178
0.259302
0.173113
0.13136
0.107429
0.0921435
0.0817426
0.074309
0.0687437
0.0643985
0.0608849
0.0579639
0.0554829
0.0533405
0.0514667
0.0498112
0.0483365
0.0470146
0.0458276
0.00156886
0.00271756
0.00307149
0.00340913
0.00382756
0.00430007
0.00485228
0.00536429
0.00587129
0.00639106
0.0069305
0.00749109
0.00807049
0.00866437
0.00926779
0.00987601
0.0104848
0.0110908
0.0116911
0.0122837
0.0128669
0.0134398
0.0140017
0.0145523
0.0150917
0.0156199
0.0161373
0.0166445
0.017142
0.0176304
0.0181103
0.0185823
0.0190471
0.0195053
0.0199575
0.0204045
0.0208472
0.0212866
0.0217241
0.0221618
0.0226021
0.0230489
0.0235071
0.0239582
0.0244003
0.0248333
0.0252563
0.0256678
0.0260665
0.0264504
0.0268175
0.0271658
0.027493
0.0277969
0.0280751
0.0283253
0.0285452
0.0287327
0.0288857
0.0290024
0.0290813
0.0291211
0.0291207
0.0290796
0.0289975
0.0288746
0.0287115
0.028509
0.0282684
0.0279913
0.0276797
0.0273357
0.0269619
0.0265613
0.0261376
0.0256969
0.0252512
0.0248249
0.0244576
0.0241545
0.0238624
0.0235661
0.0232636
0.0229553
0.0226423
0.0223255
0.022006
0.0216847
0.0213624
0.0210398
0.0207176
0.0203961
0.0200756
0.0197566
0.0194391
0.0191234
0.0188094
0.0184972
0.018187
0.0178785
0.017572
0.0172675
0.0169649
0.0166645
0.0163664
0.0160708
0.0157779
0.0154882
0.0152019
0.0149196
0.0146417
0.0143688
0.0141016
0.0138406
0.0135865
0.0133399
0.0131014
0.0128718
0.0126513
0.0124405
0.0122395
0.0120481
0.0118662
0.0116947
0.0115366
0.0113921
0.01126
0.0111395
0.0110299
0.0109304
0.0108405
0.0107594
0.0106865
0.0106211
0.0105626
0.0105105
0.0104641
0.0104229
0.0103864
0.0103541
0.0103256
0.0103005
0.0102783
0.0102587
0.0102414
0.0102262
0.0102127
0.0102007
0.01019
0.0101804
0.0101718
0.010164
0.0101569
0.0101504
0.0101444
0.0101387
0.0101333
0.0101282
0.0101232
0.0101184
0.0101135
0.0101087
0.0101038
0.0100988
0.0100935
0.0100879
0.0100818
0.0100752
0.0100678
0.0100594
0.0100495
0.0100377
0.0100233
0.0100051
0.00998138
0.00994912
0.00990309
0.00983258
0.0097194
0.00952601
0.00328711
0.0068353
0.00867673
0.00988293
0.0109226
0.0119739
0.0130105
0.0139701
0.0148465
0.0156623
0.0164449
0.0172159
0.0179898
0.0187754
0.0195776
0.0203984
0.0212381
0.0220954
0.0229682
0.0238534
0.0247478
0.0256481
0.0265512
0.0274543
0.0283552
0.0292519
0.0301435
0.0310291
0.0319086
0.0327821
0.0336501
0.0345132
0.0353721
0.0362277
0.0370806
0.0379316
0.0387813
0.03963
0.040478
0.0413253
0.0421716
0.0430162
0.0438546
0.0446906
0.0455262
0.0463605
0.0471917
0.0480175
0.0488348
0.0496405
0.0504307
0.0512011
0.0519474
0.0526646
0.0533477
0.0539913
0.0545902
0.055139
0.0556326
0.056066
0.0564347
0.0567346
0.0569623
0.057115
0.0571906
0.0571879
0.0571065
0.0569468
0.0567102
0.0563988
0.0560154
0.0555635
0.0550476
0.0544725
0.053844
0.0531685
0.0524531
0.0517047
0.0509471
0.0501832
0.0494046
0.0486111
0.0478052
0.0469898
0.0461681
0.0453427
0.0445163
0.0436911
0.0428689
0.0420513
0.0412398
0.0404353
0.0396388
0.0388508
0.0380719
0.0373024
0.0365426
0.0357926
0.0350525
0.0343225
0.0336025
0.0328928
0.0321935
0.0315047
0.0308269
0.0301603
0.0295055
0.0288629
0.0282333
0.0276173
0.0270159
0.0264298
0.0258601
0.0253076
0.0247734
0.0242583
0.0237634
0.0232893
0.0228369
0.0224067
0.021999
0.0216141
0.0212518
0.0209117
0.0205924
0.0202961
0.0200257
0.0197798
0.0195568
0.0193552
0.0191736
0.0190103
0.0188641
0.0187335
0.0186174
0.0185142
0.018423
0.0183424
0.0182715
0.0182092
0.0181545
0.0181065
0.0180645
0.0180278
0.0179955
0.0179672
0.0179423
0.0179202
0.0179006
0.0178831
0.0178674
0.0178531
0.01784
0.0178279
0.0178165
0.0178057
0.0177955
0.0177855
0.0177757
0.0177661
0.0177564
0.0177467
0.0177368
0.0177266
0.017716
0.0177049
0.0176932
0.0176806
0.0176669
0.0176518
0.0176348
0.0176153
0.0175924
0.0175647
0.01753
0.0174849
0.0174227
0.0173357
0.0171915
0.0170758
0.00527965
0.0106918
0.0130173
0.0145228
0.0157507
0.0168929
0.0179873
0.0190227
0.0200007
0.0209414
0.0218708
0.0228111
0.0237771
0.0247761
0.0258098
0.0268753
0.0279673
0.0290787
0.0302018
0.0313292
0.0324538
0.03357
0.034673
0.0357596
0.0368276
0.0378759
0.0389047
0.0399146
0.0409069
0.0418835
0.0428465
0.0437981
0.0447408
0.0456767
0.0466083
0.0475376
0.0484667
0.0493971
0.0503304
0.0512678
0.05221
0.0531576
0.0541111
0.0550712
0.0560373
0.0570082
0.0579818
0.0589556
0.0599262
0.0608898
0.0618421
0.062778
0.0636919
0.0645777
0.065429
0.0662388
0.0670003
0.0677062
0.0683495
0.0689235
0.0694218
0.0698386
0.0701687
0.070408
0.0705532
0.0706021
0.0705535
0.0704074
0.0701649
0.0698283
0.0694007
0.0688862
0.06829
0.0676176
0.0668755
0.0660704
0.0652089
0.064305
0.0633782
0.0624272
0.0614529
0.0604587
0.0594484
0.0584263
0.0573965
0.0563626
0.055328
0.0542956
0.053268
0.0522472
0.0512351
0.050233
0.0492421
0.0482632
0.047297
0.0463439
0.0454042
0.0444781
0.0435657
0.042667
0.0417821
0.0409111
0.040054
0.039211
0.0383823
0.0375683
0.0367694
0.0359862
0.0352193
0.0344695
0.0337376
0.0330246
0.0323315
0.0316593
0.031009
0.0303818
0.0297786
0.0292003
0.0286479
0.0281219
0.0276229
0.0271512
0.0267069
0.02629
0.0258999
0.0255363
0.0251992
0.0248905
0.0246091
0.0243534
0.0241219
0.0239133
0.0237258
0.0235579
0.023408
0.0232747
0.0231565
0.023052
0.0229597
0.0228785
0.0228071
0.0227445
0.0226895
0.0226413
0.022599
0.0225617
0.0225289
0.0224999
0.022474
0.022451
0.0224301
0.0224112
0.0223939
0.0223779
0.0223629
0.0223486
0.022335
0.0223219
0.022309
0.0222963
0.0222836
0.0222709
0.022258
0.0222448
0.0222311
0.0222169
0.022202
0.0221861
0.022169
0.0221504
0.0221298
0.0221064
0.0220795
0.0220476
0.0220086
0.0219594
0.021894
0.0218047
0.0216694
0.0215126
0.00684849
0.0134782
0.0163079
0.0180688
0.0193973
0.02055
0.0216316
0.0226796
0.0237133
0.0247506
0.0258083
0.0268987
0.0280276
0.029195
0.0303963
0.0316238
0.0328688
0.034122
0.0353746
0.0366191
0.037849
0.0390595
0.0402471
0.0414096
0.0425461
0.0436567
0.0447421
0.045804
0.0468444
0.0478656
0.0488705
0.0498616
0.0508421
0.0518146
0.0527821
0.0537473
0.0547127
0.0556807
0.0566533
0.0576322
0.0586188
0.059614
0.0606198
0.0616368
0.0626648
0.0637028
0.0647493
0.0658018
0.0668571
0.0679114
0.0689599
0.0699971
0.0710168
0.0720122
0.0729757
0.0738993
0.0747748
0.0755936
0.0763472
0.0770273
0.077626
0.0781361
0.078551
0.0788653
0.0790747
0.0791759
0.0791671
0.0790478
0.0788188
0.0784822
0.0780412
0.0775003
0.0768647
0.0761406
0.0753347
0.074454
0.0735077
0.072518
0.0714896
0.0704267
0.0693343
0.0682174
0.0670816
0.0659319
0.0647732
0.06361
0.0624463
0.0612854
0.0601305
0.058984
0.0578481
0.0567244
0.0556143
0.0545189
0.0534389
0.0523748
0.0513268
0.0502953
0.0492803
0.0482817
0.0472996
0.0463339
0.0453847
0.044452
0.0435359
0.0426368
0.0417549
0.0408908
0.040045
0.0392183
0.0384114
0.0376254
0.0368611
0.0361197
0.0354022
0.0347096
0.0340431
0.0334036
0.032792
0.0322091
0.0316554
0.0311315
0.0306375
0.0301734
0.029739
0.029334
0.0289577
0.0286106
0.0282928
0.0280031
0.02774
0.0275019
0.0272874
0.0270947
0.0269222
0.0267683
0.0266315
0.0265101
0.0264027
0.026308
0.0262244
0.0261509
0.0260862
0.0260294
0.0259793
0.0259351
0.0258961
0.0258615
0.0258306
0.0258029
0.0257779
0.0257552
0.0257343
0.025715
0.0256969
0.0256797
0.0256633
0.0256475
0.025632
0.0256168
0.0256017
0.0255865
0.0255712
0.0255556
0.0255395
0.0255229
0.0255056
0.0254873
0.0254679
0.0254468
0.0254238
0.0253982
0.025369
0.0253352
0.0252948
0.0252451
0.0251817
0.0250983
0.0249824
0.0248461
0.00784527
0.0153115
0.0185733
0.0205816
0.0220421
0.0232542
0.0243662
0.0254499
0.0265417
0.0276611
0.0288188
0.0300186
0.0312593
0.0325353
0.0338387
0.0351602
0.0364904
0.0378206
0.0391428
0.0404506
0.0417386
0.0430031
0.0442413
0.0454518
0.0466338
0.0477876
0.0489142
0.050015
0.051092
0.0521474
0.0531839
0.0542041
0.0552111
0.0562079
0.0571975
0.0581828
0.059167
0.0601526
0.0611424
0.0621386
0.0631433
0.0641581
0.0651853
0.0662268
0.0672831
0.0683541
0.0694386
0.0705347
0.0716396
0.0727496
0.07386
0.074965
0.0760582
0.0771321
0.0781783
0.0791881
0.080152
0.0810603
0.0819032
0.0826711
0.0833547
0.0839455
0.0844357
0.0848187
0.0850891
0.0852428
0.0852772
0.0851914
0.0849858
0.0846623
0.0842241
0.0836756
0.0830224
0.0822709
0.0814282
0.0805029
0.0795145
0.0784707
0.0773788
0.0762454
0.0750772
0.0738809
0.0726627
0.0714287
0.0701844
0.0689348
0.0676845
0.0664374
0.0651969
0.063966
0.0627471
0.0615421
0.0603525
0.0591796
0.0580242
0.0568869
0.0557681
0.0546678
0.0535862
0.0525232
0.0514788
0.0504527
0.049445
0.0484555
0.0474844
0.0465317
0.0455978
0.0446829
0.0437877
0.0429127
0.0420588
0.0412267
0.0404174
0.039632
0.0388714
0.0381369
0.0374294
0.03675
0.0360996
0.035479
0.0348889
0.0343299
0.0338021
0.0333057
0.0328407
0.0324066
0.032003
0.0316292
0.0312859
0.0309719
0.030686
0.0304267
0.0301922
0.0299812
0.0297918
0.0296224
0.0294714
0.0293372
0.0292182
0.0291128
0.0290198
0.0289377
0.0288653
0.0288014
0.0287451
0.0286953
0.0286512
0.028612
0.0285769
0.0285454
0.028517
0.028491
0.0284672
0.028445
0.0284243
0.0284047
0.0283859
0.0283678
0.0283502
0.0283328
0.0283156
0.0282983
0.028281
0.0282634
0.0282453
0.0282267
0.0282074
0.0281872
0.0281657
0.0281428
0.0281178
0.0280904
0.0280595
0.0280242
0.0279828
0.027933
0.0278711
0.0277926
0.0276902
0.027574
0.00850995
0.0164246
0.0199975
0.0222253
0.0238441
0.0251671
0.0263603
0.0275134
0.0286741
0.0298659
0.0310983
0.032372
0.033683
0.035024
0.0363864
0.0377613
0.0391401
0.0405152
0.0418799
0.0432286
0.0445568
0.0458613
0.0471395
0.04839
0.0496118
0.0508049
0.0519697
0.0531071
0.0542187
0.0553061
0.0563716
0.0574176
0.0584468
0.0594621
0.0604667
0.0614636
0.0624562
0.0634475
0.0644408
0.065439
0.0664448
0.0674607
0.068489
0.0695332
0.0705948
0.0716745
0.072772
0.0738862
0.0750148
0.0761545
0.0773009
0.0784483
0.0795901
0.0807185
0.0818247
0.0828991
0.0839314
0.0849108
0.0858265
0.0866676
0.0874236
0.0880848
0.0886421
0.0890879
0.0894158
0.089621
0.0897001
0.0896516
0.0894755
0.0891736
0.0887489
0.0882059
0.0875501
0.0867882
0.0859305
0.0849916
0.0839809
0.082907
0.0817783
0.0806029
0.0793886
0.0781427
0.0768724
0.0755844
0.0742847
0.0729789
0.071672
0.0703683
0.0690716
0.0677852
0.0665117
0.0652534
0.0640119
0.0627887
0.0615846
0.0604003
0.0592362
0.0580925
0.0569692
0.0558662
0.0547832
0.0537202
0.0526769
0.0516532
0.0506489
0.0496642
0.0486992
0.047754
0.0468292
0.0459253
0.0450429
0.0441828
0.043346
0.0425335
0.0417461
0.0409852
0.0402516
0.0395465
0.0388708
0.0382253
0.0376109
0.0370281
0.0364772
0.0359585
0.0354719
0.0350172
0.0345939
0.0342013
0.0338394
0.0335077
0.0332049
0.0329296
0.0326802
0.0324552
0.0322528
0.0320714
0.0319093
0.031765
0.0316367
0.0315229
0.0314222
0.0313331
0.0312545
0.031185
0.0311235
0.0310691
0.0310207
0.0309777
0.0309392
0.0309045
0.0308731
0.0308445
0.0308181
0.0307937
0.0307707
0.030749
0.0307282
0.0307082
0.0306887
0.0306695
0.0306506
0.0306316
0.0306125
0.0305932
0.0305735
0.0305533
0.0305323
0.0305104
0.0304873
0.0304628
0.0304363
0.0304073
0.0303751
0.0303386
0.0302964
0.0302465
0.030186
0.0301113
0.0300183
0.0299171
0.00892683
0.0170225
0.0207977
0.0232016
0.0249761
0.02643
0.0277299
0.0289708
0.0302057
0.0314621
0.0327512
0.0340748
0.0354293
0.0368084
0.0382046
0.0396102
0.0410182
0.042422
0.0438159
0.0451951
0.0465556
0.0478943
0.0492084
0.0504962
0.0517563
0.0529879
0.0541908
0.0553652
0.0565117
0.0576314
0.058726
0.0597973
0.0608477
0.0618797
0.0628963
0.0639006
0.0648961
0.0658863
0.0668747
0.0678648
0.0688601
0.0698639
0.0708789
0.0719097
0.0729589
0.0740284
0.0751188
0.07623
0.0773605
0.0785078
0.0796678
0.0808353
0.0820038
0.0831653
0.0843107
0.0854299
0.0865119
0.0875452
0.0885178
0.0894179
0.0902338
0.0909546
0.0915703
0.0920722
0.092453
0.0927069
0.0928302
0.0928206
0.0926779
0.0924034
0.092
0.0914726
0.0908255
0.0900724
0.0892219
0.088284
0.0872682
0.0861837
0.0850396
0.0838446
0.0826073
0.0813355
0.0800371
0.078719
0.0773879
0.0760497
0.0747098
0.0733728
0.072043
0.0707238
0.0694182
0.0681285
0.0668567
0.0656043
0.0643723
0.0631615
0.0619722
0.0608047
0.0596588
0.0585346
0.0574317
0.0563498
0.0552886
0.0542479
0.0532275
0.0522272
0.0512472
0.0502874
0.0493483
0.0484302
0.0475338
0.0466597
0.0458088
0.044982
0.0441804
0.0434049
0.0426567
0.0419367
0.0412461
0.0405857
0.0399562
0.0393584
0.0387927
0.0382593
0.0377583
0.0372896
0.0368527
0.036447
0.036072
0.0357276
0.0354126
0.0351255
0.0348649
0.0346293
0.0344171
0.0342264
0.0340558
0.0339035
0.0337679
0.0336475
0.0335407
0.033446
0.0333623
0.0332882
0.0332226
0.0331643
0.0331126
0.0330664
0.033025
0.0329877
0.0329539
0.032923
0.0328946
0.0328681
0.0328434
0.0328199
0.0327975
0.0327759
0.0327548
0.0327342
0.0327137
0.0326933
0.0326729
0.0326521
0.0326311
0.0326095
0.0325871
0.0325639
0.0325395
0.0325137
0.0324859
0.0324558
0.0324225
0.0323852
0.0323425
0.0322927
0.0322335
0.032162
0.0320762
0.0319862
0.00915527
0.0172614
0.0211557
0.0236891
0.0255969
0.0271753
0.0285832
0.0299134
0.03122
0.0325329
0.0338661
0.035224
0.0366056
0.0380067
0.0394218
0.0408452
0.0422711
0.0436942
0.0451097
0.0465134
0.0479015
0.0492707
0.0506181
0.0519415
0.0532388
0.0545086
0.0557496
0.0569614
0.0581438
0.059297
0.0604218
0.0615194
0.0625916
0.0636406
0.064669
0.0656798
0.0666763
0.0676622
0.0686414
0.0696178
0.0705955
0.0715784
0.0725701
0.0735757
0.0745991
0.0756433
0.0767103
0.0778008
0.0789147
0.0800499
0.0812035
0.0823707
0.0835451
0.0847192
0.0858837
0.0870281
0.088141
0.0892102
0.0902231
0.0911668
0.0920288
0.0927971
0.0934607
0.0940101
0.0944372
0.0947355
0.0949005
0.0949295
0.0948219
0.0945787
0.094202
0.0936997
0.0930788
0.092348
0.0915162
0.0905928
0.0895873
0.0885092
0.0873679
0.0861724
0.0849316
0.083654
0.0823475
0.0810196
0.0796773
0.0783267
0.0769737
0.0756231
0.0742794
0.0729464
0.0716272
0.0703244
0.0690402
0.0677761
0.0665333
0.0653126
0.0641145
0.0629392
0.0617866
0.0606565
0.0595486
0.0584626
0.057398
0.0563545
0.0553317
0.0543294
0.0533475
0.0523859
0.051445
0.0505249
0.0496262
0.0487495
0.0478955
0.0470652
0.0462594
0.0454793
0.0447258
0.0440001
0.0433032
0.0426359
0.0419992
0.0413938
0.0408201
0.0402785
0.0397692
0.039292
0.0388467
0.0384327
0.0380494
0.0376965
0.0373731
0.0370778
0.0368094
0.0365662
0.0363467
0.0361493
0.0359722
0.0358139
0.0356728
0.0355472
0.0354356
0.0353367
0.035249
0.0351712
0.0351023
0.035041
0.0349865
0.0349378
0.0348941
0.0348546
0.0348189
0.0347862
0.034756
0.034728
0.0347018
0.0346769
0.0346532
0.0346303
0.034608
0.0345861
0.0345645
0.0345429
0.0345213
0.0344995
0.0344774
0.0344547
0.0344313
0.034407
0.0343816
0.0343547
0.0343261
0.034295
0.0342611
0.0342232
0.0341804
0.034131
0.0340731
0.0340047
0.0339249
0.0338435
0.00923901
0.0172496
0.0212035
0.0238253
0.0258365
0.0275192
0.029022
0.0304319
0.0318017
0.0331621
0.0345296
0.0359117
0.0373099
0.038723
0.0401478
0.0415804
0.0430168
0.0444526
0.045884
0.0473071
0.0487184
0.0501143
0.0514919
0.0528482
0.0541807
0.0554871
0.0567655
0.0580144
0.0592327
0.06042
0.0615761
0.0627015
0.0637972
0.0648649
0.0659067
0.0669252
0.0679235
0.0689053
0.0698745
0.0708354
0.0717924
0.07275
0.0737124
0.0746854
0.0756739
0.0766821
0.0777131
0.078769
0.0798506
0.0809571
0.0820862
0.083234
0.084395
0.0855616
0.0867249
0.0878743
0.0889983
0.0900842
0.0911189
0.092089
0.0929812
0.0937826
0.0944816
0.0950677
0.0955325
0.0958686
0.0960707
0.0961361
0.0960634
0.0958547
0.095514
0.0950468
0.0944599
0.0937613
0.0929594
0.0920632
0.0910822
0.0900257
0.0889032
0.087724
0.086497
0.085231
0.0839341
0.0826141
0.081278
0.0799325
0.0785834
0.0772361
0.075895
0.0745643
0.0732474
0.0719469
0.0706653
0.0694042
0.068165
0.0669485
0.0657553
0.0645855
0.0634392
0.062316
0.0612157
0.0601378
0.0590818
0.0580472
0.0570335
0.0560404
0.0550676
0.0541151
0.0531827
0.0522709
0.0513799
0.0505102
0.0496625
0.0488377
0.0480366
0.0472602
0.0465096
0.0457859
0.0450901
0.0444231
0.0437859
0.0431792
0.0426036
0.0420595
0.0415471
0.0410665
0.0406174
0.0401994
0.0398117
0.0394542
0.0391259
0.0388257
0.0385522
0.0383041
0.0380798
0.0378778
0.0376963
0.0375338
0.0373887
0.0372593
0.0371443
0.0370422
0.0369515
0.036871
0.0367995
0.036736
0.0366793
0.0366287
0.0365832
0.0365421
0.0365048
0.0364707
0.0364393
0.0364101
0.0363827
0.0363567
0.0363319
0.036308
0.0362848
0.036262
0.0362395
0.0362171
0.0361946
0.0361719
0.0361489
0.0361254
0.0361013
0.0360762
0.0360501
0.0360225
0.0359932
0.0359617
0.0359273
0.0358892
0.0358465
0.0357979
0.0357416
0.0356762
0.0356017
0.0355275
0.00920906
0.0170603
0.0210334
0.0237111
0.0257971
0.0275605
0.0291394
0.0306147
0.0320364
0.0334352
0.0348289
0.0362275
0.0376354
0.0390538
0.0404819
0.0419176
0.0433583
0.0448011
0.0462426
0.0476796
0.0491087
0.0505263
0.0519292
0.0533141
0.0546778
0.0560174
0.0573304
0.0586144
0.0598675
0.0610884
0.0622761
0.0634304
0.0645514
0.0656401
0.0666979
0.067727
0.0687302
0.0697107
0.0706723
0.0716194
0.0725565
0.0734885
0.0744203
0.0753578
0.0763069
0.0772729
0.0782599
0.079271
0.0803083
0.0813721
0.0824612
0.0835726
0.0847015
0.0858412
0.0869829
0.0881164
0.0892301
0.0903115
0.0913474
0.0923242
0.0932284
0.094046
0.0947647
0.0953741
0.0958657
0.0962309
0.0964634
0.0965617
0.096525
0.0963549
0.0960545
0.0956286
0.0950833
0.0944259
0.0936642
0.0928069
0.0918631
0.090842
0.0897529
0.0886049
0.0874072
0.0861684
0.0848968
0.0836002
0.082286
0.0809607
0.0796305
0.0783009
0.0769768
0.0756623
0.074361
0.073076
0.0718097
0.070564
0.0693404
0.0681397
0.0669627
0.0658096
0.0646804
0.0635749
0.0624926
0.061433
0.0603955
0.0593796
0.0583846
0.0574101
0.0564557
0.0555212
0.0546064
0.0537115
0.0528366
0.0519822
0.0511489
0.0503373
0.0495485
0.0487832
0.0480426
0.0473277
0.0466395
0.045979
0.0453473
0.044745
0.0441728
0.0436313
0.0431207
0.0426411
0.0421924
0.0417742
0.041386
0.0410272
0.0406972
0.040395
0.0401193
0.0398687
0.0396419
0.0394372
0.0392531
0.0390881
0.0389405
0.0388088
0.0386915
0.0385872
0.0384945
0.0384122
0.038339
0.0382738
0.0382157
0.0381637
0.0381169
0.0380747
0.0380363
0.0380012
0.0379688
0.0379387
0.0379104
0.0378837
0.0378581
0.0378335
0.0378096
0.0377862
0.037763
0.03774
0.0377169
0.0376937
0.0376701
0.0376461
0.0376214
0.0375958
0.0375692
0.0375413
0.0375116
0.0374798
0.0374454
0.0374075
0.0373653
0.0373176
0.0372632
0.0372009
0.0371314
0.0370634
0.00908638
0.0167432
0.0207105
0.0234215
0.0255598
0.0273828
0.0290198
0.0305461
0.0320086
0.033437
0.0348503
0.03626
0.0376724
0.0390912
0.0405173
0.0419507
0.0433901
0.0448337
0.046279
0.0477231
0.0491631
0.0505955
0.0520169
0.0534238
0.0548127
0.0561801
0.0575228
0.058838
0.0601229
0.0613755
0.062594
0.0637773
0.0649249
0.0660369
0.067114
0.0681577
0.0691703
0.0701544
0.0711135
0.0720518
0.0729736
0.073884
0.074788
0.0756919
0.0766021
0.0775244
0.0784639
0.0794247
0.0804097
0.0814203
0.0824565
0.0835163
0.0845959
0.0856896
0.0867895
0.0878851
0.0889656
0.0900189
0.0910324
0.0919932
0.0928889
0.0937032
0.0944228
0.0950385
0.0955417
0.0959248
0.0961824
0.0963114
0.0963105
0.0961804
0.0959235
0.0955438
0.0950465
0.0944382
0.0937262
0.0929184
0.0920235
0.0910502
0.0900075
0.0889045
0.0877498
0.086552
0.0853196
0.0840601
0.0827811
0.0814893
0.080191
0.0788918
0.0775967
0.0763101
0.0750359
0.0737773
0.072537
0.0713169
0.0701187
0.0689436
0.0677922
0.0666648
0.0655616
0.0644823
0.0634264
0.0623935
0.0613827
0.0603936
0.0594253
0.0584773
0.057549
0.0566401
0.0557503
0.0548796
0.054028
0.053196
0.0523839
0.0515925
0.0508224
0.0500747
0.0493502
0.0486501
0.0479753
0.0473269
0.0467059
0.0461131
0.0455493
0.0450149
0.0445104
0.044036
0.0435915
0.0431768
0.0427913
0.0424345
0.0421058
0.0418043
0.0415288
0.0412781
0.0410508
0.0408454
0.0406605
0.0404945
0.0403458
0.0402131
0.0400947
0.0399893
0.0398955
0.0398122
0.039738
0.0396718
0.0396128
0.03956
0.0395124
0.0394695
0.0394304
0.0393946
0.0393617
0.039331
0.0393022
0.039275
0.039249
0.039224
0.0391996
0.0391758
0.0391522
0.0391288
0.0391054
0.0390819
0.039058
0.0390337
0.0390087
0.0389829
0.0389561
0.0389281
0.0388984
0.0388666
0.0388324
0.038795
0.0387536
0.0387072
0.0386549
0.0385959
0.0385311
0.0384686
0.00888441
0.0163327
0.0202818
0.0230136
0.0251895
0.027057
0.0287384
0.0303041
0.0317984
0.0332499
0.0346777
0.0360942
0.0375074
0.0389225
0.0403424
0.0417684
0.0432006
0.0446383
0.0460799
0.0475234
0.0489659
0.0504045
0.0518358
0.0532563
0.0546622
0.0560498
0.0574157
0.0587562
0.0600683
0.0613492
0.0625964
0.0638081
0.064983
0.0661204
0.0672203
0.0682834
0.0693111
0.0703055
0.0712695
0.0722066
0.073121
0.0740174
0.0749008
0.0757775
0.0766538
0.0775359
0.0784292
0.0793384
0.0802671
0.0812176
0.0821908
0.0831857
0.0841997
0.0852287
0.0862672
0.087302
0.0883243
0.0893237
0.0902885
0.0912063
0.0920646
0.0928504
0.0935518
0.0941586
0.0946618
0.095054
0.0953294
0.0954843
0.0955166
0.0954262
0.0952145
0.0948845
0.0944406
0.0938883
0.0932341
0.0924851
0.0916493
0.0907347
0.0897499
0.0887034
0.0876037
0.0864591
0.0852777
0.0840673
0.0828351
0.081588
0.0803324
0.079074
0.0778181
0.0765693
0.0753315
0.0741082
0.0729024
0.0717162
0.0705514
0.0694094
0.068291
0.0671966
0.0661264
0.0650802
0.0640575
0.0630578
0.0620803
0.0611244
0.0601891
0.0592739
0.058378
0.0575009
0.0566423
0.055802
0.0549799
0.0541762
0.0533912
0.0526256
0.0518801
0.0511554
0.0504525
0.0497724
0.0491162
0.0484848
0.0478793
0.0473006
0.0467494
0.0462264
0.045732
0.0452664
0.0448298
0.0444218
0.0440421
0.0436902
0.0433655
0.0430673
0.0427944
0.0425457
0.04232
0.0421158
0.0419316
0.0417661
0.0416178
0.0414852
0.0413668
0.0412613
0.0411674
0.0410837
0.0410093
0.0409429
0.0408835
0.0408304
0.0407825
0.0407393
0.0407
0.0406639
0.0406307
0.0405998
0.0405708
0.0405434
0.0405172
0.040492
0.0404675
0.0404435
0.0404198
0.0403963
0.0403728
0.0403492
0.0403252
0.0403008
0.0402759
0.0402501
0.0402234
0.0401954
0.040166
0.0401346
0.0401009
0.0400642
0.0400239
0.0399792
0.0399292
0.0398735
0.0398133
0.0397561
0.00860578
0.0158507
0.0197814
0.0225316
0.0247396
0.026644
0.0283617
0.0299597
0.0314798
0.0329501
0.0343899
0.0358108
0.037222
0.03863
0.0400395
0.041453
0.042872
0.0442969
0.045727
0.0471611
0.048597
0.0500322
0.0514637
0.0528881
0.0543019
0.0557012
0.0570823
0.0584415
0.0597751
0.0610801
0.0623533
0.0635923
0.064795
0.0659599
0.0670864
0.0681741
0.0692237
0.0702364
0.0712144
0.0721603
0.0730778
0.0739709
0.0748444
0.075704
0.0765557
0.077405
0.0782573
0.0791175
0.0799893
0.0808756
0.0817778
0.0826959
0.0836281
0.0845713
0.0855203
0.0864676
0.0874051
0.0883236
0.0892132
0.090063
0.0908618
0.0915984
0.0922621
0.0928428
0.0933318
0.0937215
0.0940057
0.09418
0.0942415
0.0941889
0.0940226
0.0937444
0.0933576
0.0928665
0.0922764
0.0915936
0.0908251
0.0899781
0.0890605
0.0880802
0.0870452
0.0859635
0.0848429
0.083691
0.0825149
0.0813216
0.0801175
0.0789083
0.0776996
0.076496
0.0753019
0.0741209
0.0729561
0.07181
0.0706847
0.0695816
0.0685017
0.0674457
0.0664137
0.0654057
0.0644212
0.0634597
0.0625205
0.0616027
0.0607054
0.0598279
0.0589694
0.0581291
0.0573067
0.0565017
0.0557139
0.0549435
0.0541907
0.0534558
0.0527396
0.0520427
0.0513661
0.0507106
0.0500774
0.0494674
0.0488817
0.0483212
0.0477866
0.0472787
0.0467979
0.0463447
0.045919
0.0455209
0.0451499
0.0448056
0.0444875
0.0441949
0.0439268
0.0436822
0.0434598
0.0432585
0.0430767
0.0429132
0.0427665
0.0426352
0.0425178
0.0424132
0.0423199
0.0422369
0.0421628
0.0420968
0.0420377
0.0419848
0.0419371
0.041894
0.0418548
0.0418189
0.0417857
0.0417549
0.041726
0.0416986
0.0416725
0.0416474
0.041623
0.0415991
0.0415755
0.0415521
0.0415288
0.0415053
0.0414815
0.0414573
0.0414325
0.0414071
0.0413807
0.0413531
0.0413241
0.0412933
0.0412604
0.0412248
0.0411859
0.0411431
0.0410956
0.0410434
0.0409877
0.0409354
0.00828742
0.015299
0.0192315
0.0220107
0.0242546
0.0261959
0.027948
0.0295753
0.0311183
0.032604
0.0340512
0.035473
0.0368795
0.038278
0.0396739
0.0410711
0.0424722
0.0438786
0.0452907
0.0467081
0.0481296
0.0495531
0.0509764
0.0523964
0.0538099
0.0552132
0.0566026
0.0579744
0.0593248
0.0606502
0.0619472
0.0632128
0.0644442
0.0656393
0.0667964
0.0679145
0.0689933
0.0700331
0.0710349
0.0720006
0.0729328
0.0738348
0.0747107
0.075565
0.0764024
0.0772275
0.0780451
0.0788593
0.0796739
0.0804917
0.0813147
0.0821436
0.0829782
0.0838167
0.0846561
0.0854921
0.0863191
0.0871305
0.0879187
0.0886752
0.0893911
0.0900569
0.090663
0.0912003
0.0916603
0.0920352
0.0923184
0.0925046
0.0925898
0.0925718
0.0924495
0.0922233
0.0918952
0.0914681
0.0909461
0.0903343
0.0896385
0.0888651
0.0880212
0.0871138
0.0861504
0.0851386
0.0840857
0.0829991
0.0818859
0.0807528
0.0796063
0.0784523
0.0772964
0.0761435
0.0749981
0.0738642
0.072745
0.0716433
0.0705614
0.069501
0.0684634
0.0674493
0.066459
0.0654927
0.0645498
0.06363
0.0627325
0.0618563
0.0610006
0.0601645
0.0593469
0.0585473
0.0577648
0.056999
0.0562496
0.0555165
0.0547998
0.0540997
0.0534168
0.0527518
0.0521054
0.0514786
0.0508723
0.0502875
0.0497253
0.0491865
0.048672
0.0481826
0.0477188
0.0472809
0.0468692
0.0464837
0.046124
0.0457898
0.0454807