/*--------------------------------*- C++ -*----------------------------------*\
  =========                 |
  \\      /  F ield         | OpenFOAM: The Open Source CFD Toolbox
   \\    /   O peration     | Website:  https://openfoam.org
    \\  /    A nd           | Version:  6
     \\/     M anipulation  |
\*---------------------------------------------------------------------------*/
FoamFile
{
    version     2.0;
    format      ascii;
    class       volScalarField;
    location    "0.15";
    object      nut;
}
// * * * * * * * * * * * * * * * * * * * * * * * * * * * * * * * * * * * * * //

dimensions      [0 2 -1 0 0 0 0];

internalField   nonuniform List<scalar> 
12225
(
1.77723e-05
1.42681e-05
1.23502e-05
1.11615e-05
1.03586e-05
9.787e-06
9.35974e-06
9.02447e-06
8.75022e-06
8.51877e-06
8.31897e-06
8.14366e-06
7.98794e-06
7.84834e-06
7.72222e-06
7.60771e-06
7.50343e-06
7.41441e-06
0.00014488
0.000101906
8.78808e-05
8.05117e-05
7.60463e-05
7.30552e-05
7.07408e-05
6.87217e-05
6.68709e-05
6.51609e-05
6.35832e-05
6.21291e-05
6.07887e-05
5.95519e-05
5.84119e-05
5.73563e-05
5.64394e-05
5.56446e-05
0.000323317
0.000223555
0.000189765
0.000172508
0.000161961
0.000154844
0.000149558
0.000145262
0.000141555
0.000138251
0.00013526
0.000132525
0.000130012
0.000127692
0.000125548
0.00012356
0.000121776
0.000120257
0.00049396
0.000355213
0.000299389
0.000269562
0.000250994
0.000238358
0.000229101
0.00022185
0.00021586
0.000210725
0.000206212
0.000202177
0.000198524
0.000195191
0.00019213
0.000189313
0.00018676
0.000184553
0.000624464
0.000478654
0.000407306
0.000366122
0.000339503
0.000320994
0.000307346
0.000296747
0.000288153
0.000280944
0.000274738
0.000269289
0.000264433
0.000260055
0.000256076
0.000252443
0.000249154
0.000246288
0.000713106
0.000583335
0.000506469
0.000457819
0.000424755
0.000401036
0.000383232
0.000369319
0.000358066
0.0003487
0.000340718
0.000333785
0.00032767
0.00032221
0.000317289
0.000312831
0.000308812
0.000305296
0.000769317
0.000665563
0.000592254
0.000541064
0.000504176
0.000476685
0.000455528
0.000438749
0.000425081
0.000413685
0.000403991
0.000395605
0.000388245
0.00038171
0.000375853
0.000370575
0.000365837
0.000361684
0.000803465
0.000726292
0.000662501
0.000613331
0.000575574
0.00054619
0.000522886
0.000504022
0.00048845
0.000475361
0.000464181
0.000454495
0.000445997
0.000438464
0.000431729
0.000425678
0.000420259
0.000415499
0.000823633
0.000768916
0.000717184
0.000673342
0.000637392
0.000608074
0.00058402
0.000564064
0.000547295
0.000533024
0.000520729
0.000510016
0.000500586
0.000492211
0.00048472
0.000477993
0.000471971
0.000466665
0.000835322
0.000797585
0.00075781
0.00072104
0.000688868
0.000661327
0.000637888
0.000617896
0.000600743
0.00058591
0.000572977
0.000561609
0.000551536
0.000542549
0.000534487
0.000527233
0.000520729
0.000514974
0.000842015
0.000816191
0.000786723
0.00075736
0.000730049
0.000705515
0.00068383
0.000664777
0.000648043
0.000633304
0.000620265
0.000608671
0.000598306
0.000588995
0.000580596
0.000573011
0.000566187
0.000560115
0.000845506
0.000826934
0.000804846
0.000781648
0.000759005
0.000737817
0.000718448
0.000700956
0.000685244
0.00067115
0.000658494
0.000647101
0.000636813
0.000627495
0.000619036
0.000611357
0.000604416
0.00059821
0.000847618
0.00083394
0.000817471
0.000799521
0.000781276
0.000763551
0.000746812
0.000731272
0.000716987
0.000703921
0.000691997
0.000681116
0.000671179
0.000662094
0.000653781
0.000646186
0.000639282
0.000633063
0.000848981
0.000838776
0.000826767
0.000813458
0.000799505
0.000785479
0.000771795
0.000758714
0.000746376
0.000734835
0.000724098
0.000714136
0.000704908
0.000696368
0.000688473
0.000681196
0.000674526
0.000668457
0.000849783
0.000841791
0.00083293
0.000823253
0.000812995
0.000802448
0.000791878
0.000781494
0.000771442
0.000761815
0.000752664
0.00074401
0.000735856
0.000728198
0.000721026
0.00071434
0.000708143
0.000702429
0.000850209
0.00084347
0.000836553
0.000829339
0.000821827
0.000814093
0.000806243
0.000798386
0.000790619
0.000783017
0.000775638
0.00076852
0.00076169
0.000755166
0.000748965
0.000743103
0.000737597
0.000732435
0.000850409
0.000844283
0.00083839
0.000832581
0.000826768
0.000820912
0.000815011
0.000809088
0.000803175
0.000797307
0.00079152
0.000785843
0.000780304
0.000774929
0.000769743
0.00076477
0.00076003
0.000755502
0.000850482
0.000844584
0.000839092
0.000833868
0.000828807
0.000823836
0.00081891
0.000814005
0.000809118
0.000804252
0.000799422
0.000794644
0.000789938
0.000785325
0.00078083
0.000776476
0.000772281
0.000768213
0.000850461
0.000844499
0.000838896
0.000833514
0.000828256
0.000823059
0.000817889
0.000812737
0.000807607
0.00080251
0.000797465
0.000792491
0.000787608
0.000782837
0.000778201
0.000773724
0.000769417
0.000765249
0.000850264
0.000843697
0.00083708
0.000830288
0.0008233
0.000816155
0.000808926
0.000801693
0.00079453
0.0007875
0.000780651
0.00077402
0.000767631
0.000761505
0.000755657
0.000750103
0.000744848
0.000739857
0.000849709
0.000841536
0.000832458
0.000822573
0.000812145
0.00080147
0.000790813
0.000780374
0.000770293
0.000760656
0.00075151
0.000742873
0.000734746
0.000727119
0.000719981
0.000713321
0.000707126
0.000701351
0.000848165
0.000835952
0.000821431
0.00080555
0.000789238
0.000773184
0.000757824
0.000743391
0.00072998
0.000717601
0.000706214
0.000695755
0.000686152
0.000677333
0.000669234
0.000661801
0.000654993
0.000648748
0.000844088
0.000822751
0.000797951
0.000772534
0.000748222
0.00072583
0.000705619
0.000687555
0.000671467
0.000657141
0.000644357
0.000632912
0.00062263
0.000613359
0.000604975
0.000597382
0.000590509
0.000584283
0.00083379
0.000794246
0.000753384
0.000716058
0.00068362
0.000655963
0.000632498
0.000612537
0.00059545
0.00058071
0.000567889
0.000556646
0.00054671
0.000537869
0.000529958
0.000522854
0.000516472
0.000510738
0.000809075
0.000738688
0.000678533
0.000630908
0.000593582
0.000564092
0.000540465
0.000521219
0.000505274
0.000491853
0.000480392
0.000470475
0.000461795
0.000454122
0.000447286
0.000441163
0.000435674
0.000430761
0.000753683
0.000642681
0.000568235
0.0005176
0.000481587
0.000454981
0.000434663
0.000418661
0.000405702
0.00039495
0.000385842
0.000377988
0.000371116
0.00036503
0.000359589
0.000354695
0.000350288
0.000346341
0.000641465
0.000499149
0.000426782
0.000383971
0.000355835
0.000336124
0.000321601
0.000310394
0.000301388
0.000293903
0.000287513
0.000281942
0.000277007
0.000272581
0.000268576
0.000264932
0.000261617
0.000258629
0.000448552
0.000320185
0.000270281
0.000243463
0.000226708
0.000215423
0.000207286
0.000200994
0.000195828
0.0001914
0.000187496
0.000183988
0.000180798
0.000177875
0.000175182
0.000172694
0.000170401
0.000168314
0.000203095
0.00014355
0.000122972
0.000111704
0.000104806
0.000100357
9.71691e-05
9.45791e-05
9.22918e-05
9.01983e-05
8.82595e-05
8.64582e-05
8.47839e-05
8.32283e-05
8.17831e-05
8.04403e-05
7.91935e-05
7.8043e-05
2.40294e-05
1.96339e-05
1.7103e-05
1.54669e-05
1.43244e-05
1.34918e-05
1.28638e-05
1.23728e-05
1.19754e-05
1.16442e-05
1.13616e-05
1.11159e-05
1.08993e-05
1.07063e-05
1.05328e-05
1.03759e-05
1.02332e-05
1.01033e-05
2.32019e-06
6.52778e-06
6.94385e-06
7.26687e-06
7.66806e-06
8.10224e-06
8.59608e-06
9.04302e-06
9.46039e-06
9.87011e-06
1.02786e-05
1.06869e-05
1.10935e-05
1.14953e-05
1.18895e-05
1.22737e-05
1.2646e-05
1.30054e-05
1.33512e-05
1.36831e-05
1.40014e-05
1.43062e-05
1.45981e-05
1.48776e-05
1.51456e-05
1.54025e-05
1.56493e-05
1.58867e-05
1.61152e-05
1.63356e-05
1.65486e-05
1.67546e-05
1.69543e-05
1.71482e-05
1.73367e-05
1.75202e-05
1.76993e-05
1.78744e-05
1.80461e-05
1.82149e-05
1.83818e-05
1.85477e-05
1.872e-05
1.88897e-05
1.90541e-05
1.92134e-05
1.93676e-05
1.95164e-05
1.96595e-05
1.97963e-05
1.99262e-05
2.00488e-05
2.01634e-05
2.02693e-05
2.03659e-05
2.04524e-05
2.05282e-05
2.05926e-05
2.06451e-05
2.06848e-05
2.07115e-05
2.07245e-05
2.07235e-05
2.07082e-05
2.06783e-05
2.06338e-05
2.05747e-05
2.05011e-05
2.04132e-05
2.03113e-05
2.01958e-05
2.00673e-05
1.99263e-05
1.97733e-05
1.96088e-05
1.94327e-05
1.92442e-05
1.90447e-05
1.88522e-05
1.87095e-05
1.85821e-05
1.84543e-05
1.83236e-05
1.81897e-05
1.80529e-05
1.79136e-05
1.77722e-05
1.7629e-05
1.74845e-05
1.73389e-05
1.71925e-05
1.70456e-05
1.68983e-05
1.67508e-05
1.66031e-05
1.64553e-05
1.63075e-05
1.61597e-05
1.60118e-05
1.58638e-05
1.57158e-05
1.55676e-05
1.54192e-05
1.52707e-05
1.51219e-05
1.4973e-05
1.48239e-05
1.46747e-05
1.45255e-05
1.43765e-05
1.42279e-05
1.40798e-05
1.39326e-05
1.37864e-05
1.36418e-05
1.3499e-05
1.33584e-05
1.32204e-05
1.30856e-05
1.29543e-05
1.28268e-05
1.27035e-05
1.2584e-05
1.24671e-05
1.23553e-05
1.22513e-05
1.21542e-05
1.20636e-05
1.19791e-05
1.19005e-05
1.18275e-05
1.17597e-05
1.16968e-05
1.16385e-05
1.15845e-05
1.15345e-05
1.1488e-05
1.14449e-05
1.14048e-05
1.13674e-05
1.13324e-05
1.12995e-05
1.12686e-05
1.12393e-05
1.12115e-05
1.1185e-05
1.11596e-05
1.11351e-05
1.11114e-05
1.10883e-05
1.10658e-05
1.10437e-05
1.1022e-05
1.10006e-05
1.09794e-05
1.09583e-05
1.09373e-05
1.09163e-05
1.08954e-05
1.08744e-05
1.08533e-05
1.08321e-05
1.08107e-05
1.07891e-05
1.07673e-05
1.07452e-05
1.07227e-05
1.06997e-05
1.06762e-05
1.0652e-05
1.0627e-05
1.06007e-05
1.0573e-05
1.05431e-05
1.05101e-05
1.04725e-05
1.04275e-05
1.03696e-05
1.0289e-05
1.01657e-05
3.34213e-06
2.27987e-05
3.55379e-05
4.12449e-05
4.37885e-05
4.54619e-05
4.6944e-05
4.83375e-05
4.96619e-05
5.09859e-05
5.23902e-05
5.39378e-05
5.56663e-05
5.75921e-05
5.9716e-05
6.20287e-05
6.45135e-05
6.71493e-05
6.99119e-05
7.2776e-05
7.57163e-05
7.87088e-05
8.1732e-05
8.47673e-05
8.77998e-05
9.0818e-05
9.38143e-05
9.67838e-05
9.97246e-05
0.000102637
0.000105522
0.000108384
0.000111223
0.000114044
0.000116846
0.00011963
0.000122393
0.000125128
0.000127825
0.00013047
0.000133041
0.000135514
0.000137829
0.000140113
0.000142413
0.000144734
0.000147075
0.000149432
0.000151799
0.00015417
0.000156538
0.000158893
0.000161225
0.000163523
0.000165777
0.000167972
0.000170098
0.000172139
0.000174085
0.000175922
0.000177637
0.000179219
0.000180659
0.000181945
0.000183072
0.000184032
0.000184821
0.000185436
0.000185873
0.000186135
0.00018622
0.000186129
0.000185864
0.00018542
0.00018479
0.000183953
0.000182872
0.000181496
0.000179832
0.000177992
0.000176048
0.000174029
0.000171951
0.000169824
0.00016766
0.000165467
0.000163254
0.000161026
0.000158791
0.000156552
0.000154316
0.000152085
0.000149863
0.000147651
0.000145453
0.000143269
0.000141101
0.000138948
0.000136812
0.000134692
0.000132589
0.000130503
0.000128434
0.000126382
0.000124347
0.000122331
0.000120335
0.000118359
0.000116405
0.000114476
0.000112573
0.0001107
0.00010886
0.000107056
0.000105291
0.000103569
0.000101895
0.000100273
9.8705e-05
9.7196e-05
9.57487e-05
9.43645e-05
9.30403e-05
9.17615e-05
9.0491e-05
8.92686e-05
8.81473e-05
8.71231e-05
8.619e-05
8.53415e-05
8.45716e-05
8.38745e-05
8.32449e-05
8.26775e-05
8.21671e-05
8.17087e-05
8.12974e-05
8.09286e-05
8.05976e-05
8.03003e-05
8.00326e-05
7.97907e-05
7.95712e-05
7.9371e-05
7.91871e-05
7.90169e-05
7.88582e-05
7.87089e-05
7.85671e-05
7.84312e-05
7.82998e-05
7.81718e-05
7.80461e-05
7.79217e-05
7.77979e-05
7.7674e-05
7.75495e-05
7.74237e-05
7.72963e-05
7.71669e-05
7.70349e-05
7.68999e-05
7.67615e-05
7.66192e-05
7.64722e-05
7.63197e-05
7.61606e-05
7.59935e-05
7.58163e-05
7.56261e-05
7.54191e-05
7.5189e-05
7.49268e-05
7.46175e-05
7.42355e-05
7.37353e-05
7.30197e-05
7.19278e-05
6.99532e-05
6.71056e-05
4.23824e-06
3.27829e-05
5.32717e-05
6.45354e-05
7.07455e-05
7.46848e-05
7.78225e-05
8.07977e-05
8.38745e-05
8.71915e-05
9.08392e-05
9.48732e-05
9.93152e-05
0.000104157
0.000109368
0.000114898
0.00012069
0.00012668
0.000132804
0.000139003
0.000145222
0.000151416
0.000157549
0.000163592
0.000169527
0.00017534
0.000181028
0.00018659
0.000192029
0.000197351
0.000202565
0.000207681
0.000212705
0.000217648
0.000222516
0.000227314
0.000232045
0.000236712
0.000241312
0.000245843
0.000250303
0.00025469
0.00025902
0.00026336
0.000267734
0.000272146
0.000276595
0.000281075
0.000285576
0.000290088
0.000294596
0.000299085
0.000303537
0.000307931
0.000312247
0.000316462
0.000320551
0.000324489
0.000328253
0.000331817
0.000335159
0.000338255
0.000341086
0.000343632
0.000345878
0.00034781
0.000349417
0.000350692
0.000351629
0.000352226
0.000352483
0.000352399
0.000351975
0.00035121
0.0003501
0.000348637
0.000346808
0.000344607
0.000342067
0.000339256
0.000336239
0.000333056
0.000329734
0.000326296
0.000322761
0.000319146
0.000315466
0.000311734
0.000307963
0.000304163
0.000300343
0.000296511
0.000292674
0.000288836
0.000285003
0.000281176
0.000277359
0.000273552
0.000269757
0.000265975
0.000262205
0.000258449
0.000254705
0.000250976
0.000247261
0.000243562
0.000239881
0.00023622
0.000232583
0.000228973
0.000225396
0.000221856
0.000218361
0.000214917
0.000211533
0.000208215
0.000204973
0.000201814
0.000198748
0.000195781
0.000192922
0.000190175
0.00018754
0.000185015
0.000182586
0.000180254
0.000178026
0.000175961
0.000174057
0.00017231
0.000170713
0.000169259
0.00016794
0.000166747
0.000165672
0.000164705
0.000163838
0.000163061
0.000162365
0.000161743
0.000161186
0.000160685
0.000160235
0.000159829
0.00015946
0.000159122
0.000158812
0.000158523
0.000158253
0.000157998
0.000157754
0.00015752
0.000157291
0.000157068
0.000156847
0.000156627
0.000156407
0.000156186
0.000155963
0.000155736
0.000155505
0.000155269
0.000155027
0.000154777
0.000154519
0.00015425
0.000153969
0.000153673
0.000153358
0.00015302
0.00015265
0.000152238
0.000151769
0.000151217
0.000150542
0.000149674
0.000148473
0.000146693
0.000143722
0.000139117
4.82983e-06
3.8977e-05
6.62191e-05
8.28026e-05
9.29641e-05
9.97929e-05
0.000105194
0.000110216
0.000115379
0.000120931
0.000126977
0.000133547
0.000140624
0.000148155
0.000156069
0.000164282
0.000172707
0.000181259
0.000189861
0.000198446
0.000206956
0.000215346
0.000223581
0.000231636
0.000239496
0.000247153
0.000254605
0.000261855
0.000268908
0.000275776
0.000282469
0.000288999
0.00029538
0.000301624
0.000307743
0.000313751
0.000319657
0.000325472
0.000331205
0.000336865
0.00034246
0.000347996
0.000353506
0.000359032
0.000364593
0.000370196
0.000375841
0.000381525
0.000387238
0.000392969
0.000398704
0.000404426
0.000410113
0.000415744
0.000421291
0.000426727
0.000432023
0.000437149
0.000442073
0.000446765
0.000451193
0.000455329
0.000459146
0.000462617
0.00046572
0.000468437
0.000470752
0.000472651
0.000474125
0.00047517
0.000475782
0.000475961
0.000475709
0.000475027
0.000473919
0.000472388
0.000470437
0.00046808
0.000465355
0.000462313
0.000458999
0.000455451
0.0004517
0.000447773
0.000443693
0.00043948
0.000435156
0.000430737
0.000426239
0.000421676
0.000417061
0.000412403
0.000407712
0.000402995
0.000398259
0.000393506
0.000388743
0.00038397
0.000379189
0.000374403
0.000369611
0.000364814
0.000360014
0.00035521
0.000350405
0.0003456
0.000340798
0.000336003
0.000331219
0.000326452
0.000321708
0.000316997
0.000312325
0.000307705
0.000303146
0.00029866
0.000294259
0.000289956
0.000285763
0.000281692
0.000277754
0.000273957
0.000270309
0.000266812
0.000263467
0.000260274
0.00025723
0.000254361
0.000251698
0.000249237
0.000246975
0.000244904
0.000243016
0.000241301
0.00023975
0.000238351
0.000237092
0.000235962
0.000234949
0.000234042
0.00023323
0.000232503
0.000231849
0.000231261
0.000230729
0.000230245
0.000229803
0.000229395
0.000229016
0.000228661
0.000228325
0.000228004
0.000227695
0.000227394
0.000227098
0.000226807
0.000226516
0.000226226
0.000225933
0.000225637
0.000225336
0.000225029
0.000224715
0.000224391
0.000224057
0.00022371
0.000223347
0.000222965
0.000222559
0.000222122
0.000221647
0.00022112
0.000220522
0.000219824
0.000218982
0.000217918
0.000216492
0.000214462
0.000211336
0.000206804
5.17402e-06
4.29765e-05
7.5628e-05
9.70683e-05
0.000111275
0.000121387
0.000129492
0.000136869
0.000144234
0.000151943
0.000160145
0.000168867
0.000178073
0.000187688
0.000197623
0.000207782
0.00021807
0.000228402
0.000238701
0.000248903
0.000258955
0.000268815
0.000278451
0.000287842
0.000296973
0.000305837
0.000314432
0.000322762
0.000330833
0.000338655
0.00034624
0.000353602
0.000360757
0.00036772
0.000374508
0.000381138
0.000387626
0.000393989
0.000400243
0.000406402
0.00041248
0.000418489
0.000424459
0.000430435
0.000436437
0.000442479
0.000448565
0.000454699
0.000460875
0.000467086
0.000473322
0.000479568
0.000485804
0.000492008
0.000498156
0.000504218
0.000510165
0.000515962
0.000521577
0.000526973
0.000532117
0.000536974
0.000541512
0.000545699
0.000549509
0.000552915
0.000555897
0.000558437
0.000560522
0.000562141
0.000563289
0.000563962
0.000564162
0.000563892
0.000563157
0.000561963
0.000560312
0.000558238
0.000555777
0.000552965
0.00054984
0.000546433
0.000542774
0.000538891
0.000534808
0.000530549
0.000526134
0.000521584
0.000516915
0.000512144
0.000507285
0.00050235
0.00049735
0.000492293
0.000487186
0.000482036
0.000476846
0.000471621
0.000466363
0.000461074
0.000455755
0.000450407
0.000445032
0.000439631
0.000434206
0.00042876
0.000423295
0.000417818
0.000412332
0.000406846
0.000401367
0.000395905
0.000390472
0.000385078
0.000379739
0.000374467
0.000369279
0.000364189
0.000359213
0.000354366
0.000349663
0.000345116
0.000340737
0.000336533
0.000332511
0.000328675
0.000325028
0.00032157
0.00031834
0.000315341
0.000312571
0.000310024
0.000307692
0.000305567
0.000303638
0.000301891
0.000300316
0.000298899
0.000297627
0.000296486
0.000295463
0.000294546
0.000293724
0.000292984
0.000292316
0.000291711
0.000291159
0.000290654
0.000290186
0.00028975
0.00028934
0.000288951
0.000288578
0.000288218
0.000287866
0.000287521
0.000287178
0.000286837
0.000286495
0.00028615
0.0002858
0.000285444
0.00028508
0.000284706
0.000284321
0.00028392
0.000283502
0.000283063
0.000282597
0.000282097
0.000281554
0.000280953
0.000280275
0.00027949
0.000278552
0.000277387
0.000275866
0.000273779
0.000270774
0.000266738
5.38913e-06
4.52835e-05
8.21388e-05
0.000107859
0.00012595
0.000139434
0.000150415
0.000160265
0.00016981
0.000179501
0.000189544
0.000199996
0.000210834
0.000221989
0.000233376
0.000244903
0.000256481
0.000268032
0.000279484
0.000290779
0.000301867
0.000312709
0.000323275
0.000333544
0.0003435
0.000353135
0.000362447
0.000371435
0.000380105
0.000388467
0.000396531
0.000404311
0.000411822
0.000419083
0.000426112
0.000432928
0.000439552
0.000446005
0.000452306
0.000458476
0.000464534
0.000470499
0.000476389
0.000482264
0.000488152
0.000494075
0.000500046
0.000506076
0.000512169
0.000518324
0.000524537
0.000530799
0.000537097
0.000543412
0.000549722
0.000556
0.000562216
0.000568338
0.00057433
0.000580155
0.000585774
0.000591151
0.000596246
0.000601026
0.000605455
0.000609503
0.000613143
0.000616352
0.000619109
0.000621401
0.000623216
0.000624548
0.000625394
0.000625757
0.000625631
0.000625018
0.000623946
0.000622442
0.000620535
0.000618256
0.000615633
0.000612694
0.000609469
0.000605981
0.000602257
0.000598318
0.000594187
0.000589884
0.000585427
0.000580832
0.000576115
0.000571289
0.000566364
0.000561352
0.000556259
0.000551092
0.000545857
0.000540558
0.000535198
0.00052978
0.000524304
0.000518774
0.00051319
0.000507555
0.000501871
0.000496141
0.000490369
0.000484561
0.000478723
0.000472862
0.000466989
0.000461113
0.000455248
0.000449407
0.000443604
0.000437858
0.000432184
0.0004266
0.000421124
0.000415775
0.000410568
0.000405521
0.000400647
0.000395959
0.000391467
0.000387178
0.000383099
0.00037923
0.000375592
0.000372201
0.000369057
0.000366155
0.00036349
0.000361052
0.000358831
0.000356816
0.000354994
0.00035335
0.00035187
0.000350542
0.00034935
0.00034828
0.00034732
0.000346457
0.000345679
0.000344974
0.000344334
0.000343749
0.000343209
0.000342708
0.000342239
0.000341797
0.000341374
0.000340968
0.000340574
0.000340188
0.000339808
0.00033943
0.000339052
0.000338672
0.000338288
0.000337898
0.0003375
0.000337092
0.000336671
0.000336235
0.000335781
0.000335304
0.000334799
0.000334258
0.000333672
0.000333026
0.000332301
0.000331467
0.00033048
0.000329271
0.000327729
0.000325682
0.000322891
0.000319382
5.51845e-06
4.64008e-05
8.6371e-05
0.000115711
0.000137325
0.000154015
0.000167804
0.000180064
0.000191675
0.00020315
0.000214755
0.000226595
0.00023868
0.000250969
0.000263393
0.000275875
0.000288341
0.000300719
0.000312946
0.000324968
0.000336739
0.000348222
0.000359387
0.000370211
0.000380677
0.000390775
0.000400499
0.000409846
0.00041882
0.000427426
0.000435674
0.000443575
0.000451145
0.0004584
0.000465359
0.000472044
0.000478477
0.000484681
0.00049068
0.0004965
0.000502165
0.000507698
0.000513124
0.000518502
0.000523875
0.000529275
0.000534727
0.000540252
0.000545865
0.000551576
0.000557389
0.000563305
0.000569316
0.000575412
0.000581574
0.00058778
0.000594003
0.00060021
0.000606366
0.000612432
0.000618367
0.00062413
0.000629677
0.000634967
0.000639962
0.000644623
0.000648916
0.000652813
0.000656286
0.000659314
0.000661883
0.000663976
0.000665597
0.000666708
0.000667328
0.000667471
0.000667158
0.00066641
0.000665249
0.0006637
0.000661787
0.000659536
0.000656971
0.000654116
0.000650993
0.000647627
0.000644036
0.000640242
0.000636263
0.000632114
0.000627812
0.00062337
0.000618799
0.00061411
0.00060931
0.000604408
0.000599408
0.000594316
0.000589135
0.000583867
0.000578516
0.000573082
0.000567569
0.000561979
0.000556313
0.000550577
0.000544773
0.000538909
0.00053299
0.000527026
0.000521026
0.000515001
0.000508966
0.000502935
0.000496924
0.000490951
0.000485034
0.000479193
0.000473447
0.000467817
0.000462321
0.000456978
0.000451804
0.000446816
0.000442026
0.000437445
0.00043308
0.000428938
0.000425026
0.000421367
0.000417962
0.000414809
0.000411903
0.000409237
0.000406802
0.000404585
0.000402576
0.000400759
0.00039912
0.000397646
0.000396321
0.000395132
0.000394063
0.000393102
0.000392236
0.000391452
0.000390741
0.000390092
0.000389496
0.000388944
0.000388428
0.000387944
0.000387483
0.000387042
0.000386616
0.0003862
0.000385792
0.000385387
0.000384984
0.00038458
0.000384172
0.000383759
0.000383338
0.000382907
0.000382463
0.000382005
0.000381527
0.000381026
0.000380497
0.000379932
0.00037932
0.000378649
0.000377899
0.000377042
0.000376037
0.000374822
0.000373304
0.000371347
0.000368796
0.000365752
5.58664e-06
4.66989e-05
8.88399e-05
0.000121117
0.000145783
0.000165359
0.000181731
0.000196225
0.000209727
0.000222789
0.000235728
0.000248698
0.000261753
0.000274884
0.000288052
0.000301199
0.000314266
0.000327193
0.000339924
0.000352411
0.00036461
0.000376486
0.000388009
0.000399154
0.000409902
0.00042024
0.000430157
0.000439649
0.000448714
0.000457356
0.000465578
0.000473392
0.000480809
0.000487845
0.000494518
0.000500849
0.000506861
0.00051258
0.000518032
0.000523248
0.000528256
0.000533087
0.000537771
0.000542371
0.000546942
0.000551528
0.00055617
0.0005609
0.000565747
0.000570732
0.000575872
0.000581178
0.000586652
0.00059229
0.000598083
0.000604012
0.000610054
0.000616177
0.000622348
0.000628524
0.000634663
0.000640718
0.000646641
0.000652386
0.000657906
0.000663156
0.000668095
0.000672687
0.000676898
0.000680696
0.000684073
0.000686973
0.000689395
0.000691338
0.000692809
0.000693817
0.000694375
0.000694498
0.000694204
0.000693513
0.000692445
0.000691022
0.000689266
0.000687199
0.000684841
0.000682215
0.00067934
0.000676235
0.000672918
0.000669405
0.00066571
0.000661848
0.00065783
0.000653666
0.000649364
0.000644932
0.000640376
0.0006357
0.000630908
0.000626004
0.000620989
0.000615867
0.000610639
0.000605307
0.000599875
0.000594347
0.000588727
0.000583021
0.000577235
0.00057138
0.000565465
0.000559502
0.000553505
0.00054749
0.000541472
0.000535472
0.000529507
0.0005236
0.000517769
0.000512038
0.000506426
0.000500954
0.000495641
0.000490505
0.00048556
0.00048082
0.000476295
0.000471994
0.00046792
0.000464096
0.000460526
0.00045721
0.000454144
0.000451323
0.000448739
0.000446381
0.000444237
0.000442295
0.000440539
0.000438957
0.000437533
0.000436252
0.000435101
0.000434064
0.000433131
0.000432286
0.000431521
0.000430822
0.000430182
0.000429591
0.00042904
0.000428524
0.000428035
0.000427568
0.000427118
0.000426681
0.000426252
0.000425829
0.000425409
0.000424988
0.000424565
0.000424137
0.000423701
0.000423256
0.000422799
0.000422326
0.000421835
0.000421321
0.000420779
0.000420201
0.000419577
0.000418895
0.000418136
0.000417274
0.000416273
0.000415078
0.000413611
0.000411768
0.000409452
0.000406804
5.60967e-06
4.64306e-05
8.99399e-05
0.000124489
0.000151696
0.000173765
0.000192421
0.000208912
0.000224103
0.000238565
0.00025265
0.000266557
0.000280381
0.000294149
0.000307851
0.000321455
0.000334916
0.000348187
0.000361223
0.000373979
0.000386417
0.000398501
0.000410201
0.000421491
0.00043235
0.000442762
0.000452712
0.000462192
0.000471197
0.000479725
0.000487777
0.00049536
0.000502482
0.000509156
0.000515399
0.000521229
0.00052667
0.000531748
0.000536493
0.000540936
0.000545113
0.00054906
0.000552816
0.000556446
0.000560017
0.00056359
0.000567219
0.000570951
0.000574828
0.000578889
0.000583162
0.000587669
0.000592427
0.000597439
0.000602705
0.000608212
0.00061394
0.000619861
0.000625939
0.000632134
0.000638397
0.000644678
0.000650922
0.000657076
0.00066309
0.000668907
0.000674474
0.000679757
0.000684713
0.000689272
0.000693424
0.000697145
0.000700423
0.000703251
0.000705628
0.000707557
0.000709045
0.000710103
0.000710744
0.000710983
0.000710838
0.000710326
0.000709469
0.000708284
0.000706792
0.000705013
0.000702965
0.000700666
0.000698133
0.000695381
0.000692426
0.000689279
0.000685953
0.000682456
0.000678798
0.000674985
0.000671024
0.000666919
0.000662673
0.000658291
0.000653773
0.000649124
0.000644344
0.000639437
0.000634405
0.000629252
0.000623982
0.000618602
0.000613118
0.00060754
0.000601877
0.000596142
0.000590349
0.000584513
0.000578652
0.000572784
0.000566929
0.000561108
0.000555344
0.000549658
0.000544073
0.000538609
0.000533289
0.000528129
0.000523149
0.000518363
0.000513783
0.00050942
0.000505278
0.000501377
0.000497723
0.000494319
0.000491162
0.000488249
0.000485574
0.000483126
0.000480895
0.000478869
0.000477035
0.000475378
0.000473884
0.000472539
0.000471328
0.000470238
0.000469255
0.000468366
0.00046756
0.000466826
0.000466154
0.000465534
0.000464958
0.000464419
0.00046391
0.000463425
0.000462959
0.000462507
0.000462066
0.000461631
0.0004612
0.00046077
0.000460338
0.000459901
0.000459458
0.000459005
0.000458541
0.000458062
0.000457565
0.000457046
0.000456498
0.000455916
0.000455291
0.000454608
0.000453852
0.000453
0.000452017
0.000450858
0.000449459
0.000447741
0.000445646
0.00044333
5.5979e-06
4.57665e-05
8.99682e-05
0.000126165
0.000155401
0.000179553
0.000200167
0.000218397
0.00023507
0.000250758
0.000265833
0.000280527
0.000294972
0.000309228
0.000323314
0.000337219
0.00035092
0.000364381
0.000377568
0.000390441
0.000402967
0.000415112
0.000426847
0.000438144
0.00044898
0.000459337
0.000469197
0.000478548
0.00048738
0.000495687
0.000503468
0.000510723
0.000517458
0.000523681
0.000529405
0.000534648
0.000539431
0.00054378
0.000547725
0.0005513
0.000554544
0.0005575
0.000560213
0.000562755
0.000565206
0.000567641
0.000570129
0.000572733
0.000575513
0.000578521
0.000581801
0.000585389
0.000589314
0.00059359
0.000598226
0.000603216
0.000608543
0.000614182
0.000620098
0.000626248
0.000632582
0.000639041
0.000645562
0.000652088
0.000658567
0.000664931
0.000671092
0.000677015
0.000682652
0.000687959
0.000692904
0.00069746
0.000701609
0.000705336
0.000708634
0.000711501
0.000713939
0.000715953
0.000717552
0.000718749
0.000719558
0.000719995
0.000720076
0.00071982
0.000719244
0.000718367
0.000717207
0.000715779
0.0007141
0.000712186
0.00071005
0.000707703
0.000705158
0.000702423
0.000699507
0.000696415
0.000693155
0.000689729
0.000686142
0.000682397
0.000678495
0.000674439
0.000670231
0.000665873
0.000661367
0.000656717
0.000651927
0.000647004
0.000641953
0.000636783
0.000631505
0.00062613
0.000620672
0.000615147
0.000609571
0.000603964
0.000598346
0.000592738
0.000587162
0.000581641
0.000576199
0.000570856
0.000565636
0.000560559
0.000555642
0.000550904
0.000546358
0.000542017
0.000537888
0.000533983
0.000530315
0.000526887
0.000523699
0.000520749
0.000518033
0.000515541
0.000513264
0.000511193
0.000509313
0.000507612
0.000506076
0.00050469
0.000503442
0.000502317
0.000501301
0.000500384
0.000499551
0.000498793
0.0004981
0.000497461
0.000496869
0.000496315
0.000495793
0.000495298
0.000494822
0.000494362
0.000493914
0.000493474
0.000493038
0.000492603
0.000492168
0.000491728
0.000491283
0.000490829
0.000490363
0.000489884
0.000489387
0.000488869
0.000488323
0.000487745
0.000487124
0.00048645
0.000485707
0.000484873
0.00048392
0.000482808
0.000481486
0.000479894
0.000478004
0.000475968
5.55777e-06
4.48235e-05
8.91517e-05
0.000126426
0.000157198
0.000183029
0.000205277
0.000224991
0.000242946
0.000259697
0.000275627
0.000290989
0.000305939
0.00032057
0.000334923
0.000349012
0.00036283
0.000376356
0.000389566
0.00040243
0.000414917
0.000426998
0.000438644
0.000449828
0.000460528
0.000470721
0.000480388
0.000489513
0.000498084
0.00050609
0.000513526
0.000520387
0.000526675
0.000532394
0.000537554
0.000542169
0.000546256
0.000549839
0.000552948
0.000555618
0.00055789
0.00055981
0.000561432
0.000562836
0.000564115
0.000565358
0.00056665
0.000568072
0.000569698
0.000571596
0.000573827
0.000576442
0.00057948
0.000582971
0.000586929
0.000591356
0.00059624
0.000601556
0.000607269
0.000613337
0.000619714
0.000626323
0.000633085
0.000639936
0.000646813
0.000653643
0.000660359
0.000666901
0.000673216
0.000679257
0.000684983
0.000690361
0.000695365
0.000699976
0.00070418
0.000707969
0.00071134
0.000714296
0.000716843
0.000718988
0.000720744
0.000722125
0.000723144
0.00072382
0.000724168
0.000724205
0.000723949
0.000723414
0.000722617
0.000721572
0.000720291
0.000718787
0.00071707
0.000715149
0.000713031
0.000710723
0.00070823
0.000705555
0.000702701
0.000699671
0.000696467
0.00069309
0.000689542
0.000685824
0.000681938
0.000677887
0.000673676
0.000669308
0.000664791
0.000660133
0.000655342
0.000650431
0.000645413
0.000640302
0.000635116
0.000629873
0.000624594
0.000619299
0.000614011
0.000608754
0.000603549
0.000598421
0.000593391
0.000588482
0.000583714
0.000579103