/*--------------------------------*- C++ -*----------------------------------*\
  =========                 |
  \\      /  F ield         | OpenFOAM: The Open Source CFD Toolbox
   \\    /   O peration     | Website:  https://openfoam.org
    \\  /    A nd           | Version:  6
     \\/     M anipulation  |
\*---------------------------------------------------------------------------*/
FoamFile
{
    version     2.0;
    format      ascii;
    class       volScalarField;
    location    "0.15";
    object      p;
}
// * * * * * * * * * * * * * * * * * * * * * * * * * * * * * * * * * * * * * //

dimensions      [0 2 -2 0 0 0 0];

internalField   nonuniform List<scalar> 
12225
(
0.312779
0.060421
-0.0174447
-0.0276938
-0.0318767
-0.0360604
-0.0381304
-0.0389884
-0.0396623
-0.0402896
-0.0407863
-0.0411541
-0.0414211
-0.0415888
-0.0416691
-0.0416191
-0.0417608
-0.0413292
-0.0690706
-0.0387998
-0.0377644
-0.0310566
-0.0313707
-0.0349486
-0.0372606
-0.0384369
-0.0393128
-0.0400446
-0.0405997
-0.0410055
-0.0412982
-0.0414815
-0.0415697
-0.0415064
-0.041515
-0.0411239
-0.106082
-0.0350648
-0.0331373
-0.030555
-0.0310742
-0.0342414
-0.0364994
-0.0377897
-0.0387731
-0.0395805
-0.0401957
-0.040651
-0.0409816
-0.041192
-0.0412958
-0.0412303
-0.0411533
-0.0404728
-0.0607133
-0.0218336
-0.0296515
-0.030684
-0.0313733
-0.034049
-0.0360945
-0.0373665
-0.0383736
-0.0392104
-0.0398607
-0.0403514
-0.0407124
-0.0409474
-0.0410654
-0.0410096
-0.0408553
-0.0401834
-0.040297
-0.0218764
-0.0301118
-0.0313888
-0.0319288
-0.0341463
-0.0359601
-0.0371695
-0.0381563
-0.0389882
-0.0396483
-0.0401568
-0.0405371
-0.0407918
-0.0409243
-0.0408898
-0.0407134
-0.0401679
-0.0379392
-0.0261595
-0.0312813
-0.0320908
-0.0325352
-0.0343716
-0.0359715
-0.0371088
-0.0380583
-0.0388688
-0.0395252
-0.0400417
-0.0404358
-0.0407093
-0.0408623
-0.0408633
-0.0407158
-0.0403196
-0.0378025
-0.0290681
-0.0320088
-0.0326817
-0.0331347
-0.0346615
-0.0360703
-0.0371339
-0.0380396
-0.0388223
-0.0394691
-0.0399896
-0.0403964
-0.0406913
-0.0408736
-0.0409244
-0.040842
-0.0406024
-0.0368106
-0.030684
-0.0325232
-0.0332164
-0.033706
-0.0349857
-0.0362282
-0.0372203
-0.038081
-0.0388346
-0.0394701
-0.0399937
-0.0404146
-0.0407351
-0.0409558
-0.0410685
-0.0410748
-0.0409931
-0.0358182
-0.0318325
-0.0330263
-0.0337153
-0.0342356
-0.0353234
-0.0364251
-0.0373508
-0.0381688
-0.0388949
-0.0395202
-0.0400481
-0.0404859
-0.0408368
-0.0411039
-0.0412874
-0.0413949
-0.0414649
-0.0352372
-0.03277
-0.0335315
-0.0341775
-0.0347186
-0.0356611
-0.0366456
-0.0375114
-0.038291
-0.0389934
-0.0396111
-0.040146
-0.0406041
-0.0409901
-0.0413095
-0.0415688
-0.041781
-0.0419903
-0.0349941
-0.0335251
-0.0340176
-0.0346069
-0.035158
-0.0359914
-0.0368793
-0.0376921
-0.0384384
-0.0391215
-0.039735
-0.04028
-0.040762
-0.0411867
-0.0415618
-0.0418979
-0.0422109
-0.0425439
-0.0349633
-0.0340821
-0.0344399
-0.0349779
-0.0355277
-0.0362847
-0.0370995
-0.0378692
-0.0385893
-0.0392585
-0.0398714
-0.0404286
-0.0409351
-0.0413973
-0.0418243
-0.0422282
-0.0426258
-0.0430559
-0.0350468
-0.0345553
-0.0348271
-0.0353203
-0.0358649
-0.036562
-0.0373179
-0.0380523
-0.0387513
-0.0394109
-0.0400263
-0.0405977
-0.0411298
-0.0416296
-0.0421066
-0.0425734
-0.0430465
-0.0435572
-0.0352381
-0.0350164
-0.0352385
-0.0356871
-0.0362183
-0.0368623
-0.0375644
-0.038265
-0.0389448
-0.0395972
-0.0402181
-0.0408073
-0.041369
-0.04191
-0.0424397
-0.0429698
-0.0435151
-0.0440985
-0.035524
-0.0354598
-0.035663
-0.0360711
-0.0365803
-0.0371797
-0.0378352
-0.0385049
-0.0391682
-0.0398166
-0.0404458
-0.0410555
-0.0416489
-0.042232
-0.0428128
-0.0434013
-0.0440089
-0.0446511
-0.0358676
-0.03588
-0.0360788
-0.0364545
-0.0369381
-0.0375019
-0.0381206
-0.038765
-0.039416
-0.0400638
-0.0407038
-0.0413349
-0.0419589
-0.0425804
-0.0432051
-0.0438403
-0.0444934
-0.0451739
-0.0362128
-0.0362554
-0.0364526
-0.0368056
-0.0372671
-0.0378061
-0.0384005
-0.0390284
-0.0396731
-0.0403242
-0.0409762
-0.0416268
-0.0422764
-0.042927
-0.0435823
-0.044246
-0.0449222
-0.0456155
-0.0364844
-0.0365361
-0.0367298
-0.0370704
-0.0375205
-0.0380495
-0.0386358
-0.0392607
-0.0399085
-0.0405683
-0.0412332
-0.0418997
-0.0425663
-0.0432331
-0.0439011
-0.0445716
-0.0452457
-0.0459253
-0.0365807
-0.0366303
-0.0368168
-0.0371557
-0.0376129
-0.0381538
-0.0387551
-0.0393975
-0.0400641
-0.0407422
-0.0414239
-0.0421042
-0.04278
-0.0434498
-0.0441128
-0.0447688
-0.045417
-0.0460578
-0.0364102
-0.0364309
-0.0365949
-0.0369489
-0.0374418
-0.038025
-0.0386725
-0.0393602
-0.0400658
-0.040775
-0.0414794
-0.0421741
-0.0428557
-0.0435224
-0.0441734
-0.0448081
-0.0454255
-0.0460257
-0.0361694
-0.0360936
-0.0362046
-0.0365904
-0.0371328
-0.037769
-0.0384784
-0.0392263
-0.0399812
-0.040728
-0.0414602
-0.0421732
-0.0428641
-0.0435318
-0.0441759
-0.0447962
-0.0453921
-0.0459638
-0.0360105
-0.0356367
-0.0356401
-0.0360994
-0.0367064
-0.0374078
-0.0382026
-0.0390297
-0.0398445
-0.0406361
-0.0414013
-0.0421366
-0.0428401
-0.043512
-0.044153
-0.0447639
-0.0453444
-0.0458952
-0.0361857
-0.0351011
-0.0349312
-0.0355126
-0.0361723
-0.0369522
-0.0378671
-0.0387944
-0.0396784
-0.0405213
-0.0413253
-0.0420873
-0.042807
-0.0434868
-0.044129
-0.0447355
-0.0453069
-0.0458437
-0.0367198
-0.0343553
-0.0341312
-0.0348913
-0.035528
-0.0364061
-0.0374939
-0.038545
-0.0395064
-0.0404079
-0.0412566
-0.0420488
-0.0427871
-0.0434774
-0.0441237
-0.0447292
-0.0452956
-0.0458233
-0.0369832
-0.032407
-0.0329827
-0.0342215
-0.0347566
-0.035783
-0.0371151
-0.0383132
-0.0393593
-0.0403263
-0.0412237
-0.0420473
-0.0428043
-0.0435049
-0.0441557
-0.0447611
-0.0453244
-0.0458455
-0.0387242
-0.0279925
-0.0307166
-0.0332138
-0.0337848
-0.0351104
-0.0367746
-0.0381413
-0.0392785
-0.0403145
-0.0412597
-0.0421104
-0.0428814
-0.0435884
-0.0442406
-0.0448439
-0.045403
-0.045918
-0.0557438
-0.0259645
-0.0284725
-0.031817
-0.0326035
-0.0344794
-0.0365605
-0.0381087
-0.039338
-0.0404357
-0.0414149
-0.0422779
-0.0430497
-0.0437521
-0.044397
-0.0449914
-0.0455416
-0.0460479
-0.0998773
-0.0392577
-0.0325118
-0.0316359
-0.031778
-0.034256
-0.0367269
-0.0384043
-0.039684
-0.0408035
-0.0417781
-0.0426195
-0.0433648
-0.0440414
-0.0446622
-0.0452346
-0.0457658
-0.0462579
-0.0795062
-0.0490954
-0.0424138
-0.0338761
-0.0322465
-0.035024
-0.0376078
-0.039191
-0.0403728
-0.0414201
-0.0423296
-0.0431091
-0.0438001
-0.0444319
-0.0450154
-0.0455553
-0.0460578
-0.0465377
0.28481
0.0650798
-0.0120465
-0.0251778
-0.0305147
-0.0356597
-0.0386557
-0.0400365
-0.0409669
-0.0418388
-0.0426339
-0.0433351
-0.0439709
-0.0445632
-0.0451173
-0.0456318
-0.0461017
-0.0465076
-0.0723404
-0.0726068
-0.073066
-0.0735412
-0.0740178
-0.074595
-0.0753379
-0.0762744
-0.0774225
-0.0788056
-0.0804474
-0.0823679
-0.0845804
-0.0870887
-0.0898849
-0.0929491
-0.0962499
-0.0997463
-0.10339
-0.107128
-0.110907
-0.114673
-0.118375
-0.121967
-0.125408
-0.128661
-0.131696
-0.134483
-0.137001
-0.13923
-0.14115
-0.142747
-0.144005
-0.14491
-0.14545
-0.145611
-0.14538
-0.144746
-0.143705
-0.142255
-0.140387
-0.138074
-0.135249
-0.131875
-0.127971
-0.12354
-0.118582
-0.113095
-0.107082
-0.100545
-0.0934932
-0.0859391
-0.0779004
-0.0694001
-0.0604669
-0.0511347
-0.0414427
-0.031435
-0.02116
-0.0106698
-1.97273e-05
0.0107332
0.0215308
0.0323145
0.0430269
0.0536123
0.0640176
0.0741932
0.0840938
0.0936784
0.102911
0.111762
0.120205
0.12822
0.135791
0.142909
0.149571
0.155786
0.161577
0.166949
0.171891
0.176413
0.180528
0.184253
0.187607
0.190606
0.193272
0.195622
0.197676
0.199452
0.200969
0.202245
0.203296
0.20414
0.204791
0.205264
0.205575
0.205736
0.20576
0.205659
0.205446
0.205131
0.204725
0.204238
0.203679
0.203059
0.202387
0.201669
0.200916
0.200134
0.199332
0.198515
0.19769
0.196863
0.196039
0.195224
0.194421
0.193634
0.192867
0.192122
0.191402
0.190709
0.190048
0.189421
0.188816
0.188225
0.187658
0.18712
0.18661
0.186127
0.185671
0.185241
0.184836
0.184454
0.184095
0.183756
0.183437
0.183137
0.182855
0.182588
0.182337
0.1821
0.181877
0.181665
0.181465
0.181274
0.181094
0.180921
0.180757
0.1806
0.180449
0.180304
0.180164
0.180029
0.179899
0.179773
0.179651
0.179533
0.179418
0.179308
0.179201
0.179099
0.179003
0.178912
0.17883
0.178757
0.178696
0.178651
0.178628
0.178631
0.178672
0.178764
0.178926
0.179189
0.179598
0.180228
0.181225
0.182803
0.185606
0.189699
-0.0715181
-0.0724063
-0.0730696
-0.0731992
-0.0730647
-0.0730851
-0.0734232
-0.0740616
-0.0749956
-0.0762448
-0.0778333
-0.0797801
-0.0820929
-0.0847651
-0.0877747
-0.0910849
-0.094647
-0.098404
-0.102294
-0.106256
-0.11023
-0.11416
-0.117998
-0.121701
-0.125233
-0.128563
-0.131667
-0.134523
-0.137112
-0.139418
-0.141427
-0.143125
-0.144499
-0.145534
-0.146216
-0.146532
-0.146463
-0.145993
-0.145103
-0.143768
-0.141963
-0.139674
-0.13693
-0.133741
-0.130075
-0.125911
-0.121238
-0.116049
-0.11034
-0.104113
-0.0973742
-0.0901333
-0.0824056
-0.0742119
-0.0655779
-0.056535
-0.0471197
-0.0373734
-0.027342
-0.0170752
-0.00662607
0.00395025
0.0145971
0.0252573
0.0358743
0.0463929
0.0567602
0.0669266
0.0768462
0.0864774
0.0957837
0.104734
0.113301
0.121465
0.129211
0.136528
0.143408
0.149838
0.155799
0.161306
0.166388
0.171059
0.17533
0.179217
0.182736
0.185906
0.188742
0.191264
0.19349
0.195437
0.197122
0.198565
0.19978
0.200784
0.201593
0.202221
0.202683
0.202991
0.20316
0.2032
0.203124
0.202944
0.202668
0.202309
0.201875
0.201376
0.20082
0.200217
0.199573
0.198898
0.198197
0.197478
0.196747
0.196009
0.19527
0.194534
0.193807
0.19309
0.192388
0.191704
0.191039
0.190397
0.189778
0.189179
0.188603
0.188051
0.187522
0.187015
0.186532
0.186071
0.185634
0.18522
0.184827
0.184456
0.184104
0.183772
0.183459
0.183162
0.182882
0.182618
0.182368
0.182131
0.181907
0.181694
0.181493
0.181301
0.181119
0.180945
0.180779
0.180619
0.180467
0.18032
0.180179
0.180042
0.17991
0.179783
0.179659
0.17954
0.179424
0.179312
0.179205
0.179102
0.179004
0.178913
0.17883
0.178757
0.178696
0.178651
0.178627
0.17863
0.178672
0.178763
0.178924
0.179182
0.179582
0.180189
0.18113
0.182558
0.185002
0.18839
-0.0681853
-0.0697115
-0.0710117
-0.0715856
-0.0718273
-0.0721344
-0.0726848
-0.0735413
-0.0747392
-0.076302
-0.078239
-0.0805435
-0.0831939
-0.0861561
-0.0893868
-0.0928365
-0.0964532
-0.100185
-0.103981
-0.107795
-0.111583
-0.115307
-0.118933
-0.122429
-0.125769
-0.12893
-0.131891
-0.134631
-0.137135
-0.139386
-0.141368
-0.143068
-0.144471
-0.145561
-0.146325
-0.146747
-0.146812
-0.146504
-0.145806
-0.144696
-0.143152
-0.141156
-0.138705
-0.135795
-0.132411
-0.128539
-0.124168
-0.119292
-0.113904
-0.108005
-0.101598
-0.0946908
-0.0872965
-0.0794332
-0.0711242
-0.0623982
-0.0532892
-0.0438361
-0.0340823
-0.0240754
-0.0138661
-0.00350787
0.00694427
0.0174345
0.0279074
0.0383083
0.0485848
0.0586874
0.0685699
0.0781903
0.0875114
0.0965007
0.105131
0.11338
0.121232
0.128675
0.135698
0.142292
0.148453
0.154187
0.159505
0.164415
0.168928
0.173057
0.176817
0.180225
0.183297
0.18605
0.188503
0.190672
0.192575
0.194229
0.19565
0.196855
0.19786
0.198678
0.199324
0.199812
0.200154
0.200364
0.200453
0.200432
0.200311
0.200102
0.199814
0.199456
0.199036
0.198565
0.198048
0.197494
0.196911
0.196303
0.195679
0.195042
0.194399
0.193754
0.193111
0.192473
0.191845
0.191228
0.190626
0.19004
0.189472
0.188921
0.188388
0.187874
0.187379
0.186902
0.186445
0.186008
0.18559
0.185192
0.184814
0.184454
0.184112
0.183788
0.18348
0.183189
0.182912
0.18265
0.182401
0.182165
0.181941
0.181728
0.181526
0.181333
0.181149
0.180974
0.180806
0.180645
0.18049
0.180342
0.180198
0.18006
0.179927
0.179797
0.179672
0.179551
0.179434
0.179321
0.179212
0.179108
0.17901
0.178918
0.178834
0.17876
0.178699
0.178653
0.178629
0.178633
0.178673
0.178764
0.178922
0.179176
0.179564
0.180144
0.18102
0.18229
0.184301
0.186666
-0.0646105
-0.0668346
-0.0690963
-0.0704929
-0.0714293
-0.0723372
-0.0734143
-0.0747473
-0.0763794
-0.0783279
-0.0805904
-0.0831496
-0.0859775
-0.089039
-0.0922948
-0.0957042
-0.0992266
-0.102823
-0.106455
-0.110088
-0.11369
-0.11723
-0.120682
-0.124019
-0.127218
-0.130259
-0.133122
-0.135788
-0.138241
-0.140464
-0.142442
-0.144158
-0.145597
-0.146744
-0.147582
-0.148095
-0.148265
-0.148077
-0.147512
-0.146552
-0.14518
-0.143381
-0.141143
-0.138451
-0.135291
-0.131649
-0.127513
-0.122874
-0.117725
-0.112063
-0.105891
-0.0992134
-0.0920424
-0.0843939
-0.0762895
-0.0677565
-0.0588274
-0.0495401
-0.0399371
-0.0300653
-0.0199749
-0.00971911
0.000647209
0.0110682
0.0214883
0.0318526
0.0421084
0.0522057
0.0620978
0.0717422
0.081101
0.0901407
0.0988333
0.107156
0.115089
0.12262
0.129742
0.136449
0.142739
0.148616
0.154081
0.159143
0.163812
0.1681
0.172022
0.175592
0.178827
0.181743
0.184357
0.186687
0.18875
0.190561
0.192138
0.193496
0.194651
0.195617
0.196408
0.197038
0.19752
0.197866
0.198088
0.198197
0.198204
0.198119
0.197952
0.197712
0.197407
0.197046
0.196636
0.196186
0.195702
0.195191
0.194658
0.194109
0.19355
0.192984
0.192415
0.191849
0.191286
0.190731
0.190186
0.189652
0.189131
0.188623
0.18813
0.187653
0.187191
0.186745
0.186316
0.185904
0.185509
0.18513
0.184768
0.184423
0.184093
0.183779
0.183479
0.183195
0.182923
0.182665
0.18242
0.182186
0.181964
0.181752
0.18155
0.181357
0.181173
0.180997
0.180828
0.180666
0.18051
0.18036
0.180216
0.180076
0.179941
0.179811
0.179684
0.179562
0.179444
0.179329
0.179219
0.179114
0.179015
0.178921
0.178836
0.178761
0.178698
0.178651
0.178624
0.178625
0.178661
0.178745
0.178895
0.179133
0.179494
0.180024
0.180801
0.181871
0.183424
0.184978
-0.0630121
-0.0657223
-0.0686577
-0.0707088
-0.072226
-0.0736486
-0.0751828
-0.0769191
-0.0789
-0.0811383
-0.0836275
-0.0863486
-0.089275
-0.0923764
-0.0956203
-0.0989738
-0.102405
-0.105882
-0.109376
-0.11286
-0.116306
-0.119692
-0.122994
-0.126191
-0.129264
-0.132195
-0.134965
-0.137557
-0.139956
-0.142146
-0.144111
-0.145834
-0.1473
-0.148493
-0.149396
-0.149991
-0.150261
-0.150187
-0.149752
-0.148937
-0.147723
-0.146092
-0.144029
-0.141517
-0.13854
-0.135081
-0.131128
-0.126669
-0.121696
-0.116204
-0.110193
-0.103667
-0.0966361
-0.0891144
-0.0811228
-0.0726878
-0.0638416
-0.054622
-0.0450718
-0.0352384
-0.0251729
-0.0149294
-0.00456381
0.00586697
0.0163061
0.0266978
0.0369885
0.0471271
0.0570664
0.0667633
0.0761792
0.0852805
0.0940385
0.102429
0.110434
0.11804
0.125239
0.132026
0.138399
0.144361
0.149917
0.155073
0.15984
0.164229
0.168255
0.171932
0.175276
0.178303
0.18103
0.183473
0.185649
0.187575
0.189266
0.190737
0.192005
0.193083
0.193985
0.194725
0.195316
0.195769
0.196096
0.196309
0.196417
0.196431
0.196361
0.196215
0.196003
0.195732
0.19541
0.195044
0.194641
0.194208
0.193751
0.193274
0.192783
0.192283
0.191777
0.191268
0.190761
0.190258
0.189761
0.189273
0.188793
0.188324
0.187867
0.187422
0.186991
0.186574
0.18617
0.185781
0.185406
0.185046
0.1847
0.184369
0.184052
0.183748
0.183458
0.183181
0.182916
0.182663
0.182422
0.182192
0.181972
0.181762
0.181562
0.18137
0.181186
0.18101
0.180842
0.180679
0.180523
0.180373
0.180228
0.180087
0.179952
0.17982
0.179693
0.179569
0.17945
0.179334
0.179223
0.179117
0.179016
0.178921
0.178834
0.178757
0.178691
0.178641
0.17861
0.178605
0.178634
0.178707
0.17884
0.179053
0.179374
0.179837
0.180492
0.181351
0.182496
0.183456
-0.0639747
-0.0668084
-0.0699906
-0.0724002
-0.074298
-0.0760777
-0.0779288
-0.0799358
-0.082139
-0.0845508
-0.0871647
-0.0899628
-0.0929214
-0.096014
-0.0992134
-0.102493
-0.105825
-0.109187
-0.112553
-0.115902
-0.119214
-0.122467
-0.125643
-0.128724
-0.131694
-0.134535
-0.137232
-0.139768
-0.142128
-0.144296
-0.146258
-0.147996
-0.149494
-0.150735
-0.151703
-0.152379
-0.152744
-0.152779
-0.152465
-0.151781
-0.150708
-0.149226
-0.147316
-0.144959
-0.142136
-0.138831
-0.135027
-0.130711
-0.125873
-0.120506
-0.114607
-0.10818
-0.101232
-0.0937766
-0.0858348
-0.0774324
-0.0686022
-0.0593826
-0.0498177
-0.0399563
-0.0298512
-0.0195585
-0.00913608
0.00135737
0.0118632
0.0223241
0.032685
0.042894
0.052903
0.0626682
0.072151
0.0813175
0.0901389
0.0985916
0.106658
0.114324
0.121584
0.128431
0.134866
0.14089
0.14651
0.151733
0.156569
0.161031
0.165132
0.168887
0.172311
0.175421
0.178232
0.180761
0.183024
0.185038
0.186818
0.18838
0.189738
0.190906
0.191898
0.192728
0.193408
0.193949
0.194364
0.194662
0.194856
0.194953
0.194964
0.194898
0.194764
0.194568
0.194319
0.194025
0.193691
0.193324
0.19293
0.192514
0.192082
0.191637
0.191184
0.190727
0.190267
0.189809
0.189354
0.188905
0.188462
0.188028
0.187603
0.187188
0.186784
0.186392
0.186012
0.185644
0.185289
0.184947
0.184616
0.184299
0.183994
0.183701
0.18342
0.183151
0.182894
0.182647
0.182411
0.182185
0.181969
0.181762
0.181563
0.181373
0.181191
0.181016
0.180848
0.180686
0.18053
0.18038
0.180235
0.180094
0.179958
0.179826
0.179698
0.179573
0.179453
0.179337
0.179224
0.179117
0.179014
0.178918
0.178828
0.178748
0.178679
0.178624
0.178587
0.178575
0.178593
0.178651
0.178762
0.178943
0.179214
0.179599
0.180125
0.180779
0.18158
0.182093
-0.0669597
-0.0696541
-0.0727622
-0.0752693
-0.077345
-0.0793125
-0.0813326
-0.083478
-0.0857845
-0.0882639
-0.0909112
-0.0937113
-0.0966438
-0.0996859
-0.102814
-0.106006
-0.10924
-0.112494
-0.11575
-0.118987
-0.122188
-0.125337
-0.128416
-0.13141
-0.134304
-0.137081
-0.139729
-0.14223
-0.144571
-0.146736
-0.148709
-0.150474
-0.152015
-0.153314
-0.154353
-0.155113
-0.155575
-0.155719
-0.155523
-0.154966
-0.154026
-0.152682
-0.150912
-0.148696
-0.146012
-0.14284
-0.139164
-0.134966
-0.130234
-0.12496
-0.119138
-0.112771
-0.105864
-0.0984305
-0.0904908
-0.0820715
-0.0732059
-0.0639343
-0.0543024
-0.0443616
-0.0341671
-0.0237777
-0.0132538
-0.00265684
0.00795235
0.0185144
0.0289727
0.0392741
0.0493697
0.0592153
0.0687721
0.0780059
0.0868887
0.0953982
0.103518
0.111235
0.118542
0.125436
0.131916
0.137986
0.143652
0.148923
0.153809
0.158323
0.162478
0.16629
0.169773
0.172944
0.17582
0.178415
0.180747
0.182831
0.184682
0.186317
0.187748
0.188991
0.190058
0.190963
0.191718
0.192334
0.192823
0.193195
0.193461
0.19363
0.193712
0.193714
0.193647
0.193516
0.193331
0.193098
0.192824
0.192514
0.192176
0.191813
0.191431
0.191035
0.190628
0.190214
0.189797
0.189378
0.18896
0.188546
0.188136
0.187733
0.187337
0.18695
0.186571
0.186203
0.185845
0.185497
0.18516
0.184834
0.184519
0.184216
0.183923
0.183641
0.18337
0.18311
0.18286
0.182619
0.182389
0.182168
0.181956
0.181752
0.181557
0.181369
0.181189
0.181016
0.180849
0.180688
0.180533
0.180383
0.180237
0.180097
0.179961
0.179828
0.1797
0.179575
0.179454
0.179336
0.179223
0.179114
0.17901
0.178911
0.178819
0.178735
0.178662
0.178602
0.178558
0.178535
0.17854
0.17858
0.178665
0.178809
0.179024
0.179325
0.179723
0.180186
0.180699
0.180868
-0.0711668
-0.0735771
-0.0764162
-0.0788314
-0.0809199
-0.0829318
-0.0849963
-0.0871725
-0.0894898
-0.0919587
-0.0945755
-0.0973274
-0.100197
-0.103164
-0.106209
-0.109311
-0.112451
-0.115611
-0.118773
-0.12192
-0.125036
-0.128107
-0.131117
-0.134051
-0.136896
-0.139637
-0.142261
-0.144752
-0.147096
-0.149278
-0.151282
-0.153092
-0.154691
-0.156061
-0.157183
-0.158038
-0.158604
-0.158862
-0.158788
-0.158359
-0.157552
-0.156344
-0.15471
-0.152627
-0.150073
-0.147025
-0.143462
-0.139366
-0.134722
-0.129518
-0.123749
-0.117413
-0.110515
-0.10307
-0.0950956
-0.0866206
-0.0776798
-0.0683153
-0.0585756
-0.048515
-0.0381919
-0.0276686
-0.0170088
-0.0062768
0.00446384
0.0151514
0.0257274
0.0361376
0.046332
0.0562659
0.0659004
0.0752027
0.0841459
0.0927089
0.100875
0.108634
0.115979
0.122907
0.12942
0.135522
0.14122
0.146523
0.151443
0.155993
0.160186
0.164038
0.167565
0.170782
0.173706
0.176352
0.178737
0.180877
0.182787
0.18448
0.185973
0.187278
0.188409
0.189377
0.190196
0.190877
0.19143
0.191866
0.192196
0.192427
0.19257
0.192633
0.192625
0.192552
0.192423
0.192244
0.192022
0.191763
0.191473
0.191157
0.19082
0.190466
0.1901
0.189725
0.189345
0.188961
0.188577
0.188194
0.187815
0.18744
0.18707
0.186708
0.186353
0.186007
0.185669
0.18534
0.185021
0.184711
0.184411
0.184121
0.183841
0.18357
0.183309
0.183057
0.182815
0.182582
0.182358
0.182142
0.181935
0.181735
0.181543
0.181359
0.181181
0.18101
0.180844
0.180685
0.180531
0.180381
0.180237
0.180097
0.17996
0.179828
0.179699
0.179574
0.179452
0.179334
0.17922
0.179109
0.179003
0.178902
0.178807
0.178719
0.178641
0.178574
0.178522
0.178488
0.178477
0.178496
0.178552
0.178655
0.178812
0.179028
0.179302
0.179592
0.179862
0.179767
-0.075886
-0.0779405
-0.0804036
-0.0826034
-0.0845877
-0.0865406
-0.0885601
-0.0906914
-0.0929572
-0.0953651
-0.0979117
-0.100586
-0.103372
-0.106253
-0.10921
-0.112226
-0.115282
-0.118361
-0.121447
-0.124525
-0.127581
-0.130599
-0.133566
-0.136468
-0.139291
-0.142023
-0.144649
-0.147155
-0.149526
-0.151748
-0.153805
-0.15568
-0.157355
-0.158813
-0.160034
-0.160996
-0.16168
-0.162061
-0.162117
-0.161823
-0.161153
-0.160083
-0.158586
-0.156636
-0.154209
-0.151278
-0.147822
-0.143817
-0.139248
-0.1341
-0.128364
-0.122038
-0.115127
-0.107643
-0.0996068
-0.0910468
-0.0820002
-0.0725117
-0.0626332
-0.0524225
-0.0419419
-0.0312576
-0.0204372
-0.00954844
0.00134238
0.0121709
0.0228764
0.0334032
0.043701
0.0537254
0.0634383
0.0728079
0.0818082
0.0904188
0.0986249
0.106417
0.113789
0.120742
0.127276
0.133397
0.139115
0.144438
0.149379
0.153952
0.158171
0.162051
0.165609
0.16886
0.17182
0.174506
0.176934
0.179119
0.181076
0.182819
0.184363
0.185721
0.186906
0.18793
0.188805
0.189542
0.190152
0.190645
0.19103
0.191318
0.191515
0.191632
0.191677
0.191655
0.191576
0.191446
0.191271
0.191057
0.19081
0.190536
0.190239
0.189924
0.189595
0.189255
0.188908
0.188556
0.188202
0.187848
0.187496
0.187147
0.186802
0.186463
0.18613
0.185804
0.185486
0.185175
0.184873
0.184579
0.184293
0.184017
0.183748
0.183489
0.183238
0.182996
0.182762
0.182536
0.182318
0.182108
0.181906
0.181711
0.181523
0.181342
0.181167
0.180998
0.180835
0.180678
0.180525
0.180377
0.180233
0.180094
0.179958
0.179826
0.179697
0.179571
0.179449
0.17933
0.179214
0.179102
0.178994
0.178891
0.178792
0.1787
0.178616
0.178542
0.17848
0.178433
0.178406
0.178402
0.178427
0.178487
0.178584
0.178716
0.178875
0.179009
0.179078
0.178777
-0.0805341
-0.0822056
-0.0842433
-0.0861548
-0.0879596
-0.0897855
-0.091702
-0.0937409
-0.0959176
-0.0982363
-0.100693
-0.103277
-0.105974
-0.108768
-0.111642
-0.11458
-0.117565
-0.120581
-0.123612
-0.126644
-0.129662
-0.132653
-0.135603
-0.1385
-0.141329
-0.144078
-0.146733
-0.149279
-0.151703
-0.153989
-0.156121
-0.158082
-0.159854
-0.161418
-0.162754
-0.16384
-0.164653
-0.165171
-0.165367
-0.165216
-0.16469
-0.163763
-0.162406
-0.160591
-0.15829
-0.155475
-0.15212
-0.148201
-0.143697
-0.138592
-0.132877
-0.126545
-0.119603
-0.112061
-0.103942
-0.0952743
-0.0860991
-0.0764641
-0.0664249
-0.0560434
-0.0453863
-0.0345243
-0.0235294
-0.0124728
-0.00142466
0.00954854
0.0203851
0.0310284
0.0414279
0.0515398
0.0613263
0.0707564
0.0798054
0.0884545
0.0966904
0.104505
0.111895
0.11886
0.125405
0.131536
0.137262
0.142595
0.147548
0.152133
0.156368
0.160267
0.163846
0.167121
0.17011
0.172827
0.175289
0.17751
0.179507
0.181292
0.18288
0.184284
0.185517
0.186589
0.187514
0.188302
0.188963
0.189506
0.189943
0.19028
0.190528
0.190694
0.190786
0.190812
0.190778
0.190692
0.190559
0.190387
0.19018
0.189944
0.189683
0.189403
0.189107
0.1888
0.188483
0.18816
0.187834
0.187507
0.18718
0.186855
0.186533
0.186216
0.185903
0.185597
0.185297
0.185004
0.184717
0.184439
0.184167
0.183904
0.183648
0.183399
0.183159
0.182926
0.1827
0.182482
0.182271
0.182068
0.181871
0.181681
0.181498
0.18132
0.181149
0.180983
0.180822
0.180667
0.180516
0.180369
0.180227
0.180088
0.179953
0.179821
0.179692
0.179567
0.179444
0.179324
0.179207
0.179094
0.178984
0.178877
0.178775
0.178679
0.178589
0.178506
0.178434
0.178374
0.178328
0.1783
0.178293
0.178309
0.178346
0.178399
0.17845
0.178448
0.178348
0.177886
-0.084645
-0.0859346
-0.0875353
-0.0891236
-0.0907067
-0.0923665
-0.0941473
-0.0960687
-0.0981388
-0.100358
-0.10272
-0.105214
-0.107828
-0.110545
-0.11335
-0.116226
-0.119159
-0.122132
-0.12513
-0.12814
-0.131146
-0.134136
-0.137097
-0.140015
-0.142877
-0.145669
-0.148379
-0.150991
-0.153492
-0.155865
-0.158094
-0.160162
-0.162049
-0.163737
-0.165205
-0.166428
-0.167385
-0.16805
-0.168396
-0.168396
-0.168021
-0.167242
-0.166028
-0.164349
-0.162174
-0.159473
-0.156216
-0.152376
-0.14793
-0.142859
-0.137152
-0.130803
-0.123814
-0.116199
-0.10798
-0.0991897
-0.0898707
-0.0800748
-0.0698622
-0.0592995
-0.0484592
-0.0374163
-0.026246
-0.0150234
-0.00382139
0.00729155
0.0182524
0.0290038
0.0394951
0.0496828
0.0595302
0.0690078
0.0780922
0.0867666
0.0950196
0.102845
0.11024
0.117207
0.123752
0.129882
0.135607
0.14094
0.145895
0.150485
0.154727
0.158637
0.16223
0.165523
0.168533
0.171274
0.173764
0.176017
0.178047
0.179868
0.181495
0.18294
0.184215
0.185332
0.186301
0.187135
0.187842
0.188432
0.188915
0.189299
0.189593
0.189804
0.18994
0.190009
0.190017
0.189972
0.189879
0.189744
0.189574
0.189373
0.189147
0.188899
0.188634
0.188355
0.188067
0.187771
0.187471
0.187168
0.186865
0.186562
0.186262
0.185965
0.185673
0.185385
0.185102
0.184826
0.184555
0.184291
0.184034
0.183783
0.183539
0.183302
0.183072
0.182848
0.182632
0.182422
0.182218
0.182021
0.18183
0.181646
0.181467
0.181294
0.181126
0.180963
0.180805
0.180652
0.180503
0.180358
0.180217
0.18008
0.179946
0.179814
0.179686
0.17956
0.179437
0.179317
0.179199
0.179084
0.178971
0.178862
0.178756
0.178655
0.178558
0.178468
0.178384
0.17831
0.178246
0.178193
0.178153
0.178125
0.178105
0.178082
0.178035
0.177913
0.177671
0.177083
-0.0878617
-0.0887906
-0.0899688
-0.0912257
-0.0925698
-0.0940467
-0.0956792
-0.0974756
-0.0994371
-0.10156
-0.103836
-0.106253
-0.108798
-0.111456
-0.114211
-0.117048
-0.119952
-0.122907
-0.125898
-0.128911
-0.131933
-0.134949
-0.137947
-0.140912
-0.143833
-0.146694
-0.149483
-0.152185
-0.154784
-0.157265
-0.159611
-0.161804
-0.163824
-0.165651
-0.167263
-0.168637
-0.169747
-0.170568
-0.171071
-0.171227
-0.171006
-0.170377
-0.169307
-0.167763
-0.165712
-0.163119
-0.159953
-0.156184
-0.151786
-0.146739
-0.141029
-0.134648
-0.127601
-0.119901
-0.111573
-0.102651
-0.0931823
-0.0832223
-0.0728359
-0.0620948
-0.051076
-0.0398588
-0.0285228
-0.0171464
-0.00580488
0.00543134
0.0164981
0.0273379
0.0379008
0.048144
0.0580324
0.067538
0.0766396
0.085322
0.0935756
0.101396
0.108783
0.115739
0.122272
0.128391
0.134106
0.139431
0.14438
0.148968
0.153211
0.157125
0.160727
0.164033
0.167058
0.16982
0.172332
0.174611
0.176671
0.178524
0.180186
0.181667
0.182981
0.184138
0.185149
0.186025
0.186775
0.187409
0.187935
0.188362
0.188699
0.188952
0.18913
0.189239
0.189287
0.189279
0.189223
0.189124
0.188988
0.18882
0.188625
0.188407
0.188171
0.18792
0.187658
0.187388
0.187112
0.186832
0.186551
0.18627
0.18599
0.185712
0.185438
0.185168
0.184903
0.184643
0.184387
0.184138
0.183894
0.183656
0.183424
0.183199
0.182979
0.182765
0.182557
0.182355
0.182159
0.181969
0.181784
0.181605
0.181431
0.181263
0.181099
0.18094
0.180785
0.180635
0.180488
0.180345
0.180206
0.18007
0.179936
0.179806
0.179678
0.179552
0.179429
0.179308
0.179189
0.179072
0.178958
0.178845
0.178736
0.178629
0.178526
0.178427
0.178332
0.178243
0.17816
0.178082
0.17801
0.177939
0.177864
0.17777
0.177635
0.177408
0.177048
0.176359
-0.0898914
-0.0905333
-0.0913228
-0.0922587
-0.0933636
-0.0946565
-0.0961423
-0.0978193
-0.0996822
-0.101723
-0.10393
-0.10629
-0.10879
-0.111414
-0.114146
-0.116971
-0.119874
-0.122838
-0.12585
-0.128895
-0.131959
-0.135029
-0.138089
-0.141128
-0.144131
-0.147085
-0.149975
-0.152787
-0.155504
-0.15811
-0.160588
-0.16292
-0.165084
-0.167061
-0.168826
-0.170357
-0.171625
-0.172605
-0.173266
-0.173579
-0.17351
-0.173028
-0.172097
-0.170682
-0.168745
-0.166251
-0.163165
-0.159455
-0.155093
-0.150057
-0.144331
-0.137909
-0.130794
-0.123002
-0.114559
-0.105504
-0.095886
-0.0857666
-0.075215
-0.064308
-0.053127
-0.0417557
-0.0302774
-0.0187735
-0.00732098
0.00400869
0.015151
0.026049
0.0366536
0.0469236
0.0568258
0.0663341
0.0754292
0.084098
0.0923328
0.100131
0.107494
0.114426
0.120935
0.127032
0.132727
0.138036
0.142972
0.147552
0.15179
0.155704
0.15931
0.162624
0.165662
0.168439
0.170971
0.173274
0.175359
0.177242
0.178935
0.180451
0.1818
0.182995
0.184045
0.18496
0.185751
0.186425
0.186993
0.187461
0.187837
0.18813
0.188347
0.188495
0.188579
0.188608
0.188587
0.188521
0.188417
0.18828
0.188114
0.187925
0.187716
0.187491
0.187254
0.187008
0.186755
0.186497
0.186237
0.185976
0.185716
0.185457
0.185201
0.184948
0.184699
0.184454
0.184214
0.183979
0.183749
0.183524
0.183304
0.183089
0.18288
0.182676
0.182477
0.182283
0.182095
0.181912
0.181734
0.18156
0.181392
0.181228
0.181069
0.180913
0.180762
0.180614
0.18047
0.18033
0.180192
0.180058
0.179926
0.179796
0.179669
0.179543
0.17942
0.179298
0.179178
0.17906
0.178943
0.178828
0.178714
0.178602
0.178492
0.178384
0.178279
0.178175
0.178072
0.17797
0.177866
0.177754
0.177627
0.177468
0.177253
0.176935
0.176476
0.175706
-0.0905605
-0.09099
-0.0914376
-0.0920843
-0.0929693
-0.0940932
-0.0954472
-0.0970218
-0.0988061
-0.100787
-0.102951
-0.105283
-0.107766
-0.110386
-0.113125
-0.115969
-0.118901
-0.121905
-0.124967
-0.128072
-0.131205
-0.134353
-0.137502
-0.140637
-0.143744
-0.14681
-0.149819
-0.152756
-0.155605
-0.158348
-0.160969
-0.163447
-0.165761
-0.167891
-0.169811
-0.171497
-0.172922
-0.174056
-0.17487
-0.175331
-0.175406
-0.17506
-0.174256
-0.172955
-0.171117
-0.168705
-0.165681
-0.162011
-0.157667
-0.152625
-0.146869
-0.140393
-0.133202
-0.125314
-0.116756
-0.107572
-0.0978168
-0.0875544
-0.0768596
-0.0658136
-0.0545022
-0.0430124
-0.0314305
-0.0198397
-0.00831818
0.00306265
0.0142388
0.0251544
0.035762
0.0460226
0.0559048
0.0653848
0.0744454
0.0830755
0.0912694
0.0990258
0.106347
0.11324
0.119713
0.125777
0.131444
0.136729
0.141646
0.146212
0.150441
0.15435
0.157957
0.161276
0.164323
0.167114
0.169664
0.171987
0.174097
0.176007
0.17773
0.179277
0.180661
0.181891
0.182978
0.183931
0.18476
0.185473
0.186079
0.186586
0.187001
0.187332
0.187587
0.18777
0.18789
0.187953
0.187965
0.187932
0.187858
0.187751
0.187613
0.187451
0.187268
0.187068
0.186855
0.186631
0.1864
0.186163
0.185923
0.185682
0.18544
0.185199
0.184961
0.184725
0.184492
0.184262
0.184037
0.183815
0.183598
0.183386
0.183178
0.182974
0.182776
0.182581
0.182392
0.182207
0.182026