/*--------------------------------*- C++ -*----------------------------------*\
  =========                 |
  \\      /  F ield         | OpenFOAM: The Open Source CFD Toolbox
   \\    /   O peration     | Website:  https://openfoam.org
    \\  /    A nd           | Version:  6
     \\/     M anipulation  |
\*---------------------------------------------------------------------------*/
FoamFile
{
    version     2.0;
    format      ascii;
    class       surfaceScalarField;
    location    "0.15";
    object      phi;
}
// * * * * * * * * * * * * * * * * * * * * * * * * * * * * * * * * * * * * * //

dimensions      [0 3 -1 0 0 0 0];

internalField   nonuniform List<scalar> 
24170
(
3.2567e-07
-6.82963e-09
3.19414e-07
6.25658e-09
3.15805e-07
3.60832e-09
3.08715e-07
7.0906e-09
3.01746e-07
6.96882e-09
2.96736e-07
5.01031e-09
2.9341e-07
3.32575e-09
2.91056e-07
2.35361e-09
2.89229e-07
1.82725e-09
2.87725e-07
1.50358e-09
2.86441e-07
1.28414e-09
2.8531e-07
1.13137e-09
2.84288e-07
1.02195e-09
2.83345e-07
9.42652e-10
2.82474e-07
8.71332e-10
2.81645e-07
8.29204e-10
2.81113e-07
5.314e-10
5.0677e-10
2.80607e-07
3.50378e-07
-1.54824e-08
3.47812e-07
8.8226e-09
3.44057e-07
7.36332e-09
3.42195e-07
8.95209e-09
3.40008e-07
9.15566e-09
3.37508e-07
7.51029e-09
3.35153e-07
5.68137e-09
3.33141e-07
4.36554e-09
3.3147e-07
3.49799e-09
3.30072e-07
2.90126e-09
3.28879e-07
2.47703e-09
3.27838e-07
2.17273e-09
3.26909e-07
1.95106e-09
3.26061e-07
1.79058e-09
3.25273e-07
1.65894e-09
3.24514e-07
1.58818e-09
3.23737e-07
1.30873e-09
1.30235e-09
3.22942e-07
3.63433e-07
-1.26641e-08
3.6655e-07
5.70574e-09
3.66696e-07
7.21797e-09
3.66845e-07
8.80265e-09
3.66447e-07
9.554e-09
3.65424e-07
8.53315e-09
3.64101e-07
7.00405e-09
3.62751e-07
5.71544e-09
3.61502e-07
4.74754e-09
3.60382e-07
4.02068e-09
3.59383e-07
3.47607e-09
3.58485e-07
3.07152e-09
3.57665e-07
2.77091e-09
3.56904e-07
2.55112e-09
3.56181e-07
2.38216e-09
3.55488e-07
2.28136e-09
3.54706e-07
2.0903e-09
2.12556e-09
3.53883e-07
3.89235e-07
-9.36022e-09
3.91443e-07
3.49736e-09
3.92359e-07
6.30189e-09
3.93e-07
8.16252e-09
3.93243e-07
9.3105e-09
3.92945e-07
8.83074e-09
3.92265e-07
7.68482e-09
3.9141e-07
6.5697e-09
3.9052e-07
5.63781e-09
3.89657e-07
4.88356e-09
3.88844e-07
4.2894e-09
3.88083e-07
3.83233e-09
3.87368e-07
3.48572e-09
3.86689e-07
3.23033e-09
3.86028e-07
3.04328e-09
3.85374e-07
2.93491e-09
3.84636e-07
2.82824e-09
2.91331e-09
3.83849e-07
4.18266e-07
-6.91398e-09
4.19396e-07
2.36775e-09
4.20262e-07
5.43577e-09
4.20998e-07
7.42683e-09
4.21523e-07
8.78493e-09
4.21638e-07
8.71581e-09
4.21388e-07
7.93562e-09
4.20912e-07
7.04487e-09
4.20328e-07
6.22229e-09
4.19702e-07
5.50929e-09
4.19071e-07
4.92031e-09
4.18452e-07
4.45177e-09
4.17848e-07
4.08951e-09
4.17257e-07
3.82141e-09
4.16667e-07
3.63339e-09
4.16067e-07
3.53451e-09
4.154e-07
3.49552e-09
3.63362e-09
4.1468e-07
4.49032e-07
-5.03697e-09
4.49587e-07
1.81288e-09
4.50304e-07
4.71871e-09
4.51035e-07
6.69549e-09
4.51691e-07
8.12916e-09
4.52051e-07
8.3559e-09
4.52095e-07
7.89176e-09
4.51909e-07
7.22997e-09
4.51581e-07
6.55034e-09
4.5117e-07
5.92026e-09
4.50715e-07
5.37538e-09
4.50239e-07
4.92793e-09
4.49753e-07
4.57587e-09
4.49259e-07
4.31513e-09
4.48752e-07
4.14023e-09
4.48226e-07
4.06108e-09
4.47647e-07
4.0742e-09
4.25264e-09
4.47028e-07
4.81754e-07
-3.51904e-09
4.82034e-07
1.53272e-09
4.82611e-07
4.14171e-09
4.83295e-07
6.0121e-09
4.83994e-07
7.42943e-09
4.84495e-07
7.85558e-09
4.84739e-07
7.64729e-09
4.84774e-07
7.19546e-09
4.84657e-07
6.66733e-09
4.84435e-07
6.14149e-09
4.84145e-07
5.66546e-09
4.83811e-07
5.26257e-09
4.83446e-07
4.94076e-09
4.83058e-07
4.70329e-09
4.82646e-07
4.55179e-09
4.8221e-07
4.49731e-09
4.81736e-07
4.54816e-09
4.74805e-09
4.8124e-07
5.16745e-07
-2.30633e-09
5.16875e-07
1.40344e-09
5.17329e-07
3.68752e-09
5.17943e-07
5.39827e-09
5.18635e-07
6.73747e-09
5.19207e-07
7.28324e-09
5.19584e-07
7.26988e-09
5.19782e-07
6.99762e-09
5.19836e-07
6.61399e-09
5.19778e-07
6.1989e-09
5.19639e-07
5.8046e-09
5.19441e-07
5.46102e-09
5.19198e-07
5.18315e-09
5.18922e-07
4.97996e-09
5.18615e-07
4.85809e-09
5.18283e-07
4.82902e-09
5.17927e-07
4.90444e-09
5.10808e-09
5.17567e-07
5.54205e-07
-1.3781e-09
5.54245e-07
1.36387e-09
5.546e-07
3.33242e-09
5.55141e-07
4.8579e-09
5.55797e-07
6.08093e-09
5.56397e-07
6.683e-09
5.56859e-07
6.80847e-09
5.57175e-07
6.6811e-09
5.57363e-07
6.42587e-09
5.57445e-07
6.11775e-09
5.5744e-07
5.80868e-09
5.5737e-07
5.53133e-09
5.57248e-07
5.3049e-09
5.57086e-07
5.14194e-09
5.56892e-07
5.05201e-09
5.56676e-07
5.04598e-09
5.56446e-07
5.13445e-09
5.32785e-09
5.56226e-07
5.94301e-07
-7.01368e-10
5.94297e-07
1.3676e-09
5.94581e-07
3.04812e-09
5.95056e-07
4.3831e-09
5.95666e-07
5.47085e-09
5.96268e-07
6.08174e-09
5.96778e-07
6.29761e-09
5.97179e-07
6.28057e-09
5.97472e-07
6.13296e-09
5.97668e-07
5.92133e-09
5.97783e-07
5.69396e-09
5.97831e-07
5.48331e-09
5.97826e-07
5.31021e-09
5.97779e-07
5.18884e-09
5.97701e-07
5.12972e-09
5.97605e-07
5.14228e-09
5.97505e-07
5.23415e-09
5.40738e-09
5.97426e-07
6.37216e-07
-2.3568e-10
6.37203e-07
1.3801e-09
6.37445e-07
2.8058e-09
6.37869e-07
3.95921e-09
6.38433e-07
4.90747e-09
6.39021e-07
5.4936e-09
6.39558e-07
5.76023e-09
6.40017e-07
5.82177e-09
6.4039e-07
5.7595e-09
6.40682e-07
5.62999e-09
6.409e-07
5.47592e-09
6.41056e-07
5.32749e-09
6.41161e-07
5.20508e-09
6.41227e-07
5.1228e-09
6.41266e-07
5.09072e-09
6.41292e-07
5.11629e-09
6.41322e-07
5.20385e-09
5.35059e-09
6.41379e-07
5.73823e-07
2.49168e-11
5.7382e-07
1.38266e-09
5.74013e-07
2.61356e-09
5.74346e-07
3.62621e-09
5.74791e-07
4.46229e-09
5.75274e-07
5.01029e-09
5.75738e-07
5.29594e-09
5.76157e-07
5.4029e-09
5.76521e-07
5.39607e-09
5.76827e-07
5.32358e-09
5.7708e-07
5.22276e-09
5.77287e-07
5.12079e-09
5.77455e-07
5.0366e-09
5.77595e-07
4.98329e-09
5.77716e-07
4.96981e-09
5.7783e-07
5.00179e-09
5.77953e-07
5.08131e-09
5.20274e-09
5.78101e-07
6.99628e-07
2.12423e-10
6.99662e-07
1.34864e-09
6.99879e-07
2.39641e-09
7.00242e-07
3.26299e-09
7.00727e-07
3.97759e-09
7.01266e-07
4.47157e-09
7.01803e-07
4.75853e-09
7.0231e-07
4.89661e-09
7.0277e-07
4.93554e-09
7.0318e-07
4.91406e-09
7.03539e-07
4.86307e-09
7.03854e-07
4.8057e-09
7.04133e-07
4.75831e-09
7.04384e-07
4.73216e-09
7.04619e-07
4.73441e-09
7.04852e-07
4.76875e-09
7.05098e-07
4.8351e-09
4.92656e-09
7.05375e-07
8.5298e-07
3.17056e-10
8.53067e-07
1.2617e-09
8.53329e-07
2.13454e-09
8.53736e-07
2.85562e-09
8.54268e-07
3.44552e-09
8.54868e-07
3.87177e-09
8.55485e-07
4.14182e-09
8.56087e-07
4.29412e-09
8.56658e-07
4.36507e-09
8.57188e-07
4.3841e-09
8.57676e-07
4.37508e-09
8.58125e-07
4.35621e-09
8.58543e-07
4.34047e-09
8.58939e-07
4.3365e-09
8.59324e-07
4.34933e-09
8.59712e-07
4.38073e-09
8.60118e-07
4.42908e-09
4.48744e-09
8.60557e-07
1.0399e-06
3.39944e-10
1.04005e-06
1.10736e-09
1.04038e-06
1.80587e-09
1.04086e-06
2.38208e-09
1.04145e-06
2.84839e-09
1.04213e-06
3.19653e-09
1.04284e-06
3.4329e-09
1.04355e-06
3.58195e-09
1.04425e-06
3.66885e-09
1.04491e-06
3.71444e-09
1.04555e-06
3.73564e-09
1.04617e-06
3.74536e-09
1.04675e-06
3.75267e-09
1.04733e-06
3.7633e-09
1.0479e-06
3.78005e-09
1.04847e-06
3.80313e-09
1.04907e-06
3.83016e-09
3.85496e-09
1.0497e-06
1.26773e-06
2.9376e-10
1.26796e-06
8.74645e-10
1.26837e-06
1.39055e-09
1.26894e-06
1.81594e-09
1.26963e-06
2.15786e-09
1.27041e-06
2.41946e-09
1.27123e-06
2.60755e-09
1.27208e-06
2.73698e-09
1.27292e-06
2.82361e-09
1.27376e-06
2.88068e-09
1.27457e-06
2.91864e-09
1.27537e-06
2.94524e-09
1.27616e-06
2.96568e-09
1.27694e-06
2.98282e-09
1.27772e-06
2.99752e-09
1.27852e-06
3.00896e-09
1.27933e-06
3.01464e-09
3.00965e-09
1.28018e-06
1.54542e-06
1.95729e-10
1.54573e-06
5.59686e-10
1.54625e-06
8.72936e-10
1.54693e-06
1.1303e-09
1.54775e-06
1.3381e-09
1.54867e-06
1.50208e-09
1.54965e-06
1.6277e-09
1.55067e-06
1.72263e-09
1.55169e-06
1.79463e-09
1.55273e-06
1.8499e-09
1.55375e-06
1.89295e-09
1.55477e-06
1.92677e-09
1.55578e-06
1.95295e-09
1.55679e-06
1.97187e-09
1.55781e-06
1.98288e-09
1.55883e-06
1.98457e-09
1.55987e-06
1.97474e-09
1.94983e-09
1.56093e-06
1.8839e-06
6.1148e-11
1.88429e-06
1.65457e-10
1.88492e-06
2.40995e-10
1.88576e-06
2.98501e-10
1.88675e-06
3.48579e-10
1.88785e-06
3.95733e-10
1.88904e-06
4.41876e-10
1.89027e-06
4.88056e-10
1.89153e-06
5.34157e-10
1.8928e-06
5.79151e-10
1.89408e-06
6.21599e-10
1.89534e-06
6.59854e-10
1.8966e-06
6.92115e-10
1.89786e-06
7.16479e-10
1.89911e-06
7.31032e-10
1.90036e-06
7.33923e-10
1.90161e-06
7.23272e-10
6.966e-10
1.90287e-06
2.29648e-06
-9.00581e-11
2.29694e-06
-2.87985e-10
2.29769e-06
-5.09155e-10
2.29869e-06
-7.06669e-10
2.2999e-06
-8.58537e-10
2.30126e-06
-9.62923e-10
2.30272e-06
-1.02094e-09
2.30425e-06
-1.03814e-09
2.30581e-06
-1.02419e-09
2.30738e-06
-9.89057e-10
2.30894e-06
-9.41274e-10
2.31049e-06
-8.879e-10
2.31201e-06
-8.34715e-10
2.31352e-06
-7.86312e-10
2.31499e-06
-7.46221e-10
2.31644e-06
-7.17071e-10
2.31787e-06
-7.00838e-10
-6.99541e-10
2.31926e-06
1.68112e-06
-1.40466e-10
1.68137e-06
-5.37205e-10
1.68187e-06
-1.01174e-09
1.68259e-06
-1.42862e-09
1.68349e-06
-1.75671e-09
1.68452e-06
-1.99493e-09
1.68564e-06
-2.14023e-09
1.68681e-06
-2.20373e-09
1.68799e-06
-2.20588e-09
1.68917e-06
-2.16571e-09
1.69033e-06
-2.09842e-09
1.69145e-06
-2.01621e-09
1.69255e-06
-1.92862e-09
1.6936e-06
-1.84279e-09
1.69462e-06
-1.76382e-09
1.6956e-06
-1.69524e-09
1.69654e-06
-1.63939e-09
-1.59829e-09
1.69744e-06
1.46336e-06
-4.21372e-11
1.46343e-06
-6.09516e-10
1.46381e-06
-1.38687e-09
1.46443e-06
-2.05009e-09
1.46525e-06
-2.58148e-09
1.46623e-06
-2.97157e-09
1.46729e-06
-3.20241e-09
1.46838e-06
-3.29739e-09
1.46947e-06
-3.29558e-09
1.47054e-06
-3.2286e-09
1.47156e-06
-3.12021e-09
1.47253e-06
-2.98897e-09
1.47345e-06
-2.84887e-09
1.47432e-06
-2.70975e-09
1.47513e-06
-2.57825e-09
1.4759e-06
-2.45864e-09
1.47661e-06
-2.35351e-09
-2.26473e-09
1.47728e-06
1.27363e-06
3.44194e-10
1.27348e-06
-4.65048e-10
1.27376e-06
-1.66461e-09
1.27433e-06
-2.62282e-09
1.27516e-06
-3.40489e-09
1.27615e-06
-3.96558e-09
1.27721e-06
-4.26361e-09
1.27827e-06
-4.3556e-09
1.27929e-06
-4.31294e-09
1.28024e-06
-4.18443e-09
1.28113e-06
-4.00449e-09
1.28194e-06
-3.7993e-09
1.28268e-06
-3.58728e-09
1.28335e-06
-3.3804e-09
1.28395e-06
-3.18607e-09
1.2845e-06
-3.00859e-09
1.285e-06
-2.85013e-09
-2.71191e-09
1.28545e-06
1.10824e-06
1.19343e-09
1.10788e-06
-1.02016e-10
1.10813e-06
-1.91821e-09
1.10875e-06
-3.23393e-09
1.10966e-06
-4.32067e-09
1.11074e-06
-5.04514e-09
1.11183e-06
-5.35448e-09
1.11286e-06
-5.37917e-09
1.11378e-06
-5.23899e-09
1.1146e-06
-5.00265e-09
1.11531e-06
-4.71605e-09
1.11592e-06
-4.41241e-09
1.11645e-06
-4.11299e-09
1.1169e-06
-3.8299e-09
1.11728e-06
-3.56953e-09
1.11761e-06
-3.33479e-09
1.11789e-06
-3.12632e-09
-2.94389e-09
1.11812e-06
9.64044e-07
2.6713e-09
9.63526e-07
4.15695e-10
9.63866e-07
-2.25841e-09
9.64622e-07
-3.9902e-09
9.65718e-07
-5.41626e-09
9.66914e-07
-6.24083e-09
9.68013e-07
-6.45371e-09
9.6895e-07
-6.31627e-09
9.69719e-07
-6.00778e-09
9.70331e-07
-5.61461e-09
9.70806e-07
-5.19122e-09
9.71168e-07
-4.77412e-09
9.71438e-07
-4.38318e-09
9.71635e-07
-4.02704e-09
9.71774e-07
-3.70838e-09
9.71866e-07
-3.42685e-09
9.7192e-07
-3.18024e-09
-2.96611e-09
9.71942e-07
8.3814e-07
5.06612e-09
8.37738e-07
8.18341e-10
8.38347e-07
-2.86745e-09
8.39355e-07
-4.99826e-09
8.40671e-07
-6.73271e-09
8.4194e-07
-7.5098e-09
8.42954e-07
-7.46765e-09
8.43693e-07
-7.05504e-09
8.44194e-07
-6.50882e-09
8.44502e-07
-5.92296e-09
8.44663e-07
-5.35156e-09
8.44715e-07
-4.8261e-09
8.4469e-07
-4.3582e-09
8.44611e-07
-3.94824e-09
8.44495e-07
-3.59226e-09
8.44353e-07
-3.2849e-09
8.44193e-07
-3.02027e-09
-2.79311e-09
8.4402e-07
7.27631e-07
9.16338e-09
7.28109e-07
3.404e-10
7.29295e-07
-4.05335e-09
7.30657e-07
-6.36065e-09
7.32161e-07
-8.23591e-09
7.33362e-07
-8.7112e-09
7.34113e-07
-8.21875e-09
7.34481e-07
-7.42336e-09
7.34569e-07
-6.5963e-09
7.34463e-07
-5.81701e-09
7.34233e-07
-5.1213e-09
7.33929e-07
-4.52242e-09
7.33586e-07
-4.01556e-09
7.33227e-07
-3.58848e-09
7.32863e-07
-3.2286e-09
7.32503e-07
-2.92507e-09
7.32151e-07
-2.66851e-09
-2.45086e-09
7.31809e-07
6.30217e-07
1.5953e-08
6.3274e-07
-2.18273e-09
6.34713e-07
-6.02596e-09
6.3648e-07
-8.12746e-09
6.38028e-07
-9.78443e-09
6.38897e-07
-9.58038e-09
6.39109e-07
-8.43053e-09
6.38874e-07
-7.18839e-09
6.38379e-07
-6.10141e-09
6.37753e-07
-5.19064e-09
6.37076e-07
-4.44456e-09
6.36397e-07
-3.84295e-09
6.3574e-07
-3.35866e-09
6.35117e-07
-2.96572e-09
6.34532e-07
-2.64389e-09
6.33986e-07
-2.37852e-09
6.33476e-07
-2.15841e-09
-1.9735e-09
6.32998e-07
5.4719e-07
2.3309e-08
5.51818e-07
-6.81052e-09
5.53509e-07
-7.71626e-09
5.552e-07
-9.81921e-09
5.56279e-07
-1.08626e-08
5.56277e-07
-9.57887e-09
5.55501e-07
-7.655e-09
5.54353e-07
-6.0394e-09
5.53094e-07
-4.84321e-09
5.51863e-07
-3.95917e-09
5.50716e-07
-3.29771e-09
5.49672e-07
-2.79863e-09
5.48729e-07
-2.41606e-09
5.4788e-07
-2.11618e-09
5.47112e-07
-1.87658e-09
5.46417e-07
-1.68367e-09
5.45787e-07
-1.52807e-09
-1.40112e-09
5.45215e-07
4.91614e-07
1.44555e-08
4.90696e-07
-5.89231e-09
4.87253e-07
-4.27322e-09
4.8628e-07
-8.84616e-09
4.8482e-07
-9.40292e-09
4.8246e-07
-7.21868e-09
4.7979e-07
-4.98525e-09
4.77261e-07
-3.50984e-09
4.75042e-07
-2.6246e-09
4.73148e-07
-2.06558e-09
4.71538e-07
-1.68764e-09
4.70161e-07
-1.42126e-09
4.68971e-07
-1.22606e-09
4.67932e-07
-1.07677e-09
4.67014e-07
-9.59285e-10
4.66199e-07
-8.68332e-10
4.65476e-07
-8.05498e-10
-8.16574e-10
4.64892e-07
4.34723e-07
4.28831e-07
4.24558e-07
4.15711e-07
4.06309e-07
3.9909e-07
3.94105e-07
3.90595e-07
3.8797e-07
3.85905e-07
3.84217e-07
3.82796e-07
3.8157e-07
3.80493e-07
3.79534e-07
3.78665e-07
3.7786e-07
3.77043e-07
1.84435e-08
-1.84435e-08
2.9535e-08
-1.10915e-08
3.17928e-08
-2.25786e-09
2.6337e-08
5.45585e-09
1.57357e-08
1.06013e-08
2.52489e-09
1.32108e-08
-1.20732e-08
1.45981e-08
-2.79306e-08
1.58574e-08
-4.51269e-08
1.71962e-08
-6.37234e-08
1.85965e-08
-8.36848e-08
1.99614e-08
-1.04876e-07
2.11911e-08
-1.27084e-07
2.22077e-08
-1.50044e-07
2.29605e-08
-1.73469e-07
2.34252e-08
-1.9707e-07
2.36002e-08
-2.20571e-07
2.35013e-08
-2.43728e-07
2.31569e-08
-2.66331e-07
2.26027e-08
-2.88208e-07
2.18777e-08
-3.09229e-07
2.10205e-08
-3.29296e-07
2.00673e-08
-3.48346e-07
1.905e-08
-3.66341e-07
1.79953e-08
-3.83266e-07
1.69245e-08
-3.9912e-07
1.58538e-08
-4.13914e-07
1.47945e-08
-4.27668e-07
1.37535e-08
-4.40402e-07
1.27345e-08
-4.5214e-07
1.1738e-08
-4.62903e-07
1.07625e-08
-4.72707e-07
9.80459e-09
-4.81567e-07
8.85984e-09
-4.8949e-07
7.92285e-09
-4.96478e-07
6.98784e-09
-5.02527e-07
6.04894e-09
-5.07627e-07
5.10064e-09
-5.11765e-07
4.13756e-09
-5.14919e-07
3.1543e-09
-5.17068e-07
2.14912e-09
-5.18199e-07
1.13119e-09
-5.18327e-07
1.27749e-10
-5.1751e-07
-8.16998e-10
-5.15806e-07
-1.70466e-09
-5.1323e-07
-2.57601e-09
-5.0978e-07
-3.44998e-09
-5.05445e-07
-4.33491e-09
-5.00211e-07
-5.23386e-09
-4.94064e-07
-6.14701e-09
-4.86991e-07
-7.0728e-09
-4.78982e-07
-8.00848e-09
-4.70032e-07
-8.9504e-09
-4.60138e-07
-9.89418e-09
-4.49303e-07
-1.08349e-08
-4.37536e-07
-1.1767e-08
-4.24851e-07
-1.26846e-08
-4.1127e-07
-1.35818e-08
-3.96817e-07
-1.44523e-08
-3.81527e-07
-1.52899e-08
-3.65439e-07
-1.60885e-08
-3.48596e-07
-1.68425e-08
-3.3105e-07
-1.75465e-08
-3.12854e-07
-1.81958e-08
-2.94068e-07
-1.87862e-08
-2.74753e-07
-1.93145e-08
-2.54975e-07
-1.97781e-08
-2.348e-07
-2.01753e-08
-2.14295e-07
-2.05051e-08
-1.93527e-07
-2.07675e-08
-1.72564e-07
-2.09629e-08
-1.51472e-07
-2.10926e-08
-1.30314e-07
-2.11579e-08
-1.09154e-07
-2.11602e-08
-8.80532e-08
-2.11005e-08
-6.70752e-08
-2.0978e-08
-4.6285e-08
-2.07902e-08
-2.57482e-08
-2.05368e-08
-5.4915e-09
-2.02567e-08
1.45009e-08
-1.99924e-08
3.42053e-08
-1.97045e-08
5.35727e-08
-1.93673e-08
7.25737e-08
-1.9001e-08
9.1187e-08
-1.86133e-08
1.09396e-07
-1.82091e-08
1.27188e-07
-1.77919e-08
1.44552e-07
-1.73644e-08
1.61481e-07
-1.69291e-08
1.77969e-07
-1.64878e-08
1.94012e-07
-1.60422e-08
2.09605e-07
-1.55938e-08
2.24749e-07
-1.51434e-08
2.39441e-07
-1.46918e-08
2.5368e-07
-1.42396e-08
2.67467e-07
-1.37868e-08
2.80801e-07
-1.33336e-08
2.9368e-07
-1.28796e-08
3.06105e-07
-1.24246e-08
3.18073e-07
-1.19681e-08
3.29582e-07
-1.15094e-08
3.4063e-07
-1.10482e-08
3.51214e-07
-1.05836e-08
3.61329e-07
-1.01154e-08
3.70972e-07
-9.64296e-09
3.80139e-07
-9.16613e-09
3.88823e-07
-8.68482e-09
3.97023e-07
-8.19915e-09
4.04732e-07
-7.70952e-09
4.11949e-07
-7.21661e-09
4.1867e-07
-6.72137e-09
4.24895e-07
-6.22508e-09
4.30624e-07
-5.72931e-09
4.3586e-07
-5.2359e-09
4.40607e-07
-4.74696e-09
4.44872e-07
-4.26479e-09
4.48664e-07
-3.79185e-09
4.51995e-07
-3.33067e-09
4.54878e-07
-2.88373e-09
4.57332e-07
-2.45341e-09
4.59374e-07
-2.04194e-09
4.61024e-07
-1.65064e-09
4.62302e-07
-1.2776e-09
4.63214e-07
-9.12504e-10
4.63749e-07
-5.34961e-10
4.63896e-07
-1.46592e-10
4.63702e-07
1.94447e-10
4.63251e-07
4.50143e-10
4.6261e-07
6.41095e-10
4.61822e-07
7.88722e-10
4.60917e-07
9.04647e-10
4.59921e-07
9.96036e-10
4.58853e-07
1.06752e-09
4.57731e-07
1.12227e-09
4.56568e-07
1.16268e-09
4.55378e-07
1.19079e-09
4.54169e-07
1.2084e-09
4.52952e-07
1.21713e-09
4.51734e-07
1.21841e-09
4.5052e-07
1.21358e-09
4.49316e-07
1.20378e-09
4.48126e-07
1.19003e-09
4.46953e-07
1.17324e-09
4.45799e-07
1.15419e-09
4.44665e-07
1.13358e-09
4.43553e-07
1.11196e-09
4.42463e-07
1.08984e-09
4.41396e-07
1.06764e-09
4.4035e-07
1.0457e-09
4.39326e-07
1.02432e-09
4.38322e-07
1.00376e-09
4.37338e-07
9.84201e-10
4.36372e-07
9.65814e-10
4.35423e-07
9.48749e-10
4.3449e-07
9.33126e-10
4.33571e-07
9.19046e-10
4.32665e-07
9.06625e-10
4.31769e-07
8.95973e-10
4.30881e-07
8.87226e-10
4.30001e-07
8.80531e-10
4.29125e-07
8.76091e-10
4.28251e-07
8.74161e-10
4.27375e-07
8.75093e-10
4.26496e-07
8.7934e-10
4.25609e-07
8.87528e-10
4.24708e-07
9.00484e-10
4.23789e-07
9.19355e-10
4.22843e-07
9.45697e-10
4.21861e-07
9.81651e-10
4.20831e-07
1.03024e-09
4.19735e-07
1.09575e-09
4.18551e-07
1.18443e-09
4.17245e-07
1.30562e-09
4.15772e-07
1.4738e-09
4.14059e-07
1.71249e-09
4.11997e-07
2.06161e-09
4.09401e-07
2.59621e-09
4.05946e-07
3.45538e-09
4.00964e-07
4.98212e-09
3.93242e-07
7.72219e-09
3.79164e-07
1.40771e-08
2.3795e-08
3.55369e-07
1.7288e-12
-1.84452e-08
-8.72731e-09
-2.36248e-09
-1.9983e-08
8.99788e-09
-3.25958e-08
1.80687e-08
-4.7119e-08
2.51244e-08
-6.41803e-08
3.02721e-08
-8.36507e-08
3.40685e-08
-1.04897e-07
3.71034e-08
-1.27361e-07
3.96606e-08
-1.50562e-07
4.17974e-08
-1.74078e-07
4.34776e-08
-1.97537e-07
4.46503e-08
-2.20616e-07
4.52865e-08
-2.43044e-07
4.53887e-08
-2.64608e-07
4.49894e-08
-2.85152e-07
4.41436e-08
-3.04571e-07
4.29209e-08
-3.22811e-07
4.13967e-08
-3.39854e-07
3.96461e-08
-3.55715e-07
3.77385e-08
-3.70429e-07
3.57345e-08
-3.84046e-07
3.36844e-08
-3.96624e-07
3.16277e-08
-4.08222e-07
2.95936e-08
-4.189e-07
2.7602e-08
-4.28711e-07
2.56654e-08
-4.37706e-07
2.37894e-08
-4.45928e-07
2.19752e-08
-4.53414e-07
2.022e-08
-4.60194e-07
1.85184e-08
-4.66295e-07
1.68636e-08
-4.71738e-07
1.52474e-08
-4.7654e-07
1.36615e-08
-4.80714e-07
1.20978e-08
-4.84275e-07
1.05483e-08
-4.87232e-07
9.00621e-09
-4.89597e-07
7.46552e-09
-4.91381e-07
5.92172e-09
-4.926e-07
4.37256e-09
-4.93269e-07
2.81904e-09
-4.93402e-07
1.2635e-09
-4.92976e-07
-2.97793e-10
-4.9191e-07
-1.88353e-09
-4.90107e-07
-3.50722e-09
-4.87515e-07
-5.16838e-09
-4.84098e-07
-6.86691e-09
-4.79831e-07
-8.60217e-09
-4.74692e-07
-1.03723e-08
-4.68665e-07
-1.21739e-08
-4.61736e-07
-1.40021e-08
-4.53894e-07
-1.58507e-08
-4.45132e-07
-1.7712e-08
-4.35449e-07
-1.95773e-08
-4.24847e-07
-2.14365e-08
-4.13335e-07
-2.3279e-08
-4.00927e-07
-2.50931e-08
-3.87642e-07
-2.68669e-08
-3.73506e-07
-2.85881e-08
-3.58551e-07
-3.02446e-08
-3.42815e-07
-3.18244e-08
-3.26342e-07
-3.33163e-08
-3.09178e-07
-3.47099e-08
-2.91378e-07
-3.59958e-08
-2.72998e-07
-3.71659e-08
-2.54099e-07
-3.82137e-08
-2.34743e-07
-3.91341e-08
-2.14995e-07
-3.99238e-08
-1.94919e-07
-4.05808e-08
-1.74582e-07
-4.11051e-08
-1.54047e-07
-4.14977e-08
-1.33378e-07
-4.17614e-08
-1.12636e-07
-4.18996e-08
-9.18795e-08
-4.19168e-08
-7.11622e-08
-4.18178e-08
-5.05329e-08
-4.16073e-08
-3.00326e-08
-4.12905e-08
-9.69154e-09
-4.08778e-08
1.04417e-08
-4.039e-08
3.02921e-08
-3.98427e-08
4.98234e-08
-3.92358e-08
6.90272e-08
-3.85711e-08
8.78843e-08
-3.78581e-08
1.06376e-07
-3.71051e-08
1.24486e-07
-3.63192e-08
1.42201e-07
-3.55065e-08
1.59509e-07
-3.46722e-08
1.76401e-07
-3.38212e-08
1.9287e-07
-3.29574e-08
2.08912e-07
-3.20843e-08
2.24523e-07
-3.12046e-08
2.397e-07
-3.03207e-08
2.54443e-07
-2.94341e-08
2.68749e-07
-2.85459e-08
2.82619e-07
-2.76568e-08
2.96052e-07
-2.67668e-08
3.09048e-07
-2.58757e-08
3.21607e-07
-2.49829e-08
3.33726e-07
-2.40878e-08
3.45406e-07
-2.31892e-08
3.56644e-07
-2.22862e-08
3.67438e-07
-2.13777e-08
3.77786e-07
-2.04627e-08
3.87683e-07
-1.95405e-08
3.97127e-07
-1.86104e-08
4.06115e-07
-1.76722e-08
4.14642e-07
-1.67262e-08
4.22705e-07
-1.57727e-08
4.30301e-07
-1.4813e-08
4.37429e-07
-1.38487e-08
4.44085e-07
-1.28818e-08
4.50271e-07
-1.19152e-08
4.55987e-07
-1.09519e-08
4.61236e-07
-9.9958e-09
4.66022e-07
-9.05085e-09
4.70352e-07
-8.1215e-09
4.74233e-07
-7.2123e-09
4.77678e-07
-6.32785e-09
4.80697e-07
-5.47265e-09
4.83306e-07
-4.65079e-09
4.8552e-07
-3.86534e-09
4.8736e-07
-3.11695e-09
4.8885e-07
-2.40296e-09
4.90037e-07
-1.7219e-09
4.90972e-07
-1.08164e-09
4.91662e-07
-4.95417e-10
4.92088e-07
2.41762e-11
4.92257e-07
4.72272e-10
4.92191e-07
8.54647e-10
4.91917e-07
1.17893e-09
4.91461e-07
1.45198e-09
4.90848e-07
1.67973e-09
4.90103e-07
1.86724e-09
4.89247e-07
2.01896e-09
4.88299e-07
2.13897e-09
4.87276e-07
2.23101e-09
4.86195e-07
2.29858e-09
4.85068e-07
2.34494e-09
4.83909e-07
2.37311e-09
4.82727e-07
2.38585e-09
4.81531e-07
2.38571e-09
4.80329e-07
2.37498e-09
4.79128e-07
2.35569e-09
4.77932e-07
2.32968e-09
4.76745e-07
2.29854e-09
4.75571e-07
2.26369e-09
4.74413e-07
2.22634e-09
4.73271e-07
2.18754e-09
4.72147e-07
2.14817e-09
4.71042e-07
2.109e-09
4.69955e-07
2.07068e-09
4.68887e-07
2.03373e-09
4.67837e-07
1.99861e-09
4.66805e-07
1.96571e-09
4.65789e-07
1.93536e-09
4.64787e-07
1.90787e-09
4.638e-07
1.88352e-09
4.62824e-07
1.86261e-09
4.61859e-07
1.84546e-09
4.60903e-07
1.83245e-09
4.59953e-07
1.82404e-09
4.59007e-07
1.82084e-09
4.58063e-07
1.8236e-09
4.57117e-07
1.83338e-09
4.56166e-07
1.85156e-09
4.55206e-07
1.88e-09
4.5423e-07
1.92125e-09
4.53233e-07
1.9788e-09
4.52206e-07
2.05751e-09
4.51137e-07
2.1642e-09
4.50013e-07
2.30875e-09
4.48813e-07
2.50561e-09
4.4751e-07
2.7767e-09
4.46066e-07
3.15673e-09
4.44425e-07
3.70225e-09
4.42506e-07
4.51508e-09
4.4019e-07
5.77212e-09
4.37284e-07
7.8874e-09
4.33514e-07
1.14922e-08
4.28458e-07
1.91337e-08
3.29721e-08
4.19281e-07
-1.71617e-08
-1.28348e-09
-3.41184e-08
1.45942e-08
-5.07961e-08
2.56756e-08
-6.751e-08
3.47826e-08
-8.46829e-08
4.22973e-08
-1.0274e-07
4.83296e-08
-1.21748e-07
5.30764e-08
-1.41412e-07
5.67676e-08
-1.61318e-07
5.95658e-08
-1.81073e-07
6.15525e-08
-2.00362e-07
6.2767e-08
-2.18957e-07
6.32449e-08
-2.36708e-07
6.30382e-08
-2.53539e-07
6.22191e-08
-2.69425e-07
6.08754e-08
-2.84384e-07
5.91027e-08
-2.9846e-07
5.69968e-08
-3.11711e-07
5.46473e-08
-3.24198e-07
5.2134e-08
-3.35984e-07
4.95245e-08
-3.47123e-07
4.68735e-08
-3.57662e-07
4.42229e-08
-3.67638e-07
4.16034e-08
-3.7708e-07
3.90358e-08
-3.8601e-07
3.65325e-08
-3.94444e-07
3.40991e-08
-4.02391e-07
3.17363e-08
-4.09856e-07
2.94405e-08
-4.16842e-07
2.72057e-08
-4.23347e-07
2.50236e-08
-4.29369e-07
2.28851e-08
-4.34901e-07
2.07802e-08
-4.39939e-07
1.86989e-08
-4.44472e-07
1.66315e-08
-4.48493e-07
1.45684e-08
-4.51987e-07
1.25011e-08
-4.54943e-07
1.04215e-08
-4.57344e-07
8.32229e-09
-4.59169e-07
6.19708e-09
-4.60389e-07
4.03982e-09
-4.60969e-07
1.84351e-09
-4.60865e-07
-4.0178e-10
-4.60042e-07
-2.70659e-09
-4.58473e-07
-5.07635e-09
-4.5613e-07
-7.51143e-09
-4.52987e-07
-1.00101e-08
-4.4902e-07
-1.25694e-08
-4.44207e-07
-1.51847e-08
-4.38531e-07
-1.78498e-08
-4.31977e-07
-2.05569e-08
-4.24531e-07
-2.3296e-08
-4.16188e-07
-2.60555e-08
-4.06943e-07
-2.8822e-08
-3.96799e-07
-3.15806e-08
-3.85763e-07
-3.43152e-08
-3.73848e-07
-3.70083e-08
-3.61072e-07
-3.96422e-08
-3.47462e-07
-4.21986e-08
-3.33047e-07
-4.46591e-08
-3.17865e-07
-4.70063e-08
-3.01959e-07
-4.92232e-08
-2.85374e-07
-5.12944e-08
-2.68164e-07
-5.3206e-08
-2.50384e-07
-5.49461e-08
-2.32092e-07
-5.6505e-08
-2.13351e-07
-5.78751e-08
-1.94223e-07
-5.90516e-08
-1.74772e-07
-6.00318e-08
-1.55062e-07
-6.08156e-08
-1.35155e-07
-6.14049e-08
-1.15112e-07
-6.18039e-08
-9.49935e-08
-6.20184e-08
-7.48543e-08
-6.2056e-08
-5.47469e-08
-6.19252e-08
-3.47181e-08
-6.16361e-08
-1.48082e-08
-6.12004e-08
4.94383e-09
-6.06299e-08
2.44928e-08
-5.99389e-08
4.3793e-08
-5.9143e-08
6.28113e-08
-5.82541e-08
8.15235e-08
-5.72834e-08
9.99074e-08
-5.6242e-08
1.17943e-07
-5.51408e-08
1.35614e-07
-5.39897e-08
1.52905e-07
-5.27976e-08
1.69805e-07
-5.15725e-08
1.86305e-07
-5.03216e-08
2.02399e-07
-4.9051e-08
2.18081e-07
-4.77659e-08
2.33347e-07
-4.64707e-08
2.48195e-07
-4.51689e-08
2.62624e-07
-4.38629e-08
2.76632e-07
-4.25545e-08
2.9022e-07
-4.12449e-08
3.03388e-07
-3.99343e-08
3.16135e-07
-3.86227e-08
3.28461e-07
-3.73092e-08
3.40366e-07
-3.5993e-08
3.5185e-07
-3.46726e-08
3.6291e-07
-3.33467e-08
3.73546e-07
-3.20137e-08
3.83756e-07
-3.06724e-08
3.93537e-07
-2.93214e-08
4.02886e-07
-2.796e-08
4.11802e-07
-2.65877e-08
4.2028e-07
-2.52046e-08
4.28319e-07
-2.38113e-08
4.35915e-07
-2.24092e-08
4.43067e-07
-2.10004e-08
4.49773e-07
-1.95877e-08
4.56032e-07
-1.81748e-08
4.61846e-07
-1.67658e-08
4.67216e-07
-1.53658e-08
4.72146e-07
-1.39803e-08
4.7664e-07
-1.26154e-08
4.80705e-07
-1.12773e-08
4.84349e-07
-9.97249e-09
4.87584e-07
-8.70731e-09
4.90421e-07
-7.48775e-09
4.92874e-07
-6.3189e-09
4.94962e-07
-5.20439e-09
4.96706e-07
-4.14673e-09
4.98133e-07
-3.14978e-09
4.99271e-07
-2.21967e-09
5.00138e-07
-1.3624e-09
5.00747e-07
-5.83915e-10
5.01107e-07
1.11648e-10
5.01237e-07
7.24972e-10
5.01156e-07
1.25998e-09
5.00886e-07
1.72194e-09
5.00449e-07
2.11651e-09
4.99867e-07
2.4494e-09
4.9916e-07
2.72616e-09
4.98346e-07
2.95224e-09
4.97445e-07
3.13285e-09
4.9647e-07
3.27308e-09
4.95437e-07
3.37774e-09
4.94359e-07
3.45142e-09
4.93246e-07
3.49839e-09
4.9211e-07
3.52263e-09
4.90957e-07
3.5278e-09
4.89795e-07
3.51721e-09
4.88631e-07
3.49385e-09
4.87469e-07
3.4604e-09
4.86314e-07
3.41922e-09
4.85168e-07
3.37237e-09
4.84033e-07
3.32165e-09
4.82913e-07
3.26864e-09
4.81807e-07
3.21466e-09
4.80717e-07
3.16084e-09
4.79643e-07
3.10815e-09
4.78584e-07
3.05741e-09
4.7754e-07
3.00932e-09
4.76511e-07
2.96449e-09
4.75496e-07
2.92344e-09
4.74492e-07
2.88669e-09
4.735e-07
2.85473e-09
4.72518e-07
2.82806e-09
4.71543e-07
2.80729e-09
4.70574e-07
2.7931e-09
4.69608e-07
2.78636e-09
4.68644e-07
2.78819e-09
4.67677e-07
2.80008e-09
4.66705e-07
2.82395e-09
4.65722e-07
2.86243e-09
4.64724e-07
2.91908e-09
4.63704e-07
2.99876e-09
4.62654e-07
3.10819e-09
4.61561e-07
3.25676e-09
4.60412e-07
3.45793e-09
4.59186e-07
3.73125e-09
4.57857e-07
4.10597e-09
4.56386e-07
4.62738e-09
4.54721e-07
5.36783e-09
4.52784e-07
6.45156e-09
4.50467e-07
8.08903e-09
4.47637e-07
1.0718e-08
4.44102e-07
1.50269e-08
4.40183e-07
2.3053e-08
3.69269e-08
4.36228e-07
-2.29892e-08
2.17057e-08
-4.36776e-08
3.52826e-08
-6.28953e-08
4.48933e-08
-8.11439e-08
5.30313e-08
-9.88304e-08
5.99837e-08
-1.16236e-07
6.57354e-08
-1.33452e-07
7.0292e-08
-1.50397e-07
7.37124e-08
-1.66911e-07
7.60801e-08
-1.8284e-07
7.74815e-08
-1.98076e-07
7.80034e-08
-2.1257e-07
7.77389e-08
-2.26322e-07
7.67898e-08
-2.39367e-07
7.52642e-08
-2.51762e-07
7.32708e-08
-2.63573e-07
7.09137e-08
-2.74864e-07
6.82875e-08
-2.85692e-07
6.54749e-08
-2.96103e-07
6.25452e-08
-3.06133e-07
5.95543e-08
-3.15805e-07
5.6546e-08
-3.25135e-07
5.35524e-08
-3.34128e-07
5.05963e-08
-3.42784e-07
4.76921e-08
-3.51099e-07
4.48475e-08
-3.59065e-07
4.20649e-08
-3.66671e-07
3.93426e-08
-3.73906e-07
3.66756e-08
-3.80757e-07
3.40563e-08
-3.87209e-07
3.1476e-08
-3.93248e-07
2.89244e-08
-3.98859e-07
2.63908e-08
-4.04024e-07
2.38642e-08
-4.08727e-07
2.13336e-08
-4.12946e-07
1.8788e-08
-4.16662e-07
1.6217e-08
-4.19851e-07
1.36107e-08
-4.22488e-07
1.09593e-08
-4.24545e-07
8.25405e-09
-4.25992e-07
5.48621e-09
-4.26795e-07
2.6473e-09
-4.26926e-07
-2.71028e-10
-4.26357e-07
-3.27561e-09
-4.25063e-07
-6.37037e-09
-4.23019e-07
-9.55594e-09
-4.20198e-07
-1.28304e-08
-4.16578e-07
-1.61895e-08
-4.12136e-07
-1.96271e-08
-4.06851e-07
-2.31346e-08
-4.00707e-07
-2.67008e-08
-3.9369e-07
-3.03126e-08
-3.85792e-07
-3.39539e-08
-3.77007e-07
-3.76069e-08
-3.67336e-07
-4.12514e-08
-3.56786e-07
-4.48655e-08
-3.45368e-07
-4.84261e-08
-3.33102e-07
-5.1909e-08
-3.2001e-07
-5.52898e-08
-3.06125e-07
-5.85441e-08
-2.91483e-07
-6.16482e-08
-2.76127e-07
-6.45798e-08
-2.60103e-07
-6.73183e-08
-2.43464e-07
-6.98452e-08
-2.26265e-07
-7.21449e-08
-2.08565e-07
-7.42047e-08
-1.90426e-07
-7.60147e-08
-1.71908e-07
-7.75688e-08
-1.53076e-07
-7.88638e-08
-1.33992e-07
-7.98998e-08
-1.14717e-07
-8.06797e-08
-9.53118e-08
-8.12095e-08
-7.58327e-08
-8.14976e-08
-5.63345e-08
-8.15542e-08
-3.68677e-08
-8.1392e-08
-1.74789e-08
-8.1025e-08
1.78865e-09
-8.04679e-08
2.08947e-08
-7.97359e-08
3.98018e-08
-7.8846e-08
5.84746e-08
-7.78158e-08
7.68821e-08
-7.66616e-08
9.49974e-08
-7.53986e-08
1.12797e-07
-7.40421e-08
1.30263e-07
-7.26059e-08
1.47376e-07
-7.11032e-08
1.64124e-07
-6.95459e-08
1.80497e-07
-6.79447e-08
1.96484e-07
-6.63089e-08
2.1208e-07
-6.46469e-08
2.2728e-07
-6.29657e-08
2.4208e-07
-6.1271e-08
2.56479e-07
-5.95675e-08
2.70474e-07
-5.78587e-08
2.84067e-07
-5.6147e-08
2.97256e-07
-5.4434e-08
3.10042e-07
-5.27203e-08
3.22425e-07
-5.10058e-08
3.34406e-07
-4.92897e-08
3.45983e-07
-4.75709e-08
3.57158e-07
-4.58477e-08
3.6793e-07
-4.41182e-08
3.78297e-07
-4.23808e-08
3.88258e-07
-4.06335e-08
3.97811e-07
-3.88747e-08
4.06955e-07
-3.71035e-08
4.15686e-07
-3.5319e-08
4.24003e-07
-3.35212e-08
4.31902e-07
-3.17109e-08
4.39383e-07
-2.98895e-08
4.46442e-07
-2.80596e-08
4.53079e-07
-2.62244e-08
4.59292e-07
-2.43883e-08
4.65083e-07
-2.25565e-08
4.70452e-07
-2.0735e-08
4.75402e-07
-1.89306e-08
4.79937e-07
-1.71507e-08
4.84063e-07
-1.54031e-08
4.87787e-07
-1.3696e-08
4.91117e-07
-1.20373e-08
4.94064e-07
-1.04349e-08
4.96641e-07
-8.8958e-09
4.98863e-07
-7.42622e-09
5.00748e-07
-6.03168e-09
5.02316e-07
-4.71809e-09
5.03588e-07
-3.49135e-09
5.04581e-07
-2.35616e-09
5.05314e-07
-1.31649e-09
5.05801e-07
-3.7531e-10