/*--------------------------------*- C++ -*----------------------------------*\
  =========                 |
  \\      /  F ield         | OpenFOAM: The Open Source CFD Toolbox
   \\    /   O peration     | Website:  https://openfoam.org
    \\  /    A nd           | Version:  6
     \\/     M anipulation  |
\*---------------------------------------------------------------------------*/
FoamFile
{
    version     2.0;
    format      ascii;
    class       volVectorField;
    location    "0.15";
    object      U;
}
// * * * * * * * * * * * * * * * * * * * * * * * * * * * * * * * * * * * * * //

dimensions      [0 1 -1 0 0 0 0];

internalField   nonuniform List<vector> 
12225
(
(0.948757 -0.405569 0)
(1.0127 -0.190671 0)
(1.01476 -0.0513961 0)
(0.983421 -0.0051468 0)
(0.955402 0.00451755 0)
(0.937014 0.00422862 0)
(0.924817 0.00258635 0)
(0.916173 0.00148734 0)
(0.909721 0.000942768 0)
(0.904604 0.000689053 0)
(0.900303 0.000562835 0)
(0.896548 0.000495191 0)
(0.893188 0.000457731 0)
(0.890136 0.000439881 0)
(0.887249 0.000423878 0)
(0.88482 0.000429763 0)
(0.881595 0.000322324 0)
(0.884374 -0.000278448 0)
(1.03698 0.0761204 0)
(1.02001 0.0533161 0)
(1.01137 0.0193921 0)
(1.00436 0.00900658 0)
(0.998026 0.00671233 0)
(0.9913 0.00527409 0)
(0.984164 0.00401987 0)
(0.977648 0.003163 0)
(0.972249 0.00262396 0)
(0.967813 0.00226191 0)
(0.964067 0.00200712 0)
(0.960824 0.00182981 0)
(0.957958 0.00170813 0)
(0.955383 0.00162975 0)
(0.952974 0.00156397 0)
(0.95084 0.00156249 0)
(0.948358 0.0011921 0)
(0.946744 0.00157327 0)
(0.998333 0.0132114 0)
(0.995367 0.0119503 0)
(1.00084 0.00639798 0)
(1.00196 0.00650819 0)
(1.0013 0.00700296 0)
(0.999411 0.00631196 0)
(0.996115 0.0052481 0)
(0.992295 0.00436572 0)
(0.988678 0.00372157 0)
(0.985445 0.00324854 0)
(0.982565 0.00290311 0)
(0.979984 0.00265763 0)
(0.977647 0.00248733 0)
(0.975505 0.00237752 0)
(0.973479 0.00230143 0)
(0.971592 0.0022875 0)
(0.969558 0.00210979 0)
(0.967549 0.00215019 0)
(0.995105 -0.00695205 0)
(0.992491 0.00124792 0)
(0.998616 0.00392731 0)
(1.00086 0.00593645 0)
(1.00168 0.00702653 0)
(1.00168 0.00678016 0)
(1.00039 0.00599811 0)
(0.9983 0.00523496 0)
(0.996005 0.0046098 0)
(0.993752 0.00411315 0)
(0.991611 0.003732 0)
(0.989606 0.00345198 0)
(0.987729 0.00325511 0)
(0.985962 0.00312991 0)
(0.984258 0.00305707 0)
(0.982611 0.00305665 0)
(0.980856 0.00300824 0)
(0.978962 0.00317974 0)
(0.996671 -0.00694143 0)
(0.993826 0.000821663 0)
(0.998071 0.00374082 0)
(1.0001 0.00553382 0)
(1.00141 0.00674503 0)
(1.00227 0.006839 0)
(1.00211 0.00636003 0)
(1.00115 0.00578299 0)
(0.99983 0.00524964 0)
(0.998367 0.00479043 0)
(0.99686 0.0044192 0)
(0.995368 0.00413758 0)
(0.993913 0.00393814 0)
(0.992497 0.00381585 0)
(0.991096 0.00376113 0)
(0.9897 0.00379327 0)
(0.988215 0.00386558 0)
(0.986566 0.00416787 0)
(0.997829 -0.00415002 0)
(0.995159 0.00127175 0)
(0.997886 0.00347007 0)
(0.999605 0.00503672 0)
(1.00105 0.00629354 0)
(1.00229 0.00663706 0)
(1.00275 0.00642685 0)
(1.00253 0.00604815 0)
(1.00192 0.00564158 0)
(1.00108 0.00525959 0)
(1.0001 0.00493424 0)
(0.999061 0.00468064 0)
(0.99799 0.00450211 0)
(0.996904 0.00440122 0)
(0.995797 0.00437834 0)
(0.99466 0.0044548 0)
(0.99345 0.00462782 0)
(0.9921 0.00502705 0)
(0.998452 -0.00257173 0)
(0.996214 0.00117297 0)
(0.997962 0.00303847 0)
(0.99938 0.00452168 0)
(1.00077 0.00577789 0)
(1.00211 0.00628862 0)
(1.00291 0.00629463 0)
(1.00317 0.00609764 0)
(1.00305 0.00582582 0)
(1.00268 0.00554053 0)
(1.00214 0.00528356 0)
(1.00149 0.00507928 0)
(1.00076 0.0049399 0)
(0.999977 0.00487502 0)
(0.99915 0.00489344 0)
(0.998276 0.00501864 0)
(0.997343 0.00526987 0)
(0.99631 0.00573444 0)
(0.998885 -0.00172967 0)
(0.99712 0.000985008 0)
(0.99823 0.00266326 0)
(0.999366 0.0040532 0)
(1.00062 0.00525441 0)
(1.00192 0.00586305 0)
(1.00287 0.00603165 0)
(1.00341 0.00598821 0)
(1.00363 0.00584358 0)
(1.00362 0.00565969 0)
(1.00342 0.00548172 0)
(1.00308 0.00533925 0)
(1.00265 0.0052507 0)
(1.00215 0.00523112 0)
(1.00158 0.00529524 0)
(1.00097 0.00546744 0)
(1.0003 0.00577495 0)
(0.999582 0.00627525 0)
(0.999234 -0.00111425 0)
(0.997903 0.000904952 0)
(0.998591 0.00238508 0)
(0.999486 0.00364266 0)
(1.00057 0.00475076 0)
(1.00176 0.00540278 0)
(1.00275 0.00568471 0)
(1.00345 0.00576285 0)
(1.0039 0.00572928 0)
(1.00413 0.00564157 0)
(1.00419 0.005544 0)
(1.00412 0.00546799 0)
(1.00394 0.00543553 0)
(1.00368 0.00546501 0)
(1.00336 0.00557436 0)
(1.00299 0.00578718 0)
(1.00258 0.0061304 0)
(1.00215 0.00664006 0)
(0.999502 -0.000626092 0)
(0.998548 0.0008986 0)
(0.998974 0.00217352 0)
(0.99968 0.00328384 0)
(1.0006 0.00427994 0)
(1.00167 0.00493424 0)
(1.00264 0.00528678 0)
(1.0034 0.00545462 0)
(1.00398 0.0055117 0)
(1.00439 0.00550859 0)
(1.00465 0.00548598 0)
(1.00478 0.00547466 0)
(1.00481 0.00549775 0)
(1.00476 0.00557488 0)
(1.00466 0.00572475 0)
(1.0045 0.00596853 0)
(1.00434 0.00632878 0)
(1.00416 0.00682618 0)
(0.999693 -0.000270356 0)
(0.999055 0.000911227 0)
(0.999334 0.00199928 0)
(0.999906 0.00296657 0)
(1.00069 0.00384514 0)
(1.00163 0.00447237 0)
(1.00254 0.00486024 0)
(1.00333 0.00508839 0)
(1.00398 0.00521432 0)
(1.0045 0.00528056 0)
(1.0049 0.00532278 0)
(1.00519 0.00536935 0)
(1.00539 0.00544261 0)
(1.00552 0.00556162 0)
(1.0056 0.00574391 0)
(1.00564 0.0060071 0)
(1.00568 0.00636792 0)
(1.00573 0.00683633 0)
(0.99981 -5.11248e-05 0)
(0.999402 0.000915473 0)
(0.999622 0.00185481 0)
(1.00011 0.00270164 0)
(1.0008 0.00347541 0)
(1.00164 0.00406061 0)
(1.00249 0.00445616 0)
(1.00326 0.00471668 0)
(1.00395 0.00488663 0)
(1.00453 0.00500124 0)
(1.00502 0.00509108 0)
(1.00542 0.00518132 0)
(1.00574 0.00529232 0)
(1.006 0.00544139 0)
(1.00623 0.00564382 0)
(1.00643 0.00591351 0)
(1.00663 0.00626195 0)
(1.00685 0.00669229 0)
(0.999891 9.0915e-05 0)
(0.999662 0.000905775 0)
(0.999862 0.00171546 0)
(1.0003 0.00245288 0)
(1.00092 0.00312825 0)
(1.00167 0.00366268 0)
(1.00245 0.00404974 0)
(1.00321 0.00432583 0)
(1.0039 0.00452448 0)
(1.00453 0.00467412 0)
(1.00508 0.00480021 0)
(1.00556 0.00492429 0)
(1.00598 0.00506409 0)
(1.00635 0.00523449 0)
(1.0067 0.00544801 0)
(1.00703 0.00571487 0)
(1.00736 0.00604198 0)
(1.00773 0.00642762 0)
(0.999948 0.000179898 0)
(0.999866 0.000867775 0)
(1.00007 0.0015532 0)
(1.00048 0.00217926 0)
(1.00104 0.0027509 0)
(1.00172 0.00322117 0)
(1.00244 0.00358266 0)
(1.00317 0.00385808 0)
(1.00386 0.00407146 0)
(1.00451 0.00424446 0)
(1.0051 0.00439695 0)
(1.00565 0.00454611 0)
(1.00616 0.00470618 0)
(1.00663 0.00488876 0)
(1.00709 0.00510297 0)
(1.00753 0.00535515 0)
(1.008 0.00564802 0)
(1.00848 0.00597664 0)
(0.999984 0.000215926 0)
(1.00001 0.000788231 0)
(1.00024 0.00135245 0)
(1.00063 0.0018669 0)
(1.00115 0.00233306 0)
(1.00177 0.00272835 0)
(1.00245 0.00304768 0)
(1.00314 0.00330455 0)
(1.00382 0.00351543 0)
(1.00448 0.00369578 0)
(1.00511 0.00385989 0)
(1.00571 0.00402021 0)
(1.00629 0.0041869 0)
(1.00684 0.00436781 0)
(1.00739 0.00456838 0)
(1.00794 0.00479139 0)
(1.0085 0.00503622 0)
(1.00909 0.00529628 0)
(1 0.000204677 0)
(1.00009 0.000658574 0)
(1.00034 0.00109775 0)
(1.00074 0.00149731 0)
(1.00124 0.00185676 0)
(1.00182 0.00216826 0)
(1.00246 0.00243025 0)
(1.00313 0.00265074 0)
(1.0038 0.00284036 0)
(1.00446 0.00300923 0)
(1.00511 0.00316652 0)
(1.00575 0.00332001 0)
(1.00638 0.00347573 0)
(1.00699 0.00363776 0)
(1.00761 0.00380818 0)
(1.00823 0.00398686 0)
(1.00886 0.00417107 0)
(1.00951 0.00435373 0)
(1.00001 0.000156148 0)
(1.00013 0.000474852 0)
(1.0004 0.000776656 0)
(1.00079 0.00105073 0)
(1.00129 0.0012971 0)
(1.00185 0.00151483 0)
(1.00247 0.00170472 0)
(1.00312 0.00187146 0)
(1.00379 0.00202103 0)
(1.00445 0.00215895 0)
(1.00512 0.00228988 0)
(1.00578 0.00241737 0)
(1.00644 0.0025437 0)
(1.00709 0.00266971 0)
(1.00775 0.00279483 0)
(1.00841 0.002917 0)
(1.00907 0.00303248 0)
(1.00975 0.00313463 0)
(1.00001 8.06755e-05 0)
(1.00015 0.000237524 0)
(1.00041 0.000380079 0)
(1.00081 0.000508332 0)
(1.0013 0.000625542 0)
(1.00186 0.000733645 0)
(1.00247 0.000834158 0)
(1.00312 0.000929144 0)
(1.00378 0.00102053 0)
(1.00445 0.00110959 0)
(1.00513 0.00119689 0)
(1.0058 0.00128229 0)
(1.00648 0.00136489 0)
(1.00714 0.00144303 0)
(1.00781 0.00151427 0)
(1.00847 0.00157551 0)
(1.00914 0.00162282 0)
(1.0098 0.00165045 0)
(1.00001 -1.27565e-05 0)
(1.00014 -5.00695e-05 0)
(1.00039 -0.000100353 0)
(1.00078 -0.000149907 0)
(1.00126 -0.000189555 0)
(1.00183 -0.00021571 0)
(1.00245 -0.000226704 0)
(1.0031 -0.000222831 0)
(1.00378 -0.000206281 0)
(1.00446 -0.000180156 0)
(1.00514 -0.000147828 0)
(1.00582 -0.000112804 0)
(1.00649 -7.86917e-05 0)
(1.00715 -4.91567e-05 0)
(1.0078 -2.7882e-05 0)
(1.00844 -1.85296e-05 0)
(1.00906 -2.48768e-05 0)
(1.00968 -5.17215e-05 0)
(1 -8.08809e-05 0)
(1.00008 -0.000291141 0)
(1.00029 -0.000534731 0)
(1.00065 -0.000766427 0)
(1.00114 -0.000968939 0)
(1.00172 -0.00113584 0)
(1.00237 -0.0012619 0)
(1.00305 -0.00134832 0)
(1.00376 -0.00140157 0)
(1.00446 -0.00142933 0)
(1.00516 -0.00143885 0)
(1.00584 -0.00143693 0)
(1.0065 -0.00142976 0)
(1.00714 -0.00142289 0)
(1.00776 -0.00142121 0)
(1.00835 -0.00142901 0)
(1.00892 -0.00145016 0)
(1.00947 -0.00148898 0)
(0.999981 -7.49447e-05 0)
(0.999925 -0.000410521 0)
(1.00005 -0.000839851 0)
(1.0004 -0.00124401 0)
(1.00091 -0.00160289 0)
(1.00153 -0.001904 0)
(1.00224 -0.00213227 0)
(1.00298 -0.00229033 0)
(1.00373 -0.0023914 0)
(1.00447 -0.00244894 0)
(1.00519 -0.00247474 0)
(1.00587 -0.00247938 0)
(1.00652 -0.00247204 0)
(1.00713 -0.00246037 0)
(1.0077 -0.00245063 0)
(1.00824 -0.0024479 0)
(1.00875 -0.00245639 0)
(1.00922 -0.00248028 0)
(0.999911 5.80663e-05 0)
(0.999584 -0.000393524 0)
(0.999599 -0.00105287 0)
(0.999958 -0.00165739 0)
(1.00053 -0.00220165 0)
(1.00125 -0.0026532 0)
(1.00208 -0.00297884 0)
(1.00292 -0.00319021 0)
(1.00374 -0.00331452 0)
(1.00452 -0.00337437 0)
(1.00524 -0.00338812 0)
(1.00591 -0.00337168 0)
(1.00652 -0.00333804 0)
(1.00707 -0.00329728 0)
(1.00757 -0.00325705 0)
(1.00803 -0.00322317 0)
(1.00844 -0.00320005 0)
(1.00881 -0.00319169 0)
(0.999763 0.000375682 0)
(0.998946 -0.000259652 0)
(0.998861 -0.00121852 0)
(0.999321 -0.00205672 0)
(1.00004 -0.00282842 0)
(1.00097 -0.00344279 0)
(1.00197 -0.00384284 0)
(1.00294 -0.00406937 0)
(1.00383 -0.00417569 0)
(1.00461 -0.00419771 0)
(1.0053 -0.00416268 0)
(1.0059 -0.00409321 0)
(1.00641 -0.0040064 0)
(1.00685 -0.00391434 0)
(1.00722 -0.00382549 0)
(1.00754 -0.00374576 0)
(1.00781 -0.00367919 0)
(1.00804 -0.00362912 0)
(0.999512 0.00099796 0)
(0.997909 -9.62429e-05 0)
(0.997852 -0.00145522 0)
(0.99858 -0.00253602 0)
(0.999583 -0.00356108 0)
(1.0008 -0.00431895 0)
(1.00203 -0.00473443 0)
(1.0031 -0.00491044 0)
(1.00399 -0.00493962 0)
(1.0047 -0.00487379 0)
(1.00525 -0.00475004 0)
(1.00568 -0.00459748 0)
(1.00601 -0.00443603 0)
(1.00624 -0.00427805 0)
(1.00642 -0.00413123 0)
(1.00653 -0.00400027 0)
(1.00661 -0.00388778 0)
(1.00665 -0.00379574 0)
(0.998981 0.00256534 0)
(0.996255 0.00028003 0)
(0.996666 -0.00180901 0)
(0.997949 -0.00318764 0)
(0.999354 -0.00446291 0)
(1.00092 -0.00528654 0)
(1.00234 -0.00561262 0)
(1.00339 -0.00564658 0)
(1.00411 -0.00552846 0)
(1.00458 -0.00532447 0)
(1.00485 -0.00507914 0)
(1.00497 -0.00482481 0)
(1.00498 -0.00458039 0)
(1.00491 -0.00435529 0)
(1.00479 -0.00415391 0)
(1.00463 -0.003978 0)
(1.00445 -0.00382754 0)
(1.00426 -0.00370233 0)
(0.997456 0.00616485 0)
(0.99346 0.00158674 0)
(0.99538 -0.0019438 0)
(0.997717 -0.00394603 0)
(0.999624 -0.00550686 0)
(1.00148 -0.00626682 0)
(1.00288 -0.0063628 0)
(1.00363 -0.00615253 0)
(1.0039 -0.00582268 0)
(1.00386 -0.00544649 0)
(1.00362 -0.00506825 0)
(1.00324 -0.00471585 0)
(1.00279 -0.00440089 0)
(1.0023 -0.00412542 0)
(1.0018 -0.00388782 0)
(1.00131 -0.00368542 0)
(1.00082 -0.00351479 0)
(1.00035 -0.00337303 0)
(0.994437 0.00860178 0)
(0.989465 0.00235283 0)
(0.994174 -0.00185205 0)
(0.998137 -0.004661 0)
(1.0006 -0.00653332 0)
(1.00246 -0.00706041 0)
(1.00335 -0.00677754 0)
(1.00328 -0.00624245 0)
(1.00263 -0.00567279 0)
(1.0017 -0.0051309 0)
(1.00066 -0.00464608 0)
(0.999583 -0.0042307 0)
(0.998526 -0.00388204 0)
(0.997518 -0.00359104 0)
(0.996569 -0.00334865 0)
(0.995681 -0.00314754 0)
(0.994851 -0.00298136 0)
(0.994082 -0.00284396 0)
(0.994525 -0.0066515 0)
(0.989497 -0.00850912 0)
(0.995515 -0.00524803 0)
(1.00007 -0.00615018 0)
(1.00247 -0.00751447 0)
(1.00342 -0.00744184 0)
(1.0027 -0.00662604 0)
(1.00083 -0.00574318 0)
(0.998549 -0.00497822 0)
(0.99626 -0.00434012 0)
(0.994105 -0.00382022 0)
(0.992126 -0.0034057 0)
(0.990334 -0.00307681 0)
(0.98872 -0.00281369 0)
(0.987266 -0.00260134 0)
(0.98595 -0.00242991 0)
(0.984756 -0.0022927 0)
(0.983674 -0.00217779 0)
(1.02649 -0.0702267 0)
(1.0171 -0.0623812 0)
(1.01187 -0.0291941 0)
(1.00853 -0.0148322 0)
(1.00576 -0.0102732 0)
(1.00193 -0.00776877 0)
(0.996735 -0.00588276 0)
(0.991193 -0.00459002 0)
(0.986181 -0.00373983 0)
(0.981925 -0.00314996 0)
(0.978325 -0.00271816 0)
(0.975253 -0.00239545 0)
(0.972608 -0.00215065 0)
(0.970312 -0.00196083 0)
(0.968295 -0.00181112 0)
(0.966507 -0.00169445 0)
(0.964916 -0.00161012 0)
(0.963506 -0.00158102 0)
(0.966187 0.350228 0)
(1.02695 0.194275 0)
(1.03278 0.0679338 0)
(1.00472 0.0152876 0)
(0.976576 -0.0012399 0)
(0.956664 -0.00428586 0)
(0.942951 -0.00356438 0)
(0.93314 -0.00241085 0)
(0.925939 -0.00158955 0)
(0.920464 -0.00109513 0)
(0.916087 -0.000805494 0)
(0.912436 -0.000632419 0)
(0.909311 -0.000524992 0)
(0.906587 -0.000454855 0)
(0.904177 -0.000406855 0)
(0.902015 -0.000375511 0)
(0.900035 -0.000357383 0)
(0.898186 -0.000402651 0)
(0.00887529 -0.0351639 -2.3812e-21)
(0.0222021 -0.0321057 2.21398e-21)
(0.0288657 -0.0167593 0)
(0.027631 -0.00117706 0)
(0.0197921 0.00906363 0)
(0.00855739 0.0131821 -2.19007e-21)
(-0.00398371 0.0141955 0)
(-0.0174929 0.0149221 0)
(-0.032179 0.0160165 0)
(-0.0481231 0.0174424 0)
(-0.0653388 0.0190145 1.9289e-21)
(-0.0837462 0.0205541 0)
(-0.103184 0.0219214 0)
(-0.123435 0.0230193 0)
(-0.144247 0.0237915 0)
(-0.165359 0.0242174 1.7797e-21)
(-0.186517 0.0243044 0)
(-0.207489 0.0240807 0)
(-0.22807 0.0235875 0)
(-0.24809 0.0228728 0)
(-0.267414 0.0219855 0)
(-0.285941 0.0209722 0)
(-0.303599 0.0198741 0)
(-0.320345 0.0187258 1.79662e-21)
(-0.336152 0.0175547 -1.80342e-21)
(-0.351016 0.0163816 1.80931e-21)
(-0.364939 0.0152204 1.81398e-21)
(-0.377936 0.0140801 0)
(-0.390024 0.0129646 0)
(-0.401221 0.0118747 -1.81803e-21)
(-0.411547 0.010808 -1.81545e-21)
(-0.421018 0.00976055 0)
(-0.429646 0.0087269 0)
(-0.437439 0.00770133 -1.79387e-21)
(-0.444402 0.00667825 0)
(-0.45053 0.00565313 0)
(-0.455817 0.00462358 1.74915e-21)
(-0.460248 0.00358986 0)
(-0.463813 0.00255759 1.70496e-21)
(-0.466495 0.00154393 3.35646e-21)
(-0.468267 0.000575291 0)
(-0.469112 -0.000322354 0)
(-0.469023 -0.00113001 0)
(-0.468165 -0.00187242 0)
(-0.466512 -0.002593 0)
(-0.464069 -0.00330915 2.86519e-21)
(-0.460827 -0.00402829 2.75167e-21)
(-0.456773 -0.00475325 2.62845e-21)
(-0.451892 -0.00548441 0)
(-0.446171 -0.00622074 -2.3519e-21)
(-0.439596 -0.00696031 0)
(-0.432159 -0.00770056 2.0338e-21)
(-0.423855 -0.00843841 1.85881e-21)
(-0.414682 -0.00917042 0)
(-0.404643 -0.00989288 0)
(-0.393747 -0.0106018 0)
(-0.382009 -0.0112933 1.05207e-21)
(-0.369447 -0.0119632 0)
(-0.356088 -0.0126076 0)
(-0.341963 -0.0132228 0)
(-0.327108 -0.0138053 0)
(-0.311564 -0.014352 0)
(-0.29538 -0.0148603 0)
(-0.278604 -0.0153281 0)
(-0.261292 -0.0157537 0)
(-0.2435 -0.0161362 1.32184e-21)
(-0.225288 -0.016475 0)
(-0.206716 -0.0167701 0)
(-0.187845 -0.0170219 -2.237e-21)
(-0.168736 -0.0172308 -2.54992e-21)
(-0.149451 -0.0173972 0)
(-0.130048 -0.0175207 3.1831e-21)
(-0.110586 -0.0175994 -3.50193e-21)
(-0.0911229 -0.0176282 0)
(-0.0717174 -0.0175966 4.14057e-21)
(-0.0524285 -0.017486 0)
(-0.0333149 -0.017267 0)
(-0.0144191 -0.0169058 -5.07377e-21)
(0.00425241 -0.0164072 0)
(0.0227013 -0.0158428 5.25315e-21)
(0.0408963 -0.0152714 0)
(0.0587952 -0.0147068 -5.26555e-21)
(0.0763726 -0.014153 -5.25684e-21)
(0.0936103 -0.0136117 -5.23983e-21)
(0.110494 -0.0130838 -1.04313e-20)
(0.127012 -0.0125698 1.03704e-20)
(0.143157 -0.01207 0)
(0.158919 -0.0115843 0)
(0.174296 -0.0111127 0)
(0.189281 -0.0106549 1.0035e-20)
(0.203873 -0.0102107 9.9348e-21)
(0.218069 -0.00977943 -9.83031e-21)
(0.231867 -0.00936067 0)
(0.245267 -0.00895371 9.61186e-21)
(0.258267 -0.00855785 9.49943e-21)
(0.270866 -0.00817231 9.38575e-21)
(0.283062 -0.0077963 0)
(0.294853 -0.00742902 0)
(0.306236 -0.00706969 0)
(0.317209 -0.00671758 8.92922e-21)
(0.327768 -0.00637201 0)
(0.337908 -0.00603237 0)
(0.347624 -0.00569818 -8.59682e-21)
(0.356912 -0.00536906 0)
(0.365766 -0.00504475 0)
(0.374181 -0.00472516 -8.28257e-21)
(0.382151 -0.00441035 0)
(0.389672 -0.00410051 0)
(0.39674 -0.00379603 7.99248e-21)
(0.403352 -0.00349742 7.90188e-21)
(0.409507 -0.00320534 0)
(0.415204 -0.00292059 -7.73041e-21)
(0.420446 -0.00264404 0)
(0.425235 -0.00237667 7.57221e-21)
(0.42958 -0.00211946 0)
(0.433488 -0.00187339 7.42728e-21)
(0.43697 -0.00163935 7.35966e-21)
(0.440041 -0.00141818 0)
(0.442715 -0.00121078 0)
(0.445012 -0.0010178 0)
(0.446949 -0.000837587 0)
(0.448542 -0.00066182 0)
(0.449792 -0.000474175 0)
(0.450667 -0.000271819 0)
(0.451162 -9.06928e-05 6.92393e-21)
(0.451388 3.72531e-05 -6.87998e-21)
(0.451406 0.00011909 0)
(0.451266 0.000171849 0)
(0.451003 0.000206495 0)
(0.450644 0.000229195 0)
(0.450209 0.000243497 -1.33643e-20)
(0.449717 0.000251479 0)
(0.449181 0.00025449 1.32214e-20)
(0.448616 0.000253528 -1.31525e-20)
(0.448031 0.000249397 0)
(0.447438 0.000242767 0)
(0.446842 0.00023421 0)
(0.446252 0.000224209 1.289e-20)
(0.445672 0.000213172 1.28271e-20)
(0.445108 0.000201441 0)
(0.444562 0.000189298 1.27041e-20)
(0.444037 0.000176976 1.26437e-20)
(0.443536 0.000164665 -1.25841e-20)
(0.44306 0.000152516 0)
(0.442609 0.000140652 0)
(0.442184 0.000129167 -1.24089e-20)
(0.441785 0.000118137 0)
(0.441412 0.00010762 0)
(0.441064 9.76597e-05 0)
(0.44074 8.82879e-05 0)
(0.44044 7.95286e-05 1.21272e-20)
(0.440163 7.14003e-05 1.20721e-20)
(0.439906 6.39176e-05 0)
(0.439669 5.70944e-05 1.19632e-20)
(0.43945 5.09458e-05 0)
(0.439247 4.54918e-05 0)
(0.43906 4.076e-05 1.18025e-20)
(0.438885 3.67887e-05 0)
(0.438721 3.36321e-05 1.16972e-20)
(0.438566 3.13664e-05 0)
(0.438416 3.00971e-05 0)
(0.438269 2.99691e-05 1.15427e-20)
(0.438121 3.118e-05 0)
(0.437968 3.39988e-05 1.14425e-20)
(0.437804 3.87928e-05 0)
(0.437623 4.60637e-05 0)
(0.437415 5.6504e-05 0)
(0.43717 7.10797e-05 -1.12534e-20)
(0.436871 9.11604e-05 0)
(0.436499 0.000118727 1.1169e-20)
(0.436025 0.000156731 0)
(0.435407 0.000209698 0)
(0.434586 0.000284965 0)
(0.433468 0.000394731 0)
(0.43191 0.000562196 0)
(0.42963 0.000827486 0)
(0.42626 0.00130064 0)
(0.420405 0.00210938 -2.23446e-20)
(0.412144 0.00413798 0)
(0.388717 0.00668302 0)
(-0.00348666 -0.0422451 6.65318e-21)
(-0.00412795 -0.0152089 -5.73681e-21)
(-0.012237 0.0048334 0)
(-0.0224067 0.0204245 3.05079e-21)
(-0.0345872 0.0317021 0)
(-0.0488664 0.0390587 1.40028e-21)
(-0.0652632 0.0439957 -2.6524e-21)
(-0.0834931 0.0478997 -2.56622e-21)
(-0.103073 0.0513559 0)
(-0.123535 0.0544323 -2.437e-21)
(-0.144475 0.0570105 -1.21349e-21)
(-0.16554 0.0589533 0)
(-0.186418 0.0601688 0)
(-0.206844 0.0606253 0)
(-0.226599 0.0603454 0)
(-0.245519 0.0593941 -1.17234e-21)
(-0.263488 0.057864 0)
(-0.280435 0.055862 2.37671e-21)
(-0.296329 0.0534982 0)
(-0.311171 0.0508771 0)
(-0.324983 0.0480924 -2.44777e-21)
(-0.337805 0.0452234 0)
(-0.349684 0.0423343 2.49606e-21)
(-0.360673 0.0394741 -1.25667e-21)
(-0.370824 0.0366779 1.26719e-21)
(-0.380189 0.0339689 -1.27639e-21)
(-0.388811 0.0313602 -1.28404e-21)
(-0.396733 0.0288569 0)
(-0.403989 0.0264581 0)
(-0.410609 0.0241582 1.29621e-21)
(-0.416617 0.0219488 -1.2983e-21)
(-0.422032 0.0198192 0)
(-0.426872 0.0177578 0)
(-0.431148 0.0157526 1.2835e-21)
(-0.434873 0.0137917 0)
(-0.438055 0.0118637 0)
(-0.440703 0.00995846 -1.24971e-21)
(-0.442827 0.00806694 0)
(-0.444437 0.00618306 1.2324e-21)
(-0.445545 0.00430772 -2.38677e-21)
(-0.446162 0.00245288 0)
(-0.446296 0.000637757 0)
(-0.445937 -0.0011255 -4.49904e-21)
(-0.444919 -0.00285094 -4.36872e-21)
(-0.443206 -0.00456429 -4.22677e-21)
(-0.440758 -0.00627908 2.07635e-21)
(-0.437549 -0.00800113 -1.90866e-21)
(-0.433556 -0.00973148 -5.54178e-21)
(-0.428759 -0.0114681 3.53556e-21)
(-0.423144 -0.0132066 1.60703e-21)
(-0.416697 -0.0149412 0)
(-0.409408 -0.0166646 -1.37412e-21)
(-0.401272 -0.0183685 1.39475e-21)
(-0.392288 -0.0200437 0)
(-0.382459 -0.0216805 0)
(-0.371793 -0.0232687 0)
(-0.360303 -0.0247979 -6.88444e-22)
(-0.348009 -0.0262577 0)
(-0.334935 -0.0276383 9.583e-22)
(-0.321111 -0.0289303 0)
(-0.306573 -0.0301251 3.21825e-22)
(-0.291362 -0.0312151 0)
(-0.275521 -0.0321942 3.4164e-22)
(-0.2591 -0.0330572 0)
(-0.242153 -0.0338008 -1.02485e-21)
(-0.224732 -0.0344229 5.61867e-22)
(-0.206897 -0.0349231 0)
(-0.188706 -0.0353024 2.07055e-21)
(-0.170217 -0.0355633 1.33979e-21)
(-0.15149 -0.0357092 1.51597e-21)
(-0.132584 -0.0357447 0)
(-0.113554 -0.0356752 1.60224e-21)
(-0.0944565 -0.0355063 2.03763e-21)
(-0.0753418 -0.0352433 0)
(-0.0562573 -0.0348909 -2.37704e-21)
(-0.0372442 -0.0344516 4.82876e-21)
(-0.0183361 -0.0339248 0)
(0.000430686 -0.0333057 2.83505e-21)
(0.0190006 -0.032595 0)
(0.0373218 -0.0318164 -8.7073e-21)
(0.0553707 -0.0309978 0)
(0.0731353 -0.0301549 9.0575e-21)
(0.0905985 -0.0292968 3.13495e-21)
(0.107743 -0.0284298 -2.9776e-21)
(0.124555 -0.0275589 -6.0368e-21)
(0.141021 -0.0266878 6.10677e-21)
(0.157132 -0.02582 0)
(0.17288 -0.0249581 0)
(0.188258 -0.0241044 0)
(0.203263 -0.0232606 -1.94439e-20)
(0.21789 -0.0224279 -6.58763e-21)
(0.232137 -0.021607 6.5898e-21)
(0.246003 -0.0207984 0)
(0.259486 -0.020002 6.34018e-21)
(0.272584 -0.0192176 -6.56281e-21)
(0.285298 -0.0184447 -6.54457e-21)
(0.297625 -0.0176826 0)
(0.309564 -0.0169303 0)
(0.321113 -0.0161871 0)
(0.332271 -0.0154519 -6.43876e-21)
(0.343033 -0.0147238 0)
(0.353397 -0.0140022 1.25976e-20)
(0.36336 -0.0132863 1.88732e-20)
(0.372916 -0.0125758 -1.24728e-20)
(0.382062 -0.0118704 0)
(0.390793 -0.0111702 -6.11516e-21)
(0.399106 -0.0104757 0)
(0.406994 -0.00978748 -1.22073e-20)
(0.414456 -0.00910671 6.02647e-21)
(0.421487 -0.00843473 5.99696e-21)
(0.428087 -0.00777326 0)
(0.434253 -0.00712425 1.7951e-20)
(0.439987 -0.00648993 -1.18823e-20)
(0.44529 -0.00587266 -5.93806e-21)
(0.450167 -0.00527495 0)
(0.454622 -0.00469929 -5.87397e-21)
(0.458665 -0.00414807 -1.74909e-20)
(0.462305 -0.00362352 0)
(0.465553 -0.00312753 -1.154e-20)
(0.468424 -0.00266099 -1.14887e-20)
(0.470933 -0.00222237 -1.14389e-20)
(0.473099 -0.00180594 0)
(0.474951 -0.00140378 0)
(0.476543 -0.0010207 0)
(0.477925 -0.000681645 5.61981e-21)
(0.479058 -0.000403262 5.60823e-21)
(0.479938 -0.000179352 0)
(0.480584 1.28194e-06 1.1112e-20)
(0.48102 0.000146818 1.10657e-20)
(0.48127 0.00026322 0)
(0.481361 0.000355032 1.09767e-20)
(0.481316 0.000425799 2.18581e-20)
(0.481156 0.000478456 -1.08847e-20)
(0.480901 0.000515557 -1.08392e-20)
(0.480569 0.000539372 0)
(0.480176 0.000551938 0)
(0.479736 0.000555086 0)
(0.479262 0.000550455 -1.06598e-20)
(0.478764 0.000539502 1.06188e-20)
(0.478253 0.000523512 2.11459e-20)
(0.477735 0.00050361 -1.05271e-20)
(0.47722 0.000480774 1.04869e-20)
(0.476711 0.000455841 1.04393e-20)
(0.476213 0.000429529 0)
(0.475731 0.00040244 0)
(0.475267 0.00037508 -1.0312e-20)
(0.474823 0.000347868 0)
(0.474401 0.000321148 0)
(0.474002 0.000295199 2.03612e-20)
(0.473626 0.000270244 0)
(0.473274 0.00024646 1.00959e-20)
(0.472945 0.000223989 -1.0051e-20)
(0.472638 0.000202943 0)
(0.472353 0.000183414 9.96798e-21)
(0.472089 0.000165484 0)
(0.471845 0.000149228 0)
(0.47162 0.000134729 -9.84033e-21)
(0.471411 0.000122083 1.95984e-20)
(0.471217 0.000111412 -9.75729e-21)
(0.471036 0.000102878 0)
(0.470867 9.66981e-05 0)
(0.470706 9.31688e-05 9.63506e-21)
(0.470551 9.26917e-05 0)
(0.470398 9.58145e-05 9.55487e-21)
(0.470244 0.000103284 0)
(0.470083 0.000116124 0)
(0.46991 0.000135743 0)
(0.469716 0.00016411 9.40259e-21)
(0.469491 0.000204002 0)
(0.469223 0.000259426 -9.33417e-21)
(0.468893 0.000336307 0)
(0.468477 0.000443673 0)
(0.467942 0.000595964 1.85053e-20)
(0.467236 0.00081698 -1.84713e-20)
(0.466293 0.00115058 0)
(0.464987 0.0016737 0)
(0.46323 0.00257543 0)
(0.460488 0.00412804 5.58716e-20)
(0.457444 0.00758736 0)
(0.451007 0.0133416 -3.8184e-20)
(-0.0150903 -0.0173206 -2.10617e-22)
(-0.0240634 0.0106165 6.45645e-21)
(-0.0373496 0.0312999 0)
(-0.0520922 0.0480886 -4.74976e-21)
(-0.067253 0.0614407 0)
(-0.0829722 0.0716497 0)
(-0.0995399 0.0793532 1.23786e-25)
(-0.116867 0.0852342 1.9735e-21)
(-0.134613 0.0897146 1.9421e-21)
(-0.152401 0.0929577 1.88647e-21)
(-0.169911 0.0949992 0)
(-0.1869 0.0958549 0)
(-0.203202 0.0955736 -1.8745e-21)
(-0.218719 0.0942504 -3.75021e-21)
(-0.233407 0.0920196 3.76059e-21)
(-0.247267 0.0890391 0)
(-0.260329 0.0854751 3.80042e-21)
(-0.27264 0.0814891 -1.87148e-21)
(-0.284254 0.0772279 0)
(-0.295228 0.0728181 3.88254e-21)
(-0.305612 0.0683629 1.92537e-21)
(-0.315453 0.0639427 -3.93805e-21)
(-0.324786 0.0596159 -1.95955e-21)
(-0.333642 0.0554221 0)
(-0.342041 0.0513849 4.0069e-21)
(-0.35 0.0475151 4.02388e-21)
(-0.357529 0.0438138 0)
(-0.364633 0.040275 4.0464e-21)
(-0.371317 0.036888 0)
(-0.377578 0.0336389 4.05138e-21)
(-0.383414 0.0305122 2.01602e-21)
(-0.388822 0.0274919 0)
(-0.393795 0.0245623 0)
(-0.398326 0.0217089 0)
(-0.402405 0.0189182 0)
(-0.406023 0.0161786 0)
(-0.409168 0.0134804 0)
(-0.411825 0.0108154 3.84916e-21)
(-0.413978 0.00817671 -5.67619e-21)
(-0.415603 0.00555727 0)
(-0.41667 0.00294653 0)
(-0.417141 0.000326532 0)
(-0.41698 -0.00232316 -5.2528e-23)
(-0.416155 -0.00500963 3.32995e-21)
(-0.414642 -0.00772839 6.49279e-21)
(-0.412414 -0.010475 -6.24948e-21)
(-0.409448 -0.0132449 -3.03178e-21)
(-0.405722 -0.0160324 2.81331e-21)
(-0.401216 -0.0188302 8.76414e-23)
(-0.395914 -0.0216293 2.59402e-21)
(-0.389801 -0.024419 0)
(-0.382866 -0.0271866 2.25789e-21)
(-0.375104 -0.0299183 1.11617e-22)
(-0.366512 -0.032599 0)
(-0.357092 -0.0352125 0)
(-0.346851 -0.0377424 -1.48868e-21)
(-0.335803 -0.0401717 0)
(-0.323966 -0.0424838 0)
(-0.311363 -0.0446628 9.84059e-22)
(-0.298025 -0.0466936 1.22925e-21)
(-0.283984 -0.0485626 -2.32627e-22)
(-0.269282 -0.0502579 0)
(-0.253962 -0.0517695 -2.45101e-22)
(-0.238072 -0.0530898 0)
(-0.221664 -0.0542133 -4.00552e-22)
(-0.204791 -0.0551373 -9.72953e-22)
(-0.187509 -0.0558611 2.09358e-21)
(-0.169877 -0.0563867 1.11626e-21)
(-0.151951 -0.0567181 0)
(-0.133788 -0.0568616 -3.52801e-21)
(-0.115447 -0.0568247 0)
(-0.0969809 -0.056617 -6.87248e-21)
(-0.0784433 -0.0562488 -4.92579e-21)
(-0.0598835 -0.0557316 -5.38018e-21)
(-0.0413472 -0.0550772 5.82816e-21)
(-0.0228743 -0.0542988 -9.57801e-21)
(-0.00450086 -0.0534103 0)
(0.0137354 -0.0524279 0)
(0.0317914 -0.0513694 7.25017e-21)
(0.0496286 -0.0502472 1.14117e-20)
(0.0672206 -0.04907 0)
(0.0845466 -0.0478483 -4.12214e-21)
(0.101587 -0.0465923 0)
(0.118323 -0.0453112 1.26274e-20)
(0.134741 -0.0440131 2.60795e-22)
(0.150828 -0.0427051 -2.50388e-22)
(0.166574 -0.0413933 -8.77062e-21)
(0.181971 -0.040083 0)
(0.197012 -0.0387784 8.99441e-21)
(0.211694 -0.0374832 2.10695e-22)
(0.226012 -0.0361998 0)
(0.239965 -0.0349302 0)
(0.253551 -0.0336756 0)
(0.266767 -0.0324366 -9.52634e-21)
(0.279615 -0.0312133 0)
(0.292092 -0.0300053 0)
(0.304199 -0.0288119 0)
(0.315933 -0.0276322 0)
(0.327294 -0.0264649 0)
(0.33828 -0.0253089 -9.50762e-21)
(0.348889 -0.0241629 0)
(0.359119 -0.023026 -9.63004e-21)
(0.368966 -0.0218972 -9.62245e-21)
(0.378428 -0.0207759 9.61212e-21)
(0.3875 -0.0196619 0)
(0.39618 -0.0185551 9.58502e-21)
(0.404462 -0.0174561 0)
(0.412345 -0.0163661 9.55201e-21)
(0.419823 -0.0152864 -9.53414e-21)
(0.426896 -0.014219 -2.84171e-20)
(0.43356 -0.0131664 0)
(0.439814 -0.0121315 -2.83248e-20)
(0.445659 -0.0111175 -9.35886e-21)
(0.451096 -0.0101279 0)
(0.456127 -0.00916655 -1.8762e-20)
(0.460758 -0.0082371 -1.87338e-20)
(0.464993 -0.00734333 2.80923e-20)
(0.468841 -0.00648876 0)
(0.472311 -0.00567648 9.3514e-21)
(0.475416 -0.00490876 9.33395e-21)
(0.478169 -0.00418651 2.79078e-20)
(0.480588 -0.00350958 0)
(0.482695 -0.00287923 0)
(0.48452 -0.00229908 0)
(0.486083 -0.0017728 9.22274e-21)
(0.487398 -0.0013041 0)
(0.488472 -0.000895102 0)
(0.48932 -0.000543905 -9.17988e-21)
(0.489958 -0.000246082 -9.1547e-21)
(0.490406 3.55867e-06 0)
(0.490687 0.0002101 0)
(0.49082 0.000378258 -1.81487e-20)
(0.490826 0.000512372 0)
(0.490724 0.000616459 1.80337e-20)
(0.490531 0.000694248 1.79735e-20)
(0.490263 0.000749201 0)
(0.489936 0.000784517 0)
(0.489562 0.000803137 -1.77887e-20)
(0.489153 0.000807738 1.98424e-24)
(0.488719 0.000800742 2.29874e-24)
(0.48827 0.000784313 0)
(0.487813 0.000760372 -3.50501e-20)
(0.487355 0.000730605 0)
(0.486901 0.000696483 0)
(0.486456 0.00065927 0)
(0.486023 0.000620049 1.72502e-20)
(0.485606 0.000579736 0)
(0.485205 0.000539097 -3.42278e-20)
(0.484824 0.000498771 -1.70418e-20)
(0.484463 0.000459281 0)
(0.484122 0.000421054 -1.69023e-20)
(0.483801 0.000384438 0)
(0.483502 0.000349713 0)
(0.483222 0.000317113 -5.00817e-20)
(0.482962 0.000286833 3.32492e-20)
(0.48272 0.000259047 0)
(0.482496 0.000233924 3.29707e-20)
(0.482287 0.000211642 -1.64149e-20)
(0.482093 0.000192409 0)
(0.481912 0.000176481 0)
(0.481741 0.000164187 0)
(0.481578 0.000155966 -4.8424e-20)
(0.48142 0.000152405 0)
(0.481265 0.000154297 -1.60069e-20)
(0.481108 0.000162717 0)
(0.480944 0.000179133 0)
(0.480767 0.000205559 0)
(0.480569 0.000244787 0)
(0.48034 0.000300736 0)
(0.480067 0.000379005 0)
(0.479731 0.000487771 -3.11685e-20)
(0.479309 0.000639298 0)
(0.478767 0.000852742 -1.54998e-20)
(0.478057 0.0011589 4.64112e-20)
(0.477113 0.00161174 0)
(0.475829 0.0023036 0)
(0.47411 0.00343672 -3.0995e-20)
(0.471643 0.00532733 -3.12105e-20)
(0.468809 0.00902592 3.1446e-20)
(0.464998 0.0156836 3.20372e-20)
(-0.018522 0.0200506 -1.14788e-20)
(-0.0316062 0.0465173 -8.42692e-21)
(-0.0472642 0.0654957 -4.53409e-21)
(-0.0637647 0.0812262 -2.00624e-21)
(-0.0798552 0.0942692 0)
(-0.0955097 0.104709 3.60594e-21)
(-0.110959 0.112716 -1.77934e-21)
(-0.126234 0.118551 0)
(-0.141212 0.122463 -1.64112e-21)
(-0.155742 0.124649 0)
(-0.169701 0.125273 3.31009e-21)
(-0.183021 0.124497 0)
(-0.195682 0.122503 1.58717e-21)