/*--------------------------------*- C++ -*----------------------------------*\
  =========                 |
  \\      /  F ield         | OpenFOAM: The Open Source CFD Toolbox
   \\    /   O peration     | Website:  https://openfoam.org
    \\  /    A nd           | Version:  6
     \\/     M anipulation  |
\*---------------------------------------------------------------------------*/
FoamFile
{
    version     2.0;
    format      ascii;
    class       volScalarField;
    location    "0.04";
    object      epsilon;
}
// * * * * * * * * * * * * * * * * * * * * * * * * * * * * * * * * * * * * * //

dimensions      [0 2 -3 0 0 0 0];

internalField   nonuniform List<scalar> 
3080
(
4.68882
4.69288
4.69698
4.70112
4.7053
4.70952
4.71377
4.71806
4.72237
4.7267
4.73105
4.7354
4.73974
4.74405
4.74831
4.75248
4.75651
4.76035
4.76391
4.76708
4.76968
4.77148
4.77209
4.77093
4.76699
4.75842
4.74159
4.70852
4.64296
4.51144
2.43498
2.43606
2.43716
2.43826
2.43938
2.44051
2.44166
2.44282
2.44398
2.44516
2.44635
2.44754
2.44874
2.44994
2.45114
2.45232
2.4535
2.45464
2.45574
2.45678
2.45774
2.45858
2.45925
2.45968
2.45979
2.45946
2.4586
2.45737
2.45763
2.46914
2.13169
2.13206
2.13243
2.13282
2.1332
2.1336
2.134
2.1344
2.13481
2.13522
2.13564
2.13606
2.13648
2.1369
2.13732
2.13773
2.13813
2.13851
2.13887
2.1392
2.13948
2.13969
2.13982
2.13982
2.13966
2.13929
2.13869
2.13803
2.13837
2.14458
2.07324
2.07327
2.0733
2.07334
2.07338
2.07342
2.07346
2.07351
2.07355
2.0736
2.07365
2.07369
2.07374
2.07378
2.07382
2.07385
2.07387
2.07388
2.07387
2.07383
2.07375
2.07362
2.07342
2.07313
2.07271
2.07214
2.07138
2.07053
2.07011
2.07229
2.07952
2.07935
2.07919
2.07902
2.07886
2.07869
2.07853
2.07836
2.07819
2.07802
2.07785
2.07768
2.07751
2.07733
2.07714
2.07695
2.07674
2.07652
2.07628
2.07602
2.07572
2.07537
2.07497
2.07448
2.07388
2.07314
2.07222
2.07117
2.07023
2.07044
2.10703
2.10674
2.10646
2.10617
2.10588
2.10559
2.1053
2.105
2.10471
2.10441
2.10411
2.1038
2.10349
2.10317
2.10285
2.10251
2.10217
2.10181
2.10143
2.10103
2.10059
2.10011
2.09957
2.09896
2.09824
2.09739
2.09638
2.0952
2.09398
2.09327
2.14069
2.14034
2.13998
2.13963
2.13927
2.1389
2.13854
2.13817
2.1378
2.13742
2.13704
2.13666
2.13627
2.13587
2.13547
2.13505
2.13463
2.13418
2.13372
2.13324
2.13272
2.13217
2.13155
2.13087
2.1301
2.1292
2.12814
2.12692
2.12559
2.12451
2.17438
2.17399
2.1736
2.17321
2.17282
2.17242
2.17202
2.17162
2.17121
2.17079
2.17038
2.16995
2.16953
2.16909
2.16864
2.16819
2.16772
2.16724
2.16674
2.16622
2.16567
2.16507
2.16443
2.16373
2.16294
2.16203
2.16099
2.15979
2.15847
2.15728
2.2055
2.2051
2.20471
2.20431
2.20391
2.2035
2.20309
2.20268
2.20226
2.20184
2.20141
2.20098
2.20054
2.20009
2.19963
2.19917
2.19869
2.1982
2.19769
2.19716
2.1966
2.19601
2.19537
2.19467
2.19389
2.19302
2.19203
2.1909
2.18966
2.18851
2.23304
2.23266
2.23227
2.23188
2.23149
2.2311
2.2307
2.23029
2.22988
2.22947
2.22905
2.22863
2.22819
2.22776
2.22731
2.22686
2.22639
2.22591
2.22541
2.2249
2.22435
2.22378
2.22317
2.2225
2.22177
2.22095
2.22004
2.21901
2.21789
2.21686
2.25676
2.25641
2.25604
2.25568
2.2553
2.25493
2.25455
2.25417
2.25378
2.25339
2.253
2.25259
2.25219
2.25177
2.25135
2.25092
2.25048
2.25002
2.24955
2.24907
2.24855
2.24802
2.24744
2.24683
2.24615
2.24541
2.24459
2.24368
2.24271
2.24182
2.27647
2.27614
2.2758
2.27546
2.27511
2.27477
2.27441
2.27406
2.2737
2.27333
2.27296
2.27258
2.2722
2.27181
2.27141
2.27101
2.27059
2.27016
2.26971
2.26924
2.26875
2.26822
2.26766
2.26706
2.2664
2.26568
2.26489
2.26407
2.26333
2.29316
2.29286
2.29256
2.29225
2.29194
2.29163
2.29131
2.29099
2.29066
2.29033
2.29
2.28966
2.28931
2.28896
2.2886
2.28823
2.28786
2.28747
2.28706
2.28664
2.2862
2.28573
2.28524
2.2847
2.28413
2.28351
2.28285
2.28217
2.28158
2.30686
2.3066
2.30633
2.30606
2.30578
2.3055
2.30522
2.30494
2.30465
2.30436
2.30406
2.30376
2.30345
2.30314
2.30282
2.3025
2.30216
2.30182
2.30146
2.30109
2.3007
2.30029
2.29986
2.2994
2.29891
2.29839
2.29785
2.2973
2.29685
2.31797
2.31774
2.3175
2.31727
2.31703
2.31679
2.31654
2.31629
2.31604
2.31579
2.31553
2.31527
2.315
2.31473
2.31445
2.31417
2.31388
2.31357
2.31326
2.31294
2.31261
2.31226
2.31189
2.3115
2.31109
2.31066
2.31022
2.3098
2.30948
2.32695
2.32675
2.32655
2.32634
2.32614
2.32593
2.32572
2.3255
2.32528
2.32506
2.32484
2.32461
2.32438
2.32414
2.3239
2.32365
2.3234
2.32314
2.32287
2.32259
2.3223
2.322
2.32169
2.32136
2.32102
2.32068
2.32033
2.32002
2.31979
2.33398
2.33381
2.33364
2.33347
2.3333
2.33312
2.33294
2.33276
2.33257
2.33239
2.3322
2.33201
2.33181
2.33161
2.33141
2.3312
2.33098
2.33076
2.33054
2.3303
2.33006
2.32981
2.32955
2.32929
2.32902
2.32874
2.32849
2.32826
2.32813
2.33933
2.33919
2.33906
2.33892
2.33878
2.33863
2.33849
2.33834
2.33819
2.33804
2.33789
2.33773
2.33758
2.33741
2.33725
2.33708
2.33691
2.33673
2.33655
2.33636
2.33617
2.33597
2.33577
2.33556
2.33535
2.33516
2.33498
2.33484
2.33479
2.34339
2.34329
2.34318
2.34307
2.34296
2.34285
2.34274
2.34263
2.34251
2.34239
2.34227
2.34215
2.34203
2.3419
2.34177
2.34164
2.34151
2.34137
2.34123
2.34109
2.34094
2.34079
2.34064
2.34048
2.34034
2.34021
2.3401
2.34004
2.34006
2.34647
2.34639
2.34631
2.34623
2.34615
2.34607
2.34598
2.34589
2.34581
2.34572
2.34563
2.34554
2.34545
2.34535
2.34526
2.34516
2.34506
2.34496
2.34485
2.34474
2.34464
2.34453
2.34442
2.34431
2.34422
2.34414
2.3441
2.3441
2.34418
2.3488
2.34874
2.34868
2.34862
2.34856
2.3485
2.34844
2.34838
2.34831
2.34825
2.34818
2.34812
2.34805
2.34798
2.34791
2.34784
2.34777
2.3477
2.34762
2.34755
2.34747
2.3474
2.34733
2.34726
2.34721
2.34718
2.34718
2.34723
2.34736
2.35054
2.3505
2.35046
2.35041
2.35037
2.35033
2.35029
2.35024
2.3502
2.35015
2.35011
2.35006
2.35002
2.34997
2.34992
2.34987
2.34983
2.34978
2.34972
2.34967
2.34962
2.34958
2.34953
2.3495
2.34948
2.34949
2.34953
2.34962
2.34978
2.35183
2.3518
2.35177
2.35174
2.35171
2.35169
2.35166
2.35163
2.3516
2.35157
2.35154
2.35151
2.35148
2.35145
2.35142
2.35139
2.35136
2.35132
2.35129
2.35126
2.35123
2.3512
2.35118
2.35117
2.35118
2.35121
2.35128
2.3514
2.3516
2.35276
2.35274
2.35272
2.35271
2.35269
2.35267
2.35265
2.35263
2.35261
2.3526
2.35258
2.35256
2.35254
2.35252
2.3525
2.35249
2.35247
2.35245
2.35243
2.35241
2.3524
2.35239
2.35238
2.35239
2.35242
2.35247
2.35256
2.3527
2.35291
2.35341
2.35339
2.35338
2.35337
2.35336
2.35335
2.35334
2.35333
2.35332
2.35331
2.3533
2.35329
2.35328
2.35327
2.35326
2.35325
2.35324
2.35323
2.35322
2.35322
2.35321
2.35321
2.35322
2.35324
2.35328
2.35335
2.35345
2.35361
2.35383
2.35382
2.35381
2.3538
2.3538
2.35379
2.35379
2.35378
2.35378
2.35377
2.35377
2.35376
2.35376
2.35375
2.35375
2.35374
2.35374
2.35374
2.35373
2.35373
2.35373
2.35373
2.35374
2.35376
2.35378
2.35383
2.35391
2.35402
2.35419
2.35442
2.35402
2.35402
2.35402
2.35401
2.35401
2.35401
2.35401
2.354
2.354
2.354
2.354
2.35399
2.35399
2.35399
2.35399
2.35399
2.35399
2.35399
2.35399
2.35399
2.354
2.35401
2.35403
2.35406
2.35411
2.35419
2.35431
2.35448
2.35472
2.35405
2.35405
2.35405
2.35405
2.35404
2.35404
2.35404
2.35403
2.35403
2.35403
2.35403
2.35403
2.35402
2.35402
2.35402
2.35402
2.35402
2.35402
2.35402
2.35403
2.35403
2.35404
2.35406
2.3541
2.35415
2.35423
2.35435
2.35452
2.35476
2.35384
2.35384
2.35383
2.35382
2.35382
2.35381
2.35381
2.3538
2.35379
2.35379
2.35378
2.35378
2.35377
2.35377
2.35376
2.35376
2.35375
2.35375
2.35374
2.35374
2.35374
2.35375
2.35377
2.35379
2.35384
2.35392
2.35403
2.3542
2.35443
2.35337
2.35336
2.35334
2.35333
2.35332
2.3533
2.35329
2.35327
2.35326
2.35325
2.35323
2.35322
2.3532
2.35319
2.35317
2.35316
2.35315
2.35313
2.35312
2.35311
2.3531
2.35309
2.3531
2.35311
2.35315
2.35321
2.35331
2.35347
2.3537
2.3526
2.35257
2.35254
2.35252
2.35249
2.35246
2.35244
2.35241
2.35238
2.35235
2.35233
2.3523
2.35227
2.35224
2.35221
2.35218
2.35215
2.35212
2.35209
2.35206
2.35203
2.35201
2.35199
2.35199
2.352
2.35204
2.35212
2.35226
2.35247
2.35145
2.35141
2.35136
2.35132
2.35127
2.35123
2.35118
2.35113
2.35108
2.35103
2.35098
2.35093
2.35088
2.35083
2.35077
2.35072
2.35066
2.35061
2.35055
2.3505
2.35044
2.35039
2.35034
2.35031
2.35029
2.35029
2.35034
2.35044
2.35062
2.34985
2.34978
2.34971
2.34964
2.34956
2.34949
2.34941
2.34933
2.34925
2.34917
2.34909
2.34901
2.34892
2.34884
2.34875
2.34866
2.34857
2.34847
2.34838
2.34828
2.34819
2.34809
2.348
2.34792
2.34785
2.3478
2.34779
2.34784
2.34797
2.34767
2.34756
2.34745
2.34734
2.34723
2.34711
2.347
2.34688
2.34675
2.34663
2.3465
2.34637
2.34624
2.3461
2.34597
2.34582
2.34568
2.34553
2.34538
2.34523
2.34507
2.34492
2.34476
2.34461
2.34447
2.34435
2.34427
2.34424
2.34431
2.34476
2.3446
2.34444
2.34427
2.3441
2.34393
2.34376
2.34358
2.3434
2.34321
2.34302
2.34283
2.34263
2.34243
2.34222
2.34201
2.34179
2.34157
2.34134
2.34111
2.34087
2.34063
2.34038
2.34014
2.3399
2.33968
2.33949
2.33935
2.33932
2.34091
2.34068
2.34045
2.34021
2.33997
2.33973
2.33947
2.33922
2.33895
2.33869
2.33841
2.33813
2.33784
2.33755
2.33725
2.33694
2.33663
2.33631
2.33597
2.33563
2.33528
2.33493
2.33456
2.33419
2.33382
2.33346
2.33312
2.33284
2.33268
2.33589
2.33557
2.33525
2.33491
2.33458
2.33423
2.33388
2.33351
2.33314
2.33277
2.33238
2.33199
2.33158
2.33117
2.33075
2.33031
2.32987
2.32941
2.32894
2.32846
2.32796
2.32745
2.32693
2.32639
2.32585
2.32531
2.32478
2.32431
2.32397
2.32939
2.32896
2.32851
2.32806
2.32759
2.32712
2.32663
2.32614
2.32563
2.32511
2.32458
2.32404
2.32348
2.32291
2.32233
2.32173
2.32112
2.32049
2.31984
2.31918
2.31849
2.31779
2.31706
2.31631
2.31555
2.31478
2.31401
2.31329
2.31273
2.32118
2.3206
2.32
2.31938
2.31876
2.31812
2.31746
2.31679
2.31611
2.31541
2.31469
2.31396
2.31321
2.31244
2.31165
2.31084
2.31002
2.30916
2.30829
2.30739
2.30646
2.30551
2.30452
2.3035
2.30246
2.30139
2.30032
2.29929
2.29845
2.31087
2.31009
2.3093
2.30848
2.30765
2.30681
2.30594
2.30505
2.30415
2.30322
2.30227
2.3013
2.3003
2.29928
2.29824
2.29717
2.29607
2.29495
2.29379
2.2926
2.29137
2.29011
2.2888
2.28745
2.28606
2.28464
2.2832
2.2818
2.2806
2.2976
2.2966
2.29557
2.29453
2.29345
2.29236
2.29124
2.2901
2.28893
2.28774
2.28651
2.28526
2.28398
2.28267
2.28133
2.27996
2.27855
2.27711
2.27562
2.2741
2.27253
2.27091
2.26924
2.26751
2.26574
2.26391
2.26206
2.26025
2.25867
2.28053
2.27927
2.27798
2.27666
2.27532
2.27395
2.27255
2.27112
2.26966
2.26816
2.26664
2.26508
2.26348
2.26185
2.26019
2.25848
2.25673
2.25494
2.25311
2.25122
2.24929
2.24729
2.24524
2.24312
2.24094
2.23869
2.23643
2.2342
2.23227
2.2592
2.25768
2.25613
2.25455
2.25294
2.2513
2.24962
2.24791
2.24616
2.24438
2.24257
2.24072
2.23883
2.2369
2.23493
2.23291
2.23086
2.22875
2.2266
2.22439
2.22213
2.2198
2.21741
2.21495
2.21242
2.20983
2.20722
2.20467
2.20252
2.23369
2.23197
2.23022
2.22844
2.22662
2.22478
2.2229
2.22099
2.21905
2.21707
2.21506
2.21301
2.21092
2.2088
2.20664
2.20443
2.20219
2.19989
2.19755
2.19516
2.19272
2.19021
2.18764
2.185
2.18229
2.17953
2.17678
2.17412
2.17204
2.20336
2.20157
2.19975
2.1979
2.19603
2.19413
2.1922
2.19025
2.18827
2.18625
2.18421
2.18214
2.18005
2.17791
2.17575
2.17356
2.17133
2.16906
2.16676
2.16441
2.16201
2.15957
2.15706
2.1545
2.15188
2.14922
2.14661
2.14417
2.14255
2.16765
2.166
2.16434
2.16266
2.16096
2.15924
2.15751
2.15576
2.15399
2.1522
2.1504
2.14858
2.14675
2.14489
2.14302
2.14112
2.13921
2.13727
2.1353
2.13331
2.13128
2.12922
2.12711
2.12496
2.12276
2.12053
2.11841
2.11656
2.11592
2.1318
2.13048
2.12916
2.12784
2.1265
2.12516
2.12381
2.12246
2.1211
2.11973
2.11836
2.11698
2.1156
2.11421
2.11281
2.11141
2.11
2.10857
2.10713
2.10568
2.1042
2.1027
2.10116
2.09958
2.09796
2.09633
2.09485
2.09377
2.09445
2.10262
2.1017
2.10077
2.09985
2.09893
2.09802
2.0971
2.09619
2.09529
2.09439
2.09349
2.0926
2.09171
2.09083
2.08995
2.08908
2.0882
2.08733
2.08645
2.08557
2.08467
2.08375
2.08281
2.08182
2.08081
2.07978
2.07894
2.07864
2.08088
2.0819
2.08147
2.08104
2.08062
2.08022
2.07983
2.07945
2.07909
2.07874
2.0784
2.07808
2.07778
2.07749
2.07721
2.07695
2.0767
2.07645
2.07622
2.07598
2.07574
2.07548
2.0752
2.07487
2.07451
2.07412
2.07395
2.07447
2.07855
2.07601
2.07614
2.07629
2.07645
2.07664
2.07685
2.07708
2.07734
2.07762
2.07792
2.07825
2.0786
2.07898
2.07938
2.0798
2.08024
2.08071
2.08118
2.08166
2.08214
2.0826
2.08304
2.08342
2.08376
2.08403
2.0845
2.08581
2.09204
2.0909
2.09167
2.09247
2.0933
2.09415
2.09504
2.09596
2.09692
2.0979
2.09893
2.09998
2.10107
2.10219
2.10335
2.10454
2.10575
2.10699
2.10825
2.10952
2.11079
2.11204
2.11325
2.11439
2.11544
2.11638
2.11745
2.11944
2.1281
2.13742
2.13893
2.14048
2.14207
2.14369
2.14536
2.14707
2.14882
2.15061
2.15245
2.15434
2.15626
2.15823
2.16025
2.1623
2.16438
2.1665
2.16864
2.17079
2.17294
2.17506
2.17713
2.17909
2.1809
2.18249
2.18408
2.18655
2.19786
2.23523
2.23763
2.24007
2.24256
2.24511
2.2477
2.25036
2.25306
2.25582
2.25864
2.26151
2.26444
2.26742
2.27045
2.27353
2.27665
2.27981
2.28299
2.28618
2.28936
2.29249
2.29554
2.29841
2.30105
2.30329
2.30528
2.30782
2.32187
2.42629
2.42985
2.43346
2.43715
2.44089
2.44471
2.4486
2.45256
2.45658
2.46068
2.46485
2.46909
2.47339
2.47776
2.48219
2.48666
2.49118
2.49572
2.50026
2.50476
2.50918
2.51346
2.51746
2.52106
2.52394
2.52612
2.52796
2.54432
2.82371
2.82907
2.83451
2.84005
2.84567
2.85139
2.85721
2.86311
2.86912
2.87522
2.88141
2.88769
2.89407
2.90052
2.90704
2.91363
2.92025
2.92689
2.93351
2.94004
2.94642
2.95252
2.95814
2.96304
2.96659
2.96845
2.96776
2.98369
3.8807
3.88999
3.89942
3.90899
3.91872
3.92859
3.93862
3.94879
3.95912
3.96959
3.98022
3.99098
4.00187
4.01288
4.02399
4.03516
4.04638
4.05757
4.06866
4.07953
4.09003
4.0999
4.10872
4.11587
4.12003
4.11929
4.10941
4.10478
9.55453
9.58191
9.6097
9.63788
9.66648
9.69548
9.72489
9.75472
9.78494
9.81555
9.84653
9.87784
9.90946
9.94132
9.97332
10.0054
10.0373
10.0689
10.0997
10.1294
10.1573
10.182
10.2023
10.2131
10.2133
10.1742
10.0822
9.69516
4.80277
4.92834
5.04794
5.14525
5.21378
5.26835
5.31884
5.36761
5.4197
5.47666
5.53981
5.60991
5.68724
5.77192
5.86436
5.96494
6.07506
6.19457
6.32843
6.46988
6.64231
6.80088
7.05975
7.19862
7.85293
2.47763
2.49514
2.52056
2.54849
2.57364
2.59466
2.61257
2.62868
2.64511
2.66215
2.6802
2.69979
2.72129
2.7449
2.7708
2.7992
2.83029
2.86453
2.90217
2.94405
2.99106
3.04336
3.1063
3.17667
3.29939
2.14743
2.15508
2.16682
2.18095
2.19495
2.20717
2.2174
2.22615
2.23436
2.24252
2.25099
2.26013
2.2702
2.28137
2.29374
2.30744
2.32258
2.3394
2.35802
2.37896
2.40239
2.42926
2.46018
2.49864
2.55273
2.07564
2.08091
2.08794
2.09639
2.10505
2.11277
2.11915
2.12434
2.12882
2.13302
2.13726
2.14181
2.14691
2.15268
2.15921
2.16659
2.17489
2.18427
2.19481
2.20686
2.22051
2.2365
2.25486
2.27904
2.31046
2.07399
2.07837
2.08322
2.08868
2.09423
2.09915
2.10309
2.10607
2.10833
2.11022
2.112
2.11391
2.11614
2.1188
2.12197
2.12571
2.13009
2.1352
2.14111
2.14808
2.15616
2.16596
2.17736
2.19335
2.21361
2.09665
2.1005
2.10416
2.10789
2.11151
2.1146
2.1169
2.1184
2.11923
2.11963
2.11985
2.12008
2.12048
2.12116
2.12218
2.12358
2.12542
2.12777
2.13069
2.13437
2.13884
2.14463
2.15154
2.16222
2.17575
2.12754
2.13093
2.13386
2.13653
2.13892
2.1408
2.14201
2.14251
2.1424
2.14185
2.14106
2.1402
2.13941
2.13878
2.13837
2.13822
2.13835
2.13884
2.13973
2.14117
2.14317
2.14621
2.15002
2.15702
2.16603
2.1599
2.16287
2.16528
2.16729
2.1689
2.17
2.17049
2.17035
2.16965
2.16851
2.16709
2.16555
2.164
2.16253
2.16118
2.15999
2.15898
2.15821
2.15771
2.1576
2.15788
2.159
2.16061
2.16499
2.17074
2.19074
2.1933
2.19532
2.19688
2.198
2.19862
2.19868
2.19816
2.19712
2.19565
2.19389
2.19195
2.18995
2.18796
2.18603
2.18418
2.18243
2.18083
2.17939
2.17824
2.17733
2.17712
2.17716
2.17965
2.18298
2.21872
2.22091
2.22262
2.22388
2.22469
2.22503
2.22485
2.22415
2.22296
2.22135
2.21944
2.21733
2.21511
2.21284
2.21058
2.20835
2.20616
2.20404
2.20201
2.20019
2.19849
2.19737
2.1963
2.19745
2.19893
2.24336
2.24521
2.24667
2.24772
2.24836
2.24855
2.24827
2.24751
2.24631
2.24471
2.24279
2.24066
2.23839
2.23604
2.23364
2.23123
2.22881
2.22643
2.22406
2.22183
2.21964
2.21795
2.21613
2.21633
2.21641
2.2646
2.26617
2.26742
2.26832
2.26886
2.26899
2.26871
2.268
2.26687
2.26537
2.26356
2.26152
2.25932
2.25701
2.25462
2.25219
2.24971
2.24723
2.24473
2.24231
2.23985
2.23784
2.23554
2.23509
2.23411
2.28263
2.28395
2.28503
2.28582
2.28631
2.28646
2.28623
2.28562
2.28464
2.28331
2.28167
2.2798
2.27776
2.27558
2.27331
2.27096
2.26855
2.26611
2.2636
2.26116
2.25861
2.25645
2.25389
2.25303
2.25126
2.29772
2.29883
2.29977
2.3005
2.30097
2.30115
2.30102
2.30055
2.29975
2.29863
2.29722
2.29557
2.29374
2.29176
2.28967
2.28749
2.28523
2.28292
2.28053
2.27817
2.27566
2.27351
2.27084
2.26975
2.2674
2.3102
2.31114
2.31197
2.31264
2.31312
2.31337
2.31335
2.31304
2.31244
2.31155
2.31038
2.30899
2.3074
2.30567
2.30381
2.30186
2.29981
2.29769
2.29549
2.29329
2.29092
2.28887
2.28623
2.28505
2.28228
2.32041
2.32121
2.32195
2.32259
2.32309
2.3234
2.3235
2.32336
2.32297
2.32231
2.3214
2.32028
2.31896
2.31749
2.31589
2.31419
2.31239
2.31052
2.30854
2.30657
2.3044
2.30253
2.29999
2.29883
2.29579
2.32866
2.32936
2.33003
2.33064
2.33116
2.33155
2.33177
2.3318
2.3316
2.33118
2.33053
2.32967
2.32862
2.32742
2.32609
2.32466
2.32313
2.32152
2.31981
2.3181
2.31618
2.31454
2.31216
2.31109
2.30789
2.33526
2.33588
2.3365
2.3371
2.33764
2.3381
2.33844
2.33862
2.33861
2.33841
2.338
2.3374
2.33662
2.33569
2.33463
2.33347
2.3322
2.33088
2.32944
2.32801
2.32635
2.32496
2.3228
2.32187
2.31858
2.34049
2.34104
2.34162
2.34221
2.34279
2.34331
2.34375
2.34407
2.34424
2.34424
2.34406
2.34369
2.34316
2.34249
2.34169
2.34079
2.3398
2.33874
2.33758
2.33643
2.33504
2.33393
2.33199
2.33123
2.32793
2.34457
2.34508
2.34563
2.34622
2.34682
2.3474
2.34793
2.34838
2.3487
2.34889
2.34891
2.34877
2.34847
2.34803
2.34747
2.34682
2.34608
2.34528
2.34438
2.3435
2.34239
2.34154
2.33984
2.33927
2.33599
2.34773
2.3482
2.34873
2.34932
2.34994
2.35057
2.35118
2.35174
2.3522
2.35255
2.35275
2.3528
2.3527
2.35248
2.35214
2.35172
2.35121
2.35065
2.35
2.34937
2.34851
2.34792
2.34645
2.34607
2.34285
2.35013
2.35058
2.3511
2.35168
2.35233
2.353
2.35368
2.35432
2.3549
2.35538
2.35574
2.35596
2.35604
2.35601
2.35586
2.35563
2.35533
2.35499
2.35456
2.35416
2.35353
2.35316
2.35192
2.35171
2.34857
2.35193
2.35235
2.35286
2.35345
2.35411
2.35482
2.35555
2.35628
2.35695
2.35754
2.35803
2.35839
2.35862
2.35874
2.35876
2.3587
2.35857
2.35841
2.35817
2.35797
2.35755
2.35739
2.35633
2.35629
2.35323
2.35324
2.35365
2.35415
2.35474
2.35542
2.35615
2.35693
2.35771
2.35846
2.35914
2.35973
2.3602
2.36055
2.3608
2.36095
2.36103
2.36105
2.36104
2.36096
2.36092
2.36066
2.36067
2.35978
2.35987
2.3569
2.35415
2.35455
2.35505
2.35565
2.35633
2.35709
2.35789
2.35872
2.35952
2.36027
2.36093
2.36149
2.36194
2.36228
2.36253
2.36271
2.36284
2.36294
2.36298
2.36307
2.36295
2.36308
2.36233
2.36251
2.35963
2.35473
2.35513
2.35563
2.35623
2.35692
2.35769
2.35852
2.35937
2.36021
2.361
2.36172
2.36233
2.36283
2.36324
2.36355
2.36381
2.36401
2.36419
2.36432
2.36449
2.36446
2.36468
2.36403
2.36427
2.36147
2.35503
2.35543
2.35593
2.35653
2.35722
2.358
2.35884
2.35971
2.36057
2.36138
2.36212
2.36276
2.3633
2.36373
2.36408
2.36437
2.36461
2.36484
2.36501
2.36522
2.36525
2.36551
2.36492
2.36517
2.36246
2.35508
2.35548
2.35597
2.35657
2.35727
2.35805
2.35889
2.35976
2.36063
2.36144
2.36218
2.36282
2.36336
2.36379
2.36414
2.36443
2.36467
2.3649
2.36508
2.3653
2.36534
2.36559
2.36504
2.36525
2.36263
2.35476
2.35516
2.35566
2.35627
2.35696
2.35774
2.35857
2.35942
2.36026
2.36104
2.36175
2.36234
2.36283
2.36322
2.36353
2.36377
2.36396
2.36414
2.36427
2.36443
2.36442
2.36461
2.36404
2.36416
2.3616
2.35403
2.35445
2.35496
2.35556
2.35625
2.35701
2.35781
2.35863
2.35942
2.36014
2.36077
2.36129
2.36169
2.36198
2.36219
2.36234
2.36243
2.36251
2.36253
2.36259
2.36247
2.36254
2.36188
2.36188
2.35933
2.35281
2.35325
2.35378
2.35438
2.35506
2.3558
2.35656
2.35731
2.35802
2.35865
2.35916
2.35956
2.35983
2.35999
2.36006
2.36006
2.36001
2.35993
2.35979
2.35969
2.35941
2.35932
2.3585
2.35836
2.35578
2.35099
2.35146
2.352
2.35261
2.35328
2.35398
2.35468
2.35535
2.35594
2.35644
2.3568
2.35703
2.35713
2.35711
2.35699
2.3568
2.35656
2.35628
2.35594
2.35563
2.35514
2.35483
2.35382
2.3535
2.35089
2.34838
2.34889
2.34946
2.35008
2.35072
2.35138
2.352
2.35255
2.35301
2.35333
2.3535
2.35352
2.3534
2.35316
2.35282
2.3524
2.35192
2.35141
2.35082
2.35026
2.34952
2.34896
2.34772
2.34721
2.34456
2.34475
2.34532
2.34593
2.34656
2.34718
2.34777
2.34829
2.34871
2.34898
2.3491
2.34904
2.34881
2.34843
2.34793
2.34733
2.34665
2.3459
2.34511
2.34425
2.34341
2.34238
2.34156
2.34007
2.33935
2.33668
2.33983
2.34048
2.34114
2.34179
2.34238
2.3429
2.34329
2.34353
2.34359
2.34345
2.34312
2.34261
2.34194
2.34115
2.34026
2.33929
2.33825
2.33717
2.33601
2.33486
2.33354
2.33244
2.33069
2.32978
2.32713
2.33327
2.33404
2.33477
2.33543
2.33599
2.33641
2.33665
2.33668
2.33649
2.33607
2.33542
2.3346
2.33361
2.33251
2.33131
2.33004
2.3287
2.32731
2.32585
2.32441
2.32279
2.32141
2.31944
2.31836
2.3158
2.32467
2.32558
2.3264
2.3271
2.32762
2.32792
2.32798
2.32778
2.3273
2.32656
2.32558
2.32441
2.3231
2.32168
2.32017
2.3186
2.31696
2.31528
2.31353
2.3118
2.30992
2.3083
2.30613
2.30496
2.30258
2.31358
2.31467
2.31561
2.31634
2.31682
2.31699
2.31685
2.31638
2.31559
2.3145
2.31318
2.31167
2.31003
2.3083
2.3065
2.30464
2.30273
2.30079
2.29879
2.29683
2.29473
2.29294
2.29065
2.28949
2.28741
2.29948
2.30081
2.30189
2.30267
2.30309
2.30313
2.30277
2.30202
2.3009
2.29947
2.2978
2.29596
2.29402
2.29201
2.28996
2.28788
2.28575
2.28361
2.28142
2.27931
2.27708
2.27523
2.27293
2.27192
2.27032
2.28186
2.28347
2.28472
2.28556
2.28594
2.28584
2.28526
2.28423
2.28279
2.28103
2.27904
2.27692
2.27474
2.27252
2.27029
2.26806
2.26581
2.26357
2.2613
2.25915
2.25693
2.25517
2.25301
2.25237
2.25146
2.26022
2.26215
2.26359
2.26452
2.26487
2.26465
2.26388
2.26259
2.26087
2.25883
2.2566
2.25429
2.25195
2.24963
2.24735
2.24509
2.24285
2.24065
2.23847
2.23647
2.23443
2.23297
2.23119
2.23118
2.23123
2.23415
2.23644
2.23812
2.23916
2.23953
2.23925
2.23833
2.23687
2.23495
2.23274
2.23038
2.228
2.22566
2.2234
2.22123
2.21913
2.21709
2.21515
2.21328
2.21166
2.21007
2.20921
2.20809
2.20912
2.21047
2.20484
2.20752
2.20946
2.21067
2.21116
2.21092
2.20999
2.20847
2.20651
2.20429
2.20199
2.19973
2.19759
2.19561
2.19377
2.19207
2.19048
2.18907
2.18779
2.18686
2.18604
2.18613
2.18603
2.18854
2.19158
2.17488
2.17796
2.18018
2.18167
2.1824
2.18236
2.1816
2.18022
2.1784
2.17636
2.17431
2.17239
2.17067
2.16919
2.16792
2.16685
2.16598
2.16536
2.16495
2.16502
2.16528
2.16666
2.16793
2.17233
2.17741
2.14603
2.14947
2.15205
2.15395
2.15511
2.15547
2.15507
2.15402
2.15254
2.15089
2.1493
2.14793
2.14686
2.1461
2.14564
2.14546
2.14555
2.146
2.14675
2.14812
2.14979
2.1528
2.1558
2.16248
2.17004
2.12013
2.12394
2.12696
2.12946
2.13128
2.13228
2.13246
2.13194
2.131
2.12995
2.12903
2.12843
2.12823
2.12843
2.12901
2.12997
2.1313
2.13309
2.1353
2.13828
2.1417
2.1467
2.15182
2.16119
2.17175
2.09942
2.10357
2.10719
2.11055
2.1133
2.11519
2.11617
2.11639
2.1162
2.11594
2.11591
2.1163
2.11719
2.11859
2.12047
2.12284
2.12568
2.12911
2.1331
2.13803
2.14356
2.15093
2.15859
2.17112
2.1853
2.08652
2.09105
2.0955
2.10005
2.10406
2.1071
2.1091
2.11027
2.11103
2.11178
2.11285
2.11446
2.11669
2.11955
2.123
2.12705
2.13172
2.13712
2.14324
2.1505
2.15855
2.16874
2.17944
2.19565
2.21428
2.08482
2.08985
2.09548
2.10164
2.10726
2.11174
2.11499
2.11732
2.11924
2.12122
2.12364
2.12672
2.13057
2.13517
2.1405
2.14659
2.15343
2.16119
2.16986
2.1799
2.19096
2.20451
2.21886
2.23944
2.26362
2.09889
2.10473
2.11206
2.12038
2.12802
2.13424
2.139
2.14272
2.14603
2.1495
2.15354
2.15841
2.1642
2.17091
2.17852
2.18706
2.19653
2.20715
2.21889
2.2323
2.247
2.26462
2.28342
2.30926
2.34056
2.13567
2.1429
2.15268
2.16385
2.17401
2.18232
2.18888
2.19427
2.19929
2.20456
2.2106
2.21766
2.22585
2.23516
2.24557
2.25713
2.26986
2.284
2.29956
2.31714
2.33639
2.35907
2.38348
2.41584
2.45662
2.20662
2.2163
2.22968
2.24462
2.25793
2.2688
2.27754
2.28501
2.29215
2.29972
2.30828
2.31813
2.32937
2.342
2.35601
2.37144
2.38837
2.40705
2.42754
2.45054
2.47569
2.50494
2.53678
2.5776
2.63167
2.33319
2.3472
2.36597
2.38605
2.40341
2.41753
2.42909
2.43928
2.44924
2.45988
2.47184
2.48546
2.50085
2.518
2.53691
2.55765
2.58032
2.60526
2.63255
2.66302
2.69641
2.73479
2.77716
2.8297
2.90377
2.56195
2.58376
2.61116
2.63866
2.6616
2.68026
2.69583
2.70997
2.72409
2.73927
2.75629
2.77555
2.79715
2.8211
2.8474
2.87618
2.90759
2.94205
2.97976
3.02168
3.06783
3.1202
3.1793
3.24963
3.35731
3.01929
3.0565
3.09982
3.13947
3.17131
3.19751
3.2199
3.24093
3.26232
3.28549
3.31144
3.34067
3.37332
3.40941
3.44897
3.4922
3.53938
3.59107
3.64777
3.71051
3.78032
3.85804
3.94912
4.05085
4.22637
4.2118
4.28821
4.3726
4.43874
4.49001
4.53399
4.57275
4.61053
4.64964
4.69232
4.74013
4.7939
4.85386
4.92006
4.99265
5.07196
5.15877
5.25371
5.35871
5.47375
5.60511
5.74551
5.92333
6.09822
6.46736
10.5301
10.8166
11.138
11.3187
11.4578
11.59
11.7094
11.8266
11.951
12.0891
12.2456
12.4223
12.62
12.8381
13.078
13.3392
13.628
13.9393
14.2946
14.6642
15.1254
15.5475
16.2215
16.6534
18.1946
)
;

boundaryField
{
    inlet
    {
        type            fixedValue;
        value           nonuniform 0();
    }
    outlet
    {
        type            zeroGradient;
    }
    upperWall
    {
        Cmu             0.09;
        kappa           0.41;
        E               9.8;
        type            epsilonWallFunction;
        value           nonuniform List<scalar> 
53
(
9.55453
9.58191
9.6097
9.63788
9.66648
9.69548
9.72489
9.75472
9.78494
9.81555
9.84653
9.87784
9.90946
9.94132
9.97332
10.0054
10.0373
10.0689
10.0997
10.1294
10.1573
10.182
10.2023
10.2131
10.2133
10.1742
10.0822
9.69516
10.5301
10.8166
11.138
11.3187
11.4578
11.59
11.7094
11.8266
11.951
12.0891
12.2456
12.4223
12.62
12.8381
13.078
13.3392
13.628
13.9393
14.2946
14.6642
15.1254
15.5475
16.2215
16.6534
18.1946
)
;
    }
    lowerWall
    {
        Cmu             0.09;
        kappa           0.41;
        E               9.8;
        type            epsilonWallFunction;
        value           nonuniform List<scalar> 
55
(
4.68882
4.69288
4.69698
4.70112
4.7053
4.70952
4.71377
4.71806
4.72237
4.7267
4.73105
4.7354
4.73974
4.74405
4.74831
4.75248
4.75651
4.76035
4.76391
4.76708
4.76968
4.77148
4.77209
4.77093
4.76699
4.75842
4.74159
4.70852
4.64296
4.51144
4.80277
4.92834
5.04794
5.14525
5.21378
5.26835
5.31884
5.36761
5.4197
5.47666
5.53981
5.60991
5.68724
5.77192
5.86436
5.96494
6.07506
6.19457
6.32843
6.46988
6.64231
6.80088
7.05975
7.19862
7.85293
)
;
    }
    frontAndBack
    {
        type            empty;
    }
    procBoundary0to1
    {
        type            processor;
        value           nonuniform List<scalar> 
59
(
4.6848
2.43391
2.13132
2.07321
2.07968
2.10731
2.14104
2.17476
2.20588
2.23342
2.25712
2.2768
2.2768
2.29346
2.30712
2.31819
2.32714
2.33414
2.33946
2.3435
2.34655
2.34886
2.35058
2.35185
2.35278
2.35341
2.35382
2.35403
2.35406
2.35385
2.35338
2.35262
2.35149
2.34992
2.34778
2.34491
2.34113
2.3362
2.32982
2.32176
2.31163
2.29858
2.28176
2.26069
2.23538
2.20513
2.16928
2.1331
2.10354
2.08235
2.08235
2.0759
2.09016
2.13595
2.23289
2.4228
2.81844
3.87155
9.52755
)
;
    }
}


// ************************************************************************* //
