/*--------------------------------*- C++ -*----------------------------------*\
  =========                 |
  \\      /  F ield         | OpenFOAM: The Open Source CFD Toolbox
   \\    /   O peration     | Website:  https://openfoam.org
    \\  /    A nd           | Version:  6
     \\/     M anipulation  |
\*---------------------------------------------------------------------------*/
FoamFile
{
    version     2.0;
    format      ascii;
    class       volScalarField;
    location    "0.04";
    object      k;
}
// * * * * * * * * * * * * * * * * * * * * * * * * * * * * * * * * * * * * * //

dimensions      [0 2 -2 0 0 0 0];

internalField   nonuniform List<scalar> 
3080
(
0.0313986
0.0313841
0.0313695
0.0313547
0.0313397
0.0313246
0.0313093
0.0312938
0.0312781
0.0312622
0.031246
0.0312294
0.0312125
0.0311951
0.031177
0.0311582
0.0311385
0.0311175
0.0310949
0.0310703
0.0310427
0.0310113
0.0309743
0.0309292
0.0308716
0.0307935
0.0306793
0.0304944
0.0301684
0.0295548
0.0629631
0.0629284
0.0628934
0.0628581
0.0628225
0.0627866
0.0627503
0.0627136
0.0626766
0.062639
0.062601
0.0625623
0.0625228
0.0624826
0.0624412
0.0623985
0.0623542
0.0623079
0.0622587
0.0622061
0.0621486
0.0620846
0.0620112
0.061924
0.0618154
0.0616718
0.0614647
0.061142
0.0605643
0.0596935
0.0800461
0.0800012
0.079956
0.0799103
0.0798643
0.0798178
0.0797709
0.0797236
0.0796757
0.0796272
0.0795781
0.0795283
0.0794776
0.0794259
0.079373
0.0793187
0.0792625
0.0792039
0.0791424
0.0790771
0.0790065
0.0789289
0.0788414
0.0787394
0.0786154
0.0784563
0.0782365
0.0779104
0.077379
0.0766031
0.0922439
0.0921923
0.0921403
0.0920879
0.0920349
0.0919815
0.0919276
0.0918731
0.0918181
0.0917624
0.091706
0.0916488
0.0915906
0.0915314
0.0914709
0.0914089
0.0913449
0.0912785
0.091209
0.0911356
0.0910569
0.0909711
0.0908753
0.0907652
0.0906337
0.0904687
0.0902482
0.0899352
0.0894632
0.0888149
0.101897
0.101841
0.101785
0.101728
0.101671
0.101613
0.101554
0.101495
0.101436
0.101376
0.101315
0.101253
0.10119
0.101126
0.10106
0.100993
0.100924
0.100853
0.100779
0.1007
0.100617
0.100526
0.100425
0.100311
0.100176
0.10001
0.0997939
0.0994983
0.0990787
0.0985335
0.109842
0.109784
0.109726
0.109667
0.109607
0.109547
0.109486
0.109425
0.109363
0.1093
0.109236
0.109172
0.109107
0.10904
0.108972
0.108903
0.108831
0.108757
0.10868
0.108599
0.108513
0.10842
0.108318
0.108203
0.108068
0.107904
0.107696
0.107421
0.107048
0.106586
0.116492
0.116434
0.116375
0.116315
0.116255
0.116194
0.116133
0.116071
0.116009
0.115945
0.115881
0.115816
0.11575
0.115683
0.115614
0.115544
0.115472
0.115398
0.11532
0.115239
0.115153
0.11506
0.114958
0.114844
0.114713
0.114555
0.114358
0.114105
0.113775
0.113381
0.122096
0.122038
0.12198
0.121922
0.121862
0.121803
0.121742
0.121681
0.12162
0.121557
0.121494
0.12143
0.121365
0.121298
0.121231
0.121162
0.121091
0.121017
0.120941
0.120862
0.120777
0.120687
0.120588
0.120478
0.120351
0.120202
0.120018
0.119788
0.119497
0.119161
0.126824
0.126768
0.126713
0.126656
0.126599
0.126541
0.126483
0.126424
0.126365
0.126304
0.126243
0.126181
0.126119
0.126055
0.125989
0.125923
0.125854
0.125783
0.12571
0.125633
0.125552
0.125465
0.125371
0.125266
0.125147
0.125008
0.124839
0.124632
0.124378
0.124092
0.130806
0.130754
0.130701
0.130648
0.130594
0.130539
0.130484
0.130428
0.130372
0.130315
0.130257
0.130198
0.130138
0.130078
0.130016
0.129953
0.129888
0.129821
0.129751
0.129679
0.129602
0.12952
0.129432
0.129334
0.129223
0.129095
0.128943
0.128759
0.128539
0.128295
0.134148
0.1341
0.13405
0.134001
0.13395
0.1339
0.133848
0.133796
0.133744
0.13369
0.133637
0.133582
0.133526
0.13347
0.133412
0.133353
0.133292
0.13323
0.133165
0.133097
0.133026
0.13295
0.132869
0.132778
0.132677
0.132562
0.132426
0.132264
0.132074
0.131869
0.136893
0.136848
0.136802
0.136756
0.13671
0.136663
0.136615
0.136567
0.136518
0.136468
0.136418
0.136367
0.136315
0.136262
0.136208
0.136152
0.136095
0.136035
0.135973
0.135908
0.135839
0.135764
0.135683
0.135592
0.135488
0.135369
0.135228
0.135066
0.134894
0.13921
0.139169
0.139128
0.139087
0.139045
0.139002
0.138959
0.138915
0.138871
0.138826
0.138781
0.138735
0.138688
0.13864
0.138591
0.13854
0.138488
0.138435
0.138379
0.13832
0.138258
0.138191
0.138118
0.138037
0.137946
0.137842
0.137721
0.137585
0.137441
0.141118
0.141081
0.141045
0.141008
0.140971
0.140933
0.140894
0.140856
0.140816
0.140776
0.140736
0.140695
0.140653
0.14061
0.140566
0.140521
0.140475
0.140427
0.140377
0.140325
0.140269
0.14021
0.140146
0.140075
0.139996
0.139907
0.139805
0.13969
0.139572
0.142675
0.142644
0.142612
0.142579
0.142547
0.142513
0.14248
0.142446
0.142411
0.142376
0.14234
0.142304
0.142267
0.142229
0.142191
0.142151
0.142111
0.142068
0.142025
0.141979
0.14193
0.141879
0.141823
0.141762
0.141694
0.141618
0.141533
0.141439
0.141342
0.143948
0.14392
0.143892
0.143864
0.143835
0.143806
0.143777
0.143747
0.143716
0.143685
0.143654
0.143622
0.14359
0.143557
0.143523
0.143488
0.143453
0.143416
0.143377
0.143337
0.143295
0.14325
0.143202
0.143149
0.143092
0.143027
0.142956
0.142879
0.142801
0.144955
0.144932
0.144908
0.144884
0.14486
0.144835
0.14481
0.144784
0.144758
0.144732
0.144705
0.144678
0.14465
0.144622
0.144593
0.144563
0.144533
0.144501
0.144468
0.144434
0.144398
0.14436
0.144319
0.144275
0.144227
0.144174
0.144116
0.144054
0.143993
0.145732
0.145713
0.145693
0.145674
0.145654
0.145634
0.145613
0.145592
0.145571
0.14555
0.145528
0.145505
0.145483
0.14546
0.145436
0.145412
0.145387
0.145361
0.145334
0.145306
0.145277
0.145246
0.145213
0.145177
0.145139
0.145097
0.145051
0.145003
0.144957
0.146329
0.146314
0.146299
0.146284
0.146268
0.146252
0.146236
0.14622
0.146203
0.146186
0.146169
0.146151
0.146134
0.146115
0.146097
0.146078
0.146058
0.146038
0.146017
0.145995
0.145972
0.145947
0.145922
0.145894
0.145864
0.145832
0.145798
0.145763
0.145729
0.146788
0.146776
0.146765
0.146753
0.146741
0.146729
0.146717
0.146705
0.146692
0.146679
0.146666
0.146653
0.14664
0.146626
0.146612
0.146597
0.146582
0.146567
0.146551
0.146534
0.146517
0.146499
0.146479
0.146459
0.146437
0.146413
0.146389
0.146364
0.146341
0.147138
0.147129
0.147121
0.147113
0.147104
0.147095
0.147086
0.147077
0.147068
0.147059
0.147049
0.14704
0.14703
0.14702
0.14701
0.146999
0.146988
0.146977
0.146966
0.146954
0.146941
0.146928
0.146914
0.146899
0.146884
0.146867
0.146851
0.146835
0.146821
0.147403
0.147397
0.147391
0.147385
0.147379
0.147373
0.147367
0.147361
0.147354
0.147348
0.147341
0.147335
0.147328
0.147321
0.147314
0.147307
0.147299
0.147291
0.147283
0.147275
0.147266
0.147257
0.147248
0.147238
0.147228
0.147217
0.147207
0.147198
0.147191
0.147601
0.147597
0.147594
0.14759
0.147586
0.147582
0.147578
0.147574
0.147569
0.147565
0.147561
0.147557
0.147552
0.147548
0.147543
0.147538
0.147533
0.147528
0.147523
0.147518
0.147512
0.147506
0.1475
0.147494
0.147488
0.147482
0.147477
0.147473
0.147471
0.147746
0.147744
0.147742
0.147739
0.147737
0.147734
0.147732
0.14773
0.147727
0.147724
0.147722
0.147719
0.147717
0.147714
0.147711
0.147708
0.147706
0.147703
0.147699
0.147696
0.147693
0.147689
0.147686
0.147682
0.147679
0.147677
0.147675
0.147675
0.147678
0.147848
0.147846
0.147845
0.147844
0.147843
0.147841
0.14784
0.147839
0.147838
0.147836
0.147835
0.147834
0.147832
0.147831
0.147829
0.147828
0.147826
0.147825
0.147823
0.147822
0.14782
0.147818
0.147816
0.147815
0.147814
0.147814
0.147815
0.147818
0.147824
0.147913
0.147912
0.147912
0.147911
0.147911
0.14791
0.14791
0.147909
0.147909
0.147908
0.147907
0.147907
0.147906
0.147906
0.147905
0.147905
0.147904
0.147904
0.147903
0.147902
0.147902
0.147901
0.147901
0.147901
0.147901
0.147902
0.147905
0.14791
0.147917
0.147946
0.147946
0.147946
0.147946
0.147946
0.147946
0.147945
0.147945
0.147945
0.147945
0.147945
0.147945
0.147945
0.147945
0.147945
0.147944
0.147944
0.147944
0.147944
0.147944
0.147944
0.147944
0.147944
0.147944
0.147946
0.147948
0.147951
0.147957
0.147966
0.147952
0.147951
0.147951
0.147951
0.147951
0.147951
0.147951
0.147951
0.147951
0.147951
0.147951
0.147951
0.14795
0.14795
0.14795
0.14795
0.14795
0.14795
0.14795
0.14795
0.14795
0.14795
0.14795
0.147951
0.147952
0.147954
0.147958
0.147964
0.147972
0.147919
0.147919
0.147918
0.147918
0.147917
0.147916
0.147916
0.147915
0.147914
0.147914
0.147913
0.147912
0.147912
0.147911
0.14791
0.147909
0.147908
0.147908
0.147907
0.147906
0.147905
0.147904
0.147904
0.147903
0.147904
0.147905
0.147908
0.147912
0.14792
0.147847
0.147845
0.147843
0.147841
0.14784
0.147838
0.147836
0.147834
0.147832
0.14783
0.147828
0.147826
0.147824
0.147822
0.14782
0.147817
0.147815
0.147813
0.14781
0.147808
0.147805
0.147803
0.1478
0.147798
0.147796
0.147795
0.147795
0.147798
0.147803
0.147728
0.147724
0.14772
0.147717
0.147713
0.147709
0.147705
0.147701
0.147697
0.147693
0.147689
0.147685
0.147681
0.147676
0.147672
0.147667
0.147662
0.147657
0.147652
0.147647
0.147642
0.147636
0.14763
0.147625
0.14762
0.147615
0.147611
0.147609
0.147611
0.147553
0.147547
0.147541
0.147534
0.147528
0.147521
0.147514
0.147507
0.1475
0.147493
0.147485
0.147478
0.14747
0.147462
0.147454
0.147446
0.147437
0.147428
0.147419
0.14741
0.1474
0.14739
0.14738
0.147369
0.147359
0.147348
0.147338
0.14733
0.147325
0.147312
0.147302
0.147292
0.147281
0.14727
0.147259
0.147248
0.147237
0.147225
0.147213
0.147201
0.147189
0.147176
0.147164
0.14715
0.147137
0.147123
0.147108
0.147094
0.147078
0.147062
0.147046
0.147029
0.147011
0.146992
0.146973
0.146954
0.146937
0.146923
0.146987
0.146972
0.146956
0.14694
0.146923
0.146907
0.14689
0.146872
0.146854
0.146836
0.146817
0.146798
0.146779
0.146759
0.146739
0.146718
0.146696
0.146674
0.146651
0.146628
0.146603
0.146577
0.146551
0.146522
0.146493
0.146462
0.146431
0.1464
0.146374
0.146559
0.146536
0.146513
0.146489
0.146465
0.14644
0.146415
0.146389
0.146363
0.146336
0.146309
0.146281
0.146252
0.146222
0.146192
0.146161
0.14613
0.146097
0.146063
0.146028
0.145991
0.145953
0.145913
0.145872
0.145827
0.145781
0.145732
0.145684
0.14564
0.146
0.145968
0.145935
0.145901
0.145867
0.145832
0.145796
0.145759
0.145721
0.145683
0.145644
0.145604
0.145563
0.145521
0.145477
0.145433
0.145388
0.145341
0.145292
0.145242
0.14519
0.145135
0.145078
0.145018
0.144954
0.144887
0.144816
0.144743
0.144676
0.145281
0.145236
0.14519
0.145143
0.145095
0.145047
0.144997
0.144946
0.144893
0.14484
0.144785
0.14473
0.144672
0.144614
0.144554
0.144492
0.144428
0.144363
0.144295
0.144226
0.144153
0.144077
0.143998
0.143914
0.143825
0.14373
0.14363
0.143527
0.143429
0.144362
0.144301
0.144238
0.144175
0.14411
0.144044
0.143976
0.143906
0.143835
0.143763
0.143689
0.143613
0.143535
0.143455
0.143373
0.143289
0.143203
0.143114
0.143022
0.142927
0.142828
0.142725
0.142617
0.142504
0.142383
0.142254
0.142118
0.141975
0.141837
0.143213
0.143131
0.143048
0.142963
0.142877
0.142788
0.142697
0.142604
0.142509
0.142412
0.142313
0.142211
0.142107
0.142
0.14189
0.141778
0.141662
0.141543
0.14142
0.141293
0.141161
0.141024
0.14088
0.140729
0.140568
0.140396
0.140213
0.14002
0.139832
0.141782
0.141676
0.141566
0.141455
0.14134
0.141223
0.141104
0.140982
0.140857
0.140729
0.140598
0.140464
0.140327
0.140186
0.140042
0.139894
0.139742
0.139585
0.139423
0.139256
0.139083
0.138903
0.138715
0.138516
0.138306
0.138081
0.137841
0.137587
0.137335
0.139956
0.139818
0.139678
0.139534
0.139387
0.139237
0.139084
0.138926
0.138766
0.138602
0.138433
0.138261
0.138085
0.137904
0.137719
0.137529
0.137334
0.137133
0.136926
0.136712
0.136491
0.136261
0.13602
0.135768
0.1355
0.135214
0.134908
0.134581
0.134254
0.137611
0.137438
0.137262
0.137081
0.136896
0.136708
0.136515
0.136318
0.136116
0.13591
0.135699
0.135483
0.135262
0.135036
0.134804
0.134566
0.134322
0.134071
0.133813
0.133547
0.133271
0.132985
0.132686
0.132373
0.132042
0.131688
0.131308
0.1309
0.130487
0.134673
0.134463
0.134248
0.134029
0.133804
0.133576
0.133342
0.133103
0.132859
0.132609
0.132354
0.132093
0.131827
0.131554
0.131274
0.130988
0.130694
0.130392
0.130082
0.129762
0.129432
0.12909
0.128733
0.12836
0.127965
0.127543
0.127089
0.126599
0.126096
0.131107
0.130863
0.130615
0.130362
0.130103
0.12984
0.12957
0.129296
0.129016
0.128729
0.128437
0.128139
0.127834
0.127522
0.127203
0.126877
0.126542
0.126199
0.125847
0.125485
0.125111
0.124724
0.124321
0.123899
0.123454
0.122978
0.122465
0.121905
0.121326
0.126733
0.126467
0.126197
0.125921
0.125641
0.125355
0.125064
0.124767
0.124465
0.124156
0.123842
0.123521
0.123194
0.12286
0.122519
0.12217
0.121813
0.121448
0.121073
0.120688
0.120291
0.119881
0.119455
0.119009
0.118538
0.118033
0.117486
0.116883
0.116252
0.121253
0.120986
0.120715
0.12044
0.120159
0.119874
0.119585
0.11929
0.11899
0.118685
0.118374
0.118058
0.117736
0.117408
0.117074
0.116733
0.116384
0.116028
0.115663
0.115289
0.114904
0.114506
0.114092
0.113659
0.1132
0.112707
0.112167
0.111562
0.11092
0.115021
0.11477
0.114515
0.114257
0.113994
0.113728
0.113457
0.113182
0.112903
0.11262
0.112332
0.112039
0.111741
0.111438
0.11113
0.110816
0.110495
0.110168
0.109833
0.10949
0.109136
0.108771
0.108391
0.107992
0.107568
0.107108
0.106598
0.106013
0.105381
0.108774
0.108538
0.108298
0.108054
0.107808
0.107558
0.107304
0.107046
0.106785
0.10652
0.106251
0.105978
0.105701
0.105419
0.105132
0.10484
0.104542
0.104238
0.103927
0.103609
0.103281
0.102941
0.102588
0.102216
0.101818
0.101383
0.100896
0.100321
0.0996882
0.102077
0.101855
0.101631
0.101404
0.101174
0.100941
0.100704
0.100464
0.100221
0.0999749
0.0997247
0.0994707
0.0992127
0.0989505
0.0986836
0.0984116
0.0981341
0.0978503
0.0975591
0.0972593
0.0969487
0.0966246
0.096282
0.0959144
0.0955078
0.0950466
0.0944848
0.0938508
0.0954203
0.0952201
0.0950174
0.0948122
0.0946043
0.0943937
0.0941804
0.0939643
0.0937452
0.0935231
0.0932978
0.0930692
0.0928371
0.0926011
0.0923611
0.0921166
0.091867
0.0916116
0.0913494
0.0910791
0.0907987
0.0905051
0.0901937
0.0898573
0.0894811
0.0890476
0.0885008
0.0878635
0.0885662
0.0883883
0.0882083
0.088026
0.0878415
0.0876546
0.0874654
0.0872738
0.0870796
0.0868828
0.0866832
0.0864807
0.0862751
0.0860662
0.0858536
0.0856369
0.0854157
0.0851892
0.0849565
0.0847161
0.0844661
0.0842035
0.0839235
0.0836189
0.0832739
0.0828692
0.0823383
0.0816934
0.0814626
0.0813073
0.0811502
0.0809912
0.0808303
0.0806674
0.0805025
0.0803355
0.0801663
0.0799948
0.079821
0.0796446
0.0794655
0.0792834
0.0790981
0.0789092
0.0787161
0.0785182
0.0783146
0.0781038
0.0778839
0.0776521
0.0774032
0.0771303
0.0768168
0.0764413
0.0759269
0.0752678
0.0739822
0.0738495
0.0737152
0.0735793
0.0734418
0.0733026
0.0731616
0.0730189
0.0728744
0.0727278
0.0725793
0.0724285
0.0722754
0.0721197
0.0719611
0.0717993
0.0716338
0.0714639
0.0712887
0.0711068
0.0709164
0.0707146
0.0704965
0.0702548
0.069973
0.0696271
0.06913
0.0684487
0.0658564
0.0657459
0.0656341
0.065521
0.0654065
0.0652906
0.0651732
0.0650544
0.064934
0.064812
0.0646882
0.0645626
0.0644349
0.064305
0.0641726
0.0640374
0.0638988
0.0637563
0.0636089
0.0634555
0.0632941
0.0631219
0.0629343
0.0627237
0.0624744
0.0621589
0.0616816
0.06097
0.0564781
0.05639
0.0563008
0.0562105
0.0561191
0.0560266
0.055933
0.0558381
0.055742
0.0556445
0.0555456
0.0554451
0.055343
0.055239
0.0551328
0.0550242
0.0549128
0.0547978
0.0546785
0.0545538
0.0544218
0.0542799
0.0541239
0.0539458
0.0537315
0.0534496
0.0529994
0.0522565
0.0441269
0.0440634
0.0439991
0.043934
0.0438681
0.0438014
0.0437338
0.0436654
0.043596
0.0435256
0.0434541
0.0433815
0.0433075
0.0432321
0.043155
0.043076
0.0429947
0.0429105
0.0428227
0.0427304
0.042632
0.042525
0.042406
0.0422672
0.0420979
0.0418623
0.041467
0.0407407
0.0227386
0.0227133
0.0226876
0.0226617
0.0226354
0.0226087
0.0225817
0.0225542
0.0225263
0.022498
0.0224692
0.0224397
0.0224096
0.0223787
0.0223469
0.022314
0.0222797
0.0222436
0.0222054
0.0221641
0.022119
0.0220679
0.0220094
0.0219358
0.021846
0.0216988
0.0214754
0.0208304
0.0305974
0.0309524
0.031266
0.031472
0.0315465
0.0315515
0.0315271
0.0314813
0.031431
0.0313837
0.0313429
0.0313104
0.0312856
0.0312669
0.0312535
0.0312439
0.0312402
0.0312385
0.0312518
0.0312537
0.0313143
0.0312869
0.0315138
0.0313268
0.0325315
0.0609717
0.0616561
0.0620342
0.0622504
0.0623159
0.0622663
0.0621401
0.061961
0.0617447
0.0615188
0.0612943
0.0610732
0.0608524
0.0606281
0.0603972
0.060157
0.0599088
0.0596469
0.0593855
0.0590924
0.0588402
0.0584797
0.058337
0.0578172
0.0587605
0.0774915
0.0781674
0.0785705
0.0788009
0.0788776
0.0788268
0.0786796
0.0784613
0.0781918
0.0778975
0.0775941
0.0772877
0.0769778
0.0766612
0.0763347
0.0759951
0.0756427
0.0752727
0.0748957
0.0744873
0.0741024
0.0736297
0.0733192
0.0727495
0.073449
0.0894508
0.0900388
0.0904036
0.0906093
0.0906727
0.0906113
0.0904483
0.0902059
0.0899044
0.0895679
0.0892135
0.0888497
0.0884781
0.0880968
0.0877028
0.0872931
0.0868672
0.0864212
0.0859624
0.0854734
0.0849942
0.0844454
0.0840131
0.0834173
0.0838957
0.0990095
0.0995089
0.0998236
0.0999952
0.100037
0.0999621
0.0997862
0.0995284
0.0992071
0.0988441
0.0984562
0.0980533
0.0976384
0.0972108
0.096768
0.0963073
0.0958275
0.0953256
0.0948064
0.0942572
0.0937074
0.0931006
0.092576
0.0919544
0.0922458
0.106952
0.107372
0.107638
0.107776
0.107797
0.107708
0.107524
0.107258
0.106927
0.10655
0.106142
0.105715
0.105272
0.104814
0.104338
0.103842
0.103325
0.102784
0.102222
0.101629
0.101028
0.100379
0.0997851
0.0991403
0.0992742
0.113665
0.114016
0.114238
0.114346
0.114349
0.114251
0.114062
0.113795
0.113463
0.113082
0.112667
0.112228
0.11177
0.111294
0.110799
0.110282
0.109742
0.109176
0.108587
0.107966
0.10733
0.106652
0.106009
0.105346
0.105347
0.119383
0.119674
0.119857
0.11994
0.119928
0.119824
0.119637
0.119374
0.119048
0.118671
0.118259
0.117819
0.117358
0.116876
0.116374
0.115848
0.115297
0.11472
0.114116
0.113481
0.112825
0.112131
0.111455
0.110782
0.110671
0.124264
0.124503
0.124652
0.124714
0.124692
0.124587
0.124404
0.124151
0.123837
0.123473
0.123071
0.12264
0.122185
0.121707
0.121208
0.120684
0.120134
0.119556
0.11895
0.118312
0.117649
0.11695
0.116256
0.115579
0.115376
0.128429
0.128623
0.128742
0.128788
0.128758
0.128655
0.128481
0.128242
0.127945
0.127599
0.127214
0.126799
0.126358
0.125894
0.125406
0.124893
0.124353
0.123784
0.123186
0.122556
0.121896
0.121204
0.120503
0.119829
0.119552
0.131971
0.132127
0.132222
0.132254
0.132221
0.132123
0.131961
0.131739
0.131462
0.131139
0.130777
0.130383
0.129964
0.129519
0.12905
0.128555
0.128033
0.127482
0.126901
0.126287
0.12564
0.124963
0.124267
0.123602
0.123265
0.134972
0.135096
0.135171
0.135192
0.135158
0.135067
0.134919
0.134716
0.134463
0.134166
0.133831
0.133464
0.13307
0.132651
0.132206
0.131736
0.131239
0.130712
0.130154
0.129563
0.128938
0.128284
0.127601
0.126952
0.126569
0.1375
0.137598
0.137656
0.13767
0.137637
0.137554
0.137422
0.13724
0.137013
0.136743
0.136437
0.136101
0.135736
0.135347
0.134932
0.134491
0.134023
0.133526
0.132996
0.132435
0.131838
0.131212
0.13055
0.129922
0.129505
0.139616
0.139692
0.139737
0.139746
0.139716
0.139643
0.139527
0.139367
0.139166
0.138926
0.138651
0.138347
0.138015
0.137657
0.137275
0.136867
0.136432
0.135968
0.135472
0.134945
0.13438
0.133788
0.133153
0.132551
0.13211
0.141375
0.141434
0.141469
0.141475
0.141448
0.141386
0.141287
0.141149
0.140974
0.140764
0.140521
0.140249
0.139951
0.139628
0.13928
0.138907
0.138508
0.13808
0.137621
0.13713
0.136602
0.136046
0.135443
0.13487
0.134414
0.142826
0.142871
0.142899
0.142903
0.142881
0.14283
0.142746
0.14263
0.142481
0.1423
0.142089
0.141851
0.141586
0.141298
0.140986
0.140649
0.140286
0.139896
0.139475
0.139024
0.138535
0.138018
0.137449
0.136908
0.136446
0.144011
0.144047
0.144069
0.144073
0.144056
0.144015
0.143948
0.143853
0.143729
0.143576
0.143395
0.143189
0.142959
0.142705
0.142428
0.142128
0.141802
0.14145
0.141068
0.140657
0.140207
0.139731
0.139199
0.138692
0.138228
0.144972
0.145
0.145018
0.145023
0.145012
0.144981
0.144929
0.144853
0.144752
0.144626
0.144475
0.144299
0.144101
0.143881
0.143639
0.143374
0.143085
0.142771
0.142427
0.142056
0.141645
0.14121
0.140715
0.140242
0.139782
0.145742
0.145765
0.145781
0.145787
0.145782
0.145761
0.145722
0.145664
0.145584
0.145483
0.145359
0.145212
0.145045
0.144856
0.144647
0.144416
0.144162
0.143884
0.143578
0.143245
0.142873
0.142477
0.142019
0.141581
0.141128
0.146353
0.146373
0.146387
0.146396
0.146395
0.146383
0.146356
0.146314
0.146254
0.146175
0.146075
0.145956
0.145816
0.145657
0.145478
0.145279
0.145058
0.144814
0.144543
0.144246
0.143912
0.143554
0.143131
0.142725
0.142282
0.146832
0.146849
0.146864
0.146874
0.146878
0.146873
0.146858
0.14683
0.146787
0.146727
0.146649
0.146554
0.146439
0.146307
0.146155
0.145985
0.145794
0.145581
0.145343
0.14508
0.14478
0.144456
0.144067
0.143692
0.14326
0.147202
0.147218
0.147232
0.147244
0.147252
0.147255
0.147249
0.147233
0.147204
0.147162
0.147103
0.147028
0.146936
0.146826
0.1467
0.146555
0.14639
0.146206
0.145996
0.145763
0.145494
0.145202
0.144843
0.144495
0.144075
0.147482
0.147497
0.147512
0.147526
0.147538
0.147546
0.147548
0.147542
0.147526
0.147497
0.147454
0.147396
0.147323
0.147233
0.147127
0.147004
0.146863
0.146702
0.146518
0.146311
0.146068
0.145803
0.145471
0.145148
0.144739
0.147689
0.147703
0.147719
0.147734
0.147749
0.147762
0.14777
0.147772
0.147766
0.147748
0.147718
0.147675
0.147616
0.147543
0.147454
0.147349
0.147226
0.147085
0.146921
0.146736
0.146515
0.146273
0.145963
0.145659
0.145262
0.147835
0.147849
0.147865
0.147882
0.147899
0.147915
0.147928
0.147936
0.147937
0.147928
0.147908
0.147875
0.147828
0.147767
0.147691
0.147599
0.147491
0.147365
0.147217
0.147048
0.146844
0.14662
0.146327
0.146039
0.14565
0.147929
0.147943
0.147959
0.147977
0.147996
0.148015
0.148031
0.148043
0.148049
0.148046
0.148032
0.148006
0.147967
0.147914
0.147846
0.147764
0.147666
0.14755
0.147413
0.147256
0.147064
0.146851
0.14657
0.146292
0.145911
0.147977
0.147991
0.148008
0.148027
0.148047
0.148067
0.148085
0.148099
0.148107
0.148107
0.148096
0.148074
0.148039
0.14799
0.147928
0.14785
0.147757
0.147647
0.147516
0.147364
0.147179
0.146972
0.146698
0.146424
0.146048
0.147984
0.147999
0.148016
0.148035
0.148055
0.148075
0.148094
0.148108
0.148117
0.148117
0.148106
0.148084
0.148049
0.148001
0.147938
0.147861
0.147769
0.147659
0.147529
0.147377
0.147193
0.146986
0.146713
0.146438
0.146065
0.147932
0.147947
0.147965
0.147983
0.148003
0.148022
0.148039
0.148051
0.148056
0.148052
0.148037
0.14801
0.14797
0.147916
0.147848
0.147765
0.147666
0.14755
0.147413
0.147254
0.147062
0.146847
0.146567
0.146284
0.145909
0.147816
0.147832
0.147849
0.147867
0.147885
0.147902
0.147914
0.147921
0.14792
0.147908
0.147884
0.147847
0.147796
0.147731
0.147651
0.147555
0.147443
0.147314
0.147162
0.146988
0.146781
0.14655
0.146255
0.145956
0.145575
0.147624
0.147641
0.147659
0.147676
0.147691
0.147703
0.14771
0.147708
0.147696
0.147672
0.147635
0.147583
0.147516
0.147433
0.147336
0.147222
0.14709
0.14694
0.146767
0.146571
0.146341
0.146087
0.145769
0.145448
0.145057
0.147339
0.147358
0.147377
0.147393
0.147405
0.147411
0.147408
0.147395
0.147369
0.147329
0.147273
0.147201
0.147112
0.147008
0.146886
0.146748
0.146591
0.146414
0.146213
0.145989
0.145729
0.145444
0.145096
0.144748
0.144343
0.146938
0.146961
0.14698
0.146995
0.147002
0.147001
0.146987
0.146959
0.146915
0.146854
0.146775
0.146678
0.146563
0.14643
0.146281
0.146112
0.145924
0.145715
0.145481
0.145221
0.144925
0.144604
0.14422
0.143839
0.143419
0.146391
0.146418
0.14644
0.146453
0.146455
0.146444
0.146416
0.14637
0.146305
0.146218
0.146111
0.145984
0.145838
0.145674
0.14549
0.145288
0.145064
0.144817
0.144544
0.144245
0.143908
0.143545
0.143121
0.142704
0.142268
0.14566
0.145694
0.145718
0.14573
0.145727
0.145704
0.14566
0.145593
0.145501
0.145385
0.145246
0.145085
0.144904
0.144703
0.144482
0.144241
0.143977
0.14369
0.143374
0.143031
0.142649
0.142242
0.141774
0.141317
0.140867
0.1447
0.144744
0.144773
0.144784
0.144773
0.144737
0.144674
0.144582
0.144461
0.144311
0.144136
0.143938
0.143718
0.143478
0.143217
0.142934
0.142628
0.142297
0.141936
0.141546
0.141117
0.140663
0.140149
0.139653
0.139191
0.143459
0.143515
0.143551
0.143562
0.143543
0.143493
0.143408
0.143288
0.143133
0.142947
0.142733
0.142495
0.142234
0.141952
0.141649
0.141323
0.140973
0.140596
0.140189
0.139752
0.139276
0.138774
0.138214
0.137679
0.13721
0.141875
0.141948
0.141993
0.142004
0.141978
0.141911
0.141801
0.141651
0.141461
0.141235
0.14098
0.1407
0.140397
0.140073
0.139727
0.139359
0.138964
0.138543
0.138089
0.137606
0.137082
0.136535
0.13593
0.13536
0.13489
0.13988
0.139974
0.14003
0.140043
0.140008
0.139923
0.139787
0.139604
0.139376
0.13911
0.138813
0.13849
0.138146
0.137781
0.137394
0.136984
0.136547
0.136083
0.135586
0.135059
0.134491
0.133902
0.133256
0.132656
0.132191
0.137394
0.137514
0.137584
0.137599
0.137555
0.137451
0.137289
0.137071
0.136805
0.136498
0.13616
0.135797
0.135413
0.135009
0.134584
0.134136
0.133661
0.133157
0.132621
0.132056
0.131448
0.130823
0.130141
0.129518
0.129069
0.134327
0.134478
0.134565
0.134583
0.13453
0.134407
0.134216
0.133964
0.13366
0.133314
0.132938
0.132538
0.132119
0.131682
0.131224
0.130742
0.130235
0.129699
0.129129
0.128532
0.127893
0.127239
0.126528
0.125893
0.12547
0.130576
0.130762
0.130868
0.13089
0.130829
0.130686
0.130468
0.130183
0.129844
0.129463
0.129052
0.128622
0.128174
0.12771
0.127227
0.12672
0.126188
0.125627
0.125034
0.124414
0.123752
0.12308
0.122351
0.121716
0.121332
0.126211
0.126436
0.126562
0.126589
0.126521
0.126361
0.126119
0.125806
0.125436
0.125028
0.124593
0.12414
0.123674
0.123193
0.122694
0.122174
0.121627
0.121054
0.120448
0.119818
0.119146
0.118469
0.117734
0.117112
0.116778
0.121474
0.12174
0.121888
0.121921
0.121848
0.121675
0.121415
0.121081
0.12069
0.120263
0.119814
0.11935
0.118876
0.11839
0.117886
0.117362
0.116813
0.116238
0.115632
0.115004
0.114334
0.113666
0.112936
0.11234
0.112063
0.116447
0.116756
0.116926
0.116967
0.116892
0.116711
0.116438
0.11609
0.115688
0.115252
0.114797
0.114332
0.11386
0.113377
0.112879
0.112361
0.11182
0.111254
0.110657
0.110042
0.109385
0.108735
0.108023
0.107459
0.107247
0.111183
0.111538
0.111729
0.11178
0.111706
0.111521
0.111242
0.110888
0.110481
0.110044
0.109593
0.109135
0.108673
0.108202
0.107718
0.107215
0.106689
0.106141
0.105563
0.104968
0.104334
0.10371
0.103025
0.1025
0.102358
0.105729
0.106129
0.106343
0.106404
0.106334
0.106149
0.105869
0.105515
0.105111
0.10468
0.10424
0.103797
0.103351
0.102899
0.102435
0.101954
0.10145
0.100926
0.100375
0.099808
0.0992036
0.0986125
0.0979625
0.0974783
0.0974095
0.10012
0.100561
0.100796
0.100868
0.100804
0.100624
0.100348
0.0999988
0.0996033
0.0991858
0.0987619
0.0983388
0.0979159
0.0974882
0.0970493
0.0965947
0.0961196
0.0956254
0.0951051
0.094572
0.0940034
0.0934496
0.0928406
0.0923994
0.0924062
0.0943707
0.0948498
0.0951034
0.0951868
0.0951305
0.0949575
0.0946891
0.0943499
0.0939684
0.0935688
0.0931667
0.0927683
0.0923722
0.0919729
0.0915635
0.0911397
0.0906968
0.0902364
0.089752
0.0892562
0.088728
0.0882148
0.0876517
0.0872533
0.0873369
0.0884769
0.0889884
0.0892591
0.0893531
0.0893052
0.0891412
0.0888838
0.0885584
0.088195
0.0878177
0.0874413
0.0870712
0.0867052
0.0863373
0.0859605
0.0855706
0.0851631
0.0847395
0.0842941
0.0838384
0.083354
0.0828834
0.0823701
0.0820132
0.0821739
0.0824076
0.0829447
0.08323
0.0833333
0.0832933
0.0831396
0.0828956
0.0825874
0.0822458
0.0818941
0.0815466
0.0812076
0.0808742
0.0805401
0.0801982
0.0798443
0.0794744
0.0790899
0.0786859
0.0782724
0.0778344
0.0774074
0.076947
0.0766295
0.0768666
0.0760935
0.0766472
0.0769433
0.0770532
0.0770199
0.0768771
0.0766487
0.0763604
0.0760438
0.0757209
0.0754049
0.0750993
0.0748005
0.0745019
0.0741966
0.0738805
0.0735501
0.0732062
0.0728456
0.0724756
0.0720864
0.0717036
0.0712991
0.0710174
0.0713301
0.0694011
0.0699576
0.0702594
0.0703716
0.0703425
0.0702111
0.0700002
0.069735
0.0694464
0.0691552
0.0688733
0.0686032
0.0683409
0.0680794
0.0678124
0.0675356
0.0672463
0.0669447
0.0666294
0.0663043
0.0659662
0.0656278
0.0652828
0.0650323
0.0654195
0.0620698
0.0626059
0.0629049
0.0630131
0.0629852
0.0628658
0.0626753
0.0624366
0.0621799
0.0619241
0.0616794
0.0614475
0.0612238
0.0610016
0.0607748
0.0605395
0.0602936
0.0600366
0.0597694
0.0594911
0.0592076
0.0589147
0.0586345
0.058411
0.0588701
0.0535238
0.0539972
0.0542794
0.0543749
0.0543451
0.0542401
0.0540748
0.0538688
0.0536506
0.0534362
0.0532342
0.0530452
0.0528644
0.0526855
0.0525033
0.0523138
0.0521163
0.0519087
0.0516954
0.0514692
0.0512472
0.0510043
0.0507991
0.0506013
0.0511283
0.0421323
0.0424579
0.0427018
0.0427751
0.0427457
0.0426654
0.0425397
0.0423833
0.0422209
0.0420644
0.0419198
0.0417872
0.0416625
0.0415404
0.0414169
0.0412886
0.0411563
0.0410161
0.0408766
0.040723
0.0405862
0.0404161
0.0403175
0.0401614
0.040759
0.0218275
0.0220965
0.0224012
0.0225046
0.0225431
0.0225641
0.0225593
0.0225391
0.0225163
0.0224979
0.0224891
0.0224916
0.0225049
0.022527
0.0225573
0.0225927
0.0226381
0.0226848
0.0227532
0.0228077
0.022925
0.022966
0.0232145
0.0231809
0.0241042
)
;

boundaryField
{
    inlet
    {
        type            fixedValue;
        value           nonuniform 0();
    }
    outlet
    {
        type            zeroGradient;
    }
    upperWall
    {
        type            kqRWallFunction;
        value           nonuniform List<scalar> 
53
(
0.0227386
0.0227133
0.0226876
0.0226617
0.0226354
0.0226087
0.0225817
0.0225542
0.0225263
0.022498
0.0224692
0.0224397
0.0224096
0.0223787
0.0223469
0.022314
0.0222797
0.0222436
0.0222054
0.0221641
0.022119
0.0220679
0.0220094
0.0219358
0.021846
0.0216988
0.0214754
0.0208304
0.0218275
0.0220965
0.0224012
0.0225046
0.0225431
0.0225641
0.0225593
0.0225391
0.0225163
0.0224979
0.0224891
0.0224916
0.0225049
0.022527
0.0225573
0.0225927
0.0226381
0.0226848
0.0227532
0.0228077
0.022925
0.022966
0.0232145
0.0231809
0.0241042
)
;
    }
    lowerWall
    {
        type            kqRWallFunction;
        value           nonuniform List<scalar> 
55
(
0.0313986
0.0313841
0.0313695
0.0313547
0.0313397
0.0313246
0.0313093
0.0312938
0.0312781
0.0312622
0.031246
0.0312294
0.0312125
0.0311951
0.031177
0.0311582
0.0311385
0.0311175
0.0310949
0.0310703
0.0310427
0.0310113