/*--------------------------------*- C++ -*----------------------------------*\
  =========                 |
  \\      /  F ield         | OpenFOAM: The Open Source CFD Toolbox
   \\    /   O peration     | Website:  https://openfoam.org
    \\  /    A nd           | Version:  6
     \\/     M anipulation  |
\*---------------------------------------------------------------------------*/
FoamFile
{
    version     2.0;
    format      ascii;
    class       volScalarField;
    location    "0.04";
    object      nut;
}
// * * * * * * * * * * * * * * * * * * * * * * * * * * * * * * * * * * * * * //

dimensions      [0 2 -1 0 0 0 0];

internalField   nonuniform List<scalar> 
3080
(
1.89234e-05
1.88896e-05
1.88555e-05
1.88211e-05
1.87864e-05
1.87515e-05
1.87163e-05
1.86809e-05
1.86451e-05
1.8609e-05
1.85726e-05
1.85359e-05
1.84988e-05
1.84614e-05
1.84235e-05
1.83852e-05
1.83463e-05
1.83068e-05
1.82666e-05
1.82255e-05
1.81833e-05
1.81397e-05
1.80941e-05
1.80459e-05
1.79936e-05
1.79349e-05
1.78652e-05
1.77745e-05
1.76422e-05
1.74254e-05
0.000146528
0.000146301
0.000146073
0.000145843
0.000145611
0.000145377
0.000145141
0.000144903
0.000144662
0.000144419
0.000144174
0.000143925
0.000143674
0.000143418
0.000143159
0.000142894
0.000142623
0.000142344
0.000142056
0.000141756
0.000141439
0.0001411
0.000140728
0.000140308
0.00013981
0.00013918
0.000138295
0.000136915
0.000134326
0.000129882
0.00027052
0.00027017
0.000269817
0.00026946
0.000269101
0.000268739
0.000268373
0.000268003
0.00026763
0.000267253
0.000266872
0.000266485
0.000266093
0.000265695
0.000265289
0.000264875
0.00026445
0.000264013
0.000263558
0.000263083
0.000262579
0.000262037
0.000261441
0.000260765
0.000259964
0.000258958
0.000257581
0.000255516
0.000252003
0.000246259
0.000369377
0.000368958
0.000368535
0.000368109
0.000367679
0.000367246
0.000366807
0.000366365
0.000365918
0.000365466
0.000365008
0.000364545
0.000364075
0.000363596
0.000363109
0.000362611
0.0003621
0.000361573
0.000361025
0.000360451
0.000359842
0.000359187
0.000358465
0.000357647
0.000356683
0.000355485
0.000353884
0.000351577
0.000347967
0.00034258
0.000449368
0.000448911
0.000448451
0.000447986
0.000447517
0.000447044
0.000446566
0.000446083
0.000445595
0.000445101
0.000444601
0.000444095
0.000443581
0.000443058
0.000442525
0.000441981
0.000441421
0.000440844
0.000440244
0.000439615
0.000438948
0.00043823
0.00043744
0.000436547
0.0004355
0.000434212
0.000432528
0.000430188
0.000426761
0.000422034
0.000515359
0.000514885
0.000514406
0.000513922
0.000513435
0.000512942
0.000512445
0.000511942
0.000511434
0.00051092
0.000510399
0.000509872
0.000509336
0.000508792
0.000508236
0.000507669
0.000507085
0.000506483
0.000505858
0.000505202
0.000504507
0.000503759
0.000502938
0.000502013
0.000500934
0.00049962
0.000497938
0.000495672
0.000492525
0.000488444
0.000570536
0.000570057
0.000569574
0.000569086
0.000568594
0.000568097
0.000567594
0.000567087
0.000566574
0.000566054
0.000565528
0.000564995
0.000564454
0.000563903
0.000563342
0.000562768
0.000562178
0.00056157
0.000560937
0.000560275
0.000559573
0.000558819
0.000557992
0.000557064
0.000555989
0.000554694
0.000553065
0.000550932
0.000548093
0.000544581
0.000617033
0.000616561
0.000616085
0.000615603
0.000615118
0.000614627
0.000614131
0.00061363
0.000613123
0.00061261
0.000612091
0.000611564
0.000611029
0.000610485
0.00060993
0.000609363
0.00060878
0.000608178
0.000607554
0.0006069
0.000606207
0.000605464
0.000604652
0.000603744
0.000602698
0.000601452
0.000599909
0.000597939
0.000595408
0.000592387
0.000656354
0.000655897
0.000655436
0.000654971
0.0006545
0.000654025
0.000653545
0.000653059
0.000652568
0.000652071
0.000651567
0.000651056
0.000650537
0.00065001
0.000649471
0.000648921
0.000648356
0.000647772
0.000647167
0.000646533
0.000645863
0.000645145
0.000644362
0.00064349
0.000642493
0.000641317
0.000639882
0.00063809
0.000635852
0.000633256
0.000689612
0.000689177
0.000688738
0.000688295
0.000687847
0.000687395
0.000686937
0.000686475
0.000686007
0.000685533
0.000685053
0.000684565
0.000684071
0.000683567
0.000683054
0.000682528
0.000681989
0.000681433
0.000680856
0.000680252
0.000679614
0.000678932
0.000678191
0.000677368
0.000676434
0.000675341
0.000674028
0.000672417
0.000670454
0.000668229
0.000717673
0.000717266
0.000716855
0.00071644
0.000716021
0.000715596
0.000715167
0.000714734
0.000714294
0.00071385
0.000713399
0.000712941
0.000712477
0.000712004
0.000711522
0.000711028
0.000710522
0.000709999
0.000709458
0.000708891
0.000708294
0.000707656
0.000706965
0.000706201
0.000705339
0.000704339
0.000703153
0.000701723
0.000700015
0.000698114
0.000740869
0.000740491
0.000740108
0.000739721
0.000739329
0.000738933
0.000738532
0.000738126
0.000737715
0.000737298
0.000736875
0.000736445
0.000736008
0.000735562
0.000735105
0.000734636
0.000734153
0.000733652
0.000733129
0.000732578
0.00073199
0.000731355
0.000730657
0.000729872
0.000728971
0.000727914
0.000726658
0.000725183
0.000723568
0.000760585
0.000760241
0.000759893
0.000759541
0.000759185
0.000758824
0.000758459
0.00075809
0.000757715
0.000757336
0.00075695
0.000756558
0.000756159
0.000755752
0.000755336
0.000754908
0.000754468
0.000754011
0.000753535
0.000753033
0.0007525
0.000751925
0.000751295
0.000750592
0.00074979
0.00074886
0.000747769
0.000746508
0.000745144
0.000776933
0.000776625
0.000776313
0.000775998
0.000775678
0.000775355
0.000775028
0.000774696
0.00077436
0.000774019
0.000773673
0.000773321
0.000772962
0.000772596
0.000772222
0.000771838
0.000771442
0.000771032
0.000770604
0.000770154
0.000769677
0.000769164
0.000768604
0.000767982
0.000767279
0.00076647
0.000765533
0.000764464
0.000763322
0.000790374
0.000790103
0.000789828
0.00078955
0.000789268
0.000788982
0.000788693
0.000788399
0.000788102
0.0007878
0.000787493
0.000787181
0.000786864
0.00078654
0.000786208
0.000785867
0.000785516
0.000785153
0.000784775
0.000784377
0.000783956
0.000783504
0.000783013
0.000782471
0.000781862
0.000781168
0.000780373
0.000779477
0.000778528
0.000801429
0.00080119
0.000800948
0.000800703
0.000800455
0.000800203
0.000799948
0.000799689
0.000799427
0.00079916
0.000798889
0.000798613
0.000798332
0.000798046
0.000797752
0.000797451
0.000797141
0.00079682
0.000796486
0.000796135
0.000795765
0.000795369
0.00079494
0.00079447
0.000793945
0.000793353
0.000792682
0.000791933
0.000791149
0.000810242
0.000810038
0.000809831
0.000809621
0.000809408
0.000809192
0.000808973
0.00080875
0.000808525
0.000808296
0.000808063
0.000807825
0.000807583
0.000807337
0.000807084
0.000806825
0.000806557
0.000806281
0.000805994
0.000805693
0.000805375
0.000805036
0.000804671
0.000804271
0.000803829
0.000803334
0.000802777
0.000802163
0.000801526
0.000817073
0.000816905
0.000816736
0.000816564
0.000816389
0.000816212
0.000816033
0.00081585
0.000815665
0.000815477
0.000815285
0.00081509
0.000814891
0.000814688
0.000814481
0.000814267
0.000814047
0.00081382
0.000813583
0.000813336
0.000813075
0.000812797
0.000812497
0.000812171
0.000811812
0.000811412
0.000810966
0.000810478
0.000809975
0.000822356
0.000822225
0.000822091
0.000821955
0.000821818
0.000821678
0.000821536
0.000821393
0.000821246
0.000821098
0.000820947
0.000820793
0.000820636
0.000820476
0.000820311
0.000820143
0.000819969
0.000819789
0.000819602
0.000819406
0.0008192
0.00081898
0.000818744
0.000818487
0.000818205
0.000817892
0.000817546
0.00081717
0.000816786
0.00082643
0.00082633
0.000826228
0.000826126
0.000826021
0.000825915
0.000825808
0.000825698
0.000825587
0.000825474
0.00082536
0.000825243
0.000825124
0.000825002
0.000824877
0.000824749
0.000824617
0.00082448
0.000824338
0.000824188
0.000824031
0.000823864
0.000823684
0.000823488
0.000823275
0.000823039
0.000822779
0.000822499
0.000822216
0.000829555
0.000829482
0.000829408
0.000829333
0.000829256
0.000829179
0.000829101
0.000829021
0.00082894
0.000828858
0.000828774
0.000828689
0.000828602
0.000828514
0.000828423
0.000828329
0.000828233
0.000828133
0.000828029
0.000827919
0.000827804
0.000827681
0.00082755
0.000827407
0.000827251
0.000827079
0.000826892
0.000826691
0.000826492
0.000831931
0.000831881
0.000831829
0.000831777
0.000831724
0.00083167
0.000831616
0.000831561
0.000831504
0.000831447
0.000831389
0.00083133
0.00083127
0.000831208
0.000831145
0.00083108
0.000831013
0.000830944
0.000830871
0.000830794
0.000830714
0.000830628
0.000830535
0.000830435
0.000830326
0.000830207
0.000830078
0.000829941
0.000829808
0.000833715
0.000833681
0.000833648
0.000833614
0.000833579
0.000833544
0.000833509
0.000833473
0.000833436
0.000833399
0.000833361
0.000833323
0.000833284
0.000833243
0.000833202
0.00083316
0.000833116
0.00083307
0.000833022
0.000832972
0.000832919
0.000832861
0.0008328
0.000832734
0.000832662
0.000832583
0.0008325
0.000832413
0.000832331
0.000835021
0.000835001
0.000834982
0.000834961
0.000834941
0.00083492
0.000834899
0.000834878
0.000834856
0.000834834
0.000834811
0.000834789
0.000834765
0.000834742
0.000834717
0.000834692
0.000834665
0.000834638
0.000834609
0.000834578
0.000834545
0.00083451
0.000834472
0.000834432
0.000834387
0.00083434
0.00083429
0.000834241
0.000834197
0.000835938
0.000835928
0.000835918
0.000835908
0.000835897
0.000835887
0.000835876
0.000835865
0.000835854
0.000835843
0.000835832
0.00083582
0.000835809
0.000835796
0.000835784
0.000835771
0.000835757
0.000835743
0.000835727
0.000835711
0.000835693
0.000835673
0.000835652
0.000835629
0.000835605
0.00083558
0.000835555
0.000835532
0.000835515
0.000836528
0.000836524
0.00083652
0.000836517
0.000836513
0.000836509
0.000836506
0.000836502
0.000836498
0.000836494
0.000836489
0.000836485
0.000836481
0.000836476
0.000836472
0.000836467
0.000836461
0.000836455
0.000836448
0.000836441
0.000836433
0.000836423
0.000836413
0.000836402
0.000836391
0.00083638
0.000836371
0.000836365
0.000836366
0.000836833
0.000836833
0.000836832
0.000836832
0.000836832
0.000836831
0.000836831
0.000836831
0.00083683
0.00083683
0.000836829
0.000836829
0.000836828
0.000836828
0.000836827
0.000836826
0.000836825
0.000836823
0.000836821
0.000836818
0.000836814
0.00083681
0.000836806
0.000836801
0.000836796
0.000836793
0.000836792
0.000836795
0.000836806
0.000836884
0.000836884
0.000836884
0.000836884
0.000836884
0.000836884
0.000836883
0.000836883
0.000836883
0.000836883
0.000836883
0.000836882
0.000836882
0.000836882
0.000836881
0.00083688
0.000836879
0.000836877
0.000836875
0.000836873
0.000836869
0.000836866
0.000836862
0.000836857
0.000836853
0.00083685
0.00083685
0.000836855
0.000836868
0.000836596
0.000836591
0.000836586
0.000836581
0.000836576
0.000836571
0.000836566
0.000836561
0.000836555
0.000836549
0.000836544
0.000836538
0.000836532
0.000836525
0.000836519
0.000836512
0.000836504
0.000836496
0.000836487
0.000836478
0.000836468
0.000836456
0.000836444
0.000836431
0.000836418
0.000836406
0.000836395
0.00083639
0.000836393
0.00083594
0.000835925
0.000835911
0.000835895
0.00083588
0.000835864
0.000835848
0.000835831
0.000835814
0.000835797
0.00083578
0.000835762
0.000835743
0.000835725
0.000835705
0.000835685
0.000835664
0.000835642
0.000835619
0.000835595
0.000835569
0.000835541
0.000835512
0.000835481
0.000835448
0.000835414
0.000835381
0.000835352
0.000835333
0.000834869
0.000834838
0.000834806
0.000834774
0.000834741
0.000834708
0.000834674
0.000834639
0.000834604
0.000834567
0.000834531
0.000834493
0.000834455
0.000834415
0.000834375
0.000834333
0.00083429
0.000834245
0.000834198
0.000834149
0.000834098
0.000834043
0.000833985
0.000833924
0.000833858
0.000833789
0.000833718
0.00083365
0.000833592
0.000833306
0.000833251
0.000833195
0.000833138
0.000833079
0.000833019
0.000832959
0.000832897
0.000832833
0.000832769
0.000832703
0.000832636
0.000832567
0.000832497
0.000832425
0.00083235
0.000832274
0.000832195
0.000832112
0.000832026
0.000831936
0.000831841
0.00083174
0.000831633
0.000831519
0.000831397
0.000831268
0.00083114
0.000831024
0.000831148
0.000831058
0.000830967
0.000830874
0.000830779
0.000830682
0.000830583
0.000830483
0.00083038
0.000830275
0.000830168
0.000830058
0.000829946
0.000829832
0.000829714
0.000829593
0.000829469
0.00082934
0.000829206
0.000829067
0.000828922
0.000828768
0.000828606
0.000828434
0.000828249
0.000828051
0.000827841
0.000827625
0.000827425
0.000828256
0.000828119
0.00082798
0.000827837
0.000827692
0.000827544
0.000827393
0.000827238
0.000827081
0.00082692
0.000826755
0.000826587
0.000826415
0.000826239
0.000826059
0.000825873
0.000825682
0.000825484
0.00082528
0.000825067
0.000824844
0.000824611
0.000824363
0.0008241
0.000823818
0.000823515
0.000823192
0.000822856
0.000822536
0.000824456
0.000824256
0.000824051
0.000823843
0.00082363
0.000823412
0.000823191
0.000822964
0.000822732
0.000822496
0.000822254
0.000822007
0.000821754
0.000821495
0.000821229
0.000820955
0.000820674
0.000820383
0.000820083
0.00081977
0.000819444
0.000819102
0.00081874
0.000818355
0.000817942
0.000817498
0.000817022
0.000816524
0.000816042
0.000819531
0.000819247
0.000818957
0.000818661
0.000818359
0.000818051
0.000817736
0.000817414
0.000817085
0.000816749
0.000816405
0.000816053
0.000815693
0.000815324
0.000814945
0.000814556
0.000814155
0.000813742
0.000813314
0.00081287
0.000812407
0.000811922
0.00081141
0.000810865
0.000810281
0.000809652
0.000808976
0.000808264
0.000807568
0.000813217
0.000812825
0.000812425
0.000812017
0.0008116
0.000811173
0.000810738
0.000810292
0.000809837
0.000809372
0.000808896
0.000808409
0.00080791
0.000807399
0.000806874
0.000806335
0.000805781
0.000805209
0.000804618
0.000804004
0.000803366
0.000802696
0.000801991
0.000801242
0.00080044
0.000799575
0.000798642
0.000797655
0.00079668
0.000805198
0.000804669
0.000804129
0.000803578
0.000803014
0.000802438
0.00080185
0.000801248
0.000800633
0.000800004
0.00079936
0.000798701
0.000798027
0.000797335
0.000796626
0.000795898
0.000795148
0.000794376
0.000793578
0.000792751
0.00079189
0.00079099
0.000790042
0.000789037
0.000787962
0.000786802
0.000785549
0.000784216
0.000782886
0.000795237
0.000794535
0.000793818
0.000793085
0.000792336
0.00079157
0.000790787
0.000789987
0.000789169
0.000788332
0.000787476
0.000786599
0.000785702
0.000784782
0.000783838
0.000782869
0.000781873
0.000780846
0.000779787
0.00077869
0.000777549
0.000776358
0.000775107
0.000773781
0.000772364
0.000770836
0.000769183
0.000767415
0.000765635
0.000782912
0.000781994
0.000781056
0.000780098
0.000779119
0.000778117
0.000777094
0.000776047
0.000774977
0.000773882
0.000772762
0.000771615
0.000770441
0.000769238
0.000768004
0.000766737
0.000765434
0.000764094
0.000762711
0.00076128
0.000759795
0.000758247
0.000756622
0.000754904
0.000753071
0.000751095
0.000748954
0.000746653
0.000744312
0.000767273
0.0007661
0.000764902
0.000763678
0.000762427
0.000761148
0.000759841
0.000758505
0.000757138
0.000755741
0.000754311
0.000752848
0.00075135
0.000749815
0.000748242
0.000746627
0.000744969
0.000743263
0.000741504
0.000739687
0.000737803
0.000735842
0.000733788
0.00073162
0.00072931
0.000726823
0.000724122
0.000721202
0.000718201
0.000747337
0.000745872
0.000744375
0.000742846
0.000741284
0.000739688
0.000738057
0.00073639
0.000734686
0.000732945
0.000731163
0.000729341
0.000727476
0.000725567
0.000723611
0.000721604
0.000719545
0.000717428
0.000715249
0.000713
0.000710671
0.000708251
0.00070572
0.000703055
0.000700221
0.00069717
0.000693852
0.00069024
0.000686481
0.000722521
0.000720749
0.000718941
0.000717095
0.00071521
0.000713286
0.000711321
0.000709314
0.000707263
0.000705168
0.000703027
0.000700839
0.0006986
0.00069631
0.000693965
0.000691563
0.000689099
0.000686569
0.000683967
0.000681285
0.000678512
0.000675635
0.000672633
0.000669477
0.000666125
0.000662518
0.000658587
0.000654272
0.000649723
0.00069258
0.000690542
0.000688464
0.000686344
0.000684182
0.000681977
0.000679727
0.000677431
0.000675088
0.000672696
0.000670254
0.00066776
0.000665213
0.000662608
0.000659945
0.000657219
0.000654426
0.000651562
0.00064862
0.000645591
0.000642465
0.000639226
0.000635851
0.000632309
0.000628552
0.000624506
0.000620083
0.000615179
0.000609933
0.000656047
0.000653833
0.000651579
0.000649282
0.000646944
0.000644561
0.000642133
0.000639659
0.000637138
0.000634568
0.000631948
0.000629275
0.000626548
0.000623764
0.000620921
0.000618015
0.000615042
0.000611998
0.000608875
0.000605665
0.000602356
0.000598933
0.000595371
0.000591636
0.000587675
0.000583403
0.00057871
0.000573437
0.000567692
0.000610437
0.000608216
0.000605958
0.000603662
0.000601328
0.000598955
0.000596541
0.000594085
0.000591587
0.000589045
0.000586458
0.000583824
0.000581142
0.000578408
0.000575621
0.000572778
0.000569874
0.000566905
0.000563865
0.000560744
0.000557532
0.000554213
0.000550762
0.000547142
0.000543299
0.000539135
0.000534521
0.00052923
0.000523319
0.000558539
0.000556446
0.000554321
0.000552164
0.000549975
0.000547752
0.000545494
0.000543201
0.000540873
0.000538507
0.000536102
0.000533658
0.000531173
0.000528644
0.00052607
0.000523448
0.000520774
0.000518043
0.00051525
0.000512387
0.000509442
0.0005064
0.000503237
0.000499915
0.000496378
0.000492519
0.00048819
0.00048309
0.000477198
0.000506448
0.000504468
0.000502461
0.000500425
0.000498361
0.000496268
0.000494144
0.000491989
0.000489804
0.000487585
0.000485333
0.000483047
0.000480724
0.000478364
0.000475964
0.000473521
0.000471032
0.000468494
0.0004659
0.000463243
0.000460513
0.000457693
0.000454762
0.000451682
0.000448396
0.000444792
0.000440706
0.000435759
0.000429817
0.000450436
0.00044858
0.0004467
0.000444794
0.000442863
0.000440907
0.000438923
0.000436913
0.000434875
0.000432807
0.00043071
0.000428582
0.000426422
0.000424226
0.000421994
0.000419723
0.000417408
0.000415044
0.000412624
0.00041014
0.000407575
0.000404909
0.000402107
0.000399112
0.000395809
0.000392028
0.000387311
0.000381379
0.000394725
0.000393046
0.000391347
0.000389627
0.000387885
0.000386121
0.000384335
0.000382526
0.000380693
0.000378836
0.000376954
0.000375045
0.000373109
0.000371144
0.000369147
0.000367116
0.000365049
0.000362939
0.000360781
0.000358567
0.000356283
0.000353909
0.000351412
0.000348741
0.000345781
0.000342362
0.000337958
0.000332116
0.000337634
0.000336155
0.000334659
0.000333145
0.000331614
0.000330065
0.000328497
0.00032691
0.000325304
0.000323678
0.00032203
0.000320361
0.00031867
0.000316954
0.000315212
0.000313442
0.000311642
0.000309806
0.00030793
0.000306006
0.000304023
0.000301962
0.000299795
0.000297475
0.000294895
0.000291888
0.000287889
0.000282244
0.000279427
0.000278166
0.000276892
0.000275604
0.000274302
0.000272985
0.000271654
0.000270307
0.000268945
0.000267567
0.000266173
0.000264761
0.000263331
0.000261881
0.000260411
0.000258919
0.000257402
0.000255856
0.000254278
0.000252661
0.000250996
0.000249267
0.000247449
0.000245503
0.000243334
0.000240785
0.000237287
0.000231986
0.000220381
0.000219356
0.000218321
0.000217275
0.000216218
0.00021515
0.000214071
0.000212981
0.000211879
0.000210764
0.000209638
0.000208498
0.000207344
0.000206176
0.000204993
0.000203792
0.000202572
0.000201331
0.000200066
0.00019877
0.000197437
0.000196055
0.000194603
0.000193049
0.000191318
0.000189267
0.000186369
0.000181608
0.000160878
0.000160104
0.000159322
0.000158534
0.000157737
0.000156934
0.000156122
0.000155302
0.000154474
0.000153638
0.000152793
0.000151939
0.000151075
0.000150201
0.000149316
0.00014842
0.000147511
0.000146586
0.000145645
0.000144682
0.000143693
0.00014267
0.000141597
0.00014045
0.000139177
0.000137656
0.000135451
0.000131493
0.000101668
0.000101159
0.000100645
0.000100127
9.96045e-05
9.90774e-05
9.85455e-05
9.80088e-05
9.74672e-05
9.69206e-05
9.63689e-05
9.58117e-05
9.52488e-05
9.468e-05
9.41048e-05
9.35226e-05
9.29327e-05
9.23341e-05
9.17253e-05
9.11043e-05
9.04678e-05
8.98107e-05
8.91252e-05
8.83933e-05
8.75879e-05
8.66169e-05
8.51838e-05
8.23701e-05
4.51585e-05
4.49211e-05
4.46817e-05
4.44405e-05
4.41974e-05
4.39523e-05
4.37053e-05
4.34563e-05
4.32053e-05
4.29523e-05
4.26971e-05
4.24397e-05
4.218e-05
4.19179e-05
4.16533e-05
4.13859e-05
4.11155e-05
4.08417e-05
4.05639e-05
4.02815e-05
3.99933e-05
3.96971e-05
3.93905e-05
3.9065e-05
3.87136e-05
3.82882e-05
3.7659e-05
3.63923e-05
4.87034e-06
4.84562e-06
4.82071e-06
4.79561e-06
4.77033e-06
4.74487e-06
4.71921e-06
4.69335e-06
4.6673e-06
4.64105e-06
4.61459e-06
4.58791e-06
4.56101e-06
4.53387e-06
4.50648e-06
4.47882e-06
4.45086e-06
4.42256e-06
4.39388e-06
4.36474e-06
4.33505e-06
4.3046e-06
4.27325e-06
4.24025e-06
4.2055e-06
4.16498e-06
4.11689e-06
4.02795e-06
1.75436e-05
1.74957e-05
1.7429e-05
1.73254e-05
1.71788e-05
1.70063e-05
1.68188e-05
1.66176e-05
1.64053e-05
1.61858e-05
1.59597e-05
1.57276e-05
1.54892e-05
1.52438e-05
1.49906e-05
1.47288e-05
1.44583e-05
1.41779e-05
1.38898e-05
1.35878e-05
1.32865e-05
1.2954e-05
1.26606e-05
1.22695e-05
1.21289e-05
0.00013504
0.00013712
0.000137407
0.00013685
0.000135798
0.000134483
0.000133021
0.000131444
0.000129718
0.000127946
0.000126159
0.000124341
0.000122468
0.000120521
0.000118487
0.000116354
0.000114128
0.00011178
0.000109366
0.000106748
0.000104176
0.000101134
9.86021e-05
9.47075e-05
9.41848e-05
0.00025167
0.000255171
0.000256413
0.000256246
0.000255109
0.00025337
0.000251259
0.000248885
0.000246271
0.00024353
0.000240728
0.000237864
0.000234914
0.000231845
0.000228635
0.000225259
0.000221721
0.000217978
0.000214096
0.000209904
0.000205714
0.000200851
0.000196658
0.000190634
0.0001902
0.000346944
0.000350629
0.000352286
0.000352464
0.000351507
0.000349748
0.000347441
0.000344737
0.000341715
0.000338495
0.000335156
0.000331721
0.000328171
0.000324477
0.000320608
0.000316538
0.00031226
0.000307735
0.000303014
0.000297941
0.000292799
0.000286963
0.000281719
0.000274791
0.000274172
0.000425393
0.000428789
0.000430502
0.000430853
0.000430074
0.000428419
0.000426113
0.000423315
0.000420135
0.000416693
0.000413082
0.000409337
0.000405453
0.000401404
0.000397161
0.000392695
0.000387995
0.000383022
0.000377814
0.000372239
0.000366529
0.00036016
0.00035425
0.00034696
0.000345968
0.000491009
0.00049397
0.000495557
0.000495949
0.00049529
0.000493758
0.000491531
0.000488759
0.000485559
0.000482044
0.000478317
0.000474423
0.000470367
0.00046613
0.000461686
0.000457005
0.000452073
0.000446856
0.000441375
0.000435524
0.000429486
0.000422836
0.000416509
0.000409113
0.000407667
0.000546537
0.000549042
0.000550426
0.000550779
0.000550186
0.000548764
0.000546645
0.000543959
0.000540818
0.000537327
0.000533587
0.000529652
0.000525534
0.000521222
0.000516692
0.000511919
0.000506884
0.000501556
0.000495947
0.000489968
0.00048376
0.000476988
0.000470417
0.000463048
0.000461132
0.000593872
0.00059595
0.000597108
0.000597383
0.000596819
0.000595489
0.000593488
0.000590921
0.000587889
0.000584485
0.000580806
0.000576907
0.000572809
0.000568506
0.000563978
0.000559201
0.000554157
0.000548815
0.00054318
0.000537179
0.000530916
0.000524132
0.000517445
0.000510177
0.000507812
0.000634375
0.00063607
0.000637006
0.000637188
0.000636634
0.000635384
0.000633505
0.000631078
0.000628187
0.000624916
0.000621352
0.000617551
0.000613536
0.000609307
0.000604848
0.000600138
0.000595158
0.000589878
0.000584298
0.000578355
0.000572125
0.000565411
0.000558703
0.000551581
0.000548811
0.00066906
0.00067042
0.000671152
0.000671244
0.000670692
0.000669517
0.000667763
0.000665488
0.000662764
0.000659659
0.000656252
0.000652597
0.000648717
0.000644616
0.000640283
0.000635697
0.000630839
0.000625683
0.000620221
0.000614401
0.000608275
0.000601695
0.000595043
0.000588096
0.00058498
0.00069872
0.000699792
0.000700346
0.000700356
0.000699809
0.000698709
0.000697081
0.00069497
0.000692429
0.000689517
0.000686301
0.000682828
0.000679126
0.000675198
0.000671036
0.000666621
0.000661936
0.000656954
0.000651663
0.00064602
0.000640055
0.00063366
0.000627129
0.000620383
0.000616982
0.000723998
0.000724828
0.00072523
0.000725174
0.000724637
0.000723614
0.000722118
0.000720177
0.000717833
0.000715133
0.000712132
0.000708873
0.000705381
0.000701662
0.000697709
0.000693505
0.000689033
0.000684268
0.000679191
0.000673769
0.000668014
0.000661847
0.00065549
0.000648968
0.000645343
0.000745438
0.000746067
0.000746345
0.000746238
0.00074572
0.000744779
0.000743417
0.000741651
0.000739513
0.000737038
0.00073427
0.000731248
0.000727992
0.000724511
0.000720797
0.000716836
0.000712609
0.000708094
0.000703269
0.000698103
0.000692598
0.000686695
0.000680555
0.00067428
0.000670487
0.000763513
0.000763979
0.000764158
0.000764016
0.000763526
0.00076267
0.000761444
0.000759857
0.000757928
0.000755687
0.000753164
0.000750393
0.000747393
0.000744169
0.000740717
0.000737023
0.000733068
0.000728828
0.000724283
0.000719403
0.000714178
0.000708566
0.000702679
0.00069667
0.000692764
0.000778643
0.000778978
0.000779082
0.00077892
0.000778466
0.000777699
0.00077661
0.0007752
0.000773482
0.000771475
0.000769203
0.000766693
0.000763959
0.000761007
0.000757832
0.000754421
0.000750754
0.00074681
0.000742565
0.000737991
0.000733071
0.000727772
0.000722164
0.000716435
0.000712467
0.000791207
0.000791441
0.000791489
0.000791321
0.000790909
0.000790232
0.000789278
0.000788042
0.00078653
0.000784756
0.000782735
0.000780487
0.000778024
0.00077535
0.00077246
0.000769341
0.000765974
0.000762336
0.000758404
0.00075415
0.000749549
0.000744577
0.000739267
0.000733831
0.000729843
0.000801547
0.000801706
0.000801717
0.000801553
0.000801187
0.0008006
0.000799776
0.000798708
0.000797395
0.000795846
0.00079407
0.000792081
0.000789887
0.000787491
0.000784887
0.000782062
0.000778996
0.00077567
0.000772056
0.000768128
0.000763853
0.000759216
0.000754215
0.000749076
0.000745105
0.000809978
0.000810082
0.00081007
0.000809918
0.000809601
0.000809101
0.000808401
0.000807491
0.000806368
0.000805032
0.000803491
0.000801751
0.000799818
0.000797693
0.000795369
0.000792833
0.000790066
0.000787047
0.000783749
0.000780146
0.000776198
0.000771894
0.000767205
0.000762364
0.000758441
0.000816781
0.000816848
0.000816824
0.000816689
0.000816422
0.000816005
0.00081542
0.000814657
0.000813708
0.000812573
0.000811251
0.000809746
0.000808061
0.000806194
0.000804138
0.00080188
0.000799401
0.000796681
0.000793689
0.000790401
0.000786772
0.000782794
0.000778413
0.000773863
0.000770011
0.00082221
0.000822252
0.000822224
0.00082211
0.000821891
0.00082155
0.000821071
0.000820442
0.000819652
0.000818698
0.000817577
0.00081629
0.000814834
0.000813209
0.000811404
0.000809407
0.0008072
0.000804761
0.00080206
0.000799072
0.000795748
0.000792079
0.000787995
0.000783723
0.000779957
0.000826488
0.000826514
0.000826489
0.000826397
0.000826223
0.000825951
0.000825566
0.000825055
0.000824407
0.000823615
0.000822674
0.000821582
0.000820335
0.000818928
0.000817352
0.000815595
0.000813637
0.000811458
0.000809026
0.000806316
0.000803275
0.000799895
0.000796088
0.000792076
0.000788405
0.000829808
0.000829826
0.000829806
0.000829736
0.000829602
0.000829391
0.000829088
0.000828679
0.000828154
0.000827503
0.00082672
0.000825798
0.000824734
0.000823521
0.000822149
0.000820605
0.000818871
0.000816924
0.000814734
0.000812274
0.000809488
0.000806368
0.000802812
0.000799036
0.000795462
0.000832336
0.00083235
0.000832337
0.000832287
0.000832189
0.000832029
0.000831794
0.000831472
0.00083105
0.000830517
0.000829866
0.00082909
0.000828181
0.000827133
0.000825936
0.000824576
0.000823034
0.000821289
0.000819308
0.000817065
0.000814501
0.000811608
0.000808273
0.000804702
0.00080122
0.000834207
0.00083422
0.000834215
0.000834182
0.000834113
0.000833995
0.000833816
0.000833563
0.000833223
0.000832786
0.000832243
0.000831584
0.000830802
0.000829889
0.000828835
0.000827626
0.000826243
0.000824664
0.000822857
0.000820793
0.000818414
0.000815709
0.000812557
0.000809156
0.000805756
0.000835529
0.000835543
0.000835545
0.000835527
0.00083548
0.000835394
0.000835257
0.000835057
0.00083478
0.000834415
0.000833952
0.000833382
0.000832697
0.000831888
0.000830944
0.000829851
0.00082859
0.000827139
0.000825465
0.000823541
0.000821304
0.000818744
0.000815735
0.000812465
0.000809132
0.000836384
0.0008364
0.000836407
0.0008364
0.000836369
0.000836306
0.000836197
0.000836032
0.000835797
0.000835481
0.000835073
0.000834564
0.000833944
0.000833205
0.000832336
0.000831322
0.000830145
0.000828783
0.000827201
0.000825372
0.000823234
0.000820773
0.000817863
0.000814682
0.000811397
0.000836826
0.000836844
0.000836856
0.000836855
0.000836834
0.000836783
0.00083669
0.000836543
0.000836331
0.00083604
0.00083566
0.000835181
0.000834596
0.000833894
0.000833064
0.000832092
0.000830959
0.000829643
0.00082811
0.000826331
0.000824245
0.000821836
0.000818977
0.00081584
0.000812582
0.000836891
0.000836912
0.000836926
0.000836929
0.000836911
0.000836862
0.000836772
0.000836628
0.000836417
0.000836127
0.000835749
0.000835273
0.000834689
0.00083399
0.000833164
0.000832196
0.000831068
0.000829756
0.000828228
0.000826454
0.000824371
0.000821965
0.00081911
0.000815972
0.000812717
0.000836418
0.000836442
0.000836458
0.000836458
0.000836434
0.000836374
0.000836268
0.000836102
0.000835864
0.000835542
0.000835126
0.000834609
0.000833983
0.000833238
0.000832363
0.000831345
0.000830163
0.000828796
0.000827209
0.000825372
0.000823225
0.000820752
0.000817831
0.000814627
0.000811338
0.000835359
0.000835388
0.000835404
0.000835396
0.000835356
0.000835271
0.000835129
0.000834916
0.000834621
0.000834232
0.00083374
0.00083314
0.000832425
0.000831585
0.000830611
0.000829488
0.000828197
0.000826713
0.000825004
0.00082304
0.000820762
0.000818153
0.000815097
0.000811765
0.000808406
0.00083362
0.000833657
0.000833671
0.000833652
0.000833587
0.000833462
0.000833264
0.000832979
0.000832596
0.000832104
0.000831498
0.000830773
0.000829923
0.000828942
0.000827819
0.000826539
0.000825082
0.000823426
0.000821535
0.000819382
0.000816908
0.000814099
0.000810844
0.000807327
0.000803865
0.000831053
0.000831104
0.000831118
0.000831083
0.000830983
0.000830804
0.000830529
0.000830146
0.000829644
0.000829015
0.000828255
0.000827364
0.000826337
0.000825168
0.000823849
0.000822363
0.00082069
0.000818807
0.00081668
0.000814282
0.000811554
0.000808485
0.000804973
0.000801218
0.000797629
0.000827458
0.000827529
0.000827547
0.000827493
0.000827351
0.000827102
0.00082673
0.000826222
0.00082557