/*--------------------------------*- C++ -*----------------------------------*\
  =========                 |
  \\      /  F ield         | OpenFOAM: The Open Source CFD Toolbox
   \\    /   O peration     | Website:  https://openfoam.org
    \\  /    A nd           | Version:  6
     \\/     M anipulation  |
\*---------------------------------------------------------------------------*/
FoamFile
{
    version     2.0;
    format      ascii;
    class       volScalarField;
    location    "0.04";
    object      p;
}
// * * * * * * * * * * * * * * * * * * * * * * * * * * * * * * * * * * * * * //

dimensions      [0 2 -2 0 0 0 0];

internalField   nonuniform List<scalar> 
3080
(
0.187575
0.187409
0.187242
0.187075
0.186908
0.18674
0.186572
0.186404
0.186237
0.18607
0.185904
0.18574
0.185578
0.18542
0.185267
0.185121
0.184984
0.18486
0.184753
0.184669
0.184617
0.18461
0.184665
0.18481
0.185089
0.185578
0.186432
0.187902
0.190834
0.195549
0.187554
0.187389
0.187223
0.187056
0.186889
0.186722
0.186554
0.186387
0.186219
0.186053
0.185888
0.185724
0.185563
0.185406
0.185254
0.185109
0.184974
0.184852
0.184748
0.184668
0.184621
0.184619
0.184682
0.184835
0.185124
0.185616
0.186455
0.187825
0.190445
0.194319
0.187539
0.187374
0.187208
0.187042
0.186875
0.186708
0.186541
0.186374
0.186207
0.186041
0.185876
0.185713
0.185553
0.185397
0.185246
0.185103
0.184969
0.184849
0.184748
0.184671
0.184628
0.184631
0.1847
0.18486
0.185155
0.185647
0.186459
0.187715
0.189938
0.192642
0.187529
0.187364
0.187198
0.187032
0.186866
0.186699
0.186532
0.186365
0.186198
0.186032
0.185868
0.185705
0.185545
0.185389
0.185238
0.185095
0.184962
0.184842
0.184741
0.184664
0.18462
0.184622
0.184688
0.184841
0.185121
0.185578
0.186311
0.187385
0.189117
0.190906
0.187521
0.187356
0.18719
0.187025
0.186858
0.186691
0.186524
0.186357
0.186191
0.186025
0.18586
0.185697
0.185537
0.18538
0.185229
0.185085
0.18495
0.184829
0.184725
0.184645
0.184596
0.184591
0.184645
0.184779
0.185026
0.185426
0.186046
0.18691
0.188191
0.189315
0.187514
0.187349
0.187184
0.187018
0.186851
0.186684
0.186517
0.18635
0.186183
0.186017
0.185852
0.185688
0.185527
0.18537
0.185217
0.185071
0.184935
0.18481
0.184702
0.184616
0.184559
0.184542
0.184577
0.184684
0.184888
0.185215
0.18571
0.186366
0.187265
0.187892
0.187508
0.187343
0.187177
0.187012
0.186845
0.186678
0.186511
0.186344
0.186176
0.18601
0.185844
0.185679
0.185517
0.185358
0.185204
0.185056
0.184915
0.184787
0.184672
0.184578
0.18451
0.184477
0.18449
0.184564
0.184716
0.184964
0.185331
0.185792
0.186372
0.186619
0.187502
0.187337
0.187172
0.187006
0.186839
0.186672
0.186505
0.186337
0.18617
0.186002
0.185835
0.18567
0.185506
0.185346
0.185189
0.185037
0.184893
0.184759
0.184638
0.184534
0.184452
0.184401
0.184387
0.184423
0.184519
0.184685
0.184928
0.185211
0.185524
0.185478
0.187497
0.187332
0.187167
0.187001
0.186834
0.186667
0.186499
0.186331
0.186163
0.185995
0.185827
0.18566
0.185495
0.185332
0.185172
0.185017
0.184868
0.184728
0.184598
0.184483
0.184386
0.184314
0.184272
0.184267
0.184306
0.18439
0.184515
0.184637
0.184728
0.184457
0.187493
0.187328
0.187163
0.186996
0.18683
0.186662
0.186494
0.186325
0.186156
0.185987
0.185818
0.18565
0.185483
0.185318
0.185155
0.184995
0.184841
0.184693
0.184554
0.184427
0.184314
0.184219
0.184147
0.1841
0.184081
0.184086
0.184102
0.184082
0.183989
0.183541
0.187489
0.187324
0.187158
0.186992
0.186825
0.186657
0.186489
0.186319
0.18615
0.18598
0.18581
0.18564
0.185471
0.185302
0.185136
0.184972
0.184812
0.184657
0.184508
0.184367
0.184237
0.184119
0.184015
0.183927
0.183851
0.183781
0.183697
0.183552
0.183305
0.182719
0.18732
0.187155
0.186988
0.186821
0.186653
0.186484
0.186314
0.186143
0.185972
0.185801
0.185629
0.185458
0.185287
0.185117
0.184948
0.184782
0.184619
0.184459
0.184305
0.184157
0.184015
0.18388
0.183751
0.183621
0.18348
0.183306
0.183052
0.182677
0.181982
0.187317
0.187151
0.186985
0.186817
0.186648
0.186479
0.186308
0.186137
0.185965
0.185792
0.185619
0.185445
0.185271
0.185097
0.184924
0.184751
0.184579
0.184409
0.184241
0.184075
0.18391
0.183745
0.183575
0.183394
0.183188
0.182933
0.182584
0.182102
0.181319
0.187314
0.187148
0.186981
0.186813
0.186644
0.186474
0.186303
0.186131
0.185958
0.185783
0.185608
0.185432
0.185255
0.185077
0.184899
0.18472
0.18454
0.184359
0.184177
0.183993
0.183805
0.18361
0.183403
0.183174
0.182908
0.182581
0.18215
0.181578
0.180724
0.187311
0.187145
0.186978
0.18681
0.186641
0.18647
0.186298
0.186125
0.185951
0.185775
0.185598
0.185419
0.185239
0.185057
0.184874
0.184688
0.1845
0.184309
0.184113
0.183912
0.183702
0.183479
0.183236
0.182963
0.182643
0.182252
0.18175
0.181103
0.180191
0.187308
0.187142
0.186975
0.186806
0.186637
0.186466
0.186293
0.186119
0.185944
0.185766
0.185587
0.185406
0.185223
0.185038
0.184849
0.184657
0.184461
0.18426
0.184051
0.183833
0.183602
0.183352
0.183076
0.182763
0.182394
0.181946
0.181383
0.180673
0.179714
0.187305
0.187139
0.186972
0.186803
0.186633
0.186462
0.186288
0.186114
0.185937
0.185758
0.185578
0.185394
0.185208
0.185019
0.184826
0.184628
0.184424
0.184212
0.183991
0.183757
0.183507
0.183232
0.182926
0.182575
0.182163
0.181666
0.18105
0.180286
0.179289
0.187303
0.187137
0.186969
0.1868
0.18663
0.186458
0.186284
0.186108
0.185931
0.185751
0.185568
0.185383
0.185194
0.185001
0.184804
0.1846
0.184389
0.184168
0.183935
0.183687
0.183418
0.183121
0.182787
0.182404
0.181953
0.181412
0.180751
0.179941
0.178912
0.1873
0.187134
0.186967
0.186798
0.186627
0.186454
0.18628
0.186104
0.185925
0.185744
0.18556
0.185372
0.185181
0.184985
0.184783
0.184574
0.184356
0.184127
0.183884
0.183622
0.183336
0.183019
0.182661
0.182248
0.181763
0.181185
0.180485
0.179637
0.178581
0.187298
0.187132
0.186965
0.186795
0.186624
0.186451
0.186277
0.1861
0.18592
0.185738
0.185552
0.185363
0.185169
0.18497
0.184764
0.184551
0.184327
0.18409
0.183837
0.183563
0.183263
0.182927
0.182547
0.182108
0.181594
0.180984
0.180251
0.17937
0.178292
0.187296
0.18713
0.186962
0.186793
0.186622
0.186449
0.186273
0.186096
0.185915
0.185732
0.185545
0.185354
0.185158
0.184957
0.184748
0.18453
0.1843
0.184057
0.183795
0.183511
0.183197
0.182846
0.182447
0.181986
0.181446
0.180809
0.180047
0.179139
0.178042
0.187295
0.187128
0.186961
0.186791
0.18662
0.186446
0.18627
0.186092
0.185911
0.185727
0.185539
0.185347
0.185149
0.184945
0.184733
0.184511
0.184277
0.184028
0.183759
0.183465
0.18314
0.182775
0.18236
0.18188
0.181319
0.180658
0.179873
0.178942
0.177831
0.187293
0.187127
0.186959
0.186789
0.186618
0.186444
0.186268
0.186089
0.185908
0.185723
0.185534
0.18534
0.185141
0.184935
0.18472
0.184495
0.184257
0.184003
0.183727
0.183426
0.183092
0.182715
0.182286
0.18179
0.181212
0.180532
0.179729
0.178779
0.177656
0.187292
0.187125
0.186957
0.186788
0.186616
0.186442
0.186266
0.186087
0.185905
0.185719
0.185529
0.185335
0.185134
0.184926
0.18471
0.184482
0.184241
0.183982
0.183702
0.183394
0.183052
0.182666
0.182226
0.181718
0.181126
0.180431
0.179612
0.178648
0.177516
0.18729
0.187124
0.186956
0.186786
0.186615
0.186441
0.186264
0.186085
0.185902
0.185716
0.185526
0.18533
0.185129
0.18492
0.184701
0.184472
0.184228
0.183966
0.183681
0.183369
0.183021
0.182628
0.18218
0.181662
0.18106
0.180354
0.179524
0.178549
0.17741
0.187289
0.187123
0.186955
0.186785
0.186613
0.186439
0.186263
0.186083
0.1859
0.185714
0.185523
0.185327
0.185125
0.184915
0.184695
0.184464
0.184218
0.183954
0.183667
0.183351
0.182999
0.182601
0.182147
0.181623
0.181014
0.1803
0.179463
0.178481
0.177336
0.187288
0.187122
0.186954
0.186784
0.186612
0.186438
0.186262
0.186082
0.185899
0.185712
0.185521
0.185325
0.185122
0.184911
0.184691
0.184459
0.184212
0.183947
0.183658
0.18334
0.182986
0.182585
0.182128
0.181601
0.180987
0.18027
0.179429
0.178443
0.177296
0.187287
0.187121
0.186953
0.186783
0.186611
0.186437
0.18626
0.186081
0.185898
0.185711
0.18552
0.185323
0.18512
0.184909
0.184689
0.184456
0.184209
0.183943
0.183654
0.183336
0.182981
0.18258
0.182122
0.181594
0.18098
0.180262
0.179421
0.178435
0.177287
0.187285
0.187119
0.186952
0.186782
0.18661
0.186436
0.18626
0.18608
0.185897
0.18571
0.185519
0.185323
0.18512
0.184909
0.184689
0.184457
0.184211
0.183946
0.183658
0.183341
0.182988
0.18259
0.182135
0.181611
0.181001
0.180287
0.17945
0.17847
0.177324
0.187284
0.187118
0.186951
0.186781
0.186609
0.186436
0.186259
0.18608
0.185897
0.185711
0.18552
0.185324
0.185122
0.184912
0.184693
0.184462
0.184217
0.183954
0.183669
0.183356
0.183007
0.182615
0.182167
0.18165
0.181049
0.180345
0.179518
0.178548
0.177408
0.187282
0.187117
0.18695
0.18678
0.186609
0.186435
0.186259
0.18608
0.185898
0.185712
0.185521
0.185326
0.185125
0.184916
0.184699
0.18447
0.184228
0.183969
0.183688
0.183381
0.183039
0.182655
0.182217
0.181713
0.181126
0.180437
0.179626
0.17867
0.17754
0.187281
0.187116
0.186949
0.18678
0.186608
0.186435
0.186259
0.186081
0.185899
0.185713
0.185524
0.18533
0.18513
0.184923
0.184708
0.184482
0.184244
0.183989
0.183715
0.183415
0.183083
0.18271
0.182287
0.181799
0.18123
0.180562
0.179772
0.178837
0.177721
0.18728
0.187115
0.186948
0.186779
0.186608
0.186435
0.18626
0.186082
0.185901
0.185716
0.185528
0.185335
0.185137
0.184932
0.184719
0.184498
0.184264
0.184015
0.183748
0.183458
0.183138
0.18278
0.182374
0.181907
0.181363
0.180722
0.179959
0.179052
0.177952
0.187278
0.187114
0.186947
0.186779
0.186608
0.186436
0.186261
0.186083
0.185903
0.185719
0.185532
0.185341
0.185145
0.184943
0.184734
0.184516
0.184288
0.184046
0.183789
0.18351
0.183204
0.182864
0.18248
0.182038
0.181524
0.180915
0.180186
0.179314
0.178237
0.187277
0.187113
0.186946
0.186778
0.186608
0.186436
0.186262
0.186085
0.185906
0.185723
0.185537
0.185348
0.185154
0.184955
0.18475
0.184537
0.184316
0.184082
0.183835
0.183569
0.18328
0.182961
0.182602
0.182191
0.181712
0.181143
0.180456
0.179627
0.178578
0.187276
0.187112
0.186946
0.186778
0.186609
0.186437
0.186263
0.186087
0.185909
0.185728
0.185543
0.185356
0.185165
0.184969
0.184768
0.184561
0.184347
0.184123
0.183887
0.183636
0.183366
0.18307
0.18274
0.182365
0.181927
0.181406
0.180769
0.179993
0.178978
0.187274
0.187111
0.186945
0.186778
0.186609
0.186438
0.186265
0.18609
0.185912
0.185732
0.18555
0.185365
0.185176
0.184984
0.184788
0.184587
0.18438
0.184166
0.183943
0.183709
0.18346
0.18319
0.182893
0.182558
0.182168
0.181702
0.181126
0.180414
0.179442
0.187273
0.18711
0.186945
0.186778
0.186609
0.186439
0.186267
0.186092
0.185916
0.185738
0.185557
0.185374
0.185189
0.185001
0.184809
0.184615
0.184416
0.184213
0.184004
0.183787
0.18356
0.183319
0.183059
0.182768
0.182433
0.182033
0.181528
0.180895
0.179975
0.187272
0.187109
0.186944
0.186778
0.18661
0.18644
0.186268
0.186095
0.18592
0.185743
0.185565
0.185384
0.185202
0.185018
0.184831
0.184643
0.184453
0.184261
0.184066
0.183868
0.183665
0.183456
0.183234
0.182994
0.18272
0.182395
0.181973
0.181439
0.180582
0.187271
0.187108
0.186944
0.186778
0.186611
0.186441
0.186271
0.186098
0.185924
0.185749
0.185572
0.185394
0.185215
0.185035
0.184854
0.184673
0.184491
0.18431
0.18413
0.183951
0.183774
0.183596
0.183417
0.183231
0.183026
0.182787
0.182463
0.182049
0.181271
0.18727
0.187108
0.186944
0.186778
0.186611
0.186443
0.186273
0.186102
0.185929
0.185755
0.18558
0.185405
0.185229
0.185052
0.184877
0.184702
0.18453
0.18436
0.184195
0.184036
0.183884
0.18374
0.183605
0.183478
0.183347
0.183207
0.182997
0.182733
0.182051
0.187269
0.187107
0.186944
0.186779
0.186612
0.186445
0.186275
0.186105
0.185934
0.185761
0.185588
0.185415
0.185242
0.18507
0.1849
0.184732
0.184568
0.184409
0.184259
0.184119
0.183993
0.183884
0.183794
0.183729
0.183679
0.18365
0.18357
0.183494
0.182928
0.187269
0.187107
0.186944
0.18678
0.186614
0.186447
0.186278
0.186109
0.185938
0.185768
0.185596
0.185426
0.185255
0.185087
0.184921
0.184759
0.184603
0.184455
0.184318
0.184196
0.184094
0.184018
0.183972
0.183968
0.184
0.184091
0.184149
0.184306
0.183863
0.187269
0.187108
0.186945
0.186781
0.186616
0.186449
0.186281
0.186113
0.185943
0.185774
0.185604
0.185435
0.185267
0.185102
0.18494
0.184784
0.184634
0.184495
0.18437
0.184263
0.184182
0.184134
0.184128
0.18418
0.184288
0.184498
0.184691
0.185118
0.184799
0.187269
0.187109
0.186946
0.186783
0.186618
0.186451
0.186284
0.186116
0.185948
0.185779
0.185611
0.185444
0.185278
0.185115
0.184957
0.184805
0.184661
0.184529
0.184413
0.18432
0.184256
0.184232
0.184259
0.184361
0.184536
0.184864
0.185185
0.185913
0.18572
0.18727
0.18711
0.186948
0.186784
0.18662
0.186454
0.186287
0.18612
0.185952
0.185784
0.185617
0.185451
0.185287
0.185127
0.184971
0.184822
0.184683
0.184556
0.184449
0.184365
0.184315
0.184311
0.184366
0.184512
0.184744
0.185185
0.18562
0.186682
0.186612
0.18727
0.18711
0.186948
0.186785
0.186621
0.186455
0.186289
0.186122
0.185955
0.185787
0.185621
0.185456
0.185293
0.185134
0.18498
0.184833
0.184697
0.184575
0.184473
0.184397
0.184358
0.184369
0.184445
0.184627
0.184905
0.185449
0.185983
0.1874
0.18745
0.187271
0.18711
0.186949
0.186786
0.186621
0.186456
0.18629
0.186123
0.185956
0.185789
0.185623
0.185459
0.185296
0.185138
0.184985
0.184841
0.184706
0.184587
0.184488
0.184418
0.184385
0.184407
0.184497
0.184707
0.185018
0.185654
0.186267
0.188048
0.188223
0.187111
0.186949
0.186786
0.186622
0.186456
0.18629
0.186124
0.185957
0.18579
0.185624
0.18546
0.185298
0.185141
0.184988
0.184844
0.184711
0.184594
0.184497
0.18443
0.184401
0.18443
0.184529
0.184758
0.185092
0.185802
0.186478
0.188612
0.188929
0.187111
0.186949
0.186786
0.186622
0.186457
0.18629
0.186124
0.185957
0.18579
0.185624
0.18546
0.185299
0.185141
0.184989
0.184845
0.184713
0.184596
0.1845
0.184434
0.184407
0.184439
0.184543
0.184784
0.185131
0.185898
0.186621
0.189079
0.189564
0.18711
0.186949
0.186786
0.186621
0.186456
0.18629
0.186123
0.185956
0.18579
0.185624
0.185459
0.185298
0.18514
0.184988
0.184844
0.184711
0.184594
0.184498
0.184432
0.184405
0.184438
0.184542
0.184789
0.185141
0.185946
0.186701
0.189439
0.190129
0.18711
0.186948
0.186785
0.18662
0.186455
0.186289
0.186122
0.185955
0.185788
0.185622
0.185458
0.185296
0.185138
0.184985
0.184841
0.184707
0.184589
0.184492
0.184425
0.184396
0.184428
0.18453
0.184777
0.185128
0.185951
0.186727
0.189682
0.190624
0.187109
0.186947
0.186784
0.186619
0.186454
0.186287
0.18612
0.185953
0.185786
0.18562
0.185455
0.185293
0.185134
0.184981
0.184836
0.184701
0.184582
0.184484
0.184414
0.184383
0.184411
0.184509
0.18475
0.185096
0.185918
0.186704
0.189804
0.19105
0.187107
0.186945
0.186782
0.186617
0.186451
0.186285
0.186118
0.18595
0.185783
0.185616
0.185451
0.185288
0.185129
0.184975
0.184829
0.184694
0.184573
0.184472
0.1844
0.184365
0.184388
0.18448
0.184712
0.185047
0.185851
0.186639
0.189791
0.191403
0.187105
0.186943
0.18678
0.186615
0.186449
0.186282
0.186115
0.185947
0.18578
0.185613
0.185447
0.185284
0.185124
0.184969
0.184822
0.184685
0.184562
0.184459
0.184383
0.184344
0.184361
0.184445
0.184664
0.184986
0.185755
0.186536
0.189631
0.191672
0.187106
0.186943
0.18678
0.186615
0.186449
0.186282
0.186115
0.185947
0.185779
0.185612
0.185446
0.185282
0.185121
0.184965
0.184817
0.184678
0.184554
0.184448
0.184369
0.184326
0.184336
0.184412
0.184617
0.184925
0.185653
0.186421
0.18937
0.191859
0.187109
0.186947
0.186783
0.186618
0.186452
0.186285
0.186117
0.185949
0.185781
0.185614
0.185447
0.185283
0.185122
0.184966
0.184817
0.184677
0.184551
0.184444
0.184363
0.184317
0.184324
0.184395
0.184591
0.18489
0.185593
0.186351
0.189196
0.191977
0.207303
0.197917
0.18855
0.184282
0.180871
0.17669
0.172357
0.168148
0.163858
0.159352
0.154612
0.149603
0.144259
0.138509
0.132286
0.1255
0.118102
0.109908
0.101029
0.0907944
0.0803349
0.0663855
0.0557219
0.0314758
0.0301583
0.201334
0.194301
0.18678
0.182975
0.179672
0.175648
0.171464
0.167337
0.163094
0.158621
0.153894
0.148881
0.143522
0.137752
0.131508
0.124701
0.117283
0.109065
0.100167
0.0898992
0.0794272
0.0654093
0.054769
0.030319
0.0291665
0.196504
0.191443
0.185394
0.18177
0.178468
0.174588
0.170547
0.166497
0.162294
0.157846
0.153128
0.148105
0.142727
0.136933
0.130664
0.123828
0.116384
0.108131
0.0992139
0.0888861
0.0784316
0.0642572
0.0537914
0.0288407
0.028358
0.193148
0.189263
0.184262
0.180769
0.177464
0.173703
0.169775
0.165781
0.161609
0.157183
0.152475
0.147449
0.142058
0.136245
0.129954
0.123092
0.115624
0.107337
0.0984045
0.0880113
0.0775892
0.0632351
0.0530036
0.0274898
0.0279403
0.190583
0.187406
0.1832
0.179867
0.176598
0.172945
0.169111
0.165167
0.161024
0.15662
0.151922
0.146897
0.1415
0.135673
0.129365
0.122481
0.114995
0.106676
0.0977332
0.0872787
0.0768943
0.062369
0.0523795
0.0263577
0.0277797
0.188483
0.18577
0.182172
0.179014
0.175806
0.172257
0.168509
0.164614
0.160501
0.156118
0.151434
0.146412
0.141011
0.135174
0.128853
0.121951
0.114448
0.106102
0.097151
0.0866397
0.0762951
0.0616107
0.0518598
0.0253901
0.0277547
0.186729
0.184335
0.181195
0.178202
0.175071
0.17162
0.167953
0.164105
0.160024
0.155663
0.150993
0.145977
0.140574
0.13473
0.128397
0.12148
0.113963
0.105591
0.0966341
0.0860696
0.0757662
0.0609329
0.0514169
0.0245437
0.0278146
0.18525
0.18308
0.180279
0.177435
0.174385
0.171028
0.167436
0.163636
0.159587
0.155249
0.150593
0.145584
0.140181
0.134332
0.127991
0.121059
0.11353
0.105134
0.0961729
0.0855585
0.0752969
0.0603245
0.0510384
0.0237979
0.0279359
0.183986
0.181976
0.179426
0.176713
0.173747
0.170476
0.166954
0.163201
0.159185
0.154871
0.15023
0.145229
0.139828
0.133975
0.127626
0.120683
0.113142
0.104725
0.0957604
0.0850994
0.0748797
0.0597779
0.0507151
0.02314
0.0281006
0.182892
0.180999
0.178636
0.176037
0.173153
0.169962
0.166506
0.162798
0.158814
0.154524
0.1499
0.144907
0.139509
0.133653
0.127299
0.120344
0.112795
0.104357
0.0953906
0.0846864
0.0745079
0.0592864
0.0504384
0.0225587
0.0282935
0.181938
0.18013
0.177909
0.175408
0.1726
0.169483
0.166088
0.162425
0.158473
0.154206
0.149598
0.144615
0.139221
0.133364
0.127005
0.120041
0.112483
0.104027
0.0950586
0.0843145
0.074176
0.0588444
0.0502012
0.0220445
0.0285033
0.181098
0.179356
0.177242
0.174825
0.172087
0.169038
0.165699
0.162079
0.158159
0.153916
0.149324
0.144351
0.138961
0.133104
0.12674
0.119768
0.112202
0.10373
0.0947604
0.0839795
0.0738795
0.0584472
0.0499979
0.0215896
0.0287213
0.180356
0.178664
0.176633
0.174287
0.171613
0.168625
0.165339
0.161759
0.15787
0.15365
0.149074
0.144111
0.138726
0.132869
0.126503
0.119523
0.11195
0.103463
0.0944927
0.0836782
0.0736148
0.0580907
0.0498235
0.0211874
0.0289411
0.179697
0.178045
0.176079
0.173793
0.171177
0.168245
0.165007
0.161465
0.157605
0.153407
0.148848
0.143895
0.138515
0.132659
0.12629
0.119303
0.111725
0.103223
0.0942529
0.0834077
0.0733786
0.0577717
0.0496741
0.0208327
0.0291574
0.179113
0.177492
0.175576
0.173342
0.170778
0.167895
0.164701
0.161195
0.157363
0.153187
0.148643
0.1437
0.138326
0.132471
0.126099
0.119107
0.111524
0.103009
0.0940385
0.0831657
0.0731684
0.0574872
0.0495461
0.0205208
0.0293664
0.178594
0.176999
0.175122
0.172932
0.170413
0.167575
0.164422
0.160948
0.157143
0.152988
0.148458
0.143526
0.138157
0.132303
0.12593
0.118932
0.111344
0.102818
0.0938474
0.0829499
0.0729816
0.0572345
0.0494366
0.0202479
0.0295648
0.178133
0.176559
0.174715
0.172561
0.170082
0.167285
0.164167
0.160724
0.156944
0.152808
0.148293
0.14337
0.138006
0.132153
0.125779
0.118777
0.111185
0.102649
0.0936777
0.0827584
0.0728163
0.0570114
0.0493427
0.0200105
0.0297501
0.177726
0.17617
0.174351
0.172228
0.169785
0.167023
0.163938
0.160523
0.156765
0.152647
0.148145
0.143231
0.137872
0.132022
0.125647
0.118641
0.111044
0.1025
0.0935278
0.0825894
0.0726705
0.0568157
0.0492622
0.0198058
0.0299203
0.177369
0.175828
0.174029
0.171932
0.16952
0.166788
0.163732
0.160343
0.156606
0.152504
0.148014
0.143108
0.137755
0.131906
0.12553
0.118521
0.110921
0.102369
0.093396
0.0824414
0.0725424
0.0566455
0.049193
0.0196312
0.0300736
0.177057
0.175529
0.173746
0.171672
0.169285
0.166581
0.16355
0.160183
0.156465
0.152378
0.1479
0.143001
0.137652
0.131805
0.125429
0.118417
0.110814
0.102255
0.093281
0.0823128
0.0724306
0.0564991
0.049133
0.0194846
0.0302088
0.176789
0.175271
0.173502
0.171446
0.169081
0.1664
0.163391
0.160044
0.156342
0.152268
0.1478
0.142909
0.137564
0.131718
0.125341
0.118327
0.110721
0.102156
0.0931816
0.0822025
0.0723336
0.0563749
0.0490808
0.0193641
0.0303248
0.176561
0.175052
0.173294
0.171253
0.168906
0.166245
0.163255
0.159924
0.156237
0.152175
0.147715
0.142829
0.137488
0.131644
0.125267
0.11825
0.110642
0.102073
0.0930965
0.0821093
0.0722502
0.0562717
0.0490348
0.0192682
0.0304205
0.176373
0.174871
0.173121
0.171092
0.168761
0.166115
0.163141
0.159824
0.156149
0.152096
0.147643
0.142763
0.137425
0.131581
0.125204
0.118186
0.110575
0.102003
0.0930249
0.0820321
0.0721793
0.0561882
0.0489938
0.0191956
0.0304954
0.176223
0.174726
0.172983
0.170962
0.168643
0.16601
0.163048
0.159743
0.156077
0.152032
0.147585
0.142709
0.137373
0.131531
0.125153
0.118134
0.110521
0.101947
0.092966
0.0819701
0.0721203
0.0561232
0.0489574
0.0191439
0.0305507
0.176109
0.174616
0.172878
0.170864
0.168554
0.16593
0.162977
0.15968
0.156022
0.151982
0.14754
0.142667
0.137333
0.131491
0.125113
0.118093
0.110478
0.101902
0.0929191
0.0819224
0.0720726
0.0560752
0.0489258
0.0191108
0.0305883
0.176031
0.174541
0.172805
0.170796
0.168491
0.165874
0.162927
0.159636
0.155982
0.151947
0.147508
0.142636
0.137303
0.131461
0.125083
0.118062
0.110446
0.10187
0.0928834
0.0818891
0.0720344
0.0560461
0.0488937
0.019103
0.0305979
0.175989
0.174499
0.172765
0.170759
0.168457
0.165842
0.162899
0.15961
0.155959
0.151925
0.147487
0.142617
0.137284
0.131442
0.125063
0.118042
0.110423
0.10185
0.092857
0.081873
0.0719992
0.056047
0.0488395
0.0191569
0.0305294
0.175982
0.174492
0.172758
0.170751
0.16845
0.165835
0.162892
0.159603
0.155951
0.151918
0.147479
0.142608
0.137274
0.131433
0.125052
0.118033
0.11041
0.101842
0.0928377
0.0818762
0.0719612
0.056087
0.048745
0.0193022
0.0303427
0.176024
0.174532
0.172795
0.170785
0.16848
0.165861
0.162913
0.15962
0.155965
0.151929
0.147487
0.142614
0.137279
0.131436
0.125054
0.118035
0.110412
0.101847
0.0928371
0.0818885
0.0719522
0.0561191
0.0487069
0.0193837
0.0302474
0.176117
0.17462
0.172878
0.170863
0.168549
0.165922
0.162965
0.159664
0.156002
0.151959
0.147513
0.142637
0.137298
0.131454
0.125071
0.118053
0.110429
0.101867
0.0928559
0.0819136
0.0719705
0.0561519
0.0487138
0.0194234
0.0302139
0.176262
0.174759
0.173009
0.170985
0.168659
0.166017
0.163048
0.159735
0.156062
0.152011
0.147558
0.142676
0.137334
0.131487
0.125104
0.118086
0.110463
0.101904
0.0928934
0.0819558
0.0720104
0.0561983
0.0487442
0.0194607
0.0301906
0.176461
0.174949
0.173189
0.171152
0.168809
0.166149
0.163162
0.159833
0.156146
0.152083
0.147621
0.142732
0.137385
0.131536
0.125152
0.118135
0.110514
0.101957
0.0929502
0.0820164
0.0720719
0.0562616
0.0487953
0.0195034
0.0301697
0.176716
0.175192
0.173419
0.171364
0.169
0.166317
0.163307
0.159958
0.156254
0.152177
0.147704
0.142807
0.137454
0.131602
0.125218
0.118201
0.110583
0.10203
0.0930275
0.0820966
0.0721566
0.0563426
0.04887
0.0195509
0.030156
0.177031
0.175491
0.1737
0.171625
0.169233
0.166521
0.163485
0.160111
0.156387
0.152293
0.147807
0.1429
0.137542
0.131687
0.125301
0.118287
0.110672
0.102123
0.0931271
0.0821979
0.0722665
0.0564426
0.0489711
0.0196036
0.030154
0.177408
0.17585
0.174036
0.171934
0.169509
0.166763
0.163695
0.160294
0.156546
0.152433
0.147932
0.143015
0.13765
0.131791
0.125406
0.118393
0.110783
0.102237
0.0932507
0.0823222
0.0724038
0.0565636
0.0491015
0.0196632
0.0301672
0.177855
0.176272
0.174429
0.172295
0.169831
0.167044
0.163939
0.160506
0.156731
0.152597
0.14808
0.143151
0.137779
0.131917
0.125532
0.118521
0.110917
0.102376
0.0934006
0.0824717
0.0725709
0.0567081
0.0492646
0.0197317
0.0301996
0.178377
0.176762
0.174882
0.17271
0.170198
0.167365
0.164218
0.160749
0.156945
0.152787
0.148253
0.143312
0.137932
0.132066
0.125682
0.118674
0.111078
0.102541
0.0935792
0.0826486
0.0727706
0.0568784
0.0494643
0.0198114
0.0302566
0.178983
0.177327
0.175399
0.173182
0.170614
0.167726
0.164532
0.161023
0.157187
0.153005
0.148452
0.143498
0.13811
0.132242
0.125859
0.118854
0.111267
0.102735
0.0937893
0.0828556
0.0730061
0.0570775
0.0497051
0.019905
0.0303441
0.179686
0.177974
0.175985
0.173713
0.171079
0.168129
0.164883
0.161331
0.157461
0.153252
0.148679
0.143712
0.138317
0.132445
0.126065
0.119064
0.111487
0.102961
0.0940339
0.0830956
0.0732809
0.0573085
0.049992
0.020016
0.030469
0.1805
0.178712
0.176643
0.174307
0.171596
0.168575
0.165272
0.161673
0.157766
0.15353
0.148937
0.143956
0.138554
0.13268
0.126303
0.119307
0.111742
0.103221
0.0943164
0.0833721
0.0735989
0.0575757
0.0503299
0.02015
0.0306381
0.181448
0.179551
0.17738
0.174968
0.172166
0.169065
0.1657
0.162052
0.158106
0.153841
0.149228
0.144233
0.138824
0.132949
0.126576
0.119587
0.112035
0.10352
0.0946411
0.0836888
0.0739654
0.0578826
0.0507276
0.0203094
0.0308661
0.182563
0.180501
0.178199
0.175701
0.172791
0.169601
0.166169
0.162467
0.158482
0.154188
0.149555
0.144547
0.139132
0.133256
0.126889
0.119906
0.112371
0.103861
0.0950137
0.0840479
0.0743899
0.0582265
0.0512072
0.0204774
0.0311989
0.183844
0.181522
0.179064
0.176476
0.173442
0.170158
0.166658
0.162903
0.158879
0.154557
0.149904
0.144884
0.139465
0.133589
0.127231
0.120255
0.112739
0.104232
0.0954228
0.0844328
0.0748641
0.0585829
0.0517753
0.0206154
0.0316838
0.185247
0.182554
0.179925
0.177248
0.174081
0.170704
0.16714
0.163334
0.159273
0.154926
0.150256
0.145226
0.139804
0.13393
0.127581
0.120612
0.113116
0.104612
0.0958426
0.0848267
0.0753516
0.0589492
0.052369
0.0207704
0.0322295
0.186774
0.183579
0.180766
0.178007
0.174699
0.171233
0.167608
0.163755
0.159661
0.15529
0.150605
0.145567
0.140144
0.134274
0.127934
0.120974
0.113497
0.104996
0.0962652
0.085228
0.0758388
0.0593325
0.0529574
0.0209767
0.0327828
0.188438
0.184585
0.181581
0.178746
0.175295
0.171743
0.168061
0.164163
0.160039
0.155648
0.150949
0.145906
0.140484
0.134618
0.128289
0.121337
0.113879
0.105383
0.0966867
0.0856345
0.0763197
0.0597324
0.05353
0.0212392
0.0333302
0.190247
0.185564
0.182361
0.179462
0.175867
0.172233
0.168499
0.164559
0.160406
0.155996
0.151288
0.14624
0.14082
0.13496
0.128642
0.1217
0.11426
0.105771
0.0971041
0.0860435
0.0767911
0.0601455
0.0540829
0.0215535
0.03387
0.192206
0.18651
0.183102
0.180152
0.176415
0.172703
0.16892
0.164942
0.160763
0.156336
0.151618
0.146568
0.141151
0.135298
0.128991
0.12206
0.114636
0.106156
0.0975156
0.0864527
0.0772509
0.0605683
0.0546139
0.0219134
0.034402
0.194309
0.187425
0.1838
0.180816
0.176941
0.173154
0.169325
0.165311
0.161108
0.156666
0.15194
0.146889
0.141477
0.135632
0.129336
0.122416
0.115008
0.106537
0.0979194
0.08686
0.0776976
0.0609973
0.0551217
0.022312
0.0349262
0.196541
0.188312
0.184453
0.181452
0.177448
0.173587
0.169716
0.165667
0.161441
0.156985
0.152253
0.147203
0.141796
0.13596
0.129676
0.122766
0.115373
0.106913
0.0983142
0.0872633
0.0781301
0.0614287
0.0556059
0.0227416
0.0354427
0.198881
0.189178
0.18506
0.182063
0.177936
0.174003
0.170091
0.166011
0.161762
0.157293
0.152557
0.147508
0.142108
0.136281
0.130008
0.12311
0.115729
0.107282
0.0986986
0.0876601
0.0785474
0.0618587
0.0560661
0.0231939
0.0359514
0.201298
0.190031
0.185623
0.182646
0.178407
0.174402
0.170452
0.166341
0.162071
0.15759
0.15285
0.147803
0.142411
0.136594
0.130332
0.123445
0.116077
0.107641
0.0990707
0.0880478
0.0789478
0.0622828
0.0565015
0.0236601
0.0364507
0.203754
0.19088
0.186145
0.183203
0.178861
0.174784
0.170798
0.166658
0.162367
0.157875
0.153132
0.148089
0.142704
0.136897
0.130645
0.12377
0.116412
0.10799
0.0994292
0.0884241
0.0793303
0.0626976
0.0569113
0.0241329
0.0369387
0.206239
0.191739
0.186641
0.183741
0.179304
0.175154
0.171132
0.166963
0.162652
0.15815
0.153404
0.148365
0.142989
0.137192
0.130951
0.124087
0.116739
0.108329
0.0997757
0.0887902
0.0796967
0.0631033
0.0572981
0.0246097
0.0374184
0.208842
0.192641
0.18713
0.184265
0.179741
0.175514
0.171457
0.167259
0.162928
0.158417
0.15367
0.148636
0.143268
0.137481
0.131251
0.124398
0.117058
0.108661
0.100113
0.0891471
0.0800505
0.0634986
0.0576679
0.025081
0.0378994
0.211617
0.193554
0.187581
0.184739
0.18014
0.175842
0.171751
0.167529
0.163179
0.15866
0.153912
0.148884
0.143524
0.137746
0.131524
0.12468
0.117348
0.108961
0.100417
0.089467
0.0803699
0.0638478
0.0580052
0.0254889
0.0383601
0.213949
0.194265
0.187874
0.185041
0.180405
0.176061
0.171948
0.167709
0.163348
0.158823
0.154075
0.149049
0.143694
0.137921
0.131704
0.124866
0.117538
0.109156
0.100617
0.0896719
0.0805816
0.0640643
0.0582382
0.0257241
0.0386889
)
;

boundaryField
{
    inlet
    {
        type            zeroGradient;
    }
    outlet
    {
        type            fixedValue;
        value           uniform 0;
    }
    upperWall
    {
        type            zeroGradient;
    }
    lowerWall
    {
        type            zeroGradient;
    }
    frontAndBack
    {
        type            empty;
    }
    procBoundary0to1
    {
        type            processor;
        value           nonuniform List<scalar> 
59
(
0.18774
0.18772
0.187704
0.187694
0.187685
0.187678
0.187672
0.187666
0.187661
0.187657
0.187653
0.187485
0.187485
0.187482
0.187478
0.187475
0.187473
0.18747
0.187467
0.187465
0.187463
0.187461
0.187459
0.187458
0.187456
0.187455
0.187453
0.187452
0.187451
0.187449
0.187447
0.187446
0.187444
0.187443
0.187441
0.18744
0.187438
0.187436
0.187435
0.187433
0.187432
0.18743
0.187429
0.187428
0.187428
0.187429
0.187429
0.187429
0.187429
0.187271
0.187271
0.187271
0.187271
0.18727
0.187269
0.187267
0.187266
0.187266
0.187269
)
;
    }
}


// ************************************************************************* //
