/*--------------------------------*- C++ -*----------------------------------*\
  =========                 |
  \\      /  F ield         | OpenFOAM: The Open Source CFD Toolbox
   \\    /   O peration     | Website:  https://openfoam.org
    \\  /    A nd           | Version:  6
     \\/     M anipulation  |
\*---------------------------------------------------------------------------*/
FoamFile
{
    version     2.0;
    format      ascii;
    class       surfaceScalarField;
    location    "0.04";
    object      phi;
}
// * * * * * * * * * * * * * * * * * * * * * * * * * * * * * * * * * * * * * //

dimensions      [0 3 -1 0 0 0 0];

internalField   nonuniform List<scalar> 
6048
(
4.47645e-07
6.49905e-10
4.46988e-07
6.5717e-10
4.46323e-07
6.64642e-10
4.45651e-07
6.72346e-10
4.4497e-07
6.80345e-10
4.44281e-07
6.88705e-10
4.43584e-07
6.9753e-10
4.42877e-07
7.06933e-10
4.4216e-07
7.17085e-10
4.41432e-07
7.28197e-10
4.40691e-07
7.40563e-10
4.39937e-07
7.54548e-10
4.39166e-07
7.70656e-10
4.38376e-07
7.89535e-10
4.37564e-07
8.12077e-10
4.36725e-07
8.39477e-10
4.35852e-07
8.73368e-10
4.34935e-07
9.16048e-10
4.33965e-07
9.70769e-10
4.32922e-07
1.04226e-09
4.31785e-07
1.13763e-09
4.30517e-07
1.26794e-09
4.29065e-07
1.45142e-09
4.27346e-07
1.71958e-09
4.25212e-07
2.13389e-09
4.22397e-07
2.8151e-09
4.18315e-07
4.08171e-09
4.11783e-07
6.53205e-09
3.99089e-07
1.26938e-08
2.38174e-08
3.75272e-07
4.74233e-07
1.33223e-09
4.73543e-07
1.34688e-09
4.72846e-07
1.36191e-09
4.72141e-07
1.3774e-09
4.71428e-07
1.39344e-09
4.70707e-07
1.41015e-09
4.69976e-07
1.4277e-09
4.69237e-07
1.44631e-09
4.68488e-07
1.46628e-09
4.67728e-07
1.48799e-09
4.66957e-07
1.51198e-09
4.66172e-07
1.53888e-09
4.65373e-07
1.56962e-09
4.64558e-07
1.60536e-09
4.63722e-07
1.64767e-09
4.62863e-07
1.69871e-09
4.61975e-07
1.76137e-09
4.61051e-07
1.83969e-09
4.60082e-07
1.93935e-09
4.59056e-07
2.06854e-09
4.57954e-07
2.23935e-09
4.56752e-07
2.47025e-09
4.55413e-07
2.79084e-09
4.53882e-07
3.25047e-09
4.52076e-07
3.94027e-09
4.49862e-07
5.02845e-09
4.47024e-07
6.9203e-09
4.43223e-07
1.03329e-08
4.37892e-07
1.80245e-08
3.2777e-08
4.28932e-07
4.83152e-07
2.02769e-09
4.82449e-07
2.04971e-09
4.81738e-07
2.07231e-09
4.8102e-07
2.09559e-09
4.80294e-07
2.11967e-09
4.79559e-07
2.14474e-09
4.78816e-07
2.17105e-09
4.78063e-07
2.19891e-09
4.77301e-07
2.22876e-09
4.76528e-07
2.26116e-09
4.75743e-07
2.29684e-09
4.74945e-07
2.33679e-09
4.74132e-07
2.3823e-09
4.73303e-07
2.43507e-09
4.72453e-07
2.49739e-09
4.71579e-07
2.57232e-09
4.70677e-07
2.66407e-09
4.69738e-07
2.77841e-09
4.68754e-07
2.92345e-09
4.67712e-07
3.1108e-09
4.66593e-07
3.35745e-09
4.65375e-07
3.68908e-09
4.64019e-07
4.146e-09
4.62476e-07
4.79402e-09
4.60667e-07
5.7491e-09
4.58477e-07
7.21804e-09
4.55753e-07
9.64436e-09
4.52283e-07
1.38031e-08
4.48307e-07
2.20008e-08
3.66419e-08
4.44442e-07
4.88224e-07
2.73153e-09
4.87512e-07
2.76088e-09
4.86794e-07
2.791e-09
4.86067e-07
2.82199e-09
4.85333e-07
2.85406e-09
4.8459e-07
2.88743e-09
4.83839e-07
2.92243e-09
4.83078e-07
2.95947e-09
4.82308e-07
2.99913e-09
4.81527e-07
3.04213e-09
4.80734e-07
3.08943e-09
4.79929e-07
3.14233e-09
4.79109e-07
3.20247e-09
4.78272e-07
3.27211e-09
4.77415e-07
3.35419e-09
4.76535e-07
3.4527e-09
4.75626e-07
3.57307e-09
4.74681e-07
3.72276e-09
4.73692e-07
3.91218e-09
4.72647e-07
4.15614e-09
4.71528e-07
4.47615e-09
4.70313e-07
4.9043e-09
4.68969e-07
5.49013e-09
4.6745e-07
6.31268e-09
4.65694e-07
7.50565e-09
4.63613e-07
9.29856e-09
4.61119e-07
1.21383e-08
4.5815e-07
1.67724e-08
4.55138e-07
2.50131e-08
3.86431e-08
4.53137e-07
4.91673e-07
3.44177e-09
4.90956e-07
3.47839e-09
4.90231e-07
3.51592e-09
4.89498e-07
3.55455e-09
4.88758e-07
3.5945e-09
4.88009e-07
3.63606e-09
4.87252e-07
3.67963e-09
4.86485e-07
3.72573e-09
4.8571e-07
3.77503e-09
4.84923e-07
3.82846e-09
4.84125e-07
3.88718e-09
4.83315e-07
3.95275e-09
4.8249e-07
4.02722e-09
4.81649e-07
4.1133e-09
4.80789e-07
4.2146e-09
4.79905e-07
4.33596e-09
4.78995e-07
4.48397e-09
4.7805e-07
4.66762e-09
4.77062e-07
4.89943e-09
4.76022e-07
5.19709e-09
4.74912e-07
5.586e-09
4.73712e-07
6.10367e-09
4.72396e-07
6.80686e-09
4.70924e-07
7.78409e-09
4.6925e-07
9.17952e-09
4.67318e-07
1.12306e-08
4.65093e-07
1.43636e-08
4.62612e-07
1.92532e-08
4.60334e-07
2.72915e-08
3.9715e-08
4.59262e-07
4.94214e-07
4.15744e-09
4.93491e-07
4.20123e-09
4.92761e-07
4.24609e-09
4.92023e-07
4.29224e-09
4.91278e-07
4.33994e-09
4.90524e-07
4.38955e-09
4.89763e-07
4.44153e-09
4.88992e-07
4.49649e-09
4.88212e-07
4.55524e-09
4.87421e-07
4.61884e-09
4.8662e-07
4.68867e-09
4.85806e-07
4.76655e-09
4.84978e-07
4.85486e-09
4.84135e-07
4.95677e-09
4.83273e-07
5.07649e-09
4.82389e-07
5.21965e-09
4.81479e-07
5.39385e-09
4.80537e-07
5.60951e-09
4.79556e-07
5.88096e-09
4.78525e-07
6.22832e-09
4.7743e-07
6.68028e-09
4.76256e-07
7.27848e-09
4.74977e-07
8.08492e-09
4.73568e-07
9.19387e-09
4.71994e-07
1.07534e-08
4.70227e-07
1.29977e-08
4.68272e-07
1.63185e-08
4.66224e-07
2.13006e-08
4.64517e-07
2.89988e-08
4.02314e-08
4.64001e-07
4.96171e-07
4.87812e-09
4.95444e-07
4.92899e-09
4.94709e-07
4.98106e-09
4.93966e-07
5.03458e-09
4.93216e-07
5.08988e-09
4.92459e-07
5.14737e-09
4.91693e-07
5.20756e-09
4.90918e-07
5.27117e-09
4.90134e-07
5.3391e-09
4.8934e-07
5.41255e-09
4.88536e-07
5.4931e-09
4.8772e-07
5.5828e-09
4.8689e-07
5.68434e-09
4.86046e-07
5.80132e-09
4.85184e-07
5.93844e-09
4.84301e-07
6.10206e-09
4.83394e-07
6.30067e-09
4.82458e-07
6.54589e-09
4.81485e-07
6.85358e-09
4.80468e-07
7.24586e-09
4.79394e-07
7.7539e-09
4.7825e-07
8.42236e-09
4.77019e-07
9.31641e-09
4.7568e-07
1.05328e-08
4.74215e-07
1.22185e-08
4.72616e-07
1.45963e-08
4.70918e-07
1.80168e-08
4.69245e-07
2.29736e-08
4.67987e-07
3.02573e-08
4.03884e-08
4.6783e-07
4.97724e-07
5.60376e-09
4.96992e-07
5.66156e-09
4.96252e-07
5.72072e-09
4.95505e-07
5.78148e-09
4.94751e-07
5.84421e-09
4.93989e-07
5.90938e-09
4.93219e-07
5.97756e-09
4.92441e-07
6.04954e-09
4.91653e-07
6.12634e-09
4.90857e-07
6.20928e-09
4.9005e-07
6.30008e-09
4.89231e-07
6.40103e-09
4.88401e-07
6.51508e-09
4.87556e-07
6.64618e-09
4.86695e-07
6.79951e-09
4.85815e-07
6.98199e-09
4.84913e-07
7.20293e-09
4.83984e-07
7.47485e-09
4.83022e-07
7.8149e-09
4.82022e-07
8.24668e-09
4.80972e-07
8.80311e-09
4.79864e-07
9.5307e-09
4.78684e-07
1.0496e-08
4.77422e-07
1.17956e-08
4.76069e-07
1.35712e-08
4.74635e-07
1.60299e-08
4.73173e-07
1.94789e-08
4.7182e-07
2.43271e-08
4.70915e-07
3.11623e-08
4.03016e-08
4.71001e-07
4.98985e-07
6.33453e-09
4.98247e-07
6.39916e-09
4.97503e-07
6.46524e-09
4.96751e-07
6.53307e-09
4.95992e-07
6.60305e-09
4.95226e-07
6.67568e-09
4.94452e-07
6.75161e-09
4.9367e-07
6.83167e-09
4.92879e-07
6.91698e-09
4.92079e-07
7.00897e-09
4.9127e-07
7.1095e-09
4.9045e-07
7.22103e-09
4.89618e-07
7.34677e-09
4.88773e-07
7.49094e-09
4.87914e-07
7.65911e-09
4.87037e-07
7.85868e-09
4.86141e-07
8.09956e-09
4.8522e-07
8.39505e-09
4.84272e-07
8.76317e-09
4.8329e-07
9.22857e-09
4.82268e-07
9.82521e-09
4.81198e-07
1.06004e-08
4.80074e-07
1.16206e-08
4.78889e-07
1.298e-08
4.77648e-07
1.48124e-08
4.76372e-07
1.73065e-08
4.75123e-07
2.07276e-08
4.7404e-07
2.54097e-08
4.73415e-07
3.17877e-08
4.0043e-08
4.73674e-07
5.00027e-07
7.07082e-09
4.99284e-07
7.14214e-09
4.98534e-07
7.21499e-09
4.97778e-07
7.28971e-09
4.97014e-07
7.36674e-09
4.96243e-07
7.4466e-09
4.95465e-07
7.52998e-09
4.94679e-07
7.61781e-09
4.93884e-07
7.71123e-09
4.93082e-07
7.81179e-09
4.9227e-07
7.92147e-09
4.91448e-07
8.04286e-09
4.90615e-07
8.17937e-09
4.89771e-07
8.33544e-09
4.88913e-07
8.51694e-09
4.8804e-07
8.73166e-09
4.8715e-07
8.98992e-09
4.86239e-07
9.30557e-09
4.85305e-07
9.69721e-09
4.84343e-07
1.01901e-08
4.8335e-07
1.08185e-08
4.82321e-07
1.16297e-08
4.81253e-07
1.26888e-08
4.80147e-07
1.40859e-08
4.79014e-07
1.59454e-08
4.77884e-07
1.84365e-08
4.76826e-07
2.17858e-08
4.75972e-07
2.62636e-08
4.75569e-07
3.219e-08
3.96588e-08
4.75953e-07
5.00905e-07
5.00156e-07
7.89101e-09
4.994e-07
7.97047e-09
4.98638e-07
8.05189e-09
4.97869e-07
8.13574e-09
4.97093e-07
8.22257e-09
4.9631e-07
8.31312e-09
4.9552e-07
8.40834e-09
4.94721e-07
8.50947e-09
4.93915e-07
8.61809e-09
4.931e-07
8.73628e-09
4.92276e-07
8.86675e-09
4.91443e-07
9.01302e-09
4.90598e-07
9.17973e-09
4.89742e-07
9.37297e-09
4.88873e-07
9.60073e-09
4.8799e-07
9.87367e-09
4.87089e-07
1.02059e-08
4.8617e-07
1.06163e-08
4.8523e-07
1.11303e-08
4.84266e-07
1.17821e-08
4.83278e-07
1.2618e-08
4.82266e-07
1.37006e-08
4.81237e-07
1.51151e-08
4.80207e-07
1.69754e-08
4.79212e-07
1.94316e-08
4.78322e-07
2.26755e-08
4.77661e-07
2.69243e-08
4.77438e-07
3.2413e-08
3.91799e-08
4.77917e-07
5.00901e-07
8.6464e-09
5.00139e-07
8.73228e-09
4.99371e-07
8.8202e-09
4.98596e-07
8.91062e-09
4.97814e-07
9.00416e-09
4.97026e-07
9.10155e-09
4.9623e-07
9.2038e-09
4.95427e-07
9.31217e-09
4.94617e-07
9.4283e-09
4.93799e-07
9.55433e-09
4.92973e-07
9.69304e-09
4.92138e-07
9.84803e-09
4.91294e-07
1.00241e-08
4.90439e-07
1.02273e-08
4.89574e-07
1.0466e-08
4.88697e-07
1.07508e-08
4.87807e-07
1.10959e-08
4.86903e-07
1.15203e-08
4.85984e-07
1.20491e-08
4.8505e-07
1.27159e-08
4.84103e-07
1.35654e-08
4.83146e-07
1.46573e-08
4.82191e-07
1.60706e-08
4.81257e-07
1.79089e-08
4.80385e-07
2.03038e-08
4.79644e-07
2.34169e-08
4.79146e-07
2.74216e-08
4.79069e-07
3.24904e-08
3.86274e-08
4.79621e-07
5.01547e-07
9.40896e-09
5.00778e-07
9.50107e-09
5.00003e-07
9.59526e-09
4.99222e-07
9.69203e-09
4.98434e-07
9.79197e-09
4.9764e-07
9.89589e-09
4.96839e-07
1.00048e-08
4.96031e-07
1.01199e-08
4.95216e-07
1.0243e-08
4.94394e-07
1.03761e-08
4.93565e-07
1.05222e-08
4.92728e-07
1.06848e-08
4.91884e-07
1.08688e-08
4.91031e-07
1.10804e-08
4.90169e-07
1.13276e-08
4.89298e-07
1.16214e-08
4.88419e-07
1.19758e-08
4.8753e-07
1.24093e-08
4.86632e-07
1.29467e-08
4.85727e-07
1.36204e-08
4.8482e-07
1.4473e-08
4.83916e-07
1.55608e-08
4.8303e-07
1.69564e-08
4.82186e-07
1.8753e-08
4.81425e-07
2.10652e-08
4.80814e-07
2.40283e-08
4.80455e-07
2.77806e-08
4.80497e-07
3.24485e-08
3.80161e-08
4.81108e-07
5.02116e-07
1.01794e-08
5.01339e-07
1.02775e-08
5.00557e-07
1.03777e-08
4.99768e-07
1.04806e-08
4.98974e-07
1.05867e-08
4.98173e-07
1.06967e-08
4.97366e-07
1.08118e-08
4.96552e-07
1.09332e-08
4.95733e-07
1.10627e-08
4.94907e-07
1.12022e-08
4.94074e-07
1.13548e-08
4.93235e-07
1.15239e-08
4.92389e-07
1.17144e-08
4.91537e-07
1.19325e-08
4.90679e-07
1.21861e-08
4.89814e-07
1.2486e-08
4.88944e-07
1.28459e-08
4.88069e-07
1.32839e-08
4.87192e-07
1.38238e-08
4.86316e-07
1.44966e-08
4.85447e-07
1.53426e-08
4.84593e-07
1.6414e-08
4.83773e-07
1.77772e-08
4.83011e-07
1.95151e-08
4.82349e-07
2.17271e-08
4.81851e-07
2.45261e-08
4.81609e-07
2.80222e-08
4.8175e-07
3.2308e-08
3.73568e-08
4.82409e-07
5.02622e-07
1.09583e-08
5.01837e-07
1.10622e-08
5.01047e-07
1.11683e-08
5.0025e-07
1.12769e-08
4.99448e-07
1.13888e-08
4.9864e-07
1.15047e-08
4.97827e-07
1.16256e-08
4.97007e-07
1.17528e-08
4.96182e-07
1.18879e-08
4.95351e-07
1.20332e-08
4.94514e-07
1.21913e-08
4.93672e-07
1.23658e-08
4.92825e-07
1.25614e-08
4.91974e-07
1.27842e-08
4.91118e-07
1.3042e-08
4.90259e-07
1.33451e-08
4.89398e-07
1.37069e-08
4.88537e-07
1.41448e-08
4.87679e-07
1.46814e-08
4.8683e-07
1.5346e-08
4.85996e-07
1.61762e-08
4.8519e-07
1.72202e-08
4.84429e-07
1.85379e-08
4.83742e-07
2.02027e-08
4.83168e-07
2.23004e-08
4.82769e-07
2.4925e-08
4.82628e-07
2.81639e-08
4.8285e-07
3.20854e-08
3.66575e-08
4.8355e-07
5.12536e-07
1.20476e-08
5.11439e-07
1.21595e-08
5.10334e-07
1.22734e-08
5.09221e-07
1.239e-08
5.081e-07
1.25098e-08
5.06971e-07
1.26335e-08
5.05834e-07
1.27622e-08
5.0469e-07
1.28971e-08
5.03538e-07
1.30399e-08
5.02379e-07
1.31925e-08
5.01212e-07
1.33578e-08
5.00039e-07
1.35391e-08
4.9886e-07
1.3741e-08
4.97674e-07
1.39693e-08
4.96485e-07
1.42316e-08
4.95292e-07
1.45377e-08
4.94099e-07
1.49005e-08
4.92907e-07
1.53364e-08
4.91722e-07
1.58668e-08
4.90549e-07
1.6519e-08
4.89397e-07
1.73278e-08
4.8828e-07
1.8337e-08
4.87218e-07
1.96006e-08
4.86237e-07
2.1183e-08
4.8538e-07
2.31579e-08
4.84701e-07
2.56036e-08
4.84275e-07
2.85898e-08
4.84194e-07
3.21672e-08
3.63026e-08
4.84548e-07
4.96533e-07
1.26234e-08
4.95953e-07
1.2739e-08
4.9537e-07
1.28566e-08
4.94783e-07
1.29767e-08
4.94193e-07
1.30999e-08
4.936e-07
1.3227e-08
4.93003e-07
1.33588e-08
4.92404e-07
1.34967e-08
4.91801e-07
1.36422e-08
4.91197e-07
1.37972e-08
4.9059e-07
1.39644e-08
4.89982e-07
1.4147e-08
4.89374e-07
1.43494e-08
4.88766e-07
1.45771e-08
4.8816e-07
1.48374e-08
4.87558e-07
1.51395e-08
4.86963e-07
1.54954e-08
4.86379e-07
1.59207e-08
4.85811e-07
1.64351e-08
4.85266e-07
1.7064e-08
4.84754e-07
1.78392e-08
4.84291e-07
1.88001e-08
4.83897e-07
1.99948e-08
4.836e-07
2.14797e-08
4.83441e-07
2.33176e-08
4.83471e-07
2.55736e-08
4.83757e-07
2.83032e-08
4.84381e-07
3.15438e-08
3.52631e-08
4.8542e-07
4.82156e-07
1.27384e-08
4.82042e-07
1.28538e-08
4.81927e-07
1.29712e-08
4.81813e-07
1.30909e-08
4.81699e-07
1.32136e-08
4.81586e-07
1.334e-08
4.81474e-07
1.3471e-08
4.81363e-07
1.36077e-08
4.81253e-07
1.37515e-08
4.81146e-07
1.39045e-08
4.81042e-07
1.40689e-08
4.80941e-07
1.4248e-08
4.80844e-07
1.44457e-08
4.80754e-07
1.46674e-08
4.80672e-07
1.49196e-08
4.806e-07
1.52112e-08
4.80542e-07
1.55532e-08
4.80503e-07
1.596e-08
4.80488e-07
1.64498e-08
4.80507e-07
1.70456e-08
4.8057e-07
1.77761e-08
4.80693e-07
1.86767e-08
4.80898e-07
1.97897e-08
4.81214e-07
2.11639e-08
4.81679e-07
2.28527e-08
4.82343e-07
2.49099e-08
4.83267e-07
2.73795e-08
4.84521e-07
3.02892e-08
3.36085e-08
4.86176e-07
4.69244e-07
1.24396e-08
4.69546e-07
1.25516e-08
4.69852e-07
1.26654e-08
4.70162e-07
1.27813e-08
4.70475e-07
1.29e-08
4.70793e-07
1.30222e-08
4.71115e-07
1.31486e-08
4.71443e-07
1.32803e-08
4.71776e-07
1.34187e-08
4.72114e-07
1.35656e-08
4.7246e-07
1.37232e-08
4.72814e-07
1.38944e-08
4.73177e-07
1.40829e-08
4.73551e-07
1.42935e-08
4.73938e-07
1.45325e-08
4.74341e-07
1.48078e-08
4.74765e-07
1.51296e-08
4.75214e-07
1.55108e-08
4.75696e-07
1.59681e-08
4.76219e-07
1.6522e-08
4.76797e-07
1.71982e-08
4.77446e-07
1.80279e-08
4.78188e-07
1.90478e-08
4.79052e-07
2.02999e-08
4.80075e-07
2.18292e-08
4.81305e-07
2.36798e-08
4.82798e-07
2.58865e-08
4.84617e-07
2.84698e-08
3.14015e-08
4.86824e-07
4.57647e-07
1.17696e-08
4.58324e-07
1.18752e-08
4.59007e-07
1.19823e-08
4.59696e-07
1.20915e-08
4.60393e-07
1.22031e-08
4.61098e-07
1.23179e-08
4.6181e-07
1.24365e-08
4.6253e-07
1.256e-08
4.63259e-07
1.26895e-08
4.63998e-07
1.28268e-08
4.64747e-07
1.29739e-08
4.65508e-07
1.31333e-08
4.66283e-07
1.33085e-08
4.67073e-07
1.35038e-08
4.6788e-07
1.37248e-08
4.68709e-07
1.39787e-08
4.69564e-07
1.42746e-08
4.70451e-07
1.46241e-08
4.71377e-07
1.50419e-08
4.72353e-07
1.55462e-08
4.73392e-07
1.61595e-08
4.74511e-07
1.69088e-08
4.75733e-07
1.78258e-08
4.77087e-07
1.8946e-08
4.78609e-07
2.03069e-08
4.80345e-07
2.19443e-08
4.82346e-07
2.38856e-08
4.8467e-07
2.61455e-08
2.86994e-08
4.87372e-07
4.47231e-07
1.07664e-08
4.48243e-07
1.0863e-08
4.49264e-07
1.09609e-08
4.50295e-07
1.10606e-08
4.51336e-07
1.11624e-08
4.52387e-07
1.1267e-08
4.53448e-07
1.1375e-08
4.54521e-07
1.14873e-08
4.55606e-07
1.1605e-08
4.56703e-07
1.17296e-08
4.57814e-07
1.18628e-08
4.5894e-07
1.20071e-08
4.60083e-07
1.21654e-08
4.61246e-07
1.23415e-08
4.6243e-07
1.25404e-08
4.6364e-07
1.27683e-08
4.64882e-07
1.30333e-08
4.6616e-07
1.33456e-08
4.67484e-07
1.37177e-08
4.68865e-07
1.41656e-08
4.70316e-07
1.47085e-08
4.71855e-07
1.53694e-08
4.73506e-07
1.6175e-08
4.75297e-07
1.71549e-08
4.77264e-07
1.83397e-08
4.7945e-07
1.97583e-08
4.81904e-07
2.14317e-08
4.84679e-07
2.33707e-08
2.55537e-08
4.87825e-07
4.37873e-07
9.46434e-09
4.39186e-07
9.54959e-09
4.40511e-07
9.63593e-09
4.41848e-07
9.7237e-09
4.43197e-07
9.8133e-09
4.44559e-07
9.90523e-09
4.45934e-07
1.00001e-08
4.47322e-07
1.00987e-08
4.48725e-07
1.02019e-08
4.50144e-07
1.0311e-08
4.51579e-07
1.04277e-08
4.53032e-07
1.05538e-08
4.54506e-07
1.06919e-08
4.56002e-07
1.08455e-08
4.57524e-07
1.10186e-08
4.59075e-07
1.12166e-08
4.60662e-07
1.14464e-08
4.62291e-07
1.17166e-08
4.63971e-07
1.20378e-08
4.65713e-07
1.24234e-08
4.67532e-07
1.28894e-08
4.69447e-07
1.34549e-08
4.7148e-07
1.41418e-08
4.73661e-07
1.49742e-08
4.76024e-07
1.59764e-08
4.78611e-07
1.71713e-08
4.81468e-07
1.85747e-08
4.84644e-07
2.01941e-08
2.20114e-08
4.88187e-07
4.29463e-07
7.89402e-09
4.31046e-07
7.96591e-09
4.32644e-07
8.03861e-09
4.34255e-07
8.11241e-09
4.35881e-07
8.18766e-09
4.37521e-07
8.26479e-09
4.39177e-07
8.34432e-09
4.40849e-07
8.42689e-09
4.42537e-07
8.5133e-09
4.44244e-07
8.6046e-09
4.45969e-07
8.70208e-09
4.47716e-07
8.80742e-09
4.49485e-07
8.92273e-09
4.5128e-07
9.05074e-09
4.53103e-07
9.19491e-09
4.5496e-07
9.35963e-09
4.56856e-07
9.55047e-09
4.58798e-07
9.77441e-09
4.60796e-07
1.00402e-08
4.62861e-07
1.03584e-08
4.65009e-07
1.0742e-08
4.67257e-07
1.12062e-08
4.69631e-07
1.17683e-08
4.72158e-07
1.2447e-08
4.74873e-07
1.32613e-08
4.77816e-07
1.42283e-08
4.81031e-07
1.53597e-08
4.84565e-07
1.66602e-08
1.81153e-08
4.88461e-07
4.21902e-07
6.08305e-09
4.23728e-07
6.13978e-09
4.2557e-07
6.19701e-09
4.27427e-07
6.25499e-09
4.29301e-07
6.31403e-09
4.31191e-07
6.37446e-09
4.33099e-07
6.4367e-09
4.35024e-07
6.50128e-09
4.36969e-07
6.56884e-09
4.38933e-07
6.64018e-09
4.40919e-07
6.71635e-09
4.42928e-07
6.79863e-09
4.44962e-07
6.88869e-09
4.47024e-07
6.98864e-09
4.49118e-07
7.10115e-09
4.51248e-07
7.22961e-09
4.5342e-07
7.37828e-09
4.55642e-07
7.55252e-09
4.57923e-07
7.75893e-09
4.60276e-07
8.00561e-09
4.62716e-07
8.30227e-09
4.65261e-07
8.66027e-09
4.67937e-07
9.09244e-09
4.70772e-07
9.61257e-09
4.73799e-07
1.02344e-08
4.77057e-07
1.097e-08
4.80589e-07
1.18274e-08
4.8444e-07
1.28092e-08
1.39041e-08
4.88652e-07
4.15101e-07
4.0562e-09
4.17145e-07
4.09617e-09
4.19205e-07
4.13631e-09
4.21284e-07
4.17685e-09
4.2338e-07
4.21801e-09
4.25494e-07
4.26006e-09
4.27627e-07
4.30331e-09
4.29781e-07
4.34816e-09
4.31954e-07
4.39507e-09
4.3415e-07
4.44463e-09
4.36369e-07
4.49759e-09
4.38612e-07
4.55485e-09
4.40883e-07
4.61761e-09
4.43185e-07
4.68733e-09
4.4552e-07
4.76588e-09
4.47894e-07
4.8556e-09
4.50313e-07
4.95945e-09
4.52784e-07
5.08109e-09
4.55318e-07
5.22502e-09
4.57927e-07
5.39672e-09
4.60627e-07
5.60272e-09
4.63436e-07
5.85059e-09
4.6638e-07
6.14881e-09
4.69486e-07
6.50635e-09
4.72789e-07
6.93202e-09
4.76325e-07
7.43334e-09
4.80138e-07
8.01487e-09
4.8427e-07
8.6774e-09
9.41305e-09
4.88761e-07
4.0898e-07
1.8357e-09
4.11219e-07
1.85749e-09
4.13476e-07
1.87912e-09
4.15752e-07
1.90077e-09
4.18048e-07
1.92259e-09
4.20363e-07
1.94477e-09
4.22699e-07
1.96754e-09
4.25056e-07
1.99113e-09
4.27435e-07
2.01584e-09
4.29838e-07
2.04202e-09
4.32265e-07
2.07013e-09
4.34719e-07
2.1007e-09
4.37202e-07
2.13439e-09
4.39718e-07
2.17206e-09
4.42269e-07
2.21473e-09
4.44861e-07
2.26371e-09
4.475e-07
2.32057e-09
4.50193e-07
2.3873e-09
4.52952e-07
2.46626e-09
4.55789e-07
2.56031e-09
4.58718e-07
2.67279e-09
4.61762e-07
2.80753e-09
4.64942e-07
2.9687e-09
4.68287e-07
3.1606e-09
4.71832e-07
3.38725e-09
4.75614e-07
3.65183e-09
4.79673e-07
3.95576e-09
4.84052e-07
4.29813e-09
4.67434e-09
4.88791e-07
4.03467e-07
-5.58464e-10
4.05881e-07
-5.56122e-10
4.08314e-07
-5.54273e-10
4.10768e-07
-5.52807e-10
4.13242e-07
-5.51617e-10
4.15738e-07
-5.506e-10
4.18255e-07
-5.49649e-10
4.20795e-07
-5.48656e-10
4.23358e-07
-5.47503e-10
4.25946e-07
-5.46067e-10
4.2856e-07
-5.44208e-10
4.31203e-07
-5.41774e-10
4.33876e-07
-5.38597e-10
4.36582e-07
-5.34489e-10
4.39326e-07
-5.29245e-10
4.42113e-07
-5.22641e-10
4.44948e-07
-5.14437e-10
4.47839e-07
-5.04387e-10
4.50798e-07
-4.92247e-10
4.53836e-07
-4.77795e-10
4.5697e-07
-4.60863e-10
4.60219e-07
-4.41383e-10
4.63607e-07
-4.19443e-10
4.67163e-07
-3.95372e-10
4.7092e-07
-3.69832e-10
4.74916e-07
-3.43926e-10
4.79191e-07
-3.19269e-10
4.83787e-07
-2.98403e-10
-2.82847e-10
4.88744e-07
4.69118e-07
-3.90857e-09
4.72495e-07
-3.93305e-09
4.759e-07
-3.95846e-09
4.79331e-07
-3.98474e-09
4.82792e-07
-4.01186e-09
4.86281e-07
-4.03983e-09
4.898e-07
-4.06865e-09
4.9335e-07
-4.0984e-09
4.96931e-07
-4.12916e-09
5.00546e-07
-4.16109e-09
5.04197e-07
-4.19442e-09
5.07884e-07
-4.22945e-09
5.11612e-07
-4.26662e-09
5.15384e-07
-4.30653e-09
5.19205e-07
-4.34996e-09
5.2308e-07
-4.39797e-09
5.27018e-07
-4.45197e-09
5.31027e-07
-4.51375e-09
5.35121e-07
-4.58564e-09
5.39313e-07
-4.6706e-09
5.43625e-07
-4.7723e-09
5.48079e-07
-4.89518e-09
5.52704e-07
-5.0445e-09
5.57535e-07
-5.22622e-09
5.62611e-07
-5.44671e-09
5.6798e-07
-5.71233e-09
5.73689e-07
-6.02855e-09
5.79791e-07
-6.39994e-09
-6.82489e-09
5.86333e-07
4.72065e-07
-7.15865e-09
4.75342e-07
-7.20918e-09
4.78644e-07
-7.26106e-09
4.81974e-07
-7.31429e-09
4.85331e-07
-7.36893e-09
4.88716e-07
-7.42507e-09
4.9213e-07
-7.48284e-09
4.95574e-07
-7.54248e-09
4.99049e-07
-7.60429e-09
5.02557e-07
-7.66871e-09
5.06099e-07
-7.7363e-09
5.09677e-07
-7.80784e-09
5.13295e-07
-7.88437e-09
5.16956e-07
-7.96723e-09
5.20664e-07
-8.05821e-09
5.24426e-07
-8.15963e-09
5.28248e-07
-8.27448e-09
5.32141e-07
-8.40662e-09
5.36116e-07
-8.56093e-09
5.40189e-07
-8.74348e-09
5.44379e-07
-8.96178e-09
5.48708e-07
-9.22479e-09
5.53207e-07
-9.54297e-09
5.57908e-07
-9.92796e-09
5.62854e-07
-1.0392e-08
5.68088e-07
-1.09469e-08
5.73662e-07
-1.16021e-08
5.79626e-07
-1.23645e-08
-1.32294e-08
5.86031e-07
4.75181e-07
-1.03021e-08
4.78349e-07
-1.03779e-08
4.81544e-07
-1.04555e-08
4.84764e-07
-1.05348e-08
4.88011e-07
-1.06161e-08
4.91286e-07
-1.06996e-08
4.94588e-07
-1.07854e-08
4.9792e-07
-1.0874e-08
5.01282e-07
-1.09659e-08
5.04675e-07
-1.10618e-08
5.08101e-07
-1.11626e-08
5.11563e-07
-1.12696e-08
5.15063e-07
-1.13842e-08
5.18604e-07
-1.15087e-08
5.22192e-07
-1.16458e-08
5.25831e-07
-1.17989e-08
5.29529e-07
-1.19728e-08
5.33296e-07
-1.21731e-08
5.37142e-07
-1.24074e-08
5.41083e-07
-1.26848e-08
5.45138e-07
-1.30165e-08
5.4933e-07
-1.34162e-08
5.53686e-07
-1.38995e-08
5.58242e-07
-1.4484e-08
5.63038e-07
-1.5188e-08
5.68121e-07
-1.60292e-08
5.7354e-07
-1.70217e-08
5.79351e-07
-1.81751e-08
-1.94813e-08
5.85603e-07
4.78477e-07
-1.33321e-08
4.81531e-07
-1.34323e-08
4.8461e-07
-1.35346e-08
4.87715e-07
-1.36393e-08
4.90845e-07
-1.37463e-08
4.94001e-07
-1.38562e-08
4.97185e-07
-1.39691e-08
5.00397e-07
-1.40857e-08
5.03637e-07
-1.42066e-08
5.06909e-07
-1.43329e-08
5.10212e-07
-1.44657e-08
5.13549e-07
-1.46067e-08
5.16923e-07
-1.4758e-08
5.20336e-07
-1.49226e-08
5.23795e-07
-1.51039e-08
5.27302e-07
-1.53067e-08
5.30867e-07
-1.55371e-08
5.34496e-07
-1.58029e-08
5.38203e-07
-1.61139e-08
5.42e-07
-1.64823e-08
5.45907e-07
-1.69232e-08
5.49946e-07
-1.74548e-08
5.54144e-07
-1.80981e-08
5.58537e-07
-1.88769e-08
5.63166e-07
-1.98162e-08
5.68077e-07
-2.09402e-08
5.73323e-07
-2.22683e-08
5.78962e-07
-2.38138e-08
-2.5565e-08
5.85046e-07
4.81967e-07
-1.62411e-08
4.849e-07
-1.63648e-08
4.87856e-07
-1.64911e-08
4.90837e-07
-1.662e-08
4.93843e-07
-1.67519e-08
4.96874e-07
-1.68871e-08
4.99931e-07
-1.70261e-08
5.03015e-07
-1.71696e-08
5.06126e-07
-1.73184e-08
5.09267e-07
-1.74738e-08
5.12439e-07
-1.76372e-08
5.15643e-07
-1.78108e-08
5.18882e-07
-1.79972e-08
5.22159e-07
-1.81998e-08
5.25479e-07
-1.84232e-08
5.28845e-07
-1.86731e-08
5.32265e-07
-1.89572e-08
5.35747e-07
-1.92849e-08
5.39302e-07
-1.96685e-08
5.42943e-07
-2.01232e-08
5.46687e-07
-2.06679e-08
5.50558e-07
-2.13252e-08
5.54582e-07
-2.2122e-08
5.58793e-07
-2.30886e-08
5.63234e-07
-2.42572e-08
5.67954e-07
-2.56596e-08
5.73007e-07
-2.73216e-08
5.78455e-07
-2.92616e-08
-3.14639e-08
5.84354e-07
4.85667e-07
-1.90211e-08
4.88469e-07
-1.91674e-08
4.91295e-07
-1.93166e-08
4.94144e-07
-1.94689e-08
4.97016e-07
-1.96246e-08
4.99913e-07
-1.97841e-08
5.02835e-07
-1.9948e-08
5.05783e-07
-2.01172e-08
5.08757e-07
-2.02926e-08
5.11759e-07
-2.04757e-08
5.1479e-07
-2.06683e-08
5.17852e-07
-2.08728e-08
5.20947e-07
-2.10922e-08
5.24078e-07
-2.13308e-08
5.27248e-07
-2.15937e-08
5.30463e-07
-2.18878e-08
5.33728e-07
-2.2222e-08
5.3705e-07
-2.26075e-08
5.40441e-07
-2.30588e-08
5.43911e-07
-2.3594e-08
5.47479e-07
-2.42357e-08
5.51165e-07
-2.50113e-08
5.54997e-07
-2.59535e-08
5.59008e-07
-2.70996e-08
5.63241e-07
-2.849e-08
5.67747e-07
-3.01655e-08
5.72585e-07
-3.21596e-08
5.77821e-07
-3.44978e-08
-3.71602e-08
5.83517e-07
4.89589e-07
-2.16634e-08
4.92253e-07
-2.18313e-08
4.94939e-07
-2.20024e-08
4.97647e-07
-2.2177e-08
5.00377e-07
-2.23553e-08
5.03131e-07
-2.2538e-08
5.05909e-07
-2.27256e-08
5.08711e-07
-2.29191e-08
5.11538e-07
-2.31197e-08
5.14391e-07
-2.3329e-08
5.17272e-07
-2.3549e-08
5.20182e-07
-2.37825e-08
5.23122e-07
-2.40329e-08
5.26096e-07
-2.43048e-08
5.29107e-07
-2.46044e-08
5.32158e-07
-2.49392e-08
5.35256e-07
-2.53194e-08
5.38406e-07
-2.57579e-08
5.41619e-07
-2.62712e-08
5.44905e-07
-2.68801e-08
5.4828e-07
-2.7611e-08
5.51765e-07
-2.84959e-08
5.55385e-07
-2.95736e-08
5.59174e-07
-3.08892e-08
5.63176e-07
-3.24922e-08
5.67445e-07
-3.44339e-08
5.72043e-07
-3.6758e-08
5.77045e-07
-3.94998e-08
-4.26344e-08
5.82519e-07
4.93747e-07
-2.41586e-08
4.96263e-07
-2.4347e-08
4.98799e-07
-2.45389e-08
5.01357e-07
-2.47345e-08
5.03936e-07
-2.49342e-08
5.06536e-07
-2.51387e-08
5.0916e-07
-2.53486e-08
5.11805e-07
-2.55651e-08
5.14475e-07
-2.57893e-08
5.17169e-07
-2.6023e-08
5.19889e-07
-2.62686e-08
5.22635e-07
-2.65289e-08
5.2541e-07
-2.68078e-08
5.28216e-07
-2.71104e-08
5.31054e-07
-2.74433e-08
5.3393e-07
-2.7815e-08
5.36847e-07
-2.82366e-08
5.39812e-07
-2.87225e-08
5.42832e-07
-2.92911e-08
5.45918e-07
-2.99659e-08
5.49084e-07
-3.07767e-08
5.52348e-07
-3.17603e-08
5.55736e-07
-3.29618e-08
5.59282e-07
-3.44347e-08
5.63028e-07
-3.62389e-08
5.67033e-07
-3.84386e-08
5.71365e-07
-4.10898e-08
5.76107e-07
-4.42421e-08
-4.78652e-08
5.81338e-07
4.98155e-07
-2.64962e-08
5.00512e-07
-2.67038e-08
5.02888e-07
-2.69152e-08
5.05284e-07
-2.71305e-08
5.077e-07
-2.73503e-08
5.10137e-07
-2.75752e-08
5.12594e-07
-2.7806e-08
5.15073e-07
-2.80437e-08
5.17573e-07
-2.82898e-08
5.20096e-07
-2.8546e-08
5.22643e-07
-2.8815e-08
5.25214e-07
-2.90997e-08
5.2781e-07
-2.94045e-08
5.30434e-07
-2.97346e-08
5.33088e-07
-3.00972e-08
5.35775e-07
-3.05014e-08
5.38497e-07
-3.09593e-08
5.41261e-07
-3.14864e-08
5.44073e-07
-3.21029e-08
5.46942e-07
-3.28347e-08
5.4988e-07
-3.37147e-08
5.52904e-07
-3.47847e-08
5.56039e-07
-3.60963e-08
5.59316e-07
-3.77118e-08
5.6278e-07
-3.97031e-08
5.66492e-07
-4.21501e-08
5.70526e-07
-4.51243e-08
5.7498e-07
-4.86958e-08
-5.28282e-08
5.79943e-07
5.02823e-07
-2.86647e-08
5.05009e-07
-2.88902e-08
5.07214e-07
-2.91196e-08
5.09436e-07
-2.93532e-08
5.11678e-07
-2.95916e-08
5.13938e-07
-2.98352e-08
5.16217e-07
-3.00851e-08
5.18515e-07
-3.03422e-08
5.20834e-07
-3.06082e-08
5.23173e-07
-3.08849e-08
5.25533e-07
-3.11749e-08
5.27914e-07
-3.14815e-08
5.30319e-07
-3.1809e-08
5.32747e-07
-3.21632e-08
5.35202e-07
-3.25514e-08
5.37684e-07
-3.29834e-08
5.40196e-07
-3.34719e-08
5.42743e-07
-3.40333e-08
5.4533e-07
-3.46894e-08
5.47963e-07
-3.54681e-08
5.50654e-07
-3.64054e-08
5.53417e-07
-3.75478e-08
5.56274e-07
-3.89532e-08
5.59256e-07
-4.0694e-08
5.62408e-07
-4.28551e-08
5.65794e-07
-4.55355e-08
5.69496e-07
-4.88267e-08
5.73628e-07
-5.28279e-08
-5.74959e-08
5.78296e-07
5.0776e-07
-3.06513e-08
5.09763e-07
-3.08931e-08
5.11782e-07
-3.1139e-08
5.13818e-07
-3.13892e-08
5.15871e-07
-3.16444e-08
5.17941e-07
-3.1905e-08
5.20028e-07
-3.2172e-08
5.22132e-07
-3.24466e-08
5.24254e-07
-3.27303e-08
5.26394e-07
-3.30251e-08
5.28553e-07
-3.33335e-08
5.30731e-07
-3.3659e-08
5.32928e-07
-3.40061e-08
5.35145e-07
-3.43805e-08
5.37383e-07
-3.479e-08
5.39644e-07
-3.52445e-08
5.4193e-07
-3.57573e-08
5.44242e-07
-3.63456e-08
5.46585e-07
-3.70321e-08
5.48963e-07
-3.78466e-08
5.51386e-07
-3.88279e-08
5.53864e-07
-4.00265e-08
5.56418e-07
-4.15071e-08
5.59077e-07
-4.33524e-08
5.61884e-07
-4.5662e-08
5.64906e-07
-4.85581e-08
5.68236e-07
-5.21566e-08
5.72008e-07
-5.65998e-08
-6.18359e-08
5.76348e-07
4.98629e-07
-3.29008e-08
5.00897e-07
-3.31606e-08
5.03183e-07
-3.34246e-08
5.05486e-07
-3.36931e-08
5.07809e-07
-3.39665e-08
5.10149e-07
-3.42456e-08
5.12508e-07
-3.45313e-08
5.14886e-07
-3.48246e-08
5.17283e-07
-3.51272e-08
5.19699e-07
-3.5441e-08
5.22134e-07
-3.57687e-08
5.24589e-07
-3.61136e-08
5.27063e-07
-3.64803e-08
5.29557e-07
-3.68746e-08
5.32072e-07
-3.73043e-08
5.34607e-07
-3.77796e-08
5.37163e-07
-3.83138e-08
5.39743e-07
-3.89247e-08
5.42346e-07
-3.96357e-08
5.44977e-07
-4.04778e-08
5.47642e-07
-4.14921e-08
5.50348e-07
-4.27328e-08
5.53112e-07
-4.4271e-08
5.5596e-07
-4.62002e-08
5.58934e-07
-4.86359e-08
5.62104e-07
-5.17286e-08
5.65571e-07
-5.56238e-08
5.69499e-07
-6.05278e-08
-6.63773e-08
5.74041e-07
5.14208e-07
-3.46156e-08
5.15936e-07
-3.48891e-08
5.17678e-07
-3.51668e-08
5.19434e-07
-3.54489e-08
5.21204e-07
-3.57361e-08
5.22987e-07
-3.60289e-08
5.24784e-07
-3.63282e-08
5.26595e-07
-3.66353e-08
5.28419e-07
-3.69515e-08
5.30257e-07
-3.72789e-08
5.32108e-07
-3.76201e-08
5.33973e-07
-3.79783e-08
5.35851e-07
-3.83581e-08
5.37741e-07
-3.87653e-08
5.39645e-07
-3.92075e-08
5.4156e-07
-3.96948e-08
5.43487e-07
-4.02406e-08
5.45425e-07
-4.08627e-08
5.47374e-07
-4.15849e-08
5.49335e-07
-4.24388e-08
5.5131e-07
-4.34671e-08
5.53304e-07
-4.47272e-08
5.55329e-07
-4.62957e-08
5.57406e-07
-4.8277e-08
5.59573e-07
-5.08034e-08
5.61904e-07
-5.40592e-08
5.64504e-07
-5.82244e-08
5.67576e-07
-6.35997e-08
-7.01028e-08
5.71302e-07
5.33137e-07
-3.56795e-08
5.34209e-07
-3.59612e-08
5.35289e-07
-3.62471e-08
5.36378e-07
-3.65373e-08
5.37474e-07
-3.68325e-08
5.38579e-07
-3.71333e-08
5.39691e-07
-3.74404e-08
5.4081e-07
-3.77551e-08
5.41938e-07
-3.80786e-08
5.43072e-07
-3.84131e-08
5.44213e-07
-3.87609e-08
5.4536e-07
-3.91253e-08
5.46512e-07
-3.95106e-08
5.47669e-07
-3.99224e-08
5.4883e-07
-4.03681e-08
5.49993e-07
-4.08576e-08
5.51156e-07
-4.14039e-08
5.52318e-07
-4.20245e-08
5.53476e-07
-4.27431e-08
5.54628e-07
-4.35914e-08
5.55774e-07
-4.46126e-08
5.56913e-07
-4.58666e-08
5.58052e-07
-4.74343e-08
5.59205e-07
-4.94307e-08
5.60406e-07
-5.20041e-08
5.61727e-07
-5.53804e-08
5.63279e-07
-5.97758e-08
5.65312e-07
-6.56329e-08
-7.28316e-08
5.68041e-07
5.56096e-07
-3.59513e-08
5.5637e-07
-3.62347e-08
5.56645e-07
-3.65221e-08
5.56921e-07
-3.68138e-08
5.57199e-07
-3.71102e-08
5.57477e-07
-3.74118e-08
5.57757e-07
-3.77196e-08
5.58036e-07
-3.80345e-08
5.58315e-07
-3.83579e-08
5.58594e-07
-3.86916e-08
5.58871e-07
-3.9038e-08
5.59146e-07
-3.94001e-08
5.59417e-07
-3.9782e-08
5.59684e-07
-4.01889e-08
5.59944e-07