/*--------------------------------*- C++ -*----------------------------------*\
  =========                 |
  \\      /  F ield         | OpenFOAM: The Open Source CFD Toolbox
   \\    /   O peration     | Website:  https://openfoam.org
    \\  /    A nd           | Version:  6
     \\/     M anipulation  |
\*---------------------------------------------------------------------------*/
FoamFile
{
    version     2.0;
    format      ascii;
    class       volVectorField;
    location    "0.04";
    object      U;
}
// * * * * * * * * * * * * * * * * * * * * * * * * * * * * * * * * * * * * * //

dimensions      [0 1 -1 0 0 0 0];

internalField   nonuniform List<vector> 
3080
(
(0.451653 -3.83894e-05 1.07942e-20)
(0.451699 -3.75396e-05 1.07395e-20)
(0.451743 -3.66375e-05 0)
(0.451786 -3.56715e-05 1.06308e-20)
(0.451826 -3.4623e-05 0)
(0.451863 -3.34654e-05 0)
(0.451898 -3.21631e-05 1.04697e-20)
(0.451929 -3.06696e-05 0)
(0.451957 -2.89243e-05 1.03636e-20)
(0.451979 -2.68482e-05 0)
(0.451996 -2.43384e-05 0)
(0.452005 -2.12612e-05 1.02072e-20)
(0.452005 -1.74411e-05 0)
(0.451993 -1.26466e-05 1.01051e-20)
(0.451966 -6.56931e-06 0)
(0.451919 1.20562e-06 0)
(0.451848 1.12438e-05 0)
(0.451743 2.43287e-05 -9.90957e-21)
(0.451594 4.1566e-05 0)
(0.451387 6.45524e-05 9.81936e-21)
(0.4511 9.56674e-05 0)
(0.450703 0.000138578 0)
(0.450152 0.000199287 0)
(0.449374 0.000287945 0)
(0.448259 0.000424527 0)
(0.446575 0.000645521 0)
(0.444016 0.00105631 0)
(0.439269 0.00181448 -1.94454e-20)
(0.432354 0.00382951 0)
(0.410018 0.00708506 0)
(0.478476 -6.88723e-05 8.33589e-21)
(0.478531 -6.69938e-05 -8.2991e-21)
(0.478585 -6.49998e-05 0)
(0.478637 -6.28632e-05 8.22097e-21)
(0.478687 -6.05452e-05 0)
(0.478735 -5.79923e-05 0)
(0.478781 -5.51331e-05 -8.10776e-21)
(0.478823 -5.18735e-05 1.6138e-20)
(0.478862 -4.80895e-05 -8.03163e-21)
(0.478898 -4.36188e-05 0)
(0.478928 -3.82497e-05 0)
(0.478952 -3.17054e-05 7.91719e-21)
(0.478969 -2.36234e-05 0)
(0.478976 -1.35252e-05 7.84282e-21)
(0.47897 -7.74019e-07 0)
(0.47895 1.54858e-05 0)
(0.478909 3.64188e-05 0)
(0.478841 6.36342e-05 7.69987e-21)
(0.478739 9.93968e-05 0)
(0.478591 0.000146967 -7.63297e-21)
(0.478381 0.000211179 0)
(0.478087 0.000299449 0)
(0.477677 0.000423782 1.50961e-20)
(0.477104 0.000604415 -1.50544e-20)
(0.476299 0.000879804 0)
(0.475135 0.00132172 0)
(0.473492 0.00211466 0)
(0.470815 0.00357238 4.53557e-20)
(0.46763 0.00706732 0)
(0.460592 0.0134406 -3.10999e-20)
(0.487475 -0.000116766 -1.34185e-20)
(0.487531 -0.00011378 0)
(0.487585 -0.000110616 0)
(0.487638 -0.000107231 -3.97078e-20)
(0.48769 -0.000103566 2.63496e-20)
(0.487739 -9.9543e-05 0)
(0.487785 -9.50538e-05 2.6106e-20)
(0.48783 -8.99565e-05 -1.29928e-20)
(0.48787 -8.4064e-05 0)
(0.487907 -7.71313e-05 0)
(0.487939 -6.88385e-05 0)
(0.487965 -5.87677e-05 -3.82477e-20)
(0.487983 -4.6371e-05 0)
(0.487991 -3.09268e-05 -1.26293e-20)
(0.487988 -1.14768e-05 0)
(0.487968 1.32642e-05 0)
(0.487929 4.50386e-05 0)
(0.487862 8.62427e-05 0)
(0.487761 0.000140229 0)
(0.487613 0.000211783 0)
(0.487403 0.000307925 -2.4472e-20)
(0.487109 0.000439267 0)
(0.4867 0.000622593 -1.21472e-20)
(0.48613 0.000885519 3.63385e-20)
(0.485335 0.00127765 0)
(0.484205 0.00188888 0)
(0.482631 0.00292153 -2.4193e-20)
(0.48027 0.00473465 -2.43233e-20)
(0.477481 0.00850076 2.45302e-20)
(0.473452 0.0155514 2.50144e-20)
(0.492592 -0.000165061 -2.31013e-20)
(0.492648 -0.000161 0)
(0.492702 -0.000156696 0)
(0.492755 -0.000152088 2.27867e-20)
(0.492806 -0.000147095 -1.02455e-24)
(0.492856 -0.000141605 0)
(0.492902 -0.000135474 -2.24689e-20)
(0.492947 -0.000128506 -2.23616e-20)
(0.492988 -0.000120446 0)
(0.493025 -0.000110959 0)
(0.493058 -9.96102e-05 2.20427e-20)
(0.493085 -8.58291e-05 9.52651e-25)
(0.493104 -6.88696e-05 0)
(0.493114 -4.77491e-05 2.17255e-20)
(0.493112 -2.11641e-05 0)
(0.493094 1.26297e-05 0)
(0.493057 5.59923e-05 0)
(0.492994 0.000112158 -2.13144e-20)
(0.492897 0.000185631 0)
(0.492754 0.000282803 0)
(0.492552 0.000412966 2.1033e-20)
(0.492269 0.000590007 0)
(0.491877 0.000835488 0)
(0.491334 0.00118411 -4.16176e-20)
(0.490586 0.00169559 0)
(0.489547 0.00247421 0)
(0.488138 0.00373148 2.07674e-20)
(0.486173 0.00582996 4.16007e-20)
(0.483996 0.00972344 -2.10307e-20)
(0.481541 0.016403 0)
(0.496073 -0.000210854 2.07709e-20)
(0.496128 -0.000205779 -2.06748e-20)
(0.496181 -0.000200401 0)
(0.496233 -0.000194638 2.04835e-20)
(0.496284 -0.000188386 -2.03881e-20)
(0.496333 -0.000181502 0)
(0.496379 -0.000173801 -2.01943e-20)
(0.496424 -0.000165037 4.01958e-20)
(0.496465 -0.000154887 0)
(0.496503 -0.000142931 3.9807e-20)
(0.496536 -0.000128617 -1.98073e-20)
(0.496563 -0.000111231 1.97104e-20)
(0.496584 -8.98313e-05 0)
(0.496595 -6.31839e-05 -1.95173e-20)
(0.496595 -2.96523e-05 0)
(0.496581 1.29494e-05 0)
(0.496547 6.75707e-05 0)
(0.496489 0.000138239 1.91402e-20)
(0.496398 0.000230537 0)
(0.496265 0.000352333 0)
(0.496076 0.00051496 0)
(0.495812 0.000735151 0)
(0.495448 0.00103841 0)
(0.49495 0.00146482 1.86683e-20)
(0.494272 0.0020807 0)
(0.493354 0.00299712 3.71527e-20)
(0.492154 0.00442053 0)
(0.490589 0.00668506 -3.72762e-20)
(0.489005 0.0105286 -3.73004e-20)
(0.487593 0.0166212 0)
(0.498638 -0.000254632 0)
(0.498691 -0.000248614 1.90914e-20)
(0.498743 -0.000242238 0)
(0.498794 -0.000235404 -5.67373e-20)
(0.498844 -0.000227982 0)
(0.498892 -0.000219799 3.74649e-20)
(0.498938 -0.000210632 1.86428e-20)
(0.498981 -0.000200185 -1.85523e-20)
(0.499022 -0.000188071 0)
(0.49906 -0.000173788 -3.67417e-20)
(0.499093 -0.000156679 0)
(0.499122 -0.000135887 -3.63767e-20)
(0.499143 -0.000110295 0)
(0.499157 -7.84309e-05 0)
(0.499159 -3.83491e-05 0)
(0.499148 1.25431e-05 0)
(0.49912 7.77336e-05 0)
(0.499068 0.000161966 3.53024e-20)
(0.498986 0.000271779 3.51307e-20)
(0.498866 0.00041632 0)
(0.498694 0.000608638 0)
(0.498455 0.000867736 0)
(0.498128 0.00122203 0)
(0.497685 0.00171511 -3.43781e-20)
(0.497093 0.00241638 0)
(0.496313 0.00343727 -6.84141e-20)
(0.495333 0.0049697 3.41356e-20)
(0.494144 0.00730573 3.41194e-20)
(0.493079 0.0110018 3.4314e-20)
(0.492415 0.0164961 3.4077e-20)
(0.500614 -0.000296501 0)
(0.500665 -0.000289615 0)
(0.500716 -0.000282326 0)
(0.500765 -0.000274511 1.10559e-24)
(0.500813 -0.000266016 3.53796e-20)
(0.500859 -0.000256642 -3.52097e-20)
(0.500904 -0.000246127 3.50369e-20)
(0.500947 -0.00023413 0)
(0.500988 -0.000220204 -3.46921e-20)
(0.501025 -0.00020377 0)
(0.501059 -0.000184074 3.43461e-20)
(0.501087 -0.000160132 3.41746e-20)
(0.50111 -0.000130661 0)
(0.501125 -9.39753e-05 0)
(0.501131 -4.78501e-05 3.36547e-20)
(0.501124 1.06714e-05 3.34834e-20)
(0.501101 8.55534e-05 3.33134e-20)
(0.501057 0.000182163 -4.59011e-24)
(0.500986 0.000307852 -3.29857e-20)
(0.500881 0.000472825 0)
(0.50073 0.000691482 0)
(0.500521 0.000984496 0)
(0.500237 0.00138219 3.23681e-20)
(0.499857 0.0019299 3.22597e-20)
(0.49936 0.00269729 0)
(0.498725 0.00379157 6.40871e-20)
(0.497964 0.0053853 -6.74415e-23)
(0.497115 0.00772556 -9.92984e-23)
(0.49649 0.0112264 -3.18424e-20)
(0.496376 0.0161635 -6.36031e-20)
(0.502182 -0.00033626 -3.43264e-20)
(0.502231 -0.000328586 0)
(0.502279 -0.000320469 0)
(0.502326 -0.000311769 9.4941e-25)
(0.502372 -0.00030231 -6.73508e-20)
(0.502417 -0.000291862 -3.35103e-20)
(0.50246 -0.000280132 -3.33462e-20)
(0.502502 -0.000266734 3.31794e-20)
(0.502541 -0.00025117 6.60277e-20)
(0.502578 -0.000232791 -3.28467e-20)
(0.502611 -0.000210754 -1.47688e-24)
(0.50264 -0.000183963 0)
(0.502664 -0.000150986 0)
(0.502681 -0.000109949 0)
(0.50269 -5.83839e-05 -3.20151e-20)
(0.502687 6.98238e-06 -3.18498e-20)
(0.50267 9.05197e-05 -3.16858e-20)
(0.502635 0.000198115 -5.02495e-24)
(0.502577 0.00033778 0)
(0.502489 0.000520542 0)
(0.502362 0.000761781 0)
(0.502186 0.00108326 0)
(0.501949 0.00151628 -3.07688e-20)
(0.501637 0.00210648 0)
(0.501239 0.00292159 0)
(0.50075 0.00406172 -3.04233e-20)
(0.500199 0.00567839 -3.03418e-20)
(0.499651 0.00797596 -3.02749e-20)
(0.499394 0.0112594 3.02228e-20)
(0.499691 0.0156928 3.00719e-20)
(0.503455 -0.000373615 6.59813e-20)
(0.503501 -0.000365239 -3.28333e-20)
(0.503546 -0.000356389 0)
(0.50359 -0.000346908 3.25181e-20)
(0.503634 -0.000336597 3.23591e-20)
(0.503676 -0.000325205 3.21994e-20)
(0.503717 -0.000312405 3.20381e-20)
(0.503757 -0.000297776 -3.18782e-20)
(0.503794 -0.00028077 -3.17168e-20)
(0.50383 -0.000260679 3.15551e-20)
(0.503863 -0.000236582 -6.27846e-20)
(0.503892 -0.000207285 0)
(0.503916 -0.000171231 0)
(0.503935 -0.000126385 -3.09038e-20)
(0.503946 -7.00715e-05 3.07414e-20)
(0.503948 1.24267e-06 0)
(0.503938 9.22575e-05 6.08363e-20)
(0.503913 0.000209271 -3.02634e-20)
(0.503868 0.000360794 0)
(0.503798 0.000558438 0)
(0.503697 0.000818213 0)
(0.503558 0.00116243 5.92775e-20)
(0.503371 0.00162257 5.89861e-20)
(0.50313 0.0022434 0)
(0.502832 0.00308921 0)
(0.502484 0.00425136 0)
(0.502128 0.00586059 5.79424e-20)
(0.501845 0.00808305 5.76983e-20)
(0.501894 0.0111415 -5.74397e-20)
(0.502501 0.0151257 0)
(0.504509 -0.000408244 -7.23315e-25)
(0.504551 -0.000399255 6.35764e-20)
(0.504592 -0.000389771 0)
(0.504633 -0.000379619 0)
(0.504673 -0.000368582 0)
(0.504712 -0.000356384 0)
(0.50475 -0.000342674 -3.10114e-20)
(0.504787 -0.000326998 0)
(0.504823 -0.000308767 0)
(0.504857 -0.000287222 0)
(0.504888 -0.000261378 9.1135e-20)
(0.504917 -0.00022996 6.04373e-20)
(0.504942 -0.000191307 0)
(0.504962 -0.000143254 2.99021e-20)
(0.504976 -8.29614e-05 -2.97431e-20)
(0.504982 -6.69136e-06 -5.91618e-20)
(0.504979 9.05063e-05 -5.8853e-20)
(0.504964 0.000215229 -5.85277e-20)
(0.504933 0.000376327 -5.82135e-20)
(0.504883 0.000585769 5.7902e-20)
(0.504809 0.000859862 0)
(0.504707 0.001221 -3.03228e-23)
(0.504571 0.00170016 -1.14029e-19)
(0.504402 0.00234036 0)
(0.504202 0.00320148 0)
(0.503989 0.00436546 0)
(0.503813 0.00594354 -1.24254e-22)
(0.50376 0.00806911 -1.64004e-22)
(0.504061 0.0109036 5.54749e-20)
(0.504908 0.014489 0)
(0.505397 -0.000439783 -3.1109e-20)
(0.505434 -0.000430281 -3.09584e-20)
(0.505471 -0.00042027 0)
(0.505507 -0.000409565 6.13086e-20)
(0.505543 -0.000397933 0)
(0.505578 -0.00038508 0)
(0.505613 -0.000370631 0)
(0.505647 -0.000354107 0)
(0.50568 -0.000334886 5.9767e-20)
(0.505711 -0.000312168 0)
(0.505741 -0.000284919 -5.91451e-20)
(0.505768 -0.000251799 -3.31054e-24)
(0.505793 -0.000211068 -5.85144e-20)
(0.505814 -0.000160463 0)
(0.505831 -9.70229e-05 0)
(0.505841 -1.68652e-05 5.75769e-20)
(0.505845 8.51308e-05 5.72549e-20)
(0.50584 0.00021575 5.69524e-20)
(0.505823 0.000384032 1.46051e-23)
(0.505793 0.000602084 -5.63354e-20)
(0.505747 0.000886214 0)
(0.505682 0.00125849 -5.57319e-20)
(0.505599 0.00174887 1.10835e-19)
(0.5055 0.00239801 0)
(0.505395 0.0032608 0)
(0.505308 0.00440975 5.44984e-20)
(0.505294 0.0059385 -1.08503e-19)
(0.505442 0.00795309 -1.51295e-22)
(0.505952 0.0105697 0)
(0.506985 0.0138004 0)
(0.506189 -0.000457933 0)
(0.506221 -0.00044751 0)
(0.506252 -0.000436379 -1.19981e-19)
(0.506283 -0.000424292 5.96882e-20)
(0.506314 -0.000410943 5.93849e-20)
(0.506344 -0.00039594 0)
(0.506374 -0.000378781 -5.87744e-20)
(0.506403 -0.000358822 -5.84693e-20)
(0.506431 -0.000335233 0)
(0.506459 -0.000306943 0)
(0.506484 -0.000272568 -3.27552e-24)
(0.506508 -0.000230315 5.72322e-20)
(0.50653 -0.000177853 0)
(0.506548 -0.000112148 5.6604e-20)
(0.506563 -2.92273e-05 0)
(0.506573 7.61189e-05 -5.59875e-20)
(0.506578 0.000210757 0)
(0.506576 0.000383769 1.1072e-19)
(0.506566 0.000607208 0)
(0.506547 0.000897127 5.47286e-20)
(0.50652 0.00127493 0)
(0.506488 0.00176918 -5.41468e-20)
(0.506457 0.00241772 0)
(0.506442 0.00327029 0)
(0.506472 0.0043903 -5.32496e-20)
(0.506604 0.00585598 5.29426e-20)
(0.506924 0.00775097 -1.38887e-22)
(0.507609 0.0101583 -5.20795e-20)
(0.50879 0.0130719 0)
(0.506846 -0.00048181 0)
(0.506871 -0.000471097 0)
(0.506896 -0.000459673 5.89338e-20)
(0.506922 -0.000447282 -1.1945e-24)
(0.506947 -0.000433606 -5.83345e-20)
(0.506972 -0.000418242 0)
(0.506997 -0.000400674 5.77296e-20)
(0.507022 -0.000380242 0)
(0.507046 -0.000356099 0)
(0.50707 -0.000327153 0)
(0.507094 -0.000291995 -5.65058e-20)
(0.507116 -0.000248801 0)
(0.507138 -0.000195211 -5.58835e-20)
(0.507158 -0.000128156 -5.55786e-20)
(0.507176 -4.36358e-05 0)
(0.507192 6.35738e-05 5.49487e-20)
(0.507206 0.000200319 -5.46357e-20)
(0.507218 0.000375592 -1.47735e-23)
(0.507227 0.000601221 -5.40081e-20)
(0.507236 0.000892781 -2.38829e-23)
(0.507246 0.00127076 0)
(0.507263 0.00176201 5.30595e-20)
(0.507297 0.00240139 0)
(0.507366 0.00323345 0)
(0.507504 0.00431321 0)
(0.507766 0.00570555 -5.17219e-20)
(0.508235 0.00747608 -1.26961e-22)
(0.509065 0.00968366 1.01985e-19)
(0.510365 0.0123122 0)
(0.507424 -0.000501503 5.86745e-20)
(0.507442 -0.000490628 5.83805e-20)
(0.507461 -0.000479052 -5.80848e-20)
(0.50748 -0.000466514 -1.11474e-24)
(0.507499 -0.000452689 0)
(0.507518 -0.000437166 0)
(0.507537 -0.000419425 5.68874e-20)
(0.507557 -0.000398799 0)
(0.507577 -0.000374434 -5.62804e-20)
(0.507597 -0.000345231 0)
(0.507617 -0.000309775 0)
(0.507638 -0.000266243 5.53605e-20)
(0.507658 -0.000212272 1.10108e-19)
(0.507679 -0.000144804 0)
(0.507701 -5.9868e-05 0)
(0.507722 4.77037e-05 -1.08244e-19)
(0.507745 0.000184643 5.38155e-20)
(0.50777 0.000359732 -5.35036e-20)
(0.507799 0.000584423 5.3191e-20)
(0.507833 0.000873638 -5.28774e-20)
(0.507878 0.00124674 -5.25328e-20)
(0.507942 0.0017287 -1.04453e-19)
(0.508037 0.00235127 0)
(0.508185 0.00315404 0)
(0.50842 0.00418436 0)
(0.508798 0.00549582 5.09083e-20)
(0.509395 0.00713961 -5.05252e-20)
(0.510347 0.00915716 -5.01012e-20)
(0.511744 0.0115272 0)
(0.507939 -0.000516615 -5.81354e-20)
(0.50795 -0.000505713 -5.78384e-20)
(0.507961 -0.000494134 5.75398e-20)
(0.507973 -0.000481613 -1.04929e-24)
(0.507985 -0.000467822 0)
(0.507997 -0.000452352 0)
(0.508011 -0.00043468 -1.12658e-19)
(0.508024 -0.000414145 0)
(0.508039 -0.000389896 1.11431e-19)
(0.508055 -0.000360845 5.5405e-20)
(0.508071 -0.000325591 0)
(0.508089 -0.000282329 -5.47861e-20)
(0.508108 -0.000228734 -5.44735e-20)
(0.508129 -0.000161798 0)
(0.508153 -7.76303e-05 0)
(0.508179 2.88107e-05 1.07048e-19)
(0.50821 0.000164058 -5.31996e-20)
(0.508248 0.000336577 -5.28776e-20)
(0.508294 0.00055732 0)
(0.508353 0.000840407 0)
(0.508432 0.00120394 5.19225e-20)
(0.508539 0.00167088 5.15927e-20)
(0.508691 0.00226991 -5.12115e-20)
(0.508911 0.00303592 0)
(0.509234 0.00400942 0)
(0.509713 0.0052345 0)
(0.510421 0.00675097 0)
(0.511475 0.00858774 0)
(0.512952 0.0107214 0)
(0.508407 -0.000526862 0)
(0.508409 -0.000516072 0)
(0.508412 -0.000504641 -5.65358e-20)
(0.508416 -0.000492305 -1.12513e-19)
(0.50842 -0.000478737 0)
(0.508425 -0.000463533 0)
(0.508431 -0.000446179 1.44795e-24)
(0.508438 -0.000426025 -5.51195e-20)
(0.508447 -0.000402237 -2.02363e-24)
(0.508457 -0.00037375 -2.439e-24)
(0.508469 -0.000339198 -5.4249e-20)
(0.508483 -0.000296822 -5.39553e-20)
(0.5085 -0.000244361 5.36599e-20)
(0.508521 -0.000178898 0)
(0.508545 -9.66736e-05 0)
(0.508576 7.16506e-06 -5.27703e-20)
(0.508614 0.000138875 5.24685e-20)
(0.508663 0.000306512 1.04315e-19)
(0.508726 0.00052042 -5.184e-20)
(0.508808 0.000793806 0)
(0.508917 0.0011434 0)
(0.509066 0.00159014 -1.01754e-19)
(0.50927 0.00215967 1.51662e-19)
(0.509554 0.00288253 -1.00379e-19)
(0.509955 0.00379324 -9.9642e-20)
(0.510524 0.00492795 0)
(0.511327 0.00631757 9.80028e-20)
(0.512467 0.00798213 0)
(0.51401 0.00989814 0)
(0.508825 -0.000531633 5.69995e-20)
(0.508819 -0.00052111 0)
(0.508813 -0.000509993 1.1282e-19)
(0.508808 -0.000498021 1.12226e-19)
(0.508804 -0.000484877 0)
(0.508802 -0.000470165 0)
(0.5088 -0.000453387 5.52146e-20)
(0.508801 -0.000433913 5.49126e-20)
(0.508803 -0.000410938 -5.46094e-20)
(0.508807 -0.000383436 -2.27389e-24)
(0.508814 -0.00035009 2.77353e-24)
(0.508824 -0.000309214 3.4089e-24)
(0.508838 -0.000258637 -4.21548e-24)
(0.508858 -0.000195574 0)
(0.508883 -0.00011644 0)
(0.508917 -1.66266e-05 0)
(0.508962 0.000109778 0)
(0.509021 0.000270346 -5.18177e-20)
(0.509098 0.000474723 5.14971e-20)
(0.509201 0.000735123 0)
(0.509339 0.00106685 0)
(0.509525 0.00148879 1.01013e-19)
(0.509776 0.00202371 -1.00322e-19)
(0.510119 0.00269817 9.78302e-23)
(0.51059 0.00354142 9.88531e-20)
(0.511236 0.00458306 0)
(0.512121 0.00584703 -9.7187e-20)
(0.513334 0.00734703 -9.60413e-20)
(0.514933 0.00906059 0)
(0.50919 -0.000530959 -1.13133e-19)
(0.509175 -0.000520833 0)
(0.509161 -0.000510171 -5.5971e-20)
(0.509148 -0.000498719 -5.56719e-20)
(0.509137 -0.000486171 0)
(0.509126 -0.000472147 0)
(0.509118 -0.000456171 0)
(0.509111 -0.00043764 0)
(0.509107 -0.00041579 5.4163e-20)
(0.509106 -0.000389645 -1.0772e-19)
(0.509108 -0.000357957 5.35564e-20)
(0.509114 -0.000319129 1.06499e-19)
(0.509125 -0.000271113 -5.29443e-20)
(0.509143 -0.000211282 -5.26318e-20)
(0.509169 -0.000136268 0)
(0.509206 -4.17584e-05 0)
(0.509256 7.77596e-05 0)
(0.509324 0.000229305 0)
(0.509415 0.000421763 0)
(0.509537 0.000666293 0)
(0.509701 0.000976733 0)
(0.50992 0.00136995 0)
(0.510214 0.00186599 0)
(0.510609 0.00248776 1.97413e-19)
(0.511141 0.00325993 0)
(0.511855 0.0042066 0)
(0.512811 0.00534625 -9.61606e-20)
(0.514086 0.00668808 9.53537e-20)
(0.515733 0.00821118 0)
(0.509509 -0.000525178 5.61717e-20)
(0.509486 -0.000515554 5.58738e-20)
(0.509464 -0.000505461 5.5576e-20)
(0.509443 -0.000494655 -5.52779e-20)
(0.509424 -0.000482846 0)
(0.509406 -0.000469673 0)
(0.509391 -0.000454688 0)
(0.509377 -0.000437325 0)
(0.509367 -0.000416868 -5.37814e-20)
(0.50936 -0.000392404 1.88954e-24)
(0.509357 -0.00036277 -5.31767e-20)
(0.509359 -0.000326475 -5.28769e-20)
(0.509367 -0.000281618 0)
(0.509383 -0.000225762 4.40379e-24)
(0.509409 -0.000155791 -5.19589e-20)
(0.509447 -6.77284e-05 5.16505e-20)
(0.509502 4.34875e-05 5.13396e-20)
(0.509578 0.00018427 0)
(0.509682 0.00036269 0)
(0.509821 0.000588804 0)
(0.510008 0.000874973 0)
(0.510257 0.00123609 -9.94243e-20)
(0.510588 0.00168962 0)
(0.511029 0.00225515 -9.8062e-20)
(0.511614 0.00295333 0)
(0.512387 0.00380371 0)
(0.513403 0.00482044 9.56085e-20)
(0.51473 0.00600955 0)
(0.516419 0.007352 0)
(0.509784 -0.000514657 5.58093e-20)
(0.509753 -0.000505614 -5.55156e-20)
(0.509723 -0.000496177 -5.52212e-20)
(0.509695 -0.000486117 5.49265e-20)
(0.509669 -0.00047516 0)
(0.509644 -0.000462971 0)
(0.509622 -0.000449134 0)
(0.509602 -0.000433128 5.37445e-20)
(0.509586 -0.000414292 -5.34484e-20)
(0.509573 -0.000391787 5.31536e-20)
(0.509565 -0.000364547 5.28568e-20)
(0.509563 -0.00033121 0)
(0.509568 -0.000290037 0)
(0.509582 -0.000238808 5.19622e-20)
(0.509607 -0.000174693 4.94729e-24)
(0.509647 -9.4087e-05 -1.02713e-19)
(0.509706 7.57757e-06 -5.10547e-20)
(0.509788 0.000136064 0)
(0.509902 0.000298583 0)
(0.510056 0.000504061 5.01032e-20)
(0.510263 0.000763375 0)
(0.510538 0.0010895 9.89223e-20)
(0.510902 0.00149745 4.90871e-20)
(0.511382 0.00200382 0)
(0.512013 0.00262571 -9.6663e-20)
(0.512836 0.00337887 0)
(0.513903 0.00427404 9.49352e-20)
(0.515274 0.005315 9.39579e-20)
(0.516998 0.00648482 9.2765e-20)
(0.510018 -0.000499795 -5.5478e-20)
(0.50998 -0.000491392 0)
(0.509943 -0.000482676 -5.48992e-20)
(0.509908 -0.000473436 0)
(0.509875 -0.000463419 0)
(0.509844 -0.000452318 0)
(0.509815 -0.000439756 0)
(0.509789 -0.000425259 -5.34524e-20)
(0.509767 -0.000408232 1.23934e-24)
(0.509749 -0.000387919 -5.28706e-20)
(0.509736 -0.000363364 0)
(0.509729 -0.000333344 0)
(0.509731 -0.000296306 0)
(0.509742 -0.000250269 -5.17008e-20)
(0.509767 -0.000192713 5.14094e-20)
(0.509807 -0.000120441 1.0222e-19)
(0.509869 -2.9413e-05 0)
(0.509957 8.54466e-05 -5.0502e-20)
(0.510079 0.000230455 -5.01927e-20)
(0.510245 0.000413385 -1.3357e-23)
(0.510469 0.000643637 -4.95532e-20)
(0.510766 0.00093232 4.92188e-20)
(0.511158 0.00129214 -4.88959e-20)
(0.511672 0.00173694 0)
(0.512341 0.00228072 1.44429e-19)
(0.513207 0.00293601 4.77046e-20)
(0.514316 0.00371088 -9.46134e-20)
(0.515724 0.00460752 -1.40422e-19)
(0.517477 0.0056112 -9.24761e-20)
(0.510212 -0.00048102 5.51732e-20)
(0.510167 -0.000473294 0)
(0.510124 -0.000465345 5.4609e-20)
(0.510083 -0.000456977 0)
(0.510043 -0.000447964 0)
(0.510006 -0.00043803 0)
(0.509971 -0.000426839 0)
(0.509939 -0.000413973 0)
(0.509911 -0.000398906 5.29131e-20)
(0.509888 -0.000380975 1.30948e-24)
(0.50987 -0.000359343 0)
(0.50986 -0.000332942 0)
(0.509858 -0.000300417 0)
(0.509867 -0.000260048 5.14884e-20)
(0.509889 -0.000209649 0)
(0.50993 -0.000146455 -4.73861e-24)
(0.509993 -6.69853e-05 0)
(0.510085 3.31173e-05 5.03182e-20)
(0.510214 0.000159251 5.0016e-20)
(0.510391 0.000318019 -9.94036e-20)
(0.510628 0.000517354 1.42397e-23)
(0.510944 0.000766555 -4.90636e-20)
(0.511359 0.00107614 0)
(0.5119 0.00145744 4.8339e-20)
(0.512602 0.00192167 -3.09613e-23)
(0.513501 0.00247866 -4.75786e-20)
(0.514645 0.00313433 0)
(0.516083 0.0038898 4.66595e-20)
(0.517859 0.00473255 0)
(0.510367 -0.000458777 -5.48953e-20)
(0.510316 -0.00045175 2.73103e-20)
(0.510267 -0.000444594 0)
(0.51022 -0.000437134 0)
(0.510175 -0.000429169 0)
(0.510131 -0.000420457 0)
(0.510091 -0.000410709 5.32471e-20)
(0.510054 -0.000399564 -5.29718e-20)
(0.510021 -0.000386573 5.26961e-20)
(0.509992 -0.000371174 5.2421e-20)
(0.50997 -0.000352654 -5.2143e-20)
(0.509955 -0.000330114 0)
(0.50995 -0.000302412 -5.15862e-20)
(0.509956 -0.0002681 0)
(0.509977 -0.000225349 5.10231e-20)
(0.510017 -0.000171848 -5.0742e-20)
(0.510081 -0.000104699 0)
(0.510176 -2.02885e-05 -5.01568e-20)
(0.51031 8.5843e-05 0)
(0.510494 0.00021912 4.95625e-20)
(0.510742 0.000386022 4.92502e-20)
(0.511072 0.000594081 0)
(0.511506 0.000851744 4.85714e-20)
(0.51207 0.00116799 -2.14301e-23)
(0.512796 0.00155159 -9.5687e-20)
(0.513723 0.00200999 0)
(0.514894 0.00254744 4.69791e-20)
(0.516355 0.00316427 0)
(0.51815 0.00385021 4.59155e-20)
(0.510484 -0.000433531 2.73206e-20)
(0.510428 -0.000427213 -2.7188e-20)
(0.510373 -0.000420863 2.70549e-20)
(0.510321 -0.000414328 2.69219e-20)
(0.51027 -0.000407435 0)
(0.510222 -0.000399981 0)
(0.510176 -0.000391723 -5.3045e-20)
(0.510134 -0.000382363 7.91666e-20)
(0.510096 -0.000371533 -5.25104e-20)
(0.510063 -0.000358776 0)
(0.510036 -0.000343514 7.79591e-20)
(0.510017 -0.000325021 2.58509e-20)
(0.510008 -0.00030238 5.14318e-20)
(0.510011 -0.000274432 0)
(0.51003 -0.000239716 -7.63244e-20)
(0.510069 -0.000196396 0)
(0.510133 -0.000142174 0)
(0.510229 -7.4198e-05 5.00393e-20)
(0.510367 1.10357e-05 0)
(0.510556 0.000117769 0)
(0.510813 0.000251037 0)
(0.511154 0.000416654 -4.8811e-20)
(0.511601 0.000621078 -4.84887e-20)
(0.512181 0.000871099 -4.81365e-20)
(0.512927 0.00117324 4.77618e-20)
(0.513875 0.0015329 0)
(0.515066 0.00195292 -4.69239e-20)
(0.516543 0.00243311 0)
(0.518351 0.00296542 -9.17165e-20)
(0.510562 -0.000405758 -5.44116e-20)
(0.510502 -0.000400146 -2.70775e-20)
(0.510443 -0.000394602 -2.69493e-20)
(0.510385 -0.000388998 -1.75442e-25)
(0.51033 -0.000383188 0)
(0.510277 -0.000377009 0)
(0.510226 -0.000370268 0)
(0.51018 -0.000362733 -2.63047e-20)
(0.510137 -0.00035412 0)
(0.5101 -0.000344079 0)
(0.510069 -0.000332176 -2.59143e-20)
(0.510046 -0.000317863 -5.15655e-20)
(0.510034 -0.000300457 0)
(0.510034 -0.000279096 2.55174e-20)
(0.510051 -0.000252703 1.00086e-24)
(0.510088 -0.000219926 0)
(0.510151 -0.000179084 2.51096e-20)
(0.510247 -0.0001281 -2.49694e-20)
(0.510386 -6.4435e-05 0)
(0.510579 1.49661e-05 0)
(0.510841 0.000113707 0)
(0.511189 0.000235915 4.87465e-20)
(0.511645 0.000386133 0)
(0.512237 0.000569077 0)
(0.512996 0.00078919 0)
(0.513958 0.00105003 0)
(0.515162 0.00135327 0)
(0.516651 0.00169834 0)
(0.518468 0.00207938 6.87244e-20)
(0.510604 -0.000375911 2.71026e-20)
(0.510539 -0.000370997 2.69791e-20)
(0.510476 -0.000366254 1.34276e-20)
(0.510414 -0.000361575 -2.67314e-20)
(0.510354 -0.000356848 0)
(0.510297 -0.000351949 0)
(0.510243 -0.000346736 0)
(0.510192 -0.000341044 0)
(0.510146 -0.000334678 -1.30533e-20)
(0.510105 -0.000327399 0)
(0.51007 -0.000318915 0)
(0.510044 -0.000308867 3.85895e-20)
(0.510028 -0.000296808 0)
(0.510025 -0.000282183 -2.54688e-20)
(0.510038 -0.000264303 2.53381e-20)
(0.510073 -0.000242312 0)
(0.510135 -0.000215156 -2.50716e-20)
(0.51023 -0.000181541 2.49349e-20)
(0.510369 -0.000139901 1.23967e-20)
(0.510563 -8.83674e-05 1.23246e-20)
(0.510827 -2.47608e-05 0)
(0.511179 5.33878e-05 -1.21723e-20)
(0.51164 0.000148754 0)
(0.512239 0.000264059 -1.20043e-20)
(0.513005 0.000401787 0)
(0.513975 0.000563799 0)
(0.515187 0.000750739 0)
(0.516681 0.000961757 -1.15885e-20)
(0.518501 0.00119311 -2.29009e-20)
(0.510608 -0.000344547 0)
(0.51054 -0.000340312 0)
(0.510473 -0.000336352 -1.37392e-20)
(0.510408 -0.000332583 0)
(0.510345 -0.000328925 0)
(0.510284 -0.000325294 0)
(0.510226 -0.000321601 0)
(0.510172 -0.00031775 0)
(0.510122 -0.000313634 1.33732e-20)
(0.510077 -0.000309127 0)
(0.510039 -0.000304085 0)
(0.510009 -0.000298336 -1.31859e-20)
(0.50999 -0.000291675 0)
(0.509984 -0.000283857 0)
(0.509995 -0.000274586 0)
(0.510027 -0.000263509 0)
(0.510086 -0.0002502 0)
(0.51018 -0.000234158 0)
(0.510317 -0.00021479 -1.27232e-20)
(0.51051 -0.000191416 -1.26512e-20)
(0.510774 -0.000163274 0)
(0.511125 -0.000129537 1.24987e-20)
(0.511588 -8.93676e-05 0)
(0.512188 -4.19903e-05 1.233e-20)
(0.512956 1.31844e-05 0)
(0.513927 7.6403e-05 0)
(0.51514 0.000147356 0)
(0.516635 0.000224962 1.191e-20)
(0.518453 0.000307549 0)
(0.510574 -0.000309232 0)
(0.510502 -0.000305703 0)
(0.510432 -0.000302561 0)
(0.510364 -0.00029975 -1.34226e-20)
(0.510297 -0.000297223 0)
(0.510233 -0.000294942 -1.32914e-20)
(0.510172 -0.000292876 1.32254e-20)
(0.510114 -0.000291004 0)
(0.510061 -0.000289315 1.30922e-20)
(0.510013 -0.000287811 0)
(0.509972 -0.000286507 1.29575e-20)
(0.509939 -0.000285439 0)
(0.509916 -0.000284668 -1.28207e-20)
(0.509907 -0.00028429 0)
(0.509914 -0.000284444 0)
(0.509943 -0.000285326 -1.26102e-20)
(0.509998 -0.000287209 -1.2538e-20)
(0.510089 -0.000290457 0)
(0.510223 -0.000295554 -2.47783e-20)
(0.510412 -0.000303125 0)
(0.510672 -0.000313961 2.44636e-20)
(0.51102 -0.000329045 0)
(0.511479 -0.00034955 0)
(0.512075 -0.000376833 0)
(0.512839 -0.000412376 0)
(0.513806 -0.000457703 0)
(0.515014 -0.000514174 0)
(0.516504 -0.000583124 0)
(0.518315 -0.000664106 -2.27602e-20)
(0.510486 -0.000269801 0)
(0.510412 -0.000267017 0)
(0.510339 -0.00026474 -2.75322e-20)
(0.510268 -0.000262944 1.37008e-20)
(0.510199 -0.000261619 0)
(0.510132 -0.000260775 1.3569e-20)
(0.510068 -0.000260444 -1.35026e-20)
(0.510007 -0.000260689 0)
(0.509951 -0.000261602 -1.33686e-20)
(0.5099 -0.000263319 0)
(0.509855 -0.000266032 1.32329e-20)
(0.509819 -0.00027 -2.63286e-20)
(0.509793 -0.000275572 1.3095e-20)
(0.50978 -0.000283211 2.60504e-20)
(0.509783 -0.000293527 2.59089e-20)
(0.509808 -0.000307314 1.28825e-20)
(0.509859 -0.000325595 -1.28101e-20)
(0.509944 -0.000349679 2.5471e-20)
(0.510072 -0.000381213 -1.03277e-24)
(0.510255 -0.000422242 0)
(0.510507 -0.000475256 -2.49986e-20)
(0.510847 -0.000543206 0)
(0.511296 -0.000629477 0)
(0.511881 -0.000737775 -4.89375e-20)
(0.512632 -0.000871884 4.85401e-20)
(0.513586 -0.00103532 0)
(0.51478 -0.00123066 4.76531e-20)
(0.516255 -0.00145957 0)
(0.518052 -0.00171941 -2.32761e-20)
(0.510347 -0.000229519 5.56217e-20)
(0.51027 -0.0002275 0)
(0.510196 -0.000226104 2.75486e-20)
(0.510122 -0.000225335 0)
(0.510051 -0.000225219 0)
(0.509982 -0.000225814 0)
(0.509916 -0.000227216 5.40335e-20)
(0.509853 -0.000229565 0)
(0.509795 -0.000233057 0)
(0.509741 -0.000237962 5.32217e-20)
(0.509694 -0.00024464 2.64741e-20)
(0.509655 -0.000253571 7.90077e-20)
(0.509626 -0.000265385 0)
(0.509609 -0.000280907 2.6057e-20)
(0.509609 -0.000301207 -2.59139e-20)
(0.509629 -0.000327664 0)
(0.509674 -0.000362043 7.68726e-20)
(0.509753 -0.000406581 -2.54741e-20)
(0.509873 -0.000464079 -2.53256e-20)
(0.510047 -0.000537994 0)
(0.510288 -0.000632511 0)
(0.510615 -0.000752567 0)
(0.511048 -0.000903793 0)
(0.511615 -0.00109231 4.89367e-20)
(0.512346 -0.00132432 -4.8538e-20)
(0.513278 -0.00160546 0)
(0.514449 -0.00193969 -4.76475e-20)
(0.515903 -0.00232916 0)
(0.517679 -0.002769 -2.82714e-23)
(0.510153 -0.00018926 -5.56787e-20)
(0.510076 -0.00018802 0)
(0.51 -0.000187516 0)
(0.509926 -0.000187776 -5.48823e-20)
(0.509854 -0.000188866 0)
(0.509783 -0.000190888 0)
(0.509716 -0.000193997 1.6898e-26)
(0.509652 -0.000198411 0)
(0.509592 -0.000204426 0)
(0.509537 -0.000212438 -5.32597e-20)
(0.509488 -0.000222972 6.03817e-25)
(0.509446 -0.000236719 -5.27069e-20)
(0.509414 -0.00025458 0)
(0.509395 -0.000277728 1.60119e-24)
(0.50939 -0.000307679 0)
(0.509405 -0.000346378 5.15742e-20)
(0.509444 -0.000396313 -5.12781e-20)
(0.509515 -0.000460627 0)
(0.509626 -0.000543255 1.01354e-19)
(0.509787 -0.000649055 0)
(0.510014 -0.000783909 5.00462e-20)
(0.510322 -0.00095477 0)
(0.510734 -0.00116958 0)
(0.511276 -0.00143701 9.79856e-20)
(0.511979 -0.00176586 0)
(0.512881 -0.00216415 9.63576e-20)
(0.514021 -0.00263751 -9.54455e-20)
(0.515446 -0.00318883 -9.44528e-20)
(0.517193 -0.00381093 1.39791e-19)
(0.509904 -0.000149835 5.57568e-20)
(0.509827 -0.000149391 -5.54902e-20)
(0.509751 -0.000149786 5.52228e-20)
(0.509676 -0.000151075 1.75935e-25)
(0.509604 -0.000153357 0)
(0.509533 -0.000156781 0)
(0.509466 -0.000161557 -5.41435e-20)
(0.509401 -0.000167974 -5.38712e-20)
(0.50934 -0.000176423 1.07195e-19)
(0.509284 -0.00018742 0)
(0.509233 -0.000201646 5.30474e-20)
(0.50919 -0.00021999 1.05537e-19)
(0.509156 -0.00024361 0)
(0.509133 -0.000274009 -5.22043e-20)
(0.509124 -0.000313126 1.03843e-19)
(0.509133 -0.00036345 -5.16298e-20)
(0.509166 -0.000428158 1.02683e-19)
(0.509227 -0.000511273 0)
(0.509326 -0.000617838 -5.07337e-20)
(0.509473 -0.000754091 -1.00863e-19)
(0.509682 -0.000927618 -5.00985e-20)
(0.509968 -0.00114743 9.9561e-20)
(0.510353 -0.00142387 -9.88685e-20)
(0.510863 -0.00176835 -9.80865e-20)
(0.511529 -0.00219252 0)
(0.512391 -0.00270722 -9.64551e-20)
(0.51349 -0.00332014 9.55408e-20)
(0.514878 -0.00403535 9.45454e-20)
(0.51659 -0.0048432 1.08355e-22)
(0.509597 -0.00011209 -5.58622e-20)
(0.50952 -0.000112453 1.6678e-19)
(0.509445 -0.000113749 5.53239e-20)
(0.509371 -0.000116058 1.65163e-19)
(0.509299 -0.00011951 0)
(0.509229 -0.000124294 -1.09023e-19)
(0.509161 -0.000130675 1.08478e-19)
(0.509097 -0.000139007 -5.39661e-20)
(0.509036 -0.000149768 -2.14763e-19)
(0.508979 -0.000163585 1.06831e-19)