/*--------------------------------*- C++ -*----------------------------------*\
  =========                 |
  \\      /  F ield         | OpenFOAM: The Open Source CFD Toolbox
   \\    /   O peration     | Website:  https://openfoam.org
    \\  /    A nd           | Version:  6
     \\/     M anipulation  |
\*---------------------------------------------------------------------------*/
FoamFile
{
    version     2.0;
    format      ascii;
    class       volScalarField;
    location    "0.2";
    object      epsilon;
}
// * * * * * * * * * * * * * * * * * * * * * * * * * * * * * * * * * * * * * //

dimensions      [0 2 -3 0 0 0 0];

internalField   nonuniform List<scalar> 
12225
(
307.554
159.142
103.206
76.18
60.8915
51.3538
44.914
40.2544
36.6906
33.8507
31.5191
29.5623
27.8923
26.4478
25.1845
24.0698
23.0784
22.2445
71.6109
59.7633
44.4175
34.349
27.8021
23.3529
20.2005
17.8783
16.1027
14.6997
13.561
12.6168
11.8205
11.1395
10.5504
10.0358
9.5817
9.17275
33.6139
34.4055
29.2906
24.3864
20.5357
17.6093
15.3795
13.6555
12.2961
11.202
10.3048
9.55671
8.92417
8.38279
7.91463
7.50618
7.14701
6.82904
22.4947
24.1974
22.2225
19.542
17.065
14.9828
13.2828
11.9022
10.7748
9.84493
9.06909
8.41439
7.85606
7.3753
6.95779
6.59248
6.27106
5.98881
18.0525
19.1659
18.2265
16.5959
14.8968
13.3495
12.0108
10.8752
9.91692
9.10659
8.41771
7.82807
7.31973
6.87834
6.49253
6.15332
5.85397
5.59151
15.9662
16.4002
15.7672
14.6433
13.3964
12.1983
11.1154
10.1639
9.33799
8.6237
8.00549
7.46874
7.00067
6.59051
6.22934
5.90991
5.62683
5.37823
14.903
14.7895
14.1897
13.3006
12.3143
11.3432
10.4412
9.62828
8.90694
8.27135
7.71257
7.22105
6.78776
6.40463
6.06471
5.76223
5.49289
5.2556
14.3404
13.8261
13.1601
12.3652
11.5232
10.6961
9.91944
9.20918
8.56936
7.99766
7.48871
7.0361
6.63328
6.27417
5.95332
5.66611
5.40917
5.18193
14.0387
13.2461
12.4873
11.7147
10.9458
10.2062
9.51376
8.87737
8.29949
7.77848
7.31052
6.89085
6.51449
6.17664
5.87295
5.59966
5.35411
5.1361
13.8768
12.8995
12.0524
11.2678
10.5298
9.83969
9.20108
8.61589
8.08353
7.60153
7.16633
6.77385
6.41992
6.10054
5.81204
5.5513
5.31615
5.10664
13.7906
12.6958
11.7767
10.9671
10.2363
9.57092
8.96458
8.41315
7.91285
7.45977
7.04986
6.6791
6.34363
6.03983
5.76446
5.51477
5.28893
5.08711
13.7489
12.5882
11.6206
10.7868
10.0518
9.3952
8.80489
8.27258
7.79195
7.35765
6.96493
6.6095
6.28746
5.99533
5.73002
5.48899
5.27058
5.07499
13.7254
12.5235
11.521
10.6659
9.92274
9.26803
8.68594
8.16534
7.69787
7.2769
6.89694
6.55328
6.24188
5.95921
5.70225
5.46854
5.25653
5.06637
13.7116
12.4831
11.4547
10.581
9.82781
9.1707
8.59182
8.07806
7.61948
7.20831
6.83827
6.5042
6.20179
5.92737
5.67788
5.4509
5.24487
5.05989
13.7045
12.4608
11.416
10.5284
9.76602
9.10451
8.52535
8.01441
7.56074
7.15572
6.79247
6.46536
6.16978
5.90188
5.6585
5.43716
5.23629
5.05585
13.7012
12.4503
11.3966
10.5006
9.73161
9.06589
8.48495
7.97434
7.52264
7.12077
6.76143
6.43867
6.14762
5.88426
5.64531
5.42821
5.2313
5.05445
13.7
12.4461
11.3886
10.4886
9.71594
9.04749
8.46491
7.95376
7.5025
7.10187
6.74437
6.42387
6.13535
5.87467
5.63845
5.42406
5.22978
5.05535
13.6996
12.4449
11.3862
10.4848
9.71086
9.0413
8.45796
7.94643
7.49518
7.09492
6.73807
6.41847
6.13102
5.87152
5.63656
5.42345
5.23045
5.05722
13.6998
12.4453
11.387
10.486
9.71247
9.04326
8.46018
7.94881
7.49762
7.09732
6.74038
6.42062
6.13298
5.87326
5.63807
5.42472
5.23148
5.05803
13.701
12.4493
11.3947
10.4976
9.72764
9.06119
8.47986
7.96921
7.51781
7.1165
6.75793
6.4361
6.14607
5.88378
5.64593
5.42992
5.23406
5.05818
13.7054
12.4634
11.4201
10.5336
9.7719
9.11063
8.53149
8.02044
7.56663
7.16148
6.79813
6.47098
6.17539
5.90754
5.66424
5.443
5.24224
5.06194
13.7204
12.5081
11.4948
10.6317
9.88425
9.2286
8.64817
8.13094
7.66782
7.25165
6.87657
6.53766
6.23072
5.95218
5.69898
5.46868
5.25972
5.07226
13.767
12.633
11.6842
10.8596
10.1263
9.46683
8.87114
8.33239
7.84511
7.40445
7.00592
6.64531
6.31875
6.0227
5.75404
5.51016
5.28934
5.0918
13.9007
12.9462
12.1086
11.3251
10.5843
9.88982
9.24647
8.65672
8.12023
7.63461
7.1963
6.80119
6.44507
6.12389
5.83392
5.57198
5.33588
5.12569
14.2607
13.6658
12.974
12.1888
11.372
10.5738
9.82389
9.13625
8.51467
7.95734
7.45961
7.01574
6.61977
6.26606
5.9495
5.66576
5.41167
5.1869
15.1941
15.2319
14.6347
13.6937
12.6456
11.6176
10.6673
9.81508
9.06225
8.4017
7.82323
7.31622
6.87073
6.47799
6.13046
5.82192
5.54774
5.3068
17.6338
18.6177
17.7644
16.2579
14.6629
13.1886
11.8967
10.7898
9.84893
9.04935
8.36738
7.78248
7.27766
6.83911
6.45573
6.11867
5.82138
5.56157
24.7058
26.4229
23.9014
20.7811
17.9998
15.7042
13.8525
12.3633
11.158
10.1717
9.35454
8.6693
8.08804
7.58982
7.15878
6.78284
6.45308
6.16563
51.9669
47.7357
37.7987
30.1744
24.7626
20.8812
18.0407
15.9126
14.2757
12.9833
11.9386
11.0772
10.3547
9.73994
9.21068
8.75048
8.34735
7.99534
251.833
137.373
90.8042
67.1599
53.351
44.5806
38.6429
34.3875
31.1827
28.6696
26.6354
24.9479
23.5213
22.2974
21.235
20.3039
19.4817
18.7538
0.0668091
0.0722912
0.090464
0.0960519
0.10649
0.119801
0.136266
0.157059
0.183313
0.210644
0.240815
0.274283
0.311148
0.351264
0.39432
0.439923
0.487655
0.5371
0.58787
0.639613
0.692017
0.744815
0.797781
0.850735
0.903532
0.956067
1.00827
1.06009
1.11152
1.16256
1.21322
1.26354
1.31356
1.36331
1.41286
1.46224
1.5115
1.5607
1.60986
1.65905
1.70829
1.75764
1.80716
1.85692
1.90702
1.9576
2.00887
2.06112
2.11476
2.17004
2.22508
2.27986
2.33431
2.38831
2.44168
2.4942
2.54563
2.5957
2.64413
2.69061
2.7348
2.77638
2.81498
2.85026
2.88186
2.90943
2.93266
2.95122
2.96484
2.97327
2.97631
2.97381
2.96566
2.95183
2.93232
2.9072
2.87662
2.84076
2.79986
2.75422
2.70416
2.65007
2.59233
2.5314
2.46774
2.402
2.3352
2.26955
2.20982
2.16172
2.11995
2.07868
2.03711
1.99522
1.95316
1.91107
1.86913
1.82749
1.78628
1.74563
1.70564
1.66639
1.62794
1.59036
1.55367
1.51789
1.48304
1.4491
1.41608
1.38394
1.35265
1.32219
1.2925
1.26355
1.23529
1.20766
1.18062
1.15413
1.12814
1.10261
1.0775
1.0528
1.02846
1.00448
0.98086
0.95759
0.934685
0.912162
0.890048
0.868375
0.847178
0.826496
0.806361
0.786791
0.767793
0.749375
0.731617
0.714813
0.699296
0.684957
0.671743
0.659611
0.648518
0.638423
0.629284
0.621056
0.613694
0.607152
0.601381
0.596329
0.591946
0.58818
0.58498
0.582296
0.580077
0.578278
0.576852
0.575756
0.574951
0.574398
0.574062
0.573911
0.573915
0.574045
0.574273
0.574575
0.574923
0.575291
0.57565
0.575965
0.576196
0.57629
0.576173
0.575742
0.574838
0.573195
0.570372
0.565476
0.5571
0.542177
0.188378
0.12043
0.117962
0.130463
0.148447
0.171476
0.198294
0.226775
0.254845
0.281313
0.306192
0.329698
0.352028
0.373344
0.393798
0.413541
0.432721
0.451475
0.469924
0.488165
0.506271
0.524294
0.542264
0.560198
0.5781
0.595968
0.613796
0.631576
0.649301
0.666966
0.684568
0.702104
0.719574
0.736981
0.754328
0.771618
0.788859
0.806057
0.82322
0.84036
0.857491
0.874633
0.891812
0.909064
0.926439
0.944002
0.961839
0.980062
0.998797
1.01823
1.03778
1.05724
1.07657
1.0957
1.11459
1.13315
1.15131
1.16897
1.18604
1.20242
1.21799
1.23264
1.24624
1.25866
1.26979
1.27949
1.28764
1.29412
1.29883
1.30167
1.30255
1.30141
1.29819
1.29287
1.28544
1.27591
1.26431
1.2507
1.23516
1.2178
1.19871
1.17806
1.15598
1.13268
1.10835
1.08328
1.05784
1.03256
1.00813
0.98567
0.964102
0.942693
0.921291
0.899907
0.878599
0.857433
0.836473
0.815777
0.795396
0.775373
0.755745
0.73654
0.717779
0.699479
0.681649
0.664294
0.647413
0.631003
0.615055
0.599559
0.5845
0.569865
0.555634
0.541792
0.528318
0.515195
0.502404
0.489927
0.477749
0.465854
0.45423
0.442866
0.431753
0.420887
0.410263
0.399882
0.389746
0.37986
0.370232
0.36087
0.351785
0.34299
0.334496
0.326315
0.318461
0.310955
0.303834
0.297173
0.291101
0.285535
0.280373
0.275603
0.271213
0.267192
0.263525
0.260197
0.257192
0.254492
0.252081
0.249941
0.248055
0.246403
0.244969
0.243734
0.242682
0.241796
0.241059
0.240457
0.239974
0.239599
0.239317
0.239118
0.238991
0.238927
0.238919
0.238957
0.239038
0.239155
0.239305
0.239486
0.239698
0.239944
0.240232
0.240583
0.241037
0.241683
0.242725
0.24464
0.248598
0.25813
0.376673
0.199987
0.184047
0.188535
0.201855
0.220697
0.242557
0.264936
0.285994
0.304986
0.322017
0.33753
0.352001
0.365835
0.379346
0.392756
0.40621
0.41979
0.433527
0.447414
0.461417
0.475487
0.48957
0.503611
0.517564
0.531387
0.545053
0.55854
0.571837
0.584942
0.597857
0.610591
0.623156
0.635567
0.647844
0.660006
0.672077
0.684082
0.696045
0.707998
0.719968
0.731991
0.744099
0.75633
0.768722
0.781312
0.794136
0.807224
0.820598
0.834231
0.847965
0.861732
0.875493
0.88921
0.902844
0.916348
0.929667
0.942739
0.955493
0.96785
0.979725
0.991025
1.00165
1.01149
1.02045
1.02841
1.03526
1.0409
1.04523
1.04814
1.04957
1.04944
1.04768
1.04427
1.03918
1.03241
1.02397
1.0139
1.00226
0.989109
0.974548
0.958684
0.94164
0.923558
0.904598
0.884943
0.864798
0.844376
0.824334
0.804786
0.785469
0.766235
0.74706
0.727978
0.70904
0.690302
0.671818
0.653633
0.63579
0.61832
0.601252
0.584607
0.5684
0.552642
0.537337
0.522487
0.508089
0.494138
0.480625
0.467539
0.454867
0.442595
0.430707
0.419188
0.408021
0.397191
0.38668
0.376475
0.366559
0.356921
0.347548
0.338431
0.32956
0.320928
0.312532
0.304368
0.296435
0.288734
0.281267
0.274038
0.267052
0.260315
0.253833
0.247615
0.241669
0.236006
0.23064
0.225591
0.220883
0.216525
0.212513
0.208811
0.205406
0.202288
0.199444
0.196862
0.19453
0.192434
0.19056
0.188894
0.187421
0.186129
0.185002
0.184027
0.183191
0.182479
0.18188
0.181383
0.180975
0.180647
0.180389
0.180192
0.18005
0.179954
0.179899
0.179878
0.179889
0.179927
0.179989
0.180074
0.180182
0.180314
0.180476
0.18068
0.180949
0.181333
0.181939
0.183011
0.185112
0.189663
0.563129
0.278271
0.240757
0.235955
0.241857
0.253191
0.267305
0.28222
0.29665
0.310094
0.322615
0.334527
0.346173
0.35782
0.369644
0.381735
0.394119
0.406776
0.419656
0.432696
0.445825
0.458974
0.472079
0.485087
0.497954
0.510648
0.523144
0.535429
0.547496
0.559347
0.570986
0.582426
0.593679
0.604763
0.615699
0.62651
0.637221
0.647857
0.658449
0.669024
0.679614
0.69025
0.700963
0.711782
0.722738
0.733853
0.745151
0.756647
0.76835
0.780251
0.792286
0.804423
0.816638
0.828903
0.841189
0.853456
0.86566
0.877744
0.889644
0.901286
0.912587
0.923456
0.933792
0.94349
0.952439
0.960524
0.967629
0.973641
0.97845
0.981954
0.984059
0.984685
0.983766
0.981253
0.977115
0.97134
0.963938
0.954936
0.944384
0.932349
0.918915
0.904184
0.888272
0.871308
0.853432
0.834789
0.815527
0.79608
0.776671
0.757309
0.737976
0.718676
0.699446
0.680338
0.661413
0.642727
0.624335
0.606281
0.588606
0.571342
0.554516
0.538147
0.522248
0.506829
0.491894
0.477442
0.463471
0.449972
0.436937
0.424353
0.412207
0.400484
0.389169
0.378243
0.36769
0.357494
0.347637
0.338104
0.328878
0.319946
0.311295
0.302913
0.294789
0.286915
0.279283
0.27189
0.264731
0.257803
0.251106
0.244642
0.238412
0.232418
0.226664
0.221156
0.215898
0.210896
0.206158
0.20169
0.197503
0.193601
0.189989
0.186657
0.18359
0.180779
0.178213
0.175881
0.173773
0.171875
0.170176
0.168663
0.167324
0.166144
0.165113
0.164217
0.163444
0.162782
0.162221
0.161749
0.161356
0.161035
0.160775
0.160569
0.16041
0.160293
0.160211
0.16016
0.160135
0.160134
0.160153
0.160191
0.160248
0.160325
0.160425
0.160557
0.160737
0.160997
0.161404
0.162105
0.163395
0.165837
0.712476
0.33251
0.279308
0.26703
0.266631
0.271686
0.279671
0.289092
0.299052
0.309145
0.319307
0.329632
0.340242
0.351225
0.362615
0.374403
0.386547
0.398987
0.411651
0.424469
0.437372
0.450295
0.463186
0.475995
0.488686
0.501227
0.513596
0.525776
0.537759
0.549539
0.561117
0.572497
0.58369
0.594707
0.605565
0.616282
0.626881
0.637384
0.647818
0.65821
0.668588
0.678983
0.689422
0.699935
0.710548
0.721287
0.732173
0.743227
0.754465
0.765898
0.777497
0.789244
0.801124
0.813119
0.825202
0.83734
0.849491
0.861601
0.873607
0.885434
0.896996
0.908197
0.918932
0.929088
0.938545
0.94718
0.954865
0.961476
0.966892
0.970999
0.973693
0.974883
0.974494
0.972469
0.968771
0.963383
0.956311
0.947581
0.937242
0.92536
0.912021
0.897328
0.881394
0.864351
0.846334
0.827461
0.80813
0.788508
0.768693
0.748759
0.728767
0.708778
0.688862
0.669087
0.64952
0.630225
0.611258
0.592667
0.574494
0.556772
0.539528
0.522781
0.506547
0.490833
0.475644
0.460978
0.446832
0.433198
0.420065
0.407421
0.39525
0.383538
0.372265
0.361416
0.350971
0.340911
0.331219
0.321877
0.312868
0.304176
0.295785
0.287683
0.279856
0.272295
0.26499
0.257933
0.251119
0.244542
0.238201
0.232093
0.226217
0.220576
0.215169
0.21
0.20507
0.200384
0.195945
0.191757
0.187824
0.184148
0.180731
0.177572
0.174662
0.171991
0.169549
0.167328
0.165317
0.163504
0.161879
0.160429
0.159142
0.158007
0.157011
0.156143
0.155391
0.154744
0.154192
0.153724
0.153331
0.153004
0.152736
0.152518
0.152345
0.15221
0.152108
0.152035
0.151986
0.151959
0.15195
0.151959
0.151983
0.152025
0.152086
0.152173
0.152297
0.152482
0.152773
0.153265
0.154125
0.1556
0.811861
0.365803
0.300893
0.283161
0.278496
0.279516
0.283706
0.289833
0.2972
0.305432
0.314356
0.323905
0.334046
0.344746
0.355959
0.367627
0.379684
0.39206
0.404686
0.417498
0.430435
0.443442
0.45647
0.469476
0.482421
0.495273
0.508004
0.520594
0.533024
0.545282
0.557359
0.569254
0.580965
0.592499
0.603864
0.615074
0.626143
0.637092
0.647943
0.65872
0.669449
0.680159
0.690877
0.701634
0.712458
0.723377
0.734418
0.745608
0.756968
0.768521
0.780258
0.792173
0.804255
0.81649
0.828859
0.841329
0.85386
0.866399
0.878882
0.891229
0.903352
0.915149
0.926506
0.937302
0.947408
0.956687
0.965002
0.972218
0.9782
0.982824
0.985976
0.987556
0.987481
0.985687
0.982135
0.976804
0.969699
0.960849
0.950303
0.938132
0.924427
0.909295
0.892847
0.87523
0.856591
0.837268
0.817389
0.79709
0.776491
0.755697
0.734801
0.713895
0.693065
0.672391
0.651949
0.631808
0.612026
0.592656
0.573741
0.555317
0.537411
0.520045
0.503234
0.486986
0.471305
0.456192
0.44164
0.427642
0.414186
0.40126
0.388847
0.376931
0.365492
0.354511
0.343969
0.333846
0.324121
0.314776
0.305791
0.297148
0.288831
0.280823
0.27311
0.26568
0.258521
0.251623
0.244979
0.238581
0.232424
0.226505
0.220821
0.215372
0.210156
0.205174
0.200427
0.195916
0.191644
0.187611
0.18382
0.180272
0.176966
0.173902
0.171076
0.168478
0.1661
0.163935
0.161971
0.160198
0.158606
0.157183
0.155919
0.154801
0.153818
0.152958
0.152211
0.151566
0.151012
0.15054
0.15014
0.149805
0.149527
0.149297
0.14911
0.148961
0.148843
0.148752
0.148685
0.148638
0.148609
0.148595
0.148596
0.148612
0.148645
0.148698
0.148782
0.148913
0.149124
0.149477
0.150072
0.15103
0.873387
0.383161
0.309643
0.288106
0.280865
0.279681
0.281885
0.286312
0.292341
0.299604
0.307873
0.316994
0.326857
0.337371
0.348455
0.360034
0.372039
0.384403
0.397067
0.409974
0.423072
0.436311
0.449648
0.463038
0.476443
0.489826
0.503156
0.516403
0.529541
0.54255
0.555412
0.568116
0.580652
0.593017
0.605213
0.617246
0.629124
0.640862
0.652477
0.66399
0.675426
0.686809
0.698169
0.709535
0.720938
0.732409
0.743978
0.755674
0.767526
0.77956
0.791783
0.804194
0.816787
0.829553
0.842475
0.855521
0.868653
0.881817
0.894944
0.907954
0.920751
0.933227
0.945261
0.956722
0.96747
0.977359
0.986242
0.99397
1.0004
1.0054
1.00885
1.01063
1.01066
1.00888
1.00524
0.999729
0.992342
0.983116
0.972109
0.959394
0.945063
0.929251
0.912023
0.893717
0.874456
0.854411
0.833735
0.81257
0.791049
0.769294
0.747419
0.725528
0.703719
0.682083
0.660701
0.639645
0.618979
0.598757
0.579025
0.559821
0.541175
0.523107
0.505635
0.488767
0.472509
0.456859
0.441812
0.427361
0.413493
0.400195
0.387449
0.375238
0.363543
0.352342
0.341614
0.331339
0.321493
0.312057
0.303009
0.29433
0.286
0.278002
0.270319
0.262937
0.255841
0.24902
0.242464
0.236165
0.230114
0.224306
0.218738
0.213405
0.208307
0.203442
0.198809
0.194409
0.190241
0.186306
0.182605
0.179137
0.175902
0.172898
0.170122
0.167568
0.165227
0.163092
0.161153
0.159401
0.157825
0.156414
0.155158
0.154045
0.153065
0.152206
0.151457
0.150808
0.150248
0.14977
0.149362
0.149018
0.148729
0.148488
0.148289
0.148127
0.147995
0.14789
0.147808
0.147746
0.1477
0.147669
0.147651
0.147647
0.147657
0.147685
0.147737
0.147826
0.147976
0.148229
0.148647
0.149297
0.904235
0.389153
0.309778
0.285683
0.276974
0.274728
0.276052
0.279733
0.285154
0.291945
0.299857
0.308709
0.318363
0.328711
0.339664
0.351148
0.3631
0.375462
0.388184
0.401219
0.41452
0.428044
0.441748
0.455592
0.469533
0.483532
0.497553
0.51156
0.52552
0.539404
0.553188
0.56685
0.580373
0.593746
0.606963
0.62002
0.632922
0.645676
0.658294
0.670793
0.683193
0.695519
0.707796
0.720053
0.732322
0.744634
0.75702
0.769513
0.782142
0.794934
0.807905
0.821057
0.83439
0.847895
0.861555
0.875341
0.889211
0.90311
0.916966
0.930694
0.944192
0.957344
0.970022
0.982086
0.993387
1.00377
1.01308
1.02116
1.02786
1.03303
1.03656
1.03833
1.03825
1.03626
1.03231
1.02639
1.01851
1.0087
0.997051
0.983623
0.968481
0.951915
0.934016
0.914965
0.894922
0.874047
0.852497
0.830423
0.807966
0.785259
0.762424
0.739577
0.716822
0.694255
0.671962
0.650019
0.628492
0.607439
0.586907
0.566935
0.547554
0.528788
0.510653
0.493159
0.476312
0.460112
0.444553
0.429627
0.415324
0.401627
0.388521
0.375986
0.364001
0.352547
0.341599
0.331135
0.321133
0.311569
0.302421
0.293667
0.285286
0.27726
0.269568
0.262195
0.255124
0.248342
0.241836
0.235597
0.229614
0.223881
0.218392
0.213141
0.208126
0.203344
0.198793
0.194471
0.190379
0.186515
0.182878
0.179469
0.176285
0.173325
0.170586
0.168061
0.165746
0.163631
0.161707
0.159967
0.158399
0.156994
0.155741
0.154629
0.153648
0.152786
0.152033
0.151378
0.150812
0.150326
0.14991
0.149557
0.149259
0.149008
0.148798
0.148625
0.148482
0.148365
0.148271
0.148195
0.148136
0.14809
0.148058
0.148037
0.148028
0.148035
0.148061
0.148117
0.148219
0.148397
0.148691
0.149142
0.911106
0.387346
0.304569
0.278865
0.269346
0.266643
0.267648
0.271064
0.276244
0.282807
0.290503
0.299149
0.30861
0.318781
0.32958
0.340943
0.352816
0.365153
0.377912
0.391055
0.404542
0.418336
0.432395
0.44668
0.461149
0.475761
0.490475
0.505252
0.520054
0.534845
0.549593
0.564271
0.578855
0.593325
0.607666
0.621871
0.635936
0.649862
0.663655
0.677327
0.690894
0.704376
0.717797
0.731183
0.744563
0.757966
0.771425
0.784969
0.798627
0.812426
0.82638
0.840496
0.854771
0.869196
0.883754
0.898411
0.913123
0.92783
0.942456
0.956909
0.97108
0.984848
0.998074
1.01061
1.0223
1.03299
1.04252
1.05071
1.05743
1.06252
1.06587
1.06735
1.0669
1.06443
1.05993
1.05339
1.04483
1.03425
1.0218
1.0076
0.991756
0.974424
0.955755
0.935911
0.915054
0.893347
0.87095
0.848016
0.824691
0.801113
0.777412
0.753707
0.730105
0.706706
0.683599
0.660862
0.638563
0.616761
0.595504
0.574833
0.554781
0.535372
0.516623
0.498547
0.481148
0.464428
0.448382
0.433003
0.418278
0.404194
0.390734
0.377878
0.365605
0.353894
0.342721
0.332062
0.321894
0.312192
0.302932
0.294091
0.285646
0.277577
0.269862
0.262482
0.255421
0.248662
0.242191
0.235996
0.230066
0.224392
0.218966
0.213781
0.208834
0.20412
0.199636
0.19538
0.191351
0.187546
0.183964
0.180604
0.177464
0.174542
0.171834
0.169336
0.167041
0.164943
0.163033
0.161302
0.159741
0.158341
0.157089
0.155978
0.154994
0.154129
0.153372
0.152712
0.15214
0.151647
0.151224
0.150863
0.150556
0.150296
0.150078
0.149895
0.149742
0.149615
0.14951
0.149424
0.149353
0.149296
0.14925
0.149216
0.149192
0.149181
0.149186
0.149214
0.149278
0.149399
0.149603
0.149922
0.899591
0.380272
0.296259
0.269701
0.259764
0.256883
0.257803
0.261146
0.266227
0.272655
0.280182
0.288634
0.297888
0.307853
0.318461
0.329658
0.341405
0.353666
0.366409
0.379603
0.393216
0.407215
0.421563
0.436223
0.451154
0.466315
0.481664
0.49716
0.51276
0.528426
0.544121
0.559812
0.575468
0.591065
0.606581
0.622003
0.637318
0.652524
0.66762
0.682612
0.69751
0.712331
0.727092
0.741817
0.756529
0.771257
0.786026
0.800865
0.815796
0.830844
0.846015
0.861312
0.876728
0.892251
0.907854
0.923501
0.939138
0.9547
0.970102
0.985246
1.00002
1.01428
1.0279
1.04071
1.05255
1.06328
1.07272
1.08072
1.08712
1.0918
1.09463
1.09551
1.09437
1.09115
1.08582
1.07843
1.06901
1.05762
1.04436
1.02934
1.0127
0.994583
0.975135
0.954519
0.932898
0.910434
0.887287
0.863609
0.83955
0.815246
0.79083
0.76642
0.742126
0.718048
0.694276
0.670888
0.647952
0.625529
0.603668
0.582411
0.561791
0.541834
0.522558
0.503976
0.486095
0.468917
0.452438
0.436652
0.421547
0.407111
0.393326
0.380174
0.367633
0.355682
0.344297
0.333453
0.323127
0.313292
0.303923
0.294997
0.286489
0.278375
0.270635
0.263247
0.256193
0.249453
0.243014
0.236859
0.230978
0.225358
0.219991
0.214869
0.209986
0.205336
0.200916
0.196722
0.192752
0.189004
0.185474
0.182162
0.179065
0.176181
0.173505
0.171034
0.168762
0.166682
0.164787
0.163067
0.161514
0.160119
0.158871
0.157761
0.156777
0.15591
0.15515
0.154487
0.15391
0.153412
0.152982
0.152615
0.152301
0.152034
0.151808
0.151617
0.151456
0.151321
0.151207
0.151111
0.151031
0.150963
0.150907
0.150861
0.150824
0.150799
0.150786
0.150792
0.150826
0.150903
0.151041
0.151267
0.873938
0.369658
0.286315
0.259548
0.249454
0.246516
0.247418
0.250731
0.255738
0.262041
0.269393
0.277633
0.286651
0.296371
0.306739
0.317717
0.329275
0.34139
0.35404
0.367201
0.38085
0.394959
0.409497
0.42443
0.439721
0.455331
0.47122
0.487344
0.503663
0.520135
0.536722
0.553385
0.570092
0.586813
0.603521
0.620197
0.636823
0.65339
0.669892
0.686327
0.702702
0.719024
0.735307
0.751567
0.767824
0.784098
0.800412
0.816784
0.833234
0.849775
0.866398
0.883095
0.89985
0.91664
0.933427
0.950162
0.966781
0.983207
0.999345
1.01509
1.03031
1.04489
1.05865
1.07144
1.08311
1.0935
1.10247
1.10986
1.11554
1.1194
1.1213
1.12118
1.119
1.11473
1.10838
1.09997
1.08955
1.07721
1.06304
1.04716
1.0297
1.01081
0.990632
0.969326
0.94705
0.923964
0.900221
0.875974
0.851365
0.82653
0.801598
0.776685
0.751899
0.727339
0.703091
0.679235
0.655839
0.632961
0.610652
0.588954
0.5679
0.547519
0.52783
0.508846
0.490576
0.473024
0.456187
0.440061
0.424636
0.409898
0.395834
0.382424
0.369649
0.357487
0.345914
0.334907
0.324439
0.314486
0.305022
0.29602
0.287457
0.279308
0.271548
0.264157
0.257114
0.250398
0.243993
0.237882
0.232052
0.226489
0.221184
0.216126
0.21131
0.206727
0.202373
0.198243
0.194335
0.190646
0.187172
0.183911
0.18086
0.178017
0.175377
0.172938
0.170692
0.168634
0.166757
0.165052
0.163511
0.162124
0.160883
0.159777
0.158795
0.157929
0.157169
0.156503
0.155924
0.155422
0.154988
0.154616
0.154297
0.154024
0.153792
0.153594
0.153426
0.153284
0.153163
0.153059
0.152971
0.152895
0.15283
0.152774
0.152727
0.152689
0.152662
0.15265
0.15266
0.152702
0.152792
0.152952
0.837161
0.356663
0.275694
0.249305
0.239274
0.236346
0.237237
0.240503
0.245414
0.251567
0.258718
0.266715
0.275463
0.284898
0.294978
0.305678
0.316981
0.328873
0.341343
0.354378
0.367961
0.382072
0.396688
0.411781
0.427319
0.443267
0.459588
0.476242
0.49319
0.510391
0.527805
0.545395
0.563125
0.580961
0.598873
0.616837
0.634831
0.652838
0.670847
0.688849
0.706842
0.724829
0.742814
0.760807
0.77882
0.796865
0.814956
0.833105
0.851319
0.869596
0.8879
0.906207
0.924482
0.942683
0.960755
0.978631
0.996231
1.01346
1.03021
1.04637
1.0618
1.07639
1.08995
1.10232
1.11335
1.12292
1.1309
1.13716
1.14161
1.14413
1.14467
1.14317
1.13962
1.134
1.12635
1.1167
1.10513
1.09172
1.07658
1.05981
1.04155
1.02195
1.00113
0.979267
0.956495
0.932969
0.908834
0.884235
0.859305
0.834175
0.808965
0.783787
0.758744
0.733931
0.709431
0.685321
0.661667
0.638528
0.615952
0.593983
0.572655
0.551996
0.532027
0.512764
0.494217
0.476392
0.459288
0.442902
0.427228
0.412254
0.397966
0.384348
0.371382
0.359046
0.347318
0.336174
0.32559
0.315539
0.305997
0.296936
0.288331
0.280157
0.27239
0.265005
0.257981
0.251297
0.244933
0.238873
0.233101
0.227601
0.222364
0.217377
0.212632
0.208122
0.20384
0.199781
0.195941
0.192316
0.188903
0.185699
0.182701
0.179905
0.177307
0.174905
0.172691
0.170661
0.168807
0.167122
0.165597
0.164223
0.162992
0.161894
0.160918
0.160056
0.159298
0.158633
0.158053
0.15755
0.157114
0.156738
0.156416
0.156139
0.155902
0.155699
0.155526
0.155378
0.15525
0.155141
0.155046
0.154963
0.15489
0.154826
0.15477
0.154722
0.154683
0.154657
0.154648
0.154664
0.154719
0.154831
0.790754
0.342068
0.265059
0.239614
0.229867
0.227023
0.227909
0.231106
0.235893
0.241867
0.248789
0.256519
0.264971
0.274098
0.283855
0.294231
0.305221
0.316825
0.329042
0.341868
0.355296
0.369318
0.383916
0.399072
0.414761
0.430957
0.447626
0.464735
0.482248
0.500128
0.518336
0.536835
0.555589
0.574561
0.593721
0.613038
0.632485
0.652039
0.671683
0.691399
0.711178
0.731013
0.7509
0.770838
0.790829
0.810877
0.830984
0.851152
0.87138
0.891614
0.911799
0.931882
0.951803
0.97149
0.990865
1.00984
1.0283
1.04614
1.06324
1.07948
1.0947
1.10878
1.12158
1.13295
1.14278
1.15094
1.15734
1.1619
1.16455
1.16524
1.16393
1.16061
1.15528
1.14799
1.13877
1.12767
1.1148
1.10022
1.08405
1.06641
1.04742
1.0272
1.00589
0.983637
0.960568
0.936823
0.912535
0.887833
0.862841
0.837678
0.812454
0.787273
0.76223
0.737415
0.712905
0.688773
0.665084
0.641893
0.619248
0.597193
0.575763
0.554986
0.534885
0.515478
0.496777
0.478791
0.461521
0.444967
0.429125
0.413986
0.399538
0.385769
0.37266
0.360193
0.348347
0.3371
0.326427
0.316304
0.306704
0.297603
0.288973
0.280789
0.273026
0.265659
0.258665
0.252023
0.24571
0.23971
0.234003
0.228576
0.223414
0.218506
0.213842
0.209412
0.205209
0.201228
0.197464
0.193911
0.190567
0.187427
0.184488
0.181747
0.179199
0.17684
0.174666
0.172669
0.170845
0.169185
0.167682
0.166327
0.16511
0.164024
0.163058
0.162203
0.16145
0.160789
0.160212
0.159709
0.159273
0.158896
0.158571
0.158292
0.158052
0.157845
0.157668
0.157515
0.157383
0.157268
0.157168
0.157079
0.157
0.15693
0.156866
0.15681
0.156762
0.156724
0.1567
0.156698
0.156725
0.156803
0.738453
0.3279
0.255309
0.231132
0.221846
0.219164
0.22007
0.223199
0.227851
0.233632
0.240315
0.247763
0.2559
0.264682
0.27409
0.284118
0.294772
0.306061
0.317994
0.330578
0.34382
0.357717
0.372266
0.387457
0.403276
0.419703
0.436714
0.454283
0.472378
0.490968
0.510016
0.529488
0.549347
0.569556
0.59008
0.610885
0.631939
0.653211
0.674674
0.696304
0.718078
0.73998
0.761994
0.784107
0.806308
0.828588
0.850937
0.873341
0.895782
0.918133
0.94031
0.962223
0.983777
1.00487
1.02539
1.04522
1.06423
1.0823
1.09928
1.11504
1.12946
1.1424
1.15376
1.16342
1.17129
1.17732
1.18143
1.18361
1.18382
1.18208
1.17839
1.17278
1.1653
1.156
1.14495
1.13223
1.11793
1.10214
1.08495
1.06649
1.04686
1.02617
1.00455
0.982109
0.95897
0.93525
0.911064
0.886526
0.861744
0.83682
0.811855
0.786939
0.76216
0.737597
0.713323
0.689407
0.665907
0.642878
0.620368
0.598417
0.577062
0.556331
0.536251
0.516841
0.498116
0.480085
0.462756
0.44613
0.430206
0.414978
0.40044
0.386578
0.373381
0.360829
0.348906
0.337591
0.32686
0.31669
0.307057
0.297935
0.289298
0.281119
0.273375
0.266039
0.259087
0.252496
0.246245
0.240314
0.234683
0.229337
0.22426
0.219439
0.214863
0.210523
0.206409
0.202514
0.198834
0.195362
0.192094
0.189027
0.186156
0.183477
0.180986
0.178679
0.176551
0.174596
0.172808
0.171179
0.169703
0.168372
0.167175
0.166106
0.165153
0.16431
0.163565
0.162911
0.162338
0.161839
0.161405
0.161029
0.160704
0.160424
0.160182
0.159973
0.159793
0.159637
0.159501
0.159382
0.159277
0.159184
0.1591
0.159024
0.158955
0.158892
0.158837
0.15879
0.158755
0.158738
0.158746
0.158798
0.684811
0.315694
0.247369
0.22449
0.215726
0.213247
0.214191
0.217256
0.221772
0.227364
0.233815
0.240998
0.248844
0.257322
0.26642
0.276146
0.286513
0.297542
0.309252
0.321664
0.334792
0.348649
0.36324
0.378569
0.39463
0.411413
0.428906
0.447086
0.465932
0.485414
0.505501
0.526158
0.547349
0.569036
0.591178
0.613735
0.636668
0.659937
0.683503
0.70733
0.731382
0.755628
0.780036
0.804579
0.82923
0.853964
0.878756
0.903581
0.928333
0.952823
0.976929
1.00052
1.02347
1.04563
1.06686
1.08702
1.10596
1.12354
1.13962
1.15408
1.1668
1.17769
1.18668
1.1937
1.19872
1.20173
1.20274
1.20177
1.19887
1.19409
1.1875
1.17916
1.16917
1.15761
1.14455
1.13009
1.11431
1.09731
1.07917
1.06
1.03987
1.01889
0.997156
0.974754
0.951784
0.92834
0.904516
0.880404
0.856094
0.831674
0.807226
0.782831
0.758564
0.734496
0.710693
0.687216
0.664121
0.641458
0.619275
0.597611
0.576502
0.555979
0.536069
0.516794
0.49817
0.480212
0.46293
0.446328
0.430409
0.415172
0.400611
0.38672
0.373487
0.3609
0.348941
0.337594
0.326837
0.316648
0.307005
0.297883
0.289256
0.2811
0.273388
0.266095
0.259197
0.252669
0.24649
0.240637
0.235092
0.229836
0.224853
0.220129
0.215651
0.211408
0.207391
0.203593
0.200005
0.196622
0.19344
0.190454
0.187658
0.18505
0.182625
0.180377
0.178302
0.176396
0.174651
0.17306
0.171618
0.170315
0.169144
0.168095
0.167161
0.166332
0.1656
0.164955
0.164391
0.163897
0.163467
0.163094
0.16277
0.16249
0.162248
0.162038
0.161856
0.161698
0.16156
0.161438
0.161329
0.161233
0.161145
0.161065
0.160991
0.160923
0.160862
0.160809
0.160766
0.160738
0.160733
0.160767
0.623406
0.302968
0.240484
0.219433
0.21146
0.209348
0.210438
0.213521
0.217975
0.223452
0.229755
0.236772
0.244445
0.252755
0.261701
0.271301
0.281578
0.292565
0.304292
0.316791
0.330088
0.344207
0.359166
0.374979
0.391651
0.409182
0.427566
0.44679
0.466835
0.487676
0.509283
0.53162
0.554647
0.57832
0.602591
0.62741
0.652724
0.67848
0.704623
0.731097
0.757851
0.78483
0.811986
0.83927
0.866635
0.894037
0.921429
0.948756
0.975677
1.00203
1.02765
1.05236
1.07601
1.09842
1.11941
1.13885
1.15657
1.17244
1.18634
1.19819
1.2079
1.21545
1.2208
1.22397
1.22501
1.22397
1.22093
1.21599
1.20926
1.20085
1.19087
1.17944
1.16666
1.15263
1.13745
1.1212
1.10398
1.08584
1.06687
1.04713
1.0267
1.00563
0.983994
0.961861
0.939297
0.916373
0.893156
0.869717
0.846126
0.822451
0.79876
0.775119
0.751592
0.728239
0.705119
0.682287
0.659793
0.637686
0.61601
0.594802
0.574101
0.553937
0.534338
0.515329
0.496929
0.479156
0.462023
0.445539
0.42971
0.414539
0.400026
0.386165
0.372952
0.360375
0.348422
0.337079
0.326327
0.316147
0.306518
0.297417
0.28882
0.280701
0.273036
0.2658
0.258968
0.252514
0.246417
0.240654
0.235204
0.230048
0.225169
0.220552
0.216182
0.212047
0.208137
0.204444
0.200959
0.197676
0.194588
0.191692
0.188982
0.186453
0.184101
0.181921
0.179908
0.178057
0.176361
0.174816
0.173412
0.172144
0.171002
0.16998
0.169067
0.168257
0.16754
0.166908
0.166353
0.165867
0.165443
0.165074
0.164753
0.164474