/*--------------------------------*- C++ -*----------------------------------*\
  =========                 |
  \\      /  F ield         | OpenFOAM: The Open Source CFD Toolbox
   \\    /   O peration     | Website:  https://openfoam.org
    \\  /    A nd           | Version:  6
     \\/     M anipulation  |
\*---------------------------------------------------------------------------*/
FoamFile
{
    version     2.0;
    format      ascii;
    class       volScalarField;
    location    "0.2";
    object      k;
}
// * * * * * * * * * * * * * * * * * * * * * * * * * * * * * * * * * * * * * //

dimensions      [0 2 -2 0 0 0 0];

internalField   nonuniform List<scalar> 
12225
(
0.24644
0.158838
0.119006
0.0971981
0.0837145
0.0747271
0.0683414
0.0635289
0.0597217
0.0565987
0.0539689
0.0517113
0.0497449
0.0480122
0.0464707
0.045089
0.043842
0.042779
0.339526
0.260132
0.208255
0.175288
0.153263
0.137672
0.125995
0.116825
0.109365
0.103142
0.097855
0.0932956
0.089317
0.0858106
0.0826956
0.079904
0.0774154
0.07516
0.347498
0.292336
0.24851
0.216195
0.192228
0.174047
0.159849
0.14844
0.139043
0.131149
0.124411
0.118585
0.113492
0.108998
0.105003
0.101425
0.0982206
0.0953635
0.35137
0.309033
0.271886
0.241925
0.218144
0.199187
0.183863
0.171263
0.160729
0.151791
0.144111
0.137437
0.131584
0.126406
0.121795
0.117662
0.113954
0.110663
0.353917
0.319265
0.2872
0.259824
0.237043
0.218188
0.202506
0.189337
0.178158
0.168567
0.160257
0.152993
0.14659
0.140907
0.135831
0.131275
0.12718
0.123549
0.355677
0.326031
0.29787
0.272919
0.251434
0.233127
0.217537
0.204201
0.192716
0.182752
0.174044
0.166378
0.159586
0.153532
0.148106
0.143223
0.138828
0.134926
0.356917
0.33071
0.305572
0.282767
0.262638
0.245096
0.229865
0.216626
0.205075
0.194947
0.186019
0.178106
0.171054
0.164739
0.159057
0.15393
0.149305
0.14519
0.357802
0.334027
0.311241
0.29028
0.271456
0.254764
0.240044
0.227074
0.215626
0.205491
0.196483
0.188445
0.181241
0.174759
0.168905
0.163605
0.158812
0.154538
0.358433
0.336404
0.315446
0.296042
0.278415
0.262584
0.248449
0.235853
0.224625
0.214598
0.20562
0.197557
0.19029
0.183721
0.177765
0.172356
0.167452
0.163064
0.358881
0.338106
0.31856
0.300448
0.283886
0.268879
0.255353
0.243191
0.232258
0.222422
0.213555
0.205545
0.19829
0.191701
0.185705
0.180241
0.175275
0.170818
0.359195
0.339315
0.320847
0.303788
0.288148
0.2739
0.260971
0.249265
0.238671
0.22908
0.220384
0.212487
0.205301
0.198749
0.192764
0.187294
0.182309
0.17782
0.359394
0.340091
0.322364
0.306074
0.291148
0.277518
0.265104
0.253813
0.243547
0.234209
0.225706
0.217953
0.210871
0.204391
0.198455
0.193015
0.188047
0.183561
0.359535
0.340651
0.323487
0.307814
0.293487
0.2804
0.268456
0.25756
0.247619
0.238543
0.23025
0.222661
0.215706
0.209325
0.203462
0.198077
0.193148
0.188685
0.359643
0.341084
0.324385
0.309247
0.295469
0.282903
0.27143
0.260945
0.251357
0.242578
0.234531
0.227145
0.220356
0.214109
0.208354
0.203056
0.198193
0.193779
0.359719
0.341392
0.325041
0.31033
0.297014
0.28491
0.273875
0.263791
0.25456
0.246093
0.238316
0.231161
0.224568
0.218485
0.21287
0.207687
0.20292
0.198579
0.359767
0.341588
0.325471
0.311064
0.298098
0.286362
0.275695
0.265963
0.257058
0.248889
0.241379
0.23446
0.228074
0.222173
0.216714
0.211667
0.207015
0.202766
0.359793
0.341696
0.325715
0.311494
0.298752
0.287269
0.276865
0.267397
0.258748
0.250822
0.243536
0.236823
0.230623
0.224889
0.219579
0.214664
0.210126
0.205972
0.359804
0.341741
0.325817
0.311679
0.299043
0.287683
0.277414
0.268088
0.259581
0.251794
0.244641
0.238054
0.231971
0.226344
0.221132
0.216305
0.211846
0.207758
0.359801
0.341729
0.32579
0.311631
0.29897
0.28758
0.27728
0.267922
0.259386
0.25157
0.244392
0.237781
0.231679
0.226034
0.220807
0.215967
0.211497
0.2074
0.359775
0.341622
0.325547
0.3112
0.298307
0.286657
0.27608
0.266441
0.257628
0.249549
0.242125
0.235287
0.228978
0.223147
0.217754
0.212767
0.208167
0.203958
0.359715
0.341376
0.32501
0.310283
0.296954
0.284842
0.273804
0.263721
0.254496
0.246039
0.238275
0.231136
0.224563
0.218501
0.212908
0.207748
0.203
0.19867
0.359586
0.340852
0.323905
0.308483
0.294416
0.281578
0.269862
0.259168
0.249403
0.24048
0.232318
0.224844
0.217989
0.211694
0.205907
0.200589
0.195713
0.191283
0.359329
0.339835
0.321861
0.305316
0.290154
0.276321
0.263739
0.252317
0.241952
0.232544
0.223994
0.216214
0.209123
0.202647
0.196726
0.191308
0.186363
0.181892
0.35886
0.338009
0.318374
0.30018
0.28355
0.268492
0.254931
0.242749
0.23181
0.221978
0.213127
0.20514
0.197914
0.191362
0.185406
0.179987
0.175063
0.170635
0.358051
0.334911
0.312756
0.292315
0.273874
0.257448
0.242904
0.230045
0.218665
0.208568
0.19958
0.19155
0.18435
0.177869
0.172018
0.166722
0.161933
0.157648
0.356707
0.329803
0.303977
0.280638
0.260137
0.242358
0.226995
0.213699
0.202143
0.192047
0.183175
0.175335
0.16837
0.162149
0.156568
0.151544
0.14702
0.142989
0.354518
0.321336
0.290244
0.263373
0.240786
0.22195
0.206199
0.192926
0.181635
0.171937
0.16353
0.156183
0.149713
0.143975
0.138859
0.134273
0.130157
0.1265
0.350901
0.3066
0.26792
0.237106
0.212944
0.193893
0.178635
0.166184
0.155839
0.147105
0.139633
0.133164
0.127509
0.122524
0.118097
0.114143
0.1106
0.107452
0.342446
0.275934
0.227262
0.193528
0.16982
0.152601
0.139575
0.12933
0.121011
0.114091
0.108227
0.103184
0.0987961
0.0949405
0.0915251
0.0884792
0.0857502
0.0833164
0.259302
0.173114
0.131362
0.107433
0.0921497
0.0817516
0.0743212
0.0687596
0.0644184
0.0609091
0.0579928
0.0555169
0.0533799
0.0515118
0.0498624
0.0483942
0.0470789
0.0458988
0.00123756
0.0021634
0.00251328
0.00261252
0.00279543
0.00302041
0.00328753
0.00360866
0.00400079
0.00438873
0.00479796
0.00523245
0.00569112
0.00617013
0.00666435
0.00716848
0.00767765
0.00818764
0.00869497
0.00919688
0.00969122
0.0101764
0.0106513
0.0111153
0.0115679
0.0120091
0.0124391
0.0128581
0.0132668
0.0136657
0.0140554
0.0144366
0.0148101
0.0151764
0.0155364
0.0158905
0.0162394
0.0165836
0.0169235
0.0172598
0.0175927
0.0179227
0.0182503
0.018576
0.0189005
0.0192247
0.0195498
0.0198775
0.0202103
0.0205517
0.0208893
0.0212222
0.0215501
0.0218725
0.0221884
0.0224968
0.0227965
0.023086
0.023364
0.0236289
0.023879
0.0241127
0.0243283
0.0245239
0.024698
0.0248486
0.0249744
0.0250736
0.0251449
0.0251871
0.025199
0.0251799
0.025129
0.0250461
0.0249311
0.0247841
0.0246055
0.0243961
0.0241569
0.023889
0.0235939
0.0232733
0.0229289
0.0225627
0.022177
0.0217747
0.0213604
0.020944
0.0205489
0.0202141
0.019936
0.0196653
0.019392
0.0191151
0.018835
0.0185528
0.0182695
0.0179861
0.0177035
0.0174225
0.0171438
0.0168682
0.0165961
0.0163281
0.0160643
0.0158051
0.0155508
0.0153013
0.0150566
0.0148169
0.0145819
0.0143514
0.0141254
0.0139035
0.0136855
0.013471
0.0132598
0.0130516
0.0128461
0.0126429
0.0124419
0.0122428
0.0120453
0.0118495
0.0116552
0.0114623
0.011271
0.0110814
0.0108937
0.010708
0.0105248
0.0103444
0.0101671
0.00999316
0.00982275
0.00965596
0.00949316
0.00933598
0.00918808
0.00904995
0.00892111
0.0088013
0.00869028
0.00858782
0.00849367
0.00840755
0.00832916
0.00825815
0.00819417
0.0081368
0.00808564
0.00804025
0.00800017
0.00796497
0.0079342
0.00790741
0.00788418
0.00786411
0.00784681
0.00783193
0.00781911
0.00780804
0.00779842
0.00778998
0.00778246
0.00777559
0.00776914
0.00776284
0.00775642
0.00774957
0.0077419
0.00773295
0.00772206
0.0077083
0.00769025
0.00766557
0.00763031
0.0075765
0.0074915
0.00734728
0.00246779
0.0048818
0.00624772
0.00723445
0.00796109
0.00867369
0.00943786
0.010221
0.0109707
0.0116664
0.0123213
0.0129542
0.0135802
0.0142098
0.0148498
0.0155044
0.0161757
0.0168644
0.0175694
0.018289
0.0190202
0.0197598
0.0205042
0.02125
0.0219938
0.022733
0.0234651
0.0241884
0.0249019
0.0256049
0.0262972
0.0269791
0.027651
0.0283138
0.0289683
0.0296156
0.0302568
0.030893
0.0315251
0.0321543
0.0327813
0.0334071
0.0340323
0.0346575
0.0352832
0.0359096
0.036537
0.0371651
0.0377938
0.0384201
0.0390462
0.0396732
0.0403008
0.0409278
0.0415529
0.0421742
0.0427899
0.0433975
0.0439945
0.0445779
0.0451448
0.0456918
0.0462152
0.0467115
0.0471768
0.0476073
0.0479991
0.0483485
0.0486518
0.0489057
0.049107
0.049253
0.0493414
0.0493702
0.0493383
0.0492447
0.0490894
0.0488727
0.0485955
0.0482594
0.0478665
0.0474191
0.0469205
0.046374
0.0457836
0.0451539
0.0444899
0.043798
0.0430857
0.0423783
0.041668
0.0409487
0.0402206
0.0394859
0.0387473
0.0380073
0.0372685
0.0365331
0.0358032
0.0350805
0.0343666
0.0336628
0.0329703
0.0322899
0.0316224
0.0309682
0.0303277
0.0297011
0.0290884
0.0284894
0.0279041
0.027332
0.0267728
0.026226
0.0256911
0.0251676
0.0246549
0.0241524
0.0236597
0.0231762
0.0227015
0.0222352
0.021777
0.0213267
0.0208842
0.0204495
0.0200227
0.019604
0.0191938
0.0187925
0.0184006
0.0180187
0.0176475
0.0172875
0.0169396
0.0166042
0.0162822
0.0159739
0.0156792
0.0154013
0.0151434
0.0149051
0.0146855
0.0144839
0.0142996
0.0141319
0.01398
0.013843
0.0137203
0.0136108
0.0135138
0.0134281
0.0133531
0.0132876
0.0132308
0.0131818
0.0131397
0.0131037
0.0130731
0.0130471
0.013025
0.0130062
0.0129902
0.0129764
0.0129644
0.0129537
0.0129438
0.0129345
0.0129252
0.0129155
0.0129051
0.0128932
0.0128793
0.0128622
0.0128405
0.0128122
0.0127729
0.0127197
0.0126314
0.0125988
0.00391532
0.00784634
0.00965585
0.0107724
0.0116513
0.0124715
0.0132935
0.0141096
0.0148978
0.0156534
0.0163907
0.0171297
0.0178876
0.0186762
0.0195015
0.0203646
0.0212634
0.0221929
0.0231465
0.0241168
0.0250963
0.0260775
0.0270541
0.0280204
0.0289721
0.0299057
0.0308191
0.031711
0.0325809
0.033429
0.034256
0.0350631
0.0358515
0.0366229
0.0373791
0.0381217
0.0388526
0.0395737
0.0402866
0.0409932
0.041695
0.0423937
0.0430908
0.0437875
0.0444852
0.0451848
0.0458873
0.0465933
0.0473034
0.0480182
0.0487374
0.0494608
0.0501875
0.0509165
0.0516463
0.0523751
0.0531007
0.0538206
0.0545318
0.055231
0.0559145
0.0565782
0.0572178
0.0578286
0.0584058
0.0589444
0.0594394
0.0598859
0.0602789
0.0606138
0.0608863
0.0610926
0.0612293
0.0612937
0.0612836
0.0611976
0.0610352
0.0607964
0.060482
0.0600938
0.0596339
0.0591054
0.0585118
0.0578572
0.0571464
0.0563844
0.0555766
0.0547286
0.0538609
0.05298
0.0520838
0.0511732
0.0502507
0.0493195
0.0483832
0.0474452
0.0465088
0.0455768
0.0446519
0.0437365
0.0428325
0.0419417
0.0410656
0.0402052
0.0393617
0.0385356
0.0377274
0.0369374
0.0361656
0.035412
0.0346764
0.0339583
0.0332573
0.0325729
0.0319044
0.0312511
0.0306125
0.0299877
0.0293761
0.028777
0.0281899
0.0276143
0.0270496
0.0264956
0.0259521
0.0254189
0.0248962
0.024384
0.0238827
0.0233926
0.0229144
0.0224485
0.0219958
0.021557
0.0211327
0.0207239
0.0203313
0.0199555
0.0195971
0.0192569
0.0189362
0.0186376
0.0183608
0.0181055
0.0178712
0.0176571
0.0174627
0.017287
0.0171291
0.016988
0.0168626
0.0167519
0.0166546
0.0165697
0.0164959
0.0164321
0.0163773
0.0163305
0.0162905
0.0162566
0.0162278
0.0162033
0.0161824
0.0161645
0.0161489
0.0161351
0.0161225
0.0161107
0.0160991
0.0160872
0.0160746
0.0160605
0.0160442
0.0160247
0.0160004
0.0159693
0.0159276
0.0158711
0.015785
0.0156963
0.00512095
0.0102127
0.012329
0.0136087
0.014548
0.0153587
0.0161355
0.0169101
0.0176898
0.0184817
0.0192972
0.0201487
0.021045
0.0219898
0.0229818
0.0240162
0.0250855
0.0261809
0.0272933
0.0284139
0.0295345
0.0306481
0.0317486
0.0328315
0.0338931
0.0349309
0.0359435
0.03693
0.0378903
0.0388249
0.0397347
0.0406208
0.0414847
0.042328
0.0431524
0.0439599
0.0447523
0.0455316
0.0462997
0.0470587
0.0478105
0.0485569
0.0492998
0.050041
0.0507819
0.051524
0.0522685
0.0530166
0.053769
0.0545273
0.0552916
0.0560618
0.0568375
0.0576177
0.0584012
0.0591865
0.0599714
0.0607534
0.0615294
0.0622958
0.0630487
0.0637835
0.0644953
0.0651788
0.0658285
0.0664386
0.0670032
0.0675164
0.0679723
0.0683655
0.0686905
0.0689427
0.0691178
0.0692124
0.0692237
0.0691497
0.0689894
0.0687425
0.0684098
0.0679929
0.067494
0.0669165
0.066264
0.0655412
0.064753
0.0639047
0.0630016
0.0620603
0.0610909
0.0600961
0.059079
0.058043
0.0569922
0.0559309
0.0548632
0.0537933
0.0527248
0.0516613
0.0506059
0.0495612
0.0485297
0.0475134
0.0465142
0.0455333
0.0445719
0.043631
0.042711
0.0418124
0.0409353
0.0400797
0.0392453
0.0384317
0.0376385
0.0368651
0.0361107
0.0353747
0.0346561
0.0339543
0.0332685
0.0325978
0.0319415
0.0312991
0.0306699
0.0300535
0.0294496
0.028858
0.0282785
0.0277114
0.0271567
0.0266148
0.0260863
0.0255717
0.0250716
0.0245869
0.0241182
0.0236665
0.0232325
0.0228169
0.0224206
0.0220441
0.0216882
0.0213544
0.0210438
0.0207562
0.0204912
0.0202484
0.020027
0.0198263
0.0196453
0.019483
0.0193384
0.0192102
0.0190972
0.0189981
0.0189118
0.0188369
0.0187724
0.0187169
0.0186694
0.0186288
0.0185943
0.0185648
0.0185396
0.0185179
0.018499
0.0184823
0.0184672
0.0184531
0.0184394
0.0184258
0.0184115
0.018396
0.0183785
0.0183581
0.0183335
0.018303
0.0182638
0.0182127
0.0181418
0.0180633
0.00599391
0.0117531
0.014202
0.0156592
0.0166791
0.0175074
0.0182719
0.0190355
0.0198281
0.0206651
0.0215552
0.022503
0.0235086
0.0245684
0.0256759
0.0268224
0.0279987
0.0291952
0.0304031
0.0316141
0.0328212
0.0340182
0.0352003
0.0363634
0.0375046
0.0386215
0.0397127
0.0407773
0.041815
0.0428259
0.0438103
0.0447692
0.0457035
0.0466145
0.0475037
0.0483727
0.0492232
0.0500571
0.0508763
0.0516828
0.0524786
0.0532657
0.0540462
0.054822
0.055595
0.0563669
0.0571394
0.0579139
0.0586917
0.0594746
0.0602639
0.0610598
0.0618623
0.062671
0.0634852
0.0643033
0.0651236
0.0659436
0.0667603
0.0675701
0.0683687
0.0691515
0.069913
0.0706477
0.0713493
0.0720115
0.0726276
0.0731909
0.0736949
0.0741332
0.0744998
0.074789
0.0749961
0.0751167
0.0751477
0.0750865
0.0749316
0.0746827
0.0743401
0.0739054
0.073381
0.07277
0.0720765
0.0713052
0.0704614
0.0695499
0.0685868
0.0675802
0.0665361
0.0654594
0.0643551
0.0632283
0.062084
0.0609272
0.0597626
0.0585949
0.0574284
0.0562668
0.0551136
0.0539721
0.0528448
0.0517341
0.0506421
0.0495704
0.0485203
0.0474929
0.0464889
0.0455088
0.0445528
0.0436209
0.042713
0.0418287
0.0409676
0.0401289
0.039312
0.038516
0.0377402
0.0369835
0.0362452
0.0355243
0.03482
0.0341316
0.0334584
0.0327998
0.0321554
0.0315248
0.0309079
0.0303047
0.0297151
0.0291396
0.0285785
0.0280322
0.0275015
0.0269871
0.0264896
0.02601
0.025549
0.0251073
0.0246858
0.0242851
0.0239059
0.0235489
0.0232156
0.022906
0.0226199
0.022357
0.0221165
0.0218979
0.0217002
0.0215224
0.0213635
0.0212221
0.0210971
0.0209872
0.020891
0.0208074
0.0207349
0.0206724
0.0206187
0.0205726
0.0205332
0.0204995
0.0204705
0.0204455
0.0204236
0.0204043
0.0203868
0.0203706
0.0203551
0.0203398
0.020324
0.0203072
0.0202887
0.0202675
0.0202426
0.0202126
0.0201753
0.0201283
0.0200676
0.0200023
0.00654073
0.0126726
0.0153661
0.016987
0.0181165
0.0190134
0.0198217
0.0206218
0.0214569
0.0223482
0.0233039
0.0243247
0.0254063
0.0265415
0.0277216
0.0289371
0.0301788
0.0314379
0.0327065
0.0339776
0.0352451
0.0365037
0.0377491
0.0389777
0.0401864
0.041373
0.0425356
0.0436729
0.044784
0.0458684
0.0469259
0.0479567
0.0489613
0.0499404
0.050895
0.0518262
0.0527355
0.0536245
0.0544949
0.0553485
0.0561874
0.0570135
0.0578291
0.0586362
0.0594369
0.0602333
0.0610274
0.061821
0.0626159
0.0634139
0.0642173
0.065027
0.0658436
0.0666671
0.0674972
0.068333
0.0691727
0.0700144
0.070855
0.0716911
0.0725184
0.073332
0.0741264
0.0748956
0.075633
0.0763318
0.0769847
0.0775846
0.0781241
0.0785963
0.0789944
0.0793123
0.0795445
0.0796862
0.0797335
0.0796837
0.0795349
0.0792863
0.0789382
0.0784921
0.0779501
0.0773157
0.0765925
0.0757861
0.074902
0.073954
0.0729489
0.0718936
0.0707946
0.0696581
0.06849
0.0672962
0.0660824
0.0648542
0.0636169
0.0623754
0.0611343
0.0598979
0.05867
0.057454
0.0562529
0.0550694
0.0539056
0.0527635
0.0516447
0.0505502
0.049481
0.0484377
0.0474207
0.0464301
0.0454658
0.0445274
0.0436145
0.0427265
0.0418625
0.0410219
0.0402037
0.0394068
0.0386305
0.0378736
0.0371353
0.0364147
0.035711
0.0350235
0.0343517
0.0336951
0.0330533
0.0324264
0.0318141
0.0312168
0.0306346
0.0300681
0.0295177
0.0289842
0.0284682
0.0279704
0.0274918
0.027033
0.0265948
0.0261779
0.0257829
0.0254103
0.0250614
0.0247366
0.0244356
0.0241583
0.023904
0.0236723
0.0234621
0.0232726
0.0231027
0.0229512
0.0228169
0.0226984
0.0225944
0.0225036
0.0224247
0.0223564
0.0222975
0.0222469
0.0222033
0.0221659
0.0221336
0.0221057
0.0220812
0.0220596
0.02204
0.022022
0.0220048
0.021988
0.0219709
0.0219529
0.0219334
0.0219115
0.0218863
0.0218564
0.0218204
0.0217764
0.0217223
0.0216666
0.00686804
0.0131281
0.0159763
0.0177322
0.0189807
0.0199774
0.0208672
0.021736
0.0226327
0.0235822
0.0245941
0.0256687
0.026801
0.0279836
0.0292079
0.0304652
0.0317472
0.0330465
0.0343562
0.0356703
0.0369836
0.0382913
0.0395895
0.0408745
0.0421434
0.0433934
0.0446223
0.0458282
0.0470096
0.0481654
0.0492946
0.0503967
0.0514717
0.0525194
0.0535404
0.0545354
0.0555052
0.0564511
0.0573746
0.0582771
0.0591607
0.0600272
0.0608787
0.0617175
0.0625457
0.0633656
0.0641796
0.0649898
0.0657983
0.066607
0.0674189
0.0682356
0.0690583
0.0698875
0.0707235
0.0715658
0.0724132
0.0732638
0.074115
0.0749634
0.075805
0.0766348
0.0774473
0.0782361
0.0789946
0.0797156
0.0803914
0.0810144
0.081577
0.0820715
0.0824907
0.0828281
0.0830775
0.0832339
0.083293
0.0832515
0.0831074
0.0828595
0.0825081
0.0820543
0.0815003
0.0808499
0.0801052
0.0792783
0.0783747
0.077402
0.0763675
0.0752781
0.0741408
0.0729622
0.071749
0.0705074
0.0692437
0.0679637
0.0666731
0.0653772
0.0640809
0.0627886
0.0615045
0.0602323
0.0589752
0.0577361
0.0565175
0.0553214
0.0541496
0.0530035
0.0518842
0.0507923
0.0497284
0.0486927
0.0476852
0.0467057
0.0457536
0.0448285
0.0439296
0.043056
0.0422068
0.041381
0.0405776
0.0397956
0.0390339
0.0382915
0.0375676
0.0368614
0.036172
0.0354991
0.0348421
0.0342008
0.033575
0.0329648
0.0323704
0.0317921
0.0312303
0.0306857
0.0301588
0.0296504
0.0291613
0.0286921
0.0282437
0.0278167
0.0274118
0.0270293
0.0266702
0.0263351
0.026024
0.0257366
0.0254726
0.0252314
0.0250121
0.0248139
0.0246358
0.0244765
0.024335
0.0242097
0.0240995
0.024003
0.0239189
0.0238459
0.0237827
0.0237282
0.0236812
0.0236406
0.0236056
0.0235751
0.0235484
0.0235247
0.0235033
0.0234836
0.023465
0.0234468
0.0234286
0.0234096
0.0233892
0.0233667
0.0233411
0.0233115
0.0232764
0.0232345
0.0231851
0.0231361
0.0070291
0.0132566
0.0161879
0.0180452
0.0194035
0.0205063
0.0214911
0.022441
0.0234057
0.0244117
0.0254706
0.0265845
0.0277501
0.0289614
0.0302114
0.0314929
0.0327992
0.0341241
0.0354617
0.0368071
0.0381555
0.0395028
0.0408451
0.0421789
0.0435008
0.0448079
0.0460975
0.0473671
0.0486148
0.0498385
0.0510367
0.0522084
0.0533525
0.0544686
0.0555564
0.0566161
0.057648
0.058653
0.0596319
0.0605862
0.0615174
0.0624273
0.0633177
0.064191
0.0650492
0.0658948
0.0667302
0.0675577
0.0683797
0.0691983
0.0700168
0.0708373
0.0716617
0.0724911
0.0733263
0.0741672
0.0750132
0.0758627
0.0767134
0.0775623
0.0784055
0.0792381
0.0800547
0.0808489
0.081614
0.0823427
0.0830271
0.0836594
0.0842317
0.0847359
0.0851647
0.0855111
0.0857686
0.0859319
0.0859965
0.0859587
0.0858163
0.0855679
0.0852139
0.084755
0.0841922
0.0835339
0.0827835
0.0819478
0.0810331
0.0800463
0.0789945
0.0778847
0.0767241
0.0755194
0.0742776
0.0730053
0.0717088
0.0703944
0.069068
0.0677349
0.0664003
0.0650689
0.0637451
0.0624327
0.0611353
0.0598558
0.0585971
0.0573613
0.0561504
0.0549661
0.0538094
0.0526814
0.0515826
0.0505135
0.049474
0.0484642
0.0474835
0.0465315
0.0456075
0.0447106
0.04384
0.0429945
0.0421731
0.0413747
0.0405983
0.0398426
0.0391069
0.03839
0.0376913
0.0370099
0.0363454
0.0356974
0.0350655
0.0344498
0.0338502
0.033267
0.0327006
0.0321514
0.03162
0.031107
0.0306133
0.0301394
0.0296861
0.0292541
0.0288439
0.0284561
0.0280913
0.0277501
0.0274328
0.027139
0.0268686
0.026621
0.0263954
0.0261911
0.026007
0.0258421
0.0256951
0.0255647
0.0254497
0.0253488
0.0252606
0.0251837
0.0251171
0.0250594
0.0250095
0.0249663
0.0249289
0.0248963
0.0248677
0.0248423
0.0248193
0.0247982
0.0247783
0.024759
0.0247397
0.0247199
0.0246988
0.0246758
0.02465
0.0246206
0.0245863
0.0245463
0.0245004
0.0244563
0.0070645
0.0131615
0.016125
0.0180521
0.0195008
0.0206996
0.0217748
0.0228032
0.0238321
0.0248883
0.0259852
0.0271271
0.0283134
0.0295403
0.0308031
0.0320964
0.0334152
0.0347544
0.0361094
0.0374761
0.0388502
0.0402279
0.0416055
0.0429795
0.0443464
0.045703
0.0470461
0.048373
0.0496809
0.0509673
0.0522303
0.0534679
0.0546786
0.0558612
0.057015
0.0581393
0.0592342
0.0602998
0.0613367
0.0623457
0.0633281
0.0642852
0.0652189
0.0661309
0.0670235
0.0678989
0.0687596
0.0696078
0.070446
0.0712766
0.0721027
0.072927
0.073752
0.0745791
0.0754097
0.0762442
0.0770822
0.0779227
0.0787638
0.0796028
0.0804361
0.081259
0.0820662
0.0828518
0.0836088
0.0843301
0.0850081
0.0856348
0.0862022
0.0867025
0.0871278
0.0874711
0.087726
0.0878871
0.0879494
0.0879095
0.0877647
0.0875131
0.0871561
0.0866956
0.0861339
0.0854757
0.0847255
0.083889
0.0829723
0.081982
0.0809249
0.0798078
0.0786379
0.0774221
0.0761672
0.07488
0.073567
0.0722344
0.0708882
0.069534
0.068177
0.0668221
0.0654737
0.064136
0.0628126
0.0615068
0.0602214
0.0589589
0.0577215
0.0565109
0.0553285
0.0541754
0.0530524
0.0519601
0.0508986
0.0498679
0.0488677
0.0478977
0.0469572
0.0460453
0.0451612
0.0443038
0.0434721
0.0426649
0.041881
0.0411193
0.0403787
0.0396582
0.0389568
0.0382737
0.0376082
0.0369599
0.0363282
0.035713
0.0351143
0.0345321
0.0339667
0.0334185
0.032888
0.0323757
0.0318823
0.0314085
0.0309549
0.0305222
0.030111
0.0297218
0.0293551
0.0290115
0.0286913
0.0283944
0.0281205
0.0278692
0.0276398
0.0274316
0.0272437
0.0270749
0.0269241
0.0267901
0.0266716
0.0265674
0.026476
0.0263963
0.0263269
0.0262667
0.0262145
0.0261692
0.0261299
0.0260955
0.0260653
0.0260385
0.0260142
0.0259919
0.025971
0.0259507
0.0259306
0.0259101
0.0258885
0.0258651
0.0258393
0.0258101
0.0257767
0.0257384
0.0256955
0.0256554
0.00700438
0.0129155
0.0158775
0.0178481
0.0193652
0.0206421
0.0217936
0.0228893
0.0239727
0.02507
0.0261955
0.027356
0.028553
0.0297856
0.0310511
0.0323463
0.0336675
0.0350112
0.0363738
0.0377519
0.0391417
0.04054
0.0419431
0.0433475
0.0447498
0.0461466
0.0475344
0.04891
0.0502703
0.0516125
0.0529338
0.054232
0.0555048
0.0567507
0.0579681
0.059156
0.0603137
0.0614408
0.0625375
0.0636041
0.0646412
0.0656499
0.0666316
0.0675878
0.0685203
0.0694313
0.0703228
0.0711971
0.0720566
0.0729035
0.0737409
0.0745717
0.0753987
0.0762239
0.0770487
0.0778739
0.0786997
0.0795253
0.0803493
0.0811693
0.081982
0.0827833
0.083568
0.0843304
0.0850642
0.0857623
0.0864177
0.0870226
0.0875694
0.0880504
0.0884577
0.0887845
0.0890247
0.0891729
0.0892242
0.089175
0.0890235
0.0887687
0.0884111
0.0879523
0.0873947
0.0867418
0.0859982
0.0851688
0.0842594
0.0832761
0.0822254
0.0811139
0.0799485
0.0787359
0.0774829
0.0761961
0.0748819
0.0735466
0.0721961
0.070836
0.0694716
0.0681079
0.0667495
0.0654004
0.0640646
0.0627454
0.061446
0.0601689
0.0589164
0.0576906
0.0564931
0.055325
0.0541875
0.0530812
0.0520064
0.0509633
0.0499518
0.0489715
0.0480219
0.0471023
0.0462117
0.0453492
0.0445137
0.0437041
0.042919
0.0421574
0.0414179
0.0406996
0.0400014
0.0393223
0.0386615
0.0380183
0.0373922
0.0367829
0.0361903
0.0356142
0.0350548
0.0345124
0.0339874
0.0334802
0.0329916
0.032522
0.0320722
0.0316428
0.0312343
0.0308472
0.0304819
0.0301392
0.0298192
0.0295219
0.0292472
0.0289947
0.0287637
0.0285537
0.0283638
0.0281928
0.0280398
0.0279036
0.0277828
0.0276763
0.0275828
0.027501
0.0274296
0.0273675
0.0273136
0.0272667
0.0272258
0.0271901
0.0271586
0.0271306
0.0271053
0.0270821
0.0270602
0.0270393
0.0270185
0.0269975
0.0269755
0.026952
0.0269263
0.0268975
0.0268651
0.0268285
0.0267883
0.0267516
0.00686993
0.012568
0.0155079
0.017503
0.0190684
0.0204044
0.0216153
0.0227639
0.0238898
0.0250178
0.0261629
0.0273332
0.0285328
0.0297627
0.0310224
0.0323105
0.033625
0.0349636
0.0363237
0.0377027
0.0390977
0.0405054
0.0419229
0.0433466
0.0447731
0.0461991
0.0476209
0.0490351
0.0504383
0.0518274
0.0531992
0.054551
0.0558801
0.0571845
0.058462
0.0597111
0.0609305
0.0621194
0.0632771
0.0644036
0.065499
0.0665637
0.0675986
0.0686048
0.0695836
0.0705367
0.071466
0.0723732
0.0732606
0.0741301
0.0749843
0.0758265
0.0766593
0.0774848
0.0783046
0.0791198
0.0799306
0.0807369
0.0815373
0.0823299
0.0831119
0.0838798
0.0846287
0.0853533
0.0860477
0.0867058
0.087321
0.0878865
0.0883955
0.0888412
0.0892145
0.0895098
0.0897219
0.0898458
0.0898775
0.0898137
0.0896524
0.0893925
0.0890344
0.088579
0.0880285
0.087386
0.0866553
0.0858409
0.0849481
0.0839823
0.0829497
0.0818564
0.0807088
0.0795133
0.0782766
0.0770048
0.0757043
0.0743812
0.0730411
0.0716898
0.0703324
0.068974
0.0676191
0.0662719
0.0649365
0.0636163
0.0623145
0.0610341
0.0597774
0.0585467
0.0573437
0.05617
0.0550267
0.0539147
0.0528346
0.0517867
0.050771
0.0497873
0.0488352
0.0479141
0.0470232
0.0461614
0.0453279
0.0445213
0.0437404
0.0429841
0.042251
0.04154
0.0408499
0.0401796
0.0395282
0.038895
0.0382792
0.0376804
0.0370982
0.0365326
0.0359836
0.0354512
0.0349359
0.0344379
0.0339579
0.0334964
0.033054
0.0326313
0.0322287
0.031847
0.0314862
0.0311472
0.0308301
0.0305351
0.030262
0.0300105
0.0297801
0.0295702
0.0293799
0.0292084
0.0290546
0.0289174
0.0287955
0.0286878
0.028593
0.0285099
0.0284373
0.0283739
0.0283188
0.0282707
0.0282287
0.028192
0.0281595
0.0281306
0.0281046
0.0280806
0.0280582
0.0280367
0.0280155
0.0279941
0.027972
0.0279485
0.027923
0.0278949
0.0278636
0.0278287
0.0277912
0.0277574
0.00667507
0.0121524
0.0150601
0.0170673
0.0186662
0.020045
0.0212998
0.0224875
0.0236441
0.024793
0.0259491
0.0271218
0.0283167
0.0295366
0.0307829
0.0320557
0.0333544
0.0346782
0.0360256
0.0373946
0.038783
0.0401884
0.0416079
0.0430385
0.044477
0.04592
0.0473639
0.0488054
0.0502408
0.0516668
0.0530802
0.0544776
0.0558563
0.0572135
0.0585468
0.0598541
0.0611336
0.0623838
0.0636036
0.0647922
0.065949
0.0670741
0.0681675
0.0692297
0.0702616
0.0712641
0.0722386
0.0731864
0.0741091
0.0750083
0.0758863
0.0767458
0.0775893
0.0784187
0.0792355
0.0800407
0.0808348
0.0816176
0.0823881
0.0831449
0.0838859
0.0846083
0.0853079
0.0859787
0.0866166
0.0872166
0.087773
0.0882802
0.0887321
0.0891227
0.0894458
0.0896959
0.0898681
0.0899582
0.0899624
0.0898779
0.0897026
0.0894355
0.0890763
0.0886258
0.0880856
0.0874582
0.0867468
0.0859553
0.0850881
0.0841501
0.0831468
0.0820838
0.0809668
0.079802
0.0785952
0.0773524
0.0760797
0.0747828
0.0734672
0.0721384
0.0708016
0.0694616
0.0681231
0.0667902
0.0654671
0.0641574
0.0628643
0.061591
0.0603401
0.0591139
0.0579145
0.0567435
0.0556025
0.0544924
0.0534141
0.052368
0.0513545
0.0503735
0.0494247
0.0485076
0.0476215
0.0467656
0.0459388
0.04514
0.0443679
0.0436214
0.042899
0.0421996
0.0415218
0.0408646
0.0402268
0.0396075
0.039006
0.0384217
0.037854
0.0373028
0.0367678
0.0362492
0.0357471
0.0352619
0.0347941
0.0343439
0.0339122
0.0334992
0.0331057
0.0327321
0.0323787
0.032046
0.0317344
0.031444
0.0311747
0.0309262
0.0306983
0.0304903
0.0303014
0.0301308
0.0299776
0.0298406
0.0297187
0.0296107
0.0295156
0.0294319
0.0293587
0.0292947
0.0292388
0.02919
0.0291474
0.02911
0.0290769
0.0290474
0.0290208
0.0289963
0.0289735
0.0289517
0.0289303
0.0289088
0.0288867
0.0288633
0.0288383
0.028811
0.0287808
0.0287478
0.0287128
0.0286818
0.00642534
0.0116898
0.0145642
0.016579
0.0182025
0.019613
0.0209
0.0221157
0.0232933
0.0244546
0.0256145
0.0267831
0.0279672
0.0291717
0.0303978
0.0316475
0.0329218
0.0342212
0.0355452
0.036893
0.0382631
0.0396538
0.0410628
0.0424876
0.0439253
0.0453727
0.0468267
0.0482838
0.0497406
0.0511935
0.0526392
0.0540743
0.0554957
0.0569002
0.058285
0.0596475
0.0609854
0.0622966
0.0635794
0.0648322
0.0660539
0.0672436
0.0684007
0.069525
0.0706166
0.0716756
0.0727027
0.0736986
0.0746643
0.0756005
0.076509
0.0773918
0.0782508
0.0790873
0.0799026
0.0806975
0.0814722
0.0822266
0.08296
0.0836713
0.0843588
0.0850201
0.0856524
0.0862521
0.0868156
0.087339
0.0878184
0.0882492
0.088627
0.0889471
0.089205
0.0893962
0.0895168
0.0895631
0.0895319
0.0894205
0.0892271
0.0889504
0.0885899
0.0881457
0.087619
0.0870115
0.0863256
0.0855644
0.0847315
0.0838311
0.0828678
0.0818463
0.0807719
0.0796499
0.0784857
0.0772848
0.0760528
0.074795
0.0735167
0.0722231
0.0709192
0.0696098
0.0682994
0.0669923
0.0656924
0.0644036
0.0631293
0.0618726
0.0606365
0.0594234
0.0582356
0.0570751
0.0559434
0.054842
0.0537718
0.0527336
0.0517278
0.0507547
0.0498141
0.0489058
0.048029
0.0471832
0.0463672
0.0455802
0.0448208
0.0440878
0.0433798
0.0426956
0.0420338
0.0413931
0.0407724
0.0401706
0.0395868
0.0390203
0.0384705
0.0379369
0.0374194
0.0369178
0.0364322
0.0359629
0.0355102
0.0350745
0.0346562
0.034256
0.0338742
0.0335113
0.0331677
0.0328437
0.0325399
0.0322562
0.0319928
0.0317494
0.0315257
0.0313212
0.0311352
0.030967
0.0308155
0.0306799
0.030559
0.0304518
0.030357
0.0302736
0.0302004
0.0301363
0.0300803
0.0300313
0.0299883
0.0299506
0.0299172
0.0298874
0.0298605
0.0298358
0.0298128
0.0297908
0.0297693
0.0297479
0.029726
0.0297031
0.0296787
0.0296523
0.0296235
0.0295923
0.0295599
0.0295315
0.00613757
0.0111837
0.0140395
0.0160668
0.0177136
0.0191509
0.0204634
0.0216999
0.0228914
0.0240588
0.0252166
0.0263751
0.0275421
0.0287229
0.0299215
0.0311409
0.0323831
0.0336497
0.0349414
0.0362583
0.0376
0.0389654
0.040353
0.0417609
0.0431868
0.044628
0.0460816
0.0475446
0.0490134
0.0504849
0.0519555
0.0534217
0.0548802
0.0563276
0.0577606
0.0591763
0.0605716
0.061944
0.0632909
0.0646102
0.0658998
0.0671581
0.0683836
0.0695752
0.0707321
0.0718535
0.0729393
0.0739893
0.0750036
0.0759821
0.0769258
0.0778356
0.0787122
0.0795565
0.080369
0.08115
0.0818998
0.0826181
0.0833046
0.0839584
0.0845787
0.0851642
0.0857134
0.0862244
0.0866952
0.0871238
0.0875079
0.0878449
0.088132
0.0883664
0.0885452
0.0886651
0.0887234
0.0887171
0.0886435
0.0885003
0.0882856
0.0879979
0.0876362
0.0872003
0.0866904
0.0861073
0.0854527
0.0847287
0.083938
0.0830837
0.0821695
0.0811995
0.0801779
0.0791094
0.0779988
0.0768509
0.0756707
0.0744632
0.0732333
0.071986
0.0707258
0.0694575
0.0681855
0.066914
0.065647
0.0643884
0.0631417
0.0619101
0.0606967
0.0595043
0.0583352
0.0571918
0.0560758
0.0549888
0.0539323
0.052907
0.0519138
0.0509531
0.0500249
0.0491292
0.0482655
0.0474333
0.0466317
0.0458596
0.0451161
0.0443997
0.0437091
0.0430431
0.0424001
0.0417789
0.0411781
0.0405967
0.0400336