/*--------------------------------*- C++ -*----------------------------------*\
  =========                 |
  \\      /  F ield         | OpenFOAM: The Open Source CFD Toolbox
   \\    /   O peration     | Website:  https://openfoam.org
    \\  /    A nd           | Version:  6
     \\/     M anipulation  |
\*---------------------------------------------------------------------------*/
FoamFile
{
    version     2.0;
    format      ascii;
    class       volScalarField;
    location    "0.2";
    object      nut;
}
// * * * * * * * * * * * * * * * * * * * * * * * * * * * * * * * * * * * * * //

dimensions      [0 2 -1 0 0 0 0];

internalField   nonuniform List<scalar> 
12225
(
1.77723e-05
1.42681e-05
1.23501e-05
1.11613e-05
1.03583e-05
9.78647e-06
9.35899e-06
9.02343e-06
8.74886e-06
8.51703e-06
8.31678e-06
8.14096e-06
7.98464e-06
7.84432e-06
7.71734e-06
7.6017e-06
7.49578e-06
7.40426e-06
0.00014488
0.000101905
8.78783e-05
8.05073e-05
7.60394e-05
7.30454e-05
7.07277e-05
6.87046e-05
6.68494e-05
6.51342e-05
6.35504e-05
6.2089e-05
6.07398e-05
5.94918e-05
5.83363e-05
5.72567e-05
5.6293e-05
5.54263e-05
0.000323316
0.000223553
0.000189759
0.000172499
0.000161946
0.000154822
0.000149528
0.000145224
0.000141505
0.000138189
0.000135183
0.000132432
0.000129899
0.000127554
0.000125377
0.000123343
0.000121485
0.000119852
0.000493959
0.000355209
0.000299381
0.000269547
0.000250971
0.000238325
0.000229057
0.000221791
0.000215785
0.000210632
0.000206097
0.000202036
0.000198354
0.000194984
0.000191879
0.000189001
0.000186362
0.000184036
0.000624463
0.000478649
0.000407295
0.000366102
0.000339473
0.000320952
0.000307288
0.000296671
0.000288056
0.000280823
0.00027459
0.000269109
0.000264215
0.000259792
0.000255758
0.000252056
0.000248675
0.000245692
0.000713105
0.000583329
0.000506456
0.000457796
0.000424719
0.000400985
0.000383162
0.000369229
0.000357951
0.000348556
0.000340542
0.000333571
0.000327412
0.0003219
0.000316918
0.000312384
0.000308271
0.000304643
0.000769316
0.000665557
0.00059224
0.000541039
0.000504136
0.000476628
0.00045545
0.000438647
0.000424952
0.000413524
0.000403793
0.000395364
0.000387955
0.000381363
0.00037544
0.000370083
0.000365251
0.000360991
0.000803464
0.000726286
0.000662486
0.000613304
0.000575532
0.000546129
0.000522802
0.000503912
0.00048831
0.000475187
0.000463967
0.000454235
0.000445685
0.000438092
0.000431287
0.000425156
0.000419644
0.000414781
0.000823632
0.00076891
0.00071717
0.000673315
0.000637349
0.000608013
0.000583935
0.000563951
0.00054715
0.000532843
0.000520506
0.000509745
0.00050026
0.000491823
0.000484261
0.000477454
0.000471341
0.000465937
0.000835321
0.00079758
0.000757797
0.000721015
0.000688827
0.000661266
0.000637804
0.000617784
0.000600597
0.000585727
0.000572752
0.000561334
0.000551207
0.000542157
0.000534024
0.000526692
0.000520101
0.000514253
0.000842014
0.000816187
0.000786712
0.000757337
0.000730012
0.000705459
0.00068375
0.00066467
0.000647902
0.000633126
0.000620044
0.000608402
0.000597983
0.000588609
0.000580142
0.000572481
0.000565574
0.000559415
0.000845506
0.00082693
0.000804836
0.000781628
0.000758972
0.000737766
0.000718375
0.000700856
0.000685113
0.000670982
0.000658284
0.000646844
0.000636503
0.000627126
0.000618601
0.000610849
0.000603831
0.000597541
0.000847618
0.000833937
0.000817463
0.000799505
0.000781248
0.000763507
0.000746747
0.000731183
0.000716868
0.000703768
0.000691805
0.00068088
0.000670893
0.000661752
0.000653377
0.000645715
0.000638738
0.000632444
0.00084898
0.000838773
0.000826761
0.000813446
0.000799482
0.000785442
0.000771741
0.000758639
0.000746273
0.000734703
0.00072393
0.000713928
0.000704655
0.000696063
0.000688113
0.000680775
0.00067404
0.000667904
0.000849782
0.00084179
0.000832926
0.000823243
0.000812978
0.00080242
0.000791836
0.000781434
0.000771361
0.000761708
0.000752526
0.000743838
0.000735646
0.000727943
0.000720724
0.000713986
0.000707734
0.000701964
0.000850209
0.000843469
0.00083655
0.000829333
0.000821816
0.000814074
0.000806214
0.000798344
0.00079056
0.000782939
0.000775537
0.000768392
0.000761532
0.000754974
0.000748736
0.000742834
0.000737285
0.00073208
0.000850409
0.000844283
0.000838388
0.000832578
0.000826762
0.000820901
0.000814995
0.000809064
0.000803141
0.000797261
0.000791459
0.000785765
0.000780207
0.000774811
0.0007696
0.000764602
0.000759835
0.000755282
0.000850482
0.000844584
0.000839091
0.000833867
0.000828806
0.000823834
0.000818906
0.000813999
0.000809109
0.00080424
0.000799405
0.000794622
0.00078991
0.00078529
0.000780787
0.000776426
0.000772223
0.00076815
0.000850461
0.000844499
0.000838897
0.000833517
0.00082826
0.000823066
0.0008179
0.000812753
0.000807629
0.00080254
0.000797504
0.00079254
0.000787668
0.000782909
0.000778286
0.000773822
0.000769531
0.00076538
0.000850264
0.000843698
0.000837082
0.000830294
0.00082331
0.000816172
0.000808952
0.00080173
0.000794582
0.000787569
0.00078074
0.000774132
0.00076777
0.000761674
0.000755859
0.00075034
0.000745122
0.000740168
0.000849709
0.000841538
0.000832462
0.000822583
0.000812162
0.000801498
0.000790854
0.000780433
0.000770372
0.000760759
0.000751641
0.000743035
0.000734941
0.000727352
0.000720254
0.000713637
0.000707488
0.00070176
0.000848165
0.000835955
0.000821437
0.000805565
0.000789263
0.000773224
0.000757881
0.00074347
0.000730084
0.000717733
0.000706378
0.000695955
0.000686391
0.000677614
0.00066956
0.000662175
0.000655417
0.000649224
0.000844088
0.000822755
0.000797961
0.000772553
0.000748254
0.000725879
0.000705689
0.000687649
0.000671589
0.000657293
0.000644543
0.000633136
0.000622894
0.000613666
0.000605328
0.000597784
0.000590963
0.00058479
0.000833791
0.00079425
0.000753396
0.000716081
0.000683657
0.000656019
0.000632575
0.000612638
0.000595578
0.000580868
0.00056808
0.000556873
0.000546977
0.000538179
0.000530313
0.000523256
0.000516923
0.000511241
0.000809076
0.000738693
0.000678546
0.000630933
0.000593621
0.000564148
0.000540541
0.000521317
0.000505397
0.000492005
0.000480574
0.00047069
0.000462046
0.000454412
0.000447618
0.000441539
0.000436095
0.00043123
0.000753685
0.000642686
0.000568248
0.000517624
0.000481623
0.000455032
0.000434732
0.000418749
0.000405811
0.000395083
0.000386002
0.000378177
0.000371336
0.000365284
0.000359879
0.000355023
0.000350657
0.00034675
0.000641466
0.000499155
0.000426794
0.000383991
0.000355864
0.000336165
0.000321656
0.000310465
0.000301475
0.000294009
0.000287641
0.000282094
0.000277184
0.000272784
0.000268808
0.000265194
0.000261911
0.000258956
0.000448553
0.000320189
0.000270289
0.000243477
0.000226729
0.000215451
0.000207324
0.000201042
0.000195888
0.000191473
0.000187583
0.000184091
0.000180918
0.000178013
0.00017534
0.000172873
0.000170602
0.000168537
0.000203095
0.000143552
0.000122976
0.00011171
0.000104815
0.00010037
9.71866e-05
9.46014e-05
9.23193e-05
9.02315e-05
8.82989e-05
8.65044e-05
8.48374e-05
8.32894e-05
8.18524e-05
8.0518e-05
7.92802e-05
7.81387e-05
2.40294e-05
1.96339e-05
1.71031e-05
1.54671e-05
1.43248e-05
1.34924e-05
1.28647e-05
1.2374e-05
1.1977e-05
1.16462e-05
1.1364e-05
1.11188e-05
1.09028e-05
1.07103e-05
1.05375e-05
1.03812e-05
1.02392e-05
1.01101e-05
2.06319e-06
5.8268e-06
6.28417e-06
6.39524e-06
6.60438e-06
6.85352e-06
7.13831e-06
7.46227e-06
7.85851e-06
8.22946e-06
8.60347e-06
8.98367e-06
9.3685e-06
9.75432e-06
1.0137e-05
1.05128e-05
1.08789e-05
1.12332e-05
1.15744e-05
1.19016e-05
1.22147e-05
1.25136e-05
1.27987e-05
1.30704e-05
1.33293e-05
1.35761e-05
1.38115e-05
1.40364e-05
1.42514e-05
1.44574e-05
1.46551e-05
1.48451e-05
1.50282e-05
1.5205e-05
1.5376e-05
1.55417e-05
1.57026e-05
1.58592e-05
1.60117e-05
1.61605e-05
1.63059e-05
1.64482e-05
1.65876e-05
1.67245e-05
1.6859e-05
1.69917e-05
1.71228e-05
1.7253e-05
1.73832e-05
1.75174e-05
1.765e-05
1.77793e-05
1.79053e-05
1.8028e-05
1.81471e-05
1.82622e-05
1.83731e-05
1.84793e-05
1.85804e-05
1.86758e-05
1.8765e-05
1.88476e-05
1.8923e-05
1.89906e-05
1.90499e-05
1.91003e-05
1.91413e-05
1.91723e-05
1.9193e-05
1.92028e-05
1.92013e-05
1.91883e-05
1.91634e-05
1.91264e-05
1.90772e-05
1.90157e-05
1.89419e-05
1.8856e-05
1.8758e-05
1.86483e-05
1.85272e-05
1.8395e-05
1.82522e-05
1.80994e-05
1.79369e-05
1.77653e-05
1.75847e-05
1.73948e-05
1.71974e-05
1.70119e-05
1.6873e-05
1.6744e-05
1.6614e-05
1.64817e-05
1.63469e-05
1.62101e-05
1.60715e-05
1.59317e-05
1.5791e-05
1.56498e-05
1.55086e-05
1.53676e-05
1.52271e-05
1.50875e-05
1.49489e-05
1.48115e-05
1.46755e-05
1.45411e-05
1.44083e-05
1.42771e-05
1.41476e-05
1.40197e-05
1.38935e-05
1.37688e-05
1.36456e-05
1.35238e-05
1.34032e-05
1.32836e-05
1.3165e-05
1.30472e-05
1.293e-05
1.28132e-05
1.26968e-05
1.25806e-05
1.24644e-05
1.23483e-05
1.22322e-05
1.2116e-05
1.19999e-05
1.18838e-05
1.17679e-05
1.16524e-05
1.15374e-05
1.14232e-05
1.13101e-05
1.11978e-05
1.10861e-05
1.09741e-05
1.0865e-05
1.07615e-05
1.06629e-05
1.05693e-05
1.04806e-05
1.03968e-05
1.03178e-05
1.02436e-05
1.0174e-05
1.01091e-05
1.00485e-05
9.99227e-06
9.94007e-06
9.8917e-06
9.84692e-06
9.80545e-06
9.76703e-06
9.73137e-06
9.69821e-06
9.66726e-06
9.63826e-06
9.61097e-06
9.58513e-06
9.56052e-06
9.53693e-06
9.51415e-06
9.492e-06
9.47029e-06
9.44884e-06
9.42749e-06
9.40604e-06
9.38428e-06
9.36198e-06
9.33882e-06
9.31442e-06
9.2882e-06
9.25931e-06
9.22633e-06
9.18689e-06
9.13621e-06
9.06665e-06
8.96097e-06
2.90956e-06
1.78101e-05
2.97813e-05
3.6105e-05
3.84252e-05
3.94863e-05
4.04277e-05
4.14604e-05
4.25048e-05
4.35436e-05
4.46234e-05
4.58086e-05
4.71494e-05
4.86751e-05
5.03974e-05
5.23157e-05
5.44205e-05
5.66955e-05
5.91194e-05
6.16672e-05
6.43115e-05
6.70243e-05
6.9778e-05
7.25468e-05
7.53081e-05
7.80425e-05
8.0735e-05
8.33743e-05
8.59531e-05
8.84677e-05
9.0917e-05
9.33028e-05
9.56288e-05
9.78998e-05
0.000100122
0.000102302
0.000104446
0.000106561
0.000108653
0.000110727
0.000112789
0.00011484
0.000116883
0.000118917
0.000120938
0.00012294
0.000124912
0.000126841
0.000128708
0.000130471
0.00013222
0.000133987
0.000135778
0.00013759
0.000139421
0.00014127
0.000143131
0.000145
0.000146871
0.000148739
0.000150596
0.000152434
0.000154245
0.00015602
0.00015775
0.000159424
0.000161033
0.000162568
0.000164017
0.000165372
0.000166623
0.000167762
0.000168782
0.000169674
0.000170435
0.000171058
0.00017154
0.000171878
0.000172072
0.00017212
0.000172024
0.000171784
0.000171402
0.000170878
0.00017021
0.000169391
0.000168401
0.000167199
0.000165726
0.000163983
0.000162078
0.000160085
0.000158031
0.00015593
0.000153792
0.000151627
0.000149443
0.000147246
0.000145045
0.000142844
0.00014065
0.000138467
0.000136301
0.000134154
0.00013203
0.000129932
0.000127862
0.000125822
0.000123813
0.000121837
0.000119893
0.000117981
0.000116102
0.000114254
0.000112438
0.00011065
0.000108892
0.00010716
0.000105454
0.000103771
0.000102112
0.000100474
9.88562e-05
9.72581e-05
9.56791e-05
9.41189e-05
9.25778e-05
9.10563e-05
8.95555e-05
8.80768e-05
8.66222e-05
8.51939e-05
8.37947e-05
8.24273e-05
8.10943e-05
7.97963e-05
7.85297e-05
7.72783e-05
7.60054e-05
7.47646e-05
7.3613e-05
7.25482e-05
7.1566e-05
7.06625e-05
6.98342e-05
6.9078e-05
6.83908e-05
6.77691e-05
6.72092e-05
6.67074e-05
6.62594e-05
6.58611e-05
6.55079e-05
6.51955e-05
6.49195e-05
6.46756e-05
6.44598e-05
6.42679e-05
6.40964e-05
6.39416e-05
6.38005e-05
6.36698e-05
6.35468e-05
6.3429e-05
6.33138e-05
6.31987e-05
6.30814e-05
6.29593e-05
6.28295e-05
6.26884e-05
6.25317e-05
6.23529e-05
6.21431e-05
6.18881e-05
6.15636e-05
6.1128e-05
6.04933e-05
5.95207e-05
5.77628e-05
5.53431e-05
3.66279e-06
2.77062e-05
4.55925e-05
5.53956e-05
6.05271e-05
6.34282e-05
6.55699e-05
6.76292e-05
6.98436e-05
7.23066e-05
7.50856e-05
7.82399e-05
8.18096e-05
8.58093e-05
9.02279e-05
9.50327e-05
0.000100175
0.000105594
0.000111223
0.000116997
0.000122848
0.000128717
0.000134553
0.000140312
0.000145961
0.000151474
0.000156836
0.000162035
0.000167069
0.00017194
0.000176652
0.000181214
0.000185635
0.000189927
0.000194101
0.00019817
0.000202145
0.000206038
0.000209859
0.000213616
0.000217319
0.000220974
0.000224585
0.000228156
0.000231688
0.000235181
0.000238634
0.000242045
0.000245412
0.000248752
0.00025211
0.000255501
0.00025893
0.000262395
0.000265894
0.000269421
0.000272971
0.000276534
0.000280101
0.000283662
0.000287202
0.000290708
0.000294164
0.000297553
0.000300859
0.000304062
0.000307144
0.000310086
0.000312869
0.000315474
0.000317885
0.000320083
0.000322055
0.000323787
0.000325266
0.000326482
0.000327427
0.000328097
0.000328486
0.000328593
0.000328417
0.00032796
0.000327223
0.000326207
0.000324911
0.000323329
0.000321449
0.000319253
0.000316728
0.000313896
0.000310828
0.000307586
0.000304208
0.000300719
0.00029714
0.000293486
0.000289775
0.00028602
0.000282234
0.00027843
0.00027462
0.000270814
0.00026702
0.000263247
0.000259504
0.000255794
0.000252125
0.0002485
0.000244922
0.000241394
0.000237917
0.000234492
0.000231118
0.000227796
0.000224523
0.000221297
0.000218116
0.000214977
0.000211878
0.000208815
0.000205786
0.000202787
0.000199816
0.000196872
0.000193951
0.000191055
0.000188182
0.000185334
0.000182511
0.000179717
0.000176955
0.000174229
0.000171543
0.000168904
0.000166316
0.000163781
0.000161302
0.000158872
0.000156482
0.000154138
0.000151859
0.000149716
0.00014771
0.000145846
0.000144121
0.000142535
0.000141084
0.000139766
0.000138574
0.000137503
0.000136545
0.000135693
0.000134938
0.000134272
0.000133687
0.000133173
0.000132722
0.000132326
0.000131976
0.000131665
0.000131386
0.000131133
0.0001309
0.00013068
0.000130468
0.000130259
0.000130048
0.00012983
0.000129598
0.000129346
0.000129066
0.000128746
0.000128369
0.000127912
0.000127335
0.000126572
0.000125493
0.000123873
0.000121143
0.00011691
4.19117e-06
3.3733e-05
5.68221e-05
7.06397e-05
7.87577e-05
8.38498e-05
8.76601e-05
9.11896e-05
9.49386e-05
9.91361e-05
0.000103884
0.000109221
0.000115146
0.000121624
0.000128596
0.000135984
0.000143701
0.000151655
0.000159758
0.000167927
0.000176091
0.000184188
0.000192166
0.000199988
0.000207623
0.000215051
0.00022226
0.000229244
0.000236003
0.000242539
0.000248861
0.000254976
0.000260896
0.000266632
0.000272197
0.000277605
0.000282867
0.000287997
0.000293007
0.000297907
0.00030271
0.000307425
0.00031206
0.000316626
0.000321129
0.000325576
0.000329973
0.000334328
0.000338646
0.000342954
0.00034728
0.000351635
0.000356027
0.000360454
0.000364916
0.000369408
0.000373925
0.000378457
0.000382994
0.000387523
0.000392031
0.000396499
0.000400911
0.000405245
0.000409481
0.000413596
0.000417566
0.000421369
0.00042498
0.000428376
0.000431534
0.000434432
0.00043705
0.000439369
0.000441374
0.000443049
0.000444384
0.000445368
0.000445996
0.000446263
0.000446167
0.000445709
0.00044489
0.000443711
0.000442175
0.000440282
0.000438034
0.000435426
0.000432472
0.000429203
0.000425664
0.0004219
0.000417946
0.000413829
0.000409574
0.000405202
0.000400733
0.000396186
0.000391579
0.000386927
0.000382246
0.00037755
0.000372852
0.000368162
0.000363491
0.000358849
0.000354242
0.000349678
0.00034516
0.000340693
0.00033628
0.000331922
0.000327619
0.000323372
0.000319177
0.000315035
0.00031094
0.00030689
0.000302882
0.000298911
0.000294973
0.000291064
0.000287182
0.000283322
0.000279484
0.000275664
0.000271864
0.000268084
0.000264325
0.000260591
0.000256886
0.000253216
0.000249588
0.000246008
0.000242484
0.000239024
0.000235632
0.000232312
0.000229067
0.000225902
0.000222823
0.000219874
0.000217091
0.000214482
0.00021205
0.000209799
0.000207726
0.000205831
0.000204108
0.000202551
0.000201153
0.000199903
0.000198792
0.000197809
0.000196943
0.000196181
0.000195512
0.000194925
0.000194409
0.000193952
0.000193546
0.000193181
0.000192847
0.000192537
0.000192242
0.000191956
0.000191671
0.00019138
0.000191074
0.000190745
0.000190382
0.00018997
0.000189491
0.000188915
0.000188199
0.000187271
0.000185999
0.000184159
0.000181285
0.000177074
4.53829e-06
3.73888e-05
6.49919e-05
8.2646e-05
9.39021e-05
0.000101536
0.000107439
0.000112806
0.00011832
0.000124324
0.00013096
0.000138259
0.000146186
0.000154672
0.000163624
0.000172941
0.000182522
0.000192269
0.000202092
0.000211914
0.000221667
0.000231296
0.000240758
0.000250017
0.000259048
0.000267834
0.000276363
0.000284629
0.000292631
0.00030037
0.000307852
0.000315085
0.000322077
0.000328838
0.00033538
0.000341714
0.000347854
0.000353812
0.0003596
0.000365233
0.000370721
0.000376079
0.000381319
0.000386452
0.00039149
0.000396445
0.000401329
0.00040615
0.00041092
0.000415657
0.000420396
0.000425149
0.000429927
0.000434733
0.000439569
0.000444434
0.000449325
0.000454236
0.000459159
0.000464083
0.000468994
0.000473877
0.000478713
0.000483483
0.000488165
0.000492735
0.000497168
0.000501439
0.000505522
0.000509389
0.000513015
0.000516375
0.000519446
0.000522204
0.000524629
0.000526704
0.000528413
0.000529744
0.000530686
0.000531232
0.000531379
0.000531124
0.000530469
0.000529414
0.000527964
0.000526124
0.000523892
0.000521286
0.000518327
0.000515044
0.00051147
0.00050764
0.000503581
0.000499323
0.00049489
0.000490306
0.000485591
0.000480768
0.000475855
0.000470872
0.000465836
0.000460762
0.000455666
0.000450561
0.000445459
0.000440372
0.000435308
0.000430275
0.00042528
0.000420328
0.000415423
0.000410567
0.000405761
0.000401005
0.000396298
0.000391638
0.000387021
0.000382445
0.000377904
0.000373395
0.000368913
0.000364454
0.000360013
0.000355587
0.000351173
0.00034677
0.000342376
0.000337993
0.000333622
0.000329267
0.000324933
0.000320627
0.000316357
0.000312131
0.000307959
0.00030385
0.000299816
0.000295863
0.000292003
0.000288242
0.000284591
0.000281066
0.000277718
0.00027456
0.000271599
0.000268843
0.000266293
0.000263948
0.000261807
0.000259862
0.000258107
0.000256533
0.000255127
0.000253879
0.000252776
0.000251803
0.000250948
0.000250197
0.000249537
0.000248954
0.000248437
0.000247974
0.000247555
0.000247169
0.000246806
0.000246458
0.000246115
0.000245768
0.000245408
0.000245025
0.000244605
0.000244134
0.00024359
0.000242944
0.00024215
0.00024114
0.000239792
0.000237911
0.000235159
0.000231417
4.74257e-06
3.95118e-05
7.0625e-05
9.17157e-05
0.000106064
0.000116401
0.000124639
0.000132053
0.000139421
0.000147168
0.000155482
0.000164407
0.000173908
0.000183906
0.000194303
0.000204996
0.000215886
0.000226881
0.0002379
0.000248871
0.000259736
0.000270446
0.00028096
0.000291247
0.000301284
0.000311051
0.000320538
0.000329737
0.000338642
0.000347255
0.000355576
0.00036361
0.000371363
0.000378843
0.000386058
0.00039302
0.000399738
0.000406225
0.000412493
0.000418556
0.000424426
0.000430119
0.000435647
0.000441025
0.000446268
0.000451389
0.000456403
0.000461322
0.00046616
0.00047093
0.000475673
0.000480409
0.00048515
0.000489909
0.000494691
0.000499502
0.000504343
0.000509212
0.000514107
0.000519019
0.00052394
0.000528856
0.000533753
0.000538611
0.000543411
0.00054813
0.000552743
0.000557224
0.000561545
0.000565679
0.000569598
0.000573273
0.000576679
0.000579788
0.000582577
0.000585025
0.000587112
0.000588822
0.00059014
0.000591058
0.000591566
0.000591661
0.000591342
0.000590608
0.000589461
0.000587898
0.000585938
0.0005836
0.000580906
0.00057788
0.000574548
0.000570937
0.000567075
0.000562985
0.000558693
0.000554222
0.000549595
0.000544833
0.000539957
0.000534986
0.000529939
0.000524834
0.000519686
0.00051451
0.00050932
0.000504128
0.000498943
0.000493776
0.000488634
0.000483522
0.000478446
0.000473408
0.00046841
0.000463454
0.000458537
0.000453658
0.000448814
0.000444001
0.000439216
0.000434453
0.000429708
0.000424975
0.000420251
0.000415531
0.000410812
0.000406092
0.00040137
0.000396647
0.000391924
0.000387205
0.000382496
0.000377803
0.000373136
0.000368505
0.00036392
0.000359394
0.000354939
0.000350568
0.000346292
0.000342125
0.000338078
0.000334161
0.00033042
0.000326873
0.000323533
0.000320408
0.000317504
0.000314822
0.000312361
0.000310118
0.000308085
0.000306254
0.000304613
0.000303152
0.000301855
0.000300709
0.000299699
0.000298811
0.000298029
0.00029734
0.000296729
0.000296184
0.000295693
0.000295243
0.000294824
0.000294425
0.000294036
0.000293647
0.000293247
0.000292825
0.000292368
0.000291858
0.000291275
0.000290589
0.000289758
0.000288715
0.000287357
0.000285522
0.000282979
0.000279743
4.86073e-06
4.04823e-05
7.41882e-05
9.82239e-05
0.000115444
0.000128427
0.000139027
0.000148512
0.000157698
0.000167057
0.000176821
0.000187067
0.000197782
0.000208902
0.000220341
0.000232009
0.000243818
0.000255685
0.00026754
0.000279319
0.000290968
0.000302445
0.000313711
0.000324736
0.000335498
0.000345977
0.000356158
0.000366032
0.000375592
0.000384833
0.000393754
0.000402356
0.000410642
0.000418615
0.000426283
0.000433652
0.000440731
0.000447531
0.000454063
0.000460338
0.000466371
0.000472174
0.000477763
0.000483153
0.000488359
0.000493397
0.000498284
0.000503035
0.000507666
0.000512192
0.000516654
0.00052108
0.000525491
0.000529904
0.000534335
0.000538794
0.000543289
0.000547826
0.000552406
0.000557029
0.000561689
0.000566379
0.000571088
0.0005758
0.000580497
0.00058516
0.000589764
0.000594284
0.000598692
0.000602959
0.000607055
0.00061095
0.000614615
0.00061802
0.000621138
0.000623943
0.000626412
0.000628524
0.000630261
0.000631609
0.000632558
0.000633095
0.000633226
0.000632924
0.000632203
0.000631074
0.000629552
0.000627652
0.000625394
0.000622797
0.000619884
0.000616678
0.000613202
0.00060948
0.000605535
0.000601391
0.000597068
0.000592589
0.000587975
0.000583246
0.000578421
0.000573518
0.000568553
0.000563543
0.0005585
0.000553439
0.000548371
0.000543305
0.00053825
0.000533212
0.000528197
0.000523208
0.000518248
0.000513318
0.000508417
0.000503544
0.000498695
0.000493868
0.000489058
0.00048426
0.000479468
0.000474679
0.000469887
0.000465087
0.000460276
0.000455452
0.000450612
0.000445759
0.000440892
0.000436016
0.000431136
0.00042626
0.000421396
0.000416556
0.000411751
0.000406995
0.000402302
0.000397687
0.000393164
0.000388748
0.000384455
0.000380297
0.000376299
0.000372496
0.000368899
0.000365521
0.000362369
0.000359446
0.000356753
0.000354289
0.000352048
0.000350021
0.000348199
0.00034657
0.000345121
0.000343836
0.000342702
0.000341701
0.00034082
0.000340043
0.000339355
0.000338742
0.000338191
0.000337688
0.000337223
0.000336784
0.000336359
0.000335938
0.000335509
0.00033506
0.000334577
0.000334044
0.00033344
0.000332736
0.000331892
0.00033085
0.00032952
0.000327776
0.000325464
0.00032268
4.91769e-06
4.06428e-05
7.6133e-05
0.000102584
0.000122339
0.000137757
0.00015058
0.000162026
0.000172904
0.000183712
0.000194718
0.00020604
0.000217695
0.000229651
0.000241844
0.000254202
0.000266651
0.000279124
0.000291557
0.000303895
0.000316091
0.000328104
0.000339898
0.000351444
0.000362719
0.000373702
0.000384377
0.00039473
0.000404752
0.000414436
0.000423775
0.000432768
0.000441413
0.000449712
0.000457667
0.000465282
0.000472565
0.000479521
0.000486161
0.000492495
0.000498535
0.000504292
0.000509783
0.000515022
0.000520025
0.00052481
0.000529395
0.000533797
0.000538036
0.000542129
0.000546118
0.000550039
0.000553921
0.000557789
0.000561668
0.000565574
0.000569525
0.000573533
0.000577606
0.000581751
0.000585969
0.000590259
0.000594612
0.00059902
0.000603467
0.000607936
0.000612405
0.000616849
0.000621241
0.000625552
0.000629748
0.000633799
0.000637672
0.000641335
0.000644756
0.000647904
0.000650754
0.000653282
0.000655459
0.000657271
0.000658711
0.000659735
0.000660353
0.00066056
0.000660362
0.000659767
0.000658784
0.000657427
0.000655711
0.000653652
0.000651271
0.000648586
0.000645619
0.000642392
0.000638927
0.000635245
0.000631367
0.000627316
0.000623113
0.000618776
0.000614326
0.000609781
0.000605158
0.000600473
0.00059574
0.000590974
0.000586186
0.000581386
0.000576584
0.000571787
0.000567
0.000562228
0.000557474
0.000552739
0.000548023
0.000543324
0.000538639
0.000533966
0.0005293
0.000524635
0.000519967
0.000515291
0.000510599
0.000505889
0.000501156
0.000496397
0.00049161
0.000486794
0.000481952
0.000477086
0.000472202
0.000467306
0.000462409
0.00045752
0.000452653
0.000447822
0.000443041
0.000438327
0.000433697
0.000429166
0.000424751
0.000420467
0.000416335
0.000412386
0.000408638
0.000405104
0.000401794
0.000398713
0.000395864
0.000393247
0.000390859
0.000388691
0.000386737
0.000384983
0.000383418
0.000382027
0.000380795
0.000379707
0.000378747
0.000377899
0.000377149
0.000376481
0.000375881
0.000375337
0.000374835
0.000374363
0.000373911
0.000373465
0.000373015
0.000372548
0.000372051
0.000371506
0.000370893
0.000370186
0.000369348
0.000368327
0.00036705
0.000365418
0.000363333
0.000360931
4.92989e-06
4.02489e-05
7.68348e-05
0.000105173
0.000127068
0.000144623
0.000159436
0.000172648
0.000185044
0.000197125
0.000209191
0.000221392
0.000233784
0.000246366
0.000259102
0.000271941
0.000284828
0.000297706
0.000310523
0.000323231
0.000335787
0.000348155
0.000360299
0.000372193
0.000383811
0.000395132
0.000406138
0.000416812
0.000427142
0.000437118
0.000446731
0.000455974
0.000464844
0.000473337
0.000481454
0.000489195
0.000496563
0.000503563
0.000510201
0.000516485
0.000522425
0.000528032
0.000533319
0.000538302
0.000542995
0.000547417
0.000551588
0.000555527
0.000559257
0.000562799
0.000566194
0.000569487
0.000572717
0.000575916
0.000579117
0.000582346
0.000585627
0.000588982
0.000592428
0.000595977
0.000599638
0.000603415
0.000607307
0.00061131
0.000615412
0.000619599
0.000623851
0.000628144
0.000632453
0.000636747
0.000640992
0.000645153
0.000649198
0.00065309
0.000656795
0.000660273
0.000663495
0.000666446
0.000669071
0.000671348
0.000673265
0.000674807
0.000675965
0.000676734
0.000677115
0.00067711
0.000676727
0.000675973
0.000674863
0.000673408
0.000671626
0.000669533
0.00066715
0.000664495
0.00066159
0.000658454
0.00065511
0.000651577
0.000647877
0.000644029
0.000640052
0.000635966
0.000631787
0.000627532
0.000623217
0.000618854
0.000614457
0.000610037
0.000605603
0.000601163
0.000596723
0.000592288
0.000587861
0.000583443
0.000579036
0.000574636
0.000570243
0.000565852
0.00056146
0.000557059
0.000552646
0.000548214
0.000543758
0.000539272
0.000534751
0.000530193
0.000525593
0.000520952
0.000516271
0.000511551
0.000506798
0.000502018
0.00049722
0.000492415
0.000487616
0.000482836
0.000478092
0.000473401
0.000468779
0.000464244
0.000459815
0.000455507
0.000451337
0.000447338
0.000443527
0.00043992
0.000436529
0.000433362
0.000430423
0.000427714
0.000425232
0.000422973
0.000420929
0.000419089
0.000417442
0.000415975
0.000414672
0.000413518
0.000412498
0.000411596
0.000410798
0.000410087
0.00040945
0.000408873
0.000408343
0.000407847
0.000407374
0.000406911
0.000406448
0.00040597
0.000405465
0.000404917
0.000404306
0.000403607
0.000402787
0.000401802
0.000400591
0.000399078
0.000397207
0.000395126
4.90837e-06
3.94794e-05
7.65831e-05
0.000106303
0.00012993
0.000149285
0.000165811
0.000180561
0.000194279
0.000207461
0.000220423
0.000233345
0.000246316
0.000259365
0.000272484
0.000285645
0.000298809
0.000311934
0.000324978
0.000337901
0.000350664
0.000363233
0.000375578
0.00038767
0.000399485
0.000411
0.000422195
0.000433053
0.000443559
0.000453699
0.000463461
0.000472837
0.000481818
0.000490399
0.000498576
0.000506346
0.000513709
0.000520667
0.000527223
0.000533382
0.000539151
0.000544539
0.000549558
0.00055422
0.000558542
0.00056254
0.000566236
0.00056965
0.000572806
0.000575732
0.00057847
0.000581073
0.000583587
0.000586054
0.000588514
0.000591002
0.000593552
0.000596192
0.000598948
0.00060184
0.000604885
0.000608092
0.000611468
0.000615011
0.000618716
0.000622571
0.000626559
0.000630659
0.000634845
0.000639088
0.000643348
0.000647589
0.000651777
0.000655879
0.000659857
0.000663646
0.000667221
0.000670553
0.000673608
0.000676357
0.000678781
0.000680861
0.000682584
0.000683942
0.000684928
0.000685543
0.000685789
0.000685672
0.000685199
0.000684383
0.000683237
0.000681775
0.000680015
0.000677975
0.000675675
0.000673133
0.00067037
0.000667406
0.000664262
0.000660958
0.000657512
0.000653944
0.000650272
0.000646511
0.000642679
0.000638789
0.000634854
0.000630886
0.000626895
0.000622889
0.000618875
0.000614859
0.000610843
0.00060683
0.000602821
0.000598812
0.000594804
0.000590791
0.000586768
0.000582732
0.000578675
0.000574591
0.000570473
0.000566317
0.000562116
0.000557866
0.000553564
0.000549208
0.000544797
0.000540334
0.000535823
0.000531268
0.00052668
0.000522067
0.000517443
0.000512821
0.000508218
0.000503649
0.000499134
0.00049469
0.000490336
0.000486089
0.000481966
0.000477995
0.000474198
0.00047059
0.000467186
0.000463994
0.000461023
0.000458274
0.000455748
0.000453441
0.000451346
0.000449455
0.000447758
0.00044624
0.00044489
0.000443691
0.00044263
0.00044169
0.000440857
0.000440115
0.000439451
0.00043885
0.000438299
0.000437787
0.0004373
0.000436827
0.000436356
0.000435874
0.000435368
0.000434823
0.000434221
0.000433538
0.000432746
0.000431806
0.000430669
0.000429277
0.000427601
0.000425792
4.86034e-06
3.84571e-05
7.55969e-05
0.00010623
0.000131185
0.000152001
0.000169955
0.000186007
0.00020085
0.000214967
0.000228679
0.000242188
0.000255609
0.000268999
0.000282373
0.000295725
0.000309034
0.000322272
0.000335406
0.000348404
0.000361235
0.000373867
0.000386273
0.000398425
0.000410299
0.000421873
0.000433126
0.000444038
0.000454594
0.000464777
0.000474574
0.000483972
0.000492961
0.000501532
0.000509679
0.000517396
0.000524678
0.000531525
0.000537937
0.000543916
0.000549465
0.000554592
0.000559305
0.000563616
0.000567538
0.000571088
0.000574285
0.000577153
0.000579717
0.000582006
0.000584072
0.000585973
0.000587762
0.00058949
0.000591203
0.000592946
0.000594759
0.00059668
0.000598741
0.000600971
0.000603392
0.000606022
0.000608872
0.000611947
0.000615244
0.000618754
0.000622463
0.000626353
0.0006304
0.000634581
0.000638841
0.000643144
0.000647453
0.000651729
0.000655929
0.000660007
0.000663924
0.000667644
0.000671132
0.000674357
0.000677293
0.000679918
0.000682214
0.000684166
0.000685767
0.000687011
0.000687896
0.000688424
0.000688602
0.000688436
0.000687938
0.000687121
0.000686
0.000684592
0.000682914
0.000680984
0.000678824
0.000676451
0.000673887
0.000671151
0.000668263
0.000665242
0.000662106
0.000658872
0.000655556
0.000652174
0.00064874
0.000645265
0.00064176
0.000638235
0.000634697
0.000631151
0.000627601
0.00062405
0.000620497
0.000616943
0.000613384
0.000609817
0.000606237
0.000602637
0.000599012
0.000595354
0.000591656
0.000587912
0.000584115