/*--------------------------------*- C++ -*----------------------------------*\
  =========                 |
  \\      /  F ield         | OpenFOAM: The Open Source CFD Toolbox
   \\    /   O peration     | Website:  https://openfoam.org
    \\  /    A nd           | Version:  6
     \\/     M anipulation  |
\*---------------------------------------------------------------------------*/
FoamFile
{
    version     2.0;
    format      ascii;
    class       volScalarField;
    location    "0.2";
    object      p;
}
// * * * * * * * * * * * * * * * * * * * * * * * * * * * * * * * * * * * * * //

dimensions      [0 2 -2 0 0 0 0];

internalField   nonuniform List<scalar> 
12225
(
0.307535
0.055181
-0.0226708
-0.0328957
-0.0370446
-0.0411843
-0.0432001
-0.0439929
-0.0445894
-0.045126
-0.0455169
-0.0457612
-0.0458828
-0.0458762
-0.0457402
-0.0454031
-0.0451263
-0.0440216
-0.0743154
-0.0440396
-0.0429893
-0.0362566
-0.0365359
-0.0400691
-0.0423257
-0.0434354
-0.0442327
-0.0448724
-0.0453202
-0.0456009
-0.0457468
-0.0457553
-0.0456293
-0.0452927
-0.0449219
-0.0440161
-0.111327
-0.0403043
-0.0383608
-0.0357523
-0.0362356
-0.0393567
-0.0415578
-0.0427801
-0.0436831
-0.0443964
-0.0449023
-0.0452303
-0.0454123
-0.0454469
-0.0453389
-0.0450129
-0.0446026
-0.0435372
-0.0659588
-0.0270727
-0.0348736
-0.0358791
-0.0365315
-0.03916
-0.0411476
-0.0423503
-0.0432758
-0.0440173
-0.0445569
-0.0449194
-0.0451314
-0.0451924
-0.045105
-0.0448071
-0.044369
-0.0434025
-0.0455435
-0.027116
-0.0353335
-0.0365827
-0.0370852
-0.0392549
-0.0410101
-0.0421496
-0.0430542
-0.0437902
-0.0443395
-0.0447202
-0.0449532
-0.0450382
-0.0449754
-0.0447197
-0.0443015
-0.0435248
-0.0431876
-0.0314009
-0.0365038
-0.0372849
-0.0376914
-0.0394797
-0.0410208
-0.0420881
-0.0429554
-0.0436705
-0.0442169
-0.0446074
-0.0448577
-0.044968
-0.0449378
-0.0447386
-0.0443832
-0.0437988
-0.0430537
-0.0343123
-0.0372339
-0.0378779
-0.0382928
-0.0397715
-0.0411217
-0.0421157
-0.0429399
-0.0436284
-0.0441673
-0.0445648
-0.0448329
-0.0449729
-0.044985
-0.0448551
-0.0445918
-0.0441917
-0.042066
-0.0359327
-0.0377525
-0.0384168
-0.0388684
-0.0401003
-0.041285
-0.0422085
-0.0429893
-0.0436508
-0.0441814
-0.0445865
-0.0448751
-0.04505
-0.0451138
-0.0450636
-0.0449099
-0.0446854
-0.0410793
-0.0370874
-0.0382621
-0.0389225
-0.0394052
-0.0404462
-0.0414912
-0.04235
-0.0430903
-0.0437275
-0.044252
-0.0446671
-0.0449801
-0.0451956
-0.045319
-0.0453553
-0.0453192
-0.0452582
-0.0405058
-0.0380331
-0.0387762
-0.0393942
-0.0398989
-0.0407958
-0.0417255
-0.0425269
-0.043232
-0.0438495
-0.0443717
-0.0448005
-0.0451424
-0.0454037
-0.0455922
-0.0457185
-0.0458003
-0.0458875
-0.0402724
-0.0387985
-0.0392735
-0.039836
-0.0403522
-0.0411421
-0.0419778
-0.0427294
-0.0434053
-0.0440085
-0.0445328
-0.0449795
-0.0453547
-0.0456659
-0.0459227
-0.0461387
-0.0463331
-0.0465521
-0.0402531
-0.0393672
-0.0397087
-0.0402214
-0.0407382
-0.0414541
-0.0422196
-0.0429319
-0.0435861
-0.044181
-0.0447114
-0.0451781
-0.0455872
-0.0459463
-0.0462664
-0.0465617
-0.046851
-0.0471752
-0.0403502
-0.0398543
-0.040111
-0.0405808
-0.0410947
-0.0417535
-0.0424639
-0.0431452
-0.0437836
-0.0443752
-0.0449154
-0.045405
-0.0458495
-0.046257
-0.0466385
-0.047008
-0.0473832
-0.0477969
-0.0405601
-0.0403344
-0.0405432
-0.0409708
-0.0414745
-0.0420844
-0.0427457
-0.0433992
-0.0440254
-0.0446181
-0.0451732
-0.0456914
-0.0461776
-0.0466394
-0.0470872
-0.0475337
-0.0479943
-0.0484929
-0.0408716
-0.0408039
-0.040996
-0.0413864
-0.0418723
-0.0424431
-0.0430644
-0.0436948
-0.0443138
-0.044913
-0.0454886
-0.0460408
-0.0465735
-0.0470932
-0.0476088
-0.0481306
-0.0486704
-0.0492445
-0.0412498
-0.0412593
-0.0414499
-0.0418121
-0.0422781
-0.0428204
-0.0434136
-0.0440288
-0.0446471
-0.0452592
-0.0458607
-0.0464509
-0.0470323
-0.0476097
-0.0481896
-0.0487792
-0.0493865
-0.0500215
-0.0416412
-0.041682
-0.0418742
-0.0422192
-0.0426703
-0.0431967
-0.0437764
-0.0443879
-0.0450146
-0.0456466
-0.0462785
-0.0469085
-0.0475374
-0.0481676
-0.0488029
-0.0494475
-0.0501058
-0.0507829
-0.041973
-0.0420241
-0.0422169
-0.042556
-0.0430046
-0.0435321
-0.044117
-0.0447409
-0.0453884
-0.0460489
-0.0467158
-0.0473858
-0.0480578
-0.0487321
-0.04941
-0.050093
-0.0507827
-0.0514812
-0.0421437
-0.0421946
-0.0423848
-0.0427303
-0.0431966
-0.0437492
-0.0443648
-0.0450244
-0.0457113
-0.0464132
-0.0471223
-0.0478338
-0.0485451
-0.0492547
-0.049962
-0.0506668
-0.0513692
-0.0520692
-0.0420387
-0.0420619
-0.0422338
-0.0426012
-0.0431121
-0.0437178
-0.0443926
-0.0451125
-0.0458554
-0.046607
-0.0473595
-0.0481078
-0.0488488
-0.0495809
-0.0503033
-0.0510154
-0.0517169
-0.0524074
-0.0418433
-0.0417709
-0.0418927
-0.0422966
-0.0428632
-0.0435294
-0.044275
-0.0450652
-0.0458687
-0.0466708
-0.0474648
-0.0482463
-0.0490127
-0.0497628
-0.0504963
-0.051213
-0.0519127
-0.0525952
-0.0417174
-0.0413477
-0.0413642
-0.0418452
-0.0424809
-0.0432178
-0.0440551
-0.0449316
-0.0458032
-0.0466587
-0.0474954
-0.0483097
-0.0490998
-0.0498659
-0.0506087
-0.051329
-0.0520269
-0.0527023
-0.0419154
-0.0408358
-0.0406809
-0.0412864
-0.0419778
-0.0427967
-0.0437582
-0.0447398
-0.0456857
-0.0465985
-0.0474802
-0.048328
-0.0491416
-0.0499234
-0.0506756
-0.0513999
-0.0520975
-0.0527681
-0.0424646
-0.0401058
-0.0398981
-0.0406837
-0.0413538
-0.0422729
-0.0434097
-0.0445178
-0.0455442
-0.046519
-0.0474493
-0.0483314
-0.0491681
-0.0499649
-0.0507261
-0.0514546
-0.0521524
-0.0528194
-0.0427373
-0.0381675
-0.0387602
-0.0400251
-0.040594
-0.0416624
-0.0430445
-0.0443009
-0.0454136
-0.0464555
-0.0474365
-0.048352
-0.0492096
-0.0500192
-0.0507874
-0.0515184
-0.0522157
-0.0528788
-0.0444834
-0.0337588
-0.0364997
-0.0390227
-0.0396274
-0.0409949
-0.0427093
-0.0441346
-0.0453388
-0.0464502
-0.0474794
-0.0484228
-0.049295
-0.0501116
-0.0508819
-0.0516115
-0.0523052
-0.0529629
-0.0615055
-0.0317333
-0.0342575
-0.0376268
-0.0384464
-0.0403637
-0.0424946
-0.044101
-0.0453968
-0.0465695
-0.0476323
-0.0485874
-0.0494598
-0.0502713
-0.0510336
-0.0517536
-0.0524375
-0.0530856
-0.10564
-0.0450265
-0.0382957
-0.0374438
-0.0376181
-0.0401366
-0.0426562
-0.0443907
-0.0457358
-0.0469291
-0.0479859
-0.048918
-0.0497623
-0.0505464
-0.051283
-0.0519791
-0.0526421
-0.053274
-0.0852691
-0.054864
-0.0481963
-0.0396812
-0.0380825
-0.040899
-0.04353
-0.0451686
-0.0464141
-0.0475333
-0.048523
-0.0493912
-0.0501791
-0.050916
-0.0516128
-0.0522739
-0.0529054
-0.0535222
0.279047
0.0593112
-0.0178278
-0.0309808
-0.0363477
-0.0415308
-0.044573
-0.0460079
-0.0470005
-0.0479428
-0.0488165
-0.0496047
-0.0503357
-0.0510314
-0.0516969
-0.0523306
-0.0529274
-0.0534671
-0.0735572
-0.0737219
-0.074162
-0.0746588
-0.0750647
-0.0754507
-0.0759011
-0.076461
-0.0771554
-0.078004
-0.0790294
-0.0802579
-0.0817146
-0.0834197
-0.0853857
-0.0876146
-0.0900974
-0.0928136
-0.0957326
-0.0988162
-0.102021
-0.105302
-0.108613
-0.111912
-0.115161
-0.118326
-0.121378
-0.124294
-0.127055
-0.129646
-0.132057
-0.134277
-0.136299
-0.138118
-0.139728
-0.141124
-0.1423
-0.143251
-0.14397
-0.144451
-0.144686
-0.144667
-0.144385
-0.143832
-0.142997
-0.141877
-0.140468
-0.138764
-0.136744
-0.134356
-0.131573
-0.128401
-0.124839
-0.12088
-0.116519
-0.11175
-0.106567
-0.10097
-0.0949605
-0.0885416
-0.0817216
-0.0745122
-0.0669291
-0.058992
-0.0507248
-0.0421552
-0.0333149
-0.024239
-0.0149658
-0.00553604
0.00400721
0.0136196
0.0232558
0.0328707
0.0424194
0.0518584
0.0611463
0.0702437
0.0791145
0.0877258
0.0960483
0.104057
0.111729
0.119048
0.126
0.132575
0.138766
0.144573
0.150002
0.155072
0.159787
0.164142
0.168145
0.171809
0.175148
0.178177
0.180913
0.183369
0.185564
0.187513
0.189232
0.190736
0.192041
0.19316
0.194109
0.1949
0.195546
0.196057
0.196447
0.196723
0.196897
0.196977
0.196971
0.196887
0.196732
0.196511
0.196233
0.1959
0.195521
0.195098
0.194637
0.194143
0.19362
0.193071
0.192503
0.191917
0.19132
0.190713
0.190102
0.189489
0.188879
0.188274
0.187678
0.187093
0.186524
0.185972
0.185441
0.184936
0.184443
0.183955
0.183485
0.183037
0.182612
0.182209
0.181829
0.181469
0.18113
0.180812
0.180512
0.18023
0.179966
0.179718
0.179486
0.179268
0.179064
0.178873
0.178694
0.178526
0.17837
0.178225
0.178089
0.177965
0.177851
0.177748
0.177657
0.177581
0.17752
0.177479
0.177461
0.177475
0.177529
0.177636
0.177817
0.1781
0.178533
0.179189
0.180209
0.181798
0.184555
0.188489
-0.073392
-0.0740177
-0.0745914
-0.0748983
-0.0749039
-0.0747778
-0.0747666
-0.0749876
-0.0754362
-0.0760973
-0.0769928
-0.0781533
-0.0796067
-0.0813724
-0.0834567
-0.0858514
-0.088533
-0.0914652
-0.0946018
-0.097891
-0.101279
-0.104714
-0.108147
-0.111538
-0.114849
-0.118052
-0.121124
-0.124048
-0.126809
-0.129397
-0.131806
-0.134029
-0.136061
-0.137899
-0.139538
-0.140975
-0.142203
-0.143218
-0.144014
-0.144583
-0.144917
-0.145008
-0.144843
-0.144412
-0.143702
-0.142697
-0.14138
-0.139729
-0.137732
-0.135404
-0.132751
-0.129744
-0.126367
-0.122606
-0.118452
-0.113896
-0.108934
-0.103561
-0.0977789
-0.0915896
-0.0849998
-0.0780196
-0.0706632
-0.0629485
-0.0548975
-0.0465364
-0.0378948
-0.0290062
-0.019907
-0.0106366
-0.0012365
0.00825026
0.0177795
0.0273069
0.0367882
0.0461803
0.0554419
0.0645336
0.0734189
0.0820644
0.0904402
0.0985203
0.106282
0.113708
0.120784
0.127499
0.133847
0.139825
0.145422
0.150628
0.155456
0.159926
0.164052
0.167842
0.171312
0.174474
0.177343
0.179934
0.182263
0.184344
0.186193
0.187825
0.189254
0.190495
0.191562
0.192467
0.193224
0.193842
0.194334
0.194711
0.19498
0.195153
0.195236
0.195238
0.195165
0.195026
0.194825
0.194568
0.194262
0.193911
0.19352
0.193094
0.192637
0.192154
0.191649
0.191126
0.190588
0.190041
0.189487
0.18893
0.188373
0.18782
0.187273
0.186736
0.186211
0.185701
0.185207
0.184724
0.184255
0.183803
0.183368
0.182949
0.182549
0.182167
0.181804
0.181459
0.181133
0.180825
0.180533
0.180258
0.179998
0.179754
0.179523
0.179307
0.179103
0.178911
0.178731
0.178563
0.178405
0.178257
0.17812
0.177993
0.177876
0.177771
0.177678
0.177599
0.177536
0.177493
0.177474
0.177485
0.177536
0.17764
0.177817
0.178092
0.178511
0.179136
0.180091
0.18152
0.183911
0.187172
-0.0709736
-0.0720947
-0.073033
-0.0734772
-0.0736217
-0.0737035
-0.0738853
-0.0742586
-0.0748698
-0.0757503
-0.0769256
-0.0784116
-0.0802112
-0.0823139
-0.0846971
-0.0873287
-0.0901696
-0.0931773
-0.0963083
-0.0995199
-0.102772
-0.10603
-0.10926
-0.112435
-0.115531
-0.118529
-0.121413
-0.124168
-0.126784
-0.129251
-0.131562
-0.133709
-0.135687
-0.13749
-0.139112
-0.140548
-0.141791
-0.142836
-0.143674
-0.144298
-0.1447
-0.144871
-0.144799
-0.144475
-0.143888
-0.143023
-0.141865
-0.140397
-0.138603
-0.136478
-0.134019
-0.13121
-0.128038
-0.124492
-0.120561
-0.116236
-0.111511
-0.106382
-0.100847
-0.0949081
-0.0885706
-0.0818429
-0.0747374
-0.0672705
-0.0594624
-0.0513373
-0.0429234
-0.0342521
-0.0253584
-0.0162799
-0.00705664
0.00226967
0.011656
0.021059
0.0304353
0.0397423
0.048939
0.0579861
0.066847
0.075488
0.0838788
0.0919924
0.099806
0.1073
0.114461
0.121275
0.127738
0.13384
0.139577
0.144948
0.149959
0.15462
0.158936
0.16292
0.166581
0.169933
0.172989
0.175763
0.178271
0.180528
0.182547
0.184344
0.185933
0.187328
0.188543
0.189591
0.190485
0.191235
0.191854
0.192352
0.192738
0.193022
0.193213
0.193318
0.193346
0.193302
0.193194
0.193028
0.192809
0.192543
0.192234
0.191888
0.19151
0.191103
0.190672
0.190221
0.189754
0.189275
0.188787
0.188294
0.187799
0.187305
0.186814
0.186331
0.185856
0.185393
0.184941
0.1845
0.184069
0.183653
0.183249
0.182859
0.182483
0.182124
0.18178
0.181452
0.181139
0.180842
0.18056
0.180292
0.180038
0.179797
0.17957
0.179354
0.179151
0.178959
0.178778
0.178608
0.178448
0.178298
0.178158
0.178029
0.17791
0.177802
0.177706
0.177625
0.177559
0.177513
0.177491
0.1775
0.177548
0.177649
0.177819
0.178086
0.178487
0.179079
0.17996
0.181221
0.183175
0.185444
-0.067658
-0.0693177
-0.0709659
-0.0719605
-0.072577
-0.0731252
-0.0737646
-0.0745791
-0.0756181
-0.0769103
-0.078468
-0.0802905
-0.0823654
-0.0846717
-0.0871818
-0.0898647
-0.0926878
-0.0956186
-0.0986255
-0.101679
-0.10475
-0.107814
-0.110848
-0.113831
-0.116745
-0.119574
-0.122305
-0.124924
-0.127422
-0.12979
-0.132019
-0.134103
-0.136035
-0.137809
-0.139417
-0.140853
-0.142111
-0.143183
-0.14406
-0.144736
-0.145199
-0.145441
-0.14545
-0.145215
-0.144724
-0.143964
-0.142921
-0.141582
-0.139935
-0.137968
-0.13567
-0.133028
-0.130028
-0.126658
-0.122907
-0.118766
-0.114227
-0.109284
-0.103936
-0.0981823
-0.0920274
-0.0854784
-0.0785466
-0.0712472
-0.0635993
-0.0556262
-0.0473548
-0.038816
-0.0300439
-0.0210754
-0.0119501
-0.00270937
0.00660422
0.0159474
0.0252769
0.0345502
0.0437261
0.0527652
0.0616306
0.0702882
0.0787072
0.0868603
0.0947237
0.102278
0.109506
0.116396
0.122938
0.129129
0.134967
0.140451
0.145583
0.150368
0.154812
0.158925
0.162717
0.1662
0.169388
0.172293
0.17493
0.177314
0.179459
0.181379
0.183088
0.184601
0.18593
0.187089
0.18809
0.188945
0.189666
0.190261
0.190743
0.191119
0.191399
0.191591
0.191702
0.19174
0.191711
0.191621
0.191477
0.191283
0.191046
0.190769
0.190458
0.190118
0.189752
0.189364
0.188958
0.188539
0.188109
0.187673
0.187232
0.186791
0.186351
0.185915
0.185486
0.185064
0.184651
0.184245
0.18385
0.183466
0.183093
0.182732
0.182383
0.182047
0.181724
0.181415
0.181118
0.180835
0.180564
0.180305
0.180059
0.179825
0.179602
0.17939
0.179188
0.178998
0.178817
0.178646
0.178486
0.178334
0.178193
0.178061
0.177939
0.177829
0.17773
0.177646
0.177577
0.177527
0.177501
0.177505
0.177546
0.177638
0.177796
0.178044
0.178414
0.178951
0.179727
0.180785
0.182286
0.183769
-0.0654054
-0.0674941
-0.0697414
-0.0712778
-0.0723747
-0.0733735
-0.0744428
-0.0756659
-0.0770873
-0.0787258
-0.0805827
-0.0826479
-0.0849041
-0.0873293
-0.0898993
-0.0925884
-0.0953713
-0.0982229
-0.10112
-0.10404
-0.106961
-0.109866
-0.112737
-0.115558
-0.118315
-0.120995
-0.123587
-0.126081
-0.128468
-0.13074
-0.132889
-0.134908
-0.13679
-0.138528
-0.140115
-0.141545
-0.142809
-0.1439
-0.144809
-0.145528
-0.146046
-0.146354
-0.146438
-0.146289
-0.145893
-0.145236
-0.144306
-0.143089
-0.14157
-0.139738
-0.137578
-0.135077
-0.13222
-0.128995
-0.12539
-0.121394
-0.116998
-0.112197
-0.106986
-0.101365
-0.095336
-0.0889065
-0.0820862
-0.0748897
-0.0673356
-0.0594465
-0.0512492
-0.0427744
-0.0340561
-0.0251314
-0.0160402
-0.00682415
0.00247378
0.0118099
0.0211404
0.0304224
0.0396141
0.0486758
0.0575702
0.0662627
0.0747222
0.0829209
0.0908347
0.0984433
0.10573
0.112681
0.119289
0.125548
0.131456
0.137013
0.14222
0.147083
0.151608
0.155804
0.159681
0.163251
0.166526
0.16952
0.172246
0.174719
0.176952
0.17896
0.180756
0.182355
0.183769
0.185011
0.186094
0.187029
0.187828
0.1885
0.189056
0.189505
0.189856
0.190118
0.190297
0.190401
0.190436
0.19041
0.190327
0.190194
0.190016
0.189797
0.189542
0.189257
0.188945
0.188609
0.188255
0.187886
0.187505
0.187115
0.18672
0.186322
0.185924
0.185528
0.185137
0.184751
0.184371
0.183998
0.183633
0.183277
0.182931
0.182595
0.18227
0.181955
0.181652
0.181359
0.181078
0.180808
0.180548
0.1803
0.180062
0.179834
0.179616
0.179408
0.17921
0.179022
0.178842
0.178672
0.178511
0.17836
0.178217
0.178083
0.17796
0.177847
0.177746
0.177658
0.177585
0.177531
0.177499
0.177495
0.177528
0.177607
0.177746
0.177966
0.178294
0.17876
0.179412
0.180257
0.181358
0.182265
-0.0650896
-0.0673728
-0.0699109
-0.0717936
-0.0732469
-0.0745939
-0.0759921
-0.0775166
-0.0792061
-0.0810747
-0.0831194
-0.0853273
-0.0876801
-0.0901571
-0.0927368
-0.095398
-0.0981203
-0.100885
-0.103673
-0.106468
-0.109254
-0.112019
-0.114747
-0.117427
-0.120049
-0.122601
-0.125076
-0.127463
-0.129755
-0.131945
-0.134026
-0.13599
-0.13783
-0.13954
-0.141113
-0.14254
-0.143814
-0.144927
-0.14587
-0.146632
-0.147205
-0.147576
-0.147734
-0.147667
-0.147361
-0.146803
-0.145978
-0.144873
-0.143471
-0.141759
-0.139721
-0.137344
-0.134612
-0.131511
-0.128028
-0.124151
-0.119871
-0.11518
-0.110073
-0.104549
-0.0986084
-0.0922581
-0.0855073
-0.07837
-0.0708646
-0.0630138
-0.0548445
-0.0463877
-0.037678
-0.0287533
-0.019654
-0.0104228
-0.00110359
0.00825915
0.0176209
0.0269377
0.0361675
0.0452697
0.0542066
0.0629433
0.0714484
0.0796938
0.0876554
0.0953124
0.102648
0.10965
0.11631
0.122622
0.128583
0.134194
0.139456
0.144376
0.14896
0.153217
0.157157
0.160791
0.164131
0.167191
0.169984
0.172524
0.174825
0.176901
0.178765
0.180431
0.181912
0.183221
0.18437
0.18537
0.186233
0.186968
0.187586
0.188097
0.188508
0.188828
0.189064
0.189225
0.189316
0.189343
0.189314
0.189233
0.189105
0.188936
0.18873
0.188492
0.188226
0.187936
0.187626
0.187299
0.18696
0.18661
0.186254
0.185893
0.185531
0.18517
0.184811
0.184455
0.184105
0.18376
0.183421
0.183091
0.182768
0.182454
0.18215
0.181854
0.181568
0.181291
0.181024
0.180766
0.180518
0.180279
0.180049
0.179828
0.179617
0.179414
0.179219
0.179034
0.178856
0.178688
0.178527
0.178375
0.178232
0.178098
0.177973
0.177858
0.177753
0.177662
0.177585
0.177525
0.177486
0.177474
0.177494
0.177556
0.177672
0.177858
0.178134
0.178519
0.179041
0.179681
0.180446
0.180918
-0.0666204
-0.0688548
-0.0714004
-0.0734153
-0.0750616
-0.0766143
-0.0782088
-0.079908
-0.0817441
-0.0837279
-0.0858555
-0.0881142
-0.0904869
-0.0929549
-0.0954996
-0.0981033
-0.100749
-0.103421
-0.106106
-0.108789
-0.111459
-0.114104
-0.116715
-0.11928
-0.121792
-0.124242
-0.126622
-0.128925
-0.131144
-0.133271
-0.135299
-0.137223
-0.139036
-0.140729
-0.142297
-0.143731
-0.145023
-0.146164
-0.147145
-0.147956
-0.148586
-0.149024
-0.149256
-0.149271
-0.149055
-0.148592
-0.147868
-0.146868
-0.145575
-0.143974
-0.14205
-0.139785
-0.137164
-0.134173
-0.130796
-0.12702
-0.122835
-0.118232
-0.113205
-0.107751
-0.101871
-0.0955698
-0.088857
-0.0817464
-0.0742562
-0.0664095
-0.0582338
-0.0497608
-0.0410262
-0.0320688
-0.0229305
-0.013655
-0.00428738
0.00512653
0.0145411
0.0239116
0.0331949
0.04235
0.0513386
0.0601256
0.0686791
0.0769711
0.0849772
0.0926775
0.100056
0.1071
0.113802
0.120155
0.126158
0.13181
0.137115
0.142079
0.146707
0.15101
0.154997
0.158679
0.162069
0.16518
0.168025
0.170618
0.172973
0.175103
0.177021
0.178742
0.180279
0.181642
0.182846
0.1839
0.184817
0.185606
0.186277
0.18684
0.187303
0.187674
0.187961
0.18817
0.18831
0.188385
0.188403
0.188367
0.188285
0.18816
0.187997
0.187801
0.187575
0.187325
0.187054
0.186765
0.186461
0.186147
0.185824
0.185496
0.185165
0.184833
0.184503
0.184174
0.183849
0.183529
0.183214
0.182906
0.182604
0.18231
0.182024
0.181746
0.181476
0.181214
0.18096
0.180714
0.180476
0.180247
0.180025
0.179812
0.179606
0.179408
0.179218
0.179035
0.178861
0.178694
0.178535
0.178383
0.17824
0.178105
0.177978
0.177861
0.177754
0.177659
0.177577
0.177511
0.177464
0.177441
0.177447
0.177489
0.177578
0.177725
0.177943
0.178244
0.178636
0.179086
0.179568
0.179708
-0.0694144
-0.0714473
-0.0738094
-0.0757847
-0.0774762
-0.0791013
-0.0807696
-0.0825314
-0.084412
-0.0864197
-0.0885505
-0.0907928
-0.0931313
-0.0955497
-0.0980313
-0.10056
-0.103123
-0.105705
-0.108294
-0.11088
-0.113451
-0.115999
-0.118514
-0.120989
-0.123416
-0.125788
-0.128097
-0.130338
-0.132503
-0.134587
-0.136583
-0.138484
-0.140285
-0.141976
-0.143553
-0.145005
-0.146326
-0.147505
-0.148533
-0.1494
-0.150094
-0.150603
-0.150915
-0.151014
-0.150888
-0.150521
-0.149897
-0.149
-0.147812
-0.146318
-0.144499
-0.14234
-0.139822
-0.136929
-0.133646
-0.129958
-0.125853
-0.12132
-0.116354
-0.110951
-0.105109
-0.0988345
-0.0921357
-0.0850266
-0.0775259
-0.0696572
-0.0614489
-0.0529338
-0.0441488
-0.0351344
-0.0259337
-0.0165922
-0.00715647
0.00232638
0.0118095
0.0212468
0.0305945
0.0398109
0.048857
0.0576973
0.0663
0.0746373
0.0826857
0.0904258
0.0978415
0.104921
0.111656
0.118042
0.124076
0.12976
0.135097
0.140093
0.144755
0.149092
0.153114
0.156833
0.160262
0.163412
0.166298
0.168933
0.17133
0.173504
0.175467
0.177234
0.178816
0.180226
0.181475
0.182577
0.18354
0.184375
0.185093
0.185701
0.18621
0.186626
0.186957
0.187211
0.187394
0.187513
0.187572
0.187578
0.187535
0.18745
0.187325
0.187167
0.186978
0.186764
0.186527
0.186271
0.186
0.185716
0.185424
0.185124
0.184821
0.184516
0.18421
0.183905
0.183604
0.183305
0.183011
0.182723
0.18244
0.182164
0.181895
0.181632
0.181376
0.181128
0.180887
0.180652
0.180425
0.180205
0.179991
0.179785
0.179586
0.179393
0.179208
0.179029
0.178857
0.178693
0.178535
0.178384
0.178241
0.178105
0.177978
0.177859
0.177749
0.17765
0.177563
0.17749
0.177434
0.177398
0.177388
0.177409
0.177467
0.177572
0.17773
0.177945
0.178214
0.178492
0.178737
0.17862
-0.0728421
-0.0745939
-0.0766636
-0.0784831
-0.0801103
-0.0817075
-0.0833585
-0.0851013
-0.0869547
-0.0889243
-0.091006
-0.0931894
-0.0954607
-0.0978052
-0.100208
-0.102655
-0.105133
-0.107629
-0.110133
-0.112635
-0.115125
-0.117594
-0.120036
-0.122443
-0.124808
-0.127124
-0.129386
-0.131587
-0.133721
-0.135783
-0.137766
-0.139663
-0.141469
-0.143176
-0.144776
-0.146261
-0.147623
-0.148852
-0.149938
-0.150869
-0.151635
-0.152223
-0.152618
-0.152807
-0.152775
-0.152505
-0.151981
-0.151186
-0.150102
-0.148711
-0.146995
-0.144935
-0.142513
-0.139711
-0.136512
-0.132901
-0.128864
-0.124389
-0.11947
-0.1141
-0.10828
-0.102014
-0.095311
-0.0881843
-0.0806535
-0.0727432
-0.0644829
-0.0559068
-0.0470534
-0.0379647
-0.0286857
-0.0192638
-0.00974716
-0.00018435
0.00937632
0.0188876
0.0283047
0.0375849
0.0466892
0.0555824
0.0642328
0.0726132
0.0807003
0.0884747
0.0959214
0.103029
0.10979
0.1162
0.122258
0.127964
0.133324
0.138344
0.14303
0.147392
0.151441
0.155188
0.158645
0.161827
0.164745
0.167413
0.169846
0.172056
0.174057
0.175862
0.177483
0.178933
0.180223
0.181365
0.182369
0.183246
0.184004
0.184654
0.185204
0.185661
0.186033
0.186327
0.186549
0.186706
0.186804
0.186847
0.186842
0.186792
0.186703
0.186579
0.186424
0.186241
0.186036
0.18581
0.185568
0.185313
0.185047
0.184773
0.184495
0.184213
0.18393
0.183647
0.183365
0.183087
0.182812
0.182541
0.182276
0.182016
0.181762
0.181514
0.181272
0.181036
0.180806
0.180583
0.180366
0.180155
0.179949
0.17975
0.179557
0.179371
0.17919
0.179015
0.178847
0.178685
0.178529
0.178379
0.178237
0.178101
0.177972
0.177851
0.177738
0.177635
0.177543
0.177462
0.177396
0.177348
0.17732
0.177317
0.177344
0.177405
0.177502
0.177633
0.177786
0.17791
0.177958
0.177641
-0.0763675
-0.0778049
-0.0795301
-0.081124
-0.0826153
-0.0841178
-0.0856913
-0.0873627
-0.0891446
-0.0910395
-0.0930428
-0.0951446
-0.0973325
-0.099593
-0.101912
-0.104277
-0.106675
-0.109095
-0.111527
-0.11396
-0.116386
-0.118797
-0.121187
-0.123547
-0.125872
-0.128156
-0.130393
-0.132577
-0.134702
-0.136763
-0.138753
-0.140666
-0.142496
-0.144234
-0.145874
-0.147407
-0.148823
-0.150114
-0.151269
-0.152275
-0.153121
-0.153794
-0.15428
-0.154563
-0.154628
-0.154458
-0.154035
-0.153342
-0.15236
-0.15107
-0.149452
-0.147487
-0.145156
-0.142438
-0.139315
-0.135772
-0.131792
-0.127364
-0.122478
-0.11713
-0.111318
-0.105046
-0.0983234
-0.0911644
-0.0835891
-0.0756231
-0.0672974
-0.0586477
-0.0497141
-0.0405408
-0.0311748
-0.0216651
-0.012062
-0.00241567
0.00722386
0.0168088
0.0262937
0.0356354
0.0447949
0.0537369
0.06243
0.0708472
0.0789656
0.0867669
0.0942366
0.101364
0.108143
0.114568
0.120641
0.126363
0.131737
0.136772
0.141474
0.145854
0.149922
0.15369
0.157171
0.160377
0.163321
0.166017
0.16848
0.170721
0.172754
0.174592
0.176247
0.177733
0.179059
0.180238
0.181279
0.182193
0.18299
0.183677
0.184264
0.184759
0.185168
0.185499
0.185759
0.185952
0.186085
0.186164
0.186192
0.186176
0.18612
0.186027
0.185903
0.18575
0.185573
0.185375
0.18516
0.18493
0.184689
0.184439
0.184183
0.183922
0.183659
0.183396
0.183133
0.182873
0.182615
0.182361
0.182111
0.181866
0.181626
0.181392
0.181162
0.180939
0.18072
0.180507
0.1803
0.180097
0.1799
0.179709
0.179522
0.179341
0.179165
0.178995
0.17883
0.178671
0.178517
0.178369
0.178227
0.178091
0.177962
0.177839
0.177723
0.177616
0.177517
0.177429
0.177353
0.17729
0.177244
0.177217
0.177211
0.177227
0.177265
0.177316
0.177361
0.17735
0.177233
0.17676
-0.0795622
-0.0806816
-0.0820483
-0.0833826
-0.0846975
-0.0860664
-0.0875283
-0.0890998
-0.0907876
-0.0925911
-0.0945045
-0.0965183
-0.0986207
-0.100799
-0.10304
-0.105331
-0.107661
-0.110019
-0.112393
-0.114776
-0.117158
-0.119532
-0.121891
-0.124227
-0.126536
-0.12881
-0.131045
-0.133234
-0.135372
-0.137452
-0.13947
-0.141417
-0.143288
-0.145075
-0.14677
-0.148365
-0.149849
-0.151213
-0.152447
-0.153537
-0.154471
-0.155236
-0.155817
-0.156198
-0.156362
-0.156293
-0.155972
-0.15538
-0.154498
-0.153306
-0.151783
-0.149907
-0.147659
-0.145018
-0.141963
-0.138477
-0.134544
-0.130151
-0.125288
-0.119949
-0.114133
-0.107844
-0.101091
-0.0938887
-0.0862587
-0.0782279
-0.0698287
-0.0610987
-0.0520802
-0.0428196
-0.033366
-0.0237697
-0.0140826
-0.00435676
0.00535699
0.0150099
0.0245557
0.0339513
0.0431572
0.0521384
0.060864
0.0693076
0.0774471
0.0852649
0.0927474
0.099885
0.106672
0.113104
0.119183
0.124911
0.130293
0.135335
0.140047
0.144439
0.14852
0.152303
0.155801
0.159026
0.161992
0.164712
0.1672
0.169468
0.171529
0.173397
0.175084
0.176602
0.177961
0.179174
0.18025
0.181199
0.18203
0.182753
0.183376
0.183906
0.184351
0.184717
0.18501
0.185238
0.185405
0.185516
0.185577
0.185593
0.185567
0.185504
0.185408
0.185283
0.185133
0.184961
0.184771
0.184564
0.184346
0.184118
0.183882
0.183641
0.183397
0.183152
0.182906
0.182662
0.18242
0.182181
0.181946
0.181715
0.181488
0.181266
0.181049
0.180837
0.180629
0.180426
0.180228
0.180034
0.179845
0.179661
0.179481
0.179306
0.179135
0.178969
0.178808
0.178652
0.178501
0.178354
0.178213
0.178078
0.177947
0.177823
0.177704
0.177592
0.177488
0.177392
0.177304
0.177228
0.177163
0.17711
0.177071
0.177044
0.177023
0.176998
0.176947
0.176817
0.176563
0.175966
-0.0821005
-0.0829187
-0.0839387
-0.0850056
-0.0861275
-0.0873461
-0.0886823
-0.0901437
-0.0917316
-0.0934423
-0.0952684
-0.0972001
-0.0992257
-0.101333
-0.103509
-0.105742
-0.108021
-0.110335
-0.112672
-0.115025
-0.117385
-0.119744
-0.122095
-0.124431
-0.126746
-0.129033
-0.131288
-0.133504
-0.135675
-0.137796
-0.139859
-0.141859
-0.143788
-0.145639
-0.147403
-0.149072
-0.150635
-0.152083
-0.153403
-0.154584
-0.155612
-0.156473
-0.157152
-0.157632
-0.157897
-0.157928
-0.157706
-0.157212
-0.156426
-0.155326
-0.153891
-0.152098
-0.149925
-0.14735
-0.144352
-0.140913
-0.137016
-0.132647
-0.127795
-0.122454
-0.116623
-0.110307
-0.103514
-0.0962622
-0.0885726
-0.0804737
-0.0719998
-0.0631903
-0.0540896
-0.044746
-0.0352101
-0.0255345
-0.0157726
-0.00597749
0.00379879
0.0135067
0.0230996
0.0325345
0.041772
0.0507776
0.0595211
0.0679768
0.0761235
0.0839446
0.0914275
0.0985633
0.105347
0.111776
0.117852
0.123578
0.128959
0.134002
0.138717
0.143114
0.147203
0.150997
0.154508
0.157748
0.160732
0.163472
0.165982
0.168274
0.170362
0.172258
0.173974
0.175522
0.176912
0.178157
0.179265
0.180248
0.181113
0.18187
0.182526
0.18309
0.183568
0.183968
0.184295
0.184555
0.184754
0.184897
0.184989
0.185034
0.185037
0.185003
0.184935
0.184836
0.184711
0.184563
0.184396
0.184212
0.184015
0.183807
0.18359
0.183368
0.183142
0.182913
0.182683
0.182455
0.182227
0.182003
0.181781
0.181563
0.181349
0.181138
0.180933
0.180731
0.180534
0.18034
0.180151
0.179966
0.179785
0.179608
0.179434
0.179265
0.1791
0.178939
0.178782
0.178629
0.17848
0.178336
0.178196
0.17806
0.177929
0.177803
0.177682
0.177566
0.177455
0.177351
0.177252
0.177161
0.177077
0.177
0.176928
0.176858
0.176782
0.176687
0.176547
0.176315
0.175944
0.175249
-0.0837326
-0.0843013
-0.0850045
-0.0858138
-0.0867429
-0.0878099
-0.0890209
-0.0903755
-0.09187
-0.0934975
-0.0952491
-0.0971138
-0.0990799
-0.101135
-0.103267
-0.105464
-0.107713
-0.110006
-0.11233
-0.114677
-0.117038
-0.119406
-0.121772
-0.124131
-0.126475
-0.128798
-0.131094
-0.133357
-0.135581
-0.137759
-0.139886
-0.141954
-0.143956
-0.145883
-0.147728
-0.14948
-0.151131
-0.152668
-0.154081
-0.155356
-0.15648
-0.157437
-0.158213
-0.158791
-0.159152
-0.159279
-0.159151
-0.158749
-0.158051
-0.157035
-0.155678
-0.153956
-0.151846
-0.149326
-0.146373
-0.142968
-0.139094
-0.134736
-0.129884
-0.124531
-0.118677
-0.112326
-0.105489
-0.098184
-0.0904334
-0.0822676
-0.0737227
-0.06484
-0.0556658
-0.0462501
-0.0366454
-0.0269058
-0.0170861
-0.00724042
0.00257876
0.0123215
0.021941
0.0313945
0.0406434
0.0496536
0.0583958
0.0668455
0.0749823
0.0827907
0.090259
0.0973794
0.104148
0.110562
0.116625
0.122339
0.127711
0.132748
0.13746
0.141857
0.145949
0.149749
0.153269
0.156522
0.159521
0.162279
0.164809
0.167123
0.169235
0.171157
0.172901
0.174477
0.175898
0.177174
0.178314
0.179328
0.180226
0.181016
0.181705
0.182302
0.182813
0.183245
0.183604
0.183896
0.184126
0.184299
0.184421
0.184495
0.184527
0.184519
0.184477
0.184404
0.184303
0.184179
0.184033
0.183871
0.183693
0.183504
0.183306
0.183101
0.182891
0.182678
0.182464
0.182249
0.182036
0.181824
0.181615
0.181409
0.181207
0.181008
0.180813
0.180622
0.180434
0.18025
0.18007
0.179893
0.17972
0.17955
0.179383
0.17922
0.17906
0.178904
0.178751
0.178601
0.178456
0.178313
0.178175
0.17804
0.177908
0.17778
0.177656
0.177536
0.17742
0.177307
0.177198
0.177092
0.176989
0.176887
0.176783
0.176673
0.176545
0.176385
0.176167
0.175844
0.175377
0.174603
-0.0842914
-0.0846871
-0.0851167
-0.085694
-0.086445
-0.0873718
-0.0884691
-0.0897304
-0.0911473
-0.0927099
-0.0944073
-0.0962273
-0.0981574
-0.100185
-0.102298
-0.104483
-0.10673
-0.109026
-0.111363
-0.113729
-0.116116
-0.118517
-0.120922
-0.123326
-0.12572
-0.128099
-0.130456
-0.132785
-0.135078
-0.13733
-0.139534
-0.141682
-0.143766
-0.145779
-0.147712
-0.149554
-0.151295
-0.152924
-0.15443
-0.155798
-0.157015
-0.158065
-0.158933
-0.159601
-0.160052
-0.160265
-0.160222
-0.1599
-0.159279
-0.158335
-0.157042
-0.155376
-0.153314
-0.150832
-0.147908
-0.144522
-0.140656
-0.136296
-0.131432
-0.126058
-0.120173
-0.113783
-0.1069
-0.0995425
-0.0917353
-0.0835102
-0.0749051
-0.0659631
-0.0567322
-0.0472637
-0.0376119
-0.0278321
-0.0179798
-0.00810963
0.00172558
0.011476
0.0210952
0.0305411
0.0397759
0.0487664
0.0574845
0.0659065
0.0740135
0.0817908
0.0892279
0.0963178
0.103057
0.109445
0.115483
0.121177
0.126532
0.131556
0.136258
0.140649
0.14474
0.148542
0.152068
0.155331
0.158342
0.161116
0.163664
0.166
0.168136
0.170083
0.171853
0.173458
0.174908
0.176214
0.177385
0.178432
0.179362
0.180184
0.180906
0.181535
0.182078
0.182542
0.182932
0.183255