/*--------------------------------*- C++ -*----------------------------------*\
  =========                 |
  \\      /  F ield         | OpenFOAM: The Open Source CFD Toolbox
   \\    /   O peration     | Website:  https://openfoam.org
    \\  /    A nd           | Version:  6
     \\/     M anipulation  |
\*---------------------------------------------------------------------------*/
FoamFile
{
    version     2.0;
    format      ascii;
    class       surfaceScalarField;
    location    "0.2";
    object      phi;
}
// * * * * * * * * * * * * * * * * * * * * * * * * * * * * * * * * * * * * * //

dimensions      [0 3 -1 0 0 0 0];

internalField   nonuniform List<scalar> 
24170
(
3.2567e-07
-6.82893e-09
3.19409e-07
6.26067e-09
3.15793e-07
3.61621e-09
3.0869e-07
7.10269e-09
3.01704e-07
6.98547e-09
2.96673e-07
5.03169e-09
2.93321e-07
3.35215e-09
2.90935e-07
2.38551e-09
2.8907e-07
1.86532e-09
2.87521e-07
1.54871e-09
2.86184e-07
1.33757e-09
2.84989e-07
1.19497e-09
2.8389e-07
1.09874e-09
2.82852e-07
1.03821e-09
2.81854e-07
9.97538e-10
2.80843e-07
1.01074e-09
2.79988e-07
8.55645e-10
1.03666e-09
2.78951e-07
3.50377e-07
-1.54814e-08
3.47809e-07
8.82948e-09
3.44047e-07
7.37732e-09
3.42176e-07
8.97413e-09
3.39975e-07
9.18637e-09
3.37457e-07
7.55011e-09
3.35078e-07
5.73085e-09
3.33038e-07
4.4255e-09
3.31334e-07
3.56952e-09
3.29897e-07
2.98584e-09
3.28658e-07
2.57664e-09
3.27562e-07
2.29025e-09
3.2657e-07
2.09096e-09
3.25648e-07
1.96044e-09
3.24772e-07
1.87347e-09
3.23907e-07
1.87561e-09
3.23017e-07
1.74602e-09
2.01005e-09
3.22043e-07
3.63433e-07
-1.26623e-08
3.66546e-07
5.71635e-09
3.66684e-07
7.23927e-09
3.66822e-07
8.83589e-09
3.66408e-07
9.60018e-09
3.65365e-07
8.59306e-09
3.64018e-07
7.0786e-09
3.62637e-07
5.80585e-09
3.61351e-07
4.85539e-09
3.60189e-07
4.14804e-09
3.5914e-07
3.62574e-09
3.58183e-07
3.24744e-09
3.57295e-07
2.97904e-09
3.56454e-07
2.80102e-09
3.55637e-07
2.69089e-09
3.54833e-07
2.67937e-09
3.53938e-07
2.64085e-09
2.92824e-09
3.5302e-07
3.89234e-07
-9.35725e-09
3.91438e-07
3.51246e-09
3.92345e-07
6.33156e-09
3.92973e-07
8.20827e-09
3.932e-07
9.37364e-09
3.9288e-07
8.91245e-09
3.92172e-07
7.78641e-09
3.91285e-07
6.69285e-09
3.90356e-07
5.7846e-09
3.89447e-07
5.05671e-09
3.88581e-07
4.4925e-09
3.87758e-07
4.07033e-09
3.86971e-07
3.76581e-09
3.86209e-07
3.56353e-09
3.85452e-07
3.44763e-09
3.84691e-07
3.43972e-09
3.83849e-07
3.48373e-09
3.78938e-09
3.82987e-07
4.18265e-07
-6.90949e-09
4.19389e-07
2.38808e-09
4.20246e-07
5.47481e-09
4.20968e-07
7.48635e-09
4.21475e-07
8.86652e-09
4.21567e-07
8.82102e-09
4.21287e-07
8.06621e-09
4.20777e-07
7.20296e-09
4.20151e-07
6.41053e-09
4.19476e-07
5.73101e-09
4.18789e-07
5.17984e-09
4.18104e-07
4.75491e-09
4.17426e-07
4.44436e-09
4.1675e-07
4.23974e-09
4.16064e-07
4.13289e-09
4.15363e-07
4.14124e-09
4.14599e-07
4.24752e-09
4.57554e-09
4.13813e-07
4.4903e-07
-5.03059e-09
4.49579e-07
1.83917e-09
4.50285e-07
4.76811e-09
4.51002e-07
6.77002e-09
4.51638e-07
8.23066e-09
4.51972e-07
8.4863e-09
4.51985e-07
8.05324e-09
4.51763e-07
7.42514e-09
4.51391e-07
6.78238e-09
4.50929e-07
6.19309e-09
4.50415e-07
5.69396e-09
4.49871e-07
5.29872e-09
4.49308e-07
5.00751e-09
4.48728e-07
4.81943e-09
4.48128e-07
4.73355e-09
4.47504e-07
4.76521e-09
4.46835e-07
4.91646e-09
5.25938e-09
4.46151e-07
4.81752e-07
-3.51038e-09
4.82025e-07
1.56575e-09
4.82591e-07
4.2025e-09
4.83258e-07
6.10286e-09
4.83936e-07
7.55228e-09
4.8441e-07
8.0128e-09
4.84622e-07
7.84148e-09
4.84617e-07
7.42972e-09
4.84454e-07
6.94532e-09
4.8418e-07
6.46766e-09
4.83828e-07
6.04529e-09
4.83424e-07
5.70296e-09
4.82981e-07
5.4505e-09
4.82507e-07
5.29367e-09
4.82003e-07
5.23722e-09
4.81473e-07
5.29508e-09
4.80913e-07
5.47689e-09
5.82199e-09
4.8035e-07
5.16743e-07
-2.29504e-09
5.16864e-07
1.44399e-09
5.17306e-07
3.76072e-09
5.17903e-07
5.50647e-09
5.18572e-07
6.88306e-09
5.19116e-07
7.46883e-09
5.19459e-07
7.49849e-09
5.19616e-07
7.27277e-09
5.19621e-07
6.93981e-09
5.19509e-07
6.58028e-09
5.19307e-07
6.24742e-09
5.19037e-07
5.97235e-09
5.18716e-07
5.7716e-09
5.18354e-07
5.65591e-09
5.17957e-07
5.63372e-09
5.17535e-07
5.71748e-09
5.17094e-07
5.91777e-09
6.25312e-09
5.16663e-07
5.54203e-07
-1.36382e-09
5.54234e-07
1.41271e-09
5.54575e-07
3.41902e-09
5.55097e-07
4.98473e-09
5.5573e-07
6.25057e-09
5.563e-07
6.89839e-09
5.56726e-07
7.073e-09
5.57e-07
6.9987e-09
5.57138e-07
6.80105e-09
5.57163e-07
6.55576e-09
5.57095e-07
6.31561e-09
5.56953e-07
6.11425e-09
5.56753e-07
5.97197e-09
5.56506e-07
5.9024e-09
5.56224e-07
5.91582e-09
5.55919e-07
6.0228e-09
5.55605e-07
6.23165e-09
6.54814e-09
5.5531e-07
5.94298e-07
-6.83818e-10
5.94285e-07
1.42545e-09
5.94555e-07
3.14909e-09
5.9501e-07
4.52963e-09
5.95595e-07
5.6657e-09
5.96165e-07
6.32814e-09
5.96639e-07
6.59929e-09
5.96996e-07
6.64179e-09
5.97238e-07
6.55857e-09
5.97377e-07
6.4168e-09
5.97427e-07
6.26545e-09
5.97404e-07
6.13771e-09
5.97321e-07
6.05506e-09
5.97191e-07
6.03215e-09
5.97027e-07
6.07947e-09
5.96845e-07
6.20536e-09
5.96662e-07
6.41487e-09
6.70639e-09
5.96503e-07
6.37212e-07
-2.14615e-10
6.3719e-07
1.44755e-09
6.37417e-07
2.92194e-09
6.3782e-07
4.12636e-09
6.38358e-07
5.12849e-09
6.38914e-07
5.77195e-09
6.39413e-07
6.0999e-09
6.39828e-07
6.22732e-09
6.4015e-07
6.23599e-09
6.40384e-07
6.18303e-09
6.40538e-07
6.11162e-09
6.40623e-07
6.05238e-09
6.40652e-07
6.02602e-09
6.40638e-07
6.04662e-09
6.40593e-07
6.12369e-09
6.40536e-07
6.26327e-09
6.40483e-07
6.46728e-09
6.7303e-09
6.40459e-07
5.7382e-07
4.90761e-11
5.73809e-07
1.45851e-09
5.73988e-07
2.74295e-09
5.74303e-07
3.81126e-09
5.74725e-07
4.70588e-09
5.75181e-07
5.31599e-09
5.75613e-07
5.66796e-09
5.75995e-07
5.84594e-09
5.76315e-07
5.91533e-09
5.76574e-07
5.92468e-09
5.76774e-07
5.91167e-09
5.76922e-07
5.90372e-09
5.77029e-07
5.91977e-09
5.77103e-07
5.97262e-09
5.77156e-07
6.07039e-09
5.77202e-07
6.21725e-09
5.77256e-07
6.41313e-09
6.65057e-09
5.77336e-07
6.99624e-07
2.4018e-10
6.99649e-07
1.43425e-09
6.9985e-07
2.54117e-09
7.00193e-07
3.46874e-09
7.00652e-07
4.24712e-09
7.01159e-07
4.80855e-09
7.0166e-07
5.16727e-09
7.02124e-07
5.38195e-09
7.02536e-07
5.50272e-09
7.02893e-07
5.56865e-09
7.03193e-07
5.61081e-09
7.03445e-07
5.65235e-09
7.03655e-07
5.70941e-09
7.03835e-07
5.79269e-09
7.03997e-07
5.90843e-09
7.04155e-07
6.05885e-09
7.04326e-07
6.24217e-09
6.45045e-09
7.04526e-07
8.52976e-07
3.48798e-10
8.53052e-07
1.35819e-09
8.53297e-07
2.29645e-09
8.53681e-07
3.08442e-09
8.54184e-07
3.74385e-09
8.5475e-07
4.24325e-09
8.55326e-07
4.5908e-09
8.55883e-07
4.82547e-09
8.56401e-07
4.98399e-09
8.56874e-07
5.09598e-09
8.573e-07
5.18532e-09
8.57682e-07
5.27004e-09
8.58029e-07
5.36271e-09
8.5835e-07
5.47128e-09
8.58659e-07
5.59978e-09
8.58969e-07
5.74871e-09
8.59296e-07
5.91513e-09
6.09171e-09
8.59655e-07
1.03989e-06
3.75842e-10
1.04004e-06
1.21526e-09
1.04035e-06
1.98581e-09
1.0408e-06
2.6351e-09
1.04136e-06
3.17686e-09
1.042e-06
3.60391e-09
1.04267e-06
3.92345e-09
1.04334e-06
4.16041e-09
1.04398e-06
4.34022e-09
1.04459e-06
4.48382e-09
1.04517e-06
4.60799e-09
1.04571e-06
4.72531e-09
1.04623e-06
4.84433e-09
1.04673e-06
4.97001e-09
1.04723e-06
5.1042e-09
1.04773e-06
5.24603e-09
1.04826e-06
5.3921e-09
5.5363e-09
1.04881e-06
1.26772e-06
3.33578e-10
1.26794e-06
9.93273e-10
1.26834e-06
1.58745e-09
1.26888e-06
2.09174e-09
1.26955e-06
2.51456e-09
1.27029e-06
2.86025e-09
1.27108e-06
3.13639e-09
1.27188e-06
3.35833e-09
1.27268e-06
3.54214e-09
1.27346e-06
3.70102e-09
1.27422e-06
3.8452e-09
1.27497e-06
3.98201e-09
1.2757e-06
4.11604e-09
1.27642e-06
4.24941e-09
1.27714e-06
4.3821e-09
1.27787e-06
4.51235e-09
1.27863e-06
4.63688e-09
4.75101e-09
1.27941e-06
1.54541e-06
2.38517e-10
1.54572e-06
6.86245e-10
1.54623e-06
1.08229e-09
1.54689e-06
1.42271e-09
1.54769e-06
1.71519e-09
1.54859e-06
1.96663e-09
1.54954e-06
2.18328e-09
1.55053e-06
2.37323e-09
1.55152e-06
2.54439e-09
1.55252e-06
2.70287e-09
1.55351e-06
2.85288e-09
1.5545e-06
2.99693e-09
1.55548e-06
3.13602e-09
1.55646e-06
3.26979e-09
1.55744e-06
3.39679e-09
1.55844e-06
3.51478e-09
1.55946e-06
3.6209e-09
3.71182e-09
1.5605e-06
1.8839e-06
1.04749e-10
1.88429e-06
2.93712e-10
1.88492e-06
4.52718e-10
1.88575e-06
5.93709e-10
1.88674e-06
7.28571e-10
1.88784e-06
8.62868e-10
1.88902e-06
9.99209e-10
1.89026e-06
1.13901e-09
1.89152e-06
1.28222e-09
1.89279e-06
1.42768e-09
1.89407e-06
1.5736e-09
1.89535e-06
1.71786e-09
1.89663e-06
1.85805e-09
1.89791e-06
1.99158e-09
1.89919e-06
2.11582e-09
1.90048e-06
2.22814e-09
1.90177e-06
2.32608e-09
2.4073e-09
1.90308e-06
2.29649e-06
-4.98224e-11
2.29695e-06
-1.69379e-10
2.29772e-06
-3.13222e-10
2.29874e-06
-4.3341e-10
2.29998e-06
-5.06837e-10
2.30137e-06
-5.30776e-10
2.30288e-06
-5.05786e-10
2.30445e-06
-4.37177e-10
2.30607e-06
-3.34618e-10
2.30771e-06
-2.0829e-10
2.30935e-06
-6.70748e-11
2.31098e-06
8.14903e-11
2.31261e-06
2.31063e-10
2.31423e-06
3.76431e-10
2.31583e-06
5.13409e-10
2.31742e-06
6.38702e-10
2.31899e-06
7.49775e-10
8.4472e-10
2.32056e-06
1.68113e-06
-1.05319e-10
1.68139e-06
-4.32862e-10
1.68192e-06
-8.38772e-10
1.68267e-06
-1.18674e-09
1.68361e-06
-1.44475e-09
1.68469e-06
-1.61102e-09
1.68586e-06
-1.68209e-09
1.68709e-06
-1.66895e-09
1.68835e-06
-1.59214e-09
1.68961e-06
-1.4709e-09
1.69087e-06
-1.32081e-09
1.6921e-06
-1.1545e-09
1.69332e-06
-9.82029e-10
1.69451e-06
-8.11097e-10
1.69567e-06
-6.4739e-10
1.6968e-06
-4.95011e-10
1.69791e-06
-3.56815e-10
-2.34776e-10
1.69899e-06
1.46336e-06
-1.28871e-11
1.46345e-06
-5.21732e-10
1.46385e-06
-1.24032e-09
1.46451e-06
-1.84403e-09
1.46538e-06
-2.31458e-09
1.46641e-06
-2.64204e-09
1.46754e-06
-2.80823e-09
1.46871e-06
-2.83653e-09
1.46988e-06
-2.76611e-09
1.47104e-06
-2.62886e-09
1.47217e-06
-2.44884e-09
1.47326e-06
-2.24505e-09
1.47431e-06
-2.03191e-09
1.47532e-06
-1.81974e-09
1.47628e-06
-1.61568e-09
1.47721e-06
-1.42453e-09
1.47811e-06
-1.24931e-09
-1.09189e-09
1.47896e-06
1.27363e-06
3.67428e-10
1.27351e-06
-3.93991e-10
1.27381e-06
-1.54452e-09
1.27442e-06
-2.45248e-09
1.27529e-06
-3.18287e-09
1.27633e-06
-3.69022e-09
1.27746e-06
-3.93319e-09
1.27859e-06
-3.96844e-09
1.27969e-06
-3.8675e-09
1.28074e-06
-3.67939e-09
1.28173e-06
-3.43885e-09
1.28266e-06
-3.17238e-09
1.28353e-06
-2.8988e-09
1.28434e-06
-2.63049e-09
1.2851e-06
-2.37527e-09
1.28581e-06
-2.13786e-09
1.28648e-06
-1.92083e-09
-1.72542e-09
1.28712e-06
1.10825e-06
1.21101e-09
1.1079e-06
-4.64732e-11
1.10818e-06
-1.82259e-09
1.10882e-06
-3.0967e-09
1.10978e-06
-4.14041e-09
1.11091e-06
-4.82042e-09
1.11206e-06
-5.08386e-09
1.11316e-06
-5.06133e-09
1.11416e-06
-4.87272e-09
1.11507e-06
-4.58696e-09
1.11588e-06
-4.2502e-09
1.1166e-06
-3.89593e-09
1.11725e-06
-3.54574e-09
1.11783e-06
-3.21205e-09
1.11836e-06
-2.9016e-09
1.11884e-06
-2.61766e-09
1.11928e-06
-2.36117e-09
-2.13197e-09
1.11968e-06
9.64049e-07
2.68392e-09
9.63544e-07
4.57703e-10
9.63906e-07
-2.18429e-09
9.64692e-07
-3.88238e-09
9.65825e-07
-5.27342e-09
9.67066e-07
-6.06177e-09
9.6822e-07
-6.23731e-09
9.6922e-07
-6.06152e-09
9.70061e-07
-5.71379e-09
9.70755e-07
-5.28064e-09
9.71321e-07
-4.81673e-09
9.71784e-07
-4.3588e-09
9.72165e-07
-3.92697e-09
9.72483e-07
-3.53012e-09
9.72753e-07
-3.17123e-09
9.72985e-07
-2.85019e-09
9.73189e-07
-2.56508e-09
-2.31352e-09
9.73371e-07
8.38144e-07
5.07467e-09
8.37753e-07
8.49058e-10
8.38381e-07
-2.81168e-09
8.39414e-07
-4.91593e-09
8.40763e-07
-6.62266e-09
8.42073e-07
-7.37109e-09
8.43135e-07
-7.29943e-09
8.4393e-07
-6.85659e-09
8.44496e-07
-6.2795e-09
8.44877e-07
-5.66226e-09
8.4512e-07
-5.05912e-09
8.45262e-07
-4.50169e-09
8.45337e-07
-4.0018e-09
8.45367e-07
-3.56005e-09
8.45369e-07
-3.17264e-09
8.45353e-07
-2.83446e-09
8.45328e-07
-2.5398e-09
-2.28349e-09
8.45298e-07
7.27634e-07
9.16879e-09
7.28121e-07
3.61974e-10
7.29323e-07
-4.01295e-09
7.30707e-07
-6.30007e-09
7.32238e-07
-8.1542e-09
7.33475e-07
-8.60762e-09
7.34268e-07
-8.09276e-09
7.34686e-07
-7.27448e-09
7.34831e-07
-6.42412e-09
7.3479e-07
-5.62118e-09
7.34632e-07
-4.90158e-09
7.34409e-07
-4.27865e-09
7.34155e-07
-3.74776e-09
7.33892e-07
-3.29679e-09
7.33632e-07
-2.91331e-09
7.33385e-07
-2.58664e-09
7.33152e-07
-2.30754e-09
-2.06803e-09
7.32937e-07
6.30219e-07
1.59561e-08
6.3275e-07
-2.16838e-09
6.34735e-07
-5.99821e-09
6.3652e-07
-8.08519e-09
6.38093e-07
-9.72686e-09
6.38992e-07
-9.50707e-09
6.39241e-07
-8.34118e-09
6.39049e-07
-7.08275e-09
6.38604e-07
-5.97923e-09
6.38034e-07
-5.0517e-09
6.37422e-07
-4.2887e-09
6.36813e-07
-3.67006e-09
6.36234e-07
-3.16875e-09
6.35696e-07
-2.75888e-09
6.35203e-07
-2.42034e-09
6.34755e-07
-2.13859e-09
6.3435e-07
-1.90255e-09
-1.70218e-09
6.33984e-07
5.47192e-07
2.33107e-08
5.51825e-07
-6.80165e-09
5.53526e-07
-7.69866e-09
5.55232e-07
-9.79203e-09
5.56331e-07
-1.08254e-08
5.56355e-07
-9.53136e-09
5.55611e-07
-7.5972e-09
5.545e-07
-5.97121e-09
5.53285e-07
-4.76448e-09
5.52103e-07
-3.86976e-09
5.51012e-07
-3.19749e-09
5.50029e-07
-2.68753e-09
5.49155e-07
-2.29407e-09
5.48379e-07
-1.98335e-09
5.47692e-07
-1.73306e-09
5.47083e-07
-1.5297e-09
5.46544e-07
-1.36396e-09
-1.22726e-09
5.46069e-07
4.91615e-07
1.44567e-08
4.907e-07
-5.88702e-09
4.87265e-07
-4.26319e-09
4.86304e-07
-8.83113e-09
4.84861e-07
-9.38266e-09
4.82523e-07
-7.19318e-09
4.7988e-07
-4.95454e-09
4.77383e-07
-3.4739e-09
4.75202e-07
-2.58333e-09
4.73351e-07
-2.01887e-09
4.71789e-07
-1.63541e-09
4.70465e-07
-1.36346e-09
4.69333e-07
-1.16267e-09
4.68358e-07
-1.00783e-09
4.6751e-07
-8.8486e-10
4.66768e-07
-7.88573e-10
4.66125e-07
-7.20681e-10
-7.27313e-10
4.65625e-07
4.34724e-07
4.28837e-07
4.24574e-07
4.15743e-07
4.0636e-07
3.99167e-07
3.94213e-07
3.90739e-07
3.88155e-07
3.86136e-07
3.84501e-07
3.83138e-07
3.81975e-07
3.80967e-07
3.80082e-07
3.79294e-07
3.78573e-07
3.77846e-07
1.76887e-08
-1.76887e-08
3.13024e-08
-1.36138e-08
3.7856e-08
-6.55352e-09
3.77813e-08
7.46957e-11
3.22426e-08
5.53863e-09
2.30109e-08
9.23169e-09
1.17442e-08
1.12667e-08
-6.7602e-10
1.24202e-08
-1.42269e-08
1.35508e-08
-2.91503e-08
1.49234e-08
-4.55595e-08
1.64092e-08
-6.34458e-08
1.78864e-08
-8.26869e-08
1.92411e-08
-1.03073e-07
2.03865e-08
-1.24339e-07
2.12656e-08
-1.46189e-07
2.18495e-08
-1.68322e-07
2.2134e-08
-1.90456e-07
2.21339e-08
-2.12335e-07
2.18782e-08
-2.33739e-07
2.14048e-08
-2.54495e-07
2.07556e-08
-2.74468e-07
1.99728e-08
-2.93564e-07
1.90961e-08
-3.11725e-07
1.8161e-08
-3.28922e-07
1.71974e-08
-3.45152e-07
1.62295e-08
-3.60428e-07
1.52758e-08
-3.74777e-07
1.43494e-08
-3.88236e-07
1.34591e-08
-4.00846e-07
1.26095e-08
-4.12648e-07
1.18026e-08
-4.23686e-07
1.10375e-08
-4.33997e-07
1.03119e-08
-4.43619e-07
9.62194e-09
-4.52583e-07
8.96313e-09
-4.60913e-07
8.33031e-09
-4.68631e-07
7.71802e-09
-4.75752e-07
7.12064e-09
-4.82284e-07
6.53252e-09
-4.88232e-07
5.94805e-09
-4.93594e-07
5.36168e-09
-4.98362e-07
4.76804e-09
-5.02524e-07
4.16208e-09
-5.06063e-07
3.53918e-09
-5.08958e-07
2.89481e-09
-5.11183e-07
2.22469e-09
-5.1271e-07
1.52743e-09
-5.13519e-07
8.09018e-10
-5.13609e-07
8.95837e-11
-5.13016e-07
-5.9304e-10
-5.11777e-07
-1.23828e-09
-5.09898e-07
-1.87916e-09
-5.07368e-07
-2.52995e-09
-5.04171e-07
-3.19693e-09
-5.00289e-07
-3.88257e-09
-4.95701e-07
-4.58734e-09
-4.90391e-07
-5.31051e-09
-4.8434e-07
-6.0506e-09
-4.77535e-07
-6.80546e-09
-4.69962e-07
-7.57244e-09
-4.61614e-07
-8.34841e-09
-4.52484e-07
-9.12978e-09
-4.42572e-07
-9.9126e-09
-4.31879e-07
-1.06926e-08
-4.20414e-07
-1.14652e-08
-4.08188e-07
-1.22256e-08
-3.95219e-07
-1.29689e-08
-3.81529e-07
-1.36903e-08
-3.67144e-07
-1.43848e-08
-3.52096e-07
-1.50478e-08
-3.36422e-07
-1.56748e-08
-3.2016e-07
-1.62615e-08
-3.03356e-07
-1.68043e-08
-2.86056e-07
-1.72999e-08
-2.6831e-07
-1.77455e-08
-2.50171e-07
-1.81389e-08
-2.31693e-07
-1.84786e-08
-2.12929e-07
-1.87635e-08
-1.93936e-07
-1.89934e-08
-1.74768e-07
-1.91682e-08
-1.55479e-07
-1.92889e-08
-1.36123e-07
-1.93563e-08
-1.16751e-07
-1.93718e-08
-9.74143e-08
-1.93365e-08
-7.81632e-08
-1.92512e-08
-5.90484e-08
-1.91148e-08
-4.01241e-08
-1.89243e-08
-2.14442e-08
-1.86799e-08
-3.03086e-09
-1.84134e-08
1.51247e-08
-1.81556e-08
3.30005e-08
-1.78757e-08
5.0557e-08
-1.75565e-08
6.77712e-08
-1.72142e-08
8.46261e-08
-1.68549e-08
1.01108e-07
-1.64824e-08
1.17208e-07
-1.60995e-08
1.32917e-07
-1.5709e-08
1.4823e-07
-1.5313e-08
1.63144e-07
-1.49138e-08
1.77657e-07
-1.45133e-08
1.9177e-07
-1.41132e-08
2.05485e-07
-1.3715e-08
2.18805e-07
-1.33201e-08
2.31735e-07
-1.29296e-08
2.44279e-07
-1.25442e-08
2.56444e-07
-1.21647e-08
2.68235e-07
-1.17913e-08
2.79659e-07
-1.14244e-08
2.90723e-07
-1.10638e-08
3.01433e-07
-1.07094e-08
3.11793e-07
-1.03606e-08
3.2181e-07
-1.0017e-08
3.31488e-07
-9.67772e-09
3.4083e-07
-9.34182e-09
3.49838e-07
-9.00827e-09
3.58514e-07
-8.67591e-09
3.66858e-07
-8.34354e-09
3.74867e-07
-8.00989e-09
3.82541e-07
-7.67371e-09
3.89875e-07
-7.33378e-09
3.96864e-07
-6.98898e-09
4.03502e-07
-6.63829e-09
4.09783e-07
-6.2809e-09
4.15699e-07
-5.91621e-09
4.21243e-07
-5.5439e-09
4.26407e-07
-5.16395e-09
4.31184e-07
-4.77667e-09
4.35567e-07
-4.38278e-09
4.3955e-07
-3.98334e-09
4.4313e-07
-3.57978e-09
4.46304e-07
-3.17386e-09
4.49071e-07
-2.76751e-09
4.51433e-07
-2.36234e-09
4.53392e-07
-1.95825e-09
4.54942e-07
-1.55032e-09
4.56066e-07
-1.12436e-09
4.56725e-07
-6.58598e-10
4.56894e-07
-1.69298e-10
4.56638e-07
2.56377e-10
4.56066e-07
5.72246e-10
4.55255e-07
8.10765e-10
4.54255e-07
9.99565e-10
4.53104e-07
1.15152e-09
4.5183e-07
1.27365e-09
4.5046e-07
1.37021e-09
4.49016e-07
1.44414e-09
4.47518e-07
1.49798e-09
4.45984e-07
1.53412e-09
4.44429e-07
1.55484e-09
4.42867e-07
1.56238e-09
4.41308e-07
1.55881e-09
4.39762e-07
1.54615e-09
4.38235e-07
1.5262e-09
4.36735e-07
1.50066e-09
4.35264e-07
1.47105e-09
4.33825e-07
1.43876e-09
4.3242e-07
1.40506e-09
4.31049e-07
1.37108e-09
4.29711e-07
1.33788e-09
4.28404e-07
1.30644e-09
4.27127e-07
1.27774e-09
4.25874e-07
1.25277e-09
4.24641e-07
1.2326e-09
4.23423e-07
1.21842e-09
4.22211e-07
1.21171e-09
4.20997e-07
1.21431e-09
4.19768e-07
1.22864e-09
4.1851e-07
1.25801e-09
4.17203e-07
1.30704e-09
4.15821e-07
1.38238e-09
4.14327e-07
1.494e-09
4.1267e-07
1.65721e-09
4.10773e-07
1.8969e-09
4.08518e-07
2.25503e-09
4.05708e-07
2.80981e-09
4.02003e-07
3.70445e-09
3.96717e-07
5.28652e-09
3.8863e-07
8.08689e-09
3.74147e-07
1.44831e-08
2.38402e-08
3.50307e-07
4.85947e-09
-2.25481e-08
6.1203e-10
-9.36633e-09
-6.84377e-09
9.02275e-10
-1.60643e-08
9.29526e-09
-2.68276e-08
1.63019e-08
-3.95393e-08
2.19434e-08
-5.45779e-08
2.63053e-08
-7.19373e-08
2.97797e-08
-9.11629e-08
3.27764e-08
-1.11709e-07
3.54695e-08
-1.33133e-07
3.78336e-08
-1.55027e-07
3.97796e-08
-1.77012e-07
4.12262e-08
-1.98752e-07
4.21263e-08
-2.19959e-07
4.24726e-08
-2.40402e-07
4.22933e-08
-2.59912e-07
4.16435e-08
-2.78374e-07
4.05961e-08
-2.95728e-07
3.92322e-08
-3.11957e-07
3.76335e-08
-3.27077e-07
3.58763e-08
-3.41133e-07
3.4028e-08
-3.54181e-07
3.21447e-08
-3.66291e-07
3.02707e-08
-3.77533e-07
2.8439e-08
-3.87976e-07
2.66727e-08
-3.97686e-07
2.49858e-08
-4.06722e-07
2.33858e-08
-4.15137e-07
2.18742e-08
-4.22977e-07
2.04487e-08
-4.30278e-07
1.9104e-08
-4.37073e-07
1.7833e-08
-4.43389e-07
1.66272e-08
-4.49244e-07
1.54776e-08
-4.54656e-07
1.4375e-08
-4.59636e-07
1.33103e-08
-4.64193e-07
1.22747e-08
-4.68332e-07
1.12599e-08
-4.72058e-07
1.02579e-08
-4.75371e-07
9.26163e-09
-4.78274e-07
8.26453e-09
-4.80767e-07
7.26084e-09
-4.82851e-07
6.24569e-09
-4.84527e-07
5.21515e-09
-4.85798e-07
4.16638e-09
-4.86672e-07
3.09841e-09
-4.87157e-07
2.01292e-09
-4.87261e-07
9.12757e-10
-4.86968e-07
-2.03497e-10
-4.86211e-07
-1.34993e-09
-4.84912e-07
-2.53749e-09
-4.83025e-07
-3.76598e-09
-4.80519e-07
-5.03583e-09
-4.77369e-07
-6.34734e-09
-4.73551e-07
-7.70004e-09
-4.69046e-07
-9.09247e-09
-4.63835e-07
-1.05222e-08
-4.579e-07
-1.19856e-08
-4.51227e-07
-1.34785e-08
-4.43804e-07
-1.49953e-08
-4.35622e-07
-1.653e-08
-4.26676e-07
-1.80754e-08
-4.16965e-07
-1.96237e-08
-4.06492e-07
-2.11664e-08
-3.95262e-07
-2.26947e-08
-3.83289e-07
-2.4199e-08
-3.70588e-07
-2.56699e-08
-3.5718e-07
-2.70976e-08
-3.43092e-07
-2.84727e-08
-3.28355e-07
-2.97857e-08
-3.13001e-07
-3.10279e-08
-2.97072e-07
-3.21912e-08
-2.80608e-07
-3.32681e-08
-2.63656e-07
-3.42521e-08
-2.46263e-07
-3.51379e-08
-2.28481e-07
-3.59211e-08
-2.10361e-07
-3.65985e-08
-1.91957e-07
-3.71682e-08
-1.73321e-07
-3.76293e-08
-1.54507e-07
-3.79822e-08
-1.35568e-07
-3.82281e-08
-1.16554e-07
-3.83693e-08
-9.75174e-08
-3.84088e-08
-7.85038e-08
-3.835e-08
-5.95585e-08
-3.81965e-08
-4.07218e-08
-3.79516e-08
-2.20273e-08
-3.76187e-08
-3.50038e-09
-3.72068e-08
1.48187e-08
-3.67324e-08
3.28704e-08
-3.62073e-08
5.06264e-08
-3.56318e-08
6.80782e-08
-3.50083e-08
8.52087e-08
-3.43447e-08
1.02002e-07
-3.36481e-08
1.18444e-07
-3.29245e-08
1.34524e-07
-3.21792e-08
1.50232e-07
-3.14172e-08
1.65562e-07
-3.06433e-08
1.8051e-07
-2.98616e-08
1.95073e-07
-2.90761e-08
2.0925e-07
-2.82904e-08
2.23042e-07
-2.75074e-08
2.36452e-07
-2.67298e-08
2.49482e-07
-2.59599e-08
2.62138e-07
-2.51994e-08
2.74423e-07
-2.44496e-08
2.86343e-07
-2.37115e-08
2.97904e-07
-2.29854e-08
3.09112e-07
-2.22716e-08
3.19972e-07
-2.15696e-08
3.3049e-07
-2.08787e-08
3.40671e-07
-2.01979e-08
3.50519e-07
-1.95258e-08
3.60038e-07
-1.88607e-08
3.6923e-07
-1.82007e-08
3.78098e-07
-1.75437e-08
3.86642e-07
-1.68874e-08
3.94862e-07
-1.62295e-08
4.02755e-07
-1.55675e-08
4.10321e-07
-1.48992e-08
4.17554e-07
-1.42225e-08
4.24451e-07
-1.35353e-08
4.31006e-07
-1.28361e-08
4.37214e-07
-1.21236e-08
4.43067e-07
-1.13971e-08
4.48559e-07
-1.06563e-08
4.53685e-07
-9.90187e-09
4.58436e-07
-9.13473e-09
4.6281e-07
-8.35668e-09
4.668e-07
-7.57019e-09
4.70405e-07
-6.77825e-09
4.73621e-07
-5.98423e-09
4.7645e-07
-5.19127e-09
4.78893e-07
-4.40122e-09
4.80956e-07
-3.61355e-09
4.82658e-07
-2.82622e-09
4.84044e-07
-2.04388e-09
4.85161e-07
-1.28713e-09
4.86e-07
-5.82244e-10
4.86522e-07
5.04918e-11
4.86728e-07
6.04355e-10
4.86642e-07
1.08567e-09
4.86292e-07
1.50176e-09
4.85707e-07
1.85843e-09
4.84917e-07
2.16033e-09
4.8395e-07
2.41147e-09
4.82832e-07
2.61566e-09
4.81589e-07
2.77675e-09
4.80245e-07
2.89873e-09
4.78822e-07
2.98567e-09
4.77339e-07
3.04167e-09
4.75815e-07
3.07082e-09
4.74264e-07
3.07708e-09
4.727e-07
3.06429e-09
4.71135e-07
3.03606e-09
4.69578e-07
2.99581e-09
4.68036e-07
2.94666e-09
4.66516e-07
2.89156e-09
4.65021e-07
2.83321e-09
4.63553e-07
2.77414e-09
4.62114e-07
2.71675e-09
4.60703e-07
2.66335e-09
4.5932e-07
2.61632e-09
4.5796e-07
2.57815e-09
4.5662e-07
2.55166e-09
4.55294e-07
2.54019e-09
4.53975e-07
2.54791e-09
4.52653e-07
2.58027e-09
4.51315e-07
2.64467e-09
4.49946e-07
2.75154e-09
4.48524e-07
2.91599e-09
4.4702e-07
3.16076e-09
4.45395e-07
3.52167e-09
4.43594e-07
4.05673e-09
4.41534e-07
4.86989e-09
4.39099e-07
6.13913e-09
4.36105e-07
8.28017e-09
4.3229e-07
1.19024e-08
4.27253e-07
1.95196e-08
3.30905e-08
4.18003e-07
-1.17591e-08
-1.0789e-08
-2.49595e-08
3.83405e-09
-3.83588e-08
1.43016e-08
-5.21908e-08
2.31272e-08
-6.66552e-08
3.07663e-08
-8.19937e-08
3.72819e-08
-9.84165e-08
4.2728e-08
-1.15877e-07
4.72401e-08
-1.34055e-07
5.09546e-08
-1.52523e-07
5.39373e-08
-1.7088e-07
5.61913e-08
-1.88804e-07
5.77027e-08
-2.06053e-07
5.84758e-08
-2.22474e-07
5.85469e-08
-2.37983e-07
5.79822e-08
-2.5256e-07
5.68703e-08
-2.66228e-07
5.53111e-08
-2.79039e-07
5.34069e-08
-2.91062e-07
5.12551e-08
-3.02371e-07
4.8943e-08
-3.1304e-07
4.65451e-08
-3.23134e-07
4.41222e-08
-3.32711e-07
4.17214e-08
-3.41817e-07
3.93773e-08
-3.50492e-07
3.71138e-08
-3.58765e-07
3.49455e-08
-3.66659e-07
3.28799e-08
-3.74192e-07
3.09184e-08
-3.81376e-07
2.90585e-08
-3.88221e-07
2.72942e-08
-3.94735e-07
2.56177e-08
-4.00922e-07
2.40195e-08
-4.06784e-07
2.24896e-08
-4.12324e-07
2.10173e-08
-4.17541e-07
1.95922e-08
-4.22434e-07
1.82039e-08
-4.27002e-07
1.68425e-08
-4.31241e-07
1.54983e-08
-4.35145e-07
1.41625e-08
-4.3871e-07
1.28266e-08
-4.41929e-07
1.14831e-08
-4.44793e-07
1.0125e-08
-4.47293e-07
8.74589e-09
-4.49418e-07
7.34034e-09
-4.51155e-07
5.90339e-09
-4.52488e-07
4.43077e-09
-4.53393e-07
2.91856e-09
-4.53842e-07
1.36188e-09
-4.53799e-07
-2.46782e-10
-4.53233e-07
-1.91623e-09
-4.52119e-07
-3.65154e-09
-4.50431e-07
-5.45368e-09
-4.48145e-07
-7.32239e-09
-4.45235e-07
-9.25668e-09
-4.41681e-07
-1.12547e-08
-4.3746e-07
-1.33135e-08
-4.32553e-07
-1.54289e-08
-4.26943e-07
-1.75955e-08
-4.20615e-07
-1.98066e-08
-4.13556e-07
-2.20541e-08
-4.05757e-07
-2.43287e-08
-3.97213e-07
-2.66198e-08
-3.87921e-07
-2.89159e-08
-3.77883e-07
-3.12043e-08
-3.67106e-07
-3.34718e-08
-3.556e-07
-3.57043e-08
-3.43383e-07
-3.78877e-08
-3.30473e-07
-4.00075e-08
-3.16896e-07
-4.20496e-08
-3.02681e-07
-4.40002e-08
-2.87863e-07
-4.58463e-08
-2.72478e-07
-4.75757e-08
-2.56569e-07
-4.91776e-08
-2.40179e-07
-5.06423e-08
-2.23355e-07
-5.19618e-08
-2.06146e-07
-5.31297e-08
-1.88603e-07
-5.41412e-08
-1.70778e-07
-5.49936e-08
-1.52722e-07
-5.56855e-08
-1.34487e-07
-5.62174e-08
-1.16123e-07
-5.65914e-08
-9.76819e-08
-5.68109e-08
-7.92101e-08
-5.68806e-08
-6.07538e-08
-5.68064e-08
-4.23554e-08
-5.65949e-08
-2.40534e-08
-5.62536e-08
-5.88031e-09
-5.57917e-08
1.2131e-08
-5.52181e-08
2.99432e-08
-5.45446e-08
4.75199e-08
-5.3784e-08
6.48333e-08
-5.29452e-08
8.18627e-08
-5.20377e-08
9.85888e-08
-5.10708e-08
1.14994e-07
-5.00537e-08
1.31065e-07
-4.89951e-08
1.46789e-07
-4.7903e-08
1.62156e-07
-4.67848e-08
1.77161e-07
-4.56476e-08
1.91797e-07
-4.44977e-08
2.06062e-07
-4.33411e-08
2.19954e-07
-4.21829e-08
2.33475e-07
-4.10277e-08
2.46624e-07
-3.98796e-08
2.59406e-07
-3.87419e-08
2.71824e-07
-3.76173e-08
2.83882e-07
-3.65078e-08
2.95586e-07
-3.54148e-08
3.0694e-07
-3.43393e-08
3.17949e-07
-3.32813e-08
3.2862e-07
-3.22406e-08
3.38958e-07
-3.12163e-08
3.48967e-07
-3.0207e-08
3.58652e-07
-2.92107e-08
3.68016e-07
-2.82251e-08
3.77063e-07
-2.72477e-08
3.85795e-07
-2.62754e-08
3.94212e-07
-2.53049e-08
4.02316e-07
-2.43331e-08
4.10105e-07
-2.33565e-08
4.17578e-07
-2.23719e-08
4.24731e-07
-2.13761e-08
4.31563e-07
-2.03663e-08
4.38067e-07
-1.93402e-08
4.44239e-07
-1.82959e-08
4.50074e-07
-1.72323e-08
4.55567e-07
-1.61489e-08
4.60711e-07
-1.50462e-08
4.65502e-07
-1.39255e-08
4.69934e-07
-1.27891e-08
4.74005e-07
-1.16404e-08
4.7771e-07
-1.04833e-08
4.81048e-07
-9.32248e-09
4.84019e-07
-8.16285e-09
4.86627e-07
-7.0089e-09
4.88878e-07
-5.86474e-09
4.90788e-07
-4.73586e-09
4.92377e-07
-3.6334e-09
4.93664e-07
-2.57394e-09
4.94655e-07
-1.57332e-09
4.95351e-07
-6.45426e-10
4.95756e-07
1.99969e-10
4.95881e-07
9.59977e-10
4.95747e-07
1.63559e-09
4.95377e-07
2.22929e-09
4.94793e-07
2.74419e-09
4.9402e-07
3.18381e-09
4.93084e-07
3.55213e-09
4.92007e-07
3.85366e-09
4.90812e-07
4.09336e-09
4.89521e-07
4.27658e-09
4.88154e-07
4.40896e-09
4.86729e-07
4.49631e-09
4.85261e-07
4.54444e-09
4.83767e-07
4.5591e-09
4.82257e-07
4.54585e-09
4.80743e-07
4.50999e-09
4.79233e-07
4.45656e-09
4.77734e-07
4.39027e-09
4.76252e-07
4.3155e-09
4.74789e-07
4.2364e-09
4.73349e-07
4.15687e-09
4.71932e-07
4.08067e-09
4.70537e-07
4.01157e-09
4.69161e-07
3.95347e-09
4.67802e-07
3.91065e-09
4.66455e-07
3.88804e-09
4.65111e-07
3.89169e-09
4.63762e-07
3.9293e-09
4.62395e-07
4.01115e-09
4.60995e-07
4.1515e-09
4.59541e-07
4.37072e-09
4.58002e-07
4.69895e-09
4.56341e-07
5.18259e-09
4.54503e-07
5.89516e-09
4.52411e-07
6.96241e-09
4.49955e-07
8.5948e-09
4.47007e-07
1.12285e-08
4.43376e-07
1.55333e-08
4.39402e-07
2.34932e-08
3.71323e-08
4.3536e-07
-1.92631e-08
8.4741e-09
-3.69816e-08
2.15526e-08
-5.37119e-08
3.10318e-08
-6.98758e-08
3.92912e-08
-8.57631e-08
4.66536e-08
-1.01573e-07
5.30921e-08
-1.17393e-07
5.85482e-08
-1.3316e-07
6.3007e-08
-1.48695e-07
6.64891e-08
-1.63784e-07
6.90264e-08
-1.78248e-07
7.06558e-08
-1.91974e-07
7.14282e-08
-2.04914e-07
7.14155e-08
-2.17077e-07
7.07103e-08
-2.28514e-07
6.94189e-08
-2.39297e-07
6.76532e-08
-2.49508e-07
6.55223e-08
-2.59228e-07
6.31269e-08
-2.68529e-07
6.05559e-08
-2.7747e-07
5.78843e-08
-2.86098e-07
5.51733e-08
-2.94447e-07
5.2471e-08
-3.02539e-07
4.98135e-08
-3.10389e-07
4.72268e-08
-3.18003e-07
4.47279e-08
-3.25384e-07
4.23268e-08
-3.32532e-07
4.00276e-08
-3.39443e-07
3.783e-08
-3.46115e-07
3.57301e-08
-3.52542e-07
3.37216e-08
-3.58721e-07
3.17961e-08
-3.64645e-07
2.99443e-08
-3.70312e-07
2.81557e-08
-3.75714e-07
2.64196e-08
-3.80847e-07
2.47251e-08
-3.85704e-07
2.30611e-08
-3.90279e-07
2.14171e-08
-3.94563e-07
1.97825e-08
-3.98548e-07
1.81474e-08
-4.02223e-07
1.65021e-08
-4.05577e-07
1.48375e-08
-4.08597e-07
1.31449e-08
-4.11268e-07
1.14164e-08
-4.13572e-07
9.64433e-09
-4.1549e-07
7.82144e-09
-4.17e-07
5.94102e-09
-4.18078e-07
3.99645e-09
-4.18697e-07
1.98094e-09
-4.18832e-07
-1.12512e-10
-4.18458e-07
-2.29024e-09
-4.17553e-07
-4.5564e-09
-4.16094e-07
-6.91275e-09
-4.14057e-07
-9.35942e-09
-4.11418e-07
-1.18952e-08
-4.08155e-07
-1.45174e-08
-4.04247e-07
-1.7222e-08
-3.99672e-07
-2.00033e-08
-3.94414e-07
-2.28541e-08
-3.88455e-07
-2.57653e-08
-3.81783e-07
-2.87261e-08
-3.74388e-07
-3.1724e-08
-3.66263e-07
-3.47451e-08
-3.57405e-07
-3.77738e-08
-3.47816e-07
-4.07934e-08
-3.37501e-07
-4.37861e-08
-3.26472e-07
-4.67334e-08
-3.14744e-07
-4.96163e-08
-3.02335e-07
-5.24157e-08
-2.89272e-07
-5.51129e-08
-2.75583e-07
-5.76895e-08
-2.61301e-07
-6.01283e-08
-2.46463e-07
-6.24133e-08
-2.31111e-07
-6.45301e-08
-2.15287e-07
-6.6466e-08
-1.99038e-07
-6.82105e-08
-1.82413e-07
-6.97553e-08
-1.6546e-07
-7.10941e-08
-1.4823e-07
-7.22234e-08
-1.30774e-07
-7.31417e-08
-1.13142e-07
-7.38496e-08
-9.53827e-08
-7.43501e-08
-7.75456e-08
-7.4648e-08
-5.96764e-08
-7.47498e-08
-4.1819e-08
-7.46637e-08
-2.40147e-08
-7.43992e-08
-6.30104e-09
-7.39673e-08
1.1286e-08
-7.33787e-08
2.87135e-08
-7.26457e-08
4.59508e-08
-7.1782e-08
6.2968e-08
-7.08011e-08
7.97387e-08
-6.97159e-08
9.624e-08
-6.8539e-08
1.12452e-07
-6.72828e-08
1.28357e-07
-6.59592e-08
1.43942e-07
-6.45796e-08
1.59194e-07
-6.31547e-08
1.74103e-07
-6.16945e-08
1.88664e-07
-6.02081e-08
2.0287e-07
-5.87042e-08
2.1672e-07
-5.71903e-08
2.3021e-07
-5.56734e-08
2.43342e-07
-5.41596e-08
2.56116e-07
-5.26541e-08
2.68536e-07
-5.11614e-08
2.80604e-07
-4.96851e-08
2.92324e-07
-4.82279e-08
3.03701e-07
-4.67919e-08
3.1474e-07
-4.53782e-08
3.25446e-07
-4.39872e-08
3.35824e-07
-4.26187e-08
3.45879e-07
-4.12715e-08
3.55616e-07
-3.9944e-08
3.65039e-07
-3.86339e-08
3.74152e-07
-3.73384e-08
3.82959e-07
-3.6054e-08
3.9146e-07
-3.4777e-08
3.99659e-07
-3.35035e-08
4.07555e-07
-3.22292e-08
4.15148e-07
-3.09499e-08
4.22438e-07
-2.96613e-08
4.29421e-07
-2.83596e-08
4.36096e-07
-2.7041e-08
4.42458e-07
-2.57025e-08