/*--------------------------------*- C++ -*----------------------------------*\
  =========                 |
  \\      /  F ield         | OpenFOAM: The Open Source CFD Toolbox
   \\    /   O peration     | Website:  https://openfoam.org
    \\  /    A nd           | Version:  6
     \\/     M anipulation  |
\*---------------------------------------------------------------------------*/
FoamFile
{
    version     2.0;
    format      ascii;
    class       volVectorField;
    location    "0.2";
    object      U;
}
// * * * * * * * * * * * * * * * * * * * * * * * * * * * * * * * * * * * * * //

dimensions      [0 1 -1 0 0 0 0];

internalField   nonuniform List<vector> 
12225
(
(0.948757 -0.405569 0)
(1.0127 -0.190669 0)
(1.01474 -0.0513921 0)
(0.983367 -0.0051402 0)
(0.955302 0.00452677 0)
(0.936855 0.00424082 0)
(0.924583 0.00260202 0)
(0.915848 0.00150709 0)
(0.909287 0.000967263 0)
(0.90404 0.000719147 0)
(0.899586 0.000599674 0)
(0.89565 0.000540434 0)
(0.892071 0.000514011 0)
(0.888754 0.000511627 0)
(0.885526 0.000521337 0)
(0.882633 0.000566454 0)
(0.878706 0.000596325 0)
(0.880138 1.12911e-05 0)
(1.03699 0.0761211 0)
(1.02001 0.0533196 0)
(1.01136 0.0193996 0)
(1.00432 0.00901916 0)
(0.997952 0.00673082 0)
(0.99118 0.0052991 0)
(0.983983 0.00405218 0)
(0.977392 0.00320366 0)
(0.971904 0.0026744 0)
(0.967362 0.00232399 0)
(0.963491 0.0020833 0)
(0.960103 0.00192358 0)
(0.957066 0.00182483 0)
(0.954291 0.00177847 0)
(0.951645 0.0017624 0)
(0.949224 0.00184715 0)
(0.946414 0.00166724 0)
(0.9445 0.00241195 0)
(0.998333 0.0132123 0)
(0.995362 0.0119563 0)
(1.00082 0.00641024 0)
(1.00191 0.00652798 0)
(1.00122 0.00703157 0)
(0.999282 0.00635061 0)
(0.995924 0.00529819 0)
(0.99203 0.00442898 0)
(0.988322 0.00380018 0)
(0.984981 0.00334529 0)
(0.981975 0.00302165 0)
(0.979248 0.002803 0)
(0.976739 0.00266694 0)
(0.974396 0.00260325 0)
(0.972133 0.00259467 0)
(0.969966 0.00268828 0)
(0.967617 0.00270894 0)
(0.965321 0.0031186 0)
(0.995105 -0.00695058 0)
(0.992485 0.00125629 0)
(0.998594 0.00394469 0)
(1.00081 0.00596455 0)
(1.00159 0.00706707 0)
(1.00155 0.0068349 0)
(1.00019 0.00606904 0)
(0.998028 0.00532455 0)
(0.995642 0.00472109 0)
(0.993281 0.00424999 0)
(0.991015 0.00389935 0)
(0.988863 0.00365659 0)
(0.986817 0.00350662 0)
(0.984853 0.00344307 0)
(0.982922 0.00345645 0)
(0.981015 0.0035843 0)
(0.978982 0.00374338 0)
(0.976841 0.00424686 0)
(0.996671 -0.00693912 0)
(0.993819 0.000833236 0)
(0.998047 0.00376429 0)
(1.00005 0.00557133 0)
(1.00132 0.00679879 0)
(1.00214 0.00691135 0)
(1.00191 0.00645366 0)
(1.00087 0.00590115 0)
(0.999463 0.00539628 0)
(0.997893 0.00497049 0)
(0.996263 0.00463899 0)
(0.994626 0.00440545 0)
(0.993006 0.00426569 0)
(0.9914 0.00421997 0)
(0.989786 0.00426787 0)
(0.988152 0.00444312 0)
(0.986423 0.00472318 0)
(0.984565 0.00532 0)
(0.997828 -0.00414662 0)
(0.995151 0.00128703 0)
(0.99786 0.00350033 0)
(0.999551 0.00508453 0)
(1.00096 0.0063616 0)
(1.00214 0.00672831 0)
(1.00255 0.00654472 0)
(1.00225 0.00619667 0)
(1.00155 0.00582566 0)
(1.0006 0.00548526 0)
(0.999508 0.00520908 0)
(0.998326 0.00501448 0)
(0.997095 0.00490811 0)
(0.995829 0.00489759 0)
(0.994522 0.00499114 0)
(0.99317 0.00522088 0)
(0.991745 0.00559811 0)
(0.990213 0.00626015 0)
(0.998451 -0.00256701 0)
(0.996205 0.00119243 0)
(0.997934 0.00307619 0)
(0.999324 0.00458065 0)
(1.00068 0.00586132 0)
(1.00197 0.00640006 0)
(1.00271 0.0064382 0)
(1.00289 0.00627824 0)
(1.00268 0.00604928 0)
(1.00221 0.00581395 0)
(1.00155 0.0056157 0)
(1.00076 0.00548123 0)
(0.999882 0.00542595 0)
(0.998932 0.00546398 0)
(0.997919 0.00561034 0)
(0.996851 0.00589583 0)
(0.995726 0.00634671 0)
(0.994527 0.00705006 0)
(0.998884 -0.00172339 0)
(0.99711 0.00100917 0)
(0.998201 0.00270914 0)
(0.999308 0.00412422 0)
(1.00052 0.00535426 0)
(1.00177 0.00599591 0)
(1.00266 0.00620236 0)
(1.00313 0.00620249 0)
(1.00327 0.00610819 0)
(1.00315 0.00598274 0)
(1.00284 0.00587304 0)
(1.00238 0.00581091 0)
(1.0018 0.00581776 0)
(1.00114 0.0059124 0)
(1.0004 0.00611414 0)
(0.99961 0.00645181 0)
(0.998776 0.00695511 0)
(0.997899 0.0076779 0)
(0.999233 -0.00110617 0)
(0.997893 0.00093434 0)
(0.998561 0.00243984 0)
(0.999427 0.00372658 0)
(1.00047 0.00486805 0)
(1.00162 0.00555822 0)
(1.00255 0.00588388 0)
(1.00318 0.00601225 0)
(1.00354 0.00603656 0)
(1.00368 0.00601576 0)
(1.00363 0.00599585 0)
(1.00344 0.00601036 0)
(1.00312 0.00608387 0)
(1.00272 0.00623775 0)
(1.00224 0.00649307 0)
(1.0017 0.00687572 0)
(1.00114 0.00741255 0)
(1.00056 0.00813521 0)
(0.999502 -0.000616061 0)
(0.998538 0.000933666 0)
(0.998943 0.00223778 0)
(0.999621 0.00338143 0)
(1.0005 0.00441554 0)
(1.00153 0.00511325 0)
(1.00243 0.00551544 0)
(1.00314 0.00574023 0)
(1.00364 0.00586272 0)
(1.00395 0.00593488 0)
(1.00411 0.00599905 0)
(1.00413 0.00608792 0)
(1.00403 0.00622679 0)
(1.00385 0.00643752 0)
(1.0036 0.00674079 0)
(1.0033 0.00715864 0)
(1.00299 0.00771236 0)
(1.00267 0.00841883 0)
(0.999692 -0.000258096 0)
(0.999044 0.000952512 0)
(0.999304 0.00207377 0)
(0.999848 0.00307868 0)
(1.0006 0.00399998 0)
(1.00149 0.0046759 0)
(1.00235 0.00511939 0)
(1.00307 0.00541115 0)
(1.00365 0.00560991 0)
(1.00408 0.00575954 0)
(1.00439 0.00589727 0)
(1.00457 0.00605314 0)
(1.00466 0.00625122 0)
(1.00466 0.00651218 0)
(1.00461 0.00685469 0)
(1.00453 0.00729644 0)
(1.00443 0.00785254 0)
(1.00435 0.00853023 0)
(0.999809 -3.68888e-05 0)
(0.999392 0.000962644 0)
(0.999593 0.00193901 0)
(1.00006 0.00282747 0)
(1.00071 0.00364833 0)
(1.0015 0.00428705 0)
(1.0023 0.00474362 0)
(1.00302 0.00507373 0)
(1.00363 0.00532309 0)
(1.00413 0.00552823 0)
(1.00453 0.00572114 0)
(1.00483 0.00592843 0)
(1.00505 0.00617186 0)
(1.00521 0.0064699 0)
(1.00531 0.00683846 0)
(1.00539 0.00729115 0)
(1.00547 0.00783796 0)
(1.00557 0.0084803 0)
(0.99989 0.000107407 0)
(0.999652 0.000959067 0)
(0.999834 0.00180964 0)
(1.00025 0.0025927 0)
(1.00083 0.00331946 0)
(1.00154 0.00391213 0)
(1.00228 0.00436541 0)
(1.00298 0.00471683 0)
(1.00361 0.00500112 0)
(1.00416 0.00524797 0)
(1.00463 0.00548411 0)
(1.00502 0.00573233 0)
(1.00535 0.00601146 0)
(1.00562 0.00633719 0)
(1.00586 0.00672234 0)
(1.00609 0.00717671 0)
(1.00632 0.00770603 0)
(1.00657 0.0083078 0)
(0.999947 0.000198776 0)
(0.999857 0.000927897 0)
(1.00005 0.00165862 0)
(1.00043 0.00233484 0)
(1.00096 0.00296265 0)
(1.0016 0.00349635 0)
(1.00228 0.0039297 0)
(1.00296 0.00428659 0)
(1.00359 0.00459222 0)
(1.00417 0.00486941 0)
(1.0047 0.00513917 0)
(1.00517 0.00541971 0)
(1.0056 0.00572612 0)
(1.00599 0.00607054 0)
(1.00635 0.00646221 0)
(1.00671 0.00690709 0)
(1.00708 0.0074071 0)
(1.00747 0.00795743 0)
(0.999983 0.000237418 0)
(1 0.000855841 0)
(1.00021 0.00147019 0)
(1.00059 0.00203972 0)
(1.00109 0.0025672 0)
(1.00167 0.00303137 0)
(1.00231 0.00342841 0)
(1.00296 0.003773 0)
(1.00359 0.00408275 0)
(1.0042 0.00437418 0)
(1.00477 0.00466256 0)
(1.00531 0.00496119 0)
(1.00582 0.00528087 0)
(1.00631 0.00562984 0)
(1.00678 0.00601358 0)
(1.00726 0.00643457 0)
(1.00775 0.00689184 0)
(1.00826 0.00737954 0)
(1 0.000228748 0)
(1.00009 0.000733656 0)
(1.00033 0.00122784 0)
(1.0007 0.00168743 0)
(1.00119 0.0021133 0)
(1.00175 0.002499 0)
(1.00236 0.00284426 0)
(1.00299 0.00315827 0)
(1.00362 0.00345273 0)
(1.00425 0.00373875 0)
(1.00486 0.00402633 0)
(1.00545 0.00432394 0)
(1.00603 0.00463811 0)
(1.0066 0.00497321 0)
(1.00717 0.00533136 0)
(1.00774 0.00571228 0)
(1.00833 0.00611313 0)
(1.00893 0.00652796 0)
(1.00001 0.000182421 0)
(1.00013 0.000556328 0)
(1.00039 0.000917342 0)
(1.00077 0.00125568 0)
(1.00125 0.00157276 0)
(1.00181 0.00186902 0)
(1.00241 0.00214657 0)
(1.00304 0.00241119 0)
(1.00368 0.00266989 0)
(1.00433 0.00292906 0)
(1.00498 0.00319408 0)
(1.00562 0.00346907 0)
(1.00625 0.00375669 0)
(1.00689 0.00405801 0)
(1.00752 0.00437252 0)
(1.00816 0.00469808 0)
(1.00881 0.00503098 0)
(1.00947 0.00536572 0)
(1.00001 0.00010817 0)
(1.00014 0.000322496 0)
(1.00041 0.000526526 0)
(1.0008 0.000721262 0)
(1.00129 0.000911288 0)
(1.00185 0.00109987 0)
(1.00246 0.00128972 0)
(1.00311 0.00148395 0)
(1.00377 0.00168539 0)
(1.00445 0.00189607 0)
(1.00513 0.00211715 0)
(1.00581 0.00234895 0)
(1.00648 0.00259088 0)
(1.00716 0.00284142 0)
(1.00784 0.00309819 0)
(1.00852 0.00335799 0)
(1.00921 0.0036169 0)
(1.0099 0.00387019 0)
(1.00001 1.40345e-05 0)
(1.00014 3.26157e-05 0)
(1.0004 4.21191e-05 0)
(1.00079 5.71419e-05 0)
(1.00129 8.80368e-05 0)
(1.00187 0.000139582 0)
(1.0025 0.000214503 0)
(1.00318 0.000313415 0)
(1.00388 0.00043488 0)
(1.00459 0.000576407 0)
(1.0053 0.000735089 0)
(1.00602 0.000907754 0)
(1.00673 0.001091 0)
(1.00743 0.00128123 0)
(1.00814 0.00147473 0)
(1.00883 0.00166769 0)
(1.00952 0.00185626 0)
(1.0102 0.00203641 0)
(1.00001 -5.69129e-05 0)
(1.00008 -0.000216996 0)
(1.0003 -0.000406902 0)
(1.00069 -0.000580553 0)
(1.0012 -0.0007196 0)
(1.0018 -0.000816594 0)
(1.00248 -0.000865423 0)
(1.0032 -0.000866547 0)
(1.00395 -0.000825853 0)
(1.0047 -0.000750544 0)
(1.00545 -0.000647549 0)
(1.00619 -0.000523418 0)
(1.00692 -0.000384245 0)
(1.00764 -0.000235568 0)
(1.00833 -8.23674e-05 0)
(1.00902 7.08826e-05 0)
(1.00968 0.00022015 0)
(1.01033 0.000361646 0)
(0.999981 -5.44737e-05 0)
(0.999933 -0.000346808 0)
(1.00008 -0.00072952 0)
(1.00044 -0.00108297 0)
(1.00098 -0.0013862 0)
(1.00164 -0.00162588 0)
(1.00238 -0.00178623 0)
(1.00318 -0.00186934 0)
(1.00398 -0.00188794 0)
(1.00478 -0.00185515 0)
(1.00556 -0.00178251 0)
(1.00632 -0.00168045 0)
(1.00706 -0.0015581 0)
(1.00776 -0.00142312 0)
(1.00843 -0.00128188 0)
(1.00908 -0.00113968 0)
(1.0097 -0.00100091 0)
(1.0103 -0.000869393 0)
(0.999912 7.47348e-05 0)
(0.999593 -0.000340998 0)
(0.999625 -0.000961093 0)
(1.00001 -0.00152248 0)
(1.00061 -0.00201915 0)
(1.00137 -0.00241801 0)
(1.00224 -0.00268537 0)
(1.00314 -0.00283245 0)
(1.00403 -0.00288609 0)
(1.00487 -0.00286864 0)
(1.00568 -0.0027983 0)
(1.00643 -0.00269084 0)
(1.00713 -0.00255926 0)
(1.00779 -0.00241366 0)
(1.00841 -0.00226181 0)
(1.00898 -0.00210972 0)
(1.00953 -0.00196201 0)
(1.01004 -0.00182242 0)
(0.999764 0.000388626 0)
(0.998956 -0.000217908 0)
(0.998889 -0.00114448 0)
(0.999375 -0.00194675 0)
(1.00013 -0.00267857 0)
(1.00109 -0.00324871 0)
(1.00215 -0.00359981 0)
(1.00318 -0.00377238 0)
(1.00413 -0.00381947 0)
(1.00499 -0.0037768 0)
(1.00577 -0.00367148 0)
(1.00646 -0.00352604 0)
(1.00707 -0.00335758 0)
(1.00763 -0.00317823 0)
(1.00812 -0.00299655 0)
(1.00858 -0.00281863 0)
(1.00899 -0.00264869 0)
(1.00937 -0.00248994 0)
(0.999513 0.00100751 0)
(0.997919 -6.41786e-05 0)
(0.99788 -0.0013971 0)
(0.998635 -0.00244856 0)
(0.999672 -0.00344089 0)
(1.00093 -0.00416242 0)
(1.00221 -0.00453771 0)
(1.00335 -0.00466946 0)
(1.0043 -0.00465014 0)
(1.00509 -0.00453139 0)
(1.00574 -0.00435021 0)
(1.00627 -0.00413567 0)
(1.0067 -0.00390766 0)
(1.00706 -0.0036786 0)
(1.00736 -0.00345625 0)
(1.00762 -0.00324546 0)
(1.00784 -0.00304901 0)
(1.00804 -0.00286881 0)
(0.998981 0.002572 0)
(0.996265 0.000303849 0)
(0.996693 -0.00176462 0)
(0.998002 -0.00311985 0)
(0.999441 -0.00436892 0)
(1.00105 -0.00516344 0)
(1.00252 -0.00545737 0)
(1.00364 -0.00545597 0)
(1.00443 -0.00529917 0)
(1.00498 -0.00505303 0)
(1.00534 -0.00476202 0)
(1.00556 -0.00445843 0)
(1.00568 -0.00416116 0)
(1.00574 -0.00387965 0)
(1.00576 -0.00361837 0)
(1.00575 -0.00337918 0)
(1.00572 -0.0031622 0)
(1.00569 -0.00296721 0)
(0.997457 0.0061692 0)
(0.993468 0.00160379 0)
(0.995405 -0.00191101 0)
(0.997767 -0.00389515 0)
(0.999708 -0.00543565 0)
(1.0016 -0.00617304 0)
(1.00306 -0.00624414 0)
(1.00387 -0.00600657 0)
(1.00422 -0.0056469 0)
(1.00426 -0.00523828 0)
(1.00411 -0.00482492 0)
(1.00384 -0.00443466 0)
(1.0035 -0.00407912 0)
(1.00314 -0.00376035 0)
(1.00278 -0.00347679 0)
(1.00243 -0.00322584 0)
(1.0021 -0.00300419 0)
(1.0018 -0.00280893 0)
(0.994438 0.00860443 0)
(0.989472 0.00236445 0)
(0.994196 -0.00182891 0)
(0.998184 -0.00462449 0)
(1.00068 -0.00648172 0)
(1.00258 -0.00699208 0)
(1.00353 -0.00669084 0)
(1.00351 -0.00613568 0)
(1.00294 -0.00554415 0)
(1.0021 -0.00497849 0)
(1.00115 -0.00446796 0)
(1.00018 -0.00402486 0)
(0.999237 -0.00364649 0)
(0.998356 -0.00332378 0)
(0.997546 -0.00304774 0)
(0.996807 -0.00281111 0)
(0.996137 -0.00260758 0)
(0.995538 -0.00243104 0)
(0.994525 -0.00664995 0)
(0.989503 -0.00850119 0)
(0.995534 -0.0052322 0)
(1.00011 -0.00612523 0)
(1.00254 -0.00747917 0)
(1.00353 -0.00739508 0)
(1.00287 -0.00656675 0)
(1.00106 -0.00567024 0)
(0.998851 -0.00489041 0)
(0.996645 -0.00423615 0)
(0.994585 -0.00369877 0)
(0.992711 -0.00326541 0)
(0.991036 -0.00291631 0)
(0.98955 -0.00263163 0)
(0.988235 -0.0023964 0)
(0.987069 -0.00220083 0)
(0.986035 -0.00203828 0)
(0.985123 -0.00189687 0)
(1.02649 -0.0702257 0)
(1.0171 -0.0623767 0)
(1.01189 -0.0291847 0)
(1.00856 -0.0148168 0)
(1.00582 -0.010251 0)
(1.00204 -0.00773914 0)
(0.99689 -0.00584526 0)
(0.991409 -0.0045441 0)
(0.98647 -0.00368481 0)
(0.982296 -0.00308507 0)
(0.978791 -0.0026426 0)
(0.975823 -0.0023084 0)
(0.973294 -0.00205127 0)
(0.971124 -0.00184833 0)
(0.969245 -0.00168472 0)
(0.967606 -0.00155345 0)
(0.966174 -0.0014539 0)
(0.964934 -0.00140927 0)
(0.966187 0.350228 0)
(1.02696 0.194276 0)
(1.0328 0.0679387 0)
(1.00477 0.0152956 0)
(0.976671 -0.00122878 0)
(0.956814 -0.00427145 0)
(0.943168 -0.00354637 0)
(0.933436 -0.00238889 0)
(0.926327 -0.00156328 0)
(0.920956 -0.0010642 0)
(0.916696 -0.00076958 0)
(0.913177 -0.000591203 0)
(0.910195 -0.00047816 0)
(0.907629 -0.000402103 0)
(0.90539 -0.000347894 0)
(0.903411 -0.000310084 0)
(0.901626 -0.000285322 0)
(0.899986 -0.000323889 0)
(0.00940758 -0.0319916 -2.44556e-21)
(0.0226051 -0.0330272 2.26637e-21)
(0.031093 -0.0225017 0)
(0.035111 -0.0104938 0)
(0.0324908 0.000208222 0)
(0.0253462 0.0073909 -2.17952e-21)
(0.0158326 0.0106463 0)
(0.0051826 0.0115489 0)
(-0.00631549 0.0121594 0)
(-0.0189443 0.0132602 0)
(-0.0329 0.0147603 2.09148e-21)
(-0.0482193 0.0164494 0)
(-0.0648374 0.0181319 0)
(-0.0825998 0.0196553 0)
(-0.101288 0.020912 0)
(-0.120647 0.0218369 1.84785e-21)
(-0.140406 0.0224031 0)
(-0.160303 0.0226149 0)
(-0.180094 0.0225001 0)
(-0.199568 0.022102 0)
(-0.218548 0.0214725 0)
(-0.236898 0.0206654 0)
(-0.254515 0.0197324 0)
(-0.271332 0.01872 1.78093e-21)
(-0.287312 0.0176673 -1.78496e-21)
(-0.30244 0.0166059 1.78942e-21)
(-0.31672 0.0155597 1.7939e-21)
(-0.330171 0.0145457 0)
(-0.342822 0.0135748 0)
(-0.354706 0.0126531 -1.8043e-21)
(-0.36586 0.0117825 -1.80604e-21)
(-0.376323 0.010962 0)
(-0.386128 0.0101885 0)
(-0.39531 0.00945719 -1.80423e-21)
(-0.403898 0.00876237 0)
(-0.411917 0.00809767 0)
(-0.419386 0.00745641 1.79012e-21)
(-0.426322 0.00683181 0)
(-0.432733 0.00621718 1.77303e-21)
(-0.438625 0.0056061 3.52399e-21)
(-0.443998 0.00499258 0)
(-0.448847 0.00437133 0)
(-0.453162 0.00373827 0)
(-0.456927 0.00309088 0)
(-0.460125 0.00242856 0)
(-0.462736 0.00175549 3.31339e-21)
(-0.464738 0.00108452 3.26383e-21)
(-0.466103 0.000434288 3.20959e-21)
(-0.466809 -0.00017512 0)
(-0.466833 -0.000726419 -3.08321e-21)
(-0.466303 -0.00123684 0)
(-0.465189 -0.00173856 2.93127e-21)
(-0.463488 -0.00224337 2.84553e-21)
(-0.461187 -0.00275625 0)
(-0.458268 -0.00327909 0)
(-0.454713 -0.00381225 0)
(-0.450502 -0.00435521 2.43116e-21)
(-0.445619 -0.00490688 0)
(-0.440047 -0.00546575 0)
(-0.433772 -0.00602997 0)
(-0.426784 -0.00659742 0)
(-0.419073 -0.00716569 0)
(-0.410635 -0.00773217 0)
(-0.401469 -0.0082941 0)
(-0.391578 -0.00884857 0)
(-0.380969 -0.00939257 -1.02948e-21)
(-0.369654 -0.00992312 0)
(-0.35765 -0.0104372 0)
(-0.344976 -0.010932 4.13939e-22)
(-0.331658 -0.0114048 1.93691e-22)
(-0.317727 -0.011853 0)
(-0.303215 -0.0122744 2.67222e-22)
(-0.28816 -0.012667 -5.06986e-22)
(-0.272603 -0.0130292 0)
(-0.256587 -0.0133598 1.00256e-21)
(-0.240159 -0.0136579 0)
(-0.223367 -0.013923 0)
(-0.206259 -0.014155 -1.77735e-21)
(-0.188886 -0.0143542 0)
(-0.171298 -0.0145211 2.30757e-21)
(-0.153546 -0.0146562 0)
(-0.135678 -0.0147599 -2.84275e-21)
(-0.117743 -0.0148322 -3.1106e-21)
(-0.0997894 -0.0148717 -3.37779e-21)
(-0.0818633 -0.0148745 -7.28745e-21)
(-0.0640129 -0.0148319 7.81568e-21)
(-0.0462872 -0.014727 0)
(-0.0287351 -0.0145322 0)
(-0.0113923 -0.0142155 0)
(0.00573472 -0.0137838 9.58423e-21)
(0.0226434 -0.0133007 9.63076e-21)
(0.0393061 -0.012815 -9.6572e-21)
(0.0556892 -0.0123369 0)
(0.0717723 -0.011869 9.65922e-21)
(0.0875407 -0.0114124 9.63872e-21)
(0.102983 -0.0109678 9.60617e-21)
(0.118089 -0.0105358 0)
(0.132853 -0.0101166 0)
(0.147271 -0.00971064 0)
(0.161339 -0.00931807 9.38405e-21)
(0.175056 -0.00893903 0)
(0.188423 -0.00857354 0)
(0.201441 -0.00822152 -9.1527e-21)
(0.214114 -0.00788282 0)
(0.226445 -0.00755716 0)
(0.238439 -0.00724419 -8.89122e-21)
(0.2501 -0.00694347 0)
(0.261436 -0.00665449 0)
(0.272449 -0.00637665 8.61534e-21)
(0.283147 -0.00610928 8.52217e-21)
(0.293533 -0.00585168 0)
(0.303613 -0.00560307 -8.33598e-21)
(0.313391 -0.00536264 0)
(0.322868 -0.00512956 8.15169e-21)
(0.332048 -0.00490296 0)
(0.340931 -0.004682 7.97096e-21)
(0.349518 -0.00446582 7.88238e-21)
(0.357806 -0.0042536 0)
(0.365793 -0.00404456 0)
(0.373475 -0.00383799 0)
(0.380848 -0.00363324 0)
(0.387905 -0.00342977 0)
(0.394639 -0.00322716 0)
(0.401043 -0.00302509 0)
(0.407107 -0.00282343 7.23434e-21)
(0.412824 -0.00262216 -7.1626e-21)
(0.418185 -0.00242146 0)
(0.423182 -0.00222165 0)
(0.427807 -0.00202323 0)
(0.432055 -0.00182683 0)
(0.435921 -0.00163323 -1.3681e-20)
(0.439403 -0.0014433 0)
(0.442499 -0.00125776 1.34588e-20)
(0.44521 -0.00107625 -1.33555e-20)
(0.447535 -0.000894938 0)
(0.449465 -0.000703274 0)
(0.450973 -0.000486082 0)
(0.452001 -0.000250351 1.29977e-20)
(0.452544 -4.56416e-05 1.29185e-20)
(0.452746 9.37387e-05 0)
(0.452685 0.00018147 1.2771e-20)
(0.45242 0.000238658 1.27017e-20)
(0.451991 0.000277081 -1.26348e-20)
(0.45143 0.000302633 0)
(0.450765 0.000318496 0)
(0.450018 0.000326592 -1.24462e-20)
(0.44921 0.00032833 0)
(0.448361 0.000324903 0)
(0.447487 0.00031736 0)
(0.446602 0.000306628 0)
(0.445717 0.000293523 1.21597e-20)
(0.444844 0.000278744 1.21051e-20)
(0.443991 0.000262891 0)
(0.443164 0.000246469 1.19978e-20)
(0.442368 0.000229904 0)
(0.441606 0.000213553 0)
(0.440882 0.000197718 1.18407e-20)
(0.440196 0.000182661 0)
(0.439548 0.000168613 1.17382e-20)
(0.438936 0.000155792 0)
(0.438359 0.000144413 0)
(0.437814 0.000134705 1.15881e-20)
(0.437297 0.000126933 0)
(0.436801 0.000121416 1.1491e-20)
(0.436321 0.000118563 0)
(0.435847 0.000118913 0)
(0.43537 0.000123196 0)
(0.434875 0.000132421 -1.13084e-20)
(0.434345 0.00014802 0)
(0.433756 0.000172062 1.12274e-20)
(0.433076 0.000207632 0)
(0.432259 0.000259466 0)
(0.431241 0.00033522 0)
(0.429921 0.000447597 0)
(0.428145 0.000620522 0)
(0.425619 0.000894962 0)
(0.421958 0.00138177 0)
(0.41575 0.00220144 -2.25039e-20)
(0.407084 0.00423476 0)
(0.38329 0.00663641 0)
(0.000556184 -0.046751 6.88951e-21)
(0.00262787 -0.0257106 -6.11052e-21)
(-0.00243341 -0.00726043 0)
(-0.0097167 0.00732789 3.40344e-21)
(-0.0183061 0.0188245 0)
(-0.0287897 0.0272796 1.56216e-21)
(-0.0412728 0.0331434 -2.97642e-21)
(-0.0558123 0.0375166 -2.87447e-21)
(-0.0721935 0.0413611 0)
(-0.0900092 0.0450302 -2.69669e-21)
(-0.108825 0.0484517 -1.32986e-21)
(-0.128255 0.0514279 0)
(-0.147947 0.0537796 0)
(-0.16758 0.055391 0)
(-0.186871 0.0562165 0)
(-0.205589 0.0562724 -1.21949e-21)
(-0.223551 0.0556225 0)
(-0.240633 0.0543629 2.42842e-21)
(-0.256756 0.052607 0)
(-0.271888 0.0504729 0)
(-0.28603 0.0480739 -2.45979e-21)
(-0.29921 0.045512 0)
(-0.311474 0.0428741 2.49324e-21)
(-0.32288 0.0402306 -1.2525e-21)
(-0.33349 0.0376355 1.26205e-21)
(-0.343367 0.0351275 -1.27124e-21)
(-0.35257 0.0327326 -1.27983e-21)
(-0.361156 0.0304654 0)
(-0.369172 0.0283321 0)
(-0.376663 0.0263321 1.30028e-21)
(-0.383665 0.0244602 -1.30007e-21)
(-0.390209 0.0227075 0)
(-0.396319 0.0210633 0)
(-0.402016 0.0195157 1.31175e-21)
(-0.407314 0.0180522 0)
(-0.412227 0.0166603 0)
(-0.416763 0.015328 -1.30679e-21)
(-0.420927 0.0140437 0)
(-0.424722 0.0127964 1.29379e-21)
(-0.428151 0.0115761 -2.57813e-21)
(-0.431214 0.0103732 0)
(-0.433912 0.00917926 0)
(-0.436244 0.0079865 -5.0365e-21)
(-0.438211 0.00678815 -4.98463e-21)
(-0.439815 0.00557841 -4.92587e-21)
(-0.441057 0.0043535 2.4397e-21)
(-0.441945 0.00311504 -2.38137e-21)
(-0.442484 0.00187274 -7.04336e-21)
(-0.442677 0.000642013 4.61328e-21)
(-0.442521 -0.000564993 2.23748e-21)
(-0.44188 -0.0017575 0)
(-0.440722 -0.00295537 -2.1164e-21)
(-0.439014 -0.00416829 2.10077e-21)
(-0.43673 -0.00540059 0)
(-0.433846 -0.00665337 0)
(-0.430342 -0.00792567 0)
(-0.426199 -0.00921515 -1.72667e-21)
(-0.421398 -0.0105184 0)
(-0.415923 -0.0118309 3.16256e-21)
(-0.409762 -0.0131478 0)
(-0.402902 -0.0144631 2.75097e-21)
(-0.395336 -0.0157703 0)
(-0.38706 -0.0170628 -2.29857e-21)
(-0.378071 -0.018333 0)
(-0.368373 -0.0195735 1.80717e-21)
(-0.357973 -0.0207765 -8.46451e-22)
(-0.346882 -0.0219344 0)
(-0.335115 -0.0230397 -1.00354e-21)
(-0.322693 -0.0240851 -2.77326e-22)
(-0.30964 -0.0250639 -1.29028e-22)
(-0.295984 -0.02597 0)
(-0.281758 -0.0267978 -6.67786e-24)
(-0.266998 -0.0275429 3.319e-22)
(-0.251744 -0.0282014 0)
(-0.236037 -0.0287708 -6.48704e-22)
(-0.219922 -0.0292492 1.41765e-21)
(-0.203445 -0.0296359 0)
(-0.186654 -0.0299314 1.13031e-21)
(-0.169598 -0.0301369 0)
(-0.152325 -0.0302545 -4.14442e-21)
(-0.134883 -0.0302872 0)
(-0.117321 -0.0302386 5.0954e-21)
(-0.0996856 -0.0301125 1.92539e-21)
(-0.0820211 -0.0299133 -1.87038e-21)
(-0.0643705 -0.0296445 -4.04923e-21)
(-0.0467731 -0.029309 4.35482e-21)
(-0.0292634 -0.0289077 0)
(-0.0118696 -0.0284376 0)
(0.00537803 -0.027893 0)
(0.0224346 -0.0272748 -1.66928e-20)
(0.0392582 -0.0266043 -5.8065e-21)
(0.0558293 -0.025905 5.9101e-21)
(0.0721365 -0.025189 0)
(0.0881643 -0.0244631 5.76225e-21)
(0.103898 -0.0237321 -6.14881e-21)
(0.119326 -0.0229999 -6.20681e-21)
(0.134436 -0.0222699 0)
(0.149223 -0.0215449 0)
(0.163679 -0.0208278 0)
(0.177802 -0.020121 -6.35012e-21)
(0.191588 -0.0194263 0)
(0.205037 -0.0187456 1.254e-20)
(0.218151 -0.0180801 1.89431e-20)
(0.23093 -0.017431 -1.25701e-20)
(0.243379 -0.0167988 0)
(0.2555 -0.0161841 -6.19273e-21)
(0.267297 -0.015587 0)
(0.278777 -0.0150072 -1.25168e-20)
(0.289943 -0.0144443 6.1682e-21)
(0.3008 -0.0138978 6.15318e-21)
(0.311352 -0.0133668 0)
(0.321605 -0.0128501 1.85967e-20)
(0.331562 -0.0123465 -1.23039e-20)
(0.341226 -0.0118548 -6.18047e-21)
(0.3506 -0.0113734 0)
(0.359685 -0.0109007 -6.11464e-21)
(0.368481 -0.0104353 -1.81463e-20)
(0.376988 -0.00997543 0)
(0.385205 -0.0095197 -1.19358e-20)
(0.393128 -0.00906664 -1.18692e-20)
(0.400754 -0.00861496 -1.18023e-20)
(0.408079 -0.00816355 0)
(0.415095 -0.00771152 0)
(0.421798 -0.00725827 0)
(0.428179 -0.00680349 5.74095e-21)
(0.434232 -0.00634721 5.76202e-21)
(0.439949 -0.00588982 0)
(0.445324 -0.00543211 1.13489e-20)
(0.450348 -0.0049752 1.12893e-20)
(0.455017 -0.00452056 0)
(0.459325 -0.00406993 1.1208e-20)
(0.463269 -0.00362515 2.22443e-20)
(0.466847 -0.00318772 -1.10961e-20)
(0.470057 -0.0027579 -1.09985e-20)
(0.472903 -0.00233341 0)
(0.475392 -0.0019087 0)
(0.477548 -0.0014792 0)
(0.47943 -0.00105884 -1.08575e-20)
(0.481081 -0.000684022 1.07923e-20)
(0.482431 -0.000375204 2.1523e-20)
(0.483469 -0.000123517 -1.07261e-20)
(0.484211 8.37059e-05 1.06725e-20)
(0.484683 0.000254351 1.06408e-20)
(0.484912 0.000393574 0)
(0.484928 0.000505117 0)
(0.484759 0.000591953 -1.05179e-20)
(0.484431 0.000656737 0)
(0.48397 0.000701993 0)
(0.4834 0.000730158 2.08041e-20)
(0.482744 0.000743584 0)
(0.482021 0.000744517 1.03264e-20)
(0.481252 0.000735072 -1.0283e-20)
(0.480452 0.000717218 0)
(0.479637 0.000692762 1.0209e-20)
(0.478818 0.000663346 0)
(0.478007 0.00063045 0)
(0.477211 0.0005954 -1.00847e-20)
(0.476438 0.000559377 2.0094e-20)
(0.475692 0.000523441 -1.00047e-20)
(0.474977 0.000488552 0)
(0.474296 0.000455599 0)
(0.473648 0.000425436 9.8885e-21)
(0.473033 0.000398921 0)
(0.472448 0.000376972 9.80913e-21)
(0.471891 0.000360636 0)
(0.471356 0.000351179 0)
(0.470837 0.000350212 0)
(0.470325 0.000359881 9.65583e-21)
(0.469809 0.000383142 0)
(0.469274 0.000424196 -9.58825e-21)
(0.468701 0.000489222 0)
(0.468064 0.000587598 0)
(0.467328 0.000734282 1.90178e-20)
(0.466441 0.000953812 -1.89854e-20)
(0.465338 0.00129112 0)
(0.463891 0.00182398 0)
(0.462024 0.00274211 0)
(0.459203 0.00430676 5.74398e-20)
(0.456152 0.00775474 0)
(0.4498 0.0133285 -3.91965e-20)
(-0.0109779 -0.0316118 -1.7597e-22)
(-0.0171549 -0.00623764 7.09195e-21)
(-0.027801 0.0129434 0)
(-0.0398235 0.0289588 -5.35548e-21)
(-0.0524561 0.0424427 0)
(-0.0657186 0.0535217 0)
(-0.079876 0.0624124 1.55437e-23)
(-0.0950362 0.0695815 2.2274e-21)
(-0.111022 0.0754733 2.16193e-21)
(-0.127474 0.0802943 2.10035e-21)
(-0.144008 0.0840451 0)
(-0.160295 0.0866572 0)
(-0.176083 0.0880867 -2.01247e-21)
(-0.191198 0.0883512 -3.98941e-21)
(-0.205536 0.0875319 3.96616e-21)
(-0.219052 0.0857599 0)
(-0.231751 0.0831977 3.94854e-21)
(-0.243669 0.0800205 -1.93176e-21)
(-0.254863 0.076401 0)
(-0.265398 0.072498 3.96765e-21)
(-0.275339 0.0684492 1.95696e-21)
(-0.284751 0.0643681 -3.99486e-21)
(-0.293686 0.0603431 -1.98038e-21)
(-0.302193 0.056439 0)
(-0.310307 0.0526998 4.04005e-21)
(-0.318059 0.049152 4.05409e-21)
(-0.325473 0.0458082 0)
(-0.332564 0.0426701 4.07834e-21)
(-0.339347 0.0397318 0)
(-0.345831 0.0369815 4.09563e-21)
(-0.352022 0.0344044 2.04887e-21)
(-0.357926 0.0319834 0)
(-0.363546 0.0297006 0)
(-0.368882 0.0275382 0)
(-0.373935 0.0254786 0)
(-0.378705 0.0235055 0)
(-0.38319 0.0216032 0)
(-0.387386 0.0197578 4.06042e-21)
(-0.391289 0.0179565 -6.06129e-21)
(-0.394895 0.0161878 0)
(-0.398197 0.0144419 0)
(-0.401187 0.0127105 0)
(-0.403859 0.0109865 -8.20493e-24)
(-0.406201 0.00926481 3.86985e-21)
(-0.408203 0.00754117 7.65501e-21)
(-0.409852 0.00581256 -7.54874e-21)
(-0.411127 0.00407577 -3.72562e-21)
(-0.412006 0.00232483 3.63865e-21)
(-0.412457 0.000547909 2.8405e-23)
(-0.412451 -0.00127006 3.5117e-21)
(-0.411957 -0.00313461 0)
(-0.410954 -0.00504242 3.33144e-21)
(-0.409418 -0.00699091 4.58321e-23)
(-0.407324 -0.00897773 0)
(-0.404651 -0.0109999 0)
(-0.401377 -0.0130535 -2.88493e-21)
(-0.397483 -0.0151334 0)
(-0.392951 -0.0172333 0)
(-0.387763 -0.0193456 2.54595e-21)
(-0.381907 -0.0214617 4.63793e-21)
(-0.375371 -0.0235719 -2.075e-21)
(-0.368146 -0.0256658 0)
(-0.360226 -0.0277318 1.72455e-21)
(-0.351611 -0.0297583 0)
(-0.342302 -0.0317328 1.55343e-21)
(-0.332307 -0.033643 1.15131e-21)
(-0.321635 -0.0354765 -2.12037e-21)
(-0.310301 -0.0372211 -9.72213e-22)
(-0.298325 -0.0388654 0)
(-0.285731 -0.0403986 8.7609e-22)
(-0.272546 -0.0418109 0)
(-0.258801 -0.0430937 -1.133e-22)
(-0.244532 -0.0442399 -4.30113e-22)
(-0.229776 -0.0452436 -8.7411e-22)
(-0.214575 -0.0461008 1.32054e-21)
(-0.198972 -0.0468087 -2.79088e-21)
(-0.183012 -0.0473667 0)
(-0.166741 -0.0477752 0)
(-0.150207 -0.0480366 3.10926e-21)
(-0.133456 -0.0481544 5.47186e-21)
(-0.116536 -0.0481335 0)
(-0.0994926 -0.04798 -2.35788e-21)
(-0.0823713 -0.0477007 0)
(-0.0652153 -0.0473032 8.06817e-21)
(-0.0480655 -0.0467955 2.87129e-22)
(-0.0309594 -0.0461861 -2.85689e-22)
(-0.01393 -0.0454841 -6.52295e-21)
(0.00299268 -0.0446992 0)
(0.0197773 -0.0438434 7.12461e-21)
(0.0363882 -0.0429306 2.62807e-22)
(0.0527935 -0.04197 0)
(0.0689709 -0.0409684 0)
(0.084902 -0.039934 0)
(0.100569 -0.0388747 -8.41008e-21)
(0.115957 -0.0377978 0)
(0.131053 -0.0367099 0)
(0.145847 -0.0356169 0)
(0.16033 -0.0345244 0)
(0.174495 -0.0334373 0)
(0.18834 -0.0323599 -8.96737e-21)
(0.20186 -0.0312959 0)
(0.215056 -0.0302486 -9.29447e-21)
(0.227927 -0.0292206 -9.3554e-21)
(0.240475 -0.028214 9.40747e-21)
(0.252702 -0.0272304 0)
(0.264612 -0.0262708 9.48737e-21)
(0.276208 -0.0253358 0)
(0.287494 -0.0244255 9.53868e-21)
(0.298476 -0.0235397 -9.55493e-21)
(0.309157 -0.0226776 -2.84768e-20)
(0.319542 -0.0218382 0)
(0.329635 -0.0210201 -2.85168e-20)
(0.33944 -0.0202216 -9.37947e-21)
(0.34896 -0.0194408 0)
(0.358198 -0.0186757 -1.8931e-20)
(0.367156 -0.0179239 -1.89126e-20)
(0.375834 -0.0171833 2.84093e-20)
(0.384232 -0.0164514 0)
(0.392351 -0.015726 9.48169e-21)
(0.400187 -0.0150049 9.45966e-21)
(0.407737 -0.0142861 2.81881e-20)
(0.414999 -0.0135679 0)
(0.421967 -0.0128489 0)
(0.428635 -0.0121281 0)
(0.434999 -0.0114049 9.24408e-21)
(0.441052 -0.0106794 0)
(0.446787 -0.00995181 0)
(0.452198 -0.00922333 -9.26221e-21)
(0.457279 -0.00849549 -9.23845e-21)
(0.462024 -0.00777038 0)
(0.46643 -0.0070505 0)
(0.470492 -0.0063386 -1.83441e-20)
(0.474209 -0.00563733 0)
(0.47758 -0.00494879 1.82647e-20)
(0.480609 -0.00427433 1.81924e-20)
(0.483305 -0.00361595 0)
(0.485685 -0.00298003 0)
(0.487771 -0.0023774 -1.81048e-20)
(0.489575 -0.00181833 -1.98676e-23)
(0.491097 -0.00131102 -1.65772e-23)
(0.492334 -0.000860287 0)
(0.493295 -0.000465947 -3.59602e-20)
(0.493995 -0.000125077 0)
(0.494454 0.000165936 0)
(0.494695 0.000410642 0)
(0.494742 0.000612455 1.78084e-20)
(0.494617 0.000774772 0)
(0.494346 0.000901052 -3.54234e-20)
(0.49395 0.000994825 -1.76599e-20)
(0.493452 0.00105967 0)
(0.492871 0.00109914 -1.75517e-20)
(0.492227 0.00111675 0)
(0.491537 0.00111585 0)
(0.490816 0.00109967 -5.21361e-20)
(0.490078 0.00107119 3.46368e-20)
(0.489334 0.00103319 0)
(0.488594 0.000988213 3.43819e-20)
(0.487867 0.000938559 -1.71215e-20)
(0.487158 0.000886325 0)
(0.486472 0.000833413 0)
(0.485812 0.00078157 0)
(0.485179 0.000732437 -5.05678e-20)
(0.484575 0.00068761 0)
(0.483996 0.000648714 -1.67192e-20)
(0.483441 0.000617505 0)
(0.482906 0.000596001 0)
(0.482384 0.000586663 0)
(0.481866 0.000592648 0)
(0.481343 0.000618191 0)
(0.480798 0.000669179 0)
(0.480214 0.000754094 -3.25811e-20)
(0.479564 0.000885552 0)
(0.478814 0.00108317 -1.62049e-20)
(0.477913 0.00137829 4.85281e-20)
(0.476797 0.00182567 0)
(0.475356 0.00251766 0)
(0.4735 0.00365629 -3.24148e-20)
(0.470922 0.00554781 -3.26419e-20)
(0.468003 0.00921905 3.28693e-20)
(0.464179 0.0157561 3.34657e-20)
(-0.0158004 -0.00140876 -1.2284e-20)
(-0.0266103 0.02332 -9.38893e-21)
(-0.0401719 0.0416957 -5.07333e-21)
(-0.0546637 0.0574262 -2.22791e-21)
(-0.0690129 0.0711037 0)
(-0.0831481 0.0827635 4.03653e-21)
(-0.0972568 0.0924086 -1.9608e-21)
(-0.111381 0.100138 0)
(-0.125404 0.106093 -1.83691e-21)
(-0.139134 0.110384 0)
(-0.152386 0.113084 3.6087e-21)
(-0.165026 0.11427 0)
(-0.176984 0.114056 1.71636e-21)