/*--------------------------------*- C++ -*----------------------------------*\
  =========                 |
  \\      /  F ield         | OpenFOAM: The Open Source CFD Toolbox
   \\    /   O peration     | Website:  https://openfoam.org
    \\  /    A nd           | Version:  6
     \\/     M anipulation  |
\*---------------------------------------------------------------------------*/
FoamFile
{
    version     2.0;
    format      ascii;
    class       volScalarField;
    location    "0.05";
    object      epsilon;
}
// * * * * * * * * * * * * * * * * * * * * * * * * * * * * * * * * * * * * * //

dimensions      [0 2 -3 0 0 0 0];

internalField   nonuniform List<scalar> 
3080
(
3.57392
3.57706
3.58024
3.58344
3.58668
3.58994
3.59323
3.59654
3.59987
3.60322
3.60657
3.60993
3.61327
3.61658
3.61984
3.62302
3.62609
3.62898
3.63164
3.63396
3.63581
3.63696
3.63713
3.63581
3.6322
3.62481
3.61082
3.58413
3.53257
3.43163
1.80959
1.81045
1.81132
1.81219
1.81308
1.81398
1.81489
1.81581
1.81673
1.81767
1.81861
1.81955
1.8205
1.82146
1.82241
1.82335
1.82428
1.82519
1.82606
1.8269
1.82766
1.82834
1.82889
1.82926
1.82942
1.8293
1.82894
1.82869
1.83054
1.84318
1.56285
1.56316
1.56347
1.5638
1.56412
1.56445
1.56479
1.56513
1.56547
1.56582
1.56617
1.56653
1.56688
1.56723
1.56759
1.56793
1.56828
1.5686
1.56891
1.5692
1.56945
1.56965
1.56979
1.56984
1.56978
1.56961
1.56936
1.5693
1.57051
1.57719
1.51095
1.511
1.51104
1.5111
1.51115
1.5112
1.51126
1.51132
1.51138
1.51144
1.5115
1.51156
1.51162
1.51168
1.51174
1.51179
1.51183
1.51186
1.51188
1.51187
1.51184
1.51177
1.51164
1.51145
1.51118
1.51081
1.51036
1.51
1.51026
1.51298
1.51247
1.51236
1.51224
1.51212
1.51201
1.51189
1.51178
1.51166
1.51155
1.51143
1.51131
1.51119
1.51107
1.51095
1.51082
1.51068
1.51054
1.51038
1.51021
1.51002
1.5098
1.50954
1.50924
1.50888
1.50843
1.50789
1.50726
1.50662
1.50624
1.507
1.5329
1.53268
1.53246
1.53223
1.53201
1.53178
1.53155
1.53132
1.53109
1.53086
1.53062
1.53038
1.53014
1.5299
1.52964
1.52938
1.52911
1.52883
1.52854
1.52822
1.52787
1.52749
1.52706
1.52658
1.52601
1.52535
1.52458
1.52374
1.52297
1.52274
1.55997
1.55968
1.55939
1.55909
1.55879
1.5585
1.55819
1.55789
1.55758
1.55728
1.55696
1.55665
1.55633
1.556
1.55567
1.55533
1.55498
1.55461
1.55423
1.55383
1.5534
1.55294
1.55243
1.55186
1.55122
1.55048
1.54962
1.54866
1.54768
1.54696
1.58843
1.5881
1.58776
1.58743
1.58709
1.58674
1.5864
1.58605
1.5857
1.58534
1.58498
1.58462
1.58425
1.58388
1.5835
1.58311
1.5827
1.58229
1.58186
1.58141
1.58093
1.58042
1.57986
1.57925
1.57856
1.57778
1.57688
1.57588
1.5748
1.57387
1.61584
1.61549
1.61514
1.61478
1.61442
1.61405
1.61368
1.61331
1.61294
1.61256
1.61218
1.61179
1.6114
1.611
1.61059
1.61017
1.60975
1.60931
1.60885
1.60838
1.60787
1.60734
1.60676
1.60613
1.60543
1.60464
1.60375
1.60274
1.60166
1.60067
1.64108
1.64072
1.64036
1.64
1.63963
1.63926
1.63889
1.63851
1.63813
1.63775
1.63736
1.63696
1.63656
1.63616
1.63574
1.63532
1.63489
1.63444
1.63398
1.6335
1.63299
1.63245
1.63188
1.63125
1.63056
1.62979
1.62893
1.62797
1.62693
1.62597
1.66366
1.66331
1.66296
1.6626
1.66224
1.66188
1.66151
1.66114
1.66077
1.66039
1.66001
1.65962
1.65923
1.65883
1.65842
1.658
1.65758
1.65714
1.65669
1.65621
1.65572
1.6552
1.65464
1.65404
1.65338
1.65265
1.65184
1.65094
1.64998
1.6491
1.68313
1.68279
1.68245
1.68211
1.68176
1.68141
1.68106
1.6807
1.68034
1.67997
1.6796
1.67922
1.67884
1.67845
1.67805
1.67764
1.67722
1.67679
1.67634
1.67587
1.67537
1.67485
1.67428
1.67366
1.67299
1.67224
1.67143
1.67057
1.66978
1.70025
1.69994
1.69962
1.6993
1.69898
1.69865
1.69832
1.69798
1.69764
1.6973
1.69695
1.6966
1.69624
1.69587
1.6955
1.69511
1.69472
1.69432
1.6939
1.69346
1.69299
1.69251
1.69198
1.69142
1.6908
1.69013
1.68941
1.68866
1.68798
1.71486
1.71457
1.71427
1.71398
1.71368
1.71338
1.71308
1.71277
1.71246
1.71214
1.71182
1.71149
1.71116
1.71082
1.71048
1.71013
1.70977
1.70939
1.70901
1.70861
1.70818
1.70774
1.70726
1.70676
1.70621
1.70562
1.70499
1.70435
1.70378
1.72716
1.7269
1.72664
1.72637
1.7261
1.72583
1.72555
1.72527
1.72499
1.72471
1.72442
1.72412
1.72382
1.72352
1.7232
1.72288
1.72256
1.72222
1.72187
1.72151
1.72113
1.72073
1.72031
1.71986
1.71938
1.71887
1.71833
1.71779
1.71733
1.73752
1.73728
1.73705
1.73681
1.73656
1.73632
1.73607
1.73582
1.73556
1.73531
1.73504
1.73478
1.73451
1.73423
1.73395
1.73366
1.73337
1.73306
1.73275
1.73242
1.73208
1.73173
1.73135
1.73096
1.73054
1.7301
1.72965
1.7292
1.72884
1.74596
1.74576
1.74555
1.74534
1.74513
1.74491
1.74469
1.74447
1.74425
1.74402
1.74379
1.74356
1.74332
1.74308
1.74283
1.74258
1.74232
1.74205
1.74177
1.74149
1.74119
1.74088
1.74056
1.74022
1.73987
1.7395
1.73913
1.73878
1.7385
1.75266
1.75249
1.75231
1.75214
1.75196
1.75178
1.75159
1.75141
1.75122
1.75103
1.75083
1.75064
1.75044
1.75023
1.75002
1.74981
1.74959
1.74937
1.74914
1.7489
1.74865
1.74839
1.74813
1.74785
1.74756
1.74727
1.74698
1.74672
1.74653
1.75795
1.75781
1.75767
1.75753
1.75738
1.75724
1.75709
1.75694
1.75679
1.75663
1.75647
1.75631
1.75615
1.75599
1.75582
1.75565
1.75547
1.75529
1.7551
1.75491
1.75471
1.75451
1.75429
1.75408
1.75386
1.75364
1.75343
1.75325
1.75314
1.76212
1.76202
1.7619
1.76179
1.76168
1.76156
1.76145
1.76133
1.76121
1.76109
1.76097
1.76084
1.76072
1.76059
1.76046
1.76032
1.76019
1.76005
1.7599
1.75975
1.7596
1.75944
1.75928
1.75912
1.75896
1.7588
1.75866
1.75856
1.75853
1.76539
1.76531
1.76523
1.76514
1.76506
1.76497
1.76488
1.76479
1.7647
1.76461
1.76452
1.76443
1.76433
1.76424
1.76414
1.76404
1.76394
1.76383
1.76372
1.76361
1.7635
1.76338
1.76327
1.76315
1.76304
1.76295
1.76287
1.76283
1.76286
1.76793
1.76787
1.76781
1.76775
1.76768
1.76762
1.76756
1.76749
1.76743
1.76736
1.7673
1.76723
1.76716
1.7671
1.76703
1.76695
1.76688
1.76681
1.76673
1.76665
1.76657
1.76649
1.76641
1.76634
1.76627
1.76622
1.7662
1.76621
1.76629
1.76987
1.76982
1.76978
1.76974
1.7697
1.76965
1.76961
1.76957
1.76952
1.76948
1.76943
1.76939
1.76934
1.7693
1.76925
1.7692
1.76915
1.7691
1.76905
1.769
1.76895
1.7689
1.76885
1.76881
1.76878
1.76877
1.76878
1.76884
1.76896
1.77131
1.77128
1.77125
1.77123
1.7712
1.77117
1.77114
1.77112
1.77109
1.77106
1.77103
1.771
1.77098
1.77095
1.77092
1.77089
1.77086
1.77083
1.7708
1.77077
1.77074
1.77071
1.77068
1.77067
1.77067
1.77068
1.77073
1.77082
1.77097
1.77233
1.77232
1.7723
1.77228
1.77227
1.77225
1.77224
1.77222
1.7722
1.77219
1.77217
1.77216
1.77214
1.77213
1.77211
1.77209
1.77208
1.77206
1.77205
1.77203
1.77202
1.77201
1.772
1.772
1.77202
1.77206
1.77213
1.77224
1.77241
1.773
1.77299
1.77298
1.77297
1.77296
1.77295
1.77295
1.77294
1.77293
1.77292
1.77292
1.77291
1.7729
1.77289
1.77289
1.77288
1.77287
1.77287
1.77286
1.77286
1.77285
1.77285
1.77286
1.77287
1.77291
1.77296
1.77304
1.77317
1.77336
1.77334
1.77334
1.77333
1.77333
1.77332
1.77332
1.77331
1.77331
1.77331
1.7733
1.7733
1.7733
1.77329
1.77329
1.77329
1.77329
1.77329
1.77328
1.77328
1.77328
1.77329
1.77329
1.7733
1.77333
1.77337
1.77343
1.77352
1.77366
1.77385
1.77339
1.77339
1.77338
1.77338
1.77337
1.77337
1.77337
1.77336
1.77336
1.77336
1.77336
1.77335
1.77335
1.77335
1.77335
1.77335
1.77334
1.77334
1.77334
1.77334
1.77335
1.77335
1.77337
1.77339
1.77343
1.77349
1.77359
1.77373
1.77393
1.77305
1.77304
1.77303
1.77302
1.77301
1.773
1.77299
1.77298
1.77298
1.77297
1.77296
1.77295
1.77294
1.77293
1.77292
1.77292
1.77291
1.7729
1.77289
1.77288
1.77288
1.77288
1.77288
1.7729
1.77293
1.77298
1.77307
1.7732
1.77339
1.77229
1.77227
1.77225
1.77223
1.77221
1.77219
1.77217
1.77215
1.77212
1.7721
1.77208
1.77206
1.77204
1.77201
1.77199
1.77197
1.77194
1.77192
1.7719
1.77187
1.77185
1.77184
1.77182
1.77182
1.77183
1.77186
1.77193
1.77204
1.77221
1.77107
1.77104
1.771
1.77096
1.77092
1.77088
1.77084
1.77079
1.77075
1.77071
1.77067
1.77062
1.77058
1.77053
1.77049
1.77044
1.77039
1.77035
1.7703
1.77025
1.7702
1.77015
1.77011
1.77008
1.77006
1.77006
1.77009
1.77017
1.77031
1.76933
1.76927
1.7692
1.76913
1.76907
1.769
1.76893
1.76886
1.76878
1.76871
1.76864
1.76856
1.76849
1.76841
1.76833
1.76825
1.76816
1.76808
1.76799
1.76791
1.76782
1.76773
1.76765
1.76757
1.7675
1.76746
1.76743
1.76746
1.76756
1.76697
1.76687
1.76676
1.76666
1.76655
1.76645
1.76634
1.76623
1.76611
1.766
1.76588
1.76576
1.76564
1.76552
1.76539
1.76526
1.76513
1.765
1.76486
1.76472
1.76458
1.76443
1.76429
1.76415
1.76402
1.7639
1.76381
1.76376
1.7638
1.76387
1.76372
1.76357
1.76341
1.76326
1.7631
1.76294
1.76277
1.7626
1.76243
1.76226
1.76208
1.7619
1.76171
1.76152
1.76133
1.76113
1.76093
1.76073
1.76052
1.7603
1.76008
1.75986
1.75963
1.75941
1.7592
1.75901
1.75887
1.75882
1.75989
1.75968
1.75946
1.75924
1.75902
1.75879
1.75856
1.75832
1.75808
1.75784
1.75759
1.75734
1.75708
1.75681
1.75654
1.75626
1.75598
1.75569
1.75539
1.75509
1.75478
1.75446
1.75413
1.75379
1.75346
1.75313
1.75282
1.75254
1.75237
1.75484
1.75455
1.75426
1.75396
1.75365
1.75333
1.75301
1.75269
1.75236
1.75202
1.75167
1.75132
1.75096
1.75059
1.75022
1.74983
1.74944
1.74903
1.74862
1.7482
1.74776
1.74731
1.74685
1.74638
1.7459
1.74541
1.74494
1.7445
1.74418
1.74853
1.74814
1.74774
1.74734
1.74692
1.7465
1.74607
1.74563
1.74518
1.74472
1.74426
1.74378
1.7433
1.7428
1.74229
1.74177
1.74124
1.7407
1.74014
1.73956
1.73897
1.73836
1.73774
1.73709
1.73643
1.73576
1.73508
1.73445
1.73394
1.7407
1.74018
1.73966
1.73913
1.73858
1.73802
1.73746
1.73688
1.73629
1.73569
1.73507
1.73445
1.73381
1.73315
1.73248
1.7318
1.7311
1.73038
1.72964
1.72889
1.72811
1.7273
1.72647
1.72562
1.72474
1.72383
1.72292
1.72204
1.7213
1.7312
1.73053
1.72985
1.72916
1.72845
1.72773
1.727
1.72625
1.72549
1.72471
1.72391
1.7231
1.72227
1.72142
1.72055
1.71967
1.71876
1.71783
1.71687
1.71589
1.71488
1.71384
1.71277
1.71166
1.71051
1.70933
1.70813
1.70696
1.70595
1.71972
1.71887
1.71801
1.71713
1.71623
1.71531
1.71438
1.71343
1.71245
1.71146
1.71045
1.70941
1.70836
1.70728
1.70618
1.70505
1.7039
1.70272
1.7015
1.70026
1.69898
1.69766
1.6963
1.69489
1.69344
1.69194
1.69042
1.68891
1.68759
1.70554
1.70449
1.70342
1.70233
1.70121
1.70008
1.69892
1.69774
1.69654
1.69531
1.69406
1.69278
1.69148
1.69015
1.68879
1.6874
1.68598
1.68452
1.68303
1.6815
1.67993
1.67832
1.67665
1.67493
1.67315
1.67132
1.66945
1.6676
1.66597
1.68802
1.68675
1.68546
1.68414
1.6828
1.68143
1.68004
1.67862
1.67718
1.67571
1.67421
1.67268
1.67112
1.66953
1.66791
1.66626
1.66456
1.66284
1.66107
1.65926
1.6574
1.65549
1.65352
1.65149
1.6494
1.64725
1.64507
1.64292
1.64103
1.66702
1.66556
1.66406
1.66255
1.661
1.65943
1.65783
1.6562
1.65455
1.65286
1.65115
1.64941
1.64763
1.64583
1.64399
1.64211
1.6402
1.63825
1.63626
1.63422
1.63214
1.63
1.6278
1.62555
1.62322
1.62084
1.61845
1.6161
1.61411
1.6429
1.64131
1.63969
1.63805
1.63638
1.63469
1.63297
1.63122
1.62945
1.62765
1.62583
1.62397
1.62209
1.62018
1.61823
1.61626
1.61425
1.61221
1.61013
1.60801
1.60584
1.60362
1.60135
1.59902
1.59663
1.5942
1.59178
1.58945
1.58763
1.61538
1.61379
1.61217
1.61054
1.60888
1.60721
1.60551
1.6038
1.60206
1.6003
1.59853
1.59673
1.5949
1.59306
1.59119
1.5893
1.58738
1.58544
1.58347
1.58146
1.57942
1.57733
1.5752
1.57302
1.5708
1.56854
1.56634
1.56431
1.56301
1.58433
1.58293
1.58152
1.58009
1.57866
1.57721
1.57575
1.57428
1.57279
1.5713
1.56979
1.56828
1.56675
1.56521
1.56365
1.56209
1.56051
1.55891
1.55729
1.55566
1.554
1.5523
1.55058
1.54881
1.54702
1.54521
1.54351
1.54208
1.54171
1.55463
1.55357
1.5525
1.55142
1.55034
1.54926
1.54818
1.54709
1.546
1.5449
1.54381
1.54271
1.54161
1.5405
1.5394
1.53828
1.53717
1.53605
1.53491
1.53377
1.53261
1.53143
1.53022
1.52898
1.52771
1.52645
1.52535
1.52464
1.52547
1.53163
1.53092
1.53021
1.5295
1.5288
1.52811
1.52741
1.52672
1.52604
1.52536
1.52469
1.52402
1.52336
1.5227
1.52205
1.5214
1.52076
1.52011
1.51947
1.51882
1.51816
1.51749
1.51679
1.51607
1.51533
1.5146
1.51407
1.5141
1.51632
1.51653
1.51624
1.51595
1.51568
1.51542
1.51517
1.51493
1.5147
1.51448
1.51428
1.51409
1.51392
1.51376
1.51361
1.51347
1.51334
1.51322
1.51311
1.513
1.51288
1.51275
1.5126
1.51243
1.51223
1.51204
1.51209
1.51285
1.51672
1.51402
1.51418
1.51437
1.51457
1.51479
1.51502
1.51528
1.51555
1.51584
1.51616
1.51649
1.51685
1.51722
1.51761
1.51803
1.51845
1.5189
1.51935
1.51981
1.52027
1.52072
1.52114
1.52154
1.5219
1.52224
1.52284
1.52431
1.53009
1.52851
1.52919
1.52988
1.53061
1.53135
1.53212
1.53292
1.53374
1.53459
1.53547
1.53637
1.5373
1.53826
1.53924
1.54025
1.54128
1.54233
1.5434
1.54447
1.54554
1.5466
1.54763
1.54861
1.54953
1.5504
1.55149
1.5536
1.56158
1.56824
1.56949
1.57076
1.57207
1.57341
1.57478
1.57618
1.57762
1.57909
1.5806
1.58214
1.58372
1.58532
1.58697
1.58864
1.59034
1.59206
1.5938
1.59555
1.5973
1.59902
1.6007
1.6023
1.60381
1.60518
1.60669
1.60927
1.61975
1.64832
1.65025
1.65221
1.65421
1.65625
1.65833
1.66046
1.66262
1.66483
1.66709
1.66938
1.67172
1.6741
1.67652
1.67897
1.68146
1.68398
1.68651
1.68905
1.69158
1.69407
1.69648
1.69878
1.7009
1.70275
1.70458
1.70733
1.72058
1.80136
1.80417
1.80703
1.80994
1.81291
1.81592
1.81899
1.82211
1.82529
1.82852
1.83181
1.83515
1.83854
1.84198
1.84546
1.84899
1.85254
1.8561
1.85966
1.8632
1.86666
1.87
1.87313
1.87596
1.87827
1.88024
1.88256
1.89865
2.11578
2.11998
2.12425
2.12859
2.133
2.13748
2.14204
2.14667
2.15137
2.15614
2.16099
2.16591
2.17089
2.17593
2.18103
2.18617
2.19134
2.19652
2.20167
2.20675
2.2117
2.21642
2.22075
2.22452
2.22726
2.22894
2.2294
2.24695
2.94695
2.95422
2.96161
2.96911
2.97672
2.98445
2.99229
3.00025
3.00833
3.01652
3.02483
3.03324
3.04175
3.05034
3.05901
3.06773
3.07647
3.08517
3.09378
3.1022
3.11029
3.11786
3.12455
3.1299
3.13287
3.1323
3.12551
3.13004
7.37658
7.3981
7.41993
7.44207
7.46453
7.48731
7.5104
7.53381
7.55753
7.58154
7.60584
7.63038
7.65515
7.68008
7.7051
7.73012
7.75499
7.7795
7.80339
7.8262
7.84739
7.86579
7.88044
7.88701
7.88456
7.84991
7.77193
7.46389
3.65588
3.7556
3.85243
3.93398
3.99435
4.04447
4.09192
4.13796
4.18306
4.23115
4.28297
4.33981
4.40262
4.47196
4.54828
4.63182
4.72357
4.82339
4.93506
5.0537
5.19753
5.33173
5.5469
5.66703
6.19481
1.84772
1.85931
1.8777
1.89949
1.92052
1.93927
1.9561
1.97159
1.98628
2.00152
2.01728
2.03395
2.052
2.07176
2.09345
2.11728
2.14342
2.17224
2.20387
2.23919
2.27865
2.32303
2.3754
2.43588
2.53188
1.57889
1.58392
1.59221
1.60304
1.61462
1.62557
1.63543
1.64428
1.65237
1.66028
1.66823
1.6765
1.68539
1.69511
1.70584
1.7177
1.73079
1.74532
1.76135
1.77939
1.79947
1.82261
1.84878
1.88189
1.92399
1.51554
1.51929
1.52439
1.53095
1.53824
1.54534
1.5518
1.55748
1.56251
1.56715
1.57165
1.57623
1.58112
1.58651
1.59252
1.59926
1.60681
1.61529
1.62476
1.63554
1.64766
1.66186
1.67786
1.69899
1.72372
1.5099
1.51326
1.51697
1.52138
1.52622
1.53097
1.53527
1.53898
1.5421
1.54479
1.54725
1.54966
1.55221
1.55507
1.55834
1.5621
1.56644
1.57142
1.57712
1.58374
1.59133
1.60044
1.6108
1.62514
1.64142
1.5256
1.52874
1.53172
1.53489
1.53822
1.54143
1.54427
1.5466
1.54842
1.5498
1.5509
1.55188
1.5529
1.55409
1.55555
1.55736
1.55957
1.56225
1.56545
1.56934
1.57394
1.57972
1.58641
1.59633
1.60751
1.5496
1.5525
1.55502
1.55743
1.5598
1.56197
1.56379
1.56516
1.56606
1.56654
1.56671
1.56671
1.56667
1.56671
1.56692
1.56736
1.56809
1.56916
1.57062
1.57258
1.57508
1.57852
1.58262
1.58944
1.59715
1.57621
1.57884
1.58102
1.58294
1.58467
1.58614
1.58726
1.58796
1.58823
1.58808
1.58762
1.58695
1.58618
1.58543
1.58476
1.58425
1.58393
1.58386
1.58405
1.58464
1.58561
1.58736
1.58956
1.59411
1.59927
1.60269
1.60503
1.60694
1.60851
1.60982
1.61082
1.61147
1.61173
1.61157
1.61102
1.61014
1.60903
1.60778
1.60649
1.60523
1.60406
1.603
1.60211
1.6014
1.601
1.60086
1.60137
1.60214
1.60502
1.60823
1.62769
1.62974
1.6314
1.63273
1.63375
1.63445
1.6348
1.63477
1.63435
1.63355
1.63243
1.63105
1.62951
1.62789
1.62624
1.62462
1.62307
1.62162
1.62028
1.61917
1.61823
1.61785
1.61756
1.61918
1.62086
1.65054
1.65231
1.65376
1.6549
1.65573
1.65624
1.65641
1.65622
1.65567
1.65475
1.65351
1.65201
1.65032
1.64851
1.64664
1.64476
1.64289
1.64107
1.63932
1.63773
1.63623
1.63521
1.63415
1.63482
1.63529
1.67099
1.67251
1.67377
1.67475
1.67545
1.67585
1.67593
1.67568
1.67508
1.67414
1.67288
1.67136
1.66963
1.66776
1.66579
1.66378
1.66174
1.65972
1.65771
1.65582
1.65395
1.6525
1.65088
1.65087
1.65037
1.68899
1.69028
1.69137
1.69223
1.69285
1.69319
1.69325
1.69299
1.69241
1.69152
1.69032
1.68885
1.68717
1.68533
1.68337
1.68133
1.67923
1.67712
1.67499
1.67294
1.67085
1.66913
1.66714
1.66663
1.66537
1.70461
1.70571
1.70666
1.70742
1.70798
1.70831
1.70838
1.70817
1.70766
1.70686
1.70577
1.70443
1.70286
1.70111
1.69922
1.69724
1.69518
1.69307
1.69092
1.68882
1.68663
1.68477
1.68254
1.68169
1.67983
1.71803
1.71896
1.71978
1.72047
1.721
1.72133
1.72144
1.7213
1.7209
1.72024
1.7193
1.7181
1.71669
1.71509
1.71333
1.71146
1.7095
1.70747
1.70538
1.7033
1.70111
1.69921
1.69686
1.69579
1.69348
1.72942
1.73021
1.73093
1.73157
1.73208
1.73243
1.73259
1.73255
1.73228
1.73176
1.73099
1.72998
1.72875
1.72733
1.72574
1.72403
1.72221
1.72032
1.71833
1.71635
1.71422
1.71236
1.70997
1.70879
1.70613
1.73899
1.73967
1.74032
1.7409
1.7414
1.74179
1.74202
1.74208
1.74194
1.74158
1.74099
1.74018
1.73915
1.73793
1.73654
1.73501
1.73337
1.73164
1.72981
1.72797
1.72596
1.72419
1.72182
1.7206
1.71769
1.74696
1.74755
1.74813
1.74869
1.74919
1.7496
1.74991
1.75007
1.75007
1.74987
1.74947
1.74885
1.74803
1.74702
1.74584
1.74451
1.74306
1.74152
1.73986
1.7382
1.73633
1.7347
1.73241
1.7312
1.72811
1.75352
1.75404
1.75457
1.75511
1.75561
1.75607
1.75644
1.75671
1.75683
1.7568
1.75657
1.75615
1.75553
1.75473
1.75376
1.75264
1.75139
1.75005
1.74858
1.7471
1.74541
1.74393
1.74175
1.74059
1.7374
1.75887
1.75933
1.75983
1.76035
1.76086
1.76135
1.76179
1.76215
1.7624
1.76251
1.76246
1.76222
1.7618
1.7612
1.76043
1.75951
1.75846
1.75732
1.75605
1.75476
1.75324
1.75193
1.74988
1.74881
1.74554
1.76318
1.7636
1.76407
1.76457
1.7651
1.76562
1.76613
1.76657
1.76693
1.76718
1.76728
1.76721
1.76697
1.76656
1.76598
1.76525
1.76439
1.76344
1.76235
1.76125
1.75991
1.75876
1.75685
1.75588
1.75258
1.76659
1.76698
1.76743
1.76793
1.76846
1.76902
1.76958
1.7701
1.77056
1.77092
1.77116
1.77124
1.77117
1.77092
1.77051
1.76996
1.76927
1.76849
1.76758
1.76665
1.76548
1.7645
1.76272
1.76184
1.75854
1.76924
1.76961
1.77004
1.77054
1.77109
1.77167
1.77227
1.77286
1.7734
1.77387
1.77422
1.77444
1.7745
1.77439
1.77413
1.77373
1.7732
1.77257
1.77182
1.77104
1.77002
1.76918
1.76753
1.76675
1.76347
1.77124
1.77159
1.77202
1.77251
1.77307
1.77368
1.77432
1.77496
1.77557
1.77611
1.77656
1.77688
1.77706
1.77707
1.77694
1.77666
1.77626
1.77576
1.77513
1.77449
1.7736
1.77288
1.77134
1.77063
1.76738
1.77268
1.77302
1.77344
1.77394
1.7745
1.77513
1.7758
1.77648
1.77714
1.77775
1.77827
1.77867
1.77893
1.77904
1.77899
1.77881
1.77851
1.77811
1.77759
1.77704
1.77625
1.77563
1.77419
1.77353
1.77032
1.77362
1.77396
1.77438
1.77487
1.77545
1.77608
1.77677
1.77748
1.77817
1.77883
1.77939
1.77985
1.78017
1.78034
1.78036
1.78024
1.78
1.77967
1.77922
1.77875
1.77803
1.77747
1.7761
1.77548
1.77231
1.77412
1.77445
1.77487
1.77537
1.77594
1.77659
1.77729
1.77801
1.77872
1.7794
1.77999
1.78047
1.78082
1.78102
1.78107
1.78099
1.78079
1.78049
1.78008
1.77964
1.77897
1.77844
1.77711
1.77649
1.77338
1.77419
1.77453
1.77495
1.77545
1.77603
1.77668
1.77738
1.7781
1.77882
1.77949
1.78009
1.78057
1.78092
1.78111
1.78117
1.78109
1.78088
1.78059
1.78018
1.77974
1.77908
1.77854
1.77725
1.77658
1.77354
1.77367
1.77401
1.77444
1.77495
1.77553
1.77617
1.77686
1.77757
1.77826
1.77891
1.77947
1.77991
1.78021
1.78036
1.78037
1.78024
1.77999
1.77965
1.7792
1.77872
1.77802
1.77743
1.77611
1.77538
1.77239
1.7725
1.77286
1.7733
1.77381
1.77439
1.77503
1.77569
1.77636
1.77701
1.77759
1.77808
1.77844
1.77866
1.77872
1.77863
1.77841
1.77807
1.77764
1.7771
1.77652
1.77574
1.77506
1.77367
1.77285
1.76989
1.77061
1.771
1.77146
1.77198
1.77256
1.77317
1.7738
1.77442
1.77499
1.77548
1.77586
1.7761
1.77619
1.77612
1.77589
1.77554
1.77506
1.77449
1.77382
1.77311
1.7722
1.77139
1.7699
1.76898
1.76603
1.76789
1.76831
1.7688
1.76933
1.7699
1.77049
1.77107
1.77161
1.77208
1.77245
1.77269
1.77278
1.7727
1.77245
1.77205
1.77152
1.77087
1.77013
1.76928
1.76841
1.76733
1.76637
1.76474
1.7637
1.76076
1.76416
1.76464
1.76516
1.76571
1.76627
1.76683
1.76734
1.76779
1.76814
1.76836
1.76842
1.76831
1.76803
1.76757
1.76696
1.76622
1.76537
1.76443
1.76338
1.76231
1.76105
1.7599
1.75812
1.75696
1.75404
1.75923
1.75977
1.76034
1.76092
1.76148
1.76199
1.76243
1.76276
1.76296
1.763
1.76286
1.76252
1.762
1.76131
1.76047
1.7595
1.75841
1.75725
1.75599
1.75471
1.75324
1.75191
1.74997
1.74869
1.74582
1.75285
1.75349
1.75412
1.75473
1.75529
1.75575
1.7561
1.7563
1.75633
1.75616
1.75578
1.7552
1.75442
1.75347
1.75237
1.75115
1.74983
1.74844
1.74696
1.74546
1.74379
1.74227
1.74019
1.73882
1.73605
1.74474
1.7455
1.74622
1.74688
1.74743
1.74785
1.74809
1.74814
1.74798
1.74758
1.74695
1.74609
1.74504
1.74382
1.74247
1.741
1.73945
1.73784
1.73614
1.73444
1.73258
1.73091
1.7287
1.72729
1.72468
1.7346
1.73551
1.73634
1.73706
1.73761
1.73797
1.73811
1.738
1.73762
1.73698
1.73609
1.73495
1.73363
1.73215
1.73054
1.72885
1.72708
1.72527
1.72339
1.72152
1.71951
1.71773
1.71546
1.71407
1.71171
1.72211
1.7232
1.72417
1.72495
1.72551
1.72582
1.72584
1.72556
1.72498
1.72409
1.72293
1.72153
1.71995
1.71822
1.7164
1.71452
1.71257
1.71061
1.70859
1.70661
1.70452
1.7027
1.70044
1.69918
1.69718
1.70693
1.70825
1.70936
1.71023
1.71081
1.71107
1.71099
1.71055
1.70976
1.70864
1.70723
1.70559
1.70378
1.70187
1.69988
1.69786
1.69581
1.69376
1.69168
1.68968
1.68759
1.68584
1.6837
1.6827
1.68121
1.68876
1.69034
1.69163
1.69261
1.69322
1.69344
1.69327
1.69269
1.69173
1.69041
1.6888
1.68697
1.685
1.68296
1.68089
1.67882
1.67676
1.67473
1.6727
1.67079
1.66884
1.66729
1.66543
1.66486
1.66406
1.66739
1.66925
1.67074
1.67183
1.6725
1.67273
1.6725
1.67184
1.67075
1.6693
1.66756
1.66563
1.66359
1.66153
1.65948
1.65749
1.65554
1.65368
1.65185
1.65019
1.64854
1.64739
1.64599
1.6461
1.6462
1.64273
1.64489
1.64659
1.64783
1.6486
1.64889
1.64869
1.64802
1.64691
1.64542
1.64366
1.64175
1.63978
1.63784
1.63598
1.63422
1.63256
1.63104
1.62961
1.62842
1.62729
1.62678
1.62609
1.62721
1.62846
1.61617
1.61864
1.62056
1.62199
1.62293
1.62337
1.62332
1.62277
1.62177
1.62039
1.61877
1.61703
1.6153
1.61367
1.61218
1.61086
1.6097
1.60874
1.60794
1.60746
1.60711
1.60753
1.60783
1.61029
1.61298
1.59011
1.59287
1.59502
1.5967
1.59791
1.59864
1.59888
1.5986
1.59786
1.59675
1.59542
1.59403
1.5927
1.59155
1.59061
1.58992
1.58946
1.58927
1.5893
1.58976
1.59043
1.59203
1.59358
1.5977
1.60208
1.56599
1.569
1.5714
1.57342
1.57504
1.57622
1.57691
1.57706
1.57673
1.57604
1.57517
1.57428
1.57353
1.57303
1.57283
1.57295
1.57337
1.57415
1.57524
1.57686
1.57878
1.58182
1.58488
1.59094
1.59731
1.54526
1.54849
1.55119
1.55367
1.55588
1.55768
1.55899
1.55974
1.55997
1.55986
1.55959
1.55937
1.55936
1.55969
1.56039
1.5615
1.56301
1.56496
1.56732
1.57034
1.57376
1.57849
1.58336
1.59166
1.60039
1.52957
1.53298
1.53606
1.5392
1.54219
1.54483
1.54693
1.54843
1.54939
1.55
1.55048
1.55109
1.55199
1.55331
1.55511
1.55741
1.5602
1.56355
1.56741
1.57207
1.57726
1.58398
1.59098
1.60187
1.61343
1.52089
1.52447
1.52808
1.53211
1.53614
1.53981
1.5429
1.54531
1.54714
1.54863
1.55003
1.55162
1.5536
1.55612
1.55921
1.56291
1.56722
1.5722
1.57783
1.58443
1.5917
1.60075
1.61025
1.62416
1.63915
1.52168
1.5255
1.52988
1.53512
1.54048
1.54543
1.5497
1.55319
1.55605
1.55857
1.56107
1.56383
1.5671
1.57102
1.57565
1.58101
1.5871
1.59403
1.60174
1.61062
1.62036
1.63217
1.64466
1.66213
1.68142
1.5354
1.53964
1.54516
1.55203
1.55907
1.56556
1.57122
1.576
1.58008
1.58383
1.58763
1.5918
1.5966
1.60221
1.60866
1.61601
1.62425
1.6335
1.64374
1.65536
1.66809
1.68323
1.69937
1.72115
1.74595
1.56727
1.57234
1.57957
1.58863
1.59777
1.60613
1.61345
1.61975
1.6253
1.63055
1.63592
1.64181
1.6485
1.65617
1.66488
1.67468
1.68557
1.6977
1.71104
1.72609
1.74253
1.76184
1.78258
1.80974
1.84194
1.6261
1.63277
1.64256
1.65459
1.6664
1.67705
1.68643
1.6946
1.70198
1.70911
1.71649
1.72457
1.73367
1.74398
1.75558
1.76853
1.78284
1.79869
1.81609
1.83559
1.85689
1.88165
1.90851
1.94273
1.9854
1.7285
1.73814
1.75191
1.76807
1.78337
1.797
1.80903
1.81967
1.82951
1.83918
1.84927
1.86032
1.8727
1.88663
1.9022
1.91949
1.93853
1.95954
1.98256
2.00828
2.03642
2.06882
2.10444
2.14857
2.2072
1.91073
1.92599
1.94631
1.9686
1.98881
2.00665
2.02253
2.03678
2.05027
2.06373
2.07791
2.09344
2.11079
2.13021
2.15183
2.17576
2.20205
2.23102
2.26276
2.29811
2.33698
2.38124
2.43096
2.49032
2.57624
2.27168
2.29844
2.33126
2.36387
2.39208
2.41701
2.43953
2.46013
2.48011
2.50038
2.52187
2.54546
2.57175
2.6011
2.6337
2.66971
2.70929
2.75285
2.8007
2.85382
2.91287
2.97896
3.05605
3.14275
3.28488
3.20815
3.26548
3.33185
3.38768
3.43367
3.47547
3.51415
3.55037
3.58655
3.62375
3.6635
3.70721
3.7559
3.81022
3.87054
3.93717
4.01061
4.09136
4.1808
4.27925
4.39159
4.51256
4.66521
4.81652
5.12305
8.12909
8.36202
8.62994
8.78898
8.91549
9.04141
9.16065
9.27461
9.38964
9.50971
9.6396
9.78361
9.94504
10.1255
10.3268
10.5485
10.7954
11.063
11.369
11.6885
12.088
12.4542
13.0433
13.413
14.7333
)
;

boundaryField
{
    inlet
    {
        type            fixedValue;
        value           nonuniform 0();
    }
    outlet
    {
        type            zeroGradient;
    }
    upperWall
    {
        Cmu             0.09;
        kappa           0.41;
        E               9.8;
        type            epsilonWallFunction;
        value           nonuniform List<scalar> 
53
(
7.37658
7.3981
7.41993
7.44207
7.46453
7.48731
7.5104
7.53381
7.55753
7.58154
7.60584
7.63038
7.65515
7.68008
7.7051
7.73012
7.75499
7.7795
7.80339
7.8262
7.84739
7.86579
7.88044
7.88701
7.88456
7.84991
7.77193
7.46389
8.12909
8.36202
8.62994
8.78898
8.91549
9.04141
9.16065
9.27461
9.38964
9.50971
9.6396
9.78361
9.94504
10.1255
10.3268
10.5485
10.7954
11.063
11.369
11.6885
12.088
12.4542
13.0433
13.413
14.7333
)
;
    }
    lowerWall
    {
        Cmu             0.09;
        kappa           0.41;
        E               9.8;
        type            epsilonWallFunction;
        value           nonuniform List<scalar> 
55
(
3.57392
3.57706
3.58024
3.58344
3.58668
3.58994
3.59323
3.59654
3.59987
3.60322
3.60657
3.60993
3.61327
3.61658
3.61984
3.62302
3.62609
3.62898
3.63164
3.63396
3.63581
3.63696
3.63713
3.63581
3.6322
3.62481
3.61082
3.58413
3.53257
3.43163
3.65588
3.7556
3.85243
3.93398
3.99435
4.04447
4.09192
4.13796
4.18306
4.23115
4.28297
4.33981
4.40262
4.47196
4.54828
4.63182
4.72357
4.82339
4.93506
5.0537
5.19753
5.33173
5.5469
5.66703
6.19481
)
;
    }
    frontAndBack
    {
        type            empty;
    }
    procBoundary0to1
    {
        type            processor;
        value           nonuniform List<scalar> 
59
(
3.5708
1.80874
1.56254
1.51091
1.51259
1.53313
1.56026
1.58876
1.61619
1.64143
1.664
1.68346
1.68346
1.70056
1.71514
1.72742
1.73775
1.74617
1.75283
1.75809
1.76223
1.76547
1.76798
1.7699
1.77133
1.77234
1.773
1.77334
1.77339
1.77305
1.77231
1.77111
1.76939
1.76706
1.76401
1.76009
1.75513
1.74891
1.7412
1.73185
1.72055
1.70657
1.68926
1.66847
1.64447
1.61695
1.58571
1.55569
1.53234
1.51683
1.51683
1.51386
1.52786
1.56702
1.64643
1.79859
2.11164
2.93978
7.35537
)
;
    }
}


// ************************************************************************* //
