/*--------------------------------*- C++ -*----------------------------------*\
  =========                 |
  \\      /  F ield         | OpenFOAM: The Open Source CFD Toolbox
   \\    /   O peration     | Website:  https://openfoam.org
    \\  /    A nd           | Version:  6
     \\/     M anipulation  |
\*---------------------------------------------------------------------------*/
FoamFile
{
    version     2.0;
    format      ascii;
    class       volScalarField;
    location    "0.05";
    object      k;
}
// * * * * * * * * * * * * * * * * * * * * * * * * * * * * * * * * * * * * * //

dimensions      [0 2 -2 0 0 0 0];

internalField   nonuniform List<scalar> 
3080
(
0.0263199
0.026308
0.0262959
0.0262837
0.0262714
0.026259
0.0262464
0.0262336
0.0262207
0.0262075
0.0261941
0.0261804
0.0261663
0.0261518
0.0261368
0.0261211
0.0261044
0.0260867
0.0260675
0.0260464
0.0260227
0.0259953
0.0259629
0.0259231
0.025872
0.0258027
0.0257016
0.0255398
0.0252594
0.0247419
0.0520106
0.051982
0.0519532
0.051924
0.0518947
0.051865
0.051835
0.0518048
0.0517741
0.051743
0.0517115
0.0516795
0.0516468
0.0516133
0.0515789
0.0515433
0.0515063
0.0514674
0.0514261
0.0513815
0.0513327
0.0512779
0.0512147
0.0511393
0.051045
0.0509205
0.0507419
0.0504677
0.0499846
0.049291
0.066098
0.0660607
0.0660231
0.0659851
0.0659469
0.0659083
0.0658693
0.0658299
0.06579
0.0657497
0.0657088
0.0656672
0.0656249
0.0655818
0.0655375
0.065492
0.0654448
0.0653955
0.0653436
0.0652881
0.065228
0.0651616
0.0650862
0.064998
0.0648905
0.0647525
0.0645631
0.0642857
0.0638406
0.0632084
0.076239
0.0761957
0.076152
0.076108
0.0760636
0.0760187
0.0759734
0.0759277
0.0758814
0.0758346
0.0757872
0.0757391
0.0756902
0.0756403
0.0755892
0.0755368
0.0754827
0.0754264
0.0753673
0.0753046
0.0752372
0.0751633
0.0750805
0.074985
0.0748706
0.0747272
0.0745368
0.0742697
0.0738732
0.0733404
0.0843551
0.0843076
0.0842597
0.0842114
0.0841627
0.0841135
0.0840639
0.0840137
0.083963
0.0839117
0.0838597
0.083807
0.0837534
0.0836988
0.0836431
0.0835859
0.0835269
0.0834657
0.0834017
0.0833341
0.0832618
0.083183
0.0830955
0.0829955
0.0828773
0.082732
0.0825441
0.08229
0.0819348
0.0814822
0.0911297
0.0910796
0.0910291
0.0909781
0.0909266
0.0908747
0.0908223
0.0907693
0.0907158
0.0906616
0.0906067
0.090551
0.0904945
0.0904369
0.0903781
0.0903179
0.0902559
0.0901916
0.0901246
0.090054
0.0899787
0.0898971
0.0898069
0.0897048
0.0895855
0.089441
0.0892584
0.089019
0.0886998
0.0883111
0.0968934
0.096842
0.0967901
0.0967378
0.096685
0.0966317
0.0965779
0.0965235
0.0964685
0.0964129
0.0963565
0.0962993
0.0962413
0.0961822
0.0961219
0.0960601
0.0959966
0.0959308
0.0958624
0.0957904
0.0957138
0.0956312
0.0955404
0.0954383
0.0953201
0.0951789
0.0950038
0.0947805
0.0944938
0.0941576
0.10184
0.101788
0.101736
0.101684
0.101631
0.101577
0.101523
0.101469
0.101413
0.101358
0.101301
0.101244
0.101185
0.101126
0.101065
0.101003
0.10094
0.100874
0.100805
0.100733
0.100657
0.100575
0.100485
0.100385
0.10027
0.100134
0.0999684
0.0997621
0.0995055
0.0992135
0.106099
0.106048
0.105997
0.105945
0.105893
0.10584
0.105787
0.105733
0.105679
0.105624
0.105568
0.105511
0.105454
0.105395
0.105336
0.105275
0.105212
0.105147
0.10508
0.105009
0.104935
0.104855
0.104767
0.10467
0.10456
0.104431
0.104276
0.104088
0.103859
0.103605
0.109766
0.109717
0.109667
0.109617
0.109567
0.109516
0.109464
0.109412
0.109359
0.109306
0.109252
0.109197
0.109141
0.109085
0.109027
0.108968
0.108907
0.108844
0.108779
0.108711
0.108639
0.108562
0.108478
0.108386
0.108281
0.108161
0.108018
0.107847
0.107644
0.107424
0.112917
0.112871
0.112823
0.112776
0.112727
0.112679
0.11263
0.11258
0.112529
0.112478
0.112427
0.112374
0.112321
0.112267
0.112212
0.112155
0.112097
0.112037
0.111975
0.11191
0.111842
0.111769
0.11169
0.111603
0.111506
0.111394
0.111264
0.11111
0.110932
0.110741
0.115572
0.115528
0.115483
0.115438
0.115392
0.115346
0.115299
0.115251
0.115203
0.115155
0.115105
0.115055
0.115004
0.114952
0.114899
0.114844
0.114788
0.114729
0.114668
0.114604
0.114536
0.114462
0.114382
0.114292
0.11419
0.114072
0.113936
0.113779
0.113616
0.117876
0.117835
0.117794
0.117751
0.117709
0.117666
0.117622
0.117578
0.117534
0.117488
0.117442
0.117396
0.117348
0.1173
0.11725
0.117199
0.117147
0.117093
0.117036
0.116977
0.116914
0.116846
0.116772
0.11669
0.116598
0.116493
0.116373
0.116237
0.116097
0.119831
0.119793
0.119755
0.119716
0.119677
0.119638
0.119598
0.119557
0.119516
0.119475
0.119432
0.11939
0.119346
0.119301
0.119256
0.119209
0.119161
0.119111
0.11906
0.119005
0.118948
0.118886
0.118819
0.118745
0.118663
0.11857
0.118465
0.118349
0.118229
0.121478
0.121444
0.121409
0.121374
0.121339
0.121303
0.121267
0.12123
0.121193
0.121155
0.121117
0.121078
0.121038
0.120998
0.120957
0.120914
0.120871
0.120826
0.120779
0.12073
0.120678
0.120622
0.120562
0.120497
0.120424
0.120343
0.120252
0.120153
0.120052
0.12287
0.122839
0.122808
0.122776
0.122744
0.122712
0.122679
0.122645
0.122612
0.122578
0.122543
0.122507
0.122471
0.122435
0.122397
0.122359
0.122319
0.122278
0.122236
0.122191
0.122145
0.122095
0.122041
0.121983
0.121919
0.121848
0.12177
0.121686
0.121601
0.124013
0.123986
0.123958
0.12393
0.123902
0.123873
0.123844
0.123815
0.123785
0.123755
0.123724
0.123693
0.123661
0.123628
0.123595
0.123561
0.123526
0.12349
0.123452
0.123413
0.123371
0.123328
0.123281
0.12323
0.123175
0.123115
0.123048
0.122978
0.122908
0.124927
0.124904
0.124881
0.124857
0.124833
0.124809
0.124784
0.124759
0.124734
0.124708
0.124682
0.124656
0.124629
0.124601
0.124573
0.124544
0.124514
0.124484
0.124452
0.124418
0.124384
0.124347
0.124307
0.124265
0.124219
0.124169
0.124115
0.124058
0.124002
0.125657
0.125638
0.125619
0.1256
0.12558
0.125561
0.12554
0.12552
0.1255
0.125479
0.125457
0.125436
0.125414
0.125391
0.125368
0.125344
0.12532
0.125295
0.125269
0.125242
0.125214
0.125184
0.125152
0.125117
0.12508
0.12504
0.124998
0.124953
0.12491
0.126237
0.126223
0.126208
0.126193
0.126177
0.126162
0.126146
0.12613
0.126114
0.126098
0.126081
0.126064
0.126047
0.126029
0.126011
0.125992
0.125973
0.125954
0.125933
0.125912
0.125889
0.125866
0.125841
0.125814
0.125785
0.125755
0.125722
0.125689
0.125658
0.126697
0.126686
0.126675
0.126663
0.126652
0.12664
0.126628
0.126616
0.126604
0.126592
0.126579
0.126566
0.126553
0.12654
0.126526
0.126512
0.126498
0.126483
0.126467
0.126451
0.126434
0.126417
0.126398
0.126378
0.126356
0.126334
0.12631
0.126286
0.126265
0.127057
0.127049
0.127041
0.127033
0.127024
0.127016
0.127007
0.126999
0.12699
0.126981
0.126972
0.126963
0.126954
0.126944
0.126934
0.126924
0.126914
0.126903
0.126892
0.12688
0.126868
0.126855
0.126842
0.126828
0.126812
0.126797
0.12678
0.126765
0.126752
0.127334
0.127329
0.127324
0.127318
0.127313
0.127307
0.127301
0.127295
0.12729
0.127284
0.127277
0.127271
0.127265
0.127259
0.127252
0.127245
0.127238
0.127231
0.127223
0.127215
0.127207
0.127198
0.127189
0.12718
0.12717
0.127159
0.127149
0.12714
0.127134
0.127543
0.12754
0.127536
0.127533
0.127529
0.127526
0.127522
0.127519
0.127515
0.127512
0.127508
0.127504
0.1275
0.127496
0.127492
0.127488
0.127484
0.127479
0.127474
0.127469
0.127464
0.127459
0.127453
0.127447
0.127441
0.127435
0.12743
0.127426
0.127425
0.127692
0.12769
0.127689
0.127687
0.127685
0.127683
0.127681
0.127679
0.127678
0.127676
0.127674
0.127672
0.12767
0.127668
0.127665
0.127663
0.127661
0.127658
0.127656
0.127653
0.12765
0.127647
0.127644
0.127641
0.127638
0.127635
0.127634
0.127633
0.127636
0.127789
0.127789
0.127788
0.127787
0.127787
0.127786
0.127785
0.127785
0.127784
0.127783
0.127782
0.127782
0.127781
0.12778
0.127779
0.127778
0.127777
0.127776
0.127775
0.127773
0.127772
0.127771
0.127769
0.127768
0.127767
0.127767
0.127768
0.12777
0.127775
0.12784
0.12784
0.12784
0.12784
0.12784
0.12784
0.12784
0.12784
0.127839
0.127839
0.127839
0.127839
0.127839
0.127839
0.127838
0.127838
0.127838
0.127837
0.127837
0.127837
0.127836
0.127836
0.127835
0.127835
0.127835
0.127836
0.127838
0.127842
0.127848
0.127849
0.127849
0.127849
0.127849
0.127849
0.127849
0.127849
0.127848
0.127848
0.127848
0.127848
0.127848
0.127848
0.127848
0.127848
0.127847
0.127847
0.127847
0.127846
0.127846
0.127846
0.127845
0.127845
0.127845
0.127845
0.127846
0.127848
0.127852
0.127859
0.127801
0.1278
0.127799
0.127798
0.127797
0.127796
0.127795
0.127795
0.127794
0.127793
0.127792
0.127791
0.127789
0.127788
0.127787
0.127786
0.127785
0.127783
0.127782
0.12778
0.127779
0.127777
0.127775
0.127774
0.127773
0.127772
0.127773
0.127776
0.127781
0.127692
0.12769
0.127687
0.127685
0.127682
0.127679
0.127677
0.127674
0.127671
0.127668
0.127665
0.127662
0.127659
0.127656
0.127653
0.12765
0.127646
0.127642
0.127639
0.127635
0.127631
0.127627
0.127622
0.127618
0.127614
0.12761
0.127607
0.127607
0.127609
0.127518
0.127513
0.127507
0.127502
0.127497
0.127491
0.127486
0.12748
0.127475
0.127469
0.127463
0.127457
0.127451
0.127444
0.127438
0.127431
0.127424
0.127417
0.12741
0.127402
0.127394
0.127386
0.127377
0.127368
0.127359
0.12735
0.127342
0.127336
0.127333
0.127269
0.12726
0.127251
0.127242
0.127233
0.127224
0.127214
0.127204
0.127195
0.127184
0.127174
0.127164
0.127153
0.127142
0.127131
0.127119
0.127107
0.127095
0.127082
0.127069
0.127056
0.127042
0.127027
0.127011
0.126995
0.126979
0.126963
0.126949
0.126938
0.126935
0.126921
0.126907
0.126893
0.126879
0.126864
0.126849
0.126833
0.126818
0.126802
0.126786
0.126769
0.126752
0.126735
0.126717
0.126699
0.12668
0.126661
0.126641
0.126621
0.1266
0.126577
0.126554
0.12653
0.126505
0.126478
0.126451
0.126425
0.126404
0.126501
0.126481
0.12646
0.126439
0.126418
0.126396
0.126374
0.126351
0.126328
0.126304
0.12628
0.126256
0.126231
0.126205
0.126179
0.126152
0.126124
0.126096
0.126067
0.126036
0.126005
0.125972
0.125937
0.125901
0.125863
0.125824
0.125783
0.125742
0.125706
0.125949
0.12592
0.125891
0.125861
0.125831
0.1258
0.125768
0.125736
0.125704
0.12567
0.125636
0.125601
0.125566
0.125529
0.125492
0.125454
0.125415
0.125374
0.125333
0.12529
0.125245
0.125199
0.12515
0.125099
0.125044
0.124987
0.124928
0.124868
0.124813
0.125257
0.125218
0.125178
0.125137
0.125095
0.125053
0.125009
0.124965
0.12492
0.124874
0.124828
0.12478
0.124731
0.124681
0.12463
0.124577
0.124523
0.124468
0.124411
0.124352
0.124291
0.124227
0.12416
0.124089
0.124015
0.123936
0.123854
0.123769
0.12369
0.124399
0.124346
0.124293
0.124238
0.124182
0.124126
0.124068
0.124009
0.123949
0.123887
0.123824
0.12376
0.123695
0.123628
0.123559
0.123489
0.123417
0.123343
0.123267
0.123188
0.123106
0.123021
0.122931
0.122837
0.122738
0.122632
0.122521
0.122406
0.122297
0.123343
0.123274
0.123204
0.123133
0.12306
0.122986
0.12291
0.122833
0.122754
0.122673
0.122591
0.122507
0.122422
0.122334
0.122244
0.122152
0.122058
0.121961
0.121861
0.121757
0.12165
0.121539
0.121422
0.1213
0.12117
0.121032
0.120885
0.120733
0.120587
0.12207
0.121982
0.121891
0.121799
0.121705
0.12161
0.121512
0.121412
0.12131
0.121206
0.1211
0.120992
0.120881
0.120768
0.120652
0.120533
0.120411
0.120286
0.120157
0.120024
0.119886
0.119742
0.119592
0.119434
0.119267
0.11909
0.118901
0.118703
0.118511
0.120539
0.120427
0.120312
0.120195
0.120075
0.119953
0.119829
0.119702
0.119573
0.11944
0.119305
0.119167
0.119026
0.118882
0.118734
0.118583
0.118428
0.118268
0.118104
0.117935
0.11776
0.117578
0.117388
0.117188
0.116977
0.116752
0.116512
0.11626
0.116013
0.118647
0.118507
0.118365
0.118219
0.11807
0.117919
0.117764
0.117606
0.117445
0.11728
0.117112
0.11694
0.116765
0.116585
0.116402
0.116214
0.116021
0.115823
0.11562
0.11541
0.115193
0.114968
0.114733
0.114486
0.114225
0.113948
0.113651
0.113337
0.113026
0.116297
0.116126
0.115952
0.115775
0.115594
0.115409
0.115221
0.115028
0.114832
0.114632
0.114428
0.114219
0.114006
0.113787
0.113564
0.113336
0.113102
0.112862
0.112616
0.112362
0.112099
0.111827
0.111544
0.111247
0.110933
0.110599
0.110241
0.10986
0.109478
0.113442
0.11324
0.113035
0.112826
0.112612
0.112395
0.112173
0.111946
0.111716
0.11148
0.11124
0.110995
0.110744
0.110489
0.110227
0.10996
0.109686
0.109405
0.109117
0.10882
0.108514
0.108197
0.107867
0.107522
0.107157
0.106769
0.106352
0.105905
0.105452
0.110073
0.109846
0.109615
0.10938
0.10914
0.108896
0.108648
0.108394
0.108136
0.107873
0.107605
0.107331
0.107052
0.106766
0.106475
0.106178
0.105873
0.105562
0.105242
0.104913
0.104574
0.104224
0.103859
0.103478
0.103076
0.102647
0.102185
0.101685
0.101174
0.106049
0.105807
0.105562
0.105313
0.105059
0.104801
0.104538
0.10427
0.103998
0.103721
0.103439
0.103151
0.102858
0.102559
0.102254
0.101943
0.101625
0.1013
0.100966
0.100624
0.100271
0.099907
0.0995285
0.0991324
0.0987142
0.0982668
0.0977832
0.0972536
0.0967073
0.101129
0.100892
0.100652
0.100408
0.10016
0.0999083
0.0996525
0.0993925
0.0991283
0.0988598
0.0985867
0.0983089
0.0980263
0.0977386
0.0974455
0.0971468
0.0968419
0.0965304
0.0962115
0.0958843
0.0955476
0.0951997
0.0948381
0.0944593
0.0940582
0.0936265
0.0931561
0.0926319
0.092085
0.0956603
0.0954419
0.0952204
0.0949957
0.0947678
0.0945365
0.0943018
0.0940637
0.093822
0.0935766
0.0933274
0.0930742
0.092817
0.0925554
0.0922892
0.0920182
0.0917418
0.0914596
0.0911708
0.0908747
0.0905698
0.0902545
0.0899263
0.0895812
0.0892141
0.0888155
0.0883758
0.087874
0.0873431
0.09027
0.0900672
0.0898616
0.0896533
0.0894421
0.0892281
0.089011
0.088791
0.0885678
0.0883414
0.0881117
0.0878786
0.0876418
0.0874012
0.0871565
0.0869075
0.0866537
0.0863946
0.0861296
0.0858576
0.0855776
0.0852876
0.0849851
0.0846661
0.0843251
0.0839515
0.0835344
0.0830459
0.0825201
0.0845685
0.0843812
0.0841914
0.0839992
0.0838044
0.0836071
0.0834072
0.0832045
0.0829991
0.0827907
0.0825793
0.0823647
0.0821468
0.0819253
0.0816998
0.0814701
0.0812356
0.0809956
0.0807493
0.0804953
0.0802319
0.0799565
0.0796648
0.0793512
0.0790041
0.0786113
0.0781371
0.0776157
0.0789625
0.0787945
0.0786244
0.0784522
0.0782779
0.0781012
0.0779223
0.0777411
0.0775574
0.0773712
0.0771823
0.0769907
0.0767961
0.0765982
0.0763969
0.0761918
0.0759823
0.0757678
0.0755474
0.0753198
0.0750832
0.0748351
0.0745711
0.0742854
0.0739654
0.0735975
0.0731379
0.0726181
0.0732357
0.0730875
0.0729374
0.0727855
0.0726317
0.072476
0.0723183
0.0721586
0.0719968
0.0718327
0.0716664
0.0714976
0.0713262
0.0711519
0.0709746
0.0707938
0.070609
0.0704197
0.0702248
0.0700233
0.0698132
0.069592
0.0693553
0.0690971
0.0688042
0.0684613
0.068016
0.0674934
0.0673354
0.0672066
0.0670763
0.0669444
0.0668109
0.0666758
0.066539
0.0664004
0.06626
0.0661177
0.0659733
0.0658269
0.0656781
0.0655269
0.0653728
0.0652157
0.065055
0.06489
0.06472
0.0645437
0.0643593
0.0641642
0.0639542
0.0637229
0.0634568
0.0631386
0.062707
0.0621754
0.0611474
0.0610377
0.0609266
0.0608142
0.0607004
0.0605853
0.0604687
0.0603506
0.0602309
0.0601096
0.0599866
0.0598617
0.0597349
0.0596058
0.0594742
0.0593399
0.0592023
0.0590609
0.0589148
0.0587628
0.0586032
0.0584335
0.0582493
0.0580442
0.0578046
0.0575109
0.0570929
0.0565445
0.0544424
0.0543511
0.0542588
0.0541654
0.0540708
0.053975
0.0538781
0.0537799
0.0536803
0.0535794
0.053477
0.0533731
0.0532674
0.0531598
0.05305
0.0529377
0.0528226
0.052704
0.0525811
0.0524527
0.0523173
0.0521723
0.0520135
0.0518344
0.0516216
0.0513529
0.0509493
0.0503768
0.0467143
0.0466415
0.0465679
0.0464933
0.0464178
0.0463414
0.046264
0.0461856
0.0461061
0.0460255
0.0459437
0.0458605
0.0457759
0.0456897
0.0456017
0.0455115
0.0454187
0.0453229
0.0452233
0.0451187
0.0450077
0.0448878
0.0447552
0.0446031
0.0444194
0.0441781
0.0437944
0.0431967
0.036556
0.0365035
0.0364504
0.0363966
0.0363422
0.036287
0.0362312
0.0361746
0.0361171
0.0360589
0.0359997
0.0359395
0.0358782
0.0358156
0.0357515
0.0356858
0.035618
0.0355477
0.0354742
0.0353966
0.0353135
0.0352227
0.0351212
0.035002
0.0348559
0.0346533
0.0343131
0.0337353
0.0192198
0.0191991
0.0191781
0.0191567
0.0191351
0.0191132
0.019091
0.0190684
0.0190455
0.0190222
0.0189983
0.018974
0.0189491
0.0189235
0.0188971
0.0188697
0.018841
0.0188107
0.0187784
0.0187433
0.0187046
0.0186605
0.0186093
0.0185445
0.0184645
0.0183334
0.0181341
0.0175748
0.025626
0.0259417
0.0262293
0.0264336
0.0265301
0.0265693
0.0265852
0.0265831
0.0265636
0.0265418
0.0265207
0.0265043
0.026495
0.0264936
0.0264999
0.0265124
0.0265324
0.0265561
0.0265939
0.0266247
0.0267074
0.0267177
0.0269503
0.0268253
0.0278946
0.0504016
0.0509769
0.0513011
0.0515074
0.0516021
0.0516089
0.0515559
0.0514574
0.0513213
0.0511579
0.0509858
0.050813
0.0506422
0.0504727
0.0503025
0.0501281
0.0499493
0.0497603
0.0495723
0.0493592
0.0491815
0.0489149
0.0488354
0.0484345
0.0492535
0.0639869
0.0645658
0.0649214
0.065147
0.0652584
0.0652728
0.0652115
0.0650892
0.0649173
0.0647073
0.0644769
0.0642376
0.063995
0.0637503
0.063502
0.0632469
0.0629837
0.0627074
0.0624261
0.06212
0.061835
0.061478
0.0612619
0.0608232
0.0614372
0.0739033
0.0744133
0.0747419
0.0749501
0.0750526
0.0750608
0.074989
0.0748498
0.0746545
0.0744146
0.0741466
0.0738626
0.07357
0.0732715
0.0729665
0.0726523
0.0723275
0.0719877
0.0716385
0.0712656
0.0709026
0.0704834
0.0701663
0.0697096
0.0701398
0.0819099
0.0823499
0.0826402
0.0828213
0.0829059
0.0829016
0.0828182
0.0826654
0.0824534
0.082193
0.081899
0.0815834
0.0812544
0.0809157
0.0805677
0.0802082
0.0798358
0.0794467
0.0790448
0.0786195
0.0781956
0.0777266
0.0773305
0.0768527
0.0771274
0.0886457
0.089023
0.0892751
0.0894286
0.0894938
0.0894761
0.0893821
0.0892193
0.0889965
0.0887231
0.0884122
0.0880755
0.0877212
0.0873538
0.0869742
0.086581
0.0861727
0.0857463
0.0853041
0.0848385
0.0843675
0.0838589
0.083401
0.0829014
0.0830437
0.094423
0.094745
0.0949618
0.09509
0.0951372
0.0951076
0.0950055
0.0948367
0.0946083
0.0943286
0.0940088
0.0936599
0.09329
0.0929038
0.0925029
0.0920863
0.0916527
0.0911996
0.0907282
0.090233
0.089727
0.0891885
0.088683
0.0881638
0.0881926
0.0994252
0.0996981
0.0998828
0.0999885
0.100021
0.0999816
0.0998745
0.0997036
0.0994745
0.0991944
0.0988727
0.0985194
0.0981424
0.0977463
0.0973331
0.0969024
0.096453
0.0959828
0.0954923
0.0949774
0.094447
0.0938879
0.093347
0.0928121
0.0927435
0.103774
0.104003
0.104159
0.104245
0.104265
0.10422
0.104111
0.103941
0.103716
0.103441
0.103123
0.102772
0.102395
0.101997
0.10158
0.101143
0.100687
0.100208
0.0997072
0.0991816
0.0986365
0.0980654
0.0974997
0.0969535
0.0968018
0.107558
0.107749
0.107879
0.107949
0.107959
0.107909
0.107801
0.107637
0.107419
0.107153
0.106845
0.106502
0.106132
0.105738
0.105324
0.104889
0.104432
0.103953
0.10345
0.102922
0.10237
0.101795
0.101214
0.100661
0.100439
0.110847
0.111005
0.111112
0.111167
0.11117
0.111119
0.111015
0.110858
0.110651
0.110398
0.110103
0.109773
0.109415
0.109032
0.108627
0.1082
0.10775
0.107277
0.106778
0.106254
0.105704
0.105131
0.104543
0.103988
0.103708
0.113698
0.113827
0.113915
0.113958
0.113956
0.113905
0.113807
0.11366
0.113466
0.113228
0.11295
0.112638
0.112296
0.111929
0.111538
0.111124
0.110686
0.110225
0.109737
0.109223
0.108681
0.108117
0.107529
0.106976
0.106648
0.11616
0.116265
0.116336
0.11637
0.116364
0.116316
0.116224
0.116089
0.115911
0.115691
0.115433
0.11514
0.114818
0.11447
0.114097
0.113701
0.113281
0.112835
0.112363
0.111865
0.111336
0.110785
0.110204
0.109658
0.109291
0.118278
0.118362
0.118419
0.118445
0.118437
0.118392
0.118309
0.118187
0.118025
0.117825
0.117588
0.117318
0.117019
0.116692
0.116341
0.115966
0.115567
0.115142
0.114689
0.11421
0.113699
0.113166
0.112597
0.112061
0.111664
0.120089
0.120156
0.120201
0.120221
0.120212
0.120173
0.120099
0.11999
0.119846
0.119666
0.119452
0.119206
0.11893
0.118629
0.118302
0.11795
0.117574
0.117172
0.116743
0.116287
0.115797
0.115285
0.114731
0.114209
0.113788
0.121628
0.121681
0.121717
0.121733
0.121725
0.12169
0.121627
0.121532
0.121405
0.121246
0.121055
0.120833
0.120583
0.120307
0.120006
0.11968
0.119329
0.118952
0.118548
0.118117
0.117651
0.117163
0.116627
0.116121
0.115683
0.122928
0.12297
0.122999
0.123012
0.123005
0.122976
0.122922
0.122842
0.122732
0.122594
0.122426
0.122229
0.122004
0.121754
0.121479
0.12118
0.120855
0.120505
0.120127
0.119722
0.119282
0.118819
0.118304
0.117816
0.117367
0.124018
0.124051
0.124074
0.124085
0.12408
0.124057
0.124014
0.123946
0.123854
0.123736
0.12359
0.123417
0.123218
0.122994
0.122745
0.122472
0.122174
0.121851
0.1215
0.121122
0.120708
0.120271
0.119778
0.11931
0.118853
0.124923
0.12495
0.124969
0.124979
0.124977
0.12496
0.124925
0.124871
0.124795
0.124695
0.124571
0.124421
0.124247
0.124048
0.123825
0.123578
0.123306
0.12301
0.122685
0.122334
0.121946
0.121535
0.121065
0.120616
0.120155
0.125669
0.12569
0.125707
0.125717
0.125717
0.125706
0.12568
0.125638
0.125577
0.125495
0.12539
0.125262
0.125111
0.124935
0.124737
0.124515
0.124268
0.123997
0.123698
0.123373
0.12301
0.122624
0.122177
0.121747
0.121285
0.126275
0.126293
0.126308
0.126318
0.126321
0.126315
0.126298
0.126266
0.126219
0.126153
0.126066
0.125958
0.125827
0.125674
0.125498
0.125299
0.125076
0.124829
0.124554
0.124253
0.123914
0.123552
0.123125
0.122714
0.122254
0.126761
0.126777
0.12679
0.126801
0.126807
0.126806
0.126795
0.126774
0.126738
0.126686
0.126616
0.126525
0.126413
0.12628
0.126124
0.125945
0.125743
0.125518
0.125264
0.124985
0.124668
0.124328
0.123921
0.123527
0.123069
0.127143
0.127157
0.12717
0.127181
0.127189
0.127193
0.127189
0.127175
0.12715
0.12711
0.127053
0.126978
0.126882
0.126765
0.126627
0.126466
0.126283
0.126076
0.125842
0.125582
0.125284
0.124963
0.124573
0.124194
0.123739
0.127434
0.127447
0.127459
0.127472
0.127482
0.127489
0.12749
0.127483
0.127466
0.127436
0.127391
0.127327
0.127245
0.127142
0.127018
0.126873
0.126704
0.126513
0.126295
0.126051
0.125769
0.125464
0.125089
0.124722
0.124271
0.127645
0.127657
0.12767
0.127683
0.127695
0.127705
0.12771
0.127709
0.127698
0.127675
0.127638
0.127584
0.127512
0.12742
0.127307
0.127173
0.127017
0.126837
0.126631
0.1264
0.126131
0.125837
0.125474
0.125116
0.124669
0.127784
0.127796
0.127809
0.127823
0.127836
0.127848
0.127856
0.127858
0.127852
0.127834
0.127803
0.127756
0.12769
0.127605
0.1275
0.127374
0.127226
0.127055
0.126857
0.126635
0.126374
0.126089
0.125734
0.125382
0.124938
0.127858
0.127869
0.127883
0.127897
0.127911
0.127924
0.127934
0.127938
0.127934
0.127919
0.127891
0.127847
0.127785
0.127703
0.127602
0.12748
0.127336
0.127169
0.126976
0.126758
0.126502
0.126221
0.125871
0.125521
0.12508
0.127869
0.127881
0.127895
0.12791
0.127924
0.127938
0.127948
0.127952
0.127948
0.127934
0.127905
0.127861
0.127799
0.127718
0.127617
0.127495
0.127351
0.127185
0.126993
0.126775
0.12652
0.126238
0.125889
0.125538
0.1251
0.127792
0.127805
0.127819
0.127834
0.127849
0.127861
0.12787
0.127872
0.127866
0.127847
0.127815
0.127766
0.127699
0.127613
0.127506
0.127379
0.12723
0.127058
0.12686
0.126637
0.126377
0.126089
0.125736
0.125379
0.124941
0.12762
0.127635
0.12765
0.127665
0.127679
0.127689
0.127695
0.127693
0.12768
0.127655
0.127614
0.127556
0.127479
0.127382
0.127265
0.127127
0.126967
0.126784
0.126575
0.126341
0.126069
0.12577
0.125407
0.125039
0.124599
0.127345
0.127362
0.127378
0.127393
0.127406
0.127413
0.127414
0.127404
0.127383
0.127347
0.127294
0.127222
0.12713
0.127018
0.126885
0.126731
0.126555
0.126356
0.126131
0.125879
0.125591
0.125276
0.124896
0.124515
0.124071
0.126951
0.126971
0.12699
0.127005
0.127015
0.127019
0.127012
0.126994
0.12696
0.12691
0.12684
0.12675
0.12664
0.126508
0.126355
0.12618
0.125983
0.125763
0.125516
0.125243
0.124933
0.124596
0.124197
0.123798
0.12335
0.126419
0.126444
0.126465
0.126481
0.126489
0.126487
0.126472
0.126441
0.126393
0.126325
0.126235
0.126123
0.125989
0.125834
0.125656
0.125457
0.125234
0.124989
0.124716
0.124418
0.124082
0.12372
0.123298
0.122878
0.122425
0.125724
0.125755
0.125779
0.125796
0.125802
0.125793
0.125768
0.125724
0.125658
0.125569
0.125455
0.125318
0.125157
0.124974
0.124769
0.124541
0.12429
0.124016
0.123715
0.123387
0.123023
0.122633
0.122184
0.121742
0.121286
0.124835
0.124874
0.124904
0.124922
0.124925
0.12491
0.124873
0.124812
0.124726
0.124613
0.124473
0.124308
0.124117
0.123903
0.123667
0.123409
0.123128
0.122823
0.122491
0.122132
0.121737
0.121317
0.12084
0.120375
0.119917
0.123717
0.123767
0.123804
0.123825
0.123825
0.123802
0.123752
0.123673
0.123565
0.123426
0.123257
0.12306
0.122838
0.122592
0.122324
0.122033
0.12172
0.121383
0.121019
0.120628
0.120201
0.11975
0.119244
0.118757
0.1183
0.12233
0.122394
0.122441
0.122465
0.122462
0.122431
0.122366
0.122268
0.122135
0.121968
0.121768
0.121539
0.121284
0.121005
0.120704
0.120382
0.120037
0.119668
0.119271
0.118848
0.11839
0.11791
0.117376
0.116868
0.116417
0.120629
0.120711
0.120768
0.120797
0.120793
0.120752
0.120672
0.120553
0.120395
0.120198
0.119967
0.119705
0.119417
0.119105
0.118773
0.118419
0.118043
0.117643
0.117216
0.116763
0.116275
0.115767
0.115207
0.114682
0.114242
0.118563
0.118667
0.118738
0.118772
0.118765
0.118715
0.11862
0.11848
0.118295
0.118069
0.117806
0.117511
0.117191
0.116849
0.116487
0.116104
0.1157
0.115272
0.114817
0.114338
0.113823
0.113291
0.112709
0.112172
0.111749
0.116076
0.116205
0.116291
0.116332
0.116324
0.116264
0.116153
0.115991
0.115781
0.115525
0.115232
0.114908
0.114558
0.114189
0.1138
0.113392
0.112964
0.112513
0.112035
0.111533
0.110996
0.110445
0.109846
0.109303
0.108906
0.113104
0.113261
0.113365
0.113413
0.113403
0.113335
0.113208
0.113025
0.11279
0.112508
0.112187
0.111836
0.111462
0.111069
0.110659
0.110232
0.109784
0.109316
0.10882
0.108303
0.10775
0.107188
0.106578
0.106037
0.105674
0.109572
0.10976
0.109883
0.109939
0.109928
0.109852
0.10971
0.109509
0.109251
0.108946
0.108602
0.108229
0.107836
0.107426
0.107002
0.106562
0.106103
0.105624
0.105119
0.104594
0.104034
0.103468
0.102855
0.102327
0.102006
0.10557
0.105792
0.105934
0.105998
0.105987
0.105903
0.105751
0.105533
0.105259
0.104936
0.104575
0.104189
0.103784
0.103366
0.102936
0.102492
0.102031
0.101551
0.101045
0.100521
0.0999636
0.099405
0.098798
0.0982925
0.0980221
0.101324
0.10158
0.101741
0.101813
0.101803
0.101715
0.101555
0.101327
0.101042
0.100708
0.100339
0.0999466
0.0995392
0.0991217
0.0986942
0.098255
0.0977995
0.0973265
0.0968293
0.0963157
0.0957688
0.0952257
0.0946334
0.0941581
0.0939425
0.0968989
0.0971902
0.0973699
0.0974511
0.0974434
0.0973543
0.0971902
0.0969581
0.0966673
0.0963295
0.0959591
0.0955681
0.0951654
0.0947554
0.0943378
0.0939102
0.0934677
0.0930091
0.0925273
0.0920313
0.0915027
0.0909821
0.0904117
0.0899712
0.089814
0.0923366
0.0926639
0.0928616
0.0929518
0.0929482
0.0928607
0.0926969
0.0924646
0.0921739
0.0918382
0.0914724
0.0910892
0.0906973
0.0903009
0.089899
0.0894889
0.0890651
0.0886266
0.0881661
0.0876933
0.087189
0.0866962
0.0861537
0.0857505
0.0856545
0.0876687
0.0880314
0.0882462
0.0883454
0.0883473
0.0882639
0.0881037
0.0878752
0.0875894
0.0872606
0.0869047
0.0865344
0.0861585
0.0857805
0.085399
0.0850108
0.0846102
0.0841962
0.0837616
0.0833163
0.0828411
0.0823796
0.0818701
0.081505
0.081472
0.082917
0.0833118
0.0835421
0.0836504
0.0836589
0.0835814
0.0834273
0.0832059
0.0829288
0.0826112
0.0822694
0.0819163
0.0815603
0.0812044
0.0808469
0.080484
0.0801099
0.0797238
0.0793183
0.0789036
0.0784611
0.0780334
0.0775608
0.0772334
0.0772642
0.0780876
0.0785105
0.0787544
0.0788713
0.0788867
0.0788164
0.0786705
0.0784589
0.0781935
0.0778905
0.0775662
0.0772335
0.0769005
0.0765696
0.0762386
0.0759035
0.0755584
0.0752023
0.0748285
0.0744466
0.0740393
0.0736466
0.0732138
0.0729229
0.0730178
0.0731695
0.0736158
0.0738714
0.0739961
0.0740181
0.0739554
0.0738192
0.0736192
0.0733681
0.0730824
0.0727784
0.0724687
0.0721609
0.0718571
0.0715544
0.0712487
0.0709342
0.0706098
0.0702693
0.0699215
0.0695513
0.0691942
0.0688034
0.0685468
0.0687054
0.0681306
0.0685947
0.0688597
0.0689905
0.0690179
0.0689629
0.0688371
0.0686504
0.0684154
0.0681493
0.0678677
0.0675831
0.0673023
0.067027
0.066754
0.0664789
0.0661961
0.0659043
0.0655983
0.0652853
0.0649535
0.0646321
0.0642854
0.0640598
0.0642816
0.0629079
0.0633822
0.0636536
0.0637879
0.0638186
0.0637707
0.0636557
0.0634835
0.0632664
0.0630218
0.0627646
0.0625067
0.0622544
0.0620088
0.0617664
0.0615227
0.0612724
0.0610139
0.0607433
0.0604655
0.0601734
0.0598872
0.0595865
0.0593881
0.0596725
0.0573863
0.0578593
0.0581324
0.0582663
0.0582974
0.0582554
0.0581518
0.0579952
0.0577978
0.0575767
0.0573459
0.0571164
0.0568941
0.0566792
0.0564683
0.0562568
0.0560398
0.0558153
0.0555811
0.055339
0.0550879
0.0548366
0.0545845
0.0544082
0.0547549
0.0513469
0.051799
0.0520666
0.052194
0.0522215
0.0521846
0.0520928
0.0519537
0.0517783
0.0515833
0.0513814
0.0511828
0.0509923
0.0508099
0.050632
0.0504539
0.0502717
0.0500825
0.0498863
0.0496811
0.0494734
0.0492572
0.0490577
0.0488995
0.0493075
0.0443143
0.0447082
0.0449578
0.0450702
0.0450897
0.0450577
0.0449799
0.0448617
0.0447127
0.0445487
0.0443807
0.0442173
0.0440627
0.0439163
0.0437747
0.0436334
0.0434896
0.0433393
0.0431858
0.0430214
0.0428625
0.0426851
0.0425467
0.0424051
0.0428735
0.0349594
0.0352189
0.0354312
0.0355191
0.0355297
0.035508
0.0354529
0.0353668
0.0352577
0.035139
0.035019
0.0349044
0.0347984
0.0347002
0.0346075
0.0345159
0.0344246
0.0343285
0.0342345
0.0341291
0.0340401
0.0339222
0.0338732
0.033765
0.034303
0.0184489
0.0186937
0.018979
0.0190931
0.0191507
0.0191993
0.0192303
0.0192451
0.0192507
0.0192525
0.0192557
0.0192651
0.0192839
0.0193132
0.0193535
0.0194023
0.0194631
0.0195277
0.0196142
0.0196897
0.0198256
0.0198916
0.0201571
0.0201505
0.0210281
)
;

boundaryField
{
    inlet
    {
        type            fixedValue;
        value           nonuniform 0();
    }
    outlet
    {
        type            zeroGradient;
    }
    upperWall
    {
        type            kqRWallFunction;
        value           nonuniform List<scalar> 
53
(
0.0192198
0.0191991
0.0191781
0.0191567
0.0191351
0.0191132
0.019091
0.0190684
0.0190455
0.0190222
0.0189983
0.018974
0.0189491
0.0189235
0.0188971
0.0188697
0.018841
0.0188107
0.0187784
0.0187433
0.0187046
0.0186605
0.0186093
0.0185445
0.0184645
0.0183334
0.0181341
0.0175748
0.0184489
0.0186937
0.018979
0.0190931
0.0191507
0.0191993
0.0192303
0.0192451
0.0192507
0.0192525
0.0192557
0.0192651
0.0192839
0.0193132
0.0193535
0.0194023
0.0194631
0.0195277
0.0196142
0.0196897
0.0198256
0.0198916
0.0201571
0.0201505
0.0210281
)
;