/*--------------------------------*- C++ -*----------------------------------*\
  =========                 |
  \\      /  F ield         | OpenFOAM: The Open Source CFD Toolbox
   \\    /   O peration     | Website:  https://openfoam.org
    \\  /    A nd           | Version:  6
     \\/     M anipulation  |
\*---------------------------------------------------------------------------*/
FoamFile
{
    version     2.0;
    format      ascii;
    class       volScalarField;
    location    "0.05";
    object      nut;
}
// * * * * * * * * * * * * * * * * * * * * * * * * * * * * * * * * * * * * * //

dimensions      [0 2 -1 0 0 0 0];

internalField   nonuniform List<scalar> 
3080
(
1.74448e-05
1.74137e-05
1.73823e-05
1.73507e-05
1.73188e-05
1.72867e-05
1.72543e-05
1.72216e-05
1.71887e-05
1.71555e-05
1.7122e-05
1.70882e-05
1.70541e-05
1.70196e-05
1.69847e-05
1.69494e-05
1.69135e-05
1.68771e-05
1.68399e-05
1.68019e-05
1.67628e-05
1.67222e-05
1.66798e-05
1.66347e-05
1.65857e-05
1.65305e-05
1.64648e-05
1.63793e-05
1.62554e-05
1.60548e-05
0.000134539
0.000134327
0.000134113
0.000133898
0.000133681
0.000133462
0.000133242
0.000133019
0.000132794
0.000132566
0.000132336
0.000132103
0.000131867
0.000131628
0.000131384
0.000131135
0.00013088
0.000130617
0.000130345
0.00013006
0.000129758
0.000129433
0.000129076
0.000128669
0.000128185
0.000127568
0.0001267
0.000125351
0.000122839
0.000118634
0.000251595
0.000251261
0.000250924
0.000250585
0.000250242
0.000249896
0.000249547
0.000249194
0.000248838
0.000248478
0.000248113
0.000247744
0.000247369
0.000246987
0.000246599
0.000246201
0.000245793
0.000245372
0.000244934
0.000244474
0.000243985
0.000243457
0.000242873
0.000242207
0.000241415
0.000240417
0.00023905
0.000237009
0.000233558
0.000227987
0.000346216
0.000345812
0.000345405
0.000344994
0.000344579
0.00034416
0.000343738
0.000343311
0.000342879
0.000342442
0.000342
0.000341552
0.000341097
0.000340634
0.000340162
0.000339679
0.000339183
0.00033867
0.000338136
0.000337575
0.000336978
0.000336333
0.00033562
0.000334808
0.000333848
0.000332652
0.000331057
0.000328768
0.000325211
0.000319959
0.000423426
0.000422982
0.000422534
0.000422082
0.000421626
0.000421166
0.000420701
0.000420231
0.000419756
0.000419275
0.000418789
0.000418295
0.000417794
0.000417284
0.000416764
0.000416232
0.000415684
0.000415119
0.00041453
0.000413911
0.000413252
0.00041254
0.000411755
0.000410863
0.000409815
0.000408525
0.000406841
0.000404513
0.00040113
0.000396512
0.000487582
0.000487116
0.000486647
0.000486174
0.000485696
0.000485213
0.000484725
0.000484233
0.000483734
0.00048323
0.00048272
0.000482202
0.000481676
0.000481141
0.000480595
0.000480036
0.000479461
0.000478867
0.000478248
0.000477599
0.000476908
0.000476162
0.00047534
0.000474411
0.000473326
0.000472005
0.000470316
0.000468054
0.000464939
0.000460944
0.000541644
0.000541171
0.000540693
0.000540211
0.000539724
0.000539233
0.000538736
0.000538235
0.000537727
0.000537213
0.000536693
0.000536165
0.000535629
0.000535084
0.000534527
0.000533957
0.000533372
0.000532766
0.000532136
0.000531475
0.000530772
0.000530014
0.000529181
0.000528244
0.000527156
0.000525846
0.000524202
0.000522063
0.00051924
0.00051579
0.000587637
0.000587165
0.000586689
0.000586208
0.000585723
0.000585233
0.000584738
0.000584237
0.000583731
0.000583218
0.000582699
0.000582172
0.000581637
0.000581093
0.000580537
0.000579968
0.000579384
0.00057878
0.000578151
0.000577492
0.000576792
0.000576039
0.000575214
0.000574289
0.000573222
0.000571952
0.000570385
0.000568396
0.000565862
0.000562877
0.000626993
0.00062653
0.000626063
0.000625592
0.000625116
0.000624635
0.00062415
0.000623658
0.000623161
0.000622658
0.000622148
0.000621631
0.000621106
0.000620571
0.000620025
0.000619467
0.000618893
0.0006183
0.000617684
0.000617038
0.000616353
0.000615617
0.000614813
0.000613916
0.000612889
0.000611678
0.000610208
0.000608381
0.000606121
0.000603534
0.000660766
0.000660319
0.000659867
0.000659412
0.000658951
0.000658487
0.000658016
0.000657541
0.00065706
0.000656573
0.00065608
0.000655579
0.00065507
0.000654552
0.000654024
0.000653483
0.000652928
0.000652354
0.000651758
0.000651134
0.000650473
0.000649765
0.000648993
0.000648136
0.000647161
0.000646023
0.00064466
0.000643
0.000640994
0.000638751
0.000689762
0.000689335
0.000688905
0.00068847
0.000688031
0.000687587
0.000687138
0.000686684
0.000686224
0.000685759
0.000685287
0.000684808
0.000684322
0.000683827
0.000683322
0.000682805
0.000682274
0.000681726
0.000681157
0.000680562
0.000679932
0.000679259
0.000678529
0.00067772
0.000676807
0.00067575
0.000674501
0.000673005
0.000671235
0.00066929
0.00071422
0.000713814
0.000713404
0.00071299
0.000712571
0.000712148
0.000711719
0.000711286
0.000710846
0.000710401
0.000709949
0.000709489
0.000709022
0.000708544
0.000708056
0.000707555
0.000707037
0.000706501
0.00070594
0.000705348
0.000704716
0.000704032
0.000703279
0.000702433
0.000701463
0.00070033
0.000698993
0.000697438
0.000695757
0.000735499
0.000735121
0.000734739
0.000734353
0.000733963
0.000733568
0.000733168
0.000732764
0.000732354
0.000731938
0.000731516
0.000731087
0.00073065
0.000730204
0.000729749
0.000729281
0.000728798
0.000728298
0.000727775
0.000727225
0.000726638
0.000726006
0.000725312
0.000724538
0.000723657
0.000722639
0.000721454
0.000720096
0.000718646
0.000753617
0.000753269
0.000752918
0.000752562
0.000752202
0.000751839
0.00075147
0.000751097
0.000750719
0.000750335
0.000749946
0.00074955
0.000749147
0.000748735
0.000748315
0.000747883
0.000747438
0.000746976
0.000746495
0.000745989
0.000745451
0.000744872
0.00074424
0.000743539
0.000742748
0.000741842
0.000740801
0.000739622
0.000738378
0.000768961
0.000768644
0.000768324
0.000768001
0.000767673
0.000767342
0.000767006
0.000766666
0.000766321
0.000765971
0.000765616
0.000765255
0.000764887
0.000764512
0.000764128
0.000763734
0.000763328
0.000762907
0.000762469
0.000762009
0.000761521
0.000760998
0.000760429
0.000759801
0.000759097
0.000758299
0.000757391
0.000756375
0.000755313
0.000781994
0.000781706
0.000781415
0.000781121
0.000780822
0.000780521
0.000780215
0.000779905
0.00077959
0.000779271
0.000778946
0.000778617
0.000778281
0.000777938
0.000777587
0.000777228
0.000776857
0.000776474
0.000776075
0.000775657
0.000775215
0.000774742
0.00077423
0.000773669
0.000773045
0.000772343
0.000771553
0.00077068
0.000769773
0.000792761
0.000792505
0.000792247
0.000791985
0.000791721
0.000791452
0.00079118
0.000790904
0.000790624
0.00079034
0.000790051
0.000789757
0.000789458
0.000789152
0.00078884
0.000788519
0.000788189
0.000787848
0.000787493
0.000787121
0.000786729
0.000786311
0.00078586
0.000785368
0.000784824
0.000784218
0.000783541
0.0007828
0.000782037
0.000801416
0.000801199
0.00080098
0.000800758
0.000800533
0.000800304
0.000800073
0.000799838
0.0007996
0.000799358
0.000799112
0.000798861
0.000798606
0.000798345
0.000798079
0.000797805
0.000797524
0.000797232
0.00079693
0.000796613
0.000796279
0.000795924
0.000795541
0.000795125
0.000794667
0.000794159
0.000793597
0.000792985
0.00079236
0.000808364
0.000808186
0.000808007
0.000807825
0.000807641
0.000807455
0.000807266
0.000807074
0.000806879
0.00080668
0.000806479
0.000806273
0.000806064
0.000805851
0.000805632
0.000805408
0.000805177
0.000804938
0.000804689
0.000804429
0.000804155
0.000803863
0.00080355
0.000803209
0.000802836
0.000802423
0.000801969
0.000801478
0.00080098
0.000813921
0.000813781
0.00081364
0.000813497
0.000813353
0.000813206
0.000813057
0.000812906
0.000812752
0.000812596
0.000812437
0.000812276
0.000812111
0.000811942
0.00081177
0.000811592
0.00081141
0.000811221
0.000811024
0.000810818
0.000810601
0.00081037
0.000810122
0.000809853
0.000809558
0.000809233
0.000808877
0.000808495
0.00080811
0.000818339
0.000818233
0.000818127
0.000818019
0.00081791
0.0008178
0.000817687
0.000817573
0.000817457
0.000817339
0.000817219
0.000817097
0.000816972
0.000816845
0.000816714
0.00081658
0.000816442
0.000816298
0.000816149
0.000815992
0.000815827
0.00081565
0.000815461
0.000815255
0.00081503
0.000814783
0.000814513
0.000814225
0.000813938
0.000821815
0.00082174
0.000821663
0.000821587
0.000821509
0.000821429
0.000821349
0.000821267
0.000821184
0.000821099
0.000821013
0.000820925
0.000820836
0.000820744
0.00082065
0.000820553
0.000820453
0.000820349
0.000820241
0.000820127
0.000820006
0.000819877
0.000819738
0.000819587
0.000819422
0.000819242
0.000819045
0.000818837
0.000818631
0.000824506
0.000824456
0.000824405
0.000824354
0.000824302
0.000824249
0.000824195
0.00082414
0.000824084
0.000824028
0.00082397
0.000823911
0.00082385
0.000823788
0.000823725
0.000823659
0.000823591
0.000823521
0.000823446
0.000823368
0.000823285
0.000823195
0.000823099
0.000822994
0.000822878
0.000822752
0.000822615
0.000822472
0.000822332
0.000826533
0.000826503
0.000826472
0.000826442
0.00082641
0.000826379
0.000826346
0.000826313
0.000826279
0.000826245
0.00082621
0.000826174
0.000826137
0.000826099
0.000826059
0.000826019
0.000825977
0.000825932
0.000825886
0.000825836
0.000825782
0.000825724
0.000825661
0.000825592
0.000825516
0.000825433
0.000825344
0.000825251
0.000825164
0.000827989
0.000827974
0.000827959
0.000827943
0.000827928
0.000827912
0.000827896
0.000827879
0.000827862
0.000827844
0.000827826
0.000827807
0.000827788
0.000827768
0.000827747
0.000827725
0.000827702
0.000827678
0.000827652
0.000827623
0.000827592
0.000827558
0.00082752
0.000827478
0.000827432
0.000827381
0.000827327
0.000827272
0.000827223
0.000828943
0.000828938
0.000828933
0.000828928
0.000828923
0.000828918
0.000828913
0.000828907
0.000828901
0.000828895
0.000828888
0.000828881
0.000828874
0.000828866
0.000828858
0.000828849
0.000828839
0.000828828
0.000828816
0.000828802
0.000828786
0.000828768
0.000828747
0.000828723
0.000828697
0.000828668
0.000828637
0.000828609
0.000828586
0.000829443
0.000829444
0.000829445
0.000829445
0.000829446
0.000829447
0.000829447
0.000829447
0.000829447
0.000829447
0.000829446
0.000829445
0.000829444
0.000829443
0.000829441
0.000829439
0.000829436
0.000829432
0.000829427
0.00082942
0.000829412
0.000829403
0.000829391
0.000829377
0.000829361
0.000829343
0.000829326
0.000829311
0.000829303
0.000829531
0.000829531
0.000829533
0.000829534
0.000829535
0.000829536
0.000829537
0.000829537
0.000829538
0.000829538
0.000829538
0.000829537
0.000829537
0.000829536
0.000829534
0.000829532
0.00082953
0.000829526
0.000829522
0.000829516
0.000829508
0.000829499
0.000829488
0.000829475
0.00082946
0.000829444
0.000829428
0.000829416
0.000829411
0.000829063
0.000829057
0.00082905
0.000829044
0.000829037
0.00082903
0.000829022
0.000829014
0.000829006
0.000828997
0.000828988
0.000828979
0.000828969
0.000828958
0.000828947
0.000828936
0.000828923
0.000828909
0.000828894
0.000828877
0.000828858
0.000828837
0.000828813
0.000828787
0.000828758
0.000828727
0.000828695
0.000828667
0.000828648
0.000828009
0.000827986
0.000827963
0.00082794
0.000827917
0.000827892
0.000827867
0.000827842
0.000827815
0.000827789
0.000827761
0.000827732
0.000827703
0.000827673
0.000827642
0.000827609
0.000827575
0.00082754
0.000827502
0.000827462
0.000827419
0.000827373
0.000827323
0.000827268
0.000827209
0.000827146
0.000827081
0.000827018
0.000826965
0.000826315
0.000826268
0.000826219
0.00082617
0.00082612
0.000826069
0.000826017
0.000825963
0.000825909
0.000825853
0.000825796
0.000825737
0.000825678
0.000825616
0.000825553
0.000825488
0.000825421
0.000825351
0.000825278
0.000825201
0.00082512
0.000825034
0.000824942
0.000824843
0.000824736
0.000824622
0.000824503
0.000824383
0.000824276
0.000823908
0.000823825
0.000823741
0.000823655
0.000823567
0.000823478
0.000823387
0.000823294
0.000823199
0.000823102
0.000823003
0.000822902
0.000822799
0.000822693
0.000822584
0.000822473
0.000822358
0.000822238
0.000822115
0.000821986
0.00082185
0.000821707
0.000821555
0.000821392
0.000821217
0.000821031
0.000820833
0.000820632
0.000820446
0.000820685
0.000820554
0.000820421
0.000820286
0.000820148
0.000820007
0.000819863
0.000819717
0.000819568
0.000819415
0.00081926
0.000819101
0.000818939
0.000818773
0.000818603
0.000818428
0.000818248
0.000818062
0.00081787
0.00081767
0.00081746
0.00081724
0.000817006
0.000816758
0.000816491
0.000816205
0.000815902
0.000815589
0.000815295
0.000816515
0.000816322
0.000816126
0.000815925
0.000815721
0.000815513
0.000815301
0.000815085
0.000814865
0.00081464
0.00081441
0.000814176
0.000813937
0.000813692
0.000813441
0.000813183
0.000812919
0.000812645
0.000812363
0.00081207
0.000811763
0.000811441
0.000811101
0.00081074
0.000810352
0.000809937
0.000809494
0.000809036
0.000808598
0.000811236
0.000810963
0.000810686
0.000810403
0.000810115
0.000809822
0.000809522
0.000809217
0.000808906
0.000808588
0.000808264
0.000807933
0.000807594
0.000807248
0.000806894
0.00080653
0.000806157
0.000805772
0.000805374
0.000804961
0.000804531
0.000804079
0.000803603
0.000803098
0.000802556
0.000801976
0.000801355
0.000800709
0.000800084
0.000804651
0.000804279
0.000803901
0.000803515
0.000803121
0.00080272
0.000802311
0.000801894
0.000801469
0.000801035
0.000800591
0.000800139
0.000799676
0.000799203
0.000798719
0.000798222
0.000797711
0.000797186
0.000796643
0.00079608
0.000795495
0.000794882
0.000794235
0.00079355
0.000792816
0.000792029
0.000791186
0.000790303
0.000789443
0.000796526
0.000796032
0.000795528
0.000795015
0.000794492
0.000793958
0.000793414
0.000792859
0.000792292
0.000791714
0.000791124
0.000790521
0.000789905
0.000789275
0.00078863
0.000787969
0.00078729
0.000786591
0.000785869
0.000785122
0.000784345
0.000783533
0.000782678
0.000781771
0.000780803
0.000779763
0.000778646
0.000777472
0.000776318
0.000786583
0.000785941
0.000785285
0.000784617
0.000783935
0.000783241
0.000782532
0.000781809
0.000781071
0.000780318
0.000779549
0.000778763
0.000777961
0.00077714
0.000776299
0.000775438
0.000774553
0.000773643
0.000772705
0.000771734
0.000770725
0.000769672
0.000768565
0.000767393
0.000766141
0.000764796
0.00076335
0.000761821
0.000760306
0.000774667
0.000773842
0.000773
0.000772142
0.000771267
0.000770374
0.000769463
0.000768534
0.000767585
0.000766617
0.000765629
0.000764619
0.000763587
0.000762531
0.000761451
0.000760343
0.000759207
0.000758038
0.000756834
0.000755589
0.000754297
0.000752949
0.000751535
0.00075004
0.000748445
0.000746731
0.000744883
0.000742921
0.000740961
0.000760396
0.000759352
0.000758286
0.000757199
0.000756091
0.00075496
0.000753806
0.000752629
0.000751427
0.0007502
0.000748947
0.000747667
0.000746358
0.00074502
0.00074365
0.000742247
0.000740807
0.000739327
0.000737803
0.000736229
0.000734597
0.000732898
0.000731117
0.000729237
0.000727234
0.000725081
0.000722757
0.000720275
0.000717772
0.000742844
0.000741549
0.000740228
0.00073888
0.000737506
0.000736104
0.000734673
0.000733213
0.000731723
0.000730202
0.000728648
0.000727061
0.000725439
0.000723781
0.000722084
0.000720345
0.000718562
0.000716731
0.000714846
0.000712901
0.000710888
0.000708793
0.000706602
0.000704291
0.000701833
0.000699192
0.000696334
0.000693261
0.000690132
0.000721112
0.000719538
0.000717932
0.000716295
0.000714626
0.000712923
0.000711186
0.000709413
0.000707604
0.000705758
0.000703873
0.000701948
0.000699981
0.00069797
0.000695913
0.000693807
0.000691648
0.000689431
0.000687152
0.000684803
0.000682373
0.000679849
0.000677213
0.000674438
0.000671489
0.00066832
0.000664884
0.000661162
0.000657326
0.000694778
0.000692922
0.000691031
0.000689102
0.000687137
0.000685132
0.000683088
0.000681003
0.000678877
0.000676707
0.000674493
0.000672232
0.000669923
0.000667564
0.000665152
0.000662683
0.000660155
0.000657561
0.000654896
0.000652151
0.000649316
0.000646375
0.000643307
0.000640083
0.000636661
0.000632981
0.00062898
0.000624609
0.000620043
0.00066373
0.000661641
0.000659512
0.000657343
0.000655134
0.000652883
0.000650589
0.00064825
0.000645867
0.000643437
0.000640958
0.000638429
0.000635848
0.000633213
0.000630521
0.000627768
0.00062495
0.000622062
0.000619097
0.000616047
0.0006129
0.00060964
0.000606244
0.000602678
0.000598896
0.000594826
0.000590383
0.000585476
0.000580274
0.000626581
0.000624351
0.000622083
0.000619774
0.000617424
0.000615033
0.000612598
0.000610119
0.000607595
0.000605023
0.000602404
0.000599734
0.000597012
0.000594235
0.000591401
0.000588506
0.000585547
0.000582517
0.000579411
0.000576218
0.000572928
0.000569523
0.00056598
0.000562262
0.000558317
0.000554063
0.000549393
0.000544164
0.000538516
0.000580961
0.000578758
0.000576519
0.000574244
0.000571933
0.000569583
0.000567195
0.000564767
0.000562298
0.000559787
0.000557233
0.000554633
0.000551987
0.000549292
0.000546545
0.000543744
0.000540883
0.00053796
0.000534966
0.000531892
0.000528729
0.000525457
0.000522053
0.00051848
0.000514682
0.000510566
0.000506004
0.00050079
0.000495013
0.000529759
0.000527705
0.00052562
0.000523505
0.000521357
0.000519178
0.000516966
0.00051472
0.00051244
0.000510124
0.000507771
0.00050538
0.000502949
0.000500476
0.00049796
0.000495397
0.000492783
0.000490114
0.000487383
0.000484583
0.000481702
0.000478723
0.000475623
0.000472363
0.000468886
0.000465089
0.000460829
0.000455822
0.000450087
0.000478825
0.000476896
0.000474941
0.00047296
0.00047095
0.000468913
0.000466846
0.000464751
0.000462625
0.000460468
0.000458279
0.000456056
0.000453799
0.000451505
0.000449173
0.0004468
0.000444382
0.000441916
0.000439395
0.000436811
0.000434154
0.000431408
0.00042855
0.000425542
0.000422326
0.000418794
0.000414788
0.000409945
0.000404178
0.000424433
0.000422636
0.000420816
0.000418972
0.000417104
0.000415211
0.000413293
0.000411348
0.000409377
0.000407379
0.000405352
0.000403295
0.000401206
0.000399085
0.000396928
0.000394732
0.000392493
0.000390207
0.000387866
0.00038546
0.000382974
0.000380386
0.00037766
0.000374741
0.000371516
0.000367819
0.000363212
0.000357467
0.000370641
0.000369025
0.000367389
0.000365733
0.000364057
0.000362359
0.000360641
0.0003589
0.000357137
0.00035535
0.00035354
0.000351704
0.000349842
0.000347952
0.000346031
0.000344078
0.000342089
0.000340058
0.00033798
0.000335846
0.000333641
0.000331347
0.000328929
0.000326336
0.000323456
0.000320122
0.00031583
0.000310181
0.000315806
0.00031439
0.000312957
0.000311508
0.000310042
0.000308559
0.000307058
0.000305539
0.000304002
0.000302445
0.000300869
0.000299273
0.000297654
0.000296012
0.000294346
0.000292652
0.000290928
0.00028917
0.000287372
0.000285527
0.000283622
0.00028164
0.000279551
0.000277308
0.000274807
0.000271884
0.000267994
0.000262543
0.000260206
0.000259005
0.000257792
0.000256566
0.000255326
0.000254073
0.000252806
0.000251525
0.000250229
0.000248918
0.000247591
0.000246248
0.000244887
0.000243508
0.00024211
0.00024069
0.000239245
0.000237774
0.00023627
0.000234728
0.000233137
0.000231483
0.00022974
0.000227867
0.000225774
0.000223306
0.000219911
0.000214799
0.000204153
0.000203184
0.000202205
0.000201216
0.000200217
0.000199207
0.000198187
0.000197157
0.000196115
0.000195062
0.000193997
0.00019292
0.00019183
0.000190726
0.000189608
0.000188473
0.00018732
0.000186146
0.000184947
0.00018372
0.000182455
0.000181141
0.000179758
0.000178272
0.00017661
0.000174633
0.000171826
0.000167243
0.000148087
0.000147361
0.000146628
0.000145888
0.000145142
0.000144388
0.000143627
0.000142859
0.000142083
0.000141299
0.000140507
0.000139706
0.000138897
0.000138078
0.000137248
0.000136408
0.000135555
0.000134688
0.000133803
0.000132899
0.000131968
0.000131003
0.000129989
0.000128901
0.000127687
0.000126229
0.0001241
0.000120298
9.28265e-05
9.2354e-05
9.18775e-05
9.13968e-05
9.0912e-05
9.04229e-05
8.99295e-05
8.94317e-05
8.89294e-05
8.84225e-05
8.79107e-05
8.73939e-05
8.68719e-05
8.63443e-05
8.58107e-05
8.52706e-05
8.47231e-05
8.41672e-05
8.36015e-05
8.30238e-05
8.24311e-05
8.18179e-05
8.11765e-05
8.04891e-05
7.9729e-05
7.88059e-05
7.74268e-05
7.47398e-05
4.08119e-05
4.05946e-05
4.03756e-05
4.01549e-05
3.99325e-05
3.97083e-05
3.94824e-05
3.92546e-05
3.90251e-05
3.87936e-05
3.85602e-05
3.83248e-05
3.80873e-05
3.78475e-05
3.76054e-05
3.73608e-05
3.71133e-05
3.68626e-05
3.66082e-05
3.63492e-05
3.60847e-05
3.58123e-05
3.55298e-05
3.52289e-05
3.49022e-05
3.45039e-05
3.39032e-05
3.27237e-05
4.50699e-06
4.48418e-06
4.4612e-06
4.43805e-06
4.41472e-06
4.39122e-06
4.36754e-06
4.34368e-06
4.31964e-06
4.29541e-06
4.27098e-06
4.24635e-06
4.22151e-06
4.19644e-06
4.17114e-06
4.14558e-06
4.11974e-06
4.09357e-06
4.06703e-06
4.04004e-06
4.0125e-06
3.98423e-06
3.95506e-06
3.92427e-06
3.89172e-06
3.85359e-06
3.80808e-06
3.72441e-06
1.61663e-05
1.61272e-05
1.60724e-05
1.59854e-05
1.58589e-05
1.57087e-05
1.55451e-05
1.53697e-05
1.51817e-05
1.49845e-05
1.47798e-05
1.45681e-05
1.43502e-05
1.41262e-05
1.38958e-05
1.36581e-05
1.34129e-05
1.31589e-05
1.28978e-05
1.26242e-05
1.23512e-05
1.20496e-05
1.17848e-05
1.14282e-05
1.13046e-05
0.000123735
0.000125788
0.000126145
0.000125703
0.000124784
0.00012361
0.000122295
0.000120871
0.000119343
0.000117681
0.000115978
0.000114249
0.000112484
0.000110667
0.000108783
0.000106814
0.00010476
0.000102589
0.000100354
9.79235e-05
9.55364e-05
9.26982e-05
9.036e-05
8.66756e-05
8.62331e-05
0.000233385
0.000236872
0.000238241
0.00023828
0.00023738
0.000235886
0.000234023
0.000231891
0.000229538
0.00022697
0.000224282
0.000221522
0.000218693
0.000215779
0.000212755
0.000209592
0.000206279
0.000202771
0.000199127
0.000195179
0.000191235
0.000186633
0.0001827
0.000176924
0.000176564
0.000324342
0.000328023
0.000329819
0.000330237
0.000329573
0.000328129
0.00032614
0.000323743
0.00032102
0.000318016
0.000314825
0.00031151
0.00030809
0.000304558
0.000300888
0.000297045
0.000293012
0.000288742
0.00028428
0.000279474
0.000274599
0.000269044
0.000264086
0.000257417
0.000256864
0.000399915
0.000403324
0.000405179
0.000405779
0.000405319
0.000404019
0.000402076
0.00039963
0.000396779
0.000393589
0.000390157
0.000386554
0.000382812
0.00037893
0.000374889
0.000370655
0.000366205
0.000361495
0.000356553
0.000351252
0.000345818
0.000339736
0.00033412
0.000327092
0.000326168
0.000463571
0.000466567
0.000468301
0.000468942
0.000468608
0.000467448
0.000465609
0.000463215
0.000460363
0.00045713
0.000453609
0.000449876
0.000445973
0.000441907
0.000437663
0.000433211
0.000428526
0.000423568
0.000418353
0.000412773
0.00040701
0.000400645
0.000394611
0.000387475
0.000386103
0.00051782
0.000520385
0.000521921
0.000522519
0.000522247
0.000521196
0.000519472
0.000517174
0.00051439
0.000511197
0.000507681
0.00050392
0.000499961
0.000495818
0.000491481
0.000486925
0.000482126
0.000477046
0.00047169
0.000465972
0.000460029
0.000453533
0.000447245
0.000440128
0.00043829
0.000564444
0.000566604
0.000567919
0.000568432
0.000568176
0.000567207
0.000565593
0.000563409
0.00056073
0.000557627
0.000554177
0.000550457
0.000546516
0.000542371
0.000538021
0.000533442
0.000528612
0.000523497
0.000518095
0.000512334
0.000506317
0.00049979
0.000493365
0.000486331
0.000484045
0.000604738
0.000606532
0.000607629
0.000608039
0.000607776
0.000606866
0.000605353
0.00060329
0.000600737
0.000597756
0.000594415
0.000590785
0.000586915
0.000582827
0.000578522
0.000573981
0.000569184
0.000564099
0.000558721
0.000552986
0.000546973
0.000540484
0.000534008
0.000527095
0.000524398
0.000639668
0.00064114
0.000642032
0.000642339
0.000642056
0.000641193
0.000639774
0.000637834
0.000635419
0.000632583
0.00062938
0.000625878
0.000622121
0.000618134
0.00061392
0.000609465
0.000604751
0.000599748
0.000594446
0.000588794
0.000582843
0.000576446
0.000569984
0.000563208
0.000560149
0.000669978
0.000671169
0.000671879
0.000672088
0.000671784
0.000670961
0.000669632
0.000667817
0.000665549
0.000662872
0.00065983
0.000656483
0.000652872
0.000649022
0.000644938
0.000640609
0.000636018
0.000631138
0.000625956
0.000620428
0.000614586
0.000608322
0.000601928
0.000595302
0.000591933
0.000696262
0.000697212
0.000697762
0.000697885
0.000697562
0.000696779
0.000695538
0.000693849
0.000691735
0.000689227
0.000686364
0.000683193
0.000679755
0.00067607
0.000672147
0.000667975
0.000663541
0.000658818
0.000653792
0.000648423
0.000642729
0.000636629
0.000630343
0.000623882
0.000620251
0.000719007
0.000719753
0.000720166
0.000720216
0.00071988
0.000719139
0.000717987
0.000716426
0.000714468
0.000712138
0.000709465
0.000706488
0.000703242
0.000699746
0.000696008
0.000692021
0.00068777
0.000683232
0.00067839
0.000673209
0.000667693
0.000661783
0.000655641
0.000649355
0.000645509
0.000738624
0.000739199
0.000739498
0.00073949
0.000739148
0.000738453
0.000737391
0.000735958
0.00073416
0.000732013
0.000729538
0.000726766
0.000723727
0.000720437
0.000716905
0.000713122
0.000709076
0.000704746
0.000700111
0.00069514
0.000689826
0.000684127
0.000678154
0.000672054
0.000668036
0.000755471
0.000755904
0.00075611
0.000756057
0.000755719
0.000755073
0.000754102
0.000752798
0.00075116
0.000749198
0.000746925
0.000744366
0.000741544
0.000738473
0.00073516
0.000731597
0.000727773
0.000723666
0.000719255
0.000714511
0.000709418
0.000703946
0.000698162
0.000692256
0.000688107
0.000769862
0.00077018
0.000770311
0.000770227
0.0007699
0.000769306
0.000768428
0.000767251
0.000765772
0.000763994
0.000761925
0.000759582
0.000756982
0.000754137
0.000751052
0.000747719
0.000744127
0.000740255
0.000736079
0.000731574
0.000726714
0.00072148
0.000715899
0.000710192
0.000705948
0.000782077
0.000782304
0.000782379
0.000782274
0.000781965
0.000781427
0.000780639
0.000779588
0.000778265
0.000776668
0.000774799
0.000772671
0.000770294
0.000767678
0.000764824
0.000761726
0.000758371
0.000754739
0.000750805
0.000746545
0.000741925
0.000736933
0.000731565
0.00072606
0.000721752
0.000792372
0.000792528
0.000792561
0.000792446
0.00079216
0.000791678
0.00079098
0.000790051
0.000788877
0.000787455
0.000785781
0.000783862
0.000781704
0.000779314
0.00077669
0.000773827
0.000770709
0.000767317
0.000763626
0.000759611
0.000755233
0.000750484
0.000745331
0.000740026
0.000735681
0.000800976
0.000801079
0.000801083
0.000800966
0.000800706
0.00080028
0.000799669
0.000798855
0.000797824
0.000796567
0.000795079
0.00079336
0.000791414
0.000789242
0.000786842
0.000784206
0.00078132
0.000778164
0.00077471
0.000770936
0.000766795
0.000762283
0.000757344
0.000752234
0.000747875
0.000808097
0.000808162
0.000808147
0.000808033
0.000807801
0.000807431
0.000806901
0.000806195
0.000805296
0.000804193
0.000802879
0.000801348
0.000799601
0.000797636
0.000795448
0.00079303
0.000790365
0.000787434
0.000784208
0.000780663
0.00077675
0.000772466
0.000767733
0.00076281
0.000758452
0.000813923
0.000813959
0.000813933
0.000813827
0.000813625
0.000813306
0.000812852
0.000812244
0.000811465
0.000810503
0.000809346
0.000807988
0.000806424
0.00080465
0.00080266
0.000800443
0.000797984
0.000795262
0.000792249
0.000788919
0.000785219
0.000781146
0.000776607
0.000771857
0.000767515
0.000818616
0.000818634
0.000818602
0.000818507
0.000818332
0.000818061
0.000817674
0.000817154
0.000816482
0.000815645
0.000814629
0.000813424
0.000812023
0.000810421
0.000808608
0.000806573
0.0008043
0.000801768
0.000798947
0.000795812
0.000792305
0.000788424
0.000784061
0.000779469
0.00077515
0.000822321
0.000822326
0.000822292
0.000822209
0.00082206
0.000821831
0.000821503
0.000821058
0.000820478
0.000819747
0.000818852
0.000817779
0.00081652
0.000815066
0.000813406
0.00081153
0.000809419
0.000807053
0.000804401
0.000801436
0.000798098
0.000794384
0.000790176
0.000785721
0.000781428
0.000825156
0.000825153
0.000825121
0.000825049
0.000824923
0.000824729
0.00082445
0.000824067
0.000823563
0.00082292
0.000822123
0.000821159
0.000820016
0.000818684
0.000817152
0.000815408
0.000813432
0.000811204
0.000808691
0.000805868
0.000802671
0.000799097
0.000795018
0.000790676
0.000786411
0.000827219
0.000827213
0.000827183
0.000827121
0.000827014
0.000826849
0.000826607
0.000826272
0.000825826
0.000825251
0.00082453
0.000823649
0.000822595
0.000821357
0.000819924
0.000818281
0.00081641
0.000814289
0.000811885
0.000809172
0.000806085
0.000802618
0.000798641
0.000794386
0.000790144
0.000828585
0.000828578
0.000828552
0.000828498
0.000828406
0.00082826
0.000828045
0.000827744
0.000827337
0.000826808
0.000826138
0.000825313
0.000824321
0.000823147
0.000821781
0.000820208
0.000818409
0.000816362
0.000814034
0.000811396
0.000808385
0.000804992
0.000801084
0.000796888
0.000792665
0.000829306
0.000829299
0.000829277
0.00082923
0.000829146
0.000829013
0.000828813
0.00082853
0.000828144
0.000827638
0.000826995
0.000826199
0.000825237
0.000824097
0.000822765
0.000821229
0.000819468
0.00081746
0.000815171
0.000812574
0.000809602
0.000806248
0.000802377
0.000798209
0.000793997
0.000829418
0.000829416
0.000829398
0.000829355
0.000829276
0.000829146
0.00082895
0.00082867
0.000828286
0.000827782
0.000827139
0.000826344
0.000825382
0.000824243
0.000822913
0.000821379
0.000819621
0.000817617
0.000815332
0.000812738
0.000809771
0.000806418
0.00080255
0.00079838
0.000794169
0.000828659
0.000828664
0.000828651
0.00082861
0.000828528
0.000828391
0.000828182
0.000827882
0.000827473
0.000826937
0.000826258
0.000825422
0.000824417
0.000823233
0.000821857
0.000820276
0.000818471
0.000816419
0.000814086
0.000811442
0.000808425
0.000805022
0.000801108
0.000796891
0.000792666
0.00082698
0.000826997
0.00082699
0.000826948
0.000826856
0.000826699
0.000826459
0.000826117
0.000825655
0.000825055
0.000824302
0.000823385
0.000822294
0.000821019
0.000819551
0.000817875
0.000815974
0.000813823
0.000811391
0.000808646
0.000805528
0.000802024
0.000798013
0.000793709
0.000789453
0.000824295
0.000824329
0.00082433
0.000824285
0.000824177
0.000823989
0.000823701
0.000823295
0.000822752
0.000822056
0.000821194
0.000820157
0.000818937
0.000817529
0.000815923
0.000814108
0.000812063
0.000809767
0.000807187
0.000804293
0.000801025
0.000797372
0.00079322
0.000788791
0.000784489
0.00082047
0.000820529
0.000820543
0.000820494
0.000820364
0.000820134
0.000819782
0.000819291
0.000818641
0.000817818
0.000816812
0.000815617
0.000814231
0.00081265
0.000810866
0.000808868
0.000806639
0.000804155
0.000801384
0.000798296
0.000794834
0.00079099
0.000786656
0.000782066
0.000777712
0.000815327
0.000815422
0.000815453
0.000815402
0.000815246
0.000814964
0.000814533
0.000813935