/*--------------------------------*- C++ -*----------------------------------*\
  =========                 |
  \\      /  F ield         | OpenFOAM: The Open Source CFD Toolbox
   \\    /   O peration     | Website:  https://openfoam.org
    \\  /    A nd           | Version:  6
     \\/     M anipulation  |
\*---------------------------------------------------------------------------*/
FoamFile
{
    version     2.0;
    format      ascii;
    class       volScalarField;
    location    "0.05";
    object      p;
}
// * * * * * * * * * * * * * * * * * * * * * * * * * * * * * * * * * * * * * //

dimensions      [0 2 -2 0 0 0 0];

internalField   nonuniform List<scalar> 
3080
(
0.186194
0.186037
0.18588
0.185722
0.185565
0.185407
0.18525
0.185092
0.184936
0.18478
0.184626
0.184474
0.184325
0.18418
0.18404
0.183908
0.183785
0.183676
0.183584
0.183517
0.183482
0.183494
0.183569
0.183737
0.184042
0.184559
0.185443
0.186939
0.189862
0.194487
0.186176
0.186019
0.185862
0.185705
0.185547
0.18539
0.185233
0.185076
0.18492
0.184765
0.184611
0.18446
0.184311
0.184167
0.184028
0.183897
0.183776
0.183669
0.18358
0.183515
0.183485
0.183501
0.183583
0.183757
0.184068
0.184585
0.185447
0.186835
0.189436
0.193239
0.186162
0.186006
0.185849
0.185692
0.185535
0.185378
0.185221
0.185064
0.184909
0.184754
0.184601
0.18445
0.184302
0.184158
0.18402
0.18389
0.183771
0.183665
0.183579
0.183517
0.183491
0.183511
0.183598
0.183777
0.184092
0.184603
0.185433
0.186698
0.188893
0.191551
0.186153
0.185997
0.18584
0.185683
0.185526
0.185369
0.185212
0.185056
0.1849
0.184746
0.184593
0.184442
0.184294
0.184151
0.184013
0.183883
0.183764
0.183658
0.183571
0.183509
0.183481
0.1835
0.183583
0.183754
0.184051
0.184526
0.185273
0.186353
0.188063
0.189822
0.186145
0.185989
0.185832
0.185675
0.185519
0.185362
0.185205
0.185049
0.184893
0.184738
0.184585
0.184434
0.184286
0.184142
0.184003
0.183873
0.183752
0.183644
0.183555
0.183489
0.183456
0.183467
0.183537
0.183689
0.183952
0.184368
0.185
0.18587
0.187136
0.188241
0.186138
0.185982
0.185825
0.185669
0.185512
0.185355
0.185198
0.185042
0.184886
0.184731
0.184577
0.184425
0.184276
0.184131
0.183992
0.183859
0.183736
0.183625
0.183531
0.183459
0.183418
0.183416
0.183468
0.183591
0.183809
0.184152
0.184658
0.18532
0.186211
0.186826
0.186131
0.185975
0.185819
0.185662
0.185505
0.185348
0.185191
0.185035
0.184878
0.184723
0.184569
0.184416
0.184266
0.18412
0.183978
0.183843
0.183716
0.183601
0.183501
0.183421
0.183368
0.18335
0.183378
0.183467
0.183634
0.183896
0.184274
0.184742
0.185319
0.185558
0.186125
0.185969
0.185813
0.185656
0.185499
0.185342
0.185185
0.185028
0.184871
0.184715
0.18456
0.184406
0.184255
0.184106
0.183962
0.183824
0.183693
0.183572
0.183465
0.183375
0.183308
0.183271
0.183273
0.183323
0.183434
0.183613
0.183867
0.184157
0.184471
0.184421
0.18612
0.185964
0.185807
0.18565
0.185493
0.185336
0.185179
0.185021
0.184864
0.184707
0.184551
0.184396
0.184243
0.184092
0.183945
0.183803
0.183667
0.18354
0.183424
0.183323
0.18324
0.183182
0.183155
0.183164
0.183217
0.183313
0.18345
0.18358
0.183674
0.183402
0.186114
0.185958
0.185802
0.185645
0.185488
0.18533
0.185172
0.185014
0.184857
0.184699
0.184542
0.184385
0.18423
0.184077
0.183927
0.18378
0.183639
0.183505
0.183379
0.183265
0.183166
0.183086
0.183027
0.182994
0.182989
0.183006
0.183033
0.183021
0.182934
0.182488
0.186109
0.185953
0.185796
0.18564
0.185482
0.185324
0.185166
0.185008
0.184849
0.18469
0.184532
0.184374
0.184217
0.184061
0.183907
0.183756
0.183609
0.183467
0.183331
0.183204
0.183087
0.182983
0.182893
0.182818
0.182756
0.182697
0.182625
0.182489
0.182249
0.181667
0.185948
0.185791
0.185634
0.185477
0.185319
0.18516
0.185001
0.184842
0.184682
0.184522
0.184362
0.184203
0.184044
0.183887
0.183731
0.183578
0.183427
0.183281
0.18314
0.183005
0.182877
0.182756
0.18264
0.182523
0.182393
0.18223
0.181986
0.181619
0.180929
0.185942
0.185786
0.185629
0.185471
0.185313
0.185154
0.184994
0.184834
0.184673
0.184512
0.184351
0.184189
0.184027
0.183866
0.183705
0.183545
0.183387
0.18323
0.183075
0.182922
0.18277
0.182618
0.182461
0.182293
0.182098
0.181854
0.181515
0.181042
0.180265
0.185937
0.185781
0.185624
0.185466
0.185307
0.185148
0.184988
0.184827
0.184665
0.184502
0.184339
0.184175
0.18401
0.183845
0.183679
0.183513
0.183346
0.183178
0.183009
0.182838
0.182663
0.182481
0.182287
0.18207
0.181815
0.181499
0.181078
0.180515
0.179668
0.185932
0.185776
0.185619
0.185461
0.185302
0.185142
0.184981
0.184819
0.184657
0.184493
0.184327
0.184161
0.183993
0.183824
0.183653
0.18348
0.183305
0.183127
0.182944
0.182755
0.182558
0.182348
0.182117
0.181856
0.181547
0.181166
0.180675
0.180037
0.179132
0.185927
0.185771
0.185614
0.185456
0.185296
0.185136
0.184975
0.184812
0.184648
0.184483
0.184316
0.184147
0.183976
0.183803
0.183627
0.183448
0.183265
0.183076
0.18288
0.182675
0.182456
0.182219
0.181955
0.181653
0.181295
0.180858
0.180305
0.179604
0.178653
0.185922
0.185766
0.185609
0.18545
0.185291
0.18513
0.184968
0.184805
0.18464
0.184473
0.184304
0.184133
0.18396
0.183783
0.183602
0.183417
0.183226
0.183027
0.182819
0.182597
0.182359
0.182097
0.181802
0.181463
0.181062
0.180575
0.179969
0.179214
0.178224
0.185917
0.185761
0.185604
0.185445
0.185286
0.185125
0.184962
0.184798
0.184632
0.184464
0.184294
0.184121
0.183944
0.183764
0.183579
0.183388
0.183189
0.182981
0.182761
0.182525
0.182268
0.181983
0.181661
0.181289
0.180849
0.180318
0.179667
0.178866
0.177845
0.185912
0.185756
0.185599
0.18544
0.185281
0.185119
0.184957
0.184792
0.184625
0.184456
0.184284
0.184109
0.18393
0.183746
0.183557
0.18336
0.183155
0.182939
0.182708
0.182459
0.182185
0.18188
0.181533
0.181131
0.180657
0.180089
0.179398
0.178559
0.17751
0.185907
0.185751
0.185594
0.185436
0.185276
0.185114
0.184951
0.184786
0.184618
0.184448
0.184275
0.184098
0.183916
0.18373
0.183537
0.183336
0.183124
0.1829
0.18266
0.182398
0.18211
0.181786
0.181417
0.180989
0.180486
0.179885
0.179161
0.178289
0.177219
0.185902
0.185746
0.185589
0.185431
0.185271
0.185109
0.184946
0.18478
0.184612
0.184441
0.184266
0.184088
0.183904
0.183715
0.183519
0.183313
0.183097
0.182866
0.182617
0.182344
0.182043
0.181703
0.181315
0.180865
0.180336
0.179708
0.178955
0.178055
0.176967
0.185897
0.185742
0.185585
0.185427
0.185267
0.185105
0.184941
0.184775
0.184606
0.184434
0.184258
0.184079
0.183893
0.183702
0.183503
0.183293
0.183072
0.182835
0.182579
0.182297
0.181984
0.181631
0.181226
0.180757
0.180207
0.179555
0.17878
0.177857
0.176754
0.185892
0.185737
0.185581
0.185422
0.185262
0.1851
0.184936
0.18477
0.184601
0.184428
0.184252
0.184071
0.183884
0.183691
0.183489
0.183276
0.183051
0.182809
0.182546
0.182257
0.181934
0.18157
0.181151
0.180667
0.180098
0.179428
0.178633
0.177692
0.176577
0.185888
0.185733
0.185576
0.185418
0.185258
0.185096
0.184932
0.184765
0.184596
0.184423
0.184246
0.184064
0.183876
0.183681
0.183477
0.183262
0.183033
0.182787
0.182519
0.182224
0.181894
0.181519
0.181091
0.180593
0.180011
0.179326
0.178516
0.17756
0.176436
0.185883
0.185728
0.185572
0.185414
0.185254
0.185092
0.184928
0.184761
0.184591
0.184418
0.18424
0.184058
0.183869
0.183673
0.183467
0.18325
0.183019
0.18277
0.182498
0.182198
0.181862
0.181481
0.181043
0.180537
0.179944
0.179248
0.178427
0.177461
0.176329
0.185879
0.185724
0.185568
0.18541
0.185251
0.185089
0.184924
0.184758
0.184588
0.184414
0.184236
0.184053
0.183863
0.183666
0.18346
0.183241
0.183008
0.182757
0.182483
0.182179
0.181839
0.181453
0.18101
0.180497
0.179897
0.179193
0.178365
0.177392
0.176255
0.185874
0.18572
0.185564
0.185407
0.185247
0.185085
0.184921
0.184754
0.184584
0.18441
0.184232
0.184049
0.183859
0.183662
0.183454
0.183235
0.183001
0.182749
0.182473
0.182167
0.181825
0.181437
0.180991
0.180474
0.179871
0.179163
0.178331
0.177354
0.176215
0.18587
0.185716
0.18556
0.185403
0.185243
0.185082
0.184918
0.184751
0.184581
0.184407
0.184229
0.184046
0.183856
0.183658
0.183451
0.183232
0.182998
0.182745
0.182468
0.182163
0.18182
0.181431
0.180985
0.180468
0.179864
0.179156
0.178324
0.177347
0.176207
0.185865
0.185711
0.185556
0.185399
0.18524
0.185079
0.184915
0.184748
0.184579
0.184405
0.184227
0.184044
0.183855
0.183657
0.183451
0.183232
0.182998
0.182747
0.182472
0.182168
0.181827
0.181441
0.180998
0.180484
0.179885
0.179182
0.178354
0.177383
0.176246
0.18586
0.185707
0.185552
0.185395
0.185237
0.185076
0.184912
0.184746
0.184577
0.184404
0.184226
0.184044
0.183855
0.183659
0.183453
0.183236
0.183004
0.182755
0.182483
0.182182
0.181847
0.181466
0.18103
0.180525
0.179935
0.179241
0.178424
0.177463
0.176332
0.185855
0.185703
0.185548
0.185392
0.185233
0.185073
0.18491
0.184744
0.184575
0.184403
0.184226
0.184045
0.183857
0.183662
0.183458
0.183243
0.183015
0.182769
0.182502
0.182207
0.181879
0.181507
0.181082
0.180589
0.180013
0.179335
0.178534
0.177588
0.176466
0.185851
0.185698
0.185544
0.185388
0.185231
0.185071
0.184908
0.184743
0.184575
0.184403
0.184228
0.184047
0.183861
0.183668
0.183467
0.183255
0.18303
0.182789
0.182528
0.182242
0.181923
0.181563
0.181152
0.180676
0.18012
0.179463
0.178683
0.177759
0.176651
0.185846
0.185694
0.185541
0.185385
0.185228
0.185068
0.184907
0.184742
0.184575
0.184404
0.18423
0.184051
0.183866
0.183676
0.183477
0.18327
0.18305
0.182815
0.182562
0.182285
0.181979
0.181634
0.181242
0.180787
0.180255
0.179625
0.178873
0.177977
0.176886
0.185841
0.18569
0.185537
0.185382
0.185226
0.185067
0.184905
0.184742
0.184575
0.184406
0.184233
0.184056
0.183874
0.183686
0.183491
0.183288
0.183074
0.182846
0.182603
0.182338
0.182046
0.18172
0.181349
0.180921
0.180418
0.179822
0.179105
0.178244
0.177176
0.185837
0.185686
0.185534
0.18538
0.185223
0.185065
0.184905
0.184742
0.184577
0.184408
0.184237
0.184062
0.183882
0.183697
0.183507
0.183309
0.183101
0.182883
0.182649
0.182398
0.182123
0.181818
0.181473
0.181076
0.18061
0.180054
0.179379
0.178561
0.177521
0.185833
0.185683
0.185531
0.185377
0.185222
0.185064
0.184904
0.184743
0.184578
0.184411
0.184242
0.184069
0.183892
0.183711
0.183525
0.183332
0.183132
0.182923
0.182702
0.182466
0.18221
0.181929
0.181614
0.181252
0.180828
0.18032
0.179696
0.178932
0.177927
0.185829
0.185679
0.185528
0.185375
0.18522
0.185063
0.184904
0.184744
0.184581
0.184415
0.184247
0.184077
0.183903
0.183726
0.183544
0.183358
0.183166
0.182967
0.182759
0.18254
0.182306
0.182051
0.181769
0.181448
0.181073
0.180621
0.180058
0.179359
0.178397
0.185825
0.185676
0.185525
0.185373
0.185218
0.185062
0.184905
0.184745
0.184583
0.184419
0.184253
0.184085
0.183915
0.183741
0.183565
0.183386
0.183202
0.183014
0.18282
0.182619
0.182408
0.182183
0.181937
0.181662
0.181342
0.180956
0.180465
0.179846
0.178936
0.185821
0.185673
0.185523
0.185371
0.185217
0.185062
0.184905
0.184746
0.184586
0.184424
0.18426
0.184094
0.183927
0.183758
0.183587
0.183414
0.18324
0.183063
0.182884
0.182702
0.182515
0.182321
0.182115
0.181891
0.181633
0.181322
0.180916
0.180394
0.179549
0.185818
0.18567
0.18552
0.185369
0.185216
0.185062
0.184906
0.184748
0.184589
0.184429
0.184267
0.184104
0.18394
0.183775
0.183609
0.183444
0.183278
0.183113
0.182949
0.182786
0.182625
0.182464
0.182301
0.182131
0.181942
0.181719
0.181411
0.181009
0.180245
0.185815
0.185668
0.185519
0.185368
0.185216
0.185062
0.184907
0.184751
0.184593
0.184434
0.184274
0.184114
0.183953
0.183792
0.183632
0.183473
0.183317
0.183163
0.183014
0.182871
0.182736
0.18261
0.182492
0.182381
0.182268
0.182143
0.18195
0.181697
0.181032
0.185812
0.185665
0.185517
0.185367
0.185215
0.185063
0.184908
0.184753
0.184597
0.184439
0.184282
0.184124
0.183966
0.18381
0.183655
0.183503
0.183355
0.183213
0.183079
0.182956
0.182847
0.182755
0.182684
0.182636
0.182604
0.182591
0.182528
0.182461
0.181917
0.18581
0.185664
0.185516
0.185366
0.185216
0.185063
0.18491
0.184756
0.184601
0.184445
0.184289
0.184134
0.183979
0.183826
0.183676
0.18353
0.183391
0.183259
0.183139
0.183035
0.18295
0.182891
0.182864
0.182878
0.182929
0.183036
0.183113
0.183275
0.182861
0.185808
0.185663
0.185515
0.185366
0.185216
0.185065
0.184912
0.184759
0.184605
0.18445
0.184296
0.184142
0.18399
0.183841
0.183695
0.183555
0.183422
0.183299
0.183191
0.183102
0.183039
0.183009
0.183022
0.183093
0.183221
0.183448
0.183663
0.184088
0.183808
0.185808
0.185662
0.185515
0.185367
0.185217
0.185066
0.184914
0.184762
0.184608
0.184455
0.184302
0.184151
0.184001
0.183854
0.183712
0.183576
0.183448
0.183334
0.183235
0.18316
0.183114
0.183109
0.183156
0.183278
0.183474
0.183818
0.184164
0.184884
0.184741
0.185807
0.185662
0.185515
0.185368
0.185218
0.185068
0.184916
0.184764
0.184612
0.18446
0.184308
0.184158
0.184009
0.183865
0.183725
0.183593
0.18347
0.183361
0.183271
0.183206
0.183175
0.18319
0.183265
0.183431
0.183686
0.184142
0.184608
0.185652
0.185648
0.185806
0.185661
0.185515
0.185367
0.185218
0.185068
0.184917
0.184766
0.184614
0.184462
0.184311
0.184162
0.184015
0.183872
0.183734
0.183605
0.183485
0.183381
0.183296
0.183239
0.183219
0.18325
0.183347
0.183549
0.183852
0.184411
0.184981
0.186371
0.186505
0.185806
0.185661
0.185515
0.185367
0.185219
0.185069
0.184918
0.184767
0.184615
0.184464
0.184313
0.184165
0.184019
0.183876
0.18374
0.183612
0.183495
0.183393
0.183313
0.183261
0.183248
0.18329
0.183402
0.183632
0.18397
0.18462
0.185276
0.187019
0.1873
0.185661
0.185515
0.185367
0.185219
0.185069
0.184918
0.184767
0.184616
0.184465
0.184315
0.184166
0.184021
0.183879
0.183743
0.183616
0.1835
0.183401
0.183322
0.183274
0.183265
0.183314
0.183436
0.183686
0.184049
0.184774
0.1855
0.187585
0.18803
0.185661
0.185515
0.185367
0.185219
0.185069
0.184918
0.184767
0.184616
0.184465
0.184315
0.184167
0.184021
0.18388
0.183745
0.183618
0.183503
0.183403
0.183326
0.183279
0.183272
0.183326
0.183453
0.183716
0.184094
0.184875
0.185655
0.188057
0.188692
0.18566
0.185514
0.185367
0.185218
0.185069
0.184918
0.184767
0.184616
0.184465
0.184315
0.184166
0.184021
0.183879
0.183744
0.183617
0.183502
0.183403
0.183325
0.183278
0.183272
0.183326
0.183455
0.183724
0.184109
0.184929
0.185747
0.188424
0.189286
0.18566
0.185514
0.185367
0.185218
0.185068
0.184918
0.184766
0.184615
0.184464
0.184314
0.184165
0.184019
0.183878
0.183742
0.183615
0.183499
0.183399
0.183321
0.183273
0.183265
0.183318
0.183445
0.183715
0.184101
0.18494
0.185785
0.188677
0.189811
0.18566
0.185514
0.185366
0.185217
0.185067
0.184917
0.184765
0.184614
0.184462
0.184312
0.184163
0.184017
0.183875
0.183739
0.183611
0.183494
0.183393
0.183313
0.183264
0.183254
0.183304
0.183427
0.183692
0.184073
0.184914
0.185775
0.188813
0.190268
0.185659
0.185513
0.185365
0.185216
0.185066
0.184915
0.184764
0.184612
0.18446
0.18431
0.18416
0.184014
0.183871
0.183734
0.183605
0.183488
0.183385
0.183304
0.183251
0.183238
0.183284
0.183401
0.183658
0.18403
0.184855
0.185722
0.188822
0.190654
0.185658
0.185512
0.185364
0.185215
0.185065
0.184914
0.184762
0.18461
0.184458
0.184307
0.184158
0.184011
0.183867
0.18373
0.1836
0.18348
0.183376
0.183292
0.183237
0.18322
0.18326
0.18337
0.183615
0.183975
0.184768
0.185632
0.188692
0.190961
0.18566
0.185513
0.185366
0.185217
0.185066
0.184915
0.184763
0.184611
0.184459
0.184307
0.184157
0.18401
0.183866
0.183727
0.183596
0.183476
0.18337
0.183283
0.183225
0.183203
0.183238
0.18334
0.183573
0.18392
0.184677
0.185529
0.188468
0.191188
0.185664
0.185517
0.185369
0.18522
0.18507
0.184918
0.184766
0.184614
0.184461
0.18431
0.18416
0.184012
0.183867
0.183728
0.183597
0.183475
0.183368
0.18328
0.18322
0.183196
0.183227
0.183325
0.183549
0.183888
0.184624
0.185467
0.188316
0.191334
0.205745
0.196498
0.187233
0.183006
0.179676
0.175573
0.17129
0.167118
0.162872
0.158407
0.153685
0.148681
0.143342
0.1376
0.131393
0.124632
0.117264
0.109111
0.100262
0.0900935
0.0796304
0.0658346
0.0550056
0.0312685
0.0291497
0.199947
0.193006
0.185539
0.181757
0.178524
0.174565
0.17042
0.166328
0.162124
0.157689
0.152992
0.147996
0.142651
0.136894
0.130668
0.123886
0.116497
0.108319
0.0994505
0.0892493
0.0787731
0.0649125
0.0541042
0.0301716
0.0282379
0.195256
0.190276
0.18425
0.180628
0.177373
0.173541
0.169529
0.165508
0.161342
0.156936
0.152255
0.147262
0.141906
0.136131
0.129881
0.123071
0.115655
0.107443
0.0985537
0.0882948
0.0778336
0.0638257
0.0531822
0.0287723
0.0275076
0.191972
0.188151
0.183163
0.179669
0.176401
0.172677
0.168773
0.164807
0.160671
0.156286
0.15162
0.146629
0.141267
0.135477
0.129207
0.122371
0.114931
0.106685
0.0977799
0.0874582
0.0770263
0.0628471
0.0524283
0.0274745
0.0271316
0.18945
0.186319
0.182123
0.178793
0.175554
0.171932
0.16812
0.164202
0.160094
0.155731
0.151077
0.146091
0.140724
0.134924
0.12864
0.121783
0.114324
0.106046
0.0971299
0.0867488
0.0763519
0.0620077
0.0518237
0.0263723
0.0269915
0.187381
0.184699
0.181111
0.177959
0.174777
0.171254
0.167528
0.163658
0.159579
0.155237
0.150596
0.145615
0.140247
0.134439
0.128143
0.121269
0.113794
0.105488
0.096563
0.0861266
0.0757671
0.0612685
0.0513178
0.0254242
0.0269798
0.18565
0.183278
0.180147
0.177162
0.174053
0.170626
0.16698
0.163158
0.159109
0.154789
0.150161
0.145186
0.139818
0.134005
0.127699
0.12081
0.113321
0.10499
0.0960582
0.0855698
0.0752495
0.0606059
0.0508857
0.0245923
0.0270499
0.184187
0.182033
0.179241
0.176406
0.173377
0.170041
0.16647
0.162695
0.158678
0.154379
0.149766
0.144798
0.139431
0.133614
0.1273
0.120399
0.112897
0.104543
0.0956062
0.0850692
0.0747889
0.0600094
0.0505157
0.0238574
0.0271787
0.182933
0.180936
0.178395
0.175692
0.172745
0.169494
0.165993
0.162265
0.15828
0.154004
0.149405
0.144445
0.139081
0.133261
0.126941
0.120028
0.112516
0.104141
0.0952004
0.0846179
0.074378
0.0594719
0.0501986
0.0232071
0.0273488
0.181847
0.179963
0.17761
0.175022
0.172155
0.168983
0.165548
0.161865
0.157912
0.153659
0.149075
0.144124
0.138763
0.132941
0.126617
0.119694
0.112173
0.103778
0.0948351
0.0842103
0.0740105
0.0589869
0.0499263
0.0226307
0.0275458
0.180895
0.179096
0.176885
0.174396
0.171604
0.168506
0.165131
0.161493
0.157572
0.153341
0.148773
0.143831
0.138474
0.132652
0.126323
0.119392
0.111863
0.10345
0.0945055
0.0838416
0.0736809
0.0585489
0.0496918
0.0221192
0.0277585
0.180057
0.178322
0.176219
0.173814
0.171092
0.168061
0.164743
0.161146
0.157256
0.153049
0.148496
0.143563
0.138211
0.132389
0.126057
0.119118
0.111582
0.103154
0.0942078
0.0835079
0.073385
0.0581536
0.0494897
0.0216648
0.0279786
0.179314
0.177629
0.175608
0.173275
0.170617
0.167646
0.164381
0.160825
0.156965
0.15278
0.148243
0.143319
0.137973
0.132151
0.125817
0.118871
0.111329
0.102886
0.093939
0.083206
0.0731192
0.0577972
0.0493152
0.0212615
0.0281997
0.178654
0.177009
0.175052
0.172779
0.170178
0.167263
0.164045
0.160527
0.156696
0.152533
0.148011
0.143098
0.137756
0.131936
0.1256
0.118648
0.1111
0.102644
0.0936966
0.0829335
0.0728807
0.0574766
0.0491645
0.020904
0.028417
0.178067
0.176453
0.174547
0.172325
0.169775
0.16691
0.163736
0.160253
0.15645
0.152307
0.1478
0.142896
0.13756
0.131741
0.125404
0.118447
0.110895
0.102426
0.0934784
0.0826881
0.072667
0.0571889
0.0490343
0.0205879
0.0286267
0.177544
0.175956
0.174089
0.171911
0.169406
0.166585
0.163451
0.160001
0.156224
0.152102
0.147609
0.142714
0.137384
0.131566
0.125228
0.118267
0.11071
0.10223
0.0932826
0.0824678
0.0724759
0.056932
0.0489218
0.0203097
0.0288256
0.177081
0.175514
0.173678
0.171536
0.169072
0.16629
0.163192
0.159772
0.156019
0.151915
0.147436
0.142551
0.137225
0.13141
0.125071
0.118106
0.110545
0.102055
0.0931075
0.082271
0.0723056
0.0567037
0.0488244
0.0200662
0.0290113
0.17667
0.175121
0.173311
0.1712
0.16877
0.166023
0.162957
0.159565
0.155834
0.151748
0.147281
0.142404
0.137084
0.131271
0.124931
0.117962
0.110398
0.1019
0.0929518
0.0820963
0.0721544
0.0565022
0.04874
0.0198548
0.0291819
0.176309
0.174775
0.172985
0.1709
0.1685
0.165784
0.162747
0.159379
0.155669
0.151598
0.147143
0.142274
0.136959
0.131147
0.124808
0.117836
0.110269
0.101763
0.0928141
0.0819423
0.0720208
0.0563259
0.0486667
0.0196733
0.0293359
0.175994
0.174473
0.1727
0.170636
0.168262
0.165572
0.16256
0.159214
0.155522
0.151466
0.147022
0.14216
0.136849
0.131039
0.124699
0.117725
0.110155
0.101643
0.0926933
0.0818079
0.0719036
0.0561734
0.0486029
0.0195196
0.029472
0.175723
0.174212
0.172452
0.170406
0.168054
0.165387
0.162396
0.15907
0.155394
0.15135
0.146916
0.142061
0.136754
0.130946
0.124606
0.117629
0.110057
0.101539
0.0925884
0.0816921
0.0718016
0.0560434
0.0485471
0.0193923
0.0295891
0.175493
0.173991
0.172242
0.17021
0.167876
0.165229
0.162256
0.158946
0.155284
0.151251
0.146825
0.141976
0.136673
0.130866
0.124526
0.117548
0.109973
0.101451
0.0924986
0.0815939
0.0717138
0.0559349
0.0484981
0.0192901
0.0296865
0.175303
0.173808
0.172067
0.170047
0.167728
0.165096
0.162139
0.158842
0.155192
0.151169
0.146749
0.141905
0.136605
0.130799
0.124459
0.117479
0.109902
0.101377
0.0924231
0.0815126
0.0716393
0.055847
0.0484549
0.0192117
0.0297635
0.175151
0.173662
0.171927
0.169916
0.167608
0.164989
0.162044
0.158758
0.155117
0.151101
0.146688
0.141848
0.136549
0.130745
0.124405
0.117424
0.109845
0.101317
0.0923612
0.0814474
0.0715778
0.0557785
0.0484171
0.0191553
0.0298215
0.175037
0.173551
0.171821
0.169817
0.167518
0.164907
0.161971
0.158694
0.15506
0.15105
0.14664
0.141803
0.136507
0.130703
0.124362
0.117381
0.1098
0.101271
0.0923126
0.0813978
0.0715286
0.0557283
0.048385
0.0191185
0.0298622
0.174958
0.173475
0.171748
0.169749
0.167455
0.164851
0.161921
0.158649
0.15502
0.151013
0.146607
0.141771
0.136476
0.130673
0.124331
0.11735
0.109767
0.101238
0.0922764
0.0813638
0.0714903
0.0556981
0.0483537
0.0191082
0.0298757
0.174916
0.173434
0.171708
0.169711
0.16742
0.164819
0.161892
0.158623
0.154996
0.150992
0.146587
0.141752
0.136457
0.130654
0.124312
0.11733
0.109745
0.101219
0.092251
0.0813483
0.0714566
0.055699
0.0483023
0.0191594
0.0298136
0.17491
0.173428
0.171702
0.169705
0.167414
0.164813
0.161886
0.158617
0.15499
0.150985
0.14658
0.141745
0.13645
0.130647
0.124304
0.117323
0.109735
0.101213
0.0922347
0.0813535
0.0714223
0.0557398
0.0482135
0.0193013
0.0296375
0.174954
0.17347
0.171741
0.169741
0.167447
0.164841
0.16191
0.158637
0.155006
0.150999
0.146591
0.141755
0.136458
0.130654
0.12431
0.11733
0.109741
0.101223
0.0922388
0.0813704
0.0714186
0.0557762
0.0481814
0.019384
0.0295508
0.17505
0.173561
0.171828
0.169822
0.16752
0.164905
0.161965
0.158685
0.155047
0.151034
0.146622
0.141783
0.136484
0.130679
0.124334
0.117354
0.109764
0.101249
0.0922643
0.0814024
0.0714435
0.055816
0.0481947
0.0194286
0.0295244
0.175199
0.173703
0.171962
0.169948
0.167633
0.165006
0.162053
0.15876
0.155113
0.151092
0.146674
0.141829
0.136527
0.13072
0.124374
0.117395
0.109807
0.101294
0.0923101
0.0814534
0.0714916
0.0558718
0.0482323
0.0194733
0.0295083
0.175402
0.173897
0.172146
0.17012
0.167788
0.165143
0.162173
0.158864
0.155204
0.151172
0.146745
0.141895
0.136588
0.130779
0.124433
0.117454
0.109867
0.101358
0.0923767
0.0815246
0.0715626
0.0559464
0.0482916
0.0195254
0.0294948
0.175663
0.174146
0.172381
0.170338
0.167985
0.165317
0.162325
0.158997
0.15532
0.151274
0.146837
0.14198
0.136668
0.130857
0.124509
0.117532
0.109948
0.101442
0.0924649
0.0816168
0.0716579
0.0560402
0.048375
0.0195841
0.0294886
0.175983
0.174451
0.172669
0.170605
0.168225
0.165528
0.16251
0.159159
0.155461
0.1514
0.146951
0.142085
0.136768
0.130954
0.124606
0.11763
0.110049
0.101547
0.0925763
0.0817311
0.0717789
0.0561543
0.048485
0.0196495
0.0294936
0.176367
0.174815
0.173011
0.170921
0.168509
0.165778
0.162728
0.15935
0.155629
0.15155
0.147088
0.142212
0.136889
0.131071
0.124723
0.117749
0.110172
0.101675
0.0927121
0.081869
0.0719274
0.0562902
0.048624
0.0197231
0.0295132
0.17682
0.175244
0.17341
0.171289
0.168838
0.166067
0.162981
0.159571
0.155825
0.151725
0.147248
0.142362
0.137032
0.131211
0.124863
0.11789
0.110319
0.101826
0.0928741
0.0820322
0.0721055
0.05645
0.0487951
0.0198066
0.0295512
0.177349
0.175741
0.17387
0.171711
0.169214
0.166396
0.163268
0.159822
0.156048
0.151926
0.147433
0.142536
0.137199
0.131375
0.125027
0.118057
0.110492
0.102004
0.0930644
0.0822226
0.0723155
0.0566355
0.0490016
0.0199018
0.0296124
0.177961
0.176313
0.174394
0.17219
0.169637
0.166764
0.16359
0.160105
0.156299
0.152155
0.147644
0.142735
0.137391
0.131563
0.125217
0.118249
0.110693
0.10221
0.0932851
0.0824423
0.0725602
0.0568493
0.0492477
0.0200111
0.0297028
0.178668
0.176966
0.174986
0.172727
0.170109
0.167174
0.163948
0.16042
0.156581
0.152411
0.147883
0.142962
0.137611
0.13178
0.125434
0.118471
0.110923
0.102446
0.0935389
0.0826939
0.0728426
0.0570943
0.0495379
0.0201378
0.0298286
0.179485
0.177709
0.175649
0.173326
0.170632
0.167626
0.164342
0.160768
0.156893
0.152697
0.148151
0.143217
0.137859
0.132026
0.125683
0.118723
0.111186
0.102715
0.0938288
0.0829804
0.0731662
0.057374
0.0498771
0.020287
0.0299968
0.180432
0.178553
0.176388
0.17399
0.171206
0.16812
0.164774
0.161151
0.157238
0.153015
0.14845
0.143504
0.13814
0.132304
0.125964
0.11901
0.111486
0.103021
0.0941586
0.0833052
0.0735359
0.0576919
0.0502735
0.0204609
0.0302216
0.181544
0.179507
0.177208
0.174724
0.171834
0.168658
0.165245
0.161569
0.157617
0.153367
0.148783
0.143825
0.138455
0.132618
0.126283
0.119335
0.111826
0.103367
0.0945339
0.0836705
0.073961
0.0580455
0.0507485
0.0206435
0.0305476
0.182815
0.180532
0.17807
0.175497
0.172485
0.169215
0.165734
0.162005
0.158015
0.153738
0.149136
0.144168
0.138793
0.132956
0.126627
0.119685
0.112194
0.103739
0.0949428
0.0840596
0.0744325
0.0584103
0.0513079
0.0207968
0.0310206
0.184202
0.181567
0.178924
0.176265
0.173123
0.169759
0.166214
0.162435
0.158409
0.154108
0.149491
0.144513
0.139135
0.133299
0.126978
0.120042
0.11257
0.104119
0.09536
0.0844556
0.0749152
0.058783
0.0518909
0.0209653
0.0315521
0.185709
0.182595
0.179754
0.177016
0.173738
0.170284
0.16668
0.162854
0.158796
0.154473
0.149842
0.144856
0.139477
0.133642
0.127329
0.120401
0.112947
0.104501
0.0957785
0.0848569
0.0753963
0.0591703
0.0524679
0.0211822
0.0320906
0.187346
0.183605
0.180554
0.177747
0.174329
0.170789
0.16713
0.16326
0.159173
0.154831
0.150188
0.145195
0.139815
0.133983
0.127679
0.12076
0.113324
0.104885
0.0961945
0.0852616
0.0758703
0.0595719
0.0530291
0.0214524
0.0326229
0.189123
0.184588
0.181315
0.178452
0.174896
0.171274
0.167564
0.163655
0.159541
0.155181
0.150527
0.145529
0.140149
0.134321
0.128027
0.121116
0.113698
0.105267
0.0966057
0.0856675
0.0763342
0.0599848
0.0535706
0.0217716
0.0331472
0.191044
0.185538
0.182034
0.17913
0.175437
0.171738
0.167983
0.164037
0.159898
0.155522
0.150858
0.145856
0.140477
0.134654
0.128369
0.121469
0.114067
0.105645
0.09701
0.0860722
0.076786
0.0604054
0.0540903
0.0221335
0.033663
0.193105
0.186454
0.182707
0.179779
0.175956
0.172183
0.168386
0.164407
0.160245
0.155854
0.151181
0.146176
0.140798
0.134981
0.128706
0.121816
0.11443
0.106019
0.0974059
0.0864736
0.0772243
0.0608302
0.0545868
0.0225314
0.0341702
0.19529
0.187339
0.183332
0.1804
0.176454
0.17261
0.168774
0.164764
0.160581
0.156176
0.151495
0.146487
0.141112
0.1353
0.129035
0.122157
0.114785
0.106387
0.0977919
0.0868696
0.0776478
0.0612557
0.0550596
0.0229573
0.0346686
0.19758
0.188199
0.18391
0.180992
0.176933
0.173019
0.169148
0.16511
0.160906
0.156488
0.151799
0.146789
0.141416
0.135612
0.129357
0.12249
0.115131
0.106746
0.0981666
0.0872578
0.0780553
0.0616777
0.055508
0.023403
0.0351578
0.199944
0.18904
0.184441
0.181555
0.177393
0.17341
0.169507
0.165443
0.16122
0.156789
0.152093
0.14708
0.141711
0.135913
0.129668
0.122813
0.115467
0.107094
0.0985281
0.0876354
0.0784452
0.0620919
0.0559311
0.0238596
0.0356361
0.202346
0.189868
0.18493
0.18209
0.177835
0.173785
0.169851
0.165763
0.161521
0.157078
0.152375
0.14736
0.141994
0.136204
0.129968
0.123125
0.11579
0.107431
0.0988748
0.088
0.078816
0.0624947
0.056328
0.0243198
0.0361014
0.204773
0.190692
0.185391
0.182602
0.178264
0.174145
0.170182
0.166071
0.161811
0.157356
0.152646
0.14763
0.142267
0.136484
0.130258
0.123426
0.116101
0.107756
0.0992076
0.088352
0.079169
0.0628854
0.0567003
0.0247793
0.0365552
0.207304
0.191538
0.185839
0.183098
0.178683
0.174494
0.170502
0.166369
0.162092
0.157625
0.152908
0.147891
0.142532
0.136756
0.130539
0.123718
0.116402
0.10807
0.0995276
0.088691
0.0795058
0.0632611
0.0570525
0.0252269
0.0370047
0.209992
0.192384
0.186248
0.18354
0.179062
0.174808
0.17079
0.166638
0.162345
0.157867
0.153144
0.148127
0.142771
0.137002
0.130792
0.12398
0.116672
0.10835
0.0998137
0.0889915
0.0798067
0.0635892
0.0573706
0.0256091
0.0374311
0.21227
0.193064
0.186518
0.183822
0.179313
0.175018
0.170982
0.166818
0.162514
0.15803
0.153303
0.148285
0.142931
0.137166
0.130961
0.124154
0.116851
0.108534
0.100002
0.0891851
0.0800074
0.0637938
0.0575921
0.0258304
0.0377386
)
;

boundaryField
{
    inlet
    {
        type            zeroGradient;
    }
    outlet
    {
        type            fixedValue;
        value           uniform 0;
    }
    upperWall
    {
        type            zeroGradient;
    }
    lowerWall
    {
        type            zeroGradient;
    }
    frontAndBack
    {
        type            empty;
    }
    procBoundary0to1
    {
        type            processor;
        value           nonuniform List<scalar> 
59
(
0.186351
0.186333
0.186319
0.186309
0.186301
0.186294
0.186287
0.186281
0.186275
0.186269
0.186264
0.186103
0.186103
0.186098
0.186093
0.186087
0.186082
0.186077
0.186071
0.186066
0.186061
0.186056
0.186051
0.186046
0.186041
0.186036
0.186031
0.186027
0.186022
0.186017
0.186011
0.186006
0.186001
0.185996
0.185991
0.185986
0.185981
0.185977
0.185972
0.185968
0.185964
0.185961
0.185958
0.185955
0.185953
0.185951
0.18595
0.185949
0.185949
0.185805
0.185805
0.185805
0.185805
0.185805
0.185804
0.185804
0.185803
0.185805
0.185808
)
;
    }
}


// ************************************************************************* //
