/*--------------------------------*- C++ -*----------------------------------*\
  =========                 |
  \\      /  F ield         | OpenFOAM: The Open Source CFD Toolbox
   \\    /   O peration     | Website:  https://openfoam.org
    \\  /    A nd           | Version:  6
     \\/     M anipulation  |
\*---------------------------------------------------------------------------*/
FoamFile
{
    version     2.0;
    format      ascii;
    class       surfaceScalarField;
    location    "0.05";
    object      phi;
}
// * * * * * * * * * * * * * * * * * * * * * * * * * * * * * * * * * * * * * //

dimensions      [0 3 -1 0 0 0 0];

internalField   nonuniform List<scalar> 
6048
(
4.45301e-07
6.5153e-10
4.44642e-07
6.58314e-10
4.43977e-07
6.6537e-10
4.43304e-07
6.72726e-10
4.42624e-07
6.80445e-10
4.41935e-07
6.88593e-10
4.41238e-07
6.97273e-10
4.40531e-07
7.06601e-10
4.39815e-07
7.16745e-10
4.39087e-07
7.27925e-10
4.38346e-07
7.40442e-10
4.37592e-07
7.54674e-10
4.3682e-07
7.71148e-10
4.3603e-07
7.90542e-10
4.35216e-07
8.13788e-10
4.34374e-07
8.42142e-10
4.33497e-07
8.77314e-10
4.32575e-07
9.21712e-10
4.31596e-07
9.78746e-10
4.30543e-07
1.05337e-09
4.2939e-07
1.15302e-09
4.28101e-07
1.28926e-09
4.26619e-07
1.4811e-09
4.24858e-07
1.76129e-09
4.22665e-07
2.1934e-09
4.19764e-07
2.9009e-09
4.15558e-07
4.20618e-09
4.08858e-07
6.69929e-09
3.95974e-07
1.28844e-08
2.37952e-08
3.72179e-07
4.72494e-07
1.33702e-09
4.71801e-07
1.35071e-09
4.71102e-07
1.36487e-09
4.70395e-07
1.37962e-09
4.6968e-07
1.39503e-09
4.68958e-07
1.41125e-09
4.68227e-07
1.42842e-09
4.67486e-07
1.44679e-09
4.66737e-07
1.46663e-09
4.65976e-07
1.48835e-09
4.65204e-07
1.51248e-09
4.64419e-07
1.53968e-09
4.63619e-07
1.57088e-09
4.62803e-07
1.60731e-09
4.61966e-07
1.65059e-09
4.61105e-07
1.70294e-09
4.60215e-07
1.76737e-09
4.59289e-07
1.84805e-09
4.58317e-07
1.95086e-09
4.57286e-07
2.08427e-09
4.56178e-07
2.26077e-09
4.54968e-07
2.49938e-09
4.53618e-07
2.83056e-09
4.52075e-07
3.30484e-09
4.50253e-07
4.01514e-09
4.48023e-07
5.1312e-09
4.45169e-07
7.05945e-09
4.41366e-07
1.05027e-08
4.36071e-07
1.81794e-08
3.27908e-08
4.27075e-07
4.81704e-07
2.03651e-09
4.80998e-07
2.05715e-09
4.80284e-07
2.07851e-09
4.79563e-07
2.1007e-09
4.78834e-07
2.12386e-09
4.78097e-07
2.14818e-09
4.77352e-07
2.17391e-09
4.76597e-07
2.20138e-09
4.75833e-07
2.231e-09
4.75058e-07
2.26335e-09
4.74271e-07
2.29918e-09
4.73471e-07
2.33948e-09
4.72657e-07
2.38558e-09
4.71825e-07
2.43922e-09
4.70973e-07
2.50276e-09
4.70096e-07
2.57936e-09
4.6919e-07
2.67335e-09
4.68248e-07
2.79067e-09
4.67259e-07
2.93967e-09
4.66211e-07
3.13227e-09
4.65086e-07
3.38593e-09
4.63858e-07
3.72692e-09
4.62492e-07
4.19642e-09
4.60936e-07
4.86138e-09
4.59112e-07
5.8392e-09
4.56906e-07
7.33735e-09
4.54167e-07
9.79799e-09
4.50689e-07
1.39804e-08
4.46724e-07
2.21445e-08
3.66631e-08
4.42852e-07
4.87005e-07
2.74526e-09
4.8629e-07
2.77289e-09
4.85567e-07
2.80143e-09
4.84836e-07
2.83105e-09
4.84098e-07
2.86193e-09
4.83352e-07
2.89433e-09
4.82597e-07
2.92857e-09
4.81834e-07
2.96507e-09
4.8106e-07
3.00441e-09
4.80276e-07
3.04731e-09
4.79481e-07
3.09476e-09
4.78672e-07
3.14805e-09
4.77849e-07
3.20888e-09
4.77009e-07
3.27956e-09
4.76148e-07
3.36309e-09
4.75264e-07
3.46359e-09
4.74351e-07
3.58662e-09
4.73402e-07
3.73983e-09
4.72407e-07
3.9339e-09
4.71356e-07
4.18399e-09
4.7023e-07
4.51208e-09
4.69006e-07
4.95089e-09
4.67651e-07
5.55079e-09
4.66121e-07
6.39184e-09
4.64351e-07
7.60876e-09
4.62258e-07
9.43095e-09
4.59753e-07
1.23021e-08
4.5678e-07
1.69539e-08
4.53769e-07
2.51555e-08
3.86723e-08
4.5176e-07
4.90668e-07
3.46134e-09
4.89945e-07
3.49593e-09
4.89215e-07
3.53162e-09
4.88478e-07
3.56861e-09
4.87732e-07
3.60715e-09
4.86979e-07
3.64753e-09
4.86218e-07
3.69018e-09
4.85447e-07
3.73561e-09
4.84667e-07
3.78451e-09
4.83876e-07
3.83779e-09
4.83075e-07
3.89664e-09
4.8226e-07
3.96264e-09
4.81431e-07
4.03788e-09
4.80585e-07
4.12513e-09
4.7972e-07
4.22808e-09
4.78832e-07
4.35169e-09
4.77916e-07
4.5027e-09
4.76966e-07
4.69032e-09
4.75972e-07
4.92733e-09
4.74924e-07
5.23179e-09
4.73807e-07
5.62959e-09
4.72599e-07
6.15883e-09
4.71273e-07
6.87704e-09
4.69791e-07
7.87358e-09
4.68107e-07
9.29316e-09
4.66165e-07
1.13724e-08
4.63934e-07
1.45333e-08
4.61453e-07
1.94353e-08
4.59174e-07
2.74339e-08
3.97527e-08
4.58094e-07
4.93416e-07
4.18377e-09
4.92686e-07
4.22529e-09
4.9195e-07
4.26806e-09
4.91206e-07
4.31235e-09
4.90455e-07
4.35843e-09
4.89696e-07
4.4067e-09
4.88928e-07
4.4576e-09
4.88152e-07
4.51177e-09
4.87367e-07
4.57003e-09
4.86571e-07
4.63343e-09
4.85764e-07
4.70337e-09
4.84945e-07
4.78169e-09
4.84112e-07
4.87083e-09
4.83263e-07
4.97402e-09
4.82396e-07
5.09553e-09
4.81507e-07
5.24115e-09
4.80591e-07
5.41862e-09
4.79642e-07
5.63858e-09
4.78654e-07
5.91563e-09
4.77616e-07
6.27027e-09
4.76514e-07
6.73164e-09
4.7533e-07
7.34194e-09
4.74044e-07
8.16384e-09
4.72625e-07
9.29221e-09
4.71043e-07
1.08753e-08
4.69269e-07
1.31459e-08
4.67312e-07
1.64907e-08
4.65267e-07
2.14805e-08
4.63561e-07
2.914e-08
4.02765e-08
4.63037e-07
4.95572e-07
4.91212e-09
4.94837e-07
4.96049e-09
4.94095e-07
5.01027e-09
4.93345e-07
5.06174e-09
4.92589e-07
5.11525e-09
4.91824e-07
5.17123e-09
4.91051e-07
5.23021e-09
4.9027e-07
5.29292e-09
4.8948e-07
5.36025e-09
4.8868e-07
5.43345e-09
4.87869e-07
5.51408e-09
4.87047e-07
5.60422e-09
4.86211e-07
5.70662e-09
4.8536e-07
5.82493e-09
4.84492e-07
5.96395e-09
4.83603e-07
6.13017e-09
4.82689e-07
6.33223e-09
4.81746e-07
6.58196e-09
4.80766e-07
6.89552e-09
4.79741e-07
7.29535e-09
4.78659e-07
7.81306e-09
4.77507e-07
8.4938e-09
4.76268e-07
9.40329e-09
4.74921e-07
1.06387e-08
4.7345e-07
1.23466e-08
4.71848e-07
1.47483e-08
4.7015e-07
1.81889e-08
4.68481e-07
2.31493e-08
4.67225e-07
3.03958e-08
4.04387e-08
4.67063e-07
4.97314e-07
5.64623e-09
4.96573e-07
5.70136e-09
4.95826e-07
5.75804e-09
4.95071e-07
5.81658e-09
4.94309e-07
5.87737e-09
4.93539e-07
5.94088e-09
4.92761e-07
6.00773e-09
4.91976e-07
6.0787e-09
4.91181e-07
6.15482e-09
4.90377e-07
6.23742e-09
4.89563e-07
6.32825e-09
4.88737e-07
6.42962e-09
4.879e-07
6.54454e-09
4.87048e-07
6.677e-09
4.86179e-07
6.83228e-09
4.85292e-07
7.01744e-09
4.84382e-07
7.24192e-09
4.83446e-07
7.51847e-09
4.82477e-07
7.86449e-09
4.81468e-07
8.3039e-09
4.80411e-07
8.87001e-09
4.79295e-07
9.60976e-09
4.78108e-07
1.05901e-08
4.76839e-07
1.19078e-08
4.75482e-07
1.3704e-08
4.74047e-07
1.61837e-08
4.72587e-07
1.9649e-08
4.71239e-07
2.44972e-08
4.70338e-07
3.12968e-08
4.0355e-08
4.70421e-07
4.98751e-07
6.38618e-09
4.98004e-07
6.44798e-09
4.97251e-07
6.51144e-09
4.96491e-07
6.5769e-09
4.95723e-07
6.64479e-09
4.94948e-07
6.71563e-09
4.94166e-07
6.7901e-09
4.93376e-07
6.86904e-09
4.92577e-07
6.95358e-09
4.91769e-07
7.04515e-09
4.90952e-07
7.14566e-09
4.90124e-07
7.25757e-09
4.89284e-07
7.38414e-09
4.88432e-07
7.52966e-09
4.87564e-07
7.69979e-09
4.86679e-07
7.90205e-09
4.85775e-07
8.14649e-09
4.84847e-07
8.44661e-09
4.83891e-07
8.82068e-09
4.82901e-07
9.29362e-09
4.81871e-07
9.89975e-09
4.80794e-07
1.06867e-08
4.79663e-07
1.17212e-08
4.78473e-07
1.30974e-08
4.77229e-07
1.49484e-08
4.75952e-07
1.74606e-08
4.74707e-07
2.08943e-08
4.73631e-07
2.55734e-08
4.7301e-07
3.1917e-08
4.00976e-08
4.73268e-07
4.99955e-07
7.13218e-09
4.99203e-07
7.20054e-09
4.98443e-07
7.27064e-09
4.97677e-07
7.34286e-09
4.96905e-07
7.41767e-09
4.96125e-07
7.49562e-09
4.95337e-07
7.57743e-09
4.94542e-07
7.66403e-09
4.93739e-07
7.75658e-09
4.92928e-07
7.85664e-09
4.92107e-07
7.96622e-09
4.91277e-07
8.08793e-09
4.90436e-07
8.22521e-09
4.89583e-07
8.38259e-09
4.88717e-07
8.56601e-09
4.87835e-07
8.78337e-09
4.86937e-07
9.04513e-09
4.86018e-07
9.36533e-09
4.85076e-07
9.76277e-09
4.84107e-07
1.02629e-08
4.83106e-07
1.09005e-08
4.8207e-07
1.17228e-08
4.80996e-07
1.27953e-08
4.79885e-07
1.42076e-08
4.7875e-07
1.60835e-08
4.77621e-07
1.85898e-08
4.76567e-07
2.19483e-08
4.7572e-07
2.64204e-08
4.75323e-07
3.23138e-08
3.97135e-08
4.75707e-07
5.00978e-07
5.00219e-07
7.95935e-09
4.99454e-07
8.03594e-09
4.98682e-07
8.11475e-09
4.97904e-07
8.19627e-09
4.97118e-07
8.28108e-09
4.96326e-07
8.36995e-09
4.95526e-07
8.46384e-09
4.94718e-07
8.56399e-09
4.93903e-07
8.67202e-09
4.93079e-07
8.79002e-09
4.92247e-07
8.92073e-09
4.91404e-07
9.06771e-09
4.90551e-07
9.23565e-09
4.89686e-07
9.43072e-09
4.88809e-07
9.66103e-09
4.87916e-07
9.93735e-09
4.87008e-07
1.0274e-08
4.86081e-07
1.069e-08
4.85133e-07
1.12109e-08
4.84162e-07
1.18713e-08
4.83167e-07
1.27175e-08
4.8215e-07
1.38123e-08
4.81117e-07
1.52404e-08
4.80086e-07
1.71149e-08
4.79092e-07
1.95834e-08
4.78207e-07
2.28334e-08
4.77553e-07
2.70743e-08
4.77336e-07
3.25312e-08
3.9234e-08
4.77815e-07
5.01092e-07
8.72479e-09
5.00321e-07
8.80771e-09
4.99543e-07
8.89292e-09
4.98758e-07
8.98092e-09
4.97967e-07
9.07233e-09
4.97169e-07
9.16795e-09
4.96364e-07
9.26876e-09
4.95552e-07
9.37607e-09
4.94732e-07
9.49151e-09
4.93905e-07
9.61725e-09
4.9307e-07
9.7561e-09
4.92226e-07
9.91171e-09
4.91372e-07
1.00889e-08
4.90509e-07
1.02939e-08
4.89635e-07
1.05349e-08
4.8875e-07
1.08229e-08
4.87851e-07
1.11722e-08
4.8694e-07
1.16019e-08
4.86013e-07
1.21372e-08
4.85073e-07
1.28119e-08
4.84119e-07
1.36709e-08
4.83158e-07
1.47737e-08
4.82199e-07
1.6199e-08
4.81265e-07
1.80492e-08
4.80395e-07
2.04537e-08
4.79658e-07
2.35702e-08
4.79167e-07
2.75653e-08
4.79095e-07
3.26033e-08
3.86809e-08
4.79648e-07
5.01849e-07
9.49725e-09
5.01071e-07
9.58634e-09
5.00286e-07
9.67773e-09
4.99495e-07
9.77199e-09
4.98697e-07
9.86973e-09
4.97894e-07
9.97177e-09
4.97083e-07
1.00791e-08
4.96266e-07
1.01931e-08
4.95442e-07
1.03154e-08
4.94611e-07
1.04482e-08
4.93773e-07
1.05943e-08
4.92928e-07
1.07574e-08
4.92074e-07
1.09424e-08
4.91212e-07
1.11555e-08
4.90342e-07
1.1405e-08
4.89463e-07
1.17018e-08
4.88576e-07
1.206e-08
4.87679e-07
1.24985e-08
4.86774e-07
1.30419e-08
4.85863e-07
1.37228e-08
4.8495e-07
1.4584e-08
4.84042e-07
1.56814e-08
4.83154e-07
1.70873e-08
4.8231e-07
1.88937e-08
4.8155e-07
2.12131e-08
4.80943e-07
2.41772e-08
4.8059e-07
2.79186e-08
4.80636e-07
3.2557e-08
3.80696e-08
4.81247e-07
5.02511e-07
1.02771e-08
5.01725e-07
1.03722e-08
5.00934e-07
1.04696e-08
5.00136e-07
1.05698e-08
4.99332e-07
1.06736e-08
4.98522e-07
1.07818e-08
4.97706e-07
1.08953e-08
4.96883e-07
1.10154e-08
4.96055e-07
1.1144e-08
4.9522e-07
1.1283e-08
4.94379e-07
1.14355e-08
4.93531e-07
1.16051e-08
4.92677e-07
1.17964e-08
4.91817e-07
1.20159e-08
4.9095e-07
1.22717e-08
4.90078e-07
1.25743e-08
4.892e-07
1.29377e-08
4.88318e-07
1.33802e-08
4.87434e-07
1.39256e-08
4.86552e-07
1.4605e-08
4.85678e-07
1.54586e-08
4.84821e-07
1.65384e-08
4.83998e-07
1.79102e-08
4.83236e-07
1.9656e-08
4.82576e-07
2.18731e-08
4.82082e-07
2.46712e-08
4.81845e-07
2.81555e-08
4.81989e-07
3.24131e-08
3.74114e-08
4.82647e-07
5.03094e-07
1.10647e-08
5.023e-07
1.11656e-08
5.01501e-07
1.12687e-08
5.00696e-07
1.13748e-08
4.99886e-07
1.14843e-08
4.99069e-07
1.15982e-08
4.98247e-07
1.17174e-08
4.97419e-07
1.18433e-08
4.96586e-07
1.19775e-08
4.95746e-07
1.21222e-08
4.94902e-07
1.22801e-08
4.94052e-07
1.24549e-08
4.93197e-07
1.26513e-08
4.92338e-07
1.28754e-08
4.91474e-07
1.31351e-08
4.90608e-07
1.34407e-08
4.8974e-07
1.38057e-08
4.88872e-07
1.42477e-08
4.88009e-07
1.47892e-08
4.87154e-07
1.54596e-08
4.86316e-07
1.62966e-08
4.85507e-07
1.73478e-08
4.84744e-07
1.86727e-08
4.84056e-07
2.03438e-08
4.83485e-07
2.24448e-08
4.83089e-07
2.5067e-08
4.82951e-07
2.82937e-08
4.83175e-07
3.21886e-08
3.67146e-08
4.83872e-07
5.13079e-07
1.21622e-08
5.11974e-07
1.2271e-08
5.10861e-07
1.23821e-08
5.09739e-07
1.2496e-08
5.0861e-07
1.26134e-08
5.07473e-07
1.27351e-08
5.06329e-07
1.28621e-08
5.05177e-07
1.29956e-08
5.04017e-07
1.31373e-08
5.0285e-07
1.32893e-08
5.01676e-07
1.34543e-08
5.00495e-07
1.36358e-08
4.99308e-07
1.38383e-08
4.98115e-07
1.40677e-08
4.96919e-07
1.43317e-08
4.95719e-07
1.46401e-08
4.94519e-07
1.50059e-08
4.93321e-07
1.54455e-08
4.9213e-07
1.59803e-08
4.90952e-07
1.66376e-08
4.89797e-07
1.74523e-08
4.88677e-07
1.84677e-08
4.87612e-07
1.97372e-08
4.86632e-07
2.13244e-08
4.85775e-07
2.33012e-08
4.85099e-07
2.57436e-08
4.84675e-07
2.87176e-08
4.84593e-07
3.22703e-08
3.6364e-08
4.84944e-07
4.97103e-07
1.27441e-08
4.96518e-07
1.28566e-08
4.95929e-07
1.29713e-08
4.95336e-07
1.30887e-08
4.9474e-07
1.32096e-08
4.9414e-07
1.33346e-08
4.93537e-07
1.34648e-08
4.92932e-07
1.36013e-08
4.92323e-07
1.37457e-08
4.91713e-07
1.39e-08
4.911e-07
1.40669e-08
4.90486e-07
1.42496e-08
4.89872e-07
1.44525e-08
4.89259e-07
1.46812e-08
4.88647e-07
1.4943e-08
4.8804e-07
1.52471e-08
4.87441e-07
1.56057e-08
4.86852e-07
1.60343e-08
4.86279e-07
1.65527e-08
4.85731e-07
1.71862e-08
4.85216e-07
1.79664e-08
4.84751e-07
1.89327e-08
4.84356e-07
2.01323e-08
4.8406e-07
2.16209e-08
4.83901e-07
2.34598e-08
4.83933e-07
2.57119e-08
4.84221e-07
2.84297e-08
4.84843e-07
3.16477e-08
3.53299e-08
4.85878e-07
4.82741e-07
1.28628e-08
4.82622e-07
1.29753e-08
4.82504e-07
1.30898e-08
4.82385e-07
1.3207e-08
4.82268e-07
1.33274e-08
4.82151e-07
1.34517e-08
4.82034e-07
1.35809e-08
4.81919e-07
1.37162e-08
4.81806e-07
1.3859e-08
4.81695e-07
1.40112e-08
4.81586e-07
1.41753e-08
4.81481e-07
1.43544e-08
4.81381e-07
1.45526e-08
4.81287e-07
1.47752e-08
4.81201e-07
1.50288e-08
4.81126e-07
1.53223e-08
4.81065e-07
1.56667e-08
4.81023e-07
1.60765e-08
4.81006e-07
1.65699e-08
4.81022e-07
1.71697e-08
4.81084e-07
1.79048e-08
4.81207e-07
1.88099e-08
4.81412e-07
1.9927e-08
4.81729e-07
2.13041e-08
4.82195e-07
2.29933e-08
4.82861e-07
2.50464e-08
4.83785e-07
2.75051e-08
4.85038e-07
3.03947e-08
3.36815e-08
4.86687e-07
4.69832e-07
1.25657e-08
4.70133e-07
1.26747e-08
4.70437e-07
1.27857e-08
4.70745e-07
1.28992e-08
4.71057e-07
1.30156e-08
4.71372e-07
1.31358e-08
4.71693e-07
1.32605e-08
4.72018e-07
1.33908e-08
4.72349e-07
1.35282e-08
4.72686e-07
1.36743e-08
4.7303e-07
1.38315e-08
4.73382e-07
1.40027e-08
4.73743e-07
1.41916e-08
4.74115e-07
1.44031e-08
4.745e-07
1.46433e-08
4.74902e-07
1.49203e-08
4.75324e-07
1.52444e-08
4.75773e-07
1.56284e-08
4.76254e-07
1.60889e-08
4.76777e-07
1.66465e-08
4.77355e-07
1.73267e-08
4.78005e-07
1.81603e-08
4.78748e-07
1.91838e-08
4.79614e-07
2.04383e-08
4.80639e-07
2.19677e-08
4.81871e-07
2.38145e-08
4.83365e-07
2.60116e-08
4.85182e-07
2.85775e-08
3.14816e-08
4.87382e-07
4.58233e-07
1.18951e-08
4.5891e-07
1.19979e-08
4.59593e-07
1.21024e-08
4.60283e-07
1.22091e-08
4.6098e-07
1.23185e-08
4.61685e-07
1.24313e-08
4.62397e-07
1.25482e-08
4.63117e-07
1.26703e-08
4.63847e-07
1.27989e-08
4.64586e-07
1.29354e-08
4.65335e-07
1.30821e-08
4.66096e-07
1.32415e-08
4.66871e-07
1.3417e-08
4.67661e-07
1.36131e-08
4.68469e-07
1.38353e-08
4.69298e-07
1.40908e-08
4.70154e-07
1.43887e-08
4.71042e-07
1.47407e-08
4.71969e-07
1.51615e-08
4.72946e-07
1.56691e-08
4.73987e-07
1.6286e-08
4.75108e-07
1.7039e-08
4.76333e-07
1.79591e-08
4.7769e-07
1.90815e-08
4.79215e-07
2.04425e-08
4.80953e-07
2.20768e-08
4.82954e-07
2.40101e-08
4.85276e-07
2.62557e-08
2.87869e-08
4.87971e-07
4.47809e-07
1.08895e-08
4.48824e-07
1.09833e-08
4.49847e-07
1.10786e-08
4.50881e-07
1.11758e-08
4.51924e-07
1.12755e-08
4.52977e-07
1.13782e-08
4.5404e-07
1.14846e-08
4.55115e-07
1.15955e-08
4.56202e-07
1.17122e-08
4.57301e-07
1.18361e-08
4.58414e-07
1.1969e-08
4.59543e-07
1.21132e-08
4.60688e-07
1.22718e-08
4.61852e-07
1.24486e-08
4.63039e-07
1.26485e-08
4.64252e-07
1.2878e-08
4.65496e-07
1.31449e-08
4.66777e-07
1.34594e-08
4.68104e-07
1.38344e-08
4.69488e-07
1.42853e-08
4.70942e-07
1.48315e-08
4.72486e-07
1.54958e-08
4.7414e-07
1.63043e-08
4.75936e-07
1.72863e-08
4.77907e-07
1.84716e-08
4.80095e-07
1.98881e-08
4.8255e-07
2.15555e-08
4.85322e-07
2.34834e-08
2.56488e-08
4.8846e-07
4.38441e-07
9.58301e-09
4.39759e-07
9.66557e-09
4.41088e-07
9.74939e-09
4.42429e-07
9.83483e-09
4.43782e-07
9.92234e-09
4.45148e-07
1.00124e-08
4.46527e-07
1.01057e-08
4.47919e-07
1.02029e-08
4.49326e-07
1.03052e-08
4.50749e-07
1.04136e-08
4.52188e-07
1.05298e-08
4.53645e-07
1.06559e-08
4.55123e-07
1.07943e-08
4.56623e-07
1.09485e-08
4.58149e-07
1.11226e-08
4.59705e-07
1.1322e-08
4.61296e-07
1.15536e-08
4.6293e-07
1.18259e-08
4.64615e-07
1.21497e-08
4.66362e-07
1.25381e-08
4.68186e-07
1.30073e-08
4.70106e-07
1.35759e-08
4.72144e-07
1.42658e-08
4.7433e-07
1.51004e-08
4.76698e-07
1.61037e-08
4.79289e-07
1.72977e-08
4.82147e-07
1.86973e-08
4.85321e-07
2.03092e-08
2.21142e-08
4.88856e-07
4.3002e-07
8.0067e-09
4.3161e-07
8.07597e-09
4.33213e-07
8.1462e-09
4.3483e-07
8.21772e-09
4.36461e-07
8.29092e-09
4.38108e-07
8.36623e-09
4.39769e-07
8.44419e-09
4.41447e-07
8.52546e-09
4.43141e-07
8.61087e-09
4.44853e-07
8.70145e-09
4.46584e-07
8.79851e-09
4.48337e-07
8.90374e-09
4.50112e-07
9.01928e-09
4.51912e-07
9.14785e-09
4.53742e-07
9.29292e-09
4.55605e-07
9.45891e-09
4.57507e-07
9.65139e-09
4.59456e-07
9.87735e-09
4.6146e-07
1.01455e-08
4.63532e-07
1.04664e-08
4.65686e-07
1.0853e-08
4.67941e-07
1.13203e-08
4.70322e-07
1.18854e-08
4.72855e-07
1.25667e-08
4.75576e-07
1.33829e-08
4.78523e-07
1.43505e-08
4.8174e-07
1.54805e-08
4.85272e-07
1.67772e-08
1.82253e-08
4.89161e-07
4.22448e-07
6.1883e-09
4.24281e-07
6.24245e-09
4.2613e-07
6.29725e-09
4.27995e-07
6.353e-09
4.29876e-07
6.40999e-09
4.31774e-07
6.46862e-09
4.33688e-07
6.52931e-09
4.35621e-07
6.59259e-09
4.37573e-07
6.65912e-09
4.39545e-07
6.72973e-09
4.41538e-07
6.80544e-09
4.43554e-07
6.88757e-09
4.45595e-07
6.9778e-09
4.47665e-07
7.07822e-09
4.49766e-07
7.19155e-09
4.51904e-07
7.32116e-09
4.54084e-07
7.47135e-09
4.56314e-07
7.64746e-09
4.58603e-07
7.85611e-09
4.60965e-07
8.10537e-09
4.63413e-07
8.4049e-09
4.65967e-07
8.76599e-09
4.68651e-07
9.20134e-09
4.71493e-07
9.72457e-09
4.74527e-07
1.03491e-08
4.77791e-07
1.10869e-08
4.81326e-07
1.19455e-08
4.85176e-07
1.29272e-08
1.40207e-08
4.8938e-07
4.15635e-07
4.15277e-09
4.17688e-07
4.19019e-09
4.19757e-07
4.22793e-09
4.21844e-07
4.26624e-09
4.23948e-07
4.30537e-09
4.26071e-07
4.34561e-09
4.28213e-07
4.3873e-09
4.30375e-07
4.43083e-09
4.32558e-07
4.47669e-09
4.34762e-07
4.52547e-09
4.36989e-07
4.57792e-09
4.39242e-07
4.63497e-09
4.41522e-07
4.69781e-09
4.43832e-07
4.76792e-09
4.46177e-07
4.84718e-09
4.4856e-07
4.93795e-09
4.50988e-07
5.04318e-09
4.53469e-07
5.16655e-09
4.56012e-07
5.31257e-09
4.58631e-07
5.48673e-09
4.6134e-07
5.69553e-09
4.6416e-07
5.94653e-09
4.67113e-07
6.24815e-09
4.70228e-07
6.60932e-09
4.73539e-07
7.03873e-09
4.77082e-07
7.54385e-09
4.80898e-07
8.12917e-09
4.8503e-07
8.79559e-09
9.53521e-09
4.89515e-07
4.09503e-07
1.92258e-09
4.11752e-07
1.94182e-09
4.14018e-07
1.96105e-09
4.16304e-07
1.98045e-09
4.18609e-07
2.00023e-09
4.20934e-07
2.02059e-09
4.2328e-07
2.04175e-09
4.25647e-07
2.06399e-09
4.28036e-07
2.0876e-09
4.30448e-07
2.11295e-09
4.32886e-07
2.14049e-09
4.3535e-07
2.17076e-09
4.37843e-07
2.20445e-09
4.40369e-07
2.24241e-09
4.4293e-07
2.28567e-09
4.45533e-07
2.33555e-09
4.48182e-07
2.39365e-09
4.50887e-07
2.46196e-09
4.53657e-07
2.54287e-09
4.56504e-07
2.63926e-09
4.59445e-07
2.75449e-09
4.62499e-07
2.8924e-09
4.6569e-07
3.05722e-09
4.69046e-07
3.25328e-09
4.726e-07
3.48469e-09
4.76389e-07
3.75475e-09
4.80453e-07
4.0651e-09
4.84834e-07
4.41522e-09
4.80083e-09
4.89568e-07
4.03979e-07
-4.82104e-10
4.06403e-07
-4.82322e-10
4.08847e-07
-4.82898e-10
4.11311e-07
-4.83693e-10
4.13796e-07
-4.84577e-10
4.16302e-07
-4.85427e-10
4.1883e-07
-4.8612e-10
4.21381e-07
-4.86535e-10
4.23955e-07
-4.86546e-10
4.26554e-07
-4.86019e-10
4.29179e-07
-4.8481e-10
4.31833e-07
-4.82761e-10
4.34517e-07
-4.79697e-10
4.37235e-07
-4.75423e-10
4.3999e-07
-4.69722e-10
4.42788e-07
-4.62359e-10
4.45635e-07
-4.53076e-10
4.48538e-07
-4.41605e-10
4.51509e-07
-4.2767e-10
4.54559e-07
-4.11013e-10
4.57705e-07
-3.91409e-10
4.60966e-07
-3.68713e-10
4.64366e-07
-3.42902e-10
4.67934e-07
-3.14142e-10
4.71701e-07
-2.82861e-10
4.75706e-07
-2.49822e-10
4.79987e-07
-2.16176e-10
4.84586e-07
-1.83806e-10
-1.53477e-10
4.8954e-07
4.69707e-07
-3.84576e-09
4.73098e-07
-3.87285e-09
4.76516e-07
-3.90074e-09
4.79961e-07
-3.92934e-09
4.83435e-07
-3.95861e-09
4.86938e-07
-3.98852e-09
4.90471e-07
-4.01908e-09
4.94035e-07
-4.05034e-09
4.97631e-07
-4.08237e-09
5.0126e-07
-4.11533e-09
5.04925e-07
-4.14944e-09
5.08627e-07
-4.185e-09
5.1237e-07
-4.22244e-09
5.16157e-07
-4.26236e-09
5.19993e-07
-4.30552e-09
5.23883e-07
-4.35299e-09
5.27836e-07
-4.40613e-09
5.31861e-07
-4.46671e-09
5.35971e-07
-4.53704e-09
5.4018e-07
-4.62e-09
5.44508e-07
-4.71915e-09
5.48978e-07
-4.83883e-09
5.53619e-07
-4.98409e-09
5.58465e-07
-5.16058e-09
5.63557e-07
-5.37426e-09
5.68938e-07
-5.63093e-09
5.74657e-07
-5.93525e-09
5.80764e-07
-6.29085e-09
-6.69476e-09
5.87305e-07
4.72649e-07
-7.10963e-09
4.75939e-07
-7.16282e-09
4.79256e-07
-7.21724e-09
4.82599e-07
-7.27286e-09
4.8597e-07
-7.32971e-09
4.8937e-07
-7.38787e-09
4.92798e-07
-7.44746e-09
4.96256e-07
-7.5087e-09
4.99746e-07
-7.57188e-09
5.03268e-07
-7.63743e-09
5.06824e-07
-7.70593e-09
5.10418e-07
-7.77814e-09
5.1405e-07
-7.85509e-09
5.17726e-07
-7.93813e-09
5.2145e-07
-8.02903e-09
5.25227e-07
-8.13011e-09
5.29065e-07
-8.24433e-09
5.32974e-07
-8.37552e-09
5.36965e-07
-8.52849e-09
5.41054e-07
-8.70927e-09
5.4526e-07
-8.9252e-09
5.49607e-07
-9.18508e-09
5.54122e-07
-9.49908e-09
5.5884e-07
-9.87843e-09
5.638e-07
-1.03348e-08
5.69048e-07
-1.08791e-08
5.74633e-07
-1.15198e-08
5.80604e-07
-1.22625e-08
-1.31003e-08
5.8701e-07
4.75756e-07
-1.02668e-08
4.78939e-07
-1.03453e-08
4.82147e-07
-1.04254e-08
4.85381e-07
-1.05072e-08
4.88642e-07
-1.05907e-08
4.9193e-07
-1.06763e-08
4.95247e-07
-1.0764e-08
4.98593e-07
-1.08542e-08
5.01968e-07
-1.09476e-08
5.05376e-07
-1.10447e-08
5.08816e-07
-1.11465e-08
5.12292e-07
-1.12543e-08
5.15807e-07
-1.13695e-08
5.19363e-07
-1.14943e-08
5.22965e-07
-1.16314e-08
5.2662e-07
-1.17845e-08
5.30333e-07
-1.19579e-08
5.34115e-07
-1.21575e-08
5.37977e-07
-1.23907e-08
5.41935e-07
-1.26666e-08
5.46006e-07
-1.29962e-08
5.50213e-07
-1.33929e-08
5.54586e-07
-1.3872e-08
5.59159e-07
-1.44506e-08
5.6397e-07
-1.51463e-08
5.69067e-07
-1.59756e-08
5.74498e-07
-1.69513e-08
5.80317e-07
-1.80815e-08
-1.93551e-08
5.86572e-07
4.7904e-07
-1.33098e-08
4.82107e-07
-1.34127e-08
4.852e-07
-1.35176e-08
4.88317e-07
-1.36247e-08
4.9146e-07
-1.37341e-08
4.9463e-07
-1.3846e-08
4.97827e-07
-1.39608e-08
5.01052e-07
-1.40791e-08
5.04306e-07
-1.42016e-08
5.0759e-07
-1.43291e-08
5.10907e-07
-1.4463e-08
5.14257e-07
-1.46049e-08
5.17645e-07
-1.47569e-08
5.21072e-07
-1.49218e-08
5.24544e-07
-1.51034e-08
5.28066e-07
-1.53062e-08
5.31644e-07
-1.55364e-08
5.35289e-07
-1.58017e-08
5.3901e-07
-1.61119e-08
5.42822e-07
-1.64791e-08
5.46744e-07
-1.69181e-08
5.50798e-07
-1.7447e-08
5.55013e-07
-1.80863e-08
5.59421e-07
-1.88592e-08
5.64065e-07
-1.97898e-08
5.6899e-07
-2.09011e-08
5.74249e-07
-2.22106e-08
5.79898e-07
-2.37298e-08
-2.54435e-08
5.85986e-07
4.82512e-07
-1.62308e-08
4.85456e-07
-1.63572e-08
4.88425e-07
-1.6486e-08
4.91417e-07
-1.66174e-08
4.94435e-07
-1.67515e-08
4.97478e-07
-1.68888e-08
5.00547e-07
-1.70297e-08
5.03642e-07
-1.71748e-08
5.06766e-07
-1.73251e-08
5.09919e-07
-1.74818e-08
5.13102e-07
-1.76464e-08
5.16318e-07
-1.78209e-08
5.19569e-07
-1.80079e-08
5.22858e-07
-1.82111e-08
5.2619e-07
-1.84348e-08
5.29568e-07
-1.86849e-08
5.33001e-07
-1.89689e-08
5.36496e-07
-1.92964e-08
5.40063e-07
-1.96795e-08
5.43717e-07
-2.01332e-08
5.47476e-07
-2.06764e-08
5.5136e-07
-2.13314e-08
5.55398e-07
-2.21245e-08
5.59624e-07
-2.30855e-08
5.6408e-07
-2.42454e-08
5.68813e-07
-2.56346e-08
5.7388e-07
-2.72768e-08
5.79338e-07
-2.91881e-08
-3.13487e-08
5.85243e-07
4.86185e-07
-1.90212e-08
4.88998e-07
-1.91701e-08
4.91834e-07
-1.93218e-08
4.94693e-07
-1.94764e-08
4.97575e-07
-1.96342e-08
5.00482e-07
-1.97957e-08
5.03414e-07
-1.99614e-08
5.06371e-07
-2.01322e-08
5.09355e-07
-2.03091e-08
5.12367e-07
-2.04934e-08
5.15408e-07
-2.06871e-08
5.18479e-07
-2.08924e-08
5.21584e-07
-2.11126e-08
5.24724e-07
-2.13517e-08
5.27905e-07
-2.1615e-08
5.31129e-07
-2.19094e-08
5.34404e-07
-2.22436e-08
5.37737e-07
-2.26291e-08
5.41137e-07
-2.30801e-08
5.44619e-07
-2.36148e-08
5.48198e-07
-2.42554e-08
5.51896e-07
-2.50292e-08
5.55739e-07
-2.59682e-08
5.59763e-07
-2.71092e-08
5.64009e-07
-2.84914e-08
5.68528e-07
-3.01537e-08
5.73379e-07
-3.21275e-08
5.78626e-07
-3.44355e-08
-3.70527e-08
5.8433e-07
4.90071e-07
-2.16718e-08
4.92743e-07
-2.18421e-08
4.95437e-07
-2.20155e-08
4.98153e-07
-2.21922e-08
5.00891e-07
-2.23726e-08
5.03652e-07
-2.25571e-08
5.06437e-07
-2.27464e-08
5.09246e-07
-2.29414e-08
5.12081e-07
-2.31433e-08
5.14941e-07
-2.33537e-08
5.17828e-07
-2.35747e-08
5.20745e-07
-2.38089e-08
5.23692e-07
-2.406e-08
5.26673e-07
-2.43325e-08
5.2969e-07
-2.46324e-08
5.32749e-07
-2.49675e-08
5.35853e-07
-2.53479e-08
5.3901e-07
-2.57865e-08
5.4223e-07
-2.62997e-08
5.45524e-07
-2.69085e-08
5.48907e-07
-2.76387e-08
5.524e-07
-2.85224e-08
5.5603e-07
-2.95978e-08
5.5983e-07
-3.09091e-08
5.63843e-07
-3.25047e-08
5.68123e-07
-3.44341e-08
5.72734e-07
-3.67381e-08
5.77747e-07
-3.94487e-08
-4.25358e-08
5.8323e-07
4.94182e-07
-2.41726e-08
4.96703e-07
-2.43632e-08
4.99245e-07
-2.45572e-08
5.01807e-07
-2.47547e-08
5.04391e-07
-2.49563e-08
5.06996e-07
-2.51624e-08
5.09623e-07
-2.53738e-08
5.12273e-07
-2.55915e-08
5.14947e-07
-2.58168e-08
5.17645e-07
-2.60515e-08
5.20368e-07
-2.62978e-08
5.23118e-07
-2.65587e-08
5.25896e-07
-2.68382e-08
5.28705e-07
-2.71412e-08
5.31547e-07
-2.74744e-08
5.34425e-07
-2.78464e-08
5.37346e-07
-2.82683e-08
5.40314e-07
-2.87544e-08
5.43337e-07
-2.93232e-08
5.46427e-07
-2.99982e-08
5.49597e-07
-3.08089e-08
5.52867e-07
-3.1792e-08
5.56261e-07
-3.29922e-08
5.59814e-07
-3.4462e-08
5.63569e-07
-3.62602e-08
5.67584e-07
-3.84488e-08
5.71927e-07
-4.10809e-08
5.7668e-07
-4.42021e-08
-4.77765e-08
5.81921e-07
4.98529e-07
-2.65128e-08
5.00888e-07
-2.67224e-08
5.03267e-07
-2.69355e-08
5.05665e-07
-2.71525e-08
5.08082e-07
-2.73738e-08
5.1052e-07
-2.76e-08
5.12978e-07
-2.7832e-08
5.15457e-07
-2.80707e-08
5.17958e-07
-2.83176e-08
5.20481e-07
-2.85746e-08
5.23027e-07
-2.8844e-08
5.25598e-07
-2.91292e-08
5.28194e-07
-2.94342e-08
5.30817e-07
-2.97646e-08
5.3347e-07
-3.01274e-08
5.36156e-07
-3.05318e-08
5.38878e-07
-3.099e-08
5.41641e-07
-3.15175e-08
5.44452e-07
-3.21344e-08
5.4732e-07
-3.28667e-08
5.50259e-07
-3.37473e-08
5.53285e-07
-3.48178e-08
5.56422e-07
-3.61292e-08
5.59703e-07
-3.77432e-08
5.63173e-07
-3.97304e-08
5.66892e-07
-4.21682e-08
5.70937e-07
-4.51252e-08
5.75401e-07
-4.86665e-08
-5.27504e-08
5.80375e-07
5.03123e-07
-2.86806e-08
5.05309e-07
-2.89077e-08
5.07511e-07
-2.91385e-08
5.09732e-07
-2.93734e-08
5.11971e-07
-2.96129e-08
5.14229e-07
-2.98576e-08
5.16505e-07
-3.01082e-08
5.18801e-07
-3.03661e-08
5.21116e-07
-3.06326e-08
5.23451e-07
-3.09096e-08
5.25807e-07
-3.11999e-08
5.28184e-07
-3.15066e-08
5.30584e-07
-3.18342e-08
5.33008e-07
-3.21884e-08
5.35457e-07
-3.25766e-08
5.37934e-07
-3.30087e-08
5.40441e-07
-3.34974e-08
5.42983e-07
-3.40593e-08
5.45565e-07
-3.47161e-08
5.48194e-07
-3.54957e-08
5.50881e-07
-3.64343e-08
5.53641e-07
-3.7578e-08
5.56496e-07
-3.89847e-08
5.59479e-07
-4.07259e-08
5.62634e-07
-4.28852e-08
5.66025e-07
-4.55592e-08
5.69736e-07
-4.88359e-08
5.73878e-07
-5.28088e-08
-5.74301e-08
5.78558e-07
5.07972e-07
-3.06629e-08
5.09971e-07
-3.0906e-08
5.11985e-07
-3.11529e-08
5.14016e-07
-3.1404e-08
5.16063e-07
-3.16599e-08
5.18126e-07
-3.19211e-08
5.20207e-07
-3.21886e-08
5.22304e-07
-3.24635e-08
5.24419e-07
-3.27473e-08
5.26551e-07
-3.30421e-08
5.28702e-07
-3.33504e-08
5.30871e-07
-3.36758e-08
5.3306e-07
-3.40226e-08
5.35268e-07
-3.43968e-08
5.37497e-07
-3.48061e-08
5.39749e-07
-3.52606e-08
5.42025e-07
-3.57736e-08
5.44328e-07
-3.63624e-08
5.46662e-07
-3.70498e-08
5.49032e-07
-3.78657e-08
5.51447e-07
-3.88489e-08
5.53919e-07
-4.005e-08
5.56467e-07
-4.15334e-08
5.59123e-07
-4.33813e-08
5.6193e-07
-4.5692e-08
5.64955e-07
-4.85851e-08
5.68292e-07
-5.21728e-08
5.72074e-07
-5.65906e-08
-6.17835e-08
5.76428e-07
4.98739e-07
-3.29051e-08
5.00999e-07
-3.31657e-08
5.03277e-07
-3.34303e-08
5.05572e-07
-3.36993e-08
5.07885e-07
-3.3973e-08
5.10216e-07
-3.42523e-08
5.12565e-07
-3.4538e-08
5.14933e-07
-3.48312e-08
5.17319e-07
-3.51335e-08
5.19724e-07
-3.5447e-08
5.22148e-07
-3.57742e-08
5.24591e-07
-3.61186e-08
5.27053e-07
-3.64847e-08
5.29535e-07
-3.68786e-08
5.32037e-07
-3.73079e-08
5.34559e-07
-3.77829e-08
5.37103e-07
-3.83173e-08
5.39669e-07
-3.89287e-08
5.4226e-07
-3.96408e-08
5.44879e-07
-4.04847e-08
5.47532e-07
-4.15017e-08
5.50228e-07
-4.2746e-08
5.52983e-07
-4.42888e-08
5.55825e-07
-4.62229e-08
5.58796e-07
-4.8663e-08
5.61967e-07
-5.17567e-08
5.6544e-07
-5.5646e-08
5.69378e-07
-6.05282e-08
-6.63399e-08
5.73935e-07
5.14211e-07
-3.46092e-08
5.15928e-07
-3.4883e-08
5.17659e-07
-3.51609e-08
5.19403e-07
-3.54431e-08
5.2116e-07
-3.57302e-08
5.2293e-07
-3.60228e-08
5.24714e-07
-3.63218e-08
5.26511e-07
-3.66283e-08
5.28322e-07
-3.69439e-08
5.30145e-07
-3.72706e-08
5.31982e-07
-3.76109e-08
5.33832e-07
-3.79684e-08
5.35694e-07
-3.83473e-08
5.37569e-07
-3.87538e-08
5.39457e-07
-3.91954e-08
5.41356e-07
-3.96823e-08
5.43267e-07
-4.02282e-08
5.4519e-07
-4.0851e-08
5.47123e-07
-4.15744e-08
5.49069e-07
-4.24306e-08
5.5103e-07
-4.34624e-08
5.53011e-07
-4.47273e-08
5.55025e-07
-4.63022e-08
5.57093e-07
-4.82911e-08
5.59255e-07
-5.08256e-08
5.61586e-07
-5.4087e-08
5.64192e-07
-5.82523e-08
5.67274e-07
-6.36103e-08
-7.0083e-08
5.71017e-07
5.33018e-07
-3.56596e-08
5.34076e-07
-3.59413e-08
5.35142e-07
-3.6227e-08
5.36216e-07
-3.6517e-08
5.37298e-07
-3.68117e-08
5.38387e-07
-3.71119e-08
5.39483e-07
-3.74184e-08
5.40587e-07
-3.77322e-08
5.41698e-07
-3.80549e-08
5.42816e-07
-3.83883e-08
5.4394e-07
-3.87351e-08
5.4507e-07
-3.90984e-08
5.46206e-07
-3.94827e-08
5.47346e-07
-3.98936e-08
5.48489e-07
-4.03387e-08
5.49634e-07
-4.08278e-08
5.5078e-07
-4.13742e-08
5.51925e-07
-4.19956e-08
5.53066e-07
-4.27158e-08
5.54203e-07
-4.35669e-08
5.55333e-07
-4.45925e-08
5.56458e-07
-4.58525e-08
5.57584e-07
-4.74285e-08
5.58728e-07
-4.94353e-08
5.59924e-07
-5.20209e-08
5.61245e-07
-5.54079e-08
5.62803e-07
-5.98106e-08
5.64848e-07
-6.56553e-08
-7.28334e-08
5.67598e-07
5.55841e-07
-3.59162e-08
5.561e-07
-3.61994e-08
5.56359e-07
-3.64864e-08
5.56619e-07
-3.67775e-08
5.56881e-07
-3.70732e-08
5.57143e-07
-3.73741e-08
5.57406e-07
-3.7681e-08
5.57669e-07
-3.7995e-08
5.57931e-07
-3.83173e-08
5.58193e-07
-3.865e-08
5.58453e-07
-3.89952e-08
5.58711e-07
-3.93562e-08
5.58965e-07
-3.97371e-08
5.59214e-07