/*--------------------------------*- C++ -*----------------------------------*\
  =========                 |
  \\      /  F ield         | OpenFOAM: The Open Source CFD Toolbox
   \\    /   O peration     | Website:  https://openfoam.org
    \\  /    A nd           | Version:  6
     \\/     M anipulation  |
\*---------------------------------------------------------------------------*/
FoamFile
{
    version     2.0;
    format      ascii;
    class       volVectorField;
    location    "0.05";
    object      U;
}
// * * * * * * * * * * * * * * * * * * * * * * * * * * * * * * * * * * * * * //

dimensions      [0 1 -1 0 0 0 0];

internalField   nonuniform List<vector> 
3080
(
(0.44929 -3.52077e-05 1.08157e-20)
(0.449331 -3.4576e-05 1.07614e-20)
(0.449371 -3.38609e-05 0)
(0.449409 -3.30503e-05 1.06536e-20)
(0.449445 -3.21266e-05 0)
(0.449479 -3.10649e-05 0)
(0.44951 -2.9832e-05 1.04938e-20)
(0.449538 -2.8383e-05 0)
(0.449561 -2.66587e-05 1.03888e-20)
(0.44958 -2.45797e-05 0)
(0.449593 -2.20417e-05 0)
(0.449598 -1.89075e-05 1.0234e-20)
(0.449593 -1.49964e-05 0)
(0.449576 -1.00688e-05 1.01331e-20)
(0.449543 -3.80507e-06 0)
(0.449491 4.22501e-06 0)
(0.449411 1.46081e-05 0)
(0.449297 2.81568e-05 -9.94036e-21)
(0.449137 4.60174e-05 0)
(0.448916 6.9845e-05 9.85183e-21)
(0.448611 0.000102105 0)
(0.44819 0.000146593 0)
(0.447608 0.000209515 0)
(0.446788 0.000301332 0)
(0.445616 0.000442528 0)
(0.443853 0.00067015 0)
(0.441183 0.00109033 0)
(0.43628 0.00185604 -1.95374e-20)
(0.429179 0.00387023 0)
(0.40671 0.00700735 0)
(0.476724 -6.43933e-05 8.4761e-21)
(0.476774 -6.2967e-05 -8.43876e-21)
(0.476822 -6.13661e-05 0)
(0.476869 -5.95613e-05 8.35993e-21)
(0.476915 -5.75126e-05 0)
(0.476958 -5.51675e-05 0)
(0.477 -5.24564e-05 -8.24559e-21)
(0.477039 -4.92869e-05 1.64131e-20)
(0.477074 -4.55362e-05 -8.16889e-21)
(0.477106 -4.10411e-05 0)
(0.477132 -3.55864e-05 0)
(0.477153 -2.88885e-05 8.05385e-21)
(0.477165 -2.05735e-05 0)
(0.477168 -1.01457e-05 7.97916e-21)
(0.477159 3.05565e-06 0)
(0.477133 1.99196e-05 0)
(0.477087 4.16564e-05 0)
(0.477014 6.99379e-05 7.83598e-21)
(0.476905 0.000107116 0)
(0.47675 0.000156573 -7.76933e-21)
(0.476531 0.00022332 0)
(0.476226 0.000315031 0)
(0.475803 0.000444102 1.5371e-20)
(0.475214 0.000631347 -1.53307e-20)
(0.474391 0.000916107 0)
(0.473205 0.00137101 0)
(0.471541 0.00218132 0)
(0.468846 0.00365399 4.62202e-20)
(0.465673 0.00714014 0)
(0.458722 0.0134243 -3.16786e-20)
(0.486017 -0.000109598 -1.37398e-20)
(0.486067 -0.000107325 0)
(0.486116 -0.00010479 0)
(0.486164 -0.000101947 -4.06635e-20)
(0.48621 -9.8733e-05 2.69852e-20)
(0.486254 -9.50676e-05 0)
(0.486296 -9.08453e-05 2.67384e-20)
(0.486336 -8.59261e-05 -1.33083e-20)
(0.486372 -8.01247e-05 0)
(0.486404 -7.31961e-05 0)
(0.486432 -6.48172e-05 0)
(0.486453 -5.45624e-05 -3.91865e-20)
(0.486466 -4.18708e-05 0)
(0.48647 -2.59998e-05 -1.29412e-20)
(0.486462 -5.96138e-06 0)
(0.486437 1.95711e-05 0)
(0.486391 5.23968e-05 0)
(0.486318 9.49891e-05 0)
(0.48621 0.000150805 0)
(0.486054 0.000224777 0)
(0.485834 0.000324126 -2.50937e-20)
(0.485529 0.00045975 0)
(0.485107 0.000648841 -1.24594e-20)
(0.484522 0.000919567 3.7278e-20)
(0.483708 0.00132229 0)
(0.482558 0.00194736 0)
(0.480963 0.00299694 -2.48319e-20)
(0.478586 0.00482261 -2.49726e-20)
(0.475793 0.00857553 2.51819e-20)
(0.471798 0.015565 2.56762e-20)
(0.491367 -0.000154602 -2.37015e-20)
(0.491415 -0.00015149 0)
(0.491463 -0.000148032 0)
(0.49151 -0.00014416 2.33822e-20)
(0.491555 -0.000139786 -1.01388e-24)
(0.491599 -0.000134797 0)
(0.49164 -0.000129047 -2.30601e-20)
(0.491679 -0.000122345 -2.29516e-20)
(0.491715 -0.000114435 0)
(0.491747 -0.000104986 0)
(0.491775 -9.35556e-05 2.26291e-20)
(0.491796 -7.95674e-05 9.60946e-25)
(0.49181 -6.22593e-05 0)
(0.491815 -4.06249e-05 2.23089e-20)
(0.491807 -1.33258e-05 0)
(0.491783 2.14308e-05 0)
(0.491739 6.60709e-05 0)
(0.491669 0.000123918 -2.18952e-20)
(0.491564 0.000199595 0)
(0.491413 0.000299658 0)
(0.491201 0.000433617 2.1614e-20)
(0.490907 0.00061566 0)
(0.490502 0.000867752 0)
(0.489946 0.0012251 -4.27863e-20)
(0.489182 0.00174797 0)
(0.488125 0.00254073 0)
(0.486701 0.00381366 2.13632e-20)
(0.484725 0.00592165 4.27986e-20)
(0.482545 0.00979721 -2.16382e-20)
(0.480095 0.0164209 0)
(0.495063 -0.000196945 2.13167e-20)
(0.495111 -0.000193025 -2.12193e-20)
(0.495157 -0.000188684 0)
(0.495202 -0.00018383 2.10252e-20)
(0.495246 -0.00017835 -2.09286e-20)
(0.495288 -0.000172097 0)
(0.495329 -0.000164886 -2.07324e-20)
(0.495367 -0.000156471 4.12697e-20)
(0.495402 -0.000146532 0)
(0.495434 -0.000134648 4.08766e-20)
(0.495461 -0.000120264 -2.03411e-20)
(0.495482 -0.000102656 2.02433e-20)
(0.495496 -8.08657e-05 0)
(0.495502 -5.36328e-05 -2.00485e-20)
(0.495495 -1.9282e-05 0)
(0.495474 2.44261e-05 0)
(0.495433 8.05137e-05 0)
(0.495367 0.000153105 1.96691e-20)
(0.495269 0.000247912 0)
(0.495127 0.000372973 0)
(0.494928 0.000539849 0)
(0.494653 0.000765566 0)
(0.494277 0.001076 0)
(0.493766 0.00151165 1.91999e-20)
(0.493075 0.00213918 0)
(0.492144 0.00306936 3.8223e-20)
(0.490932 0.00450667 0)
(0.489363 0.00677778 -3.83646e-20)
(0.487778 0.0106017 -3.83897e-20)
(0.486362 0.0166426 0)
(0.497837 -0.000237112 0)
(0.497882 -0.000232428 1.95865e-20)
(0.497926 -0.000227258 0)
(0.49797 -0.000221488 -5.82156e-20)
(0.498012 -0.000214975 0)
(0.498052 -0.000207544 3.84461e-20)
(0.498091 -0.000198968 1.91324e-20)
(0.498128 -0.000188952 -1.9041e-20)
(0.498162 -0.00017711 0)
(0.498193 -0.000162939 -3.77153e-20)
(0.49822 -0.000145778 0)
(0.498241 -0.000124761 -3.73468e-20)
(0.498256 -9.87502e-05 0)
(0.498262 -6.62472e-05 0)
(0.498257 -2.52649e-05 0)
(0.498239 2.68462e-05 0)
(0.498202 9.36507e-05 0)
(0.498143 0.000179994 3.62653e-20)
(0.498053 0.000292546 3.60931e-20)
(0.497923 0.00044063 0)
(0.497742 0.000637512 0)
(0.497493 0.000902474 0)
(0.497154 0.00126426 0)
(0.4967 0.00176675 -3.5344e-20)
(0.496097 0.00247952 0)
(0.495308 0.00351338 -7.03608e-20)
(0.494321 0.00505784 3.5112e-20)
(0.49313 0.00739798 3.51005e-20)
(0.492068 0.0110746 3.53042e-20)
(0.491397 0.0165212 3.50597e-20)
(0.500014 -0.000275167 0)
(0.500056 -0.000269774 0)
(0.500098 -0.000263839 0)
(0.500139 -0.000257226 1.21657e-24)
(0.500179 -0.000249768 3.62756e-20)
(0.500218 -0.000241258 -3.6104e-20)
(0.500255 -0.000231432 3.59294e-20)
(0.50029 -0.000219947 0)
(0.500323 -0.000206357 -3.55815e-20)
(0.500353 -0.000190082 0)
(0.500379 -0.000170362 3.52325e-20)
(0.5004 -0.000146204 3.50598e-20)
(0.500415 -0.000116304 0)
(0.500423 -7.89481e-05 0)
(0.50042 -3.18693e-05 3.45363e-20)
(0.500405 2.79479e-05 3.4364e-20)
(0.500374 0.000104546 3.41932e-20)
(0.500322 0.000203393 -4.88313e-24)
(0.500242 0.000331974 -3.38647e-20)
(0.500128 0.000500661 0)
(0.499968 0.00072406 0)
(0.499749 0.00102309 0)
(0.499455 0.00142834 3.32479e-20)
(0.499065 0.00198535 3.31422e-20)
(0.498559 0.00276373 0)
(0.497917 0.00386987 6.58611e-20)
(0.497152 0.00547372 -7.05601e-23)
(0.496304 0.00781598 -1.03404e-22)
(0.495685 0.011298 -3.27359e-20)
(0.495565 0.0161913 -6.53902e-20)
(0.501773 -0.000310895 -3.51485e-20)
(0.501812 -0.000304854 0)
(0.501851 -0.000298228 0)
(0.50189 -0.000290857 1.0931e-24)
(0.501927 -0.000282552 -6.89828e-20)
(0.501963 -0.000273076 -3.43249e-20)
(0.501998 -0.000262129 -3.41595e-20)
(0.502031 -0.000249327 3.39914e-20)
(0.502062 -0.000234167 6.76492e-20)
(0.502091 -0.000216001 -3.36562e-20)
(0.502116 -0.00019398 -1.60842e-24)
(0.502137 -0.000166995 0)
(0.502152 -0.000133598 0)
(0.502161 -9.18838e-05 0)
(0.502161 -3.93412e-05 -3.28199e-20)
(0.50215 2.73602e-05 -3.2654e-20)
(0.502125 0.000112667 -3.24893e-20)
(0.502081 0.000222567 -5.3426e-24)
(0.502014 0.000365198 0)
(0.501917 0.000551742 0)
(0.501781 0.000797768 0)
(0.501596 0.00112525 0)
(0.50135 0.00156568 -3.15733e-20)
(0.50103 0.0021648 0)
(0.500624 0.00299014 0)
(0.50013 0.00414081 -3.12337e-20)
(0.499578 0.00576569 -3.1155e-20)
(0.499033 0.00806341 -3.10907e-20)
(0.498784 0.0113289 3.104e-20)
(0.499076 0.015722 3.08863e-20)
(0.503224 -0.000344015 6.74713e-20)
(0.50326 -0.0003374 -3.35771e-20)
(0.503296 -0.000330163 0)
(0.503331 -0.000322128 3.32597e-20)
(0.503365 -0.000313083 3.30996e-20)
(0.503398 -0.000302766 3.29388e-20)
(0.50343 -0.000290844 3.27764e-20)
(0.503461 -0.000276894 -3.26157e-20)
(0.50349 -0.000260367 -3.24535e-20)
(0.503517 -0.000240551 3.22909e-20)
(0.503541 -0.00021652 -6.42546e-20)
(0.503561 -0.00018707 0)
(0.503577 -0.000150623 0)
(0.503587 -0.000105115 -3.16368e-20)
(0.503589 -4.783e-05 3.14738e-20)
(0.503583 2.48216e-05 0)
(0.503564 0.000117614 6.22995e-20)
(0.50353 0.00023694 -3.0995e-20)
(0.503476 0.000391427 0)
(0.503397 0.000592828 0)
(0.503287 0.000857315 0)
(0.503139 0.00120737 6.07411e-20)
(0.502944 0.0016746 6.04511e-20)
(0.502696 0.00230377 0)
(0.502392 0.00315885 0)
(0.502041 0.00433012 0)
(0.501686 0.00594571 5.94178e-20)
(0.501408 0.00816674 5.91759e-20)
(0.501465 0.0112079 -5.89177e-20)
(0.50207 0.015155 0)
(0.504441 -0.000374234 -9.63187e-25)
(0.504473 -0.000367122 6.49158e-20)
(0.504505 -0.000359366 0)
(0.504536 -0.00035077 0)
(0.504566 -0.000341103 0)
(0.504596 -0.00033008 0)
(0.504625 -0.000317343 -3.16778e-20)
(0.504653 -0.000302432 0)
(0.504679 -0.000284759 0)
(0.504704 -0.00026356 0)
(0.504726 -0.000237845 9.3128e-20)
(0.504746 -0.000206326 6.17652e-20)
(0.504761 -0.000167326 0)
(0.504773 -0.000118651 3.05656e-20)
(0.504778 -5.74212e-05 -3.04064e-20)
(0.504775 2.01536e-05 -6.04877e-20)
(0.504763 0.000119093 -6.01794e-20)
(0.504739 0.000246081 -5.98535e-20)
(0.504699 0.000410075 -5.95394e-20)
(0.50464 0.000623165 5.92284e-20)
(0.504558 0.000901792 0)
(0.504447 0.00126847 -3.18659e-23)
(0.504305 0.00175426 -1.16689e-19)
(0.504129 0.00240208 0)
(0.503925 0.0032714 0)
(0.503711 0.00444302 0)
(0.503537 0.00602573 -1.29058e-22)
(0.50349 0.00814851 -1.69856e-22)
(0.5038 0.0109663 5.68213e-20)
(0.504645 0.0145173 0)
(0.505476 -0.000401242 -3.17069e-20)
(0.505503 -0.000393721 -3.15559e-20)
(0.50553 -0.000385543 0)
(0.505557 -0.000376498 6.25017e-20)
(0.505583 -0.000366337 0)
(0.505609 -0.000354757 0)
(0.505634 -0.000341375 0)
(0.505658 -0.000325706 0)
(0.505681 -0.000307126 6.09582e-20)
(0.505703 -0.000284833 0)
(0.505724 -0.000257784 -6.03365e-20)
(0.505742 -0.000224631 -3.69345e-24)
(0.505758 -0.000183616 -5.97055e-20)
(0.50577 -0.000132448 0)
(0.505777 -6.81315e-05 0)
(0.505779 1.32665e-05 5.87693e-20)
(0.505774 0.00011693 5.84472e-20)
(0.505759 0.000249721 5.8146e-20)
(0.505734 0.000420771 1.5434e-23)
(0.505696 0.000642291 -5.75309e-20)
(0.505641 0.000930694 0)
(0.50557 0.00130813 -5.69304e-20)
(0.50548 0.00180457 1.13234e-19)
(0.505375 0.00246051 0)
(0.505268 0.00333038 0)
(0.505181 0.00448551 5.57031e-20)
(0.50517 0.0060173 -1.1092e-19)
(0.505323 0.00802796 -1.56478e-22)
(0.505842 0.0106284 0)
(0.506876 0.0138272 0)
(0.506388 -0.00041689 0)
(0.50641 -0.000408396 0)
(0.506431 -0.000399021 -1.22088e-19)
(0.506453 -0.000388503 6.07415e-20)
(0.506474 -0.000376522 6.04386e-20)
(0.506494 -0.000362678 0)
(0.506515 -0.000346465 -5.9829e-20)
(0.506535 -0.000327235 -5.95248e-20)
(0.506554 -0.000304154 0)
(0.506571 -0.000276146 0)
(0.506588 -0.000241817 -3.68309e-24)
(0.506603 -0.000199356 5.82907e-20)
(0.506615 -0.000146411 0)
(0.506625 -7.99113e-05 5.76639e-20)
(0.506631 4.15778e-06 0)
(0.506632 0.000111063 -5.70501e-20)
(0.506628 0.000247739 0)
(0.506618 0.000423345 1.1285e-19)
(0.5066 0.000650017 0)
(0.506574 0.000943883 5.57961e-20)
(0.50654 0.0013264 0)
(0.506502 0.00182607 -5.52197e-20)
(0.506467 0.00248056 0)
(0.50645 0.00333906 0)
(0.506481 0.00446388 -5.43304e-20)
(0.506617 0.00593118 5.40259e-20)
(0.506943 0.0078213 -1.43457e-22)
(0.507635 0.010213 -5.31602e-20)
(0.508817 0.0130971 0)
(0.507156 -0.000436322 0)
(0.507172 -0.000427626 0)
(0.507188 -0.000418049 5.98507e-20)
(0.507204 -0.000407318 -1.7168e-24)
(0.50722 -0.000395101 -5.92535e-20)
(0.507235 -0.000380987 0)
(0.507251 -0.000364455 5.86511e-20)
(0.507267 -0.000344842 0)
(0.507282 -0.000321296 0)
(0.507297 -0.00029272 0)
(0.507312 -0.000257694 -5.7433e-20)
(0.507325 -0.000214382 0)
(0.507338 -0.0001604 -5.68134e-20)
(0.50735 -9.26513e-05 -5.65106e-20)
(0.507359 -7.09597e-06 0)
(0.507367 0.000101539 5.58837e-20)
(0.507373 0.000240158 -5.55726e-20)
(0.507377 0.000417814 -1.55704e-23)
(0.507379 0.0006464 -5.49488e-20)
(0.507381 0.00094154 -2.50033e-23)
(0.507385 0.00132373 0)
(0.507397 0.00181975 5.40067e-20)
(0.507427 0.0024642 0)
(0.507495 0.00330111 0)
(0.507634 0.00438441 0)
(0.5079 0.00577715 -5.26782e-20)
(0.508375 0.00754207 -1.30972e-22)
(0.509212 0.00973466 1.03906e-19)
(0.510512 0.0123358 0)
(0.507828 -0.000451728 5.94548e-20)
(0.507838 -0.000442949 5.91625e-20)
(0.507847 -0.000433302 -5.88687e-20)
(0.507857 -0.000422508 -1.67322e-24)
(0.507867 -0.000410227 0)
(0.507878 -0.000396042 0)
(0.507889 -0.000379426 5.7679e-20)
(0.5079 -0.000359707 0)
(0.507911 -0.000336028 -5.70762e-20)
(0.507923 -0.000307284 0)
(0.507935 -0.000272054 0)
(0.507947 -0.000228499 5.61629e-20)
(0.507959 -0.00017424 1.11718e-19)
(0.507972 -0.000106191 0)
(0.507985 -2.03477e-05 0)
(0.507999 8.84981e-05 -1.09869e-19)
(0.508015 0.000227126 5.46305e-20)
(0.508032 0.000404365 -5.43211e-20)
(0.508054 0.000631714 5.40111e-20)
(0.508082 0.000924118 -5.37003e-20)
(0.508122 0.00130093 -5.33573e-20)
(0.508182 0.00178699 -1.06109e-19)
(0.508274 0.00241381 0)
(0.508421 0.00322041 0)
(0.508658 0.00425314 0)
(0.509039 0.00556397 5.17487e-20)
(0.509642 0.00720164 -5.13679e-20)
(0.510599 0.00920483 -5.09451e-20)
(0.511996 0.0115495 0)
(0.50842 -0.000462835 -5.87885e-20)
(0.508423 -0.000454099 -5.84939e-20)
(0.508426 -0.000444521 5.81978e-20)
(0.50843 -0.000433819 -1.63735e-24)
(0.508434 -0.000421651 0)
(0.508438 -0.000407599 0)
(0.508444 -0.000391136 -1.13995e-19)
(0.50845 -0.000371593 0)
(0.508456 -0.000348118 1.12778e-19)
(0.508464 -0.000319617 5.60812e-20)
(0.508473 -0.000284682 0)
(0.508483 -0.000241497 -5.54685e-20)
(0.508495 -0.000187721 -5.51589e-20)
(0.508508 -0.000120323 0)
(0.508525 -3.5385e-05 0)
(0.508544 7.21685e-05 1.08436e-19)
(0.508569 0.000208907 -5.38964e-20)
(0.5086 0.000383333 -5.35774e-20)
(0.50864 0.000606425 0)
(0.508694 0.000892309 0)
(0.508768 0.00125904 5.26325e-20)
(0.508872 0.00172946 5.23061e-20)
(0.509022 0.00233196 -5.19265e-20)
(0.509241 0.00310089 0)
(0.509566 0.00407585 0)
(0.510048 0.00529949 0)
(0.510761 0.00680955 0)
(0.51182 0.00863268 0)
(0.513296 0.0107432 0)
(0.508949 -0.000469474 0)
(0.508944 -0.000460907 0)
(0.50894 -0.000451539 -5.70627e-20)
(0.508937 -0.000441086 -1.13575e-19)
(0.508934 -0.000429211 0)
(0.508932 -0.000415498 0)
(0.508932 -0.000399429 1.96988e-24)
(0.508932 -0.000380347 -5.56643e-20)
(0.508934 -0.000357416 -2.50465e-24)
(0.508937 -0.000329567 -2.90755e-24)
(0.508942 -0.000295427 -5.48052e-20)
(0.50895 -0.000253227 -5.45154e-20)
(0.50896 -0.000200693 5.42238e-20)
(0.508974 -0.00013489 0)
(0.508993 -5.20354e-05 0)
(0.509017 5.27506e-05 -5.33465e-20)
(0.50905 0.000185753 5.30486e-20)
(0.509093 0.000355052 1.05482e-19)
(0.509151 0.000571005 -5.24273e-20)
(0.509228 0.000846807 0)
(0.509334 0.00119913 0)
(0.50948 0.00164876 -1.02952e-19)
(0.509682 0.00222106 1.53472e-19)
(0.509967 0.00294608 -1.01592e-19)
(0.510369 0.00385747 -1.00862e-19)
(0.510941 0.00499016 0)
(0.511748 0.00637329 9.92356e-20)
(0.512891 0.00802504 0)
(0.514432 0.00991992 0)
(0.509413 -0.000471265 5.74201e-20)
(0.509401 -0.000463004 0)
(0.509389 -0.000453992 1.13676e-19)
(0.509379 -0.000443952 1.13089e-19)
(0.509369 -0.000432554 0)
(0.509361 -0.000419391 0)
(0.509354 -0.00040396 5.56574e-20)
(0.509349 -0.000385625 5.53591e-20)
(0.509345 -0.00036358 -5.50597e-20)
(0.509344 -0.000336792 -2.74851e-24)
(0.509346 -0.000303941 3.23804e-24)
(0.50935 -0.000263332 3.86959e-24)
(0.509359 -0.000212784 -4.67955e-24)
(0.509373 -0.000149495 0)
(0.509394 -6.98629e-05 0)
(0.509423 3.07404e-05 0)
(0.509463 0.000158248 0)
(0.509517 0.000320246 -5.23029e-20)
(0.509591 0.000526384 5.19862e-20)
(0.509691 0.00078885 0)
(0.509826 0.00112288 0)
(0.51001 0.00154719 1.02015e-19)
(0.51026 0.0020843 -1.01331e-19)
(0.510604 0.00276029 1.00832e-22)
(0.511075 0.00360365 9.98771e-20)
(0.511724 0.00464289 0)
(0.512612 0.0059005 -9.82238e-20)
(0.513827 0.00738868 -9.70784e-20)
(0.515423 0.00908325 0)
(0.50981 -0.000468407 -1.13792e-19)
(0.509791 -0.00046056 0)
(0.509773 -0.000452025 -5.63082e-20)
(0.509756 -0.000442534 -5.60126e-20)
(0.50974 -0.000431765 0)
(0.509725 -0.000419329 0)
(0.509713 -0.000404743 0)
(0.509702 -0.000387401 0)
(0.509694 -0.000366535 5.45216e-20)
(0.509688 -0.000341165 -1.08445e-19)
(0.509686 -0.00031004 5.3923e-20)
(0.509688 -0.000271555 1.07239e-19)
(0.509696 -0.000223653 -5.33187e-20)
(0.509709 -0.000163696 -5.30095e-20)
(0.509732 -8.83025e-05 0)
(0.509765 6.85684e-06 0)
(0.509811 0.000127308 0)
(0.509876 0.000280077 0)
(0.509965 0.000474044 0)
(0.510085 0.000720333 0)
(0.510247 0.00103271 0)
(0.510465 0.00142788 0)
(0.510759 0.00192563 0)
(0.511155 0.00254845 1.99074e-19)
(0.511688 0.00332033 0)
(0.512405 0.00426446 0)
(0.513362 0.00539809 -9.70072e-20)
(0.514637 0.00672922 9.6209e-20)
(0.51628 0.00823551 0)
(0.510149 -0.000461276 5.64197e-20)
(0.510123 -0.000453928 5.61244e-20)
(0.510099 -0.000445965 5.58302e-20)
(0.510076 -0.000437128 -5.55356e-20)
(0.510054 -0.000427112 0)
(0.510034 -0.000415548 0)
(0.510016 -0.000401981 0)
(0.51 -0.00038584 0)
(0.509987 -0.000366405 -5.4058e-20)
(0.509978 -0.000342762 2.37477e-24)
(0.509972 -0.000313741 -5.34603e-20)
(0.509972 -0.000277851 -5.31646e-20)
(0.509977 -0.000233179 0)
(0.509991 -0.000177281 4.85332e-24)
(0.510015 -0.000107031 -5.22575e-20)
(0.510051 -1.844e-05 5.19529e-20)
(0.510104 9.35619e-05 5.16457e-20)
(0.510178 0.00023539 0)
(0.51028 0.000415102 0)
(0.510419 0.000642717 0)
(0.510605 0.000930517 0)
(0.510854 0.00129325 -1.00072e-19)
(0.511186 0.00174813 0)
(0.511628 0.00231439 -9.87244e-20)
(0.512214 0.00301208 0)
(0.51299 0.00385997 0)
(0.514006 0.00487122 9.62884e-20)
(0.515333 0.00605088 0)
(0.517017 0.00737878 0)
(0.510436 -0.000450255 5.59839e-20)
(0.510405 -0.000443469 -5.56945e-20)
(0.510375 -0.000436149 -5.54034e-20)
(0.510346 -0.000428049 5.51122e-20)
(0.510319 -0.000418884 0)
(0.510294 -0.000408309 0)
(0.51027 -0.0003959 0)
(0.51025 -0.000381132 5.39437e-20)
(0.510232 -0.000363341 -5.36512e-20)
(0.510219 -0.000341687 5.33605e-20)
(0.51021 -0.000315098 5.30673e-20)
(0.510207 -0.00028221 0)
(0.510211 -0.000241278 0)
(0.510224 -0.000190076 5.21836e-20)
(0.510249 -0.000125764 5.38535e-24)
(0.510288 -4.47309e-05 -1.03169e-19)
(0.510346 5.75963e-05 -5.12869e-20)
(0.510428 0.000186978 0)
(0.510542 0.000350611 0)
(0.510696 0.000557381 5.03452e-20)
(0.510904 0.00081809 0)
(0.51118 0.00114558 9.94207e-20)
(0.511546 0.00155464 4.93387e-20)
(0.512028 0.00206155 0)
(0.51266 0.00268291 -9.71774e-20)
(0.513486 0.00343382 0)
(0.514553 0.00432423 9.54592e-20)
(0.515923 0.00535715 9.44859e-20)
(0.51764 0.00651474 9.32946e-20)
(0.510676 -0.000435738 -5.55909e-20)
(0.51064 -0.000429557 0)
(0.510604 -0.00042293 -5.50177e-20)
(0.51057 -0.000415629 0)
(0.510538 -0.000407388 0)
(0.510508 -0.000397891 0)
(0.51048 -0.000386753 0)
(0.510455 -0.000373497 -5.35885e-20)
(0.510433 -0.000357524 1.75983e-24)
(0.510416 -0.000338078 -5.30131e-20)
(0.510404 -0.000314197 0)
(0.510398 -0.000284658 0)
(0.5104 -0.000247902 0)
(0.510413 -0.000201943 -5.18572e-20)
(0.510438 -0.000144256 5.15697e-20)
(0.510479 -7.16386e-05 1.02547e-19)
(0.510542 1.99526e-05 0)
(0.510631 0.000135588 -5.0672e-20)
(0.510754 0.000281568 -5.03659e-20)
(0.510923 0.000465628 -1.38701e-23)
(0.511148 0.0006971 -4.97326e-20)
(0.511447 0.000986974 4.94012e-20)
(0.511842 0.00134777 -4.90818e-20)
(0.512358 0.00179305 0)
(0.51303 0.00233641 1.45002e-19)
(0.513897 0.00298987 4.78973e-20)
(0.515007 0.00376085 -9.50049e-20)
(0.516413 0.00465098 -1.41014e-19)
(0.518158 0.00564482 -9.28731e-20)
(0.510873 -0.00041812 5.52323e-20)
(0.510831 -0.000412571 0)
(0.510791 -0.000406671 5.46752e-20)
(0.510752 -0.000400209 0)
(0.510715 -0.000392944 0)
(0.51068 -0.000384593 0)
(0.510648 -0.000374811 0)
(0.510619 -0.000363176 0)
(0.510593 -0.000349161 5.29984e-20)
(0.510572 -0.0003321 1.80513e-24)
(0.510557 -0.000311153 0)
(0.510548 -0.000285251 0)
(0.510549 -0.000253036 0)
(0.51056 -0.000212783 5.15901e-20)
(0.510585 -0.000162303 0)
(0.510628 -9.88265e-05 -5.13679e-24)
(0.510694 -1.88717e-05 0)
(0.510789 8.19128e-05 5.04327e-20)
(0.510921 0.00020891 5.01336e-20)
(0.5111 0.000368691 -9.96442e-20)
(0.511341 0.000569128 1.472e-23)
(0.51166 0.000819421 -4.91898e-20)
(0.512078 0.00112993 0)
(0.512623 0.00151176 4.84696e-20)
(0.513327 0.00197583 -3.16544e-23)
(0.514229 0.00253154 -4.77143e-20)
(0.515373 0.00318435 0)
(0.516808 0.00393495 4.67985e-20)
(0.518577 0.0047703 0)
(0.511027 -0.000397799 -5.49119e-20)
(0.510981 -0.000392896 2.73196e-20)
(0.510936 -0.000387742 0)
(0.510893 -0.000382144 0)
(0.510852 -0.00037589 0)
(0.510813 -0.00036873 0)
(0.510777 -0.000360366 5.3281e-20)
(0.510744 -0.000350433 -5.30088e-20)
(0.510715 -0.000338482 5.27362e-20)
(0.51069 -0.000323946 5.24647e-20)
(0.510672 -0.000306112 -5.21893e-20)
(0.510661 -0.000284079 0)
(0.510659 -0.000256702 -5.16388e-20)
(0.510669 -0.000222532 0)
(0.510694 -0.000179734 5.10819e-20)
(0.510738 -0.000125998 -5.08042e-20)
(0.510806 -5.8423e-05 0)
(0.510905 2.66003e-05 -5.02244e-20)
(0.511043 0.000133518 0)
(0.511231 0.000267729 4.96361e-20)
(0.511484 0.000435663 4.93264e-20)
(0.511819 0.000644778 0)
(0.512257 0.0009034 4.8652e-20)
(0.512825 0.00122034 -2.19289e-23)
(0.513555 0.00160412 -9.5857e-20)
(0.514484 0.00206192 0)
(0.515655 0.00259763 4.70672e-20)
(0.517114 0.00321133 0)
(0.518901 0.00389237 4.60055e-20)
(0.511141 -0.000375172 2.73114e-20)
(0.511091 -0.000370919 -2.71807e-20)
(0.511043 -0.000366515 2.70485e-20)
(0.510996 -0.000361794 2.6917e-20)
(0.510951 -0.00035657 0)
(0.510908 -0.000350629 0)
(0.510868 -0.000343722 -5.30444e-20)
(0.510831 -0.000335549 7.91697e-20)
(0.510798 -0.000325738 -5.25155e-20)
(0.510771 -0.000313829 0)
(0.510749 -0.000299245 7.79754e-20)
(0.510736 -0.000281258 2.58576e-20)
(0.510732 -0.000258948 5.14487e-20)
(0.51074 -0.000231156 0)
(0.510765 -0.000196419 -7.63581e-20)
(0.510809 -0.000152896 0)
(0.510878 -9.82898e-05 0)
(0.51098 -2.97508e-05 5.00702e-20)
(0.511123 5.62165e-05 0)
(0.511318 0.000163836 0)
(0.51158 0.000298109 0)
(0.511926 0.000464796 -4.88514e-20)
(0.512379 0.000670274 -4.85316e-20)
(0.512965 0.000921215 -4.81813e-20)
(0.513715 0.00122399 4.78083e-20)
(0.514665 0.0015838 0)
(0.515857 0.0020033 -4.69733e-20)
(0.517333 0.00248217 0)
(0.519133 0.00301212 -9.18182e-20)
(0.511216 -0.000350636 -5.43685e-20)
(0.511163 -0.000347026 -2.70571e-20)
(0.511111 -0.000343371 -2.69306e-20)
(0.51106 -0.000339527 -5.70012e-25)
(0.511012 -0.000335337 0)
(0.510966 -0.000330628 0)
(0.510922 -0.000325201 0)
(0.510882 -0.000318821 -2.62928e-20)
(0.510846 -0.0003112 0)
(0.510816 -0.000301987 0)
(0.510792 -0.000290747 -2.59064e-20)
(0.510775 -0.000276931 -5.15524e-20)
(0.510769 -0.000259856 0)
(0.510776 -0.000238658 2.55134e-20)
(0.510799 -0.000212257 1.18256e-24)
(0.510842 -0.0001793 0)
(0.510912 -0.000138103 2.51097e-20)
(0.511015 -8.65889e-05 -2.49708e-20)
(0.511161 -2.22232e-05 0)
(0.511361 5.8041e-05 0)
(0.511629 0.000157789 0)
(0.511984 0.000281121 4.87586e-20)
(0.512447 0.000432534 0)
(0.513045 0.000616682 0)
(0.513809 0.000837931 0)
(0.514774 0.00109976 0)
(0.51598 0.00140375 0)
(0.517467 0.00174933 0)
(0.519276 0.00213057 6.87557e-20)
(0.511252 -0.000324589 2.70729e-20)
(0.511196 -0.000321609 2.69507e-20)
(0.511141 -0.000318693 1.34138e-20)
(0.511088 -0.000315716 -2.67055e-20)
(0.511036 -0.000312557 0)
(0.510987 -0.00030908 0)
(0.510941 -0.000305138 0)
(0.510898 -0.000300564 0)
(0.510859 -0.000295157 -1.30435e-20)
(0.510826 -0.000288679 0)
(0.510799 -0.000280837 0)
(0.51078 -0.000271272 3.85662e-20)
(0.510772 -0.000259536 0)
(0.510776 -0.000245073 -2.54559e-20)
(0.510798 -0.000227191 2.53266e-20)
(0.51084 -0.000205033 0)
(0.510909 -0.000177541 -2.50625e-20)
(0.511013 -0.000143417 2.4927e-20)
(0.511159 -0.000101095 1.23933e-20)
(0.511361 -4.87037e-05 1.23217e-20)
(0.511633 1.59348e-05 0)
(0.511992 9.52852e-05 -1.21704e-20)
(0.512461 0.000192017 0)
(0.513066 0.000308845 -1.20033e-20)
(0.513839 0.000448249 0)
(0.514813 0.000612105 0)
(0.516027 0.00080109 0)
(0.51752 0.00101448 -1.15885e-20)
(0.519333 0.0012486 -2.29011e-20)
(0.511251 -0.000297403 0)
(0.511192 -0.00029504 0)
(0.511135 -0.000292846 -1.37225e-20)
(0.511079 -0.000290724 0)
(0.511024 -0.000288581 0)
(0.510973 -0.000286325 0)
(0.510924 -0.000283861 0)
(0.510878 -0.00028109 0)
(0.510837 -0.0002779 1.33603e-20)
(0.510801 -0.000274167 0)
(0.510771 -0.000269745 0)
(0.51075 -0.000264463 -1.31749e-20)
(0.510739 -0.000258115 0)
(0.510742 -0.000250455 0)
(0.510761 -0.000241186 0)
(0.510802 -0.000229951 0)
(0.51087 -0.00021632 0)
(0.510972 -0.000199785 0)
(0.511118 -0.000179746 -1.27165e-20)
(0.51132 -0.000155512 -1.26451e-20)
(0.511592 -0.000126303 0)
(0.511952 -9.12753e-05 1.24936e-20)
(0.512423 -4.95578e-05 0)
(0.51303 -3.28904e-07 1.23256e-20)
(0.513805 5.70711e-05 0)
(0.514782 0.000122995 0)
(0.515998 0.000197287 0)
(0.517493 0.000279098 1.19066e-20)
(0.519305 0.000366999 0)
(0.511209 -0.000266992 0)
(0.511148 -0.000265268 0)
(0.511088 -0.000263828 0)
(0.511029 -0.000262603 -1.34021e-20)
(0.510973 -0.000261536 0)
(0.510918 -0.000260578 -1.32721e-20)
(0.510867 -0.000259695 1.32066e-20)
(0.510818 -0.000258862 0)
(0.510775 -0.000258064 1.30747e-20)
(0.510736 -0.000257303 0)
(0.510704 -0.000256594 1.29412e-20)
(0.51068 -0.000255975 0)
(0.510667 -0.000255505 -1.28057e-20)
(0.510666 -0.000255281 0)
(0.510683 -0.000255439 0)
(0.510721 -0.000256173 -1.2597e-20)
(0.510786 -0.000257748 -1.25254e-20)
(0.510886 -0.000260519 0)
(0.511029 -0.000264956 -2.47553e-20)
(0.511228 -0.000271662 0)
(0.511497 -0.000281397 2.44425e-20)
(0.511855 -0.000295093 0)
(0.512322 -0.000313855 0)
(0.512927 -0.000338934 0)
(0.513698 -0.000371667 0)
(0.514671 -0.000413366 0)
(0.515884 -0.000465116 0)
(0.517374 -0.000527892 0)
(0.519181 -0.000600793 -2.2744e-20)
(0.511112 -0.000233228 0)
(0.511048 -0.000232177 0)
(0.510986 -0.000231535 -2.74911e-20)
(0.510925 -0.00023126 1.36811e-20)
(0.510866 -0.000231334 0)
(0.510809 -0.000231759 1.35505e-20)
(0.510755 -0.000232561 -1.34848e-20)
(0.510704 -0.000233798 0)
(0.510658 -0.000235562 -1.33521e-20)
(0.510616 -0.000237988 0)
(0.510581 -0.000241268 1.32175e-20)
(0.510555 -0.000245662 -2.62993e-20)
(0.510538 -0.000251521 1.30811e-20)
(0.510535 -0.000259308 2.60237e-20)
(0.510548 -0.00026963 2.58835e-20)
(0.510582 -0.000283277 1.28705e-20)
(0.510642 -0.000301267 -1.27986e-20)
(0.510737 -0.000324893 2.54493e-20)
(0.510875 -0.000355783 -9.91498e-25)
(0.511068 -0.000395951 0)
(0.51133 -0.000447835 -2.49803e-20)
(0.511679 -0.000514313 0)
(0.512138 -0.000598656 0)
(0.512731 -0.000704409 -4.89065e-20)
(0.513491 -0.000835125 4.85107e-20)
(0.514452 -0.000994001 0)
(0.515651 -0.00118321 4.7626e-20)
(0.517129 -0.00140391 0)
(0.518924 -0.00165275 -2.32637e-20)
(0.51096 -0.000198874 5.55515e-20)
(0.510894 -0.00019851 0)
(0.510829 -0.000198673 2.75167e-20)
(0.510767 -0.000199354 0)
(0.510705 -0.00020057 0)
(0.510647 -0.000202371 0)
(0.51059 -0.000204848 5.39801e-20)
(0.510537 -0.000208136 0)
(0.510488 -0.000212432 0)
(0.510445 -0.000218005 5.3177e-20)
(0.510407 -0.000225216 2.64529e-20)
(0.510377 -0.000234546 7.89494e-20)
(0.510357 -0.000246629 0)
(0.51035 -0.000262288 2.60402e-20)
(0.510359 -0.000282592 -2.58987e-20)
(0.510388 -0.000308919 0)
(0.510443 -0.000343024 7.6835e-20)
(0.510532 -0.000387129 -2.54629e-20)
(0.510661 -0.00044401 -2.53156e-20)
(0.510845 -0.000517083 0)
(0.511096 -0.000610467 0)
(0.511432 -0.000729002 0)
(0.511875 -0.00087817 0)
(0.512451 -0.00106388 4.89276e-20)
(0.513191 -0.00129201 -4.85306e-20)
(0.51413 -0.00156779 0)
(0.515308 -0.00189462 -4.76428e-20)
(0.516766 -0.00227402 0)
(0.518541 -0.00270009 -2.91139e-23)
(0.510749 -0.000164538 -5.56373e-20)
(0.510681 -0.000164873 0)
(0.510615 -0.00016585 0)
(0.510551 -0.000167486 -5.48492e-20)
(0.510488 -0.000169837 0)
(0.510428 -0.000172999 0)
(0.51037 -0.000177122 -6.03733e-25)
(0.510315 -0.00018242 0)
(0.510264 -0.000189188 0)
(0.510218 -0.000197824 -5.32459e-20)
(0.510177 -0.000208854 1.83097e-25)
(0.510145 -0.000222972 -5.26993e-20)
(0.510122 -0.000241081 0)
(0.51011 -0.000264356 1.32646e-24)
(0.510114 -0.000294313 0)
(0.510138 -0.000332895 5.15786e-20)
(0.510186 -0.00038258 -5.12856e-20)
(0.510266 -0.000446498 0)
(0.510385 -0.000528554 1.0138e-19)
(0.510556 -0.000633559 0)
(0.510791 -0.000767319 5.00648e-20)
(0.511109 -0.000936668 0)
(0.51153 -0.00114937 0)
(0.512081 -0.00141383 9.80374e-20)
(0.512794 -0.00173845 0)
(0.513703 -0.00213075 9.64174e-20)
(0.51485 -0.00259565 -9.55086e-20)
(0.51628 -0.00313526 -9.45187e-20)
(0.518028 -0.00374103 1.39891e-19)
(0.510476 -0.000130866 5.57532e-20)
(0.510408 -0.00013191 -5.54901e-20)
(0.51034 -0.000133703 5.52261e-20)
(0.510275 -0.000136289 9.58437e-25)
(0.510211 -0.000139758 0)
(0.510149 -0.000144251 0)
(0.510089 -0.000149974 -5.41614e-20)
(0.510033 -0.000157215 -5.3892e-20)
(0.50998 -0.000166363 1.07244e-19)
(0.509931 -0.000177937 0)
(0.509889 -0.000192619 5.30782e-20)
(0.509853 -0.000211303 1.05606e-19)
(0.509826 -0.00023515 0)
(0.509811 -0.000265668 -5.22461e-20)
(0.509809 -0.000304795 1.03933e-19)
(0.509826 -0.000355021 -5.16783e-20)
(0.509866 -0.000419515 1.02787e-19)
(0.509935 -0.000502287 0)
(0.510042 -0.000608349 -5.07917e-20)
(0.510196 -0.000743892 -1.00986e-19)
(0.510413 -0.000916415 -5.01625e-20)
(0.510707 -0.00113479 9.96955e-20)
(0.5111 -0.00140918 -9.90086e-20)
(0.511618 -0.00175065 -9.82305e-20)
(0.512294 -0.00217044 0)
(0.513164 -0.00267872 -9.66082e-20)
(0.51427 -0.00328236 9.56976e-20)
(0.515664 -0.0039845 9.47053e-20)
(0.517378 -0.00477377 1.1117e-22)
(0.510137 -9.84906e-05 -5.59094e-20)
(0.510068 -0.000100252 1.66932e-19)
(0.51 -0.000102859 5.53771e-20)
(0.509933 -0.000106381 1.65337e-19)
(0.509868 -0.00011094 0)
(0.509805 -0.000116719 -1.09155e-19)
(0.509744 -0.000123977 1.08617e-19)
(0.509686 -0.00013307 -5.40389e-20)
(0.509631 -0.000144473 -2.15073e-19)
(0.509581 -0.000158816 1.06993e-19)
(0.509536 -0.000176928 -1.06445e-19)