/*--------------------------------*- C++ -*----------------------------------*\
  =========                 |
  \\      /  F ield         | OpenFOAM: The Open Source CFD Toolbox
   \\    /   O peration     | Website:  https://openfoam.org
    \\  /    A nd           | Version:  6
     \\/     M anipulation  |
\*---------------------------------------------------------------------------*/
FoamFile
{
    version     2.0;
    format      ascii;
    class       volScalarField;
    location    "0.03";
    object      epsilon;
}
// * * * * * * * * * * * * * * * * * * * * * * * * * * * * * * * * * * * * * //

dimensions      [0 2 -3 0 0 0 0];

internalField   nonuniform List<scalar> 
3080
(
6.5054
6.5109
6.51646
6.52208
6.52775
6.53347
6.53925
6.54507
6.55093
6.55682
6.56274
6.56867
6.57459
6.58048
6.58631
6.59204
6.59762
6.60298
6.60801
6.61257
6.61647
6.6194
6.62091
6.62027
6.6162
6.60631
6.58578
6.5437
6.45719
6.27782
3.49392
3.49532
3.49675
3.49819
3.49965
3.50113
3.50262
3.50413
3.50565
3.50719
3.50874
3.51029
3.51186
3.51342
3.51499
3.51654
3.51807
3.51956
3.52101
3.52238
3.52364
3.52475
3.52565
3.52623
3.52635
3.52581
3.52434
3.52171
3.51939
3.52844
3.10417
3.10462
3.10507
3.10554
3.10601
3.10649
3.10698
3.10747
3.10797
3.10847
3.10898
3.1095
3.11001
3.11052
3.11103
3.11153
3.11202
3.11249
3.11293
3.11332
3.11367
3.11393
3.11408
3.11407
3.11383
3.11328
3.1123
3.11092
3.11004
3.11549
3.03166
3.03168
3.03171
3.03174
3.03177
3.03181
3.03184
3.03188
3.03192
3.03197
3.03201
3.03205
3.03209
3.03212
3.03215
3.03218
3.03219
3.03218
3.03215
3.03209
3.03199
3.03182
3.03158
3.03123
3.03072
3.02999
3.02897
3.02767
3.02654
3.02824
3.03799
3.03779
3.03759
3.03739
3.0372
3.037
3.0368
3.0366
3.0364
3.0362
3.03599
3.03579
3.03558
3.03536
3.03514
3.0349
3.03466
3.0344
3.03412
3.03381
3.03347
3.03307
3.03262
3.03207
3.0314
3.03056
3.02949
3.02819
3.02687
3.02681
3.06722
3.06691
3.06659
3.06628
3.06597
3.06565
3.06533
3.06501
3.06468
3.06435
3.06402
3.06369
3.06334
3.063
3.06264
3.06228
3.0619
3.06151
3.0611
3.06066
3.0602
3.05969
3.05912
3.05848
3.05774
3.05686
3.0558
3.05454
3.05319
3.05244
3.10115
3.10079
3.10043
3.10007
3.0997
3.09933
3.09896
3.09859
3.09821
3.09783
3.09744
3.09705
3.09665
3.09624
3.09583
3.09541
3.09498
3.09453
3.09406
3.09357
3.09306
3.0925
3.0919
3.09124
3.09049
3.08963
3.08862
3.08746
3.0862
3.08526
3.13319
3.13283
3.13246
3.13209
3.13171
3.13134
3.13095
3.13057
3.13018
3.12979
3.12939
3.12898
3.12858
3.12816
3.12773
3.1273
3.12686
3.1264
3.12593
3.12543
3.12491
3.12436
3.12377
3.12313
3.12241
3.12161
3.1207
3.11967
3.11856
3.11767
3.1611
3.16075
3.1604
3.16004
3.15968
3.15932
3.15896
3.15859
3.15821
3.15784
3.15745
3.15706
3.15667
3.15627
3.15586
3.15545
3.15502
3.15458
3.15413
3.15366
3.15317
3.15265
3.15209
3.1515
3.15085
3.15013
3.14933
3.14845
3.14752
3.14677
3.18439
3.18407
3.18375
3.18342
3.1831
3.18276
3.18243
3.18209
3.18175
3.1814
3.18105
3.18069
3.18033
3.17996
3.17958
3.1792
3.17881
3.1784
3.17799
3.17756
3.17711
3.17664
3.17614
3.17561
3.17503
3.17441
3.17373
3.173
3.17226
3.17167
3.20332
3.20304
3.20276
3.20247
3.20218
3.20188
3.20158
3.20128
3.20098
3.20067
3.20035
3.20003
3.19971
3.19938
3.19905
3.1987
3.19836
3.198
3.19763
3.19724
3.19685
3.19643
3.19599
3.19553
3.19504
3.19451
3.19395
3.19336
3.19279
3.19238
3.21819
3.21794
3.21769
3.21744
3.21718
3.21692
3.21666
3.2164
3.21613
3.21585
3.21558
3.21529
3.21501
3.21472
3.21442
3.21411
3.2138
3.21348
3.21315
3.2128
3.21245
3.21207
3.21168
3.21126
3.21083
3.21038
3.20993
3.20951
3.20924
3.2301
3.22989
3.22968
3.22946
3.22925
3.22903
3.2288
3.22858
3.22835
3.22811
3.22788
3.22764
3.22739
3.22714
3.22689
3.22663
3.22636
3.22609
3.22581
3.22552
3.22522
3.2249
3.22457
3.22424
3.22389
3.22354
3.2232
3.22292
3.22278
3.23935
3.23918
3.239
3.23882
3.23864
3.23845
3.23827
3.23808
3.23788
3.23769
3.23749
3.23729
3.23709
3.23688
3.23666
3.23645
3.23622
3.23599
3.23576
3.23552
3.23527
3.23501
3.23474
3.23447
3.2342
3.23394
3.23371
3.23353
3.23349
3.24645
3.2463
3.24616
3.24601
3.24586
3.24571
3.24555
3.2454
3.24524
3.24508
3.24492
3.24475
3.24458
3.24441
3.24423
3.24405
3.24387
3.24368
3.24349
3.24329
3.24309
3.24288
3.24267
3.24246
3.24225
3.24207
3.24192
3.24183
3.24187
3.25188
3.25176
3.25164
3.25152
3.2514
3.25127
3.25114
3.25102
3.25088
3.25075
3.25062
3.25048
3.25034
3.2502
3.25006
3.24991
3.24976
3.24961
3.24945
3.24929
3.24912
3.24896
3.24879
3.24863
3.24848
3.24835
3.24827
3.24825
3.24836
3.25589
3.2558
3.2557
3.2556
3.2555
3.2554
3.2553
3.2552
3.2551
3.25499
3.25488
3.25477
3.25466
3.25455
3.25443
3.25432
3.2542
3.25407
3.25395
3.25382
3.25369
3.25356
3.25344
3.25332
3.25322
3.25314
3.25312
3.25316
3.25331
3.25877
3.2587
3.25863
3.25855
3.25848
3.2584
3.25832
3.25824
3.25816
3.25808
3.258
3.25792
3.25783
3.25774
3.25766
3.25757
3.25747
3.25738
3.25729
3.25719
3.2571
3.257
3.25691
3.25684
3.25678
3.25675
3.25677
3.25686
3.25705
3.26084
3.26079
3.26073
3.26068
3.26062
3.26057
3.26051
3.26045
3.26039
3.26033
3.26027
3.26021
3.26014
3.26008
3.26001
3.25995
3.25988
3.25981
3.25975
3.25968
3.25961
3.25955
3.25949
3.25944
3.25942
3.25943
3.25948
3.25961
3.25984
3.26233
3.26229
3.26225
3.26221
3.26217
3.26213
3.26208
3.26204
3.262
3.26196
3.26191
3.26187
3.26182
3.26178
3.26173
3.26168
3.26164
3.26159
3.26154
3.2615
3.26145
3.26141
3.26138
3.26136
3.26136
3.2614
3.26149
3.26164
3.26189
3.26339
3.26336
3.26333
3.2633
3.26327
3.26324
3.26321
3.26318
3.26315
3.26312
3.26309
3.26306
3.26303
3.263
3.26297
3.26294
3.26291
3.26287
3.26284
3.26281
3.26279
3.26276
3.26275
3.26275
3.26278
3.26283
3.26294
3.26312
3.26338
3.26414
3.26412
3.2641
3.26408
3.26406
3.26404
3.26402
3.264
3.26398
3.26396
3.26394
3.26392
3.2639
3.26388
3.26385
3.26383
3.26381
3.26379
3.26377
3.26376
3.26374
3.26373
3.26374
3.26375
3.26379
3.26386
3.26398
3.26417
3.26445
3.26467
3.26465
3.26464
3.26463
3.26461
3.2646
3.26459
3.26457
3.26456
3.26455
3.26453
3.26452
3.26451
3.26449
3.26448
3.26447
3.26445
3.26444
3.26443
3.26442
3.26442
3.26442
3.26443
3.26446
3.26451
3.26459
3.26472
3.26492
3.26519
3.26503
3.26502
3.26501
3.26501
3.265
3.26499
3.26498
3.26497
3.26496
3.26495
3.26494
3.26494
3.26493
3.26492
3.26491
3.26491
3.2649
3.26489
3.26489
3.26489
3.26489
3.26489
3.26491
3.26494
3.265
3.26509
3.26523
3.26543
3.26571
3.26528
3.26527
3.26526
3.26526
3.26525
3.26525
3.26524
3.26524
3.26523
3.26522
3.26522
3.26522
3.26521
3.26521
3.2652
3.2652
3.26519
3.26519
3.26519
3.26519
3.2652
3.26521
3.26523
3.26527
3.26533
3.26542
3.26557
3.26577
3.26605
3.26543
3.26542
3.26542
3.26541
3.26541
3.26541
3.2654
3.2654
3.2654
3.26539
3.26539
3.26539
3.26538
3.26538
3.26538
3.26538
3.26538
3.26538
3.26538
3.26538
3.26539
3.26541
3.26543
3.26547
3.26553
3.26563
3.26577
3.26598
3.26626
3.2655
3.2655
3.26549
3.26549
3.26549
3.26548
3.26548
3.26548
3.26548
3.26548
3.26547
3.26547
3.26547
3.26547
3.26547
3.26547
3.26547
3.26547
3.26547
3.26548
3.26549
3.2655
3.26553
3.26557
3.26564
3.26573
3.26588
3.26608
3.26637
3.26551
3.26551
3.2655
3.2655
3.2655
3.2655
3.26549
3.26549
3.26549
3.26549
3.26549
3.26548
3.26548
3.26548
3.26548
3.26548
3.26548
3.26548
3.26548
3.26549
3.2655
3.26552
3.26554
3.26559
3.26565
3.26575
3.2659
3.2661
3.26638
3.26543
3.26543
3.26542
3.26542
3.26542
3.26541
3.26541
3.26541
3.2654
3.2654
3.2654
3.26539
3.26539
3.26539
3.26539
3.26538
3.26538
3.26538
3.26538
3.26539
3.2654
3.26541
3.26544
3.26548
3.26554
3.26564
3.26578
3.26599
3.26627
3.26526
3.26525
3.26524
3.26524
3.26523
3.26522
3.26522
3.26521
3.2652
3.2652
3.26519
3.26519
3.26518
3.26517
3.26517
3.26516
3.26516
3.26515
3.26515
3.26515
3.26516
3.26517
3.26519
3.26523
3.26529
3.26538
3.26552
3.26573
3.26601
3.26496
3.26495
3.26494
3.26492
3.26491
3.2649
3.26489
3.26488
3.26486
3.26485
3.26484
3.26483
3.26482
3.2648
3.26479
3.26478
3.26477
3.26476
3.26475
3.26474
3.26474
3.26474
3.26476
3.26478
3.26484
3.26492
3.26506
3.26526
3.26554
3.2645
3.26448
3.26446
3.26444
3.26442
3.2644
3.26438
3.26436
3.26434
3.26431
3.26429
3.26427
3.26425
3.26422
3.2642
3.26418
3.26416
3.26413
3.26411
3.26409
3.26408
3.26407
3.26407
3.26409
3.26412
3.2642
3.26432
3.26451
3.26479
3.26382
3.26379
3.26375
3.26372
3.26369
3.26365
3.26362
3.26358
3.26355
3.26351
3.26347
3.26343
3.26339
3.26336
3.26332
3.26328
3.26323
3.26319
3.26315
3.26312
3.26308
3.26305
3.26303
3.26302
3.26304
3.26309
3.26319
3.26336
3.26362
3.26284
3.26279
3.26273
3.26268
3.26263
3.26257
3.26251
3.26246
3.2624
3.26234
3.26228
3.26221
3.26215
3.26208
3.26202
3.26195
3.26188
3.26181
3.26174
3.26168
3.26161
3.26154
3.26149
3.26145
3.26142
3.26144
3.2615
3.26164
3.26188
3.26144
3.26136
3.26128
3.2612
3.26111
3.26103
3.26094
3.26085
3.26075
3.26066
3.26056
3.26046
3.26036
3.26026
3.26015
3.26005
3.25994
3.25982
3.25971
3.25959
3.25948
3.25937
3.25926
3.25916
3.25909
3.25904
3.25905
3.25913
3.25933
3.25948
3.25936
3.25924
3.25911
3.25898
3.25885
3.25872
3.25858
3.25844
3.25829
3.25814
3.25799
3.25784
3.25768
3.25752
3.25735
3.25718
3.257
3.25682
3.25664
3.25646
3.25627
3.25609
3.25591
3.25575
3.25563
3.25555
3.25555
3.25569
3.25677
3.25659
3.2564
3.25622
3.25603
3.25583
3.25563
3.25542
3.25521
3.255
3.25477
3.25455
3.25431
3.25408
3.25383
3.25358
3.25332
3.25306
3.25279
3.25251
3.25222
3.25194
3.25165
3.25136
3.25109
3.25084
3.25064
3.25053
3.25057
3.25303
3.25277
3.25251
3.25224
3.25196
3.25167
3.25138
3.25108
3.25077
3.25046
3.25014
3.2498
3.24946
3.24912
3.24876
3.24839
3.24801
3.24762
3.24722
3.24681
3.24639
3.24596
3.24552
3.24508
3.24465
3.24424
3.24388
3.24361
3.24351
3.24802
3.24765
3.24728
3.24689
3.24649
3.24608
3.24567
3.24524
3.2448
3.24435
3.24388
3.24341
3.24292
3.24242
3.24191
3.24138
3.24083
3.24027
3.2397
3.2391
3.2385
3.23787
3.23723
3.23658
3.23593
3.2353
3.23471
3.23422
3.23394
3.24135
3.24084
3.24031
3.23977
3.23921
3.23864
3.23805
3.23745
3.23683
3.2362
3.23555
3.23488
3.23419
3.23349
3.23276
3.23202
3.23125
3.23047
3.22965
3.22882
3.22796
3.22707
3.22617
3.22524
3.22431
3.22338
3.22249
3.2217
3.22117
3.23226
3.23156
3.23083
3.23009
3.22933
3.22855
3.22774
3.22692
3.22608
3.22521
3.22432
3.22341
3.22247
3.22151
3.22052
3.2195
3.21846
3.21738
3.21628
3.21514
3.21396
3.21275
3.21151
3.21024
3.20895
3.20766
3.20641
3.20527
3.20443
3.21984
3.2189
3.21793
3.21694
3.21592
3.21488
3.21382
3.21272
3.2116
3.21045
3.20927
3.20806
3.20682
3.20554
3.20423
3.20289
3.20151
3.20009
3.19863
3.19713
3.19558
3.194
3.19236
3.19069
3.18899
3.18728
3.18561
3.18407
3.18292
3.20333
3.20212
3.20088
3.19962
3.19832
3.19699
3.19563
3.19424
3.19281
3.19135
3.18986
3.18833
3.18676
3.18515
3.18351
3.18182
3.18009
3.17831
3.17649
3.17462
3.1727
3.17072
3.1687
3.16662
3.16451
3.16238
3.16032
3.1584
3.15701
3.18232
3.18086
3.17937
3.17786
3.1763
3.17472
3.1731
3.17145
3.16976
3.16804
3.16628
3.16448
3.16264
3.16077
3.15885
3.15689
3.15488
3.15283
3.15073
3.14858
3.14638
3.14412
3.14181
3.13944
3.13704
3.13463
3.13231
3.1302
3.12881
3.15574
3.15413
3.15248
3.15081
3.1491
3.14737
3.1456
3.14381
3.14198
3.14012
3.13823
3.1363
3.13434
3.13235
3.13032
3.12825
3.12615
3.124
3.12182
3.11959
3.11731
3.11498
3.11261
3.11019
3.10774
3.10529
3.10298
3.10095
3.09996
3.12239
3.12081
3.11921
3.11758
3.11594
3.11427
3.11258
3.11088
3.10915
3.1074
3.10563
3.10384
3.10202
3.10019
3.09833
3.09645
3.09454
3.09261
3.09065
3.08866
3.08664
3.08459
3.0825
3.08037
3.07823
3.0761
3.07417
3.07262
3.07258
3.08663
3.0853
3.08396
3.08261
3.08125
3.07987
3.0785
3.07711
3.07571
3.07431
3.0729
3.07148
3.07005
3.06862
3.06717
3.06572
3.06426
3.06279
3.0613
3.0598
3.05828
3.05673
3.05516
3.05356
3.05195
3.05036
3.04901
3.04816
3.04951
3.05601
3.05503
3.05406
3.05308
3.0521
3.05113
3.05016
3.0492
3.04824
3.04728
3.04633
3.04539
3.04445
3.04352
3.04259
3.04167
3.04075
3.03983
3.03891
3.03799
3.03706
3.03612
3.03516
3.03417
3.03317
3.03217
3.03145
3.03137
3.0344
3.03344
3.03297
3.03252
3.03208
3.03165
3.03124
3.03085
3.03047
3.03011
3.02978
3.02946
3.02915
3.02887
3.02861
3.02836
3.02814
3.02792
3.02772
3.02753
3.02733
3.02713
3.02691
3.02666
3.02638
3.02609
3.02606
3.02679
3.03187
3.02724
3.02743
3.02764
3.02787
3.02814
3.02843
3.02875
3.02911
3.02949
3.0299
3.03035
3.03083
3.03134
3.03189
3.03246
3.03306
3.03369
3.03435
3.03501
3.03569
3.03636
3.037
3.0376
3.03815
3.03863
3.03931
3.04085
3.0483
3.04606
3.04704
3.04806
3.04912
3.05022
3.05136
3.05254
3.05376
3.05503
3.05635
3.05771
3.05911
3.06057
3.06206
3.0636
3.06518
3.0668
3.06845
3.07012
3.0718
3.07346
3.0751
3.07666
3.07813
3.07942
3.08081
3.08301
3.09308
3.105
3.10694
3.10893
3.11097
3.11307
3.11522
3.11743
3.1197
3.12202
3.12441
3.12686
3.12936
3.13193
3.13455
3.13723
3.13996
3.14273
3.14554
3.14838
3.15122
3.15405
3.15681
3.15946
3.16194
3.16409
3.16611
3.16871
3.18151
3.23103
3.23415
3.23734
3.2406
3.24393
3.24733
3.25081
3.25435
3.25798
3.26168
3.26546
3.26931
3.27323
3.27723
3.2813
3.28543
3.28961
3.29383
3.29808
3.30233
3.30653
3.31063
3.31455
3.31816
3.32122
3.32376
3.32623
3.3415
3.48108
3.48578
3.49056
3.49544
3.50041
3.50547
3.51062
3.51588
3.52123
3.52667
3.53222
3.53786
3.54359
3.54941
3.55532
3.5613
3.56734
3.57342
3.57952
3.58559
3.59158
3.59741
3.60291
3.6079
3.61193
3.61475
3.61608
3.63259
4.0073
4.01445
4.02172
4.02911
4.03663
4.04428
4.05205
4.05996
4.068
4.07617
4.08447
4.09289
4.10144
4.1101
4.11887
4.12773
4.13666
4.14562
4.15457
4.16346
4.17217
4.18056
4.18838
4.19529
4.20042
4.20298
4.2008
4.21359
5.41656
5.42899
5.44162
5.45445
5.46748
5.48071
5.49415
5.5078
5.52165
5.53571
5.54998
5.56443
5.57907
5.59388
5.60883
5.6239
5.63904
5.65419
5.66925
5.68409
5.69851
5.7122
5.72465
5.73502
5.74161
5.74134
5.72733
5.70751
13.0431
13.0796
13.1167
13.1543
13.1925
13.2312
13.2705
13.3103
13.3507
13.3916
13.433
13.4749
13.5173
13.56
13.603
13.6461
13.6891
13.7319
13.7739
13.8147
13.8534
13.8884
13.9186
13.9371
13.9435
13.8999
13.7898
13.2827
6.67467
6.8392
6.9913
7.10788
7.18253
7.23815
7.29066
7.34886
7.41455
7.48831
7.57048
7.66087
7.75947
7.86659
7.98302
8.10941
8.24768
8.39746
8.56517
8.74154
8.9573
9.15294
9.47725
9.64631
10.5014
3.54445
3.57167
3.60742
3.64293
3.67164
3.69341
3.71127
3.72906
3.74782
3.76793
3.78993
3.8142
3.84092
3.87023
3.90232
3.93745
3.97591
4.01822
4.06473
4.11636
4.17453
4.23848
4.31708
4.40235
4.56863
3.12045
3.13227
3.14884
3.16676
3.18253
3.19474
3.20414
3.21244
3.22068
3.22936
3.23888
3.24952
3.26143
3.27469
3.28942
3.30575
3.32381
3.34391
3.36618
3.39126
3.41944
3.45157
3.48929
3.53563
3.60909
3.03269
3.04007
3.0495
3.05978
3.06908
3.07627
3.08145
3.08548
3.08912
3.09285
3.097
3.1018
3.10738
3.11379
3.1211
3.1294
3.13879
3.14944
3.16146
3.17526
3.19099
3.20945
3.23104
3.25967
3.3016
3.03104
3.03653
3.04251
3.04871
3.05424
3.05835
3.06099
3.06258
3.06369
3.06471
3.06593
3.06754
3.06964
3.07227
3.07548
3.07934
3.0839
3.08929
3.0956
3.10311
3.11192
3.12272
3.13551
3.154
3.18025
3.05623
3.06062
3.06472
3.0686
3.07185
3.07405
3.07509
3.07524
3.07488
3.07434
3.07386
3.07359
3.07363
3.07401
3.07476
3.07593
3.07755
3.07973
3.08252
3.08614
3.09064
3.09665
3.10397
3.11599
3.13292
3.08851
3.09211
3.09512
3.09764
3.09953
3.10055
3.10065
3.09997
3.09879
3.09738
3.09593
3.09458
3.0934
3.09243
3.0917
3.09122
3.09103
3.09119
3.09175
3.0929
3.09462
3.09752
3.10124
3.10894
3.11976
3.12039
3.12337
3.12568
3.12741
3.12851
3.12886
3.12843
3.12734
3.12576
3.12392
3.12198
3.12005
3.11821
3.11649
3.11489
3.11344
3.11215
3.11109
3.11027
3.10985
3.10979
3.11067
3.11199
3.11674
3.12334
3.14902
3.15148
3.15333
3.15459
3.15527
3.15528
3.15462
3.15338
3.15169
3.14971
3.14759
3.14543
3.14328
3.14119
3.13915
3.13719
3.1353
3.13354
3.1319
3.13054
3.12938
3.12899
3.12873
3.13148
3.13508
3.17352
3.17557
3.17709
3.17809
3.17855
3.17844
3.17774
3.17652
3.17489
3.17297
3.17087
3.1687
3.1665
3.1643
3.16211
3.15993
3.15778
3.15568
3.15363
3.15177
3.14997
3.14883
3.14758
3.149
3.15044
3.19389
3.1956
3.19689
3.19774
3.19812
3.198
3.19739
3.19631
3.19485
3.1931
3.19116
3.18912
3.18702
3.18489
3.18273
3.18055
3.17836
3.17618
3.17398
3.17192
3.16983
3.1683
3.16647
3.16703
3.16694
3.2105
3.21193
3.21305
3.21381
3.21419
3.21414
3.21367
3.21279
3.21156
3.21006
3.20836
3.20654
3.20463
3.20268
3.20068
3.19864
3.19655
3.19445
3.1923
3.19025
3.1881
3.18644
3.18433
3.18438
3.18319
3.22382
3.22503
3.22602
3.22675
3.22715
3.22722
3.22692
3.22627
3.2253
3.22407
3.22265
3.2211
3.21945
3.21774
3.21597
3.21415
3.21227
3.21036
3.20838
3.20647
3.20441
3.20282
3.20063
3.20042
3.19847
3.23437
3.23541
3.2363
3.237
3.23747
3.23765
3.23753
3.23711
3.23642
3.23548
3.23435
3.23309
3.23172
3.23029
3.22879
3.22723
3.22561
3.22396
3.22222
3.22055
3.2187
3.21727
3.21516
3.21486
3.21241
3.24263
3.24353
3.24435
3.24504
3.24556
3.24586
3.24592
3.24573
3.24529
3.24464
3.2438
3.24283
3.24176
3.24061
3.23939
3.23812
3.23679
3.23543
3.23398
3.23259
3.231
3.22982
3.22788
3.22762
3.22486
3.24902
3.24981
3.25057
3.25126
3.25183
3.25225
3.25247
3.25249
3.25229
3.2519
3.25134
3.25065
3.24986
3.249
3.24807
3.24709
3.24605
3.24499
3.24385
3.24277
3.24148
3.24059
3.23888
3.23873
3.2358
3.25389
3.2546
3.25532
3.25601
3.25663
3.25715
3.25752
3.25772
3.25774
3.25759
3.25729
3.25686
3.25634
3.25574
3.25509
3.25439
3.25364
3.25288
3.25204
3.25128
3.2503
3.24972
3.24827
3.2483
3.24529
3.25758
3.25822
3.2589
3.2596
3.26026
3.26086
3.26136
3.26172
3.26194
3.26201
3.26193
3.26174
3.26146
3.26112
3.26071
3.26028
3.2598
3.25932
3.25878
3.25832
3.25765
3.25738
3.25621
3.25643
3.25342
3.26032
3.26092
3.26157
3.26227
3.26297
3.26364
3.26424
3.26474
3.26513
3.26538
3.26551
3.26553
3.26547
3.26535
3.26518
3.26498
3.26475
3.26453
3.26427
3.26409
3.26372
3.26375
3.26285
3.26328
3.26032
3.26234
3.2629
3.26353
3.26423
3.26495
3.26568
3.26637
3.26699
3.26752
3.26793
3.26824
3.26844
3.26857
3.26864
3.26868
3.26869
3.26869
3.26871
3.26869
3.26878
3.26868
3.26898
3.26834
3.26898
3.26611
3.2638
3.26433
3.26495
3.26564
3.26639
3.26716
3.26793
3.26864
3.26928
3.26983
3.27028
3.27065
3.27094
3.27118
3.27139
3.27159
3.27178
3.27201
3.27221
3.27253
3.27267
3.27322
3.27283
3.27367
3.27089
3.26485
3.26536
3.26596
3.26665
3.26742
3.26822
3.26904
3.26983
3.27057
3.27123
3.2718
3.27229
3.27272
3.2731
3.27346
3.27382
3.27418
3.27458
3.27497
3.27549
3.27585
3.27662
3.27644
3.27745
3.27478
3.26558
3.26607
3.26666
3.26736
3.26813
3.26897
3.26983
3.27068
3.27149
3.27223
3.2729
3.2735
3.27404
3.27453
3.27501
3.2755
3.27599
3.27654
3.27709
3.27779
3.27832
3.27927
3.27928
3.28044
3.27789
3.26609
3.26656
3.26715
3.26784
3.26862
3.26947
3.27037
3.27126
3.27213
3.27294
3.27369
3.27436
3.27498
3.27557
3.27614
3.27673
3.27733
3.278
3.27867
3.27951
3.28019
3.28129
3.28145
3.28273
3.28028
3.26642
3.26689
3.26747
3.26815
3.26894
3.26981
3.27073
3.27165
3.27256
3.27342
3.27422
3.27495
3.27564
3.27629
3.27693
3.27759
3.27827
3.27903
3.2798
3.28073
3.28152
3.28273
3.28302
3.28439
3.28205
3.26662
3.26709
3.26766
3.26835
3.26914
3.27002
3.27095
3.2719
3.27283
3.27372
3.27455
3.27532
3.27605
3.27674
3.27743
3.27814
3.27887
3.27968
3.28052
3.28152
3.28239
3.28368
3.28406
3.28547
3.28323
3.26673
3.26719
3.26776
3.26845
3.26925
3.27013
3.27106
3.27202
3.27297
3.27387
3.27472
3.27551
3.27625
3.27696
3.27768
3.27841
3.27917
3.28001
3.28088
3.28192
3.28284
3.28415
3.2846
3.28602
3.28389
3.26675
3.26721
3.26778
3.26847
3.26927
3.27015
3.27109
3.27205
3.27299
3.2739
3.27474
3.27553
3.27627
3.27698
3.27769
3.27842
3.27919
3.28003
3.28091
3.28195
3.28288
3.28419
3.28468
3.28605
3.28404
3.26664
3.26711
3.26769
3.26838
3.26917
3.27005
3.27098
3.27193
3.27286
3.27374
3.27456
3.27531
3.27602
3.2767
3.27738
3.27808
3.27881
3.27962
3.28046
3.28145
3.28235
3.28361
3.28409
3.28539
3.28346
3.26639
3.26686
3.26745
3.26815
3.26894
3.26981
3.27072
3.27164
3.27253
3.27337
3.27413
3.27483
3.27548
3.2761
3.27671
3.27734
3.278
3.27873
3.27949
3.2804
3.28122
3.28238
3.2828
3.284
3.28211
3.26593
3.26643
3.26702
3.26772
3.26851
3.26937
3.27025
3.27113
3.27196
3.27272
3.27341
3.27402
3.27457
3.2751
3.27561
3.27614
3.27669
3.27731
3.27795
3.27873
3.27942
3.28044
3.28075
3.28184
3.27995
3.2652
3.26571
3.26633
3.26703
3.26782
3.26865
3.26949
3.2703
3.27104
3.27171
3.27228
3.27277
3.2732
3.2736
3.27398
3.27437
3.27478
3.27524
3.27572
3.27633
3.27685
3.2777
3.27785
3.2788
3.2769
3.26406
3.26461
3.26525
3.26596
3.26673
3.26752
3.2683
3.26902
3.26965
3.27018
3.2706
3.27094
3.27121
3.27144
3.27166
3.27187
3.2721
3.27237
3.27266
3.27306
3.27337
3.27401
3.27397
3.27477
3.27286
3.26236
3.26295
3.26362
3.26434
3.26508
3.26582
3.26651
3.26711
3.26759
3.26795
3.26819
3.26833
3.26841
3.26844
3.26846
3.26847
3.26848
3.26853
3.26858
3.26874
3.26881
3.26921
3.26896
3.2696
3.26769
3.25987
3.26052
3.26123
3.26195
3.26266
3.26332
3.26389
3.26433
3.26463
3.26477
3.26479
3.2647
3.26455
3.26435
3.26413
3.2639
3.26367
3.26346
3.26325
3.26315
3.26294
3.2631
3.26262
3.2631
3.26124
3.2563
3.25704
3.25779
3.25852
3.25918
3.25974
3.26015
3.26039
3.26045
3.26034
3.26009
3.25974
3.25932
3.25886
3.25838
3.25788
3.25738
3.2569
3.2564
3.25602
3.25553
3.25543
3.25473
3.25507
3.25331
3.25129
3.25214
3.25295
3.25368
3.25427
3.25469
3.2549
3.25489
3.25466
3.25425
3.2537
3.25306
3.25235
3.25161
3.25084
3.25006
3.24927
3.2485
3.24772
3.24705
3.24629
3.24594
3.24504
3.2453
3.24374
3.24437
3.24537
3.24626
3.24697
3.24747
3.24771
3.24767
3.24736
3.24681
3.24606
3.24518
3.24421
3.2432
3.24216
3.24111
3.24004
3.23897
3.23792
3.23685
3.23592
3.23491
3.23436
3.23331
3.23358
3.23234
3.23498
3.23618
3.23716
3.23786
3.23823
3.23824
3.23791
3.23725
3.23632
3.23521
3.23397
3.23268
3.23137
3.23005
3.22872
3.22739
3.22605
3.22475
3.22345
3.2223
3.2211
3.22044
3.21932
3.21973
3.21899
3.22245
3.2239
3.22499
3.22566
3.22588
3.22563
3.22495
3.22391
3.22258
3.22109
3.21952
3.21792
3.21634
3.21476
3.2132
3.21165
3.21012
3.20863
3.20717
3.2059
3.20462
3.20396
3.20292
3.20368
3.20367
3.20602
3.20778
3.20899
3.20964
3.20968
3.20914
3.20809
3.20664
3.20493
3.20308
3.20121
3.19937
3.19758
3.19584
3.19413
3.19246
3.19082
3.18928
3.18779
3.18656
3.18536
3.18492
3.18415
3.18556
3.18661
3.1849
3.18701
3.18839
3.18903
3.1889
3.18806
3.18665
3.18482
3.18276
3.18065
3.17858
3.1766
3.17473
3.17296
3.17125
3.16962
3.16806
3.16665
3.16534
3.16439
3.16353
3.16361
3.16342
3.16592
3.16845
3.15952
3.16205
3.16364
3.16431
3.16407
3.16302
3.16133
3.15923
3.15696
3.15473
3.15263
3.15072
3.14897
3.14737
3.14589
3.14454
3.14333
3.14233
3.14151
3.14117
3.141
3.14201
3.1428
3.14694
3.15147
3.13195
3.13494
3.1368
3.13762
3.13741
3.13629
3.1345
3.13231
3.13004
3.1279
3.12601
3.1244
3.12302
3.12185
3.12087
3.12008
3.1195
3.11924
3.11925
3.11989
3.12079
3.12315
3.12536
3.13167
3.13872
3.1039
3.10738
3.10962
3.11077
3.11081
3.10984
3.10815
3.10611
3.10408
3.10229
3.10086
3.0998
3.09906
3.09861
3.09841
3.0985
3.09889
3.09972
3.10093
3.10295
3.10536
3.10952
3.11362
3.12263
3.13284
3.07749
3.08149
3.08428
3.08604
3.0866
3.08606
3.08474
3.0831
3.08157
3.08039
3.0797
3.07948
3.07968
3.08025
3.08116
3.08247
3.0842
3.08649
3.08932
3.09314
3.09751
3.10396
3.1105
3.12277
3.13691
3.05547
3.06006
3.06366
3.06638
3.06782
3.06801
3.06734
3.06638
3.06562
3.06535
3.06569
3.06661
3.06806
3.06998
3.07237
3.07527
3.07872
3.0829
3.08778
3.09389
3.10073
3.11001
3.11956
3.13575
3.15474
3.0414
3.04669
3.05148
3.05562
3.05834
3.05959
3.05986
3.05988
3.06018
3.06112
3.0628
3.0652
3.06825
3.0719
3.07613
3.08104
3.08665
3.09319
3.10062
3.10954
3.11943
3.13213
3.14539
3.16622
3.19126
3.03992
3.04619
3.0527
3.05882
3.06327
3.06593
3.06745
3.06874
3.07043
3.0729
3.07628
3.08053
3.08556
3.09135
3.09789
3.10526
3.11354
3.12298
3.13355
3.1459
3.1595
3.17638
3.19415
3.22053
3.25316
3.05748
3.06524
3.07422
3.08303
3.08971
3.09412
3.09722
3.1001
3.10352
3.10792
3.1134
3.11994
3.12744
3.13587
3.14525
3.15568
3.16725
3.18025
3.19467
3.21124
3.22942
3.25139
3.27473
3.30782
3.35019
3.10371
3.11386
3.12638
3.13875
3.14821
3.15477
3.15981
3.16467
3.17026
3.17705
3.18517
3.19457
3.20515
3.21689
3.22982
3.24407
3.25975
3.27721
3.29645
3.31829
3.34219
3.37053
3.40093
3.44232
3.49761
3.19446
3.20854
3.22612
3.24315
3.25607
3.26526
3.27271
3.28008
3.28842
3.29827
3.30977
3.32285
3.33739
3.35339
3.3709
3.39008
3.41108
3.43429
3.45978
3.48844
3.51981
3.55641
3.59611
3.64819
3.72141
3.35898
3.37961
3.40461
3.42787
3.44516
3.45765
3.46823
3.47891
3.49093
3.50492
3.52099
3.53904
3.55897
3.58077
3.60452
3.63043
3.6587
3.68981
3.72388
3.76194
3.80363
3.85162
3.90447
3.97116
4.07097
3.66024
3.6922
3.72873
3.76076
3.78391
3.80093
3.81595
3.83144
3.84886
3.86893
3.89176
3.91723
3.94519
3.97566
4.00876
4.04478
4.08401
4.12703
4.17412
4.2264
4.28393
4.34918
4.42269
4.5112
4.65489
4.26824
4.32163
4.37876
4.42467
4.45691
4.48127
4.50379
4.52751
4.55424
4.58489
4.61954
4.65799
4.70008
4.74584
4.79549
4.84945
4.9082
4.97246
5.04294
5.12069
5.20712
5.30314
5.41546
5.54186
5.77195
5.86232
5.96789
6.07607
6.15101
6.20255
6.24384
6.28408
6.32729
6.37624
6.43229
6.49549
6.56544
6.64192
6.72501
6.81522
6.9132
7.02016
7.13681
7.2657
7.40628
7.56658
7.73722
7.95269
8.16592
8.63556
14.3769
14.7449
15.1362
15.3316
15.4685
15.5919
15.7131
15.8476
16.0045
16.1862
16.3918
16.6192
16.8679
17.1378
17.4316
17.7495
18.1
18.4768
18.9058
19.3507
19.9037
20.4104
21.2082
21.7379
23.6237
)
;

boundaryField
{
    inlet
    {
        type            fixedValue;
        value           nonuniform 0();
    }
    outlet
    {
        type            zeroGradient;
    }
    upperWall
    {
        Cmu             0.09;
        kappa           0.41;
        E               9.8;
        type            epsilonWallFunction;
        value           nonuniform List<scalar> 
53
(
13.0431
13.0796
13.1167
13.1543
13.1925
13.2312
13.2705
13.3103
13.3507
13.3916
13.433
13.4749
13.5173
13.56
13.603
13.6461
13.6891
13.7319
13.7739
13.8147
13.8534
13.8884
13.9186
13.9371
13.9435
13.8999
13.7898
13.2827
14.3769
14.7449
15.1362
15.3316
15.4685
15.5919
15.7131
15.8476
16.0045
16.1862
16.3918
16.6192
16.8679
17.1378
17.4316
17.7495
18.1
18.4768
18.9058
19.3507
19.9037
20.4104
21.2082
21.7379
23.6237
)
;
    }
    lowerWall
    {
        Cmu             0.09;
        kappa           0.41;
        E               9.8;
        type            epsilonWallFunction;
        value           nonuniform List<scalar> 
55
(
6.5054
6.5109
6.51646
6.52208
6.52775
6.53347
6.53925
6.54507
6.55093
6.55682
6.56274
6.56867
6.57459
6.58048
6.58631
6.59204
6.59762
6.60298
6.60801
6.61257
6.61647
6.6194
6.62091
6.62027
6.6162
6.60631
6.58578
6.5437
6.45719
6.27782
6.67467
6.8392
6.9913
7.10788
7.18253
7.23815
7.29066
7.34886
7.41455
7.48831
7.57048
7.66087
7.75947
7.86659
7.98302
8.10941
8.24768
8.39746
8.56517
8.74154
8.9573
9.15294
9.47725
9.64631
10.5014
)
;
    }
    frontAndBack
    {
        type            empty;
    }
    procBoundary0to1
    {
        type            processor;
        value           nonuniform List<scalar> 
59
(
6.49995
3.49252
3.10372
3.03164
3.03818
3.06752
3.1015
3.13355
3.16144
3.1847
3.2036
3.21843
3.21843
3.23031
3.23953
3.24659
3.25199
3.25598
3.25885
3.2609
3.26237
3.26342
3.26416
3.26468
3.26504
3.26528
3.26543
3.2655
3.26551
3.26544
3.26526
3.26497
3.26452
3.26385
3.26289
3.26152
3.2596
3.25694
3.25329
3.24838
3.24186
3.23295
3.22076
3.20451
3.18374
3.15733
3.12396
3.08796
3.05699
3.03392
3.03392
3.02708
3.04512
3.10311
3.22797
3.47646
4.00026
5.40431
13.0071
)
;
    }
}


// ************************************************************************* //
