/*--------------------------------*- C++ -*----------------------------------*\
  =========                 |
  \\      /  F ield         | OpenFOAM: The Open Source CFD Toolbox
   \\    /   O peration     | Website:  https://openfoam.org
    \\  /    A nd           | Version:  6
     \\/     M anipulation  |
\*---------------------------------------------------------------------------*/
FoamFile
{
    version     2.0;
    format      ascii;
    class       volScalarField;
    location    "0.03";
    object      k;
}
// * * * * * * * * * * * * * * * * * * * * * * * * * * * * * * * * * * * * * //

dimensions      [0 2 -2 0 0 0 0];

internalField   nonuniform List<scalar> 
3080
(
0.0389323
0.0389138
0.0388952
0.0388763
0.0388573
0.0388381
0.0388187
0.038799
0.0387791
0.0387589
0.0387384
0.0387175
0.0386961
0.0386742
0.0386515
0.0386281
0.0386036
0.0385777
0.0385501
0.0385202
0.0384872
0.0384499
0.0384066
0.0383543
0.0382882
0.0381989
0.0380677
0.0378526
0.0374649
0.0367156
0.0792383
0.0791945
0.0791504
0.0791059
0.079061
0.0790157
0.07897
0.0789239
0.0788772
0.07883
0.0787821
0.0787335
0.0786841
0.0786336
0.0785819
0.0785287
0.0784737
0.0784163
0.0783559
0.0782916
0.0782219
0.078145
0.0780576
0.0779548
0.0778277
0.0776599
0.0774165
0.07703
0.0763232
0.0751998
0.10068
0.100625
0.100568
0.100512
0.100454
0.100397
0.100338
0.10028
0.10022
0.10016
0.100099
0.100037
0.0999744
0.0999104
0.099845
0.099778
0.0997089
0.0996372
0.0995622
0.099483
0.0993981
0.0993054
0.0992017
0.099082
0.0989374
0.0987521
0.0984947
0.0981065
0.0974602
0.0964842
0.115765
0.115702
0.115639
0.115575
0.11551
0.115445
0.115379
0.115313
0.115246
0.115178
0.115109
0.115039
0.114968
0.114896
0.114823
0.114748
0.11467
0.11459
0.114507
0.114419
0.114325
0.114224
0.114112
0.113984
0.113832
0.113642
0.113386
0.113017
0.112448
0.111646
0.127464
0.127398
0.12733
0.127263
0.127194
0.127125
0.127056
0.126985
0.126914
0.126842
0.126769
0.126696
0.126621
0.126545
0.126467
0.126387
0.126306
0.126221
0.126134
0.126042
0.125944
0.125839
0.125723
0.125592
0.125439
0.12525
0.125002
0.124659
0.124162
0.1235
0.136862
0.136795
0.136727
0.136658
0.136589
0.136519
0.136449
0.136377
0.136305
0.136232
0.136158
0.136084
0.136008
0.13593
0.135852
0.135771
0.135688
0.135603
0.135514
0.135422
0.135324
0.135218
0.135103
0.134973
0.134823
0.13464
0.134407
0.134093
0.133661
0.133112
0.144516
0.14445
0.144383
0.144316
0.144248
0.144179
0.14411
0.14404
0.143969
0.143898
0.143825
0.143752
0.143677
0.143602
0.143524
0.143445
0.143364
0.14328
0.143194
0.143103
0.143007
0.142905
0.142793
0.142668
0.142524
0.142352
0.142136
0.141854
0.141481
0.141025
0.150772
0.150709
0.150646
0.150582
0.150517
0.150452
0.150386
0.150319
0.150251
0.150183
0.150114
0.150043
0.149972
0.1499
0.149826
0.14975
0.149673
0.149593
0.14951
0.149423
0.149332
0.149235
0.149129
0.149011
0.148877
0.148718
0.148522
0.148273
0.147954
0.147575
0.15588
0.155822
0.155763
0.155703
0.155643
0.155582
0.15552
0.155458
0.155395
0.155331
0.155266
0.155201
0.155134
0.155067
0.154997
0.154927
0.154854
0.15478
0.154703
0.154622
0.154537
0.154446
0.154348
0.15424
0.154117
0.153973
0.153798
0.153581
0.15331
0.152998
0.160032
0.159979
0.159925
0.15987
0.159815
0.15976
0.159704
0.159647
0.159589
0.159531
0.159472
0.159412
0.159351
0.159289
0.159226
0.159161
0.159095
0.159027
0.158956
0.158882
0.158805
0.158722
0.158633
0.158535
0.158424
0.158296
0.158143
0.157957
0.15773
0.157474
0.163383
0.163336
0.163287
0.163239
0.16319
0.16314
0.16309
0.163039
0.162987
0.162935
0.162882
0.162828
0.162774
0.162718
0.162661
0.162603
0.162544
0.162483
0.162419
0.162353
0.162284
0.16221
0.16213
0.162043
0.161946
0.161834
0.161702
0.161544
0.161356
0.161149
0.166024
0.165982
0.165939
0.165896
0.165852
0.165808
0.165763
0.165718
0.165672
0.165625
0.165578
0.16553
0.165481
0.165431
0.16538
0.165328
0.165274
0.165218
0.16516
0.165099
0.165034
0.164964
0.164888
0.164804
0.164708
0.164596
0.164465
0.164311
0.164144
0.168155
0.168119
0.168082
0.168045
0.168007
0.167969
0.167931
0.167891
0.167852
0.167812
0.167771
0.167729
0.167687
0.167644
0.167599
0.167554
0.167507
0.167459
0.167409
0.167356
0.1673
0.16724
0.167176
0.167104
0.167023
0.16693
0.166822
0.166697
0.166565
0.169826
0.169796
0.169765
0.169733
0.169701
0.169669
0.169636
0.169603
0.16957
0.169536
0.169501
0.169466
0.16943
0.169393
0.169355
0.169317
0.169277
0.169236
0.169193
0.169149
0.169101
0.169051
0.168996
0.168936
0.168869
0.168793
0.168706
0.168607
0.168504
0.171121
0.171096
0.17107
0.171044
0.171017
0.170991
0.170963
0.170936
0.170908
0.170879
0.17085
0.170821
0.170791
0.17076
0.170729
0.170697
0.170664
0.170629
0.170594
0.170556
0.170517
0.170475
0.17043
0.170381
0.170326
0.170265
0.170196
0.170119
0.17004
0.172121
0.1721
0.172079
0.172057
0.172035
0.172013
0.171991
0.171968
0.171945
0.171921
0.171897
0.171873
0.171848
0.171822
0.171796
0.171769
0.171742
0.171713
0.171684
0.171653
0.17162
0.171586
0.171549
0.171509
0.171465
0.171416
0.171362
0.171303
0.171244
0.172866
0.17285
0.172832
0.172815
0.172798
0.17278
0.172762
0.172743
0.172725
0.172706
0.172686
0.172667
0.172647
0.172626
0.172605
0.172584
0.172561
0.172538
0.172515
0.17249
0.172464
0.172436
0.172407
0.172375
0.172341
0.172303
0.172262
0.172218
0.172175
0.173406
0.173393
0.17338
0.173367
0.173353
0.17334
0.173326
0.173312
0.173297
0.173283
0.173268
0.173253
0.173237
0.173222
0.173205
0.173189
0.173172
0.173154
0.173136
0.173117
0.173097
0.173076
0.173053
0.173029
0.173004
0.172976
0.172946
0.172916
0.172886
0.173796
0.173786
0.173776
0.173767
0.173757
0.173747
0.173736
0.173726
0.173715
0.173705
0.173694
0.173683
0.173671
0.17366
0.173648
0.173635
0.173623
0.17361
0.173596
0.173582
0.173568
0.173552
0.173536
0.173519
0.173501
0.173481
0.173461
0.173441
0.173423
0.174076
0.17407
0.174063
0.174056
0.174049
0.174041
0.174034
0.174027
0.174019
0.174012
0.174004
0.173996
0.173988
0.17398
0.173971
0.173963
0.173954
0.173944
0.173935
0.173925
0.173915
0.173904
0.173892
0.173881
0.173868
0.173856
0.173843
0.173831
0.173822
0.174278
0.174273
0.174268
0.174264
0.174259
0.174254
0.174249
0.174244
0.174239
0.174233
0.174228
0.174223
0.174217
0.174212
0.174206
0.1742
0.174194
0.174188
0.174181
0.174174
0.174167
0.17416
0.174153
0.174145
0.174138
0.17413
0.174123
0.174118
0.174115
0.174422
0.174419
0.174415
0.174412
0.174409
0.174406
0.174402
0.174399
0.174396
0.174392
0.174389
0.174385
0.174382
0.174378
0.174374
0.174371
0.174367
0.174363
0.174358
0.174354
0.17435
0.174345
0.174341
0.174336
0.174332
0.174328
0.174326
0.174325
0.174326
0.174523
0.174521
0.174519
0.174517
0.174515
0.174513
0.174511
0.174509
0.174507
0.174505
0.174503
0.174501
0.174498
0.174496
0.174494
0.174491
0.174489
0.174487
0.174484
0.174481
0.174479
0.174476
0.174474
0.174472
0.17447
0.174469
0.174469
0.174471
0.174476
0.174594
0.174592
0.174591
0.17459
0.174589
0.174588
0.174586
0.174585
0.174584
0.174583
0.174582
0.17458
0.174579
0.174578
0.174577
0.174575
0.174574
0.174573
0.174571
0.17457
0.174569
0.174567
0.174566
0.174566
0.174566
0.174567
0.174569
0.174573
0.174581
0.174641
0.17464
0.17464
0.174639
0.174638
0.174638
0.174637
0.174636
0.174636
0.174635
0.174635
0.174634
0.174633
0.174633
0.174632
0.174632
0.174631
0.17463
0.17463
0.174629
0.174629
0.174628
0.174628
0.174629
0.17463
0.174632
0.174635
0.174641
0.17465
0.17467
0.17467
0.17467
0.174669
0.174669
0.174669
0.174668
0.174668
0.174668
0.174668
0.174667
0.174667
0.174667
0.174667
0.174667
0.174666
0.174666
0.174666
0.174666
0.174666
0.174666
0.174666
0.174666
0.174667
0.174669
0.174672
0.174676
0.174683
0.174693
0.174685
0.174685
0.174685
0.174684
0.174684
0.174684
0.174684
0.174684
0.174684
0.174684
0.174684
0.174684
0.174684
0.174684
0.174684
0.174684
0.174684
0.174684
0.174684
0.174684
0.174684
0.174685
0.174685
0.174687
0.174689
0.174692
0.174697
0.174704
0.174714
0.174687
0.174687
0.174687
0.174687
0.174687
0.174687
0.174686
0.174686
0.174686
0.174686
0.174686
0.174686
0.174686
0.174686
0.174686
0.174686
0.174686
0.174686
0.174686
0.174686
0.174687
0.174687
0.174688
0.174689
0.174691
0.174695
0.1747
0.174707
0.174717
0.174673
0.174673
0.174672
0.174672
0.174671
0.174671
0.174671
0.17467
0.17467
0.17467
0.174669
0.174669
0.174669
0.174669
0.174668
0.174668
0.174668
0.174667
0.174667
0.174667
0.174667
0.174667
0.174667
0.174668
0.17467
0.174673
0.174677
0.174684
0.174693
0.17464
0.174639
0.174638
0.174637
0.174636
0.174635
0.174635
0.174634
0.174633
0.174632
0.174631
0.17463
0.174629
0.174628
0.174627
0.174626
0.174625
0.174624
0.174623
0.174622
0.174621
0.17462
0.17462
0.17462
0.17462
0.174622
0.174625
0.174631
0.174639
0.174584
0.174582
0.17458
0.174579
0.174577
0.174575
0.174573
0.174571
0.174569
0.174567
0.174565
0.174563
0.174561
0.174559
0.174557
0.174554
0.174552
0.17455
0.174547
0.174545
0.174542
0.17454
0.174538
0.174536
0.174535
0.174535
0.174536
0.174539
0.174545
0.174498
0.174495
0.174491
0.174488
0.174485
0.174481
0.174478
0.174474
0.17447
0.174467
0.174463
0.174459
0.174455
0.174451
0.174447
0.174442
0.174438
0.174433
0.174429
0.174424
0.174419
0.174414
0.174409
0.174405
0.1744
0.174396
0.174394
0.174393
0.174396
0.174372
0.174366
0.17436
0.174355
0.174349
0.174343
0.174337
0.17433
0.174324
0.174318
0.174311
0.174304
0.174297
0.17429
0.174283
0.174275
0.174267
0.174259
0.174251
0.174243
0.174234
0.174225
0.174216
0.174206
0.174197
0.174188
0.174179
0.174173
0.17417
0.174191
0.174182
0.174172
0.174163
0.174153
0.174144
0.174134
0.174123
0.174113
0.174102
0.174091
0.17408
0.174068
0.174057
0.174045
0.174032
0.174019
0.174006
0.173992
0.173978
0.173963
0.173948
0.173932
0.173915
0.173898
0.173881
0.173864
0.173848
0.173836
0.173935
0.173921
0.173907
0.173892
0.173877
0.173862
0.173846
0.17383
0.173813
0.173796
0.173779
0.173761
0.173743
0.173724
0.173705
0.173685
0.173664
0.173643
0.173621
0.173599
0.173575
0.17355
0.173524
0.173497
0.173469
0.17344
0.173409
0.17338
0.173354
0.17358
0.173558
0.173537
0.173514
0.173491
0.173468
0.173444
0.173419
0.173394
0.173368
0.173341
0.173314
0.173286
0.173257
0.173228
0.173197
0.173166
0.173133
0.1731
0.173065
0.173028
0.17299
0.17295
0.172908
0.172864
0.172817
0.172767
0.172718
0.172672
0.173091
0.173059
0.173027
0.172994
0.17296
0.172925
0.172889
0.172853
0.172815
0.172777
0.172737
0.172697
0.172655
0.172612
0.172568
0.172523
0.172476
0.172427
0.172377
0.172325
0.17227
0.172213
0.172154
0.172091
0.172024
0.171953
0.171877
0.1718
0.171726
0.172425
0.172379
0.172332
0.172285
0.172235
0.172185
0.172134
0.172081
0.172026
0.171971
0.171913
0.171855
0.171794
0.171732
0.171668
0.171602
0.171534
0.171464
0.171391
0.171315
0.171236
0.171154
0.171067
0.170976
0.170879
0.170775
0.170665
0.170549
0.170437
0.17154
0.171475
0.171409
0.171341
0.171272
0.1712
0.171127
0.171052
0.170975
0.170896
0.170814
0.170731
0.170645
0.170556
0.170465
0.170372
0.170275
0.170175
0.170071
0.169964
0.169852
0.169736
0.169613
0.169484
0.169346
0.169199
0.169041
0.168875
0.16871
0.170373
0.170284
0.170192
0.170097
0.170001
0.169901
0.169799
0.169695
0.169587
0.169477
0.169364
0.169247
0.169128
0.169005
0.168878
0.168747
0.168613
0.168474
0.16833
0.168181
0.168026
0.167864
0.167694
0.167516
0.167326
0.167122
0.166903
0.166669
0.166436
0.1688
0.168678
0.168554
0.168426
0.168294
0.16816
0.168021
0.167879
0.167734
0.167584
0.167431
0.167273
0.167111
0.166944
0.166773
0.166596
0.166415
0.166227
0.166033
0.165832
0.165623
0.165406
0.165178
0.164938
0.164684
0.164411
0.164117
0.163802
0.163482
0.166671
0.16651
0.166344
0.166175
0.166001
0.165823
0.16564
0.165453
0.16526
0.165063
0.164861
0.164653
0.164439
0.16422
0.163995
0.163763
0.163524
0.163278
0.163023
0.16276
0.162488
0.162204
0.161908
0.161596
0.161266
0.160912
0.16053
0.160118
0.159694
0.163863
0.163657
0.163446
0.16323
0.163008
0.162781
0.162549
0.162311
0.162067
0.161817
0.161561
0.161298
0.161028
0.160751
0.160466
0.160174
0.159874
0.159564
0.159245
0.158916
0.158575
0.158221
0.157851
0.157464
0.157053
0.156614
0.156139
0.155622
0.155085
0.160293
0.160043
0.159788
0.159528
0.159261
0.158988
0.158709
0.158424
0.158132
0.157833
0.157527
0.157213
0.156892
0.156563
0.156225
0.155879
0.155523
0.155158
0.154782
0.154394
0.153993
0.153578
0.153145
0.152692
0.152213
0.1517
0.151145
0.150535
0.149893
0.155724
0.155441
0.155152
0.154857
0.154555
0.154248
0.153934
0.153613
0.153286
0.152951
0.152609
0.15226
0.151902
0.151537
0.151163
0.15078
0.150388
0.149985
0.149571
0.149146
0.148707
0.148253
0.147781
0.147287
0.146765
0.146205
0.145597
0.144921
0.144202
0.149769
0.149473
0.149172
0.148865
0.148553
0.148235
0.147911
0.147581
0.147245
0.146902
0.146553
0.146197
0.145833
0.145463
0.145085
0.144698
0.144303
0.143899
0.143484
0.143058
0.14262
0.142167
0.141697
0.141205
0.140685
0.140125
0.139512
0.138818
0.138069
0.142738
0.14245
0.142158
0.141861
0.14156
0.141253
0.140942
0.140625
0.140303
0.139976
0.139643
0.139304
0.138959
0.138608
0.13825
0.137885
0.137513
0.137132
0.136743
0.136343
0.135933
0.135508
0.135068
0.134606
0.134116
0.133584
0.132995
0.132312
0.13156
0.135491
0.135213
0.134931
0.134645
0.134355
0.13406
0.133761
0.133458
0.133149
0.132836
0.132519
0.132196
0.131867
0.131533
0.131193
0.130847
0.130494
0.130134
0.129766
0.129388
0.129
0.128599
0.128182
0.127744
0.127278
0.126769
0.126199
0.125518
0.124751
0.127541
0.127276
0.127007
0.126735
0.126458
0.126178
0.125894
0.125606
0.125314
0.125017
0.124716
0.12441
0.1241
0.123784
0.123462
0.123135
0.1228
0.122459
0.122109
0.121749
0.121377
0.120989
0.120581
0.120145
0.119665
0.119119
0.118447
0.117667
0.119495
0.119251
0.119004
0.118754
0.118501
0.118244
0.117984
0.11772
0.117453
0.117182
0.116907
0.116628
0.116344
0.116056
0.115763
0.115465
0.11516
0.114849
0.11453
0.114202
0.113863
0.113508
0.113134
0.112732
0.112284
0.111767
0.111108
0.110314
0.111091
0.110872
0.11065
0.110425
0.110197
0.109967
0.109733
0.109497
0.109257
0.109014
0.108768
0.108518
0.108264
0.108006
0.107744
0.107477
0.107205
0.106926
0.106641
0.106347
0.106041
0.105722
0.105384
0.105018
0.104605
0.10412
0.103477
0.102666
0.102286
0.102093
0.101897
0.101699
0.101499
0.101296
0.10109
0.100883
0.100672
0.100458
0.100242
0.100023
0.0997999
0.0995736
0.0993434
0.099109
0.0988696
0.0986247
0.0983733
0.0981137
0.097844
0.097561
0.0972591
0.09693
0.0965539
0.0961036
0.0954794
0.0946452
0.0929393
0.0927729
0.0926045
0.0924342
0.0922618
0.0920874
0.0919109
0.0917321
0.0915511
0.0913677
0.0911818
0.0909932
0.0908017
0.0906071
0.0904092
0.0902074
0.0900013
0.0897902
0.089573
0.0893484
0.0891142
0.0888674
0.0886025
0.0883109
0.087973
0.0875585
0.0869558
0.0860899
0.082732
0.0825929
0.0824521
0.0823097
0.0821656
0.0820199
0.0818723
0.0817229
0.0815716
0.0814183
0.0812629
0.0811052
0.0809451
0.0807823
0.0806166
0.0804475
0.0802746
0.0800971
0.0799143
0.0797245
0.079526
0.0793156
0.0790879
0.0788345
0.0785363
0.0781593
0.0775831
0.076677
0.0709152
0.070804
0.0706915
0.0705776
0.0704624
0.0703459
0.0702279
0.0701085
0.0699875
0.0698649
0.0697405
0.0696143
0.0694861
0.0693556
0.0692226
0.0690868
0.0689477
0.0688046
0.0686567
0.0685027
0.0683407
0.0681677
0.067979
0.0677656
0.0675108
0.0671756
0.0666364
0.0656895
0.0553148
0.0552346
0.0551534
0.0550713
0.0549882
0.0549041
0.054819
0.0547328
0.0546454
0.0545568
0.054467
0.0543757
0.0542829
0.0541884
0.0540919
0.0539931
0.0538917
0.0537872
0.0536786
0.0535649
0.0534446
0.0533148
0.0531718
0.0530063
0.0528065
0.0525277
0.0520596
0.0511258
0.0278971
0.0278648
0.0278322
0.0277991
0.0277657
0.0277318
0.0276974
0.0276626
0.0276273
0.0275914
0.0275549
0.0275177
0.0274797
0.0274408
0.0274009
0.0273598
0.0273171
0.0272725
0.0272255
0.0271752
0.0271208
0.0270599
0.0269912
0.0269057
0.0268031
0.0266348
0.02638
0.0256158
0.0379803
0.0383847
0.0387239
0.0389153
0.0389378
0.0388753
0.0387839
0.0386922
0.0386092
0.0385356
0.0384713
0.0384139
0.038361
0.0383111
0.038264
0.0382189
0.0381787
0.0381386
0.0381139
0.0380722
0.0380972
0.0380131
0.0382244
0.0379505
0.0393543
0.0767143
0.0775493
0.0779854
0.0781847
0.0781724
0.078011
0.0777649
0.0774713
0.0771691
0.0768708
0.076576
0.0762791
0.0759752
0.0756609
0.0753351
0.0749958
0.0746457
0.074277
0.0739075
0.0734958
0.0731312
0.0726306
0.0723862
0.0716999
0.0728247
0.0975239
0.0983283
0.0987768
0.09898
0.0989687
0.0987917
0.0985047
0.0981496
0.0977653
0.0973717
0.0969745
0.0965708
0.0961564
0.0957275
0.0952822
0.0948182
0.0943369
0.0938321
0.0933165
0.092759
0.0922264
0.0915831
0.0911271
0.0903735
0.0911951
0.112377
0.113062
0.113454
0.113623
0.113594
0.113403
0.113094
0.112707
0.112276
0.111825
0.111364
0.110891
0.110404
0.1099
0.109376
0.10883
0.108262
0.107666
0.107053
0.106399
0.105752
0.105016
0.104411
0.103622
0.104166
0.124035
0.124601
0.124926
0.125053
0.125003
0.1248
0.12448
0.124079
0.123624
0.123141
0.122642
0.122127
0.121595
0.121042
0.120467
0.119867
0.119241
0.118586
0.117906
0.117186
0.116459
0.115659
0.114948
0.11413
0.114441
0.133511
0.133974
0.134236
0.134325
0.134256
0.134047
0.133727
0.133323
0.132863
0.132368
0.131851
0.131315
0.130759
0.130181
0.129577
0.128947
0.128287
0.127596
0.126876
0.126114
0.125337
0.124496
0.123713
0.122874
0.122992
0.141326
0.141699
0.141907
0.141965
0.141882
0.141674
0.141361
0.140967
0.140515
0.140024
0.139506
0.138966
0.138404
0.137819
0.137206
0.136564
0.135892
0.135186
0.134447
0.133666
0.132862
0.132001
0.131172
0.130325
0.130284
0.147802
0.1481
0.148262
0.148295
0.148206
0.148004
0.147705
0.14733
0.146896
0.146421
0.145916
0.145387
0.144835
0.144256
0.143651
0.143014
0.142346
0.141642
0.140903
0.140122
0.13931
0.138447
0.137597
0.136752
0.136582
0.153169
0.153404
0.153528
0.153543
0.153452
0.153261
0.152983
0.152632
0.152225
0.151775
0.151295
0.150788
0.150256
0.149698
0.149112
0.148494
0.147844
0.147157
0.146433
0.145667
0.144865
0.144016
0.143163
0.14233
0.142059
0.157601
0.157785
0.157879
0.157881
0.157792
0.157616
0.157362
0.157041
0.156667
0.15625
0.155802
0.155326
0.154824
0.154296
0.153739
0.153151
0.152529
0.151871
0.151175
0.150437
0.149659
0.148837
0.147997
0.147186
0.146837
0.161243
0.161384
0.161454
0.161448
0.161365
0.161207
0.160979
0.160692
0.160354
0.159975
0.159564
0.159126
0.158662
0.15817
0.157651
0.1571
0.156516
0.155896
0.155237
0.154537
0.153794
0.15301
0.152197
0.151415
0.151009
0.164213
0.164321
0.164373
0.164362
0.164287
0.164148
0.163949
0.163696
0.163397
0.163059
0.16269
0.162293
0.16187
0.161421
0.160945
0.160438
0.159897
0.159322
0.158707
0.158053
0.157354
0.156616
0.15584
0.155096
0.154651
0.166616
0.166698
0.166735
0.166723
0.166658
0.16654
0.166369
0.166151
0.165891
0.165595
0.165269
0.164916
0.164538
0.164135
0.163704
0.163244
0.162752
0.162226
0.161661
0.161058
0.160409
0.159724
0.158992
0.158293
0.157823
0.168542
0.168603
0.168631
0.16862
0.168565
0.168467
0.168324
0.16814
0.167919
0.167665
0.167382
0.167074
0.166741
0.166384
0.166002
0.165591
0.165149
0.164675
0.164164
0.163615
0.163021
0.162392
0.161711
0.16106
0.16058
0.170068
0.170115
0.170136
0.170127
0.170084
0.170004
0.169888
0.169737
0.169552
0.169338
0.169098
0.168834
0.168546
0.168236
0.167901
0.16754
0.16715
0.166729
0.166272
0.16578
0.165243
0.164673
0.164047
0.163447
0.162966
0.171265
0.171301
0.171318
0.171312
0.171279
0.171218
0.171127
0.171005
0.170856
0.170679
0.170479
0.170257
0.170013
0.169748
0.16946
0.169148
0.168808
0.168439
0.168037
0.167602
0.167123
0.166613
0.166043
0.165497
0.165023
0.172192
0.17222
0.172235
0.172233
0.17221
0.172166
0.172096
0.172002
0.171884
0.171743
0.17158
0.171397
0.171195
0.170972
0.170729
0.170463
0.170172
0.169854
0.169505
0.169125
0.168703
0.168252
0.167738
0.167246
0.166787
0.172901
0.172924
0.172938
0.17294
0.172927
0.172897
0.172847
0.172777
0.172687
0.172577
0.172448
0.172301
0.172136
0.171953
0.171751
0.171529
0.171284
0.171014
0.170715
0.170388
0.170021
0.169627
0.16917
0.168731
0.168291
0.173436
0.173456
0.17347
0.173475
0.173471
0.173453
0.173421
0.173372
0.173307
0.173225
0.173126
0.17301
0.172879
0.172732
0.172568
0.172385
0.172182
0.171957
0.171706
0.171428
0.171113
0.170773
0.170369
0.16998
0.169563
0.173834
0.173852
0.173867
0.173876
0.173879
0.173872
0.173854
0.173823
0.173779
0.17372
0.173647
0.17356
0.173459
0.173344
0.173213
0.173066
0.172901
0.172716
0.172508
0.172276
0.172008
0.171718
0.171364
0.171023
0.170629
0.174127
0.174144
0.174159
0.174172
0.17418
0.174182
0.174177
0.174161
0.174134
0.174095
0.174044
0.173981
0.173906
0.173818
0.173716
0.173601
0.173469
0.17332
0.173149
0.172958
0.172733
0.172489
0.17218
0.171883
0.171513
0.174339
0.174355
0.174371
0.174386
0.1744
0.174409
0.174413
0.174409
0.174397
0.174375
0.174342
0.174299
0.174245
0.17418
0.174103
0.174014
0.173911
0.173793
0.173655
0.1735
0.173312
0.173108
0.172839
0.172581
0.172235
0.174489
0.174505
0.174522
0.174539
0.174557
0.174572
0.174583
0.174589
0.174588
0.174579
0.174561
0.174534
0.174497
0.174451
0.174395
0.174328
0.174249
0.174157
0.174047
0.173921
0.173765
0.173594
0.173361
0.173136
0.172811
0.174593
0.174609
0.174627
0.174646
0.174666
0.174686
0.174703
0.174716
0.174724
0.174725
0.174718
0.174704
0.174681
0.174649
0.174609
0.17456
0.1745
0.174428
0.17434
0.174239
0.174109
0.173966
0.17376
0.173563
0.173256
0.174663
0.174678
0.174697
0.174717
0.17474
0.174762
0.174784
0.174802
0.174816
0.174825
0.174826
0.174821
0.174808
0.174787
0.174759
0.174723
0.174677
0.174621
0.17455
0.174467
0.174357
0.174234
0.174051
0.173874
0.173583
0.174705
0.174721
0.17474
0.174762
0.174785
0.17481
0.174834
0.174856
0.174874
0.174887
0.174894
0.174895
0.174889
0.174876
0.174855
0.174828
0.174791
0.174745
0.174686
0.174615
0.174519
0.17441
0.174242
0.174079
0.173799
0.174727
0.174743
0.174762
0.174784
0.174808
0.174834
0.17486
0.174883
0.174904
0.174919
0.174929
0.174932
0.17493
0.17492
0.174904
0.174881
0.174849
0.174809
0.174756
0.174691
0.174602
0.1745
0.174341
0.174184
0.173912
0.17473
0.174746
0.174765
0.174787
0.174812
0.174838
0.174864
0.174888
0.174908
0.174924
0.174934
0.174937
0.174935
0.174925
0.17491
0.174887
0.174856
0.174816
0.174763
0.174699
0.174611
0.174509
0.174351
0.174194
0.173925
0.174707
0.174723
0.174742
0.174764
0.174788
0.174813
0.174837
0.174859
0.174877
0.174889
0.174896
0.174895
0.174888
0.174875
0.174854
0.174825
0.174788
0.174742
0.174682
0.17461
0.174513
0.174402
0.174236
0.174067
0.173795
0.174653
0.174669
0.174689
0.17471
0.174732
0.174755
0.174775
0.174793
0.174805
0.174811
0.17481
0.174801
0.174785
0.174761
0.17473
0.17469
0.17464
0.17458
0.174505
0.174417
0.174303
0.174173
0.173987
0.173798
0.173515
0.174559
0.174577
0.174595
0.174615
0.174635
0.174654
0.174669
0.174679
0.174682
0.174677
0.174664
0.174643
0.174613
0.174574
0.174526
0.174469
0.1744
0.174318
0.174221
0.174107
0.173967
0.173808
0.173594
0.173376
0.173075
0.174411
0.174429
0.174448
0.174466
0.174482
0.174494
0.174501
0.1745
0.174491
0.174472
0.174442
0.174403
0.174354
0.174294
0.174224
0.174142
0.174047
0.173937
0.173809
0.173663
0.173487
0.173291
0.173038
0.172784
0.172459
0.174186
0.174205
0.174224
0.174239
0.17425
0.174254
0.17425
0.174235
0.174208
0.174169
0.174118
0.174056
0.173982
0.173895
0.173797
0.173684
0.173556
0.173411
0.173245
0.173058
0.172838
0.172597
0.172297
0.171997
0.171646
0.173853
0.173876
0.173894
0.173906
0.17391
0.173903
0.173884
0.17385
0.173801
0.173737
0.173659
0.173568
0.173463
0.173344
0.17321
0.173061
0.172893
0.172705
0.172494
0.172258
0.171988
0.171693
0.171339
0.170988
0.170607
0.173373
0.1734
0.173419
0.173427
0.173422
0.173401
0.173362
0.173305
0.173228
0.173134
0.173023
0.172897
0.172755
0.172597
0.172423
0.17223
0.172016
0.17178
0.171516
0.171226
0.170898
0.170543
0.170128
0.169722
0.16931
0.172694
0.172728
0.172748
0.172752
0.172736
0.172697
0.172634
0.172548
0.172438
0.172307
0.172157
0.17199
0.171806
0.171604
0.171383
0.171141
0.170875
0.170584
0.170263
0.169913
0.169521
0.169103
0.168622
0.168156
0.167716
0.171753
0.171796
0.171819
0.171818
0.171788
0.171727
0.171636
0.171514
0.171365
0.171192
0.170998
0.170785
0.170553
0.170302
0.170029
0.169734
0.169412
0.169062
0.168679
0.168265
0.167807
0.167321
0.166771
0.166245
0.16578
0.170469
0.170527
0.170554
0.170547
0.1705
0.170414
0.170289
0.170127
0.169934
0.169713
0.16947
0.169207
0.168923
0.168619
0.168292
0.16794
0.167559
0.167147
0.1667
0.166219
0.165693
0.165138
0.164519
0.163935
0.16345
0.168751
0.168827
0.168861
0.168847
0.168782
0.168666
0.168502
0.168295
0.168052
0.16778
0.167485
0.167169
0.166832
0.166473
0.166089
0.165678
0.165237
0.164763
0.164251
0.163705
0.16311
0.162489
0.161802
0.161163
0.160668
0.166487
0.166587
0.166629
0.166608
0.166523
0.166374
0.166167
0.16591
0.165614
0.165289
0.16494
0.16457
0.16418
0.163766
0.163327
0.162858
0.162357
0.161823
0.161249
0.16064
0.159981
0.159297
0.158547
0.15786
0.157365
0.163545
0.163675
0.163729
0.163702
0.163593
0.163407
0.163155
0.162846
0.162496
0.162117
0.161716
0.161295
0.160853
0.160388
0.159895
0.159373
0.158817
0.158227
0.157596
0.15693
0.156213
0.155475
0.154668
0.153945
0.153464
0.159772
0.159939
0.160007
0.159974
0.15984
0.159617
0.159316
0.158956
0.158554
0.158124
0.157674
0.157207
0.156719
0.156208
0.155669
0.1551
0.154497
0.153859
0.153179
0.152466
0.1517
0.15092
0.150067
0.149322
0.14887
0.155188
0.155398
0.155484
0.155445
0.155287
0.155026
0.154681
0.154273
0.153826
0.153355
0.152866
0.152362
0.15184
0.151294
0.15072
0.150116
0.149477
0.148805
0.148091
0.147345
0.146546
0.145739
0.144856
0.144107
0.143701
0.150031
0.150289
0.150394
0.150352
0.150175
0.149882
0.1495
0.149054
0.148573
0.148071
0.147557
0.14703
0.146485
0.145918
0.145323
0.144699
0.14404
0.143348
0.142616
0.141855
0.14104
0.140223
0.139328
0.138591
0.138244
0.144391
0.144701
0.144829
0.144787
0.144594
0.144276
0.143865
0.143392
0.142888
0.14237
0.141842
0.141304
0.14075
0.140175
0.139572
0.138941
0.138276
0.13758
0.136844
0.136082
0.135267
0.134457
0.133565
0.132854
0.132577
0.138335
0.138702
0.138854
0.138815
0.138612
0.138277
0.137846
0.137356
0.136841
0.136317
0.135787
0.13525
0.134699
0.134126
0.133528
0.132902
0.132243
0.131556
0.13083
0.130081
0.12928
0.128489
0.127616
0.12694
0.126743
0.131927
0.132353
0.13253
0.132498
0.132289
0.131943
0.131501
0.131005
0.130489
0.129969
0.129449
0.128923
0.128383
0.127824
0.12724
0.12663
0.125989
0.12532
0.124616
0.123891
0.123116
0.122355
0.121513
0.120879
0.120769
0.125219
0.125701
0.125904
0.12588
0.125672
0.125321
0.124877
0.124383
0.123876
0.12337
0.122866
0.122359
0.121841
0.121304
0.120743
0.120157
0.119543
0.118903
0.118229
0.117537
0.116798
0.116075
0.115276
0.114689
0.11467
0.118243
0.118777
0.119005
0.118992
0.118787
0.118439
0.117999
0.117516
0.117025
0.11654
0.116061
0.115581
0.11509
0.114581
0.114051
0.113497
0.112916
0.112312
0.111677
0.111026
0.11033
0.109653
0.108904
0.108366
0.108443
0.111005
0.111586
0.111839
0.111837
0.111639
0.111298
0.110869
0.110404
0.109936
0.109479
0.10903
0.108581
0.108124
0.10765
0.107155
0.106639
0.106098
0.105536
0.104944
0.10434
0.103695
0.103067
0.102377
0.101889
0.102061
0.103482
0.104102
0.104375
0.104386
0.104196
0.103867
0.103454
0.103012
0.102574
0.102149
0.101735
0.101323
0.100903
0.100468
0.100014
0.0995399
0.0990433
0.0985275
0.0979858
0.0974315
0.0968427
0.0962681
0.0956413
0.0952025
0.0954707
0.0955968
0.0962449
0.0965367
0.0965573
0.0963772
0.0960629
0.0956719
0.0952593
0.0948545
0.094467
0.0940923
0.0937202
0.0933411
0.0929485
0.0925386
0.0921104
0.0916622
0.0911964
0.0907083
0.090208
0.0896795
0.0891604
0.0886027
0.0882108
0.0885738
0.0871952
0.0878544
0.0881585
0.0881859
0.0880156
0.0877201
0.087356
0.0869772
0.086611
0.0862647
0.0859324
0.0856036
0.0852688
0.0849218
0.0845593
0.0841805
0.0837841
0.0833719
0.0829411
0.0824979
0.082034
0.0815724
0.0810891
0.0807405
0.0811961
0.0779582
0.0786008
0.0789081
0.0789372
0.0787765
0.0785041
0.0781728
0.0778337
0.0775114
0.0772107
0.0769247
0.0766427
0.0763556
0.0760579
0.0757466
0.075421
0.0750806
0.0747259
0.074357
0.0739747
0.0735811
0.0731793
0.0727779
0.0724692
0.0730124
0.0671674
0.0677436
0.0680393
0.0680628
0.0679131
0.0676712
0.0673818
0.0670915
0.0668209
0.0665726
0.0663387
0.0661091
0.0658755
0.0656329
0.0653792
0.0651133
0.064836
0.0645459
0.0642473
0.0639331
0.0636194
0.0632836
0.0629772
0.0627071
0.0633294
0.0527514
0.0531637
0.0534249
0.0534376
0.0533095
0.0531179
0.0528928
0.0526729
0.0524731
0.0522937
0.0521272
0.0519651
0.0518008
0.0516301
0.0514521
0.0512653
0.0510722
0.0508686
0.0506643
0.0504425
0.0502364
0.049993
0.0498186
0.0496028
0.0502963
0.0267815
0.0270833
0.0274026
0.0274723
0.0274613
0.0274237
0.0273674
0.027313
0.0272704
0.0272425
0.0272272
0.0272211
0.0272214
0.0272258
0.027235
0.0272469
0.0272674
0.0272871
0.0273287
0.0273524
0.0274416
0.0274465
0.0276676
0.0275972
0.0285928
)
;

boundaryField
{
    inlet
    {
        type            fixedValue;
        value           nonuniform 0();
    }
    outlet
    {
        type            zeroGradient;
    }
    upperWall
    {
        type            kqRWallFunction;
        value           nonuniform List<scalar> 
53
(
0.0278971
0.0278648
0.0278322
0.0277991
0.0277657
0.0277318
0.0276974
0.0276626
0.0276273
0.0275914
0.0275549
0.0275177
0.0274797
0.0274408
0.0274009
0.0273598
0.0273171
0.0272725
0.0272255
0.0271752
0.0271208
0.0270599
0.0269912
0.0269057
0.0268031
0.0266348
0.02638
0.0256158
0.0267815
0.0270833
0.0274026
0.0274723
0.0274613
0.0274237
0.0273674
0.027313
0.0272704
0.0272425
0.0272272
0.0272211
0.0272214
0.0272258
0.027235
0.0272469
0.0272674
0.0272871
0.0273287
0.0273524
0.0274416
0.0274465
0.0276676
0.0275972
0.0285928
)
;
    }
    lowerWall
    {
        type            kqRWallFunction;
        value           nonuniform List<scalar> 
55
(
0.0389323
0.0389138
0.0388952
0.0388763
0.0388573
0.0388381
0.0388187
0.038799
0.0387791
0.0387589
0.0387384
0.0387175
0.0386961
0.0386742
0.0386515
0.0386281
0.0386036
0.0385777
0.0385501
0.0385202
0.0384872
0.0384499
0.0384066
0.0383543
0.0382882
0.0381989
0.0380677
0.0378526
0.0374649
0.0367156
0.0379803
0.0383847
0.0387239
0.0389153
0.0389378
0.0388753
0.0387839
0.0386922
0.0386092
0.0385356
0.0384713
0.0384139
0.038361
0.0383111
0.038264
0.0382189
0.0381787
0.0381386
0.0381139
0.0380722
0.0380972