/*--------------------------------*- C++ -*----------------------------------*\
  =========                 |
  \\      /  F ield         | OpenFOAM: The Open Source CFD Toolbox
   \\    /   O peration     | Website:  https://openfoam.org
    \\  /    A nd           | Version:  6
     \\/     M anipulation  |
\*---------------------------------------------------------------------------*/
FoamFile
{
    version     2.0;
    format      ascii;
    class       volScalarField;
    location    "0.03";
    object      nut;
}
// * * * * * * * * * * * * * * * * * * * * * * * * * * * * * * * * * * * * * //

dimensions      [0 2 -1 0 0 0 0];

internalField   nonuniform List<scalar> 
3080
(
2.09696e-05
2.09319e-05
2.0894e-05
2.08558e-05
2.08173e-05
2.07785e-05
2.07394e-05
2.07e-05
2.06602e-05
2.06202e-05
2.05798e-05
2.0539e-05
2.04979e-05
2.04563e-05
2.04143e-05
2.03718e-05
2.03287e-05
2.0285e-05
2.02406e-05
2.01952e-05
2.01488e-05
2.01008e-05
2.0051e-05
1.99984e-05
1.99417e-05
1.98786e-05
1.98038e-05
1.97066e-05
1.95636e-05
1.93257e-05
0.000161734
0.00016149
0.000161244
0.000160997
0.000160747
0.000160495
0.000160241
0.000159985
0.000159726
0.000159465
0.000159202
0.000158935
0.000158664
0.00015839
0.000158112
0.000157828
0.000157539
0.000157241
0.000156935
0.000156616
0.000156282
0.000155925
0.000155537
0.000155102
0.000154592
0.000153949
0.000153049
0.000151638
0.000148966
0.000144242
0.000293892
0.000293524
0.000293152
0.000292778
0.0002924
0.000292019
0.000291634
0.000291246
0.000290854
0.000290458
0.000290057
0.000289651
0.00028924
0.000288822
0.000288397
0.000287964
0.00028752
0.000287064
0.000286591
0.000286099
0.000285579
0.000285023
0.000284415
0.000283729
0.000282923
0.000281914
0.000280534
0.000278451
0.000274872
0.000268924
0.00039785
0.000397414
0.000396974
0.00039653
0.000396083
0.000395632
0.000395176
0.000394716
0.000394251
0.000393781
0.000393306
0.000392824
0.000392336
0.00039184
0.000391334
0.000390819
0.00039029
0.000389746
0.000389182
0.000388594
0.000387972
0.000387306
0.000386576
0.000385755
0.000384792
0.000383597
0.000382
0.00037968
0.000376012
0.000370455
0.000481319
0.000480847
0.000480372
0.000479892
0.000479407
0.000478919
0.000478425
0.000477927
0.000477423
0.000476914
0.000476399
0.000475877
0.000475347
0.000474809
0.000474261
0.000473701
0.000473127
0.000472536
0.000471923
0.000471283
0.000470607
0.000469882
0.000469089
0.000468198
0.000467157
0.000465879
0.000464205
0.000461859
0.000458383
0.000453513
0.000549625
0.00054914
0.00054865
0.000548155
0.000547656
0.000547152
0.000546643
0.000546129
0.00054561
0.000545084
0.000544552
0.000544014
0.000543467
0.000542911
0.000542345
0.000541766
0.000541173
0.000540562
0.000539928
0.000539266
0.000538567
0.000537818
0.000537
0.000536083
0.000535019
0.000533724
0.00053206
0.000529801
0.000526623
0.000522432
0.000606108
0.000605624
0.000605136
0.000604644
0.000604146
0.000603644
0.000603137
0.000602624
0.000602106
0.000601582
0.000601051
0.000600513
0.000599967
0.000599412
0.000598846
0.000598268
0.000597676
0.000597065
0.000596432
0.000595771
0.000595073
0.000594326
0.000593512
0.000592602
0.000591551
0.000590286
0.00058869
0.000586581
0.000583737
0.000580155
0.000652978
0.000652509
0.000652036
0.000651559
0.000651076
0.000650589
0.000650097
0.000649599
0.000649096
0.000648587
0.000648072
0.000647549
0.000647019
0.000646479
0.000645929
0.000645367
0.000644791
0.000644197
0.000643581
0.000642939
0.000642261
0.000641536
0.000640747
0.000639869
0.000638861
0.000637661
0.000636169
0.000634246
0.000631741
0.000628696
0.000691811
0.000691368
0.00069092
0.000690468
0.000690012
0.000689551
0.000689084
0.000688613
0.000688136
0.000687653
0.000687164
0.000686669
0.000686165
0.000685653
0.000685131
0.000684597
0.00068405
0.000683486
0.000682901
0.000682291
0.000681648
0.000680961
0.000680216
0.000679389
0.000678446
0.000677332
0.000675969
0.00067425
0.000672073
0.000669501
0.000723818
0.000723409
0.000722995
0.000722577
0.000722154
0.000721727
0.000721295
0.000720858
0.000720416
0.000719968
0.000719515
0.000719055
0.000718587
0.000718111
0.000717626
0.000717131
0.000716622
0.000716098
0.000715555
0.000714988
0.000714392
0.000713755
0.000713066
0.000712304
0.00071144
0.00071043
0.00070921
0.000707699
0.000705832
0.000703675
0.000749991
0.000749621
0.000749246
0.000748867
0.000748484
0.000748097
0.000747705
0.000747309
0.000746908
0.000746501
0.000746089
0.000745671
0.000745246
0.000744814
0.000744372
0.000743921
0.000743458
0.000742981
0.000742487
0.000741972
0.00074143
0.000740852
0.000740228
0.000739541
0.000738766
0.000737867
0.000736795
0.00073549
0.000733909
0.000732118
0.000770852
0.00077052
0.000770184
0.000769844
0.000769501
0.000769153
0.0007688
0.000768443
0.000768082
0.000767715
0.000767343
0.000766964
0.000766579
0.000766186
0.000765784
0.000765371
0.000764945
0.000764505
0.000764045
0.000763562
0.000763049
0.000762495
0.000761887
0.000761205
0.000760421
0.000759497
0.000758388
0.000757068
0.000755596
0.000787854
0.000787566
0.000787274
0.000786978
0.000786679
0.000786376
0.000786069
0.000785758
0.000785443
0.000785123
0.000784798
0.000784468
0.000784131
0.000783787
0.000783436
0.000783075
0.000782703
0.000782318
0.000781916
0.000781494
0.000781046
0.000780564
0.000780037
0.000779449
0.000778778
0.000777995
0.000777068
0.000775981
0.000774787
0.000801298
0.000801052
0.000800803
0.000800551
0.000800296
0.000800037
0.000799775
0.00079951
0.00079924
0.000798967
0.000798689
0.000798406
0.000798118
0.000797823
0.000797522
0.000797212
0.000796893
0.000796563
0.000796219
0.000795857
0.000795474
0.000795063
0.000794614
0.000794117
0.000793553
0.000792901
0.000792139
0.000791258
0.000790301
0.000811785
0.00081158
0.000811372
0.000811162
0.000810948
0.000810732
0.000810512
0.00081029
0.000810064
0.000809834
0.000809601
0.000809363
0.000809121
0.000808874
0.00080862
0.00080836
0.000808091
0.000807814
0.000807524
0.00080722
0.000806899
0.000806554
0.00080618
0.000805767
0.000805302
0.000804769
0.000804153
0.00080345
0.000802695
0.000819929
0.000819759
0.000819587
0.000819412
0.000819235
0.000819055
0.000818872
0.000818687
0.000818499
0.000818308
0.000818113
0.000817915
0.000817713
0.000817506
0.000817295
0.000817077
0.000816853
0.00081662
0.000816378
0.000816125
0.000815857
0.000815571
0.000815261
0.000814921
0.000814542
0.000814111
0.000813618
0.000813063
0.000812474
0.000826026
0.000825889
0.000825751
0.00082561
0.000825467
0.000825323
0.000825175
0.000825026
0.000824874
0.00082472
0.000824563
0.000824403
0.000824239
0.000824072
0.000823901
0.000823724
0.000823543
0.000823354
0.000823159
0.000822953
0.000822737
0.000822506
0.000822257
0.000821985
0.000821683
0.000821344
0.00082096
0.000820531
0.000820082
0.000830455
0.00083035
0.000830244
0.000830136
0.000830026
0.000829915
0.000829801
0.000829687
0.00082957
0.000829451
0.00082933
0.000829207
0.000829081
0.000828952
0.00082882
0.000828684
0.000828544
0.000828399
0.000828247
0.000828089
0.000827922
0.000827744
0.000827553
0.000827345
0.000827115
0.000826858
0.000826569
0.000826251
0.000825922
0.000833662
0.000833585
0.000833507
0.000833427
0.000833346
0.000833263
0.00083318
0.000833095
0.000833009
0.000832921
0.000832832
0.000832741
0.000832648
0.000832553
0.000832455
0.000832355
0.000832251
0.000832144
0.000832032
0.000831914
0.000831791
0.000831659
0.000831518
0.000831365
0.000831197
0.00083101
0.000830802
0.000830575
0.000830344
0.000835978
0.000835923
0.000835867
0.00083581
0.000835752
0.000835694
0.000835634
0.000835574
0.000835513
0.000835451
0.000835388
0.000835323
0.000835257
0.00083519
0.00083512
0.000835049
0.000834975
0.000834899
0.000834819
0.000834736
0.000834648
0.000834555
0.000834455
0.000834347
0.000834228
0.000834098
0.000833955
0.0008338
0.000833645
0.000837642
0.000837604
0.000837566
0.000837527
0.000837487
0.000837447
0.000837407
0.000837366
0.000837324
0.000837281
0.000837238
0.000837195
0.00083715
0.000837104
0.000837057
0.000837008
0.000836958
0.000836906
0.000836852
0.000836795
0.000836735
0.000836671
0.000836604
0.000836531
0.000836451
0.000836365
0.000836271
0.000836171
0.000836075
0.000838831
0.000838806
0.000838781
0.000838755
0.000838729
0.000838703
0.000838677
0.00083865
0.000838623
0.000838595
0.000838567
0.000838539
0.00083851
0.00083848
0.00083845
0.000838418
0.000838386
0.000838352
0.000838316
0.000838279
0.000838241
0.000838199
0.000838156
0.000838109
0.000838059
0.000838005
0.000837948
0.000837889
0.000837835
0.000839672
0.000839657
0.000839641
0.000839625
0.000839609
0.000839593
0.000839576
0.00083956
0.000839543
0.000839526
0.000839509
0.000839492
0.000839474
0.000839456
0.000839438
0.000839419
0.000839399
0.000839378
0.000839356
0.000839334
0.00083931
0.000839285
0.000839259
0.000839231
0.000839202
0.000839171
0.00083914
0.000839111
0.000839087
0.000840257
0.000840248
0.000840239
0.00084023
0.00084022
0.000840211
0.000840201
0.000840192
0.000840183
0.000840173
0.000840164
0.000840154
0.000840145
0.000840135
0.000840125
0.000840114
0.000840103
0.000840091
0.000840079
0.000840066
0.000840053
0.000840039
0.000840025
0.00084001
0.000839996
0.000839982
0.000839969
0.000839959
0.000839956
0.000840649
0.000840644
0.000840639
0.000840635
0.00084063
0.000840625
0.000840621
0.000840616
0.000840611
0.000840607
0.000840603
0.000840598
0.000840594
0.000840589
0.000840584
0.000840579
0.000840574
0.000840568
0.000840563
0.000840556
0.00084055
0.000840544
0.000840537
0.000840531
0.000840526
0.000840523
0.000840522
0.000840526
0.000840536
0.000840892
0.00084089
0.000840888
0.000840886
0.000840884
0.000840882
0.00084088
0.000840879
0.000840877
0.000840876
0.000840874
0.000840873
0.000840872
0.00084087
0.000840869
0.000840867
0.000840866
0.000840864
0.000840861
0.000840859
0.000840857
0.000840855
0.000840853
0.000840853
0.000840853
0.000840857
0.000840863
0.000840874
0.000840893
0.000841015
0.000841014
0.000841013
0.000841013
0.000841012
0.000841012
0.000841011
0.000841011
0.000841011
0.000841011
0.000841011
0.000841011
0.000841011
0.000841011
0.000841012
0.000841011
0.000841011
0.000841011
0.000841011
0.00084101
0.00084101
0.00084101
0.000841011
0.000841013
0.000841016
0.000841023
0.000841033
0.000841048
0.000841071
0.000841034
0.000841033
0.000841033
0.000841032
0.000841032
0.000841031
0.000841031
0.000841031
0.000841031
0.000841031
0.000841031
0.000841031
0.000841031
0.000841031
0.000841031
0.000841031
0.000841031
0.000841031
0.000841031
0.000841031
0.00084103
0.000841031
0.000841031
0.000841033
0.000841037
0.000841043
0.000841054
0.00084107
0.000841093
0.000840916
0.000840914
0.000840911
0.000840909
0.000840906
0.000840904
0.000840901
0.000840899
0.000840897
0.000840895
0.000840892
0.00084089
0.000840888
0.000840886
0.000840884
0.000840881
0.000840878
0.000840875
0.000840872
0.000840869
0.000840866
0.000840863
0.00084086
0.000840858
0.000840858
0.00084086
0.000840866
0.000840877
0.000840897
0.000840644
0.000840637
0.000840631
0.000840624
0.000840617
0.00084061
0.000840602
0.000840595
0.000840588
0.000840581
0.000840574
0.000840567
0.000840559
0.000840551
0.000840543
0.000840535
0.000840527
0.000840517
0.000840508
0.000840498
0.000840488
0.000840478
0.000840468
0.000840457
0.000840448
0.000840441
0.000840436
0.000840436
0.000840445
0.000840182
0.000840168
0.000840154
0.000840139
0.000840124
0.000840109
0.000840093
0.000840078
0.000840062
0.000840046
0.00084003
0.000840013
0.000839996
0.000839979
0.000839961
0.000839943
0.000839924
0.000839904
0.000839883
0.000839861
0.000839839
0.000839816
0.000839791
0.000839766
0.000839741
0.000839716
0.000839692
0.000839672
0.000839662
0.000839473
0.000839447
0.00083942
0.000839393
0.000839365
0.000839336
0.000839308
0.000839278
0.000839248
0.000839218
0.000839187
0.000839155
0.000839123
0.00083909
0.000839055
0.00083902
0.000838984
0.000838946
0.000838906
0.000838865
0.000838822
0.000838777
0.00083873
0.000838681
0.000838629
0.000838574
0.000838519
0.000838465
0.000838423
0.000838432
0.000838387
0.000838342
0.000838295
0.000838247
0.000838198
0.000838148
0.000838097
0.000838045
0.000837992
0.000837938
0.000837883
0.000837826
0.000837767
0.000837707
0.000837645
0.000837581
0.000837515
0.000837446
0.000837374
0.000837299
0.00083722
0.000837136
0.000837048
0.000836954
0.000836853
0.000836748
0.000836642
0.000836547
0.000836944
0.00083687
0.000836796
0.000836719
0.000836641
0.000836561
0.000836479
0.000836396
0.00083631
0.000836223
0.000836133
0.000836042
0.000835948
0.000835851
0.000835751
0.000835648
0.000835542
0.000835432
0.000835318
0.000835199
0.000835075
0.000834944
0.000834805
0.000834658
0.0008345
0.00083433
0.000834149
0.000833962
0.000833787
0.000834848
0.000834734
0.000834617
0.000834497
0.000834374
0.000834249
0.00083412
0.000833988
0.000833853
0.000833715
0.000833574
0.000833428
0.000833279
0.000833126
0.000832968
0.000832805
0.000832636
0.000832462
0.000832281
0.000832092
0.000831895
0.000831687
0.000831467
0.000831233
0.000830982
0.00083071
0.000830418
0.000830112
0.000829817
0.000831939
0.000831766
0.000831588
0.000831406
0.000831219
0.000831028
0.000830832
0.000830631
0.000830426
0.000830215
0.000829998
0.000829776
0.000829547
0.000829313
0.000829071
0.000828821
0.000828563
0.000828296
0.000828019
0.000827731
0.000827429
0.000827112
0.000826776
0.000826418
0.000826034
0.000825618
0.000825168
0.000824691
0.000824224
0.000827947
0.000827691
0.000827429
0.00082716
0.000826884
0.000826601
0.000826311
0.000826014
0.000825709
0.000825396
0.000825075
0.000824745
0.000824406
0.000824057
0.000823698
0.000823328
0.000822945
0.000822549
0.000822138
0.00082171
0.000821264
0.000820794
0.000820299
0.00081977
0.000819203
0.000818588
0.00081792
0.000817208
0.000816499
0.000822531
0.000822162
0.000821784
0.000821397
0.000820999
0.000820592
0.000820174
0.000819745
0.000819305
0.000818853
0.00081839
0.000817913
0.000817424
0.00081692
0.000816401
0.000815866
0.000815314
0.000814743
0.000814151
0.000813535
0.000812893
0.000812219
0.000811508
0.000810751
0.000809939
0.000809058
0.0008081
0.000807072
0.000806036
0.000815366
0.000814846
0.000814312
0.000813765
0.000813203
0.000812628
0.000812037
0.000811431
0.000810809
0.000810171
0.000809515
0.000808842
0.00080815
0.000807437
0.000806704
0.000805948
0.000805168
0.000804362
0.000803527
0.00080266
0.000801756
0.00080081
0.000799813
0.000798753
0.000797618
0.000796388
0.000795048
0.0007936
0.000792126
0.000805971
0.000805252
0.000804514
0.000803757
0.000802981
0.000802184
0.000801367
0.000800528
0.000799668
0.000798785
0.000797878
0.000796946
0.000795988
0.000795003
0.000793989
0.000792945
0.000791868
0.000790755
0.000789604
0.000788409
0.000787166
0.000785867
0.000784501
0.000783053
0.000781503
0.000779826
0.000777997
0.000776012
0.000773967
0.000793378
0.000792408
0.000791414
0.000790394
0.000789348
0.000788276
0.000787176
0.000786048
0.00078489
0.000783703
0.000782483
0.000781231
0.000779945
0.000778623
0.000777263
0.000775864
0.000774421
0.000772933
0.000771395
0.000769801
0.000768146
0.000766418
0.000764605
0.000762689
0.000760642
0.00075843
0.000756015
0.00075338
0.000750635
0.000776475
0.0007752
0.000773894
0.000772556
0.000771184
0.000769779
0.000768339
0.000766862
0.000765348
0.000763796
0.000762204
0.00076057
0.000758893
0.000757171
0.000755401
0.000753582
0.000751709
0.000749779
0.000747787
0.000745727
0.00074359
0.000741365
0.000739036
0.00073658
0.000733964
0.00073114
0.000728054
0.000724667
0.000721094
0.000754399
0.000752788
0.000751138
0.00074945
0.000747722
0.000745952
0.000744141
0.000742286
0.000740386
0.000738441
0.000736447
0.000734404
0.000732309
0.00073016
0.000727955
0.000725691
0.000723363
0.000720969
0.000718501
0.000715953
0.000713315
0.000710575
0.000707714
0.000704704
0.000701505
0.000698056
0.000694283
0.000690112
0.000685656
0.00072665
0.000724724
0.000722756
0.000720744
0.000718687
0.000716585
0.000714436
0.000712239
0.000709992
0.000707694
0.000705343
0.000702938
0.000700475
0.000697953
0.000695369
0.000692719
0.000690001
0.000687208
0.000684336
0.000681376
0.000678318
0.000675148
0.000671845
0.000668377
0.000664699
0.000660736
0.000656392
0.000651544
0.000646292
0.000691596
0.000689435
0.000687232
0.000684984
0.000682691
0.000680352
0.000677964
0.000675528
0.000673042
0.000670504
0.000667912
0.000665265
0.00066256
0.000659796
0.000656969
0.000654076
0.000651114
0.000648077
0.000644959
0.000641753
0.000638447
0.000635027
0.00063147
0.000627743
0.000623794
0.000619535
0.000614848
0.000609553
0.000603713
0.000646546
0.00064432
0.000642056
0.000639751
0.000637406
0.000635018
0.000632588
0.000630114
0.000627595
0.000625029
0.000622415
0.000619752
0.000617037
0.000614269
0.000611444
0.000608561
0.000605615
0.000602601
0.000599514
0.000596346
0.000593086
0.000589719
0.000586223
0.000582561
0.00057868
0.000574479
0.000569819
0.000564452
0.00055838
0.000594066
0.000591931
0.000589763
0.000587561
0.000585324
0.000583052
0.000580743
0.000578398
0.000576014
0.00057359
0.000571127
0.000568621
0.000566072
0.000563478
0.000560835
0.000558143
0.000555397
0.000552593
0.000549725
0.000546787
0.000543767
0.000540651
0.000537416
0.000534027
0.000530425
0.000526503
0.000522104
0.000516898
0.000510808
0.000540638
0.000538596
0.000536524
0.000534423
0.000532291
0.000530128
0.000527933
0.000525706
0.000523446
0.000521152
0.000518822
0.000516456
0.000514051
0.000511608
0.000509122
0.000506593
0.000504016
0.000501388
0.000498704
0.000495956
0.000493135
0.000490227
0.000487209
0.000484046
0.00048068
0.000476997
0.000472826
0.000467756
0.000461591
0.000482624
0.000480693
0.000478736
0.000476753
0.000474744
0.000472706
0.000470642
0.000468548
0.000466425
0.000464271
0.000462086
0.000459869
0.000457617
0.000455329
0.000453004
0.000450637
0.000448225
0.000445765
0.000443248
0.000440667
0.000438007
0.000435248
0.000432354
0.000429273
0.000425885
0.000422012
0.000417166
0.000410999
0.000424517
0.000422761
0.000420982
0.000419181
0.000417358
0.000415511
0.000413641
0.000411746
0.000409826
0.000407881
0.000405909
0.000403909
0.00040188
0.000399821
0.00039773
0.000395603
0.000393439
0.000391231
0.000388976
0.000386665
0.000384284
0.000381816
0.000379227
0.000376467
0.00037342
0.000369908
0.000365376
0.000359294
0.000364639
0.000363083
0.000361509
0.000359916
0.000358304
0.000356674
0.000355023
0.000353352
0.000351661
0.000349948
0.000348214
0.000346456
0.000344675
0.000342868
0.000341034
0.000339171
0.000337277
0.000335347
0.000333376
0.000331358
0.00032928
0.000327128
0.000324871
0.000322463
0.000319797
0.000316699
0.000312577
0.000306696
0.000303258
0.000301924
0.000300576
0.000299212
0.000297834
0.00029644
0.00029503
0.000293604
0.000292161
0.000290702
0.000289225
0.000287729
0.000286214
0.00028468
0.000283123
0.000281543
0.000279938
0.000278304
0.000276637
0.000274931
0.000273177
0.00027136
0.000269457
0.000267427
0.000265175
0.00026254
0.000258928
0.0002534
0.000240603
0.00023951
0.000238407
0.000237292
0.000236165
0.000235026
0.000233876
0.000232713
0.000231537
0.000230349
0.000229147
0.000227931
0.000226701
0.000225455
0.000224193
0.000222913
0.000221613
0.000220292
0.000218945
0.000217568
0.000216155
0.000214692
0.000213162
0.000211531
0.000209722
0.000207591
0.000204591
0.00019962
0.00017696
0.000176128
0.000175287
0.000174439
0.000173582
0.000172717
0.000171843
0.000170961
0.00017007
0.000169169
0.00016826
0.00016734
0.00016641
0.00016547
0.000164518
0.000163553
0.000162575
0.000161582
0.000160571
0.000159538
0.00015848
0.000157387
0.000156246
0.000155032
0.00015369
0.000152099
0.000149809
0.000145666
0.000112946
0.000112391
0.000111832
0.000111267
0.000110698
0.000110123
0.000109544
0.000108959
0.000108368
0.000107773
0.000107171
0.000106564
0.00010595
0.00010533
0.000104703
0.000104069
0.000103427
0.000102775
0.000102113
0.000101439
0.000100749
0.000100038
9.92993e-05
9.85142e-05
9.76554e-05
9.66291e-05
9.51333e-05
9.21685e-05
5.08396e-05
5.05761e-05
5.03105e-05
5.00429e-05
4.97731e-05
4.95012e-05
4.9227e-05
4.89507e-05
4.86722e-05
4.83913e-05
4.81081e-05
4.78224e-05
4.75343e-05
4.72434e-05
4.69498e-05
4.66532e-05
4.63534e-05
4.605e-05
4.57424e-05
4.543e-05
4.51117e-05
4.47852e-05
4.44483e-05
4.40923e-05
4.37103e-05
4.3252e-05
4.25884e-05
4.1217e-05
5.37006e-06
5.34269e-06
5.31512e-06
5.28735e-06
5.25937e-06
5.23118e-06
5.20279e-06
5.17418e-06
5.14536e-06
5.11632e-06
5.08705e-06
5.05754e-06
5.0278e-06
4.99779e-06
4.96752e-06
4.93696e-06
4.90609e-06
4.87486e-06
4.84324e-06
4.81114e-06
4.77849e-06
4.74507e-06
4.71075e-06
4.67476e-06
4.63704e-06
4.59335e-06
4.54186e-06
4.44602e-06
1.94504e-05
1.93889e-05
1.93038e-05
1.91753e-05
1.8998e-05
1.87915e-05
1.85686e-05
1.83345e-05
1.80942e-05
1.78477e-05
1.75952e-05
1.73357e-05
1.70683e-05
1.67921e-05
1.65065e-05
1.6211e-05
1.59057e-05
1.55892e-05
1.52642e-05
1.49235e-05
1.45832e-05
1.42085e-05
1.38753e-05
1.34374e-05
1.32734e-05
0.000149433
0.00015154
0.00015173
0.00015102
0.000149792
0.000148295
0.000146652
0.000144852
0.000143005
0.000141144
0.00013925
0.000137294
0.000135254
0.000133122
0.000130892
0.000128559
0.000126129
0.000123571
0.000120945
0.000118101
0.000115303
0.000112014
0.000109236
0.000105098
0.000104475
0.000274313
0.000277806
0.00027887
0.000278434
0.000276991
0.000274946
0.000272549
0.000269889
0.000267094
0.000264236
0.000261314
0.000258294
0.000255147
0.000251852
0.000248397
0.000244769
0.000240973
0.000236968
0.000232821
0.000228346
0.000223871
0.000218704
0.000214191
0.000207902
0.00020739
0.000374775
0.000378435
0.000379887
0.000379738
0.000378394
0.000376239
0.000373562
0.000370526
0.000367264
0.000363884
0.000360402
0.000356797
0.000353039
0.000349102
0.000344971
0.000340627
0.000336071
0.000331261
0.000326251
0.000320874
0.000315421
0.000309256
0.000303664
0.000296464
0.000295781
0.00045681
0.00046016
0.000461654
0.000461654
0.000460445
0.000458336
0.0004556
0.000452426
0.000448954
0.000445309
0.000441526
0.000437597
0.000433496
0.000429199
0.000424687
0.000419939
0.000414951
0.000409684
0.000404175
0.000398284
0.000392249
0.000385537
0.000379262
0.00037169
0.000370633
0.000524918
0.000527803
0.000529163
0.000529196
0.000528089
0.000526076
0.000523386
0.000520207
0.000516678
0.000512929
0.000509009
0.000504922
0.000500649
0.000496169
0.000491461
0.000486504
0.000481288
0.000475777
0.000469996
0.000463827
0.00045746
0.000450463
0.000443766
0.000436083
0.000434557
0.000582019
0.000584417
0.000585565
0.000585562
0.000584525
0.00058262
0.000580032
0.000576929
0.000573446
0.000569706
0.000565767
0.000561643
0.000557323
0.000552787
0.000548015
0.000542986
0.000537685
0.000532081
0.000526185
0.000519902
0.000513376
0.000506267
0.000499335
0.000491683
0.000489668
0.00063008
0.000632022
0.000632938
0.000632869
0.000631882
0.00063009
0.000627637
0.000624669
0.000621305
0.000617658
0.000613791
0.000609725
0.000605455
0.000600963
0.000596231
0.000591237
0.000585964
0.000580381
0.000574492
0.000568219
0.000561666
0.000554572
0.000547549
0.000540016
0.000537538
0.000670513
0.00067205
0.000672745
0.000672604
0.00067166
0.000669988
0.000667696
0.000664902
0.000661714
0.000658226
0.000654506
0.000650575
0.000646434
0.000642069
0.000637462
0.00063259
0.000627435
0.000621969
0.000616184
0.000610021
0.000603549
0.000596571
0.000589573
0.000582218
0.000579335
0.000704402
0.000705589
0.000706089
0.000705886
0.000704988
0.000703444
0.00070133
0.000698742
0.000695772
0.000692497
0.000688981
0.00068525
0.000681304
0.000677134
0.000672721
0.000668044
0.000663084
0.00065781
0.000652214
0.000646242
0.000639942
0.000633165
0.000626288
0.00061916
0.000615944
0.000732626
0.000733521
0.000733858
0.000733608
0.000732766
0.000731358
0.000729438
0.000727078
0.000724355
0.000721333
0.000718068
0.000714585
0.000710888
0.000706967
0.000702806
0.000698384
0.00069368
0.000688665
0.000683324
0.000677614
0.00067156
0.000665053
0.000658381
0.000651524
0.000648054
0.000755939
0.000756597
0.000756804
0.000756527
0.00075575
0.000754485
0.000752768
0.000750651
0.000748195
0.000745454
0.000742472
0.000739274
0.000735866
0.000732237
0.000728373
0.000724252
0.000719853
0.000715148
0.000710119
0.000704727
0.000698982
0.000692803
0.000686405
0.000679861
0.000676215
0.000775008
0.000775478
0.000775588
0.000775302
0.0007746
0.000773483
0.000771971
0.000770104
0.000767926
0.000765481
0.000762803
0.000759915
0.000756822
0.000753515
0.00074998
0.000746195
0.000742138
0.000737783
0.000733109
0.000728079
0.000722692
0.000716888
0.00071082
0.000704625
0.000700878
0.000790436
0.000790761
0.000790802
0.000790524
0.000789904
0.000788935
0.000787628
0.000786009
0.00078411
0.000781965
0.000779601
0.000777036
0.000774273
0.000771305
0.000768118
0.00076469
0.000761
0.000757023
0.000752733
0.000748099
0.000743106
0.000737711
0.000732018
0.000726203
0.000722425
0.000802771
0.000802988
0.000802984
0.000802727
0.000802192
0.000801368
0.000800259
0.00079888
0.000797253
0.000795404
0.000793352
0.00079111
0.000788681
0.000786059
0.000783227
0.000780167
0.000776857
0.000773272
0.000769384
0.000765165
0.000760591
0.000755631
0.000750343
0.000744931
0.000741184
0.000812508
0.000812649
0.00081262
0.000812391
0.000811942
0.000811257
0.000810334
0.000809182
0.000807813
0.000806247
0.000804496
0.000802569
0.000800468
0.000798186
0.000795707
0.000793014
0.000790085
0.000786895
0.000783417
0.000779621
0.000775478
0.000770963
0.000766102
0.000761106
0.000757444
0.000820095
0.000820184
0.000820144
0.000819951
0.000819583
0.000819027
0.000818275
0.000817331
0.000816202
0.000814899
0.00081343
0.000811802
0.000810014
0.000808058
0.000805921
0.000803585
0.000801028
0.000798227
0.000795152
0.000791777
0.000788065
0.000783998
0.00077957
0.000774995
0.000771462
0.000825927
0.000825983
0.000825943
0.000825786
0.000825495
0.000825055
0.000824457
0.0008237
0.000822787
0.000821723
0.000820514
0.000819161
0.000817664
0.000816014
0.000814198
0.000812199
0.000809998
0.000807569
0.000804884
0.000801916
0.000798626
0.000794998
0.000790999
0.000786842
0.00078347
0.000830348
0.000830384
0.000830351
0.000830231
0.000830009
0.000829671
0.000829208
0.000828616
0.000827893
0.000827042
0.000826064
0.00082496
0.000823726
0.000822355
0.000820835
0.000819149
0.000817277
0.000815197
0.000812879
0.000810298
0.000807409
0.000804201
0.000800619
0.000796866
0.000793676
0.000833652
0.000833679
0.000833656
0.000833571
0.000833409
0.000833159
0.000832812
0.00083236
0.000831801
0.000831134
0.000830359
0.000829473
0.000828473
0.000827352
0.000826096
0.000824693
0.000823121
0.00082136
0.000819379
0.000817156
0.000814641
0.000811825
0.000808636
0.000805266
0.000802269
0.000836086
0.00083611
0.000836099
0.000836044
0.000835934
0.000835757
0.000835506
0.000835172
0.000834752
0.000834241
0.000833638
0.00083294
0.000832142
0.000831238
0.000830215
0.00082906
0.000827754
0.000826277
0.000824599
0.000822698
0.000820523
0.000818065
0.000815237
0.00081222
0.000809417
0.000837851
0.000837874
0.000837876
0.000837847
0.000837779
0.000837663
0.00083749
0.000837253
0.000836945
0.000836564
0.000836104
0.000835563
0.000834936
0.000834215
0.00083339
0.000832448
0.000831372
0.000830141
0.000828728
0.000827109
0.000825234
0.000823093
0.000820587
0.000817886
0.000815269
0.000839108
0.000839133
0.000839145
0.000839138
0.000839104
0.000839036
0.000838925
0.000838764
0.000838546
0.000838268
0.000837924
0.00083751
0.000837022
0.000836452
0.000835791
0.000835026
0.000834141
0.000833118
0.000831928
0.000830549
0.000828929
0.000827059
0.000824831
0.000822403
0.000819956
0.00083998
0.000840008
0.000840029
0.000840039
0.000840031
0.00084
0.000839936
0.000839833
0.000839685
0.000839487
0.000839232
0.000838918
0.000838539
0.000838088
0.000837556
0.000836932
0.000836201
0.000835344
0.000834334
0.00083315
0.000831738
0.000830089
0.000828091
0.000825887
0.000823585
0.000840563
0.000840593
0.000840622
0.000840644
0.000840656
0.00084065
0.000840621
0.00084056
0.000840463
0.000840322
0.000840133
0.000839892
0.000839593
0.00083923
0.000838795
0.000838277
0.000837661
0.00083693
0.000836057
0.00083502
0.000833767
0.000832287
0.000830464
0.000828433
0.000826247
0.000840922
0.000840955
0.000840988
0.000841019
0.000841044
0.000841056
0.000841049
0.000841016
0.000840951
0.000840848
0.000840703
0.000840509
0.000840264
0.00083996
0.00083959
0.000839143
0.000838604
0.000837958
0.000837177
0.00083624
0.000835096
0.000833731
0.000832028
0.000830113
0.000828009
0.000841101
0.000841136
0.000841172
0.000841208
0.00084124
0.000841261
0.000841265
0.000841247
0.000841199
0.000841115
0.000840992
0.000840823
0.000840605
0.000840332
0.000839995
0.000839585
0.000839087
0.000838485
0.000837752
0.000836867
0.000835779
0.000834473
0.000832833
0.000830977
0.000828917
0.000841125
0.000841161
0.000841199
0.000841236
0.000841269
0.000841292
0.000841298
0.000841281
0.000841234
0.000841152
0.00084103
0.000840864
0.000840648
0.000840378
0.000840044
0.000839638
0.000839144
0.000838546
0.000837817
0.000836937
0.000835853
0.00083455
0.000832915
0.00083106
0.000829005
0.000840929
0.000840966
0.000841003
0.000841037
0.000841064
0.000841077
0.00084107
0.000841036
0.000840968
0.000840862
0.000840713
0.000840516
0.000840267
0.000839959
0.000839586
0.000839135
0.000838592
0.00083794
0.000837152
0.000836207
0.000835052
0.000833673
0.000831958
0.00083002
0.000827912
0.000840478
0.000840515
0.000840548
0.000840574
0.000840587
0.000840578
0.000840542
0.000840472
0.00084036
0.000840202
0.000839994
0.000839733
0.000839413
0.000839028
0.000838569
0.000838025
0.00083738
0.000836615
0.000835705
0.000834625
0.000833325
0.000831789
0.00082991
0.000827809
0.000825588
0.000839695
0.000839733
0.000839762
0.000839774
0.000839762
0.000839719
0.000839636
0.000839506
0.000839324
0.000839085
0.000838786
0.000838423
0.000837993
0.000837487
0.000836897
0.000836209
0.000835407
0.000834471
0.000833375
0.000832092
0.000830573
0.000828804
0.00082668
0.000824337
0.00082195
0.000838456
0.000838498
0.00083852
0.000838513
0.000838467
0.000838372
0.000838222
0.000838007
0.000837724
0.00083737
0.000836943
0.00083644
0.000835857
0.000835186
0.000834416
0.000833533
0.000832519
0.000831354
0.000830007
0.000828456
0.000826647
0.00082457
0.000822125
0.00081947
0.000816871
0.000836582
0.000836632
0.000836646
0.000836613
0.00083652
0.000836357
0.000836113
0.000835785