/*--------------------------------*- C++ -*----------------------------------*\
  =========                 |
  \\      /  F ield         | OpenFOAM: The Open Source CFD Toolbox
   \\    /   O peration     | Website:  https://openfoam.org
    \\  /    A nd           | Version:  6
     \\/     M anipulation  |
\*---------------------------------------------------------------------------*/
FoamFile
{
    version     2.0;
    format      ascii;
    class       volScalarField;
    location    "0.03";
    object      p;
}
// * * * * * * * * * * * * * * * * * * * * * * * * * * * * * * * * * * * * * //

dimensions      [0 2 -2 0 0 0 0];

internalField   nonuniform List<scalar> 
3080
(
0.189423
0.189238
0.189052
0.188866
0.188679
0.188492
0.188304
0.188116
0.187929
0.187742
0.187556
0.187372
0.18719
0.187011
0.186837
0.18667
0.186511
0.186365
0.186235
0.186127
0.18605
0.186016
0.186043
0.186156
0.186402
0.186852
0.187664
0.189095
0.192033
0.196853
0.1894
0.189215
0.18903
0.188844
0.188658
0.188471
0.188284
0.188097
0.18791
0.187723
0.187538
0.187354
0.187173
0.186996
0.186823
0.186657
0.186501
0.186357
0.18623
0.186127
0.186055
0.186028
0.186063
0.186188
0.186445
0.186904
0.18771
0.189052
0.191691
0.195646
0.189383
0.189199
0.189014
0.188828
0.188642
0.188456
0.188269
0.188082
0.187896
0.18771
0.187525
0.187342
0.187162
0.186985
0.186814
0.18665
0.186495
0.186354
0.18623
0.18613
0.186064
0.186043
0.186086
0.186219
0.186486
0.186949
0.187736
0.188976
0.191227
0.193985
0.189372
0.189188
0.189003
0.188818
0.188632
0.188446
0.188259
0.188073
0.187886
0.187701
0.187516
0.187334
0.187154
0.186977
0.186806
0.186642
0.186488
0.186347
0.186223
0.186124
0.186058
0.186036
0.186077
0.186205
0.186459
0.186892
0.187603
0.188665
0.190421
0.192244
0.189363
0.189179
0.188994
0.188809
0.188623
0.188437
0.188251
0.188064
0.187878
0.187692
0.187508
0.187325
0.187145
0.186968
0.186796
0.186632
0.186476
0.186334
0.186208
0.186106
0.186035
0.186007
0.186037
0.186148
0.186371
0.186748
0.187349
0.188201
0.189496
0.190643
0.189355
0.189171
0.188987
0.188801
0.188616
0.18843
0.188243
0.188057
0.18787
0.187684
0.187499
0.187316
0.187135
0.186957
0.186785
0.186618
0.186461
0.186315
0.186186
0.186078
0.186
0.18596
0.185973
0.186057
0.186238
0.186544
0.187021
0.187666
0.188572
0.189213
0.189348
0.189164
0.18898
0.188794
0.188609
0.188422
0.188236
0.188049
0.187862
0.187676
0.187491
0.187306
0.187124
0.186946
0.186771
0.186602
0.186442
0.186292
0.186157
0.186042
0.185953
0.185898
0.185889
0.185941
0.186071
0.186299
0.18665
0.187099
0.18768
0.187934
0.189341
0.189158
0.188973
0.188788
0.188602
0.188416
0.188229
0.188042
0.187855
0.187668
0.187482
0.187296
0.187113
0.186933
0.186756
0.186584
0.18642
0.186265
0.186123
0.185998
0.185896
0.185824
0.185789
0.185804
0.18588
0.186027
0.186253
0.186523
0.186833
0.186789
0.189335
0.189152
0.188967
0.188782
0.188596
0.18841
0.188222
0.188035
0.187847
0.18766
0.187472
0.187286
0.187101
0.186919
0.186739
0.186564
0.186395
0.186234
0.186084
0.185949
0.185832
0.185739
0.185676
0.185651
0.18567
0.185736
0.185846
0.185955
0.186039
0.185766
0.18933
0.189146
0.188962
0.188777
0.18859
0.188404
0.188216
0.188028
0.18784
0.187651
0.187463
0.187275
0.187089
0.186904
0.186721
0.186542
0.186368
0.1862
0.186041
0.185894
0.185761
0.185646
0.185554
0.185488
0.18545
0.185437
0.185437
0.185404
0.185302
0.184849
0.189325
0.189141
0.188957
0.188771
0.188585
0.188398
0.18821
0.188022
0.187833
0.187643
0.187454
0.187264
0.187076
0.186888
0.186702
0.186519
0.186339
0.186164
0.185996
0.185835
0.185685
0.185548
0.185425
0.185318
0.185224
0.185136
0.185037
0.184879
0.184621
0.184029
0.189136
0.188952
0.188766
0.18858
0.188392
0.188204
0.188015
0.187825
0.187635
0.187444
0.187253
0.187063
0.186872
0.186683
0.186495
0.186309
0.186126
0.185948
0.185774
0.185606
0.185446
0.185292
0.185144
0.184997
0.184839
0.18465
0.184383
0.183997
0.183293
0.189132
0.188947
0.188761
0.188575
0.188387
0.188198
0.188009
0.187818
0.187627
0.187435
0.187242
0.187049
0.186856
0.186663
0.18647
0.186278
0.186087
0.185898
0.185711
0.185526
0.185342
0.185159
0.184972
0.184774
0.184551
0.184281
0.18392
0.183426
0.182633
0.189127
0.188942
0.188757
0.18857
0.188382
0.188192
0.188002
0.187811
0.187618
0.187425
0.187231
0.187035
0.186839
0.186642
0.186445
0.186247
0.186048
0.185848
0.185648
0.185445
0.185239
0.185026
0.184802
0.184557
0.184275
0.183933
0.18349
0.182906
0.182042
0.189122
0.188938
0.188752
0.188565
0.188376
0.188187
0.187996
0.187804
0.18761
0.187416
0.187219
0.187022
0.186823
0.186622
0.18642
0.186215
0.186009
0.185799
0.185585
0.185365
0.185137
0.184897
0.184637
0.184348
0.184013
0.183608
0.183093
0.182434
0.181512
0.189118
0.188933
0.188747
0.18856
0.188371
0.188181
0.18799
0.187797
0.187602
0.187406
0.187208
0.187008
0.186806
0.186602
0.186395
0.186184
0.18597
0.18575
0.185523
0.185287
0.185039
0.184772
0.18448
0.18415
0.183767
0.183306
0.18273
0.182008
0.181039
0.189113
0.188928
0.188742
0.188555
0.188366
0.188176
0.187983
0.18779
0.187594
0.187397
0.187197
0.186995
0.186791
0.186583
0.186371
0.186154
0.185932
0.185703
0.185464
0.185213
0.184944
0.184654
0.184331
0.183966
0.183539
0.183029
0.182401
0.181625
0.180617
0.189109
0.188924
0.188738
0.18855
0.188361
0.18817
0.187978
0.187783
0.187587
0.187388
0.187187
0.186983
0.186776
0.186564
0.186348
0.186126
0.185897
0.185659
0.185408
0.185143
0.184857
0.184544
0.184194
0.183796
0.183331
0.182778
0.182105
0.181283
0.180244
0.189104
0.188919
0.188733
0.188546
0.188356
0.188165
0.187972
0.187777
0.18758
0.18738
0.187177
0.186971
0.186762
0.186547
0.186327
0.1861
0.185864
0.185618
0.185357
0.185078
0.184776
0.184443
0.184069
0.183642
0.183143
0.182553
0.181841
0.180981
0.179915
0.1891
0.188915
0.188729
0.188541
0.188352
0.18816
0.187967
0.187771
0.187573
0.187372
0.187168
0.186961
0.186749
0.186531
0.186308
0.186076
0.185834
0.18558
0.18531
0.185019
0.184703
0.184352
0.183956
0.183503
0.182976
0.182353
0.181608
0.180716
0.179628
0.189095
0.188911
0.188725
0.188537
0.188347
0.188155
0.187962
0.187766
0.187567
0.187365
0.18716
0.186951
0.186737
0.186517
0.18629
0.186054
0.185807
0.185546
0.185268
0.184967
0.184637
0.18427
0.183856
0.183381
0.182829
0.182179
0.181406
0.180487
0.179381
0.189091
0.188907
0.18872
0.188532
0.188343
0.188151
0.187957
0.18776
0.187561
0.187359
0.187152
0.186942
0.186726
0.186504
0.186274
0.186035
0.185783
0.185517
0.185231
0.184921
0.18458
0.1842
0.183769
0.183276
0.182702
0.182029
0.181233
0.180291
0.179171
0.189087
0.188902
0.188716
0.188528
0.188339
0.188147
0.187952
0.187755
0.187556
0.187353
0.187146
0.186934
0.186717
0.186493
0.18626
0.186018
0.185762
0.185491
0.185199
0.184881
0.184531
0.184139
0.183696
0.183187
0.182596
0.181904
0.181089
0.180129
0.178996
0.189083
0.188898
0.188712
0.188524
0.188335
0.188142
0.187948
0.187751
0.187551
0.187347
0.187139
0.186927
0.186708
0.186483
0.186249
0.186003
0.185745
0.185469
0.185172
0.184848
0.184491
0.18409
0.183635
0.183114
0.182509
0.181802
0.180972
0.179998
0.178856
0.189078
0.188894
0.188708
0.188521
0.188331
0.188139
0.187944
0.187747
0.187546
0.187342
0.187134
0.186921
0.186701
0.186475
0.186239
0.185992
0.185731
0.185452
0.185151
0.184822
0.184459
0.184051
0.183589
0.183057
0.182442
0.181724
0.180883
0.179898
0.178749
0.189074
0.18889
0.188704
0.188517
0.188327
0.188135
0.18794
0.187743
0.187542
0.187338
0.18713
0.186916
0.186696
0.186468
0.186231
0.185983
0.18572
0.185439
0.185135
0.184803
0.184436
0.184023
0.183555
0.183017
0.182395
0.18167
0.180821
0.179829
0.178675
0.18907
0.188886
0.188701
0.188513
0.188324
0.188132
0.187937
0.18774
0.187539
0.187335
0.187126
0.186912
0.186691
0.186463
0.186226
0.185976
0.185712
0.18543
0.185125
0.184791
0.184421
0.184006
0.183535
0.182994
0.182367
0.181638
0.180786
0.17979
0.178633
0.189066
0.188882
0.188697
0.18851
0.18832
0.188128
0.187934
0.187737
0.187536
0.187332
0.187123
0.186909
0.186688
0.18646
0.186222
0.185972
0.185708
0.185425
0.18512
0.184786
0.184415
0.183999
0.183527
0.182986
0.182359
0.181629
0.180776
0.17978
0.178622
0.189062
0.188879
0.188693
0.188506
0.188317
0.188125
0.187931
0.187734
0.187533
0.187329
0.187121
0.186907
0.186686
0.186458
0.186221
0.185972
0.185708
0.185426
0.185122
0.184789
0.18442
0.184007
0.183538
0.183
0.182377
0.181651
0.180803
0.179811
0.178656
0.189058
0.188875
0.18869
0.188503
0.188314
0.188122
0.187928
0.187732
0.187532
0.187328
0.187119
0.186906
0.186686
0.186459
0.186223
0.185975
0.185713
0.185433
0.185132
0.184802
0.184438
0.18403
0.183567
0.183036
0.182422
0.181706
0.180868
0.179886
0.178736
0.189054
0.188871
0.188686
0.1885
0.188311
0.18812
0.187926
0.18773
0.18753
0.187327
0.187119
0.186907
0.186688
0.186462
0.186227
0.185981
0.185722
0.185446
0.185149
0.184825
0.184467
0.184068
0.183615
0.183096
0.182496
0.181794
0.180971
0.180004
0.178864
0.18905
0.188867
0.188683
0.188497
0.188308
0.188118
0.187925
0.187729
0.18753
0.187327
0.18712
0.186909
0.186691
0.186467
0.186234
0.185991
0.185736
0.185464
0.185173
0.184857
0.184508
0.18412
0.183681
0.183179
0.182597
0.181916
0.181113
0.180167
0.17904
0.189046
0.188864
0.18868
0.188494
0.188306
0.188116
0.187923
0.187728
0.187529
0.187328
0.187122
0.186912
0.186696
0.186474
0.186244
0.186005
0.185754
0.185488
0.185204
0.184897
0.184561
0.184187
0.183766
0.183284
0.182725
0.18207
0.181294
0.180375
0.179266
0.189042
0.188861
0.188677
0.188492
0.188304
0.188114
0.187922
0.187728
0.18753
0.187329
0.187125
0.186916
0.186702
0.186483
0.186257
0.186021
0.185776
0.185517
0.185242
0.184946
0.184624
0.184267
0.183867
0.18341
0.182881
0.182258
0.181516
0.180631
0.179545
0.189039
0.188857
0.188674
0.188489
0.188302
0.188113
0.187922
0.187728
0.187531
0.187331
0.187128
0.186922
0.18671
0.186494
0.186271
0.186041
0.185802
0.185551
0.185286
0.185003
0.184697
0.184361
0.183985
0.183559
0.183064
0.18248
0.18178
0.180937
0.179879
0.189035
0.188854
0.188672
0.188487
0.188301
0.188112
0.187921
0.187728
0.187533
0.187334
0.187133
0.186928
0.186719
0.186506
0.186287
0.186063
0.18583
0.185589
0.185335
0.185067
0.184779
0.184466
0.184119
0.183727
0.183273
0.182736
0.182085
0.181295
0.180271
0.189032
0.188852
0.188669
0.188485
0.188299
0.188111
0.187921
0.187729
0.187535
0.187338
0.187138
0.186935
0.186729
0.18652
0.186306
0.186087
0.185862
0.18563
0.185389
0.185137
0.18487
0.184582
0.184268
0.183915
0.183508
0.183026
0.182435
0.181708
0.180727
0.189029
0.188849
0.188667
0.188484
0.188298
0.188111
0.187922
0.18773
0.187537
0.187341
0.187143
0.186943
0.18674
0.186534
0.186325
0.186113
0.185896
0.185674
0.185447
0.185212
0.184967
0.184708
0.184429
0.18412
0.183767
0.18335
0.182828
0.18218
0.181251
0.189026
0.188846
0.188665
0.188482
0.188297
0.188111
0.187922
0.187732
0.18754
0.187345
0.187149
0.186951
0.186751
0.186549
0.186345
0.186139
0.185931
0.18572
0.185507
0.18529
0.185069
0.18484
0.184599
0.18434
0.184048
0.183705
0.183266
0.182716
0.181848
0.189023
0.188844
0.188663
0.188481
0.188297
0.188111
0.187923
0.187734
0.187543
0.18735
0.187156
0.18696
0.186763
0.186565
0.186366
0.186167
0.185967
0.185768
0.185569
0.185371
0.185174
0.184977
0.184778
0.184572
0.184347
0.18409
0.183748
0.183318
0.182526
0.189021
0.188842
0.188662
0.18848
0.188296
0.188111
0.187924
0.187736
0.187546
0.187355
0.187163
0.186969
0.186776
0.186582
0.186388
0.186195
0.186004
0.185815
0.185631
0.185452
0.18528
0.185117
0.184961
0.184814
0.184663
0.184503
0.184273
0.183994
0.183294
0.189019
0.188841
0.188661
0.188479
0.188296
0.188112
0.187926
0.187738
0.18755
0.18736
0.18717
0.186979
0.186788
0.186598
0.186409
0.186223
0.18604
0.185863
0.185693
0.185533
0.185386
0.185257
0.185146
0.185059
0.184988
0.184939
0.184837
0.184749
0.184159
0.189018
0.18884
0.18866
0.18848
0.188297
0.188113
0.187928
0.187741
0.187554
0.187366
0.187177
0.186989
0.186801
0.186614
0.18643
0.186249
0.186074
0.185907
0.18575
0.185608
0.185485
0.185387
0.18532
0.185294
0.185303
0.185373
0.185407
0.185556
0.185079
0.189017
0.18884
0.188661
0.18848
0.188298
0.188115
0.187931
0.187745
0.187558
0.187371
0.187184
0.186998
0.186812
0.186628
0.186448
0.186273
0.186104
0.185946
0.1858
0.185673
0.185571
0.185501
0.185472
0.185501
0.185584
0.185775
0.18594
0.186366
0.185998
0.189018
0.188841
0.188662
0.188482
0.1883
0.188118
0.187934
0.187749
0.187563
0.187377
0.187191
0.187006
0.186822
0.186641
0.186464
0.186293
0.18613
0.185979
0.185843
0.185728
0.185642
0.185596
0.1856
0.185679
0.185827
0.186135
0.186423
0.18716
0.186899
0.189019
0.188842
0.188664
0.188484
0.188303
0.18812
0.187937
0.187752
0.187567
0.187382
0.187197
0.187013
0.186831
0.186652
0.186478
0.18631
0.186151
0.186005
0.185877
0.185772
0.1857
0.185673
0.185703
0.185825
0.186029
0.18645
0.186846
0.187929
0.187768
0.189019
0.188842
0.188664
0.188484
0.188303
0.188121
0.187938
0.187754
0.187569
0.187385
0.1872
0.187017
0.186837
0.186659
0.186486
0.186321
0.186165
0.186023
0.1859
0.185803
0.18574
0.185728
0.185778
0.185935
0.186182
0.186708
0.187194
0.188647
0.188581
0.189018
0.188842
0.188664
0.188485
0.188304
0.188122
0.187939
0.187755
0.187571
0.187386
0.187202
0.18702
0.18684
0.186663
0.186491
0.186327
0.186173
0.186034
0.185914
0.185821
0.185765
0.185764
0.185827
0.186011
0.186289
0.186907
0.187463
0.189293
0.189324
0.188842
0.188664
0.188484
0.188304
0.188122
0.187939
0.187755
0.187571
0.187387
0.187203
0.187021
0.186841
0.186664
0.186493
0.18633
0.186177
0.186039
0.185921
0.185831
0.185779
0.185784
0.185855
0.186058
0.186356
0.187049
0.187659
0.189855
0.189996
0.188841
0.188663
0.188484
0.188303
0.188121
0.187938
0.187754
0.18757
0.187386
0.187202
0.18702
0.18684
0.186664
0.186493
0.18633
0.186177
0.186039
0.185922
0.185833
0.185782
0.18579
0.185866
0.18608
0.186388
0.187139
0.187785
0.190317
0.190595
0.18884
0.188662
0.188482
0.188302
0.18812
0.187937
0.187753
0.187568
0.187384
0.1872
0.187018
0.186838
0.186662
0.18649
0.186327
0.186174
0.186036
0.185918
0.185829
0.185778
0.185786
0.185861
0.186081
0.186392
0.187179
0.18785
0.190667
0.191121
0.188838
0.18866
0.18848
0.1883
0.188117
0.187934
0.18775
0.187566
0.187381
0.187197
0.187015
0.186834
0.186658
0.186486
0.186322
0.186168
0.186029
0.18591
0.18582
0.185767
0.185773
0.185845
0.186064
0.186372
0.187176
0.18786
0.190897
0.191576
0.188835
0.188657
0.188478
0.188297
0.188114
0.187931
0.187747
0.187562
0.187378
0.187193
0.18701
0.18683
0.186652
0.18648
0.186315
0.18616
0.18602
0.185899
0.185806
0.18575
0.185753
0.18582
0.186032
0.186332
0.187134
0.187822
0.191001
0.191961
0.188831
0.188653
0.188474
0.188293
0.18811
0.187927
0.187742
0.187558
0.187373
0.187188
0.187005
0.186823
0.186645
0.186472
0.186306
0.18615
0.186008
0.185885
0.185789
0.185729
0.185726
0.185786
0.185988
0.186277
0.187057
0.187742
0.190963
0.19227
0.188827
0.188649
0.188469
0.188288
0.188106
0.187922
0.187738
0.187552
0.187367
0.187182
0.186998
0.186816
0.186637
0.186463
0.186296
0.186138
0.185994
0.185868
0.185769
0.185704
0.185694
0.185746
0.185933
0.186208
0.186948
0.187623
0.190764
0.192488
0.188826
0.188647
0.188467
0.188286
0.188104
0.18792
0.187735
0.18755
0.187364
0.187179
0.186994
0.186812
0.186632
0.186457
0.186288
0.186129
0.185983
0.185854
0.185751
0.185682
0.185665
0.185708
0.18588
0.186139
0.186833
0.187492
0.190456
0.192618
0.188828
0.188649
0.188469
0.188288
0.188105
0.187921
0.187736
0.187551
0.187365
0.187179
0.186994
0.186812
0.186631
0.186456
0.186286
0.186126
0.185979
0.185848
0.185743
0.18567
0.185649
0.185687
0.185849
0.186098
0.186764
0.187411
0.190251
0.192698
0.209224
0.199653
0.190154
0.185831
0.182319
0.178046
0.173661
0.169406
0.165072
0.160548
0.155806
0.150792
0.145434
0.139657
0.1334
0.126572
0.11913
0.110881
0.101963
0.0916466
0.0811911
0.0670497
0.0565945
0.0317173
0.0314413
0.203031
0.195884
0.188294
0.184454
0.18107
0.176975
0.172747
0.168575
0.164283
0.159775
0.15503
0.150002
0.144626
0.138831
0.132555
0.125708
0.118247
0.109975
0.101037
0.0906852
0.080218
0.0660024
0.0555757
0.030481
0.0303354
0.198036
0.192877
0.186798
0.18317
0.179814
0.175885
0.171808
0.167711
0.163452
0.158956
0.154205
0.149161
0.143763
0.137943
0.131643
0.124768
0.117282
0.108974
0.100018
0.0896021
0.0791556
0.0647715
0.054533
0.0289058
0.0294198
0.194594
0.190633
0.185615
0.182123
0.17878
0.174981
0.171019
0.166979
0.162748
0.158268
0.15352
0.148466
0.143051
0.137212
0.13089
0.12399
0.116481
0.108138
0.0991677
0.0886831
0.0782723
0.0636982
0.0537057
0.0274923
0.0289422
0.191978
0.188748
0.184528
0.181194
0.177892
0.174205
0.170339
0.166349
0.162149
0.157689
0.152948
0.147891
0.142467
0.136613
0.130274
0.123353
0.115826
0.107451
0.0984711
0.0879228
0.0775524
0.0628001
0.0530569
0.0263248
0.0287474
0.18984
0.187091
0.183481
0.180318
0.177081
0.173501
0.169722
0.165781
0.161613
0.157175
0.152446
0.14739
0.14196
0.136095
0.129743
0.122803
0.11526
0.106857
0.0978698
0.0872628
0.0769344
0.0620178
0.0525175
0.0253337
0.0286965
0.18806
0.185641
0.182489
0.179487
0.17633
0.17285
0.169152
0.16526
0.161126
0.156711
0.151995
0.146942
0.141509
0.135636
0.129272
0.122316
0.114759
0.10633
0.0973377
0.0866756
0.0763901
0.0613207
0.0520578
0.0244698
0.0287343
0.186562
0.184375
0.181561
0.178705
0.175633
0.172247
0.168624
0.164781
0.16068
0.156291
0.151589
0.146542
0.141107
0.135227
0.128854
0.121883
0.114314
0.105861
0.0968648
0.0861513
0.0759089
0.0606971
0.0516655
0.0237115
0.0288367
0.185288
0.183263
0.180701
0.177974
0.174986
0.171688
0.168135
0.16434
0.160274
0.155909
0.151223
0.146183
0.140749
0.134864
0.128482
0.121499
0.113919
0.105444
0.0964443
0.085683
0.0754833
0.0601396
0.0513312
0.0230457
0.0289851
0.184189
0.182283
0.179907
0.177293
0.174386
0.171169
0.167682
0.163934
0.159902
0.155563
0.150893
0.145861
0.140429
0.13454
0.128151
0.121157
0.113567
0.105072
0.0960702
0.0852645
0.0751064
0.0596414
0.0510465
0.0224608
0.029164
0.183232
0.181413
0.179179
0.176662
0.173832
0.170689
0.167263
0.16356
0.159563
0.155249
0.150596
0.145573
0.140143
0.134252
0.127857
0.120852
0.113254
0.10474
0.0957371
0.0848905
0.0747726
0.0591964
0.050804
0.021947
0.0293616
0.182393
0.18064
0.178513
0.176079
0.17332
0.170245
0.166876
0.163217
0.159253
0.154964
0.150328
0.145314
0.139888
0.133995
0.127596
0.120582
0.112976
0.104445
0.0954408
0.0845568
0.0744771
0.0587996
0.0505981
0.021496
0.0295689
0.181653
0.179951
0.177907
0.175544
0.17285
0.169836
0.16652
0.162903
0.158971
0.154706
0.150087
0.145083
0.139661
0.133768
0.127365
0.120342
0.11273
0.104183
0.0951778
0.0842596
0.074216
0.0584469
0.0504235
0.0211009
0.0297792
0.180999
0.179336
0.177356
0.175054
0.172418
0.169461
0.166193
0.162615
0.158714
0.154473
0.149871
0.144877
0.13946
0.133566
0.12716
0.12013
0.112512
0.10395
0.0949449
0.0839959
0.0739858
0.0581345
0.050276
0.020756
0.0299871
0.180419
0.178788
0.176858
0.174608
0.172024
0.169117
0.165895
0.162353
0.158482
0.154264
0.149677
0.144694
0.139281
0.133388
0.126979
0.119943
0.112319
0.103745
0.0947392
0.0837625
0.0737833
0.0578588
0.0501518
0.0204561
0.0301886
0.179904
0.178299
0.176409
0.174203
0.171665
0.168804
0.165622
0.162116
0.158272
0.154075
0.149504
0.144531
0.139123
0.133231
0.12682
0.119779
0.11215
0.103564
0.0945581
0.0835569
0.0736057
0.0576169
0.0500474
0.020197
0.0303803
0.179448
0.177864
0.176007
0.173838
0.171341
0.16852
0.165376
0.161901
0.158083
0.153906
0.14935
0.144386
0.138984
0.133092
0.12668
0.119635
0.112001
0.103406
0.0943992
0.0833765
0.0734505
0.0574057
0.0499598
0.0199747
0.0305594
0.179045
0.177479
0.175647
0.17351
0.171049
0.168265
0.165153
0.161707
0.157914
0.153756
0.149214
0.144259
0.138862
0.132972
0.126558
0.119509
0.111871
0.103268
0.0942604
0.0832192
0.0733152
0.0572227
0.0498861
0.0197856
0.0307239
0.178691
0.17714
0.175329
0.173219
0.170788
0.168036
0.164955
0.161535
0.157763
0.153623
0.149093
0.144147
0.138754
0.132866
0.126452
0.119399
0.111758
0.103147
0.0941395
0.0830827
0.0731977
0.0570653
0.0498239
0.0196269
0.0308718
0.178382
0.176844
0.17505
0.172962
0.170558
0.167834
0.164779
0.161382
0.15763
0.153505
0.148988
0.144049
0.138661
0.132774
0.12636
0.119304
0.111661
0.103043
0.0940348
0.0829653
0.0730959
0.0569313
0.0497708
0.0194957
0.0310019
0.178116
0.176588
0.174808
0.172739
0.170358
0.167657
0.164624
0.161248
0.157513
0.153403
0.148896
0.143965
0.138581
0.132696
0.12628
0.119223
0.111577
0.102954
0.0939446
0.0828651
0.0730081
0.0568187
0.0497249
0.0193897
0.0311128
0.17789
0.176371
0.174602
0.172548
0.170186
0.167505
0.164492
0.161133
0.157413
0.153315
0.148817
0.143892
0.138512
0.132628
0.126213
0.119154
0.111505
0.102879
0.0938677
0.0827808
0.0729327
0.0567259
0.0496843
0.0193071
0.0312034
0.177702
0.176191
0.174431
0.172388
0.170042
0.167377
0.16438
0.161036
0.157329
0.153241
0.14875
0.143831
0.138454
0.132571
0.126156
0.119095
0.111445
0.102816
0.0938026
0.082711
0.0728684
0.0566512
0.0496476
0.019246
0.0312732
0.177552
0.176046
0.174293
0.17226
0.169926
0.167274
0.16429
0.160957
0.15726
0.15318
0.148696
0.143781
0.138406
0.132525
0.126109
0.119047
0.111395
0.102764
0.0937485
0.0826545
0.0728143
0.0565929
0.0496141
0.0192038
0.0313233
0.177438
0.175936
0.174187
0.172162
0.169836
0.167195
0.16422
0.160896
0.157207
0.153132
0.148653
0.143741
0.138368
0.132487
0.126071
0.119009
0.111354
0.102722
0.0937047
0.0826104
0.0727696
0.0565496
0.0495839
0.0191778
0.0313557
0.17736
0.17586
0.174114
0.172093
0.169774
0.167139
0.16417
0.160852
0.157168
0.153098
0.148621
0.143711
0.138338
0.132458
0.126041
0.118979
0.111323
0.102691
0.0936701
0.0825786
0.0727323
0.0565228
0.0495515
0.0191749
0.0313597
0.177316
0.175817
0.174073
0.172054
0.169738
0.167106
0.164141
0.160826
0.157144
0.153075
0.1486
0.14369
0.138318
0.132438
0.126021
0.118958
0.1113
0.10267
0.0936427
0.0825621
0.0726956
0.0565241
0.0494942
0.0192323
0.0312835
0.177308
0.175808
0.174064
0.172045
0.16973
0.167098
0.164132
0.160817
0.157134
0.153066
0.148589
0.143679
0.138306
0.132426
0.126007
0.118945
0.111284
0.10266
0.0936199
0.0825625
0.072653
0.0565625
0.049393
0.0193804
0.0310852
0.177347
0.175845
0.174098
0.172077
0.169757
0.167121
0.164151
0.160831
0.157145
0.153072
0.148593
0.14368
0.138306
0.132424
0.126004
0.118943
0.111279
0.102659
0.0936129
0.0825683
0.0726369
0.056588
0.0493471
0.0194581
0.0309809
0.177436
0.175929
0.174178
0.172151
0.169823
0.167178
0.164199
0.160871
0.157177
0.153097
0.148613
0.143696
0.138318
0.132434
0.126013
0.118952
0.111288
0.10267
0.0936227
0.0825835
0.0726456
0.0566098
0.049345
0.0194883
0.0309403
0.177576
0.176064
0.174305
0.172268
0.169928
0.167269
0.164277
0.160936
0.15723
0.153141
0.148648
0.143726
0.138344
0.132458
0.126036
0.118975
0.111311
0.102695
0.0936485
0.0826126
0.0726735
0.0566415
0.0493647
0.0195118
0.0309102
0.177769
0.176248
0.174479
0.17243
0.170072
0.167394
0.164384
0.161026
0.157305
0.153204
0.148701
0.143771
0.138384
0.132495
0.126072
0.119011
0.111349
0.102735
0.0936912
0.0826573
0.0727205
0.0566869
0.0494035
0.019537
0.0308828
0.178017
0.176485
0.174702
0.172636
0.170257
0.167555
0.164522
0.161143
0.157403
0.153286
0.148771
0.143832
0.138439
0.132547
0.126123
0.119063
0.111404
0.102792
0.0937524
0.0827193
0.072789
0.056747
0.0494647
0.0195637
0.030863
0.178323
0.176777
0.174977
0.172889
0.170482
0.167751
0.16469
0.161286
0.157524
0.153389
0.14886
0.14391
0.138511
0.132616
0.126191
0.119132
0.111476
0.102866
0.093834
0.0828003
0.0728812
0.0568239
0.0495518
0.0195928
0.0308555
0.178691
0.177128
0.175304
0.17319
0.17075
0.167984
0.16489
0.161456
0.15767
0.153514
0.148968
0.144007
0.138601
0.132702
0.126277
0.11922
0.111569
0.102962
0.0939386
0.0829029
0.0729999
0.0569202
0.0496683
0.0196266
0.030864
0.179128
0.177541
0.175688
0.173542
0.171061
0.168255
0.165123
0.161656
0.15784
0.153661
0.149098
0.144125
0.138711
0.132809
0.126385
0.11933
0.111684
0.10308
0.094069
0.0830298
0.0731484
0.0570389
0.0498181
0.0196678
0.0308931
0.17964
0.178022
0.176132
0.173947
0.171419
0.168565
0.16539
0.161885
0.158038
0.153834
0.149252
0.144265
0.138844
0.132939
0.126516
0.119464
0.111826
0.103225
0.0942282
0.0831842
0.0733303
0.0571834
0.0500061
0.0197194
0.0309483
0.180236
0.178577
0.17664
0.174408
0.171824
0.168915
0.165693
0.162147
0.158265
0.154033
0.149431
0.144431
0.139003
0.133095
0.126674
0.119625
0.111996
0.103399
0.09442
0.0833696
0.0735494
0.0573574
0.0502373
0.0197847
0.0310361
0.180929
0.179213
0.177216
0.17493
0.17228
0.169309
0.166034
0.162442
0.158523
0.154262
0.149639
0.144626
0.13919
0.13328
0.126863
0.119818
0.1122
0.103606
0.0946481
0.0835895
0.0738102
0.0575649
0.0505175
0.0198683
0.0311637
0.181737
0.179941
0.177866
0.175516
0.172788
0.169747
0.166414
0.162773
0.158815
0.154524
0.149879
0.144852
0.13941
0.133499
0.127086
0.120046
0.11244
0.103851
0.0949167
0.0838483
0.0741172
0.0578108
0.0508524
0.0199761
0.0313383
0.18268
0.18077
0.178595
0.176171
0.173352
0.170232
0.166836
0.163143
0.159143
0.154821
0.150154
0.145113
0.139666
0.133754
0.127347
0.120313
0.112722
0.104137
0.0952308
0.0841504
0.0744762
0.0580993
0.0512509
0.0201114
0.0315752
0.183798
0.181711
0.179411
0.176901
0.173973
0.170766
0.167303
0.163554
0.159511
0.155156
0.150467
0.145414
0.139962
0.134051
0.127652
0.120624
0.11305
0.10447
0.095597
0.0844983
0.0748978
0.0584277
0.0517364
0.0202567
0.0319217
0.185088
0.182724
0.180277
0.177676
0.174624
0.171325
0.167793
0.163989
0.159903
0.155517
0.150807
0.145742
0.140288
0.13438
0.127989
0.120969
0.113415
0.104835
0.0960042
0.0848756
0.0753741
0.0587712
0.0523163
0.0203729
0.0324266
0.186507
0.183747
0.181143
0.178452
0.175265
0.171876
0.168279
0.164421
0.160296
0.155882
0.151154
0.14608
0.140625
0.13472
0.128339
0.121326
0.113793
0.105213
0.0964258
0.0852656
0.0758672
0.0591283
0.0529245
0.0205096
0.0329951
0.188059
0.184763
0.181995
0.179216
0.175888
0.172412
0.168752
0.164844
0.160683
0.156244
0.151502
0.146421
0.140967
0.135067
0.128697
0.121691
0.114178
0.1056
0.0968528
0.0856659
0.0763618
0.059506
0.0535282
0.0207019
0.0335717
0.189754
0.185761
0.182825
0.179964
0.176489
0.172929
0.169211
0.165256
0.161062
0.156601
0.151847
0.146762
0.141311
0.135416
0.129057
0.122059
0.114566
0.105991
0.0972802
0.0860737
0.0768511
0.0599031
0.0541159
0.0209544
0.0341423
0.191602
0.186731
0.183626
0.180689
0.177066
0.173427
0.169653
0.165654
0.16143
0.156951
0.152187
0.147101
0.141654
0.135765
0.129418
0.122429
0.114953
0.106383
0.0977046
0.0864857
0.0773314
0.0603158
0.0546831
0.0212622
0.0347053
0.193606
0.18767
0.184391
0.181391
0.177621
0.173903
0.170077
0.166037
0.161787
0.157291
0.152521
0.147436
0.141994
0.136113
0.129777
0.122797
0.115338
0.106774
0.0981235
0.0868992
0.0778
0.0607401
0.0552274
0.0216187
0.0352605
0.195758
0.188579
0.185116
0.182067
0.178153
0.174359
0.170483
0.166405
0.16213
0.157622
0.152848
0.147765
0.142329
0.136457
0.130132
0.123162
0.115718
0.107162
0.0985352
0.087312
0.0782556
0.0611724
0.0557477
0.0220168
0.0358082
0.198043
0.189465
0.1858
0.182718
0.178664
0.174795
0.170872
0.166757
0.162461
0.157942
0.153167
0.148087
0.14266
0.136796
0.130482
0.123522
0.116092
0.107546
0.0989384
0.0877218
0.0786971
0.0616089
0.0562437
0.0224489
0.036349
0.200439
0.190336
0.18644
0.183344
0.179157
0.175211
0.171243
0.167094
0.162778
0.158252
0.153477
0.148403
0.142984
0.13713
0.130826
0.123876
0.116458
0.107924
0.0993317
0.0881265
0.0791236
0.0620459
0.0567153
0.0229068
0.036883
0.202914
0.191203
0.187038
0.183945
0.179633
0.175609
0.171596
0.167416
0.163082
0.158551
0.153778
0.148711
0.1433
0.137456
0.131162
0.124223
0.116816
0.108293
0.0997136
0.0885233
0.0795339
0.062479
0.0571621
0.0233819
0.0374092
0.205429
0.192076
0.187597
0.184522
0.180092
0.175988
0.171933
0.167722
0.163373
0.158838
0.154069
0.149009
0.143608
0.137773
0.131489
0.124561
0.117164
0.108653
0.100083
0.0889104
0.079927
0.0629051
0.0575837
0.0238674
0.0379259
0.207978
0.192977
0.188134
0.185083
0.180541
0.176354
0.172256
0.168016
0.163652
0.159116
0.154352
0.149302
0.14391
0.138085
0.13181
0.124892
0.117504
0.109006
0.100442
0.0892899
0.080306
0.0633257
0.0579837
0.0243621
0.0384381
0.21066
0.193947
0.188671
0.185637
0.180986
0.176711
0.17257
0.168301
0.163925
0.159389
0.154632
0.149592
0.144211
0.138396
0.13213
0.125221
0.11784
0.109355
0.100796
0.0896648
0.0806763
0.0637412
0.05837
0.024859
0.0389587
0.213527
0.194944
0.189175
0.186144
0.181398
0.177038
0.172855
0.168561
0.164175
0.159641
0.154892
0.149861
0.144489
0.138683
0.132425
0.125525
0.11815
0.109675
0.10112
0.0900055
0.081015
0.0641137
0.0587267
0.0252962
0.0394632
0.215922
0.195697
0.189501
0.18647
0.181672
0.177257
0.173047
0.168736
0.164344
0.159811
0.155066
0.150041
0.144674
0.138873
0.132619
0.125724
0.118353
0.109883
0.101333
0.0902238
0.0812397
0.0643449
0.0589731
0.0255489
0.039821
)
;

boundaryField
{
    inlet
    {
        type            zeroGradient;
    }
    outlet
    {
        type            fixedValue;
        value           uniform 0;
    }
    upperWall
    {
        type            zeroGradient;
    }
    lowerWall
    {
        type            zeroGradient;
    }
    frontAndBack
    {
        type            empty;
    }
    procBoundary0to1
    {
        type            processor;
        value           nonuniform List<scalar> 
59
(
0.189607
0.189584
0.189566
0.189555
0.189546
0.189538
0.189531
0.189524
0.189518
0.189513
0.189507
0.18932
0.18932
0.189315
0.18931
0.189306
0.189301
0.189297
0.189292
0.189287
0.189283
0.189278
0.189274
0.18927
0.189265
0.189261
0.189256
0.189252
0.189248
0.189243
0.189239
0.189235
0.18923
0.189226
0.189222
0.189218
0.189214
0.189211
0.189207
0.189204
0.189201
0.189198
0.189196
0.189194
0.189193
0.189193
0.189194
0.189194
0.189193
0.189018
0.189018
0.189017
0.189016
0.189014
0.189012
0.189008
0.189004
0.189003
0.189004
)
;
    }
}


// ************************************************************************* //
