/*--------------------------------*- C++ -*----------------------------------*\
  =========                 |
  \\      /  F ield         | OpenFOAM: The Open Source CFD Toolbox
   \\    /   O peration     | Website:  https://openfoam.org
    \\  /    A nd           | Version:  6
     \\/     M anipulation  |
\*---------------------------------------------------------------------------*/
FoamFile
{
    version     2.0;
    format      ascii;
    class       surfaceScalarField;
    location    "0.03";
    object      phi;
}
// * * * * * * * * * * * * * * * * * * * * * * * * * * * * * * * * * * * * * //

dimensions      [0 3 -1 0 0 0 0];

internalField   nonuniform List<scalar> 
6048
(
4.50711e-07
6.5134e-10
4.50052e-07
6.58947e-10
4.49385e-07
6.66696e-10
4.48711e-07
6.74616e-10
4.48028e-07
6.82772e-10
4.47337e-07
6.91237e-10
4.46637e-07
7.00116e-10
4.45927e-07
7.09526e-10
4.45207e-07
7.19634e-10
4.44477e-07
7.30644e-10
4.43734e-07
7.42838e-10
4.42977e-07
7.56563e-10
4.42205e-07
7.72296e-10
4.41414e-07
7.9065e-10
4.40602e-07
8.12468e-10
4.39763e-07
8.38882e-10
4.38892e-07
8.71434e-10
4.37979e-07
9.123e-10
4.37015e-07
9.64558e-10
4.35982e-07
1.03268e-09
4.34859e-07
1.1234e-09
4.33612e-07
1.24721e-09
4.3219e-07
1.42141e-09
4.30514e-07
1.6761e-09
4.28444e-07
2.0704e-09
4.25722e-07
2.722e-09
4.21776e-07
3.94521e-09
4.15427e-07
6.34918e-09
4.02936e-07
1.24914e-08
2.38674e-08
3.79068e-07
4.76561e-07
1.33366e-09
4.75871e-07
1.34898e-09
4.75174e-07
1.36457e-09
4.74468e-07
1.38051e-09
4.73754e-07
1.39688e-09
4.73031e-07
1.41383e-09
4.723e-07
1.43152e-09
4.71559e-07
1.45019e-09
4.70808e-07
1.47013e-09
4.70047e-07
1.49173e-09
4.69275e-07
1.51549e-09
4.68489e-07
1.54204e-09
4.67689e-07
1.57226e-09
4.66873e-07
1.60728e-09
4.66036e-07
1.6486e-09
4.65177e-07
1.69828e-09
4.64289e-07
1.7591e-09
4.63367e-07
1.83494e-09
4.624e-07
1.93126e-09
4.61377e-07
2.05592e-09
4.6028e-07
2.22057e-09
4.59084e-07
2.44299e-09
4.57754e-07
2.75181e-09
4.56235e-07
3.19496e-09
4.54444e-07
3.86152e-09
4.52247e-07
4.91807e-09
4.49424e-07
6.7691e-09
4.45622e-07
1.01504e-08
4.40243e-07
1.78709e-08
3.27986e-08
4.31312e-07
4.85076e-07
2.02789e-09
4.84375e-07
2.05084e-09
4.83665e-07
2.07422e-09
4.82947e-07
2.09812e-09
4.82221e-07
2.12267e-09
4.81487e-07
2.14808e-09
4.80744e-07
2.1746e-09
4.79992e-07
2.20255e-09
4.7923e-07
2.23236e-09
4.78457e-07
2.2646e-09
4.77672e-07
2.3e-09
4.76875e-07
2.33949e-09
4.76063e-07
2.38434e-09
4.75234e-07
2.43618e-09
4.74385e-07
2.49723e-09
4.73513e-07
2.57044e-09
4.72612e-07
2.65988e-09
4.71676e-07
2.77113e-09
4.70695e-07
2.91202e-09
4.69657e-07
3.09381e-09
4.68545e-07
3.33298e-09
4.67333e-07
3.65446e-09
4.65988e-07
4.09755e-09
4.64456e-07
4.72674e-09
4.62661e-07
5.65632e-09
4.60487e-07
7.09258e-09
4.57774e-07
9.48146e-09
4.54306e-07
1.36191e-08
4.50307e-07
2.187e-08
3.66706e-08
4.46435e-07
4.89813e-07
2.72923e-09
4.89104e-07
2.7597e-09
4.88387e-07
2.79077e-09
4.87663e-07
2.82252e-09
4.86931e-07
2.85517e-09
4.8619e-07
2.88895e-09
4.8544e-07
2.9242e-09
4.84681e-07
2.96134e-09
4.83913e-07
3.00095e-09
4.83134e-07
3.04375e-09
4.82343e-07
3.09069e-09
4.81539e-07
3.14303e-09
4.80721e-07
3.20236e-09
4.79887e-07
3.27088e-09
4.79032e-07
3.35144e-09
4.78155e-07
3.44792e-09
4.77249e-07
3.56558e-09
4.76309e-07
3.71167e-09
4.75324e-07
3.8963e-09
4.74284e-07
4.13389e-09
4.73172e-07
4.44541e-09
4.71964e-07
4.86221e-09
4.70629e-07
5.43283e-09
4.6912e-07
6.23518e-09
4.67375e-07
7.40181e-09
4.65305e-07
9.16273e-09
4.62817e-07
1.19696e-08
4.59844e-07
1.65914e-08
4.56821e-07
2.48936e-08
3.86771e-08
4.54814e-07
4.92948e-07
3.43564e-09
4.92234e-07
3.47353e-09
4.91512e-07
3.51213e-09
4.90783e-07
3.55163e-09
4.90046e-07
3.59224e-09
4.89301e-07
3.63426e-09
4.88547e-07
3.67811e-09
4.87784e-07
3.72432e-09
4.87011e-07
3.77356e-09
4.86228e-07
3.82674e-09
4.85434e-07
3.88503e-09
4.84627e-07
3.94994e-09
4.83806e-07
4.02347e-09
4.82969e-07
4.10827e-09
4.82112e-07
4.20784e-09
4.81233e-07
4.32692e-09
4.80327e-07
4.4719e-09
4.79387e-07
4.65156e-09
4.78405e-07
4.87811e-09
4.7737e-07
5.16883e-09
4.76267e-07
5.5486e-09
4.75075e-07
6.0542e-09
4.73766e-07
6.74152e-09
4.72303e-07
7.69818e-09
4.70638e-07
9.06772e-09
4.68711e-07
1.10889e-08
4.66486e-07
1.41946e-08
4.63998e-07
1.90795e-08
4.6171e-07
2.71815e-08
3.97518e-08
4.60636e-07
4.9519e-07
4.14615e-09
4.94472e-07
4.19131e-09
4.93747e-07
4.23733e-09
4.93014e-07
4.28442e-09
4.92273e-07
4.33284e-09
4.91525e-07
4.38296e-09
4.90768e-07
4.43524e-09
4.90002e-07
4.49031e-09
4.89226e-07
4.54898e-09
4.88441e-07
4.6123e-09
4.87644e-07
4.68164e-09
4.86835e-07
4.75877e-09
4.86013e-07
4.84604e-09
4.85174e-07
4.94655e-09
4.84318e-07
5.06438e-09
4.8344e-07
5.20507e-09
4.82536e-07
5.37602e-09
4.816e-07
5.58743e-09
4.80624e-07
5.85333e-09
4.796e-07
6.19344e-09
4.78513e-07
6.63595e-09
4.77345e-07
7.22185e-09
4.76074e-07
8.01242e-09
4.74671e-07
9.10128e-09
4.73102e-07
1.06365e-08
4.71337e-07
1.28542e-08
4.69378e-07
1.61533e-08
4.6732e-07
2.11376e-08
4.65602e-07
2.88994e-08
4.02713e-08
4.65083e-07
4.96867e-07
4.86035e-09
4.96146e-07
4.91266e-09
4.95417e-07
4.96596e-09
4.94681e-07
5.02049e-09
4.93937e-07
5.07655e-09
4.93186e-07
5.13458e-09
4.92426e-07
5.1951e-09
4.91657e-07
5.25882e-09
4.9088e-07
5.32665e-09
4.90092e-07
5.3998e-09
4.89294e-07
5.47981e-09
4.88484e-07
5.56871e-09
4.87661e-07
5.66914e-09
4.86823e-07
5.78461e-09
4.85967e-07
5.91975e-09
4.85092e-07
6.08077e-09
4.84192e-07
6.27601e-09
4.83262e-07
6.51684e-09
4.82297e-07
6.81887e-09
4.81286e-07
7.20383e-09
4.8022e-07
7.70244e-09
4.79083e-07
8.35881e-09
4.77858e-07
9.23757e-09
4.76524e-07
1.04351e-08
4.75062e-07
1.20987e-08
4.73462e-07
1.4454e-08
4.71757e-07
1.78587e-08
4.7007e-07
2.28238e-08
4.688e-07
3.01702e-08
4.04327e-08
4.68638e-07
4.98162e-07
5.57825e-09
4.97437e-07
5.63756e-09
4.96705e-07
5.69799e-09
4.95965e-07
5.7598e-09
4.95219e-07
5.82334e-09
4.94464e-07
5.88908e-09
4.93701e-07
5.95761e-09
4.92931e-07
6.02971e-09
4.92151e-07
6.10641e-09
4.91362e-07
6.18903e-09
4.90562e-07
6.27927e-09
4.89751e-07
6.37938e-09
4.88928e-07
6.49228e-09
4.88091e-07
6.62182e-09
4.87238e-07
6.77312e-09
4.86366e-07
6.95296e-09
4.85471e-07
7.17048e-09
4.8455e-07
7.43802e-09
4.83596e-07
7.77245e-09
4.82603e-07
8.19705e-09
4.81561e-07
8.74436e-09
4.8046e-07
9.46046e-09
4.79286e-07
1.04116e-08
4.78027e-07
1.16941e-08
4.76675e-07
1.34506e-08
4.75238e-07
1.5891e-08
4.73766e-07
1.93301e-08
4.72398e-07
2.41918e-08
4.7148e-07
3.10888e-08
4.03518e-08
4.7156e-07
4.99187e-07
6.30015e-09
4.98459e-07
6.36632e-09
4.97723e-07
6.43372e-09
4.9698e-07
6.50264e-09
4.9623e-07
6.57346e-09
4.95472e-07
6.64669e-09
4.94707e-07
6.72299e-09
4.93934e-07
6.8032e-09
4.93152e-07
6.88842e-09
4.9236e-07
6.98009e-09
4.9156e-07
7.08006e-09
4.90748e-07
7.19074e-09
4.89925e-07
7.31531e-09
4.89089e-07
7.45792e-09
4.88238e-07
7.62406e-09
4.8737e-07
7.82101e-09
4.86482e-07
8.05853e-09
4.8557e-07
8.34973e-09
4.8463e-07
8.71243e-09
4.83657e-07
9.17098e-09
4.82642e-07
9.75906e-09
4.81579e-07
1.05237e-08
4.80459e-07
1.15311e-08
4.79278e-07
1.28756e-08
4.78036e-07
1.46922e-08
4.76754e-07
1.71726e-08
4.75495e-07
2.05892e-08
4.74398e-07
2.52895e-08
4.73758e-07
3.17281e-08
4.00997e-08
4.7401e-07
5.00021e-07
7.02657e-09
4.99288e-07
7.09946e-09
4.98548e-07
7.17367e-09
4.97801e-07
7.24951e-09
4.97047e-07
7.32742e-09
4.96286e-07
7.40792e-09
4.95517e-07
7.4917e-09
4.94741e-07
7.5797e-09
4.93956e-07
7.67306e-09
4.93163e-07
7.77333e-09
4.92361e-07
7.88246e-09
4.91548e-07
8.00303e-09
4.90725e-07
8.13838e-09
4.8989e-07
8.29293e-09
4.89042e-07
8.47244e-09
4.88178e-07
8.68461e-09
4.87297e-07
8.93963e-09
4.86396e-07
9.2512e-09
4.8547e-07
9.63773e-09
4.84517e-07
1.01242e-08
4.83531e-07
1.07448e-08
4.82508e-07
1.15466e-08
4.81445e-07
1.25945e-08
4.80341e-07
1.39792e-08
4.79207e-07
1.58263e-08
4.78072e-07
1.83082e-08
4.77003e-07
2.16582e-08
4.76134e-07
2.6158e-08
4.75718e-07
3.21439e-08
3.97218e-08
4.76096e-07
5.00717e-07
4.99979e-07
7.8377e-09
4.99234e-07
7.91855e-09
4.98482e-07
8.00113e-09
4.97724e-07
8.08589e-09
4.96958e-07
8.17341e-09
4.96185e-07
8.26441e-09
4.95405e-07
8.35984e-09
4.94617e-07
8.46094e-09
4.93821e-07
8.5693e-09
4.93017e-07
8.68698e-09
4.92203e-07
8.81667e-09
4.9138e-07
8.96184e-09
4.90546e-07
9.12709e-09
4.897e-07
9.31842e-09
4.8884e-07
9.54377e-09
4.87966e-07
9.81365e-09
4.87076e-07
1.01421e-08
4.86165e-07
1.05478e-08
4.85234e-07
1.1056e-08
4.84278e-07
1.17008e-08
4.83296e-07
1.25284e-08
4.82289e-07
1.36018e-08
4.81261e-07
1.50063e-08
4.8023e-07
1.68577e-08
4.7923e-07
1.93089e-08
4.7833e-07
2.25579e-08
4.77656e-07
2.68318e-08
4.77421e-07
3.23787e-08
3.92475e-08
4.77895e-07
5.00568e-07
8.58194e-09
4.99818e-07
8.66923e-09
4.99061e-07
8.75835e-09
4.98297e-07
8.84974e-09
4.97526e-07
8.944e-09
4.96749e-07
9.04189e-09
4.95964e-07
9.1444e-09
4.95172e-07
9.2528e-09
4.94373e-07
9.36872e-09
4.93566e-07
9.49429e-09
4.9275e-07
9.63228e-09
4.91926e-07
9.78624e-09
4.91092e-07
9.9609e-09
4.90248e-07
1.01624e-08
4.89393e-07
1.03988e-08
4.88526e-07
1.06807e-08
4.87645e-07
1.10224e-08
4.86751e-07
1.14425e-08
4.8584e-07
1.19662e-08
4.84914e-07
1.26269e-08
4.83973e-07
1.34695e-08
4.83021e-07
1.45538e-08
4.82068e-07
1.59597e-08
4.81133e-07
1.77921e-08
4.80256e-07
2.01859e-08
4.79506e-07
2.33079e-08
4.78998e-07
2.73401e-08
4.78912e-07
3.24653e-08
3.8697e-08
4.79462e-07
5.01086e-07
9.33314e-09
5.00329e-07
9.4267e-09
4.99565e-07
9.52212e-09
4.98795e-07
9.6199e-09
4.98018e-07
9.72062e-09
4.97235e-07
9.82508e-09
4.96445e-07
9.93428e-09
4.95648e-07
1.00495e-08
4.94845e-07
1.01724e-08
4.94034e-07
1.03052e-08
4.93215e-07
1.04506e-08
4.92389e-07
1.06123e-08
4.91555e-07
1.0795e-08
4.90713e-07
1.10049e-08
4.89861e-07
1.12501e-08
4.89001e-07
1.15413e-08
4.88131e-07
1.18925e-08
4.87251e-07
1.23223e-08
4.86362e-07
1.28552e-08
4.85465e-07
1.35237e-08
4.84564e-07
1.43707e-08
4.83665e-07
1.54526e-08
4.82782e-07
1.6843e-08
4.81938e-07
1.86365e-08
4.81173e-07
2.09508e-08
4.80555e-07
2.39258e-08
4.80188e-07
2.77071e-08
4.80224e-07
3.24293e-08
3.80845e-08
4.80836e-07
5.01552e-07
1.00924e-08
5.00786e-07
1.0192e-08
5.00015e-07
1.02935e-08
4.99237e-07
1.03974e-08
4.98454e-07
1.05043e-08
4.97664e-07
1.06149e-08
4.96868e-07
1.07304e-08
4.96065e-07
1.0852e-08
4.95256e-07
1.09813e-08
4.94441e-07
1.11205e-08
4.93619e-07
1.12725e-08
4.92791e-07
1.14408e-08
4.91955e-07
1.16301e-08
4.91114e-07
1.18467e-08
4.90265e-07
1.20984e-08
4.89411e-07
1.2396e-08
4.8855e-07
1.2753e-08
4.87685e-07
1.31877e-08
4.86816e-07
1.37238e-08
4.85948e-07
1.43922e-08
4.85084e-07
1.52337e-08
4.84236e-07
1.63008e-08
4.83418e-07
1.76608e-08
4.82657e-07
1.9398e-08
4.81993e-07
2.16146e-08
4.81491e-07
2.44277e-08
4.81245e-07
2.79534e-08
4.81383e-07
3.22909e-08
3.742e-08
4.82048e-07
5.01978e-07
1.08607e-08
5.01204e-07
1.09661e-08
5.00424e-07
1.10735e-08
4.99639e-07
1.11832e-08
4.98847e-07
1.12959e-08
4.98049e-07
1.14125e-08
4.97246e-07
1.15338e-08
4.96437e-07
1.16612e-08
4.95622e-07
1.17963e-08
4.94801e-07
1.19413e-08
4.93975e-07
1.20989e-08
4.93143e-07
1.22726e-08
4.92306e-07
1.24672e-08
4.91464e-07
1.26886e-08
4.90618e-07
1.29447e-08
4.89768e-07
1.32457e-08
4.88916e-07
1.36049e-08
4.88064e-07
1.40399e-08
4.87215e-07
1.45731e-08
4.86373e-07
1.52342e-08
4.85545e-07
1.60609e-08
4.84744e-07
1.71019e-08
4.83987e-07
1.84179e-08
4.83301e-07
2.0084e-08
4.82728e-07
2.21881e-08
4.82327e-07
2.48281e-08
4.82184e-07
2.80964e-08
4.82409e-07
3.20664e-08
3.67114e-08
4.83118e-07
5.11822e-07
1.19399e-08
5.10735e-07
1.20532e-08
5.0964e-07
1.21685e-08
5.08537e-07
1.22862e-08
5.07426e-07
1.24068e-08
5.06307e-07
1.25313e-08
5.0518e-07
1.26604e-08
5.04046e-07
1.27956e-08
5.02904e-07
1.29383e-08
5.01755e-07
1.30908e-08
5.00598e-07
1.32555e-08
4.99434e-07
1.34362e-08
4.98264e-07
1.36371e-08
4.97089e-07
1.38641e-08
4.95909e-07
1.41248e-08
4.94725e-07
1.44291e-08
4.93541e-07
1.47896e-08
4.92357e-07
1.52229e-08
4.9118e-07
1.57505e-08
4.90015e-07
1.63997e-08
4.8887e-07
1.72058e-08
4.87759e-07
1.8213e-08
4.867e-07
1.94761e-08
4.85723e-07
2.1061e-08
4.84868e-07
2.30435e-08
4.84191e-07
2.55051e-08
4.83768e-07
2.85196e-08
4.83692e-07
3.21418e-08
3.63425e-08
4.84061e-07
4.95804e-07
1.25081e-08
4.95232e-07
1.26251e-08
4.94657e-07
1.27439e-08
4.94078e-07
1.28651e-08
4.93496e-07
1.29892e-08
4.9291e-07
1.31169e-08
4.92321e-07
1.32493e-08
4.91729e-07
1.33874e-08
4.91135e-07
1.35329e-08
4.90538e-07
1.36878e-08
4.89939e-07
1.38545e-08
4.89338e-07
1.40365e-08
4.88737e-07
1.42379e-08
4.88137e-07
1.44645e-08
4.87539e-07
1.47232e-08
4.86944e-07
1.50235e-08
4.86357e-07
1.53773e-08
4.85779e-07
1.58003e-08
4.85217e-07
1.63122e-08
4.84679e-07
1.69386e-08
4.84173e-07
1.77116e-08
4.83715e-07
1.86711e-08
4.83325e-07
1.98661e-08
4.83031e-07
2.13542e-08
4.82875e-07
2.32002e-08
4.82908e-07
2.54717e-08
4.832e-07
2.82277e-08
4.83833e-07
3.15088e-08
3.52858e-08
4.8489e-07
4.81429e-07
1.2618e-08
4.8132e-07
1.27348e-08
4.8121e-07
1.28534e-08
4.81101e-07
1.29742e-08
4.80993e-07
1.30977e-08
4.80885e-07
1.32248e-08
4.80778e-07
1.33561e-08
4.80672e-07
1.3493e-08
4.80568e-07
1.36369e-08
4.80466e-07
1.37897e-08
4.80367e-07
1.39537e-08
4.80272e-07
1.41321e-08
4.80181e-07
1.43289e-08
4.80096e-07
1.45494e-08
4.80019e-07
1.48002e-08
4.79952e-07
1.509e-08
4.799e-07
1.543e-08
4.79865e-07
1.58346e-08
4.79855e-07
1.63221e-08
4.79878e-07
1.69156e-08
4.79946e-07
1.76443e-08
4.80073e-07
1.85438e-08
4.80282e-07
1.96574e-08
4.80601e-07
2.10349e-08
4.8107e-07
2.27316e-08
4.81738e-07
2.48032e-08
4.82669e-07
2.72966e-08
4.83936e-07
3.0242e-08
3.3611e-08
4.85611e-07
4.68529e-07
1.23169e-08
4.68834e-07
1.24301e-08
4.69142e-07
1.2545e-08
4.69454e-07
1.2662e-08
4.6977e-07
1.27815e-08
4.70091e-07
1.29042e-08
4.70416e-07
1.3031e-08
4.70746e-07
1.31629e-08
4.71082e-07
1.33013e-08
4.71424e-07
1.34479e-08
4.71772e-07
1.36051e-08
4.72129e-07
1.37755e-08
4.72495e-07
1.39631e-08
4.72871e-07
1.41725e-08
4.73262e-07
1.44101e-08
4.73668e-07
1.46836e-08
4.74095e-07
1.50034e-08
4.74547e-07
1.53825e-08
4.75031e-07
1.58375e-08
4.75558e-07
1.63893e-08
4.76138e-07
1.70637e-08
4.7679e-07
1.78923e-08
4.77534e-07
1.89127e-08
4.78401e-07
2.01679e-08
4.79429e-07
2.17041e-08
4.80665e-07
2.35674e-08
4.82167e-07
2.57946e-08
4.84e-07
2.84083e-08
3.13817e-08
4.8623e-07
4.5695e-07
1.16471e-08
4.57626e-07
1.17538e-08
4.58309e-07
1.18621e-08
4.58999e-07
1.19721e-08
4.59696e-07
1.20845e-08
4.604e-07
1.21997e-08
4.61113e-07
1.23187e-08
4.61833e-07
1.24423e-08
4.62563e-07
1.25718e-08
4.63302e-07
1.27087e-08
4.64052e-07
1.28553e-08
4.64814e-07
1.30139e-08
4.65589e-07
1.31881e-08
4.66379e-07
1.33822e-08
4.67187e-07
1.36017e-08
4.68017e-07
1.38538e-08
4.68873e-07
1.41476e-08
4.69761e-07
1.44949e-08
4.70688e-07
1.49104e-08
4.71664e-07
1.54125e-08
4.72704e-07
1.60238e-08
4.73825e-07
1.67719e-08
4.75048e-07
1.7689e-08
4.76405e-07
1.88114e-08
4.77931e-07
2.01778e-08
4.79673e-07
2.18255e-08
4.81684e-07
2.37835e-08
4.84024e-07
2.60681e-08
2.86553e-08
4.86751e-07
4.46553e-07
1.06465e-08
4.47563e-07
1.07442e-08
4.48582e-07
1.08431e-08
4.4961e-07
1.09436e-08
4.50649e-07
1.1046e-08
4.51697e-07
1.1151e-08
4.52757e-07
1.12593e-08
4.53827e-07
1.13716e-08
4.5491e-07
1.14892e-08
4.56005e-07
1.16134e-08
4.57114e-07
1.17461e-08
4.58239e-07
1.18896e-08
4.5938e-07
1.20468e-08
4.60541e-07
1.22215e-08
4.61724e-07
1.24188e-08
4.62932e-07
1.26449e-08
4.64172e-07
1.29078e-08
4.65449e-07
1.32177e-08
4.66772e-07
1.35874e-08
4.68152e-07
1.40329e-08
4.69602e-07
1.45735e-08
4.71142e-07
1.52327e-08
4.72793e-07
1.60376e-08
4.74586e-07
1.70185e-08
4.76557e-07
1.8207e-08
4.78749e-07
1.9633e-08
4.81214e-07
2.13188e-08
4.84006e-07
2.32763e-08
2.54843e-08
4.87177e-07
4.37215e-07
9.34934e-09
4.38523e-07
9.4356e-09
4.39844e-07
9.52283e-09
4.41176e-07
9.61132e-09
4.4252e-07
9.70148e-09
4.43878e-07
9.79379e-09
4.45248e-07
9.88885e-09
4.46632e-07
9.98741e-09
4.48031e-07
1.00904e-08
4.49445e-07
1.01992e-08
4.50876e-07
1.03151e-08
4.52326e-07
1.04403e-08
4.53795e-07
1.05774e-08
4.55287e-07
1.07295e-08
4.56805e-07
1.09009e-08
4.58353e-07
1.1097e-08
4.59936e-07
1.13245e-08
4.61562e-07
1.15922e-08
4.63238e-07
1.19108e-08
4.64978e-07
1.22936e-08
4.66794e-07
1.27568e-08
4.68707e-07
1.332e-08
4.7074e-07
1.40052e-08
4.72921e-07
1.4837e-08
4.75287e-07
1.58407e-08
4.77881e-07
1.70398e-08
4.80748e-07
1.8451e-08
4.83942e-07
2.00824e-08
2.19162e-08
4.8751e-07
4.28823e-07
7.78597e-09
4.30399e-07
7.85879e-09
4.3199e-07
7.9323e-09
4.33594e-07
8.00676e-09
4.35213e-07
8.08251e-09
4.36847e-07
8.15997e-09
4.38496e-07
8.23963e-09
4.40162e-07
8.32213e-09
4.41844e-07
8.40828e-09
4.43544e-07
8.49908e-09
4.45263e-07
8.59585e-09
4.47003e-07
8.70022e-09
4.48766e-07
8.81431e-09
4.50555e-07
8.94083e-09
4.52373e-07
9.0832e-09
4.54224e-07
9.24583e-09
4.56114e-07
9.43426e-09
4.58051e-07
9.6555e-09
4.60043e-07
9.91827e-09
4.62104e-07
1.02333e-08
4.64247e-07
1.06137e-08
4.66492e-07
1.10746e-08
4.68863e-07
1.16338e-08
4.7139e-07
1.23103e-08
4.74107e-07
1.31236e-08
4.77056e-07
1.40912e-08
4.80281e-07
1.52254e-08
4.83832e-07
1.65313e-08
1.79943e-08
4.87754e-07
4.21276e-07
5.9838e-09
4.23094e-07
6.0414e-09
4.24927e-07
6.09938e-09
4.26776e-07
6.15798e-09
4.28641e-07
6.21746e-09
4.30522e-07
6.27817e-09
4.32422e-07
6.34051e-09
4.34339e-07
6.40498e-09
4.36275e-07
6.47222e-09
4.38231e-07
6.54303e-09
4.40208e-07
6.61842e-09
4.42209e-07
6.69968e-09
4.44235e-07
6.78845e-09
4.46289e-07
6.88682e-09
4.48374e-07
6.99744e-09
4.50497e-07
7.12367e-09
4.52661e-07
7.26976e-09
4.54875e-07
7.44106e-09
4.5715e-07
7.64418e-09
4.59496e-07
7.88723e-09
4.61929e-07
8.17996e-09
4.6447e-07
8.53383e-09
4.67142e-07
8.9618e-09
4.69975e-07
9.47783e-09
4.73002e-07
1.00959e-08
4.76265e-07
1.08284e-08
4.79807e-07
1.16834e-08
4.83675e-07
1.26637e-08
1.37579e-08
4.87911e-07
4.14487e-07
3.96739e-09
4.1652e-07
4.00819e-09
4.1857e-07
4.04905e-09
4.20638e-07
4.09017e-09
4.22724e-07
4.13175e-09
4.24828e-07
4.17405e-09
4.26951e-07
4.21738e-09
4.29094e-07
4.26209e-09
4.31258e-07
4.30866e-09
4.33443e-07
4.35765e-09
4.35652e-07
4.40979e-09
4.37885e-07
4.46599e-09
4.40146e-07
4.5274e-09
4.42438e-07
4.59546e-09
4.44763e-07
4.67202e-09
4.47127e-07
4.7594e-09
4.49537e-07
4.8605e-09
4.51999e-07
4.97896e-09
4.54524e-07
5.11926e-09
4.57124e-07
5.28685e-09
4.59816e-07
5.48825e-09
4.62619e-07
5.73102e-09
4.65557e-07
6.02364e-09
4.6866e-07
6.37511e-09
4.71961e-07
6.79423e-09
4.75501e-07
7.28853e-09
4.79322e-07
7.86249e-09
4.83469e-07
8.51663e-09
9.24291e-09
4.87984e-07
4.08374e-07
1.75876e-09
4.10601e-07
1.78136e-09
4.12846e-07
1.80371e-09
4.1511e-07
1.82592e-09
4.17394e-07
1.84816e-09
4.19698e-07
1.87059e-09
4.22021e-07
1.89342e-09
4.24367e-07
1.91687e-09
4.26734e-07
1.94122e-09
4.29125e-07
1.96683e-09
4.31541e-07
1.9941e-09
4.33983e-07
2.02357e-09
4.36455e-07
2.05588e-09
4.38958e-07
2.09183e-09
4.41498e-07
2.13243e-09
4.44078e-07
2.17894e-09
4.46706e-07
2.2329e-09
4.49389e-07
2.29622e-09
4.52137e-07
2.37122e-09
4.54963e-07
2.46069e-09
4.57883e-07
2.56789e-09
4.60918e-07
2.69654e-09
4.64091e-07
2.8507e-09
4.67431e-07
3.03451e-09
4.70974e-07
3.2518e-09
4.74757e-07
3.50545e-09
4.78823e-07
3.79655e-09
4.83216e-07
4.12364e-09
4.48176e-09
4.87977e-07
4.02866e-07
-6.22343e-10
4.05267e-07
-6.19174e-10
4.07687e-07
-6.16608e-10
4.10128e-07
-6.14556e-10
4.12589e-07
-6.12935e-10
4.15071e-07
-6.11655e-10
4.17575e-07
-6.10629e-10
4.20102e-07
-6.09763e-10
4.22652e-07
-6.08954e-10
4.25227e-07
-6.08096e-10
4.27828e-07
-6.07069e-10
4.30457e-07
-6.05744e-10
4.33117e-07
-6.03981e-10
4.35811e-07
-6.01626e-10
4.38542e-07
-5.98515e-10
4.41315e-07
-5.94472e-10
4.44137e-07
-5.89321e-10
4.47016e-07
-5.82886e-10
4.49962e-07
-5.75015e-10
4.52989e-07
-5.65598e-10
4.56111e-07
-5.54613e-10
4.5935e-07
-5.42177e-10
4.62729e-07
-5.28625e-10
4.66278e-07
-5.14607e-10
4.70031e-07
-5.01203e-10
4.74027e-07
-4.90054e-10
4.78307e-07
-4.83425e-10
4.82915e-07
-4.84659e-10
-4.95895e-10
4.87893e-07
4.68414e-07
-3.95535e-09
4.71774e-07
-3.97894e-09
4.75161e-07
-4.00357e-09
4.78575e-07
-4.0292e-09
4.82018e-07
-4.05583e-09
4.8549e-07
-4.08347e-09
4.88991e-07
-4.11216e-09
4.92524e-07
-4.14197e-09
4.96088e-07
-4.17303e-09
4.99685e-07
-4.20549e-09
5.03318e-07
-4.2396e-09
5.06988e-07
-4.27571e-09
5.10698e-07
-4.31428e-09
5.14452e-07
-4.35594e-09
5.18255e-07
-4.40153e-09
5.22113e-07
-4.45217e-09
5.26033e-07
-4.50934e-09
5.30025e-07
-4.57493e-09
5.34101e-07
-4.6514e-09
5.38278e-07
-4.74187e-09
5.42573e-07
-4.85021e-09
5.47012e-07
-4.98118e-09
5.51624e-07
-5.14043e-09
5.56444e-07
-5.33441e-09
5.61513e-07
-5.57018e-09
5.66878e-07
-5.85496e-09
5.7259e-07
-6.19522e-09
5.78702e-07
-6.59668e-09
-7.05883e-09
5.85265e-07
4.71349e-07
-7.18761e-09
4.74608e-07
-7.2372e-09
4.77892e-07
-7.28824e-09
4.81204e-07
-7.34077e-09
4.84543e-07
-7.39485e-09
4.8791e-07
-7.4506e-09
4.91306e-07
-7.50818e-09
4.94732e-07
-7.56783e-09
4.98189e-07
-7.62988e-09
5.01678e-07
-7.69478e-09
5.05202e-07
-7.76312e-09
5.08762e-07
-7.83571e-09
5.12361e-07
-7.91361e-09
5.16003e-07
-7.99822e-09
5.19693e-07
-8.09138e-09
5.23436e-07
-8.19548e-09
5.27241e-07
-8.3136e-09
5.31115e-07
-8.44972e-09
5.35073e-07
-8.60886e-09
5.39128e-07
-8.79733e-09
5.43301e-07
-9.02289e-09
5.47615e-07
-9.29492e-09
5.52099e-07
-9.62439e-09
5.56788e-07
-1.00236e-08
5.61724e-07
-1.05058e-08
5.66953e-07
-1.10839e-08
5.72526e-07
-1.17688e-08
5.78498e-07
-1.2569e-08
-1.34812e-08
5.84921e-07
4.74454e-07
-1.03131e-08
4.77605e-07
-1.03879e-08
4.80781e-07
-1.04645e-08
4.83983e-07
-1.05432e-08
4.87212e-07
-1.06239e-08
4.90469e-07
-1.07069e-08
4.93753e-07
-1.07925e-08
4.97066e-07
-1.0881e-08
5.00409e-07
-1.09732e-08
5.03784e-07
-1.10695e-08
5.07192e-07
-1.1171e-08
5.10635e-07
-1.1279e-08
5.14117e-07
-1.1395e-08
5.1764e-07
-1.15212e-08
5.21209e-07
-1.16605e-08
5.2483e-07
-1.18164e-08
5.2851e-07
-1.19936e-08
5.32258e-07
-1.21981e-08
5.36087e-07
-1.24374e-08
5.4001e-07
-1.2721e-08
5.44048e-07
-1.30605e-08
5.48223e-07
-1.34699e-08
5.52564e-07
-1.39656e-08
5.57106e-07
-1.45661e-08
5.61891e-07
-1.52907e-08
5.66966e-07
-1.61588e-08
5.72384e-07
-1.71861e-08
5.78199e-07
-1.83843e-08
-1.97479e-08
5.84466e-07
4.77743e-07
-1.33254e-08
4.8078e-07
-1.34246e-08
4.83842e-07
-1.35261e-08
4.86929e-07
-1.36299e-08
4.90041e-07
-1.37364e-08
4.9318e-07
-1.38458e-08
4.96346e-07
-1.39585e-08
4.9954e-07
-1.4075e-08
5.02763e-07
-1.41961e-08
5.06016e-07
-1.43228e-08
5.09302e-07
-1.44564e-08
5.12621e-07
-1.45984e-08
5.15977e-07
-1.47511e-08
5.19373e-07
-1.49174e-08
5.22814e-07
-1.51009e-08
5.26304e-07
-1.53065e-08
5.29851e-07
-1.55404e-08
5.33463e-07
-1.58103e-08
5.37152e-07
-1.61265e-08
5.40933e-07
-1.65014e-08
5.44823e-07
-1.69504e-08
5.48845e-07
-1.74923e-08
5.53028e-07
-1.81489e-08
5.57407e-07
-1.89449e-08
5.62023e-07
-1.99069e-08
5.66925e-07
-2.10607e-08
5.72167e-07
-2.24281e-08
5.77808e-07
-2.40249e-08
-2.5843e-08
5.83903e-07
4.81235e-07
-1.62179e-08
4.84151e-07
-1.63407e-08
4.87091e-07
-1.64661e-08
4.90055e-07
-1.65943e-08
4.93044e-07
-1.67256e-08
4.96059e-07
-1.68604e-08
4.991e-07
-1.69992e-08
5.02167e-07
-1.71426e-08
5.05263e-07
-1.72917e-08
5.08388e-07
-1.74476e-08
5.11543e-07
-1.76118e-08
5.14731e-07
-1.77864e-08
5.17954e-07
-1.79742e-08
5.21215e-07
-1.81786e-08
5.24519e-07
-1.84043e-08
5.27869e-07
-1.8657e-08
5.31273e-07
-1.89445e-08
5.34739e-07
-1.92765e-08
5.38278e-07
-1.96654e-08
5.41904e-07
-2.01267e-08
5.45633e-07
-2.06796e-08
5.49488e-07
-2.13475e-08
5.53497e-07
-2.21581e-08
5.57695e-07
-2.31427e-08
5.62124e-07
-2.43353e-08
5.66833e-07
-2.57699e-08
5.7188e-07
-2.7475e-08
5.77326e-07
-2.94718e-08
-3.175e-08
5.83233e-07
4.84945e-07
-1.89834e-08
4.87733e-07
-1.91288e-08
4.90544e-07
-1.92773e-08
4.93379e-07
-1.94289e-08
4.96238e-07
-1.95841e-08
4.9912e-07
-1.97433e-08
5.02028e-07
-1.99071e-08
5.04962e-07
-2.00763e-08
5.07922e-07
-2.02521e-08
5.1091e-07
-2.04357e-08
5.13928e-07
-2.06292e-08
5.16976e-07
-2.08348e-08
5.20058e-07
-2.10558e-08
5.23175e-07
-2.12962e-08
5.26333e-07
-2.15614e-08
5.29534e-07
-2.18584e-08
5.32785e-07
-2.21961e-08
5.36095e-07
-2.25859e-08
5.39472e-07
-2.30424e-08
5.42929e-07
-2.35842e-08
5.46484e-07
-2.42342e-08
5.50157e-07
-2.50204e-08
5.53975e-07
-2.59764e-08
5.57973e-07
-2.71409e-08
5.62194e-07
-2.8556e-08
5.66689e-07
-3.0265e-08
5.71519e-07
-3.23049e-08
5.76752e-07
-3.47047e-08
-3.74509e-08
5.82453e-07
4.88893e-07
-2.1614e-08
4.91545e-07
-2.17811e-08
4.9422e-07
-2.19516e-08
4.96916e-07
-2.21257e-08
4.99636e-07
-2.23037e-08
5.02379e-07
-2.24861e-08
5.05146e-07
-2.26738e-08
5.07937e-07
-2.28676e-08
5.10754e-07
-2.30687e-08
5.13596e-07
-2.32787e-08
5.16467e-07
-2.34997e-08
5.19367e-07
-2.37345e-08
5.22297e-07
-2.39865e-08
5.25262e-07
-2.42605e-08
5.28263e-07
-2.45625e-08
5.31305e-07
-2.49002e-08
5.34393e-07
-2.5284e-08
5.37533e-07
-2.57267e-08
5.40736e-07
-2.62452e-08
5.44012e-07
-2.68605e-08
5.47378e-07
-2.75994e-08
5.50852e-07
-2.84946e-08
5.54461e-07
-2.95858e-08
5.5824e-07
-3.09194e-08
5.62231e-07
-3.2547e-08
5.66489e-07
-3.45228e-08
5.71078e-07
-3.68941e-08
5.76074e-07
-3.9701e-08
-4.29263e-08
5.8155e-07
4.93096e-07
-2.4101e-08
4.95604e-07
-2.42889e-08
4.98132e-07
-2.44803e-08
5.00682e-07
-2.46757e-08
5.03254e-07
-2.48753e-08
5.05848e-07
-2.50799e-08
5.08464e-07
-2.52901e-08
5.11104e-07
-2.55071e-08
5.13767e-07
-2.5732e-08
5.16455e-07
-2.59667e-08
5.19169e-07
-2.62135e-08
5.2191e-07
-2.64753e-08
5.24679e-07
-2.67561e-08
5.27479e-07
-2.70609e-08
5.30313e-07
-2.73963e-08
5.33184e-07
-2.77711e-08
5.36096e-07
-2.81963e-08
5.39056e-07
-2.86864e-08
5.42071e-07
-2.92601e-08
5.45152e-07
-2.9941e-08
5.48311e-07
-3.07594e-08
5.5157e-07
-3.17527e-08
5.54951e-07
-3.29669e-08
5.58488e-07
-3.44567e-08
5.62225e-07
-3.62845e-08
5.6622e-07
-3.85175e-08
5.70542e-07
-4.12161e-08
5.75277e-07
-4.44356e-08
-4.81547e-08
5.80505e-07
4.9757e-07
-2.64348e-08
4.99923e-07
-2.66422e-08
5.02296e-07
-2.68535e-08
5.0469e-07
-2.70689e-08
5.07103e-07
-2.7289e-08
5.09538e-07
-2.75143e-08
5.11993e-07
-2.77456e-08
5.1447e-07
-2.79842e-08
5.1697e-07
-2.82313e-08
5.19492e-07
-2.84889e-08
5.22038e-07
-2.87594e-08
5.24608e-07
-2.90459e-08
5.27205e-07
-2.93528e-08
5.29829e-07
-2.96853e-08
5.32484e-07
-3.00507e-08
5.35171e-07
-3.04581e-08
5.37894e-07
-3.09196e-08
5.40658e-07
-3.14509e-08
5.43471e-07
-3.20723e-08
5.46339e-07
-3.28098e-08
5.49277e-07
-3.36968e-08
5.523e-07
-3.47755e-08
5.55431e-07
-3.60984e-08
5.58704e-07
-3.77293e-08
5.62161e-07
-3.97422e-08
5.65864e-07
-4.22204e-08
5.69889e-07
-4.52408e-08
5.74333e-07
-4.88799e-08
-5.31115e-08
5.7929e-07
5.02329e-07
-2.86045e-08
5.04517e-07
-2.88303e-08
5.06724e-07
-2.906e-08
5.08949e-07
-2.92941e-08
5.11193e-07
-2.95331e-08
5.13456e-07
-2.97776e-08
5.15739e-07
-3.00284e-08
5.18042e-07
-3.02869e-08
5.20365e-07
-3.05543e-08
5.22709e-07
-3.08327e-08
5.25074e-07
-3.11246e-08
5.27461e-07
-3.14334e-08
5.29872e-07
-3.17633e-08
5.32307e-07
-3.21202e-08
5.34768e-07
-3.25115e-08
5.37256e-07
-3.29468e-08
5.39776e-07
-3.3439e-08
5.42329e-07
-3.40046e-08
5.44922e-07
-3.46652e-08
5.47562e-07
-3.54492e-08
5.50258e-07
-3.63927e-08
5.53025e-07
-3.75425e-08
5.55884e-07
-3.89574e-08
5.58866e-07
-4.07112e-08
5.62014e-07
-4.28909e-08
5.65393e-07
-4.55993e-08
5.69086e-07
-4.89335e-08
5.73207e-07
-5.30012e-08
-5.7769e-08
5.77865e-07
5.07385e-07
-3.05979e-08
5.09395e-07
-3.08404e-08
5.11422e-07
-3.10871e-08
5.13466e-07
-3.13383e-08
5.15528e-07
-3.15946e-08
5.17607e-07
-3.18565e-08
5.19704e-07
-3.21251e-08
5.21818e-07
-3.24014e-08
5.23951e-07
-3.2687e-08
5.26102e-07
-3.29839e-08
5.28272e-07
-3.32947e-08
5.30462e-07
-3.36228e-08
5.32671e-07
-3.39727e-08
5.34901e-07
-3.43502e-08
5.37152e-07
-3.4763e-08
5.39427e-07
-3.5221e-08
5.41725e-07
-3.57376e-08
5.44051e-07
-3.63299e-08
5.46406e-07
-3.70208e-08
5.48797e-07
-3.78399e-08
5.51231e-07
-3.88264e-08
5.53719e-07
-4.00308e-08
5.5628e-07
-4.15188e-08
5.58943e-07
-4.33739e-08
5.6175e-07
-4.56981e-08
5.64769e-07
-4.86177e-08
5.68089e-07
-5.22542e-08
5.71849e-07
-5.67609e-08
-6.20943e-08
5.76174e-07
4.98405e-07
-3.28593e-08
5.00685e-07
-3.31204e-08
5.02983e-07
-3.33858e-08
5.05301e-07
-3.36557e-08
5.07637e-07
-3.39309e-08
5.09992e-07
-3.42119e-08
5.12367e-07
-3.44996e-08
5.14761e-07
-3.47952e-08
5.17174e-07
-3.51002e-08
5.19607e-07
-3.54167e-08
5.22059e-07
-3.57472e-08
5.24532e-07
-3.60952e-08
5.27024e-07
-3.64652e-08
5.29537e-07
-3.6863e-08
5.3207e-07
-3.72963e-08
5.34624e-07
-3.77753e-08
5.372e-07
-3.83134e-08
5.39799e-07
-3.89283e-08
5.42421e-07
-3.96433e-08
5.45071e-07
-4.04894e-08
5.47752e-07
-4.15077e-08
5.50474e-07
-4.27526e-08
5.53251e-07
-4.42955e-08
5.56108e-07
-4.62309e-08
5.59086e-07
-4.86763e-08
5.62255e-07
-5.17865e-08
5.65713e-07
-5.57128e-08
5.69628e-07
-6.06754e-08
-6.66161e-08
5.7415e-07
5.14146e-07
-3.45921e-08
5.15893e-07
-3.48674e-08
5.17654e-07
-3.5147e-08
5.1943e-07
-3.54312e-08
5.21219e-07
-3.57206e-08
5.23023e-07
-3.60158e-08
5.24842e-07
-3.63178e-08
5.26674e-07
-3.66277e-08
5.28521e-07
-3.69469e-08
5.30381e-07
-3.72775e-08
5.32256e-07
-3.7622e-08
5.34145e-07
-3.79838e-08
5.36047e-07
-3.83673e-08
5.37962e-07
-3.87782e-08
5.3989e-07
-3.92243e-08
5.4183e-07
-3.97155e-08
5.43782e-07
-4.02653e-08
5.45745e-07
-4.08912e-08
5.47719e-07
-4.1617e-08
5.49703e-07
-4.24741e-08
5.51701e-07
-4.35052e-08
5.53716e-07
-4.47675e-08
5.55758e-07
-4.63377e-08
5.57848e-07
-4.83211e-08
5.60023e-07
-5.08512e-08
5.62354e-07
-5.41176e-08
5.64946e-07
-5.83049e-08
5.68003e-07
-6.37321e-08
-7.03159e-08
5.71702e-07
5.33272e-07
-3.56793e-08
5.34368e-07
-3.59634e-08
5.35473e-07
-3.62516e-08
5.36586e-07
-3.65445e-08
5.37708e-07
-3.68424e-08
5.38838e-07
-3.7146e-08
5.39977e-07
-3.74563e-08
5.41123e-07
-3.77742e-08
5.42277e-07
-3.81012e-08
5.43439e-07
-3.84392e-08
5.44608e-07
-3.87907e-08
5.45783e-07
-3.9159e-08
5.46964e-07
-3.95482e-08
5.4815e-07
-3.9964e-08
5.49339e-07
-4.04137e-08
5.50531e-07
-4.09071e-08
5.51723e-07
-4.14572e-08
5.52913e-07
-4.20814e-08
5.54099e-07
-4.2803e-08
5.55278e-07
-4.36535e-08
5.56449e-07
-4.46761e-08
5.57612e-07
-4.593e-08
5.5877e-07
-4.74962e-08
5.59939e-07
-4.94901e-08
5.61149e-07
-5.20607e-08
5.62471e-07
-5.54393e-08
5.64012e-07
-5.98458e-08
5.66026e-07
-6.57465e-08
-7.30105e-08
5.68721e-07
5.56464e-07
-3.59784e-08
5.56765e-07
-3.62645e-08
5.57068e-07
-3.65547e-08
5.57373e-07
-3.68493e-08
5.57679e-07
-3.71487e-08
5.57987e-07
-3.74535e-08
5.58295e-07
-3.77646e-08
5.58604e-07
-3.8083e-08
5.58913e-07
-3.84101e-08
5.59221e-07
-3.87476e-08
5.59528e-07
-3.90978e-08
5.59833e-07
-3.94638e-08
5.60134e-07
-3.98496e-08
5.60431e-07
-4.02605e-08