/*--------------------------------*- C++ -*----------------------------------*\
  =========                 |
  \\      /  F ield         | OpenFOAM: The Open Source CFD Toolbox
   \\    /   O peration     | Website:  https://openfoam.org
    \\  /    A nd           | Version:  6
     \\/     M anipulation  |
\*---------------------------------------------------------------------------*/
FoamFile
{
    version     2.0;
    format      ascii;
    class       volVectorField;
    location    "0.03";
    object      U;
}
// * * * * * * * * * * * * * * * * * * * * * * * * * * * * * * * * * * * * * //

dimensions      [0 1 -1 0 0 0 0];

internalField   nonuniform List<vector> 
3080
(
(0.454745 -4.11109e-05 9.96804e-21)
(0.454794 -4.00952e-05 9.91509e-21)
(0.454842 -3.90594e-05 0)
(0.454887 -3.79888e-05 9.80993e-21)
(0.45493 -3.68604e-05 0)
(0.45497 -3.56433e-05 0)
(0.455007 -3.42992e-05 9.65411e-21)
(0.455041 -3.278e-05 0)
(0.455071 -3.1025e-05 9.55163e-21)
(0.455096 -2.89567e-05 0)
(0.455115 -2.64755e-05 0)
(0.455127 -2.34527e-05 9.40042e-21)
(0.455131 -1.97201e-05 0)
(0.455123 -1.50562e-05 9.30171e-21)
(0.4551 -9.16577e-06 0)
(0.45506 -1.65179e-06 0)
(0.454995 8.02733e-06 0)
(0.454899 2.06217e-05 -9.11223e-21)
(0.454761 3.71896e-05 0)
(0.454568 5.92599e-05 9.02424e-21)
(0.454299 8.91103e-05 0)
(0.453926 0.000130256 0)
(0.453407 0.000188457 0)
(0.452672 0.00027351 0)
(0.451618 0.000404781 0)
(0.450022 0.000618208 0)
(0.447584 0.00101843 0)
(0.443011 0.00176923 -1.7811e-20)
(0.436296 0.00379059 0)
(0.414089 0.00719746 0)
(0.480824 -7.13479e-05 7.7038e-21)
(0.480882 -6.91647e-05 -7.6683e-21)
(0.480939 -6.69264e-05 0)
(0.480994 -6.46034e-05 7.59265e-21)
(0.481047 -6.21517e-05 0)
(0.481098 -5.95125e-05 0)
(0.481146 -5.66097e-05 -7.4833e-21)
(0.481191 -5.33459e-05 1.48916e-20)
(0.481233 -4.95967e-05 -7.40975e-21)
(0.481271 -4.52025e-05 0)
(0.481304 -3.99577e-05 0)
(0.481331 -3.35963e-05 7.29918e-21)
(0.481351 -2.57714e-05 0)
(0.481361 -1.60258e-05 7.22735e-21)
(0.481359 -3.75163e-06 0)
(0.481342 1.18683e-05 0)
(0.481306 3.19464e-05 0)
(0.481243 5.80208e-05 7.08899e-21)
(0.481147 9.22567e-05 0)
(0.481006 0.000137773 -7.02382e-21)
(0.480804 0.000199198 0)
(0.48052 0.000283645 0)
(0.480123 0.000402656 1.38797e-20)
(0.479566 0.000575799 -1.38369e-20)
(0.478781 0.000840498 0)
(0.47764 0.00126762 0)
(0.47602 0.00204106 0)
(0.473361 0.0034836 4.16184e-20)
(0.470158 0.00699492 0)
(0.463011 0.0134773 -2.85325e-20)
(0.489415 -0.000120478 -1.24525e-20)
(0.489475 -0.000117029 0)
(0.489533 -0.000113487 0)
(0.48959 -0.000109809 -3.68256e-20)
(0.489645 -0.000105931 2.44319e-20)
(0.489698 -0.000101767 0)
(0.489748 -9.72028e-05 2.41957e-20)
(0.489796 -9.20904e-05 -1.20396e-20)
(0.48984 -8.62405e-05 0)
(0.48988 -7.94098e-05 0)
(0.489916 -7.1285e-05 0)
(0.489945 -6.14606e-05 -3.5411e-20)
(0.489967 -4.94078e-05 0)
(0.48998 -3.44312e-05 -1.16875e-20)
(0.489981 -1.56084e-05 0)
(0.489967 8.29745e-06 0)
(0.489932 3.89646e-05 0)
(0.489872 7.87023e-05 0)
(0.489777 0.000130743 0)
(0.489637 0.000199706 0)
(0.489436 0.000292374 -2.26097e-20)
(0.489153 0.000419025 0)
(0.488756 0.000595958 -1.12163e-20)
(0.488202 0.000850143 3.35435e-20)
(0.487424 0.00123031 0)
(0.486314 0.00182593 0)
(0.484759 0.00283987 -2.23076e-20)
(0.482411 0.00464109 -2.24152e-20)
(0.47962 0.00842867 2.26032e-20)
(0.47554 0.0155571 2.3046e-20)
(0.494194 -0.00017065 -2.15346e-20)
(0.494254 -0.000165992 0)
(0.494313 -0.000161196 0)
(0.494371 -0.000156202 2.12286e-20)
(0.494426 -0.000150925 -1.04166e-24)
(0.49448 -0.000145245 0)
(0.494532 -0.000139009 -2.09197e-20)
(0.49458 -0.000132014 -2.08156e-20)
(0.494626 -0.000124003 0)
(0.494668 -0.000114641 0)
(0.494705 -0.0001035 2.05061e-20)
(0.494737 -9.00234e-05 9.38776e-25)
(0.494761 -7.34873e-05 0)
(0.494776 -5.29393e-05 2.01984e-20)
(0.49478 -2.71177e-05 0)
(0.494768 5.66623e-06 0)
(0.494737 4.7698e-05 0)
(0.49468 0.000102112 -1.9799e-20)
(0.494591 0.000173278 0)
(0.494456 0.000267402 0)
(0.494263 0.000393519 1.95236e-20)
(0.493991 0.000565168 0)
(0.49361 0.000803433 0)
(0.493081 0.00114244 -3.85991e-20)
(0.492348 0.00164126 0)
(0.491324 0.00240425 0)
(0.489928 0.00364482 1.92405e-20)
(0.487968 0.00573583 3.8531e-20)
(0.485786 0.00965726 -1.94728e-20)
(0.483315 0.0164106 0)
(0.497357 -0.000218508 1.94338e-20)
(0.497417 -0.00021273 -1.93401e-20)
(0.497476 -0.000206769 0)
(0.497534 -0.000200546 1.91536e-20)
(0.49759 -0.000193952 -1.90608e-20)
(0.497644 -0.000186838 0)
(0.497696 -0.000179008 -1.88722e-20)
(0.497746 -0.000170209 3.75568e-20)
(0.497793 -0.000160114 0)
(0.497836 -0.000148304 3.71787e-20)
(0.497875 -0.000134235 -1.84959e-20)
(0.497908 -0.000117205 1.84017e-20)
(0.497935 -9.62997e-05 0)
(0.497952 -7.03157e-05 -1.82141e-20)
(0.497959 -3.76629e-05 0)
(0.497951 3.78392e-06 0)
(0.497925 5.68933e-05 0)
(0.497874 0.000125586 1.78473e-20)
(0.497791 0.000215299 0)
(0.497667 0.000333709 0)
(0.497487 0.000491889 0)
(0.497233 0.000706231 0)
(0.49688 0.0010018 0)
(0.496392 0.00141821 1.73817e-20)
(0.495727 0.00202141 0)
(0.49482 0.00292302 3.45722e-20)
(0.493626 0.00433231 0)
(0.49206 0.00659352 -3.46628e-20)
(0.490465 0.0104677 -3.46804e-20)
(0.48905 0.0166313 0)
(0.499619 -0.000264605 0)
(0.499679 -0.000257801 1.79156e-20)
(0.499738 -0.000250771 0)
(0.499795 -0.000243416 -5.32225e-20)
(0.499851 -0.000235603 0)
(0.499906 -0.000227155 3.51304e-20)
(0.499958 -0.000217836 1.74779e-20)
(0.500009 -0.000207345 -1.73897e-20)
(0.500056 -0.00019529 0)
(0.500101 -0.000181169 -3.44258e-20)
(0.500141 -0.000164333 0)
(0.500176 -0.000143941 -3.40704e-20)
(0.500204 -0.000118899 0)
(0.500225 -8.77691e-05 0)
(0.500235 -4.8655e-05 0)
(0.500231 9.73026e-07 0)
(0.50021 6.45193e-05 0)
(0.500167 0.000146618 3.30245e-20)
(0.500094 0.00025366 3.2857e-20)
(0.499982 0.000394605 0)
(0.49982 0.000582249 0)
(0.49959 0.000835282 0)
(0.499273 0.00118175 0)
(0.498839 0.00166489 -3.21154e-20)
(0.498256 0.00235402 0)
(0.497483 0.00336148 -6.38741e-20)
(0.496505 0.00488256 3.18618e-20)
(0.49531 0.00721878 3.18379e-20)
(0.494231 0.010946 3.20117e-20)
(0.493565 0.016508 3.179e-20)
(0.501312 -0.000309139 0)
(0.501371 -0.000301401 0)
(0.501429 -0.000293396 0)
(0.501486 -0.000285008 1.18481e-24)
(0.501541 -0.000276081 3.32801e-20)
(0.501595 -0.000266407 -3.3114e-20)
(0.501648 -0.000255717 3.29451e-20)
(0.501698 -0.000243662 0)
(0.501746 -0.000229792 -3.26084e-20)
(0.501791 -0.000213527 0)
(0.501832 -0.000194121 3.22707e-20)
(0.501869 -0.000170606 3.21034e-20)
(0.501899 -0.000141722 0)
(0.501923 -0.000105818 0)
(0.501936 -6.07183e-05 3.15964e-20)
(0.501938 -3.52932e-06 3.14294e-20)
(0.501923 6.963e-05 3.12636e-20)
(0.501888 0.000164019 -4.20616e-24)
(0.501826 0.000286848 -3.09431e-20)
(0.50173 0.000448144 0)
(0.501588 0.000662075 0)
(0.501388 0.000949045 0)
(0.501113 0.00133908 3.03369e-20)
(0.50074 0.00187732 3.02271e-20)
(0.500249 0.00263356 0)
(0.499618 0.00371622 6.00178e-20)
(0.498855 0.00530146 -6.15988e-23)
(0.497996 0.00764496 -9.12562e-23)
(0.497355 0.0111766 -2.97994e-20)
(0.497238 0.0161778 -5.95174e-20)
(0.502619 -0.000351961 -3.24105e-20)
(0.502676 -0.000343378 0)
(0.502733 -0.000334495 0)
(0.502788 -0.000325174 1.03994e-24)
(0.502843 -0.000315239 -6.35426e-20)
(0.502896 -0.000304456 -3.16094e-20)
(0.502947 -0.000292523 -3.14486e-20)
(0.502997 -0.000279048 3.12852e-20)
(0.503045 -0.000263527 6.22462e-20)
(0.50309 -0.000245313 -3.09594e-20)
(0.503132 -0.000223569 -1.48205e-24)
(0.50317 -0.000197214 0)
(0.503203 -0.000164839 0)
(0.503229 -0.000124606 0)
(0.503246 -7.40911e-05 -3.01462e-20)
(0.503252 -1.00839e-05 -2.99846e-20)
(0.503245 7.17064e-05 -2.98241e-20)
(0.503219 0.000177065 -4.62609e-24)
(0.50317 0.000313874 0)
(0.50309 0.000492998 0)
(0.502973 0.000729622 0)
(0.502806 0.00104529 0)
(0.502576 0.00147109 -2.89233e-20)
(0.502271 0.00205261 0)
(0.501877 0.00285791 0)
(0.501388 0.00398851 -2.85766e-20)
(0.500831 0.00559955 -2.84925e-20)
(0.500272 0.00790306 -2.84224e-20)
(0.499997 0.0112168 2.83679e-20)
(0.500289 0.0157107 2.8224e-20)
(0.503655 -0.000392807 6.24915e-20)
(0.50371 -0.000383472 -3.10906e-20)
(0.503764 -0.000373806 0)
(0.503818 -0.000363657 3.07801e-20)
(0.50387 -0.000352828 3.06235e-20)
(0.503922 -0.00034106 3.04664e-20)
(0.503972 -0.000328023 3.03077e-20)
(0.504021 -0.000313287 -3.01506e-20)
(0.504068 -0.000296301 -2.99921e-20)
(0.504113 -0.000276357 2.98332e-20)
(0.504155 -0.000252541 -5.93468e-20)
(0.504194 -0.000223671 0)
(0.504228 -0.000188214 0)
(0.504256 -0.000144165 -2.91943e-20)
(0.504277 -8.88943e-05 2.90351e-20)
(0.504288 -1.89251e-05 0)
(0.504288 7.03696e-05 5.74365e-20)
(0.504272 0.000185196 -2.85661e-20)
(0.504236 0.00033395 0)
(0.504176 0.000528106 0)
(0.504084 0.000783514 0)
(0.503952 0.00112233 5.59057e-20)
(0.503772 0.00157591 5.56183e-20)
(0.503536 0.00218908 0)
(0.50324 0.00302666 0)
(0.502891 0.00418151 0)
(0.502528 0.00578786 5.45804e-20)
(0.502232 0.00801864 5.43369e-20)
(0.502261 0.0111068 -5.40815e-20)
(0.502864 0.015148 0)
(0.504498 -0.000431361 -8.46012e-25)
(0.50455 -0.000421364 6.03961e-20)
(0.504601 -0.000411016 0)
(0.504652 -0.000400147 0)
(0.504702 -0.000388542 0)
(0.504751 -0.000375924 0)
(0.504799 -0.000361933 -2.94306e-20)
(0.504846 -0.000346111 0)
(0.504892 -0.000327864 0)
(0.504935 -0.000306434 0)
(0.504977 -0.000280842 8.64194e-20)
(0.505015 -0.000249824 5.72985e-20)
(0.50505 -0.00021174 0)
(0.50508 -0.000164453 2.83377e-20)
(0.505104 -0.000105165 -2.81813e-20)
(0.505121 -3.01884e-05 -5.60438e-20)
(0.505128 6.5362e-05 -5.57398e-20)
(0.505122 0.000188003 -5.54204e-20)
(0.505101 0.000346492 -5.51113e-20)
(0.50506 0.000552684 5.48049e-20)
(0.504994 0.000822769 0)
(0.5049 0.00117904 -2.7897e-23)
(0.504771 0.00165245 -1.07857e-19)
(0.504605 0.00228619 0)
(0.504407 0.00314077 0)
(0.504191 0.00429969 0)
(0.504006 0.00587747 -1.152e-22)
(0.50394 0.00801338 -1.52548e-22)
(0.504223 0.0108771 5.23944e-20)
(0.505064 0.0145159 0)
(0.505202 -0.000467236 -2.96574e-20)
(0.50525 -0.000456673 -2.95077e-20)
(0.505297 -0.000445746 0)
(0.505344 -0.000434272 5.84114e-20)
(0.50539 -0.000422018 0)
(0.505436 -0.000408691 0)
(0.505481 -0.00039391 0)
(0.505525 -0.00037719 0)
(0.505568 -0.000357906 5.68842e-20)
(0.50561 -0.000335257 0)
(0.50565 -0.000308214 -5.62694e-20)
(0.505688 -0.000275448 -3.30993e-24)
(0.505723 -0.000235238 -5.56463e-20)
(0.505754 -0.000185344 0)
(0.505781 -0.000122844 0)
(0.505802 -4.3896e-05 5.4721e-20)
(0.505816 5.65639e-05 5.44037e-20)
(0.505821 0.000185255 5.41047e-20)
(0.505814 0.000351141 1.35736e-23)
(0.505793 0.000566249 -5.34956e-20)
(0.505755 0.000846811 0)
(0.505698 0.00121485 -5.28991e-20)
(0.505621 0.00170039 1.05178e-19)
(0.505525 0.00234432 0)
(0.505421 0.00320229 0)
(0.505331 0.00434832 5.16805e-20)
(0.505309 0.00587909 -1.02864e-19)
(0.505443 0.00790568 -1.41169e-22)
(0.505937 0.0105508 0)
(0.506965 0.0138316 0)
(0.505848 -0.000488954 0)
(0.505891 -0.000477558 0)
(0.505933 -0.000465598 -1.14697e-19)
(0.505974 -0.00045283 5.70472e-20)
(0.506016 -0.000438946 5.67455e-20)
(0.506057 -0.00042355 0)
(0.506097 -0.000406134 -5.61387e-20)
(0.506137 -0.000386052 -5.58358e-20)
(0.506176 -0.000362473 0)
(0.506214 -0.000334331 0)
(0.50625 -0.000300249 -3.29833e-24)
(0.506284 -0.00025845 5.46088e-20)
(0.506316 -0.000206627 0)
(0.506345 -0.000141772 5.39867e-20)
(0.506371 -5.9953e-05 0)
(0.506391 4.39975e-05 -5.33763e-20)
(0.506406 0.000176894 0)
(0.506413 0.000347764 1.05511e-19)
(0.506412 0.000568609 0)
(0.506401 0.000855445 5.21316e-20)
(0.506382 0.00122969 0)
(0.506355 0.00172002 -5.15536e-20)
(0.506327 0.00236463 0)
(0.506313 0.003214 0)
(0.506341 0.00433307 -5.06628e-20)
(0.506465 0.00580276 5.03579e-20)
(0.506774 0.00771103 -1.29976e-22)
(0.507445 0.0101461 -4.95143e-20)
(0.508622 0.0131065 0)
(0.506375 -0.000517697 0)
(0.506411 -0.00050595 0)
(0.506447 -0.000493634 5.65268e-20)
(0.506483 -0.000480496 -1.51411e-24)
(0.506519 -0.000466218 -5.59282e-20)
(0.506554 -0.000450391 0)
(0.50659 -0.000432498 5.5325e-20)
(0.506625 -0.000411875 0)
(0.506661 -0.000387673 0)
(0.506695 -0.000358803 0)
(0.506729 -0.000323863 -5.41065e-20)
(0.506762 -0.000281045 0)
(0.506794 -0.000228004 -5.34879e-20)
(0.506824 -0.000161696 -5.31849e-20)
(0.506853 -7.81505e-05 0)
(0.506879 2.78231e-05 5.25599e-20)
(0.506903 0.000163034 -5.22496e-20)
(0.506924 0.00033644 -1.38591e-23)
(0.506942 0.000559842 -5.16273e-20)
(0.506959 0.00084882 -2.23057e-23)
(0.506976 0.00122392 0)
(0.506998 0.00171216 5.06872e-20)
(0.507035 0.00234879 0)
(0.507106 0.00317916 0)
(0.507241 0.00425968 0)
(0.507497 0.00565767 -4.9363e-20)
(0.507957 0.00744235 -1.19158e-22)
(0.508777 0.00967676 9.72836e-20)
(0.510076 0.0123486 0)
(0.506848 -0.00054235 5.64843e-20)
(0.506877 -0.000530379 5.61893e-20)
(0.506906 -0.000517845 -5.58929e-20)
(0.506935 -0.000504491 -1.46983e-24)
(0.506965 -0.000489991 0)
(0.506994 -0.000473933 0)
(0.507024 -0.000455792 5.46943e-20)
(0.507054 -0.000434898 0)
(0.507084 -0.000410396 -5.40879e-20)
(0.507114 -0.00038119 0)
(0.507145 -0.000345872 0)
(0.507175 -0.000302626 5.31702e-20)
(0.507206 -0.000249106 1.05729e-19)
(0.507237 -0.000182272 0)
(0.507268 -9.81747e-05 0)
(0.5073 8.32885e-06 -1.03874e-19)
(0.507332 0.000143948 5.16319e-20)
(0.507366 0.000317447 -5.13217e-20)
(0.507403 0.000540278 5.10109e-20)
(0.507445 0.000827394 -5.06992e-20)
(0.507497 0.00119826 -5.03584e-20)
(0.507566 0.00167805 -1.00107e-19)
(0.507664 0.00229895 0)
(0.507814 0.0031013 0)
(0.508047 0.0041338 0)
(0.508421 0.00545213 4.87441e-20)
(0.509013 0.00711053 -4.83655e-20)
(0.509958 0.00915374 -4.79477e-20)
(0.511357 0.0115636 0)
(0.507284 -0.000562325 -5.61349e-20)
(0.507305 -0.000550266 -5.58364e-20)
(0.507325 -0.000537664 5.55364e-20)
(0.507347 -0.000524257 -1.43695e-24)
(0.507368 -0.00050972 0)
(0.50739 -0.000493639 0)
(0.507413 -0.000475491 -1.08645e-19)
(0.507437 -0.00045461 0)
(0.507461 -0.000430146 1.07416e-19)
(0.507486 -0.00040101 5.33975e-20)
(0.507512 -0.000365807 0)
(0.507539 -0.000322741 -5.27793e-20)
(0.507568 -0.000269496 -5.24673e-20)
(0.507598 -0.000203079 0)
(0.507631 -0.000119614 0)
(0.507666 -1.40764e-05 1.03041e-19)
(0.507706 0.000120057 -5.11979e-20)
(0.507752 0.00029125 -5.08776e-20)
(0.507806 0.000510473 0)
(0.507872 0.000791904 0)
(0.507957 0.00115377 4.99268e-20)
(0.50807 0.00161928 4.95991e-20)
(0.508226 0.00221753 -4.92229e-20)
(0.508447 0.00298417 0)
(0.50877 0.00396092 0)
(0.509247 0.00519369 0)
(0.509953 0.00672482 0)
(0.511005 0.00858582 0)
(0.512487 0.0107558 0)
(0.507694 -0.000577175 0)
(0.507705 -0.000565172 0)
(0.507716 -0.000552655 -5.47132e-20)
(0.507728 -0.000539366 -1.08864e-19)
(0.507741 -0.000524981 0)
(0.507755 -0.000509093 0)
(0.50777 -0.000491187 1.77854e-24)
(0.507785 -0.00047061 -5.32888e-20)
(0.507802 -0.000446528 -2.27512e-24)
(0.507821 -0.000417876 -2.64235e-24)
(0.507841 -0.00038329 -5.24159e-20)
(0.507864 -0.00034102 -5.21219e-20)
(0.507889 -0.000288811 5.18263e-20)
(0.507918 -0.000223756 0)
(0.507951 -0.000142106 0)
(0.50799 -3.90166e-05 -5.09371e-20)
(0.508036 9.17687e-05 5.06358e-20)
(0.508092 0.000258317 1.00652e-19)
(0.508162 0.000471006 -5.00099e-20)
(0.508251 0.00074312 0)
(0.508366 0.00109153 0)
(0.50852 0.00153743 -9.81045e-20)
(0.508728 0.00210689 1.46193e-19)
(0.509015 0.00283117 -9.67401e-20)
(0.509417 0.00374585 -9.60108e-20)
(0.509986 0.00488865 0)
(0.51079 0.00629257 9.43923e-20)
(0.511931 0.00797965 0)
(0.513484 0.00992832 0)
(0.508075 -0.000585971 5.53559e-20)
(0.508075 -0.000574189 0)
(0.508077 -0.000561935 1.09521e-19)
(0.508079 -0.000548955 1.08921e-19)
(0.508082 -0.000534934 0)
(0.508087 -0.000519475 0)
(0.508093 -0.00050208 5.35548e-20)
(0.5081 -0.000482116 5.32506e-20)
(0.508109 -0.000458778 -5.29454e-20)
(0.508121 -0.000431039 -2.51472e-24)
(0.508135 -0.000397587 2.96112e-24)
(0.508152 -0.000356737 3.53511e-24)
(0.508173 -0.000306328 -4.27039e-24)
(0.5082 -0.000243577 0)
(0.508232 -0.000164908 0)
(0.508273 -6.57132e-05 0)
(0.508324 5.99253e-05 0)
(0.50839 0.000219598 -5.01437e-20)
(0.508474 0.000422999 4.9823e-20)
(0.508583 0.000682429 0)
(0.508726 0.00101334 0)
(0.508916 0.00143488 9.76677e-20)
(0.509172 0.00197023 -9.69787e-20)
(0.509518 0.00264661 9.27306e-23)
(0.509991 0.0034942 9.55181e-20)
(0.510639 0.00454394 0)
(0.511528 0.00582145 -9.38671e-20)
(0.512746 0.00734203 -9.27432e-20)
(0.514359 0.0090846 0)
(0.50842 -0.00058845 -1.10186e-19)
(0.50841 -0.00057704 0)
(0.508401 -0.00056521 -5.4489e-20)
(0.508394 -0.000552714 -5.41858e-20)
(0.508387 -0.000539248 0)
(0.508383 -0.000524433 0)
(0.50838 -0.000507793 0)
(0.508378 -0.000488723 0)
(0.50838 -0.000466459 5.26581e-20)
(0.508384 -0.000440025 -1.04704e-19)
(0.508391 -0.000408175 5.20454e-20)
(0.508403 -0.000369316 1.0347e-19)
(0.50842 -0.000321403 -5.14276e-20)
(0.508443 -0.000261814 -5.11124e-20)
(0.508474 -0.000187184 0)
(0.508516 -9.31973e-05 0)
(0.508572 2.56696e-05 0)
(0.508645 0.000176461 0)
(0.508741 0.000368116 0)
(0.508869 0.000611883 0)
(0.509037 0.000921755 0)
(0.50926 0.00131485 0)
(0.509558 0.0018116 0)
(0.509956 0.0024355 1.91288e-19)
(0.510491 0.00321203 0)
(0.51121 0.00416644 0)
(0.512171 0.00531852 -9.31152e-20)
(0.513455 0.00667873 9.23104e-20)
(0.51512 0.00822712 0)
(0.508731 -0.000584827 5.48454e-20)
(0.508711 -0.000573914 5.45414e-20)
(0.508692 -0.000562641 5.42383e-20)
(0.508675 -0.000550775 -5.39349e-20)
(0.508659 -0.000538027 0)
(0.508645 -0.00052404 0)
(0.508633 -0.000508364 0)
(0.508623 -0.000490434 0)
(0.508616 -0.000469532 -5.24145e-20)
(0.508613 -0.000444748 2.21298e-24)
(0.508613 -0.000414917 -5.18006e-20)
(0.508619 -0.000378556 -5.14968e-20)
(0.508631 -0.000333763 0)
(0.508651 -0.000278104 4.49252e-24)
(0.50868 -0.000208466 -5.0567e-20)
(0.508723 -0.000120866 5.02551e-20)
(0.508781 -1.02306e-05 4.9941e-20)
(0.508861 0.000129883 0)
(0.508968 0.000307599 0)
(0.509111 0.000533065 0)
(0.509301 0.000818791 0)
(0.509553 0.0011799 -9.66033e-20)
(0.509888 0.00163421 0)
(0.510333 0.00220183 -9.52343e-20)
(0.510922 0.0029041 0)
(0.511701 0.0037615 0)
(0.512724 0.00478924 9.27868e-20)
(0.514064 0.00599429 0)
(0.515773 0.00735826 0)
(0.509006 -0.0005754 5.46083e-20)
(0.508977 -0.000565084 -5.43088e-20)
(0.508948 -0.000554477 -5.4008e-20)
(0.508921 -0.00054336 5.3707e-20)
(0.508896 -0.000531463 0)
(0.508873 -0.000518455 0)
(0.508852 -0.000503921 0)
(0.508834 -0.000487337 5.25005e-20)
(0.508819 -0.000468046 -5.21987e-20)
(0.508808 -0.000445209 5.18985e-20)
(0.508802 -0.00041776 5.15963e-20)
(0.508801 -0.000384342 0)
(0.508808 -0.000343217 0)
(0.508824 -0.000292168 5.06859e-20)
(0.508851 -0.000228364 5.01681e-24)
(0.508893 -0.000148198 -1.00141e-19)
(0.508954 -4.70853e-05 -4.97642e-20)
(0.509039 8.07632e-05 0)
(0.509155 0.00024261 0)
(0.509311 0.000447465 4.88011e-20)
(0.50952 0.000706344 0)
(0.509797 0.00103243 9.63046e-20)
(0.510164 0.00144104 4.77771e-20)
(0.510648 0.00194921 0)
(0.511283 0.00257464 -9.40387e-20)
(0.512113 0.0033338 0)
(0.51319 0.00423829 9.23147e-20)
(0.514576 0.00529256 9.13433e-20)
(0.516322 0.00648006 9.01668e-20)
(0.509246 -0.000560541 -5.43846e-20)
(0.509207 -0.000550896 0)
(0.509169 -0.000541038 -5.37903e-20)
(0.509133 -0.000530762 0)
(0.509099 -0.000519823 0)
(0.509067 -0.000507917 0)
(0.509038 -0.000494668 0)
(0.509011 -0.000479604 -5.2309e-20)
(0.508989 -0.000462129 1.67055e-24)
(0.50897 -0.000441492 -5.17133e-20)
(0.508957 -0.000416734 0)
(0.50895 -0.00038664 0)
(0.508952 -0.000349658 0)
(0.508963 -0.000303808 -5.05183e-20)
(0.508988 -0.000246572 5.02213e-20)
(0.509029 -0.000174748 9.98319e-20)
(0.50909 -8.42847e-05 0)
(0.509179 2.99178e-05 -4.92973e-20)
(0.509302 0.000174222 -4.8983e-20)
(0.509469 0.000356475 -1.29824e-23)
(0.509693 0.000586194 -4.83348e-20)
(0.509992 0.000874668 4.79967e-20)
(0.510386 0.00123486 -4.76699e-20)
(0.510903 0.00168098 0)
(0.511577 0.0022275 1.40739e-19)
(0.51245 0.00288753 4.64751e-20)
(0.51357 0.00366977 -9.2152e-20)
(0.514994 0.00457691 -1.36738e-19)
(0.516771 0.0055944 -9.00322e-20)
(0.509447 -0.000540682 5.41687e-20)
(0.509399 -0.000531763 0)
(0.509353 -0.000522713 5.35888e-20)
(0.509308 -0.000513348 0)
(0.509266 -0.000503447 0)
(0.509226 -0.000492738 0)
(0.509188 -0.000480888 0)
(0.509154 -0.00046748 0)
(0.509124 -0.000451991 5.18455e-20)
(0.509098 -0.000433761 1.72729e-24)
(0.509078 -0.000411952 0)
(0.509065 -0.000385503 0)
(0.509061 -0.000353061 0)
(0.509068 -0.00031291 5.03841e-20)
(0.509089 -0.000262864 0)
(0.509128 -0.000200159 -4.85486e-24)
(0.50919 -0.000121303 0)
(0.509281 -2.1922e-05 4.91876e-20)
(0.509409 0.000103419 4.88795e-20)
(0.509585 0.000261384 -9.71196e-20)
(0.509822 0.00046 1.38698e-23)
(0.510138 0.000708709 -4.79116e-20)
(0.510554 0.00101824 0)
(0.511098 0.0014002 4.71805e-20)
(0.511804 0.00186618 -2.98927e-23)
(0.512711 0.00242643 -4.64152e-20)
(0.513866 0.00308735 0)
(0.515321 0.00385035 4.54969e-20)
(0.517123 0.00470299 0)
(0.509609 -0.000516314 -5.39658e-20)
(0.509553 -0.000508155 2.68406e-20)
(0.509499 -0.000499955 0)
(0.509446 -0.000491549 0)
(0.509396 -0.000482742 0)
(0.509348 -0.0004733 0)
(0.509303 -0.000462935 5.22639e-20)
(0.509261 -0.000451289 -5.198e-20)
(0.509224 -0.000437918 5.16959e-20)
(0.509191 -0.000422259 5.14128e-20)
(0.509165 -0.000403605 -5.11261e-20)
(0.509146 -0.00038106 0)
(0.509136 -0.000353486 -5.05531e-20)
(0.509139 -0.000319443 0)
(0.509156 -0.000277102 4.99745e-20)
(0.509193 -0.000224156 -4.96861e-20)
(0.509254 -0.000157703 0)
(0.509346 -7.41154e-05 -4.90863e-20)
(0.509477 3.10882e-05 0)
(0.509659 0.000163377 4.84789e-20)
(0.509906 0.000329297 4.81606e-20)
(0.510235 0.00053649 0)
(0.510669 0.000793551 4.7472e-20)
(0.511234 0.00110966 -2.08205e-23)
(0.511965 0.00149386 -9.34735e-20)
(0.512899 0.00195389 0)
(0.514081 0.00249429 4.587e-20)
(0.51556 0.00311557 0)
(0.517381 0.00380747 4.48122e-20)
(0.50973 -0.000487974 2.68858e-20)
(0.509667 -0.000480594 -2.67487e-20)
(0.509606 -0.000473265 2.66104e-20)
(0.509546 -0.000465847 2.64726e-20)
(0.509489 -0.000458172 0)
(0.509434 -0.000450044 0)
(0.509381 -0.000441224 -5.21186e-20)
(0.509333 -0.000431417 7.77626e-20)
(0.509289 -0.00042026 -5.15652e-20)
(0.50925 -0.000407297 0)
(0.509217 -0.000391956 7.65138e-20)
(0.509192 -0.000373516 2.53645e-20)
(0.509177 -0.000351066 5.04506e-20)
(0.509175 -0.000323454 0)
(0.509189 -0.000289225 -7.48266e-20)
(0.509222 -0.000246548 0)
(0.509282 -0.000193128 0)
(0.509373 -0.000126109 4.90164e-20)
(0.509506 -4.19772e-05 0)
(0.509692 6.35345e-05 0)
(0.509946 0.000195502 0)
(0.510284 0.000359803 -4.77607e-20)
(0.510731 0.000562991 -4.74327e-20)
(0.511312 0.000811981 -4.70757e-20)
(0.512061 0.00111345 4.66971e-20)
(0.513015 0.00147298 0)
(0.514217 0.00189356 -4.58549e-20)
(0.515713 0.00237505 0)
(0.517547 0.00290935 -8.95877e-20)
(0.509811 -0.000456236 -5.35907e-20)
(0.509742 -0.00044964 -2.66617e-20)
(0.509674 -0.000443193 -2.65287e-20)
(0.509608 -0.000436775 -5.31346e-25)
(0.509544 -0.000430252 0)
(0.509482 -0.000423465 0)
(0.509424 -0.000416226 0)
(0.509369 -0.000408307 -2.58586e-20)
(0.509318 -0.00039943 0)
(0.509273 -0.00038925 0)
(0.509235 -0.000377335 -2.54532e-20)
(0.509205 -0.000363146 -5.06336e-20)
(0.509185 -0.000346006 0)
(0.509178 -0.000325063 2.50418e-20)
(0.509187 -0.000299248 1.16043e-24)
(0.509218 -0.000267221 0)
(0.509274 -0.000227307 2.46204e-20)
(0.509365 -0.000177437 -2.4476e-20)
(0.509498 -0.000115076 0)
(0.509686 -3.71645e-05 0)
(0.509943 5.99123e-05 0)
(0.510287 0.000180305 4.77294e-20)
(0.510742 0.000328592 0)
(0.511333 0.000509534 0)
(0.512095 0.000727635 0)
(0.513062 0.000986504 0)
(0.514277 0.00128784 0)
(0.515783 0.001631 0)
(0.517625 0.00201005 6.71703e-20)
(0.509852 -0.000421723 2.6711e-20)
(0.509777 -0.000415904 2.6582e-20)
(0.509703 -0.000410334 1.32261e-20)
(0.509631 -0.000404917 -2.63233e-20)
(0.509562 -0.000399549 0)
(0.509494 -0.000394112 0)
(0.50943 -0.000388471 0)
(0.50937 -0.000382466 0)
(0.509314 -0.000375906 -1.28356e-20)
(0.509263 -0.000368558 0)
(0.50922 -0.000360137 0)
(0.509184 -0.000350291 3.79132e-20)
(0.50916 -0.000338581 0)
(0.509148 -0.000324465 -2.50078e-20)
(0.509153 -0.000307265 2.48721e-20)
(0.50918 -0.000286141 0)
(0.509234 -0.000260053 -2.45959e-20)
(0.509322 -0.000227725 2.44545e-20)
(0.509454 -0.000187608 1.21542e-20)
(0.509641 -0.000137853 1.208e-20)
(0.509899 -7.6298e-05 0)
(0.510246 -4.94635e-07 -1.19237e-20)
(0.510704 9.22097e-05 0)
(0.511301 0.000204506 -1.17525e-20)
(0.512068 0.000338838 0)
(0.513043 0.000497 0)
(0.514264 0.00067954 0)
(0.515775 0.000885422 -1.13334e-20)
(0.517619 0.0011108 -2.2392e-20)
(0.509853 -0.000385011 0)
(0.509773 -0.00037996 0)
(0.509695 -0.000375257 -1.35323e-20)
(0.509618 -0.000370832 0)
(0.509543 -0.000366612 0)
(0.509471 -0.000362522 0)
(0.509402 -0.00035848 0)
(0.509337 -0.000354394 0)
(0.509276 -0.000350163 1.31482e-20)
(0.509221 -0.000345668 0)
(0.509173 -0.000340772 0)
(0.509133 -0.000335312 -1.29521e-20)
(0.509103 -0.000329093 0)
(0.509087 -0.000321884 0)
(0.509089 -0.000313404 0)
(0.509111 -0.00030332 0)
(0.509161 -0.000291229 0)
(0.509246 -0.000276656 0)
(0.509375 -0.000259042 -1.24703e-20)
(0.509561 -0.000237746 -1.23959e-20)
(0.509817 -0.000212054 0)
(0.510163 -0.000181203 1.22389e-20)
(0.51062 -0.000144437 0)
(0.511217 -0.000101085 1.20664e-20)
(0.511985 -5.06969e-05 0)
(0.51296 6.79463e-06 0)
(0.514182 7.08581e-05 0)
(0.515691 0.00014012 1.16421e-20)
(0.517532 0.000212718 0)
(0.509813 -0.000343375 0)
(0.509729 -0.000339121 0)
(0.509646 -0.000335326 0)
(0.509565 -0.000331946 -1.31785e-20)
(0.509486 -0.000328944 0)
(0.509409 -0.000326289 -1.30408e-20)
(0.509336 -0.000323959 1.29715e-20)
(0.509266 -0.000321938 0)
(0.509201 -0.000320222 1.2832e-20)
(0.509141 -0.000318819 0)
(0.509088 -0.000317754 1.26909e-20)
(0.509044 -0.000317071 0)
(0.50901 -0.000316845 -1.2548e-20)
(0.50899 -0.000317187 0)
(0.508986 -0.000318255 0)
(0.509005 -0.00032027 -1.23286e-20)
(0.50905 -0.000323535 -1.22536e-20)
(0.509131 -0.000328453 0)
(0.509255 -0.000335555 -2.41987e-20)
(0.509436 -0.000345528 0)
(0.509688 -0.000359247 2.3874e-20)
(0.510029 -0.000377801 0)
(0.510482 -0.000402507 0)
(0.511073 -0.000434911 0)
(0.511836 -0.000476739 0)
(0.512804 -0.000529818 0)
(0.514019 -0.000595875 0)
(0.515521 -0.00067665 0)
(0.517353 -0.000772038 -2.2152e-20)
(0.509719 -0.000296591 0)
(0.509631 -0.000293183 0)
(0.509544 -0.000290353 -2.70204e-20)
(0.50946 -0.000288085 1.34417e-20)
(0.509377 -0.000286381 0)
(0.509297 -0.000285259 1.33031e-20)
(0.50922 -0.000284761 -1.32334e-20)
(0.509147 -0.000284953 0)
(0.509078 -0.000285937 -1.30929e-20)
(0.509014 -0.000287856 0)
(0.508957 -0.000290911 1.29505e-20)
(0.508909 -0.000295372 -2.57576e-20)
(0.508871 -0.000301602 1.28065e-20)
(0.508846 -0.000310083 2.54669e-20)
(0.508838 -0.000321447 2.53193e-20)
(0.508851 -0.000336517 1.25849e-20)
(0.508892 -0.000356355 -1.25093e-20)
(0.508966 -0.000382318 2.4864e-20)
(0.509084 -0.000416118 -7.75517e-25)
(0.509257 -0.000459885 0)
(0.509501 -0.000516225 -2.43762e-20)
(0.509832 -0.000588243 0)
(0.510274 -0.000679532 0)
(0.510853 -0.000794074 -4.76671e-20)
(0.511602 -0.00093601 4.72634e-20)
(0.512555 -0.0011093 0)
(0.513754 -0.00131705 4.63678e-20)
(0.51524 -0.00156148 0)
(0.517055 -0.00184052 -2.26341e-20)
(0.509573 -0.000248685 5.45981e-20)
(0.509483 -0.000246144 0)
(0.509394 -0.000244295 2.70238e-20)
(0.509308 -0.000243154 0)
(0.509223 -0.000242758 0)
(0.509141 -0.000243175 0)
(0.509061 -0.000244508 5.29307e-20)
(0.508986 -0.000246904 0)
(0.508914 -0.000250568 0)
(0.508848 -0.000255777 5.20806e-20)
(0.508789 -0.000262903 2.5897e-20)
(0.508737 -0.000272435 7.72588e-20)
(0.508696 -0.000285021 0)
(0.508668 -0.000301504 2.54615e-20)
(0.508655 -0.000322981 -2.53129e-20)
(0.508664 -0.000350865 0)
(0.508698 -0.000386964 7.50346e-20)
(0.508766 -0.000433573 -2.48561e-20)
(0.508876 -0.000493572 -2.47016e-20)
(0.50904 -0.000570523 0)
(0.509271 -0.000668756 0)
(0.509589 -0.000793407 0)
(0.510015 -0.000950374 0)
(0.510575 -0.00114614 4.76458e-20)
(0.511302 -0.00138737 -4.7241e-20)
(0.512232 -0.0016803 0)
(0.513406 -0.00202959 -4.63425e-20)
(0.514868 -0.00243808 0)
(0.516659 -0.00290185 -2.63031e-23)
(0.509379 -0.000200699 -5.46172e-20)
(0.509288 -0.000199046 0)
(0.509198 -0.000198196 0)
(0.509111 -0.000198191 -5.37808e-20)
(0.509025 -0.000199105 0)
(0.508942 -0.000201053 0)
(0.508862 -0.000204197 -5.45399e-25)
(0.508786 -0.000208763 0)
(0.508713 -0.000215055 0)
(0.508646 -0.000223477 -5.20826e-20)
(0.508585 -0.000234565 1.03491e-25)
(0.508532 -0.000249022 -5.15052e-20)
(0.508488 -0.000267766 0)
(0.508457 -0.000291991 1.087e-24)
(0.508442 -0.000323239 0)
(0.508445 -0.000363495 5.03248e-20)
(0.508474 -0.000415293 -5.0018e-20)
(0.508535 -0.000481842 0)
(0.508635 -0.000567168 9.87904e-20)
(0.508787 -0.000676248 0)
(0.509004 -0.000815135 4.87441e-20)
(0.509304 -0.000991017 0)
(0.509708 -0.00121216 0)
(0.510244 -0.00148767 9.5332e-20)
(0.510941 -0.00182692 0)
(0.51184 -0.0022387 9.36813e-20)
(0.51298 -0.0027295 -9.27623e-20)
(0.51441 -0.00330313 -9.17662e-20)
(0.51617 -0.00395375 1.35778e-19)
(0.509136 -0.00015378 5.46435e-20)
(0.509045 -0.000153031 -5.4364e-20)
(0.508957 -0.000153187 5.40836e-20)
(0.50887 -0.000154317 8.06953e-25)
(0.508786 -0.00015653 0)
(0.508704 -0.000159983 0)
(0.508624 -0.000164898 -5.29541e-20)
(0.508548 -0.00017157 -5.26688e-20)
(0.508477 -0.000180399 1.04766e-19)
(0.50841 -0.000191909 0)
(0.508348 -0.00020679 5.18075e-20)
(0.508295 -0.000225946 1.03034e-19)
(0.50825 -0.000250551 0)
(0.508217 -0.000282129 -5.09296e-20)
(0.508199 -0.000322648 1.0127e-19)
(0.508198 -0.000374635 -5.03321e-20)
(0.508221 -0.000441319 1.00064e-19)
(0.508274 -0.000526792 0)
(0.508364 -0.000636194 -4.94035e-20)
(0.508502 -0.000775897 -9.81809e-20)
(0.508702 -0.000953674 -4.87487e-20)
(0.50898 -0.0011788 9.68409e-20)
(0.509357 -0.00146199 -9.61315e-20)
(0.509861 -0.00181516 -9.53381e-20)
(0.510522 -0.00225067 0)
(0.511379 -0.00278023 -9.36845e-20)
(0.512477 -0.00341264 9.27635e-20)
(0.513867 -0.00415312 9.1765e-20)
(0.515588 -0.00499389 1.01757e-22)
(0.508846 -0.000109055 -5.46847e-20)
(0.508758 -0.000109221 1.63208e-19)
(0.508672 -0.000110383 5.41194e-20)
(0.508588 -0.000112637 1.61514e-19)
(0.508506 -0.000116122 0)
(0.508426 -0.000121038 -1.0654e-19)
(0.508349 -0.000127657 1.0597e-19)
(0.508275 -0.000136343 -5.26988e-20)
(0.508205 -0.00014758 -2.09648e-19)
(0.50814 -0.000162004 1.04248e-19)