/*--------------------------------*- C++ -*----------------------------------*\
  =========                 |
  \\      /  F ield         | OpenFOAM: The Open Source CFD Toolbox
   \\    /   O peration     | Website:  https://openfoam.org
    \\  /    A nd           | Version:  6
     \\/     M anipulation  |
\*---------------------------------------------------------------------------*/
FoamFile
{
    version     2.0;
    format      ascii;
    class       volScalarField;
    location    "0.25";
    object      epsilon;
}
// * * * * * * * * * * * * * * * * * * * * * * * * * * * * * * * * * * * * * //

dimensions      [0 2 -3 0 0 0 0];

internalField   nonuniform List<scalar> 
12225
(
307.554
159.142
103.206
76.1806
60.8922
51.3546
44.915
40.2556
36.692
33.8523
31.521
29.5646
27.8951
26.4514
25.189
24.0755
23.0852
22.2522
71.6108
59.7633
44.4174
34.349
27.8022
23.353
20.2006
17.8784
16.1029
14.6998
13.5611
12.6169
11.8205
11.1395
10.5503
10.0357
9.58171
9.17318
33.6139
34.4055
29.2906
24.3864
20.5357
17.6093
15.3795
13.6555
12.2961
11.202
10.3048
9.55668
8.92409
8.38265
7.91441
7.50588
7.14664
6.82857
22.4947
24.1974
22.2225
19.5419
17.0649
14.9828
13.2828
11.9022
10.7748
9.84493
9.06907
8.41435
7.85598
7.37518
6.9576
6.59221
6.27068
5.98827
18.0525
19.1659
18.2265
16.5958
14.8967
13.3495
12.0108
10.8752
9.91691
9.10659
8.41769
7.82803
7.31966
6.87824
6.49238
6.15309
5.85364
5.59104
15.9662
16.4001
15.7672
14.6432
13.3964
12.1983
11.1154
10.1639
9.33798
8.62369
8.00547
7.4687
7.00061
6.59042
6.22921
5.90972
5.62656
5.37784
14.903
14.7894
14.1897
13.3006
12.3143
11.3432
10.4411
9.62827
8.90693
8.27133
7.71255
7.22102
6.78771
6.40455
6.0646
5.76207
5.49267
5.25529
14.3404
13.8261
13.1601
12.3652
11.5231
10.6961
9.91942
9.20916
8.56935
7.99764
7.48869
7.03606
6.63324
6.27411
5.95323
5.66598
5.40898
5.18167
14.0387
13.2461
12.4873
11.7147
10.9458
10.2062
9.51374
8.87735
8.29948
7.77846
7.3105
6.89082
6.51444
6.17658
5.87286
5.59954
5.35394
5.13587
13.8768
12.8995
12.0524
11.2678
10.5298
9.83967
9.20107
8.61588
8.08351
7.60151
7.1663
6.77381
6.41987
6.10047
5.81195
5.55118
5.31599
5.10642
13.7906
12.6958
11.7767
10.9671
10.2363
9.57091
8.96456
8.41313
7.91283
7.45974
7.04983
6.67906
6.34358
6.03976
5.76436
5.51464
5.28877
5.0869
13.7489
12.5882
11.6206
10.7868
10.0518
9.39519
8.80487
8.27256
7.79193
7.35762
6.9649
6.60945
6.2874
5.99525
5.72991
5.48886
5.27041
5.07477
13.7254
12.5235
11.521
10.6659
9.92274
9.26802
8.68593
8.16532
7.69785
7.27688
6.8969
6.55323
6.24182
5.95912
5.70214
5.4684
5.25635
5.06615
13.7116
12.4831
11.4547
10.5809
9.8278
9.17069
8.59181
8.07804
7.61946
7.20828
6.83823
6.50415
6.20172
5.92728
5.67776
5.45075
5.24468
5.05965
13.7045
12.4608
11.416
10.5284
9.76602
9.1045
8.52534
8.01439
7.56071
7.15569
6.79242
6.4653
6.1697
5.90177
5.65837
5.437
5.23608
5.0556
13.7012
12.4503
11.3966
10.5006
9.7316
9.06588
8.48494
7.97432
7.52261
7.12074
6.76138
6.4386
6.14753
5.88415
5.64517
5.42804
5.23109
5.0542
13.7
12.4461
11.3886
10.4886
9.71594
9.04748
8.4649
7.95374
7.50247
7.10183
6.74431
6.4238
6.13526
5.87456
5.63832
5.4239
5.22958
5.05511
13.6996
12.4449
11.3862
10.4848
9.71085
9.04129
8.45795
7.94641
7.49515
7.09488
6.73802
6.41841
6.13094
5.87143
5.63644
5.42332
5.23029
5.05703
13.6998
12.4453
11.387
10.486
9.71246
9.04325
8.46017
7.94879
7.49759
7.09729
6.74034
6.42058
6.13293
5.8732
5.638
5.42465
5.23139
5.05793
13.701
12.4493
11.3947
10.4976
9.72763
9.06118
8.47985
7.9692
7.51779
7.11648
6.75791
6.43608
6.14605
5.88377
5.64591
5.4299
5.23406
5.05818
13.7054
12.4634
11.4201
10.5336
9.7719
9.11063
8.53148
8.02043
7.56662
7.16147
6.79813
6.47098
6.1754
5.90755
5.66426
5.44304
5.24229
5.06201
13.7204
12.5081
11.4948
10.6317
9.88425
9.2286
8.64817
8.13093
7.66782
7.25166
6.87658
6.53767
6.23075
5.95222
5.69904
5.46876
5.25982
5.07238
13.767
12.633
11.6842
10.8596
10.1263
9.46683
8.87114
8.33239
7.84511
7.40446
7.00594
6.64534
6.31879
6.02277
5.75413
5.51027
5.28948
5.09197
13.9007
12.9462
12.1086
11.3251
10.5843
9.88982
9.24647
8.65673
8.12024
7.63462
7.19632
6.80123
6.44513
6.12397
5.83403
5.57212
5.33605
5.12589
14.2607
13.6658
12.974
12.1888
11.372
10.5738
9.8239
9.13625
8.51468
7.95736
7.45965
7.01579
6.61984
6.26616
5.94964
5.66593
5.41188
5.18714
15.1941
15.2319
14.6347
13.6937
12.6456
11.6176
10.6673
9.8151
9.06227
8.40173
7.82329
7.3163
6.87084
6.47812
6.13063
5.82213
5.54799
5.30709
17.6338
18.6177
17.7644
16.258
14.6629
13.1886
11.8967
10.7898
9.84897
9.04941
8.36746
7.78259
7.2778
6.8393
6.45596
6.11895
5.82171
5.56194
24.7058
26.4229
23.9014
20.7812
17.9998
15.7042
13.8525
12.3634
11.158
10.1718
9.35468
8.66948
8.08827
7.5901
7.15912
6.78325
6.45355
6.16617
51.9669
47.7358
37.7987
30.1744
24.7626
20.8812
18.0408
15.9127
14.2758
12.9835
11.9389
11.0776
10.3551
9.74049
9.21134
8.75126
8.34826
7.99638
251.833
137.373
90.8042
67.1599
53.351
44.5807
38.6433
34.3881
31.1836
28.6709
26.637
24.95
23.5239
22.3006
21.2388
20.3085
19.4871
18.7599
0.0481664
0.0527883
0.0675127
0.0734445
0.0776076
0.0843591
0.0932331
0.104545
0.118928
0.138885
0.160229
0.184162
0.210975
0.240687
0.273135
0.308036
0.34505
0.383819
0.423992
0.46524
0.507266
0.549805
0.592631
0.63555
0.678407
0.721077
0.763469
0.80552
0.847192
0.888469
0.929351
0.969854
1.01001
1.04984
1.0894
1.12872
1.16785
1.20683
1.24571
1.28451
1.32327
1.36203
1.40081
1.43962
1.47849
1.51743
1.55646
1.59559
1.63484
1.67426
1.7139
1.75386
1.7943
1.83543
1.87762
1.9206
1.96331
2.00573
2.04782
2.08946
2.13053
2.17086
2.21031
2.24867
2.28576
2.32137
2.35529
2.38727
2.41711
2.44455
2.46937
2.49133
2.51022
2.5258
2.53789
2.5463
2.55085
2.55143
2.54791
2.54023
2.52832
2.5122
2.49187
2.46742
2.43893
2.40654
2.37043
2.33079
2.28786
2.24187
2.19311
2.14187
2.08844
2.03317
1.97648
1.91911
1.86274
1.81154
1.77058
1.73458
1.69891
1.663
1.62683
1.59051
1.55418
1.51796
1.48198
1.44634
1.41117
1.37654
1.34254
1.30924
1.27669
1.24496
1.21407
1.18406
1.15495
1.12674
1.09946
1.07308
1.04762
1.02305
0.999348
0.976497
0.954465
0.933219
0.912721
0.892932
0.873808
0.855304
0.837375
0.819972
0.80305
0.786562
0.770463
0.75471
0.739265
0.724092
0.709161
0.694446
0.679927
0.665591
0.651431
0.637444
0.62363
0.609992
0.596524
0.583219
0.570075
0.557152
0.544664
0.532936
0.521922
0.511611
0.501995
0.493065
0.484814
0.477231
0.470306
0.464024
0.458365
0.453308
0.448825
0.444885
0.441454
0.438492
0.435957
0.433803
0.431982
0.430438
0.429113
0.427937
0.426828
0.425681
0.424355
0.422633
0.420178
0.416339
0.410171
0.399407
0.133067
0.0856334
0.08113
0.0876252
0.0992213
0.114194
0.13237
0.15295
0.174648
0.196258
0.216869
0.236447
0.255113
0.272986
0.290172
0.306777
0.322909
0.338675
0.354175
0.369493
0.384697
0.399838
0.414947
0.430041
0.445127
0.460202
0.47526
0.490292
0.505289
0.520242
0.535145
0.549993
0.564783
0.579513
0.594183
0.608795
0.62335
0.63785
0.652296
0.666692
0.681039
0.695338
0.709591
0.723801
0.73797
0.752101
0.766201
0.78028
0.794353
0.808443
0.822584
0.836824
0.851231
0.865892
0.880901
0.896334
0.911724
0.926986
0.942082
0.956973
0.971612
0.98595
0.999929
1.01349
1.02656
1.03908
1.05097
1.06215
1.07254
1.08207
1.09064
1.09818
1.1046
1.10982
1.11378
1.11639
1.1176
1.11735
1.1156
1.11231
1.10746
1.10103
1.09302
1.08346
1.07237
1.05979
1.04577
1.03039
1.01373
0.995858
0.976893
0.956944
0.93614
0.914632
0.892621
0.870388
0.84836
0.827327
0.808094
0.789563
0.771159
0.752767
0.734397
0.716094
0.697908
0.679892
0.662093
0.644555
0.627315
0.610407
0.59386
0.577698
0.56194
0.546602
0.531696
0.517228
0.503204
0.489625
0.47649
0.463794
0.451531
0.439693
0.428269
0.417247
0.406614
0.396355
0.386453
0.376892
0.367656
0.358725
0.350082
0.341709
0.333589
0.325705
0.31804
0.310579
0.303309
0.296218
0.289294
0.28253
0.275918
0.269455
0.263137
0.256966
0.250941
0.245066
0.239347
0.233792
0.228419
0.223262
0.218384
0.213904
0.209768
0.205884
0.202247
0.198856
0.195707
0.192795
0.190115
0.187662
0.185429
0.183409
0.181595
0.17998
0.178554
0.177308
0.176233
0.17532
0.17456
0.173943
0.173464
0.173118
0.172907
0.172846
0.172966
0.173349
0.174174
0.175868
0.179424
0.187895
0.26025
0.13833
0.126639
0.129717
0.138698
0.151878
0.168011
0.185592
0.203098
0.219478
0.234349
0.247856
0.260342
0.272159
0.283601
0.294896
0.306204
0.31763
0.329229
0.34102
0.352992
0.365115
0.377344
0.389634
0.401937
0.414212
0.426421
0.438537
0.450537
0.462406
0.474134
0.485718
0.497154
0.508446
0.519597
0.530612
0.541498
0.552262
0.562914
0.573462
0.583916
0.594286
0.604586
0.614826
0.625022
0.635189
0.645344
0.655507
0.665698
0.675942
0.686262
0.696685
0.707235
0.717933
0.728791
0.739755
0.75071
0.761609
0.772422
0.783119
0.793671
0.804043
0.814196
0.824088
0.833672
0.842897
0.851706
0.860043
0.867843
0.875042
0.881574
0.88737
0.892362
0.896483
0.899669
0.901856
0.902989
0.903015
0.901891
0.89958
0.896056
0.891301
0.885309
0.878085
0.869645
0.860017
0.849238
0.837358
0.824438
0.810545
0.79576
0.780172
0.763881
0.747
0.729665
0.712034
0.694361
0.6772
0.66048
0.643976
0.627558
0.611202
0.594928
0.578776
0.562788
0.547006
0.531466
0.516202
0.501244
0.486617
0.472341
0.458433
0.444906
0.431771
0.419033
0.406696
0.394761
0.383227
0.37209
0.361345
0.350985
0.341
0.33138
0.322116
0.313194
0.304601
0.296324
0.288349
0.280662
0.273247
0.266091
0.25918
0.252499
0.246035
0.239774
0.233707
0.22782
0.222105
0.216552
0.211156
0.205909
0.200807
0.195848
0.19103
0.186352
0.181818
0.17743
0.173194
0.169119
0.165217
0.161507
0.158011
0.154742
0.151704
0.148867
0.146227
0.14378
0.14152
0.139443
0.137544
0.135818
0.134257
0.132856
0.131608
0.130504
0.129538
0.1287
0.127984
0.127382
0.126886
0.12649
0.12619
0.125986
0.125882
0.125894
0.126062
0.126473
0.127334
0.129105
0.132974
0.395295
0.197279
0.170566
0.166726
0.170753
0.179095
0.190037
0.202188
0.214429
0.22609
0.236987
0.247265
0.257192
0.267028
0.27697
0.287141
0.297604
0.308372
0.319428
0.330732
0.342231
0.353868
0.365586
0.377332
0.389058
0.400724
0.412298
0.423754
0.435073
0.446242
0.457251
0.468097
0.478777
0.489294
0.499651
0.509853
0.519908
0.529825
0.539614
0.549285
0.558851
0.568325
0.577723
0.587058
0.596347
0.605608
0.614857
0.624113
0.633392
0.642714
0.652092
0.661541
0.671071
0.680687
0.690391
0.700154
0.709925
0.719676
0.729382
0.739021
0.748567
0.757992
0.767262
0.776338
0.785177
0.793733
0.801953
0.809779
0.817152
0.824008
0.830281
0.835901
0.8408
0.84491
0.848163
0.850494
0.851844
0.852157
0.851386
0.849491
0.846442
0.842216
0.836804
0.830207
0.822437
0.813517
0.803484
0.792383
0.78027
0.76721
0.753279
0.73856
0.723144
0.707127
0.690623
0.673808
0.65703
0.640349
0.623769
0.607259
0.590806
0.57443
0.558166
0.542055
0.526142
0.510464
0.49506
0.479959
0.46519
0.450775
0.436734
0.423081
0.409826
0.396979
0.384544
0.372522
0.360913
0.349714
0.338921
0.328526
0.318522
0.3089
0.299648
0.290755
0.28221
0.273998
0.266106
0.25852
0.251227
0.244212
0.237462
0.230961
0.224697
0.218657
0.212828
0.207198
0.201757
0.196494
0.191401
0.186471
0.181695
0.177071
0.172592
0.168257
0.164064
0.160014
0.156107
0.152347
0.148737
0.145285
0.141997
0.138884
0.135952
0.133209
0.130652
0.128271
0.126064
0.124025
0.122151
0.120437
0.118877
0.117467
0.116199
0.115068
0.114066
0.113186
0.112421
0.111762
0.111204
0.110738
0.11036
0.110063
0.109847
0.109713
0.109671
0.109743
0.109982
0.110505
0.111549
0.113568
0.510506
0.240478
0.201736
0.192461
0.192011
0.195831
0.202156
0.209882
0.218249
0.226818
0.235441
0.244154
0.253064
0.262275
0.271852
0.281822
0.292174
0.302878
0.313887
0.325146
0.3366
0.348195
0.359878
0.371602
0.383325
0.395012
0.406631
0.418158
0.429571
0.440855
0.451997
0.462989
0.473826
0.484505
0.495025
0.505391
0.515607
0.525679
0.535615
0.545427
0.555126
0.564724
0.574235
0.583675
0.593059
0.602402
0.61172
0.62103
0.630346
0.639682
0.64905
0.658461
0.667923
0.677442
0.68702
0.696648
0.706294
0.715936
0.725556
0.735132
0.744642
0.754057
0.763344
0.772466
0.781379
0.790036
0.798382
0.806358
0.813902
0.820947
0.827422
0.833256
0.838376
0.842707
0.84618
0.848724
0.850275
0.850774
0.85017
0.84842
0.845489
0.841355
0.836005
0.82944
0.821672
0.812725
0.802634
0.791446
0.77922
0.766021
0.751925
0.737019
0.721383
0.705109
0.688416
0.671498
0.654444
0.637323
0.62018
0.603046
0.585956
0.568952
0.55208
0.535389
0.518922
0.50272
0.486822
0.471258
0.456057
0.441241
0.426828
0.412832
0.399264
0.386131
0.373437
0.361183
0.349366
0.337985
0.327032
0.3165
0.306381
0.296665
0.287339
0.278392
0.26981
0.261581
0.25369
0.246123
0.238865
0.231901
0.225218
0.218801
0.212635
0.206708
0.201006
0.195517
0.19023
0.185133
0.180217
0.175474
0.170896
0.166477
0.162211
0.158094
0.154124
0.150299
0.146619
0.143084
0.139697
0.13646
0.133377
0.130453
0.127692
0.125099
0.122677
0.120421
0.118326
0.116391
0.114609
0.112979
0.111494
0.110149
0.108939
0.107857
0.106896
0.10605
0.105311
0.104673
0.104127
0.103669
0.10329
0.102987
0.102757
0.102599
0.10252
0.102534
0.102675
0.103017
0.103689
0.104886
0.588128
0.267519
0.220128
0.206885
0.203268
0.203986
0.207249
0.212159
0.218167
0.224945
0.232324
0.240241
0.248677
0.257624
0.267065
0.276969
0.287295
0.297996
0.309021
0.320318
0.331837
0.343532
0.355357
0.36727
0.379233
0.391212
0.403175
0.415095
0.426948
0.438712
0.450372
0.461912
0.473322
0.484595
0.495726
0.506714
0.517558
0.528262
0.538832
0.549276
0.559602
0.569821
0.579945
0.589988
0.599963
0.609885
0.619767
0.629624
0.639469
0.649315
0.659173
0.669053
0.678963
0.688911
0.698901
0.708932
0.718981
0.72903
0.739061
0.749054
0.758986
0.768827
0.778544
0.788097
0.797441
0.806525
0.81529
0.823676
0.831614
0.839034
0.845861
0.852018
0.857427
0.86201
0.86569
0.868396
0.870058
0.870614
0.870011
0.868202
0.865154
0.860843
0.855256
0.848397
0.840277
0.830924
0.820378
0.808687
0.795914
0.78213
0.767406
0.751852
0.735514
0.718685
0.701436
0.683874
0.666092
0.648169
0.630172
0.612159
0.594188
0.576314
0.558592
0.541074
0.523807
0.506836
0.490197
0.473925
0.458048
0.442588
0.427563
0.412988
0.398874
0.385226
0.372048
0.359341
0.347102
0.335326
0.324009
0.313141
0.302712
0.292712
0.283129
0.27395
0.265161
0.256747
0.248695
0.240989
0.233614
0.226555
0.219796
0.213322
0.20712
0.201173
0.195469
0.189995
0.184737
0.179684
0.174826
0.170153
0.165656
0.161328
0.157161
0.153152
0.149295
0.145588
0.142028
0.138616
0.13535
0.132232
0.129264
0.126448
0.123786
0.121282
0.118937
0.116751
0.114719
0.11284
0.111109
0.109522
0.108075
0.106763
0.105581
0.104522
0.10358
0.102747
0.102019
0.101386
0.100842
0.100382
0.0999976
0.099685
0.0994403
0.0992624
0.0991541
0.0991257
0.0991998
0.0994228
0.0998713
0.100635
0.63737
0.282085
0.228299
0.212275
0.20671
0.205673
0.207267
0.210667
0.21542
0.221244
0.227954
0.23543
0.243587
0.252356
0.261682
0.27151
0.281788
0.292468
0.303503
0.31485
0.326466
0.338309
0.350342
0.362527
0.374827
0.387209
0.399641
0.412091
0.424534
0.436943
0.449296
0.461575
0.473764
0.485848
0.497819
0.50967
0.521397
0.532999
0.544478
0.555838
0.567084
0.578225
0.58927
0.60023
0.611116
0.62194
0.632716
0.643454
0.654168
0.664868
0.675565
0.686268
0.696985
0.707723
0.718487
0.729276
0.740073
0.75086
0.761618
0.772328
0.782962
0.793491
0.803877
0.814077
0.824043
0.833719
0.843044
0.85195
0.860366
0.868215
0.875418
0.881894
0.887561
0.892336
0.89614
0.898898
0.900538
0.900997
0.90022
0.898163
0.89479
0.890082
0.884029
0.876636
0.867919
0.857911
0.846658
0.834208
0.820634
0.806022
0.790397
0.774024
0.75696
0.739333
0.721247
0.702804
0.6841
0.665222
0.64625
0.627258
0.608312
0.589478
0.570817
0.552383
0.534228
0.516396
0.498928
0.481858
0.465213
0.449017
0.43329
0.418045
0.403293
0.389039
0.375286
0.362036
0.349285
0.337027
0.325258
0.313967
0.303144
0.292777
0.282855
0.273364
0.264288
0.255614
0.247326
0.239408
0.231845
0.224619
0.217717
0.21112
0.204815
0.198786
0.193017
0.187496
0.182208
0.177141
0.172282
0.167622
0.16315
0.158857
0.154736
0.150779
0.146983
0.143341
0.139852
0.136512
0.13332
0.130276
0.12738
0.124633
0.122035
0.119588
0.117295
0.115153
0.113162
0.111318
0.109617
0.108057
0.106633
0.105339
0.104172
0.103124
0.102191
0.101364
0.100638
0.100005
0.0994592
0.0989935
0.0986018
0.0982788
0.0980205
0.0978247
0.0976925
0.0976303
0.0976534
0.0977917
0.0980916
0.0985988
0.66268
0.287395
0.229258
0.211388
0.204742
0.202874
0.203728
0.20646
0.21064
0.216
0.222353
0.229559
0.237506
0.246109
0.255298
0.265012
0.275203
0.285828
0.296846
0.308222
0.319921
0.331909
0.344152
0.356616
0.369268
0.382074
0.395002
0.408019
0.421096
0.434205
0.447318
0.460413
0.473469
0.486467
0.499395
0.512239
0.524991
0.537647
0.550204
0.562661
0.575021
0.587289
0.599471
0.611574
0.623607
0.63558
0.647503
0.659384
0.671236
0.683065
0.694882
0.706693
0.718504
0.73032
0.742143
0.753969
0.76578
0.777559
0.789284
0.800931
0.812472
0.82387
0.835086
0.846071
0.856771
0.867126
0.877069
0.886528
0.895426
0.903682
0.911214
0.917935
0.923762
0.928609
0.932397
0.935048
0.936493
0.936668
0.935522
0.933012
0.929107
0.923791
0.917063
0.908932
0.899415
0.888554
0.876413
0.863024
0.848471
0.832932
0.816462
0.799189
0.781217
0.762658
0.743619
0.724204
0.704513
0.68464
0.664671
0.644686
0.624762
0.604968
0.585367
0.566019
0.546975
0.528283
0.509983
0.492109
0.474691
0.457752
0.441312
0.425383
0.409977
0.3951
0.380753
0.366938
0.353652
0.340888
0.32864
0.316898
0.305652
0.29489
0.284598
0.274763
0.26537
0.256403
0.247847
0.239685
0.231901
0.224478
0.2174
0.21065
0.204211
0.198068
0.192204
0.186606
0.181258
0.176146
0.171258
0.166582
0.162106
0.157821
0.153718
0.149788
0.146024
0.142423
0.138978
0.135686
0.132544
0.129551
0.126705
0.124007
0.121456
0.119052
0.116797
0.114689
0.112727
0.110909
0.109231
0.107689
0.106281
0.105
0.103842
0.102802
0.101872
0.101048
0.100322
0.0996872
0.0991374
0.0986658
0.0982664
0.0979335
0.0976628
0.0974513
0.0972988
0.0972089
0.0971916
0.0972663
0.0974619
0.0978042
0.668949
0.286207
0.225569
0.206581
0.199394
0.197219
0.197843
0.200363
0.204332
0.209485
0.215635
0.222645
0.230402
0.238823
0.247839
0.257397
0.267455
0.277978
0.288935
0.300297
0.312037
0.324128
0.33654
0.349245
0.36221
0.375406
0.388799
0.402358
0.416051
0.429847
0.443719
0.457639
0.471584
0.485531
0.499462
0.513362
0.527218
0.54102
0.554762
0.568439
0.582051
0.595597
0.60908
0.622505
0.635876
0.649199
0.662481
0.675728
0.688947
0.702145
0.715324
0.72849
0.741645
0.754788
0.767918
0.78102
0.794074
0.807058
0.819947
0.832712
0.845317
0.857721
0.869877
0.881731
0.893223
0.904287
0.914849
0.924833
0.934157
0.942736
0.950484
0.957315
0.963144
0.967886
0.971462
0.973799
0.97483
0.974497
0.972754
0.969565
0.964904
0.958761
0.951153
0.942093
0.931596
0.919699
0.906546
0.892178
0.876681
0.860166
0.84273
0.824486
0.805541
0.786008
0.765994
0.745607
0.724947
0.704111
0.683191
0.66227
0.641428
0.620736
0.600261
0.580062
0.560192
0.540699
0.521624
0.503001
0.48486
0.467224
0.450113
0.433539
0.417514
0.402043
0.387129
0.372771
0.358967
0.345712
0.332996
0.320812
0.309149
0.297993
0.287333
0.277153
0.267438
0.258174
0.249343
0.240929
0.232915
0.225284
0.218019
0.211103
0.204518
0.198248
0.192277
0.186589
0.181167
0.175998
0.171067
0.166361
0.161869
0.157578
0.153478
0.149561
0.145819
0.142244
0.138831
0.135575
0.132472
0.129519
0.126714
0.124056
0.121543
0.119176
0.116953
0.114874
0.112939
0.111143
0.109484
0.107959
0.106563
0.105293
0.104144
0.103109
0.102184
0.101361
0.100635
0.0999982
0.0994447
0.0989678
0.0985613
0.0982197
0.0979381
0.0977131
0.0975434
0.0974304
0.0973805
0.0974064
0.0975263
0.097757
0.660575
0.280594
0.219093
0.199568
0.192163
0.189936
0.190559
0.193066
0.196981
0.202033
0.208041
0.214873
0.222432
0.230641
0.239444
0.248798
0.25867
0.269036
0.279872
0.291159
0.302877
0.315004
0.327517
0.340392
0.353602
0.367117
0.380909
0.394946
0.409197
0.423632
0.438222
0.452937
0.467752
0.482643
0.497589
0.512569
0.527569
0.542574
0.557575
0.572563
0.587532
0.602479
0.617401
0.632299
0.647173
0.662024
0.676854
0.691667
0.706462
0.721242
0.736005
0.75075
0.765474
0.780169
0.794828
0.809418
0.823915
0.838288
0.852506
0.866531
0.880318
0.893819
0.906979
0.919736
0.932022
0.943765
0.954886
0.965304
0.974931
0.983679
0.991464
0.9982
1.0038
1.0082
1.01131
1.01307
1.01342
1.01231
1.00971
1.00559
0.999929
0.992714
0.984019
0.973861
0.962277
0.949328
0.935102
0.919677
0.903145
0.885608
0.867171
0.847942
0.828033
0.807553
0.786612
0.765316
0.743767
0.722062
0.700292
0.678544
0.656896
0.635422
0.614186
0.59325
0.572665
0.552478
0.532731
0.513457
0.494686
0.476441
0.45874
0.441597
0.425023
0.409022
0.393599
0.378753
0.36448
0.350775
0.337631
0.325038
0.312986
0.301463
0.290455
0.279948
0.269927
0.260377
0.251281
0.242622
0.234383
0.226548
0.219098
0.212016
0.205285
0.198888
0.192806
0.187024
0.181525
0.176294
0.171316
0.166576
0.162062
0.15776
0.153659
0.14975
0.146024
0.142471
0.139085
0.13586
0.132791
0.129874
0.127106
0.124485
0.122008
0.119675
0.117484
0.115434
0.113524
0.111751
0.110112
0.108603
0.107222
0.105964
0.104823
0.103795
0.102874
0.102054
0.101329
0.100691
0.100135
0.099654
0.0992419
0.098893
0.0986023
0.0983659
0.0981816
0.0980496
0.0979734
0.0979613
0.0980251
0.0981774
0.641064
0.272019
0.211089
0.191508
0.184091
0.181921
0.182614
0.185161
0.189061
0.194035
0.199904
0.206549
0.213882
0.221844
0.230389
0.239488
0.249118
0.259265
0.269914
0.281055
0.292674
0.304757
0.317288
0.330248
0.343614
0.357364
0.371471
0.385906
0.400642
0.41565
0.4309
0.446366
0.462019
0.477836
0.493791
0.509865
0.526039
0.542294
0.558618
0.574997
0.591421
0.607883
0.624373
0.640888
0.657422
0.67397
0.690529
0.707094
0.723661
0.740224
0.756775
0.773306
0.789805
0.806256
0.822641
0.838904
0.85501
0.870919
0.886587
0.901966
0.917001
0.931633
0.945795
0.959418
0.972427
0.984742
0.996281
1.00696
1.01668
1.02536
1.03292
1.03927
1.04435
1.04808
1.05041
1.05126
1.05061
1.0484
1.04464
1.03931
1.03242
1.02399
1.01405
1.00266
0.989863
0.975738
0.960364
0.94383
0.92623
0.907668
0.888248
0.868078
0.847268
0.825927
0.804161
0.782075
0.759767
0.737335
0.714866
0.692445
0.670149
0.648049
0.62621
0.604689
0.583539
0.562804
0.542524
0.522732
0.503457
0.484722
0.466544
0.448937
0.431912
0.415473
0.399625
0.384366
0.369694
0.355604
0.342089
0.32914
0.316747
0.304897
0.293578
0.282777
0.272479
0.262667
0.253327
0.244442
0.235994
0.227967
0.220344
0.213106
0.206235
0.199715
0.193528
0.187656
0.182082
0.176791
0.171767
0.166993
0.162457
0.158144
0.154043
0.150142
0.14643
0.142898
0.139539
0.136345
0.13331
0.130429
0.127699
0.125115
0.122675
0.120377
0.118219
0.1162
0.114317
0.112569
0.110952
0.109462
0.108097
0.106853
0.105723
0.104704
0.10379
0.102974
0.102251
0.101614
0.101058
0.100574
0.100158
0.0998036
0.0995056
0.0992599
0.0990637
0.0989161
0.0988188
0.098777
0.0987987
0.0988945
0.612996
0.261485
0.202381
0.183171
0.175898
0.173829
0.174596
0.177171
0.181038
0.185913
0.191622
0.198052
0.205131
0.212808
0.221053
0.229848
0.239182
0.24905
0.259447
0.270371
0.281815
0.293775
0.306241
0.319202
0.332642
0.346544
0.360886
0.375647
0.390802
0.406325
0.422191
0.438372
0.454844
0.471581
0.488558
0.505754
0.523146
0.540714
0.558441
0.576308
0.594301
0.612404
0.630606
0.648892
0.66725
0.68567
0.704139
0.722644
0.741173
0.759711
0.778243
0.796748
0.815206
0.833589
0.851862
0.869937
0.887767
0.905298
0.922472
0.939225
0.955489
0.971194
0.986261
1.00061
1.01416
1.02683
1.03854
1.0492
1.0587
1.06696
1.07392
1.07951
1.08366
1.08633
1.08747
1.08705
1.08503
1.08142
1.07621
1.06941
1.06105
1.05117
1.03981
1.02704
1.01292
0.997535
0.980965
0.963304
0.944649
0.925102
0.904767
0.883749
0.862153
0.840084
0.817644
0.794932
0.772043
0.749067
0.726088
0.703187
0.680437
0.657905
0.635652
0.613733
0.592198
0.571089
0.550444
0.530295
0.510668
0.491587
0.473068
0.455124
0.437767
0.421001
0.40483
0.389254
0.374271
0.359876
0.346063
0.332824
0.320149
0.308027
0.296447
0.285395
0.274857
0.264818
0.255265
0.246179
0.237545
0.229347
0.221567
0.214187
0.20719
0.200558
0.194274
0.18832
0.182678
0.177333
0.172267
0.167464
0.16291
0.15859
0.15449
0.150599
0.146905
0.143397
0.140067
0.136906
0.133907
0.131064
0.128373
0.125829
0.123429
0.121169
0.119048
0.117062
0.115211
0.113491
0.111899
0.110432
0.109086
0.107858
0.106743
0.105736
0.10483
0.104022
0.103304
0.10267
0.102114
0.10163
0.101212
0.100854
0.100551
0.100298
0.100092
0.099932
0.0998179
0.099753
0.099743
0.0997974
0.578049
0.249658
0.193511
0.175072
0.16809
0.166161
0.166991
0.169565
0.173368
0.178114
0.183635
0.189825
0.196621
0.203986
0.211899
0.220354
0.229351
0.238896
0.248997
0.259652
0.270866
0.282643
0.294985
0.307887
0.321345
0.335347
0.349881
0.36493
0.380476
0.396499
0.412976
0.429885
0.447202
0.464902
0.482961
0.501355
0.52006
0.539051
0.558307
0.577804
0.597519
0.617432
0.63752
0.657761
0.678135
0.698619
0.719191
0.739828
0.760507
0.781202
0.801885
0.822528
0.843097
0.863557
0.883802
0.903749
0.923327
0.942465
0.961086
0.979109
0.996454
1.01303
1.02876
1.04355
1.05731
1.06996
1.08141
1.09159
1.1004
1.10778
1.11367
1.11802
1.12078
1.12194
1.12146
1.11935
1.11559
1.1102
1.10321
1.09466
1.08458
1.07304
1.0601
1.04582
1.03029
1.0136
0.995821
0.977058
0.957406
0.936963
0.915828
0.894101
0.871879
0.84926
0.826338
0.803204
0.779945
0.756643
0.733377
0.710219
0.687236
0.66449
0.642038
0.619931
0.598213
0.576925
0.556102
0.535774
0.515966
0.496699
0.477991
0.459854
0.442298
0.42533
0.408953
0.393167
0.377972
0.363364
0.349337
0.335884
0.322998
0.310668
0.298883
0.287631
0.2769
0.266677
0.256946
0.247692
0.238901
0.230556
0.222641
0.215138
0.208031
0.201302
0.194934
0.188908
0.183209
0.177817
0.172716
0.167891
0.163324
0.159002
0.154909
0.151033
0.14736
0.14388
0.140583
0.137459
0.1345
0.1317
0.129052
0.126552
0.124194
0.121977
0.119896
0.117949
0.116133
0.114445
0.112882
0.111442
0.11012
0.108912
0.107814
0.106821
0.105928
0.10513
0.104419
0.103791
0.103239
0.102756
0.102338
0.101978
0.101671
0.101413
0.1012
0.101031
0.100904
0.100821
0.100787
0.100811
0.536779
0.237149
0.184919
0.167615
0.161075
0.159342
0.160242
0.162802
0.166521
0.171121
0.176438
0.182377
0.188882
0.195926
0.203499
0.211604
0.220253
0.229459
0.239239
0.249608
0.260581
0.272172
0.28439
0.297242
0.310732
0.32486
0.339619
0.355003
0.371001
0.387597
0.404776
0.422517
0.440799
0.459599
0.478893
0.498652
0.518851
0.539461
0.560451
0.581791
0.603451
0.625397
0.647597
0.670018
0.692624
0.715382
0.738256
0.761209
0.784204
0.807203
0.830163
0.853044
0.875795
0.898357
0.920552
0.942293
0.963489
0.984048
1.00387
1.02287
1.04095
1.05801
1.07396
1.0887
1.10215
1.11423
1.12485
1.13395
1.14147
1.14736
1.15158
1.15411
1.15492
1.15403
1.15143
1.14715
1.14122
1.13368
1.12459
1.114
1.10197
1.08859
1.07392
1.05806
1.04108
1.02307
1.00413
0.984343
0.963802
0.9426
0.920826
0.898572
0.875925
0.85297
0.829792
0.80647
0.78308
0.759695
0.736383
0.713209
0.690232
0.667507
0.645084
0.623009
0.601323
0.580062
0.559258
0.538938
0.519128
0.499846
0.481109
0.462929
0.445317
0.428279
0.411819
0.395939
0.380638
0.365915
0.351766
0.338183
0.325162
0.312693
0.300766
0.289373
0.2785
0.268137
0.25827
0.248886
0.23997
0.231507
0.223482
0.215879
0.208682
0.201873
0.195435
0.189351
0.183604
0.178176
0.17305
0.168209
0.163638
0.159319
0.155239
0.151383
0.147737
0.14429
0.141031
0.137948
0.135034
0.132281
0.129681
0.127229
0.12492
0.122749
0.120713
0.118809
0.117033
0.115382
0.113853
0.112443
0.111149
0.109965
0.108889
0.107914
0.107037
0.106251
0.10555
0.10493
0.104384
0.103905
0.103489
0.103129
0.102821
0.10256
0.102342
0.102165
0.102028
0.101932
0.10188
0.101881
0.495962
0.226678
0.177657
0.161406
0.155318
0.153776
0.15473
0.157254
0.160868
0.165307
0.170417
0.17611
0.18234
0.189088
0.196355
0.204153
0.212504
0.221431
0.230963
0.241127
0.25195
0.263455
0.275664
0.288595
0.302262
0.316674
0.331836
0.34775
0.364411
0.381811
0.399939
0.418777
0.438306
0.458502
0.479337
0.500782
0.522801
0.545358
0.568413
0.591925
0.615849
0.640138
0.664745
0.689619
0.71471
0.739965
0.765333
0.790759
0.816191
0.841575
0.866855
0.891977
0.916884
0.941356
0.965262
0.988486
1.01092
1.03245
1.05297
1.07237
1.09054
1.1074
1.12284
1.13678
1.14914
1.15984
1.16884
1.17608
1.18153
1.18516
1.18698
1.18698
1.18519
1.18164
1.17638
1.16945
1.16092
1.15087
1.13937
1.1265
1.11235
1.097
1.08054
1.06306
1.04466
1.02541
1.0054
0.984727
0.96346
0.941684
0.919477
0.896917
0.874077
0.85103
0.827843
0.804585
0.781318
0.758102
0.734996
0.712054
0.689324
0.666856
0.644691
0.622871
0.601429
0.5804
0.559811
0.539688
0.520053
0.500925
0.482319
0.464247
0.446721
0.429746
0.413329
0.397471
0.382174
0.367438
0.353259
0.339633
0.326556
0.31402
0.302019
0.290544
0.279584
0.269131
0.259173
0.249697
0.240691
0.232142
0.224035
0.216356
0.209089
0.202219
0.195728
0.1896
0.183818
0.178365
0.173224
0.168377
0.163808
0.159501
0.15544
0.15161
0.147997
0.144588
0.141372
0.138336
0.135472
0.13277
0.130223
0.127825
0.125569
0.12345
0.121464
0.119607
0.117875
0.116266
0.114776
0.113401
0.112138
0.110983
0.109932
0.108979
0.108121
0.10735
0.106663
0.106053
0.105515
0.105043
0.104631
0.104273
0.103965
0.103703
0.103482
0.1033
0.103156
0.103051
0.102986
0.10297
0.449938
0.216019
0.171158
0.156238
0.150736
0.149464
0.15052
0.153042
0.156584
0.160902
0.165857
0.171373
0.177415
0.183976
0.191065
0.198708
0.206934
0.215782
0.225289
0.235497
0.246443
0.258164
0.270694
0.284062
0.298294
0.313409
0.329422
0.34634
0.364167
0.382899
0.402526
0.423031
0.444391
0.466578
0.489557
0.513287
0.537721
0.562808
0.588491
0.614711
0.641403
0.668498
0.695928
0.72362
0.751502
0.7795
0.807541
0.835552
0.863462
0.8912
0.918701
0.945899
0.972545
0.998433
1.02344
1.04743
1.07029
1.09189
1.11214
1.1309
1.1481
1.16363
1.17742
1.1894
1.1995
1.20769
1.21394
1.21824
1.22058
1.22099
1.21949
1.21613
1.21098
1.2041
1.19558
1.18549
1.17395
1.16103
1.14686
1.13152
1.11511
1.09773
1.07947
1.06043
1.04069
1.02032
0.999414
0.978033
0.956247
0.934123
0.911723
0.889107
0.86633
0.84345
0.820517
0.797584
0.774699
0.75191
0.72926
0.706794
0.684552
0.662571
0.640889
0.619538
0.598549
0.57795
0.557767
0.538022
0.518735
0.499925
0.481605
0.463789
0.446487
0.429707
0.413454
0.397734
0.382548
0.367897
0.353781
0.340198
0.327144
0.314615
0.302605
0.291108
0.280117
0.269624
0.259618
0.250091
0.241032
0.232428
0.224267
0.216537
0.209223
0.20231
0.195783
0.189626
0.183823
0.178356
0.173209