/*--------------------------------*- C++ -*----------------------------------*\
  =========                 |
  \\      /  F ield         | OpenFOAM: The Open Source CFD Toolbox
   \\    /   O peration     | Website:  https://openfoam.org
    \\  /    A nd           | Version:  6
     \\/     M anipulation  |
\*---------------------------------------------------------------------------*/
FoamFile
{
    version     2.0;
    format      ascii;
    class       volScalarField;
    location    "0.25";
    object      k;
}
// * * * * * * * * * * * * * * * * * * * * * * * * * * * * * * * * * * * * * //

dimensions      [0 2 -2 0 0 0 0];

internalField   nonuniform List<scalar> 
12225
(
0.24644
0.158838
0.119006
0.0971987
0.0837154
0.0747282
0.0683428
0.0635305
0.0597237
0.0566011
0.0539718
0.0517149
0.0497494
0.0480179
0.0464779
0.045098
0.043853
0.0427919
0.339526
0.260133
0.208256
0.175289
0.153264
0.137673
0.125997
0.116827
0.109367
0.103145
0.0978582
0.0932994
0.0893217
0.0858164
0.082703
0.0799133
0.0774266
0.0751733
0.347498
0.292336
0.248511
0.216196
0.19223
0.174048
0.159851
0.148442
0.139045
0.131152
0.124414
0.118589
0.113497
0.109005
0.105011
0.101435
0.098233
0.0953786
0.35137
0.309034
0.271887
0.241925
0.218145
0.199188
0.183865
0.171265
0.160732
0.151794
0.144114
0.137442
0.131589
0.126412
0.121802
0.117672
0.113966
0.110678
0.353917
0.319266
0.287201
0.259825
0.237044
0.218189
0.202508
0.189339
0.178161
0.16857
0.160261
0.152997
0.146595
0.140913
0.135839
0.131284
0.127192
0.123564
0.355677
0.326032
0.297871
0.27292
0.251435
0.233128
0.217539
0.204203
0.192718
0.182755
0.174047
0.166382
0.159591
0.153538
0.148113
0.143232
0.138839
0.13494
0.356917
0.33071
0.305573
0.282767
0.262639
0.245097
0.229867
0.216628
0.205077
0.19495
0.186022
0.178109
0.171058
0.164744
0.159064
0.153939
0.149316
0.145204
0.357802
0.334027
0.311241
0.290281
0.271456
0.254765
0.240045
0.227075
0.215628
0.205493
0.196486
0.188448
0.181245
0.174764
0.168911
0.163612
0.158822
0.154549
0.358433
0.336404
0.315446
0.296042
0.278415
0.262585
0.24845
0.235854
0.224627
0.2146
0.205623
0.197559
0.190294
0.183726
0.17777
0.172362
0.16746
0.163074
0.358881
0.338106
0.31856
0.300449
0.283887
0.26888
0.255354
0.243192
0.232259
0.222423
0.213557
0.205547
0.198293
0.191705
0.185709
0.180247
0.175282
0.170826
0.359195
0.339315
0.320847
0.303788
0.288149
0.2739
0.260972
0.249266
0.238672
0.229081
0.220386
0.212489
0.205303
0.198751
0.192767
0.187297
0.182313
0.177825
0.359394
0.340091
0.322364
0.306074
0.291148
0.277518
0.265105
0.253814
0.243548
0.23421
0.225707
0.217954
0.210872
0.204393
0.198457
0.193018
0.188049
0.183564
0.359535
0.340651
0.323488
0.307814
0.293487
0.280401
0.268457
0.257561
0.247619
0.238544
0.23025
0.222661
0.215707
0.209325
0.203463
0.198078
0.193148
0.188686
0.359643
0.341084
0.324385
0.309247
0.295469
0.282903
0.27143
0.260946
0.251357
0.242578
0.234531
0.227145
0.220356
0.214108
0.208353
0.203054
0.198192
0.193777
0.359719
0.341392
0.325041
0.31033
0.297014
0.28491
0.273875
0.263791
0.254559
0.246093
0.238316
0.23116
0.224567
0.218484
0.212868
0.207685
0.202917
0.198575
0.359767
0.341588
0.325471
0.311064
0.298098
0.286362
0.275695
0.265963
0.257058
0.248889
0.241378
0.234459
0.228073
0.222171
0.216711
0.211663
0.20701
0.20276
0.359793
0.341696
0.325715
0.311494
0.298752
0.287268
0.276864
0.267397
0.258748
0.250821
0.243535
0.236821
0.230622
0.224887
0.219576
0.21466
0.210121
0.205967
0.359804
0.341741
0.325817
0.311679
0.299043
0.287683
0.277414
0.268087
0.259581
0.251793
0.244641
0.238052
0.23197
0.226342
0.22113
0.216302
0.211842
0.207754
0.359801
0.341729
0.32579
0.311631
0.298969
0.28758
0.27728
0.267922
0.259386
0.25157
0.244392
0.237781
0.231678
0.226034
0.220807
0.215967
0.211497
0.207399
0.359775
0.341622
0.325547
0.3112
0.298307
0.286657
0.27608
0.266441
0.257628
0.24955
0.242125
0.235288
0.228979
0.223149
0.217757
0.21277
0.208171
0.203963
0.359715
0.341376
0.32501
0.310283
0.296954
0.284842
0.273804
0.263722
0.254496
0.24604
0.238277
0.231138
0.224565
0.218505
0.212913
0.207754
0.203008
0.198678
0.359586
0.340852
0.323905
0.308483
0.294416
0.281579
0.269862
0.259168
0.249404
0.240481
0.23232
0.224846
0.217992
0.211699
0.205914
0.200596
0.195722
0.191294
0.359329
0.339835
0.321861
0.305316
0.290154
0.276321
0.26374
0.252318
0.241954
0.232546
0.223997
0.216218
0.209127
0.202653
0.196733
0.191317
0.186374
0.181906
0.35886
0.338009
0.318374
0.30018
0.28355
0.268492
0.254931
0.24275
0.231811
0.221981
0.21313
0.205144
0.19792
0.191369
0.185415
0.179997
0.175075
0.170649
0.358051
0.334911
0.312756
0.292315
0.273874
0.257449
0.242905
0.230046
0.218666
0.20857
0.199583
0.191555
0.184355
0.177876
0.172026
0.166733
0.161946
0.157663
0.356707
0.329803
0.303977
0.280638
0.260137
0.242358
0.226996
0.2137
0.202145
0.192049
0.183178
0.17534
0.168376
0.162156
0.156577
0.151555
0.147034
0.143005
0.354518
0.321336
0.290244
0.263373
0.240786
0.22195
0.2062
0.192927
0.181637
0.171939
0.163534
0.156188
0.149718
0.143983
0.138868
0.134284
0.13017
0.126515
0.350901
0.3066
0.26792
0.237106
0.212944
0.193893
0.178636
0.166185
0.15584
0.147108
0.139636
0.133169
0.127515
0.122531
0.118106
0.114153
0.110612
0.107467
0.342446
0.275934
0.227262
0.193528
0.16982
0.152602
0.139576
0.129331
0.121012
0.114093
0.10823
0.103188
0.0988013
0.0949469
0.0915329
0.0884886
0.0857613
0.0833292
0.259302
0.173114
0.131362
0.107433
0.0921496
0.0817516
0.0743215
0.0687601
0.0644192
0.0609104
0.0579947
0.0555193
0.0533831
0.0515159
0.0498674
0.0484003
0.0470862
0.0459075
0.000995726
0.00175563
0.0020687
0.00218864
0.00226873
0.00239672
0.00256014
0.00276133
0.0030068
0.00333311
0.00366626
0.00402222
0.00440311
0.00480673
0.00522889
0.00566461
0.00610893
0.00655739
0.0070062
0.00745224
0.00789304
0.00832668
0.00875175
0.00916725
0.00957254
0.00996731
0.0103515
0.0107252
0.0110889
0.0114428
0.0117876
0.0121239
0.0124523
0.0127734
0.0130879
0.0133965
0.0136996
0.0139979
0.0142917
0.0145817
0.0148682
0.0151514
0.0154318
0.0157095
0.0159848
0.0162578
0.0165288
0.0167978
0.0170651
0.017331
0.0175959
0.0178604
0.0181254
0.0183923
0.0186632
0.0189388
0.0192102
0.0194773
0.0197401
0.0199979
0.0202501
0.0204959
0.0207343
0.0209644
0.0211852
0.0213955
0.0215943
0.0217803
0.0219524
0.0221093
0.0222499
0.0223729
0.0224773
0.0225618
0.0226254
0.0226672
0.0226863
0.022682
0.0226535
0.0226005
0.0225225
0.0224195
0.0222914
0.0221384
0.0219609
0.0217594
0.0215345
0.0212872
0.0210184
0.0207293
0.020421
0.0200951
0.0197529
0.019396
0.0190265
0.0186481
0.0182688
0.0179108
0.017611
0.0173581
0.0171094
0.016858
0.0166032
0.0163457
0.0160861
0.0158254
0.0155644
0.0153038
0.0150444
0.0147869
0.014532
0.0142801
0.0140319
0.0137877
0.0135479
0.0133129
0.013083
0.0128583
0.012639
0.0124253
0.0122172
0.0120147
0.0118178
0.0116265
0.0114405
0.0112598
0.0110842
0.0109134
0.0107473
0.0105854
0.0104275
0.0102734
0.0101226
0.00997477
0.00982965
0.00968688
0.00954613
0.00940712
0.00926958
0.00913329
0.00899805
0.00886373
0.00873025
0.00859756
0.00846567
0.00833457
0.00820427
0.0080747
0.00794578
0.00781775
0.00769189
0.0075714
0.00745716
0.007349
0.00724693
0.00715096
0.0070611
0.00697737
0.00689975
0.00682817
0.00676254
0.00670271
0.00664849
0.00659963
0.00655583
0.00651674
0.00648197
0.00645108
0.00642359
0.00639897
0.00637662
0.00635586
0.00633586
0.00631558
0.0062936
0.00626777
0.00623477
0.0061881
0.00611836
0.00600255
0.00196019
0.00377928
0.0048118
0.0055999
0.0062213
0.00676761
0.00734981
0.00798567
0.00864079
0.00927591
0.00987374
0.0104444
0.0110022
0.0115589
0.0121224
0.012698
0.0132888
0.0138961
0.0145198
0.0151587
0.0158105
0.0164723
0.0171408
0.0178126
0.0184841
0.0191523
0.0198147
0.020469
0.0211136
0.0217476
0.0223701
0.0229812
0.0235808
0.0241695
0.0247478
0.0253164
0.0258764
0.0264284
0.0269736
0.0275127
0.0280467
0.0285764
0.0291025
0.0296259
0.0301471
0.0306667
0.0311852
0.0317029
0.0322201
0.0327371
0.0332538
0.0337704
0.0342867
0.0348024
0.0353173
0.0358277
0.0363367
0.0368443
0.0373501
0.0378532
0.0383524
0.0388465
0.039334
0.0398133
0.0402825
0.0407398
0.041183
0.04161
0.0420182
0.0424054
0.042769
0.0431063
0.043415
0.0436923
0.0439357
0.044143
0.0443117
0.0444398
0.0445253
0.0445667
0.0445624
0.0445115
0.0444132
0.044267
0.044073
0.0438314
0.0435429
0.0432084
0.0428295
0.0424077
0.041945
0.0414437
0.0409064
0.0403358
0.0397355
0.0391093
0.0384621
0.0378043
0.0371543
0.0365011
0.0358405
0.0351726
0.0344992
0.0338225
0.0331445
0.0324672
0.0317925
0.0311222
0.0304578
0.0298007
0.0291524
0.0285138
0.027886
0.0272699
0.0266662
0.0260754
0.0254981
0.0249347
0.0243853
0.0238501
0.0233292
0.0228226
0.0223301
0.0218515
0.0213866
0.020935
0.0204964
0.0200702
0.0196559
0.0192531
0.0188611
0.0184793
0.0181072
0.0177442
0.0173896
0.0170429
0.0167036
0.0163712
0.0160453
0.0157255
0.0154116
0.0151035
0.014801
0.0145041
0.0142131
0.013928
0.0136492
0.013377
0.0131121
0.0128549
0.0126061
0.0123657
0.0121364
0.0119214
0.0117206
0.0115335
0.0113598
0.0111993
0.0110515
0.0109163
0.0107932
0.0106817
0.0105815
0.010492
0.0104124
0.0103422
0.0102805
0.0102267
0.0101798
0.010139
0.0101035
0.0100721
0.0100438
0.0100175
0.00999157
0.00996439
0.00993296
0.0098967
0.0098408
0.00985705
0.00306438
0.00610757
0.00755261
0.00847962
0.00919105
0.00984492
0.0105115
0.0112015
0.0118947
0.0125712
0.0132285
0.0138784
0.0145371
0.0152179
0.0159296
0.0166765
0.0174588
0.0182738
0.019117
0.0199821
0.0208625
0.0217514
0.0226424
0.0235297
0.0244084
0.0252746
0.0261253
0.0269585
0.0277729
0.0285679
0.0293435
0.0301
0.0308381
0.0315588
0.032263
0.0329521
0.033627
0.0342892
0.0349398
0.03558
0.036211
0.0368339
0.0374498
0.0380598
0.0386647
0.0392656
0.0398633
0.0404586
0.0410523
0.0416449
0.0422372
0.0428294
0.0434221
0.0440153
0.0446094
0.045204
0.0457986
0.0463928
0.0469857
0.0475763
0.0481635
0.0487458
0.0493217
0.0498893
0.0504467
0.0509915
0.0515212
0.0520333
0.0525248
0.0529928
0.0534342
0.0538457
0.0542242
0.0545662
0.0548686
0.0551283
0.0553422
0.0555074
0.0556215
0.0556821
0.0556873
0.0556355
0.0555255
0.0553565
0.0551285
0.0548414
0.0544959
0.0540932
0.0536348
0.0531226
0.0525591
0.0519469
0.0512891
0.0505891
0.0498509
0.0490787
0.048279
0.0474702
0.0466513
0.0458207
0.0449787
0.0441273
0.043269
0.0424066
0.0415426
0.0406798
0.0398205
0.0389668
0.038121
0.0372846
0.0364595
0.0356471
0.0348485
0.034065
0.0332974
0.0325464
0.0318127
0.0310968
0.030399
0.0297194
0.0290583
0.0284154
0.0277908
0.0271842
0.0265952
0.0260235
0.0254686
0.0249299
0.0244068
0.0238988
0.023405
0.0229248
0.0224574
0.0220022
0.0215583
0.0211252
0.020702
0.0202883
0.0198834
0.019487
0.0190987
0.0187181
0.0183451
0.0179798
0.0176221
0.0172722
0.0169304
0.0165972
0.0162731
0.0159586
0.0156543
0.0153608
0.0150791
0.0148103
0.0145573
0.0143201
0.014099
0.0138937
0.0137044
0.0135306
0.0133721
0.0132285
0.0130992
0.0129836
0.0128809
0.0127903
0.0127109
0.0126415
0.0125813
0.0125291
0.0124838
0.012444
0.0124086
0.0123761
0.0123447
0.0123125
0.0122763
0.0122334
0.0121729
0.0121215
0.00404953
0.00812137
0.0098277
0.0108565
0.0116104
0.0122623
0.0128965
0.0135444
0.0142102
0.0148921
0.0155936
0.0163231
0.0170899
0.0179001
0.018756
0.0196555
0.0205939
0.0215646
0.0225598
0.0235716
0.0245925
0.0256154
0.0266343
0.027644
0.0286403
0.0296202
0.0305812
0.0315218
0.0324411
0.0333387
0.0342146
0.0350692
0.0359031
0.0367172
0.0375124
0.0382897
0.0390503
0.0397953
0.040526
0.0412435
0.041949
0.0426438
0.043329
0.0440057
0.0446752
0.0453384
0.0459965
0.0466503
0.0473009
0.0479491
0.0485956
0.049241
0.0498859
0.0505305
0.0511752
0.0518204
0.0524656
0.0531103
0.0537538
0.0543952
0.0550334
0.055667
0.0562944
0.0569137
0.0575228
0.0581193
0.0587006
0.0592636
0.0598053
0.0603223
0.0608111
0.061268
0.0616893
0.0620713
0.0624102
0.0627023
0.0629441
0.0631321
0.0632635
0.0633353
0.0633453
0.0632913
0.0631721
0.0629865
0.0627341
0.0624149
0.0620296
0.0615792
0.0610655
0.0604905
0.0598568
0.0591674
0.0584257
0.0576353
0.0568005
0.0559278
0.0550317
0.054115
0.0531799
0.0522281
0.051262
0.0502846
0.049299
0.0483086
0.0473164
0.0463254
0.0453384
0.044358
0.0433864
0.0424259
0.0414783
0.0405453
0.0396283
0.0387286
0.0378474
0.0369853
0.0361433
0.0353219
0.0345213
0.033742
0.0329841
0.0322474
0.031532
0.0308376
0.0301638
0.0295102
0.0288764
0.0282617
0.0276654
0.0270869
0.0265254
0.0259801
0.0254502
0.0249349
0.0244332
0.0239446
0.0234681
0.023003
0.0225488
0.0221049
0.0216707
0.0212459
0.0208304
0.0204238
0.0200264
0.019638
0.0192591
0.01889
0.0185311
0.018183
0.0178463
0.0175217
0.01721
0.016912
0.0166294
0.0163635
0.0161145
0.0158827
0.015668
0.0154704
0.0152896
0.0151253
0.0149769
0.0148438
0.0147252
0.0146203
0.014528
0.0144473
0.0143771
0.0143163
0.0142634
0.0142174
0.0141767
0.0141401
0.0141058
0.014072
0.0140363
0.0139964
0.0139465
0.0138975
0.00480446
0.00947934
0.0114535
0.012623
0.0134377
0.0140982
0.014712
0.0153339
0.0159889
0.0166879
0.0174365
0.0182387
0.0190959
0.020007
0.0209679
0.0219725
0.0230134
0.0240826
0.025172
0.0262741
0.0273822
0.0284901
0.0295928
0.030686
0.031766
0.0328303
0.0338766
0.0349033
0.0359096
0.0368946
0.0378582
0.0388003
0.0397211
0.0406212
0.0415011
0.0423616
0.0432035
0.0440277
0.0448353
0.0456274
0.046405
0.0471693
0.0479214
0.0486626
0.0493939
0.0501165
0.0508314
0.0515399
0.0522427
0.052941
0.0536354
0.0543268
0.0550157
0.0557026
0.056388
0.0570727
0.0577566
0.0584392
0.05912
0.0597985
0.0604734
0.0611437
0.0618077
0.0624635
0.063109
0.0637417
0.0643588
0.0649572
0.0655335
0.0660843
0.0666056
0.0670936
0.0675441
0.067953
0.0683162
0.0686296
0.0688892
0.0690914
0.0692327
0.0693099
0.0693204
0.0692618
0.0691326
0.0689314
0.0686576
0.0683112
0.0678927
0.0674033
0.0668447
0.0662191
0.0655292
0.0647783
0.0639695
0.0631068
0.0621994
0.0612561
0.0602818
0.0592804
0.0582554
0.0572102
0.0561483
0.0550734
0.0539891
0.0528992
0.0518071
0.0507162
0.0496294
0.0485498
0.0474797
0.0464217
0.0453778
0.0443499
0.0433396
0.0423483
0.0413773
0.0404275
0.0394999
0.038595
0.0377133
0.0368551
0.0360207
0.0352101
0.0344231
0.0336596
0.0329192
0.0322016
0.0315062
0.0308323
0.0301794
0.0295467
0.0289333
0.0283384
0.0277612
0.0272008
0.0266561
0.0261265
0.025611
0.0251088
0.0246192
0.0241414
0.0236751
0.0232196
0.0227747
0.0223401
0.0219157
0.0215015
0.0210978
0.0207048
0.020323
0.0199527
0.0195947
0.0192496
0.0189181
0.018601
0.0182991
0.0180143
0.0177468
0.017497
0.0172651
0.0170509
0.0168545
0.0166754
0.0165132
0.0163672
0.0162368
0.016121
0.0160189
0.0159294
0.0158513
0.0157834
0.0157244
0.0156731
0.015628
0.0155877
0.0155507
0.0155154
0.0154797
0.0154417
0.0153984
0.0153571
0.00528111
0.0103073
0.0124923
0.0137962
0.0146954
0.0154034
0.0160415
0.0166793
0.0173548
0.0180868
0.0188825
0.019743
0.0206654
0.0216443
0.0226727
0.0237428
0.0248465
0.0259762
0.0271245
0.028285
0.0294518
0.0306197
0.0317845
0.0329422
0.0340898
0.0352246
0.0363442
0.0374471
0.0385317
0.0395971
0.0406424
0.0416672
0.0426713
0.0436546
0.0446172
0.0455596
0.0464822
0.0473856
0.0482707
0.0491381
0.0499889
0.0508241
0.0516446
0.0524515
0.053246
0.0540291
0.0548019
0.0555655
0.0563209
0.057069
0.0578107
0.0585469
0.0592782
0.0600053
0.0607288
0.0614495
0.0621676
0.0628831
0.0635956
0.0643047
0.0650094
0.0657086
0.0664009
0.0670844
0.0677569
0.068416
0.0690587
0.069682
0.0702822
0.0708558
0.0713987
0.0719068
0.0723757
0.072801
0.0731784
0.0735036
0.0737722
0.0739803
0.0741243
0.0742006
0.0742065
0.0741394
0.0739974
0.0737792
0.073484
0.0731118
0.072663
0.0721388
0.071541
0.0708718
0.0701338
0.0693312
0.0684657
0.0675502
0.0665883
0.0655855
0.0645468
0.0634767
0.0623795
0.0612596
0.060121
0.0589679
0.0578044
0.0566344
0.0554618
0.0542902
0.0531227
0.0519625
0.0508125
0.0496751
0.0485526
0.0474471
0.0463604
0.045294
0.0442493
0.0432274
0.0422292
0.0412556
0.0403069
0.0393837
0.0384862
0.0376145
0.0367685
0.0359481
0.035153
0.0343828
0.033637
0.0329149
0.032216
0.0315394
0.0308843
0.0302498
0.0296351
0.0290391
0.028461
0.0278997
0.0273543
0.026824
0.026308
0.0258054
0.0253156
0.024838
0.0243723
0.023918
0.0234749
0.0230431
0.0226226
0.0222136
0.0218164
0.0214314
0.0210592
0.0207004
0.0203556
0.0200256
0.0197111
0.0194135
0.0191334
0.0188712
0.0186271
0.0184012
0.0181935
0.0180036
0.0178311
0.0176756
0.0175361
0.017412
0.0173021
0.0172056
0.0171211
0.0170474
0.0169833
0.0169275
0.0168786
0.0168351
0.0167956
0.0167585
0.0167222
0.016685
0.0166452
0.0166092
0.00557295
0.0107326
0.0130532
0.0144692
0.0154628
0.0162469
0.016945
0.0176318
0.0183513
0.0191263
0.019966
0.0208712
0.0218378
0.0228595
0.0239286
0.0250375
0.0261787
0.0273454
0.0285313
0.0297309
0.0309392
0.0321519
0.033365
0.0345752
0.0357793
0.0369746
0.0381588
0.0393299
0.0404859
0.0416255
0.0427473
0.0438505
0.0449342
0.0459979
0.0470414
0.0480645
0.0490673
0.0500502
0.0510134
0.0519576
0.0528834
0.0537915
0.0546829
0.0555583
0.0564189
0.0572655
0.0580991
0.0589207
0.0597314
0.060532
0.0613234
0.0621065
0.062882
0.0636507
0.064413
0.0651698
0.0659216
0.0666686
0.0674106
0.0681474
0.0688782
0.0696019
0.0703173
0.0710224
0.0717153
0.0723933
0.0730537
0.0736933
0.0743084
0.0748954
0.0754501
0.0759682
0.0764455
0.0768773
0.0772591
0.0775865
0.077855
0.0780606
0.0781993
0.0782678
0.0782629
0.0781821
0.0780234
0.0777854
0.0774672
0.0770688
0.0765907
0.0760339
0.0754004
0.0746928
0.0739117
0.0730677
0.0721633
0.0712046
0.0701966
0.0691443
0.068053
0.0669274
0.0657725
0.0645927
0.0633928
0.0621772
0.0609502
0.0597161
0.0584788
0.0572421
0.0560094
0.0547841
0.053569
0.052367
0.0511804
0.0500114
0.048862
0.0477338
0.0466283
0.0455467
0.0444901
0.0434593
0.0424549
0.0414775
0.0405274
0.0396048
0.0387096
0.0378418
0.0370011
0.0361871
0.0353995
0.0346375
0.0339006
0.033188
0.0324989
0.0318324
0.0311875
0.0305632
0.0299586
0.0293726
0.0288043
0.0282528
0.027717
0.0271961
0.0266894
0.0261962
0.025716
0.0252483
0.0247928
0.0243494
0.023918
0.0234988
0.0230919
0.0226977
0.0223166
0.0219493
0.0215962
0.0212582
0.0209357
0.0206298
0.0203415
0.020071
0.0198187
0.0195847
0.019369
0.0191714
0.0189915
0.0188287
0.0186825
0.0185519
0.0184361
0.0183339
0.0182443
0.0181659
0.0180977
0.0180381
0.0179858
0.0179396
0.0178978
0.0178591
0.0178219
0.0177848
0.017747
0.0177142
0.00572029
0.0108651
0.0132586
0.0147592
0.0158425
0.0167126
0.0174871
0.0182393
0.0190137
0.019835
0.020714
0.0216528
0.0226485
0.0236954
0.0247872
0.0259171
0.027079
0.028267
0.0294759
0.0307013
0.0319387
0.0331845
0.0344352
0.0356874
0.0369384
0.0381852
0.0394253
0.0406565
0.0418765
0.0430836
0.0442759
0.0454521
0.0466109
0.0477514
0.0488727
0.0499745
0.0510562
0.0521179
0.0531595
0.0541813
0.0551835
0.0561668
0.0571316
0.0580786
0.0590087
0.0599225
0.0608209
0.0617047
0.0625749
0.0634322
0.0642774
0.0651113
0.0659347
0.0667481
0.0675522
0.0683473
0.0691343
0.0699136
0.0706851
0.0714487
0.0722038
0.0729495
0.0736843
0.0744067
0.0751146
0.0758054
0.0764764
0.0771245
0.0777461
0.0783374
0.0788944
0.0794128
0.0798882
0.0803162
0.0806922
0.0810117
0.0812704
0.0814641
0.081589
0.0816417
0.081619
0.0815184
0.081338
0.0810764
0.0807326
0.0803066
0.0797993
0.0792111
0.0785439
0.0778039
0.0769931
0.0761166
0.0751788
0.0741846
0.0731391
0.0720474
0.0709146
0.0697457
0.0685459
0.0673199
0.0660726
0.0648087
0.0635325
0.0622485
0.0609608
0.0596733
0.0583895
0.0571129
0.0558465
0.0545932
0.0533554
0.0521356
0.0509357
0.0497576
0.0486028
0.0474726
0.0463683
0.0452907
0.0442406
0.0432185
0.042225
0.0412602
0.0403242
0.0394171
0.0385386
0.0376884
0.0368662
0.0360713
0.0353033
0.0345613
0.0338445
0.033152
0.032483
0.0318364
0.0312111
0.0306062
0.0300206
0.0294532
0.0289031
0.0283693
0.027851
0.0273474
0.0268579
0.0263818
0.0259189
0.0254688
0.0250314
0.0246066
0.0241946
0.0237957
0.0234102
0.0230385
0.0226813
0.022339
0.0220123
0.021702
0.0214089
0.0211336
0.0208762
0.0206371
0.0204162
0.0202134
0.0200283
0.0198605
0.0197093
0.019574
0.0194537
0.0193472
0.0192536
0.0191715
0.0190998
0.0190372
0.0189822
0.0189335
0.0188898
0.0188496
0.0188115
0.0187743
0.0187376
0.0187069
0.00575685
0.0107937
0.0132142
0.014773
0.0159321
0.0168832
0.0177345
0.018554
0.0193838
0.0202486
0.0211607
0.0221239
0.0231372
0.0241971
0.0252987
0.026437
0.0276071
0.0288046
0.0300252
0.0312653
0.0325213
0.0337898
0.0350678
0.0363523
0.0376403
0.0389291
0.040216
0.0414985
0.0427742
0.0440408
0.0452964
0.0465391
0.0477673
0.0489795
0.0501746
0.0513517
0.05251
0.0536489
0.0547682
0.0558677
0.0569474
0.0580074
0.059048
0.0600696
0.0610726
0.0620576
0.0630252
0.0639759
0.0649104
0.0658294
0.0667334
0.0676231
0.068499
0.0693617
0.0702115
0.0710485
0.0718735
0.0726871
0.0734894
0.0742803
0.0750591
0.075825
0.0765767
0.0773126
0.0780308
0.0787287
0.0794037
0.0800527
0.0806723
0.0812587
0.0818081
0.0823164
0.0827793
0.0831925
0.0835517
0.0838526
0.0840909
0.0842627
0.0843643
0.0843924
0.0843441
0.0842169
0.0840091
0.0837195
0.0833469
0.0828908
0.0823546
0.081739
0.0810462
0.0802798
0.079443
0.07854
0.0775753
0.0765535
0.0754795
0.0743584
0.0731952
0.071995
0.0707628
0.0695037
0.0682224
0.0669237
0.0656121
0.0642921
0.0629678
0.0616431
0.0603217
0.0590071
0.0577024
0.0564105
0.0551341
0.0538755
0.0526368
0.05142
0.0502268
0.0490585
0.0479165
0.0468017
0.0457151
0.0446572
0.0436287
0.0426298
0.0416608
0.0407218
0.0398125
0.0389329
0.0380826
0.0372611
0.0364678
0.0357022
0.0349633
0.0342504
0.0335625
0.0328986
0.0322577
0.0316387
0.0310404
0.030462
0.0299022
0.02936
0.0288346
0.028325
0.0278305
0.0273505
0.0268843
0.0264316
0.0259922
0.0255659
0.0251528
0.0247529
0.0243666
0.0239943
0.0236363
0.0232932
0.0229655
0.0226539
0.0223592
0.0220818
0.0218222
0.0215805
0.0213567
0.0211509
0.0209627
0.0207917
0.0206373
0.0204988
0.0203752
0.0202657
0.0201691
0.0200842
0.0200099
0.0199448
0.0198876
0.019837
0.0197917
0.0197502
0.0197114
0.0196741
0.0196382
0.0196089
0.00570906
0.0105835
0.013
0.0145949
0.0158124
0.0168314
0.01775
0.0186293
0.0195081
0.0204098
0.0213475
0.0223266
0.0233485
0.0244116
0.0255131
0.0266497
0.0278181
0.029015
0.0302372
0.031482
0.0327462
0.0340273
0.0353223
0.0366287
0.0379435
0.0392641
0.0405877
0.0419118
0.0432338
0.0445512
0.0458618
0.0471633
0.0484539
0.0497318
0.0509955
0.0522436
0.0534751
0.0546889
0.0558845
0.0570611
0.0582186
0.0593566
0.060475
0.0615738
0.0626532
0.0637134
0.0647545
0.065777
0.066781
0.0677669
0.0687351
0.0696858
0.0706194
0.0715362
0.0724362
0.0733191
0.0741856
0.0750363
0.0758711
0.07669
0.0774923
0.0782772
0.0790434
0.0797892
0.0805129
0.0812121
0.0818841
0.0825261
0.0831346
0.0837064
0.0842376
0.0847245
0.0851633
0.08555
0.0858806
0.0861511
0.0863577
0.0864966
0.0865646
0.0865588
0.0864765
0.086315
0.0860738
0.085752
0.0853489
0.0848651
0.084302
0.0836612
0.0829449
0.0821562
0.0812983
0.080375
0.0793907
0.0783496
0.0772566
0.0761164
0.074934
0.0737144
0.0724624
0.0711831
0.0698811
0.0685612
0.0672279
0.0658856
0.0645383
0.0631899
0.0618443
0.0605048
0.0591746
0.0578566
0.0565536
0.055268
0.054002
0.0527576
0.0515365
0.0503403
0.0491703
0.0480277
0.0469133
0.0458282
0.0447727
0.0437474
0.0427527
0.0417886
0.0408553
0.0399525
0.0390801
0.0382376
0.0374247
0.0366406
0.0358847
0.0351561
0.034454
0.0337774
0.0331252
0.0324964
0.0318898
0.0313043
0.0307388
0.0301923
0.0296636
0.0291519
0.0286562
0.0281758
0.0277101
0.0272584
0.0268206
0.0263963
0.0259854
0.0255879
0.0252041
0.0248341
0.0244785
0.0241375
0.0238117
0.0235015
0.0232078
0.022931
0.0226715
0.0224295
0.0222051
0.0219983
0.0218088
0.0216363
0.0214802
0.0213398
0.0212143
0.0211027
0.0210041
0.0209173
0.020841
0.0207741
0.0207153
0.0206632
0.0206167
0.0205743
0.0205349
0.0204976
0.0204625
0.0204343
0.0055963
0.0102801
0.0126733
0.0142873
0.0155465
0.0166178
0.01759
0.0185174
0.0194351
0.0203649
0.0213199
0.0223071
0.0233296
0.0243877
0.0254807
0.026607
0.0277646
0.0289517
0.030166
0.0314055
0.0326679
0.033951
0.0352524
0.0365697
0.0379004
0.0392419
0.0405915
0.0419467
0.0433049
0.0446634
0.0460198
0.0473719
0.0487174
0.0500542
0.0513807
0.052695
0.0539957
0.0552816
0.0565514
0.0578044
0.0590396
0.0602565
0.0614545
0.0626331
0.0637921
0.0649312
0.0660503
0.0671491
0.0682275
0.0692856
0.0703231
0.0713401
0.0723365
0.073312
0.0742666
0.0751992
0.0761104
0.0770005
0.0778695
0.0787169
0.0795421
0.0803441
0.0811216
0.0818731
0.0825967
0.0832902
0.0839513
0.0845773
0.0851649
0.0857109
0.0862122
0.0866656
0.0870675
0.0874148
0.0877039
0.0879317
0.0880944
0.0881888
0.0882124
0.088163
0.0880385
0.0878374
0.0875587
0.0872018
0.0867667
0.086254
0.0856647
0.0850007
0.0842639
0.0834573
0.0825838
0.081647
0.0806508
0.0795995
0.0784973
0.0773488
0.0761588
0.0749319
0.0736729
0.0723864
0.0710772
0.0697496
0.0684082
0.0670571
0.0657004
0.0643418
0.0629851
0.0616337
0.0602907
0.0589591
0.0576416
0.0563406
0.0550584
0.0537972
0.0525586
0.0513444
0.0501559
0.0489945
0.0478611
0.0467568
0.0456822
0.0446379
0.0436244
0.042642
0.0416908
0.0407709
0.039882
0.0390239
0.0381963
0.0373987
0.0366304
0.0358906
0.0351785
0.0344932
0.0338337
0.0331989
0.0325876
0.0319988
0.0314312
0.0308837
0.0303552
0.0298446
0.0293511
0.0288737
0.0284116
0.0279642
0.027531
0.0271117
0.0267061
0.0263139
0.0259354
0.0255707
0.0252201
0.0248839
0.0245625
0.0242563
0.023966
0.023692
0.0234348
0.0231945
0.0229714
0.0227654
0.0225763
0.0224038
0.0222474
0.0221064
0.0219802
0.0218677
0.0217679
0.0216799
0.0216025
0.0215344
0.0214744
0.0214214
0.0213739
0.021331
0.0212913
0.0212542
0.0212199
0.0211928
0.00543188
0.00991481
0.0122743
0.0138958
0.0151832
0.0162923
0.017304
0.0182671
0.0192128
0.0201613
0.0211256
0.0221134
0.0231292
0.0241751
0.0252521
0.0263602
0.0274989
0.0286673
0.0298644
0.0310888
0.0323391
0.0336135
0.0349102
0.0362274
0.0375627
0.0389139
0.0402785
0.0416541
0.0430381
0.0444279
0.0458211
0.0472153
0.048608
0.0499971
0.0513804
0.0527561
0.0541223
0.0554774
0.0568198
0.0581481
0.0594612
0.0607579
0.0620372
0.0632981
0.0645398
0.0657614
0.0669624
0.0681419
0.0692993
0.0704341
0.0715456
0.0726333
0.0736965
0.0747347
0.075747
0.076732
0.07769
0.0786208
0.079524
0.0803989
0.0812448
0.0820605
0.0828446
0.0835956
0.0843117
0.0849909
0.0856313
0.0862309
0.086786
0.0872937
0.0877518
0.0881578
0.088509
0.0888029
0.0890368
0.0892082
0.0893145
0.0893536
0.0893233
0.0892222
0.0890488
0.0888021
0.0884815
0.0880866
0.0876178
0.0870757
0.0864614
0.0857765
0.0850231
0.0842035
0.0833207
0.0823777
0.0813782
0.080326
0.0792249
0.0780793
0.0768934
0.0756716
0.0744183
0.0731378
0.0718346
0.0705129
0.0691769
0.0678306
0.0664778
0.0651223
0.0637676
0.0624171
0.0610737
0.0597406
0.0584203
0.0571154
0.0558281
0.0545605
0.0533146
0.0520921
0.0508944
0.049723
0.048579
0.0474635
0.0463774
0.0453212
0.0442958
0.0433014
0.0423383
0.0414068
0.0405068
0.0396382
0.0388008
0.037994
0.0372175
0.0364706
0.0357525
0.0350622
0.0343989
0.0337616
0.033149
0.03256
0.0319934
0.031448
0.0309228
0.0304164
0.0299279
0.0294563
0.0290007
0.0285603
0.0281346
0.027723
0.0273253
0.0269411
0.0265706
0.0262136
0.0258704
0.0255413
0.0252266
0.0249266
0.0246418
0.0243728
0.0241198
0.0238832
0.0236632
0.0234596
0.0232725
0.0231014
0.022946
0.0228057
0.0226797
0.0225672
0.0224673
0.0223789
0.0223009
0.0222322
0.0221717
0.022118
0.0220702
0.0220269
0.0219873
0.0219506
0.0219172
0.0218911
0.00522357
0.00950825
0.0118308
0.013454
0.0147603
0.0158961
0.0169358
0.0179235
0.0188873
0.019846
0.020812
0.0217936
0.0227963
0.0238237
0.024878
0.0259608
0.0270727
0.0282143
0.0293857
0.0305858
0.0318139
0.0330692
0.0343506
0.0356567
0.0369858
0.038336
0.0397051
0.0410909
0.042491
0.0439031
0.0453247
0.0467533
0.0481865
0.049622
0.0510574
0.0524905
0.0539192
0.0553414
0.0567552
0.0581588
0.0595504
0.0609282
0.0622907
0.0636363
0.0649636
0.066271
0.0675573
0.0688211
0.0700611
0.071276
0.0724647
0.0736259
0.0747585
0.0758614
0.0769322
0.07797
0.0789742
0.0799442
0.0808791
0.0817778
0.0826393
0.0834622
0.0842451
0.0849865
0.0856848
0.0863382
0.086945
0.0875034
0.0880111
0.0884661
0.0888668
0.0892112
0.0894977
0.0897247
0.0898904
0.0899935
0.0900323
0.0900056
0.0899124
0.0897517
0.0895228
0.0892252
0.0888589
0.0884238
0.0879205
0.0873495
0.0867122
0.0860098
0.0852442
0.0844176
0.0835323
0.0825912
0.0815974
0.0805541
0.0794648
0.0783333
0.0771633
0.0759588
0.0747238
0.0734623
0.0721782
0.0708755
0.069558
0.0682295
0.0668937
0.0655541
0.064214
0.0628766
0.0615451
0.0602221
0.0589104
0.0576125
0.0563307
0.0550671
0.0538237
0.0526022
0.0514043
0.0502314
0.0490849
0.0479659
0.0468754
0.0458143
0.0447833
0.0437831
0.0428139
0.0418762
0.0409702
0.0400958
0.0392529
0.0384413
0.0376606
0.0369103
0.0361896
0.0354978
0.034834
0.0341971
0.0335861
0.0329999
0.0324371
0.0318966
0.0313772
0.0308777
0.0303968
0.0299336
0.029487
0.0290561
0.0286403
0.0282389
0.0278514
0.0274776
0.0271172
0.0267702
0.0264367
0.0261168
0.0258108
0.025519
0.0252418
0.0249795
0.0247326
0.0245014
0.024286
0.0240865
0.0239027
0.0237345
0.0235813
0.0234427
0.023318
0.0232064
0.0231071
0.0230191
0.0229412
0.0228725
0.0228119
0.0227582
0.0227102
0.0226671
0.0226278
0.0225918
0.0225594
0.0225344
0.00497172
0.00906913
0.0113608
0.0129864
0.0143085
0.0154646
0.0165244
0.0175285
0.0185027
0.0194646
0.0204261
0.0213958
0.02238
0.0233833
0.0244091
0.02546
0.0265382
0.0276452
0.0287818
0.0299486
0.0311458
0.0323733
0.0336305
0.0349167
0.0362308
0.0375713
0.0389367
0.0403249
0.0417339
0.0431615
0.0446055
0.0460632
0.0475324
0.0490105
0.050495
0.0519835
0.0534733
0.0549621
0.0564474
0.0579269
0.059398
0.0608586
0.0623063
0.0637388
0.0651538
0.0665493
0.0679229
0.0692727
0.0705966
0.0718926
0.0731587
0.0743932
0.0755941
0.0767595
0.0778864
0.0789734
0.0800191
0.0810224
0.0819817
0.0828959
0.0837633
0.0845827
0.0853525
0.0860715
0.0867382
0.0873513
0.0879096
0.0884118
0.0888567
0.0892435
0.089571
0.0898388
0.090046
0.0901922
0.0902769
0.0902998
0.0902604
0.0901586
0.0899943
0.0897674
0.0894778
0.0891257
0.0887115
0.0882354
0.0876981
0.0871004
0.0864433
0.0857279
0.0849558
0.0841288
0.0832488
0.0823181
0.0813392
0.0803148
0.0792479
0.0781416
0.0769991
0.0758238
0.0746192
0.0733889
0.0721362
0.0708649
0.0695783
0.06828
0.0669734
0.0656616
0.0643479
0.0630353
0.0617268
0.060425
0.0591326
0.0578521
0.0565857
0.0553357
0.054104
0.0528924
0.0517028
0.0505365
0.0493952
0.04828
0.0471921
0.0461325
0.0451021