/*--------------------------------*- C++ -*----------------------------------*\
  =========                 |
  \\      /  F ield         | OpenFOAM: The Open Source CFD Toolbox
   \\    /   O peration     | Website:  https://openfoam.org
    \\  /    A nd           | Version:  6
     \\/     M anipulation  |
\*---------------------------------------------------------------------------*/
FoamFile
{
    version     2.0;
    format      ascii;
    class       volScalarField;
    location    "0.25";
    object      nut;
}
// * * * * * * * * * * * * * * * * * * * * * * * * * * * * * * * * * * * * * //

dimensions      [0 2 -1 0 0 0 0];

internalField   nonuniform List<scalar> 
12225
(
1.77723e-05
1.42681e-05
1.23502e-05
1.11614e-05
1.03584e-05
9.78659e-06
9.35914e-06
9.02363e-06
8.74912e-06
8.51735e-06
8.31719e-06
8.14146e-06
7.98527e-06
7.84511e-06
7.71833e-06
7.60296e-06
7.49735e-06
7.40618e-06
0.00014488
0.000101906
8.78787e-05
8.0508e-05
7.60403e-05
7.30466e-05
7.07291e-05
6.87064e-05
6.68516e-05
6.5137e-05
6.35541e-05
6.20938e-05
6.07461e-05
5.95001e-05
5.83472e-05
5.72709e-05
5.63093e-05
5.54434e-05
0.000323316
0.000223553
0.00018976
0.0001725
0.000161947
0.000154825
0.000149531
0.000145227
0.00014151
0.000138195
0.000135191
0.000132442
0.000129911
0.000127571
0.000125399
0.000123372
0.000121522
0.000119899
0.000493959
0.00035521
0.000299382
0.000269549
0.000250974
0.000238329
0.000229061
0.000221796
0.000215792
0.00021064
0.000206108
0.000202049
0.000198371
0.000195007
0.000191909
0.000189041
0.000186414
0.000184104
0.000624463
0.00047865
0.000407297
0.000366105
0.000339477
0.000320956
0.000307293
0.000296678
0.000288064
0.000280833
0.000274602
0.000269125
0.000264235
0.000259818
0.000255793
0.000252101
0.000248736
0.000245773
0.000713105
0.00058333
0.000506458
0.000457799
0.000424723
0.00040099
0.000383168
0.000369236
0.00035796
0.000348567
0.000340555
0.000333588
0.000327434
0.000321929
0.000316955
0.000312433
0.000308337
0.00030473
0.000769316
0.000665557
0.000592242
0.000541042
0.00050414
0.000476633
0.000455456
0.000438655
0.000424961
0.000413535
0.000403807
0.000395382
0.000387978
0.000381393
0.000375478
0.000370134
0.000365318
0.000361078
0.000803464
0.000726287
0.000662488
0.000613307
0.000575536
0.000546134
0.000522809
0.00050392
0.000488319
0.000475198
0.000463981
0.000454253
0.000445708
0.000438121
0.000431325
0.000425206
0.000419709
0.000414865
0.000823632
0.000768911
0.000717172
0.000673318
0.000637353
0.000608017
0.000583941
0.000563958
0.00054716
0.000532854
0.00052052
0.000509762
0.000500282
0.000491851
0.000484297
0.000477501
0.000471402
0.000466014
0.000835321
0.000797581
0.000757799
0.000721018
0.00068883
0.000661271
0.000637809
0.000617791
0.000600606
0.000585737
0.000572764
0.00056135
0.000551226
0.000542183
0.000534057
0.000526734
0.000520154
0.000514319
0.000842014
0.000816187
0.000786713
0.000757339
0.000730015
0.000705462
0.000683755
0.000664675
0.00064791
0.000633135
0.000620055
0.000608415
0.000598
0.000588631
0.00058017
0.000572516
0.000565619
0.000559469
0.000845506
0.00082693
0.000804837
0.00078163
0.000758974
0.000737769
0.000718379
0.000700861
0.000685118
0.000670989
0.000658293
0.000646855
0.000636517
0.000627144
0.000618623
0.000610878
0.000603866
0.000597584
0.000847618
0.000833938
0.000817464
0.000799506
0.000781249
0.000763509
0.00074675
0.000731186
0.000716872
0.000703774
0.000691812
0.000680888
0.000670904
0.000661765
0.000653394
0.000645735
0.000638764
0.000632473
0.00084898
0.000838773
0.000826761
0.000813446
0.000799483
0.000785444
0.000771743
0.000758641
0.000746276
0.000734706
0.000723934
0.000713933
0.000704661
0.000696071
0.000688123
0.000680787
0.000674055
0.00066792
0.000849782
0.00084179
0.000832926
0.000823244
0.000812978
0.000802421
0.000791837
0.000781435
0.000771362
0.000761709
0.000752528
0.00074384
0.000735648
0.000727947
0.000720728
0.00071399
0.000707739
0.000701968
0.000850209
0.000843469
0.00083655
0.000829333
0.000821816
0.000814075
0.000806214
0.000798344
0.000790561
0.000782939
0.000775537
0.000768392
0.000761531
0.000754974
0.000748735
0.000742832
0.000737283
0.000732076
0.000850409
0.000844283
0.000838388
0.000832578
0.000826762
0.000820901
0.000814995
0.000809064
0.000803141
0.000797261
0.000791458
0.000785764
0.000780206
0.000774808
0.000769597
0.000764597
0.00075983
0.000755275
0.000850482
0.000844584
0.000839091
0.000833867
0.000828806
0.000823834
0.000818906
0.000813999
0.000809108
0.000804239
0.000799405
0.000794622
0.000789909
0.000785289
0.000780786
0.000776424
0.000772221
0.000768148
0.000850461
0.000844499
0.000838897
0.000833517
0.00082826
0.000823066
0.0008179
0.000812754
0.00080763
0.000802542
0.000797506
0.000792543
0.000787672
0.000782914
0.000778292
0.00077383
0.000769541
0.000765393
0.000850264
0.000843698
0.000837082
0.000830294
0.00082331
0.000816172
0.000808953
0.000801732
0.000794584
0.000787573
0.000780746
0.000774141
0.000767782
0.00076169
0.000755879
0.000750365
0.000745154
0.000740206
0.000849709
0.000841538
0.000832462
0.000822583
0.000812162
0.000801499
0.000790856
0.000780435
0.000770376
0.000760766
0.00075165
0.000743047
0.000734958
0.000727374
0.000720282
0.000713672
0.000707531
0.00070181
0.000848165
0.000835955
0.000821437
0.000805565
0.000789264
0.000773225
0.000757883
0.000743473
0.000730089
0.000717741
0.00070639
0.000695971
0.000686412
0.000677641
0.000669594
0.000662217
0.000655468
0.000649285
0.000844088
0.000822755
0.000797961
0.000772553
0.000748254
0.00072588
0.000705691
0.000687653
0.000671595
0.000657302
0.000644556
0.000633153
0.000622917
0.000613696
0.000605365
0.00059783
0.000591018
0.000584856
0.000833791
0.00079425
0.000753395
0.000716081
0.000683658
0.00065602
0.000632577
0.000612642
0.000595584
0.000580878
0.000568094
0.000556892
0.000547001
0.000538209
0.000530351
0.000523303
0.000516979
0.000511307
0.000809076
0.000738693
0.000678546
0.000630933
0.000593621
0.000564149
0.000540543
0.000521321
0.000505404
0.000492014
0.000480587
0.000470707
0.000462069
0.000454441
0.000447654
0.000441583
0.000436148
0.000431293
0.000753684
0.000642686
0.000568248
0.000517624
0.000481623
0.000455033
0.000434733
0.000418752
0.000405817
0.000395091
0.000386013
0.000378192
0.000371356
0.000365309
0.000359911
0.000355062
0.000350703
0.000346805
0.000641466
0.000499155
0.000426794
0.00038399
0.000355864
0.000336165
0.000321657
0.000310467
0.00030148
0.000294016
0.00028765
0.000282106
0.0002772
0.000272805
0.000268834
0.000265226
0.000261949
0.000259001
0.000448553
0.000320188
0.000270289
0.000243476
0.000226729
0.000215451
0.000207325
0.000201044
0.000195891
0.000191478
0.00018759
0.0001841
0.00018093
0.000178028
0.000175358
0.000172895
0.000170628
0.000168568
0.000203095
0.000143552
0.000122975
0.00011171
0.000104815
0.00010037
9.7187e-05
9.46021e-05
9.23206e-05
9.02335e-05
8.83018e-05
8.65083e-05
8.48424e-05
8.32959e-05
8.18604e-05
8.05279e-05
7.9292e-05
7.81527e-05
2.40294e-05
1.96339e-05
1.71031e-05
1.54671e-05
1.43247e-05
1.34924e-05
1.28646e-05
1.23739e-05
1.1977e-05
1.16462e-05
1.1364e-05
1.11189e-05
1.09028e-05
1.07105e-05
1.05377e-05
1.03815e-05
1.02396e-05
1.01106e-05
1.85258e-06
5.255e-06
5.70494e-06
5.86989e-06
5.96902e-06
6.12839e-06
6.32701e-06
6.56411e-06
6.84175e-06
7.19924e-06
7.55002e-06
7.90634e-06
8.27046e-06
8.63949e-06
9.00917e-06
9.37521e-06
9.73397e-06
1.00827e-05
1.04196e-05
1.07433e-05
1.10534e-05
1.13495e-05
1.16318e-05
1.19006e-05
1.21565e-05
1.23999e-05
1.26316e-05
1.28523e-05
1.30627e-05
1.32637e-05
1.3456e-05
1.36402e-05
1.38171e-05
1.39873e-05
1.41514e-05
1.43099e-05
1.44634e-05
1.46123e-05
1.4757e-05
1.48978e-05
1.50351e-05
1.51691e-05
1.53001e-05
1.54283e-05
1.55538e-05
1.56768e-05
1.57974e-05
1.59157e-05
1.60319e-05
1.61461e-05
1.62584e-05
1.63692e-05
1.64787e-05
1.65873e-05
1.66957e-05
1.68078e-05
1.69167e-05
1.70227e-05
1.71257e-05
1.72258e-05
1.73225e-05
1.74158e-05
1.75053e-05
1.75907e-05
1.76716e-05
1.77478e-05
1.78187e-05
1.78841e-05
1.79436e-05
1.79967e-05
1.80431e-05
1.80824e-05
1.81141e-05
1.8138e-05
1.81536e-05
1.81606e-05
1.81587e-05
1.81476e-05
1.81271e-05
1.80969e-05
1.80569e-05
1.8007e-05
1.7947e-05
1.7877e-05
1.77969e-05
1.77069e-05
1.7607e-05
1.74975e-05
1.73785e-05
1.72504e-05
1.71134e-05
1.6968e-05
1.68143e-05
1.6653e-05
1.64843e-05
1.63084e-05
1.61254e-05
1.59377e-05
1.5765e-05
1.56334e-05
1.55075e-05
1.53802e-05
1.52506e-05
1.51186e-05
1.49846e-05
1.48488e-05
1.47117e-05
1.45736e-05
1.44349e-05
1.42958e-05
1.41568e-05
1.4018e-05
1.38799e-05
1.37426e-05
1.36064e-05
1.34715e-05
1.33381e-05
1.32064e-05
1.30765e-05
1.29486e-05
1.28228e-05
1.26991e-05
1.25777e-05
1.24585e-05
1.23416e-05
1.2227e-05
1.21147e-05
1.20046e-05
1.18966e-05
1.17906e-05
1.16865e-05
1.15843e-05
1.14837e-05
1.13845e-05
1.12867e-05
1.119e-05
1.10942e-05
1.09992e-05
1.09048e-05
1.08108e-05
1.07171e-05
1.06235e-05
1.053e-05
1.04364e-05
1.03428e-05
1.02491e-05
1.01553e-05
1.00615e-05
9.96744e-06
9.87263e-06
9.77641e-06
9.681e-06
9.58924e-06
9.50079e-06
9.41568e-06
9.33398e-06
9.25578e-06
9.18116e-06
9.1102e-06
9.04295e-06
8.97946e-06
8.9197e-06
8.86364e-06
8.81118e-06
8.76219e-06
8.71649e-06
8.67386e-06
8.63404e-06
8.59671e-06
8.56154e-06
8.5281e-06
8.49595e-06
8.4645e-06
8.43305e-06
8.40062e-06
8.36577e-06
8.32625e-06
8.27772e-06
8.21385e-06
8.11892e-06
2.59876e-06
1.50113e-05
2.56849e-05
3.22087e-05
3.51075e-05
3.6097e-05
3.67287e-05
3.75244e-05
3.84756e-05
3.94573e-05
4.04583e-05
4.15218e-05
4.27043e-05
4.40486e-05
4.55787e-05
4.73031e-05
4.92189e-05
5.13148e-05
5.3573e-05
5.59705e-05
5.8481e-05
6.10758e-05
6.37257e-05
6.64026e-05
6.90803e-05
7.17361e-05
7.43509e-05
7.69096e-05
7.94016e-05
8.18197e-05
8.41604e-05
8.6423e-05
8.86091e-05
9.07222e-05
9.2767e-05
9.47494e-05
9.66756e-05
9.85524e-05
0.000100386
0.000102184
0.000103952
0.000105696
0.000107423
0.000109136
0.00011084
0.000112538
0.000114234
0.000115928
0.000117621
0.000119309
0.000120989
0.000122654
0.000124293
0.000125891
0.000127435
0.000128887
0.000130338
0.000131799
0.000133272
0.000134756
0.000136249
0.00013775
0.000139254
0.00014076
0.000142263
0.000143758
0.000145241
0.000146707
0.000148151
0.000149565
0.000150945
0.000152284
0.000153574
0.00015481
0.000155984
0.00015709
0.000158122
0.000159073
0.000159936
0.000160708
0.000161382
0.000161953
0.000162419
0.000162776
0.000163021
0.000163152
0.000163169
0.000163071
0.000162858
0.00016253
0.00016209
0.000161538
0.000160873
0.000160095
0.000159196
0.000158157
0.000156938
0.00015547
0.000153744
0.000151869
0.000149915
0.000147907
0.000145858
0.000143775
0.000141666
0.000139538
0.000137396
0.000135245
0.000133092
0.000130942
0.000128797
0.000126664
0.000124545
0.000122444
0.000120365
0.000118311
0.000116283
0.000114284
0.000112317
0.000110382
0.000108482
0.000106616
0.000104787
0.000102994
0.000101238
9.95191e-05
9.78363e-05
9.61893e-05
9.45774e-05
9.29996e-05
9.14545e-05
8.9941e-05
8.84574e-05
8.70021e-05
8.55735e-05
8.41699e-05
8.27897e-05
8.14314e-05
8.00935e-05
7.87749e-05
7.74747e-05
7.61923e-05
7.49274e-05
7.36803e-05
7.24515e-05
7.12421e-05
7.00533e-05
6.88863e-05
6.7741e-05
6.66138e-05
6.54913e-05
6.43368e-05
6.31948e-05
6.21265e-05
6.11306e-05
6.0204e-05
5.93443e-05
5.85497e-05
5.78188e-05
5.71498e-05
5.65409e-05
5.59894e-05
5.54926e-05
5.50468e-05
5.46481e-05
5.42921e-05
5.39739e-05
5.36882e-05
5.34291e-05
5.319e-05
5.29633e-05
5.27399e-05
5.25081e-05
5.22517e-05
5.19456e-05
5.15494e-05
5.0982e-05
5.01228e-05
4.85761e-05
4.65395e-05
3.24742e-06
2.42695e-05
4.05386e-05
4.9888e-05
5.48153e-05
5.74343e-05
5.91877e-05
6.08468e-05
6.26965e-05
6.48047e-05
6.72047e-05
6.99398e-05
7.30554e-05
7.65823e-05
8.05276e-05
8.48755e-05
8.95898e-05
9.46196e-05
9.99038e-05
0.000105377
0.000110971
0.000116624
0.000122279
0.000127885
0.000133402
0.0001388
0.000144054
0.000149151
0.000154083
0.000158846
0.000163442
0.000167877
0.000172158
0.000176294
0.000180296
0.000184175
0.000187942
0.000191607
0.000195183
0.000198678
0.000202103
0.000205467
0.000208778
0.000212042
0.000215267
0.000218456
0.000221614
0.000224744
0.000227845
0.000230918
0.00023396
0.000236968
0.000239938
0.000242866
0.000245749
0.000248604
0.000251464
0.000254338
0.000257229
0.000260133
0.00026305
0.000265973
0.000268899
0.000271822
0.000274734
0.000277628
0.000280495
0.000283325
0.000286108
0.000288834
0.000291489
0.000294063
0.000296543
0.000298915
0.000301168
0.000303287
0.000305262
0.000307079
0.000308726
0.000310194
0.000311472
0.000312551
0.000313424
0.000314083
0.000314523
0.00031474
0.000314732
0.000314497
0.000314035
0.000313346
0.000312432
0.000311294
0.000309932
0.000308345
0.000306525
0.000304458
0.000302116
0.000299481
0.000296558
0.000293424
0.000290137
0.00028673
0.000283226
0.000279639
0.000275985
0.000272275
0.000268522
0.000264736
0.000260928
0.000257108
0.000253285
0.000249468
0.000245665
0.000241883
0.00023813
0.000234411
0.000230733
0.0002271
0.000223518
0.000219989
0.000216518
0.000213107
0.000209758
0.000206473
0.000203253
0.000200098
0.000197008
0.000193983
0.000191021
0.000188121
0.00018528
0.000182495
0.000179764
0.000177083
0.000174449
0.000171859
0.000169307
0.000166792
0.00016431
0.000161857
0.000159431
0.000157031
0.000154656
0.000152304
0.000149975
0.000147672
0.000145395
0.000143146
0.000140926
0.000138731
0.000136558
0.000134394
0.000132246
0.000130129
0.000128116
0.000126214
0.000124429
0.000122762
0.000121217
0.000119793
0.000118491
0.000117308
0.000116239
0.00011528
0.000114423
0.000113661
0.000112983
0.000112379
0.000111838
0.000111345
0.000110886
0.000110443
0.000109994
0.000109508
0.000108942
0.00010823
0.000107245
0.000105778
0.000103297
9.94471e-05
3.73361e-06
3.00899e-05
5.0963e-05
6.36239e-05
7.10512e-05
7.55624e-05
7.87681e-05
8.16595e-05
8.47536e-05
8.82825e-05
9.23445e-05
9.69812e-05
0.000102203
0.000107994
0.000114311
0.000121092
0.000128257
0.000135721
0.000143396
0.000151198
0.000159048
0.00016688
0.000174636
0.000182272
0.000189751
0.000197048
0.000204145
0.000211033
0.000217706
0.000224166
0.000230415
0.000236461
0.000242312
0.000247978
0.000253469
0.000258798
0.000263976
0.000269014
0.000273922
0.000278712
0.000283394
0.000287977
0.000292469
0.00029688
0.000301215
0.000305481
0.000309683
0.000313826
0.000317914
0.000321948
0.000325933
0.000329868
0.000333757
0.0003376
0.000341402
0.000345183
0.000348963
0.000352747
0.000356538
0.000360335
0.000364136
0.000367936
0.000371731
0.000375513
0.000379276
0.000383009
0.000386704
0.000390348
0.000393929
0.000397435
0.000400851
0.000404161
0.000407352
0.000410406
0.000413309
0.000416043
0.000418593
0.000420944
0.00042308
0.000424987
0.000426652
0.000428063
0.000429209
0.000430082
0.000430672
0.000430975
0.000430986
0.000430701
0.00043012
0.000429242
0.000428068
0.000426601
0.00042484
0.000422787
0.000420442
0.000417794
0.000414843
0.000411587
0.00040805
0.000404275
0.000400303
0.000396164
0.000391883
0.000387478
0.000382968
0.000378368
0.000373695
0.000368962
0.000364183
0.000359372
0.000354542
0.000349704
0.000344869
0.000340047
0.000335249
0.000330484
0.000325759
0.000321082
0.000316461
0.0003119
0.000307405
0.000302981
0.00029863
0.000294357
0.000290163
0.000286049
0.000282016
0.000278063
0.000274189
0.000270392
0.00026667
0.000263018
0.000259434
0.000255913
0.000252451
0.000249041
0.00024568
0.000242361
0.000239081
0.000235835
0.000232619
0.000229429
0.000226264
0.000223123
0.000220005
0.000216911
0.000213842
0.000210801
0.00020779
0.00020481
0.000201864
0.00019895
0.000196075
0.000193241
0.000190494
0.000187873
0.000185391
0.000183055
0.000180873
0.000178849
0.000176985
0.000175281
0.000173733
0.000172337
0.000171084
0.000169965
0.000168969
0.000168082
0.000167289
0.000166573
0.000165913
0.000165287
0.000164667
0.000164016
0.000163284
0.000162397
0.000161224
0.00015955
0.000156931
0.000153059
4.0694e-06
3.36297e-05
5.85243e-05
7.4512e-05
8.46385e-05
9.13456e-05
9.63608e-05
0.000100826
0.000105421
0.000110501
0.00011622
0.000122622
0.000129686
0.000137357
0.000145553
0.00015418
0.000163141
0.000172337
0.000181679
0.000191082
0.000200476
0.000209802
0.000219008
0.000228058
0.00023692
0.000245573
0.000254004
0.000262202
0.000270164
0.00027789
0.000285382
0.000292645
0.000299687
0.000306514
0.000313137
0.000319565
0.000325807
0.000331875
0.000337777
0.000343524
0.000349125
0.000354589
0.000359925
0.000365142
0.000370247
0.000375247
0.00038015
0.000384961
0.000389687
0.000394332
0.000398903
0.000403404
0.000407839
0.000412213
0.00041653
0.000420811
0.000425069
0.000429315
0.000433552
0.000437781
0.000442002
0.000446213
0.000450409
0.000454586
0.000458736
0.000462853
0.000466925
0.000470943
0.000474895
0.000478767
0.000482544
0.000486212
0.000489754
0.000493154
0.000496395
0.000499458
0.000502326
0.000504983
0.00050741
0.000509592
0.000511513
0.000513158
0.000514516
0.000515574
0.000516322
0.000516753
0.000516858
0.000516635
0.00051608
0.000515191
0.000513969
0.000512416
0.000510531
0.000508322
0.000505782
0.000502918
0.000499738
0.000496255
0.00049249
0.000488471
0.000484229
0.000479789
0.000475174
0.000470405
0.0004655
0.000460478
0.000455356
0.00045015
0.000444877
0.000439551
0.000434187
0.000428799
0.0004234
0.000418003
0.000412619
0.000407259
0.000401932
0.000396649
0.000391418
0.000386246
0.00038114
0.000376106
0.000371148
0.000366272
0.000361479
0.000356772
0.000352152
0.000347619
0.000343172
0.00033881
0.00033453
0.000330328
0.000326201
0.000322142
0.000318147
0.00031421
0.000310325
0.000306485
0.000302686
0.00029892
0.000295184
0.000291473
0.000287784
0.000284116
0.000280466
0.000276837
0.000273229
0.000269646
0.000266091
0.000262568
0.000259084
0.000255642
0.000252251
0.000248919
0.000245663
0.000242535
0.000239553
0.00023673
0.000234077
0.000231602
0.00022931
0.000227203
0.000225279
0.000223535
0.000221964
0.000220556
0.000219298
0.000218177
0.000217174
0.00021627
0.000215444
0.000214669
0.000213913
0.000213139
0.000212293
0.0002113
0.000210039
0.000208317
0.000205807
0.000202367
4.26797e-06
3.57418e-05
6.38041e-05
8.28009e-05
9.56169e-05
0.000104683
0.000111747
0.000118014
0.000124249
0.000130885
0.000138123
0.000146023
0.000154559
0.00016366
0.000173233
0.000183178
0.000193395
0.00020379
0.000214279
0.000224788
0.000235256
0.000245628
0.000255863
0.000265928
0.000275795
0.000285444
0.000294863
0.00030404
0.000312972
0.000321654
0.000330089
0.000338277
0.000346224
0.000353934
0.000361414
0.000368671
0.000375713
0.000382548
0.000389184
0.00039563
0.000401894
0.000407984
0.000413909
0.000419677
0.000425297
0.000430775
0.00043612
0.000441338
0.000446438
0.000451426
0.000456309
0.000461094
0.000465786
0.000470391
0.000474915
0.000479374
0.000483786
0.000488162
0.000492511
0.000496837
0.000501142
0.000505428
0.000509692
0.000513932
0.000518145
0.000522324
0.000526462
0.000530551
0.000534579
0.000538535
0.000542406
0.000546177
0.000549833
0.000553357
0.000556732
0.00055994
0.000562963
0.000565782
0.00056838
0.000570738
0.000572839
0.000574667
0.000576207
0.000577446
0.00057837
0.00057897
0.000579236
0.000579163
0.000578744
0.000577978
0.000576862
0.000575397
0.000573586
0.000571423
0.000568919
0.000566086
0.000562933
0.000559477
0.000555735
0.000551729
0.000547483
0.000543018
0.000538355
0.000533516
0.000528518
0.000523381
0.000518122
0.000512759
0.000507309
0.000501788
0.000496213
0.000490597
0.000484955
0.000479302
0.000473649
0.00046801
0.000462394
0.000456814
0.000451279
0.000445796
0.000440375
0.000435022
0.000429744
0.000424545
0.000419429
0.000414399
0.000409457
0.000404604
0.00039984
0.000395162
0.000390569
0.000386057
0.000381622
0.000377259
0.000372961
0.000368722
0.000364536
0.000360396
0.000356295
0.000352227
0.000348186
0.000344166
0.000340164
0.000336178
0.000332205
0.000328247
0.000324305
0.000320381
0.000316481
0.000312611
0.000308778
0.00030499
0.000301257
0.000297589
0.000293998
0.000290528
0.000287203
0.000284039
0.000281051
0.00027825
0.000275644
0.000273236
0.000271029
0.000269018
0.000267199
0.000265563
0.000264097
0.000262786
0.000261614
0.000260558
0.000259597
0.000258702
0.000257841
0.000256974
0.000256049
0.000254993
0.000253699
0.000252005
0.000249679
0.000246712
4.38552e-06
3.67511e-05
6.71696e-05
8.87639e-05
0.000104102
0.000115507
0.000124679
0.000132812
0.000140698
0.00014881
0.00015739
0.000166523
0.000176201
0.000186363
0.000196926
0.000207796
0.000218885
0.000230108
0.000241391
0.00025267
0.000263891
0.000275006
0.000285979
0.000296778
0.000307379
0.000317764
0.000327916
0.000337827
0.000347486
0.000356891
0.000366039
0.000374928
0.000383561
0.000391939
0.000400065
0.000407945
0.000415584
0.000422987
0.000430161
0.000437112
0.000443847
0.000450374
0.0004567
0.000462832
0.000468779
0.000474547
0.000480145
0.000485581
0.000490861
0.000495995
0.000500989
0.000505851
0.00051059
0.000515211
0.000519722
0.000524135
0.000528474
0.000532753
0.000536984
0.000541177
0.000545337
0.000549469
0.000553576
0.000557658
0.000561715
0.000565744
0.000569741
0.000573699
0.000577611
0.000581467
0.000585257
0.000588966
0.000592582
0.000596088
0.000599468
0.000602704
0.000605778
0.000608671
0.000611364
0.000613838
0.000616074
0.000618055
0.000619763
0.000621182
0.000622299
0.000623099
0.000623573
0.000623711
0.000623505
0.00062295
0.000622048
0.000620781
0.00061916
0.00061719
0.00061488
0.000612239
0.00060928
0.000606016
0.000602462
0.000598638
0.000594561
0.000590252
0.000585729
0.000581012
0.00057612
0.000571071
0.000565883
0.000560574
0.000555161
0.000549661
0.00054409
0.000538465
0.0005328
0.00052711
0.000521409
0.000515709
0.000510022
0.000504361
0.000498736
0.000493157
0.000487632
0.00048217
0.000476777
0.000471459
0.000466222
0.000461068
0.000456001
0.000451021
0.00044613
0.000441325
0.000436605
0.000431967
0.000427406
0.000422917
0.000418494
0.00041413
0.000409818
0.000405551
0.000401322
0.000397122
0.000392947
0.000388789
0.000384644
0.000380509
0.000376381
0.000372261
0.00036815
0.00036405
0.000359968
0.000355909
0.000351882
0.000347897
0.000343965
0.000340098
0.000336309
0.000332627
0.000329084
0.0003257
0.000322489
0.000319466
0.000316641
0.000314021
0.000311608
0.000309401
0.000307397
0.000305588
0.000303961
0.000302503
0.000301197
0.000300021
0.000298953
0.000297963
0.000297021
0.000296086
0.000295107
0.000294019
0.000292726
0.000291098
0.000288974
0.000286428
4.44401e-06
3.69684e-05
6.90101e-05
9.27447e-05
0.000110328
0.000123909
0.000135091
0.000145018
0.000154467
0.000163928
0.000173671
0.000183813
0.000194377
0.000205326
0.000216596
0.000228113
0.000239802
0.000251592
0.000263418
0.000275227
0.000286968
0.000298603
0.000310096
0.00032142
0.00033255
0.000343467
0.000354156
0.000364604
0.000374803
0.000384743
0.000394421
0.000403833
0.000412977
0.000421852
0.000430459
0.0004388
0.000446877
0.000454694
0.000462254
0.000469563
0.000476626
0.000483448
0.000490035
0.000496394
0.000502531
0.000508454
0.00051417
0.000519686
0.00052501
0.000530151
0.000535116
0.000539914
0.000544554
0.000549045
0.000553393
0.000557612
0.000561728
0.00056576
0.000569725
0.000573636
0.000577504
0.000581337
0.000585142
0.000588925
0.000592688
0.000596432
0.000600156
0.000603858
0.000607533
0.000611174
0.000614772
0.000618317
0.000621796
0.000625195
0.000628499
0.00063169
0.00063475
0.00063766
0.000640401
0.000642953
0.000645296
0.000647411
0.000649278
0.000650879
0.000652199
0.000653222
0.000653932
0.000654322
0.000654381
0.000654088
0.000653447
0.000652457
0.000651121
0.000649442
0.000647428
0.000645086
0.000642427
0.000639463
0.000636208
0.000632676
0.000628885
0.000624851
0.000620592
0.000616127
0.000611472
0.000606646
0.000601668
0.000596553
0.000591321
0.000585988
0.00058057
0.000575084
0.000569545
0.000563968
0.000558369
0.000552759
0.000547153
0.000541562
0.000535999
0.000530473
0.000524994
0.000519571
0.000514212
0.000508924
0.000503711
0.000498579
0.000493531
0.000488569
0.000483693
0.000478903
0.000474197
0.000469572
0.000465025
0.00046055
0.00045614
0.00045179
0.00044749
0.000443234
0.000439014
0.000434822
0.000430649
0.000426491
0.00042234
0.000418194
0.000414048
0.000409902
0.000405758
0.000401617
0.000397484
0.000393367
0.000389274
0.000385216
0.000381204
0.000377252
0.000373373
0.00036959
0.000365934
0.000362428
0.000359089
0.000355932
0.00035297
0.000350212
0.000347661
0.00034532
0.000343186
0.000341251
0.000339507
0.00033794
0.000336533
0.000335266
0.000334115
0.000333054
0.000332051
0.000331068
0.000330057
0.000328958
0.000327689
0.000326144
0.000324218
0.000322025
4.45881e-06
3.66355e-05
6.96693e-05
9.50805e-05
0.000114572
0.000130077
0.000143074
0.000154631
0.000165494
0.00017615
0.000186888
0.000197858
0.000209112
0.000220644
0.000232417
0.000244378
0.000256468
0.00026863
0.000280812
0.000292966
0.00030505
0.000317028
0.000328869
0.000340546
0.000352036
0.00036332
0.000374382
0.000385208
0.000395786
0.000406106
0.000416162
0.000425947
0.000435456
0.000444687
0.000453636
0.000462305
0.000470691
0.000478797
0.000486624
0.000494175
0.000501452
0.00050846
0.000515203
0.000521686
0.000527915
0.000533894
0.000539632
0.000545134
0.000550409
0.000555464
0.000560308
0.000564949
0.000569397
0.000573663
0.000577756
0.000581688
0.00058549
0.000589186
0.000592797
0.000596341
0.000599831
0.000603283
0.000606706
0.000610109
0.000613499
0.000616883
0.000620261
0.000623636
0.000627005
0.000630365
0.000633709
0.00063703
0.000640317
0.000643557
0.000646736
0.000649839
0.000652848
0.000655742
0.000658501
0.000661108
0.000663541
0.000665779
0.000667798
0.000669579
0.00067111
0.000672372
0.000673331
0.000673984
0.000674321
0.00067433
0.000674008
0.000673351
0.00067236
0.000671036
0.000669384
0.00066741
0.000665122
0.00066253
0.000659645
0.000656482
0.000653053
0.000649374
0.000645462
0.000641333
0.000637004
0.000632493
0.000627816
0.000622991
0.000618036
0.000612967
0.000607801
0.000602554
0.000597243
0.000591882
0.000586487
0.000581071
0.000575649
0.000570233
0.000564836
0.000559468
0.00055414
0.000548862
0.000543642
0.000538488
0.000533406
0.000528401
0.000523478
0.000518638
0.000513884
0.000509215
0.00050463
0.000500126
0.0004957
0.000491346
0.000487058
0.000482829
0.000478651
0.000474516
0.000470415
0.00046634
0.000462282
0.000458235
0.000454191
0.000450145
0.000446094
0.000442035
0.000437969
0.000433897
0.000429825
0.000425758
0.000421705
0.000417676
0.000413685
0.000409743
0.000405867
0.000402073
0.000398393
0.000394849
0.000391461
0.000388245
0.000385216
0.000382383
0.000379755
0.000377333
0.000375117
0.000373101
0.000371278
0.000369635
0.000368157
0.000366825
0.000365615
0.000364504
0.000363459
0.000362445
0.000361418
0.000360323
0.000359091
0.000357639
0.000355898
0.000353999
4.44067e-06
3.59271e-05
6.9422e-05
9.60625e-05
0.000117104
0.000134238
0.000148802
0.000161782
0.000173879
0.000185566
0.000197145
0.000208789
0.000220579
0.00023254
0.000244661
0.000256909
0.000269246
0.000281628
0.000294013
0.000306362
0.000318639
0.000330812
0.000342852
0.000354736
0.00036644
0.000377945
0.000389234
0.000400293
0.000411109
0.00042167
0.000431966
0.00044199
0.000451735
0.000461195
0.000470366
0.000479244
0.000487827
0.000496115
0.000504105
0.0005118
0.000519199
0.000526306
0.000533122
0.00053965
0.000545896
0.000551862
0.000557555
0.00056298
0.000568145
0.000573056
0.000577722
0.000582151
0.000586355
0.000590344
0.000594129
0.000597728
0.000601173
0.000604493
0.000607712
0.000610852
0.000613932
0.000616969
0.000619978
0.000622971
0.000625961
0.000628955
0.000631961
0.000634981
0.000638018
0.000641071
0.000644136
0.000647207
0.000650277
0.000653335
0.000656369
0.000659364
0.000662302
0.000665162
0.000667926
0.000670573
0.000673085
0.000675447
0.000677613
0.00067957
0.000681301
0.000682786
0.000684005
0.000684945
0.00068559
0.000685932
0.000685962
0.000685675
0.000685068
0.00068414
0.000682893
0.000681331
0.00067946
0.000677287
0.000674822
0.000672076
0.000669061
0.000665791
0.00066228
0.000658545
0.000654601
0.000650464
0.000646151
0.000641678
0.000637064
0.000632325
0.000627476
0.000622536
0.00061752
0.000612443
0.000607321
0.000602169
0.000597001
0.00059183
0.000586669
0.000581531
0.000576427
0.000571366
0.000566358
0.000561412
0.000556535
0.000551732
0.000547009
0.000542369
0.000537814
0.000533344
0.000528959
0.000524656
0.000520432
0.000516282
0.000512199
0.000508177
0.000504206
0.000500279
0.000496385
0.000492517
0.000488664
0.000484818
0.000480972
0.000477119
0.000473254
0.000469375
0.000465479
0.00046157
0.000457648
0.000453722
0.000449798
0.000445886
0.000441999
0.00043815
0.000434354
0.000430626
0.000426996
0.000423486
0.000420117
0.000416906
0.00041387
0.00041102
0.000408366
0.00040591
0.000403655
0.000401598
0.00039973
0.000398043
0.00039652
0.000395146
0.0003939
0.000392756
0.000391685
0.000390656
0.000389626
0.000388549
0.000387365
0.000386007
0.000384434
0.000382782
4.39687e-06
3.49655e-05
6.84787e-05
9.59298e-05
0.000118161
0.000136618
0.000152488
0.000166669
0.000179809
0.000192365
0.000204641
0.000216825
0.000229024
0.000241288
0.000253631
0.000266041
0.000278497
0.000290969
0.000303426
0.000315837
0.000328172
0.000340403
0.000352505
0.000364456
0.000376234
0.00038782
0.000399198
0.000410352
0.000421269
0.000431935
0.00044234
0.000452474
0.000462328
0.000471896
0.00048117
0.000490146
0.00049882
0.000507187
0.000515247
0.000522996
0.000530436
0.000537565
0.000544384
0.000550895
0.000557099
0.000563001
0.000568604
0.000573912
0.000578931
0.000583667
0.000588128
0.000592323
0.000596262
0.000599957
0.000603419
0.000606675
0.00060976
0.000612706
0.000615539
0.000618284
0.000620964
0.000623599
0.000626208
0.000628806
0.000631409
0.000634027
0.000636672
0.000639349
0.000642064
0.000644819
0.000647611
0.000650438
0.000653294
0.00065617
0.000659057
0.000661944
0.000664813
0.000667638
0.0006704
0.000673083
0.000675664
0.000678121
0.000680427
0.000682561
0.000684501
0.000686227
0.000687719
0.000688959
0.000689933
0.000690627
0.000691031
0.000691137
0.000690938
0.000690432
0.000689618
0.000688497
0.000687071
0.000685348
0.000683334
0.000681038
0.000678471
0.000675645
0.000672572
0.000669267
0.000665745
0.000662022
0.000658112
0.000654033
0.000649802
0.000645434
0.000640946
0.000636355
0.000631677
0.000626929
0.000622125
0.000617281
0.000612412
0.000607532
0.000602655
0.000597793
0.000592959
0.000588163
0.000583416
0.000578727
0.000574105