/*--------------------------------*- C++ -*----------------------------------*\
  =========                 |
  \\      /  F ield         | OpenFOAM: The Open Source CFD Toolbox
   \\    /   O peration     | Website:  https://openfoam.org
    \\  /    A nd           | Version:  6
     \\/     M anipulation  |
\*---------------------------------------------------------------------------*/
FoamFile
{
    version     2.0;
    format      ascii;
    class       volScalarField;
    location    "0.25";
    object      p;
}
// * * * * * * * * * * * * * * * * * * * * * * * * * * * * * * * * * * * * * //

dimensions      [0 2 -2 0 0 0 0];

internalField   nonuniform List<scalar> 
12225
(
0.305105
0.0527505
-0.025104
-0.0353335
-0.0394888
-0.043637
-0.0456637
-0.0464703
-0.0470844
-0.047643
-0.0480613
-0.0483401
-0.0485049
-0.0485529
-0.0484858
-0.0482341
-0.0480642
-0.0470742
-0.0767448
-0.0464702
-0.0454228
-0.0386946
-0.0389804
-0.0425221
-0.0447897
-0.0459135
-0.0467284
-0.0473901
-0.0478656
-0.0481809
-0.0483703
-0.0484337
-0.0483772
-0.0481289
-0.047871
-0.0471262
-0.113756
-0.042735
-0.0407945
-0.0381907
-0.0386805
-0.0418102
-0.0440224
-0.0452588
-0.0461795
-0.046915
-0.0474486
-0.0478115
-0.0480371
-0.0481269
-0.0480887
-0.0478525
-0.0475603
-0.0466643
-0.0683883
-0.0295035
-0.0373074
-0.0383176
-0.0389766
-0.0416137
-0.0436124
-0.0448291
-0.0457722
-0.0465357
-0.047103
-0.0474999
-0.0477551
-0.0478705
-0.047852
-0.0476424
-0.0473204
-0.0465124
-0.0479728
-0.0295467
-0.0377672
-0.0390211
-0.0395301
-0.0417083
-0.0434745
-0.0446278
-0.0455497
-0.0463073
-0.0468836
-0.0472978
-0.0475726
-0.0477099
-0.0477129
-0.0475408
-0.04723
-0.0465925
-0.0456167
-0.0338312
-0.0389372
-0.0397229
-0.0401358
-0.0419323
-0.0434842
-0.0445649
-0.0454489
-0.0461848
-0.046757
-0.0471795
-0.0474693
-0.0476287
-0.0476592
-0.0475356
-0.0472746
-0.0468055
-0.0454823
-0.0367421
-0.0396666
-0.0403152
-0.0407362
-0.0422229
-0.0435833
-0.0445902
-0.0454303
-0.0461385
-0.0467015
-0.0471288
-0.0474331
-0.0476174
-0.0476834
-0.0476189
-0.0474337
-0.0471231
-0.0444939
-0.0383616
-0.0401843
-0.0408529
-0.0413103
-0.0425499
-0.0437442
-0.0446797
-0.0454753
-0.0461549
-0.0467076
-0.0471394
-0.0474601
-0.0476734
-0.0477828
-0.0477857
-0.0476922
-0.0475314
-0.0435061
-0.0395151
-0.0406925
-0.0413569
-0.0418452
-0.0428932
-0.0439471
-0.0448169
-0.0455706
-0.046224
-0.0467678
-0.047206
-0.0475461
-0.0477932
-0.0479525
-0.0480287
-0.0480346
-0.0480127
-0.0429313
-0.0404593
-0.0412048
-0.0418266
-0.0423362
-0.0432396
-0.0441772
-0.0449883
-0.0457051
-0.0463365
-0.0468749
-0.0473225
-0.047686
-0.0479712
-0.0481855
-0.0483381
-0.0484441
-0.0485484
-0.0426962
-0.0412228
-0.0417
-0.0422658
-0.0427864
-0.0435819
-0.0444244
-0.0451842
-0.0458698
-0.0464842
-0.0470212
-0.0474821
-0.0478728
-0.0481999
-0.0484722
-0.0487013
-0.0489038
-0.0491207
-0.0426749
-0.0417894
-0.0421327
-0.0426483
-0.0431688
-0.0438895
-0.0446607
-0.0453796
-0.0460414
-0.0466449
-0.0471845
-0.047661
-0.0480796
-0.0484474
-0.0487737
-0.049071
-0.0493553
-0.049663
-0.0427698
-0.0422741
-0.0425323
-0.0430044
-0.0435214
-0.0441841
-0.0448988
-0.0455851
-0.046229
-0.0468263
-0.0473722
-0.0478669
-0.0483153
-0.0487244
-0.0491036
-0.0494652
-0.0498242
-0.0502098
-0.0429767
-0.042751
-0.0429609
-0.0433903
-0.0438962
-0.0445087
-0.045173
-0.0458294
-0.0464586
-0.0470537
-0.0476105
-0.0481288
-0.0486127
-0.0490687
-0.0495058
-0.0499349
-0.0503691
-0.0508297
-0.0432842
-0.0432165
-0.0434093
-0.0438007
-0.0442878
-0.0448598
-0.0454823
-0.0461135
-0.0467325
-0.0473306
-0.0479035
-0.0484506
-0.0489749
-0.0494819
-0.0499791
-0.0504754
-0.050981
-0.0515103
-0.0436573
-0.0436668
-0.0438575
-0.0442199
-0.044686
-0.045228
-0.0458204
-0.0464339
-0.0470494
-0.0476569
-0.0482515
-0.0488319
-0.0493996
-0.0499586
-0.0505144
-0.0510731
-0.0516417
-0.0522291
-0.0440424
-0.0440831
-0.0442749
-0.0446193
-0.0450692
-0.0455938
-0.0461708
-0.0467784
-0.0473996
-0.048024
-0.0486458
-0.0492625
-0.0498742
-0.0504828
-0.0510914
-0.0517036
-0.0523232
-0.052955
-0.0443667
-0.0444176
-0.0446095
-0.0449473
-0.0453937
-0.0459181
-0.0464989
-0.0471172
-0.0477575
-0.0484086
-0.0490637
-0.0497191
-0.0503733
-0.0510262
-0.0516788
-0.0523323
-0.0529883
-0.0536488
-0.0445292
-0.0445798
-0.0447689
-0.0451125
-0.045576
-0.0461248
-0.0467356
-0.0473892
-0.0480686
-0.0487614
-0.0494597
-0.0501584
-0.0508548
-0.0515473
-0.0522353
-0.0529186
-0.0535974
-0.054272
-0.044418
-0.0444409
-0.0446117
-0.044977
-0.0454851
-0.0460873
-0.0467577
-0.0474722
-0.0482088
-0.0489531
-0.0496972
-0.0504361
-0.0511666
-0.0518873
-0.0525973
-0.0532963
-0.0539842
-0.0546607
-0.0442185
-0.0441458
-0.0442665
-0.0446684
-0.0452324
-0.0458954
-0.0466371
-0.0474228
-0.0482213
-0.0490177
-0.0498056
-0.0505807
-0.0513404
-0.0520836
-0.0528101
-0.0535201
-0.0542137
-0.0548907
-0.0440898
-0.0437199
-0.0437353
-0.0442144
-0.0448476
-0.0455817
-0.0464156
-0.0472885
-0.0481561
-0.0490076
-0.0498401
-0.0506504
-0.0514367
-0.0521995
-0.0529397
-0.0536581
-0.0543554
-0.0550316
-0.0442859
-0.043206
-0.04305
-0.0436538
-0.0443429
-0.0451593
-0.0461179
-0.0470965
-0.0480394
-0.0489491
-0.0498283
-0.0506738
-0.0514859
-0.052267
-0.0530196
-0.0537456
-0.0544465
-0.0551221
-0.0448338
-0.0424747
-0.0422658
-0.0430498
-0.0437178
-0.0446345
-0.0457688
-0.0468743
-0.0478983
-0.048871
-0.0497996
-0.0506807
-0.0515174
-0.0523153
-0.053079
-0.0538115
-0.0545152
-0.05519
-0.0451057
-0.0405355
-0.0411271
-0.0423903
-0.0429573
-0.0440234
-0.0454032
-0.0466573
-0.0477679
-0.0488082
-0.0497881
-0.0507035
-0.0515619
-0.0523736
-0.0531455
-0.053882
-0.0545867
-0.0552594
-0.0468513
-0.0361262
-0.038866
-0.0413873
-0.0419901
-0.0433554
-0.0450676
-0.0464907
-0.047693
-0.0488031
-0.0498315
-0.050775
-0.0516485
-0.0524679
-0.0532425
-0.0539782
-0.0546801
-0.0553483
-0.0638732
-0.0341004
-0.0366235
-0.0399912
-0.0408089
-0.042724
-0.0448526
-0.0464568
-0.0477507
-0.0489221
-0.0499842
-0.0509395
-0.0518134
-0.0526277
-0.0533945
-0.0541208
-0.0548132
-0.0554719
-0.108008
-0.0473936
-0.0406616
-0.039808
-0.0399804
-0.0424966
-0.045014
-0.0467463
-0.0480894
-0.0492812
-0.0503372
-0.0512694
-0.052115
-0.0529018
-0.0536426
-0.0543449
-0.0550161
-0.0556584
-0.0876367
-0.0572311
-0.0505622
-0.0420455
-0.0404447
-0.043259
-0.0458875
-0.0475238
-0.0487671
-0.0498847
-0.0508733
-0.0517413
-0.0525302
-0.0532693
-0.05397
-0.0546368
-0.0552759
-0.0559023
0.276679
0.0569441
-0.0201938
-0.0333452
-0.03871
-0.0438908
-0.0469305
-0.0483629
-0.0493533
-0.0502937
-0.0511663
-0.051954
-0.0526857
-0.0533834
-0.0540524
-0.0546914
-0.0552953
-0.0558442
-0.0750267
-0.0751144
-0.0754725
-0.0759366
-0.0763075
-0.076591
-0.0768749
-0.077214
-0.0776386
-0.0781701
-0.0788267
-0.0796288
-0.0805999
-0.0817625
-0.0831346
-0.0847272
-0.0865421
-0.0885707
-0.090795
-0.0931883
-0.0957177
-0.0983462
-0.101036
-0.10375
-0.106455
-0.109119
-0.111718
-0.11423
-0.11664
-0.118933
-0.121103
-0.123141
-0.125045
-0.12681
-0.128436
-0.12992
-0.131263
-0.132461
-0.133514
-0.134418
-0.135172
-0.135772
-0.136212
-0.13649
-0.136597
-0.136529
-0.136279
-0.135838
-0.1352
-0.134357
-0.1333
-0.132027
-0.130534
-0.128814
-0.126846
-0.124594
-0.122043
-0.119197
-0.116053
-0.112605
-0.108848
-0.104776
-0.100386
-0.0956742
-0.0906404
-0.0852858
-0.0796138
-0.0736305
-0.0673441
-0.0607659
-0.0539096
-0.0467917
-0.0394313
-0.03185
-0.0240719
-0.0161232
-0.00803213
0.000171556
0.00845676
0.0167915
0.0251432
0.0334792
0.0417672
0.0499754
0.0580735
0.0660321
0.0738241
0.081424
0.0888088
0.095958
0.102854
0.10948
0.115825
0.121877
0.127629
0.133076
0.138216
0.143053
0.147599
0.151855
0.155818
0.159494
0.162892
0.166022
0.168894
0.17152
0.173912
0.176081
0.178039
0.179799
0.181373
0.182773
0.18401
0.185096
0.186041
0.186857
0.187552
0.188137
0.188621
0.189011
0.189316
0.189544
0.1897
0.189792
0.189824
0.189803
0.189734
0.18962
0.189466
0.189275
0.189051
0.188797
0.188515
0.188209
0.18788
0.18753
0.187163
0.186779
0.186382
0.185973
0.185554
0.185127
0.184695
0.18426
0.183824
0.183389
0.182958
0.182533
0.182118
0.181714
0.181328
0.180948
0.180566
0.180194
0.179839
0.179501
0.17918
0.178876
0.178591
0.178324
0.178074
0.177844
0.177632
0.17744
0.177269
0.17712
0.176995
0.176898
0.176834
0.176808
0.17683
0.176914
0.177079
0.177353
0.177785
0.178445
0.179473
0.181061
0.183775
0.187577
-0.0751695
-0.0756151
-0.0760635
-0.0763761
-0.076477
-0.0763896
-0.0762578
-0.0762364
-0.0763966
-0.0767349
-0.0772416
-0.077938
-0.0788528
-0.0800119
-0.0814332
-0.0831227
-0.0850729
-0.0872629
-0.0896607
-0.0922263
-0.0949152
-0.0976824
-0.100485
-0.103284
-0.106046
-0.108743
-0.111355
-0.113865
-0.116261
-0.118536
-0.120683
-0.1227
-0.124584
-0.126336
-0.127954
-0.129437
-0.130786
-0.131998
-0.133073
-0.134009
-0.134802
-0.135448
-0.135944
-0.136285
-0.136464
-0.136475
-0.136311
-0.135963
-0.135423
-0.134681
-0.133726
-0.132546
-0.131125
-0.129448
-0.127509
-0.125317
-0.122871
-0.120152
-0.117146
-0.113846
-0.110241
-0.106327
-0.102099
-0.0975527
-0.0926871
-0.0875026
-0.0820018
-0.0761899
-0.0700744
-0.0636651
-0.056975
-0.0500193
-0.042816
-0.0353857
-0.0277512
-0.0199377
-0.0119723
-0.00388375
0.00429769
0.0125408
0.0208138
0.0290846
0.0373212
0.0454923
0.0535674
0.0615175
0.0693149
0.0769341
0.0843518
0.0915469
0.0985008
0.105198
0.111624
0.117771
0.123628
0.129193
0.13446
0.139422
0.144071
0.148415
0.152469
0.156241
0.159738
0.162969
0.165946
0.168676
0.171173
0.173447
0.17551
0.177373
0.179049
0.180547
0.181881
0.183061
0.184098
0.185001
0.185782
0.186448
0.18701
0.187476
0.187853
0.18815
0.188372
0.188526
0.188619
0.188656
0.188641
0.18858
0.188477
0.188334
0.188157
0.187948
0.18771
0.187446
0.187158
0.186849
0.186521
0.186176
0.185816
0.185444
0.185062
0.184672
0.184276
0.183876
0.183474
0.183073
0.182675
0.182283
0.181899
0.181524
0.181154
0.180789
0.180436
0.180093
0.179762
0.179445
0.179142
0.178854
0.178582
0.178325
0.178085
0.177862
0.177656
0.177468
0.1773
0.177153
0.177029
0.176932
0.176866
0.176839
0.176858
0.176937
0.177094
0.177358
0.17777
0.178394
0.179347
0.180767
0.18311
0.18626
-0.0734996
-0.0743343
-0.0750234
-0.0753662
-0.0754656
-0.0754605
-0.0754658
-0.0755727
-0.0758397
-0.0763017
-0.0769839
-0.0779081
-0.0790882
-0.0805275
-0.0822176
-0.0841398
-0.0862674
-0.0885676
-0.0910047
-0.0935425
-0.0961457
-0.0987817
-0.101421
-0.104039
-0.106613
-0.109125
-0.111562
-0.113912
-0.116166
-0.118316
-0.120358
-0.122289
-0.124104
-0.125802
-0.127381
-0.128838
-0.130173
-0.131382
-0.132464
-0.133414
-0.13423
-0.134908
-0.135442
-0.135828
-0.136059
-0.136129
-0.13603
-0.135755
-0.135295
-0.134642
-0.133785
-0.132715
-0.131418
-0.12988
-0.128092
-0.126051
-0.12375
-0.12118
-0.118329
-0.11519
-0.111753
-0.108013
-0.103962
-0.0995989
-0.0949197
-0.0899245
-0.0846152
-0.0789959
-0.0730731
-0.0668557
-0.0603555
-0.0535866
-0.0465659
-0.0393126
-0.0318486
-0.0241977
-0.016386
-0.00844128
-0.000392651
0.00772955
0.0158943
0.0240701
0.0322257
0.04033
0.048353
0.0562656
0.0640402
0.0716513
0.0790751
0.0862901
0.0932774
0.100021
0.106506
0.112722
0.118661
0.124316
0.129681
0.134753
0.13953
0.144017
0.148219
0.15214
0.155787
0.159169
0.162294
0.165173
0.167815
0.170231
0.172433
0.174432
0.17624
0.177866
0.179324
0.180623
0.181775
0.182788
0.183675
0.184443
0.185102
0.18566
0.186125
0.186506
0.186808
0.187039
0.187205
0.187311
0.187362
0.187365
0.187321
0.187237
0.187116
0.18696
0.186774
0.18656
0.186321
0.186059
0.185778
0.185478
0.185164
0.184835
0.184496
0.184148
0.183794
0.183435
0.183073
0.182711
0.182352
0.181996
0.181647
0.181304
0.180965
0.180632
0.180308
0.179991
0.179684
0.179388
0.179105
0.178834
0.178576
0.178333
0.178103
0.177889
0.17769
0.177507
0.177342
0.177197
0.177074
0.176977
0.17691
0.176879
0.176895
0.176968
0.177117
0.177368
0.177758
0.178341
0.179211
0.180453
0.182353
0.184531
-0.0707553
-0.0720061
-0.0732308
-0.0739562
-0.074368
-0.0746879
-0.0750406
-0.0755017
-0.0761208
-0.0769294
-0.0779468
-0.0791816
-0.0806328
-0.0822904
-0.0841371
-0.0861506
-0.0883056
-0.0905752
-0.0929328
-0.0953525
-0.0978099
-0.100282
-0.10275
-0.105193
-0.107598
-0.109949
-0.112235
-0.114448
-0.116578
-0.11862
-0.120568
-0.122418
-0.124167
-0.125812
-0.12735
-0.128778
-0.130094
-0.131295
-0.132377
-0.133337
-0.134172
-0.134876
-0.135444
-0.13587
-0.136149
-0.136272
-0.136233
-0.136023
-0.135633
-0.135054
-0.134276
-0.13329
-0.132084
-0.130648
-0.128973
-0.12705
-0.124872
-0.122428
-0.119707
-0.116701
-0.113402
-0.109801
-0.105893
-0.101673
-0.0971383
-0.0922883
-0.0871237
-0.081648
-0.0758668
-0.0697884
-0.0634236
-0.0567859
-0.0498913
-0.0427585
-0.0354084
-0.0278644
-0.020152
-0.0122983
-0.00433195
0.00371704
0.011818
0.0199398
0.0280513
0.0361215
0.0441205
0.0520191
0.0597897
0.0674065
0.0748455
0.0820849
0.0891054
0.09589
0.102424
0.108696
0.114696
0.120418
0.125857
0.131011
0.13588
0.140464
0.144766
0.148791
0.152543
0.156031
0.159263
0.162248
0.164996
0.167517
0.169823
0.171924
0.173831
0.175556
0.177109
0.178501
0.179743
0.180844
0.181815
0.182664
0.183402
0.184035
0.184574
0.185024
0.185393
0.185688
0.185915
0.18608
0.186189
0.186245
0.186255
0.186221
0.186148
0.18604
0.185899
0.18573
0.185534
0.185314
0.185074
0.184815
0.18454
0.184251
0.183951
0.183641
0.183323
0.183001
0.182675
0.182349
0.182023
0.1817
0.181381
0.181067
0.180756
0.180451
0.180152
0.179861
0.179579
0.179305
0.179042
0.17879
0.178549
0.178319
0.178102
0.177898
0.177707
0.17753
0.17737
0.177228
0.177107
0.177009
0.17694
0.176905
0.176914
0.176978
0.177113
0.177342
0.177697
0.17822
0.178978
0.180012
0.181459
0.182868
-0.0684844
-0.0700916
-0.0718201
-0.0729795
-0.0737679
-0.074448
-0.0751559
-0.0759661
-0.0769238
-0.0780528
-0.0793608
-0.0808456
-0.0824977
-0.084303
-0.0862439
-0.0883007
-0.0904531
-0.0926806
-0.094963
-0.0972813
-0.0996178
-0.101956
-0.104281
-0.106579
-0.108839
-0.11105
-0.113203
-0.115291
-0.117307
-0.119247
-0.121104
-0.122875
-0.124557
-0.126146
-0.12764
-0.129034
-0.130326
-0.131513
-0.132591
-0.133555
-0.134401
-0.135125
-0.13572
-0.13618
-0.136499
-0.136669
-0.136683
-0.136532
-0.136207
-0.135699
-0.134997
-0.134092
-0.132973
-0.13163
-0.130052
-0.128231
-0.126156
-0.123817
-0.121203
-0.118306
-0.115116
-0.111626
-0.107828
-0.103719
-0.0992931
-0.09455
-0.0894901
-0.0841159
-0.0784326
-0.0724479
-0.0661721
-0.0596182
-0.0528019
-0.0457413
-0.0384573
-0.0309729
-0.0233133
-0.0155057
-0.00757875
0.000437769
0.00851308
0.016616
0.0247151
0.0327796
0.0407791
0.0486844
0.0564677
0.0641028
0.0715657
0.0788343
0.085889
0.0927123
0.0992895
0.105608
0.111658
0.117433
0.122928
0.128141
0.13307
0.137716
0.142083
0.146175
0.149996
0.153555
0.156858
0.159916
0.162737
0.165332
0.167711
0.169885
0.171865
0.173661
0.175284
0.176745
0.178055
0.179222
0.180257
0.181169
0.181967
0.18266
0.183255
0.183761
0.184184
0.184531
0.184808
0.185021
0.185176
0.185278
0.185331
0.185339
0.185307
0.185238
0.185137
0.185004
0.184845
0.184662
0.184456
0.184232
0.183991
0.183735
0.183467
0.183189
0.182903
0.182612
0.182316
0.182019
0.181722
0.181426
0.181133
0.180843
0.180557
0.180275
0.179999
0.17973
0.179468
0.179215
0.17897
0.178734
0.178507
0.178291
0.178085
0.17789
0.177707
0.177537
0.177381
0.177242
0.177121
0.177023
0.17695
0.176911
0.176911
0.176962
0.177077
0.177277
0.177585
0.178034
0.178665
0.179482
0.180533
0.181378
-0.0675692
-0.0693843
-0.0713999
-0.072868
-0.0739639
-0.0749481
-0.0759524
-0.077044
-0.0782621
-0.0796246
-0.0811341
-0.0827837
-0.0845608
-0.0864504
-0.0884358
-0.0905001
-0.0926266
-0.0947995
-0.0970037
-0.099225
-0.101451
-0.103668
-0.105868
-0.108039
-0.110173
-0.112262
-0.1143
-0.11628
-0.118198
-0.120047
-0.121825
-0.123526
-0.125149
-0.126689
-0.128143
-0.129508
-0.130779
-0.131954
-0.133029
-0.133998
-0.134857
-0.1356
-0.136222
-0.136715
-0.137074
-0.137289
-0.137354
-0.13726
-0.136996
-0.136555
-0.135924
-0.135095
-0.134055
-0.132796
-0.131305
-0.129572
-0.127587
-0.125339
-0.122818
-0.120012
-0.116914
-0.113514
-0.109806
-0.105783
-0.101442
-0.0967798
-0.0917972
-0.0864961
-0.0808812
-0.0749597
-0.0687418
-0.06224
-0.05547
-0.0484498
-0.0412002
-0.0337444
-0.0261076
-0.0183172
-0.0104021
-0.00239227
0.00568117
0.0137867
0.0218928
0.0299682
0.0379823
0.0459057
0.0537103
0.0613697
0.0688598
0.0761581
0.0832449
0.0901025
0.0967158
0.103073
0.109163
0.114981
0.120519
0.125776
0.130751
0.135445
0.139861
0.144003
0.147876
0.151488
0.154846
0.157959
0.160836
0.163487
0.165923
0.168153
0.170189
0.172041
0.17372
0.175237
0.1766
0.177821
0.178908
0.179872
0.18072
0.181461
0.182104
0.182656
0.183124
0.183515
0.183834
0.184089
0.184284
0.184424
0.184515
0.18456
0.184564
0.18453
0.184461
0.184362
0.184235
0.184083
0.183908
0.183714
0.183502
0.183275
0.183035
0.182785
0.182526
0.182261
0.181992
0.18172
0.181447
0.181174
0.180904
0.180635
0.18037
0.180109
0.179852
0.179602
0.179358
0.179121
0.178892
0.17867
0.178456
0.178252
0.178056
0.177869
0.177694
0.177529
0.177377
0.17724
0.17712
0.17702
0.176944
0.176897
0.176886
0.17692
0.177012
0.177176
0.177431
0.177797
0.178295
0.178906
0.179624
0.180045
-0.0681632
-0.0699875
-0.0720609
-0.0736725
-0.074955
-0.0761381
-0.0773379
-0.0786115
-0.0799908
-0.0814896
-0.0831082
-0.0848383
-0.0866674
-0.0885809
-0.090564
-0.0926022
-0.0946817
-0.0967899
-0.098915
-0.101046
-0.103173
-0.105288
-0.107382
-0.109447
-0.111477
-0.113467
-0.11541
-0.117301
-0.119137
-0.120913
-0.122625
-0.12427
-0.125845
-0.127346
-0.12877
-0.130112
-0.13137
-0.13254
-0.133616
-0.134594
-0.135469
-0.136235
-0.136886
-0.137415
-0.137814
-0.138076
-0.138192
-0.138154
-0.13795
-0.137572
-0.13701
-0.136252
-0.135287
-0.134104
-0.132691
-0.131039
-0.129134
-0.126967
-0.124526
-0.1218
-0.118779
-0.115455
-0.11182
-0.107867
-0.103592
-0.0989922
-0.0940667
-0.0888176
-0.0832491
-0.0773685
-0.0711854
-0.0647127
-0.0579657
-0.0509627
-0.0437247
-0.0362752
-0.0286396
-0.0208458
-0.0129231
-0.00490195
0.00318616
0.0113093
0.0194354
0.0275328
0.0355708
0.0435194
0.0513505
0.0590375
0.0665559
0.0738832
0.0809993
0.0878869
0.0945313
0.10092
0.107044
0.112895
0.118468
0.123761
0.128772
0.133503
0.137958
0.142139
0.146053
0.149707
0.153107
0.156264
0.159185
0.161882
0.164363
0.166639
0.168721
0.170619
0.172344
0.173906
0.175314
0.17658
0.177711
0.178718
0.179609
0.180392
0.181076
0.181668
0.182175
0.182604
0.182961
0.183252
0.183482
0.183657
0.183781
0.183858
0.183894
0.183891
0.183853
0.183783
0.183685
0.183561
0.183414
0.183246
0.183061
0.182859
0.182645
0.182419
0.182184
0.181942
0.181695
0.181445
0.181193
0.180941
0.18069
0.18044
0.180193
0.17995
0.17971
0.179476
0.179248
0.179026
0.17881
0.178601
0.178399
0.178204
0.178017
0.177839
0.17767
0.17751
0.177362
0.177226
0.177106
0.177003
0.176922
0.176866
0.176842
0.176858
0.176923
0.177047
0.177244
0.177523
0.177891
0.178311
0.17875
0.178846
-0.0699105
-0.0716036
-0.0735642
-0.0751744
-0.0765221
-0.0777941
-0.0790861
-0.080444
-0.0818932
-0.083444
-0.0850955
-0.0868399
-0.0886654
-0.090559
-0.0925071
-0.0944973
-0.0965176
-0.0985571
-0.100606
-0.102656
-0.104698
-0.106726
-0.108732
-0.110711
-0.112658
-0.114567
-0.116435
-0.118257
-0.12003
-0.121749
-0.123412
-0.125016
-0.126556
-0.12803
-0.129435
-0.130766
-0.13202
-0.133192
-0.134278
-0.135272
-0.136169
-0.136963
-0.137648
-0.138215
-0.138658
-0.138968
-0.139137
-0.139154
-0.139011
-0.138696
-0.138199
-0.137509
-0.136615
-0.135504
-0.134164
-0.132585
-0.130754
-0.12866
-0.12629
-0.123634
-0.120681
-0.117421
-0.113846
-0.10995
-0.105727
-0.101174
-0.0962899
-0.0910764
-0.0855377
-0.0796807
-0.0735152
-0.0670538
-0.0603124
-0.0533094
-0.0460661
-0.0386064
-0.0309563
-0.0231442
-0.0151999
-0.00715461
0.000959802
0.00911084
0.0172659
0.0253929
0.0334607
0.0414392
0.0492997
0.0570155
0.0645618
0.0719166
0.0790599
0.0859747
0.0926461
0.0990619
0.105212
0.11109
0.116691
0.122011
0.127052
0.131812
0.136297
0.140509
0.144455
0.148142
0.151577
0.154768
0.157725
0.160458
0.162976
0.16529
0.16741
0.169347
0.17111
0.17271
0.174157
0.175461
0.176631
0.177675
0.178603
0.179423
0.180143
0.18077
0.181312
0.181775
0.182165
0.182489
0.182751
0.182957
0.183111
0.183219
0.183283
0.183308
0.183298
0.183255
0.183183
0.183084
0.182962
0.182819
0.182657
0.182479
0.182287
0.182083
0.18187
0.181648
0.181421
0.18119
0.180957
0.180723
0.180489
0.180256
0.180025
0.179797
0.179573
0.179353
0.179138
0.178929
0.178725
0.178527
0.178336
0.17815
0.177972
0.1778
0.177637
0.177481
0.177336
0.177202
0.17708
0.176974
0.176887
0.176822
0.176783
0.176778
0.176813
0.176895
0.177031
0.177224
0.177467
0.177716
0.177922
0.177767
-0.0723256
-0.0738084
-0.0755525
-0.0770572
-0.0783745
-0.0796468
-0.0809486
-0.0823154
-0.0837659
-0.0853076
-0.086939
-0.0886526
-0.0904378
-0.0922829
-0.0941757
-0.0961047
-0.0980593
-0.10003
-0.102007
-0.103984
-0.105953
-0.107908
-0.109844
-0.111755
-0.113637
-0.115486
-0.117297
-0.119069
-0.120796
-0.122477
-0.124107
-0.125685
-0.127206
-0.128667
-0.130066
-0.131397
-0.132657
-0.133842
-0.134946
-0.135964
-0.13689
-0.137719
-0.138442
-0.139053
-0.139543
-0.139904
-0.140127
-0.140202
-0.140119
-0.139867
-0.139435
-0.138811
-0.137984
-0.136941
-0.13567
-0.13416
-0.132397
-0.130368
-0.128063
-0.125468
-0.122573
-0.119368
-0.115844
-0.111993
-0.107811
-0.103292
-0.0984375
-0.0932471
-0.0877253
-0.0818789
-0.0757178
-0.0692549
-0.0625064
-0.0554909
-0.0482304
-0.0407492
-0.0330739
-0.0252336
-0.0172588
-0.00918128
-0.00103357
0.00715126
0.01534
0.0235002
0.0316001
0.0396092
0.0474989
0.0552425
0.0628154
0.0701956
0.0773632
0.0843011
0.0909947
0.097432
0.103604
0.109503
0.115124
0.120466
0.125528
0.130311
0.134819
0.139056
0.143027
0.14674
0.150202
0.153421
0.156408
0.15917
0.16172
0.164065
0.166218
0.168187
0.169983
0.171617
0.173098
0.174435
0.175638
0.176716
0.177677
0.17853
0.179283
0.179942
0.180516
0.18101
0.18143
0.181784
0.182075
0.18231
0.182492
0.182627
0.182718
0.18277
0.182785
0.182767
0.182719
0.182645
0.182545
0.182425
0.182285
0.182128
0.181956
0.181772
0.181578
0.181375
0.181166
0.180953
0.180736
0.180518
0.180299
0.180081
0.179864
0.17965
0.179439
0.179232
0.179029
0.178831
0.178638
0.17845
0.178268
0.178091
0.17792
0.177755
0.177596
0.177445
0.177302
0.177168
0.177045
0.176935
0.176841
0.176765
0.176711
0.176684
0.176687
0.176726
0.176802
0.17691
0.177038
0.177134
0.177145
0.176796
-0.0749646
-0.0761998
-0.0776734
-0.0790073
-0.0802281
-0.0814384
-0.0826927
-0.0840166
-0.0854232
-0.0869169
-0.0884954
-0.0901515
-0.0918757
-0.0936571
-0.0954845
-0.0973475
-0.099236
-0.101141
-0.103054
-0.104969
-0.106877
-0.108775
-0.110656
-0.112516
-0.114352
-0.116158
-0.117933
-0.119672
-0.121373
-0.123032
-0.124647
-0.126214
-0.127731
-0.129194
-0.1306
-0.131943
-0.133221
-0.134429
-0.135561
-0.136611
-0.137574
-0.138443
-0.139211
-0.13987
-0.140411
-0.140826
-0.141106
-0.141239
-0.141216
-0.141026
-0.140657
-0.140098
-0.139335
-0.138357
-0.137151
-0.135704
-0.134003
-0.132034
-0.129786
-0.127246
-0.124401
-0.121242
-0.117759
-0.113945
-0.109793
-0.1053
-0.100464
-0.0952868
-0.0897718
-0.0839262
-0.0777599
-0.0712864
-0.0645219
-0.0574858
-0.0502004
-0.0426908
-0.0349843
-0.0271107
-0.019101
-0.0109878
-0.00280454
0.00541499
0.0136373
0.0218296
0.02996
0.0379977
0.0459141
0.0536824
0.061278
0.0686789
0.0758656
0.082821
0.089531
0.0959838
0.10217
0.108084
0.113721
0.119078
0.124155
0.128955
0.13348
0.137734
0.141725
0.145458
0.148942
0.152184
0.155195
0.157983
0.160558
0.162931
0.165112
0.16711
0.168936
0.170599
0.17211
0.173478
0.174711
0.17582
0.176812
0.177695
0.178478
0.179167
0.17977
0.180293
0.180742
0.181123
0.181442
0.181704
0.181913
0.182074
0.18219
0.182266
0.182306
0.182311
0.182286
0.182234
0.182156
0.182057
0.181937
0.1818
0.181647
0.181482
0.181305
0.18112
0.180927
0.180729
0.180527
0.180323
0.180119
0.179914
0.17971
0.179508
0.179309
0.179113
0.178921
0.178733
0.17855
0.178371
0.178197
0.178027
0.177863
0.177703
0.177549
0.177401
0.17726
0.177127
0.177002
0.176888
0.176786
0.176698
0.176628
0.176578
0.17655
0.176544
0.176561
0.176589
0.17661
0.176573
0.176422
0.175921
-0.0774615
-0.0784392
-0.0796229
-0.080751
-0.0818357
-0.0829455
-0.0841171
-0.0853675
-0.0867044
-0.0881293
-0.0896388
-0.0912258
-0.0928813
-0.0945951
-0.0963568
-0.0981565
-0.0999847
-0.101833
-0.103692
-0.105557
-0.10742
-0.109276
-0.111119
-0.112947
-0.114754
-0.116537
-0.118292
-0.120018
-0.12171
-0.123365
-0.124981
-0.126555
-0.128083
-0.129562
-0.130988
-0.132356
-0.133663
-0.134904
-0.136072
-0.137163
-0.13817
-0.139085
-0.139902
-0.140613
-0.141208
-0.141679
-0.142015
-0.142208
-0.142245
-0.142115
-0.141807
-0.141309
-0.140607
-0.13969
-0.138544
-0.137155
-0.13551
-0.133595
-0.131397
-0.128903
-0.1261
-0.122979
-0.119529
-0.115743
-0.111613
-0.107136
-0.102311
-0.0971387
-0.0916228
-0.0857706
-0.0795926
-0.0731023
-0.0663166
-0.0592554
-0.0519416
-0.044401
-0.0366621
-0.028755
-0.0207113
-0.0125643
-0.00434802
0.00390326
0.0121556
0.0203759
0.0285319
0.0365928
0.0445297
0.0523161
0.0599275
0.067342
0.0745404
0.0815061
0.0882252
0.0946864
0.100881
0.106802
0.112447
0.117812
0.122899
0.127709
0.132246
0.136513
0.140518
0.144267
0.147767
0.151028
0.154059
0.156868
0.159467
0.161863
0.164069
0.166093
0.167945
0.169636
0.171174
0.17257
0.173833
0.17497
0.17599
0.176902
0.177713
0.178431
0.179062
0.179612
0.180089
0.180497
0.180843
0.18113
0.181364
0.18155
0.181691
0.18179
0.181853
0.181881
0.181878
0.181846
0.181789
0.181709
0.181609
0.18149
0.181356
0.181207
0.181047
0.180878
0.1807
0.180517
0.180329
0.180138
0.179946
0.179753
0.179561
0.17937
0.179182
0.178996
0.178814
0.178635
0.17846
0.17829
0.178123
0.17796
0.177801
0.177647
0.177497
0.177352
0.177212
0.177079
0.176952
0.176833
0.176723
0.176624
0.176537
0.176463
0.176403
0.176355
0.176314
0.176268
0.176193
0.176038
0.175753
0.175132
-0.0795313
-0.0802598
-0.0811577
-0.0820687
-0.0829988
-0.0839891
-0.0850612
-0.0862241
-0.0874809
-0.0888304
-0.0902679
-0.0917859
-0.0933755
-0.0950271
-0.0967307
-0.0984767
-0.100256
-0.102059
-0.10388
-0.10571
-0.107544
-0.109375
-0.1112
-0.113013
-0.11481
-0.116588
-0.118344
-0.120073
-0.121774
-0.123443
-0.125077
-0.126672
-0.128225
-0.129733
-0.131192
-0.132596
-0.133942
-0.135225
-0.136438
-0.137576
-0.138631
-0.139597
-0.140467
-0.141231
-0.141882
-0.142408
-0.142802
-0.143051
-0.143146
-0.143074
-0.142823
-0.142382
-0.141736
-0.140874
-0.139782
-0.138445
-0.136849
-0.134979
-0.132823
-0.130367
-0.127599
-0.124507
-0.121082
-0.117314
-0.113199
-0.108731
-0.103909
-0.0987351
-0.0932129
-0.0873498
-0.0811565
-0.0746471
-0.0678389
-0.0607524
-0.0534112
-0.0458418
-0.038073
-0.0301359
-0.0220628
-0.0138876
-0.00564465
0.00263122
0.0109057
0.0191454
0.027318
0.0353926
0.0433406
0.0511353
0.0587527
0.0661713
0.0733721
0.0803389
0.0870582
0.0935191
0.0997133
0.105635
0.11128
0.116647
0.121737
0.126551
0.131093
0.135368
0.139382
0.143142
0.146656
0.149932
0.152979
0.155807
0.158425
0.160843
0.163071
0.165118
0.166995
0.168712
0.170276
0.171699
0.172988
0.174153
0.175201
0.17614
0.176979
0.177724
0.178382
0.178959
0.179462
0.179897
0.180268
0.18058
0.180839
0.181049
0.181213
0.181336
0.18142
0.18147
0.181488
0.181477
0.18144
0.181379
0.181297
0.181196
0.181078
0.180946
0.180802
0.180647
0.180483
0.180313
0.180138
0.17996
0.179779
0.179597
0.179416
0.179235
0.179057
0.17888
0.178707
0.178537
0.17837
0.178206
0.178046
0.17789
0.177737
0.177587
0.177441
0.177298
0.17716
0.177026
0.176896
0.176772
0.176654
0.176543
0.17644
0.176343
0.176251
0.176162
0.176067
0.175951
0.175789
0.175533
0.175135
0.17442
-0.0809633
-0.0814673
-0.0821001
-0.082799
-0.0835717
-0.0844382
-0.0854074
-0.0864815
-0.0876597
-0.0889379
-0.0903099
-0.0917677
-0.0933024
-0.0949043
-0.0965636
-0.0982709
-0.100017
-0.101793
-0.103592
-0.105407
-0.10723
-0.109056
-0.11088
-0.112698
-0.114505
-0.116296
-0.11807
-0.119821
-0.121548
-0.123246
-0.124912
-0.126543
-0.128135
-0.129684
-0.131185
-0.132635
-0.134028
-0.135359
-0.136622
-0.137811
-0.138918
-0.139937
-0.14086
-0.141678
-0.142382
-0.142963
-0.14341
-0.143713
-0.14386
-0.14384
-0.143642
-0.143251
-0.142655
-0.141841
-0.140795
-0.139501
-0.137945
-0.136113
-0.13399
-0.131563
-0.128819
-0.125748
-0.122338
-0.118582
-0.114474
-0.110009
-0.105186
-0.100006
-0.0944737
-0.0885975
-0.082388
-0.0758598
-0.0690308
-0.061922
-0.0545578
-0.0469651
-0.0391736
-0.0312147
-0.0231214
-0.0149281
-0.00666961
0.00161912
0.00990356
0.0181501
0.0263264
0.0344019
0.042348
0.0501385
0.0577496
0.0651602
0.0723517
0.0793086
0.0860176
0.0924684
0.098653
0.104566
0.110204
0.115565
0.120651
0.125463
0.130006
0.134283
0.138302
0.142069
0.145592
0.148879
0.15194
0.154783
0.157419
0.159856
0.162104
0.164174
0.166074
0.167814
0.169404
0.170852
0.172168
0.173359
0.174434
0.1754
0.176266
0.177037
0.177722
0.178326
0.178855
0.179315
0.179711
0.180049
0.180332
0.180565
0.180752
0.180897
0.181004
0.181075
0.181113
0.181122
0.181104
0.181062
0.180998
0.180914
0.180812
0.180696
0.180566
0.180425
0.180275
0.180118
0.179955
0.179787
0.179617
0.179446
0.179274
0.179103
0.178933
0.178766
0.1786
0.178438
0.178278
0.178122
0.177968
0.177817
0.177669
0.177524
0.177381
0.177241
0.177103
0.176968
0.176836
0.176707
0.176581
0.176458
0.176338
0.176218
0.176097
0.175968
0.175823
0.175643
0.175405
0.175061
0.174568
0.173777
-0.081586
-0.0819369
-0.0823381
-0.0828413
-0.0834642
-0.0842123
-0.0850845
-0.0860776
-0.0871868
-0.0884055
-0.089726
-0.0911394
-0.0926361
-0.0942063
-0.0958403
-0.0975283
-0.0992613
-0.101031
-0.102828
-0.104647
-0.106479
-0.10832
-0.110164
-0.112005
-0.113839
-0.115663
-0.117471
-0.119261
-0.121028
-0.12277
-0.124481
-0.126159
-0.1278
-0.129398
-0.130951
-0.132452
-0.133897
-0.13528
-0.136594
-0.137835
-0.138994
-0.140064
-0.141037
-0.141904
-0.142658
-0.143287
-0.143781
-0.144131
-0.144324
-0.14435
-0.144194
-0.143846
-0.143292
-0.142517
-0.141507
-0.140246
-0.13872
-0.136914
-0.134813
-0.132405
-0.129677
-0.126617
-0.123215
-0.119464
-0.115356
-0.110889
-0.10606
-0.100873
-0.0953302
-0.0894417
-0.0832185
-0.0766757
-0.0698315
-0.0627079
-0.0553294
-0.0477238
-0.0399211
-0.0319531
-0.0238535
-0.0156568
-0.00739808
0.000887603
0.00916569
0.0174027
0.0255664
0.0336266
0.041555
0.0493258
0.0569158
0.0643042
0.0714731
0.0784074
0.0850943
0.0915239
0.0976888