/*--------------------------------*- C++ -*----------------------------------*\
  =========                 |
  \\      /  F ield         | OpenFOAM: The Open Source CFD Toolbox
   \\    /   O peration     | Website:  https://openfoam.org
    \\  /    A nd           | Version:  6
     \\/     M anipulation  |
\*---------------------------------------------------------------------------*/
FoamFile
{
    version     2.0;
    format      ascii;
    class       surfaceScalarField;
    location    "0.25";
    object      phi;
}
// * * * * * * * * * * * * * * * * * * * * * * * * * * * * * * * * * * * * * //

dimensions      [0 3 -1 0 0 0 0];

internalField   nonuniform List<scalar> 
24170
(
3.2567e-07
-6.82917e-09
3.1941e-07
6.25976e-09
3.15795e-07
3.61478e-09
3.08694e-07
7.10078e-09
3.01711e-07
6.98307e-09
2.96683e-07
5.02875e-09
2.93334e-07
3.34856e-09
2.90953e-07
2.38108e-09
2.89093e-07
1.85979e-09
2.87551e-07
1.54172e-09
2.86223e-07
1.32862e-09
2.85039e-07
1.18339e-09
2.83956e-07
1.08367e-09
2.82937e-07
1.01857e-09
2.81965e-07
9.72227e-10
2.80985e-07
9.79653e-10
2.80157e-07
8.28006e-10
1.01831e-09
2.79139e-07
3.50378e-07
-1.54818e-08
3.47809e-07
8.82788e-09
3.44049e-07
7.3747e-09
3.4218e-07
8.97055e-09
3.39981e-07
9.18183e-09
3.37465e-07
7.54453e-09
3.3509e-07
5.72404e-09
3.33054e-07
4.41715e-09
3.31354e-07
3.55918e-09
3.29923e-07
2.97287e-09
3.28691e-07
2.5602e-09
3.27606e-07
2.2692e-09
3.26626e-07
2.06378e-09
3.25719e-07
1.92516e-09
3.24864e-07
1.82765e-09
3.24026e-07
1.81679e-09
3.2318e-07
1.67466e-09
1.91868e-09
3.22279e-07
3.63433e-07
-1.2663e-08
3.66547e-07
5.71399e-09
3.66686e-07
7.23542e-09
3.66826e-07
8.83062e-09
3.66414e-07
9.59347e-09
3.65374e-07
8.58478e-09
3.6403e-07
7.06848e-09
3.62653e-07
5.79344e-09
3.61373e-07
4.84004e-09
3.60217e-07
4.12885e-09
3.59175e-07
3.60148e-09
3.58228e-07
3.21647e-09
3.57353e-07
2.93915e-09
3.56528e-07
2.74931e-09
3.55733e-07
2.62351e-09
3.54958e-07
2.59132e-09
3.54107e-07
2.52564e-09
2.77045e-09
3.53255e-07
3.89234e-07
-9.35826e-09
3.91439e-07
3.50929e-09
3.92348e-07
6.32642e-09
3.92977e-07
8.20126e-09
3.93206e-07
9.36472e-09
3.92889e-07
8.90143e-09
3.92185e-07
7.77292e-09
3.91302e-07
6.6763e-09
3.90378e-07
5.76415e-09
3.89475e-07
5.03116e-09
3.88617e-07
4.46026e-09
3.87804e-07
4.02926e-09
3.8703e-07
3.71304e-09
3.86284e-07
3.49521e-09
3.85549e-07
3.35854e-09
3.84818e-07
3.32257e-09
3.84016e-07
3.32767e-09
3.57474e-09
3.83212e-07
4.18265e-07
-6.91083e-09
4.19391e-07
2.38404e-09
4.20249e-07
5.46834e-09
4.20972e-07
7.47756e-09
4.21482e-07
8.85535e-09
4.21576e-07
8.80722e-09
4.21299e-07
8.04932e-09
4.20794e-07
7.18225e-09
4.20173e-07
6.38495e-09
4.19505e-07
5.6991e-09
4.18825e-07
5.13965e-09
4.18151e-07
4.70382e-09
4.17485e-07
4.37889e-09
4.16825e-07
4.1552e-09
4.16161e-07
4.0229e-09
4.15486e-07
3.99682e-09
4.14759e-07
4.05543e-09
4.31474e-09
4.14019e-07
4.4903e-07
-5.03231e-09
4.4958e-07
1.83422e-09
4.50288e-07
4.76028e-09
4.51006e-07
6.75942e-09
4.51644e-07
8.21722e-09
4.51982e-07
8.46972e-09
4.51998e-07
8.03297e-09
4.5178e-07
7.40031e-09
4.51413e-07
6.75174e-09
4.50957e-07
6.15495e-09
4.50451e-07
5.64604e-09
4.49917e-07
5.238e-09
4.49366e-07
4.92996e-09
4.48801e-07
4.71973e-09
4.4822e-07
4.60447e-09
4.4762e-07
4.59683e-09
4.4698e-07
4.69472e-09
4.9642e-09
4.46331e-07
4.81752e-07
-3.51251e-09
4.82027e-07
1.55984e-09
4.82594e-07
4.19326e-09
4.83263e-07
6.09043e-09
4.83943e-07
7.53658e-09
4.84419e-07
7.99347e-09
4.84635e-07
7.8179e-09
4.84634e-07
7.40088e-09
4.84476e-07
6.90983e-09
4.84207e-07
6.4236e-09
4.83863e-07
5.99012e-09
4.83468e-07
5.63333e-09
4.83036e-07
5.362e-09
4.82575e-07
5.18056e-09
4.82088e-07
5.09188e-09
4.81577e-07
5.10738e-09
4.81039e-07
5.23321e-09
5.50468e-09
4.80498e-07
5.16743e-07
-2.29761e-09
5.16866e-07
1.43708e-09
5.17309e-07
3.75005e-09
5.17907e-07
5.49222e-09
5.18579e-07
6.86514e-09
5.19125e-07
7.44685e-09
5.19472e-07
7.47174e-09
5.19632e-07
7.24016e-09
5.19642e-07
6.89982e-09
5.19535e-07
6.53083e-09
5.19339e-07
6.18576e-09
5.19078e-07
5.89494e-09
5.18766e-07
5.67385e-09
5.18415e-07
5.53192e-09
5.18031e-07
5.47593e-09
5.17622e-07
5.5162e-09
5.17194e-07
5.66075e-09
5.9259e-09
5.16773e-07
5.54203e-07
-1.36686e-09
5.54235e-07
1.40477e-09
5.54578e-07
3.40692e-09
5.55102e-07
4.96869e-09
5.55737e-07
6.23051e-09
5.5631e-07
6.87391e-09
5.56738e-07
7.04333e-09
5.57015e-07
6.96269e-09
5.57158e-07
6.75709e-09
5.57187e-07
6.50167e-09
5.57124e-07
6.24857e-09
5.56989e-07
6.03065e-09
5.56795e-07
5.86723e-09
5.56557e-07
5.77079e-09
5.56282e-07
5.75023e-09
5.55984e-07
5.81453e-09
5.55674e-07
5.97039e-09
6.22282e-09
5.55377e-07
5.94298e-07
-6.87321e-10
5.94286e-07
1.41648e-09
5.94558e-07
3.13559e-09
5.95014e-07
4.51189e-09
5.95601e-07
5.64366e-09
5.96174e-07
6.30139e-09
5.9665e-07
6.56706e-09
5.9701e-07
6.6029e-09
5.97256e-07
6.51138e-09
5.97398e-07
6.35912e-09
5.97452e-07
6.19449e-09
5.97433e-07
6.04996e-09
5.97354e-07
5.94616e-09
5.97228e-07
5.89682e-09
5.97067e-07
5.9114e-09
5.96884e-07
5.99723e-09
5.96696e-07
6.15857e-09
6.39411e-09
5.96525e-07
6.37212e-07
-2.18566e-10
6.37191e-07
1.4376e-09
6.3742e-07
2.90711e-09
6.37825e-07
4.10706e-09
6.38364e-07
5.10469e-09
6.38922e-07
5.74328e-09
6.39423e-07
6.0656e-09
6.3984e-07
6.18624e-09
6.40165e-07
6.18654e-09
6.40401e-07
6.1231e-09
6.40557e-07
6.03857e-09
6.40644e-07
5.96296e-09
6.40673e-07
5.9163e-09
6.40658e-07
5.912e-09
6.40611e-07
5.95892e-09
6.40545e-07
6.06261e-09
6.40479e-07
6.22486e-09
6.44122e-09
6.40432e-07
5.7382e-07
4.47694e-11
5.7381e-07
1.44777e-09
5.7399e-07
2.72709e-09
5.74306e-07
3.79079e-09
5.7473e-07
4.68083e-09
5.75187e-07
5.28604e-09
5.75621e-07
5.63241e-09
5.76003e-07
5.8037e-09
5.76325e-07
5.8649e-09
5.76584e-07
5.86411e-09
5.76784e-07
5.83854e-09
5.76932e-07
5.8151e-09
5.77036e-07
5.81223e-09
5.77105e-07
5.84228e-09
5.77151e-07
5.91302e-09
5.77185e-07
6.02847e-09
5.77221e-07
6.18886e-09
6.38803e-09
5.77275e-07
6.99625e-07
2.35516e-10
6.9965e-07
1.42269e-09
6.99853e-07
2.52428e-09
7.00196e-07
3.44715e-09
7.00656e-07
4.22098e-09
7.01165e-07
4.77762e-09
7.01666e-07
5.13095e-09
7.0213e-07
5.33928e-09
7.02543e-07
5.45239e-09
7.02898e-07
5.50896e-09
7.03197e-07
5.53969e-09
7.03445e-07
5.56737e-09
7.03649e-07
5.60783e-09
7.0382e-07
5.67156e-09
7.03968e-07
5.76471e-09
7.04107e-07
5.88972e-09
7.0425e-07
6.04537e-09
6.22519e-09
7.04413e-07
8.52976e-07
3.438e-10
8.53053e-07
1.34586e-09
8.53299e-07
2.27864e-09
8.53684e-07
3.06195e-09
8.54188e-07
3.71701e-09
8.54754e-07
4.21195e-09
8.5533e-07
4.55461e-09
8.55886e-07
4.78367e-09
8.56403e-07
4.93554e-09
8.56872e-07
5.03958e-09
8.57292e-07
5.11942e-09
8.57667e-07
5.19289e-09
8.58002e-07
5.27245e-09
8.58308e-07
5.36604e-09
8.58594e-07
5.4779e-09
8.58875e-07
5.60891e-09
8.59164e-07
5.75687e-09
5.91593e-09
8.59473e-07
1.0399e-06
3.70584e-10
1.04004e-06
1.20234e-09
1.04035e-06
1.96739e-09
1.0408e-06
2.61225e-09
1.04137e-06
3.15007e-09
1.04201e-06
3.57332e-09
1.04267e-06
3.88889e-09
1.04333e-06
4.12149e-09
1.04397e-06
4.29634e-09
1.04458e-06
4.43422e-09
1.04515e-06
4.55179e-09
1.04568e-06
4.66161e-09
1.04618e-06
4.77228e-09
1.04665e-06
4.88893e-09
1.04712e-06
5.01377e-09
1.04758e-06
5.14641e-09
1.04805e-06
5.28421e-09
5.42233e-09
1.04855e-06
1.26772e-06
3.28217e-10
1.26794e-06
9.8016e-10
1.26834e-06
1.56905e-09
1.26888e-06
2.06941e-09
1.26955e-06
2.48906e-09
1.27029e-06
2.83202e-09
1.27107e-06
3.10565e-09
1.27187e-06
3.32513e-09
1.27266e-06
3.50642e-09
1.27343e-06
3.6627e-09
1.27418e-06
3.8042e-09
1.2749e-06
3.93835e-09
1.2756e-06
4.06991e-09
1.27629e-06
4.20126e-09
1.27697e-06
4.33279e-09
1.27765e-06
4.46318e-09
1.27835e-06
4.5898e-09
4.70894e-09
1.27906e-06
1.54541e-06
2.33313e-10
1.54572e-06
6.73607e-10
1.54622e-06
1.06493e-09
1.54689e-06
1.40224e-09
1.54769e-06
1.69271e-09
1.54858e-06
1.94295e-09
1.54952e-06
2.15906e-09
1.5505e-06
2.34905e-09
1.55148e-06
2.52084e-09
1.55247e-06
2.68056e-09
1.55344e-06
2.83253e-09
1.5544e-06
2.97944e-09
1.55534e-06
3.12249e-09
1.55628e-06
3.26158e-09
1.55722e-06
3.3956e-09
1.55816e-06
3.52263e-09
1.55911e-06
3.64024e-09
3.74576e-09
1.56007e-06
1.8839e-06
1.0006e-10
1.88429e-06
2.82462e-10
1.88492e-06
4.37693e-10
1.88574e-06
5.76749e-10
1.88672e-06
7.11051e-10
1.88782e-06
8.45971e-10
1.88899e-06
9.84041e-10
1.89022e-06
1.12667e-09
1.89146e-06
1.27386e-09
1.89272e-06
1.42455e-09
1.89398e-06
1.57707e-09
1.89523e-06
1.72946e-09
1.89647e-06
1.8795e-09
1.89771e-06
2.0248e-09
1.89894e-06
2.16288e-09
1.90017e-06
2.29132e-09
1.9014e-06
2.40782e-09
2.51042e-09
1.90264e-06
2.29649e-06
-5.3614e-11
2.29695e-06
-1.78281e-10
2.29771e-06
-3.24649e-10
2.29873e-06
-4.45509e-10
2.29996e-06
-5.18087e-10
2.30135e-06
-5.39758e-10
2.30284e-06
-5.11099e-10
2.30441e-06
-4.37383e-10
2.30601e-06
-3.28209e-10
2.30763e-06
-1.93665e-10
2.30925e-06
-4.25284e-11
2.31086e-06
1.17769e-10
2.31246e-06
2.80982e-10
2.31404e-06
4.41978e-10
2.31561e-06
5.96624e-10
2.31716e-06
7.41644e-10
2.31869e-06
8.74506e-10
9.93446e-10
2.32021e-06
1.68113e-06
-1.08429e-10
1.68139e-06
-4.40006e-10
1.68191e-06
-8.4768e-10
1.68266e-06
-1.19571e-09
1.68359e-06
-1.4523e-09
1.68467e-06
-1.61571e-09
1.68584e-06
-1.68247e-09
1.68707e-06
-1.66354e-09
1.68832e-06
-1.57937e-09
1.68957e-06
-1.44914e-09
1.69082e-06
-1.28835e-09
1.69205e-06
-1.10957e-09
1.69325e-06
-9.22823e-10
1.69443e-06
-7.35774e-10
1.69558e-06
-5.54131e-10
1.6967e-06
-3.82047e-10
1.6978e-06
-2.2245e-10
-7.72727e-11
1.69887e-06
1.46336e-06
-1.54057e-11
1.46345e-06
-5.2743e-10
1.46385e-06
-1.24729e-09
1.46451e-06
-1.85077e-09
1.46537e-06
-2.31972e-09
1.4664e-06
-2.64423e-09
1.46753e-06
-2.80611e-09
1.46869e-06
-2.82866e-09
1.46986e-06
-2.75101e-09
1.47102e-06
-2.60499e-09
1.47214e-06
-2.41463e-09
1.47323e-06
-2.19888e-09
1.47428e-06
-1.97216e-09
1.47529e-06
-1.74482e-09
1.47626e-06
-1.52403e-09
1.47719e-06
-1.31467e-09
1.47809e-06
-1.11987e-09
-9.41535e-10
1.47896e-06
1.27363e-06
3.65414e-10
1.2735e-06
-3.98526e-10
1.27381e-06
-1.55002e-09
1.27441e-06
-2.45767e-09
1.27528e-06
-3.18654e-09
1.27633e-06
-3.69115e-09
1.27745e-06
-3.93012e-09
1.27858e-06
-3.96009e-09
1.27968e-06
-3.85254e-09
1.28074e-06
-3.65645e-09
1.28173e-06
-3.40655e-09
1.28266e-06
-3.12931e-09
1.28353e-06
-2.84358e-09
1.28435e-06
-2.56175e-09
1.28511e-06
-2.29172e-09
1.28584e-06
-2.03829e-09
1.28652e-06
-1.80416e-09
-1.5906e-09
1.28717e-06
1.10825e-06
1.20943e-09
1.1079e-06
-5.00729e-11
1.10818e-06
-1.82698e-09
1.10882e-06
-3.10081e-09
1.10978e-06
-4.14318e-09
1.11091e-06
-4.82079e-09
1.11206e-06
-5.08074e-09
1.11315e-06
-5.0536e-09
1.11416e-06
-4.85925e-09
1.11507e-06
-4.56658e-09
1.11588e-06
-4.22172e-09
1.11661e-06
-3.85818e-09
1.11727e-06
-3.49755e-09
1.11786e-06
-3.15231e-09
1.11839e-06
-2.82926e-09
1.11889e-06
-2.53174e-09
1.11934e-06
-2.26081e-09
-2.0164e-09
1.11977e-06
9.64048e-07
2.6827e-09
9.63543e-07
4.54866e-10
9.63904e-07
-2.1878e-09
9.64689e-07
-3.88567e-09
9.65821e-07
-5.27561e-09
9.67063e-07
-6.06195e-09
9.68216e-07
-6.23458e-09
9.69218e-07
-6.05494e-09
9.70061e-07
-5.7024e-09
9.70758e-07
-5.26349e-09
9.71329e-07
-4.79285e-09
9.71798e-07
-4.32724e-09
9.72187e-07
-3.88678e-09
9.72515e-07
-3.48041e-09
9.72797e-07
-3.11115e-09
9.73044e-07
-2.77897e-09
9.73266e-07
-2.48206e-09
-2.21811e-09
9.73467e-07
8.38144e-07
5.07377e-09
8.37752e-07
8.46855e-10
8.38379e-07
-2.81446e-09
8.39412e-07
-4.91856e-09
8.40761e-07
-6.62442e-09
8.4207e-07
-7.37124e-09
8.43132e-07
-7.29724e-09
8.43929e-07
-6.8513e-09
8.44497e-07
-6.27036e-09
8.44882e-07
-5.6485e-09
8.45129e-07
-5.03997e-09
8.45278e-07
-4.4764e-09
8.45361e-07
-3.96963e-09
8.45401e-07
-3.5203e-09
8.45414e-07
-3.12466e-09
8.45413e-07
-2.77765e-09
8.45405e-07
-2.47365e-09
-2.20757e-09
8.45394e-07
7.27634e-07
9.16815e-09
7.28121e-07
3.6031e-10
7.29321e-07
-4.01509e-09
7.30705e-07
-6.30212e-09
7.32236e-07
-8.15558e-09
7.33472e-07
-8.60778e-09
7.34266e-07
-8.0911e-09
7.34685e-07
-7.27044e-09
7.34832e-07
-6.41711e-09
7.34794e-07
-5.61062e-09
7.34641e-07
-4.88689e-09
7.34424e-07
-4.25927e-09
7.34178e-07
-3.72312e-09
7.33924e-07
-3.26637e-09
7.33676e-07
-2.87663e-09
7.33441e-07
-2.54324e-09
7.33225e-07
-2.25704e-09
-2.01012e-09
7.33027e-07
6.30219e-07
1.59557e-08
6.32749e-07
-2.16958e-09
6.34734e-07
-5.99977e-09
6.36518e-07
-8.0867e-09
6.3809e-07
-9.72788e-09
6.3899e-07
-9.50718e-09
6.39239e-07
-8.33996e-09
6.39048e-07
-7.07978e-09
6.38605e-07
-5.97412e-09
6.38038e-07
-5.04402e-09
6.3743e-07
-4.27803e-09
6.36826e-07
-3.656e-09
6.36254e-07
-3.15091e-09
6.35725e-07
-2.73688e-09
6.35242e-07
-2.39384e-09
6.34806e-07
-2.10727e-09
6.34415e-07
-1.86613e-09
-1.66046e-09
6.34065e-07
5.47192e-07
2.33104e-08
5.51825e-07
-6.80242e-09
5.53524e-07
-7.69967e-09
5.55231e-07
-9.79299e-09
5.56329e-07
-1.0826e-08
5.56353e-07
-9.53134e-09
5.55609e-07
-7.59627e-09
5.54499e-07
-5.96912e-09
5.53286e-07
-4.76096e-09
5.52106e-07
-3.86454e-09
5.51018e-07
-3.19029e-09
5.5004e-07
-2.6781e-09
5.49172e-07
-2.28216e-09
5.48404e-07
-1.96872e-09
5.47725e-07
-1.71548e-09
5.47127e-07
-1.50897e-09
5.46601e-07
-1.3399e-09
-1.19978e-09
5.4614e-07
4.91615e-07
1.44565e-08
4.907e-07
-5.88742e-09
4.87264e-07
-4.26368e-09
4.86302e-07
-8.83152e-09
4.84859e-07
-9.3828e-09
4.82521e-07
-7.19292e-09
4.79878e-07
-4.95375e-09
4.77381e-07
-3.47244e-09
4.75201e-07
-2.58107e-09
4.73353e-07
-2.01566e-09
4.71793e-07
-1.63111e-09
4.70473e-07
-1.35793e-09
4.69347e-07
-1.15578e-09
4.68378e-07
-9.99444e-10
4.67537e-07
-8.74872e-10
4.66805e-07
-7.7688e-10
4.66172e-07
-7.07208e-10
-7.12069e-10
4.65684e-07
4.34724e-07
4.28837e-07
4.24573e-07
4.15742e-07
4.06359e-07
3.99166e-07
3.94212e-07
3.9074e-07
3.88159e-07
3.86143e-07
3.84512e-07
3.83154e-07
3.81998e-07
3.80999e-07
3.80124e-07
3.79347e-07
3.7864e-07
3.77928e-07
1.60777e-08
-1.60777e-08
3.00641e-08
-1.39863e-08
3.81733e-08
-8.10921e-09
4.06544e-08
-2.48112e-09
3.81595e-08
2.49492e-09
3.17469e-08
6.41254e-09
2.27416e-08
9.00533e-09
1.22412e-08
1.05004e-08
7.75351e-10
1.14658e-08
-1.1726e-08
1.25014e-08
-2.55163e-08
1.37903e-08
-4.06934e-08
1.51771e-08
-5.72317e-08
1.65383e-08
-7.49977e-08
1.77661e-08
-9.37792e-08
1.87815e-08
-1.13315e-07
1.95354e-08
-1.33321e-07
2.0006e-08
-1.53515e-07
2.01945e-08
-1.73635e-07
2.01198e-08
-1.93449e-07
1.98136e-08
-2.12763e-07
1.93147e-08
-2.31428e-07
1.86648e-08
-2.49333e-07
1.7905e-08
-2.66406e-07
1.70731e-08
-2.82608e-07
1.62021e-08
-2.97928e-07
1.53195e-08
-3.12375e-07
1.4447e-08
-3.25975e-07
1.36005e-08
-3.38767e-07
1.27912e-08
-3.50793e-07
1.2026e-08
-3.62101e-07
1.13083e-08
-3.7274e-07
1.06388e-08
-3.82756e-07
1.00163e-08
-3.92194e-07
9.43777e-09
-4.01093e-07
8.89962e-09
-4.09491e-07
8.39744e-09
-4.17417e-07
7.92652e-09
-4.24899e-07
7.48205e-09
-4.31958e-07
7.0592e-09
-4.38612e-07
6.65329e-09
-4.44872e-07
6.25975e-09
-4.50746e-07
5.87421e-09
-4.56238e-07
5.49247e-09
-4.61349e-07
5.11049e-09
-4.66073e-07
4.72435e-09
-4.70403e-07
4.33029e-09
-4.74328e-07
3.92459e-09
-4.77832e-07
3.50367e-09
-4.80896e-07
3.06416e-09
-4.83499e-07
2.60298e-09
-4.85616e-07
2.11695e-09
-4.87219e-07
1.60282e-09
-4.88279e-07
1.06019e-09
-4.88777e-07
4.97853e-10
-4.88716e-07
-6.10257e-11
-4.88124e-07
-5.91069e-10
-4.87026e-07
-1.09856e-09
-4.85419e-07
-1.60681e-09
-4.83293e-07
-2.12558e-09
-4.80635e-07
-2.65889e-09
-4.77426e-07
-3.20816e-09
-4.73653e-07
-3.77353e-09
-4.69299e-07
-4.35438e-09
-4.64349e-07
-4.94964e-09
-4.58791e-07
-5.55785e-09
-4.52614e-07
-6.17725e-09
-4.45808e-07
-6.80579e-09
-4.38367e-07
-7.44116e-09
-4.30286e-07
-8.08079e-09
-4.21564e-07
-8.72193e-09
-4.12203e-07
-9.36159e-09
-4.02206e-07
-9.99668e-09
-3.91582e-07
-1.06239e-08
-3.80342e-07
-1.12401e-08
-3.685e-07
-1.18417e-08
-3.56075e-07
-1.24254e-08
-3.43087e-07
-1.2988e-08
-3.29561e-07
-1.35262e-08
-3.15524e-07
-1.4037e-08
-3.01006e-07
-1.45175e-08
-2.86041e-07
-1.49652e-08
-2.70663e-07
-1.53777e-08
-2.5491e-07
-1.57531e-08
-2.38821e-07
-1.60895e-08
-2.22435e-07
-1.63858e-08
-2.05794e-07
-1.6641e-08
-1.88939e-07
-1.68545e-08
-1.71913e-07
-1.70261e-08
-1.54757e-07
-1.7156e-08
-1.37512e-07
-1.72448e-08
-1.20219e-07
-1.72929e-08
-1.02918e-07
-1.73014e-08
-8.5647e-08
-1.72709e-08
-6.84454e-08
-1.72016e-08
-5.13533e-08
-1.70922e-08
-3.44139e-08
-1.69394e-08
-1.76702e-08
-1.67437e-08
-1.14082e-09
-1.65294e-08
1.51766e-08
-1.63175e-08
3.12613e-08
-1.60847e-08
4.70814e-08
-1.58201e-08
6.26176e-08
-1.55362e-08
7.78544e-08
-1.52368e-08
9.27791e-08
-1.49247e-08
1.07381e-07
-1.46019e-08
1.21651e-07
-1.42704e-08
1.35583e-07
-1.39319e-08
1.49171e-07
-1.35882e-08
1.62412e-07
-1.3241e-08
1.75304e-07
-1.28919e-08
1.87847e-07
-1.25424e-08
2.00041e-07
-1.21938e-08
2.11888e-07
-1.18474e-08
2.23392e-07
-1.15042e-08
2.34558e-07
-1.11653e-08
2.45389e-07
-1.08315e-08
2.55893e-07
-1.05036e-08
2.66075e-07
-1.01821e-08
2.75942e-07
-9.86757e-09
2.85503e-07
-9.56033e-09
2.94763e-07
-9.26061e-09
3.03732e-07
-8.96848e-09
3.12416e-07
-8.68389e-09
3.20822e-07
-8.40665e-09
3.28959e-07
-8.13641e-09
3.36831e-07
-7.8727e-09
3.44446e-07
-7.61486e-09
3.51808e-07
-7.36215e-09
3.58922e-07
-7.11363e-09
3.6579e-07
-6.86826e-09
3.72415e-07
-6.62488e-09
3.78797e-07
-6.38219e-09
3.84936e-07
-6.13886e-09
3.9083e-07
-5.89345e-09
3.96474e-07
-5.64452e-09
4.01865e-07
-5.39064e-09
4.06995e-07
-5.13044e-09
4.11858e-07
-4.8626e-09
4.16444e-07
-4.58603e-09
4.20744e-07
-4.29978e-09
4.24747e-07
-4.00319e-09
4.28443e-07
-3.69588e-09
4.31821e-07
-3.37777e-09
4.3487e-07
-3.04908e-09
4.3758e-07
-2.71022e-09
4.39941e-07
-2.36131e-09
4.41942e-07
-2.00087e-09
4.43565e-07
-1.62282e-09
4.44776e-07
-1.2111e-09
4.45517e-07
-7.41127e-10
4.45741e-07
-2.23483e-10
4.45499e-07
2.41841e-10
4.44909e-07
5.8951e-10
4.44055e-07
8.54238e-10
4.42986e-07
1.06894e-09
4.41739e-07
1.24735e-09
4.40343e-07
1.39566e-09
4.38826e-07
1.51726e-09
4.37211e-07
1.61453e-09
4.35521e-07
1.68985e-09
4.33776e-07
1.74583e-09
4.3199e-07
1.78533e-09
4.30179e-07
1.81148e-09
4.28351e-07
1.82767e-09
4.26514e-07
1.83754e-09
4.24668e-07
1.84511e-09
4.22813e-07
1.85492e-09
4.20941e-07
1.87232e-09
4.19037e-07
1.90389e-09
4.17079e-07
1.95823e-09
4.15032e-07
2.04718e-09
4.12844e-07
2.18811e-09
4.10436e-07
2.40814e-09
4.07684e-07
2.75194e-09
4.04383e-07
3.30112e-09
4.0018e-07
4.20286e-09
3.94371e-07
5.80826e-09
3.85737e-07
8.63436e-09
3.70696e-07
1.50408e-08
2.40639e-08
3.46632e-07
7.21336e-09
-2.32911e-08
5.73297e-09
-1.25059e-08
9.17943e-10
-3.29419e-09
-5.86772e-09
4.30455e-09
-1.42098e-08
1.0837e-08
-2.41772e-08
1.638e-08
-3.60578e-08
2.08859e-08
-5.00431e-08
2.44857e-08
-6.60658e-08
2.74885e-08
-8.37296e-08
3.01652e-08
-1.02541e-07
3.26013e-08
-1.22098e-07
3.47345e-08
-1.42026e-07
3.64663e-08
-1.61978e-07
3.77184e-08
-1.81648e-07
3.84509e-08
-2.00776e-07
3.86638e-08
-2.19161e-07
3.83907e-08
-2.36657e-07
3.76903e-08
-2.53173e-07
3.66367e-08
-2.68669e-07
3.53096e-08
-2.83143e-07
3.3788e-08
-2.96622e-07
3.21442e-08
-3.09158e-07
3.04406e-08
-3.20813e-07
2.87285e-08
-3.31658e-07
2.70473e-08
-3.41765e-07
2.54258e-08
-3.51201e-07
2.38831e-08
-3.60031e-07
2.24303e-08
-3.68312e-07
2.10724e-08
-3.76095e-07
1.98093e-08
-3.83424e-07
1.86375e-08
-3.90337e-07
1.7551e-08
-3.96863e-07
1.65424e-08
-4.03028e-07
1.56033e-08
-4.08854e-07
1.4725e-08
-4.14355e-07
1.38988e-08
-4.19545e-07
1.31161e-08
-4.24431e-07
1.23688e-08
-4.29021e-07
1.16491e-08
-4.33318e-07
1.09499e-08
-4.37322e-07
1.02643e-08
-4.41034e-07
9.58625e-09
-4.44452e-07
8.90993e-09
-4.47572e-07
8.23015e-09
-4.50389e-07
7.54214e-09
-4.52901e-07
6.84167e-09
-4.55101e-07
6.12499e-09
-4.56986e-07
5.38897e-09
-4.58553e-07
4.63116e-09
-4.598e-07
3.84982e-09
-4.60728e-07
3.04414e-09
-4.6134e-07
2.21492e-09
-4.61645e-07
1.36566e-09
-4.61648e-07
5.00625e-10
-4.61327e-07
-3.82085e-10
-4.60625e-07
-1.29311e-09
-4.59484e-07
-2.23902e-09
-4.57872e-07
-3.21942e-09
-4.55763e-07
-4.23449e-09
-4.53137e-07
-5.28428e-09
-4.49977e-07
-6.36822e-09
-4.46266e-07
-7.48514e-09
-4.41987e-07
-8.63324e-09
-4.37126e-07
-9.8101e-09
-4.31671e-07
-1.10127e-08
-4.25611e-07
-1.22376e-08
-4.18936e-07
-1.34807e-08
-4.1164e-07
-1.47373e-08
-4.03718e-07
-1.60025e-08
-3.95169e-07
-1.72708e-08
-3.85995e-07
-1.85364e-08
-3.76198e-07
-1.97931e-08
-3.65788e-07
-2.10345e-08
-3.54774e-07
-2.22542e-08
-3.4317e-07
-2.34454e-08
-3.30993e-07
-2.46017e-08
-3.18265e-07
-2.57164e-08
-3.05008e-07
-2.67834e-08
-2.91248e-07
-2.77966e-08
-2.77015e-07
-2.87504e-08
-2.62341e-07
-2.96396e-08
-2.47259e-07
-3.04598e-08
-2.31805e-07
-3.12068e-08
-2.16017e-07
-3.18774e-08
-1.99934e-07
-3.2469e-08
-1.83595e-07
-3.29796e-08
-1.67042e-07
-3.34081e-08
-1.50314e-07
-3.3754e-08
-1.33453e-07
-3.40175e-08
-1.16498e-07
-3.41997e-08
-9.94888e-08
-3.43018e-08
-8.24645e-08
-3.43258e-08
-6.54616e-08
-3.42738e-08
-4.85154e-08
-3.41478e-08
-3.1658e-08
-3.39495e-08
-1.49164e-08
-3.3681e-08
1.68875e-09
-3.33489e-08
1.81237e-08
-3.29644e-08
3.43423e-08
-3.2536e-08
5.03221e-08
-3.20644e-08
6.60534e-08
-3.15514e-08
8.15201e-08
-3.10029e-08
9.67073e-08
-3.0424e-08
1.11602e-07
-2.9819e-08
1.26192e-07
-2.91918e-08
1.40467e-07
-2.85463e-08
1.54422e-07
-2.78861e-08
1.68048e-07
-2.72148e-08
1.81343e-07
-2.65357e-08
1.94303e-07
-2.5852e-08
2.06927e-07
-2.51667e-08
2.19216e-07
-2.44824e-08
2.3117e-07
-2.38015e-08
2.42792e-07
-2.31264e-08
2.54086e-07
-2.2459e-08
2.65055e-07
-2.1801e-08
2.75706e-07
-2.11539e-08
2.86043e-07
-2.05189e-08
2.96072e-07
-1.9897e-08
3.05801e-07
-1.9289e-08
3.15235e-07
-1.86952e-08
3.24383e-07
-1.8116e-08
3.3325e-07
-1.75513e-08
3.41844e-07
-1.70007e-08
3.50171e-07
-1.64637e-08
3.58238e-07
-1.59393e-08
3.6605e-07
-1.54266e-08
3.73612e-07
-1.4924e-08
3.80928e-07
-1.44298e-08
3.88002e-07
-1.39421e-08
3.94835e-07
-1.34587e-08
4.01431e-07
-1.29773e-08
4.07787e-07
-1.24953e-08
4.13903e-07
-1.201e-08
4.19778e-07
-1.15186e-08
4.25406e-07
-1.10186e-08
4.30782e-07
-1.05071e-08
4.35901e-07
-9.98183e-09
4.40756e-07
-9.44049e-09
4.45337e-07
-8.88128e-09
4.49637e-07
-8.30278e-09
4.53645e-07
-7.70416e-09
4.57353e-07
-7.08509e-09
4.60749e-07
-6.44583e-09
4.63826e-07
-5.78695e-09
4.66574e-07
-5.10895e-09
4.68984e-07
-4.4112e-09
4.71052e-07
-3.69084e-09
4.72785e-07
-2.94372e-09
4.74217e-07
-2.1735e-09
4.75399e-07
-1.40522e-09
4.76314e-07
-6.73119e-10
4.76907e-07
-3.67439e-12
4.77168e-07
5.93301e-10
4.77113e-07
1.12342e-09
4.76768e-07
1.59308e-09
4.76157e-07
2.00633e-09
4.75308e-07
2.36587e-09
4.74249e-07
2.67395e-09
4.73006e-07
2.93312e-09
4.71605e-07
3.14656e-09
4.70072e-07
3.31823e-09
4.68431e-07
3.45291e-09
4.66702e-07
3.55616e-09
4.64905e-07
3.63434e-09
4.63056e-07
3.6947e-09
4.61165e-07
3.74549e-09
4.59241e-07
3.79635e-09
4.57286e-07
3.85885e-09
4.55297e-07
3.9475e-09
4.53263e-07
4.08146e-09
4.51163e-07
4.28733e-09
4.48967e-07
4.60486e-09
4.46623e-07
5.09593e-09
4.44055e-07
5.86859e-09
4.41154e-07
7.10361e-09
4.37743e-07
9.22008e-09
4.33568e-07
1.28092e-08
4.2824e-07
2.03686e-08
3.36519e-08
4.18652e-07
-7.78886e-09
-1.55022e-08
-1.80017e-08
-2.29308e-09
-2.86432e-08
7.34729e-09
-3.9889e-08
1.55504e-08
-5.18593e-08
2.28073e-08
-6.46737e-08
2.91943e-08
-7.84898e-08
3.4702e-08
-9.33804e-08
3.93762e-08
-1.09208e-07
4.33158e-08
-1.2564e-07
4.65972e-08
-1.42274e-07
4.92358e-08
-1.58747e-07
5.12078e-08
-1.74771e-07
5.249e-08
-1.90139e-07
5.30861e-08
-2.04722e-07
5.30341e-08
-2.1846e-07
5.24019e-08
-2.31347e-07
5.12772e-08
-2.43414e-07
4.97578e-08
-2.5472e-07
4.79421e-08
-2.65332e-07
4.59223e-08
-2.75324e-07
4.37801e-08
-2.84765e-07
4.15846e-08
-2.93715e-07
3.9391e-08
-3.02228e-07
3.72416e-08
-3.10348e-07
3.51669e-08
-3.18109e-07
3.31873e-08
-3.25541e-07
3.13147e-08
-3.32665e-07
2.95545e-08
-3.39499e-07
2.79067e-08
-3.46058e-07
2.63678e-08
-3.52352e-07
2.49314e-08
-3.5839e-07
2.35893e-08
-3.6418e-07
2.23324e-08
-3.69727e-07
2.11507e-08
-3.75037e-07
2.00344e-08
-3.80111e-07
1.89735e-08
-3.84953e-07
1.79582e-08
-3.89564e-07
1.69795e-08
-3.93943e-07
1.60283e-08
-3.9809e-07
1.50965e-08
-4.02002e-07
1.41763e-08
-4.05676e-07
1.32604e-08
-4.09108e-07
1.23422e-08
-4.12294e-07
1.14155e-08
-4.15226e-07
1.04746e-08
-4.17899e-07
9.51469e-09
-4.20305e-07
8.53113e-09
-4.22436e-07
7.52008e-09
-4.24284e-07
6.47827e-09
-4.25837e-07
5.40303e-09
-4.27085e-07
4.29219e-09
-4.28014e-07
3.14416e-09
-4.28606e-07
1.95762e-09
-4.28835e-07
7.29942e-10
-4.28673e-07
-5.44316e-10
-4.28095e-07
-1.87127e-09
-4.2708e-07
-3.25375e-09
-4.25608e-07
-4.69187e-09
-4.23657e-07
-6.18499e-09
-4.2121e-07
-7.73203e-09
-4.18246e-07
-9.33139e-09
-4.14751e-07
-1.09808e-08
-4.10707e-07
-1.26774e-08
-4.06099e-07
-1.44172e-08
-4.00916e-07
-1.6196e-08
-3.95146e-07
-1.80083e-08
-3.88778e-07
-1.9848e-08
-3.81807e-07
-2.17085e-08
-3.74227e-07
-2.35821e-08
-3.66037e-07
-2.54609e-08
-3.57238e-07
-2.73362e-08
-3.47832e-07
-2.91988e-08
-3.37827e-07
-3.10394e-08
-3.27233e-07
-3.28481e-08
-3.16063e-07
-3.46153e-08
-3.04334e-07
-3.63312e-08
-2.92064e-07
-3.7986e-08
-2.79277e-07
-3.95706e-08
-2.65998e-07
-4.1076e-08
-2.52254e-07
-4.24939e-08
-2.38077e-07
-4.38168e-08
-2.23499e-07
-4.50377e-08
-2.08555e-07
-4.61509e-08
-1.93281e-07
-4.71513e-08
-1.77715e-07
-4.8035e-08
-1.61895e-07
-4.87992e-08
-1.45861e-07
-4.94421e-08
-1.29652e-07
-4.99631e-08
-1.13307e-07
-5.03624e-08
-9.68656e-08
-5.06413e-08
-8.03653e-08
-5.08021e-08
-6.38434e-08
-5.08477e-08
-4.73354e-08
-5.07818e-08
-3.08746e-08
-5.06086e-08
-1.4491e-08
-5.03331e-08
1.78876e-09
-4.99607e-08
1.79378e-08
-4.94979e-08
3.39268e-08
-4.89534e-08
4.97265e-08
-4.83358e-08
6.53135e-08
-4.76514e-08
8.06691e-08
-4.6907e-08
9.57758e-08
-4.61096e-08
1.10618e-07
-4.52659e-08
1.25181e-07
-4.43821e-08
1.39453e-07
-4.34644e-08
1.53426e-07
-4.25185e-08
1.67089e-07
-4.15499e-08
1.80439e-07
-4.05641e-08
1.93469e-07
-3.95659e-08
2.06177e-07
-3.85601e-08
2.18561e-07
-3.7551e-08
2.30621e-07
-3.65426e-08
2.42359e-07
-3.55387e-08
2.53774e-07
-3.45424e-08
2.64872e-07
-3.35567e-08
2.75655e-07
-3.25842e-08
2.86129e-07
-3.16271e-08
2.96297e-07
-3.06873e-08
3.06166e-07
-2.97662e-08
3.15742e-07
-2.88649e-08
3.25031e-07
-2.79842e-08
3.3404e-07
-2.71245e-08
3.42774e-07
-2.62858e-08
3.51241e-07
-2.54676e-08
3.59447e-07
-2.46692e-08
3.67397e-07
-2.38894e-08
3.75097e-07
-2.31266e-08
3.82552e-07
-2.23789e-08
3.89766e-07
-2.16438e-08
3.96742e-07
-2.09187e-08
4.03484e-07
-2.02004e-08
4.09992e-07
-1.94856e-08
4.16268e-07
-1.87707e-08
4.2231e-07
-1.80519e-08
4.28116e-07
-1.73253e-08
4.33685e-07
-1.6587e-08
4.39011e-07
-1.58333e-08
4.4409e-07
-1.50605e-08
4.48915e-07
-1.42656e-08
4.53479e-07
-1.34457e-08
4.57776e-07
-1.25989e-08
4.61795e-07
-1.17238e-08
4.6553e-07
-1.08198e-08
4.68971e-07
-9.88726e-09
4.72111e-07
-8.92699e-09
4.74943e-07
-7.94031e-09
4.7746e-07
-6.92847e-09
4.79662e-07
-5.89277e-09
4.81555e-07
-4.83704e-09
4.83155e-07
-3.77308e-09
4.84472e-07
-2.72219e-09
4.85505e-07
-1.70588e-09
4.86243e-07
-7.42469e-10
4.86682e-07
1.54377e-10
4.86827e-07
9.789e-10
4.86691e-07
1.72931e-09
4.86292e-07
2.40508e-09
4.85651e-07
3.00621e-09
4.84792e-07
3.5334e-09
4.83737e-07
3.98831e-09
4.8251e-07
4.37388e-09
4.81133e-07
4.6944e-09
4.79631e-07
4.95561e-09
4.78022e-07
5.1646e-09
4.76327e-07
5.32991e-09
4.7456e-07
5.46151e-09
4.72734e-07
5.57105e-09
4.70858e-07
5.67221e-09
4.68936e-07
5.78139e-09
4.66964e-07
5.91897e-09
4.64935e-07
6.11136e-09
4.62827e-07
6.39455e-09
4.60612e-07
6.82063e-09
4.58239e-07
7.46851e-09
4.55638e-07
8.46909e-09
4.52706e-07
1.00362e-08
4.49318e-07
1.2608e-08
4.45286e-07
1.68411e-08
4.4097e-07
2.46852e-08
3.80489e-08
4.36573e-07
-1.57486e-08
2.46367e-10
-3.05271e-08
1.24855e-08
-4.46278e-08
2.1448e-08
-5.84126e-08
2.93352e-08
-7.21065e-08
3.65012e-08
-8.58531e-08
4.29409e-08
-9.97299e-08
4.85788e-08
-1.13714e-07
5.33607e-08
-1.27671e-07
5.72726e-08
-1.41395e-07
6.03214e-08
-1.5468e-07
6.25203e-08
-1.67365e-07
6.38925e-08
-1.79356e-07
6.44811e-08
-1.90623e-07
6.43537e-08
-2.01188e-07
6.35992e-08
-2.11106e-07
6.23196e-08
-2.20451e-07
6.06216e-08
-2.29301e-07
5.86081e-08
-2.37733e-07
5.63738e-08
-2.45812e-07
5.40015e-08
-2.53592e-07
5.15605e-08
-2.61115e-07
4.91072e-08
-2.68409e-07
4.66854e-08
-2.75495e-07
4.43277e-08
-2.82386e-07
4.20571e-08
-2.89087e-07
3.98886e-08
-2.95603e-07
3.78304e-08
-3.01934e-07
3.58855e-08
-3.0808e-07
3.40528e-08
-3.1404e-07
3.23281e-08
-3.19814e-07
3.07049e-08
-3.25399e-07
2.91752e-08
-3.30797e-07
2.77298e-08
-3.36005e-07
2.6359e-08
-3.41023e-07
2.50526e-08
-3.45851e-07
2.38007e-08
-3.50486e-07
2.25932e-08
-3.54926e-07
2.14203e-08
-3.59171e-07
2.02726e-08
-3.63215e-07
1.91411e-08
-3.67056e-07
1.80171e-08
-3.70688e-07
1.68926e-08
-3.74106e-07
1.57598e-08
-3.77302e-07
1.46117e-08
-3.80269e-07
1.34416e-08
-3.82998e-07
1.22433e-08
-3.85478e-07
1.10113e-08
-3.87698e-07
9.74028e-09
-3.89646e-07
8.4257e-09
-3.91306e-07
7.06329e-09
-3.92663e-07
5.64918e-09
-3.93698e-07
4.17973e-09
-3.94392e-07
2.65135e-09
-3.94722e-07
1.0599e-09
-3.94667e-07
-5.99156e-10
-3.94209e-07
-2.32982e-09
-3.93328e-07
-4.13436e-09
-3.92007e-07
-6.01331e-09
-3.90225e-07
-7.96615e-09
-3.87966e-07
-9.99152e-09
-3.8521e-07
-1.20872e-08
-3.81941e-07
-1.42502e-08
-3.78142e-07
-1.64764e-08
-3.73798e-07
-1.87608e-08
-3.68897e-07
-2.10975e-08
-3.63426e-07
-2.34794e-08
-3.57375e-07
-2.58984e-08
-3.50738e-07
-2.83456e-08
-3.43509e-07
-3.08111e-08
-3.35686e-07
-3.32842e-08
-3.27269e-07
-3.57534e-08
-3.18261e-07
-3.82066e-08
-3.08669e-07
-4.06315e-08
-2.98502e-07
-4.30151e-08
-2.87773e-07
-4.53445e-08
-2.76497e-07
-4.76068e-08
-2.64694e-07
-4.97892e-08
-2.52385e-07
-5.18795e-08
-2.39595e-07
-5.3866e-08
-2.26351e-07
-5.57377e-08
-2.12683e-07
-5.74845e-08
-1.98623e-07
-5.90976e-08
-1.84205e-07
-6.0569e-08
-1.69464e-07
-6.18924e-08
-1.54437e-07
-6.30625e-08
-1.3916e-07
-6.40757e-08
-1.23673e-07
-6.49296e-08
-1.08012e-07
-6.56234e-08
-9.22173e-08
-6.61575e-08
-7.6325e-08
-6.65336e-08
-6.03722e-08
-6.67549e-08
-4.43945e-08
-6.68254e-08
-2.84261e-08
-6.67502e-08
-1.24988e-08
-6.65359e-08
3.35717e-09
-6.6189e-08
1.91134e-08
-6.57169e-08
3.47439e-08
-6.51283e-08
5.02231e-08
-6.44326e-08
6.55263e-08
-6.3639e-08
8.06312e-08
-6.27562e-08
9.55175e-08
-6.17934e-08
1.10167e-07
-6.07594e-08
1.24565e-07
-5.96632e-08
1.38696e-07
-5.85131e-08
1.52549e-07
-5.73174e-08
1.66114e-07
-5.60836e-08
1.79383e-07
-5.48194e-08
1.92351e-07
-5.35315e-08
2.05012e-07
-5.22268e-08
2.17363e-07
-5.09112e-08
2.29402e-07
-4.95906e-08
2.4113e-07
-4.82702e-08
2.52546e-07
-4.69549e-08
2.63653e-07
-4.56488e-08
2.74452e-07
-4.43559e-08
2.84947e-07
-4.30796e-08
2.95143e-07
-4.18228e-08
3.05043e-07
-4.05878e-08
3.14654e-07
-3.93768e-08
3.2398e-07
-3.81912e-08
3.33028e-07