/*--------------------------------*- C++ -*----------------------------------*\
  =========                 |
  \\      /  F ield         | OpenFOAM: The Open Source CFD Toolbox
   \\    /   O peration     | Website:  https://openfoam.org
    \\  /    A nd           | Version:  6
     \\/     M anipulation  |
\*---------------------------------------------------------------------------*/
FoamFile
{
    version     2.0;
    format      ascii;
    class       volVectorField;
    location    "0.25";
    object      U;
}
// * * * * * * * * * * * * * * * * * * * * * * * * * * * * * * * * * * * * * //

dimensions      [0 1 -1 0 0 0 0];

internalField   nonuniform List<vector> 
12225
(
(0.948757 -0.405569 0)
(1.0127 -0.19067 0)
(1.01474 -0.0513929 0)
(0.983377 -0.00514125 0)
(0.955319 0.00452548 0)
(0.93688 0.00423922 0)
(0.924619 0.00260001 0)
(0.915897 0.00150452 0)
(0.909351 0.000963936 0)
(0.904124 0.000714787 0)
(0.899693 0.000593892 0)
(0.895789 0.000532686 0)
(0.892252 0.000503547 0)
(0.888988 0.000497428 0)
(0.885829 0.000502466 0)
(0.883026 0.000540472 0)
(0.879195 0.000578235 0)
(0.880739 -5.66914e-05 0)
(1.03699 0.0761208 0)
(1.02001 0.0533188 0)
(1.01136 0.0193982 0)
(1.00433 0.00901714 0)
(0.997966 0.00672811 0)
(0.9912 0.00529563 0)
(0.984012 0.00404777 0)
(0.977432 0.00319804 0)
(0.971956 0.00266714 0)
(0.96743 0.00231449 0)
(0.963578 0.00207073 0)
(0.960214 0.00190678 0)
(0.957209 0.00180219 0)
(0.954474 0.00174784 0)
(0.95188 0.00172102 0)
(0.949527 0.00179298 0)
(0.946815 0.00160267 0)
(0.945069 0.00234757 0)
(0.998333 0.0132119 0)
(0.995363 0.0119549 0)
(1.00082 0.00640798 0)
(1.00192 0.00652479 0)
(1.00123 0.00702736 0)
(0.999302 0.00634521 0)
(0.995953 0.00529132 0)
(0.992068 0.00442021 0)
(0.988372 0.00378889 0)
(0.985047 0.00333057 0)
(0.98206 0.00300225 0)
(0.979356 0.00277717 0)
(0.976877 0.00263225 0)
(0.974573 0.00255639 0)
(0.972361 0.00253115 0)
(0.970262 0.00260243 0)
(0.968007 0.00259466 0)
(0.965857 0.00296172 0)
(0.995105 -0.00695112 0)
(0.992487 0.00125447 0)
(0.998598 0.00394161 0)
(1.00082 0.00596016 0)
(1.0016 0.00706125 0)
(1.00157 0.00682741 0)
(1.00022 0.0060595 0)
(0.998064 0.00531236 0)
(0.99569 0.00470539 0)
(0.993343 0.00422955 0)
(0.991095 0.00387247 0)
(0.988966 0.00362088 0)
(0.986949 0.00345877 0)
(0.985022 0.00337848 0)
(0.983138 0.00336871 0)
(0.981295 0.00346437 0)
(0.979347 0.00357791 0)
(0.977329 0.00400941 0)
(0.996671 -0.00693986 0)
(0.99382 0.000830866 0)
(0.998051 0.00376031 0)
(1.00006 0.00556568 0)
(1.00133 0.0067913 0)
(1.00215 0.00690171 0)
(1.00193 0.00644137 0)
(1.00091 0.00588545 0)
(0.999509 0.00537607 0)
(0.997952 0.00494421 0)
(0.996338 0.00460448 0)
(0.994723 0.0043597 0)
(0.993129 0.00420453 0)
(0.991558 0.00413757 0)
(0.989986 0.00415601 0)
(0.988409 0.00428986 0)
(0.986753 0.00451028 0)
(0.984993 0.00501614 0)
(0.997828 -0.00414758 0)
(0.995153 0.00128407 0)
(0.997864 0.00349542 0)
(0.999559 0.00507759 0)
(1.00097 0.00635242 0)
(1.00216 0.00671652 0)
(1.00257 0.00652968 0)
(1.00229 0.00617747 0)
(1.00159 0.00580096 0)
(1.00066 0.0054532 0)
(0.999578 0.00516707 0)
(0.998416 0.00495892 0)
(0.997208 0.00483405 0)
(0.995972 0.00479815 0)
(0.994702 0.00485664 0)
(0.993398 0.00503737 0)
(0.992031 0.00534483 0)
(0.990572 0.00590506 0)
(0.998451 -0.00256823 0)
(0.996206 0.00118886 0)
(0.997939 0.00307032 0)
(0.999331 0.00457242 0)
(1.00069 0.00585045 0)
(1.00199 0.00638611 0)
(1.00273 0.00642045 0)
(1.00292 0.0062556 0)
(1.00272 0.00602022 0)
(1.00227 0.00577631 0)
(1.00162 0.00556651 0)
(1.00084 0.0054164 0)
(0.999983 0.0053399 0)
(0.999057 0.00534904 0)
(0.998075 0.00545585 0)
(0.997044 0.00568682 0)
(0.995962 0.00606185 0)
(0.994811 0.00665925 0)
(0.998884 -0.00172488 0)
(0.997112 0.00100495 0)
(0.998205 0.0027023 0)
(0.999315 0.00411468 0)
(1.00053 0.00534172 0)
(1.00179 0.00597986 0)
(1.00268 0.00618198 0)
(1.00316 0.00617657 0)
(1.0033 0.006075 0)
(1.0032 0.00593989 0)
(1.0029 0.00581726 0)
(1.00245 0.00573775 0)
(1.00189 0.00572119 0)
(1.00124 0.00578428 0)
(1.00053 0.00594341 0)
(0.999764 0.00622346 0)
(0.998956 0.00664875 0)
(0.998104 0.00726702 0)
(0.999233 -0.00110795 0)
(0.997894 0.000929449 0)
(0.998565 0.00243202 0)
(0.999434 0.00371574 0)
(1.00048 0.00485388 0)
(1.00163 0.00554016 0)
(1.00257 0.00586103 0)
(1.0032 0.00598329 0)
(1.00357 0.00599963 0)
(1.00372 0.0059683 0)
(1.00368 0.00593437 0)
(1.0035 0.00593022 0)
(1.00319 0.00597883 0)
(1.0028 0.00609957 0)
(1.00233 0.00631088 0)
(1.00181 0.00663529 0)
(1.00126 0.00709556 0)
(1.00069 0.0077196 0)
(0.999502 -0.000618137 0)
(0.998539 0.000928088 0)
(0.998947 0.00222898 0)
(0.999627 0.00336934 0)
(1.00051 0.00439983 0)
(1.00154 0.00509332 0)
(1.00245 0.00549035 0)
(1.00316 0.00570859 0)
(1.00366 0.00582259 0)
(1.00399 0.00588361 0)
(1.00415 0.00593309 0)
(1.00417 0.00600257 0)
(1.00408 0.0061159 0)
(1.00391 0.00629314 0)
(1.00366 0.00655276 0)
(1.00337 0.0069142 0)
(1.00305 0.00739593 0)
(1.00273 0.00801305 0)
(0.999692 -0.000260448 0)
(0.999045 0.000946276 0)
(0.999308 0.00206404 0)
(0.999853 0.00306542 0)
(1.0006 0.00398287 0)
(1.0015 0.00465435 0)
(1.00236 0.00509242 0)
(1.00309 0.00537737 0)
(1.00367 0.00556736 0)
(1.00411 0.00570559 0)
(1.00441 0.00582842 0)
(1.0046 0.00596486 0)
(1.00469 0.00613771 0)
(1.0047 0.00636615 0)
(1.00464 0.00666714 0)
(1.00455 0.00705653 0)
(1.00444 0.00754779 0)
(1.00433 0.00814782 0)
(0.99981 -3.95128e-05 0)
(0.999393 0.000955817 0)
(0.999596 0.00192847 0)
(1.00006 0.00281323 0)
(1.00072 0.00363011 0)
(1.00151 0.00426427 0)
(1.00231 0.00471533 0)
(1.00303 0.00503857 0)
(1.00365 0.00527917 0)
(1.00415 0.00547303 0)
(1.00455 0.00565137 0)
(1.00485 0.00583988 0)
(1.00507 0.00605931 0)
(1.00522 0.00632691 0)
(1.00531 0.0066574 0)
(1.00538 0.00706321 0)
(1.00543 0.00755359 0)
(1.00549 0.00813044 0)
(0.99989 0.000104568 0)
(0.999653 0.000951711 0)
(0.999836 0.00179838 0)
(1.00025 0.00257763 0)
(1.00083 0.00330035 0)
(1.00155 0.00388845 0)
(1.00229 0.00433627 0)
(1.00299 0.00468095 0)
(1.00362 0.00495675 0)
(1.00417 0.00519278 0)
(1.00463 0.00541513 0)
(1.00502 0.00564583 0)
(1.00534 0.00590292 0)
(1.00561 0.00620124 0)
(1.00583 0.00655286 0)
(1.00603 0.00696699 0)
(1.00623 0.00744927 0)
(1.00644 0.00799834 0)
(0.999948 0.000195707 0)
(0.999858 0.000919993 0)
(1.00005 0.00164666 0)
(1.00043 0.00231902 0)
(1.00096 0.00294283 0)
(1.00161 0.00347208 0)
(1.00229 0.00390023 0)
(1.00296 0.00425079 0)
(1.00359 0.0045486 0)
(1.00417 0.00481599 0)
(1.00469 0.00507347 0)
(1.00516 0.00533873 0)
(1.00557 0.00562632 0)
(1.00595 0.00594793 0)
(1.00629 0.00631248 0)
(1.00662 0.00672589 0)
(1.00695 0.00719053 0)
(1.00729 0.00770315 0)
(0.999983 0.00023416 0)
(1 0.000847475 0)
(1.00021 0.00145768 0)
(1.00059 0.00202341 0)
(1.00109 0.00254709 0)
(1.00168 0.00300718 0)
(1.00231 0.00339959 0)
(1.00296 0.00373872 0)
(1.00359 0.00404189 0)
(1.00419 0.00432529 0)
(1.00475 0.00460389 0)
(1.00528 0.0048907 0)
(1.00578 0.00519632 0)
(1.00624 0.00552885 0)
(1.00669 0.00589388 0)
(1.00714 0.00629428 0)
(1.00758 0.00672986 0)
(1.00804 0.00719652 0)
(1 0.000225374 0)
(1.00009 0.000725015 0)
(1.00033 0.0012151 0)
(1.0007 0.00167113 0)
(1.00119 0.00209364 0)
(1.00175 0.00247596 0)
(1.00235 0.0028176 0)
(1.00298 0.00312758 0)
(1.00361 0.00341744 0)
(1.00423 0.00369813 0)
(1.00483 0.00397957 0)
(1.00541 0.0042702 0)
(1.00597 0.00457659 0)
(1.00652 0.00490335 0)
(1.00706 0.00525297 0)
(1.00759 0.0056258 0)
(1.00813 0.00601995 0)
(1.00869 0.00643114 0)
(1.00001 0.000179065 0)
(1.00013 0.000547768 0)
(1.00039 0.000904946 0)
(1.00077 0.00124022 0)
(1.00125 0.00155471 0)
(1.0018 0.00184867 0)
(1.0024 0.00212412 0)
(1.00303 0.0023868 0)
(1.00366 0.00264367 0)
(1.0043 0.00290117 0)
(1.00494 0.00316478 0)
(1.00556 0.0034388 0)
(1.00618 0.00372619 0)
(1.00679 0.00402843 0)
(1.00739 0.00434553 0)
(1.008 0.00467608 0)
(1.00861 0.00501726 0)
(1.00923 0.00536504 0)
(1.00001 0.00010503 0)
(1.00014 0.000314556 0)
(1.00041 0.000515303 0)
(1.0008 0.000707766 0)
(1.00129 0.000896287 0)
(1.00184 0.00108406 0)
(1.00245 0.0012738 0)
(1.00309 0.00146869 0)
(1.00375 0.00167167 0)
(1.00441 0.00188496 0)
(1.00508 0.00210997 0)
(1.00575 0.00234736 0)
(1.00641 0.00259692 0)
(1.00707 0.00285765 0)
(1.00772 0.0031277 0)
(1.00838 0.00340452 0)
(1.00903 0.00368493 0)
(1.00968 0.00396533 0)
(1.00001 1.135e-05 0)
(1.00014 2.59371e-05 0)
(1.0004 3.30085e-05 0)
(1.00079 4.67759e-05 0)
(1.00129 7.7446e-05 0)
(1.00186 0.000129818 0)
(1.00249 0.000206718 0)
(1.00316 0.00030892 0)
(1.00385 0.0004352 0)
(1.00456 0.000583335 0)
(1.00526 0.00075074 0)
(1.00597 0.000934609 0)
(1.00667 0.00113195 0)
(1.00736 0.00133962 0)
(1.00805 0.00155436 0)
(1.00873 0.00177286 0)
(1.0094 0.00199177 0)
(1.01006 0.00220785 0)
(1.00001 -5.91008e-05 0)
(1.00008 -0.000222272 0)
(1.0003 -0.000413835 0)
(1.00068 -0.000587984 0)
(1.00119 -0.000726421 0)
(1.0018 -0.000821616 0)
(1.00247 -0.000867307 0)
(1.00319 -0.000863762 0)
(1.00393 -0.000816627 0)
(1.00468 -0.000732831 0)
(1.00542 -0.000618999 0)
(1.00616 -0.000481345 0)
(1.00688 -0.000325614 0)
(1.00759 -0.000156989 0)
(1.00829 1.99062e-05 0)
(1.00896 0.000200935 0)
(1.00962 0.000382404 0)
(1.01027 0.000561055 0)
(0.999981 -5.62553e-05 0)
(0.999932 -0.000351022 0)
(1.00007 -0.000734922 0)
(1.00044 -0.0010885 0)
(1.00097 -0.00139079 0)
(1.00163 -0.00162834 0)
(1.00237 -0.00178523 0)
(1.00317 -0.00186333 0)
(1.00397 -0.00187516 0)
(1.00477 -0.00183357 0)
(1.00555 -0.00174985 0)
(1.00631 -0.00163412 0)
(1.00704 -0.00149522 0)
(1.00774 -0.00134053 0)
(1.00842 -0.00117615 0)
(1.00907 -0.00100713 0)
(1.00969 -0.000837629 0)
(1.0103 -0.000671098 0)
(0.999912 7.33004e-05 0)
(0.999593 -0.000344355 0)
(0.999623 -0.000965338 0)
(1.00001 -0.00152669 0)
(1.00061 -0.00202234 0)
(1.00137 -0.00241909 0)
(1.00224 -0.00268308 0)
(1.00314 -0.00282536 0)
(1.00402 -0.00287255 0)
(1.00487 -0.00284681 0)
(1.00567 -0.00276607 0)
(1.00642 -0.00264589 0)
(1.00713 -0.00249901 0)
(1.00779 -0.00233532 0)
(1.00841 -0.00216238 0)
(1.009 -0.00198602 0)
(1.00955 -0.00181069 0)
(1.01007 -0.00163992 0)
(0.999764 0.000387488 0)
(0.998956 -0.000220577 0)
(0.998887 -0.00114785 0)
(0.999372 -0.00195004 0)
(1.00013 -0.00268092 0)
(1.00109 -0.00324913 0)
(1.00214 -0.0035972 0)
(1.00317 -0.00376547 0)
(1.00413 -0.00380681 0)
(1.00499 -0.00375675 0)
(1.00577 -0.00364222 0)
(1.00646 -0.00348556 0)
(1.00708 -0.00330368 0)
(1.00764 -0.00310852 0)
(1.00815 -0.0029085 0)
(1.00861 -0.00270956 0)
(1.00904 -0.00251583 0)
(1.00944 -0.00233035 0)
(0.999512 0.00100663 0)
(0.997918 -6.62912e-05 0)
(0.997879 -0.0013998 0)
(0.998632 -0.00245119 0)
(0.999669 -0.00344271 0)
(1.00093 -0.00416259 0)
(1.00221 -0.00453529 0)
(1.00334 -0.00466336 0)
(1.0043 -0.00463913 0)
(1.00509 -0.00451411 0)
(1.00574 -0.00432513 0)
(1.00628 -0.0041011 0)
(1.00672 -0.00386177 0)
(1.00708 -0.00361943 0)
(1.0074 -0.0033817 0)
(1.00767 -0.00315335 0)
(1.00791 -0.00293708 0)
(1.00813 -0.0027347 0)
(0.998981 0.00257134 0)
(0.996264 0.000302195 0)
(0.996691 -0.00176677 0)
(0.997999 -0.00312196 0)
(0.999438 -0.00437038 0)
(1.00105 -0.00516356 0)
(1.00252 -0.00545536 0)
(1.00364 -0.00545095 0)
(1.00443 -0.00529012 0)
(1.00498 -0.00503885 0)
(1.00535 -0.00474147 0)
(1.00558 -0.00443015 0)
(1.00571 -0.00412368 0)
(1.00577 -0.0038314 0)
(1.0058 -0.00355768 0)
(1.00581 -0.00330429 0)
(1.0058 -0.00307133 0)
(1.00579 -0.00285853 0)
(0.997456 0.00616871 0)
(0.993467 0.00160252 0)
(0.995404 -0.00191269 0)
(0.997765 -0.00389682 0)
(0.999705 -0.00543682 0)
(1.0016 -0.00617316 0)
(1.00305 -0.00624258 0)
(1.00387 -0.00600264 0)
(1.00422 -0.00563981 0)
(1.00426 -0.00522715 0)
(1.00412 -0.0048088 0)
(1.00385 -0.0044125 0)
(1.00353 -0.00404977 0)
(1.00318 -0.00372259 0)
(1.00283 -0.00342933 0)
(1.0025 -0.00316733 0)
(1.00219 -0.00293326 0)
(1.00191 -0.00272419 0)
(0.994438 0.00860409 0)
(0.989471 0.00236352 0)
(0.994195 -0.00183017 0)
(0.998181 -0.00462576 0)
(1.00068 -0.00648262 0)
(1.00258 -0.00699219 0)
(1.00352 -0.00668969 0)
(1.00351 -0.00613275 0)
(1.00294 -0.00553885 0)
(1.0021 -0.00497018 0)
(1.00116 -0.00445592 0)
(1.00019 -0.00400833 0)
(0.999263 -0.00362461 0)
(0.998394 -0.00329566 0)
(0.997598 -0.00301242 0)
(0.996877 -0.00276759 0)
(0.996227 -0.00255486 0)
(0.995652 -0.00236809 0)
(0.994525 -0.00665017 0)
(0.989502 -0.00850187 0)
(0.995532 -0.0052331 0)
(1.00011 -0.00612613 0)
(1.00254 -0.00747979 0)
(1.00353 -0.00739513 0)
(1.00287 -0.00656591 0)
(1.00106 -0.00566814 0)
(0.99885 -0.00488666 0)
(0.996648 -0.0042303 0)
(0.994593 -0.00369034 0)
(0.992726 -0.00325384 0)
(0.991061 -0.00290104 0)
(0.989587 -0.00261204 0)
(0.988286 -0.00237184 0)
(0.987138 -0.00217062 0)
(0.986124 -0.00200171 0)
(0.985236 -0.00185327 0)
(1.02649 -0.0702258 0)
(1.0171 -0.0623771 0)
(1.01189 -0.0291852 0)
(1.00856 -0.0148173 0)
(1.00582 -0.0102513 0)
(1.00203 -0.00773901 0)
(0.996885 -0.0058445 0)
(0.991405 -0.0045425 0)
(0.986467 -0.00368211 0)
(0.982297 -0.00308099 0)
(0.978797 -0.00263684 0)
(0.975836 -0.00230061 0)
(0.973317 -0.0020411 0)
(0.971158 -0.00183539 0)
(0.969293 -0.00166862 0)
(0.967671 -0.00153376 0)
(0.966259 -0.00143019 0)
(0.965042 -0.00138121 0)
(0.966187 0.350228 0)
(1.02696 0.194276 0)
(1.0328 0.0679385 0)
(1.00477 0.0152954 0)
(0.976668 -0.00122884 0)
(0.95681 -0.00427127 0)
(0.943165 -0.00354586 0)
(0.933436 -0.00238792 0)
(0.926331 -0.00156174 0)
(0.920966 -0.00106196 0)
(0.916716 -0.000766498 0)
(0.913208 -0.000587118 0)
(0.910241 -0.000472908 0)
(0.907693 -0.000395511 0)
(0.905475 -0.00033978 0)
(0.903522 -0.000300261 0)
(0.901767 -0.000273612 0)
(0.900162 -0.000310135 0)
(0.00911043 -0.0274479 -2.51736e-21)
(0.0213874 -0.0302967 2.33502e-21)
(0.0303751 -0.0226974 0)
(0.0359099 -0.0134488 0)
(0.0363604 -0.00450992 0)
(0.0320233 0.00288161 -2.20916e-21)
(0.0247515 0.00768092 0)
(0.015871 0.00985994 0)
(0.00604703 0.0105421 0)
(-0.00456906 0.011132 0)
(-0.0162345 0.0122036 2.21253e-21)
(-0.0291475 0.0136385 0)
(-0.0433275 0.0152265 0)
(-0.0586957 0.0167798 0)
(-0.0750909 0.0181563 0)
(-0.0922955 0.0192596 1.91286e-21)
(-0.110061 0.0200351 0)
(-0.128132 0.0204653 0)
(-0.146261 0.0205621 0)
(-0.164227 0.0203585 0)
(-0.18184 0.0199012 0)
(-0.198945 0.0192428 0)
(-0.215429 0.0184364 0)
(-0.231208 0.0175319 1.7635e-21)
(-0.246236 0.0165726 -1.76147e-21)
(-0.260489 0.0155945 1.76071e-21)
(-0.273967 0.0146259 1.76075e-21)
(-0.286687 0.0136874 0)
(-0.298678 0.0127932 0)
(-0.309975 0.011952 -1.76206e-21)
(-0.320619 0.0111679 -1.76205e-21)
(-0.330653 0.0104417 0)
(-0.340119 0.00977166 0)
(-0.349057 0.00915433 -1.75854e-21)
(-0.357506 0.00858505 0)
(-0.365497 0.00805856 0)
(-0.373062 0.00756924 1.74805e-21)
(-0.380225 0.00711138 0)
(-0.387008 0.00667933 1.73646e-21)
(-0.393427 0.00626759 3.45832e-21)
(-0.399495 0.00587088 0)
(-0.405221 0.0054841 0)
(-0.410609 0.00510237 0)
(-0.415661 0.00472103 0)
(-0.420373 0.00433562 0)
(-0.424741 0.00394191 3.32363e-21)
(-0.428753 0.00353599 3.29246e-21)
(-0.432398 0.00311446 3.25852e-21)
(-0.43566 0.00267479 0)
(-0.438518 0.00221556 -3.18182e-21)
(-0.440951 0.00173671 0)
(-0.442937 0.00124221 3.09255e-21)
(-0.444452 0.000744458 3.0429e-21)
(-0.445466 0.000262715 0)
(-0.445953 -0.000185505 0)
(-0.445929 -0.000593658 0)
(-0.445461 -0.000977739 2.80153e-21)
(-0.444532 -0.0013586 0)
(-0.443134 -0.00174375 0)
(-0.441255 -0.00213608 0)
(-0.438879 -0.00253662 0)
(-0.435992 -0.00294541 0)
(-0.432577 -0.00336201 0)
(-0.428619 -0.00378564 0)
(-0.424105 -0.00421532 0)
(-0.419021 -0.00464987 -1.95254e-21)
(-0.413358 -0.00508793 0)
(-0.407107 -0.00552802 0)
(-0.400261 -0.00596853 1.56066e-21)
(-0.392815 -0.00640775 1.41711e-21)
(-0.384769 -0.00684386 0)
(-0.376124 -0.007275 -1.11063e-21)
(-0.366883 -0.00769925 9.47832e-22)
(-0.357055 -0.00811469 0)
(-0.346649 -0.00851941 -6.03717e-22)
(-0.335679 -0.00891152 0)
(-0.324162 -0.00928923 0)
(-0.312117 -0.00965083 4.4148e-23)
(-0.299566 -0.00999474 0)
(-0.286536 -0.0103195 3.54701e-22)
(-0.273055 -0.0106239 0)
(-0.259152 -0.0109069 -7.7097e-22)
(-0.24486 -0.0111676 -9.84625e-22)
(-0.230213 -0.0114053 -1.20137e-21)
(-0.215248 -0.0116197 -2.84148e-21)
(-0.2 -0.0118107 3.2845e-21)
(-0.184509 -0.0119781 0)
(-0.168812 -0.0121224 0)
(-0.152947 -0.0122438 0)
(-0.136953 -0.0123429 5.0795e-21)
(-0.120868 -0.0124199 5.52895e-21)
(-0.104728 -0.0124747 -5.97669e-21)
(-0.0885698 -0.0125062 0)
(-0.0724309 -0.0125112 6.8632e-21)
(-0.0563485 -0.0124823 7.30016e-21)
(-0.0403617 -0.0124048 7.73185e-21)
(-0.02451 -0.0122533 0)
(-0.00882284 -0.0119991 0)
(0.00669268 -0.0116502 0)
(0.0220306 -0.0112617 8.80036e-21)
(0.0371663 -0.0108715 0)
(0.0520727 -0.0104868 0)
(0.0667321 -0.0101089 -8.86602e-21)
(0.0811306 -0.00973862 0)
(0.0952568 -0.00937642 0)
(0.109101 -0.00902268 -8.82541e-21)
(0.122655 -0.00867778 0)
(0.135912 -0.00834205 0)
(0.148868 -0.00801582 8.71042e-21)
(0.16152 -0.00769933 8.66e-21)
(0.173865 -0.00739281 0)
(0.185904 -0.00709639 -8.54564e-21)
(0.197637 -0.0068102 0)
(0.209066 -0.00653427 8.41748e-21)
(0.220195 -0.0062686 0)
(0.231026 -0.00601312 8.27976e-21)
(0.241566 -0.00576775 8.20841e-21)
(0.251817 -0.0055323 0)
(0.261788 -0.00530659 0)
(0.271484 -0.00509035 0)
(0.28091 -0.00488329 0)
(0.290076 -0.00468507 0)
(0.298985 -0.00449529 0)
(0.307647 -0.00431352 0)
(0.316066 -0.00413928 7.61776e-21)
(0.324249 -0.00397205 -7.5446e-21)
(0.332201 -0.00381126 0)
(0.339927 -0.00365631 0)
(0.347431 -0.00350656 0)
(0.354717 -0.00336135 0)
(0.361785 -0.00321998 -1.43803e-20)
(0.368637 -0.00308174 0)
(0.375272 -0.00294592 1.41103e-20)
(0.381689 -0.00281183 -1.39788e-20)
(0.387883 -0.00267878 0)
(0.393851 -0.00254611 0)
(0.399585 -0.00241324 0)
(0.405078 -0.00227964 1.34786e-20)
(0.410322 -0.00214487 1.33607e-20)
(0.415305 -0.00200861 0)
(0.420018 -0.00187064 1.31343e-20)
(0.424448 -0.00173089 1.30261e-20)
(0.428584 -0.0015894 -1.29214e-20)
(0.432414 -0.00144635 0)
(0.435927 -0.00130198 0)
(0.439111 -0.00115639 -1.26293e-20)
(0.441954 -0.00100873 0)
(0.444443 -0.000855131 0)
(0.446555 -0.000685258 0)
(0.448242 -0.000483899 0)
(0.44943 -0.000255493 1.2228e-20)
(0.450081 -5.07382e-05 1.2159e-20)
(0.450346 8.99818e-05 0)
(0.450319 0.000178624 1.20305e-20)
(0.450056 0.000237542 0)
(0.449601 0.000278833 0)
(0.448985 0.000307833 1.18563e-20)
(0.448236 0.000327197 0)
(0.447379 0.000338595 1.17495e-20)
(0.446437 0.000343425 0)
(0.445431 0.000343036 0)
(0.44438 0.000338755 1.15999e-20)
(0.443297 0.000331875 0)
(0.442196 0.000323663 1.15059e-20)
(0.441085 0.000315372 0)
(0.439968 0.000308283 0)
(0.438845 0.000303772 0)
(0.437711 0.00030341 -1.13326e-20)
(0.436556 0.000309119 0)
(0.435359 0.000323411 1.12571e-20)
(0.434093 0.00034979 0)
(0.432712 0.000393423 0)
(0.43115 0.000462448 0)
(0.429302 0.000570166 0)
(0.427009 0.000741225 0)
(0.423963 0.00101741 0)
(0.419768 0.00151006 0)
(0.412998 0.00233378 -2.26169e-20)
(0.403755 0.00436551 0)
(0.379405 0.00664992 0)
(0.00272012 -0.0458745 7.12989e-21)
(0.00622587 -0.0298956 -6.35911e-21)
(0.00327306 -0.0131227 0)
(-0.00188903 0.000186941 3.67068e-21)
(-0.00841798 0.0111096 0)
(-0.0164163 0.0197423 1.68908e-21)
(-0.0261837 0.0260964 -3.23843e-21)
(-0.0377965 0.0307075 -3.12944e-21)
(-0.0512578 0.0344261 0)
(-0.0663469 0.0378779 -2.9252e-21)
(-0.0826916 0.0412302 -1.43388e-21)
(-0.0999017 0.0443471 0)
(-0.117623 0.0470208 0)
(-0.135532 0.0490821 0)
(-0.153333 0.0504313 0)
(-0.17077 0.0510375 -1.27313e-21)
(-0.187637 0.0509285 0)
(-0.203776 0.0501758 2.49117e-21)
(-0.219083 0.0488785 0)
(-0.233501 0.0471493 0)
(-0.247011 0.0451026 -2.47374e-21)
(-0.259627 0.0428458 0)
(-0.271386 0.0404735 2.48177e-21)
(-0.282339 0.0380649 -1.24256e-21)
(-0.292546 0.0356827 1.24721e-21)
(-0.302072 0.0333735 -1.2521e-21)
(-0.310979 0.0311701 -1.25695e-21)
(-0.319325 0.0290928 0)
(-0.327165 0.0271521 0)
(-0.334546 0.0253508 1.26941e-21)
(-0.341512 0.0236861 -1.26464e-21)
(-0.348096 0.0221509 0)
(-0.354329 0.0207358 0)
(-0.360235 0.0194297 1.27748e-21)
(-0.365836 0.0182206 0)
(-0.371146 0.0170965 0)
(-0.376178 0.0160459 -1.27561e-21)
(-0.38094 0.0150573 0)
(-0.38544 0.0141204 1.26023e-21)
(-0.389681 0.0132254 -2.53247e-21)
(-0.393664 0.0123632 0)
(-0.39739 0.0115258 0)
(-0.400857 0.0107055 -4.98047e-21)
(-0.404061 0.00989556 -4.95118e-21)
(-0.407 0.00908982 -4.91789e-21)
(-0.409669 0.00828264 2.43662e-21)
(-0.412063 0.0074689 -2.42146e-21)
(-0.414177 0.00664404 -7.18878e-21)
(-0.416008 0.00580404 4.74074e-21)
(-0.417553 0.00494547 2.33972e-21)
(-0.41881 0.00406546 0)
(-0.419782 0.0031626 -2.27193e-21)
(-0.420471 0.00224045 2.24889e-21)
(-0.420884 0.00131058 0)
(-0.421026 0.000388421 0)
(-0.420867 -0.000519141 0)
(-0.420318 -0.00142152 -2.04495e-21)
(-0.419351 -0.00233198 0)
(-0.417942 -0.00325674 3.89324e-21)
(-0.416068 -0.00419822 0)
(-0.413713 -0.00515675 3.63807e-21)
(-0.410859 -0.00613138 0)
(-0.407489 -0.00712032 -3.35143e-21)
(-0.40359 -0.00812119 0)
(-0.399146 -0.00913107 3.03234e-21)
(-0.394146 -0.0101466 -1.46762e-21)
(-0.388579 -0.0111642 0)
(-0.382437 -0.0121797 -2.49204e-21)
(-0.375713 -0.0131887 -1.10188e-21)
(-0.368403 -0.0141868 -9.96835e-22)
(-0.360505 -0.0151692 0)
(-0.352021 -0.0161308 -8.84054e-22)
(-0.342954 -0.0170669 -6.58941e-22)
(-0.333311 -0.0179725 0)
(-0.323102 -0.0188426 4.16237e-22)
(-0.312339 -0.0196727 -7.10425e-22)
(-0.30104 -0.0204582 0)
(-0.289222 -0.0211949 -3.00465e-23)
(-0.276908 -0.0218791 0)
(-0.264122 -0.0225073 -5.70007e-22)
(-0.25089 -0.0230766 0)
(-0.237242 -0.0235846 1.39152e-21)
(-0.223209 -0.0240295 6.55503e-22)
(-0.208825 -0.0244101 -6.35408e-22)
(-0.194123 -0.0247255 -1.54877e-21)
(-0.179141 -0.0249759 1.82797e-21)
(-0.163913 -0.0251615 0)
(-0.148478 -0.0252836 0)
(-0.132872 -0.0253437 0)
(-0.117134 -0.0253437 -9.51555e-21)
(-0.101299 -0.0252861 -3.56204e-21)
(-0.0854034 -0.0251734 3.83666e-21)
(-0.0694828 -0.025008 0)
(-0.0535705 -0.0247923 4.04206e-21)
(-0.0376979 -0.0245273 -4.64113e-21)
(-0.0218927 -0.0242122 -4.90244e-21)
(-0.00617793 -0.0238429 0)
(0.00942136 -0.0234133 0)
(0.0248691 -0.0229247 0)
(0.0401318 -0.0223944 -5.52624e-21)
(0.0551928 -0.0218411 0)
(0.0700405 -0.0212737 1.1146e-20)
(0.08466 -0.0206967 1.7088e-20)
(0.0990375 -0.0201134 -1.14496e-20)
(0.113161 -0.0195264 0)
(0.127019 -0.0189383 -5.73054e-21)
(0.140604 -0.0183513 0)
(0.153908 -0.0177677 -1.18555e-20)
(0.166926 -0.0171893 5.86455e-21)
(0.179654 -0.0166181 5.89591e-21)
(0.19209 -0.0160556 0)
(0.204233 -0.0155034 1.8154e-20)
(0.216083 -0.0149626 -1.20693e-20)
(0.22764 -0.0144343 -6.11523e-21)
(0.238907 -0.0139195 0)
(0.249888 -0.0134189 -6.10839e-21)
(0.260585 -0.0129329 -1.8173e-20)
(0.271004 -0.012462 0)
(0.281149 -0.0120064 -1.20348e-20)
(0.291027 -0.0115662 -1.20077e-20)
(0.300643 -0.0111412 -1.19759e-20)
(0.310002 -0.0107313 0)
(0.319111 -0.010336 0)
(0.327977 -0.00995488 0)
(0.336605 -0.00958721 5.86415e-21)
(0.345 -0.00923219 5.91987e-21)
(0.353169 -0.00888887 0)
(0.361115 -0.0085562 1.16574e-20)
(0.368842 -0.00823298 1.16025e-20)
(0.376354 -0.00791793 0)
(0.383654 -0.00760968 1.15478e-20)
(0.390741 -0.00730679 2.28602e-20)
(0.397617 -0.00700776 -1.14239e-20)
(0.40428 -0.00671111 -1.12616e-20)
(0.410727 -0.00641533 0)
(0.416955 -0.00611902 0)
(0.422959 -0.00582083 0)
(0.428733 -0.00551958 -1.11123e-20)
(0.434269 -0.00521424 1.09791e-20)
(0.439558 -0.00490404 2.19157e-20)
(0.444592 -0.00458845 -1.09327e-20)
(0.44936 -0.00426724 1.08176e-20)
(0.453851 -0.00394046 1.08191e-20)
(0.458056 -0.00360845 0)
(0.461962 -0.00327166 0)
(0.465561 -0.00293034 -1.06216e-20)
(0.468842 -0.00258377 0)
(0.471796 -0.00222908 0)
(0.474419 -0.00186028 2.1015e-20)
(0.476726 -0.00147221 0)
(0.478768 -0.00107763 1.04186e-20)
(0.480597 -0.000716359 -1.03994e-20)
(0.482125 -0.000414832 0)
(0.483322 -0.000165473 1.03066e-20)
(0.484197 4.46521e-05 0)
(0.484773 0.000222697 0)
(0.485073 0.000372555 -1.02027e-20)
(0.485124 0.000496789 2.03299e-20)
(0.484952 0.000597459 -1.01303e-20)
(0.484584 0.000676611 0)
(0.484047 0.000736467 0)
(0.483366 0.000779463 1.00285e-20)
(0.482565 0.00080824 0)
(0.481669 0.000825637 9.96198e-21)
(0.480696 0.000834683 0)
(0.479665 0.000838641 0)
(0.478589 0.000841079 0)
(0.477478 0.000846023 9.82762e-21)
(0.476338 0.000858218 0)
(0.475168 0.000883558 -9.76808e-21)
(0.47396 0.00092982 0)
(0.4727 0.00100792 0)
(0.471359 0.00113435 1.93994e-20)
(0.469894 0.00133521 -1.93725e-20)
(0.468244 0.00165709 0)
(0.466288 0.00217901 0)
(0.463959 0.00309163 0)
(0.460727 0.00464634 5.865e-20)
(0.457351 0.0080691 0)
(0.450732 0.0134604 -3.99743e-20)
(-0.00786619 -0.0380371 -1.3675e-22)
(-0.0119937 -0.0150326 7.61699e-21)
(-0.020445 0.00252142 0)
(-0.0300987 0.0173031 -5.86684e-21)
(-0.0404576 0.0300567 0)
(-0.051474 0.040943 0)
(-0.063323 0.049997 2.03051e-23)
(-0.0761394 0.0574308 2.44239e-21)
(-0.0899015 0.0635996 2.358e-21)
(-0.104385 0.0687782 2.28938e-21)
(-0.11924 0.0730452 0)
(-0.134114 0.0763385 0)
(-0.148711 0.0785709 -2.14098e-21)
(-0.16281 0.0797002 -4.2117e-21)
(-0.176263 0.079751 4.15498e-21)
(-0.188987 0.0788107 0)
(-0.200955 0.0770126 4.0756e-21)
(-0.212182 0.0745169 -1.98733e-21)
(-0.22271 0.0714927 0)
(-0.232597 0.0681039 4.01679e-21)
(-0.241908 0.0644987 1.97385e-21)
(-0.250707 0.0608034 -4.00156e-21)
(-0.259051 0.0571202 -1.97687e-21)
(-0.266992 0.0535273 0)
(-0.274572 0.0500802 3.99593e-21)
(-0.281826 0.0468153 3.99621e-21)
(-0.288782 0.0437531 0)
(-0.295462 0.0409015 3.9975e-21)
(-0.301884 0.0382587 0)
(-0.30806 0.0358165 3.99779e-21)
(-0.314002 0.0335621 1.99944e-21)
(-0.319719 0.0314798 0)
(-0.325217 0.0295526 0)
(-0.330502 0.027763 0)
(-0.335578 0.0260937 0)
(-0.340448 0.024528 0)
(-0.345115 0.0230503 0)
(-0.34958 0.021646 3.95654e-21)
(-0.353843 0.0203017 -5.92123e-21)
(-0.357903 0.0190052 0)
(-0.361758 0.0177452 0)
(-0.365407 0.016512 0)
(-0.368844 0.0152966 7.15277e-24)
(-0.372066 0.0140912 3.8528e-21)
(-0.375067 0.012889 7.64349e-21)
(-0.377842 0.0116842 -7.58104e-21)
(-0.380384 0.0104721 -3.75549e-21)
(-0.382684 0.00924895 3.7177e-21)
(-0.384736 0.00801227 2.83928e-24)
(-0.386529 0.00676054 3.63377e-21)
(-0.388055 0.00549327 0)
(-0.389302 0.00421077 3.53351e-21)
(-0.390254 0.00291321 1.26529e-23)
(-0.39089 0.00159773 0)
(-0.391186 0.000255616 0)
(-0.391117 -0.0011228 -3.2743e-21)
(-0.390659 -0.00253946 0)
(-0.389793 -0.00399148 0)
(-0.388499 -0.00547665 3.05316e-21)
(-0.38676 -0.00699293 5.85011e-21)
(-0.384556 -0.00853791 -2.78407e-21)
(-0.38187 -0.0101086 0)
(-0.378687 -0.0117014 2.55636e-21)
(-0.374991 -0.013312 0)
(-0.370768 -0.0149353 2.41411e-21)
(-0.366005 -0.0165659 2.16999e-21)
(-0.360693 -0.0181974 -4.18351e-21)
(-0.354821 -0.0198233 -2.01543e-21)
(-0.348384 -0.0214364 0)
(-0.341377 -0.0230293 3.29449e-21)
(-0.333798 -0.0245941 0)
(-0.325647 -0.026123 3.89089e-21)
(-0.316927 -0.0276079 2.31e-21)
(-0.307646 -0.0290408 1.96282e-21)
(-0.297813 -0.030414 -1.60711e-21)
(-0.287439 -0.0317199 1.77065e-21)
(-0.27654 -0.0329513 0)
(-0.265134 -0.0341016 0)
(-0.253241 -0.0351647 -1.1307e-22)
(-0.240886 -0.0361352 5.17385e-22)
(-0.228094 -0.0370087 0)
(-0.214893 -0.0377813 -6.40402e-22)
(-0.201314 -0.0384502 0)
(-0.187388 -0.0390135 2.89732e-21)
(-0.17315 -0.0394703 2.30345e-22)
(-0.158633 -0.0398204 -2.32775e-22)
(-0.143873 -0.0400649 -3.05177e-21)
(-0.128906 -0.0402054 0)
(-0.113768 -0.0402445 3.84241e-21)
(-0.098495 -0.0401855 2.37914e-22)
(-0.0831224 -0.0400324 0)
(-0.0676851 -0.0397894 0)
(-0.0522168 -0.0394615 0)
(-0.0367497 -0.0390536 -5.99513e-21)
(-0.0213133 -0.0385709 0)
(-0.00593415 -0.038019 0)
(0.00936334 -0.0374041 0)
(0.0245537 -0.0367346 0)
(0.0396085 -0.0360204 0)
(0.0545013 -0.0352676 -7.4166e-21)
(0.0692127 -0.0344812 0)
(0.0837259 -0.0336667 -7.98273e-21)
(0.0980246 -0.0328299 -8.14248e-21)
(0.112094 -0.0319756 8.28976e-21)
(0.125922 -0.0311086 0)
(0.139498 -0.0302334 8.549e-21)
(0.152813 -0.0293541 0)
(0.165859 -0.0284746 8.76476e-21)
(0.178631 -0.0275984 -8.85769e-21)
(0.191125 -0.0267289 -2.65471e-20)
(0.203338 -0.0258688 0)
(0.215269 -0.0250209 -2.69957e-20)
(0.226917 -0.0241875 -8.90022e-21)
(0.238283 -0.0233704 0)
(0.249369 -0.0225715 -1.82561e-20)
(0.260177 -0.021792 -1.83428e-20)
(0.270711 -0.0210331 2.77254e-20)
(0.280975 -0.0202957 0)
(0.290973 -0.0195803 9.35627e-21)
(0.300711 -0.0188872 9.37261e-21)
(0.310194 -0.0182165 2.79885e-20)
(0.319427 -0.017568 0)
(0.328416 -0.0169413 0)
(0.337166 -0.0163357 0)
(0.345684 -0.0157504 9.25647e-21)
(0.353975 -0.0151842 0)
(0.362043 -0.0146359 0)
(0.369894 -0.0141038 -9.36313e-21)
(0.37753 -0.0135863 -9.34856e-21)
(0.384956 -0.0130815 0)
(0.392173 -0.0125873 0)
(0.399184 -0.0121016 -1.85859e-20)
(0.405988 -0.0116221 0)
(0.412585 -0.0111465 1.84967e-20)
(0.418974 -0.0106727 1.83686e-20)
(0.42515 -0.0101984 0)
(0.431111 -0.00972144 0)
(0.43685 -0.00924008 -1.8231e-20)
(0.442363 -0.00875268 -6.27672e-23)
(0.44764 -0.00825795 -5.86312e-23)
(0.452675 -0.007755 0)
(0.457458 -0.00724335 -3.61393e-20)
(0.46198 -0.006723 0)
(0.466232 -0.00619434 0)
(0.470204 -0.00565807 0)
(0.473888 -0.00511495 1.79099e-20)
(0.477276 -0.00456541 0)
(0.480362 -0.00400947 -3.56014e-20)
(0.483148 -0.00344821 -1.77924e-20)
(0.485642 -0.00288805 0)
(0.487862 -0.0023422 -1.77257e-20)
(0.489814 -0.00182413 0)
(0.491484 -0.00134402 0)
(0.492863 -0.000908309 -5.28622e-20)
(0.493948 -0.000518375 3.51592e-20)
(0.49475 -0.000172962 0)
(0.495282 0.00012975 3.50076e-20)
(0.495566 0.000391494 -1.74679e-20)
(0.495621 0.000614031 0)
(0.49547 0.000799422 0)
(0.495137 0.000950185 0)
(0.494645 0.00106936 -5.18876e-20)
(0.494016 0.0011605 0)
(0.493273 0.00122765 -1.72003e-20)
(0.492435 0.00127534 0)
(0.49152 0.00130857 0)
(0.490542 0.00133292 0)
(0.489511 0.00135465 0)
(0.488435 0.00138109 0)
(0.487313 0.00142108 0)
(0.48614 0.00148592 -3.37233e-20)
(0.484901 0.0015909 0)
(0.483571 0.00175817 -1.67864e-20)
(0.482106 0.00202145 5.02911e-20)
(0.480449 0.00243777 0)
(0.478495 0.00310089 0)
(0.476161 0.00421393 -3.36135e-20)
(0.473146 0.0060755 -3.38496e-20)
(0.469838 0.00969755 3.40693e-20)
(0.465694 0.0160964 3.46651e-20)
(-0.0131631 -0.0137094 -1.30956e-20)
(-0.0218847 0.00897042 -1.02523e-20)
(-0.0332682 0.0261694 -5.58509e-21)
(-0.045548 0.0410656 -2.44823e-21)
(-0.0578443 0.0542878 0)
(-0.0700777 0.0659001 4.42358e-21)
(-0.0823917 0.0758482 -2.13097e-21)
(-0.0948416 0.0841296 0)
(-0.107357 0.0908139 -2.00768e-21)
(-0.119772 0.0959792 0)
(-0.131893 0.0996733 3.87047e-21)