/*--------------------------------*- C++ -*----------------------------------*\
  =========                 |
  \\      /  F ield         | OpenFOAM: The Open Source CFD Toolbox
   \\    /   O peration     | Website:  https://openfoam.org
    \\  /    A nd           | Version:  6
     \\/     M anipulation  |
\*---------------------------------------------------------------------------*/
FoamFile
{
    version     2.0;
    format      ascii;
    class       volScalarField;
    location    "0.02";
    object      epsilon;
}
// * * * * * * * * * * * * * * * * * * * * * * * * * * * * * * * * * * * * * //

dimensions      [0 2 -3 0 0 0 0];

internalField   nonuniform List<scalar> 
3032
(
307.513
159.146
103.322
76.4343
61.3044
51.9442
45.7057
41.2866
38.0255
35.5741
33.7602
32.447
31.5608
31.0665
30.9706
31.3381
32.4881
35.1946
71.5622
59.7123
44.4031
34.3768
27.8762
23.4793
20.3895
18.1444
16.4654
15.1847
14.2083
13.4649
12.9082
12.5076
12.2444
12.109
12.1166
12.2928
33.5989
34.3818
29.2761
24.3904
20.5649
17.6705
15.4808
13.8075
12.5119
11.4978
10.7029
10.0797
9.5945
9.22322
8.94885
8.75978
8.65205
8.6185
22.4883
24.1846
22.2117
19.5409
17.0806
15.0222
13.3537
12.0139
10.938
10.0731
9.37834
8.82133
8.37754
8.02833
7.7599
7.56257
7.43037
7.3552
18.0494
19.1582
18.2189
16.5942
14.9076
13.3797
12.0681
10.9682
10.0555
9.30288
8.68489
8.17992
7.77031
7.44198
7.1841
6.98879
6.85034
6.76194
15.9645
16.3954
15.7621
14.6425
13.4059
12.2247
11.1663
10.2475
9.46417
8.8035
8.25058
7.79126
7.41309
7.10555
6.86023
6.67073
6.53193
6.4381
14.902
14.7865
14.1867
13.3014
12.3242
11.3686
10.4893
9.70763
9.02714
8.44265
7.94576
7.52727
7.17837
6.89123
6.65929
6.47725
6.34057
6.2444
14.3398
13.8244
13.1589
12.3678
11.5344
10.7219
9.96725
9.28741
8.68723
8.16496
7.71565
7.33309
7.0109
6.7431
6.52442
6.35039
6.21696
6.12
14.0384
13.2454
12.4877
11.719
10.9587
10.2336
9.5628
8.95627
8.41716
7.94436
7.53436
7.18253
6.88389
6.63364
6.42739
6.26119
6.13141
6.03449
13.8768
12.8997
12.0541
11.274
10.5448
9.86925
9.25217
8.69641
8.20213
7.76734
7.38871
7.06218
6.7835
6.54849
6.35324
6.19417
6.06794
5.97145
13.7907
12.6966
11.7797
10.9751
10.2535
9.60285
9.01796
8.49564
8.03283
7.62603
7.27139
6.96484
6.7023
6.47985
6.29382
6.1408
6.01767
5.92167
13.7491
12.5895
11.6245
10.7962
10.0707
9.42905
8.86012
8.35662
7.91291
7.52404
7.18539
6.89256
6.64135
6.42785
6.24843
6.09975
5.9788
5.88303
13.7257
12.5252
11.5257
10.6765
9.94319
9.30353
8.74277
8.25069
7.81959
7.44319
7.11607
6.83339
6.59072
6.38403
6.20965
6.06424
5.94486
5.84911
13.712
12.485
11.46
10.5925
9.84945
9.20749
8.64984
8.16422
7.74132
7.37366
7.05503
6.78005
6.54396
6.34254
6.17201
6.02899
5.91056
5.81446
13.7049
12.4629
11.4217
10.5405
9.78832
9.14192
8.58371
8.10036
7.68147
7.31869
7.00513
6.7349
6.50292
6.30474
6.13642
5.99453
5.87616
5.77911
13.7017
12.4525
11.4024
10.5127
9.75384
9.10293
8.54242
8.05857
7.64047
7.27927
6.96759
6.69922
6.46879
6.27164
6.10372
5.96152
5.84213
5.7434
13.7005
12.4483
11.3943
10.5003
9.73734
9.08309
8.52008
8.03455
7.6154
7.25356
6.94144
6.67263
6.44161
6.24359
6.07445
5.93064
5.80924
5.70816
13.7001
12.447
11.3915
10.4957
9.73083
9.07461
8.50972
8.02242
7.60159
7.23809
6.92429
6.6537
6.42076
6.22065
6.04922
5.90294
5.77891
5.67508
13.7002
12.4472
11.3918
10.496
9.73083
9.07405
8.50829
8.01978
7.59741
7.23207
6.91615
6.64319
6.40768
6.20486
6.03062
5.88146
5.75454
5.64788
13.7014
12.4512
11.3993
10.5072
9.74521
9.0907
8.52609
8.03757
7.61415
7.24688
6.92836
6.65233
6.41346
6.20715
6.02942
5.87688
5.74674
5.63712
13.7058
12.4653
11.4249
10.5433
9.78952
9.14004
8.57734
8.08808
7.66185
7.29032
6.96664
6.68499
6.4404
6.22852
6.04555
5.8882
5.75375
5.6404
13.7209
12.5102
11.4999
10.6419
9.90241
9.25842
8.69417
8.19836
7.76243
7.37951
7.04383
6.75034
6.49456
6.27244
6.08033
5.91498
5.77367
5.65463
13.7676
12.6354
11.6898
10.8704
10.1451
9.49696
8.91695
8.39898
7.93824
7.53028
7.17078
6.85553
6.5804
6.34148
6.13502
5.9576
5.80629
5.6792
13.9012
12.9487
12.1148
11.3367
10.6035
9.91964
9.29107
8.72111
8.21018
7.75644
7.35666
7.0068
6.70251
6.43935
6.21301
6.01947
5.85523
5.71802
14.2613
13.6685
12.9807
12.2007
11.3908
10.6023
9.86589
9.19668
8.59943
8.07301
7.61328
7.21467
6.87117
6.57677
6.32577
6.11289
5.93358
5.78489
15.1945
15.2349
14.6417
13.7054
12.6633
11.6435
10.7051
9.86976
9.13992
8.50941
7.96868
7.50741
7.11565
6.78427
6.50503
6.27068
6.07509
5.91423
17.6333
18.6203
17.7707
16.2683
14.678
13.2102
11.9284
10.8369
9.91788
9.14796
8.50423
7.96661
7.51809
7.14443
6.83366
6.57575
6.36249
6.18842
24.7031
26.4225
23.9049
20.7879
18.0095
15.7187
13.8752
12.4001
11.2163
10.2603
9.4837
8.84952
8.32986
7.90318
7.55251
7.2643
7.02771
6.83547
51.9558
47.7287
37.796
30.1717
24.7593
20.8793
18.0446
15.929
14.3137
13.0542
12.0555
11.2539
10.605
10.0769
9.64555
9.29245
9.00311
8.76749
251.816
137.329
90.7338
67.0618
53.2211
44.4117
38.4284
34.1272
30.8883
28.3653
26.3552
24.7313
23.4085
22.3257
21.4361
20.703
20.0963
19.5926
1.34228
2.17801
3.23351
4.14505
4.95454
5.68958
6.34019
6.90881
7.40589
7.84139
8.22419
8.56217
8.86191
9.12708
9.36158
9.56866
9.75107
9.9113
10.0516
10.1739
10.28
10.3713
10.4491
10.5146
10.5687
10.6124
10.6465
10.6718
10.689
10.6987
10.7018
10.6987
10.6901
10.6766
10.6588
10.6372
10.6124
10.5848
10.555
10.5233
10.4901
10.4559
10.421
10.3856
4.23173
3.06116
3.2714
3.59175
3.90709
4.1956
4.45303
4.67831
4.87396
5.04336
5.18983
5.31664
5.42609
5.5206
5.60222
5.67262
5.73321
5.78517
5.82953
5.86714
5.89872
5.9249
5.94621
5.96309
5.97595
5.98515
5.99101
5.99382
5.99387
5.99143
5.98675
5.98007
5.97164
5.96168
5.95041
5.93804
5.92476
5.91076
5.89621
5.88126
5.86606
5.85074
5.8354
5.82016
6.38175
3.96218
3.81651
3.92533
4.08641
4.25214
4.40765
4.54796
4.67218
4.78098
4.87581
4.95829
5.02994
5.09217
5.14621
5.19309
5.23366
5.26865
5.29863
5.32408
5.3454
5.36291
5.37691
5.38764
5.39533
5.40019
5.40244
5.40227
5.39991
5.39554
5.38939
5.38166
5.37256
5.36228
5.35103
5.33899
5.32633
5.31321
5.2998
5.28623
5.27261
5.25906
5.24568
5.23253
7.94137
4.64388
4.269
4.25114
4.32378
4.42211
4.52406
4.62112
4.71005
4.78999
4.86113
4.92414
4.97984
5.02902
5.07241
5.11065
5.14424
5.17357
5.19898
5.2207
5.23894
5.25386
5.26561
5.27434
5.28018
5.28329
5.28384
5.28199
5.27796
5.27194
5.26414
5.25478
5.24408
5.23227
5.21955
5.20611
5.19217
5.17788
5.16341
5.14891
5.13449
5.12028
5.10636
5.09282
9.06569
5.12338
4.59668
4.50039
4.52042
4.57972
4.65143
4.72458
4.79447
4.85921
4.91824
4.97163
5.01971
5.06291
5.10161
5.13616
5.16681
5.19377
5.21718
5.23715
5.25374
5.26704
5.27712
5.28407
5.28801
5.28907
5.28741
5.28323
5.27674
5.26816
5.25774
5.24574
5.23239
5.21795
5.20266
5.18674
5.17042
5.15387
5.13729
5.12082
5.10459
5.08873
5.07332
5.05844
9.91273
5.46347
4.83004
4.68401
4.67342
4.71152
4.76778
4.82945
4.89079
4.94923
5.0037
5.05383
5.09963
5.14124
5.1788
5.21245
5.24229
5.26839
5.29077
5.30946
5.32448
5.33587
5.34369
5.34805
5.34906
5.34691
5.34178
5.33393
5.32361
5.3111
5.2967
5.2807
5.26341
5.24511
5.22608
5.20657
5.18683
5.16707
5.14747
5.1282
5.10939
5.09117
5.07361
5.05679
10.6086
5.7252
5.00856
4.82888
4.80068
4.82879
4.87936
4.93817
4.99852
5.05724
5.1128
5.16453
5.21215
5.25556
5.29465
5.3294
5.35979
5.3858
5.40741
5.42461
5.43745
5.44598
5.45032
5.45062
5.4471
5.44001
5.42963
5.41628
5.40032
5.3821
5.36199
5.34036
5.31757
5.29394
5.26981
5.24547
5.22117
5.19714
5.17359
5.15067
5.12853
5.10727
5.08697
5.06769
11.3045
5.96729
5.17043
4.96355
4.92481
4.9498
5.00123
5.0633
5.12832
5.19241
5.2536
5.31081
5.36346
5.41121
5.45379
5.49107
5.52277
5.54886
5.56932
5.58419
5.59359
5.59767
5.59667
5.59088
5.58064
5.56634
5.54839
5.52726
5.50341
5.4773
5.4494
5.42017
5.39003
5.35938
5.32858
5.29796
5.2678
5.23835
5.2098
5.18232
5.15603
5.13102
5.10736
5.08507
12.0636
6.22662
5.34585
5.11398
5.06856
5.09489
5.15182
5.2215
5.29544
5.3689
5.43927
5.50501
5.56517
5.61911
5.66637
5.70662
5.73963
5.7652
5.78335
5.79425
5.79818
5.79547
5.78657
5.77197
5.7522
5.72785
5.69953
5.66786
5.63345
5.59692
5.55883
5.51975
5.48017
5.44056
5.40134
5.36285
5.32539
5.28923
5.25455
5.2215
5.19018
5.16066
5.13297
5.10711
12.9541
6.53482
5.56086
5.30378
5.25384
5.28453
5.35018
5.43082
5.51701
5.60293
5.68519
5.76166
5.83093
5.89201
5.94418
5.98697
6.02008
6.04342
6.05703
6.06128
6.05673
6.044
6.02383
5.99697
5.96425
5.9265
5.88453
5.83919
5.79125
5.74148
5.69059
5.63922
5.58797
5.53736
5.48785
5.4398
5.39355
5.34933
5.30732
5.26766
5.2304
5.19558
5.16319
5.13317
14.0523
6.92347
5.84002
5.55502
5.50134
5.53842
5.61536
5.70972
5.81031
5.9109
6.00691
6.0954
6.17436
6.24236
6.29843
6.34194
6.37262
6.39052
6.39595
6.38959
6.3724
6.34543
6.30979
6.26658
6.21695
6.16201
6.10285
6.0405
5.97593
5.91006
5.84372
5.77765
5.71252
5.6489
5.58728
5.52805
5.47153
5.41796
5.36749
5.3202
5.27613
5.23525
5.1975
5.16277
15.4118
7.41764
6.20391
5.88654
5.82889
5.87357
5.96357
6.07351
6.19057
6.30752
6.41836
6.51913
6.60708
6.68028
6.7375
6.77808
6.80193
6.80941
6.80128
6.77888
6.74371
6.69734
6.64132
6.57718
6.5064
6.43039
6.35047
6.26789
6.18378
6.09918
6.01501
5.9321
5.85116
5.77281
5.69753
5.62573
5.55772
5.49369
5.43377
5.37801
5.32638
5.27879
5.23513
5.19521
17.0497
8.03026
6.66549
6.31114
6.24905
6.30245
6.40725
6.53467
6.66989
6.80433
6.93019
7.04219
7.13668
7.21123
7.26449
7.29601
7.30617
7.29599
7.26708
7.22178
7.16225
7.09065
7.00902
6.9193
6.82329
6.72266
6.61892
6.51345
6.40751
6.30218
6.19846
6.0972
5.99913
5.90487
5.8149
5.72962
5.64929
5.57408
5.50408
5.43927
5.37957
5.32485
5.2749
5.22948
18.9335
8.75667
7.22585
6.83192
6.76596
6.82992
6.95193
7.09938
7.25503
7.4079
7.54797
7.66834
7.76437
7.83331
7.87409
7.88703
7.87357
7.83597
7.77749
7.7014
7.61064
7.50794
7.39581
7.27651
7.15207
7.02428
6.89475
6.76488
6.63594
6.50903
6.3851
6.265
6.14941
6.03893
5.93403
5.83503
5.7422
5.65564
5.57539
5.50139
5.43351
5.37152
5.31518
5.26416
20.9732
9.57134
7.871
7.43922
7.37264
7.45121
7.59483
7.76653
7.94619
8.1185
8.27052
8.39344
8.48185
8.5334
8.54833
8.52885
8.47841
8.40199
8.30429
8.18944
8.06111
7.92252
7.77643
7.62522
7.47094
7.31531
7.15985
7.00586
6.85448
6.70671
6.56341
6.42532
6.29308
6.1672
6.04811
5.9361
5.83136
5.73399
5.64395
5.56116
5.48541
5.41645
5.35395
5.29754
23.0827
10.4534
8.5905
8.12771
8.06851
8.17082
8.34552
8.54992
8.75936
8.95056
9.10747
9.21973
9.28251
9.29591
9.2637
9.19202
9.08882
8.96088
8.81407
8.65333
8.48272
8.3055
8.12431
7.94129
7.75816
7.57634
7.39702
7.22121
7.04981
6.8836
6.72326
6.56941
6.42256
6.28317
6.15157
6.02804
5.91271
5.80565
5.70681
5.61606
5.53316
5.45783
5.38969
5.32832
24.767
11.2212
9.25589
8.79073
8.76212
8.91103
9.13914
9.39541
9.64572
9.85505
10.0042
10.0834
10.0925
10.0389
9.93512
9.79336
9.62412
9.43591
9.23532
9.02733
8.81561
8.60284
8.39096
8.18136
7.97512
7.77302
7.57576
7.3839
7.19798
7.01849
6.84591
6.6807
6.52326
6.37397
6.23311
6.10093
5.97757
5.86306
5.75738
5.66037
5.5718
5.49137
5.41869
5.35331
25.7237
11.7626
9.766
9.32549
9.34843
9.56532
9.86805
10.1936
10.4874
10.703
10.8185
10.831
10.7556
10.614
10.4264
10.2093
9.97482
9.73174
9.48592
9.24122
9.00002
8.76372
8.53308
8.30847
8.09009
7.87801
7.67235
7.47322
7.28081
7.09538
6.91722
6.74667
6.58407
6.42976
6.28402
6.1471
6.01917
5.9003
5.79048
5.6896
5.59745
5.51374
5.4381
5.37008
25.7616
12.0166
10.073
9.68802
9.78685
10.0979
10.5018
10.9152
11.2452
11.435
11.4707
11.3784
11.1951
10.9549
10.6837
10.3992
10.1125
9.83021
9.55604
9.29156
9.03719
8.79264
8.55732
8.3305
8.11153
7.89986
7.69509
7.49701
7.30558
7.12088
6.94312
6.77259
6.60963
6.45459
6.30781
6.16959
6.04015
5.91962
5.80807
5.70542
5.61154
5.52617
5.44896
5.37952
24.7585
11.9685
10.1761
9.88286
10.0852
10.5203
11.0575
11.5581
11.8811
11.9801
11.884
11.6563
11.356
11.0245
10.6869
10.357
10.0418
9.74374
9.46305
9.19857
8.94858
8.71118
8.48457
8.26717
8.05771
7.85521
7.65901
7.46872
7.2842
7.10549
6.93281
6.76648
6.60691
6.45451
6.30971
6.17288
6.04435
5.92433
5.81296
5.71025
5.61613
5.53041
5.45281
5.38295
22.651
11.7034
10.1511
9.9948
10.3379
10.9297
11.6074
12.1396
12.3622
12.2813
12.0012
11.6265
11.2243
10.8294
10.4575
10.114
9.79913
9.5106
9.24498
8.99862
8.76808
8.55032
8.34279
8.14346
7.95077
7.76362
7.58128
7.40337
7.22977
7.06062
6.89621
6.73695
6.58335
6.43593
6.29524
6.16174
6.03586
5.91792
5.80815
5.70665
5.61342
5.52836
5.45123
5.38173
20.3248
11.4697
10.1731
10.1897
10.7144
11.4943
12.2866
12.7042
12.6528
12.2899
11.8033
11.3045
10.8397
10.423
10.0546
9.72965
9.44148
9.18341
8.9493
8.73387
8.53276
8.34243
8.16014
7.98381
7.81192
7.64346
7.47782
7.31475
7.15427
6.99664
6.84229
6.69175
6.54566
6.40466
6.26939
6.14046
6.01838
5.90358
5.79637
5.69696
5.60542
5.52171
5.4457
5.37712
17.7157
11.2303
10.3686
10.687
11.5053
12.5395
13.2246
13.1989
12.6733
11.9863
11.3289
10.7607
10.2849
9.88855
9.55632
9.27412
9.03019
8.81502
8.62112
8.44266
8.27515
8.11518
7.96021
7.80839
7.65846
7.50962
7.36149
7.214
7.06734
6.92192
6.77831
6.63719
6.49931
6.36543
6.23629
6.1126
5.99498
5.88394
5.7799
5.68312
5.59378
5.5119
5.43742
5.37015
15.0078
11.1138
11.0582
11.9479
13.2231
14.2767
14.2314
13.3833
12.3302
11.3985
10.6609
10.0933
9.6552
9.3117
9.03616
8.80907
8.61624
8.44739
8.295
8.15359
8.01911
7.8886
7.75994
7.63165
7.50279
7.37282
7.24157
7.10919
6.97601
6.84261
6.70967
6.57799
6.44843
6.32183
6.19906
6.08088
5.96802
5.86106
5.76049
5.66666
5.57981
5.50005
5.42736
5.36162
12.4909
11.7484
13.2588
15.0661
16.4825
16.1245
14.6214
12.95
11.5887
10.5973
9.89563
9.39572
9.03187
8.75912
8.5474
8.37653
8.23288
8.10702
7.99236
7.88421
7.77922
7.67499
7.56984
7.46266
7.35278
7.23994
7.12414
7.00568
6.88505
6.76292
6.64009
6.51745
6.39592
6.27645
6.15995
6.04728
5.93922
5.83643
5.73945
5.6487
5.56449
5.48697
5.4162
5.35212
11.0129
16.4902
19.5854
20.5827
18.9428
16.2107
13.6804
11.8055
10.5354
9.69311
9.12905
8.74262
8.46989
8.27052
8.11869
7.9976
7.89604
7.80635
7.72321
7.64283
7.56255
7.48046
7.39529
7.3062
7.21277
7.11489
7.01274
6.9067
6.79737
6.68551
6.57197
6.45772
6.34373
6.23101
6.12052
6.01318
5.9098
5.81111
5.7177
5.63005
5.54849
5.47326
5.40447
5.34208
14.2618
23.4788
23.3372
20.2329
16.6334
13.6914
11.6363
10.2874
9.41139
8.83515
8.44845
8.18312
7.9964
7.8609
7.75862
7.6775
7.60924
7.54805
7.48979
7.43151
7.37107
7.30698
7.23823
7.16421
7.08464
6.99953
6.90915
6.81395
6.71461
6.61191
6.50676
6.40015
6.2931
6.18665
6.08179
5.97948
5.88058
5.78583
5.69589
5.61125
5.53232
5.45935
5.3925
5.3318
26.1002
20.85
17.1901
14.3223
12.1974
10.7058
9.67764
8.96934
8.47946
8.13881
7.90059
7.73291
7.61363
7.52714
7.46233
7.4112
7.36792
7.3282
7.28889
7.24763
7.20271
7.15291
7.0974
7.03571
6.96765
6.89331
6.81299
6.72719
6.63659
6.54202
6.4444
6.34472
6.24403
6.14339
6.0438
5.94624
5.85159
5.76063
5.67403
5.59234
5.51596
5.44522
5.38029
5.32124
11.7145
11.0633
10.4362
9.81999
9.24601
8.74894
8.34189
8.02158
7.77681
7.59386
7.45959
7.36252
7.29299
7.24311
7.20649
7.17808
7.1539
7.13082
7.10639
7.07874
7.04645
7.00848
6.96414
6.91303
6.85502
6.79022
6.71894
6.64171
6.5592
6.47223
6.38172
6.28868
6.19414
6.09915
6.00474
5.91189
5.8215
5.73436
5.65115
5.57246
5.49872
5.43027
5.36732
5.30997
8.49375
8.32775
8.15028
7.97118
7.79451
7.62686
7.47526
7.34457
7.23687
7.15179
7.08733
7.04052
7.0079
6.98593
6.97124
6.96079
6.95192
6.94238
6.93029
6.91413
6.89271
6.86514
6.83081
6.78935
6.74065
6.68483
6.6222
6.55326
6.47867
6.39923
6.31584
6.2295
6.14122
6.05205
5.963
5.87507
5.78914
5.70602
5.62643
5.55093
5.48001
5.41402
5.35319
5.29766
7.28907
7.21721
7.14592
7.08102
7.02173
6.96635
6.91528
6.86993
6.8317
6.80149
6.77953
6.7654
6.75801
6.75586
6.75718
6.76014
6.76297
6.76399
6.76175
6.75499
6.74268
6.72403
6.69845
6.66563
6.62543
6.57794
6.52346
6.46245
6.39553
6.32348
6.24716
6.16752
6.08557
6.00233
5.9188
5.83594
5.75466
5.67577
5.59997
5.52786
5.45994
5.39657
5.33801
5.28442
6.70677
6.65956
6.61993
6.59023
6.569
6.55334
6.54152
6.53295
6.52761
6.52571
6.5274
6.53265
6.54105
6.55183
6.56398
6.5763
6.58752
6.59636
6.60163
6.60226
6.59733
6.58611
6.56804
6.54278
6.51019
6.47033
6.42343
6.36991
6.31036
6.24548
6.1761
6.10313
6.02753
5.95028
5.87237
5.79473
5.71826
5.64375
5.57193
5.50339
5.43863
5.37803
5.32189
5.27036
6.38432
6.34369
6.31338
6.29385
6.28377
6.28069
6.28258
6.28815
6.29666
6.30769
6.32103
6.33644
6.35357
6.37187
6.39058
6.40881
6.42556
6.43978
6.45045
6.45661
6.45744
6.45221
6.4404
6.42164
6.39576
6.36275
6.32281
6.2763
6.22373
6.16576
6.10314
6.03674
5.96745
5.89622
5.82399
5.75168
5.68015
5.61018
5.54248
5.47766
5.41622
5.35855
5.30495
5.25561
6.18961
6.1497
6.1207
6.10229
6.09333
6.09199
6.09652
6.10556
6.11812
6.13349
6.15117
6.1707
6.19164
6.21343
6.23539
6.25676
6.27666
6.29418
6.3084
6.31845
6.32354
6.32299
6.31626
6.30295
6.28286
6.25593
6.22231
6.18227
6.13626
6.08487
6.02878
5.96879
5.90574
5.84051
5.774
5.70707
5.64057
5.57526
5.51182
5.45085
5.39286
5.33826
5.28734
5.24031
6.06362
6.02241
5.99175
5.97108
5.95945
5.95553
5.95793
5.96547
5.97715
5.99219
6.00994
6.02982
6.05129
6.07375
6.09653
6.1189
6.14007
6.15919
6.17541
6.18793
6.19599
6.19891
6.19616
6.18732
6.17215
6.15054
6.12256
6.08843
6.04853
6.00336
5.95353
5.89976
5.84282
5.78352
5.72271
5.66121
5.5998
5.53922
5.48014
5.42315
5.36874
5.31731
5.26919
5.22459
5.97654
5.93344
5.90014
5.87609
5.86053
5.85247
5.85086
5.85473
5.86319
5.87549
5.89095
5.90895
5.92887
5.95011
5.972
5.99382
6.01482
6.03421
6.05119
6.065
6.0749
6.08026
6.08051
6.07525
6.06417
6.04714
6.02417
5.9954
5.96113
5.92179
5.87792
5.83013
5.77913
5.72567
5.67051
5.61441
5.55812
5.50234
5.44769
5.39476
5.34401
5.29587
5.25064
5.20856
5.9121
5.86709
5.83101
5.80342
5.78372
5.77118
5.76501
5.76444
5.76872
5.77716
5.78913
5.804
5.82116
5.84
5.85986
5.88005
5.89984
5.9185
5.93528
5.94943
5.96028
5.96719
5.96961
5.96713
5.95941
5.94628
5.92769
5.90374
5.87463
5.84073
5.80247
5.76041
5.71516
5.66738
5.61777
5.56703
5.51585
5.46487
5.4147
5.36588
5.31887
5.27409
5.23184
5.19237
5.8611
5.81431
5.77563
5.74471
5.72111
5.70427
5.69361
5.6885
5.68835
5.69255
5.70052
5.71167
5.72544
5.7412
5.75834
5.77619
5.79408
5.8113
5.82715
5.84094
5.85201
5.85976
5.86365
5.86327
5.85826
5.84842
5.83365
5.81399
5.78959
5.76071
5.72773
5.69111
5.65137
5.60909
5.56491
5.51943
5.4733
5.42711
5.38141
5.33672
5.2935
5.25212
5.21291
5.17611
5.82126
5.77288
5.73194
5.69817
5.67121
5.65065
5.63602
5.62683
5.62257
5.62274
5.62681
5.63425
5.64451
5.65704
5.67123
5.68646
5.70211
5.7175
5.73199
5.74491
5.75567
5.76367
5.76841
5.76945
5.76647
5.75921
5.74756
5.7315
5.71112
5.68661
5.65828
5.6265
5.59172
5.55444
5.51521
5.47459
5.43314
5.3914
5.3499
5.30911
5.26946
5.23132
5.19501
5.16078
5.78628
5.7365
5.69358
5.65731
5.62742
5.60359
5.58544
5.57259
5.5646
5.56104
5.56145
5.56535
5.57223
5.58157
5.59281
5.60538
5.61868
5.63209
5.64501
5.65683
5.66696
5.67487
5.68007
5.68214
5.68073
5.67561
5.6666
5.65366
5.63683
5.61623
5.59211
5.56476
5.53456
5.50193
5.46735
5.4313
5.39428
5.35679
5.3193
5.28226
5.24606
5.21107
5.17758
5.14585
5.75042
5.69917
5.65425
5.61551
5.58273
5.55567
5.53404
5.51752
5.50576
5.49839
5.49501
5.4952
5.49849
5.50441
5.51246
5.52209
5.53276
5.54392
5.55499
5.56542
5.57468
5.58225
5.58769
5.59059
5.59061
5.58749
5.58106
5.57121
5.55794
5.54132
5.52151
5.49873
5.47329
5.44552
5.41582
5.3846
5.35229
5.31933
5.28614
5.25312
5.22065
5.18906
5.15866
5.12967
5.71357
5.66072
5.61375
5.57254
5.53694
5.50674
5.48171
5.46161
5.44614
5.43499
5.42781
5.42423
5.42384
5.42623
5.43092
5.43744
5.4453
5.45399
5.463
5.47182
5.47998
5.48701
5.49248
5.49602
5.49729
5.49603
5.49204
5.4852
5.47544
5.46278
5.4473
5.42916
5.40857
5.38578
5.36111
5.3349
5.30749
5.27927
5.25059
5.22182
5.1933
5.16534
5.13824
5.67602
5.62136
5.57225
5.52858
5.49022
5.45701
5.42876
5.40525
5.38624
5.37146
5.36061
5.35337
5.34938
5.34826
5.34961
5.353
5.35799
5.36413
5.37098
5.37807
5.38499
5.39131
5.39664
5.40064
5.40297
5.40339
5.40168
5.39767
5.39127
5.38243
5.37118
5.35759
5.34179
5.32395
5.30431
5.28312
5.26066
5.23724
5.21317
5.18875
5.16429
5.14007
5.11636
5.63862
5.58197
5.53065
5.48455
5.44356
5.40753
5.37629
5.34966
5.32741
5.30931
5.29509
5.28447
5.27713
5.27274
5.27093
5.27134
5.27357
5.27724
5.28195
5.28731
5.29293
5.29844
5.30349
5.30776
5.31095
5.3128
5.31309
5.31163
5.30829
5.30297
5.29563
5.28629
5.27499
5.26184
5.24699
5.23061
5.21292
5.19415
5.17457
5.15443
5.13398
5.11349
5.0932
5.60325
5.54458
5.4911
5.44273
5.39933
5.36079
5.32692
5.29756
5.2725
5.25153
5.2344
5.22085
5.21059
5.20332
5.19872
5.19646
5.1962
5.1976
5.20031
5.20399
5.20831
5.21293
5.21755
5.22188
5.22562
5.22854
5.23041
5.23101
5.2302
5.22784
5.22383
5.21813
5.21074
5.20169
5.19106
5.17897
5.16556
5.15102
5.13554
5.11935
5.10266
5.08569
5.06867
5.5739
5.5133
5.45786
5.40747
5.36201
5.32134
5.28531
5.25373
5.2264
5.20313
5.18366
5.16774
5.15511
5.14549
5.13858
5.13408
5.13169
5.13111
5.13202
5.13413
5.13715
5.14079
5.14477
5.14883
5.15269
5.15614
5.15893
5.16086
5.16174
5.16144
5.15981
5.15677
5.15228
5.14633
5.13894
5.13019
5.12017
5.10903
5.09692
5.08401
5.0705
5.05658
5.04244
5.56106
5.49857
5.44128
5.38909
5.34187
5.29949
5.26177
5.22853
5.19957
5.17467
5.15357
5.13604
5.12179
5.11056
5.10205
5.09597
5.09204
5.08998
5.0895
5.09033
5.09221
5.09486
5.09803
5.10147
5.10495
5.10822
5.11107
5.11329
5.11469
5.11511
5.11441
5.1125
5.10931
5.10481
5.09902
5.09198
5.08378
5.07453
5.06436
5.05343
5.0419
5.02995
5.01775
5.56191
5.49721
5.43785
5.38374
5.33474
5.29071
5.25147
5.21682
5.18654
5.16039
5.13811
5.11944
5.10409
5.09178
5.0822
5.07509
5.07014
5.06708
5.06565
5.06556
5.06657
5.06843
5.07089
5.0737
5.07664
5.07946
5.08197
5.08394
5.08519
5.08557
5.08494
5.08321
5.0803
5.07619
5.0709
5.06447
5.05698
5.04854
5.03927
5.02932
5.01884
5.00798
4.99689
5.57257
5.50467
5.44244
5.38574
5.33444
5.28837
5.24732
5.21108
5.17939
5.15198
5.12857
5.10886
5.09255
5.07934
5.0689
5.06096
5.05521
5.05137
5.04918
5.04836
5.04866
5.04984
5.05165
5.05385
5.05621
5.05849
5.06048
5.06198
5.0628
5.0628
5.06185
5.05986
5.05677
5.05258
5.0473
5.04099
5.03372
5.02562
5.01679
5.00739
4.99754
4.98739
4.97708
5.5923
5.52013
5.45413
5.39415
5.34002
5.2915
5.24837
5.21035
5.17715
5.14845
5.12392
5.10324
5.08606
5.07205
5.06088
5.05225
5.04583
5.04136
5.03854
5.03712
5.03683
5.03743
5.03867
5.04031
5.04211
5.04383
5.04527
5.04622
5.04651
5.046
5.04457
5.04214
5.03869
5.03421
5.02873
5.02233
5.01508
5.00711
4.99853
4.98947
4.98007
4.97046
4.96076
5.6253
5.54805
5.47768
5.41397
5.35669
5.30555
5.26023
5.2204
5.18569
5.15574
5.13016
5.10857
5.09059
5.07586
5.06403
5.05477
5.04775
5.0427
5.03933
5.03736
5.03655
5.03663
5.03735
5.03848
5.03975
5.04095
5.04185
5.04226
5.04202
5.04098
5.03905
5.03618
5.03233
5.02754
5.02183
5.0153
5.00803
5.00015
4.99177
4.98303
4.97404
4.96493
4.95581
5.686
5.6033
5.52836
5.46086
5.40044
5.34673
5.29932
5.25778
5.22167
5.19054
5.16396
5.1415
5.12272
5.10725
5.09471
5.08476
5.07709
5.07139
5.0674
5.06484
5.06345
5.06298
5.06317
5.06377
5.06453
5.06522
5.06561
5.06553
5.06479
5.06329
5.06093
5.05767
5.0535
5.04846
5.04259
5.036
5.02878
5.02104
5.01292
5.00453
4.99599
4.98742
4.97891
5.80933
5.72121
5.64178
5.57061
5.5072
5.45105
5.40164
5.35844
5.32092
5.28856
5.26086
5.23733
5.21753
5.20105
5.18751
5.17656
5.16791
5.16126
5.15635
5.15292
5.15072
5.1495
5.14899
5.14894
5.1491
5.14923
5.14911
5.14854
5.14736
5.14546
5.14276
5.13921
5.13483
5.12965
5.12375
5.1172
5.11012
5.10262
5.09483
5.08688
5.07886
5.07089
5.06306
6.07761
5.98384
5.89973
5.82464
5.75794
5.699
5.64718
5.60183
5.56233
5.5281
5.49857
5.47322
5.45158
5.43324
5.41782
5.405
5.39451
5.38609
5.37949
5.37448
5.37083
5.36829
5.36661
5.36552
5.36477
5.36412
5.36331
5.36217
5.36051
5.35822
5.3552
5.35143
5.34691
5.34167
5.33578
5.32934
5.32246
5.31526
5.30786
5.30037
5.29292
5.28559
5.27848
6.71684
6.61513
6.52401
6.44268
6.37035
6.30625
6.24964
6.19976
6.15591
6.1174
6.08361
6.054
6.02807
6.00541
5.98569
5.96864
5.95401
5.94162
5.93128
5.9228
5.91598
5.9106
5.90642
5.90317
5.90057
5.89836
5.89627
5.89406
5.89155
5.88857
5.88501
5.88082
5.87598
5.87053
5.86452
5.85805
5.85123
5.84417
5.83701
5.82986
5.82284
5.81605
5.80957
8.62841
8.50567
8.3946
8.29441
8.20436
8.12361
8.05126
7.98637
7.92802
7.87538
7.8277
7.78434
7.74479
7.70869
7.67576
7.64585
7.61886
7.59475
7.57347
7.55495
7.53906
7.52563
7.51443
7.50516
7.49746
7.49099
7.48538
7.48027
7.47536
7.47039
7.46515
7.45952
7.45343
7.44685
7.43984
7.43248
7.42487
7.41714
7.40943
7.40187
7.3946
7.38774
7.38137
19.2827
19.0091
18.7595
18.532
18.3245
18.1344
17.9594
17.797
17.6454
17.5029
17.3683
17.2411
17.121
17.0083
16.9035
16.8073
16.7205
16.6436
16.5771
16.521
16.4753
16.4394
16.4124
16.3934
16.381
16.3741
16.3713
16.3713
16.373
16.3754
16.3779
16.3799
16.3809
16.3809
16.3798
16.3777
16.3747
16.3712
16.3675
16.3638
16.3605
16.3577
16.3558
)
;

boundaryField
{
    inlet
    {
        type            fixedValue;
        value           uniform 14.855;
    }
    outlet
    {
        type            zeroGradient;
    }
    upperWall
    {
        Cmu             0.09;
        kappa           0.41;
        E               9.8;
        type            epsilonWallFunction;
        value           nonuniform List<scalar> 
61
(
251.816
137.329
90.7338
67.0618
53.2211
44.4117
38.4284
34.1272
30.8883
28.3653
26.3552
24.7313
23.4085
22.3257
21.4361
20.703
20.0963
19.5926
19.2827
19.0091
18.7595
18.532
18.3245
18.1344
17.9594
17.797
17.6454
17.5029
17.3683
17.2411
17.121
17.0083
16.9035
16.8073
16.7205
16.6436
16.5771
16.521
16.4753
16.4394
16.4124
16.3934
16.381
16.3741
16.3713
16.3713
16.373
16.3754
16.3779
16.3799
16.3809
16.3809
16.3798
16.3777
16.3747
16.3712
16.3675
16.3638
16.3605
16.3577
16.3558
)
;
    }
    lowerWall
    {
        Cmu             0.09;
        kappa           0.41;
        E               9.8;
        type            epsilonWallFunction;
        value           nonuniform List<scalar> 
89
(
307.513
159.146
103.322
76.4343
61.3044
51.9442
45.7057
41.2866
38.0255
35.5741
33.7602
32.447
31.5608
31.0665
30.9706
31.3381
32.4881
35.1946
1.34228
4.23173
6.38175
7.94137
9.06569
9.91273
10.6086
11.3045
12.0636
12.9541
14.0523
15.4118
17.0497
18.9335
20.9732
23.0827
24.767
25.7237
25.7616
24.7585
22.651
20.3248
17.7157
15.0078
12.4909
11.0129
14.2618
1.34228
2.17801
3.23351
4.14505
4.95454
5.68958
6.34019
6.90881
7.40589
7.84139
8.22419
8.56217
8.86191
9.12708
9.36158
9.56866
9.75107
9.9113
10.0516
10.1739
10.28
10.3713
10.4491
10.5146
10.5687
10.6124
10.6465
10.6718
10.689
10.6987
10.7018
10.6987
10.6901
10.6766
10.6588
10.6372
10.6124
10.5848
10.555
10.5233
10.4901
10.4559
10.421
10.3856
)
;
    }
    frontAndBack
    {
        type            empty;
    }
    procBoundary2to3
    {
        type            processor;
        value           nonuniform List<scalar> 
58
(
10.3501
5.80511
5.2197
5.0797
5.04413
5.04074
5.04941
5.06411
5.08299
5.1054
5.13087
5.15879
5.18825
5.21807
5.24674
5.27319
5.29465
5.30906
5.31719
5.32017
5.31918
5.31527
5.30934
5.30206
5.29394
5.28533
5.27647
5.26734
5.25752
5.24679
5.23524
5.22298
5.21015
5.19686
5.18326
5.16945
5.15554
5.14163
5.12855
5.11584
5.10204
5.11212
5.11212
5.09329
5.07324
5.05172
5.02822
5.00541
4.9857
4.96671
4.95108
4.94678
4.97056
5.05546
5.27167
5.80349
7.37562
16.3549
)
;
    }
}


// ************************************************************************* //
