/*--------------------------------*- C++ -*----------------------------------*\
  =========                 |
  \\      /  F ield         | OpenFOAM: The Open Source CFD Toolbox
   \\    /   O peration     | Website:  https://openfoam.org
    \\  /    A nd           | Version:  6
     \\/     M anipulation  |
\*---------------------------------------------------------------------------*/
FoamFile
{
    version     2.0;
    format      ascii;
    class       volScalarField;
    location    "0.02";
    object      k;
}
// * * * * * * * * * * * * * * * * * * * * * * * * * * * * * * * * * * * * * //

dimensions      [0 2 -2 0 0 0 0];

internalField   nonuniform List<scalar> 
3032
(
0.246418
0.158838
0.119087
0.0973981
0.0840672
0.0752649
0.0690984
0.0645489
0.0610676
0.0583621
0.0562814
0.0547096
0.0535865
0.0528871
0.0526258
0.0528725
0.0539516
0.0566159
0.339416
0.260077
0.208378
0.175626
0.153859
0.138579
0.127279
0.118578
0.111714
0.106261
0.101937
0.098559
0.096009
0.0942112
0.0931422
0.0928323
0.0934922
0.0954562
0.347465
0.292349
0.248666
0.216569
0.192897
0.175089
0.161356
0.150525
0.141861
0.134905
0.129323
0.124904
0.121503
0.119022
0.117421
0.116718
0.117053
0.118607
0.351357
0.309069
0.272055
0.242314
0.218846
0.2003
0.185498
0.173555
0.163855
0.155961
0.149558
0.144435
0.140435
0.137455
0.13544
0.134397
0.1344
0.135529
0.353915
0.319313
0.287378
0.260224
0.23777
0.219355
0.204241
0.191795
0.181531
0.173067
0.166132
0.160525
0.156096
0.152739
0.150395
0.149051
0.148736
0.149462
0.355682
0.326088
0.298056
0.27333
0.252183
0.234341
0.219361
0.206807
0.196298
0.187533
0.180282
0.174363
0.169638
0.166004
0.163398
0.16179
0.161176
0.161527
0.356926
0.330774
0.305767
0.28319
0.26341
0.246354
0.23177
0.219358
0.208836
0.199971
0.192571
0.186477
0.181565
0.177736
0.174925
0.17309
0.172201
0.172205
0.357814
0.334097
0.311444
0.290717
0.27225
0.256065
0.242019
0.22991
0.219538
0.210721
0.2033
0.19714
0.192128
0.188174
0.185208
0.183179
0.182042
0.18173
0.358448
0.33648
0.315657
0.296491
0.279231
0.26392
0.250479
0.238775
0.228662
0.219997
0.212651
0.206507
0.201466
0.197441
0.194364
0.192175
0.190818
0.190223
0.358898
0.338187
0.318779
0.300909
0.28472
0.270243
0.257427
0.24618
0.236391
0.227949
0.220746
0.21468
0.209662
0.205612
0.202459
0.20014
0.198592
0.197747
0.359213
0.3394
0.321073
0.304257
0.288994
0.275282
0.263075
0.252301
0.242871
0.234693
0.227677
0.221732
0.216776
0.212733
0.209533
0.207111
0.205402
0.20434
0.359413
0.34018
0.322595
0.30655
0.292002
0.278913
0.267227
0.256877
0.247785
0.239869
0.233048
0.22724
0.222368
0.218358
0.215141
0.212651
0.210824
0.209598
0.359556
0.340742
0.323722
0.308294
0.294346
0.2818
0.270586
0.260632
0.251864
0.244208
0.237585
0.231919
0.227138
0.223168
0.219943
0.217397
0.215467
0.214095
0.359665
0.341178
0.324622
0.309729
0.296327
0.284299
0.273551
0.264003
0.255578
0.2482
0.241795
0.23629
0.231614
0.227696
0.22447
0.221873
0.219843
0.218327
0.359741
0.341487
0.325279
0.31081
0.297865
0.286291
0.27597
0.266805
0.258711
0.25161
0.245426
0.240086
0.235519
0.231657
0.228435
0.22579
0.223666
0.222014
0.359789
0.341683
0.325707
0.311537
0.298931
0.287711
0.277736
0.268892
0.261084
0.254226
0.248237
0.243043
0.238572
0.234756
0.231531
0.228839
0.226625
0.224845
0.359816
0.34179
0.325944
0.31195
0.299556
0.288564
0.27882
0.270197
0.262588
0.255897
0.250041
0.244941
0.240523
0.23672
0.23347
0.230714
0.228404
0.226498
0.359826
0.34183
0.326035
0.312111
0.2998
0.2889
0.279248
0.270709
0.263169
0.256528
0.250697
0.245594
0.241148
0.237289
0.233957
0.231097
0.228661
0.226613
0.359822
0.341812
0.325991
0.312026
0.29966
0.288689
0.27895
0.270308
0.262649
0.255874
0.249896
0.244635
0.240018
0.235981
0.232465
0.229417
0.226792
0.224557
0.359794
0.341697
0.325726
0.311549
0.298916
0.287633
0.277551
0.268546
0.260515
0.253368
0.247024
0.241408
0.236452
0.232095
0.228279
0.224952
0.222071
0.219604
0.359732
0.341442
0.325163
0.310582
0.297474
0.285679
0.275069
0.265542
0.257007
0.249382
0.242592
0.236566
0.231238
0.226545
0.222429
0.218838
0.215725
0.213058
0.359599
0.340906
0.32403
0.308724
0.294837
0.28226
0.270902
0.260679
0.251511
0.243317
0.236021
0.229551
0.223837
0.218812
0.214413
0.210583
0.207271
0.204441
0.35934
0.339877
0.321955
0.305495
0.290469
0.27684
0.264546
0.253511
0.243647
0.234863
0.227071
0.220188
0.214134
0.208832
0.20421
0.200203
0.196754
0.19382
0.358868
0.338038
0.318435
0.300297
0.283762
0.268851
0.255509
0.243632
0.233099
0.223789
0.215588
0.208391
0.202099
0.196623
0.191879
0.18779
0.18429
0.181331
0.358055
0.334926
0.312785
0.292371
0.273986
0.257658
0.243268
0.230636
0.219571
0.209896
0.201454
0.194109
0.187739
0.182237
0.177505
0.173453
0.170006
0.167113
0.356707
0.329802
0.303972
0.280637
0.260157
0.24243
0.227164
0.214022
0.202697
0.192928
0.184502
0.177244
0.171008
0.165665
0.161105
0.157229
0.153952
0.15122
0.354511
0.321312
0.290203
0.263315
0.240721
0.221899
0.206194
0.19301
0.181871
0.172411
0.164356
0.157491
0.151648
0.146683
0.142479
0.138929
0.135947
0.133473
0.350884
0.306547
0.267839
0.236994
0.212804
0.193735
0.178478
0.166057
0.155792
0.147218
0.140008
0.133926
0.128793
0.124466
0.120826
0.117772
0.115217
0.113105
0.342402
0.275846
0.227148
0.193377
0.169625
0.152364
0.139304
0.129045
0.120757
0.113936
0.108261
0.103515
0.0995357
0.0962004
0.093408
0.0910737
0.0891264
0.087512
0.259291
0.173076
0.131291
0.107323
0.0919916
0.0815363
0.0740377
0.0684004
0.0639859
0.0604205
0.0574802
0.0550244
0.0529592
0.0512169
0.0497451
0.0485007
0.0474476
0.0465564
0.00867448
0.0198977
0.0259649
0.0306915
0.0345933
0.0379361
0.0408356
0.0433014
0.0454096
0.0472241
0.0487955
0.0501655
0.0513677
0.0524297
0.0533712
0.0542026
0.0549367
0.055583
0.0561499
0.0566451
0.057075
0.0574453
0.057761
0.0580263
0.058245
0.0584206
0.0585563
0.0586551
0.0587198
0.0587533
0.058758
0.0587366
0.0586916
0.0586255
0.0585405
0.058439
0.0583232
0.0581951
0.0580566
0.0579097
0.0577559
0.057597
0.0574343
0.0572692
0.0188435
0.0440933
0.0578902
0.0682912
0.0767684
0.0838575
0.0898613
0.095001
0.0994301
0.103264
0.106592
0.109489
0.112007
0.114198
0.116103
0.117757
0.119187
0.120419
0.121472
0.122364
0.123111
0.123724
0.124217
0.124599
0.124879
0.125067
0.12517
0.125196
0.125152
0.125044
0.12488
0.124665
0.124406
0.124108
0.123776
0.123417
0.123034
0.122633
0.122217
0.12179
0.121357
0.120919
0.12048
0.120042
0.0248328
0.05724
0.0742446
0.0867107
0.0968052
0.105281
0.11252
0.118768
0.124196
0.128927
0.133061
0.136681
0.13985
0.142626
0.145053
0.147171
0.149012
0.150605
0.151974
0.153139
0.154118
0.154927
0.15558
0.156089
0.156467
0.156725
0.156872
0.156919
0.156875
0.156749
0.15655
0.156286
0.155966
0.155598
0.155188
0.154744
0.154271
0.153777
0.153267
0.152744
0.152215
0.151683
0.151152
0.150624
0.0288436
0.0658364
0.0849557
0.0987598
0.109872
0.119204
0.127201
0.134136
0.14019
0.145498
0.150163
0.154269
0.157885
0.161067
0.163864
0.166316
0.168458
0.170319
0.171923
0.173294
0.17445
0.175409
0.176185
0.176792
0.177246
0.177556
0.177737
0.177799
0.177754
0.177613
0.177387
0.177086
0.176719
0.176297
0.175828
0.175322
0.174785
0.174225
0.173648
0.17306
0.172467
0.171873
0.171283
0.170698
0.0316273
0.0718924
0.0925152
0.107304
0.11918
0.129158
0.137731
0.14519
0.151727
0.157481
0.16256
0.167047
0.171014
0.174518
0.177607
0.180323
0.182702
0.184772
0.18656
0.188088
0.189377
0.190443
0.191305
0.191977
0.192474
0.19281
0.192999
0.193055
0.192989
0.192816
0.192547
0.192196
0.191774
0.191291
0.190759
0.190187
0.189584
0.188959
0.188319
0.187671
0.187021
0.186373
0.185731
0.185101
0.0336949
0.0764133
0.0981551
0.11371
0.1262
0.13671
0.145763
0.153661
0.160606
0.166739
0.172169
0.17698
0.181243
0.185016
0.188348
0.19128
0.193847
0.19608
0.198006
0.199646
0.201024
0.202156
0.203063
0.203759
0.204262
0.204587
0.204749
0.204765
0.204648
0.204415
0.204078
0.203653
0.203153
0.202591
0.201978
0.201327
0.200646
0.199946
0.199235
0.198521
0.197808
0.197103
0.196411
0.195734
0.0354343
0.0800746
0.102696
0.118869
0.131874
0.142844
0.152315
0.160603
0.167908
0.174375
0.180113
0.185207
0.189728
0.193736
0.197272
0.20038
0.203096
0.20545
0.207469
0.209178
0.2106
0.211754
0.21266
0.213336
0.213801
0.214073
0.214168
0.214105
0.2139
0.21357
0.213133
0.212603
0.211996
0.211328
0.210611
0.209858
0.20908
0.208288
0.207491
0.206696
0.205911
0.20514
0.204389
0.20366
0.0371378
0.083349
0.106731
0.123448
0.136912
0.148292
0.158139
0.166775
0.174404
0.18117
0.18718
0.192521
0.197262
0.20146
0.205165
0.208417
0.211244
0.213679
0.21575
0.217484
0.218904
0.220033
0.220893
0.221503
0.221885
0.222058
0.222042
0.221857
0.221523
0.221058
0.220481
0.219811
0.219065
0.218259
0.217409
0.216528
0.215628
0.214722
0.213819
0.212927
0.212054
0.211204
0.210382
0.209592
0.0389374
0.0866445
0.110755
0.127985
0.141874
0.153628
0.163814
0.172757
0.18067
0.187694
0.193938
0.199486
0.204407
0.208758
0.212587
0.215934
0.218833
0.221311
0.223393
0.225107
0.226481
0.22754
0.228307
0.228806
0.229059
0.22909
0.228919
0.228571
0.228066
0.227426
0.226673
0.225827
0.224907
0.223931
0.222916
0.221878
0.220831
0.219786
0.218755
0.217746
0.216765
0.21582
0.214913
0.214049
0.0409826
0.0902784
0.115145
0.132884
0.147176
0.15927
0.169753
0.178956
0.187104
0.194338
0.200767
0.206474
0.211528
0.215985
0.219892
0.223289
0.22621
0.228686
0.230738
0.232391
0.233676
0.234622
0.235255
0.235601
0.235686
0.235534
0.235171
0.234621
0.23391
0.23306
0.232097
0.231041
0.229915
0.228739
0.227531
0.226309
0.225088
0.223881
0.222699
0.221551
0.220445
0.219387
0.21838
0.217427
0.0433958
0.0944689
0.120151
0.138407
0.153079
0.165473
0.176202
0.185611
0.193926
0.201306
0.207857
0.213664
0.218794
0.223303
0.227238
0.230637
0.233534
0.235959
0.237939
0.239491
0.24065
0.241447
0.241912
0.242073
0.241958
0.241595
0.241011
0.240233
0.239288
0.238203
0.237003
0.235713
0.234357
0.232957
0.231534
0.230105
0.228689
0.227298
0.225946
0.224642
0.223393
0.222206
0.221084
0.220029
0.0462317
0.0993072
0.125869
0.14464
0.159658
0.172295
0.183199
0.192736
0.201145
0.208595
0.215196
0.221033
0.226175
0.230677
0.234585
0.237936
0.240764
0.243099
0.244966
0.246384
0.247387
0.248011
0.248287
0.248245
0.247915
0.247326
0.246509
0.245491
0.244302
0.242969
0.241522
0.239986
0.238388
0.236752
0.235099
0.233451
0.231825
0.230238
0.228702
0.227228
0.225824
0.224495
0.223247
0.222079
0.0494606
0.104732
0.132214
0.151479
0.166784
0.179586
0.190577
0.200151
0.208562
0.215992
0.222558
0.228347
0.233432
0.237866
0.241694
0.244952
0.247672
0.249883
0.251609
0.25287
0.253706
0.25415
0.254236
0.253994
0.253455
0.25265
0.251608
0.250359
0.248934
0.247363
0.245675
0.243899
0.242062
0.240192
0.238311
0.236442
0.234605
0.232818
0.231093
0.229444
0.227879
0.226403
0.225022
0.223735
0.0529628
0.110513
0.138906
0.158603
0.174103
0.186966
0.197936
0.207439
0.215751
0.223061
0.229499
0.235161
0.240119
0.244426
0.248127
0.251256
0.253842
0.255915
0.257487
0.258596
0.259278
0.259565
0.259489
0.259079
0.258366
0.257378
0.256147
0.254703
0.253075
0.251296
0.249397
0.247406
0.245354
0.243269
0.241177
0.239101
0.237065
0.235086
0.23318
0.231361
0.229637
0.228016
0.226502
0.225097
0.0565298
0.116253
0.145456
0.165466
0.181033
0.193823
0.204642
0.213953
0.222054
0.22914
0.235358
0.240814
0.245582
0.249717
0.25326
0.256243
0.258698
0.260633
0.262083
0.263084
0.263666
0.263858
0.263686
0.263176
0.262357
0.261256
0.259901
0.258324
0.256554
0.254623
0.252562
0.250405
0.24818
0.245919
0.243649
0.241398
0.239187
0.237039
0.234971
0.232998
0.231129
0.229374
0.227736
0.226218
0.0599798
0.121538
0.151338
0.171465
0.186915
0.199466
0.209983
0.218963
0.226716
0.233454
0.23935
0.244519
0.249042
0.252973
0.256356
0.259213
0.261557
0.263426
0.264848
0.265845
0.266438
0.266647
0.266492
0.265993
0.265175
0.264062
0.26268
0.26106
0.259231
0.257226
0.255076
0.252816
0.250478
0.248094
0.245695
0.243309
0.240962
0.238677
0.236475
0.234371
0.232379
0.230506
0.22876
0.227142
0.0624999
0.125
0.154975
0.174935
0.190057
0.202205
0.212287
0.220812
0.228091
0.234386
0.239894
0.244747
0.249036
0.252819
0.256105
0.258943
0.261356
0.263357
0.264952
0.266145
0.266942
0.267352
0.267386
0.26706
0.266393
0.265407
0.264128
0.262585
0.260808
0.25883
0.256685
0.254409
0.252037
0.249602
0.247139
0.244678
0.242249
0.239877
0.237584
0.235388
0.233306
0.231346
0.229517
0.227822
0.0637044
0.125981
0.155578
0.175025
0.189594
0.201184
0.210706
0.218658
0.225369
0.231177
0.236304
0.2409
0.245027
0.248788
0.252218
0.255322
0.258083
0.260479
0.262489
0.264097
0.265295
0.266083
0.266466
0.266456
0.266069
0.265329
0.264261
0.262895
0.261263
0.2594
0.257343
0.255129
0.252796
0.25038
0.247918
0.245444
0.24299
0.240583
0.238248
0.236006
0.233874
0.231865
0.229987
0.228244
0.0633782
0.12426
0.152976
0.17163
0.185469
0.196377
0.205229
0.212446
0.21855
0.223853
0.228575
0.232982
0.237215
0.241319
0.245262
0.24898
0.252401
0.255461
0.258113
0.260328
0.262087
0.263387
0.264233
0.264636
0.264617
0.2642
0.263414
0.262291
0.260866
0.259178
0.257265
0.255167
0.252925
0.250579
0.248167
0.245726
0.24329
0.24089
0.238553
0.236301
0.234154
0.232125
0.230225
0.22846
0.0613669
0.119889
0.147426
0.165149
0.178163
0.188292
0.196385
0.202707
0.207993
0.212666
0.217147
0.221737
0.226521
0.23142
0.236283
0.24095
0.245294
0.249219
0.252664
0.255596
0.257999
0.259873
0.261229
0.262086
0.262468
0.262405
0.261929
0.261078
0.259889
0.258404
0.256665
0.254714
0.252595
0.25035
0.248019
0.245643
0.243257
0.240893
0.238582
0.236347
0.234209
0.232185
0.230286
0.228518
0.0577142
0.1131
0.139585
0.156483
0.168694
0.177922
0.184793
0.190116
0.1945
0.198671
0.203281
0.208579
0.21444
0.220569
0.226664
0.232487
0.237874
0.242725
0.246985
0.250632
0.253664
0.256092
0.257937
0.259228
0.259994
0.260272
0.2601
0.259516
0.258564
0.257287
0.25573
0.253938
0.251955
0.249827
0.247595
0.245302
0.242984
0.240676
0.23841
0.23621
0.234101
0.232098
0.230215
0.22846
0.0535958
0.104152
0.130031
0.146477
0.1581
0.166468
0.172105
0.176147
0.179522
0.18353
0.188882
0.195485
0.202844
0.210427
0.217827
0.224777
0.231124
0.236792
0.241753
0.246004
0.249564
0.252457
0.254716
0.256376
0.257474
0.25805
0.258147
0.257805
0.257071
0.25599
0.254607
0.25297
0.251125
0.249117
0.246991
0.244789
0.242549
0.240309
0.238099
0.235947
0.233877
0.231907
0.230051
0.228318
0.0488428
0.0943655
0.119928
0.136473
0.147917
0.155342
0.159672
0.16209
0.164785
0.169442
0.176271
0.184572
0.193494
0.202387
0.210844
0.218644
0.225682
0.231924
0.237372
0.242048
0.245984
0.249215
0.251782
0.253724
0.255082
0.255898
0.256216
0.256079
0.255534
0.254625
0.253401
0.251907
0.250192
0.248302
0.246281
0.244171
0.242014
0.239845
0.237698
0.2356
0.233577
0.231647
0.229825
0.228121
0.0437107
0.0857215
0.111267
0.12837
0.139838
0.145922
0.148001
0.149107
0.152393
0.158788
0.167515
0.17738
0.187447
0.197145
0.206173
0.214395
0.221765
0.228284
0.233978
0.23888
0.243029
0.246466
0.249231
0.251364
0.252908
0.253903
0.254392
0.254419
0.254029
0.253267
0.25218
0.250815
0.249219
0.247437
0.245516
0.243497
0.241421
0.239326
0.237243
0.235203
0.233229
0.231343
0.229559
0.227889
0.0387169
0.0811976
0.107677
0.125183
0.13454
0.1371
0.137025
0.138931
0.14458
0.153264
0.163548
0.174274
0.184744
0.194596
0.203662
0.211882
0.219249
0.22578
0.231505
0.236461
0.240683
0.244208
0.247075
0.249321
0.250983
0.252101
0.252715
0.252867
0.252601
0.251959
0.250989
0.249735
0.248244
0.246562
0.244734
0.2428
0.240803
0.238778
0.23676
0.234777
0.232855
0.231015
0.229271
0.227636
0.035741
0.0888683
0.112927
0.12433
0.127101
0.126809
0.128496
0.134018
0.142662
0.152973
0.163804
0.174476
0.184633
0.1941
0.202802
0.210712
0.217835
0.224187
0.22979
0.234672
0.238861
0.242387
0.245281
0.247574
0.249301
0.250496
0.251196
0.25144
0.251268
0.250724
0.24985
0.248692
0.247294
0.245701
0.243957
0.242103
0.240179
0.238223
0.236267
0.234341
0.23247
0.230675
0.228972
0.227373
0.0427479
0.0862847
0.103081
0.110346
0.114368
0.119265
0.126517
0.135704
0.145905
0.1564
0.166748
0.176698
0.186106
0.194892
0.203013
0.21045
0.217196
0.223258
0.228646
0.233374
0.237461
0.240926
0.243794
0.246089
0.247839
0.249075
0.249829
0.250138
0.250039
0.249571
0.248777
0.2477
0.246382
0.244868
0.2432
0.241419
0.239565
0.237673
0.235776
0.233905
0.232083
0.230333
0.22867
0.227107
0.0650816
0.0786533
0.0919378
0.103108
0.11303
0.122646
0.132332
0.142116
0.151888
0.161505
0.170846
0.179814
0.188335
0.196353
0.20383
0.210736
0.217055
0.222779
0.227904
0.232434
0.236377
0.239743
0.242548
0.244812
0.246555
0.247805
0.24859
0.248942
0.248895
0.248488
0.24776
0.246751
0.245503
0.24406
0.242461
0.240747
0.238957
0.237126
0.235286
0.233467
0.231694
0.229987
0.228364
0.226836
0.098707
0.103599
0.109824
0.11701
0.124867
0.133139
0.141627
0.150194
0.158732
0.16715
0.175369
0.183321
0.190945
0.198188
0.205005
0.21136
0.217225
0.22258
0.22741
0.23171
0.235477
0.238714
0.24143
0.243637
0.245352
0.246595
0.247393
0.247773
0.247767
0.24741
0.246738
0.245791
0.244609
0.243232
0.241699
0.240051
0.238325
0.236554
0.234772
0.233007
0.231283
0.229622
0.228039
0.226548
0.120896
0.12396
0.127942
0.132873
0.138636
0.145023
0.151828
0.158878
0.166037
0.173199
0.18028
0.187211
0.193929
0.200379
0.206511
0.212282
0.217656
0.222604
0.227102
0.231134
0.234691
0.237768
0.240366
0.242492
0.244157
0.245377
0.246173
0.24657
0.246595
0.246281
0.245662
0.244775
0.243657
0.242346
0.240882
0.239302
0.237642
0.235935
0.234215
0.232507
0.230836
0.229223
0.227685
0.226233
0.137366
0.139739
0.142781
0.146566
0.151041
0.156079
0.16154
0.167297
0.173235
0.17926
0.185294
0.191268
0.197123
0.202802
0.208255
0.213435
0.218301
0.222817
0.226955
0.230692
0.23401
0.2369
0.239355
0.241378
0.242973
0.244153
0.244933
0.245335
0.245383
0.245105
0.244534
0.243703
0.242648
0.241404
0.240009
0.238499
0.236908
0.235269
0.233613
0.231966
0.230352
0.228791
0.2273
0.225891
0.150925
0.152838
0.155288
0.158322
0.161911
0.165969
0.170404
0.175126
0.18005
0.185101
0.190213
0.195327
0.200387
0.205342
0.210143
0.214743
0.219101
0.223177
0.22694
0.230362
0.233421
0.236102
0.238393
0.240292
0.2418
0.242923
0.243674
0.24407
0.244131
0.243883
0.243355
0.242577
0.241583
0.240406
0.239081
0.237642
0.236123
0.234555
0.232966
0.231384
0.229831
0.228326
0.226886
0.225524
0.162639
0.164163
0.166139
0.168588
0.171488
0.174782
0.178404
0.182288
0.186372
0.190598
0.194912
0.199265
0.203609
0.207899
0.212088
0.216135
0.219997
0.223637
0.22702
0.230117
0.232903
0.235359
0.23747
0.23923
0.240634
0.241687
0.242396
0.242775
0.242841
0.242616
0.242126
0.241398
0.240463
0.239352
0.238098
0.236733
0.235288
0.233793
0.232276
0.230762
0.229273
0.227828
0.226443
0.22513
0.172984
0.174152
0.175709
0.177661
0.179989
0.182652
0.185602
0.188789
0.192167
0.195689
0.199313
0.202998
0.206703
0.210388
0.214014
0.21754
0.220929
0.224145
0.227152
0.229923
0.232429
0.234651
0.236571
0.238178
0.239468
0.240438
0.241095
0.241448
0.241511
0.241303
0.240846
0.240166
0.239288
0.238243
0.237061
0.235771
0.234403
0.232984
0.231542
0.230099
0.228678
0.227297
0.22597
0.22471
0.182197
0.183033
0.18421
0.185724
0.187558
0.189682
0.19206
0.194655
0.197428
0.200345
0.203368
0.206466
0.209602
0.212742
0.215852
0.218896
0.22184
0.22465
0.227295
0.229743
0.231971
0.233954
0.235677
0.237124
0.23829
0.23917
0.239766
0.240085
0.240139
0.239943
0.239515
0.238879
0.238058
0.237079
0.235969
0.234756
0.233466
0.232127
0.230762
0.229395
0.228046
0.226731
0.225466
0.224262
0.190399
0.19093
0.191761
0.192885
0.194287
0.195943
0.197827
0.199908
0.202158
0.204547
0.207044
0.209623
0.212252
0.214903
0.217545
0.220146
0.222676
0.225105
0.227402
0.22954
0.231494
0.233242
0.234765
0.23605
0.237086
0.23787
0.2384
0.23868
0.23872
0.238532
0.238131
0.237537
0.236771
0.235858
0.234821
0.233686
0.232478
0.23122
0.229937
0.228649
0.227374
0.22613
0.224931
0.223786
0.19766
0.197914
0.198433
0.19921
0.200231
0.201478
0.20293
0.204564
0.206356
0.208281
0.210316
0.212435
0.214613
0.216824
0.219042
0.221239
0.223388
0.225461
0.227432
0.229274
0.230965
0.232483
0.233811
0.234933
0.23584
0.236525
0.236986
0.237225
0.237248
0.237064
0.236688
0.236136
0.235425
0.234578
0.233615
0.23256
0.231435
0.230262
0.229063
0.227857
0.22666
0.22549
0.224359
0.223278
0.204016
0.204024
0.204266
0.204736
0.205422
0.206311
0.207385
0.208627
0.210017
0.211535
0.21316
0.214871
0.216647
0.218464
0.220299
0.222129
0.223929
0.225675
0.227342
0.228908
0.23035
0.231649
0.232789
0.233753
0.234533
0.235121
0.235512
0.235708
0.235713
0.235534
0.235182
0.234671
0.234015
0.233235
0.232347
0.231374
0.230334
0.229249
0.228136
0.227014
0.2259
0.224807
0.223747
0.222732
0.209094
0.208908
0.20893
0.209155
0.209573
0.210174
0.210945
0.211869
0.212932
0.214116
0.215404
0.216778
0.218219
0.219706
0.22122
0.222739
0.224241
0.225706
0.227111
0.228435
0.22966
0.230766
0.231737
0.232561
0.233226
0.233725
0.234054
0.234212
0.2342
0.234026
0.233696
0.233224
0.232621
0.231904
0.231089
0.230194
0.229236
0.228235
0.227206
0.226166
0.225131
0.224113
0.223124
0.222173
0.213425
0.213063
0.212889
0.212895
0.213077
0.213424
0.213927
0.214572
0.215347
0.216238
0.217229
0.218305
0.21945
0.220645
0.221873
0.223115
0.224353
0.225565
0.226734
0.227841
0.228868
0.229798
0.230616
0.23131
0.23187
0.232288
0.232559
0.232681
0.232655
0.232486
0.23218
0.231746
0.231195
0.23054
0.229796
0.228978
0.228102
0.227184
0.226238
0.225281
0.224324
0.223381
0.222463
0.221577
0.217487
0.216948
0.216574
0.216363
0.216308
0.216403
0.216639
0.217007
0.217497
0.218096
0.218792
0.219572
0.220422
0.221326
0.222269
0.223235
0.224206
0.225166
0.226098
0.226986
0.227814
0.228566
0.22923
0.229794
0.230248
0.230584
0.230798
0.230887
0.23085
0.23069
0.230412
0.230023
0.229531
0.228947
0.228283
0.227551
0.226766
0.225941
0.225089
0.224223
0.223355
0.222497
0.221657
0.220845
0.221011
0.2203
0.219735
0.219314
0.219033
0.218886
0.218868
0.218971
0.219186
0.219505
0.219916
0.220411
0.220975
0.221597
0.222263
0.22296
0.223672
0.224386
0.225088
0.225762
0.226395
0.226974
0.227487
0.227924
0.228276
0.228535
0.228696
0.228756
0.228713
0.228569
0.228326
0.227988
0.227563
0.227058
0.226483
0.225848
0.225163
0.224441
0.223692
0.222927
0.222158
0.221394
0.220643
0.223691
0.22282
0.222079
0.221465
0.220975
0.220606
0.220353
0.22021
0.220172
0.220231
0.220378
0.220606
0.220904
0.221262
0.221669
0.222114
0.222583
0.223067
0.223551
0.224024
0.224475
0.224891
0.225264
0.225584
0.225842
0.226032
0.226148
0.226186
0.226145
0.226023
0.225822
0.225544
0.225193
0.224775
0.224296
0.223765
0.22319
0.222579
0.221942
0.221288
0.220626
0.219963
0.219309
0.225203
0.224186
0.223284
0.222495
0.221818
0.22125
0.220788
0.220427
0.220163
0.21999
0.219901
0.219891
0.21995
0.220071
0.220245
0.220463
0.220714
0.220988
0.221277
0.221569
0.221855
0.222127
0.222375
0.22259
0.222767
0.222899
0.222979
0.223005
0.222972
0.22288
0.222726
0.222513
0.222242
0.221915
0.221539
0.221117
0.220655
0.220161
0.219642
0.219104
0.218554
0.218001
0.217449
0.225176
0.224018
0.222965
0.222016
0.22117
0.220424
0.219776
0.219223
0.218761
0.218386
0.218092
0.217875
0.217727
0.217643
0.217614
0.217634
0.217695
0.217788
0.217906
0.21804
0.218184
0.218329
0.218468
0.218595
0.218703
0.218786
0.21884
0.218858
0.218839
0.218778
0.218675
0.218527
0.218335
0.2181
0.217824
0.21751
0.217162
0.216784
0.216382
0.215961
0.215527
0.215084
0.214639
0.222959
0.221649
0.220439
0.21933
0.218319
0.217406
0.216587
0.215861
0.215224
0.214672
0.214201
0.213806
0.213481
0.213221
0.213021
0.212873
0.212771
0.212709
0.212681
0.212681
0.212702
0.212738
0.212784
0.212834
0.212881
0.212923
0.212952
0.212964
0.212956
0.212923
0.212863
0.212773
0.212651
0.212498
0.212313
0.212097
0.211853
0.211583
0.211291
0.21098
0.210654
0.210319
0.209977
0.217823
0.21635
0.21498
0.213715
0.212552
0.21149
0.210526
0.209657
0.20888
0.208191
0.207584
0.207056
0.2066
0.206212
0.205886
0.205616
0.205397
0.205223
0.205089
0.20499
0.204922
0.204878
0.204855
0.204848
0.204851
0.204861
0.204871
0.204879
0.204878
0.204865
0.204836
0.204788
0.204718
0.204625
0.204508
0.204367
0.204202
0.204015
0.203809
0.203586
0.203349
0.203102
0.202847
0.211131
0.209528
0.208037
0.206657
0.205385
0.20422
0.203158
0.202196
0.20133
0.200554
0.199864
0.199254
0.198719
0.198253
0.19785
0.197506
0.197216
0.196973
0.196775
0.196616
0.196493
0.196401
0.196335
0.196293
0.196269
0.19626
0.196259
0.196263
0.196267
0.196266
0.196256
0.196233
0.196195
0.19614
0.196065
0.19597
0.195856
0.195723
0.195573
0.195408
0.195229
0.195041
0.194846
0.202405
0.200704
0.199125
0.197664
0.19632
0.195088
0.193966
0.192947
0.192027
0.191201
0.190463
0.189806
0.189224
0.188713
0.188266
0.187878
0.187544
0.187261
0.187023
0.186828
0.186672
0.186551
0.186462
0.186401
0.186364
0.186345
0.186342
0.186348
0.186359
0.18637
0.186377
0.186376
0.186363
0.186336
0.186294
0.186234
0.186158
0.186065
0.185957
0.185836
0.185703
0.185561
0.185412
0.191726
0.189972
0.188347
0.186849
0.185473
0.184215
0.18307
0.182032
0.181096
0.180253
0.179499
0.178825
0.178227
0.177697
0.177232
0.176824
0.176471
0.176168
0.175913
0.175701
0.175531
0.175398
0.175301
0.175234
0.175195
0.175178
0.17518
0.175194
0.175217
0.175242
0.175266
0.175284
0.175293
0.17529
0.175274
0.175243
0.175197
0.175136
0.175062
0.174975
0.174879
0.174774
0.174662
0.179241
0.177484
0.175864
0.174374
0.173011
0.171768
0.17064
0.169619
0.168698
0.16787
0.167128
0.166465
0.165874
0.165349
0.164886
0.164479
0.164125
0.163821
0.163564
0.163351
0.163181
0.16305
0.162956
0.162895
0.162864
0.162857
0.16287
0.162897
0.162934
0.162976
0.163017
0.163054
0.163083
0.163101
0.163107
0.1631
0.163079
0.163045
0.162999
0.162942
0.162875
0.162801
0.162721
0.165094
0.16339
0.161824
0.160391
0.159083
0.157895
0.156819
0.155848
0.154972
0.154186
0.15348
0.152849
0.152285
0.151784
0.151339
0.150948
0.150608
0.150315
0.150069
0.149868
0.149708
0.149589
0.149508
0.149461
0.149444
0.149452
0.149481
0.149524
0.149578
0.149636
0.149694
0.149749
0.149796
0.149833
0.149858
0.149872
0.149873
0.149861
0.149838
0.149806
0.149765
0.149717
0.149663
0.149341
0.147744
0.146283
0.14495
0.143739
0.142641
0.141649
0.140755
0.13995
0.139226
0.138577
0.137994
0.137473
0.137008
0.136596
0.136232
0.135916
0.135646
0.13542
0.135238
0.135098
0.134998
0.134935
0.134906
0.134906
0.134932
0.134978
0.135039
0.135108
0.135182
0.135256
0.135325
0.135388
0.135441
0.135483
0.135513
0.135532
0.135539
0.135537
0.135525
0.135505
0.13548
0.13545
0.131799
0.130363
0.129053
0.127863
0.126783
0.125808
0.124928
0.124135
0.123422
0.12278
0.122202
0.121683
0.121216
0.120799
0.120428
0.120102
0.119819
0.119578
0.11938
0.119223
0.119106
0.119028
0.118986
0.118977
0.118996
0.119038
0.1191
0.119174
0.119257
0.119342
0.119427
0.119508
0.119582
0.119646
0.1197
0.119743
0.119775
0.119797
0.11981
0.119815
0.119813
0.119806
0.119795
0.1117
0.110478
0.109367
0.10836
0.10745
0.106629
0.105889
0.105221
0.10462
0.104077
0.103586
0.103143
0.102744
0.102386
0.102067
0.101786
0.101543
0.101338
0.101172
0.101043
0.100952
0.100896
0.100872
0.100878
0.10091
0.100962
0.101031
0.10111
0.101197
0.101285
0.101373
0.101455
0.101531
0.101598
0.101656
0.101704
0.101743
0.101772
0.101794
0.101809
0.101819
0.101824
0.101826
0.0864572
0.0855239
0.084679
0.0839156
0.0832265
0.0826044
0.0820423
0.0815335
0.081072
0.0806526
0.0802708
0.0799231
0.0796071
0.0793212
0.0790647
0.0788375
0.0786397
0.0784719
0.0783342
0.0782266
0.0781484
0.0780984
0.0780744
0.0780737
0.0780932
0.0781291
0.0781775
0.0782346
0.0782967
0.0783603
0.0784227
0.0784814
0.0785348
0.0785818
0.0786216
0.0786542
0.0786799
0.0786993
0.0787132
0.0787224
0.0787281
0.0787312
0.0787325
0.0459859
0.0454587
0.0449714
0.044522
0.0441076
0.0437248
0.0433699
0.0430395
0.0427302
0.042439
0.0421638
0.0419026
0.0416546
0.0414194
0.0411971
0.0409883
0.040794
0.0406151
0.0404524
0.0403065
0.0401775
0.040065
0.0399685
0.0398865
0.0398176
0.0397599
0.0397113
0.0396699
0.0396336
0.0396006
0.0395694
0.0395388
0.0395077
0.0394755
0.0394418
0.0394065
0.0393696
0.0393314
0.0392922
0.0392524
0.0392124
0.0391726
0.0391336
)
;

boundaryField
{
    inlet
    {
        type            fixedValue;
        value           uniform 0.375;
    }
    outlet
    {
        type            zeroGradient;
    }
    upperWall
    {
        type            kqRWallFunction;
        value           nonuniform List<scalar> 
61
(
0.259291
0.173076
0.131291
0.107323
0.0919916
0.0815363
0.0740377
0.0684004
0.0639859
0.0604205
0.0574802
0.0550244
0.0529592
0.0512169
0.0497451
0.0485007
0.0474476
0.0465564
0.0459859
0.0454587
0.0449714
0.044522
0.0441076
0.0437248
0.0433699
0.0430395
0.0427302
0.042439
0.0421638
0.0419026
0.0416546
0.0414194
0.0411971
0.0409883
0.040794
0.0406151
0.0404524
0.0403065
0.0401775
0.040065
0.0399685
0.0398865
0.0398176
0.0397599
0.0397113
0.0396699
0.0396336
0.0396006
0.0395694
0.0395388
0.0395077
0.0394755
0.0394418
0.0394065
0.0393696
0.0393314
0.0392922
0.0392524
0.0392124
0.0391726
0.0391336
)
;
    }
    lowerWall
    {
        type            kqRWallFunction;
        value           nonuniform List<scalar> 
89
(
0.246418
0.158838
0.119087
0.0973981
0.0840672
0.0752649
0.0690984
0.0645489
0.0610676
0.0583621
0.0562814
0.0547096
0.0535865
0.0528871
0.0526258
0.0528725
0.0539516
0.0566159
0.00867448
0.0188435
0.0248328
0.0288436
0.0316273
0.0336949
0.0354343
0.0371378
0.0389374
0.0409826
0.0433958
0.0462317
0.0494606
0.0529628
0.0565298
0.0599798
0.0624999
0.0637044
0.0633782
0.0613669
0.0577142
0.0535958
0.0488428
0.0437107
0.0387169
0.035741
0.0427479
0.00867448
0.0198977
0.0259649
0.0306915
0.0345933
0.0379361
0.0408356
0.0433014
0.0454096
0.0472241
0.0487955
0.0501655
0.0513677
0.0524297
0.0533712
0.0542026
0.0549367
0.055583
0.0561499
0.0566451
0.057075
0.0574453
0.057761
0.0580263
0.058245
0.0584206
0.0585563
0.0586551
0.0587198
0.0587533
0.058758
0.0587366
0.0586916
0.0586255
0.0585405
0.058439
0.0583232
0.0581951
0.0580566
0.0579097
0.0577559
0.057597
0.0574343
0.0572692
)
;
    }
    frontAndBack
    {
        type            empty;
    }
    procBoundary2to3
    {
        type            processor;
        value           nonuniform List<scalar> 
58
(
0.0571028
0.119609
0.150102
0.170123
0.184483
0.195075