/*--------------------------------*- C++ -*----------------------------------*\
  =========                 |
  \\      /  F ield         | OpenFOAM: The Open Source CFD Toolbox
   \\    /   O peration     | Website:  https://openfoam.org
    \\  /    A nd           | Version:  6
     \\/     M anipulation  |
\*---------------------------------------------------------------------------*/
FoamFile
{
    version     2.0;
    format      ascii;
    class       volScalarField;
    location    "0.02";
    object      nut;
}
// * * * * * * * * * * * * * * * * * * * * * * * * * * * * * * * * * * * * * //

dimensions      [0 2 -1 0 0 0 0];

internalField   nonuniform List<scalar> 
3032
(
1.77715e-05
1.42678e-05
1.23532e-05
1.11701e-05
1.03754e-05
9.81499e-06
9.40173e-06
9.08261e-06
8.8265e-06
8.6173e-06
8.44439e-06
8.30223e-06
8.18851e-06
8.10308e-06
8.04805e-06
8.02842e-06
8.06354e-06
8.19678e-06
0.000144885
0.000101949
8.80099e-05
8.07524e-05
7.64287e-05
7.36124e-05
7.15077e-05
6.97437e-05
6.82163e-05
6.69251e-05
6.58203e-05
6.49279e-05
6.42687e-05
6.38666e-05
6.37672e-05
6.40521e-05
6.49253e-05
6.67114e-05
0.000323399
0.000223727
0.000190092
0.000173068
0.000162843
0.00015614
0.000151362
0.000147687
0.000144759
0.000142457
0.000140634
0.0001393
0.000138481
0.000138234
0.000138665
0.000139968
0.000142523
0.000146904
0.000494064
0.00035548
0.000299898
0.000270429
0.000252357
0.000240365
0.00023191
0.000225648
0.000220914
0.000217324
0.000214654
0.000212839
0.000211873
0.000211805
0.000212756
0.000214956
0.000218792
0.000224757
0.000624567
0.000478983
0.000407969
0.000367267
0.00034131
0.000323661
0.000311094
0.000301843
0.000294946
0.000289769
0.000286011
0.000283516
0.00028222
0.000282135
0.00028336
0.000286093
0.000290644
0.000297327
0.000713201
0.000583701
0.000507251
0.0004592
0.000426951
0.000404296
0.000387839
0.000375627
0.00036643
0.000359536
0.000354537
0.000351191
0.000349373
0.000349047
0.000350264
0.000353159
0.000357932
0.000364732
0.000769406
0.000665946
0.000593118
0.000542627
0.000506695
0.000480457
0.000460904
0.000446103
0.000434813
0.000426284
0.000420038
0.000415774
0.000413313
0.000412571
0.000413542
0.000416289
0.000420904
0.000427409
0.000803549
0.000726681
0.000663411
0.000615021
0.000578343
0.000550387
0.000528889
0.000512229
0.000499323
0.000489446
0.000482109
0.000476985
0.000473859
0.000472607
0.000473172
0.000475549
0.00047974
0.000485676
0.000823714
0.000769297
0.000718113
0.00067511
0.00064034
0.000612574
0.000590473
0.000572919
0.000559067
0.000548299
0.00054017
0.000534363
0.000530654
0.000528891
0.00052898
0.000530859
0.000534466
0.00053967
0.000835401
0.000797953
0.000758732
0.000722832
0.000691893
0.000665987
0.000644624
0.0006272
0.000613166
0.000602068
0.000593551
0.000587337
0.000583217
0.00058103
0.000580658
0.000582003
0.000584959
0.000589365
0.000842092
0.000816545
0.000787619
0.000759127
0.000733074
0.000710228
0.000690708
0.000674346
0.000660883
0.000650049
0.000641596
0.000635312
0.000631017
0.000628561
0.000627818
0.000628672
0.000630994
0.00063461
0.000845583
0.000827278
0.000805716
0.000783378
0.000761997
0.000742526
0.000725378
0.000710659
0.00069832
0.00068824
0.000680271
0.000674267
0.000670085
0.000667596
0.000666678
0.000667212
0.000669065
0.00067207
0.000847695
0.000834276
0.000818315
0.000801206
0.000784209
0.000768204
0.000753708
0.000740981
0.000730117
0.000721111
0.000713902
0.000708403
0.000704512
0.000702123
0.000701128
0.000701413
0.000702852
0.000705288
0.000849057
0.000839105
0.000827587
0.000815096
0.000802367
0.000790044
0.000778597
0.000768327
0.000759405
0.000751902
0.000745827
0.000741142
0.000737787
0.000735682
0.00073474
0.000734861
0.000735933
0.000737814
0.00084986
0.000842117
0.000833731
0.000824846
0.000815782
0.000806902
0.000798528
0.000790906
0.000784202
0.00077851
0.000773869
0.000770274
0.000767691
0.000766067
0.000765334
0.000765414
0.000766214
0.000767611
0.000850286
0.000843791
0.000837338
0.000830892
0.000824537
0.000818416
0.00081269
0.000807497
0.000802941
0.000799088
0.000795964
0.000793569
0.000791878
0.000790851
0.000790438
0.00079058
0.000791205
0.000792209
0.000850485
0.000844599
0.000839156
0.000834089
0.000829387
0.000825074
0.000821195
0.00081779
0.000814888
0.0008125
0.000810618
0.000809223
0.000808281
0.000807754
0.000807601
0.000807776
0.000808225
0.000808864
0.000850556
0.000844889
0.000839828
0.000835309
0.000831297
0.000827773
0.000824724
0.000822136
0.000819989
0.000818253
0.000816891
0.000815861
0.000815122
0.000814632
0.000814356
0.000814258
0.000814297
0.000814406
0.00085053
0.000844783
0.000839576
0.000834836
0.000830523
0.000826615
0.000823101
0.000819969
0.0008172
0.000814767
0.000812638
0.000810777
0.000809151
0.000807729
0.000806483
0.000805391
0.000804427
0.000803543
0.000850325
0.000843943
0.000837659
0.000831398
0.00082518
0.000819073
0.000813162
0.000807523
0.000802209
0.000797253
0.000792666
0.000788445
0.000784581
0.000781057
0.000777855
0.000774956
0.000772336
0.000769952
0.000849758
0.000841731
0.000832904
0.000823411
0.000813542
0.00080362
0.000793915
0.000784629
0.000775889
0.000767763
0.000760279
0.000753436
0.000747217
0.000741592
0.000736528
0.00073199
0.000727936
0.000724314
0.0008482
0.000836081
0.000821708
0.000806053
0.00079007
0.000774468
0.000759693
0.000745983
0.000733429
0.000722036
0.000711764
0.000702549
0.000694316
0.000686987
0.000680486
0.00067474
0.000669681
0.000665232
0.000844107
0.000822805
0.000798042
0.000772688
0.000748495
0.000726297
0.000706366
0.000688668
0.000673037
0.000659264
0.000647144
0.000636489
0.000627134
0.000618934
0.000611761
0.0006055
0.000600052
0.000595323
0.000833794
0.000794232
0.000753303
0.000715913
0.000683442
0.000655799
0.000632397
0.000612546
0.000595621
0.000581109
0.000568607
0.000557801
0.000548447
0.000540345
0.000533331
0.000527267
0.000522036
0.000517538
0.000809066
0.000738618
0.000678325
0.000630564
0.000593122
0.000563546
0.000539852
0.000520552
0.00050457
0.000491149
0.000479758
0.00047002
0.00046166
0.000454469
0.000448279
0.000442955
0.000438385
0.000434477
0.000753668
0.000642553
0.000567962
0.000517176
0.000481023
0.000454289
0.000433839
0.000417688
0.000404569
0.00039367
0.000384467
0.000376615
0.000369878
0.000364083
0.000359096
0.000354806
0.000351126
0.000347985
0.000641456
0.000499012
0.000426523
0.000383577
0.000355308
0.000335462
0.000320783
0.000309384
0.000300157
0.000292449
0.000285877
0.00028021
0.0002753
0.000271043
0.000267356
0.000264172
0.00026143
0.000259089
0.000448556
0.000320083
0.000270086
0.000243168
0.000226308
0.000214904
0.000206619
0.000200138
0.000194754
0.000190108
0.000186023
0.000182411
0.000179221
0.000176418
0.000173969
0.000171842
0.000170006
0.000168437
0.000203086
0.000143482
0.000122861
0.000111545
0.000104588
0.000100067
9.67879e-05
9.40892e-05
9.16887e-05
8.94978e-05
8.7499e-05
8.56925e-05
8.40792e-05
8.2655e-05
8.14111e-05
8.03338e-05
7.94076e-05
7.86145e-05
2.40289e-05
1.96316e-05
1.7098e-05
1.54579e-05
1.43105e-05
1.34725e-05
1.2838e-05
1.23384e-05
1.19293e-05
1.15831e-05
1.12827e-05
1.10181e-05
1.07833e-05
1.05746e-05
1.03895e-05
1.0226e-05
1.00822e-05
9.95655e-06
5.04528e-06
1.63602e-05
1.87647e-05
2.04526e-05
2.17383e-05
2.2765e-05
2.3671e-05
2.44255e-05
2.50588e-05
2.55963e-05
2.60561e-05
2.64527e-05
2.67976e-05
2.7106e-05
2.73847e-05
2.76332e-05
2.78558e-05
2.8054e-05
2.82297e-05
2.83843e-05
2.85195e-05
2.86365e-05
2.87365e-05
2.88204e-05
2.88894e-05
2.89442e-05
2.89856e-05
2.90146e-05
2.9032e-05
2.90385e-05
2.9035e-05
2.90222e-05
2.9001e-05
2.89722e-05
2.89366e-05
2.88948e-05
2.88477e-05
2.87959e-05
2.87401e-05
2.8681e-05
2.86191e-05
2.85549e-05
2.84891e-05
2.84219e-05
7.55171e-06
5.71611e-05
9.21974e-05
0.00011686
0.000135754
0.000150846
0.000163205
0.000173624
0.000182556
0.000190293
0.000197032
0.000202931
0.000208088
0.000212603
0.000216554
0.000220003
0.000223
0.000225588
0.000227805
0.000229682
0.000231247
0.000232526
0.000233541
0.000234314
0.000234863
0.000235208
0.000235366
0.000235353
0.000235185
0.000234876
0.000234443
0.000233898
0.000233255
0.000232526
0.000231724
0.00023086
0.000229945
0.000228988
0.000227999
0.000226985
0.000225955
0.000224916
0.000223873
0.000222832
8.69667e-06
7.4423e-05
0.000129989
0.00017239
0.000206395
0.000234605
0.000258519
0.00027914
0.000297123
0.000312904
0.000326814
0.000339098
0.00034995
0.000359529
0.000367965
0.000375369
0.000381839
0.000387458
0.0003923
0.000396433
0.000399916
0.000402805
0.000405149
0.000406995
0.000408387
0.000409363
0.000409962
0.000410219
0.000410168
0.000409841
0.000409268
0.000408478
0.000407496
0.000406349
0.000405061
0.000403654
0.000402147
0.000400561
0.000398913
0.000397217
0.000395489
0.000393741
0.000391984
0.000390228
9.42856e-06
8.4003e-05
0.000152161
0.000206489
0.000251276
0.000289196
0.00032188
0.000350416
0.000375536
0.000397761
0.000417477
0.000434982
0.000450515
0.000464273
0.000476426
0.000487119
0.000496483
0.000504633
0.000511675
0.000517704
0.000522808
0.000527066
0.000530553
0.000533337
0.000535481
0.000537045
0.000538083
0.000538648
0.000538787
0.000538547
0.000537971
0.000537099
0.000535969
0.000534617
0.000533075
0.000531374
0.000529542
0.000527605
0.000525587
0.000523507
0.000521385
0.000519238
0.00051708
0.000514924
9.9304e-06
9.07929e-05
0.000167581
0.000230262
0.000282792
0.000327828
0.000367047
0.000401563
0.000432144
0.000459341
0.000483569
0.000505152
0.000524355
0.000541402
0.000556487
0.000569782
0.00058144
0.000591605
0.000600403
0.000607953
0.000614365
0.000619737
0.000624164
0.00062773
0.000630515
0.000632593
0.000634032
0.000634896
0.000635246
0.000635139
0.000634627
0.000633761
0.000632587
0.000631148
0.000629486
0.000627637
0.000625635
0.000623512
0.000621296
0.000619012
0.000616681
0.000614324
0.000611958
0.000609596
1.03081e-05
9.61861e-05
0.000179522
0.000248439
0.000306708
0.000357012
0.000401069
0.000440023
0.000474663
0.000505567
0.000533166
0.000557791
0.000579731
0.000599232
0.000616504
0.000631742
0.00064512
0.000656799
0.000666927
0.00067564
0.000683061
0.000689307
0.000694482
0.000698684
0.000702003
0.000704522
0.000706319
0.000707465
0.00070803
0.000708078
0.000707669
0.00070686
0.000705703
0.00070425
0.000702547
0.000700637
0.000698558
0.000696347
0.000694036
0.000691654
0.000689225
0.000686772
0.000684313
0.000681865
1.06521e-05
0.000100796
0.000189513
0.000263348
0.000326031
0.000380302
0.000427924
0.000470093
0.000507627
0.000541125
0.000571047
0.000597756
0.000621566
0.00064275
0.00066151
0.00067807
0.000692623
0.000705348
0.000716408
0.000725951
0.000734114
0.000741019
0.000746778
0.000751495
0.000755263
0.000758169
0.000760296
0.000761718
0.000762508
0.000762733
0.000762459
0.000761746
0.000760654
0.000759236
0.000757545
0.000755628
0.000753529
0.000751289
0.000748944
0.000746525
0.000744061
0.000741577
0.000739092
0.000736624
1.09806e-05
0.000104777
0.000198289
0.000276324
0.00034256
0.000399842
0.00045003
0.000494393
0.000533805
0.000568911
0.000600211
0.000628111
0.000652953
0.000675038
0.000694623
0.000711955
0.000727201
0.000740562
0.000752216
0.000762318
0.000771009
0.000778415
0.000784647
0.000789807
0.000793986
0.000797269
0.000799734
0.000801455
0.000802504
0.000802949
0.000802856
0.000802288
0.000801306
0.00079997
0.000798335
0.000796453
0.000794374
0.000792142
0.000789797
0.000787375
0.000784909
0.000782425
0.000779946
0.000777491
1.1311e-05
0.000108511
0.000206517
0.000288271
0.000357406
0.000416913
0.000468799
0.000514422
0.000554767
0.000590551
0.000622338
0.000650591
0.000675701
0.000698009
0.00071781
0.000735367
0.000750905
0.000764598
0.000776605
0.000787089
0.000796189
0.000804025
0.0008107
0.000816307
0.000820927
0.000824635
0.000827501
0.000829593
0.000830977
0.000831717
0.000831878
0.000831524
0.000830716
0.000829518
0.000827988
0.000826183
0.000824158
0.000821961
0.00081964
0.000817234
0.000814779
0.000812307
0.000809843
0.000807408
1.1669e-05
0.000112247
0.000214582
0.000299643
0.000371056
0.000432021
0.000484739
0.000530726
0.00057109
0.000606658
0.000638089
0.000665924
0.000690619
0.000712565
0.000732096
0.000749496
0.000765005
0.000778823
0.000791078
0.000801893
0.000811399
0.000819703
0.000826892
0.000833039
0.000838211
0.000842465
0.000845859
0.000848449
0.000850291
0.000851443
0.000851967
0.000851923
0.000851377
0.000850391
0.000849028
0.000847352
0.00084542
0.00084329
0.000841012
0.000838635
0.000836198
0.000833738
0.000831286
0.000828866
1.20612e-05
0.00011601
0.000222476
0.000310364
0.000383358
0.000444952
0.000497605
0.000543045
0.000582525
0.000617024
0.000647324
0.000674066
0.000697785
0.000718925
0.000737855
0.000754878
0.000770235
0.000784114
0.000796652
0.000807884
0.000817922
0.000826848
0.000834723
0.000841597
0.00084751
0.000852501
0.000856609
0.000859874
0.000862341
0.000864061
0.000865089
0.000865484
0.000865309
0.000864631
0.000863517
0.000862033
0.000860247
0.000858221
0.000856014
0.00085368
0.000851269
0.000848821
0.000846374
0.000843957
1.24816e-05
0.000119657
0.000229833
0.000319861
0.000393584
0.00045487
0.000506503
0.000550466
0.000588208
0.000620858
0.00064936
0.000674475
0.000696821
0.000716897
0.000735096
0.000751722
0.000766999
0.000781084
0.000794079
0.000805951
0.000816767
0.000826574
0.0008354
0.000843262
0.000850171
0.000856143
0.000861194
0.00086535
0.000868642
0.000871112
0.000872809
0.00087379
0.000874116
0.000873858
0.000873087
0.000871876
0.000870299
0.000868426
0.000866325
0.000864061
0.000861688
0.000859258
0.000856813
0.000854389
1.29135e-05
0.000122933
0.000236029
0.000327221
0.000400623
0.000460552
0.000510167
0.00055174
0.000586943
0.00061707
0.000643254
0.000666388
0.000687174
0.000706151
0.000723716
0.000740148
0.000755626
0.00077025
0.000784034
0.000796883
0.000808825
0.000819857
0.000829965
0.000839129
0.000847329
0.000854554
0.000860802
0.000866079
0.000870407
0.000873818
0.000876356
0.000878076
0.00087904
0.000879322
0.000878997
0.000878145
0.000876849
0.000875188
0.00087324
0.000871077
0.000868765
0.000866365
0.000863927
0.000861495
1.33337e-05
0.000125525
0.000240321
0.000331375
0.000403207
0.000460631
0.000507207
0.000545508
0.000577441
0.000604499
0.000628023
0.000649042
0.000668326
0.000686426
0.000703705
0.000720379
0.000736545
0.000752211
0.000767211
0.00078148
0.000794974
0.000807634
0.000819397
0.000830203
0.000840003
0.00084876
0.000856453
0.000863076
0.000868639
0.00087317
0.000876709
0.00087931
0.00088104
0.000881973
0.000882192
0.000881786
0.000880844
0.000879456
0.00087771
0.000875688
0.000873468
0.000871119
0.000868702
0.000866267
1.3713e-05
0.000127079
0.000241922
0.000331232
0.000400068
0.000453762
0.000496267
0.00053046
0.000558469
0.000582059
0.000602794
0.000621825
0.000639951
0.000657683
0.000675295
0.000692879
0.000710419
0.000727643
0.00074442
0.000760637
0.00077617
0.000790896
0.000804702
0.000817491
0.000829187
0.000839733
0.000849093
0.000857253
0.000864219
0.000870015
0.000874683
0.000878278
0.000880873
0.000882547
0.000883391
0.000883501
0.000882976
0.000881916
0.000880419
0.000878579
0.000876483
0.000874211
0.000871833
0.00086941
1.40271e-05
0.000127177
0.000239949
0.000325556
0.000389708
0.000438244
0.00047551
0.000504685
0.000528123
0.00054802
0.000566125
0.000583648
0.000601341
0.000619583
0.000638477
0.000657878
0.000677436
0.000696962
0.00071624
0.000735049
0.000753185
0.000770463
0.000786727
0.00080185
0.000815734
0.000828311
0.000839538
0.000849401
0.000857905
0.000865079
0.00087097
0.000875643
0.000879173
0.000881652
0.000883179
0.000883857
0.000883797
0.000883109
0.000881901
0.000880278
0.000878337
0.000876168
0.000873851
0.000871456
1.41948e-05
0.00012532
0.000233534
0.000313307
0.000371023
0.000412952
0.000443795
0.000467061
0.000485427
0.000501702
0.000517726
0.000534654
0.000553054
0.000573031
0.000594163
0.000616197
0.000638775
0.00066153
0.000684107
0.000706185
0.000727483
0.000747767
0.000766846
0.000784576
0.000800851
0.000815602
0.000828794
0.00084042
0.000850497
0.000859067
0.000866189
0.000871939
0.000876405
0.000879689
0.0008819
0.000883155
0.000883571
0.00088327
0.000882369
0.000880983
0.000879219
0.000877176
0.000874941
0.000872593
1.41987e-05
0.000121438
0.00022306
0.000295646
0.00034606
0.000380827
0.000404918
0.00042213
0.000435875
0.000449394
0.000464536
0.000482224
0.000502386
0.000524835
0.000549112
0.000574678
0.000600975
0.000627477
0.000653708
0.000679266
0.000703815
0.000727091
0.000748894
0.000769079
0.000787551
0.000804258
0.000819182
0.000832337
0.000843759
0.000853508
0.00086166
0.000868306
0.000873548
0.0008775
0.000880282
0.000882019
0.000882839
0.00088287
0.000882238
0.000881064
0.000879463
0.00087754
0.000875389
0.000873095
1.40329e-05
0.000115644
0.000209089
0.000273649
0.000316333
0.000343712
0.000360958
0.000372142
0.000382273
0.000394394
0.000409929
0.000429343
0.000452375
0.000478427
0.000506736
0.000536505
0.000566979
0.000597486
0.000627459
0.00065644
0.000684071
0.000710089
0.000734308
0.000756607
0.00077692
0.000795226
0.000811535
0.000825888
0.000838348
0.000848994
0.000857922
0.000865239
0.000871061
0.000875512
0.000878721
0.000880823
0.00088195
0.000882239
0.000881819
0.000880817
0.000879351
0.000877531
0.000875456
0.000873214
1.36895e-05
0.000108084
0.000192224
0.000248376
0.000283264
0.000303304
0.000313907
0.000319957
0.000327708
0.000339763
0.000357098
0.000379629
0.000406664
0.000437209
0.000470171
0.000504502
0.000539268
0.000573692
0.000607155
0.00063919
0.000669458
0.00069773
0.000723862
0.000747779
0.000769456
0.000788911
0.00080619
0.000821364
0.00083452
0.000845759
0.000855195
0.000862949
0.000869147
0.000873923
0.000877414
0.000879757
0.000881094
0.00088156
0.000881291
0.000880414
0.000879051
0.000877312
0.000875299
0.000873101
1.32349e-05
9.83687e-05
0.000172745
0.000220497
0.000247748
0.000260673
0.000264775
0.000267965
0.000275413
0.000289247
0.000309895
0.000336772
0.000368719
0.000404321
0.000442162
0.00048097
0.000519697
0.000557525
0.000593853
0.000628261
0.000660472
0.000690321
0.000717728
0.000742672
0.000765176
0.000785298
0.000803118
0.000818733
0.000832252
0.000843794
0.000853486
0.000861457
0.000867845
0.000872787
0.000876425
0.000878901
0.000880355
0.000880926
0.000880749
0.000879953
0.00087866
0.000876979
0.000875012
0.000872849
1.27197e-05
8.51197e-05
0.000149585
0.000189505
0.000209961
0.000216981
0.000216969
0.00021981
0.00022924
0.000246666
0.00027203
0.000304242
0.000341624
0.000382343
0.000424717
0.000467356
0.000509206
0.000549508
0.000587754
0.000623621
0.000656925
0.000687583
0.000715579
0.000740945
0.00076375
0.000784082
0.000802047
0.000817762
0.000831351
0.000842943
0.000852673
0.000860679
0.000867099
0.000872075
0.000875749
0.000878263
0.000879758
0.000880372
0.000880239
0.000879486
0.000878234
0.00087659
0.000874656
0.000872518
1.21196e-05
7.1364e-05
0.000124843
0.000156848
0.000171152
0.000173197
0.000173508
0.000179151
0.000192835
0.000215576
0.000246842
0.000284928
0.000327628
0.000372801
0.000418673
0.00046392
0.000507621
0.000549175
0.000588218
0.000624549
0.00065808
0.0006888
0.000716748
0.000741998
0.000764645
0.000784799
0.000802581
0.000818118
0.00083154
0.000842983
0.000852583
0.000860478
0.000866809
0.000871715
0.000875339
0.00087782
0.000879297
0.000879906
0.000879778
0.000879038
0.000877803
0.00087618
0.000874265
0.000872145
1.14578e-05
5.95059e-05
0.000100761
0.000124131
0.000133094
0.000134233
0.000138524
0.000149512
0.000169513
0.000199081
0.000236895
0.000280556
0.000327522
0.000375653
0.000423372
0.000469613
0.000513699
0.000555229
0.000593985
0.000629873
0.000662877
0.000693037
0.000720423
0.000745129
0.000767264
0.000786946
0.000804299
0.000819451
0.000832534
0.000843681
0.000853028
0.000860709
0.000866863
0.000871627
0.000875138
0.000877534
0.00087895
0.000879518
0.000879366
0.000878617
0.000877383
0.000875767
0.000873864
0.000871755
1.08007e-05
5.05068e-05
7.87014e-05
9.36125e-05
9.88371e-05
0.000104914
0.000115573
0.000134143
0.000162339
0.000199493
0.00024327
0.000290923
0.0003401
0.000389089
0.000436747
0.000482356
0.000525491
0.000565914
0.000603516
0.000638266
0.000670187
0.000699337
0.000725796
0.000749663
0.000771044
0.000790054
0.000806813
0.000821444
0.000834073
0.000844829
0.000853841
0.00086124
0.000867159
0.000871731
0.000875089
0.000877365
0.000878691
0.000879195
0.000879001
0.000878226
0.000876981
0.000875364
0.000873466
0.000871364
1.04394e-05
4.31033e-05
5.86012e-05
6.75921e-05
7.67539e-05
8.92778e-05
0.000108623
0.000136925
0.000173864
0.000217274
0.000264524
0.000313382
0.00036223
0.00040998
0.000455931
0.000499646
0.000540866
0.000579447
0.000615328
0.0006485
0.000678992
0.000706859
0.000732175
0.000755027
0.000775512
0.000793735
0.000809804
0.000823835
0.000835944
0.000846253
0.000854884
0.000861961
0.000867612
0.000871963
0.000875143
0.000877279
0.000878498
0.000878923
0.000878674
0.000877864
0.0008766
0.000874977
0.00087308
0.000870984
1.15318e-05
2.85387e-05
4.09781e-05
5.41622e-05
7.07732e-05
9.35018e-05
0.000123802
0.000161109
0.000203578
0.000249174
0.000296201
0.000343389
0.000389825
0.00043487
0.000478086
0.000519181
0.000557964
0.000594324
0.000628202
0.000659585
0.000688487
0.000714946
0.00073902
0.000760779
0.000780306
0.00079769
0.000813028
0.000826424
0.000837984
0.000847822
0.000856051
0.000862789
0.000868156
0.000872273
0.000875263
0.000877248
0.00087835
0.000878688
0.000878378
0.000877528
0.00087624
0.000874607
0.00087271
0.000870621
1.46055e-05
2.67036e-05
4.42539e-05
6.68064e-05
9.42672e-05
0.000126453
0.000162856
0.00020266
0.000244861
0.000288439
0.0003325
0.000376309
0.000419287
0.000460988
0.000501075
0.000539302
0.000575492
0.000609528
0.000641337
0.000670883
0.000698161
0.000723189
0.000746002
0.000766654
0.000785209
0.000801744
0.000816341
0.000829094
0.000840098
0.000849457
0.000857277
0.000863669
0.000868745
0.000872623
0.000875417
0.000877247
0.000878227
0.000878474
0.000878098
0.000877205
0.000875891
0.000874247
0.00087235
0.000870267
7.48541e-05
8.73111e-05
0.000104014
0.00012548
0.00015177
0.000182346
0.000216408
0.000253098
0.000291589
0.000331125
0.00037105
0.000410808
0.000449937
0.000488057
0.000524864
0.000560117
0.000593633
0.000625278
0.000654959
0.000682616
0.000708222
0.000731771
0.000753282
0.000772787
0.000790335
0.000805988
0.000819816
0.000831898
0.000842322
0.00085118
0.000858573
0.000864601
0.000869373
0.000872998
0.000875586
0.000877251
0.000878103
0.000878253
0.000877807
0.000876867
0.000875526
0.00087387
0.000871974
0.000869901
0.000154871
0.000166065
0.000180757
0.00019934
0.000221924
0.000248182
0.000277536
0.000309317
0.000342848
0.000377501
0.00041272
0.000448022
0.000482991
0.000517276
0.000550579
0.000582656
0.000613311
0.00064239
0.000669779
0.000695397
0.000719191
0.000741137
0.00076123
0.000779485
0.000795935
0.000810623
0.000823608
0.000834957
0.000844745
0.000853056
0.00085998
0.000865611
0.00087005
0.000873398
0.000875762
0.000877246
0.000877958
0.000878002
0.000877481
0.00087649
0.00087512
0.000873452
0.000871558
0.0008695
0.000232987
0.000243504
0.000256759
0.000273031
0.000292409
0.000314722
0.000339621
0.00036666
0.000395353
0.000425214
0.000455791
0.000486671
0.000517486
0.000547908
0.000577654
0.000606481
0.000634184
0.000660597
0.000685589
0.000709059
0.000730937
0.000751178
0.000769758
0.000786675
0.000801945
0.000815596
0.000827673
0.00083823
0.000847332
0.000855051
0.000861469
0.000866671
0.000870749
0.000873799
0.000875919
0.00087721
0.000877771
0.000877702
0.0008771
0.000876056
0.000874657
0.000872978
0.000871089
0.00086905
0.000305669
0.00031569
0.000327842
0.000342314
0.000359165
0.000378299
0.000399508
0.000422507
0.000446966
0.000472535
0.000498866
0.000525626
0.000552504
0.00057921
0.000605487
0.000631102
0.000655855
0.000679577
0.000702125
0.00072339
0.000743285
0.000761749
0.000778746
0.000794256
0.000808279
0.000820833
0.000831945
0.000841661
0.000850031
0.00085712
0.000862997
0.000867742
0.000871436
0.000874169
0.000876031
0.000877116
0.000877518
0.000877331
0.000876644
0.000875546
0.000874117
0.00087243
0.00087055
0.000868533
0.000372887
0.00038234
0.000393481
0.000406425
0.000421203
0.000437755
0.000455947
0.000475593
0.000496471
0.000518332
0.00054092
0.000563975
0.000587246
0.000610491
0.000633484
0.000656015
0.000677898
0.000698968
0.000719085
0.000738133
0.000756018
0.00077267
0.000788039
0.000802095
0.000814826
0.000826235
0.00083634
0.000845173
0.000852777
0.000859203
0.000864513
0.000868776
0.000872068
0.000874468
0.00087606
0.000876931
0.000877169
0.000876859
0.000876088
0.000874936
0.000873479
0.000871787
0.000869919
0.00086793
0.000435105
0.000443857
0.000453974
0.000465517
0.000478499
0.00049287
0.000508539
0.000525376
0.000543226
0.000561912
0.000581244
0.000601025
0.000621057
0.000641143
0.000661092
0.000680725
0.000699874
0.000718389
0.000736136
0.000753001
0.000768889
0.000783726
0.000797453
0.000810034
0.000821445
0.000831682
0.000840752
0.000848676
0.000855487
0.000861228
0.000865951
0.000869717
0.000872592
0.000874649
0.000875964
0.000876617
0.000876687
0.000876255
0.000875399
0.000874197
0.000872717
0.000871023
0.000869174
0.000867218
0.000492711
0.000500644
0.0005097
0.000519907
0.000531262
0.000543722
0.000557216
0.000571648
0.000586904
0.000602854
0.000619355
0.000636258
0.000653407
0.000670644
0.000687815
0.000704767
0.000721358
0.000737452
0.00075293
0.000767684
0.000781624
0.000794674
0.000806776
0.000817885
0.000827974
0.00083703
0.000845053
0.000852055
0.000858061
0.000863105
0.000867232
0.000870492
0.000872945
0.000874655
0.00087569
0.000876124
0.000876028
0.000875477
0.000874542
0.000873294
0.000871796
0.000870109
0.000868285
0.000866369
0.000545914
0.000552949
0.000560922
0.00056984
0.000579687
0.000590425
0.000601997
0.000614325
0.000627322
0.000640888
0.000654914
0.000669282
0.000683872
0.000698558
0.000713213
0.000727714
0.000741939
0.000755774
0.000769113
0.00078186
0.00079393
0.000805253
0.000815771
0.000825439
0.000834225
0.000842113
0.000849096
0.00085518
0.000860382
0.000864731
0.00086826
0.000871016
0.000873048
0.000874414
0.000875175
0.000875394
0.000875139
0.000874475
0.000873469
0.000872184
0.000870678
0.000869006
0.000867215
0.000865348
0.000594754
0.00060086
0.000607755
0.000615434
0.000623875
0.000633044
0.000642888
0.000653347
0.00066435
0.000675815
0.000687658
0.000699787
0.000712103
0.000724508
0.000736899
0.000749176
0.000761238
0.000772989
0.000784338
0.000795202
0.000805506
0.000815186
0.000824187
0.000832466
0.000839992
0.000846744
0.000852712
0.000857898
0.000862314
0.00086598
0.000868926
0.000871188
0.000872811
0.000873844
0.00087434
0.000874357
0.000873954
0.00087319
0.000872124
0.000870813
0.000869309
0.000867663
0.000865917
0.000864108
0.000639134
0.000644325
0.000650182
0.000656692
0.00066383
0.000671563
0.000679847
0.000688632
0.000697857
0.000707458
0.000717366
0.000727506
0.0007378
0.000748168
0.000758529
0.0007688
0.000778898
0.000788745
0.000798265
0.000807387
0.000816046
0.000824186
0.000831759
0.000838723
0.00084505
0.000850717
0.000855714
0.00086004
0.0008637
0.000866712
0.000869098
0.000870889
0.000872123
0.000872842
0.000873093
0.000872925
0.000872391
0.000871542
0.000870432
0.00086911
0.000867624
0.000866016
0.000864327
0.000862588
0.00067594
0.000680393
0.000685398
0.000690945
0.00069701
0.000703564
0.000710569
0.000717982
0.000725752
0.000733826
0.000742146
0.00075065
0.000759276
0.000767958
0.000776628
0.00078522
0.000793667
0.000801903
0.000809866
0.000817496
0.000824739
0.000831545
0.000837873
0.000843687
0.000848959
0.000853671
0.000857809
0.000861372
0.000864362
0.000866794
0.000868685
0.000870061
0.000870954
0.000871401
0.000871441
0.000871119
0.00087048
0.000869569
0.000868433
0.000867116
0.00086566
0.000864102
0.000862478
0.000860816
0.000708488
0.000712219
0.000716411
0.00072105
0.000726116
0.000731584
0.000737419
0.000743586
0.000750043
0.000756745
0.000763643
0.000770689
0.000777829
0.00078501
0.000792177
0.000799276
0.000806251
0.00081305
0.00081962
0.000825913
0.000831882
0.000837487
0.000842691
0.000847464
0.000851781
0.000855625
0.000858984
0.000861855
0.000864239
0.000866146
0.000867593
0.000868599
0.000869191
0.000869402
0.000869264
0.000868816
0.000868096
0.000867146
0.000866004
0.00086471
0.000863299
0.000861806
0.000860259
0.000858685
0.000740303
0.00074326
0.000746587
0.000750271
0.000754294
0.000758633
0.000763263
0.000768153
0.00077327
0.000778578
0.000784039
0.000789613
0.000795259
0.000800934
0.000806595
0.000812198
0.000817701
0.000823061
0.000828237
0.000833189
0.000837882
0.000842281
0.000846356
0.000850084
0.000853442
0.000856415
0.000858994
0.000861174
0.000862956
0.000864346
0.000865358
0.000866007
0.000866315
0.000866307
0.000866012
0.000865462
0.000864687
0.000863723
0.000862603
0.000861359
0.000860021
0.000858618
0.000857175
0.000855713
0.000769418
0.000771613
0.000774085
0.000776825
0.000779816
0.000783043
0.000786486
0.000790121
0.000793924
0.000797868
0.000801925
0.000806063
0.000810254
0.000814463
0.00081866
0.000822811
0.000826885
0.000830848
0.00083467
0.000838322
0.000841775
0.000845004
0.000847985
0.000850699
0.000853128
0.000855262
0.00085709
0.000858609
0.000859818
0.000860723
0.000861332
0.000861657
0.000861715
0.000861525
0.000861109
0.000860493
0.000859701
0.00085876
0.000857698
0.00085654
0.000855311
0.000854033
0.000852724
0.000793404
0.000794896
0.000796574
0.000798431
0.000800457
0.00080264
0.000804967
0.000807423
0.000809991
0.000812653
0.00081539
0.000818182
0.000821007
0.000823843
0.000826668
0.000829461
0.000832198
0.000834857
0.000837416
0.000839855
0.000842154
0.000844294
0.00084626
0.000848036
0.00084961
0.000850973
0.000852117
0.00085304
0.00085374
0.00085422
0.000854485
0.000854544
0.000854408
0.00085409
0.000853607
0.000852977
0.000852218
0.000851349
0.000850392
0.000849366
0.000848288
0.000847177
0.000846048
0.0008095
0.000810348
0.000811299
0.000812349
0.000813494
0.000814726
0.000816038
0.000817422
0.000818869
0.000820369
0.000821911
0.000823484
0.000825075
0.000826673
0.000828264
0.000829835
0.000831372
0.000832863
0.000834294
0.000835652
0.000836925
0.000838102
0.000839172
0.000840126
0.000840956
0.000841655
0.000842218
0.000842643
0.000842926
0.00084307
0.000843077
0.00084295
0.000842697
0.000842325
0.000841845
0.000841266