/*--------------------------------*- C++ -*----------------------------------*\
  =========                 |
  \\      /  F ield         | OpenFOAM: The Open Source CFD Toolbox
   \\    /   O peration     | Website:  https://openfoam.org
    \\  /    A nd           | Version:  6
     \\/     M anipulation  |
\*---------------------------------------------------------------------------*/
FoamFile
{
    version     2.0;
    format      ascii;
    class       volScalarField;
    location    "0.02";
    object      p;
}
// * * * * * * * * * * * * * * * * * * * * * * * * * * * * * * * * * * * * * //

dimensions      [0 2 -2 0 0 0 0];

internalField   nonuniform List<scalar> 
3032
(
0.376369
0.123568
0.0450184
0.0338016
0.0281754
0.0220715
0.0175759
0.0137076
0.00934002
0.00424691
-0.00166211
-0.00866349
-0.0171335
-0.0276152
-0.0411126
-0.0595505
-0.0883159
-0.139221
-0.00674929
0.024031
0.0247068
0.0303831
0.028574
0.0230289
0.0182499
0.0140358
0.00944222
0.00417782
-0.00189822
-0.00906217
-0.0177193
-0.028429
-0.0422095
-0.0607769
-0.0886155
-0.129423
-0.0422846
0.0283186
0.0293826
0.030773
0.0286911
0.0235037
0.0187328
0.0143658
0.00962204
0.00421356
-0.00202557
-0.00937593
-0.0182485
-0.0291933
-0.0431546
-0.0614826
-0.0871315
-0.12021
0.00297342
0.0413634
0.0327279
0.0305259
0.0282484
0.0235138
0.0189166
0.0145334
0.00973417
0.00425944
-0.00206678
-0.00951834
-0.0184804
-0.0294502
-0.0432074
-0.0606795
-0.0835201
-0.110752
0.023151
0.0412099
0.0322186
0.0297692
0.027618
0.0233195
0.0189337
0.0145974
0.00981131
0.00434666
-0.00197101
-0.00939644
-0.0182675
-0.0289946
-0.04215
-0.058275
-0.0781089
-0.100352
0.0255212
0.0369888
0.0310925
0.0290847
0.0270148
0.023093
0.0189224
0.0146676
0.00994398
0.0045522
-0.00167078
-0.00894878
-0.0175588
-0.0278088
-0.040064
-0.054556
-0.0714285
-0.0893415
0.0257764
0.034213
0.0304738
0.0285888
0.0265119
0.0229143
0.0189596
0.0148171
0.0102003
0.00493999
-0.00110694
-0.0081244
-0.0163216
-0.0259013
-0.0370482
-0.0497661
-0.0638515
-0.0780797
0.0269305
0.0327792
0.0301413
0.0282422
0.0261488
0.022834
0.0190967
0.0150983
0.0106331
0.00556352
-0.000227095
-0.0068776
-0.0145283
-0.023285
-0.0331889
-0.0440945
-0.0556318
-0.0667538
0.0281428
0.0318793
0.0299077
0.0280385
0.0259551
0.0228922
0.0193775
0.0155564
0.0112893
0.00647082
0.00101469
-0.00517156
-0.0121638
-0.0199863
-0.0285776
-0.0377095
-0.0469632
-0.0554771
0.0290226
0.0312724
0.0297706
0.0279903
0.02595
0.0231204
0.0198389
0.016231
0.0122101
0.00770307
0.00265516
-0.00298206
-0.00922898
-0.0160473
-0.0233116
-0.0307622
-0.0379988
-0.0443308
0.0296553
0.0309389
0.029757
0.0280994
0.0261381
0.0235354
0.020503
0.0171461
0.0134196
0.00928132
0.00470673
-0.000313808
-0.00575663
-0.0115408
-0.0175088
-0.0234039
-0.0288781
-0.0333854
0.0301414
0.0308628
0.0298722
0.0283445
0.026489
0.024099
0.0213141
0.0182227
0.0148092
0.0110566
0.00696511
0.00255347
-0.00212606
-0.00697048
-0.0118145
-0.0164229
-0.0205051
-0.0236152
0.0306064
0.0309547
0.0301165
0.0287258
0.0269981
0.0248277
0.0223038
0.0195027
0.0164325
0.0130977
0.0095188
0.00573623
0.00182083
-0.00211502
-0.00591252
-0.00936829
-0.0122453
-0.0141993
0.031166
0.0312625
0.0305579
0.0293332
0.0277809
0.0258739
0.0236692
0.0212324
0.0185916
0.015771
0.0128083
0.00976021
0.00670769
0.00376175
0.00106271
-0.00122652
-0.0029246
-0.00378791
0.0319044
0.0318657
0.0312813
0.0302528
0.028931
0.0273384
0.0255183
0.0235279
0.0214091
0.0192015
0.0169547
0.0147329
0.0126171
0.0107057
0.00911106
0.00795166
0.00735447
0.00747682
0.0329405
0.0328536
0.0323922
0.031589
0.0305527
0.029329
0.027959
0.0264943
0.0249835
0.0234743
0.0220203
0.0206838
0.0195352
0.0186519
0.0181135
0.0179961
0.0183793
0.0193534
0.0344161
0.0343345
0.0340117
0.033461
0.0327578
0.0319527
0.031088
0.0302113
0.0293708
0.0286138
0.0279893
0.0275488
0.0273448
0.0274292
0.0278494
0.0286455
0.0298597
0.0315325
0.0364661
0.0364196
0.0362542
0.0359779
0.0356389
0.0352834
0.0349533
0.0346912
0.034539
0.0345366
0.0347213
0.035128
0.0357881
0.0367284
0.0379691
0.0395229
0.041405
0.0436213
0.0391651
0.0391756
0.0391878
0.0391972
0.0392289
0.0393234
0.0395195
0.0398531
0.0403566
0.0410572
0.041976
0.0431285
0.0445247
0.0461691
0.0480607
0.0501926
0.0525614
0.055151
0.0417123
0.0417867
0.0419461
0.0421483
0.0424164
0.0427966
0.0433255
0.0440364
0.0449577
0.0461071
0.0474926
0.0491154
0.0509709
0.0530495
0.0553375
0.0578178
0.0604767
0.0632905
0.0435631
0.0437555
0.044052
0.0443585
0.0447508
0.0452856
0.0459915
0.0469081
0.0480664
0.0494762
0.0511337
0.0530286
0.0551452
0.0574637
0.059962
0.0626169
0.0654094
0.0683138
0.0448717
0.0453817
0.0458504
0.0461772
0.0466194
0.0472236
0.0479992
0.0490105
0.0502971
0.051858
0.0536772
0.0557342
0.058004
0.0604589
0.0630707
0.0658128
0.0686632
0.071597
0.0454831
0.0467246
0.0474159
0.0476795
0.0481349
0.0487376
0.0494842
0.0505009
0.0518359
0.0534689
0.0553707
0.0575124
0.0598602
0.0623795
0.065038
0.0678068
0.0706628
0.0735832
0.04546
0.0480034
0.048783
0.0488962
0.0494007
0.0499367
0.0505525
0.0515002
0.0528227
0.054466
0.0563888
0.0585553
0.0609237
0.063453
0.0661083
0.0688599
0.0716848
0.0745628
0.045505
0.0502762
0.0502734
0.0499124
0.0505165
0.0509037
0.0512829
0.0521009
0.0533628
0.0549657
0.0568588
0.0590017
0.0613447
0.0638416
0.066456
0.0691589
0.0719273
0.0747438
0.0439562
0.0548696
0.0527062
0.0510753
0.0516277
0.051698
0.051731
0.0523708
0.0535321
0.0550517
0.0568733
0.0589529
0.0612336
0.0636652
0.0662111
0.0688433
0.0715394
0.0742833
0.0271791
0.0570676
0.0550285
0.0525
0.0528093
0.0523035
0.0518922
0.0523187
0.0533471
0.0547509
0.0564703
0.0584577
0.0606495
0.0629934
0.0654535
0.0680036
0.0706213
0.0732917
-0.0167644
0.0439648
0.0510699
0.0526553
0.053556
0.0524101
0.051564
0.0518008
0.052698
0.0539787
0.0555857
0.0574692
0.0595615
0.0618101
0.0641815
0.0666509
0.0691956
0.0718013
0.00250788
0.0335846
0.0410101
0.0503239
0.052971
0.0514762
0.0504445
0.0506733
0.0515398
0.0527462
0.0542642
0.0560579
0.0580625
0.0602285
0.0625256
0.0649306
0.0674204
0.0699701
0.367706
0.148039
0.0712894
0.0589333
0.0546096
0.0507284
0.0492449
0.0495978
0.0505991
0.0518411
0.0533281
0.0550612
0.0569947
0.0590885
0.061318
0.0636641
0.0661085
0.0686446
0.0486062
0.0484101
0.0485553
0.0492218
0.0503748
0.0520059
0.0541025
0.0566363
0.0595741
0.0628864
0.0665463
0.0705297
0.0748134
0.0793744
0.0841878
0.0892257
0.0944586
0.0998554
0.105384
0.111011
0.116702
0.122423
0.128141
0.133822
0.139434
0.144947
0.150334
0.155568
0.160627
0.16549
0.170142
0.174567
0.178757
0.182703
0.186401
0.189848
0.193046
0.195997
0.198706
0.201179
0.203425
0.205451
0.207269
0.208888
0.047514
0.047346
0.0473807
0.0478504
0.048765
0.0501238
0.0519164
0.0541278
0.0567418
0.0597386
0.0630959
0.0667906
0.0707967
0.0750885
0.0796423
0.0844324
0.0894306
0.0946074
0.0999316
0.105371
0.110894
0.116466
0.122056
0.12763
0.133158
0.13861
0.143958
0.149176
0.154242
0.159133
0.163834
0.168328
0.172605
0.176654
0.18047
0.18405
0.187392
0.190497
0.193368
0.19601
0.19843
0.200634
0.202632
0.204432
0.0445559
0.0448882
0.045339
0.0459134
0.0467289
0.0478767
0.0493948
0.0512952
0.0535789
0.0562394
0.0592642
0.0626367
0.066337
0.0703432
0.0746315
0.0791761
0.0839498
0.0889234
0.0940668
0.0993484
0.104736
0.110197
0.115699
0.121209
0.126696
0.132131
0.137483
0.142727
0.147838
0.152794
0.157578
0.162171
0.166561
0.170737
0.174691
0.178419
0.181917
0.185185
0.188225
0.19104
0.193636
0.196017
0.198193
0.20017
0.0398349
0.0404126
0.0411328
0.0418606
0.0427522
0.0439333
0.04545
0.0473178
0.0495442
0.0521307
0.0550723
0.0583585
0.0619747
0.0659024
0.0701204
0.0746047
0.0793291
0.0842651
0.0893827
0.0946503
0.100035
0.105505
0.111025
0.116564
0.122089
0.127569
0.132975
0.13828
0.143458
0.148488
0.153349
0.158025
0.162502
0.16677
0.170819
0.174644
0.178242
0.181612
0.184755
0.187675
0.190376
0.192865
0.195147
0.197231
0.0336931
0.0343068
0.035109
0.0359298
0.0369066
0.0381637
0.0397486
0.0416784
0.0439636
0.0466091
0.049613
0.0529676
0.0566599
0.0606727
0.0649853
0.0695735
0.0744101
0.0794659
0.0847094
0.0901076
0.0956264
0.101231
0.106888
0.112561
0.118218
0.123828
0.129359
0.134785
0.140079
0.14522
0.150187
0.154965
0.159539
0.163898
0.168035
0.171944
0.175623
0.179072
0.182291
0.185285
0.188058
0.190617
0.192968
0.195121
0.0262378
0.0266987
0.0273649
0.0281491
0.0291579
0.0304849
0.0321671
0.0342187
0.036648
0.0394583
0.0426464
0.0462032
0.0501143
0.054361
0.0589201
0.0637648
0.0688654
0.0741894
0.0797023
0.0853684
0.0911508
0.0970123
0.102916
0.108826
0.114708
0.120528
0.126255
0.131862
0.137324
0.142617
0.147722
0.152624
0.15731
0.16177
0.165997
0.169988
0.17374
0.177254
0.180533
0.183581
0.186404
0.18901
0.191406
0.1936
0.0174216
0.0175717
0.0178959
0.0184933
0.0194484
0.0208065
0.0225845
0.0247892
0.0274233
0.0304842
0.0339631
0.0378455
0.0421123
0.0467391
0.051697
0.0569535
0.0624734
0.0682188
0.0741501
0.0802265
0.0864072
0.0926512
0.0989187
0.105171
0.111372
0.117486
0.123484
0.129336
0.135017
0.140506
0.145784
0.150838
0.155655
0.160228
0.164552
0.168624
0.172445
0.176017
0.179345
0.182434
0.185291
0.187926
0.190347
0.192563
0.00711039
0.0068062
0.00658995
0.00684373
0.00764636
0.00898225
0.0108406
0.0132174
0.0161061
0.0194948
0.0233655
0.0276949
0.0324545
0.0376098
0.0431228
0.0489522
0.0550532
0.0613796
0.0678841
0.0745192
0.0812381
0.0879948
0.0947456
0.101449
0.108066
0.114562
0.120904
0.127065
0.13302
0.13875
0.144238
0.149471
0.154441
0.159142
0.163571
0.167729
0.171619
0.175245
0.178613
0.181733
0.184613
0.187263
0.189693
0.191916
-0.0049175
-0.00582663
-0.00678977
-0.00703926
-0.00648726
-0.00522524
-0.00329903
-0.000727239
0.00247162
0.00627267
0.0106449
0.0155513
0.0209496
0.0267923
0.0330283
0.0396021
0.0464564
0.0535332
0.0607742
0.0681232
0.0755255
0.0829295
0.0902863
0.0975512
0.104683
0.111646
0.118408
0.124942
0.131226
0.13724
0.142973
0.148414
0.153557
0.158401
0.162946
0.167195
0.171155
0.174832
0.178238
0.181381
0.184275
0.18693
0.189359
0.191576
-0.018987
-0.0206747
-0.0226074
-0.0235189
-0.0233037
-0.0221501
-0.0201506
-0.0173413
-0.0137565
-0.00943802
-0.00443402
0.00120084
0.00740599
0.0141156
0.0212598
0.0287662
0.0365612
0.0445711
0.0527229
0.0609491
0.0691864
0.0773758
0.0854636
0.0934013
0.101146
0.108661
0.115916
0.122884
0.129547
0.135889
0.1419
0.147575
0.152912
0.157913
0.162582
0.166928
0.17096
0.174689
0.178128
0.181291
0.184192
0.186845
0.189265
0.191467
-0.0355656
-0.0382298
-0.0413663
-0.0430865
-0.043269
-0.0422272
-0.040115
-0.0369921
-0.0329117
-0.0279361
-0.0221352
-0.0155864
-0.00837385
-0.000587187
0.00768006
0.0163328
0.0252766
0.0344185
0.0436685
0.0529452
0.0621752
0.0712921
0.0802365
0.0889571
0.0974099
0.105559
0.113374
0.120834
0.127922
0.134629
0.140948
0.146879
0.152427
0.157597
0.1624
0.166847
0.170954
0.174734
0.178205
0.181384
0.184288
0.186934
0.189339
0.19152
-0.0553021
-0.059153
-0.0637163
-0.066359
-0.0669583
-0.0659882
-0.0636777
-0.0601172
-0.0553826
-0.0495599
-0.0427466
-0.0350486
-0.0265801
-0.0174617
-0.00781705
0.00223022
0.0125596
0.0230541
0.0336046
0.0441148
0.0545005
0.0646876
0.0746123
0.0842211
0.0934705
0.102326
0.110763
0.118763
0.126315
0.133416
0.140067
0.146272
0.152043
0.157391
0.162332
0.166884
0.171066
0.174897
0.178399
0.181591
0.184495
0.18713
0.189517
0.191673
-0.0790512
-0.0842822
-0.0904399
-0.0940543
-0.0950307
-0.0940363
-0.0913863
-0.0872037
-0.0815915
-0.0746644
-0.0665535
-0.0574015
-0.0473621
-0.0365959
-0.0252658
-0.0135312
-0.00154463
0.0105482
0.0226166
0.034551
0.0462562
0.0576518
0.0686714
0.0792619
0.0893829
0.0990049
0.108108
0.116683
0.124726
0.13224
0.139234
0.145722
0.15172
0.157248
0.162329
0.166985
0.17124
0.175121
0.178651
0.181855
0.184756
0.187379
0.189745
0.191875
-0.107851
-0.114592
-0.122396
-0.12693
-0.12817
-0.126993
-0.123799
-0.118739
-0.111946
-0.103567
-0.0937769
-0.0827686
-0.0707499
-0.0579362
-0.0445418
-0.0307722
-0.0168203
-0.00286455
0.0109483
0.0244944
0.0376706
0.0503939
0.0625995
0.0742395
0.0852805
0.0957018
0.105493
0.114655
0.123193
0.13112
0.138456
0.145221
0.151441
0.157144
0.162358
0.167112
0.171437
0.175362
0.178916
0.182129
0.185026
0.187635
0.189979
0.192082
-0.142823
-0.151084
-0.160408
-0.165682
-0.166993
-0.165412
-0.161397
-0.155111
-0.14671
-0.136388
-0.124385
-0.110973
-0.0964423
-0.0810841
-0.0651809
-0.0489971
-0.0327697
-0.016698
-0.000944119
0.0143596
0.0291098
0.0432285
0.0566602
0.0693686
0.081333
0.0925461
0.103011
0.112741
0.121754
0.130074
0.13773
0.144755
0.151181
0.157043
0.162378
0.167221
0.171607
0.175571
0.179146
0.182365
0.185257
0.187851
0.190173
0.19225
-0.186188
-0.195804
-0.206311
-0.212015
-0.213136
-0.210863
-0.205653
-0.197649
-0.187028
-0.174048
-0.159062
-0.142465
-0.124673
-0.10609
-0.0870961
-0.068017
-0.0491262
-0.0306407
-0.0127311
0.00447512
0.0208874
0.0364458
0.0511151
0.06488
0.0777405
0.0897086
0.100806
0.11106
0.120505
0.129178
0.137119
0.14437
0.150973
0.156971
0.162406
0.167321
0.171755
0.175748
0.179336
0.182555
0.185438
0.188015
0.190316
0.192367
-0.236207
-0.246879
-0.257939
-0.263612
-0.264316
-0.261158
-0.254422
-0.24416
-0.230567
-0.214028
-0.195088
-0.174356
-0.152456
-0.129954
-0.107332
-0.0849797
-0.063198
-0.0422064
-0.0221561
-0.00314254
0.0147814
0.0315948
0.0472995
0.0619139
0.075468
0.0879995
0.0995514
0.11017
0.119905
0.128807
0.136925
0.14431
0.151012
0.157081
0.162563
0.167506
0.171953
0.175946
0.179525
0.182728
0.185589
0.18814
0.190413
0.192435
-0.28571
-0.296762
-0.307585
-0.312918
-0.313248
-0.309285
-0.300929
-0.288049
-0.270878
-0.25004
-0.226444
-0.201044
-0.174712
-0.148186
-0.122041
-0.0966962
-0.0724319
-0.049418
-0.0277422
-0.00743513
0.0115108
0.0291273
0.0454608
0.0605659
0.0745016
0.0873288
0.0991088
0.109902
0.119769
0.128768
0.136957
0.144391
0.151125
0.157211
0.1627
0.16764
0.172078
0.176056
0.179617
0.182798
0.185635
0.188163
0.190411
0.192407
-0.330193
-0.340992
-0.351045
-0.356175
-0.356649
-0.35234
-0.342469
-0.326643
-0.305275
-0.279493
-0.250726
-0.220374
-0.189623
-0.15937
-0.130218
-0.10253
-0.0764895
-0.0521585
-0.0295242
-0.0085312
0.0108975
0.0288478
0.0454072
0.0606608
0.07469
0.087572
0.0993795
0.110182
0.120044
0.12903
0.1372
0.144611
0.151319
0.157377
0.162838
0.167749
0.172158
0.176107
0.17964
0.182794
0.185606
0.188109
0.190334
0.192308
-0.364443
-0.374865
-0.384091
-0.389667
-0.391236
-0.387313
-0.376161
-0.357182
-0.331135
-0.299922
-0.265778
-0.230683
-0.196102
-0.162965
-0.13177
-0.102712
-0.0758069
-0.0509724
-0.028083
-0.00699952
0.0124147
0.030287
0.0467329
0.0618562
0.0757502
0.0884996
0.100182
0.110867
0.120624
0.129514
0.137598
0.144932
0.151572
0.15757
0.162976
0.167839
0.172204
0.176116
0.179613
0.182737
0.185521
0.187999
0.190201
0.192155
-0.382793
-0.394413
-0.403244
-0.410241
-0.414133
-0.411515
-0.399427
-0.377069
-0.345962
-0.30927
-0.270238
-0.231375
-0.194231
-0.159556
-0.127585
-0.0982664
-0.071424
-0.0468402
-0.0242995
-0.00360569
0.0154128
0.0329037
0.0489937
0.0637922
0.0773943
0.0898841
0.101337
0.111823
0.121406
0.130145
0.138098
0.14532
0.151864
0.157778
0.163113
0.167915
0.172227
0.176093
0.179552
0.182641
0.185396
0.18785
0.190031
0.191965
-0.383027
-0.396436
-0.406066
-0.415911
-0.423438
-0.422793
-0.409846
-0.383911
-0.347887
-0.306523
-0.264073
-0.22326
-0.185362
-0.150734
-0.119267
-0.0906757
-0.0646409
-0.0408645
-0.019089
0.000901173
0.0192847
0.0362098
0.0517999
0.0661594
0.0793783
0.0915351
0.1027
0.112937
0.122306
0.130862
0.138659
0.145747
0.152177
0.157995
0.163248
0.167981
0.172235
0.176051
0.179468
0.182522
0.185247
0.187676
0.189836
0.191753
-0.368286
-0.380263
-0.391932
-0.406212
-0.418175
-0.419672
-0.405754
-0.376315
-0.336387
-0.292374
-0.248996
-0.208584
-0.171828
-0.138635
-0.10864
-0.0814373
-0.0566605
-0.0340015
-0.0132085
0.00592247
0.0235572
0.0398308
0.0548553
0.0687246
0.0815192
0.0933096
0.104159
0.114125
0.123261
0.131619
0.139246
0.146191
0.152498
0.158214
0.16338
0.168039
0.172231
0.175996
0.17937
0.182389
0.185085
0.187489
0.189629
0.191529
-0.345809
-0.350596
-0.363511
-0.383005
-0.399388
-0.402509
-0.386996
-0.354745
-0.313257
-0.269754
-0.228341
-0.190454
-0.15621
-0.125279
-0.0972434
-0.0717162
-0.0483686
-0.0269308
-0.00718449
0.0110469
0.0279065
0.0435111
0.0579576
0.0713273
0.0836904
0.0951084
0.105637
0.115327
0.124227
0.132382
0.139837
0.146635
0.152818
0.158429
0.163506
0.168091
0.172221
0.175934
0.179266
0.182249
0.184916
0.187296
0.189417
0.191301
-0.325275
-0.316606
-0.32665
-0.351215
-0.371515
-0.374033
-0.355601
-0.322435
-0.283005
-0.24328
-0.205954
-0.171719
-0.140511
-0.112063
-0.0860685
-0.0622338
-0.0403036
-0.0200633
-0.00133602
0.0160232
0.0321331
0.0470911
0.0609788
0.0738651
0.0858099
0.0968662
0.107083
0.116504
0.125172
0.133129
0.140415
0.147068
0.153129
0.158636
0.163626
0.168137
0.172207
0.175869
0.179158
0.182106
0.184745
0.187102
0.189205
0.191073
-0.308814
-0.281796
-0.287277
-0.319002
-0.339631
-0.336312
-0.31553
-0.285444
-0.251526
-0.217318
-0.18463
-0.154084
-0.125798
-0.0996956
-0.0756112
-0.053354
-0.0327421
-0.0136144
0.00416591
0.0207139
0.0361251
0.0504793
0.0638437
0.076276
0.0878268
0.0985414
0.108462
0.117627
0.126075
0.133842
0.140965
0.14748
0.153422
0.158829
0.163734
0.168175
0.172184
0.175797
0.179045
0.18196
0.184571
0.186907
0.188992
0.190846
-0.308383
-0.251643
-0.24893
-0.281207
-0.297777
-0.291959
-0.274616
-0.250949
-0.223239
-0.194115
-0.165473
-0.138148
-0.112443
-0.0884296
-0.0660573
-0.0452193
-0.0257968
-0.00767603
0.00924492
0.0250543
0.0398275
0.0536283
0.0665115
0.0785249
0.0897107
0.100108
0.109752
0.118677
0.126918
0.134506
0.141476
0.147859
0.15369
0.159001
0.163826
0.168198
0.172151
0.175716
0.178925
0.181808
0.184393
0.186708
0.188776
0.190617
-0.22648
-0.20143
-0.205376
-0.236373
-0.254717
-0.253522
-0.241263
-0.222408
-0.199141
-0.173928
-0.148576
-0.123959
-0.100469
-0.0782738
-0.0574035
-0.0378188
-0.0194525
-0.00223035
0.01392
0.0290641
0.0432599
0.0565578
0.0690017
0.0806308
0.0914805
0.101583
0.110971
0.119673
0.127719
0.13514
0.141964
0.148223
0.153946
0.159166
0.163913
0.16822
0.172118
0.175637
0.178808
0.181659
0.184218
0.186512
0.188564
0.190393
-0.181542
-0.186254
-0.191149
-0.210047
-0.223122
-0.222433
-0.212448
-0.196696
-0.176939
-0.155068
-0.132617
-0.110437
-0.0889757
-0.0684648
-0.0490001
-0.0305976
-0.0132344
0.00312961
0.0185401
0.0330425
0.0466787
0.0594869
0.0715014
0.0827533
0.0932715
0.103084
0.112216
0.120695
0.128547
0.135798
0.142476
0.148608
0.154222
0.159349
0.164017
0.168256
0.172097
0.175568
0.178699
0.181517
0.184049
0.186321
0.188355
0.190171
-0.156621
-0.168887
-0.173936
-0.185242
-0.194044
-0.193406
-0.185186
-0.172007
-0.155279
-0.136404
-0.116633
-0.0967632
-0.0772619
-0.0584042
-0.0403352
-0.0231174
-0.00676689
0.00872536
0.0233804
0.0372244
0.0502842
0.0625861
0.0741548
0.0850139
0.0951859
0.104693
0.113558
0.121801
0.129448
0.13652
0.143041
0.149038
0.154537
0.159563
0.164146
0.168312
0.172091
0.175511
0.178598
0.18138
0.183883
0.18613
0.188146
0.189946
-0.137153
-0.148914
-0.15476
-0.16224
-0.167696
-0.166691
-0.159789
-0.148688
-0.134473
-0.118188
-0.100824
-0.0830898
-0.0654429
-0.0481782
-0.0314736
-0.0154272
-8.69182e-05
0.0145292
0.0284203
0.0415947
0.0540656
0.0658479
0.0769573
0.0874101
0.0972228
0.106413
0.114997
0.122995
0.130425
0.137307
0.143664
0.149518
0.154893
0.159813
0.164304
0.168392
0.172105
0.175469
0.178509
0.181253
0.183723
0.185944
0.187937
0.18972
-0.1197
-0.129581
-0.135492
-0.14073
-0.143796
-0.142315
-0.136334
-0.126849
-0.114667
-0.100569
-0.0853213
-0.0695243
-0.0536036
-0.0378529
-0.0224669
-0.00756743
0.00677319
0.0205149
0.0336382
0.0461358
0.0580081
0.0692598
0.0798983
0.0899329
0.0993745
0.108235
0.116528
0.124269
0.131473
0.138157
0.144341
0.150044
0.155287
0.160094
0.164488
0.168494
0.172136
0.17544
0.17843
0.181131
0.183566
0.185758
0.187728
0.189491
-0.103747
-0.111637
-0.116812
-0.120466
-0.121927
-0.120028
-0.114684
-0.106451
-0.0959076
-0.0836384
-0.0702258
-0.0561634
-0.0418286
-0.0274995
-0.0133737
0.000413748
0.013774
0.0266501
0.0390074
0.0508254
0.0620933
0.0728066
0.0829652
0.0925719
0.101632
0.110154
0.118146
0.12562
0.132589
0.139066
0.145068
0.150613
0.155718
0.160406
0.164697
0.168615
0.172182
0.175422
0.178359
0.181015
0.183412
0.185573
0.187517
0.189259
-0.0889033
-0.094906
-0.0989761
-0.101403
-0.101782
-0.099561
-0.0946666
-0.0874084
-0.0781901
-0.067444
-0.0556107
-0.0430859
-0.0301931
-0.0171847
-0.00425132
0.00846805
0.0208749
0.032901
0.0444996
0.0556398
0.0663014
0.0764719
0.0861443
0.0953158
0.103987
0.112161
0.119844
0.127044
0.133769
0.140032
0.145845
0.151224
0.156185
0.160748
0.164931
0.168756
0.172244
0.175416
0.178296
0.180904
0.183262
0.185389
0.187305
0.189024
-0.0748516
-0.0791943
-0.0821115
-0.0835359
-0.083149
-0.0806894
-0.0761232
-0.0696303
-0.0614862
-0.0520079
-0.0415268
-0.0303548
-0.0187615
-0.0069691
0.00484617
0.0165485
0.0280359
0.0392332
0.0500858
0.0605546
0.0706118
0.0802384
0.0894214
0.0981531
0.10643
0.11425
0.121617
0.128535
0.13501
0.141051
0.146669
0.151876
0.156688
0.16112
0.16519
0.168917
0.172322
0.175424
0.178243
0.180801
0.183115
0.185207
0.187092
0.188787
-0.0614344
-0.064382
-0.06624
-0.0668286
-0.0658703
-0.0632343
-0.0589173
-0.0530303
-0.0457606
-0.0373383
-0.0280114
-0.0180227
-0.00759233
0.00308969
0.0138654
0.0246073
0.0352148
0.0456103
0.0557345
0.0655427
0.0750016
0.0840867
0.0927802
0.10107
0.108949
0.116412
0.123458
0.130089
0.136308
0.142122
0.147539
0.152569
0.157225
0.161522
0.165474
0.169101
0.172418
0.175446
0.178202
0.180705
0.182975
0.185028
0.186881
0.18855
-0.0485765
-0.0503779
-0.0513218
-0.0512164
-0.0498179
-0.0470532
-0.0429343
-0.0375342
-0.0309811
-0.023441
-0.0150986
-0.00614105
0.00325483
0.01293
0.0227467
0.0325889
0.0423615
0.0519876
0.0614062
0.0705695
0.0794405
0.0879906
0.0961984
0.104048
0.111529
0.118632
0.125355
0.131696
0.137656
0.143238
0.14845
0.153299
0.157796
0.161953
0.165785
0.169306
0.172533
0.175483
0.178173
0.180621
0.182842
0.184855
0.186674
0.188315
-0.036239
-0.0371056
-0.0372894
-0.0366163
-0.0348745
-0.0320179
-0.028064
-0.0230632
-0.0171039
-0.0103053
-0.0028044
0.00525551
0.0137343
0.0225013
0.0314389
0.0404443
0.0494302
0.0583232
0.0670633
0.0756015
0.0838987
0.0919238
0.0996525
0.107066
0.11415
0.120895
0.127294
0.133343
0.139041
0.14439
0.149394
0.154058
0.158393
0.162408
0.166115
0.169529
0.172663
0.175533
0.178154
0.180543
0.182715
0.184685
0.186469
0.188079
-0.0254447
-0.0255965
-0.0251939
-0.0240821
-0.0220748
-0.0191413
-0.0153009
-0.0105915
-0.00507704
0.00115382
0.0079971
0.0153416
0.0230755
0.0310912
0.0392894
0.0475802
0.0558849
0.0641358
0.0722752
0.0802551
0.0880359
0.0955854
0.102877
0.109892
0.116611
0.123025
0.129123
0.1349
0.140354
0.145483
0.150291
0.154782
0.158963
0.162843
0.166433
0.169744
0.172789
0.175582
0.178138
0.18047
0.182593
0.184523
0.186272
0.187854
-0.0151749
-0.0147602
-0.0138801
-0.0124175
-0.0102086
-0.0072268
-0.0034907
0.000970289
0.00610889
0.0118588
0.0181405
0.0248673
0.0319497
0.0392999
0.0468343
0.0544756
0.0621542
0.0698082
0.0773842
0.0848361
0.092125
0.0992184
0.106089
0.112716
0.119081
0.12517
0.130973
0.136482
0.141693
0.146605
0.151218
0.155535
0.159562
0.163306
0.166776
0.169982
0.172937
0.175651
0.178138
0.180412
0.182485
0.184372
0.186084
0.187636
-0.00394819
-0.0030353
-0.00173567
3.22096e-05
0.00240553
0.00540839
0.00902448
0.0132312
0.0179948
0.0232675
0.0289909
0.0350995
0.0415246
0.0481968
0.0550483
0.0620148
0.0690365
0.0760591
0.0830342
0.0899188
0.0966759
0.103274
0.109685
0.115886
0.12186
0.12759
0.133065
0.138277
0.143218
0.147886
0.152281
0.156403
0.160256
0.163847
0.167182
0.17027
0.17312
0.175745
0.178154
0.18036
0.182376
0.184213
0.185884
0.187401
0.00803822
0.00937326
0.011022
0.0130401
0.0155378
0.0185361
0.0220213
0.0259765
0.030378
0.0351926
0.0403785
0.0458883
0.0516709
0.0576734
0.0638429
0.0701278
0.0764788
0.0828498
0.0891985
0.0954866
0.10168
0.107748
0.113664
0.119405
0.124954
0.130292
0.135408
0.140291
0.144934
0.149333
0.153484
0.157389
0.161048
0.164466
0.167648
0.170602
0.173335
0.175857
0.178177
0.180306
0.182256
0.184037
0.18566
0.0205304
0.0222013
0.0241204
0.0263264
0.0289046
0.0318717
0.0352168
0.0389269
0.0429861
0.0473715
0.0520541
0.0570004
0.0621736
0.0675349
0.0730443
0.0786619
0.0843487
0.090067
0.0957815
0.101459
0.107069
0.112584
0.11798
0.123235
0.128329
0.133247
0.137975
0.142502
0.14682
0.150923
0.154808
0.158471
0.161915
0.16514
0.168152
0.170954
0.173555
0.175961
0.17818
0.180222
0.182097
0.183814
0.185383
0.033211
0.0351255
0.0372332
0.0395635
0.0421775
0.0450872
0.0482838
0.0517578
0.0554981
0.059489
0.0637108
0.0681403
0.0727515
0.0775167
0.0824066
0.0873914
0.0924411
0.0975263
0.102618
0.10769
0.112716
0.117672
0.122535
0.127287
0.131909
0.136386
0.140705
0.144853
0.148823
0.152608
0.156202
0.159603
0.16281
0.165824
0.168646
0.171281
0.173734
0.17601
0.178116
0.180061
0.181852
0.183498
0.185007
0.045692
0.0477703
0.0499987
0.0524012
0.0550172
0.0578534
0.0609029
0.0641583
0.0676116
0.0712518
0.0750652
0.0790358
0.0831454
0.0873743
0.0917016
0.0961054
0.100564
0.105054
0.109554
0.114042
0.118497
0.1229
0.127232
0.131476
0.135616
0.139638
0.143529
0.147279
0.150879
0.154323
0.157604
0.160719
0.163666
0.166446
0.169059
0.171507
0.173794
0.175925
0.177905
0.179741
0.181438
0.183005
0.184449
0.0574825
0.0596385
0.0619123
0.0643238
0.0668943
0.0696263
0.0725143
0.0755526
0.0787352
0.0820541
0.0854996
0.0890603
0.0927234
0.0964749
0.1003
0.104183
0.108106
0.112055
0.116011
0.119958
0.12388
0.12776
0.131584
0.135338
0.139007
0.142581
0.146047
0.149398
0.152625
0.155721
0.158681
0.161502
0.164182
0.16672
0.169115
0.17137
0.173487
0.175469
0.177321
0.179046
0.180652
0.182143
0.183525
0.0657798
0.067976
0.0702681
0.0726751
0.0752079
0.0778657
0.0806432
0.0835356
0.0865373
0.0896417
0.0928408
0.0961257
0.0994863
0.102912
0.10639
0.109909
0.113455
0.117016
0.120578
0.124128
0.127652
0.131137
0.134571
0.137942
0.141239
0.144453
0.147574
0.150595
0.15351
0.156313
0.159
0.161569
0.164017
0.166345
0.168551
0.170639
0.17261
0.174465
0.17621
0.177847
0.17938
0.180815
0.182157
0.0708537
0.0730411
0.0753098
0.0776779
0.0801521
0.0827303
0.0854078
0.0881804
0.0910433
0.0939907
0.0970159
0.100111
0.103268
0.106477
0.109728
0.113011
0.116313
0.119624
0.122932
0.126225
0.129491
0.132718
0.135898
0.139018
0.14207
0.145046
0.147939
0.150742
0.15345
0.15606
0.158568
0.160973
0.163273
0.165468
0.167558
0.169545
0.17143
0.173216
0.174904
0.176498
0.178
0.179416
0.180747
0.0741407
0.0763028
0.0785368
0.0808589
0.0832741
0.0857797
0.0883718
0.0910463
0.0937992
0.0966252
0.0995184
0.102472
0.105478
0.108528
0.111613
0.114723
0.117847
0.120975
0.124096
0.127199
0.130273
0.133309
0.136296
0.139227
0.142094
0.144889
0.147608
0.150245
0.152797
0.155262
0.157637
0.15992
0.162113
0.164214
0.166225
0.168145
0.169977
0.171722
0.173381
0.174957
0.176452
0.177868
0.179209
0.0760984
0.07822
0.0804076
0.0826751
0.085027
0.087461
0.0899735
0.0925611
0.09522
0.0979456
0.100733
0.103574
0.106464
0.109393
0.112352
0.115333
0.118324
0.121316
0.124298
0.127259
0.130191
0.133083
0.135927
0.138717
0.141445
0.144106
0.146697
0.149214
0.151654
0.154016
0.1563
0.158503
0.160627
0.162671
0.164636
0.166523
0.168331
0.170062
0.171718
0.173298
0.174805
0.176241
0.177607
0.0770289
0.079101
0.0812363
0.0834463
0.0857353
0.0881016
0.090542
0.0930535
0.0956327
0.0982755
0.100977
0.10373
0.106529
0.109365
0.112229
0.115111
0.118003
0.120892
0.123769
0.126625
0.129449
0.132233
0.134971
0.137656
0.140283
0.142848
0.145348
0.147782
0.150147
0.152444
0.154671
0.156829
0.158916
0.160934
0.162882
0.164761
0.16657
0.16831
0.169981
0.171584
0.173119
0.174587
0.175989
0.0771491
0.0791676
0.0812491
0.0834021
0.0856312
0.0879352
0.0903113
0.0927568
0.0952685
0.0978427
0.100474
0.103157
0.105884
0.108648
0.111438
0.114246
0.117061
0.119872
0.12267
0.125445
0.128189
0.130895
0.133555
0.136166
0.138723
0.141224
0.143667
0.14605
0.148373
0.150636
0.152838
0.154979
0.157059
0.159076
0.161032
0.162924
0.164754
0.16652
0.168222
0.169859
0.171433
0.172943
0.17439
0.0766222
0.0785866
0.0806165
0.0827165
0.084891
0.0871397
0.0894599
0.0918491
0.0943043
0.0968217
0.0993965
0.102023
0.104693
0.107399
0.110131
0.112879
0.115635
0.118386
0.121124
0.123839
0.126525
0.129175
0.131783
0.134346
0.136861
0.139326
0.14174
0.144102
0.146412
0.148669
0.150872
0.153022
0.155116
0.157155
0.159137
0.161061
0.162925
0.16473
0.166474
0.168156
0.169776
0.171334
0.17283
0.0755752
0.0774899
0.0794717
0.0815233
0.0836489
0.0858492
0.0881215
0.090463
0.0928707
0.0953409
0.0978686
0.100447
0.10307
0.105728
0.108412
0.111112
0.113818
0.116522
0.119213
0.121885
0.12453
0.127144
0.129722
0.13226
0.134758
0.137213
0.139624
0.141991
0.144312
0.146587
0.148815
0.150993
0.153122
0.155199
0.157222
0.15919
0.161101
0.162955
0.164748
0.166481
0.168153
0.169762
0.17131
0.0740625
0.0759454
0.0778867
0.0798925
0.0819726
0.0841298
0.0863604
0.0886611
0.0910285
0.0934587
0.0959458
0.0984833
0.101063
0.103678
0.106318
0.108975
0.111639
0.114303
0.116958
0.1196
0.122221
0.124817
0.127385
0.129922
0.132427
0.134896
0.137329
0.139725
0.142081
0.144396
0.146667
0.148893
0.151072
0.153201
0.155278
0.157301
0.159267
0.161176
0.163025
0.164814
0.16654
0.168204
0.169806
0.0722024
0.074077
0.0759928
0.0779644
0.0800134
0.0821418
0.0843431
0.0866129
0.0889485
0.0913458
0.0937989
0.0963009
0.0988445
0.101422
0.104026
0.106648
0.109282
0.111919
0.114555
0.117184
0.119801
0.122401
0.124983
0.127541
0.130075
0.13258
0.135056
0.137499
0.139906
0.142275
0.144603
0.146887
0.149125
0.151313
0.153448
0.155529
0.157553
0.159518
0.161423
0.163266
0.165046
0.166762
0.168416
0.0708421
0.0726907
0.0745485
0.0764682
0.0784847
0.0805919
0.0827742
0.0850236
0.0873365
0.0897083
0.0921331
0.0946046
0.0971164
0.0996626
0.102237
0.104833
0.107445
0.110068
0.112696
0.115325
0.117949
0.120565
0.123169
0.125757
0.128326
0.130872
0.133391
0.135881
0.138337
0.140756
0.143135
0.145469
0.147756
0.149993
0.152176
0.154303
0.156371
0.15838
0.160326
0.16221
0.164029
0.165784
0.167474
)
;

boundaryField
{
    inlet
    {
        type            zeroGradient;
    }
    outlet
    {