/*--------------------------------*- C++ -*----------------------------------*\
  =========                 |
  \\      /  F ield         | OpenFOAM: The Open Source CFD Toolbox
   \\    /   O peration     | Website:  https://openfoam.org
    \\  /    A nd           | Version:  6
     \\/     M anipulation  |
\*---------------------------------------------------------------------------*/
FoamFile
{
    version     2.0;
    format      ascii;
    class       surfaceScalarField;
    location    "0.02";
    object      phi;
}
// * * * * * * * * * * * * * * * * * * * * * * * * * * * * * * * * * * * * * //

dimensions      [0 3 -1 0 0 0 0];

internalField   nonuniform List<scalar> 
5945
(
3.25734e-07
-6.89328e-09
3.19623e-07
6.11106e-09
3.16361e-07
3.26223e-09
3.09812e-07
6.54866e-09
3.03576e-07
6.23589e-09
2.99469e-07
4.10681e-09
2.97186e-07
2.28317e-09
2.96013e-07
1.17321e-09
2.95552e-07
4.60914e-10
2.95629e-07
-7.69649e-11
2.962e-07
-5.70885e-10
2.97356e-07
-1.15605e-09
2.99273e-07
-1.91703e-09
3.02218e-07
-2.94514e-09
3.06691e-07
-4.47317e-09
3.13493e-07
-6.80199e-09
3.26326e-07
-1.28324e-08
-2.64961e-08
3.52822e-07
3.50321e-07
-1.54891e-08
3.47912e-07
8.51978e-09
3.44447e-07
6.72734e-09
3.43037e-07
7.95813e-09
3.41501e-07
7.77204e-09
3.39862e-07
5.74566e-09
3.38567e-07
3.57908e-09
3.37789e-07
1.95108e-09
3.37525e-07
7.24972e-10
3.378e-07
-3.52528e-10
3.38681e-07
-1.45148e-09
3.40243e-07
-2.71837e-09
3.42638e-07
-4.31227e-09
3.46121e-07
-6.42742e-09
3.51117e-07
-9.46921e-09
3.58473e-07
-1.41588e-08
3.69018e-07
-2.33773e-08
-4.03071e-08
3.82829e-07
3.63469e-07
-1.27067e-08
3.66754e-07
5.23469e-09
3.67211e-07
6.27034e-09
3.67849e-07
7.32001e-09
3.68143e-07
7.47876e-09
3.68033e-07
5.85515e-09
3.67851e-07
3.76117e-09
3.67867e-07
1.93547e-09
3.68218e-07
3.7336e-10
3.68996e-07
-1.13006e-09
3.70302e-07
-2.75783e-09
3.72264e-07
-4.68024e-09
3.7505e-07
-7.09806e-09
3.78899e-07
-1.02764e-08
3.84146e-07
-1.47166e-08
3.9127e-07
-2.12821e-08
4.00187e-07
-3.22944e-08
-5.01051e-08
4.09985e-07
3.89307e-07
-9.47464e-09
3.91703e-07
2.83812e-09
3.92969e-07
5.00472e-09
3.94145e-07
6.14393e-09
3.95131e-07
6.4927e-09
3.95804e-07
5.18252e-09
3.96338e-07
3.22641e-09
3.96961e-07
1.31302e-09
3.97834e-07
-4.99315e-10
3.99074e-07
-2.37059e-09
4.00801e-07
-4.48463e-09
4.03152e-07
-7.0313e-09
4.06292e-07
-1.02383e-08
4.10426e-07
-1.44102e-08
4.15782e-07
-2.00724e-08
4.2256e-07
-2.80604e-08
4.30377e-07
-4.01108e-08
-5.77739e-08
4.38045e-07
4.18347e-07
-7.10903e-09
4.19696e-07
1.48883e-09
4.20955e-07
3.74635e-09
4.22275e-07
4.82347e-09
4.23597e-07
5.17133e-09
4.24741e-07
4.03803e-09
4.2578e-07
2.18721e-09
4.26885e-07
2.0785e-10
4.28209e-07
-1.8228e-09
4.29874e-07
-4.03519e-09
4.31999e-07
-6.60977e-09
4.34715e-07
-9.74801e-09
4.38168e-07
-1.36906e-08
4.4251e-07
-1.87523e-08
4.47865e-07
-2.54276e-08
4.54239e-07
-3.44347e-08
4.61113e-07
-4.69847e-08
-6.39653e-08
4.67305e-07
4.49121e-07
-5.32166e-09
4.49928e-07
6.81845e-10
4.51079e-07
2.59585e-09
4.52442e-07
3.46019e-09
4.53946e-07
3.66731e-09
4.55395e-07
2.5891e-09
4.56802e-07
7.80212e-10
4.58295e-07
-1.28467e-09
4.60005e-07
-3.53314e-09
4.62048e-07
-6.07858e-09
4.64535e-07
-9.09607e-09
4.67576e-07
-1.27897e-08
4.71284e-07
-1.73986e-08
4.75754e-07
-2.32223e-08
4.81014e-07
-3.06876e-08
4.86934e-07
-4.03544e-08
4.92946e-07
-5.29963e-08
-6.90261e-08
4.98006e-07
4.81856e-07
-3.9058e-09
4.8242e-07
1.18383e-10
4.8347e-07
1.54575e-09
4.8483e-07
2.09951e-09
4.86429e-07
2.06877e-09
4.88076e-07
9.42248e-10
4.89753e-07
-8.96857e-10
4.91554e-07
-3.08537e-09
4.93588e-07
-5.56762e-09
4.95957e-07
-8.44751e-09
4.98753e-07
-1.18922e-08
5.02063e-07
-1.60991e-08
5.05956e-07
-2.12921e-08
5.10469e-07
-2.77351e-08
5.15547e-07
-3.57664e-08
5.20973e-07
-4.57795e-08
5.26185e-07
-5.82086e-08
-7.3155e-08
5.30314e-07
5.16861e-07
-2.80844e-09
5.17303e-07
-3.24304e-10
5.18269e-07
5.80127e-10
5.19603e-07
7.65306e-10
5.21241e-07
4.3066e-10
5.23013e-07
-8.29749e-10
5.24886e-07
-2.76921e-09
5.26925e-07
-5.12506e-09
5.29221e-07
-7.86302e-09
5.31854e-07
-1.10809e-08
5.34896e-07
-1.49343e-08
5.38402e-07
-1.96047e-08
5.42399e-07
-2.5289e-08
5.46865e-07
-3.22014e-08
5.51684e-07
-4.0585e-08
5.56583e-07
-5.06792e-08
5.61047e-07
-6.26719e-08
-7.64735e-08
5.64365e-07
5.54333e-07
-2.00755e-09
5.54714e-07
-7.05549e-10
5.55617e-07
-3.22323e-10
5.56917e-07
-5.34862e-10
5.58561e-07
-1.21406e-09
5.60407e-07
-2.67526e-09
5.62414e-07
-4.77648e-09
5.6463e-07
-7.34062e-09
5.67121e-07
-1.03547e-08
5.69951e-07
-1.39104e-08
5.73164e-07
-1.81475e-08
5.76783e-07
-2.32233e-08
5.80792e-07
-2.92986e-08
5.85122e-07
-3.65308e-08
5.89607e-07
-4.50707e-08
5.93957e-07
-5.50289e-08
5.9771e-07
-6.64246e-08
-7.9063e-08
6.00299e-07
5.94438e-07
-1.46762e-09
5.948e-07
-1.06804e-09
5.95663e-07
-1.18511e-09
5.96931e-07
-1.80268e-09
5.98563e-07
-2.84593e-09
6.00443e-07
-4.55575e-09
6.02534e-07
-6.86723e-09
6.04866e-07
-9.67229e-09
6.07487e-07
-1.29758e-08
6.10438e-07
-1.68614e-08
6.13738e-07
-2.14481e-08
6.17378e-07
-2.68631e-08
6.21304e-07
-3.32249e-08
6.25407e-07
-4.06329e-08
6.29492e-07
-4.91566e-08
6.3327e-07
-5.88065e-08
6.3634e-07
-6.94951e-08
-8.09804e-08
6.38258e-07
6.37359e-07
-1.14514e-09
6.37731e-07
-1.43989e-09
6.38575e-07
-2.02907e-09
6.39815e-07
-3.04292e-09
6.41421e-07
-4.45204e-09
6.43305e-07
-6.44012e-09
6.45433e-07
-8.99512e-09
6.47822e-07
-1.20616e-08
6.50504e-07
-1.5657e-08
6.53496e-07
-1.98538e-08
6.56794e-07
-2.47461e-08
6.60357e-07
-3.04264e-08
6.64102e-07
-3.69694e-08
6.67889e-07
-4.44196e-08
6.71512e-07
-5.27798e-08
6.74695e-07
-6.19895e-08
6.77101e-07
-7.1901e-08
-8.22631e-08
6.78383e-07
5.73946e-07
-1.00787e-09
5.74274e-07
-1.76757e-09
5.74983e-07
-2.73779e-09
5.76012e-07
-4.07196e-09
5.77339e-07
-5.7798e-09
5.78912e-07
-8.01308e-09
5.80704e-07
-1.07869e-08
5.82721e-07
-1.40787e-08
5.84977e-07
-1.79127e-08
5.87472e-07
-2.23488e-08
5.90184e-07
-2.74578e-08
5.93059e-07
-3.33017e-08
5.96008e-07
-3.99189e-08
5.98902e-07
-4.73128e-08
6.01564e-07
-5.5442e-08
6.0378e-07
-6.42055e-08
6.05311e-07
-7.34319e-08
-8.28756e-08
6.05923e-07
6.99767e-07
-9.59553e-10
7.00178e-07
-2.17854e-09
7.00983e-07
-3.54222e-09
7.02133e-07
-5.22273e-09
7.0361e-07
-7.25689e-09
7.05366e-07
-9.76822e-09
7.07373e-07
-1.27942e-08
7.09632e-07
-1.63377e-08
7.12144e-07
-2.04246e-08
7.14893e-07
-2.50982e-08
7.17837e-07
-3.04011e-08
7.20896e-07
-3.63607e-08
7.23954e-07
-4.29769e-08
7.26855e-07
-5.02137e-08
7.29405e-07
-5.79928e-08
7.31386e-07
-6.6186e-08
7.32569e-07
-7.46147e-08
-8.30576e-08
7.32751e-07
8.53129e-07
-1.00428e-09
8.53626e-07
-2.67532e-09
8.54526e-07
-4.44182e-09
8.55785e-07
-6.4817e-09
8.57383e-07
-8.85505e-09
8.59278e-07
-1.16634e-08
8.61443e-07
-1.49593e-08
8.63868e-07
-1.87624e-08
8.66538e-07
-2.30944e-08
8.69417e-07
-2.79774e-08
8.72438e-07
-3.34226e-08
8.75498e-07
-3.94204e-08
8.78454e-07
-4.59333e-08
8.81132e-07
-5.28916e-08
8.8333e-07
-6.01909e-08
8.84836e-07
-6.76913e-08
8.85443e-07
-7.52225e-08
-8.25996e-08
8.84985e-07
1.04005e-06
-1.13022e-09
1.04061e-06
-3.24148e-09
1.04158e-06
-5.41104e-09
1.04291e-06
-7.80625e-09
1.04456e-06
-1.05087e-08
1.04651e-06
-1.36073e-08
1.04871e-06
-1.71617e-08
1.05114e-06
-2.11996e-08
1.05378e-06
-2.57331e-08
1.05657e-06
-3.076e-08
1.0594e-06
-3.62586e-08
1.06217e-06
-4.2184e-08
1.0647e-06
-4.84667e-08
1.06682e-06
-5.50121e-08
1.06833e-06
-6.17031e-08
1.06904e-06
-6.84025e-08
1.06878e-06
-7.49613e-08
-8.12367e-08
1.06742e-06
1.26785e-06
-1.30593e-09
1.26844e-06
-3.83166e-09
1.26941e-06
-6.37963e-09
1.27071e-06
-9.09951e-09
1.27229e-06
-1.20879e-08
1.27411e-06
-1.54298e-08
1.27613e-06
-1.91864e-08
1.27832e-06
-2.3386e-08
1.28061e-06
-2.80282e-08
1.28294e-06
-3.30865e-08
1.28519e-06
-3.85091e-08
1.28723e-06
-4.42216e-08
1.28889e-06
-5.01308e-08
1.29001e-06
-5.6129e-08
1.29041e-06
-6.20986e-08
1.28992e-06
-6.79169e-08
1.28842e-06
-7.34643e-08
-7.86394e-08
1.28583e-06
1.5455e-06
-1.48376e-09
1.54602e-06
-4.35894e-09
1.54686e-06
-7.21536e-09
1.54794e-06
-1.01847e-08
1.54922e-06
-1.33682e-08
1.55065e-06
-1.68507e-08
1.55215e-06
-2.06931e-08
1.55369e-06
-2.49209e-08
1.55518e-06
-2.95224e-08
1.55655e-06
-3.44511e-08
1.55767e-06
-3.96327e-08
1.55842e-06
-4.49722e-08
1.55865e-06
-5.03634e-08
1.55822e-06
-5.56957e-08
1.55698e-06
-6.08609e-08
1.55482e-06
-6.57577e-08
1.55166e-06
-7.02975e-08
-7.4416e-08
1.54743e-06
1.88388e-06
-1.60254e-09
1.88421e-06
-4.68837e-09
1.88471e-06
-7.71614e-09
1.88532e-06
-1.07948e-08
1.88597e-06
-1.40184e-08
1.88659e-06
-1.74717e-08
1.88712e-06
-2.12162e-08
1.88747e-06
-2.5277e-08
1.88759e-06
-2.96365e-08
1.88737e-06
-3.42377e-08
1.88673e-06
-3.89931e-08
1.88556e-06
-4.37978e-08
1.88374e-06
-4.85415e-08
1.88116e-06
-5.31184e-08
1.87773e-06
-5.74343e-08
1.87339e-06
-6.14106e-08
1.86808e-06
-6.4987e-08
-6.81292e-08
1.86179e-06
2.29631e-06
-1.57634e-09
2.29625e-06
-4.62916e-09
2.29615e-06
-7.61753e-09
2.29595e-06
-1.05966e-08
2.29557e-06
-1.36403e-08
2.29494e-06
-1.6834e-08
2.29396e-06
-2.02432e-08
2.29258e-06
-2.38984e-08
2.29073e-06
-2.77865e-08
2.28835e-06
-3.185e-08
2.28535e-06
-3.59977e-08
2.28167e-06
-4.01213e-08
2.27724e-06
-4.41115e-08
2.272e-06
-4.78705e-08
2.26588e-06
-5.13184e-08
2.25887e-06
-5.43971e-08
2.25095e-06
-5.70698e-08
-5.9325e-08
2.24215e-06
1.68091e-06
-1.41453e-09
1.68055e-06
-4.27174e-09
1.68007e-06
-7.13375e-09
1.67942e-06
-9.95011e-09
1.67856e-06
-1.27763e-08
1.67742e-06
-1.56971e-08
1.67595e-06
-1.87769e-08
1.67411e-06
-2.20554e-08
1.67186e-06
-2.55308e-08
1.66916e-06
-2.91505e-08
1.66598e-06
-3.28236e-08
1.6623e-06
-3.6441e-08
1.65808e-06
-3.98952e-08
1.65331e-06
-4.30934e-08
1.64796e-06
-4.59656e-08
1.64202e-06
-4.84661e-08
1.63553e-06
-5.05722e-08
-5.22845e-08
1.62849e-06
1.46313e-06
-1.08894e-09
1.46256e-06
-3.69713e-09
1.46189e-06
-6.46916e-09
1.46109e-06
-9.1443e-09
1.46009e-06
-1.1779e-08
1.45884e-06
-1.44478e-08
1.45727e-06
-1.72054e-08
1.45532e-06
-2.011e-08
1.45297e-06
-2.31809e-08
1.4502e-06
-2.63749e-08
1.44698e-06
-2.96031e-08
1.44329e-06
-3.27565e-08
1.43913e-06
-3.57294e-08
1.43447e-06
-3.84344e-08
1.42931e-06
-4.08099e-08
1.42367e-06
-4.28217e-08
1.41755e-06
-4.4459e-08
-4.5732e-08
1.411e-06
1.27341e-06
-4.82381e-10
1.27264e-06
-2.93383e-09
1.27194e-06
-5.76262e-09
1.27117e-06
-8.37324e-09
1.27028e-06
-1.08903e-08
1.26918e-06
-1.33504e-08
1.26777e-06
-1.57918e-08
1.26597e-06
-1.83144e-08
1.26376e-06
-2.09731e-08
1.26113e-06
-2.37388e-08
1.25805e-06
-2.65262e-08
1.25452e-06
-2.92278e-08
1.25053e-06
-3.17405e-08
1.24608e-06
-3.39825e-08
1.24117e-06
-3.59016e-08
1.23582e-06
-3.74743e-08
1.23007e-06
-3.87004e-08
-3.95979e-08
1.22393e-06
1.10804e-06
5.65901e-10
1.10713e-06
-2.01907e-09
1.10651e-06
-5.14324e-09
1.10593e-06
-7.79174e-09
1.10532e-06
-1.0281e-08
1.10453e-06
-1.25576e-08
1.10339e-06
-1.46555e-08
1.10183e-06
-1.67577e-08
1.09983e-06
-1.89709e-08
1.09738e-06
-2.12824e-08
1.09446e-06
-2.36114e-08
1.09109e-06
-2.58531e-08
1.08725e-06
-2.79077e-08
1.08297e-06
-2.97003e-08
1.07826e-06
-3.11878e-08
1.07314e-06
-3.23571e-08
1.06766e-06
-3.32172e-08
-3.37915e-08
1.06185e-06
9.63875e-07
2.21199e-09
9.6289e-07
-1.03384e-09
9.62486e-07
-4.73955e-09
9.6222e-07
-7.52478e-09
9.61998e-07
-1.00591e-08
9.61564e-07
-1.21235e-08
9.60709e-07
-1.38011e-08
9.59365e-07
-1.54131e-08
9.57521e-07
-1.71276e-08
9.55184e-07
-1.89453e-08
9.52362e-07
-2.07894e-08
9.49066e-07
-2.25574e-08
9.45312e-07
-2.41535e-08
9.41122e-07
-2.55097e-08
9.36526e-07
-2.6592e-08
9.31565e-07
-2.73959e-08
9.26285e-07
-2.79372e-08
-2.82421e-08
9.20735e-07
8.3801e-07
4.73736e-09
8.37224e-07
-2.48091e-10
8.37212e-07
-4.72706e-09
8.37357e-07
-7.66988e-09
8.37555e-07
-1.02572e-08
8.37431e-07
-1.19999e-08
8.36762e-07
-1.31318e-08
8.35514e-07
-1.41649e-08
8.3371e-07
-1.53234e-08
8.31376e-07
-1.66122e-08
8.2854e-07
-1.7953e-08
8.25226e-07
-1.92438e-08
8.21466e-07
-2.03926e-08
8.17294e-07
-2.13378e-08
8.12755e-07
-2.20531e-08
8.07899e-07
-2.25402e-08
8.0278e-07
-2.28185e-08
-2.29139e-08
7.97452e-07
7.27543e-07
8.92257e-09
7.27712e-07
-4.16632e-10
7.2838e-07
-5.39532e-09
7.2902e-07
-8.30997e-09
7.29585e-07
-1.08223e-08
7.29614e-07
-1.20289e-08
7.28937e-07
-1.24548e-08
7.27596e-07
-1.28241e-08
7.25663e-07
-1.33905e-08
7.23193e-07
-1.41421e-08
7.20229e-07
-1.49884e-08
7.16809e-07
-1.58239e-08
7.12975e-07
-1.65591e-08
7.08776e-07
-1.71386e-08
7.04265e-07
-1.75415e-08
6.99497e-07
-1.77731e-08
6.94532e-07
-1.7853e-08
-1.78037e-08
6.89422e-07
6.30168e-07
1.57616e-08
6.32446e-07
-2.69467e-09
6.33987e-07
-6.9366e-09
6.35153e-07
-9.47561e-09
6.35923e-07
-1.15928e-08
6.3582e-07
-1.19263e-08
6.34839e-07
-1.14733e-08
6.33149e-07
-1.1134e-08
6.30887e-07
-1.11289e-08
6.28136e-07
-1.13905e-08
6.24944e-07
-1.17973e-08
6.21356e-07
-1.22355e-08
6.17416e-07
-1.26192e-08
6.13177e-07
-1.28995e-08
6.08696e-07
-1.30603e-08
6.0403e-07
-1.31074e-08
5.99235e-07
-1.30581e-08
-1.29298e-08
5.94361e-07
5.47141e-07
2.3167e-08
5.51592e-07
-7.14597e-09
5.52939e-07
-8.28332e-09
5.54142e-07
-1.06782e-08
5.54588e-07
-1.2039e-08
5.53797e-07
-1.11356e-08
5.5204e-07
-9.71616e-09
5.49658e-07
-8.75212e-09
5.46846e-07
-8.31649e-09
5.4368e-07
-8.22481e-09
5.4019e-07
-8.3075e-09
5.36402e-07
-8.44679e-09
5.32351e-07
-8.56843e-09
5.28086e-07
-8.63453e-09
5.2366e-07
-8.63434e-09
5.19127e-07
-8.57388e-09
5.14534e-07
-8.46531e-09
-8.32258e-09
5.09927e-07
4.91508e-07
1.44196e-08
4.9047e-07
-6.10827e-09
4.86803e-07
-4.61603e-09
4.85457e-07
-9.33231e-09
4.835e-07
-1.00823e-08
4.80511e-07
-8.14583e-09
4.77034e-07
-6.23941e-09
4.73438e-07
-5.15609e-09
4.69805e-07
-4.68327e-09
4.66088e-07
-4.50814e-09
4.62232e-07
-4.45172e-09
4.58216e-07
-4.43039e-09
4.54052e-07
-4.40438e-09
4.49775e-07
-4.35724e-09
4.45427e-07
-4.28695e-09
4.41054e-07
-4.20038e-09
4.36695e-07
-4.10666e-09
-4.04995e-09
4.32422e-07
4.34687e-07
4.28579e-07
4.23963e-07
4.14631e-07
4.04548e-07
3.96403e-07
3.90163e-07
3.85007e-07
3.80324e-07
3.75816e-07
3.71364e-07
3.66933e-07
3.62529e-07
3.58172e-07
3.53885e-07
3.49685e-07
3.45578e-07
3.41528e-07
-1.1236e-08
1.1236e-08
-1.91861e-08
7.95014e-09
-2.46056e-08
5.41949e-09
-2.78023e-08
3.19672e-09
-2.91594e-08
1.35705e-09
-2.9034e-08
-1.2544e-10
-2.77157e-08
-1.31827e-09
-2.54213e-08
-2.29441e-09
-2.23056e-08
-3.11563e-09
-1.84763e-08
-3.82937e-09
-1.40056e-08
-4.4707e-09
-8.9404e-09
-5.06517e-09
-3.30869e-09
-5.63171e-09
2.87147e-09
-6.18016e-09
9.5846e-09
-6.71312e-09
1.6817e-08
-7.23244e-09
2.45557e-08
-7.73869e-09
3.27862e-08
-8.23052e-09
4.14915e-08
-8.70526e-09
5.06509e-08
-9.15942e-09
6.024e-08
-9.58912e-09
7.02304e-08
-9.99032e-09
8.05895e-08
-1.03591e-08
9.12815e-08
-1.0692e-08
1.02267e-07
-1.09857e-08
1.13505e-07
-1.12378e-08
1.24951e-07
-1.14463e-08
1.36561e-07
-1.161e-08
1.4829e-07
-1.17284e-08
1.60091e-07
-1.18015e-08
1.71921e-07
-1.18302e-08
1.83737e-07
-1.18158e-08
1.95497e-07
-1.176e-08
2.07163e-07
-1.16653e-08
2.18697e-07
-1.15343e-08
2.30067e-07
-1.13698e-08
2.41241e-07
-1.11749e-08
2.52195e-07
-1.0953e-08
2.62902e-07
-1.07073e-08
2.73343e-07
-1.0441e-08
2.835e-07
-1.01573e-08
2.93359e-07
-9.85933e-09
3.02909e-07
-9.54999e-09
-9.23206e-09
-4.31378e-09
1.55498e-08
-7.08598e-09
1.07223e-08
-8.9289e-09
7.26241e-09
-1.01344e-08
4.40221e-09
-1.07356e-08
1.95822e-09
-1.07052e-08
-1.55761e-10
-1.00143e-08
-2.00925e-09
-8.64731e-09
-3.66135e-09
-6.60025e-09
-5.16269e-09
-3.87446e-09
-6.55516e-09
-4.7396e-10
-7.87121e-09
3.59523e-09
-9.13436e-09
8.32402e-09
-1.03605e-08
1.37025e-08
-1.15587e-08
1.97218e-08
-1.27324e-08
2.63708e-08
-1.38814e-08
3.36343e-08
-1.50022e-08
4.14933e-08
-1.60894e-08
4.9924e-08
-1.7136e-08
5.88987e-08
-1.81341e-08
6.83851e-08
-1.90755e-08
7.83468e-08
-1.99521e-08
8.87439e-08
-2.07562e-08
9.95332e-08
-2.14812e-08
1.10669e-07
-2.21211e-08
1.22102e-07
-2.26715e-08
1.33785e-07
-2.31291e-08
1.45667e-07
-2.34918e-08
1.57698e-07
-2.37592e-08
1.69828e-07
-2.3932e-08
1.8201e-07
-2.40121e-08
1.94197e-07
-2.40027e-08
2.06345e-07
-2.39077e-08
2.18411e-07
-2.37321e-08
2.30359e-07
-2.34814e-08
2.4215e-07
-2.31617e-08
2.53755e-07
-2.27793e-08
2.65143e-07
-2.23409e-08
2.76289e-07
-2.18532e-08
2.8717e-07
-2.13228e-08
2.97769e-07
-2.07561e-08
3.08069e-07
-2.01595e-08
3.18058e-07
-1.95389e-08
-1.88999e-08
5.37279e-12
1.55444e-08
-2.84042e-10
1.10118e-08
-6.66331e-10
7.6447e-09
-1.03458e-09
4.77046e-09
-1.25242e-09
2.17606e-09
-1.18619e-09
-2.21999e-10
-7.22612e-10
-2.47282e-09
2.28619e-10
-4.61258e-09
1.73685e-09
-6.67093e-09
3.85361e-09
-8.67191e-09
6.61602e-09
-1.06336e-08
1.00498e-08
-1.25681e-08
1.41709e-08
-1.44816e-08
1.89874e-08
-1.63752e-08
2.45003e-08
-1.82453e-08
3.07037e-08
-2.00848e-08
3.75852e-08
-2.18837e-08
4.51259e-08
-2.36301e-08
5.33008e-08
-2.53109e-08
6.20791e-08
-2.69125e-08
7.14249e-08
-2.84213e-08
8.12973e-08
-2.98245e-08
9.16514e-08
-3.11102e-08
1.02439e-07
-3.22684e-08
1.13608e-07
-3.32905e-08
1.25106e-07
-3.41699e-08
1.36879e-07
-3.49023e-08
1.48873e-07
-3.54853e-08
1.61033e-07
-3.59188e-08
1.73305e-07
-3.62045e-08
1.85639e-07
-3.6346e-08
1.97985e-07
-3.63485e-08
2.10296e-07
-3.62187e-08
2.22528e-07
-3.59646e-08
2.34642e-07
-3.55948e-08
2.46599e-07
-3.51191e-08
2.58367e-07
-3.45473e-08
2.69916e-07
-3.38898e-08
2.8122e-07
-3.31569e-08
2.92256e-07
-3.23587e-08
3.03005e-07
-3.15052e-08
3.13451e-07
-3.0606e-08
3.23582e-07
-2.967e-08
-2.87059e-08
1.56184e-09
1.39826e-08
2.28599e-09
1.02876e-08
2.54114e-09
7.38954e-09
2.56207e-09
4.74953e-09
2.54245e-09
2.19568e-09
2.64598e-09
-3.25535e-10
3.01194e-09
-2.83878e-09
3.75811e-09
-5.35875e-09
4.98226e-09
-7.89507e-09
6.76373e-09
-1.04534e-08
9.16534e-09
-1.30352e-08
1.22351e-08
-1.56378e-08
1.60076e-08
-1.82541e-08
2.05055e-08
-2.08731e-08
2.57403e-08
-2.34801e-08
3.17132e-08
-2.60577e-08
3.84159e-08
-2.85864e-08
4.58311e-08
-3.10453e-08
5.39333e-08
-3.34132e-08
6.26898e-08
-3.56689e-08
7.20608e-08
-3.77923e-08
8.20011e-08
-3.97647e-08
9.24605e-08
-4.15697e-08
1.03385e-07
-4.3193e-08
1.14718e-07
-4.46233e-08
1.264e-07
-4.58523e-08
1.38373e-07
-4.68746e-08
1.50575e-07
-4.76877e-08
1.62949e-07
-4.82923e-08
1.75436e-07
-4.86917e-08
1.87982e-07
-4.88917e-08
2.00533e-07
-4.89003e-08
2.13042e-07
-4.87273e-08
2.25462e-07
-4.83842e-08
2.3775e-07
-4.78837e-08
2.4987e-07
-4.72392e-08
2.61788e-07
-4.64648e-08
2.73473e-07
-4.55748e-08
2.849e-07
-4.45835e-08
2.96046e-07
-4.35049e-08
3.06893e-07
-4.23525e-08
3.17427e-07
-4.11394e-08
3.27634e-07
-3.98778e-08
-3.85793e-08
1.46894e-09
1.25136e-08
2.20621e-09
9.55034e-09
2.45482e-09
7.14094e-09
2.42918e-09
4.77517e-09
2.3154e-09
2.30945e-09
2.27694e-09
-2.87074e-10
2.45882e-09
-3.02066e-09
2.98911e-09
-5.88904e-09
3.97894e-09
-8.8849e-09
5.52248e-09
-1.19969e-08
7.6973e-09
-1.52101e-08
1.05649e-08
-1.85054e-08
1.41715e-08
-2.18607e-08
1.85486e-08
-2.52503e-08
2.37143e-08
-2.86458e-08
2.96735e-08
-3.20168e-08
3.6419e-08
-3.53319e-08
4.39327e-08
-3.8559e-08
5.21863e-08
-4.16668e-08
6.11426e-08
-4.46252e-08
7.07566e-08
-4.74062e-08
8.09764e-08
-4.99846e-08
9.17452e-08
-5.23384e-08
1.03002e-07
-5.44495e-08
1.14682e-07
-5.63037e-08
1.26721e-07
-5.78908e-08
1.39051e-07
-5.92051e-08
1.51608e-07
-6.02446e-08
1.64327e-07
-6.10113e-08
1.77146e-07
-6.15108e-08
1.90006e-07
-6.17519e-08
2.02852e-07
-6.1746e-08
2.15632e-07
-6.15072e-08
2.28299e-07
-6.10509e-08
2.40809e-07
-6.03945e-08
2.53126e-07
-5.95559e-08
2.65215e-07
-5.85537e-08
2.77047e-07
-5.74068e-08
2.88597e-07
-5.61338e-08
2.99845e-07
-5.47527e-08
3.10774e-07
-5.32811e-08
3.2137e-07
-5.17354e-08
3.31623e-07
-5.01313e-08
-4.84832e-08
5.05075e-10
1.20086e-08
4.94868e-10
9.56055e-09
1.20297e-10
7.51551e-09
-4.46995e-10
5.34246e-09
-1.04377e-09
2.90623e-09
-1.51698e-09
1.86133e-10
-1.72438e-09
-2.81326e-09
-1.53606e-09
-6.07736e-09
-8.36158e-10
-9.5848e-09
4.75707e-10
-1.33088e-08
2.48352e-09
-1.72179e-08
5.25444e-09
-2.12764e-08
8.8389e-09
-2.54452e-08
1.32709e-08
-2.96823e-08
1.85686e-08
-3.39435e-08
2.4735e-08
-3.81832e-08
3.1759e-08
-4.23559e-08
3.96165e-08
-4.64166e-08
4.82721e-08
-5.03224e-08
5.768e-08
-5.40331e-08
6.77858e-08
-5.75121e-08
7.85283e-08
-6.07271e-08
8.98407e-08
-6.36508e-08
1.01652e-07
-6.62612e-08
1.1389e-07
-6.85415e-08
1.2648e-07
-7.04808e-08
1.39349e-07
-7.20735e-08
1.52423e-07
-7.3319e-08
1.65634e-07
-7.42219e-08
1.78914e-07
-7.4791e-08
1.92201e-07
-7.5039e-08
2.05437e-07
-7.4982e-08
2.18568e-07
-7.46387e-08
2.31548e-07
-7.40301e-08
2.44332e-07
-7.31784e-08
2.56883e-07
-7.2107e-08
2.69169e-07
-7.08397e-08
2.81162e-07
-6.94002e-08
2.9284e-07
-6.78119e-08
3.04185e-07
-6.60973e-08
3.15181e-07
-6.42778e-08
3.2582e-07
-6.23738e-08
3.36093e-07
-6.04042e-08
-5.83862e-08
-9.94784e-10
1.30033e-08
-2.33512e-09
1.09009e-08
-3.87868e-09
9.05907e-09
-5.47495e-09
6.93873e-09
-6.97119e-09
4.40247e-09
-8.21834e-09
1.43328e-09
-9.07525e-09
-1.95635e-09
-9.41131e-09
-5.7413e-09
-9.10933e-09
-9.88677e-09
-8.06788e-09
-1.43502e-08
-6.20268e-09
-1.90831e-08
-3.44762e-09
-2.40314e-08
2.44779e-10
-2.91376e-08
4.90352e-09
-3.4341e-08
1.05395e-08
-3.95794e-08
1.71465e-08
-4.47902e-08
2.47024e-08
-4.99118e-08
3.31708e-08
-5.4885e-08
4.25024e-08
-5.9654e-08
5.26374e-08
-6.41681e-08
6.35073e-08
-6.8382e-08
7.50368e-08
-7.22565e-08
8.71456e-08
-7.57597e-08
9.97507e-08
-7.88663e-08
1.12768e-07
-8.15586e-08
1.26113e-07
-8.38258e-08
1.39703e-07
-8.56639e-08
1.5346e-07
-8.70755e-08
1.67307e-07
-8.80689e-08
1.81173e-07
-8.86576e-08
1.94994e-07
-8.88595e-08
2.08708e-07
-8.86966e-08
2.22263e-07
-8.81936e-08
2.35611e-07
-8.73774e-08
2.48709e-07
-8.62766e-08
2.61522e-07
-8.49204e-08
2.74021e-07
-8.33385e-08
2.86181e-07
-8.156e-08
2.97982e-07
-7.96132e-08
3.0941e-07
-7.75255e-08
3.20455e-07
-7.53224e-08
3.31109e-07
-7.3028e-08
3.4137e-07
-7.06645e-08
-6.82521e-08
-2.92779e-09
1.59311e-08
-6.08276e-09
1.40559e-08
-9.27854e-09
1.22548e-08
-1.23543e-08
1.00145e-08
-1.51473e-08
7.19546e-09
-1.74999e-08
3.78586e-09
-1.92647e-08
-1.9148e-10
-2.03077e-08
-4.69832e-09
-2.05106e-08
-9.68389e-09
-1.97736e-08
-1.50872e-08
-1.80172e-08
-2.08395e-08
-1.5183e-08
-2.68656e-08
-1.12341e-08
-3.30865e-08
-6.15459e-09
-3.94205e-08
5.1016e-11
-4.5785e-08
7.35904e-09
-5.20982e-08
1.57278e-08
-5.82805e-08
2.51002e-08
-6.42573e-08
3.54059e-08
-6.99598e-08
4.65642e-08
-7.53264e-08
5.84863e-08
-8.03041e-08
7.1078e-08
-8.48482e-08
8.42419e-08
-8.89235e-08
9.78794e-08
-9.25038e-08
1.11893e-07
-9.55721e-08
1.26187e-07
-9.81201e-08
1.40671e-07
-1.00148e-07
1.55258e-07
-1.01662e-07
1.69867e-07
-1.02678e-07
1.84423e-07
-1.03215e-07
1.98861e-07
-1.03297e-07
2.13119e-07
-1.02955e-07
2.27145e-07
-1.02219e-07
2.40893e-07
-1.01125e-07
2.54324e-07
-9.97074e-08
2.67406e-07
-9.80022e-08
2.80113e-07
-9.60454e-08
2.92425e-07
-9.38719e-08
3.04327e-07
-9.15155e-08
3.1581e-07
-8.90083e-08
3.26867e-07
-8.638e-08
3.37498e-07
-8.36585e-08
3.47702e-07
-8.0869e-08
-7.80346e-08
-5.29932e-09
2.12304e-08
-1.0721e-08
1.94776e-08
-1.6008e-08
1.75418e-08
-2.09645e-08
1.4971e-08
-2.54008e-08
1.16318e-08
-2.91402e-08
7.52518e-09
-3.20215e-08
2.68983e-09
-3.39041e-08
-2.81574e-09
-3.46685e-08
-8.91945e-09
-3.42192e-08
-1.55365e-08
-3.24859e-08
-2.25728e-08
-2.94243e-08
-2.99272e-08
-2.50161e-08
-3.74947e-08
-1.92683e-08
-4.51683e-08
-1.22114e-08
-5.28419e-08
-3.89691e-09
-6.04127e-08
5.60484e-09
-6.77823e-08
1.62068e-08
-7.48593e-08
2.7809e-08
-8.1562e-08
4.03022e-08
-8.78196e-08
5.35713e-08
-9.35731e-08
6.74983e-08
-9.87752e-08
8.19651e-08
-1.0339e-07
9.68557e-08
-1.07394e-07
1.12058e-07
-1.10774e-07
1.27466e-07
-1.13528e-07
1.42979e-07
-1.15661e-07
1.58505e-07
-1.17189e-07
1.73961e-07
-1.18133e-07
1.8927e-07
-1.18524e-07
2.04367e-07
-1.18394e-07
2.19192e-07
-1.1778e-07
2.33697e-07
-1.16724e-07
2.47839e-07
-1.15267e-07
2.61585e-07
-1.13453e-07
2.74907e-07
-1.11324e-07
2.87786e-07
-1.08924e-07
3.00207e-07
-1.06293e-07
3.12162e-07
-1.03471e-07
3.23647e-07
-1.00493e-07
3.34662e-07
-9.73951e-08
3.45211e-07
-9.42074e-08
3.553e-07
-9.09585e-08
-8.76736e-08
-8.15536e-09
2.93858e-08
-1.62909e-08
2.76131e-08
-2.40651e-08
2.53161e-08
-3.12385e-08
2.21443e-08
-3.75867e-08
1.798e-08
-4.29078e-08
1.28463e-08
-4.70243e-08
6.80634e-09
-4.97864e-08
-5.36193e-11
-5.1075e-08
-7.63085e-09
-5.08022e-08
-1.58094e-08
-4.89127e-08
-2.44622e-08
-4.53846e-08
-3.34553e-08
-4.02281e-08
-4.26512e-08
-3.3484e-08
-5.19125e-08
-2.52207e-08
-6.11052e-08
-1.5531e-08
-7.01024e-08
-4.52651e-09
-7.87868e-08
7.666e-09
-8.70518e-08
2.09073e-08
-9.48033e-08
3.50523e-08
-1.01965e-07
4.9954e-08
-1.08475e-07
6.5467e-08
-1.14288e-07
8.14505e-08
-1.19374e-07
9.77706e-08
-1.23715e-07
1.14302e-07
-1.27306e-07
1.30928e-07
-1.30154e-07
1.47544e-07
-1.32277e-07
1.64054e-07
-1.33699e-07
1.80376e-07
-1.34455e-07
1.96435e-07
-1.34583e-07
2.12169e-07
-1.34128e-07
2.27524e-07
-1.33136e-07
2.42458e-07
-1.31657e-07
2.56934e-07
-1.29744e-07
2.70926e-07
-1.27445e-07
2.84416e-07
-1.24814e-07
2.97389e-07
-1.21897e-07
3.09839e-07
-1.18744e-07
3.21765e-07
-1.15397e-07
3.33171e-07
-1.11898e-07
3.44062e-07
-1.08286e-07
3.54449e-07
-1.04594e-07
3.64345e-07
-1.00854e-07
-9.70922e-08
-1.15401e-08
4.09259e-08
-2.28113e-08
3.88844e-08
-3.34028e-08
3.59075e-08
-4.30375e-08
3.17791e-08
-5.14587e-08
2.64012e-08
-5.84388e-08
1.98263e-08
-6.37838e-08
1.21513e-08
-6.73358e-08
3.49841e-09
-6.89786e-08
-5.98809e-09
-6.86372e-08
-1.61508e-08
-6.628e-08
-2.68194e-08
-6.19183e-08
-3.7817e-08
-5.56046e-08
-4.89649e-08
-4.74287e-08
-6.00884e-08
-3.7513e-08
-7.1021e-08
-2.6006e-08
-8.16094e-08
-1.30759e-08
-9.17169e-08
1.09761e-09
-1.01225e-07
1.63273e-08
-1.10033e-07
3.24256e-08
-1.18063e-07
4.92098e-08
-1.25259e-07
6.65061e-08
-1.31585e-07
8.41522e-08
-1.3702e-07
1.01999e-07
-1.41561e-07
1.19911e-07
-1.45218e-07
1.37769e-07
-1.48011e-07
1.55465e-07
-1.49973e-07
1.72909e-07
-1.51143e-07
1.90022e-07
-1.51568e-07
2.06737e-07
-1.51298e-07
2.23e-07
-1.50391e-07
2.38767e-07
-1.48903e-07
2.54004e-07
-1.46894e-07
2.68686e-07
-1.44425e-07
2.82794e-07
-1.41554e-07
2.96321e-07
-1.3834e-07
3.0926e-07
-1.34837e-07
3.21616e-07
-1.31099e-07
3.33393e-07
-1.27174e-07
3.44603e-07
-1.23108e-07
3.55259e-07
-1.18943e-07
3.65379e-07
-1.14714e-07
3.74981e-07
-1.10456e-07
-1.06196e-07
-1.54416e-08
5.63675e-08
-3.01962e-08
5.36389e-08
-4.38282e-08
4.95396e-08
-5.6043e-08
4.39939e-08
-6.65589e-08
3.6917e-08
-7.51257e-08
2.83932e-08
-8.15339e-08
1.85595e-08
-8.56205e-08
7.58502e-09
-8.72758e-08
-4.33274e-09
-8.64467e-08
-1.69799e-08
-8.31375e-08
-3.01286e-08
-7.74098e-08
-4.35446e-08
-6.93782e-08
-5.69965e-08
-5.92034e-08
-7.02631e-08
-4.70835e-08
-8.31409e-08
-3.32431e-08
-9.54498e-08
-1.7923e-08
-1.07037e-07
-1.36961e-09
-1.17779e-07
1.61732e-08
-1.27576e-07
3.4472e-08
-1.36362e-07
5.33094e-08
-1.44096e-07
7.24867e-08
-1.50762e-07
9.18261e-08
-1.56359e-07
1.11171e-07
-1.60906e-07
1.30386e-07
-1.64432e-07
1.49354e-07
-1.66979e-07
1.67977e-07
-1.68597e-07
1.86175e-07
-1.69341e-07
2.03882e-07
-1.69274e-07
2.21044e-07
-1.68461e-07
2.37622e-07
-1.66968e-07
2.53584e-07
-1.64865e-07
2.6891e-07
-1.62221e-07
2.83588e-07
-1.59103e-07
2.97612e-07
-1.55578e-07
3.10982e-07
-1.5171e-07
3.23705e-07
-1.4756e-07
3.35792e-07
-1.43186e-07
3.47259e-07
-1.3864e-07
3.58122e-07
-1.33972e-07
3.68404e-07
-1.29224e-07
3.78126e-07
-1.24436e-07
3.87312e-07
-1.19642e-07
-1.14872e-07
-1.97474e-08
7.61149e-08
-3.81882e-08
7.20797e-08
-5.4926e-08
6.62773e-08
-6.96717e-08
5.87395e-08
-8.2127e-08
4.93724e-08
-9.20213e-08
3.82875e-08
-9.91292e-08
2.56673e-08
-1.03285e-07
1.17406e-08
-1.04392e-07
-3.22554e-09
-1.02432e-07
-1.89396e-08
-9.74666e-08
-3.50942e-08
-8.96333e-08
-5.13779e-08
-7.91401e-08
-6.74897e-08
-6.6251e-08
-8.31522e-08
-5.127e-08
-9.8122e-08
-3.45232e-08
-1.12197e-07
-1.63424e-08
-1.25218e-07
2.94839e-09
-1.3707e-07
2.30452e-08
-1.47673e-07
4.36729e-08
-1.56989e-07
6.45876e-08
-1.65011e-07
8.55777e-08
-1.71752e-07
1.06464e-07
-1.77245e-07
1.27096e-07
-1.81538e-07
1.47351e-07
-1.84688e-07
1.67131e-07
-1.8676e-07
1.86359e-07
-1.87824e-07
2.04973e-07
-1.87956e-07
2.22929e-07
-1.87231e-07
2.40196e-07
-1.85727e-07
2.56752e-07
-1.83524e-07
2.72585e-07
-1.80698e-07
2.8769e-07
-1.77326e-07
3.0207e-07
-1.73483e-07
3.15732e-07
-1.6924e-07
3.28689e-07
-1.64667e-07
3.40958e-07
-1.59829e-07
3.52558e-07
-1.54786e-07
3.63511e-07
-1.49594e-07
3.73843e-07
-1.44304e-07
3.83581e-07
-1.38962e-07
3.92752e-07
-1.33607e-07
4.01384e-07
-1.28275e-07
-1.22994e-07
-2.42176e-08
1.00333e-07
-4.63143e-08
9.41764e-08
-6.59964e-08
8.59594e-08
-8.29986e-08
7.57418e-08
-9.70085e-08
6.33823e-08
-1.0773e-07
4.90095e-08
-1.14919e-07
3.28559e-08
-1.18406e-07
1.52273e-08
-1.18119e-07
-3.51183e-09
-1.14097e-07
-2.29618e-08
-1.0649e-07
-4.2701e-08
-9.55587e-08
-6.23097e-08
-8.16525e-08
-8.13959e-08
-6.51873e-08
-9.96174e-08
-4.66136e-08
-1.16696e-07
-2.63879e-08
-1.32422e-07
-4.94839e-09
-1.46657e-07
1.7301e-08
-1.59319e-07
4.00078e-08
-1.7038e-07
6.2872e-08
-1.79854e-07
8.56449e-08
-1.87784e-07
1.08126e-07
-1.94233e-07
1.30157e-07
-1.99276e-07
1.51617e-07
-2.02999e-07
1.72417e-07
-2.05488e-07
1.92493e-07
-2.06835e-07
2.11801e-07
-2.07132e-07
2.30313e-07
-2.06467e-07
2.48014e-07
-2.04932e-07
2.649e-07
-2.02613e-07
2.80973e-07
-1.99597e-07
2.96243e-07
-1.95968e-07
3.10724e-07
-1.91806e-07
3.24432e-07
-1.87191e-07
3.37389e-07
-1.82197e-07
3.49618e-07
-1.76896e-07
3.61145e-07
-1.71356e-07
3.71997e-07
-1.65638e-07
3.82203e-07
-1.598e-07
3.91792e-07
-1.53894e-07
4.00796e-07
-1.47966e-07
4.09245e-07
-1.42056e-07
4.17171e-07
-1.362e-07
-1.30426e-07
-2.84731e-08
1.28806e-07
-5.38459e-08
1.19549e-07
-7.59839e-08
1.08098e-07
-9.46532e-08
9.4411e-08
-1.09518e-07
7.82471e-08
-1.20243e-07
5.9735e-08
-1.26551e-07
3.91638e-08
-1.28268e-07
1.69441e-08
-1.25362e-07
-6.41852e-09
-1.17961e-07
-3.03621e-08
-1.06371e-07
-5.42913e-08
-9.10497e-08
-7.76309e-08
-7.25716e-08
-9.98741e-08
-5.15731e-08
-1.20616e-07
-2.86988e-08
-1.3957e-07
-4.55879e-09
-1.56562e-07
2.03041e-08
-1.7152e-07
4.5433e-08
-1.84448e-07
7.04608e-08
-1.95407e-07
9.51021e-08
-2.04495e-07
1.19144e-07
-2.11826e-07
1.42435e-07
-2.17524e-07
1.64873e-07
-2.21714e-07
1.86394e-07
-2.2452e-07
2.06967e-07
-2.2606e-07
2.26577e-07
-2.26446e-07
2.45228e-07
-2.25783e-07
2.62936e-07
-2.24175e-07
2.7972e-07
-2.21717e-07
2.95608e-07
-2.18501e-07
3.10627e-07
-2.14616e-07
3.24808e-07
-2.10149e-07
3.38182e-07
-2.0518e-07
3.50781e-07
-1.9979e-07
3.62636e-07
-1.94053e-07
3.73781e-07
-1.88041e-07
3.84246e-07
-1.81821e-07
3.94063e-07
-1.75456e-07
4.03266e-07
-1.69003e-07
4.11886e-07
-1.62514e-07
4.19955e-07
-1.56035e-07