/*--------------------------------*- C++ -*----------------------------------*\
  =========                 |
  \\      /  F ield         | OpenFOAM: The Open Source CFD Toolbox
   \\    /   O peration     | Website:  https://openfoam.org
    \\  /    A nd           | Version:  6
     \\/     M anipulation  |
\*---------------------------------------------------------------------------*/
FoamFile
{
    version     2.0;
    format      ascii;
    class       volVectorField;
    location    "0.02";
    object      U;
}
// * * * * * * * * * * * * * * * * * * * * * * * * * * * * * * * * * * * * * //

dimensions      [0 1 -1 0 0 0 0];

internalField   nonuniform List<vector> 
3032
(
(0.948894 -0.40481 0)
(1.0131 -0.189839 0)
(1.01586 -0.0511401 0)
(0.98585 -0.00529172 0)
(0.959834 0.00414227 0)
(0.944047 0.0037167 0)
(0.934921 0.00199495 0)
(0.929746 0.00083237 0)
(0.927224 0.000181625 0)
(0.926773 -0.000233941 0)
(0.92776 -0.000581445 0)
(0.930377 -0.000971436 0)
(0.935055 -0.00148912 0)
(0.942563 -0.00221648 0)
(0.95388 -0.0033903 0)
(0.971984 -0.00498238 0)
(0.999097 -0.0101462 0)
(1.05834 -0.0149113 0)
(1.0368 0.0760643 0)
(1.01999 0.0530665 0)
(1.01196 0.0189535 0)
(1.00601 0.00839919 0)
(1.00128 0.00587458 0)
(0.996761 0.00418416 0)
(0.992452 0.00269218 0)
(0.989309 0.00159435 0)
(0.987759 0.000750752 0)
(0.987709 -1.8165e-05 0)
(0.989372 -0.000837256 0)
(0.992865 -0.00184826 0)
(0.99852 -0.0032099 0)
(1.00695 -0.0051246 0)
(1.01902 -0.00802432 0)
(1.03678 -0.012675 0)
(1.0618 -0.0227153 0)
(1.09908 -0.0444829 0)
(0.998301 0.0128523 0)
(0.995584 0.0114488 0)
(1.0017 0.00577227 0)
(1.0039 0.00560692 0)
(1.00483 0.00571363 0)
(1.00512 0.00458683 0)
(1.00462 0.00308469 0)
(1.00422 0.00175666 0)
(1.00464 0.000593055 0)
(1.00611 -0.0005775 0)
(1.00888 -0.00191859 0)
(1.01324 -0.00360132 0)
(1.01958 -0.00584605 0)
(1.02847 -0.00896635 0)
(1.04062 -0.0135774 0)
(1.05732 -0.0208208 0)
(1.07898 -0.0341548 0)
(1.10621 -0.058359 0)
(0.995135 -0.00705715 0)
(0.992812 0.000865676 0)
(0.999608 0.00316669 0)
(1.00296 0.00469273 0)
(1.00539 0.00521092 0)
(1.00756 0.00433262 0)
(1.00904 0.00289379 0)
(1.01036 0.00144252 0)
(1.01217 1.93504e-05 0)
(1.01479 -0.0015253 0)
(1.01848 -0.0033738 0)
(1.02357 -0.00573596 0)
(1.03045 -0.00888897 0)
(1.03957 -0.0132307 0)
(1.05148 -0.0194784 0)
(1.06689 -0.0288698 0)
(1.08562 -0.0442353 0)
(1.1067 -0.0688119 0)
(0.996698 -0.00702246 0)
(0.994179 0.000337138 0)
(0.999136 0.00272806 0)
(1.00231 0.00388736 0)
(1.00524 0.00435453 0)
(1.00826 0.00361401 0)
(1.01083 0.00224188 0)
(1.01326 0.000702178 0)
(1.01606 -0.000953376 0)
(1.01954 -0.00286011 0)
(1.02396 -0.00521382 0)
(1.02963 -0.00825596 0)
(1.03686 -0.0123049 0)
(1.04602 -0.0178091 0)
(1.05746 -0.0255103 0)
(1.07145 -0.0365777 0)
(1.08749 -0.053167 0)
(1.10404 -0.0773956 0)
(0.997851 -0.00429186 0)
(0.995537 0.000618093 0)
(0.999011 0.00216655 0)
(1.0019 0.00295311 0)
(1.00497 0.00328991 0)
(1.00833 0.00258937 0)
(1.01149 0.00123539 0)
(1.01462 -0.00040622 0)
(1.01809 -0.00229577 0)
(1.02219 -0.00456449 0)
(1.02715 -0.00741879 0)
(1.03321 -0.0111227 0)
(1.04062 -0.0160183 0)
(1.04963 -0.0225704 0)
(1.0604 -0.0314829 0)
(1.07292 -0.0437681 0)
(1.08648 -0.0609799 0)
(1.09951 -0.0844347 0)
(0.998477 -0.00278256 0)
(0.996617 0.00033675 0)
(0.999139 0.00142204 0)
(1.00174 0.00196979 0)
(1.00474 0.00212359 0)
(1.00818 0.00137356 0)
(1.01162 -2.70662e-05 0)
(1.01515 -0.00180776 0)
(1.01906 -0.00395182 0)
(1.02356 -0.00659313 0)
(1.02885 -0.00994562 0)
(1.03512 -0.014285 0)
(1.04253 -0.0199592 0)
(1.05121 -0.027419 0)
(1.06116 -0.0372893 0)
(1.07218 -0.0503869 0)
(1.0835 -0.0677702 0)
(1.09372 -0.0901863 0)
(0.998914 -0.00201079 0)
(0.997544 -4.80951e-05 0)
(0.999444 0.000709094 0)
(1.00176 0.00100162 0)
(1.00461 0.000912837 0)
(1.00796 3.75251e-05 0)
(1.01148 -0.00147375 0)
(1.01521 -0.00343765 0)
(1.01935 -0.005864 0)
(1.02406 -0.00889196 0)
(1.0295 -0.0127382 0)
(1.03579 -0.0176786 0)
(1.04302 -0.0240494 0)
(1.0512 -0.0322631 0)
(1.06023 -0.0428426 0)
(1.06977 -0.056404 0)
(1.07908 -0.0736187 0)
(1.08702 -0.0948472 0)
(0.999266 -0.00147203 0)
(0.998339 -0.000344008 0)
(0.999826 6.72158e-05 0)
(1.00189 6.13729e-05 0)
(1.00453 -0.000311799 0)
(1.00772 -0.00137206 0)
(1.0112 -0.00305088 0)
(1.01497 -0.00524023 0)
(1.01917 -0.0079758 0)
(1.02393 -0.0114013 0)
(1.02935 -0.0157299 0)
(1.0355 -0.0212261 0)
(1.04237 -0.0281995 0)
(1.04992 -0.0370071 0)
(1.05794 -0.0480606 0)
(1.06606 -0.0617914 0)
(1.07358 -0.078583 0)
(1.07961 -0.0985449 0)
(0.999535 -0.00106709 0)
(0.998987 -0.000583779 0)
(1.00021 -0.000531074 0)
(1.00206 -0.000852904 0)
(1.0045 -0.0015315 0)
(1.00748 -0.00282054 0)
(1.01082 -0.00471315 0)
(1.01451 -0.00716308 0)
(1.01865 -0.0102284 0)
(1.02331 -0.014054 0)
(1.02856 -0.018843 0)
(1.03439 -0.024838 0)
(1.04078 -0.0323102 0)
(1.04758 -0.0415509 0)
(1.05455 -0.052863 0)
(1.0613 -0.0665203 0)
(1.06723 -0.0827016 0)
(1.07167 -0.101362 0)
(0.999725 -0.000801149 0)
(0.999485 -0.000820398 0)
(1.00054 -0.00111266 0)
(1.00222 -0.0017481 0)
(1.00445 -0.00273806 0)
(1.00721 -0.00428498 0)
(1.01036 -0.00642524 0)
(1.01389 -0.00916067 0)
(1.01785 -0.0125664 0)
(1.02229 -0.0167841 0)
(1.02722 -0.0219998 0)
(1.03262 -0.028426 0)
(1.03838 -0.0362871 0)
(1.04435 -0.0458055 0)
(1.05025 -0.0571848 0)
(1.05571 -0.0705725 0)
(1.06023 -0.0860088 0)
(1.06332 -0.103362 0)
(0.999841 -0.000664724 0)
(0.999813 -0.00105107 0)
(1.00077 -0.00164018 0)
(1.00232 -0.00255238 0)
(1.00437 -0.00382257 0)
(1.00691 -0.00561908 0)
(1.00985 -0.00800406 0)
(1.01315 -0.0110117 0)
(1.01687 -0.0147273 0)
(1.021 -0.0192848 0)
(1.02555 -0.0248493 0)
(1.03044 -0.0316003 0)
(1.03556 -0.0397156 0)
(1.04071 -0.0493564 0)
(1.04563 -0.0606478 0)
(1.04999 -0.0736496 0)
(1.05336 -0.0883198 0)
(1.05539 -0.104484 0)
(0.99992 -0.000608716 0)
(1.00005 -0.00129788 0)
(1.00094 -0.00216372 0)
(1.00236 -0.00333839 0)
(1.00424 -0.00487655 0)
(1.00656 -0.00692237 0)
(1.00925 -0.00955459 0)
(1.01229 -0.0128306 0)
(1.0157 -0.0168408 0)
(1.01946 -0.0217079 0)
(1.02355 -0.0275728 0)
(1.02786 -0.0345791 0)
(1.03228 -0.0428587 0)
(1.0366 -0.0525159 0)
(1.04057 -0.0636106 0)
(1.0439 -0.0761364 0)
(1.04624 -0.0900001 0)
(1.04735 -0.10501 0)
(0.999975 -0.000611583 0)
(1.00021 -0.00159811 0)
(1.00103 -0.00275177 0)
(1.00231 -0.00420563 0)
(1.00399 -0.00603063 0)
(1.00604 -0.00835154 0)
(1.00843 -0.0112586 0)
(1.01112 -0.0148255 0)
(1.0141 -0.0191422 0)
(1.01737 -0.0243145 0)
(1.02085 -0.0304527 0)
(1.02444 -0.0376591 0)
(1.02802 -0.0460151 0)
(1.03138 -0.0555688 0)
(1.0343 -0.0663223 0)
(1.03654 -0.0782176 0)
(1.03784 -0.0911297 0)
(1.03803 -0.104871 0)
(1.00001 -0.000670929 0)
(1.00029 -0.00195395 0)
(1.00102 -0.00340116 0)
(1.00214 -0.00514085 0)
(1.00358 -0.00725771 0)
(1.00531 -0.00986307 0)
(1.00731 -0.0130531 0)
(1.00954 -0.0169098 0)
(1.01199 -0.0215161 0)
(1.01461 -0.0269554 0)
(1.01734 -0.0333021 0)
(1.02006 -0.0406137 0)
(1.02265 -0.0489212 0)
(1.02494 -0.0582213 0)
(1.02674 -0.0684692 0)
(1.02786 -0.079573 0)
(1.02812 -0.0913946 0)
(1.02742 -0.103765 0)
(1.00002 -0.00077104 0)
(1.00029 -0.00234435 0)
(1.0009 -0.00407972 0)
(1.0018 -0.00609574 0)
(1.00295 -0.00848695 0)
(1.00429 -0.0113575 0)
(1.00582 -0.0148042 0)
(1.00748 -0.0189092 0)
(1.00926 -0.0237429 0)
(1.0111 -0.0293615 0)
(1.01293 -0.035802 0)
(1.01465 -0.0430774 0)
(1.01615 -0.0511729 0)
(1.01728 -0.0600434 0)
(1.01792 -0.0696119 0)
(1.01792 -0.0797696 0)
(1.01717 -0.0903816 0)
(1.01561 -0.101305 0)
(1.00002 -0.000886526 0)
(1.00023 -0.00272507 0)
(1.00067 -0.00471879 0)
(1.0013 -0.00697401 0)
(1.00208 -0.00958842 0)
(1.00296 -0.0126621 0)
(1.00391 -0.0162884 0)
(1.00491 -0.0205436 0)
(1.0059 -0.0254821 0)
(1.00684 -0.0311326 0)
(1.00767 -0.0374968 0)
(1.0083 -0.0445491 0)
(1.00864 -0.0522383 0)
(1.00861 -0.06049 0)
(1.00809 -0.0692096 0)
(1.00701 -0.0782858 0)
(1.00531 -0.0875976 0)
(1.00296 -0.0970309 0)
(1.00001 -0.000982927 0)
(1.00013 -0.00302155 0)
(1.00035 -0.00520173 0)
(1.00065 -0.00761428 0)
(1.00099 -0.0103516 0)
(1.00134 -0.0135085 0)
(1.00165 -0.0171729 0)
(1.0019 -0.0214125 0)
(1.00203 -0.0262664 0)
(1.00202 -0.0317403 0)
(1.00181 -0.037808 0)
(1.00135 -0.0444153 0)
(1.00057 -0.0514863 0)
(0.99942 -0.0589298 0)
(0.997843 -0.0666456 0)
(0.995791 -0.0745294 0)
(0.993239 -0.0824788 0)
(0.990184 -0.0904071 0)
(0.999999 -0.00101783 0)
(0.99998 -0.00312685 0)
(0.999947 -0.00536018 0)
(0.999889 -0.00778374 0)
(0.999772 -0.0104759 0)
(0.999561 -0.0135242 0)
(0.99922 -0.0170107 0)
(0.998717 -0.0209971 0)
(0.998024 -0.0255131 0)
(0.997111 -0.0305509 0)
(0.99595 -0.0360669 0)
(0.994509 -0.0419896 0)
(0.992755 -0.0482295 0)
(0.990658 -0.0546885 0)
(0.988193 -0.0612683 0)
(0.985339 -0.0678757 0)
(0.982094 -0.0744275 0)
(0.978462 -0.0808602 0)
(0.999983 -0.000958013 0)
(0.999823 -0.00297254 0)
(0.99957 -0.00511118 0)
(0.999238 -0.00739792 0)
(0.998799 -0.0098948 0)
(0.998214 -0.0126822 0)
(0.99745 -0.0158369 0)
(0.996475 -0.0194199 0)
(0.995264 -0.0234609 0)
(0.993798 -0.0279483 0)
(0.992059 -0.0328312 0)
(0.990028 -0.0380298 0)
(0.987687 -0.0434482 0)
(0.985019 -0.048987 0)
(0.982012 -0.0545522 0)
(0.978658 -0.060061 0)
(0.974964 -0.0654455 0)
(0.970939 -0.0706585 0)
(0.999955 -0.00081183 0)
(0.999615 -0.00266877 0)
(0.999177 -0.00470132 0)
(0.998682 -0.00684737 0)
(0.99808 -0.00915702 0)
(0.997326 -0.0117011 0)
(0.996375 -0.0145475 0)
(0.995184 -0.0177605 0)
(0.993724 -0.0213761 0)
(0.99198 -0.0253834 0)
(0.989938 -0.0297279 0)
(0.987586 -0.0343241 0)
(0.98491 -0.0390726 0)
(0.981901 -0.0438735 0)
(0.978551 -0.0486374 0)
(0.974861 -0.0532906 0)
(0.970845 -0.0577773 0)
(0.966516 -0.062063 0)
(0.999883 -0.000535831 0)
(0.999241 -0.0022275 0)
(0.998635 -0.00420675 0)
(0.99808 -0.00625218 0)
(0.997454 -0.00841753 0)
(0.996693 -0.0107499 0)
(0.995726 -0.0133015 0)
(0.994482 -0.0161498 0)
(0.99292 -0.0193462 0)
(0.991025 -0.0228851 0)
(0.988789 -0.0267105 0)
(0.986203 -0.0307339 0)
(0.983258 -0.0348536 0)
(0.979949 -0.0389715 0)
(0.976277 -0.043004 0)
(0.972251 -0.0468877 0)
(0.96789 -0.050579 0)
(0.963219 -0.054055 0)
(0.999733 -8.41748e-05 0)
(0.998593 -0.001703 0)
(0.997873 -0.00372733 0)
(0.997402 -0.00573536 0)
(0.996906 -0.00782789 0)
(0.996301 -0.00998959 0)
(0.995462 -0.0122521 0)
(0.994268 -0.0147278 0)
(0.992672 -0.0174961 0)
(0.990668 -0.0205609 0)
(0.988252 -0.0238669 0)
(0.985421 -0.0273245 0)
(0.982175 -0.0308318 0)
(0.978518 -0.0342943 0)
(0.974461 -0.0376366 0)
(0.970025 -0.0408061 0)
(0.965241 -0.0437722 0)
(0.960146 -0.0465223 0)
(0.999484 0.00065539 0)
(0.997568 -0.00120092 0)
(0.99689 -0.00340537 0)
(0.996704 -0.00541894 0)
(0.996501 -0.00749822 0)
(0.996198 -0.0095027 0)
(0.995579 -0.0114489 0)
(0.994464 -0.0135167 0)
(0.992818 -0.0158258 0)
(0.990655 -0.0183913 0)
(0.987987 -0.0211602 0)
(0.984821 -0.0240431 0)
(0.981171 -0.0269404 0)
(0.977054 -0.0297633 0)
(0.972499 -0.032446 0)
(0.967542 -0.0349483 0)
(0.962229 -0.0372513 0)
(0.956614 -0.0393517 0)
(0.998961 0.00231536 0)
(0.995947 -0.000547376 0)
(0.995765 -0.00329155 0)
(0.996166 -0.00539643 0)
(0.996399 -0.00749283 0)
(0.996483 -0.00929712 0)
(0.996078 -0.010856 0)
(0.994959 -0.0124542 0)
(0.993138 -0.0142575 0)
(0.990673 -0.0162894 0)
(0.987598 -0.0184982 0)
(0.983938 -0.0207958 0)
(0.979725 -0.0230863 0)
(0.974999 -0.0252886 0)
(0.969807 -0.0273478 0)
(0.964206 -0.0292352 0)
(0.95826 -0.0309425 0)
(0.952037 -0.0324734 0)
(0.997454 0.00597985 0)
(0.993201 0.000974245 0)
(0.994562 -0.00304551 0)
(0.996052 -0.00559243 0)
(0.99683 -0.0077724 0)
(0.997252 -0.00928229 0)
(0.996887 -0.0103475 0)
(0.995515 -0.0114025 0)
(0.993254 -0.0126538 0)
(0.990233 -0.0141255 0)
(0.986515 -0.0157626 0)
(0.982146 -0.0174777 0)
(0.97718 -0.0191795 0)
(0.971678 -0.0207959 0)
(0.965711 -0.0222824 0)
(0.959354 -0.0236207 0)
(0.952687 -0.0248104 0)
(0.945793 -0.0258597 0)
(0.994458 0.00850442 0)
(0.989259 0.00194391 0)
(0.993447 -0.00263241 0)
(0.996602 -0.00583936 0)
(0.997988 -0.00816159 0)
(0.998484 -0.00924288 0)
(0.997695 -0.00969875 0)
(0.995565 -0.0101538 0)
(0.992413 -0.0108358 0)
(0.988458 -0.011752 0)
(0.983787 -0.0128365 0)
(0.978456 -0.0139998 0)
(0.972532 -0.0151562 0)
(0.966094 -0.0162431 0)
(0.95923 -0.0172264 0)
(0.952031 -0.0180955 0)
(0.944585 -0.0188553 0)
(0.936985 -0.019515 0)
(0.994518 -0.00649511 0)
(0.989296 -0.00856531 0)
(0.994861 -0.00567566 0)
(0.998674 -0.00691896 0)
(1.00007 -0.00861746 0)
(0.999741 -0.00894267 0)
(0.997461 -0.00866776 0)
(0.993633 -0.00852136 0)
(0.988873 -0.00868537 0)
(0.983467 -0.00911224 0)
(0.977467 -0.00971059 0)
(0.970897 -0.0103889 0)
(0.963812 -0.0110709 0)
(0.956294 -0.0117057 0)
(0.948436 -0.0122692 0)
(0.940337 -0.012757 0)
(0.932088 -0.0131767 0)
(0.923773 -0.0135332 0)
(1.02639 -0.0702198 0)
(1.01681 -0.0624168 0)
(1.01123 -0.0293703 0)
(1.00727 -0.0152554 0)
(1.00361 -0.0109633 0)
(0.998628 -0.00877019 0)
(0.991986 -0.0072978 0)
(0.98456 -0.00654 0)
(0.977029 -0.00631952 0)
(0.969448 -0.0064023 0)
(0.961638 -0.00663208 0)
(0.95349 -0.00691877 0)
(0.945004 -0.00720774 0)
(0.936241 -0.0074685 0)
(0.927286 -0.00768975 0)
(0.918233 -0.00787431 0)
(0.909169 -0.00803128 0)
(0.900163 -0.0081892 0)
(0.966245 0.349838 0)
(1.02672 0.193623 0)
(1.03191 0.0674355 0)
(1.00284 0.0148773 0)
(0.973326 -0.00166651 0)
(0.951562 -0.00482786 0)
(0.935314 -0.00433503 0)
(0.922089 -0.00350595 0)
(0.910485 -0.00305164 0)
(0.899633 -0.00290896 0)
(0.889027 -0.00292002 0)
(0.878468 -0.00298695 0)
(0.867942 -0.00306471 0)
(0.857501 -0.00313538 0)
(0.847203 -0.00319383 0)
(0.837097 -0.00324288 0)
(0.827204 -0.00328483 0)
(0.817569 -0.00336739 0)
(-0.00712885 0.0126471 9.98997e-22)
(-0.0145819 0.00951745 -9.04028e-22)
(-0.0197555 0.00578977 0)
(-0.0236122 0.00237779 0)
(-0.0255605 -0.000304146 0)
(-0.0260292 -0.00233361 8.56827e-22)
(-0.0253513 -0.00387062 0)
(-0.0237305 -0.00505466 0)
(-0.0213183 -0.00599062 0)
(-0.0182268 -0.00675357 0)
(-0.0145334 -0.00739619 -1.04422e-21)
(-0.0102889 -0.00795481 0)
(-0.00552562 -0.00845417 0)
(-0.000261517 -0.00891094 0)
(0.00548883 -0.0093368 0)
(0.0117137 -0.00973862 -1.32017e-21)
(0.0184025 -0.0101192 0)
(0.0255439 -0.0104785 0)
(0.0331247 -0.0108151 0)
(0.0411289 -0.0111261 0)
(0.0495372 -0.0114084 0)
(0.0583264 -0.0116586 0)
(0.06747 -0.0118737 0)
(0.0769381 -0.0120507 -1.74034e-21)
(0.0866976 -0.0121875 1.78494e-21)
(0.0967127 -0.0122825 -1.82672e-21)
(0.106946 -0.0123347 -1.86551e-21)
(0.117357 -0.012344 0)
(0.127907 -0.0123109 0)
(0.138555 -0.0122366 1.96284e-21)
(0.14926 -0.0121227 1.98881e-21)
(0.159984 -0.0119716 0)
(0.170689 -0.0117859 0)
(0.181338 -0.0115687 2.0478e-21)
(0.191898 -0.0113231 0)
(0.202337 -0.0110525 0)
(0.212627 -0.0107603 -2.08065e-21)
(0.22274 -0.01045 0)
(0.232654 -0.010125 -2.08998e-21)
(0.242349 -0.0097883 -4.18272e-21)
(0.251808 -0.00944312 0)
(0.261015 -0.00909227 0)
(0.269959 -0.00873841 0)
(0.278631 -0.00838397 0)
(-0.00241377 0.0278935 -2.67516e-21)
(-0.00552637 0.019684 2.06181e-21)
(-0.00723295 0.0133852 0)
(-0.00857293 0.00811002 -1.01087e-21)
(-0.00938064 0.00370278 0)
(-0.00964722 5.48705e-05 -4.79109e-22)
(-0.0093377 -0.00297009 9.0761e-22)
(-0.00842916 -0.00551031 9.10686e-22)
(-0.00691479 -0.00768758 0)
(-0.00479416 -0.00960034 9.4876e-22)
(-0.00206869 -0.011323 5.18085e-22)
(0.00125787 -0.0129088 0)
(0.0051794 -0.0143938 0)
(0.00968849 -0.0158009 0)
(0.0147777 -0.0171433 0)
(0.0204393 -0.0184269 6.37922e-22)
(0.0266624 -0.0196521 0)
(0.0334329 -0.0208157 -1.31688e-21)
(0.0407324 -0.0219116 0)
(0.0485389 -0.0229325 0)
(0.0568261 -0.0238705 1.50254e-21)
(0.0655643 -0.0247177 0)
(0.0747199 -0.0254669 -1.62954e-21)
(0.0842563 -0.0261122 8.89219e-22)
(0.0941341 -0.0266486 -9.20484e-22)
(0.104312 -0.0270731 9.51015e-22)
(0.114746 -0.0273839 9.80644e-22)
(0.125393 -0.0275813 0)
(0.136208 -0.0276667 0)
(0.147147 -0.0276434 -1.06273e-21)
(0.158165 -0.0275159 1.00563e-21)
(0.169222 -0.0272898 0)
(0.180275 -0.0269717 0)
(0.191286 -0.0265691 -1.15277e-21)
(0.20222 -0.02609 0)
(0.213043 -0.0255426 0)
(0.223723 -0.0249355 1.20429e-21)
(0.234234 -0.0242771 0)
(0.24455 -0.0235758 -1.1653e-21)
(0.254649 -0.0228397 2.48476e-21)
(0.264514 -0.0220764 0)
(0.274128 -0.0212931 0)
(0.283479 -0.0204966 4.96076e-21)
(0.292555 -0.019693 4.99039e-21)
(0.0014114 0.0301351 1.42066e-22)
(4.3403e-05 0.0209202 -2.35674e-21)
(-0.000453497 0.0141913 0)
(-0.000804901 0.0086543 1.58251e-21)
(-0.00107008 0.00388632 0)
(-0.0011559 -0.000307922 0)
(-0.000941455 -0.00405779 -4.329e-23)
(-0.000329588 -0.00746028 -6.68916e-22)
(0.00075159 -0.0105942 -6.26036e-22)
(0.00235556 -0.0135233 -6.78468e-22)
(0.00452184 -0.0162968 0)
(0.00727875 -0.01895 0)
(0.0106454 -0.021506 6.91769e-22)
(0.0146332 -0.0239768 1.43972e-21)
(0.0192468 -0.0263654 -1.50291e-21)
(0.024485 -0.0286681 0)
(0.0303406 -0.0308765 -1.64689e-21)
(0.0368005 -0.0329789 9.14612e-22)
(0.0438459 -0.0349614 0)
(0.0514528 -0.0368095 -1.89563e-21)
(0.0595921 -0.038509 -1.04487e-21)
(0.0682301 -0.0400463 2.07526e-21)
(0.0773292 -0.0414097 1.13635e-21)
(0.0868483 -0.0425895 0)
(0.0967432 -0.0435786 -2.35257e-21)
(0.106968 -0.0443725 -2.44474e-21)
(0.117475 -0.0449693 0)
(0.128215 -0.04537 -2.62547e-21)
(0.139141 -0.0455783 0)
(0.150204 -0.0456 -2.79835e-21)
(0.161357 -0.0454434 -1.48901e-21)
(0.172556 -0.0451184 0)
(0.183757 -0.0446366 0)
(0.194919 -0.0440106 0)
(0.206005 -0.0432541 0)
(0.21698 -0.0423812 0)
(0.227811 -0.0414061 0)
(0.238471 -0.0403431 -3.36231e-21)
(0.248934 -0.0392062 5.16321e-21)
(0.259177 -0.0380088 0)
(0.269182 -0.0367639 0)
(0.278933 -0.0354835 0)
(0.288417 -0.0341787 -6.83532e-23)
(0.297623 -0.0328598 -3.69255e-21)
(0.00258204 0.0279457 4.21326e-21)
(0.0021072 0.0201167 2.94686e-21)
(0.00216514 0.0141018 1.43072e-21)
(0.00225042 0.00885882 5.27107e-22)
(0.00224684 0.00402696 0)
(0.00226223 -0.000522514 -1.0144e-21)
(0.00244446 -0.00485835 4.31952e-22)
(0.00291643 -0.00902794 0)
(0.00377515 -0.013068 5.26131e-22)
(0.00509911 -0.0170067 0)
(0.00695169 -0.0208632 -9.86649e-22)
(0.00938266 -0.0246479 0)
(0.0124294 -0.0283622 -5.7077e-22)
(0.016118 -0.032 -1.18462e-21)
(0.0204645 -0.0355483 1.23386e-21)
(0.0254754 -0.0389891 0)
(0.0311484 -0.0423009 1.34788e-21)
(0.0374728 -0.0454598 0)
(0.0444305 -0.0484413 0)
(0.0519961 -0.0512211 1.54827e-21)
(0.0601382 -0.0537767 0)
(0.0688194 -0.0560878 -7.04466e-23)
(0.0779977 -0.058137 0)
(0.0876272 -0.0599109 0)
(0.0976588 -0.0613997 6.55547e-23)
(0.108041 -0.062598 2.00039e-21)
(0.118722 -0.0635044 2.01422e-21)
(0.129647 -0.0641216 2.15186e-21)
(0.140765 -0.0644559 0)
(0.152022 -0.0645173 4.53849e-21)
(0.163369 -0.0643187 0)
(0.174758 -0.0638755 2.38174e-21)
(0.186142 -0.0632052 0)
(0.197479 -0.0623269 0)
(0.20873 -0.0612608 -2.5747e-21)
(0.219859 -0.0600276 0)
(0.230833 -0.0586484 2.68872e-21)
(0.241623 -0.0571438 4.64631e-23)
(0.252205 -0.0555342 -5.62574e-21)
(0.262555 -0.0538389 5.67279e-21)
(0.272657 -0.0520764 0)
(0.282494 -0.0502638 0)
(0.292053 -0.0484171 2.91636e-21)
(0.301326 -0.0465509 0)
(0.00239186 0.0247702 -2.65412e-21)
(0.00204442 0.0183985 -1.81263e-21)
(0.00211624 0.0133553 -1.35385e-21)
(0.00216925 0.00864843 -1.12752e-21)
(0.00209886 0.00398885 0)
(0.00200726 -0.000694467 1.7023e-21)
(0.00204233 -0.00542433 -1.37879e-22)
(0.00233346 -0.0102078 0)
(0.00298842 -0.0150435 0)
(0.00409859 -0.019924 0)
(0.00574075 -0.0248357 8.80153e-22)
(0.00797744 -0.0297586 0)
(0.0108573 -0.0346671 0)
(0.0144159 -0.0395303 0)
(0.0186759 -0.0443129 0)
(0.0236485 -0.0489766 0)
(0.0293336 -0.0534818 -1.04329e-21)
(0.0357208 -0.0577881 -1.10355e-21)
(0.0427901 -0.0618567 0)
(0.0505131 -0.065651 0)
(0.0588539 -0.0691379 1.30074e-21)
(0.0677697 -0.0722888 -2.79941e-21)
(0.0772128 -0.07508 0)
(0.0871307 -0.0774936 -1.51266e-21)
(0.0974681 -0.0795175 1.63469e-21)
(0.108167 -0.0811455 0)
(0.11917 -0.0823772 -5.22763e-21)
(0.130417 -0.0832178 3.59554e-21)
(0.14185 -0.0836776 -3.73388e-21)
(0.153413 -0.0837713 -1.97408e-21)
(0.165052 -0.0835178 0)
(0.176716 -0.0829389 -6.22963e-21)
(0.188356 -0.0820593 0)
(0.199928 -0.0809054 0)
(0.211392 -0.0795049 2.27467e-21)
(0.222711 -0.0778861 -4.59296e-21)
(0.233853 -0.0760773 -7.07411e-21)
(0.244788 -0.0741064 7.21929e-21)
(0.255494 -0.0720003 2.47101e-21)
(0.265948 -0.0697847 -5.02664e-21)
(0.276133 -0.0674838 0)
(0.286037 -0.0651204 0)
(0.295647 -0.062715 -5.05837e-23)
(0.304957 -0.0602866 0)
(0.00153926 0.02269 0)
(0.000746756 0.0174459 1.04795e-21)
(0.000317909 0.0132255 0)
(-0.000142499 0.00898458 0)
(-0.000675748 0.00446818 0)
(-0.00117825 -0.000361094 -1.8447e-22)
(-0.00151116 -0.00549487 -1.66969e-22)
(-0.00154757 -0.0109091 5.34389e-22)
(-0.00117675 -0.0165706 0)
(-0.000302026 -0.0224391 0)
(0.00115929 -0.0284684 0)
(0.00327537 -0.0346075 0)
(0.00609946 -0.0408004 0)
(0.00967012 -0.0469879 1.43612e-21)
(0.0140115 -0.0531086 0)
(0.019134 -0.0590999 -1.64399e-21)
(0.0250348 -0.0649 9.59307e-22)
(0.0316993 -0.0704493 1.014e-21)
(0.0391016 -0.0756916 0)
(0.0472063 -0.080576 0)
(0.0559693 -0.0850575 -1.19343e-21)
(0.0653399 -0.0890982 1.25691e-21)
(0.0752611 -0.092668 0)
(0.0856722 -0.0957445 1.38688e-21)
(0.0965093 -0.0983138 -2.81977e-21)
(0.107707 -0.10037 0)
(0.119199 -0.101915 3.16716e-21)
(0.130921 -0.102957 -3.29639e-21)
(0.142809 -0.103512 3.42362e-21)
(0.154802 -0.103602 0)
(0.166842 -0.103252 0)
(0.178874 -0.102492 3.788e-21)
(0.19085 -0.101356 0)
(0.202723 -0.0998777 0)
(0.214452 -0.098094 -4.07474e-21)
(0.226001 -0.0960417 8.39594e-21)
(0.237339 -0.0937571 4.31435e-21)
(0.248438 -0.0912759 -8.77276e-21)
(0.259275 -0.0886321 4.45466e-21)
(0.269832 -0.0858583 0)
(0.280094 -0.0829848 0)
(0.290049 -0.0800395 0)
(0.299689 -0.077048 -4.78438e-21)
(0.309009 -0.0740335 0)
(0.000307212 0.0230089 0)
(-0.0013561 0.0185084 -1.02626e-21)
(-0.00273279 0.0148098 0)
(-0.00415795 0.0108019 -6.73431e-22)
(-0.00555972 0.00623514 -6.17628e-22)
(-0.00681175 0.00108709 8.40778e-23)
(-0.00778029 -0.0046142 1.12086e-22)
(-0.00834158 -0.0108205 1.46406e-22)
(-0.0083843 -0.0174703 7.05739e-22)
(-0.00781033 -0.0244924 0)
(-0.00653625 -0.0318084 0)
(-0.00449378 -0.0393337 -9.33807e-22)
(-0.00163131 -0.04698 0)
(0.00208625 -0.0546567 -2.49166e-21)
(0.00667781 -0.0622726 0)
(0.0121465 -0.0697375 1.55279e-21)
(0.0184807 -0.0769646 0)
(0.0256551 -0.0838724 0)
(0.0336325 -0.0903859 -1.74586e-21)
(0.0423648 -0.0964384 0)
(0.0517955 -0.101973 -2.01855e-21)
(0.0618608 -0.106942 0)
(0.0724919 -0.11131 0)
(0.0836163 -0.115052 0)
(0.0951593 -0.118153 7.79592e-23)
(0.107046 -0.120609 0)
(0.119202 -0.122426 0)
(0.131556 -0.12362 0)
(0.144037 -0.124212 0)
(0.156581 -0.124232 0)
(0.169125 -0.123716 0)
(0.181615 -0.122703 3.47954e-21)
(0.193997 -0.121237 0)
(0.206228 -0.119362 -3.70267e-21)
(0.218266 -0.117124 2.81504e-23)
(0.230077 -0.11457 -3.93249e-21)
(0.241631 -0.111745 0)
(0.252902 -0.108693 4.11287e-21)
(0.263872 -0.105456 -4.19576e-21)
(0.274525 -0.102072 0)
(0.284848 -0.0985802 0)
(0.294834 -0.0950122 0)
(0.304478 -0.0913988 0)
(0.313777 -0.0877672 0)
(-0.00122839 0.026586 -1.5486e-22)
(-0.00410753 0.0225589 0)
(-0.00682456 0.0190572 0)
(-0.009624 0.0149745 6.44766e-22)
(-0.0122755 0.0100547 5.94543e-22)
(-0.0146045 0.00428507 -5.07807e-22)
(-0.0164728 -0.00228604 -5.94486e-22)
(-0.0177562 -0.00958577 -4.21327e-22)
(-0.018342 -0.0175228 -6.76286e-22)
(-0.0181319 -0.0259925 0)
(-0.0170449 -0.0348807 0)
(-0.0150184 -0.0440664 8.9572e-22)
(-0.0120085 -0.0534254 0)
(-0.00799087 -0.0628323 1.09025e-21)
(-0.00295869 -0.0721619 0)
(0.0030764 -0.081294 0)
(0.0100863 -0.0901142 0)
(0.0180279 -0.0985172 0)
(0.0268452 -0.106408 1.6767e-21)
(0.0364714 -0.113706 0)
(0.0468315 -0.120341 1.93696e-21)
(0.0578444 -0.12626 0)
(0.0694247 -0.131423 0)
(0.0814855 -0.135803 2.24956e-21)
(0.0939392 -0.13939 2.46806e-21)
(0.1067 -0.142184 2.5337e-21)
(0.119684 -0.144199 2.67164e-21)
(0.132812 -0.145458 0)
(0.14601 -0.145993 2.93699e-21)
(0.159208 -0.145847 3.06365e-21)
(0.172342 -0.145064 3.18588e-21)
(0.185354 -0.143698 -3.33032e-21)
(0.198196 -0.141802 0)
(0.21082 -0.139433 3.54407e-21)
(0.223191 -0.136649 1.78414e-23)
(0.235274 -0.133505 -3.72366e-21)
(0.247045 -0.130058 -3.81578e-21)
(0.258481 -0.126359 0)
(0.269567 -0.12246 3.98442e-21)
(0.280292 -0.118405 0)
(0.290648 -0.114239 0)
(0.300632 -0.11 -8.39903e-21)
(0.310242 -0.105722 -8.52319e-21)
(0.319481 -0.101438 0)
(-0.00308144 0.0342398 1.52957e-22)
(-0.00749928 0.0304538 -1.17391e-21)
(-0.0119136 0.0268233 0)
(-0.0164557 0.0222981 4.84954e-24)
(-0.0206935 0.0166252 0)
(-0.0243821 0.00981198 -5.86885e-22)
(-0.0273699 0.00193577 4.03018e-22)
(-0.0295284 -0.00689669 -1.99286e-22)
(-0.0307419 -0.0165568 0)
(-0.0309137 -0.0268992 4.52046e-23)
(-0.0299682 -0.0377671 0)
(-0.0278529 -0.0489968 0)
(-0.0245385 -0.0604219 0)
(-0.0200184 -0.0718765 -5.12646e-22)
(-0.0143083 -0.0831997 0)
(-0.00744372 -0.0942381 0)
(0.000522594 -0.104847 9.82542e-22)
(0.00952107 -0.114896 0)
(0.0194691 -0.124273 0)
(0.0302737 -0.132881 -1.46531e-21)
(0.0418354 -0.140644 0)
(0.0540506 -0.147504 -1.78482e-21)
(0.0668141 -0.153422 0)
(0.0800216 -0.158376 -4.27992e-21)
(0.0935714 -0.162362 2.24663e-21)
(0.107366 -0.165391 -6.41101e-23)
(0.121313 -0.167486 -5.39995e-23)
(0.135327 -0.168685 -2.67515e-21)
(0.149328 -0.169034 -2.84629e-21)
(0.163246 -0.168587 -5.90603e-21)
(0.177016 -0.167406 -2.51235e-23)
(0.190583 -0.165556 0)
(0.203896 -0.163105 0)
(0.216916 -0.160124 -6.79977e-21)
(0.229608 -0.15668 3.5125e-21)
(0.241944 -0.152843 3.60698e-21)
(0.253903 -0.148677 3.69652e-21)
(0.265469 -0.144244 0)
(0.276631 -0.139603 -1.15717e-20)
(0.287384 -0.134808 7.86141e-21)
(0.297725 -0.129906 8.00177e-21)
(0.307655 -0.124942 8.14147e-21)
(0.317179 -0.119955 8.2629e-21)
(0.326304 -0.114978 0)
(-0.00530588 0.0468438 0)
(-0.0115801 0.0430442 1.14461e-21)
(-0.0180204 0.0388961 0)
(-0.0246245 0.033468 1.59853e-21)
(-0.0307212 0.0265279 0)
(-0.0359783 0.0181211 4.99967e-22)
(-0.0402267 0.00836679 -3.9141e-22)
(-0.0433314 -0.00257774 8.42705e-22)
(-0.0451744 -0.0145343 0)
(-0.0456616 -0.0273053 -4.40403e-23)
(-0.0447275 -0.0406809 0)
(-0.0423359 -0.0544448 0)
(-0.03848 -0.0683798 0)
(-0.0331809 -0.0822733 5.01418e-22)
(-0.0264861 -0.0959217 -3.47765e-22)
(-0.0184663 -0.109135 0)
(-0.00921199 -0.121741 -1.68631e-21)
(0.00117161 -0.133586 9.05432e-22)
(0.0125665 -0.144537 0)
(0.024846 -0.154491 1.44009e-21)
(0.0378801 -0.163369 0)
(0.0515386 -0.171116 1.75171e-21)
(0.065694 -0.177699 1.79545e-21)
(0.0802236 -0.183109 4.01578e-21)
(0.0950117 -0.187354 -4.32334e-21)
(0.10995 -0.190462 -2.34325e-21)
(0.124941 -0.192473 -7.339e-21)
(0.139893 -0.193442 2.61616e-21)
(0.154728 -0.193432 -5.42218e-21)
(0.169373 -0.192517 8.55757e-21)
(0.183769 -0.190774 -2.99087e-21)
(0.197863 -0.188284 0)
(0.21161 -0.185131 -6.40789e-21)
(0.224976 -0.181398 6.64112e-21)
(0.237933 -0.177168 6.82877e-21)
(0.250458 -0.17252 0)
(0.262538 -0.16753 0)
(0.274163 -0.162269 -7.37334e-21)
(0.285329 -0.156804 7.53337e-21)
(0.296036 -0.151193 -1.53628e-20)
(0.306288 -0.145492 -1.56395e-20)
(0.316093 -0.139749 0)
(0.32546 -0.134007 0)
(0.334401 -0.128302 0)
(-0.00795701 0.0653694 6.10974e-21)
(-0.0163865 0.0611629 -4.09002e-21)
(-0.0251353 0.0559692 0)
(-0.0340504 0.049038 -1.54743e-21)
(-0.0421899 0.0401733 0)
(-0.0491237 0.0294758 -1.91933e-21)
(-0.0546651 0.0171261 0)
(-0.0586736 0.00334337 -8.23988e-22)
(-0.0610302 -0.0116237 0)
(-0.0616474 -0.0275104 1.05821e-21)
(-0.0604754 -0.0440388 0)
(-0.057503 -0.0609265 0)
(-0.0527569 -0.0778942 0)
(-0.0462992 -0.0946729 -2.18362e-22)
(-0.0382231 -0.111011 3.43547e-22)
(-0.0286486 -0.126679 0)
(-0.0177165 -0.141475 7.13092e-22)
(-0.00558184 -0.155229 -8.98384e-22)
(0.00759279 -0.167795 0)
(0.0216399 -0.17907 0)
(0.0363945 -0.188981 0)
(0.0516976 -0.197487 0)
(0.0673992 -0.204573 -1.77368e-21)
(0.0833604 -0.21025 -1.93613e-21)
(0.0994543 -0.214549 2.09337e-21)
(0.115567 -0.21752 0)
(0.131597 -0.219228 4.78276e-21)
(0.147456 -0.219751 -4.9781e-21)
(0.163067 -0.219173 1.05994e-20)
(0.178365 -0.217587 -5.59098e-21)
(0.193296 -0.215092 0)
(0.207816 -0.211785 0)
(0.221888 -0.207766 6.29515e-21)
(0.235487 -0.203134 0)
(0.248592 -0.197983 -6.70767e-21)
(0.261191 -0.192404 6.89632e-21)
(0.273276 -0.186483 0)
(0.284847 -0.180299 1.4492e-20)
(0.295907 -0.173927 0)
(0.306463 -0.167431 7.54861e-21)
(0.316526 -0.160872 7.68595e-21)
(0.326109 -0.154301 -7.81963e-21)
(0.335226 -0.147762 0)
(0.343896 -0.141296 0)
(-0.011041 0.0908292 -5.95704e-21)
(-0.0218734 0.0855582 3.96835e-21)
(-0.0331354 0.0785789 -4.37021e-21)
(-0.0445087 0.0693609 0)
(-0.054757 0.0577438 0)
(-0.0633472 0.0438942 -8.9626e-22)
(-0.0700764 0.0280687 0)
(-0.0748019 0.0105689 0)
(-0.0774052 -0.0082684 0)
(-0.0778119 -0.0280903 6.31388e-22)
(-0.0759965 -0.0485301 0)
(-0.0719863 -0.0692202 0)
(-0.0658582 -0.0898032 0)
(-0.0577337 -0.109942 2.17539e-22)
(-0.0477721 -0.129331 7.83156e-22)
(-0.0361616 -0.147699 0)
(-0.0231098 -0.164822 0)
(-0.00883454 -0.180518 0)
(0.00644579 -0.194646 -1.25774e-21)
(0.0225182 -0.207112 -1.73393e-21)
(0.0391815 -0.217869 2.19138e-21)
(0.0562501 -0.226904 2.62915e-21)
(0.073556 -0.234232 0)
(0.0909502 -0.239899 0)
(0.108302 -0.243968 0)
(0.125499 -0.24652 0)
(0.142446 -0.247652 0)
(0.159062 -0.247467 8.52456e-23)
(0.175281 -0.246076 -5.20193e-21)
(0.19105 -0.243595 0)
(0.206328 -0.24014 0)
(0.22108 -0.23583 0)
(0.235286 -0.230778 0)
(0.248927 -0.225098 0)
(0.261997 -0.218895 0)
(0.274492 -0.212271 -6.80044e-21)
(0.286415 -0.205321 0)
(0.297774 -0.198131 -7.14852e-21)
(0.308578 -0.190782 0)
(0.318843 -0.183342 0)
(0.328585 -0.175876 0)
(0.337824 -0.168438 7.71742e-21)
(0.346579 -0.161075 0)
(0.354874 -0.153825 0)
(-0.0144741 0.124114 0)
(-0.0278585 0.116774 0)
(-0.0417198 0.107016 4.23971e-21)
(-0.0555584 0.0945176 0)
(-0.0678288 0.0791308 0)
(-0.0778931 0.0610872 2.71763e-21)
(-0.0855336 0.0407307 0)
(-0.0906065 0.018465 3.05265e-21)
(-0.0929977 -0.00526102 0)
(-0.0926543 -0.0299756 3.13549e-21)
(-0.08959 -0.0551945 0)
(-0.0838916 -0.0804377 0)
(-0.0757124 -0.105248 0)
(-0.0652624 -0.129207 0)
(-0.0527955 -0.151947 -7.88554e-22)
(-0.0385935 -0.173166 1.04017e-21)
(-0.0229507 -0.192624 0)
(-0.00616138 -0.210149 0)
(0.0114946 -0.225624 1.26257e-21)
(0.0297588 -0.238995 1.73755e-21)
(0.0483996 -0.250261 -3.66172e-22)
(0.0672141 -0.259456 -2.6258e-21)
(0.0860281 -0.266646 0)
(0.104695 -0.271923 0)