/*--------------------------------*- C++ -*----------------------------------*\
  =========                 |
  \\      /  F ield         | OpenFOAM: The Open Source CFD Toolbox
   \\    /   O peration     | Website:  https://openfoam.org
    \\  /    A nd           | Version:  6
     \\/     M anipulation  |
\*---------------------------------------------------------------------------*/
FoamFile
{
    version     2.0;
    format      ascii;
    class       volScalarField;
    location    "0.02";
    object      epsilon;
}
// * * * * * * * * * * * * * * * * * * * * * * * * * * * * * * * * * * * * * //

dimensions      [0 2 -3 0 0 0 0];

internalField   nonuniform List<scalar> 
3080
(
9.9602
9.96818
9.97624
9.98438
9.9926
10.0009
10.0093
10.0177
10.0262
10.0348
10.0434
10.052
10.0607
10.0693
10.0778
10.0863
10.0946
10.1026
10.1103
10.1174
10.1237
10.1288
10.1322
10.133
10.1295
10.1186
10.0935
10.0385
9.9184
9.6558
5.59692
5.59881
5.60073
5.60267
5.60464
5.60663
5.60864
5.61067
5.61273
5.6148
5.61689
5.61899
5.6211
5.62322
5.62534
5.62745
5.62954
5.63159
5.63359
5.63551
5.63731
5.63893
5.6403
5.6413
5.64175
5.64133
5.63958
5.63569
5.63032
5.63586
5.02741
5.02804
5.02868
5.02932
5.02998
5.03064
5.03132
5.032
5.03269
5.03339
5.0341
5.03481
5.03552
5.03624
5.03695
5.03766
5.03837
5.03905
5.03971
5.04034
5.04092
5.04142
5.04183
5.04209
5.04213
5.04187
5.04117
5.03993
5.039
5.04567
4.88753
4.88771
4.8879
4.88808
4.88827
4.88847
4.88867
4.88887
4.88907
4.88928
4.88949
4.8897
4.88991
4.89012
4.89033
4.89054
4.89074
4.89093
4.8911
4.89126
4.8914
4.8915
4.89155
4.89153
4.89143
4.89121
4.89085
4.89042
4.89052
4.89469
4.84658
4.84659
4.84661
4.84663
4.84664
4.84666
4.84668
4.8467
4.84672
4.84675
4.84677
4.84679
4.84681
4.84683
4.84685
4.84687
4.84688
4.84688
4.84688
4.84687
4.84685
4.84681
4.84675
4.84667
4.84656
4.84644
4.84632
4.84633
4.84691
4.84984
4.83362
4.83359
4.83356
4.83352
4.83349
4.83346
4.83343
4.83339
4.83336
4.83332
4.83329
4.83325
4.83322
4.83318
4.83314
4.8331
4.83306
4.83301
4.83296
4.83291
4.83285
4.83279
4.83273
4.83266
4.83261
4.83259
4.83266
4.83296
4.83381
4.83618
4.82878
4.82875
4.82872
4.82868
4.82865
4.82861
4.82857
4.82854
4.8285
4.82846
4.82842
4.82838
4.82834
4.8283
4.82826
4.82821
4.82817
4.82813
4.82808
4.82804
4.82799
4.82795
4.82792
4.8279
4.82791
4.82799
4.82819
4.82866
4.82965
4.83171
4.8262
4.82618
4.82616
4.82613
4.82611
4.82608
4.82606
4.82603
4.82601
4.82598
4.82595
4.82593
4.8259
4.82587
4.82584
4.82582
4.82579
4.82576
4.82573
4.82571
4.82569
4.82568
4.82568
4.8257
4.82577
4.82591
4.8262
4.82676
4.82779
4.82962
4.82432
4.82431
4.8243
4.82429
4.82428
4.82426
4.82425
4.82424
4.82422
4.82421
4.82419
4.82418
4.82417
4.82415
4.82414
4.82412
4.82411
4.8241
4.82409
4.82409
4.82409
4.82409
4.82412
4.82417
4.82428
4.82446
4.82479
4.82537
4.82637
4.82798
4.82288
4.82287
4.82287
4.82287
4.82286
4.82285
4.82285
4.82284
4.82284
4.82283
4.82282
4.82281
4.82281
4.8228
4.8228
4.82279
4.82279
4.82279
4.82279
4.8228
4.82281
4.82283
4.82287
4.82294
4.82305
4.82325
4.82359
4.82415
4.82507
4.82648
4.82188
4.82188
4.82187
4.82187
4.82187
4.82187
4.82186
4.82186
4.82185
4.82185
4.82184
4.82184
4.82184
4.82183
4.82183
4.82183
4.82183
4.82183
4.82184
4.82185
4.82186
4.82189
4.82193
4.822
4.82212
4.82231
4.82263
4.82315
4.82397
4.82518
4.82132
4.82131
4.82131
4.82131
4.8213
4.8213
4.82129
4.82128
4.82128
4.82127
4.82127
4.82126
4.82126
4.82126
4.82126
4.82125
4.82126
4.82126
4.82127
4.82128
4.82131
4.82135
4.82141
4.82152
4.8217
4.82199
4.82246
4.82317
4.82421
4.82113
4.82113
4.82112
4.82111
4.82111
4.8211
4.82109
4.82108
4.82107
4.82107
4.82106
4.82105
4.82105
4.82104
4.82104
4.82103
4.82103
4.82103
4.82104
4.82105
4.82107
4.8211
4.82116
4.82126
4.82142
4.82168
4.82209
4.8227
4.82358
4.82122
4.82121
4.8212
4.82119
4.82118
4.82117
4.82116
4.82115
4.82114
4.82113
4.82112
4.82111
4.8211
4.82109
4.82109
4.82108
4.82107
4.82107
4.82107
4.82108
4.82109
4.82112
4.82117
4.82126
4.8214
4.82163
4.82199
4.82252
4.82327
4.82147
4.82146
4.82145
4.82144
4.82142
4.82141
4.8214
4.82139
4.82137
4.82136
4.82135
4.82134
4.82133
4.82132
4.82131
4.8213
4.82129
4.82129
4.82128
4.82129
4.8213
4.82132
4.82137
4.82144
4.82157
4.82177
4.82208
4.82255
4.8232
4.82179
4.82178
4.82176
4.82175
4.82174
4.82173
4.82171
4.8217
4.82168
4.82167
4.82166
4.82165
4.82163
4.82162
4.82161
4.8216
4.82159
4.82159
4.82158
4.82158
4.82159
4.82161
4.82165
4.82172
4.82183
4.82201
4.82229
4.8227
4.82327
4.8221
4.82209
4.82208
4.82207
4.82205
4.82204
4.82203
4.82201
4.822
4.82199
4.82197
4.82196
4.82195
4.82194
4.82193
4.82192
4.82191
4.8219
4.8219
4.8219
4.82191
4.82192
4.82196
4.82202
4.82212
4.82228
4.82253
4.8229
4.82341
4.82237
4.82236
4.82235
4.82234
4.82233
4.82231
4.8223
4.82229
4.82228
4.82227
4.82225
4.82224
4.82223
4.82222
4.82221
4.8222
4.8222
4.82219
4.82219
4.82219
4.8222
4.82221
4.82225
4.8223
4.8224
4.82255
4.82278
4.82311
4.82356
4.82258
4.82257
4.82256
4.82255
4.82254
4.82253
4.82252
4.82251
4.8225
4.82249
4.82248
4.82247
4.82246
4.82245
4.82245
4.82244
4.82243
4.82243
4.82243
4.82243
4.82244
4.82245
4.82249
4.82254
4.82263
4.82277
4.82298
4.82329
4.82371
4.82274
4.82273
4.82273
4.82272
4.82271
4.8227
4.82269
4.82268
4.82267
4.82266
4.82266
4.82265
4.82264
4.82263
4.82263
4.82262
4.82262
4.82262
4.82261
4.82262
4.82263
4.82264
4.82268
4.82273
4.82281
4.82295
4.82314
4.82343
4.82382
4.82286
4.82285
4.82284
4.82284
4.82283
4.82282
4.82281
4.82281
4.8228
4.82279
4.82278
4.82278
4.82277
4.82277
4.82276
4.82276
4.82276
4.82275
4.82275
4.82276
4.82277
4.82279
4.82282
4.82287
4.82295
4.82308
4.82326
4.82353
4.8239
4.82294
4.82293
4.82292
4.82292
4.82291
4.82291
4.8229
4.82289
4.82289
4.82288
4.82288
4.82287
4.82287
4.82286
4.82286
4.82286
4.82285
4.82285
4.82286
4.82286
4.82287
4.82289
4.82292
4.82297
4.82305
4.82317
4.82335
4.8236
4.82395
4.82299
4.82298
4.82298
4.82297
4.82297
4.82297
4.82296
4.82295
4.82295
4.82294
4.82294
4.82294
4.82293
4.82293
4.82293
4.82292
4.82292
4.82292
4.82293
4.82293
4.82294
4.82296
4.82299
4.82304
4.82312
4.82323
4.82341
4.82365
4.82398
4.82302
4.82302
4.82302
4.82301
4.82301
4.823
4.823
4.82299
4.82299
4.82299
4.82298
4.82298
4.82298
4.82297
4.82297
4.82297
4.82297
4.82297
4.82297
4.82298
4.82299
4.82301
4.82304
4.82309
4.82316
4.82328
4.82344
4.82368
4.824
4.82304
4.82304
4.82304
4.82304
4.82303
4.82303
4.82303
4.82302
4.82302
4.82301
4.82301
4.82301
4.82301
4.823
4.823
4.823
4.823
4.823
4.82301
4.82301
4.82302
4.82304
4.82307
4.82312
4.82319
4.8233
4.82347
4.8237
4.82402
4.82306
4.82305
4.82305
4.82305
4.82305
4.82304
4.82304
4.82304
4.82303
4.82303
4.82303
4.82303
4.82302
4.82302
4.82302
4.82302
4.82302
4.82302
4.82303
4.82303
4.82304
4.82306
4.82309
4.82314
4.82321
4.82332
4.82349
4.82372
4.82403
4.82306
4.82306
4.82306
4.82306
4.82305
4.82305
4.82305
4.82305
4.82304
4.82304
4.82304
4.82304
4.82303
4.82303
4.82303
4.82303
4.82303
4.82303
4.82304
4.82304
4.82306
4.82307
4.8231
4.82315
4.82323
4.82334
4.8235
4.82373
4.82404
4.82306
4.82306
4.82306
4.82306
4.82306
4.82305
4.82305
4.82305
4.82305
4.82304
4.82304
4.82304
4.82304
4.82304
4.82304
4.82304
4.82304
4.82304
4.82304
4.82305
4.82306
4.82308
4.82311
4.82316
4.82323
4.82335
4.82351
4.82374
4.82405
4.82306
4.82305
4.82305
4.82305
4.82305
4.82305
4.82304
4.82304
4.82304
4.82304
4.82303
4.82303
4.82303
4.82303
4.82303
4.82303
4.82303
4.82303
4.82303
4.82304
4.82305
4.82307
4.8231
4.82315
4.82323
4.82335
4.82351
4.82374
4.82406
4.82304
4.82304
4.82304
4.82303
4.82303
4.82303
4.82303
4.82302
4.82302
4.82302
4.82301
4.82301
4.82301
4.82301
4.82301
4.82301
4.82301
4.82301
4.82301
4.82302
4.82303
4.82305
4.82308
4.82313
4.82321
4.82333
4.8235
4.82374
4.82406
4.82301
4.82301
4.823
4.823
4.823
4.82299
4.82299
4.82299
4.82298
4.82298
4.82298
4.82297
4.82297
4.82297
4.82297
4.82297
4.82296
4.82297
4.82297
4.82298
4.82299
4.82301
4.82304
4.82309
4.82317
4.82329
4.82346
4.82371
4.82404
4.82296
4.82296
4.82295
4.82295
4.82294
4.82294
4.82293
4.82293
4.82292
4.82292
4.82291
4.82291
4.82291
4.8229
4.8229
4.8229
4.8229
4.8229
4.8229
4.8229
4.82291
4.82293
4.82297
4.82302
4.8231
4.82322
4.8234
4.82365
4.824
4.82288
4.82288
4.82287
4.82287
4.82286
4.82285
4.82285
4.82284
4.82283
4.82282
4.82282
4.82281
4.82281
4.8228
4.8228
4.82279
4.82279
4.82279
4.82279
4.82279
4.8228
4.82282
4.82285
4.8229
4.82298
4.8231
4.82329
4.82355
4.82392
4.82277
4.82276
4.82275
4.82274
4.82273
4.82272
4.82271
4.8227
4.82269
4.82268
4.82267
4.82267
4.82266
4.82265
4.82264
4.82263
4.82263
4.82262
4.82262
4.82262
4.82262
4.82264
4.82267
4.82271
4.82279
4.82292
4.82311
4.82339
4.82378
4.8226
4.82259
4.82257
4.82256
4.82255
4.82254
4.82252
4.82251
4.82249
4.82248
4.82247
4.82245
4.82244
4.82243
4.82242
4.82241
4.82239
4.82238
4.82238
4.82237
4.82237
4.82238
4.82241
4.82245
4.82253
4.82266
4.82286
4.82316
4.82358
4.82236
4.82235
4.82233
4.82231
4.82229
4.82227
4.82226
4.82224
4.82222
4.8222
4.82218
4.82216
4.82214
4.82213
4.82211
4.82209
4.82207
4.82206
4.82205
4.82204
4.82203
4.82203
4.82205
4.82209
4.82217
4.8223
4.82252
4.82285
4.82332
4.82204
4.82202
4.822
4.82197
4.82195
4.82192
4.8219
4.82187
4.82185
4.82182
4.8218
4.82177
4.82175
4.82172
4.8217
4.82168
4.82165
4.82163
4.82161
4.8216
4.82159
4.82158
4.8216
4.82164
4.82172
4.82186
4.8221
4.82247
4.82301
4.82163
4.8216
4.82157
4.82154
4.8215
4.82147
4.82144
4.82141
4.82138
4.82134
4.82131
4.82128
4.82125
4.82122
4.82119
4.82116
4.82113
4.8211
4.82108
4.82105
4.82104
4.82103
4.82105
4.82109
4.82118
4.82134
4.82161
4.82205
4.8227
4.82111
4.82108
4.82104
4.821
4.82096
4.82092
4.82088
4.82085
4.82081
4.82077
4.82073
4.82069
4.82065
4.82062
4.82058
4.82054
4.82051
4.82048
4.82045
4.82043
4.82041
4.82041
4.82042
4.82047
4.82058
4.82077
4.82111
4.82164
4.82245
4.8205
4.82046
4.82041
4.82037
4.82032
4.82028
4.82023
4.82019
4.82014
4.8201
4.82006
4.82001
4.81997
4.81993
4.81989
4.81985
4.81982
4.81979
4.81976
4.81973
4.81972
4.81972
4.81975
4.81982
4.81995
4.8202
4.82062
4.82131
4.82235
4.81978
4.81973
4.81968
4.81963
4.81958
4.81953
4.81949
4.81944
4.81939
4.81934
4.8193
4.81925
4.81921
4.81917
4.81913
4.81909
4.81905
4.81902
4.819
4.81898
4.81898
4.81899
4.81903
4.81912
4.8193
4.81961
4.82016
4.82104
4.82242
4.81894
4.81889
4.81883
4.81878
4.81873
4.81868
4.81863
4.81858
4.81853
4.81848
4.81843
4.81838
4.81834
4.81829
4.81825
4.81822
4.81818
4.81815
4.81813
4.81812
4.81812
4.81814
4.8182
4.81831
4.81853
4.81892
4.81961
4.82075
4.82257
4.81796
4.8179
4.81784
4.81779
4.81773
4.81767
4.81762
4.81756
4.8175
4.81745
4.81739
4.81734
4.81729
4.81724
4.81719
4.81715
4.81711
4.81707
4.81704
4.81702
4.81702
4.81703
4.81709
4.81721
4.81746
4.81791
4.81875
4.82018
4.82255
4.81674
4.81667
4.8166
4.81653
4.81646
4.8164
4.81633
4.81626
4.81619
4.81612
4.81605
4.81598
4.81591
4.81585
4.81578
4.81572
4.81566
4.81561
4.81556
4.81552
4.8155
4.8155
4.81554
4.81565
4.81591
4.8164
4.81738
4.8191
4.82214
4.81502
4.81494
4.81485
4.81477
4.81468
4.81459
4.81451
4.81442
4.81433
4.81424
4.81416
4.81408
4.81399
4.81391
4.81383
4.81376
4.81369
4.81363
4.81357
4.81352
4.8135
4.81349
4.81353
4.81366
4.81393
4.81447
4.81559
4.81763
4.82153
4.81248
4.81239
4.8123
4.81222
4.81213
4.81205
4.81197
4.81189
4.81182
4.81175
4.81168
4.81162
4.81157
4.81152
4.81148
4.81144
4.81142
4.81141
4.81141
4.81143
4.81146
4.81153
4.81165
4.81185
4.81221
4.81287
4.8142
4.81663
4.82163
4.80976
4.80973
4.80971
4.80969
4.80969
4.80969
4.8097
4.80972
4.80975
4.80978
4.80984
4.8099
4.80998
4.81007
4.81018
4.8103
4.81045
4.81061
4.81079
4.81099
4.81123
4.81149
4.81181
4.81221
4.81278
4.81365
4.81525
4.81814
4.82458
4.8094
4.80954
4.8097
4.80987
4.81006
4.81026
4.81049
4.81073
4.81099
4.81128
4.81158
4.81191
4.81227
4.81265
4.81306
4.8135
4.81396
4.81446
4.81498
4.81554
4.81614
4.81677
4.81746
4.81822
4.81915
4.82034
4.82231
4.82573
4.83396
4.81632
4.81683
4.81736
4.81792
4.81851
4.81913
4.81978
4.82047
4.82119
4.82195
4.82274
4.82358
4.82445
4.82537
4.82633
4.82733
4.82837
4.82946
4.83059
4.83176
4.83297
4.83424
4.83557
4.83704
4.83872
4.84116
4.84511
4.85553
4.83805
4.83913
4.84024
4.8414
4.8426
4.84385
4.84515
4.84649
4.84789
4.84934
4.85084
4.85239
4.85401
4.85568
4.8574
4.85919
4.86103
4.86293
4.86488
4.86689
4.86893
4.87102
4.87315
4.87537
4.87771
4.88069
4.88515
4.89806
4.88788
4.88978
4.89174
4.89376
4.89585
4.89799
4.9002
4.90248
4.90483
4.90724
4.90973
4.9123
4.91493
4.91764
4.92043
4.92329
4.92622
4.92922
4.93229
4.9354
4.93856
4.94174
4.94492
4.94813
4.9513
4.95489
4.95968
4.97524
4.98779
4.99084
4.99396
4.99716
5.00045
5.00382
5.00727
5.01082
5.01445
5.01817
5.02198
5.02589
5.02989
5.03399
5.03818
5.04246
5.04683
5.05127
5.05579
5.06036
5.06495
5.06955
5.07408
5.07853
5.08273
5.08694
5.0917
5.10974
5.17781
5.18241
5.18712
5.19193
5.19684
5.20186
5.207
5.21224
5.2176
5.22307
5.22866
5.23437
5.2402
5.24614
5.25219
5.25835
5.26462
5.27097
5.2774
5.28387
5.29035
5.29678
5.30305
5.30907
5.31449
5.3193
5.32336
5.34293
5.54211
5.54893
5.55587
5.56295
5.57016
5.57752
5.58502
5.59267
5.60046
5.6084
5.61648
5.62472
5.6331
5.64163
5.65029
5.65909
5.668
5.67701
5.68609
5.6952
5.70426
5.7132
5.72183
5.72993
5.73686
5.74214
5.74415
5.76247
6.3037
6.31405
6.32459
6.33531
6.34622
6.35733
6.36863
6.38012
6.39181
6.4037
6.41579
6.42807
6.44055
6.45321
6.46605
6.47905
6.49219
6.50543
6.51873
6.532
6.54515
6.55799
6.57023
6.58144
6.59042
6.59573
6.5926
6.60071
8.34627
8.36429
8.38261
8.40122
8.42014
8.43936
8.45889
8.47873
8.49888
8.51934
8.5401
8.56116
8.58252
8.60415
8.62603
8.64812
8.67039
8.69275
8.7151
8.73729
8.75909
8.78013
8.7998
8.81699
8.8295
8.83231
8.81353
8.76718
19.4931
19.5457
19.5992
19.6535
19.7086
19.7646
19.8213
19.8789
19.9373
19.9965
20.0565
20.1172
20.1786
20.2406
20.3032
20.3661
20.4292
20.4922
20.5546
20.6157
20.6748
20.7298
20.7796
20.8151
20.837
20.7924
20.6597
19.9476
10.2429
10.4713
10.6676
10.7982
10.8673
10.9212
10.9883
11.0703
11.164
11.2683
11.3827
11.5072
11.6421
11.7883
11.9469
12.1188
12.3064
12.5093
12.7353
12.973
13.2633
13.5242
13.9601
14.1897
15.419
5.66677
5.70945
5.75771
5.7981
5.82542
5.84477
5.8637
5.88474
5.90829
5.93461
5.96383
5.99606
6.03143
6.07011
6.11238
6.1586
6.20915
6.26469
6.32557
6.39329
6.46967
6.55285
6.65735
6.76864
7.01505
5.05346
5.07007
5.09075
5.10967
5.12359
5.13316
5.14118
5.14961
5.15904
5.16979
5.182
5.19572
5.21103
5.22801
5.24679
5.26756
5.29052
5.31604
5.34425
5.37612
5.41195
5.45268
5.50133
5.56123
5.66771
4.89929
4.90744
4.9175
4.92711
4.93447
4.93941
4.94308
4.94667
4.95073
4.95554
4.9612
4.96775
4.97524
4.98371
4.99324
5.00395
5.01596
5.02951
5.0447
5.06214
5.08189
5.10512
5.13238
5.16927
5.22724
4.85335
4.85792
4.86312
4.86812
4.87201
4.87453
4.87616
4.87759
4.87925
4.88135
4.88398
4.88718
4.89097
4.89537
4.90043
4.90623
4.91285
4.92045
4.92911
4.93925
4.95086
4.96503
4.98143
5.00574
5.04011
4.83898
4.84185
4.84474
4.84744
4.84954
4.85082
4.85151
4.852
4.85259
4.85346
4.85467
4.85626
4.85823
4.8606
4.86339
4.86667
4.87048
4.87494
4.8801
4.88629
4.89341
4.90251
4.91282
4.92962
4.95072
4.834
4.83601
4.83781
4.8394
4.84063
4.84135
4.84166
4.8418
4.84198
4.84233
4.84291
4.84376
4.84487
4.84625
4.84792
4.84991
4.85227
4.85507
4.85834
4.86236
4.86698
4.87318
4.87995
4.8921
4.90518
4.83151
4.83307
4.83439
4.83549
4.83634
4.83685
4.83707
4.83714
4.83721
4.83739
4.83775
4.83829
4.83902
4.83996
4.8411
4.84247
4.8441
4.84606
4.84834
4.8512
4.85443
4.85899
4.86367
4.8729
4.88094
4.82959
4.8309
4.83201
4.83294
4.83366
4.83413
4.83438
4.8345
4.8346
4.83478
4.83507
4.83552
4.83611
4.83687
4.83778
4.83888
4.84017
4.84171
4.8435
4.84575
4.84824
4.85188
4.85536
4.86271
4.86753
4.82786
4.82904
4.83006
4.83094
4.83165
4.83216
4.83248
4.83269
4.83287
4.83309
4.8334
4.83384
4.8344
4.83509
4.83592
4.83691
4.83805
4.83941
4.84096
4.84291
4.84502
4.84815
4.85092
4.85705
4.85976
4.82639
4.82748
4.82847
4.82934
4.83008
4.83065
4.83106
4.83135
4.83161
4.83189
4.83225
4.8327
4.83326
4.83394
4.83474
4.83568
4.83677
4.83804
4.83949
4.8413
4.8432
4.84605
4.8484
4.85371
4.85503
4.82528
4.8263
4.82726
4.82814
4.82891
4.82953
4.83002
4.8304
4.83073
4.83106
4.83145
4.83193
4.8325
4.83317
4.83396
4.83489
4.83594
4.83718
4.83857
4.8403
4.8421
4.84479
4.84688
4.85159
4.85198
4.82454
4.82549
4.82643
4.82731
4.8281
4.82878
4.82932
4.82977
4.83016
4.83055
4.83097
4.83146
4.83204
4.83271
4.83349
4.8344
4.83543
4.83665
4.838
4.83969
4.84142
4.844
4.84591
4.85017
4.84991
4.82413
4.82501
4.82592
4.8268
4.82761
4.82832
4.82892
4.82943
4.82987
4.8303
4.83076
4.83126
4.83184
4.83251
4.83328
4.83417
4.83518
4.83637
4.8377
4.83935
4.84103
4.84353
4.84529
4.84919
4.84846
4.82396
4.82479
4.82566
4.82652
4.82734
4.82808
4.82873
4.82929
4.82979
4.83026
4.83075
4.83127
4.83186
4.83252
4.83328
4.83416
4.83515
4.83631
4.83761
4.83923
4.84086
4.84328
4.84492
4.8485
4.84742
4.82396
4.82473
4.82555
4.8264
4.82722
4.82799
4.82868
4.82929
4.82984
4.83036
4.83088
4.83143
4.83202
4.83269
4.83344
4.8343
4.83528
4.83642
4.83769
4.83928
4.84087
4.84321
4.84475
4.84805
4.84669
4.82403
4.82475
4.82554
4.82636
4.82719
4.82798
4.82871
4.82937
4.82997
4.83054
4.83109
4.83167
4.83228
4.83295
4.83371
4.83456
4.83552
4.83665
4.8379
4.83946
4.84101
4.84329
4.84472
4.84777
4.84619
4.82414
4.82481
4.82556
4.82637
4.82719
4.828
4.82876
4.82947
4.83012
4.83073
4.83133
4.83194
4.83257
4.83326
4.83402
4.83488
4.83584
4.83696
4.83819
4.83974
4.84125
4.84347
4.8448
4.84763
4.84587
4.82424
4.82487
4.82559
4.82637
4.8272
4.82802
4.82882
4.82956
4.83026
4.83092
4.83156
4.8322
4.83287
4.83358
4.83435
4.83521
4.83618
4.8373
4.83853
4.84005
4.84154
4.84371
4.84496
4.8476
4.84569
4.82431
4.82491
4.8256
4.82637
4.82719
4.82803
4.82885
4.82964
4.83038
4.83108
4.83176
4.83244
4.83313
4.83386
4.83465
4.83553
4.83651
4.83763
4.83886
4.84039
4.84186
4.84399
4.84517
4.84764
4.8456
4.82436
4.82493
4.8256
4.82636
4.82717
4.82802
4.82886
4.82968
4.83046
4.83121
4.83192
4.83263
4.83335
4.83411
4.83492
4.83582
4.8368
4.83794
4.83918
4.8407
4.84217
4.84426
4.84539
4.84771
4.84558
4.82439
4.82494
4.82559
4.82633
4.82714
4.828
4.82886
4.82971
4.83052
4.83129
4.83204
4.83278
4.83353
4.83431
4.83514
4.83605
4.83706
4.83821
4.83945
4.84098
4.84244
4.84452
4.8456
4.84781
4.8456
4.82441
4.82493
4.82557
4.8263
4.82711
4.82797
4.82884
4.82971
4.83055
4.83135
4.83213
4.83289
4.83366
4.83446
4.83531
4.83624
4.83726
4.83842
4.83968
4.84122
4.84268
4.84474
4.84579
4.8479
4.84565
4.82441
4.82492
4.82555
4.82627
4.82708
4.82794
4.82882
4.82971
4.83056
4.83139
4.83218
4.83297
4.83375
4.83457
4.83543
4.83638
4.83741
4.83859
4.83985
4.8414
4.84287
4.84491
4.84594
4.84797
4.8457
4.82442
4.82492
4.82553
4.82625
4.82705
4.82792
4.82881
4.8297
4.83057
4.8314
4.83222
4.83301
4.83381
4.83464
4.83552
4.83647
4.83751
4.8387
4.83998
4.84153
4.843
4.84504
4.84606
4.84802
4.84576
4.82442
4.82492
4.82552
4.82624
4.82704
4.8279
4.8288
4.82969
4.83057
4.83141
4.83223
4.83304
4.83385
4.83468
4.83556
4.83652
4.83757
4.83876
4.84005
4.8416
4.84309
4.84511
4.84614
4.84804
4.84582
4.82443
4.82492
4.82553
4.82624
4.82704
4.8279
4.82879
4.82969
4.83057
4.83142
4.83224
4.83304
4.83385
4.83469
4.83557
4.83654
4.83759
4.83878
4.84007
4.84162
4.84312
4.84513
4.84619
4.84803
4.84589
4.82444
4.82493
4.82554
4.82625
4.82705
4.82791
4.8288
4.8297
4.83057
4.83142
4.83223
4.83304
4.83384
4.83467
4.83555
4.83651
4.83756
4.83875
4.84005
4.8416
4.8431
4.84509
4.8462
4.84799
4.84599
4.82445
4.82495
4.82556
4.82628
4.82708
4.82794
4.82883
4.82972
4.83058
4.83141
4.83222
4.833
4.8338
4.83462
4.83549
4.83644
4.83749
4.83867
4.83996
4.8415
4.84302
4.84501
4.84617
4.84795
4.84611
4.82446
4.82497
4.82559
4.82632
4.82712
4.82798
4.82886
4.82974
4.83058
4.8314
4.83218
4.83295
4.83373
4.83453
4.83539
4.83633
4.83736
4.83853
4.83982
4.84136
4.84289
4.84488
4.84611
4.84795
4.84627
4.82446
4.82499
4.82562
4.82636
4.82717
4.82803
4.8289
4.82976
4.83058
4.83137
4.83212
4.83286
4.83362
4.8344
4.83524
4.83616
4.83718
4.83834
4.83962
4.84116
4.84271
4.84474
4.84605
4.84801
4.84651
4.82444
4.82499
4.82564
4.82639
4.82721
4.82807
4.82893
4.82977
4.83056
4.83131
4.83203
4.83274
4.83346
4.83422
4.83504
4.83594
4.83695
4.83811
4.83939
4.84094
4.84252
4.84461
4.84604
4.84817
4.84691
4.82439
4.82496
4.82564
4.82641
4.82725
4.8281
4.82894
4.82975
4.8305
4.8312
4.83188
4.83256
4.83325
4.83399
4.83478
4.83568
4.83668
4.83784
4.83913
4.84071
4.84234
4.84453
4.84612
4.8485
4.84754
4.82428
4.8249
4.82561
4.82641
4.82725
4.8281
4.82892
4.82969
4.83039
4.83105
4.83168
4.83232
4.83298
4.83369
4.83448
4.83537
4.83637
4.83755
4.83888
4.84052
4.84224
4.84457
4.84638
4.84909
4.84851
4.82413
4.82479
4.82554
4.82637
4.82723
4.82807
4.82885
4.82957
4.83022
4.83083
4.83141
4.83201
4.83265
4.83335
4.83414
4.83504
4.83607
4.83729
4.83869
4.84042
4.84228
4.84481
4.8469
4.85003
4.84993
4.82393
4.82464
4.82544
4.8263
4.82716
4.82799
4.82874
4.8294
4.82999
4.83054
4.83109
4.83166
4.83228
4.83299
4.8338
4.83473
4.83582
4.83712
4.83862
4.8405
4.84254
4.84534
4.8478
4.85146
4.85194
4.8237
4.82448
4.82534
4.82622
4.82709
4.82788
4.82858
4.82918
4.82971
4.83021
4.83072
4.83128
4.83191
4.83265
4.83351
4.83452
4.8357
4.83712
4.83877
4.84085
4.84315
4.8463
4.84921
4.85352
4.85471
4.8235
4.82436
4.82527
4.82618
4.82703
4.82778
4.82841
4.82893
4.8294
4.82986
4.83035
4.83092
4.8316
4.8324
4.83334
4.83446
4.83578
4.83737
4.83924
4.84158
4.84421
4.8478
4.85126
4.85635
4.85841
4.8234
4.82436
4.82532
4.82624
4.82705
4.82772
4.82826
4.8287
4.8291
4.82953
4.83003
4.83065
4.83139
4.83229
4.83336
4.83464
4.83615
4.83798
4.84012
4.8428
4.84585
4.84997
4.85409
4.86013
4.86324
4.82351
4.82458
4.82557
4.82646
4.82718
4.82774
4.82815
4.82849
4.82884
4.82926
4.8298
4.83049
4.83135
4.83239
4.83364
4.83512
4.83688
4.839
4.84149
4.84461
4.84815
4.85293
4.85782
4.86502
4.86941
4.82387
4.82506
4.82607
4.82687
4.82744
4.82781
4.82806
4.82828
4.82858
4.82902
4.82964
4.83045
4.83147
4.83271
4.83418
4.83594
4.83801
4.8405
4.84343
4.84708
4.85124
4.85683
4.86263
4.87129
4.87727
4.82443
4.82576
4.82674
4.82739
4.82772
4.82784
4.82787
4.82797
4.82823
4.82873
4.82949
4.83048
4.83172
4.83322
4.835
4.83711
4.83959
4.84257
4.84606
4.85039
4.85533
4.86196
4.86887
4.87941
4.88743
4.82496
4.82645
4.82737
4.8278
4.82782
4.82762
4.82742
4.82742
4.82771
4.82835
4.82931
4.83058
4.83213
4.83399
4.83618
4.83876
4.84178
4.8454
4.84962
4.85485
4.86078
4.86875
4.87702
4.88998
4.90062
4.82524
4.82692
4.82777
4.82798
4.82768
4.82719
4.82682
4.82679
4.82722
4.8281
4.8294
4.83105
4.83305
4.8354
4.83814
4.84136
4.84511
4.84957
4.85474
4.86112
4.86832
4.87795
4.88792
4.90382
4.91777
4.82548
4.8274
4.82826
4.82833
4.82781
4.82713
4.82671
4.82682
4.82754
4.82885
4.83065
4.83287
4.8355
4.83855
4.84207
4.84616
4.8509
4.85649
4.86294
4.87082
4.87966
4.89139
4.90349
4.92295
4.94112
4.82665
4.82892
4.82997
4.83012
4.82958
4.8289
4.82865
4.82912
4.83038
4.83234
4.83489
4.83794
4.84146
4.8455
4.85011
4.85542
4.86151
4.86863
4.87678
4.88663
4.8976
4.91197
4.9268
4.95056
4.97411
4.83086
4.83366
4.83525
4.83585
4.8356
4.83523
4.83544
4.83657
4.83866
4.84159
4.84521
4.84942
4.8542
4.85961
4.86573
4.87269
4.8806
4.88976
4.90015
4.91254
4.9263
4.94398
4.96227
4.99121
5.02164
4.84175
4.84542
4.84809
4.84968
4.85016
4.85047
4.8515
4.85365
4.85695
4.86124
4.86633
4.87213
4.87863
4.8859
4.89403
4.90321
4.91353
4.92536
4.93866
4.95434
4.97164
4.99349
5.01616
5.05133
5.09053
4.86512
4.87024
4.87477
4.87807
4.87979
4.88121
4.88349
4.88711
4.89207
4.89819
4.90526
4.91319
4.92197
4.9317
4.9425
4.95457
4.96804
4.98332
5.00038
5.02023
5.04206
5.0691
5.09731
5.14
5.19045
4.90991
4.91743
4.92495
4.93082
4.93437
4.9374
4.94142
4.94702
4.9542
4.96274
4.97243
4.98315
4.99493
5.00788
5.02215
5.03797
5.05552
5.07523
5.09712
5.12228
5.14987
5.18344
5.21868
5.27055
5.33561
4.99024
5.00168
5.01369
5.02318
5.0292
5.0344
5.04076
5.04899
5.05909
5.07082
5.08392
5.09831
5.11401
5.13118
5.14999
5.17071
5.19355
5.219
5.24712
5.27911
5.31412
5.35603
5.40036
5.46365
5.54811
5.12969
5.14748
5.16609
5.18047
5.18966
5.1977
5.20716
5.21889
5.23288
5.24884
5.2665
5.28577
5.3067
5.32948
5.35432
5.38154
5.4114
5.44446
5.48083
5.52184
5.56669
5.61953
5.67602
5.75401
5.86525
5.37183
5.3999
5.42819
5.4491
5.46232
5.47413
5.48781
5.50433
5.52369
5.54551
5.56948
5.59552
5.6237
5.65426
5.68747
5.72371
5.7633
5.80692
5.85477
5.90828
5.96687
6.03484
6.10856
6.20653
6.35698
5.80972
5.85497
5.8981
5.92794
5.94644
5.96358
5.98341
6.00704
6.03438
6.06496
6.09839
6.13459
6.17367
6.21593
6.26174
6.31157
6.36588
6.42544
6.49069
6.56312
6.64272
6.73351
6.83419
6.96162
7.17541
6.69264
6.76915
6.83805
6.88128
6.90752
6.93344
6.96369
6.99953
7.0407
7.0865
7.13642
7.19035
7.2485
7.31128
7.37922
7.45296
7.53325
7.62095
7.71713
7.82302
7.94042
8.07139
8.22223
8.39968
8.73473
9.01177
9.16105
9.29138
9.36027
9.40186
9.44761
9.50189
9.56635
9.64025
9.72225
9.81149
9.9078
10.0116
10.1236
10.2449
10.3763
10.5195
10.6753
10.8472
11.0339
11.2457
11.4723
11.7533
12.0432
12.7027
21.4938
21.9885
22.4463
22.6072
22.707
22.84
23.0058
23.2088
23.4438
23.7044
23.9876
24.2929
24.6221
24.9769
25.362
25.7776
26.2346
26.7241
27.2798
27.8544
28.5632
29.2174
30.2209
30.9337
33.4523
)
;

boundaryField
{
    inlet
    {
        type            fixedValue;
        value           nonuniform 0();
    }
    outlet
    {
        type            zeroGradient;
    }
    upperWall
    {
        Cmu             0.09;
        kappa           0.41;
        E               9.8;
        type            epsilonWallFunction;
        value           nonuniform List<scalar> 
53
(
19.4931
19.5457
19.5992
19.6535
19.7086
19.7646
19.8213
19.8789
19.9373
19.9965
20.0565
20.1172
20.1786
20.2406
20.3032
20.3661
20.4292
20.4922
20.5546
20.6157
20.6748
20.7298
20.7796
20.8151
20.837
20.7924
20.6597
19.9476
21.4938
21.9885
22.4463
22.6072
22.707
22.84
23.0058
23.2088
23.4438
23.7044
23.9876
24.2929
24.6221
24.9769
25.362
25.7776
26.2346
26.7241
27.2798
27.8544
28.5632
29.2174
30.2209
30.9337
33.4523
)
;
    }
    lowerWall
    {
        Cmu             0.09;
        kappa           0.41;
        E               9.8;
        type            epsilonWallFunction;
        value           nonuniform List<scalar> 
55
(
9.9602
9.96818
9.97624
9.98438
9.9926
10.0009
10.0093
10.0177
10.0262
10.0348
10.0434
10.052
10.0607
10.0693
10.0778
10.0863
10.0946
10.1026
10.1103
10.1174
10.1237
10.1288
10.1322
10.133
10.1295
10.1186
10.0935
10.0385
9.9184
9.6558
10.2429
10.4713
10.6676
10.7982
10.8673
10.9212
10.9883
11.0703
11.164
11.2683
11.3827
11.5072
11.6421
11.7883
11.9469
12.1188
12.3064
12.5093
12.7353
12.973
13.2633
13.5242
13.9601
14.1897
15.419
)
;
    }
    frontAndBack
    {
        type            empty;
    }
    procBoundary0to1
    {
        type            processor;
        value           nonuniform List<scalar> 
59
(
9.95232
5.59504
5.02679
4.88736
4.84656
4.83366
4.82882
4.82622
4.82433
4.82288
4.82188
4.82132
4.82132
4.82114
4.82123
4.82148
4.8218
4.82211
4.82238
4.82259
4.82275
4.82286
4.82294
4.82299
4.82303
4.82305
4.82306
4.82306
4.82306
4.82306
4.82304
4.82301
4.82296
4.82289
4.82278
4.82261
4.82238
4.82207
4.82166
4.82115
4.82055
4.81983
4.81899
4.81801
4.8168
4.8151
4.81257
4.80979
4.80927
4.81584
4.81584
4.83702
4.88603
4.98481
5.1733
5.53543
6.29351
8.32852
19.4411
)
;
    }
}


// ************************************************************************* //
