/*--------------------------------*- C++ -*----------------------------------*\
  =========                 |
  \\      /  F ield         | OpenFOAM: The Open Source CFD Toolbox
   \\    /   O peration     | Website:  https://openfoam.org
    \\  /    A nd           | Version:  6
     \\/     M anipulation  |
\*---------------------------------------------------------------------------*/
FoamFile
{
    version     2.0;
    format      ascii;
    class       volScalarField;
    location    "0.02";
    object      k;
}
// * * * * * * * * * * * * * * * * * * * * * * * * * * * * * * * * * * * * * //

dimensions      [0 2 -2 0 0 0 0];

internalField   nonuniform List<scalar> 
3080
(
0.0515312
0.0515053
0.0514792
0.0514529
0.0514264
0.0513995
0.0513724
0.0513451
0.0513173
0.0512892
0.0512607
0.0512317
0.0512022
0.051172
0.051141
0.0511091
0.051076
0.0510414
0.0510048
0.0509658
0.0509234
0.0508765
0.050823
0.0507598
0.0506814
0.0505771
0.0504241
0.0501693
0.0496953
0.048741
0.10639
0.106331
0.106272
0.106212
0.106151
0.10609
0.106029
0.105967
0.105904
0.10584
0.105776
0.105711
0.105645
0.105577
0.105508
0.105437
0.105365
0.105289
0.105211
0.105128
0.105039
0.104942
0.104834
0.104709
0.104557
0.104359
0.10407
0.103601
0.102714
0.101206
0.134677
0.134605
0.134532
0.134458
0.134383
0.134308
0.134232
0.134156
0.134078
0.134
0.133921
0.133841
0.133759
0.133676
0.133592
0.133506
0.133417
0.133325
0.13323
0.133131
0.133025
0.132911
0.132786
0.132643
0.132473
0.132258
0.131958
0.131497
0.130703
0.129444
0.153896
0.153818
0.153739
0.153659
0.153578
0.153497
0.153415
0.153332
0.153249
0.153164
0.153078
0.152991
0.152903
0.152814
0.152722
0.152629
0.152534
0.152435
0.152333
0.152227
0.152114
0.151994
0.151862
0.151714
0.151541
0.151326
0.151036
0.15061
0.149932
0.148934
0.168163
0.168083
0.168004
0.167923
0.167842
0.16776
0.167677
0.167594
0.167509
0.167424
0.167337
0.16725
0.167161
0.16707
0.166978
0.166884
0.166788
0.166689
0.166586
0.166479
0.166367
0.166247
0.166116
0.16597
0.165802
0.165595
0.165325
0.164943
0.164373
0.163583
0.179071
0.178995
0.178918
0.178841
0.178763
0.178684
0.178605
0.178524
0.178443
0.178361
0.178277
0.178193
0.178107
0.17802
0.177931
0.177841
0.177748
0.177652
0.177554
0.177451
0.177343
0.177229
0.177104
0.176966
0.176807
0.176616
0.176371
0.176037
0.175563
0.174938
0.18749
0.18742
0.187349
0.187277
0.187205
0.187132
0.187058
0.186984
0.186908
0.186832
0.186754
0.186676
0.186596
0.186515
0.186433
0.186349
0.186262
0.186174
0.186082
0.185987
0.185887
0.185781
0.185666
0.185539
0.185394
0.185222
0.185006
0.18472
0.18433
0.183838
0.193987
0.193924
0.193861
0.193796
0.193731
0.193666
0.193599
0.193532
0.193464
0.193396
0.193326
0.193255
0.193184
0.193111
0.193036
0.19296
0.192883
0.192803
0.19272
0.192634
0.192544
0.192448
0.192346
0.192232
0.192104
0.191953
0.191767
0.191526
0.191211
0.190825
0.198972
0.198917
0.198861
0.198805
0.198749
0.198691
0.198633
0.198575
0.198515
0.198455
0.198394
0.198332
0.198269
0.198205
0.19814
0.198074
0.198005
0.197935
0.197863
0.197787
0.197708
0.197625
0.197535
0.197436
0.197325
0.197196
0.197039
0.196841
0.19659
0.196291
0.202759
0.202713
0.202666
0.202618
0.20257
0.202521
0.202472
0.202422
0.202371
0.20232
0.202268
0.202215
0.202161
0.202107
0.202051
0.201994
0.201936
0.201875
0.201813
0.201749
0.201681
0.20161
0.201533
0.20145
0.201356
0.201248
0.201119
0.20096
0.200763
0.200534
0.205601
0.205562
0.205523
0.205484
0.205444
0.205404
0.205363
0.205321
0.205279
0.205237
0.205193
0.20515
0.205105
0.205059
0.205013
0.204965
0.204917
0.204866
0.204815
0.204761
0.204704
0.204645
0.204581
0.204512
0.204435
0.204347
0.204244
0.204118
0.203967
0.203795
0.20767
0.207638
0.207607
0.207574
0.207542
0.207509
0.207475
0.207441
0.207407
0.207372
0.207336
0.2073
0.207263
0.207225
0.207186
0.207147
0.207106
0.207064
0.20702
0.206974
0.206926
0.206874
0.206818
0.206756
0.206687
0.206606
0.206509
0.206395
0.20627
0.209203
0.209178
0.209153
0.209128
0.209102
0.209076
0.209049
0.209022
0.208995
0.208968
0.208939
0.208911
0.208881
0.208851
0.208821
0.208789
0.208757
0.208723
0.208689
0.208652
0.208614
0.208573
0.208529
0.208481
0.208427
0.208365
0.208293
0.20821
0.20812
0.210298
0.210279
0.210259
0.21024
0.21022
0.2102
0.21018
0.210159
0.210138
0.210117
0.210095
0.210073
0.21005
0.210027
0.210003
0.209979
0.209954
0.209928
0.209901
0.209873
0.209843
0.209812
0.209778
0.209741
0.209701
0.209655
0.209603
0.209544
0.209482
0.211065
0.211051
0.211036
0.211021
0.211007
0.210992
0.210976
0.210961
0.210945
0.210929
0.210913
0.210896
0.210879
0.210861
0.210843
0.210825
0.210806
0.210786
0.210766
0.210745
0.210722
0.210699
0.210674
0.210647
0.210617
0.210584
0.210548
0.210508
0.210467
0.211597
0.211587
0.211576
0.211565
0.211554
0.211543
0.211532
0.21152
0.211508
0.211496
0.211484
0.211472
0.211459
0.211446
0.211433
0.211419
0.211405
0.21139
0.211375
0.211359
0.211342
0.211325
0.211307
0.211287
0.211266
0.211243
0.211218
0.211192
0.211167
0.211951
0.211943
0.211936
0.211928
0.21192
0.211912
0.211904
0.211895
0.211887
0.211879
0.21187
0.211861
0.211852
0.211842
0.211833
0.211823
0.211812
0.211802
0.211791
0.21178
0.211768
0.211756
0.211743
0.211729
0.211715
0.2117
0.211684
0.211669
0.211655
0.212178
0.212173
0.212168
0.212163
0.212157
0.212152
0.212146
0.212141
0.212135
0.212129
0.212123
0.212117
0.212111
0.212104
0.212098
0.212091
0.212084
0.212077
0.212069
0.212061
0.212053
0.212045
0.212037
0.212028
0.212019
0.21201
0.212002
0.211994
0.211989
0.212325
0.212321
0.212318
0.212314
0.21231
0.212307
0.212303
0.212299
0.212296
0.212292
0.212288
0.212284
0.21228
0.212276
0.212271
0.212267
0.212262
0.212258
0.212253
0.212248
0.212243
0.212238
0.212232
0.212227
0.212222
0.212218
0.212214
0.212212
0.212213
0.212418
0.212416
0.212414
0.212411
0.212409
0.212407
0.212404
0.212402
0.2124
0.212397
0.212395
0.212392
0.21239
0.212387
0.212384
0.212382
0.212379
0.212376
0.212373
0.21237
0.212367
0.212364
0.212361
0.212358
0.212356
0.212355
0.212354
0.212356
0.21236
0.212478
0.212476
0.212475
0.212473
0.212472
0.21247
0.212469
0.212468
0.212466
0.212465
0.212463
0.212462
0.21246
0.212459
0.212457
0.212455
0.212454
0.212452
0.21245
0.212448
0.212447
0.212445
0.212444
0.212443
0.212442
0.212443
0.212445
0.212449
0.212456
0.212516
0.212515
0.212514
0.212513
0.212512
0.212511
0.21251
0.212509
0.212509
0.212508
0.212507
0.212506
0.212505
0.212504
0.212503
0.212502
0.212501
0.2125
0.212499
0.212498
0.212498
0.212497
0.212497
0.212497
0.212498
0.2125
0.212503
0.212508
0.212517
0.21254
0.212539
0.212538
0.212538
0.212537
0.212537
0.212536
0.212536
0.212535
0.212535
0.212534
0.212534
0.212533
0.212533
0.212532
0.212532
0.212531
0.212531
0.21253
0.21253
0.21253
0.21253
0.21253
0.212531
0.212532
0.212535
0.212539
0.212545
0.212554
0.212555
0.212554
0.212554
0.212553
0.212553
0.212553
0.212552
0.212552
0.212552
0.212552
0.212552
0.212551
0.212551
0.212551
0.212551
0.21255
0.21255
0.21255
0.21255
0.21255
0.21255
0.21255
0.212551
0.212552
0.212554
0.212557
0.212561
0.212568
0.212577
0.212564
0.212563
0.212563
0.212563
0.212563
0.212563
0.212562
0.212562
0.212562
0.212562
0.212562
0.212562
0.212562
0.212562
0.212562
0.212562
0.212561
0.212561
0.212561
0.212561
0.212562
0.212562
0.212563
0.212564
0.212566
0.21257
0.212575
0.212582
0.212591
0.212569
0.212569
0.212569
0.212568
0.212568
0.212568
0.212568
0.212568
0.212568
0.212568
0.212568
0.212568
0.212568
0.212568
0.212568
0.212568
0.212568
0.212568
0.212568
0.212568
0.212569
0.212569
0.21257
0.212571
0.212574
0.212577
0.212582
0.212589
0.212599
0.212571
0.212571
0.212571
0.212571
0.212571
0.212571
0.212571
0.212571
0.212571
0.212571
0.212571
0.212571
0.212571
0.212571
0.212571
0.212571
0.212571
0.212571
0.212571
0.212571
0.212572
0.212572
0.212573
0.212575
0.212577
0.212581
0.212586
0.212593
0.212602
0.212572
0.212572
0.212572
0.212571
0.212571
0.212571
0.212571
0.212571
0.212571
0.212571
0.212571
0.212571
0.212571
0.212571
0.212571
0.212571
0.212571
0.212572
0.212572
0.212572
0.212572
0.212573
0.212574
0.212575
0.212578
0.212581
0.212586
0.212593
0.212603
0.212569
0.212569
0.212569
0.212569
0.212569
0.212569
0.212569
0.212568
0.212568
0.212568
0.212568
0.212568
0.212568
0.212568
0.212568
0.212568
0.212568
0.212568
0.212568
0.212568
0.212569
0.212569
0.21257
0.212572
0.212574
0.212578
0.212583
0.21259
0.212599
0.212563
0.212563
0.212563
0.212563
0.212562
0.212562
0.212562
0.212562
0.212562
0.212561
0.212561
0.212561
0.212561
0.212561
0.212561
0.212561
0.21256
0.21256
0.21256
0.21256
0.21256
0.212561
0.212561
0.212563
0.212565
0.212568
0.212573
0.21258
0.21259
0.212552
0.212552
0.212551
0.212551
0.21255
0.21255
0.21255
0.212549
0.212549
0.212548
0.212548
0.212548
0.212547
0.212547
0.212546
0.212546
0.212545
0.212545
0.212545
0.212544
0.212544
0.212544
0.212544
0.212545
0.212547
0.21255
0.212554
0.212561
0.21257
0.212533
0.212533
0.212532
0.212531
0.21253
0.212529
0.212528
0.212527
0.212527
0.212526
0.212525
0.212524
0.212523
0.212522
0.212521
0.21252
0.212519
0.212518
0.212517
0.212516
0.212515
0.212514
0.212514
0.212514
0.212515
0.212517
0.21252
0.212526
0.212534
0.212502
0.212501
0.212499
0.212498
0.212496
0.212494
0.212493
0.212491
0.212489
0.212488
0.212486
0.212484
0.212482
0.21248
0.212478
0.212476
0.212474
0.212472
0.212469
0.212467
0.212465
0.212463
0.212461
0.21246
0.212459
0.212459
0.21246
0.212464
0.212471
0.212452
0.212449
0.212446
0.212443
0.21244
0.212437
0.212434
0.212431
0.212428
0.212425
0.212421
0.212418
0.212414
0.21241
0.212407
0.212403
0.212399
0.212394
0.21239
0.212386
0.212381
0.212376
0.212372
0.212368
0.212364
0.21236
0.212358
0.212359
0.212362
0.212371
0.212366
0.212361
0.212356
0.212351
0.212346
0.21234
0.212334
0.212329
0.212323
0.212317
0.21231
0.212304
0.212297
0.21229
0.212283
0.212275
0.212268
0.21226
0.212251
0.212243
0.212234
0.212225
0.212215
0.212206
0.212197
0.212189
0.212183
0.21218
0.212243
0.212235
0.212227
0.212218
0.212209
0.2122
0.212191
0.212181
0.212171
0.212161
0.21215
0.212139
0.212128
0.212116
0.212104
0.212091
0.212078
0.212064
0.21205
0.212035
0.21202
0.212004
0.211987
0.21197
0.211952
0.211933
0.211915
0.211897
0.211884
0.212045
0.212031
0.212017
0.212003
0.211988
0.211973
0.211957
0.211941
0.211924
0.211906
0.211889
0.21187
0.211851
0.211831
0.21181
0.211789
0.211767
0.211743
0.211719
0.211694
0.211668
0.21164
0.211611
0.211581
0.211549
0.211515
0.21148
0.211445
0.211413
0.211741
0.211719
0.211696
0.211672
0.211648
0.211623
0.211597
0.211571
0.211543
0.211515
0.211486
0.211455
0.211424
0.211391
0.211357
0.211322
0.211286
0.211248
0.211209
0.211167
0.211124
0.211079
0.211031
0.210981
0.210927
0.21087
0.21081
0.210747
0.210687
0.211287
0.211252
0.211216
0.211178
0.21114
0.2111
0.211059
0.211017
0.210973
0.210928
0.210881
0.210833
0.210783
0.210731
0.210677
0.210621
0.210563
0.210503
0.21044
0.210374
0.210306
0.210234
0.210158
0.210077
0.209992
0.2099
0.209801
0.209697
0.209594
0.21062
0.210566
0.21051
0.210452
0.210393
0.210332
0.210268
0.210203
0.210135
0.210065
0.209992
0.209917
0.20984
0.209759
0.209676
0.209589
0.209499
0.209406
0.209309
0.209207
0.209101
0.20899
0.208873
0.208749
0.208617
0.208474
0.208321
0.208156
0.207989
0.209621
0.209539
0.209456
0.209369
0.20928
0.209187
0.209092
0.208993
0.208892
0.208786
0.208678
0.208565
0.208449
0.208328
0.208203
0.208074
0.20794
0.2078
0.207655
0.207504
0.207346
0.207181
0.207008
0.206824
0.206629
0.206418
0.206191
0.205943
0.205689
0.208125
0.208006
0.207883
0.207756
0.207626
0.207491
0.207352
0.207208
0.20706
0.206907
0.206749
0.206586
0.206417
0.206243
0.206062
0.205875
0.205682
0.205481
0.205272
0.205056
0.20483
0.204594
0.204346
0.204085
0.203808
0.203509
0.203185
0.202831
0.20246
0.205949
0.205782
0.20561
0.205433
0.205251
0.205063
0.204869
0.204669
0.204464
0.204251
0.204033
0.203807
0.203574
0.203334
0.203085
0.202829
0.202564
0.202289
0.202005
0.201709
0.201403
0.201083
0.200748
0.200396
0.200023
0.199622
0.199186
0.198706
0.198197
0.202928
0.202708
0.202482
0.20225
0.202011
0.201766
0.201513
0.201254
0.200987
0.200712
0.200429
0.200139
0.199839
0.199531
0.199213
0.198886
0.198548
0.198199
0.197838
0.197465
0.197078
0.196676
0.196256
0.195816
0.19535
0.19485
0.194306
0.193703
0.193054
0.198737
0.198467
0.19819
0.197906
0.197615
0.197316
0.197011
0.196697
0.196375
0.196045
0.195707
0.195359
0.195003
0.194636
0.19426
0.193873
0.193475
0.193066
0.192644
0.192208
0.191758
0.191291
0.190805
0.190296
0.189759
0.189183
0.188555
0.18785
0.187083
0.192848
0.192544
0.192233
0.191916
0.191592
0.191261
0.190923
0.190577
0.190224
0.189864
0.189495
0.189117
0.188731
0.188336
0.187932
0.187518
0.187093
0.186658
0.186211
0.18575
0.185276
0.184786
0.184277
0.183745
0.183184
0.182581
0.18192
0.181164
0.180327
0.18538
0.185066
0.184746
0.18442
0.184089
0.183751
0.183407
0.183056
0.182699
0.182335
0.181964
0.181586
0.1812
0.180806
0.180404
0.179994
0.179574
0.179145
0.178705
0.178253
0.177789
0.17731
0.176813
0.176294
0.175746
0.175153
0.174497
0.173728
0.172855
0.177261
0.176942
0.176618
0.176288
0.175954
0.175613
0.175268
0.174916
0.174559
0.174195
0.173825
0.173448
0.173065
0.172675
0.172277
0.171872
0.171458
0.171035
0.170603
0.170161
0.169706
0.169237
0.168751
0.168243
0.167705
0.16712
0.166467
0.165679
0.164761
0.167946
0.167628
0.167306
0.166979
0.166648
0.166311
0.165969
0.165622
0.16527
0.164912
0.164548
0.164179
0.163803
0.16342
0.163031
0.162634
0.162229
0.161815
0.161392
0.160957
0.160509
0.160045
0.159559
0.159043
0.158478
0.157839
0.157043
0.156085
0.158163
0.157861
0.157556
0.157246
0.156932
0.156613
0.15629
0.155963
0.155631
0.155293
0.154951
0.154604
0.154251
0.153892
0.153527
0.153156
0.152777
0.15239
0.151995
0.151589
0.15117
0.150736
0.15028
0.149795
0.149258
0.148643
0.147848
0.146852
0.147639
0.14736
0.147077
0.146791
0.146501
0.146208
0.145911
0.145609
0.145304
0.144994
0.14468
0.144362
0.144038
0.14371
0.143376
0.143036
0.14269
0.142337
0.141975
0.141604
0.14122
0.140822
0.140403
0.139955
0.139454
0.13887
0.138084
0.137049
0.136346
0.136094
0.13584
0.135583
0.135323
0.135059
0.134792
0.134522
0.134248
0.133971
0.13369
0.133405
0.133115
0.132822
0.132523
0.132219
0.13191
0.131594
0.131271
0.130938
0.130595
0.130237
0.129859
0.129452
0.128992
0.128445
0.127676
0.126596
0.124135
0.123915
0.123692
0.123467
0.12324
0.12301
0.122777
0.122541
0.122302
0.12206
0.121815
0.121566
0.121314
0.121058
0.120798
0.120533
0.120263
0.119987
0.119705
0.119414
0.119113
0.118799
0.118465
0.118102
0.117687
0.117182
0.116436
0.115303
0.110618
0.110432
0.110244
0.110053
0.109861
0.109666
0.109469
0.10927
0.109068
0.108864
0.108657
0.108447
0.108234
0.108017
0.107798
0.107574
0.107345
0.107112
0.106872
0.106625
0.106369
0.1061
0.105812
0.105496
0.10513
0.104671
0.103958
0.102765
0.0948301
0.0946802
0.0945286
0.0943754
0.0942204
0.0940637
0.0939051
0.0937446
0.0935822
0.0934176
0.0932509
0.0930818
0.0929101
0.0927358
0.0925585
0.0923779
0.0921934
0.0920045
0.0918102
0.0916092
0.0913996
0.0911784
0.0909404
0.0906755
0.0903641
0.0899573
0.0892936
0.0880419
0.0738669
0.0737583
0.0736484
0.0735374
0.0734251
0.0733116
0.0731967
0.0730804
0.0729626
0.0728433
0.0727224
0.0725997
0.0724751
0.0723485
0.0722195
0.0720879
0.0719533
0.0718151
0.0716726
0.0715244
0.0713692
0.0712037
0.0710244
0.0708202
0.0705782
0.0702414
0.0696717
0.0684257
0.0363579
0.0363136
0.0362688
0.0362234
0.0361776
0.0361311
0.0360841
0.0360365
0.0359882
0.0359393
0.0358895
0.0358389
0.0357874
0.0357348
0.035681
0.0356258
0.035569
0.03551
0.0354484
0.0353834
0.035314
0.0352378
0.0351535
0.0350509
0.0349308
0.0347338
0.0344363
0.0334908
0.0503475
0.05081
0.0511494
0.05126
0.0511526
0.0509714
0.0508063
0.0506673
0.0505425
0.0504269
0.0503166
0.0502086
0.0501018
0.0499954
0.0498896
0.0497835
0.0496799
0.049573
0.0494794
0.0493626
0.0493211
0.0491414
0.0493133
0.048912
0.0506567
0.103083
0.104126
0.104583
0.104665
0.104458
0.104095
0.103674
0.103251
0.102835
0.102419
0.101997
0.101564
0.101117
0.100653
0.100173
0.0996722
0.0991544
0.098609
0.0980576
0.0974471
0.0968906
0.0961566
0.0957302
0.0948024
0.0962035
0.130699
0.131661
0.132103
0.132172
0.131951
0.131549
0.131062
0.13054
0.13001
0.129474
0.128927
0.128364
0.12778
0.127175
0.126545
0.125888
0.125204
0.124486
0.123748
0.122951
0.122178
0.12126
0.120559
0.119542
0.12053
0.149785
0.150567
0.150926
0.150956
0.150721
0.150309
0.149796
0.149234
0.148651
0.148054
0.147441
0.146808
0.146151
0.145468
0.144756
0.144011
0.143233
0.142416
0.14157
0.140664
0.13976
0.138737
0.13786
0.136804
0.137417
0.164176
0.16479
0.165063
0.165054
0.164814
0.164407
0.163897
0.16333
0.162731
0.162113
0.161475
0.160813
0.160126
0.159408
0.158658
0.157872
0.157049
0.156183
0.155279
0.154318
0.153339
0.152262
0.151277
0.150202
0.15051
0.175358
0.17583
0.176029
0.175992
0.175755
0.175367
0.174879
0.174331
0.173744
0.173134
0.1725
0.171841
0.171154
0.170436
0.169682
0.16889
0.168058
0.16718
0.16626
0.165282
0.164274
0.16318
0.162139
0.161066
0.161131
0.184136
0.184495
0.184635
0.18458
0.184354
0.183995
0.183543
0.183029
0.182475
0.181892
0.181285
0.180652
0.179989
0.179294
0.178563
0.177792
0.176979
0.176118
0.175213
0.174249
0.173246
0.172167
0.17111
0.170057
0.169935
0.191038
0.191305
0.191401
0.191337
0.19113
0.190806
0.190397
0.189929
0.18942
0.188882
0.188317
0.187725
0.187104
0.18645
0.185759
0.185029
0.184256
0.183436
0.182567
0.181642
0.180671
0.179631
0.178589
0.177572
0.17731
0.196442
0.196639
0.196702
0.196636
0.196451
0.196167
0.195807
0.195391
0.194936
0.19445
0.193938
0.193399
0.192831
0.192231
0.191594
0.190919
0.190201
0.189436
0.188622
0.187753
0.186834
0.185852
0.184849
0.183881
0.183518
0.200641
0.200784
0.200825
0.200762
0.200603
0.20036
0.20005
0.19969
0.199292
0.198865
0.198411
0.197932
0.197424
0.196885
0.196311
0.1957
0.195047
0.194349
0.193602
0.192801
0.191948
0.191038
0.190091
0.189183
0.188752
0.203871
0.203974
0.203999
0.203944
0.203811
0.203608
0.203349
0.203044
0.202705
0.202338
0.201945
0.201528
0.201084
0.20061
0.200104
0.199562
0.19898
0.198354
0.197681
0.196958
0.19618
0.19535
0.194473
0.193634
0.193162
0.206323
0.206397
0.206413
0.206367
0.20626
0.206096
0.205884
0.205633
0.205351
0.205043
0.204711
0.204356
0.203976
0.203569
0.203131
0.20266
0.202151
0.201601
0.201007
0.200364
0.199668
0.198923
0.198124
0.197359
0.196868
0.208159
0.208212
0.208223
0.208187
0.208104
0.207976
0.207808
0.207607
0.207378
0.207126
0.206852
0.206557
0.206239
0.205896
0.205526
0.205124
0.204688
0.204214
0.203698
0.203138
0.202525
0.201868
0.201151
0.200463
0.19997
0.209511
0.20955
0.209559
0.209534
0.209472
0.209376
0.209247
0.209091
0.20891
0.208709
0.208489
0.208249
0.20799
0.207707
0.2074
0.207066
0.206699
0.206299
0.20586
0.20538
0.20485
0.20428
0.203646
0.203037
0.202556
0.210489
0.210519
0.210528
0.210513
0.21047
0.210401
0.210307
0.210189
0.210051
0.209896
0.209723
0.209534
0.209327
0.2091
0.208852
0.208579
0.208278
0.207946
0.20758
0.207177
0.206726
0.206241
0.205689
0.205158
0.204699
0.211185
0.211209
0.211219
0.211212
0.211186
0.21114
0.211074
0.210989
0.210888
0.210772
0.210641
0.210496
0.210335
0.210158
0.209962
0.209744
0.209503
0.209235
0.208935
0.208603
0.208228
0.207822
0.207349
0.206892
0.206462
0.211671
0.211691
0.211703
0.211703
0.21169
0.211662
0.21162
0.211562
0.211492
0.211409
0.211313
0.211206
0.211085
0.21095
0.2108
0.210631
0.210442
0.21023
0.209991
0.209724
0.209418
0.209085
0.208687
0.208301
0.207904
0.212003
0.212022
0.212035
0.212041
0.212038
0.212025
0.212001
0.211966
0.21192
0.211864
0.211798
0.211721
0.211634
0.211536
0.211424
0.211297
0.211154
0.210991
0.210805
0.210596
0.210352
0.210085
0.209755
0.209434
0.209072
0.212227
0.212244
0.212258
0.212269
0.212274
0.212273
0.212263
0.212245
0.212219
0.212184
0.212141
0.21209
0.212031
0.211962
0.211882
0.211791
0.211686
0.211565
0.211425
0.211267
0.211076
0.210868
0.210599
0.210337
0.210011
0.212374
0.21239
0.212406
0.21242
0.212431
0.212438
0.212439
0.212435
0.212423
0.212405
0.212381
0.21235
0.212313
0.212268
0.212214
0.212152
0.212078
0.211993
0.211892
0.211776
0.211632
0.211475
0.211259
0.211049
0.210757
0.212469
0.212485
0.212502
0.212518
0.212534
0.212547
0.212556
0.212561
0.212561
0.212556
0.212546
0.21253
0.21251
0.212484
0.212451
0.212412
0.212364
0.212307
0.212238
0.212157
0.212053
0.211939
0.211768
0.211604
0.211344
0.212529
0.212545
0.212562
0.212581
0.212599
0.212616
0.212632
0.212644
0.212652
0.212657
0.212657
0.212653
0.212646
0.212634
0.212618
0.212596
0.212569
0.212535
0.212491
0.212439
0.212367
0.212288
0.212156
0.212031
0.211799
0.212567
0.212582
0.2126
0.212619
0.21264
0.21266
0.21268
0.212697
0.212711
0.212723
0.212731
0.212736
0.212738
0.212737
0.212732
0.212725
0.212713
0.212696
0.212672
0.212643
0.212597
0.212547
0.212446
0.212352
0.212145
0.21259
0.212605
0.212623
0.212643
0.212665
0.212687
0.21271
0.21273
0.212749
0.212765
0.212778
0.212789
0.212798
0.212805
0.212809
0.212812
0.212811
0.212808
0.212799
0.212788
0.212761
0.212732
0.212656
0.212587
0.2124
0.212603
0.212618
0.212636
0.212657
0.21268
0.212704
0.212727
0.21275
0.212772
0.212791
0.212808
0.212823
0.212837
0.212849
0.212859
0.212869
0.212876
0.212883
0.212884
0.212885
0.212872
0.21286
0.212802
0.21275
0.21258
0.212611
0.212626
0.212644
0.212665
0.212688
0.212713
0.212738
0.212762
0.212785
0.212806
0.212825
0.212843
0.21286
0.212875
0.212889
0.212903
0.212916
0.212928
0.212937
0.212945
0.212942
0.21294
0.212894
0.212854
0.212696
0.212615
0.21263
0.212648
0.212669
0.212692
0.212717
0.212743
0.212767
0.212791
0.212813
0.212834
0.212853
0.21287
0.212887
0.212903
0.212919
0.212935
0.21295
0.212962
0.212975
0.212976
0.21298
0.212941
0.212905
0.212755
0.212615
0.21263
0.212649
0.21267
0.212693
0.212718
0.212743
0.212768
0.212792
0.212814
0.212834
0.212853
0.212871
0.212888
0.212904
0.21292
0.212936
0.212951
0.212964
0.212977
0.212979
0.212982
0.212944
0.212908
0.212761
0.212612
0.212627
0.212645
0.212666
0.212689
0.212714
0.212739
0.212763
0.212785
0.212806
0.212825
0.212842
0.212858
0.212873
0.212887
0.2129
0.212912
0.212923
0.212932
0.212939
0.212936
0.212932
0.212888
0.212843
0.212693
0.212602
0.212618
0.212636
0.212657
0.21268
0.212703
0.212726
0.212748
0.212768
0.212786
0.212802
0.212815
0.212827
0.212837
0.212846
0.212853
0.212859
0.212862
0.212861
0.212858
0.212842
0.212824
0.212765
0.212703
0.212542
0.212583
0.212599
0.212617
0.212638
0.212659
0.212681
0.212702
0.21272
0.212736
0.212749
0.21276
0.212767
0.212772
0.212775
0.212775
0.212773
0.212766
0.212757
0.212741
0.21272
0.212685
0.212645
0.212562
0.212476
0.212296
0.212548
0.212564
0.212583
0.212602
0.212622
0.21264
0.212657
0.21267
0.21268
0.212686
0.212688
0.212686
0.212681
0.212672
0.21266
0.212643
0.21262
0.212592
0.212554
0.212509
0.212446
0.212375
0.212259
0.212139
0.211935
0.212485
0.212502
0.21252
0.212538
0.212555
0.212569
0.212579
0.212584
0.212584
0.212579
0.212569
0.212555
0.212535
0.21251
0.212479
0.212442
0.212396
0.212342
0.212276
0.212198
0.212099
0.211988
0.211828
0.211665
0.21143
0.212377
0.212396
0.212413
0.212429
0.21244
0.212447
0.212447
0.212441
0.212427
0.212407
0.21238
0.212347
0.212307
0.212259
0.212204
0.212139
0.212063
0.211975
0.211871
0.211752
0.211606
0.211444
0.21123
0.211017
0.210744
0.212197
0.212217
0.212234
0.212245
0.212249
0.212245
0.212231
0.212207
0.212175
0.212133
0.212083
0.212025
0.211958
0.211881
0.211793
0.211693
0.211578
0.211447
0.211295
0.211124
0.210921
0.210699
0.21042
0.210146
0.209833
0.211903
0.211926
0.211941
0.211947
0.21194
0.21192
0.211886
0.211839
0.211779
0.211709
0.211629
0.211538
0.211436
0.211321
0.211192
0.211047
0.210884
0.2107
0.210491
0.210257
0.209987
0.209694
0.20934
0.208997
0.208641
0.211435
0.211464
0.211477
0.211474
0.211452
0.21141
0.211349
0.21127
0.211176
0.211069
0.21095
0.210818
0.210671
0.21051
0.21033
0.210131
0.209909
0.209662
0.209386
0.20908
0.208732
0.208359
0.20792
0.207502
0.207103
0.210713
0.210749
0.210761
0.210746
0.210702
0.210631
0.210534
0.210415
0.210278
0.210125
0.209958
0.209775
0.209575
0.209357
0.209118
0.208855
0.208565
0.208246
0.207893
0.207506
0.207072
0.20661
0.206079
0.20558
0.205142
0.209626
0.209672
0.209682
0.209651
0.20958
0.209471
0.209329
0.20916
0.20897
0.208762
0.208538
0.208297
0.208035
0.207753
0.207445
0.20711
0.206744
0.206344
0.205906
0.205431
0.204904
0.204348
0.203719
0.20314
0.202668
0.208028
0.208091
0.208098
0.208048
0.207941
0.207785
0.207588
0.20736
0.207109
0.206839
0.20655
0.206242
0.205912
0.205558
0.205175
0.204761
0.204313
0.203828
0.2033
0.202732
0.202109
0.201457
0.200727
0.20007
0.199575
0.205736
0.205821
0.205827
0.205752
0.205602
0.20539
0.20513
0.204834
0.204515
0.204176
0.203819
0.20344
0.203037
0.202606
0.202144
0.201649
0.201115
0.200543
0.199924
0.199264
0.198543
0.197798
0.196969
0.196241
0.195737
0.202517
0.202633
0.202638
0.202534
0.202335
0.202058
0.201726
0.201359
0.200968
0.200559
0.200131
0.19968
0.199202
0.198695
0.198155
0.197578
0.196962
0.196304
0.195597
0.194849
0.194037
0.193207
0.192284
0.191498
0.191003
0.198273
0.198427
0.198433
0.198298
0.198044
0.197701
0.197297
0.19686
0.196402
0.195928
0.195434
0.194918
0.194374
0.193798
0.193187
0.192539
0.191849
0.191118
0.190335
0.189514
0.188625
0.187725
0.186725
0.185901
0.185437
0.193159
0.193361
0.193371
0.193207
0.1929
0.192494
0.192026
0.191529
0.191016
0.190488
0.189943
0.189374
0.188777
0.188147
0.187482
0.186778
0.186032
0.185245
0.184406
0.183531
0.182586
0.181639
0.180584
0.179745
0.179332
0.187238
0.187496
0.187515
0.187323
0.186969
0.186508
0.185987
0.185443
0.184888
0.184322
0.18374
0.183134
0.182499
0.181831
0.181127
0.180386
0.179602
0.178778
0.177904
0.176995
0.176016
0.175043
0.173957
0.173121
0.172779
0.180567
0.18089
0.180921
0.180708
0.180313
0.179807
0.179245
0.178669
0.178087
0.177498
0.176893
0.176265
0.175608
0.174918
0.174193
0.173431
0.172627
0.171786
0.170894
0.169972
0.16898
0.168002
0.166905
0.166089
0.165835
0.173214
0.173607
0.173655
0.173425
0.172998
0.172458
0.17187
0.171275
0.170681
0.170083
0.16947
0.168834
0.16817
0.167474
0.166743
0.165977
0.165171
0.164329
0.163438
0.162521
0.161534
0.160569
0.159482
0.1587
0.158547
0.165243
0.165709
0.165777
0.165536
0.165086
0.164523
0.163922
0.163323
0.162731
0.162136
0.161529
0.160899
0.160241
0.159553
0.158831
0.158075
0.157282
0.156455
0.155582
0.154685
0.153722
0.152784
0.151726
0.150989
0.150948
0.156705
0.157243
0.157333
0.157086
0.156621
0.156047
0.155447
0.154856
0.154278
0.153699
0.153109
0.152497
0.151858
0.151189
0.15049
0.149758
0.148991
0.148193
0.147352
0.14649
0.145565
0.144668
0.143655
0.142969
0.143048
0.147623
0.14823
0.148343
0.148097
0.147626
0.147052
0.146464
0.145893
0.145338
0.144786
0.144223
0.143639
0.14303
0.142393
0.141726
0.141031
0.140302
0.139544
0.138747
0.137932
0.137058
0.136213
0.135259
0.13463
0.134833
0.137985
0.138652
0.13879
0.138548
0.138079
0.137517
0.136951
0.136409
0.135888
0.135371
0.134844
0.134297
0.133727
0.13313
0.132507
0.131856
0.131176
0.130469
0.129727
0.128968
0.128156
0.127371
0.126489
0.125919
0.126249
0.127713
0.12843
0.128591
0.128356
0.127896
0.127355
0.12682
0.126318
0.125838
0.125364
0.12488
0.124378
0.123854
0.123307
0.122735
0.122138
0.121515
0.120868
0.120189
0.119494
0.118755
0.118038
0.117239
0.116727
0.117183
0.116624
0.117369
0.117551
0.117326
0.116881
0.11637
0.115877
0.11542
0.114989
0.114564
0.114131
0.113681
0.113211
0.11272
0.112207
0.111672
0.111113
0.110533
0.109926
0.109304
0.108646
0.108003
0.107298
0.106843
0.107422
0.104313
0.105054
0.10525
0.105035
0.104613
0.104143
0.1037
0.103299
0.102923
0.102555
0.102178
0.101788
0.101379
0.100952
0.100505
0.10004
0.0995545
0.0990499
0.0985241
0.0979818
0.0974158
0.096852
0.0962538
0.0958535
0.096548
0.0898368
0.0905153
0.0907146
0.0905111
0.0901227
0.089708
0.0893295
0.0889933
0.0886833
0.0883798
0.0880698
0.0877472
0.0874097
0.0870565
0.0866877
0.0863027
0.0859024
0.0854848
0.0850532
0.0846028
0.0841441
0.0836698
0.0831962
0.0828514
0.0836452
0.0704068
0.0709091
0.071096
0.0709155
0.0705878
0.0702618
0.0699745
0.0697261
0.069501
0.0692817
0.0690578
0.0688246
0.0685805
0.068325
0.0680589
0.0677808
0.0674936
0.067192
0.0668864
0.0665592
0.0662448
0.065891
0.0655897
0.0653136
0.0661818
0.0349111
0.035249
0.0355397
0.0355004
0.0353771
0.035269
0.0351779
0.0351103
0.0350607
0.0350209
0.0349857
0.0349523
0.0349204
0.0348893
0.0348611
0.0348332
0.0348127
0.0347882
0.0347852
0.0347586
0.0348004
0.0347476
0.0349198
0.0347977
0.0359307
)
;

boundaryField
{
    inlet
    {
        type            fixedValue;
        value           nonuniform 0();
    }
    outlet
    {
        type            zeroGradient;
    }
    upperWall
    {
        type            kqRWallFunction;
        value           nonuniform List<scalar> 
53
(
0.0363579
0.0363136
0.0362688
0.0362234
0.0361776
0.0361311
0.0360841
0.0360365
0.0359882
0.0359393
0.0358895
0.0358389
0.0357874
0.0357348
0.035681
0.0356258
0.035569
0.03551
0.0354484
0.0353834
0.035314
0.0352378
0.0351535
0.0350509
0.0349308
0.0347338
0.0344363
0.0334908
0.0349111
0.035249
0.0355397
0.0355004
0.0353771
0.035269
0.0351779
0.0351103
0.0350607
0.0350209
0.0349857
0.0349523
0.0349204
0.0348893
0.0348611
0.0348332
0.0348127
0.0347882
0.0347852
0.0347586
0.0348004
0.0347476
0.0349198
0.0347977
0.0359307
)
;
    }
    lowerWall
    {
        type            kqRWallFunction;
        value           nonuniform List<scalar> 
55
(
0.0515312
0.0515053
0.0514792
0.0514529
0.0514264
0.0513995
0.0513724
0.0513451
0.0513173
0.0512892
0.0512607
0.0512317
0.0512022
0.051172
0.051141
0.0511091
0.051076
0.0510414
0.0510048
0.0509658
0.0509234
0.0508765
0.050823
0.0507598
0.0506814
0.0505771
0.0504241
0.0501693
0.0496953
0.048741
0.0503475
0.05081
0.0511494
0.05126
0.0511526
0.0509714
0.0508063
0.0506673
0.0505425
0.0504269
0.0503166
0.0502086
0.0501018
0.0499954
0.0498896
0.0497835
0.0496799
0.049573
0.0494794
0.0493626
0.0493211
0.0491414
0.0493133
0.048912
0.0506567
)
;
    }
    frontAndBack
    {
        type            empty;
    }
    procBoundary0to1
    {
        type            processor;
        value           nonuniform List<scalar> 
59
(
0.0515569
0.106449
0.134749
0.153974
0.168241
0.179146