/*--------------------------------*- C++ -*----------------------------------*\
  =========                 |
  \\      /  F ield         | OpenFOAM: The Open Source CFD Toolbox
   \\    /   O peration     | Website:  https://openfoam.org
    \\  /    A nd           | Version:  6
     \\/     M anipulation  |
\*---------------------------------------------------------------------------*/
FoamFile
{
    version     2.0;
    format      ascii;
    class       volScalarField;
    location    "0.02";
    object      nut;
}
// * * * * * * * * * * * * * * * * * * * * * * * * * * * * * * * * * * * * * //

dimensions      [0 2 -1 0 0 0 0];

internalField   nonuniform List<scalar> 
3080
(
2.39947e-05
2.39514e-05
2.39078e-05
2.38639e-05
2.38197e-05
2.37751e-05
2.37301e-05
2.36848e-05
2.36392e-05
2.35932e-05
2.35467e-05
2.34999e-05
2.34527e-05
2.3405e-05
2.33568e-05
2.33081e-05
2.32588e-05
2.32088e-05
2.31581e-05
2.31065e-05
2.30537e-05
2.29995e-05
2.29434e-05
2.28846e-05
2.28218e-05
2.27525e-05
2.26712e-05
2.25658e-05
2.24094e-05
2.21434e-05
0.00018201
0.000181747
0.000181481
0.000181214
0.000180944
0.000180672
0.000180398
0.000180122
0.000179843
0.000179561
0.000179276
0.000178988
0.000178696
0.000178401
0.000178101
0.000177796
0.000177485
0.000177166
0.000176839
0.0001765
0.000176146
0.000175771
0.000175367
0.000174918
0.000174397
0.000173748
0.000172841
0.000171406
0.000168642
0.000163568
0.000324704
0.000324313
0.00032392
0.000323523
0.000323122
0.000322718
0.000322311
0.0003219
0.000321484
0.000321065
0.00032064
0.000320211
0.000319776
0.000319334
0.000318886
0.000318429
0.000317962
0.000317482
0.000316988
0.000316475
0.000315937
0.000315364
0.000314744
0.000314052
0.000313246
0.000312244
0.000310874
0.000308781
0.00030512
0.000298876
0.000436124
0.000435663
0.000435199
0.00043473
0.000434258
0.000433781
0.0004333
0.000432814
0.000432323
0.000431828
0.000431326
0.000430818
0.000430303
0.00042978
0.000429249
0.000428707
0.000428153
0.000427584
0.000426997
0.000426387
0.000425746
0.000425064
0.000424324
0.000423498
0.000422539
0.000421358
0.000419775
0.000417448
0.000413692
0.000407855
0.000525129
0.000524634
0.000524134
0.000523631
0.000523122
0.000522609
0.000522092
0.000521569
0.000521041
0.000520507
0.000519967
0.000519419
0.000518864
0.000518301
0.000517727
0.000517143
0.000516545
0.000515931
0.000515296
0.000514637
0.000513944
0.000513207
0.000512408
0.000511518
0.000510488
0.000509232
0.000507582
0.00050524
0.000501693
0.000496582
0.000597062
0.00059656
0.000596054
0.000595543
0.000595027
0.000594507
0.000593982
0.000593451
0.000592914
0.000592372
0.000591823
0.000591266
0.000590702
0.000590128
0.000589545
0.00058895
0.000588341
0.000587715
0.000587069
0.000586397
0.000585691
0.00058494
0.000584127
0.000583224
0.000582185
0.000580929
0.00057931
0.000577082
0.000573877
0.000569519
0.000655181
0.000654695
0.000654204
0.000653709
0.00065321
0.000652705
0.000652195
0.00065168
0.00065116
0.000650633
0.000650099
0.000649558
0.000649009
0.000648452
0.000647884
0.000647304
0.000646711
0.000646102
0.000645472
0.000644818
0.00064413
0.0006434
0.00064261
0.000641734
0.000640732
0.000639532
0.000638013
0.000635979
0.000633171
0.000629522
0.00070175
0.000701298
0.000700842
0.000700381
0.000699915
0.000699444
0.000698969
0.000698489
0.000698003
0.000697511
0.000697012
0.000696507
0.000695993
0.000695471
0.00069494
0.000694397
0.000693841
0.00069327
0.00069268
0.000692066
0.000691422
0.000690738
0.000689999
0.000689183
0.000688254
0.000687151
0.000685776
0.000683981
0.000681585
0.000678581
0.000738565
0.00073816
0.00073775
0.000737336
0.000736917
0.000736494
0.000736067
0.000735634
0.000735197
0.000734754
0.000734304
0.000733848
0.000733385
0.000732914
0.000732433
0.000731943
0.00073144
0.000730923
0.000730389
0.000729834
0.000729251
0.000728632
0.000727965
0.00072723
0.000726398
0.000725419
0.000724216
0.000722677
0.000720683
0.000718253
0.00076718
0.000766829
0.000766473
0.000766114
0.00076575
0.000765382
0.000765011
0.000764635
0.000764254
0.000763868
0.000763476
0.000763078
0.000762674
0.000762262
0.000761843
0.000761413
0.000760974
0.000760521
0.000760054
0.000759567
0.000759057
0.000758515
0.000757932
0.000757292
0.000756571
0.000755729
0.000754708
0.000753427
0.000751806
0.000749878
0.000788998
0.000788703
0.000788404
0.000788102
0.000787796
0.000787487
0.000787174
0.000786857
0.000786536
0.000786211
0.00078588
0.000785545
0.000785203
0.000784854
0.000784499
0.000784136
0.000783763
0.000783379
0.000782982
0.000782569
0.000782136
0.000781677
0.000781184
0.000780643
0.000780037
0.000779335
0.000778493
0.000777455
0.000776169
0.000774671
0.000805052
0.000804809
0.000804562
0.000804313
0.000804061
0.000803806
0.000803547
0.000803285
0.000803019
0.000802748
0.000802473
0.000802193
0.000801908
0.000801616
0.000801317
0.00080101
0.000800695
0.000800368
0.000800028
0.000799671
0.000799294
0.000798888
0.000798446
0.000797951
0.000797383
0.000796709
0.00079589
0.000794894
0.000793756
0.000817011
0.000816819
0.000816624
0.000816427
0.000816227
0.000816025
0.00081582
0.000815613
0.000815401
0.000815187
0.000814968
0.000814745
0.000814518
0.000814285
0.000814047
0.000813802
0.000813549
0.000813288
0.000813016
0.000812731
0.00081243
0.000812106
0.000811754
0.000811362
0.000810915
0.000810391
0.000809762
0.00080901
0.000808164
0.00082557
0.000825422
0.000825273
0.000825121
0.000824967
0.000824812
0.000824654
0.000824494
0.000824331
0.000824166
0.000823997
0.000823825
0.000823649
0.000823468
0.000823283
0.000823093
0.000822897
0.000822694
0.000822483
0.000822261
0.000822027
0.000821776
0.000821504
0.000821202
0.00082086
0.000820464
0.000819994
0.000819441
0.000818828
0.000831562
0.000831452
0.00083134
0.000831226
0.000831112
0.000830995
0.000830877
0.000830757
0.000830635
0.000830511
0.000830384
0.000830254
0.000830122
0.000829986
0.000829846
0.000829703
0.000829555
0.000829401
0.000829241
0.000829073
0.000828896
0.000828707
0.000828502
0.000828276
0.000828023
0.00082773
0.000827389
0.000826993
0.000826561
0.000835707
0.000835626
0.000835543
0.00083546
0.000835375
0.000835289
0.000835202
0.000835113
0.000835023
0.000834931
0.000834837
0.000834741
0.000834643
0.000834542
0.000834438
0.000834331
0.00083422
0.000834106
0.000833986
0.000833861
0.000833729
0.000833589
0.000833437
0.000833271
0.000833086
0.000832875
0.000832632
0.000832354
0.000832057
0.000838448
0.00083839
0.000838331
0.000838272
0.000838212
0.00083815
0.000838088
0.000838026
0.000837962
0.000837896
0.000837829
0.000837761
0.00083769
0.000837618
0.000837544
0.000837467
0.000837387
0.000837305
0.000837219
0.00083713
0.000837035
0.000836935
0.000836827
0.000836709
0.000836579
0.000836433
0.000836267
0.000836079
0.000835883
0.000840204
0.000840164
0.000840124
0.000840084
0.000840043
0.000840002
0.00083996
0.000839917
0.000839874
0.00083983
0.000839785
0.000839738
0.000839691
0.000839642
0.000839591
0.000839539
0.000839485
0.000839428
0.00083937
0.000839309
0.000839245
0.000839176
0.000839103
0.000839025
0.000838938
0.000838842
0.000838735
0.000838616
0.000838494
0.000841325
0.000841299
0.000841272
0.000841246
0.000841219
0.000841192
0.000841165
0.000841138
0.00084111
0.000841081
0.000841052
0.000841022
0.000840991
0.000840959
0.000840927
0.000840893
0.000840857
0.000840821
0.000840783
0.000840743
0.000840701
0.000840657
0.000840611
0.00084056
0.000840506
0.000840447
0.000840382
0.000840312
0.000840243
0.000842038
0.000842022
0.000842005
0.000841988
0.000841971
0.000841954
0.000841937
0.00084192
0.000841903
0.000841885
0.000841867
0.000841849
0.00084183
0.00084181
0.00084179
0.000841768
0.000841746
0.000841724
0.0008417
0.000841675
0.00084165
0.000841623
0.000841594
0.000841564
0.000841532
0.000841499
0.000841463
0.000841426
0.000841393
0.000842491
0.000842481
0.00084247
0.00084246
0.000842449
0.000842439
0.000842429
0.000842419
0.000842409
0.000842399
0.000842388
0.000842377
0.000842366
0.000842354
0.000842342
0.00084233
0.000842316
0.000842303
0.000842289
0.000842274
0.000842259
0.000842244
0.000842227
0.000842211
0.000842194
0.000842177
0.000842161
0.000842146
0.000842136
0.000842778
0.000842771
0.000842765
0.000842758
0.000842752
0.000842746
0.000842741
0.000842735
0.00084273
0.000842724
0.000842718
0.000842712
0.000842706
0.000842699
0.000842693
0.000842685
0.000842678
0.00084267
0.000842662
0.000842654
0.000842646
0.000842638
0.00084263
0.000842622
0.000842615
0.000842609
0.000842604
0.000842603
0.000842607
0.000842958
0.000842954
0.00084295
0.000842946
0.000842943
0.00084294
0.000842937
0.000842934
0.000842931
0.000842928
0.000842926
0.000842923
0.000842919
0.000842916
0.000842913
0.000842909
0.000842905
0.000842901
0.000842897
0.000842893
0.000842889
0.000842885
0.000842881
0.000842879
0.000842878
0.000842878
0.000842881
0.000842889
0.000842901
0.000843071
0.000843068
0.000843066
0.000843064
0.000843062
0.00084306
0.000843059
0.000843057
0.000843056
0.000843055
0.000843054
0.000843053
0.000843052
0.00084305
0.000843049
0.000843047
0.000843045
0.000843043
0.000843041
0.00084304
0.000843038
0.000843037
0.000843036
0.000843037
0.000843039
0.000843044
0.000843051
0.000843063
0.000843081
0.00084314
0.000843138
0.000843136
0.000843135
0.000843134
0.000843133
0.000843133
0.000843132
0.000843132
0.000843132
0.000843132
0.000843132
0.000843132
0.000843131
0.000843131
0.00084313
0.000843129
0.000843129
0.000843128
0.000843128
0.000843128
0.000843128
0.000843129
0.000843131
0.000843136
0.000843142
0.000843152
0.000843167
0.000843187
0.000843179
0.000843178
0.000843177
0.000843176
0.000843175
0.000843175
0.000843175
0.000843175
0.000843176
0.000843176
0.000843177
0.000843177
0.000843177
0.000843177
0.000843177
0.000843177
0.000843177
0.000843177
0.000843177
0.000843178
0.000843178
0.000843179
0.000843181
0.000843185
0.00084319
0.000843198
0.000843209
0.000843225
0.000843246
0.000843198
0.000843197
0.000843196
0.000843196
0.000843195
0.000843195
0.000843195
0.000843196
0.000843196
0.000843197
0.000843198
0.000843198
0.000843199
0.000843199
0.000843199
0.0008432
0.0008432
0.0008432
0.0008432
0.000843201
0.000843202
0.000843203
0.000843206
0.000843209
0.000843215
0.000843223
0.000843235
0.000843252
0.000843274
0.000843201
0.0008432
0.000843199
0.000843198
0.000843198
0.000843198
0.000843198
0.000843199
0.000843199
0.0008432
0.000843201
0.000843201
0.000843202
0.000843202
0.000843202
0.000843202
0.000843203
0.000843203
0.000843203
0.000843204
0.000843204
0.000843206
0.000843208
0.000843212
0.000843218
0.000843226
0.000843238
0.000843254
0.000843277
0.000843183
0.000843181
0.00084318
0.000843179
0.000843178
0.000843178
0.000843178
0.000843178
0.000843178
0.000843179
0.000843179
0.000843179
0.000843179
0.000843179
0.000843179
0.000843179
0.000843178
0.000843178
0.000843178
0.000843178
0.000843179
0.000843179
0.000843181
0.000843184
0.000843189
0.000843197
0.000843208
0.000843224
0.000843246
0.000843138
0.000843136
0.000843134
0.000843132
0.000843131
0.00084313
0.000843129
0.000843128
0.000843127
0.000843127
0.000843126
0.000843125
0.000843124
0.000843123
0.000843122
0.000843121
0.00084312
0.000843118
0.000843117
0.000843116
0.000843115
0.000843115
0.000843115
0.000843116
0.00084312
0.000843126
0.000843135
0.000843149
0.000843168
0.000843056
0.000843052
0.000843049
0.000843045
0.000843042
0.000843039
0.000843037
0.000843034
0.000843032
0.000843029
0.000843027
0.000843024
0.000843021
0.000843018
0.000843015
0.000843011
0.000843008
0.000843004
0.000843
0.000842997
0.000842993
0.00084299
0.000842987
0.000842985
0.000842985
0.000842987
0.000842992
0.000843001
0.000843017
0.000842915
0.000842908
0.000842902
0.000842896
0.00084289
0.000842883
0.000842878
0.000842872
0.000842866
0.00084286
0.000842854
0.000842847
0.00084284
0.000842833
0.000842826
0.000842818
0.00084281
0.000842802
0.000842793
0.000842785
0.000842776
0.000842767
0.000842758
0.00084275
0.000842742
0.000842736
0.000842733
0.000842733
0.000842741
0.000842681
0.000842669
0.000842658
0.000842646
0.000842634
0.000842622
0.00084261
0.000842598
0.000842586
0.000842573
0.000842561
0.000842547
0.000842533
0.000842519
0.000842503
0.000842488
0.000842471
0.000842454
0.000842437
0.000842419
0.0008424
0.00084238
0.00084236
0.000842339
0.000842318
0.000842298
0.000842278
0.000842261
0.000842252
0.0008423
0.00084228
0.000842258
0.000842237
0.000842215
0.000842193
0.00084217
0.000842147
0.000842124
0.0008421
0.000842074
0.000842048
0.000842022
0.000841994
0.000841965
0.000841934
0.000841903
0.000841871
0.000841837
0.000841801
0.000841764
0.000841725
0.000841684
0.000841642
0.000841597
0.000841549
0.0008415
0.000841452
0.000841412
0.000841689
0.000841653
0.000841615
0.000841577
0.000841538
0.000841498
0.000841457
0.000841416
0.000841372
0.000841328
0.000841282
0.000841234
0.000841185
0.000841134
0.000841081
0.000841025
0.000840968
0.000840908
0.000840846
0.00084078
0.000840712
0.00084064
0.000840563
0.000840482
0.000840396
0.000840302
0.000840203
0.0008401
0.000840005
0.00084072
0.000840658
0.000840594
0.000840528
0.000840461
0.000840391
0.00084032
0.000840246
0.00084017
0.000840092
0.000840011
0.000839927
0.00083984
0.00083975
0.000839657
0.000839559
0.000839458
0.000839353
0.000839243
0.000839128
0.000839006
0.000838878
0.000838743
0.000838598
0.000838442
0.000838273
0.000838089
0.000837894
0.000837705
0.000839205
0.000839101
0.000838994
0.000838884
0.00083877
0.000838653
0.000838532
0.000838408
0.000838279
0.000838146
0.000838008
0.000837866
0.000837718
0.000837565
0.000837406
0.000837241
0.000837069
0.00083689
0.000836703
0.000836507
0.000836301
0.000836083
0.000835852
0.000835605
0.000835339
0.000835048
0.00083473
0.000834387
0.000834046
0.000836869
0.0008367
0.000836525
0.000836345
0.000836159
0.000835967
0.000835769
0.000835565
0.000835354
0.000835135
0.000834909
0.000834675
0.000834432
0.00083418
0.000833919
0.000833647
0.000833365
0.00083307
0.000832763
0.000832442
0.000832104
0.000831748
0.00083137
0.000830966
0.00083053
0.000830054
0.00082953
0.000828959
0.000828378
0.000833372
0.000833103
0.000832825
0.000832538
0.000832242
0.000831936
0.00083162
0.000831294
0.000830956
0.000830607
0.000830245
0.000829871
0.000829483
0.000829081
0.000828664
0.00082823
0.00082778
0.000827311
0.000826821
0.00082631
0.000825773
0.000825208
0.000824609
0.00082397
0.00082328
0.000822528
0.000821698
0.000820787
0.000819845
0.000828225
0.000827808
0.000827377
0.000826933
0.000826473
0.000825999
0.000825508
0.000825001
0.000824477
0.000823935
0.000823374
0.000822793
0.000822191
0.000821568
0.000820921
0.00082025
0.000819553
0.000818827
0.000818072
0.000817283
0.000816456
0.000815587
0.000814669
0.000813691
0.000812638
0.000811491
0.000810224
0.000808827
0.000807359
0.000820509
0.000819881
0.000819234
0.000818565
0.000817875
0.000817162
0.000816425
0.000815664
0.000814878
0.000814066
0.000813226
0.000812356
0.000811457
0.000810525
0.000809561
0.000808561
0.000807523
0.000806446
0.000805325
0.000804157
0.000802936
0.000801655
0.000800305
0.000798871
0.000797333
0.00079566
0.000793814
0.000791766
0.000789585
0.00080898
0.000808064
0.00080712
0.000806146
0.000805142
0.000804106
0.000803037
0.000801935
0.000800797
0.000799622
0.000798409
0.000797156
0.000795861
0.000794523
0.000793139
0.000791707
0.000790224
0.000788687
0.000787092
0.000785432
0.000783703
0.000781895
0.000779994
0.000777983
0.000775833
0.000773501
0.00077093
0.000768063
0.000764969
0.00079232
0.000791045
0.000789733
0.000788382
0.000786991
0.000785559
0.000784085
0.000782567
0.000781003
0.000779392
0.000777732
0.000776021
0.000774256
0.000772437
0.000770559
0.00076862
0.000766618
0.000764547
0.000762403
0.00076018
0.000757871
0.000755462
0.000752941
0.000750282
0.000747451
0.000744389
0.000741015
0.000737231
0.000733095
0.000769439
0.000767783
0.000766082
0.000764336
0.000762543
0.000760702
0.000758811
0.000756868
0.000754873
0.000752822
0.000750715
0.000748548
0.000746321
0.000744029
0.000741671
0.000739244
0.000736743
0.000734165
0.000731504
0.000728754
0.000725904
0.000722944
0.000719855
0.00071661
0.000713165
0.000709448
0.000705352
0.000700725
0.000695599
0.000738249
0.000736255
0.000734213
0.000732124
0.000729985
0.000727795
0.000725554
0.000723259
0.000720908
0.0007185
0.000716034
0.000713506
0.000710915
0.000708259
0.000705534
0.000702738
0.000699867
0.000696916
0.00069388
0.000690753
0.000687524
0.00068418
0.000680703
0.000677061
0.000673206
0.00066905
0.000664462
0.000659223
0.000653319
0.00069551
0.000693331
0.000691108
0.000688841
0.00068653
0.000684172
0.000681766
0.000679313
0.000676809
0.000674253
0.000671645
0.000668981
0.000666261
0.000663482
0.000660642
0.000657738
0.000654766
0.000651723
0.000648603
0.000645399
0.000642103
0.0006387
0.000635171
0.000631483
0.000627584
0.000623373
0.000618697
0.000613258
0.000606974
0.000643051
0.000640877
0.000638666
0.000636418
0.000634131
0.000631806
0.000629441
0.000627035
0.000624587
0.000622096
0.00061956
0.000616978
0.000614349
0.00061167
0.00060894
0.000606156
0.000603314
0.000600413
0.000597445
0.000594406
0.000591285
0.00058807
0.00058474
0.000581263
0.000577585
0.000573592
0.000569115
0.000563769
0.000557377
0.000587999
0.000585868
0.000583705
0.000581509
0.00057928
0.000577018
0.000574721
0.000572388
0.00057002
0.000567614
0.000565169
0.000562685
0.00056016
0.000557592
0.000554979
0.00055232
0.000549611
0.000546849
0.00054403
0.000541147
0.000538191
0.00053515
0.000532005
0.000528722
0.000525248
0.000521461
0.00051718
0.000511933
0.000505414
0.000527066
0.00052502
0.000522947
0.000520845
0.000518715
0.000516555
0.000514364
0.000512143
0.00050989
0.000507604
0.000505284
0.000502929
0.000500538
0.000498108
0.000495638
0.000493126
0.000490568
0.00048796
0.000485296
0.000482568
0.000479765
0.000476868
0.000473845
0.000470643
0.000467141
0.000463148
0.000458114
0.000451572
0.000465353
0.000463476
0.000461576
0.000459652
0.000457704
0.000455731
0.000453732
0.000451707
0.000449655
0.000447576
0.000445468
0.00044333
0.000441162
0.000438961
0.000436726
0.000434456
0.000432146
0.000429794
0.000427394
0.000424938
0.000422417
0.000419813
0.000417096
0.000414218
0.000411058
0.000407428
0.000402715
0.000396261
0.000401349
0.000399678
0.000397988
0.000396277
0.000394546
0.000392795
0.000391023
0.000389229
0.000387412
0.000385573
0.00038371
0.000381823
0.00037991
0.000377971
0.000376004
0.000374006
0.000371976
0.000369911
0.000367805
0.000365653
0.000363444
0.000361165
0.000358788
0.000356269
0.000353496
0.00035029
0.000346002
0.000339766
0.000335441
0.000334002
0.000332548
0.000331077
0.00032959
0.000328086
0.000326566
0.000325028
0.000323472
0.000321898
0.000320305
0.000318692
0.000317059
0.000315404
0.000313727
0.000312025
0.000310298
0.000308541
0.000306753
0.000304926
0.000303053
0.000301122
0.000299108
0.000296976
0.000294626
0.000291893
0.000288135
0.000282281
0.000267844
0.000266659
0.000265462
0.000264252
0.00026303
0.000261795
0.000260547
0.000259286
0.00025801
0.000256721
0.000255417
0.000254099
0.000252764
0.000251413
0.000250045
0.000248658
0.000247252
0.000245823
0.000244369
0.000242886
0.000241367
0.000239802
0.000238173
0.00023645
0.000234551
0.000232333
0.000229208
0.000223948
0.000198709
0.000197798
0.000196878
0.000195949
0.000195012
0.000194065
0.000193109
0.000192143
0.000191168
0.000190182
0.000189187
0.00018818
0.000187163
0.000186134
0.000185093
0.000184039
0.00018297
0.000181886
0.000180784
0.000179662
0.000178514
0.000177333
0.000176107
0.000174811
0.00017339
0.000171721
0.000169329
0.00016494
0.000128392
0.000127777
0.000127156
0.00012653
0.000125897
0.00012526
0.000124616
0.000123967
0.000123312
0.00012265
0.000121983
0.000121308
0.000120627
0.000119939
0.000119244
0.000118541
0.000117829
0.000117107
0.000116375
0.000115631
0.000114871
0.000114092
0.000113286
0.000112435
0.000111512
0.000110421
0.00010885
0.000105689
5.88369e-05
5.85376e-05
5.82359e-05
5.79317e-05
5.76252e-05
5.73163e-05
5.70048e-05
5.66909e-05
5.63744e-05
5.60552e-05
5.57334e-05
5.54089e-05
5.50815e-05
5.47512e-05
5.44178e-05
5.40811e-05
5.3741e-05
5.3397e-05
5.30488e-05
5.26956e-05
5.23365e-05
5.19694e-05
5.15922e-05
5.11961e-05
5.07747e-05
5.02753e-05
4.95685e-05
4.80641e-05
6.10325e-06
6.07196e-06
6.04045e-06
6.00871e-06
5.97674e-06
5.94454e-06
5.91211e-06
5.87943e-06
5.84652e-06
5.81335e-06
5.77993e-06
5.74626e-06
5.71231e-06
5.67808e-06
5.64356e-06
5.60873e-06
5.57356e-06
5.53803e-06
5.50208e-06
5.46566e-06
5.42867e-06
5.39093e-06
5.35233e-06
5.31206e-06
5.27016e-06
5.22207e-06
5.16597e-06
5.06062e-06
2.22729e-05
2.21891e-05
2.20728e-05
2.19002e-05
2.16698e-05
2.14104e-05
2.11421e-05
2.08708e-05
2.05938e-05
2.03099e-05
2.00179e-05
1.97165e-05
1.94052e-05
1.90832e-05
1.87503e-05
1.84058e-05
1.80498e-05
1.76808e-05
1.73014e-05
1.69043e-05
1.65065e-05
1.60704e-05
1.56776e-05
1.5174e-05
1.49782e-05
0.000168765
0.000170908
0.000170968
0.000170045
0.000168577
0.000166854
0.000164971
0.000163045
0.000161087
0.000159079
0.000156998
0.000154831
0.00015257
0.000150211
0.000147751
0.00014518
0.000142506
0.000139693
0.000136806
0.000133677
0.000130594
0.00012699
0.000123891
0.000119503
0.000118739
0.000304228
0.00030771
0.000308524
0.000307702
0.000305839
0.000303414
0.000300698
0.00029782
0.00029487
0.000291835
0.000288692
0.000285418
0.000281999
0.000278425
0.000274688
0.00027077
0.000266675
0.000262359
0.00025789
0.000253069
0.000248242
0.000242698
0.000237779
0.000231268
0.000230687
0.000412139
0.000415764
0.000416896
0.000416245
0.000414335
0.000411657
0.000408553
0.000405197
0.000401707
0.0003981
0.00039436
0.000390465
0.000386398
0.000382142
0.000377686
0.000373009
0.000368108
0.00036294
0.000357558
0.000351784
0.000345924
0.00033933
0.000333274
0.000325844
0.000325127
0.000499827
0.000503097
0.000504226
0.000503654
0.000501788
0.000499057
0.000495803
0.000492231
0.000488464
0.00048455
0.000480482
0.000476243
0.000471813
0.000467175
0.00046231
0.0004572
0.000451834
0.000446172
0.000440252
0.000433922
0.000427433
0.000420245
0.000413459
0.000405625
0.000404511
0.000571923
0.000574668
0.000575628
0.000575063
0.000573267
0.00057059
0.00056734
0.000563728
0.000559874
0.000555845
0.000551646
0.000547262
0.000542675
0.000537865
0.000532813
0.000527496
0.000521902
0.000515991
0.000509788
0.000503168
0.000496327
0.000488831
0.000481598
0.000473624
0.00047199
0.000631271
0.000633465
0.000634196
0.000633604
0.000631898
0.000629346
0.000626213
0.000622693
0.000618906
0.000614919
0.000610747
0.000606381
0.000601803
0.000596992
0.000591927
0.000586586
0.000580951
0.000574986
0.000568702
0.000561997
0.00055502
0.000547431
0.000539978
0.000532032
0.000529849
0.000679826
0.000681512
0.000682012
0.000681394
0.0006798
0.00067743
0.000674498
0.000671176
0.000667576
0.000663759
0.000659747
0.000655534
0.000651103
0.000646434
0.000641505
0.000636292
0.000630774
0.000624917
0.000618722
0.000612105
0.000605174
0.000597668
0.000590184
0.00058238
0.000579701
0.000719117
0.000720365
0.000720664
0.000720041
0.000718582
0.000716437
0.000713769
0.000710724
0.000707401
0.000703856
0.000700109
0.000696158
0.000691989
0.00068758
0.000682908
0.000677948
0.000672679
0.000667067
0.000661104
0.000654722
0.000647991
0.000640719
0.000633366
0.000625805
0.000622719
0.000750459
0.000751349
0.000751493
0.000750888
0.000749587
0.000747694
0.000745333
0.000742619
0.000739636
0.000736434
0.000733031
0.000729425
0.000725603
0.000721543
0.000717223
0.000712618
0.000707703
0.000702447
0.000696833
0.000690806
0.000684406
0.000677492
0.000670411
0.000663186
0.0006598
0.000775049
0.000775659
0.000775692
0.000775131
0.000774003
0.000772376
0.000770342
0.000767988
0.000765383
0.000762567
0.000759557
0.00075635
0.000752933
0.000749285
0.000745385
0.000741207
0.000736725
0.000731907
0.000726734
0.000721155
0.000715189
0.000708732
0.00070204
0.000695234
0.00069166
0.000793992
0.000794394
0.000794358
0.00079386
0.000792909
0.000791549
0.000789843
0.000787855
0.00078564
0.000783228
0.000780633
0.000777851
0.00077487
0.000771671
0.000768231
0.000764524
0.000760524
0.000756202
0.00075153
0.000746466
0.00074101
0.000735087
0.000728874
0.000722554
0.000718905
0.000808306
0.000808561
0.000808489
0.000808065
0.000807288
0.000806182
0.000804789
0.000803156
0.000801321
0.000799308
0.000797126
0.000794773
0.000792234
0.000789492
0.000786526
0.000783309
0.000779816
0.000776017
0.000771882
0.000767374
0.000762477
0.000757135
0.000751467
0.000745683
0.000742062
0.00081891
0.000819065
0.000818982
0.000818636
0.000818021
0.000817147
0.000816042
0.000814735
0.000813254
0.000811617
0.000809828
0.000807884
0.000805773
0.000803477
0.000800976
0.000798245
0.000795258
0.000791986
0.000788399
0.00078446
0.000780145
0.000775411
0.000770326
0.00076511
0.000761604
0.000826607
0.000826699
0.000826622
0.000826352
0.00082588
0.000825211
0.000824358
0.00082334
0.000822177
0.000820879
0.000819449
0.000817882
0.000816167
0.000814289
0.000812226
0.000809957
0.000807456
0.000804695
0.000801643
0.000798266
0.000794532
0.000790408
0.00078592
0.000781286
0.000777967
0.000832083
0.000832138
0.000832074
0.000831874
0.000831526
0.000831029
0.00083039
0.000829621
0.000828731
0.000827729
0.000826614
0.000825382
0.000824021
0.000822519
0.000820855
0.00081901
0.000816959
0.000814676
0.00081213
0.000809289
0.000806115
0.000802583
0.000798686
0.00079463
0.000791551
0.000835901
0.000835936
0.000835891
0.00083575
0.000835504
0.000835149
0.000834686
0.000834121
0.000833461
0.000832707
0.00083186
0.000830915
0.000829861
0.000828687
0.000827375
0.000825907
0.00082426
0.00082241
0.000820327
0.000817982
0.000815333
0.000812359
0.000809028
0.00080553
0.000802724
0.000838511
0.000838538
0.000838511
0.00083842
0.000838255
0.000838012
0.000837689
0.000837289
0.000836813
0.000836263
0.000835637
0.00083493
0.000834134
0.000833238
0.000832227
0.000831085
0.00082979
0.000828322
0.000826651
0.000824751
0.000822579
0.000820118
0.000817315
0.00081434
0.000811825
0.000840262
0.000840286
0.000840276
0.000840224
0.000840122
0.000839965
0.000839751
0.000839479
0.000839148
0.00083876
0.000838311
0.000837797
0.000837212
0.000836545
0.000835784
0.000834915
0.00083392
0.000832778
0.000831464
0.000829954
0.000828205
0.000826202
0.000823878
0.000821385
0.000819163
0.000841414
0.000841438
0.000841443
0.000841421
0.000841366
0.000841274
0.000841141
0.000840966
0.000840747
0.000840484
0.000840173
0.000839811
0.000839393
0.00083891
0.000838352
0.000837707
0.000836959
0.000836091
0.000835079
0.000833902
0.000832517
0.000830915
0.000829015
0.000826952
0.000825012
0.000842159
0.000842185
0.000842201
0.000842201
0.00084218
0.000842136
0.000842063
0.000841959
0.000841824
0.000841654
0.000841449
0.000841204
0.000840915
0.000840576
0.000840178
0.000839712
0.000839163
0.000838518
0.000837754
0.000836855
0.000835778
0.000834516
0.000832982
0.000831294
0.000829617
0.000842632
0.00084266
0.000842684
0.0008427
0.000842704
0.000842693
0.000842663
0.000842611
0.000842536
0.000842436
0.000842308
0.000842151
0.00084196
0.000841731
0.000841456
0.000841129
0.000840737
0.000840269
0.000839705
0.000839031
0.000838206
0.000837227
0.000836
0.000834631
0.000833187
0.000842927
0.000842957
0.000842986
0.000843013
0.000843034
0.000843046
0.000843046
0.000843031
0.000842999
0.000842948
0.000842877
0.000842783
0.000842664
0.000842517
0.000842335
0.000842112
0.00084184
0.000841509
0.000841101
0.000840604
0.000839981
0.000839228
0.000838252
0.000837144
0.000835901
0.000843107
0.000843138
0.000843172
0.000843206
0.000843238
0.000843266
0.000843286
0.000843296
0.000843294
0.000843277
0.000843245
0.000843197
0.000843129
0.00084304
0.000842925
0.00084278
0.000842596
0.000842366
0.000842075
0.000841713
0.000841244
0.000840667
0.000839886
0.000838985
0.000837906
0.000843214
0.000843246
0.000843282
0.000843321
0.000843361
0.000843398
0.000843432
0.000843458
0.000843475
0.000843481
0.000843476
0.000843457
0.000843425
0.000843375
0.000843307
0.000843215
0.000843093
0.000842935
0.000842728
0.000842462
0.000842105
0.000841656
0.000841019
0.00084027
0.000839317
0.000843274
0.000843306
0.000843344
0.000843385
0.000843429
0.000843473
0.000843514
0.00084355
0.000843579
0.0008436
0.00084361
0.00084361
0.000843599
0.000843575
0.000843535
0.000843477
0.000843395
0.000843283
0.00084313
0.000842927
0.000842642
0.000842276
0.000841735
0.000841087
0.00084022
0.000843301
0.000843334
0.000843373
0.000843416
0.000843462
0.000843509
0.000843553
0.000843594
0.000843629
0.000843656
0.000843674
0.000843683
0.000843683
0.000843671
0.000843646
0.000843604
0.000843542
0.000843453
0.000843327
0.000843155
0.000842908
0.000842584
0.000842091
0.000841494
0.000840674
0.000843304
0.000843338
0.000843376
0.00084342
0.000843466
0.000843513
0.000843559
0.0008436
0.000843634
0.000843662
0.000843681
0.000843691
0.000843691
0.00084368
0.000843656
0.000843616
0.000843555
0.000843468
0.000843344
0.000843174
0.00084293
0.000842608
0.000842119
0.000841524
0.00084071
0.000843274
0.000843307
0.000843345
0.000843388
0.000843432
0.000843476
0.000843516
0.000843552
0.000843579
0.000843598
0.000843607
0.000843606
0.000843593
0.000843567
0.000843525
0.000843464
0.000843379
0.000843263
0.000843105
0.000842896
0.000842604
0.000842228
0.000841678
0.000841014
0.000840147
0.000843197
0.00084323
0.000843267
0.000843307
0.000843346
0.000843382
0.000843412
0.000843434
0.000843445
0.000843445
0.000843432
0.000843406
0.000843364
0.000843304
0.000843223
0.000843117
0.000842979
0.000842801
0.00084257
0.000842276
0.000841885
0.000841394
0.000840714
0.000839911
0.000838929
0.000843046
0.00084308
0.000843115
0.000843148
0.000843177
0.000843199
0.00084321
0.000843209
0.000843192
0.000843159
0.000843109
0.000843039
0.000842948
0.000842832
0.000842687
0.000842506
0.00084228
0.000842002
0.000841654
0.000841223
0.000840676
0.000840004
0.000839121
0.000838104
0.000836946
0.000842771
0.000842805
0.000842835
0.000842859
0.000842871
0.00084287
0.00084285
0.000842811
0.00084275
0.000842665
0.000842556
0.000842419
0.000842253
0.000842051
0.000841808
0.000841515
0.000841161
0.000840735
0.000840217
0.000839593
0.000838823
0.0008379
0.000836734
0.000835424
0.00083403
0.000842284
0.000842319
0.000842343
0.000842351
0.000842337
0.000842298
0.00084223
0.000842132
0.000842002
0.00084184
0.000841643