/*--------------------------------*- C++ -*----------------------------------*\
  =========                 |
  \\      /  F ield         | OpenFOAM: The Open Source CFD Toolbox
   \\    /   O peration     | Website:  https://openfoam.org
    \\  /    A nd           | Version:  6
     \\/     M anipulation  |
\*---------------------------------------------------------------------------*/
FoamFile
{
    version     2.0;
    format      ascii;
    class       volScalarField;
    location    "0.02";
    object      p;
}
// * * * * * * * * * * * * * * * * * * * * * * * * * * * * * * * * * * * * * //

dimensions      [0 2 -2 0 0 0 0];

internalField   nonuniform List<scalar> 
3080
(
0.19197
0.191762
0.191553
0.191343
0.191132
0.190921
0.190709
0.190497
0.190285
0.190072
0.189861
0.18965
0.189442
0.189236
0.189035
0.188839
0.188651
0.188474
0.188313
0.188172
0.18806
0.187988
0.187974
0.188042
0.188236
0.188629
0.189379
0.190751
0.193686
0.198636
0.191944
0.191736
0.191528
0.191318
0.191108
0.190898
0.190686
0.190475
0.190263
0.190051
0.189841
0.189631
0.189424
0.189219
0.189019
0.188825
0.18864
0.188466
0.188308
0.188173
0.188067
0.188004
0.188
0.188082
0.188293
0.188701
0.189455
0.190752
0.193407
0.19746
0.191925
0.191718
0.19151
0.191301
0.191091
0.190881
0.19067
0.190459
0.190247
0.190037
0.189827
0.189618
0.189411
0.189208
0.18901
0.188817
0.188634
0.188464
0.18831
0.188178
0.188079
0.188023
0.188029
0.188123
0.188347
0.188767
0.189513
0.190722
0.193004
0.195826
0.191913
0.191706
0.191498
0.19129
0.19108
0.19087
0.19066
0.190449
0.190238
0.190027
0.189817
0.189609
0.189403
0.1892
0.189002
0.18881
0.188628
0.188458
0.188305
0.188175
0.188076
0.188021
0.188027
0.188118
0.188333
0.188726
0.189403
0.19044
0.192219
0.194083
0.191903
0.191697
0.191489
0.191281
0.191071
0.190861
0.190651
0.19044
0.190229
0.190018
0.189809
0.1896
0.189394
0.189191
0.188992
0.1888
0.188617
0.188446
0.188292
0.188159
0.188057
0.187997
0.187993
0.188069
0.188256
0.188597
0.189167
0.189997
0.191303
0.192476
0.191895
0.191689
0.191481
0.191273
0.191063
0.190853
0.190643
0.190432
0.190221
0.19001
0.1898
0.189591
0.189384
0.18918
0.188981
0.188788
0.188603
0.188429
0.188271
0.188134
0.188025
0.187954
0.187935
0.187986
0.188134
0.188407
0.188856
0.189479
0.190385
0.19104
0.191888
0.191681
0.191474
0.191266
0.191056
0.190846
0.190635
0.190424
0.190213
0.190002
0.189791
0.189582
0.189374
0.189169
0.188968
0.188773
0.188585
0.188408
0.188244
0.1881
0.187981
0.187897
0.187857
0.187877
0.187977
0.188175
0.188498
0.188926
0.189501
0.189757
0.191882
0.191675
0.191468
0.191259
0.19105
0.19084
0.190629
0.190417
0.190206
0.189994
0.189782
0.189572
0.189363
0.189156
0.188953
0.188755
0.188564
0.188382
0.188212
0.188059
0.187928
0.187826
0.187762
0.187747
0.187794
0.187912
0.188113
0.188362
0.188661
0.188612
0.191876
0.19167
0.191462
0.191254
0.191044
0.190834
0.190622
0.190411
0.190198
0.189986
0.189774
0.189562
0.189352
0.189143
0.188938
0.188736
0.18854
0.188352
0.188175
0.188012
0.187867
0.187745
0.187654
0.187601
0.187592
0.187631
0.187716
0.187804
0.187874
0.18759
0.191871
0.191665
0.191457
0.191249
0.191039
0.190828
0.190617
0.190404
0.190191
0.189978
0.189765
0.189552
0.18934
0.189129
0.188921
0.188715
0.188515
0.18832
0.188134
0.187959
0.187799
0.187656
0.187537
0.187443
0.187379
0.18734
0.187317
0.187263
0.187143
0.186678
0.191867
0.19166
0.191453
0.191244
0.191034
0.190823
0.190611
0.190398
0.190185
0.189971
0.189756
0.189542
0.189328
0.189114
0.188903
0.188693
0.188487
0.188286
0.18809
0.187903
0.187726
0.187562
0.187412
0.187278
0.187159
0.187047
0.186925
0.186746
0.186471
0.185863
0.191656
0.191448
0.191239
0.191029
0.190818
0.190606
0.190392
0.190178
0.189963
0.189747
0.189531
0.189315
0.189099
0.188884
0.18867
0.188458
0.188249
0.188044
0.187844
0.18765
0.187463
0.187284
0.18711
0.186939
0.186757
0.186546
0.186259
0.185854
0.185133
0.191652
0.191444
0.191235
0.191025
0.190813
0.1906
0.190386
0.190171
0.189955
0.189738
0.189521
0.189302
0.189084
0.188865
0.188646
0.188429
0.188212
0.187997
0.187783
0.187572
0.187363
0.187154
0.186942
0.186721
0.186475
0.186184
0.185803
0.185291
0.184481
0.191648
0.19144
0.191231
0.19102
0.190808
0.190595
0.190381
0.190165
0.189948
0.189729
0.18951
0.189289
0.189068
0.188846
0.188622
0.188398
0.188174
0.187949
0.187722
0.187494
0.187263
0.187025
0.186777
0.186508
0.186205
0.185843
0.18538
0.184778
0.183897
0.191644
0.191436
0.191227
0.191016
0.190804
0.19059
0.190375
0.190158
0.18994
0.18972
0.189499
0.189277
0.189052
0.188826
0.188598
0.188368
0.188136
0.187901
0.187661
0.187417
0.187164
0.1869
0.186617
0.186305
0.185948
0.185523
0.18499
0.184314
0.183374
0.19164
0.191432
0.191223
0.191012
0.190799
0.190585
0.190369
0.190152
0.189933
0.189712
0.189489
0.189264
0.189037
0.188807
0.188574
0.188339
0.188099
0.187853
0.187602
0.187341
0.187068
0.186778
0.186463
0.186111
0.185707
0.185227
0.184633
0.183893
0.182907
0.191637
0.191428
0.191219
0.191007
0.190795
0.19058
0.190364
0.190145
0.189925
0.189703
0.189478
0.189251
0.189021
0.188788
0.188551
0.18831
0.188062
0.187808
0.187544
0.187268
0.186976
0.186662
0.186317
0.18593
0.185483
0.184954
0.184308
0.183515
0.18249
0.191633
0.191425
0.191215
0.191003
0.19079
0.190575
0.190358
0.190139
0.189918
0.189695
0.189469
0.189239
0.189007
0.18877
0.188529
0.188282
0.188028
0.187765
0.18749
0.1872
0.18689
0.186554
0.186183
0.185763
0.185279
0.184707
0.184016
0.183178
0.182121
0.191629
0.191421
0.191211
0.190999
0.190786
0.19057
0.190353
0.190133
0.189912
0.189687
0.189459
0.189228
0.188993
0.188754
0.188509
0.188257
0.187996
0.187725
0.18744
0.187137
0.186811
0.186456
0.18606
0.185612
0.185094
0.184485
0.183755
0.182879
0.181796
0.191625
0.191417
0.191207
0.190995
0.190782
0.190566
0.190348
0.190128
0.189905
0.18968
0.189451
0.189218
0.188981
0.188738
0.18849
0.188233
0.187967
0.187688
0.187394
0.187079
0.186739
0.186366
0.185949
0.185475
0.184929
0.184287
0.183525
0.182616
0.181511
0.191622
0.191414
0.191203
0.190992
0.190778
0.190562
0.190344
0.190123
0.189899
0.189673
0.189443
0.189208
0.188969
0.188724
0.188472
0.188212
0.18794
0.187655
0.187352
0.187028
0.186675
0.186286
0.18585
0.185355
0.184783
0.184114
0.183324
0.182388
0.181265
0.191618
0.19141
0.1912
0.190988
0.190774
0.190558
0.190339
0.190118
0.189894
0.189666
0.189435
0.1892
0.188959
0.188712
0.188457
0.188193
0.187916
0.187625
0.187316
0.186982
0.186618
0.186216
0.185764
0.18525
0.184657
0.183966
0.183152
0.182193
0.181056
0.191615
0.191406
0.191196
0.190984
0.19077
0.190554
0.190335
0.190113
0.189889
0.189661
0.189429
0.189192
0.18895
0.188701
0.188443
0.188176
0.187896
0.1876
0.187284
0.186943
0.18657
0.186156
0.185691
0.185161
0.184551
0.183841
0.183008
0.18203
0.180881
0.191611
0.191403
0.191193
0.190981
0.190767
0.19055
0.190331
0.190109
0.189884
0.189656
0.189423
0.189185
0.188942
0.188691
0.188432
0.188162
0.187879
0.187579
0.187258
0.18691
0.18653
0.186107
0.185631
0.185089
0.184464
0.183739
0.182891
0.181899
0.18074
0.191608
0.1914
0.19119
0.190978
0.190763
0.190547
0.190328
0.190106
0.18988
0.189651
0.189418
0.189179
0.188935
0.188683
0.188422
0.18815
0.187864
0.187561
0.187237
0.186884
0.186498
0.186068
0.185584
0.185032
0.184397
0.183661
0.182802
0.181799
0.180632
0.191604
0.191396
0.191187
0.190975
0.19076
0.190544
0.190324
0.190102
0.189877
0.189647
0.189414
0.189175
0.188929
0.188677
0.188415
0.188141
0.187854
0.187548
0.187221
0.186865
0.186475
0.18604
0.18555
0.184992
0.184349
0.183605
0.182738
0.181728
0.180557
0.191601
0.191393
0.191184
0.190972
0.190757
0.190541
0.190321
0.190099
0.189873
0.189644
0.18941
0.189171
0.188925
0.188672
0.188409
0.188135
0.187846
0.187539
0.18721
0.186853
0.18646
0.186022
0.185529
0.184967
0.184321
0.183572
0.182702
0.181688
0.180513
0.191598
0.19139
0.191181
0.190969
0.190755
0.190538
0.190319
0.190096
0.189871
0.189641
0.189407
0.189168
0.188922
0.188668
0.188405
0.188131
0.187842
0.187534
0.187205
0.186847
0.186453
0.186014
0.185521
0.184958
0.184311
0.183562
0.18269
0.181676
0.1805
0.191595
0.191387
0.191178
0.190966
0.190752
0.190535
0.190316
0.190094
0.189868
0.189639
0.189405
0.189166
0.18892
0.188667
0.188404
0.18813
0.187841
0.187535
0.187206
0.186849
0.186457
0.186021
0.18553
0.18497
0.184327
0.183582
0.182715
0.181705
0.180531
0.191591
0.191384
0.191175
0.190963
0.190749
0.190533
0.190314
0.190092
0.189867
0.189637
0.189404
0.189165
0.18892
0.188667
0.188405
0.188132
0.187845
0.187541
0.187215
0.186861
0.186473
0.186042
0.185557
0.185005
0.18437
0.183634
0.182777
0.181777
0.180608
0.191588
0.191381
0.191172
0.190961
0.190747
0.190531
0.190312
0.190091
0.189866
0.189637
0.189404
0.189166
0.188921
0.18867
0.18841
0.188139
0.187854
0.187553
0.187231
0.186883
0.186501
0.186078
0.185603
0.185063
0.184441
0.183719
0.182877
0.181891
0.180732
0.191585
0.191378
0.191169
0.190958
0.190745
0.190529
0.190311
0.19009
0.189865
0.189637
0.189405
0.189167
0.188924
0.188675
0.188416
0.188148
0.187867
0.18757
0.187254
0.186913
0.186541
0.186129
0.185667
0.185142
0.184538
0.183837
0.183015
0.18205
0.180904
0.191582
0.191376
0.191167
0.190956
0.190743
0.190528
0.19031
0.190089
0.189865
0.189638
0.189406
0.189171
0.188929
0.188681
0.188426
0.188161
0.187884
0.187593
0.187284
0.186952
0.186591
0.186193
0.185748
0.185243
0.184663
0.183987
0.183191
0.182253
0.181126
0.191579
0.191373
0.191165
0.190954
0.190742
0.190527
0.190309
0.190089
0.189866
0.189639
0.189409
0.189175
0.188935
0.18869
0.188437
0.188176
0.187905
0.187621
0.18732
0.186999
0.186651
0.18627
0.185846
0.185366
0.184814
0.18417
0.183408
0.182502
0.181399
0.191577
0.191371
0.191163
0.190953
0.19074
0.190526
0.190309
0.190089
0.189867
0.189642
0.189413
0.18918
0.188943
0.1887
0.188451
0.188195
0.18793
0.187653
0.187362
0.187053
0.186722
0.18636
0.18596
0.18551
0.184992
0.184386
0.183664
0.1828
0.181726
0.191574
0.191368
0.191161
0.190951
0.190739
0.190525
0.190309
0.19009
0.189869
0.189644
0.189417
0.189186
0.188951
0.188712
0.188467
0.188216
0.187957
0.187689
0.187409
0.187115
0.186801
0.186462
0.18609
0.185673
0.185195
0.184635
0.183962
0.18315
0.182111
0.191572
0.191366
0.191159
0.19095
0.190738
0.190525
0.190309
0.190091
0.189871
0.189648
0.189422
0.189193
0.188961
0.188725
0.188484
0.188239
0.187987
0.187729
0.187461
0.187182
0.186888
0.186574
0.186233
0.185855
0.185423
0.184917
0.184302
0.183553
0.182558
0.191569
0.191364
0.191157
0.190948
0.190737
0.190524
0.19031
0.190092
0.189873
0.189651
0.189427
0.1892
0.188971
0.188739
0.188503
0.188263
0.18802
0.187771
0.187516
0.187254
0.186982
0.186695
0.186389
0.186054
0.185674
0.185232
0.184686
0.184014
0.183071
0.191567
0.191362
0.191156
0.190947
0.190737
0.190524
0.19031
0.190094
0.189876
0.189655
0.189433
0.189208
0.188982
0.188753
0.188522
0.188289
0.188053
0.187815
0.187574
0.187329
0.18708
0.186823
0.186554
0.186267
0.185947
0.185577
0.185112
0.184537
0.183655
0.191565
0.19136
0.191154
0.190946
0.190736
0.190525
0.190311
0.190096
0.189879
0.18966
0.189439
0.189217
0.188993
0.188768
0.188542
0.188315
0.188088
0.18786
0.187633
0.187407
0.187181
0.186955
0.186727
0.186492
0.186238
0.185952
0.185582
0.185127
0.184319
0.191563
0.191359
0.191153
0.190946
0.190736
0.190525
0.190312
0.190098
0.189882
0.189664
0.189445
0.189225
0.189005
0.188783
0.188562
0.188342
0.188123
0.187906
0.187693
0.187485
0.187284
0.187091
0.186905
0.186727
0.186545
0.186356
0.186095
0.185791
0.18507
0.191562
0.191358
0.191152
0.190945
0.190736
0.190526
0.190314
0.1901
0.189885
0.189669
0.189452
0.189234
0.189017
0.188799
0.188583
0.188369
0.188158
0.187952
0.187753
0.187563
0.187387
0.187226
0.187084
0.186966
0.186862
0.186782
0.186646
0.186535
0.185914
0.191561
0.191358
0.191153
0.190946
0.190737
0.190528
0.190316
0.190103
0.18989
0.189675
0.189459
0.189244
0.189029
0.188815
0.188603
0.188394
0.188191
0.187995
0.187808
0.187636
0.187482
0.187353
0.187253
0.187194
0.187168
0.187207
0.187201
0.187335
0.18681
0.191561
0.191358
0.191154
0.190947
0.190739
0.19053
0.190319
0.190107
0.189894
0.189681
0.189467
0.189253
0.18904
0.188829
0.188621
0.188417
0.18822
0.188032
0.187857
0.1877
0.187565
0.187463
0.187401
0.187396
0.187442
0.1876
0.18772
0.18814
0.187701
0.191563
0.19136
0.191156
0.19095
0.190742
0.190533
0.190323
0.190112
0.1899
0.189687
0.189474
0.189262
0.189051
0.188842
0.188637
0.188438
0.188246
0.188065
0.187899
0.187753
0.187635
0.187556
0.187524
0.187568
0.187676
0.187953
0.188188
0.188933
0.188569
0.191565
0.191363
0.191159
0.190953
0.190746
0.190537
0.190328
0.190117
0.189905
0.189693
0.189481
0.18927
0.189061
0.188854
0.188651
0.188455
0.188267
0.188091
0.187932
0.187796
0.187691
0.18763
0.187624
0.187709
0.187869
0.18826
0.188593
0.189702
0.189402
0.191566
0.191364
0.19116
0.190955
0.190748
0.190539
0.19033
0.190119
0.189908
0.189696
0.189485
0.189275
0.189066
0.188861
0.18866
0.188465
0.18828
0.188108
0.187954
0.187824
0.187728
0.187682
0.187694
0.187814
0.188013
0.18851
0.188921
0.190421
0.190173
0.191567
0.191365
0.191161
0.190956
0.190749
0.19054
0.190331
0.190121
0.18991
0.189698
0.189487
0.189277
0.189069
0.188865
0.188664
0.188471
0.188288
0.188118
0.187966
0.187841
0.187751
0.187714
0.187738
0.187884
0.18811
0.1887
0.189168
0.191066
0.190868
0.191365
0.191161
0.190956
0.190749
0.190541
0.190331
0.190121
0.18991
0.189699
0.189488
0.189278
0.18907
0.188866
0.188666
0.188473
0.18829
0.188121
0.187972
0.187849
0.187762
0.18773
0.187761
0.187925
0.188167
0.188834
0.18934
0.191625
0.19149
0.191364
0.19116
0.190955
0.190748
0.19054
0.19033
0.19012
0.189909
0.189698
0.189487
0.189277
0.189069
0.188864
0.188665
0.188472
0.188289
0.18812
0.18797
0.187848
0.187762
0.187733
0.187766
0.187941
0.188189
0.188914
0.189444
0.19208
0.192035
0.191362
0.191158
0.190953
0.190746
0.190537
0.190328
0.190117
0.189906
0.189695
0.189484
0.189273
0.189065
0.18886
0.18866
0.188467
0.188284
0.188114
0.187964
0.187841
0.187754
0.187724
0.187756
0.187935
0.188183
0.188945
0.189485
0.192418
0.192504
0.191359
0.191155
0.190949
0.190742
0.190533
0.190324
0.190113
0.189901
0.18969
0.189479
0.189268
0.18906
0.188854
0.188653
0.18846
0.188275
0.188105
0.187953
0.187828
0.187738
0.187706
0.187734
0.187911
0.188153
0.188931
0.189473
0.192631
0.192901
0.191353
0.191149
0.190944
0.190736
0.190528
0.190318
0.190107
0.189895
0.189683
0.189472
0.189261
0.189052
0.188846
0.188644
0.188449
0.188264
0.188092
0.187938
0.18781
0.187717
0.18768
0.187702
0.187872
0.188104
0.188877
0.189415
0.19271
0.193225
0.191346
0.191142
0.190936
0.190729
0.19052
0.19031
0.190099
0.189887
0.189675
0.189462
0.189251
0.189041
0.188835
0.188632
0.188436
0.188249
0.188075
0.187918
0.187788
0.18769
0.187647
0.187661
0.18782
0.188038
0.188785
0.189314
0.192637
0.193469
0.191337
0.191133
0.190927
0.19072
0.19051
0.1903
0.190089
0.189876
0.189664
0.189451
0.189239
0.189029
0.188821
0.188618
0.18842
0.188231
0.188055
0.187895
0.187761
0.187658
0.187608
0.187613
0.187755
0.187958
0.188659
0.189174
0.192386
0.193611
0.191331
0.191126
0.19092
0.190712
0.190503
0.190292
0.190081
0.189868
0.189655
0.189442
0.18923
0.189019
0.18881
0.188605
0.188406
0.188216
0.188037
0.187874
0.187736
0.187627
0.18757
0.187565
0.18769
0.187877
0.188524
0.189022
0.192012
0.193653
0.191329
0.191124
0.190918
0.19071
0.190501
0.19029
0.190078
0.189865
0.189652
0.189439
0.189226
0.189015
0.188805
0.1886
0.1884
0.188208
0.188028
0.187864
0.187722
0.187611
0.187548
0.187538
0.187651
0.187828
0.188443
0.188926
0.191762
0.193669
0.21183
0.202005
0.192329
0.187935
0.184295
0.179907
0.175457
0.171158
0.166802
0.162265
0.157504
0.152455
0.147048
0.141216
0.134898
0.128006
0.1205
0.112176
0.103202
0.0927731
0.0823244
0.0679248
0.057775
0.0320437
0.0333845
0.20533
0.198031
0.190353
0.186478
0.182996
0.178801
0.174498
0.170262
0.165922
0.161385
0.156615
0.151555
0.146134
0.140287
0.133954
0.127043
0.119519
0.111171
0.102178
0.0917125
0.0812538
0.066772
0.0566635
0.030681
0.0320737
0.200122
0.19484
0.18873
0.185109
0.181692
0.177679
0.173518
0.169338
0.165012
0.160474
0.155695
0.150618
0.145178
0.13931
0.132953
0.126015
0.118466
0.110081
0.10107
0.0905353
0.0801012
0.0654346
0.0555367
0.0289602
0.030967
0.196572
0.192519
0.187488
0.184009
0.180618
0.176742
0.172696
0.168568
0.164263
0.159735
0.154953
0.149865
0.144411
0.138523
0.132147
0.125184
0.117612
0.109191
0.100166
0.0895577
0.0791633
0.0642929
0.0546558
0.0274541
0.0303722
0.193891
0.190596
0.186365
0.183036
0.17969
0.175933
0.171986
0.167909
0.163634
0.159122
0.154344
0.149252
0.143788
0.137887
0.131494
0.12451
0.116921
0.108466
0.0994324
0.0887571
0.0784057
0.063348
0.0539657
0.0262323
0.0300975
0.191706
0.188911
0.185289
0.182121
0.178842
0.175197
0.171341
0.167317
0.163075
0.158583
0.153814
0.148721
0.14325
0.137338
0.130932
0.12393
0.116325
0.107841
0.0988004
0.0880634
0.0777557
0.0625275
0.0533877
0.0252038
0.0299775
0.189894
0.187441
0.184274
0.18126
0.178061
0.17452
0.170749
0.166778
0.162571
0.158102
0.153343
0.148252
0.142777
0.136856
0.130438
0.123419
0.1158
0.107289
0.0982433
0.0874487
0.0771845
0.0617987
0.0528923
0.024313
0.0299516
0.188379
0.186162
0.183331
0.180458
0.177343
0.173899
0.170206
0.166288
0.162118
0.157672
0.152926
0.147838
0.142361
0.136432
0.130004
0.122971
0.115339
0.106803
0.0977527
0.0869043
0.0766828
0.0611514
0.052469
0.0235383
0.0299954
0.187096
0.185046
0.182464
0.179714
0.176685
0.173331
0.169711
0.165845
0.161711
0.15729
0.152558
0.147476
0.141997
0.136062
0.129626
0.122578
0.114936
0.106376
0.0973223
0.0864239
0.0762438
0.0605789
0.0521096
0.0228666
0.0300903
0.185996
0.184067
0.18167
0.179029
0.176081
0.17281
0.169259
0.165443
0.161346
0.156951
0.152234
0.147158
0.141679
0.13574
0.129296
0.122236
0.114583
0.106003
0.0969458
0.0860013
0.0758609
0.0600742
0.0518059
0.0222859
0.03022
0.185043
0.183202
0.180945
0.1784
0.175529
0.172334
0.168848
0.16508
0.16102
0.15665
0.151948
0.146879
0.141402
0.135459
0.129009
0.121939
0.114277
0.105676
0.0966172
0.0856306
0.0755277
0.0596309
0.0515508
0.0217852
0.0303721
0.184211
0.182436
0.180287
0.177823
0.175025
0.1719
0.168473
0.164752
0.160727
0.156382
0.151696
0.146636
0.141161
0.135216
0.12876
0.121681
0.114011
0.105392
0.0963314
0.0853066
0.0752389
0.0592432
0.0513378
0.0213553
0.0305371
0.18348
0.181756
0.179689
0.177296
0.174564
0.171503
0.168132
0.164455
0.160464
0.156144
0.151474
0.146423
0.140951
0.135005
0.128545
0.121457
0.11378
0.105146
0.0960836
0.0850244
0.0749895
0.0589056
0.0511614
0.0209879
0.0307078
0.182834
0.18115
0.179148
0.176816
0.174143
0.171141
0.167821
0.164185
0.160227
0.155932
0.151279
0.146236
0.140769
0.134822
0.128359
0.121264
0.113581
0.104933
0.0958692
0.0847795
0.0747747
0.0586131
0.0510163
0.0206757
0.0308787
0.182261
0.18061
0.178658
0.17638
0.17376
0.17081
0.167537
0.163941
0.160014
0.155742
0.151105
0.146073
0.14061
0.134663
0.128198
0.121097
0.113409
0.104748
0.0956841
0.0845676
0.0745904
0.0583608
0.0508977
0.0204121
0.0310451
0.181754
0.180129
0.178218
0.175983
0.173411
0.170509
0.167279
0.16372
0.159822
0.155573
0.150951
0.145929
0.140471
0.134525
0.128058
0.120953
0.11326
0.104589
0.0955244
0.0843847
0.0744323
0.0581443
0.0508011
0.0201913
0.0312035
0.181304
0.1797
0.177821
0.175626
0.173095
0.170235
0.167045
0.163519
0.159649
0.155421
0.150815
0.145801
0.140349
0.134405
0.127937
0.120828
0.113131
0.104452
0.0953865
0.0842271
0.0742969
0.0579593
0.0507225
0.0200078
0.0313512
0.180905
0.17932
0.177467
0.175304
0.17281
0.169988
0.166833
0.163338
0.159493
0.155285
0.150693
0.145689
0.140242
0.1343
0.127831
0.120719
0.11302
0.104333
0.0952675
0.0840916
0.0741808
0.0578019
0.0506582
0.0198568
0.0314858
0.180554
0.178985
0.177153
0.175017
0.172555
0.169766
0.166642
0.163175
0.159353
0.155163
0.150584
0.14559
0.140148
0.134208
0.127739
0.120625
0.112923
0.10423
0.0951646
0.0839752
0.0740809
0.0576689
0.050605
0.0197342
0.0316057
0.180247
0.178691
0.176876
0.174763
0.172329
0.169568
0.166472
0.163029
0.159229
0.155055
0.150488
0.145502
0.140065
0.134127
0.127659
0.120543
0.112839
0.104141
0.0950756
0.0838756
0.0739949
0.057557
0.0505602
0.0196364
0.0317095
0.179982
0.178436
0.176636
0.174541
0.17213
0.169394
0.166321
0.1629
0.159118
0.154959
0.150404
0.145425
0.139992
0.134057
0.127589
0.120472
0.112767
0.104065
0.0949986
0.0837906
0.0739206
0.0574639
0.0505213
0.0195602
0.0317963
0.179756
0.17822
0.17643
0.17435
0.171959
0.169244
0.166191
0.162789
0.159022
0.154876
0.15033
0.145357
0.139929
0.133995
0.127528
0.12041
0.112704
0.103999
0.094932
0.0837186
0.0738561
0.0573873
0.0504861
0.0195033
0.0318652
0.179568
0.178039
0.176258
0.174191
0.171816
0.169117
0.166081
0.162694
0.15894
0.154804
0.150266
0.145299
0.139875
0.133943
0.127476
0.120358
0.112649
0.103943
0.0948747
0.0836582
0.0738001
0.0573255
0.0504532
0.0194633
0.0319158
0.179418
0.177894
0.176119
0.174062
0.171699
0.169014
0.165991
0.162615
0.158872
0.154745
0.150213
0.145251
0.139829
0.133898
0.127431
0.120313
0.112603
0.103896
0.0948258
0.0836082
0.0737515
0.0572767
0.0504218
0.0194375
0.0319497
0.179303
0.177783
0.176013
0.173962
0.171608
0.168933
0.16592
0.162554
0.158819
0.154697
0.15017
0.145211
0.139791
0.133861
0.127394
0.120276
0.112565
0.103857
0.0947847
0.0835678
0.0737099
0.0572393
0.0503921
0.019423
0.031969
0.179223
0.177705
0.175938
0.173892
0.171545
0.168876
0.165869
0.162509
0.158779
0.154661
0.150137
0.14518
0.139761
0.133832
0.127365
0.120246
0.112533
0.103826
0.0947506
0.0835371
0.0736732
0.057215
0.0503584
0.0194268
0.0319628
0.179178
0.17766
0.175895
0.173852
0.171507
0.168842
0.165839
0.162481
0.158753
0.154637
0.150114
0.145158
0.139739
0.13381
0.127342
0.120223
0.112509
0.103804
0.0947214
0.0835192
0.0736344
0.0572158
0.0502976
0.0194869
0.0318787
0.179167
0.177649
0.175884
0.173841
0.171497
0.168831
0.165828
0.162469
0.158741
0.154624
0.150101
0.145143
0.139723
0.133794
0.127325
0.120207
0.112488
0.103789
0.094694
0.0835154
0.0735863
0.0572504
0.0501895
0.0196337
0.0316735
0.179204
0.177683
0.175915
0.17387
0.171522
0.168852
0.165843
0.16248
0.158747
0.154627
0.150099
0.145139
0.139717
0.133787
0.127316
0.120198
0.112478
0.103781
0.0946793
0.0835126
0.0735617
0.0572658
0.0501357
0.0197008
0.0315691
0.17929
0.177765
0.175993
0.173942
0.171585
0.168905
0.165887
0.162515
0.158774
0.154646
0.150113
0.145148
0.139723
0.13379
0.127318
0.120199
0.112478
0.103782
0.0946786
0.0835152
0.073559
0.0572716
0.0501245
0.0197118
0.0315345
0.179427
0.177896
0.176116
0.174056
0.171686
0.168993
0.16596
0.162574
0.15882
0.154682
0.150141
0.14517
0.13974
0.133805
0.127331
0.120211
0.112489
0.103794
0.0946907
0.0835276
0.0735721
0.0572821
0.0501332
0.0197083
0.0315147
0.179615
0.178076
0.176287
0.174214
0.171827
0.169114
0.166062
0.162658
0.158887
0.154736
0.150184
0.145205
0.13977
0.13383
0.127354
0.120234
0.112513
0.103817
0.0947163
0.0835516
0.0736011
0.0573008
0.050159
0.0196992
0.0315012
0.179857
0.178309
0.176506
0.174415
0.172006
0.169269
0.166192
0.162765
0.158975
0.154806
0.150241
0.145253
0.139811
0.133868
0.127391
0.120269
0.112549
0.103854
0.0947568
0.0835885
0.0736481
0.0573291
0.0502054
0.0196844
0.0314984
0.180155
0.178595
0.176775
0.174663
0.172225
0.169457
0.166351
0.162897
0.159083
0.154895
0.150314
0.145315
0.139867
0.133919
0.12744
0.120318
0.1126
0.103904
0.0948143
0.0836404
0.0737157
0.0573692
0.0502762
0.0196654
0.0315103
0.180514
0.178938
0.177096
0.174957
0.172485
0.169681
0.16654
0.163053
0.159211
0.155001
0.150404
0.145393
0.139937
0.133985
0.127505
0.120383
0.112668
0.103972
0.0948914
0.0837099
0.0738071
0.0574243
0.0503754
0.0196451
0.0315403
0.180939
0.179342
0.177472
0.1753
0.172787
0.16994
0.166758
0.163235
0.159362
0.155127
0.150511
0.145488
0.140024
0.134068
0.127587
0.120465
0.112755
0.10406
0.0949914
0.0838006
0.0739262
0.0574984
0.0505078
0.0196274
0.0315926
0.181437
0.179812
0.177906
0.175694
0.173133
0.170236
0.167008
0.163444
0.159536
0.155274
0.150639
0.145602
0.140131
0.134172
0.127691
0.12057
0.112866
0.104171
0.0951185
0.0839167
0.0740778
0.0575962
0.0506793
0.0196167
0.0316727
0.182019
0.180355
0.178402
0.176144
0.173525
0.170571
0.167291
0.163681
0.159736
0.155445
0.150789
0.145739
0.140261
0.134299
0.127819
0.1207
0.113005
0.104311
0.0952774
0.0840628
0.0742674
0.057723
0.0508967
0.0196181
0.0317876
0.182697
0.180977
0.178966
0.176653
0.173967
0.170948
0.167611
0.16395
0.159964
0.155643
0.150966
0.145903
0.140419
0.134454
0.127978
0.120862
0.113177
0.104484
0.0954739
0.0842448
0.074501
0.0578848
0.0511671
0.0196383
0.031945
0.18349
0.18169
0.179604
0.177228
0.174462
0.17137
0.16797
0.164255
0.160226
0.155873
0.151175
0.1461
0.140609
0.134644
0.128172
0.12106
0.113388
0.104697
0.0957141
0.0844687
0.0747852
0.0580887
0.0514979
0.0196856
0.0321528
0.184424
0.182503
0.180324
0.177874
0.175016
0.171843
0.168373
0.1646
0.160525
0.15614
0.151421
0.146334
0.140839
0.134874
0.128408
0.121301
0.113645
0.104956
0.0960051
0.084741
0.0751279
0.0583408
0.0518999
0.0197655
0.0324275
0.185538
0.183429
0.181133
0.178601
0.175633
0.17237
0.168826
0.16499
0.160868
0.15645
0.15171
0.146612
0.141115
0.135152
0.128694
0.121593
0.113956
0.105268
0.0963555
0.0850661
0.0755415
0.0586395
0.0523983
0.0198612
0.032819
0.186835
0.184425
0.182
0.17938
0.176288
0.172931
0.16931
0.165411
0.161242
0.156792
0.152034
0.146928
0.14143
0.135469
0.129021
0.121927
0.114311
0.105621
0.0967563
0.0854286
0.0760199
0.0589609
0.053002
0.0199345
0.0333778
0.188273
0.185433
0.182875
0.180166
0.17694
0.173492
0.169797
0.165837
0.161625
0.157147
0.152374
0.147261
0.141764
0.135806
0.12937
0.122281
0.114688
0.105996
0.0971796
0.085812
0.0765226
0.0593042
0.0536396
0.0200388
0.0340029
0.189857
0.186433
0.183744
0.180945
0.177579
0.174043
0.170278
0.16626
0.16201
0.157508
0.152722
0.147604
0.14211
0.136157
0.129732
0.122649
0.115078
0.106384
0.0976138
0.0862121
0.0770311
0.0596752
0.054274
0.0202089
0.0346356
0.191594
0.187413
0.184598
0.181711
0.178199
0.174578
0.170746
0.166675
0.162391
0.157869
0.153074
0.147954
0.142463
0.136516
0.130101
0.123026
0.115474
0.106782
0.0980518
0.0866238
0.0775362
0.0600707
0.0548911
0.0204478
0.0352609
0.193493
0.188366
0.185427
0.182456
0.178795
0.175093
0.171198
0.167079
0.162765
0.158226
0.153425
0.148305
0.142818
0.136877
0.130473
0.123405
0.115873
0.107183
0.0984882
0.0870422
0.0780322
0.0604851
0.0554849
0.0207482
0.0358766
0.195555
0.189289
0.186225
0.183177
0.179366
0.175584
0.17163
0.167468
0.163129
0.158578
0.153773
0.148654
0.143173
0.137238
0.130845
0.123785
0.116269
0.107584
0.0989192
0.0874633
0.0785156
0.0609132
0.0560522
0.0211021
0.0364826
0.197769
0.190185
0.186986
0.18387
0.17991
0.17605
0.17204
0.167841
0.163481
0.158921
0.154115
0.148999
0.143524
0.137596
0.131213
0.124161
0.116661
0.107982
0.0993424
0.0878839
0.0789841
0.0613502
0.0565915
0.0215014
0.0370792
0.200118
0.191062
0.187706
0.184536
0.180428
0.176489
0.172429
0.168196
0.16382
0.159256
0.15445
0.149339
0.14387
0.137949
0.131576
0.124533
0.117046
0.108375
0.099756
0.0883015
0.0794367
0.0617924
0.0571026
0.0219379
0.0376675
0.202577
0.191934
0.188384
0.185174
0.18092
0.176902
0.172796
0.168534
0.164147
0.15958
0.154777
0.149671
0.144209
0.138296
0.131932
0.124898
0.117423
0.108762
0.100159
0.0887138
0.0798727
0.0622357
0.057586
0.0224032
0.0382483
0.205114
0.192813
0.18902
0.185785
0.181389
0.177289
0.173141
0.168855
0.16446
0.159894
0.155096
0.149996
0.144541
0.138636
0.13228
0.125256
0.11779
0.10914
0.100549
0.0891183
0.0802912
0.0626761
0.0580418
0.0228887
0.0388213
0.207691
0.193711
0.189618
0.18637
0.181835
0.177651
0.173464
0.169159
0.16476
0.160197
0.155405
0.150312
0.144864
0.138967
0.132619
0.125604
0.118147
0.109509
0.100927
0.0895137
0.0806919
0.063111
0.0584705
0.0233883
0.0393859
0.210305
0.194664
0.190196
0.186937
0.182264
0.177992
0.17377
0.16945
0.16505
0.160493
0.155708
0.150623
0.145183
0.139294
0.132953
0.125947
0.118498
0.109873
0.101296
0.0899037
0.0810795
0.0635436
0.0588772
0.0239032
0.0399501
0.213068
0.195727
0.190782
0.187497
0.182683
0.178318
0.174063
0.169734
0.165337
0.160789
0.156013
0.150936
0.145504
0.139622
0.133289
0.126292
0.11885
0.110237
0.101663
0.0902938
0.0814618
0.0639775
0.0592728
0.0244299
0.0405321
0.21603
0.196844
0.191345
0.188013
0.183069
0.178614
0.174331
0.169997
0.165606
0.161067
0.1563
0.151231
0.145805
0.139931
0.133604
0.126615
0.119178
0.110576
0.102005
0.0906541
0.081817
0.0643735
0.0596432
0.0249027
0.0411043
0.218486
0.197663
0.191713
0.188351
0.183327
0.178813
0.174511
0.170174
0.165787
0.161254
0.156492
0.151428
0.146006
0.140136
0.133812
0.126827
0.119394
0.110797
0.102231
0.0908862
0.0820544
0.0646206
0.059901
0.0251775
0.0415084
)
;

boundaryField
{
    inlet
    {
        type            zeroGradient;
    }
    outlet
    {
        type            fixedValue;
        value           uniform 0;
    }
    upperWall
    {
        type            zeroGradient;
    }
    lowerWall
    {
        type            zeroGradient;
    }
    frontAndBack
    {
        type            empty;
    }
    procBoundary0to1
    {
        type            processor;
        value           nonuniform List<scalar> 
59
(
0.192177
0.19215
0.192131
0.192119
0.192109
0.192101
0.192093
0.192087
0.192081
0.192077
0.192072
0.191863
0.191863
0.191859
0.191855
0.191851
0.191847
0.191843
0.191839
0.191836
0.191832
0.191828
0.191825
0.191821
0.191817
0.191814
0.191811
0.191807
0.191804
0.1918
0.191797
0.191794
0.19179
0.191787
0.191784
0.191781
0.191778
0.191775
0.191772
0.19177
0.191768
0.191765
0.191764
0.191762
0.191762
0.191764
0.191766
0.191767
0.191768
0.191567
0.191567
0.191566
0.191564
0.191561
0.191556
0.191549
0.19154
0.191533
0.191532
)
;
    }
}


// ************************************************************************* //
