/*--------------------------------*- C++ -*----------------------------------*\
  =========                 |
  \\      /  F ield         | OpenFOAM: The Open Source CFD Toolbox
   \\    /   O peration     | Website:  https://openfoam.org
    \\  /    A nd           | Version:  6
     \\/     M anipulation  |
\*---------------------------------------------------------------------------*/
FoamFile
{
    version     2.0;
    format      ascii;
    class       surfaceScalarField;
    location    "0.02";
    object      phi;
}
// * * * * * * * * * * * * * * * * * * * * * * * * * * * * * * * * * * * * * //

dimensions      [0 3 -1 0 0 0 0];

internalField   nonuniform List<scalar> 
6048
(
4.55064e-07
6.55662e-10
4.544e-07
6.63547e-10
4.53729e-07
6.71522e-10
4.53049e-07
6.7963e-10
4.52361e-07
6.87943e-10
4.51665e-07
6.96539e-10
4.50959e-07
7.05524e-10
4.50244e-07
7.15012e-10
4.49519e-07
7.25162e-10
4.48783e-07
7.36168e-10
4.48035e-07
7.48297e-10
4.47273e-07
7.61871e-10
4.46495e-07
7.77341e-10
4.457e-07
7.95279e-10
4.44884e-07
8.16479e-10
4.44042e-07
8.42003e-10
4.43168e-07
8.73296e-10
4.42256e-07
9.12396e-10
4.41294e-07
9.6218e-10
4.40267e-07
1.02683e-09
4.39154e-07
1.11262e-09
4.37925e-07
1.22936e-09
4.36532e-07
1.39324e-09
4.34899e-07
1.63269e-09
4.32895e-07
2.00392e-09
4.30273e-07
2.62159e-09
4.26478e-07
3.79537e-09
4.20326e-07
6.15164e-09
4.08038e-07
1.22882e-08
2.39759e-08
3.84062e-07
4.7987e-07
1.34034e-09
4.79178e-07
1.35616e-09
4.78477e-07
1.37215e-09
4.77768e-07
1.38841e-09
4.77051e-07
1.40505e-09
4.76325e-07
1.42221e-09
4.75591e-07
1.44008e-09
4.74847e-07
1.45889e-09
4.74093e-07
1.47892e-09
4.73329e-07
1.50056e-09
4.72553e-07
1.52428e-09
4.71764e-07
1.55069e-09
4.70961e-07
1.58063e-09
4.70141e-07
1.61517e-09
4.69302e-07
1.65575e-09
4.68439e-07
1.70434e-09
4.67549e-07
1.76361e-09
4.66624e-07
1.83725e-09
4.65656e-07
1.93047e-09
4.64632e-07
2.05078e-09
4.63535e-07
2.20927e-09
4.62342e-07
2.42292e-09
4.61016e-07
2.71913e-09
4.59504e-07
3.14417e-09
4.57724e-07
3.78452e-09
4.5554e-07
4.80552e-09
4.52724e-07
6.61153e-09
4.48908e-07
9.96708e-09
4.4345e-07
1.77466e-08
3.29033e-08
4.34522e-07
4.87717e-07
2.03515e-09
4.87014e-07
2.05873e-09
4.86304e-07
2.0826e-09
4.85586e-07
2.1069e-09
4.84859e-07
2.13176e-09
4.84124e-07
2.15742e-09
4.8338e-07
2.18413e-09
4.82626e-07
2.21223e-09
4.81863e-07
2.24214e-09
4.81089e-07
2.27442e-09
4.80304e-07
2.30976e-09
4.79505e-07
2.34909e-09
4.78692e-07
2.3936e-09
4.77863e-07
2.4449e-09
4.77013e-07
2.50511e-09
4.7614e-07
2.57709e-09
4.75239e-07
2.66476e-09
4.74303e-07
2.77351e-09
4.73323e-07
2.91089e-09
4.72286e-07
3.08774e-09
4.71175e-07
3.31993e-09
4.69966e-07
3.63156e-09
4.68625e-07
4.06065e-09
4.67099e-07
4.6701e-09
4.65311e-07
5.5722e-09
4.63143e-07
6.97334e-09
4.60431e-07
9.32361e-09
4.56948e-07
1.34509e-08
4.52902e-07
2.17918e-08
3.68095e-08
4.48996e-07
4.91888e-07
2.73537e-09
4.9118e-07
2.76654e-09
4.90464e-07
2.79814e-09
4.89741e-07
2.83031e-09
4.8901e-07
2.86327e-09
4.8827e-07
2.8973e-09
4.87521e-07
2.93272e-09
4.86763e-07
2.96999e-09
4.85996e-07
3.00967e-09
4.85218e-07
3.05247e-09
4.84428e-07
3.09932e-09
4.83626e-07
3.15144e-09
4.82809e-07
3.2104e-09
4.81976e-07
3.27832e-09
4.81123e-07
3.35798e-09
4.80247e-07
3.45314e-09
4.79342e-07
3.56892e-09
4.78404e-07
3.71236e-09
4.77421e-07
3.89329e-09
4.76383e-07
4.12568e-09
4.75273e-07
4.42991e-09
4.74068e-07
4.83646e-09
4.72736e-07
5.39271e-09
4.71231e-07
6.17517e-09
4.69488e-07
7.31508e-09
4.67418e-07
9.04371e-09
4.64922e-07
1.18199e-08
4.61929e-07
1.64438e-08
4.58874e-07
2.4847e-08
3.88453e-08
4.56838e-07
4.94514e-07
3.43907e-09
4.93803e-07
3.47767e-09
4.93085e-07
3.51681e-09
4.92358e-07
3.55671e-09
4.91624e-07
3.5976e-09
4.90881e-07
3.63983e-09
4.9013e-07
3.68381e-09
4.8937e-07
3.73009e-09
4.88601e-07
3.77935e-09
4.8782e-07
3.83249e-09
4.87029e-07
3.89063e-09
4.86225e-07
3.95529e-09
4.85407e-07
4.0284e-09
4.84573e-07
4.11256e-09
4.8372e-07
4.2112e-09
4.82844e-07
4.32894e-09
4.81941e-07
4.47204e-09
4.81004e-07
4.64906e-09
4.80026e-07
4.87194e-09
4.78994e-07
5.15755e-09
4.77893e-07
5.53019e-09
4.76704e-07
6.02585e-09
4.75397e-07
6.69941e-09
4.73935e-07
7.63742e-09
4.72267e-07
8.98279e-09
4.70335e-07
1.09766e-08
4.68094e-07
1.40605e-08
4.65579e-07
1.89585e-08
4.63262e-07
2.71646e-08
3.99455e-08
4.62161e-07
4.96303e-07
4.14534e-09
4.9559e-07
4.19119e-09
4.94869e-07
4.23771e-09
4.9414e-07
4.28516e-09
4.93404e-07
4.33382e-09
4.9266e-07
4.38409e-09
4.91907e-07
4.43644e-09
4.91146e-07
4.49152e-09
4.90375e-07
4.55016e-09
4.89594e-07
4.61337e-09
4.88802e-07
4.68251e-09
4.87998e-07
4.75934e-09
4.8718e-07
4.84617e-09
4.86347e-07
4.94602e-09
4.85495e-07
5.06294e-09
4.84622e-07
5.20233e-09
4.83722e-07
5.3715e-09
4.82791e-07
5.58043e-09
4.8182e-07
5.84292e-09
4.80799e-07
6.17831e-09
4.79715e-07
6.61429e-09
4.7855e-07
7.19119e-09
4.7728e-07
7.9695e-09
4.75875e-07
9.04215e-09
4.74301e-07
1.05572e-08
4.72523e-07
1.27539e-08
4.70543e-07
1.60409e-08
4.68453e-07
2.10482e-08
4.66703e-07
2.89146e-08
4.04903e-08
4.66158e-07
4.97581e-07
4.8538e-09
4.96865e-07
4.90674e-09
4.96142e-07
4.96049e-09
4.95412e-07
5.01532e-09
4.94674e-07
5.07157e-09
4.93929e-07
5.12968e-09
4.93175e-07
5.19021e-09
4.92413e-07
5.25388e-09
4.91641e-07
5.32161e-09
4.9086e-07
5.39459e-09
4.90068e-07
5.47437e-09
4.89265e-07
5.56293e-09
4.88448e-07
5.6629e-09
4.87616e-07
5.77774e-09
4.86767e-07
5.91201e-09
4.85897e-07
6.07186e-09
4.85003e-07
6.26549e-09
4.8408e-07
6.50414e-09
4.83119e-07
6.8032e-09
4.82114e-07
7.1841e-09
4.81051e-07
7.67716e-09
4.79916e-07
8.32601e-09
4.78691e-07
9.19472e-09
4.77353e-07
1.03794e-08
4.75883e-07
1.2028e-08
4.74267e-07
1.43697e-08
4.72536e-07
1.77721e-08
4.70815e-07
2.27693e-08
4.69509e-07
3.02201e-08
4.06777e-08
4.69322e-07
4.98526e-07
5.56444e-09
4.97809e-07
5.62431e-09
4.97084e-07
5.68514e-09
4.96352e-07
5.74719e-09
4.95613e-07
5.81086e-09
4.94866e-07
5.87662e-09
4.94111e-07
5.9451e-09
4.93348e-07
6.01709e-09
4.92576e-07
6.09363e-09
4.91794e-07
6.17604e-09
4.91003e-07
6.266e-09
4.902e-07
6.36575e-09
4.89385e-07
6.4782e-09
4.88555e-07
6.60716e-09
4.8771e-07
6.75768e-09
4.86845e-07
6.93651e-09
4.85958e-07
7.15269e-09
4.85043e-07
7.41845e-09
4.84096e-07
7.7505e-09
4.83108e-07
8.17191e-09
4.8207e-07
8.71495e-09
4.80971e-07
9.42538e-09
4.79797e-07
1.03692e-08
4.78533e-07
1.16429e-08
4.77171e-07
1.33901e-08
4.75716e-07
1.58249e-08
4.74217e-07
1.92713e-08
4.72813e-07
2.41735e-08
4.71859e-07
3.1174e-08
4.06219e-08
4.71914e-07
4.9925e-07
6.27754e-09
4.9853e-07
6.34421e-09
4.97803e-07
6.41195e-09
4.97069e-07
6.48106e-09
4.96328e-07
6.55195e-09
4.9558e-07
6.62516e-09
4.94824e-07
6.70135e-09
4.94059e-07
6.7814e-09
4.93286e-07
6.86642e-09
4.92505e-07
6.95784e-09
4.91713e-07
7.05751e-09
4.90911e-07
7.16784e-09
4.90097e-07
7.29198e-09
4.8927e-07
7.43406e-09
4.88429e-07
7.59955e-09
4.87569e-07
7.79569e-09
4.8669e-07
8.03219e-09
4.85786e-07
8.32209e-09
4.84854e-07
8.6831e-09
4.83886e-07
9.13947e-09
4.82876e-07
9.72472e-09
4.81816e-07
1.04858e-08
4.80696e-07
1.14889e-08
4.7951e-07
1.28289e-08
4.78258e-07
1.46422e-08
4.76958e-07
1.71248e-08
4.75672e-07
2.05578e-08
4.7454e-07
2.53057e-08
4.73867e-07
3.18466e-08
4.03918e-08
4.74097e-07
4.99825e-07
6.99365e-09
4.99102e-07
7.06698e-09
4.98372e-07
7.14148e-09
4.97636e-07
7.21747e-09
4.96892e-07
7.29541e-09
4.96142e-07
7.37585e-09
4.95384e-07
7.4595e-09
4.94618e-07
7.54731e-09
4.93844e-07
7.64044e-09
4.93061e-07
7.74043e-09
4.92269e-07
7.84926e-09
4.91468e-07
7.96948e-09
4.90655e-07
8.10444e-09
4.89831e-07
8.25855e-09
4.88993e-07
8.43756e-09
4.88139e-07
8.64915e-09
4.87268e-07
8.90349e-09
4.86376e-07
9.21425e-09
4.85459e-07
9.59983e-09
4.84513e-07
1.00852e-08
4.83534e-07
1.07045e-08
4.82515e-07
1.15048e-08
4.81452e-07
1.25516e-08
4.80345e-07
1.3936e-08
4.79201e-07
1.57857e-08
4.78049e-07
1.8277e-08
4.76956e-07
2.16513e-08
4.76057e-07
2.62044e-08
4.75613e-07
3.22907e-08
4.003e-08
4.75974e-07
5.00301e-07
4.99574e-07
7.79345e-09
4.98841e-07
7.87456e-09
4.98101e-07
7.95727e-09
4.97355e-07
8.04204e-09
4.96601e-07
8.12947e-09
4.9584e-07
8.22032e-09
4.95072e-07
8.31554e-09
4.94296e-07
8.4164e-09
4.93512e-07
8.52449e-09
4.92719e-07
8.64187e-09
4.91918e-07
8.77124e-09
4.91106e-07
8.91607e-09
4.90284e-07
9.08097e-09
4.89449e-07
9.27195e-09
4.88601e-07
9.49694e-09
4.87738e-07
9.76648e-09
4.86858e-07
1.00946e-08
4.85958e-07
1.05001e-08
4.85035e-07
1.10082e-08
4.84086e-07
1.16532e-08
4.83109e-07
1.24815e-08
4.82104e-07
1.35565e-08
4.81076e-07
1.49648e-08
4.80037e-07
1.68239e-08
4.79024e-07
1.92909e-08
4.78104e-07
2.25707e-08
4.77407e-07
2.6902e-08
4.77151e-07
3.25466e-08
3.9564e-08
4.77617e-07
4.99983e-07
8.52471e-09
4.99246e-07
8.61226e-09
4.98502e-07
8.70149e-09
4.97751e-07
8.79289e-09
4.96993e-07
8.88707e-09
4.96229e-07
8.98481e-09
4.95457e-07
9.08712e-09
4.94678e-07
9.19529e-09
4.93892e-07
9.31094e-09
4.93097e-07
9.43624e-09
4.92295e-07
9.57393e-09
4.91483e-07
9.72762e-09
4.90662e-07
9.90202e-09
4.89831e-07
1.01033e-08
4.88988e-07
1.03395e-08
4.88133e-07
1.06214e-08
4.87264e-07
1.09633e-08
4.86381e-07
1.13838e-08
4.85481e-07
1.19084e-08
4.84563e-07
1.25705e-08
4.83629e-07
1.34156e-08
4.82681e-07
1.45042e-08
4.81729e-07
1.59172e-08
4.80791e-07
1.77618e-08
4.79905e-07
2.01765e-08
4.79142e-07
2.33341e-08
4.78618e-07
2.74261e-08
4.78519e-07
3.26452e-08
3.90126e-08
4.79071e-07
5.00357e-07
9.26208e-09
4.99613e-07
9.3559e-09
4.98863e-07
9.45145e-09
4.98107e-07
9.54926e-09
4.97344e-07
9.64992e-09
4.96574e-07
9.75426e-09
4.95798e-07
9.86327e-09
4.95015e-07
9.97828e-09
4.94225e-07
1.0101e-08
4.93428e-07
1.02335e-08
4.92623e-07
1.03786e-08
4.91811e-07
1.05401e-08
4.9099e-07
1.07226e-08
4.90161e-07
1.09324e-08
4.89323e-07
1.11777e-08
4.88475e-07
1.14691e-08
4.87618e-07
1.18208e-08
4.8675e-07
1.22515e-08
4.85872e-07
1.27861e-08
4.84986e-07
1.34571e-08
4.84093e-07
1.43082e-08
4.83201e-07
1.53964e-08
4.82322e-07
1.67966e-08
4.81478e-07
1.86057e-08
4.8071e-07
2.09445e-08
4.80086e-07
2.39584e-08
4.79712e-07
2.77999e-08
4.79746e-07
3.26113e-08
3.83891e-08
4.80369e-07
5.00713e-07
1.00071e-08
4.99962e-07
1.0107e-08
4.99205e-07
1.02087e-08
4.98441e-07
1.03126e-08
4.97672e-07
1.04195e-08
4.96896e-07
1.05301e-08
4.96114e-07
1.06454e-08
4.95325e-07
1.07668e-08
4.9453e-07
1.08959e-08
4.93729e-07
1.10349e-08
4.92921e-07
1.11866e-08
4.92106e-07
1.13547e-08
4.91285e-07
1.1544e-08
4.90457e-07
1.17605e-08
4.89622e-07
1.20124e-08
4.88781e-07
1.23103e-08
4.87933e-07
1.26682e-08
4.87081e-07
1.31042e-08
4.86224e-07
1.36424e-08
4.85367e-07
1.43143e-08
4.84514e-07
1.51609e-08
4.83675e-07
1.62358e-08
4.82864e-07
1.76074e-08
4.82108e-07
1.93624e-08
4.81446e-07
2.16059e-08
4.80945e-07
2.44592e-08
4.80701e-07
2.80441e-08
4.80848e-07
3.24649e-08
3.77037e-08
4.81533e-07
5.01065e-07
1.07614e-08
5.00304e-07
1.08672e-08
4.99538e-07
1.09747e-08
4.98766e-07
1.10846e-08
4.97989e-07
1.11973e-08
4.97205e-07
1.13138e-08
4.96415e-07
1.1435e-08
4.9562e-07
1.15622e-08
4.94819e-07
1.16972e-08
4.94011e-07
1.18419e-08
4.93199e-07
1.19993e-08
4.92381e-07
1.21729e-08
4.91557e-07
1.23674e-08
4.90729e-07
1.25888e-08
4.89896e-07
1.28451e-08
4.8906e-07
1.31466e-08
4.88221e-07
1.35068e-08
4.87382e-07
1.39433e-08
4.86546e-07
1.4479e-08
4.85716e-07
1.51439e-08
4.84901e-07
1.59764e-08
4.8411e-07
1.70259e-08
4.83363e-07
1.83548e-08
4.82686e-07
2.00397e-08
4.8212e-07
2.21715e-08
4.81728e-07
2.48514e-08
4.81596e-07
2.81763e-08
4.81838e-07
3.22229e-08
3.6965e-08
4.82576e-07
5.10847e-07
1.18267e-08
5.09773e-07
1.19405e-08
5.08692e-07
1.2056e-08
5.07603e-07
1.21738e-08
5.06506e-07
1.22945e-08
5.05401e-07
1.24189e-08
5.04288e-07
1.2548e-08
5.03167e-07
1.2683e-08
5.02038e-07
1.28256e-08
5.00902e-07
1.29779e-08
4.99759e-07
1.31425e-08
4.98609e-07
1.33229e-08
4.97453e-07
1.35237e-08
4.96291e-07
1.37508e-08
4.95124e-07
1.40117e-08
4.93955e-07
1.43164e-08
4.92784e-07
1.46778e-08
4.91614e-07
1.51127e-08
4.9045e-07
1.56428e-08
4.89298e-07
1.6296e-08
4.88166e-07
1.7108e-08
4.87068e-07
1.81241e-08
4.86023e-07
1.94002e-08
4.85059e-07
2.1004e-08
4.84217e-07
2.30136e-08
4.83554e-07
2.55135e-08
4.8315e-07
2.85807e-08
4.83101e-07
3.22719e-08
3.65574e-08
4.83509e-07
4.94847e-07
1.23841e-08
4.94286e-07
1.25014e-08
4.93721e-07
1.26205e-08
4.93153e-07
1.27419e-08
4.92581e-07
1.28661e-08
4.92006e-07
1.29938e-08
4.91428e-07
1.31261e-08
4.90847e-07
1.32641e-08
4.90264e-07
1.34094e-08
4.89677e-07
1.3564e-08
4.89089e-07
1.37305e-08
4.885e-07
1.39123e-08
4.8791e-07
1.41135e-08
4.87321e-07
1.434e-08
4.86734e-07
1.45988e-08
4.86151e-07
1.48994e-08
4.85575e-07
1.5254e-08
4.85009e-07
1.56783e-08
4.8446e-07
1.61925e-08
4.83933e-07
1.68226e-08
4.8344e-07
1.76012e-08
4.82995e-07
1.85692e-08
4.82618e-07
1.97766e-08
4.8234e-07
2.12827e-08
4.82199e-07
2.31541e-08
4.82252e-07
2.5461e-08
4.82568e-07
2.82645e-08
4.83233e-07
3.16066e-08
3.54562e-08
4.84334e-07
4.80509e-07
1.24864e-08
4.80407e-07
1.26036e-08
4.80305e-07
1.27224e-08
4.80204e-07
1.28434e-08
4.80103e-07
1.2967e-08
4.80002e-07
1.3094e-08
4.79903e-07
1.32253e-08
4.79805e-07
1.3362e-08
4.79709e-07
1.35056e-08
4.79615e-07
1.36581e-08
4.79524e-07
1.38217e-08
4.79436e-07
1.39998e-08
4.79354e-07
1.41963e-08
4.79277e-07
1.44165e-08
4.79209e-07
1.46671e-08
4.79151e-07
1.4957e-08
4.79108e-07
1.52975e-08
4.79083e-07
1.5703e-08
4.79083e-07
1.61923e-08
4.79117e-07
1.6789e-08
4.79195e-07
1.75225e-08
4.79335e-07
1.84296e-08
4.79557e-07
1.95543e-08
4.79892e-07
2.09479e-08
4.80379e-07
2.26673e-08
4.8107e-07
2.47702e-08
4.82029e-07
2.7305e-08
4.83333e-07
3.03027e-08
3.37326e-08
4.85057e-07
4.67657e-07
1.21812e-08
4.67966e-07
1.22948e-08
4.68278e-07
1.24099e-08
4.68595e-07
1.25269e-08
4.68915e-07
1.26464e-08
4.6924e-07
1.27691e-08
4.6957e-07
1.28957e-08
4.69904e-07
1.30273e-08
4.70245e-07
1.31654e-08
4.70591e-07
1.33116e-08
4.70945e-07
1.34683e-08
4.71306e-07
1.36382e-08
4.71677e-07
1.38252e-08
4.7206e-07
1.40342e-08
4.72455e-07
1.42712e-08
4.72868e-07
1.45445e-08
4.73301e-07
1.48642e-08
4.7376e-07
1.52438e-08
4.74253e-07
1.56999e-08
4.74788e-07
1.62539e-08
4.75378e-07
1.69321e-08
4.76041e-07
1.77668e-08
4.76799e-07
1.87965e-08
4.77682e-07
2.00651e-08
4.78728e-07
2.16206e-08
4.79988e-07
2.35102e-08
4.81521e-07
2.5772e-08
4.83395e-07
2.84288e-08
3.14514e-08
4.85676e-07
4.56129e-07
1.15106e-08
4.56806e-07
1.16176e-08
4.5749e-07
1.1726e-08
4.58181e-07
1.1836e-08
4.58879e-07
1.19483e-08
4.59585e-07
1.20634e-08
4.60299e-07
1.21821e-08
4.61021e-07
1.23053e-08
4.61752e-07
1.24344e-08
4.62492e-07
1.25708e-08
4.63244e-07
1.27167e-08
4.64008e-07
1.28746e-08
4.64785e-07
1.3048e-08
4.65578e-07
1.32413e-08
4.66389e-07
1.34599e-08
4.67222e-07
1.37113e-08
4.68082e-07
1.40046e-08
4.68974e-07
1.43516e-08
4.69906e-07
1.47674e-08
4.7089e-07
1.52706e-08
4.71938e-07
1.58843e-08
4.73068e-07
1.66366e-08
4.74304e-07
1.75605e-08
4.75676e-07
1.86933e-08
4.77221e-07
2.00747e-08
4.78988e-07
2.17431e-08
4.81032e-07
2.37283e-08
4.83414e-07
2.60466e-08
2.86716e-08
4.86194e-07
4.45782e-07
1.05124e-08
4.46789e-07
1.06102e-08
4.47806e-07
1.07092e-08
4.48832e-07
1.08096e-08
4.49869e-07
1.09119e-08
4.50916e-07
1.10167e-08
4.51973e-07
1.11246e-08
4.53042e-07
1.12364e-08
4.54123e-07
1.13534e-08
4.55217e-07
1.1477e-08
4.56325e-07
1.16088e-08
4.57448e-07
1.17513e-08
4.58589e-07
1.19074e-08
4.59749e-07
1.2081e-08
4.60932e-07
1.22771e-08
4.62141e-07
1.25019e-08
4.63382e-07
1.27636e-08
4.64662e-07
1.30724e-08
4.65988e-07
1.34414e-08
4.67371e-07
1.38867e-08
4.68828e-07
1.44281e-08
4.70375e-07
1.50894e-08
4.72037e-07
1.58983e-08
4.73844e-07
1.6886e-08
4.75834e-07
1.80847e-08
4.78052e-07
1.95253e-08
4.8055e-07
2.12305e-08
4.83385e-07
2.3212e-08
2.54465e-08
4.8661e-07
4.36486e-07
9.22048e-09
4.37789e-07
9.30681e-09
4.39104e-07
9.394e-09
4.40432e-07
9.48236e-09
4.41771e-07
9.57229e-09
4.43124e-07
9.66425e-09
4.44489e-07
9.75883e-09
4.45869e-07
9.8568e-09
4.47263e-07
9.95909e-09
4.48673e-07
1.00669e-08
4.501e-07
1.01819e-08
4.51546e-07
1.03059e-08
4.53011e-07
1.04415e-08
4.545e-07
1.05921e-08
4.56016e-07
1.07619e-08
4.57561e-07
1.09561e-08
4.59143e-07
1.11818e-08
4.60768e-07
1.14475e-08
4.62445e-07
1.17642e-08
4.64187e-07
1.21454e-08
4.66007e-07
1.26077e-08
4.67926e-07
1.31705e-08
4.69968e-07
1.38567e-08
4.72162e-07
1.46914e-08
4.74547e-07
1.57003e-08
4.77164e-07
1.69074e-08
4.80065e-07
1.83298e-08
4.83302e-07
1.99755e-08
2.18247e-08
4.86924e-07
4.28126e-07
7.66506e-09
4.29695e-07
7.73786e-09
4.31278e-07
7.81125e-09
4.32874e-07
7.8855e-09
4.34486e-07
7.96093e-09
4.36112e-07
8.03794e-09
4.37754e-07
8.11702e-09
4.39412e-07
8.1988e-09
4.41087e-07
8.28406e-09
4.4278e-07
8.37382e-09
4.44493e-07
8.46934e-09
4.46226e-07
8.57226e-09
4.47983e-07
8.68468e-09
4.49766e-07
8.80928e-09
4.51578e-07
8.9495e-09
4.53425e-07
9.10972e-09
4.55311e-07
9.2955e-09
4.57245e-07
9.51387e-09
4.59235e-07
9.77363e-09
4.61295e-07
1.00856e-08
4.6344e-07
1.04629e-08
4.65689e-07
1.09212e-08
4.68068e-07
1.14781e-08
4.70606e-07
1.21533e-08
4.7334e-07
1.29663e-08
4.76312e-07
1.39353e-08
4.79569e-07
1.50725e-08
4.83162e-07
1.63826e-08
1.785e-08
4.87137e-07
4.20601e-07
5.8733e-09
4.22408e-07
5.93081e-09
4.24231e-07
5.9886e-09
4.26069e-07
6.04691e-09
4.27924e-07
6.10599e-09
4.29796e-07
6.16615e-09
4.31685e-07
6.2278e-09
4.33593e-07
6.29142e-09
4.35519e-07
6.35764e-09
4.37466e-07
6.42722e-09
4.39434e-07
6.50116e-09
4.41426e-07
6.58072e-09
4.43443e-07
6.6675e-09
4.45488e-07
6.76357e-09
4.47566e-07
6.87155e-09
4.49681e-07
6.99477e-09
4.51839e-07
7.13746e-09
4.54048e-07
7.30494e-09
4.56318e-07
7.50381e-09
4.58661e-07
7.74221e-09
4.61094e-07
8.02991e-09
4.63637e-07
8.37844e-09
4.66315e-07
8.80083e-09
4.69157e-07
9.31119e-09
4.72199e-07
9.92361e-09
4.75484e-07
1.06506e-08
4.79056e-07
1.15002e-08
4.82964e-07
1.24748e-08
1.35625e-08
4.87252e-07
4.13822e-07
3.86955e-09
4.15842e-07
3.91019e-09
4.1788e-07
3.95081e-09
4.19935e-07
3.99157e-09
4.22009e-07
4.03267e-09
4.241e-07
4.07434e-09
4.26211e-07
4.11687e-09
4.28342e-07
4.16062e-09
4.30494e-07
4.20602e-09
4.32667e-07
4.25361e-09
4.34864e-07
4.3041e-09
4.37087e-07
4.35834e-09
4.39337e-07
4.41745e-09
4.41618e-07
4.48284e-09
4.43933e-07
4.55628e-09
4.46288e-07
4.64005e-09
4.48688e-07
4.73698e-09
4.51142e-07
4.85065e-09
4.53661e-07
4.98547e-09
4.56256e-07
5.14682e-09
4.58945e-07
5.34114e-09
4.61747e-07
5.57592e-09
4.64689e-07
5.85957e-09
4.67799e-07
6.20101e-09
4.71114e-07
6.60894e-09
4.74673e-07
7.09079e-09
4.78523e-07
7.65086e-09
4.82708e-07
8.28939e-09
8.99815e-09
4.87272e-07
4.07708e-07
1.67559e-09
4.0992e-07
1.69799e-09
4.12151e-07
1.72003e-09
4.14401e-07
1.74183e-09
4.1667e-07
1.76352e-09
4.18959e-07
1.78525e-09
4.21269e-07
1.8072e-09
4.236e-07
1.82957e-09
4.25953e-07
1.85263e-09
4.2833e-07
1.87667e-09
4.30732e-07
1.9021e-09
4.33161e-07
1.92936e-09
4.35619e-07
1.95908e-09
4.3811e-07
1.99198e-09
4.40638e-07
2.02899e-09
4.43206e-07
2.07129e-09
4.45823e-07
2.12033e-09
4.48496e-07
2.1779e-09
4.51235e-07
2.24619e-09
4.54054e-07
2.32783e-09
4.56969e-07
2.42592e-09
4.60001e-07
2.54395e-09
4.63175e-07
2.68575e-09
4.66521e-07
2.85517e-09
4.70074e-07
3.05575e-09
4.73875e-07
3.29005e-09
4.77967e-07
3.55883e-09
4.82396e-07
3.86034e-09
4.18986e-09
4.87204e-07
4.02191e-07
-6.8908e-10
4.04575e-07
-6.86144e-10
4.06979e-07
-6.83911e-10
4.09403e-07
-6.82314e-10
4.11848e-07
-6.81291e-10
4.14314e-07
-6.80776e-10
4.16802e-07
-6.80706e-10
4.19312e-07
-6.81012e-10
4.21847e-07
-6.81626e-10
4.24406e-07
-6.82477e-10
4.26991e-07
-6.83492e-10
4.29605e-07
-6.84597e-10
4.3225e-07
-6.85718e-10
4.34929e-07
-6.86781e-10
4.37645e-07
-6.87715e-10
4.40405e-07
-6.88456e-10
4.43215e-07
-6.88959e-10
4.46082e-07
-6.89209e-10
4.49017e-07
-6.89247e-10
4.52034e-07
-6.89197e-10
4.55149e-07
-6.89323e-10
4.58383e-07
-6.90085e-10
4.61761e-07
-6.92227e-10
4.65313e-07
-6.96875e-10
4.69075e-07
-7.05634e-10
4.73086e-07
-7.20683e-10
4.77389e-07
-7.44754e-10
4.82031e-07
-7.81528e-10
-8.32622e-10
4.87053e-07
4.67597e-07
-4.00023e-09
4.70935e-07
-4.02404e-09
4.743e-07
-4.04899e-09
4.77692e-07
-4.07508e-09
4.81113e-07
-4.10233e-09
4.84563e-07
-4.13076e-09
4.88043e-07
-4.16046e-09
4.91554e-07
-4.19152e-09
4.95096e-07
-4.22409e-09
4.98672e-07
-4.2584e-09
5.02283e-07
-4.29474e-09
5.05932e-07
-4.33351e-09
5.09622e-07
-4.37526e-09
5.13356e-07
-4.42073e-09
5.17139e-07
-4.47086e-09
5.20977e-07
-4.52692e-09
5.24879e-07
-4.59054e-09
5.28854e-07
-4.66386e-09
5.32914e-07
-4.74959e-09
5.37076e-07
-4.85117e-09
5.41359e-07
-4.9729e-09
5.45789e-07
-5.12002e-09
5.50396e-07
-5.29878e-09
5.55215e-07
-5.51638e-09
5.60291e-07
-5.78067e-09
5.6567e-07
-6.09969e-09
5.71405e-07
-6.48063e-09
5.77553e-07
-6.92961e-09
-7.44551e-09
5.84166e-07
4.70486e-07
-7.2092e-09
4.73721e-07
-7.259e-09
4.76982e-07
-7.31037e-09
4.80271e-07
-7.36337e-09
4.83586e-07
-7.4181e-09
4.8693e-07
-7.47469e-09
4.90303e-07
-7.53334e-09
4.93706e-07
-7.59432e-09
4.9714e-07
-7.65801e-09
5.00606e-07
-7.7249e-09
5.04107e-07
-7.79565e-09
5.07645e-07
-7.87114e-09
5.11222e-07
-7.95253e-09
5.14843e-07
-8.04133e-09
5.18511e-07
-8.13951e-09
5.22234e-07
-8.24964e-09
5.26019e-07
-8.37501e-09
5.29875e-07
-8.51985e-09
5.33815e-07
-8.68952e-09
5.37854e-07
-8.89074e-09
5.42013e-07
-9.13181e-09
5.46316e-07
-9.42276e-09
5.50792e-07
-9.77535e-09
5.55479e-07
-1.02029e-08
5.60418e-07
-1.07197e-08
5.65658e-07
-1.13398e-08
5.71253e-07
-1.20752e-08
5.77258e-07
-1.29348e-08
-1.39151e-08
5.83727e-07
4.73541e-07
-1.03106e-08
4.76668e-07
-1.03856e-08
4.7982e-07
-1.04626e-08
4.82999e-07
-1.05418e-08
4.86204e-07
-1.06232e-08
4.89436e-07
-1.07071e-08
4.92697e-07
-1.07938e-08
4.95986e-07
-1.08839e-08
4.99306e-07
-1.09777e-08
5.02657e-07
-1.10762e-08
5.06042e-07
-1.11804e-08
5.09462e-07
-1.12915e-08
5.12921e-07
-1.14113e-08
5.16422e-07
-1.15421e-08
5.19969e-07
-1.16868e-08
5.23569e-07
-1.18493e-08
5.27228e-07
-1.20345e-08
5.30957e-07
-1.22486e-08
5.34767e-07
-1.24996e-08
5.38674e-07
-1.27975e-08
5.42696e-07
-1.31544e-08
5.46859e-07
-1.35853e-08
5.51191e-07
-1.41075e-08
5.55729e-07
-1.47405e-08
5.60515e-07
-1.55055e-08
5.65598e-07
-1.64229e-08
5.71033e-07
-1.75103e-08
5.76878e-07
-1.87798e-08
-2.02263e-08
5.83189e-07
4.76784e-07
-1.32989e-08
4.79797e-07
-1.33984e-08
4.82834e-07
-1.35003e-08
4.85897e-07
-1.36047e-08
4.88986e-07
-1.37119e-08
4.92101e-07
-1.38223e-08
4.95244e-07
-1.39362e-08
4.98414e-07
-1.40544e-08
5.01614e-07
-1.41774e-08
5.04844e-07
-1.43065e-08
5.08106e-07
-1.44428e-08
5.11403e-07
-1.45883e-08
5.14737e-07
-1.47451e-08
5.18111e-07
-1.49163e-08
5.2153e-07
-1.51057e-08
5.24999e-07
-1.53185e-08
5.28526e-07
-1.5561e-08
5.32118e-07
-1.58414e-08
5.35789e-07
-1.61703e-08
5.39552e-07
-1.65607e-08
5.43427e-07
-1.70289e-08
5.47436e-07
-1.75944e-08
5.51609e-07
-1.82803e-08
5.55981e-07
-1.91129e-08
5.60596e-07
-2.01202e-08
5.65503e-07
-2.13304e-08
5.7076e-07
-2.27669e-08
5.76427e-07
-2.44468e-08
-2.63631e-08
5.82564e-07
4.80236e-07
-1.61683e-08
4.8313e-07
-1.62915e-08
4.86047e-07
-1.64174e-08
4.88988e-07
-1.65463e-08
4.91955e-07
-1.66785e-08
4.94947e-07
-1.68144e-08
4.97965e-07
-1.69546e-08
5.01011e-07
-1.70997e-08
5.04084e-07
-1.72509e-08
5.07187e-07
-1.74093e-08
5.10321e-07
-1.75766e-08
5.13487e-07
-1.77549e-08
5.16689e-07
-1.79471e-08
5.1993e-07
-1.81568e-08
5.23213e-07
-1.83888e-08
5.26544e-07
-1.86492e-08
5.29928e-07
-1.89459e-08
5.33376e-07
-1.9289e-08
5.36897e-07
-1.96915e-08
5.40506e-07
-2.01694e-08
5.4422e-07
-2.07428e-08
5.48061e-07
-2.14361e-08
5.5206e-07
-2.22784e-08
5.5625e-07
-2.33028e-08
5.60675e-07
-2.45452e-08
5.65386e-07
-2.60423e-08
5.70444e-07
-2.78249e-08
5.75914e-07
-2.99165e-08
-3.23086e-08
5.8186e-07
4.83923e-07
-1.89128e-08
4.8669e-07
-1.90587e-08
4.8948e-07
-1.92077e-08
4.92294e-07
-1.93602e-08
4.95132e-07
-1.95164e-08
4.97995e-07
-1.96769e-08
5.00882e-07
-1.98423e-08
5.03796e-07
-2.00135e-08
5.06737e-07
-2.01915e-08
5.09705e-07
-2.0378e-08
5.12703e-07
-2.05747e-08
5.15733e-07
-2.07842e-08
5.18796e-07
-2.10099e-08
5.21895e-07
-2.12559e-08
5.25034e-07
-2.15279e-08
5.28218e-07
-2.18329e-08
5.31452e-07
-2.21802e-08
5.34745e-07
-2.25817e-08
5.38106e-07
-2.30525e-08
5.41548e-07
-2.36117e-08
5.45088e-07
-2.42832e-08
5.48748e-07
-2.50961e-08
5.52555e-07
-2.60855e-08
5.56545e-07
-2.72922e-08
5.6076e-07
-2.87607e-08
5.65255e-07
-3.05374e-08
5.70093e-07
-3.26625e-08
5.75344e-07
-3.5168e-08
-3.80444e-08
5.8108e-07
4.87866e-07
-2.15254e-08
4.90501e-07
-2.16932e-08
4.93158e-07
-2.18645e-08
4.95837e-07
-2.20396e-08
4.98539e-07
-2.22188e-08
5.01265e-07
-2.24028e-08
5.04015e-07
-2.25923e-08
5.0679e-07
-2.27882e-08
5.0959e-07
-2.29918e-08
5.12417e-07
-2.32049e-08
5.15272e-07
-2.34294e-08
5.18156e-07
-2.36684e-08
5.21072e-07
-2.39254e-08
5.24021e-07
-2.42053e-08
5.27007e-07
-2.45142e-08
5.30035e-07
-2.48604e-08
5.33109e-07
-2.52541e-08
5.36236e-07
-2.5709e-08
5.39426e-07
-2.62421e-08
5.42689e-07
-2.68753e-08
5.46042e-07
-2.76362e-08
5.49505e-07
-2.85589e-08
5.53104e-07
-2.96845e-08
5.56874e-07
-3.10617e-08
5.60858e-07
-3.27451e-08
5.65113e-07
-3.47924e-08
5.69706e-07
-3.72555e-08
5.74716e-07
-4.01782e-08
-4.35501e-08
5.80222e-07
4.92091e-07
-2.39987e-08
4.94585e-07
-2.41875e-08
4.97101e-07
-2.43801e-08
4.99638e-07
-2.45767e-08
5.02197e-07
-2.47779e-08
5.04778e-07
-2.49842e-08
5.07382e-07
-2.51965e-08
5.1001e-07
-2.54158e-08
5.12662e-07
-2.56436e-08
5.15338e-07
-2.58816e-08
5.18041e-07
-2.61322e-08
5.20771e-07
-2.63985e-08
5.2353e-07
-2.66845e-08
5.2632e-07
-2.69955e-08
5.29144e-07
-2.73382e-08
5.32006e-07
-2.77215e-08
5.34908e-07
-2.8157e-08
5.37859e-07
-2.86594e-08
5.40865e-07
-2.92479e-08
5.43936e-07
-2.99469e-08
5.47088e-07
-3.07874e-08
5.50337e-07
-3.18081e-08
5.53709e-07
-3.30569e-08
5.57238e-07
-3.45908e-08
5.60968e-07
-3.64752e-08
5.64958e-07
-3.87821e-08
5.6928e-07
-4.15773e-08
5.74023e-07
-4.49215e-08
-4.88033e-08
5.79276e-07
4.96618e-07
-2.63244e-08
4.98964e-07
-2.65331e-08
5.01329e-07
-2.67457e-08
5.03716e-07
-2.69627e-08
5.06122e-07
-2.71846e-08
5.0855e-07
-2.7412e-08
5.10999e-07
-2.76458e-08
5.13471e-07
-2.78871e-08
5.15964e-07
-2.81373e-08
5.18481e-07
-2.83985e-08
5.21022e-07
-2.86732e-08
5.23588e-07
-2.89646e-08
5.26181e-07
-2.92769e-08
5.28801e-07
-2.96159e-08
5.31452e-07
-2.99888e-08
5.34135e-07
-3.0405e-08
5.36855e-07
-3.0877e-08
5.39617e-07
-3.14206e-08
5.42425e-07
-3.20567e-08
5.4529e-07
-3.2812e-08
5.48224e-07
-3.37208e-08
5.51242e-07
-3.48264e-08
5.54368e-07
-3.61829e-08
5.57634e-07
-3.78569e-08
5.61085e-07
-3.99259e-08
5.64781e-07
-4.24784e-08
5.68802e-07
-4.55978e-08
5.73249e-07
-4.93691e-08
-5.37782e-08
5.78224e-07
5.0147e-07
-2.84927e-08
5.03657e-07
-2.87201e-08
5.05863e-07
-2.89516e-08
5.08088e-07
-2.91877e-08
5.10332e-07
-2.9429e-08
5.12596e-07
-2.9676e-08
5.1488e-07
-2.99297e-08
5.17184e-07
-3.01913e-08
5.19509e-07
-3.04623e-08
5.21855e-07
-3.07447e-08
5.24223e-07
-3.10412e-08
5.26614e-07
-3.13551e-08
5.29028e-07
-3.1691e-08
5.31466e-07
-3.20546e-08
5.33931e-07
-3.24537e-08
5.36424e-07
-3.2898e-08
5.38948e-07
-3.34007e-08
5.41506e-07
-3.39785e-08
5.44103e-07
-3.46537e-08
5.46746e-07
-3.54549e-08
5.49444e-07
-3.64192e-08
5.52212e-07
-3.75945e-08
5.55071e-07
-3.90413e-08
5.5805e-07
-4.08359e-08
5.61193e-07
-4.30691e-08
5.64564e-07
-4.58499e-08
5.68249e-07
-4.92829e-08
5.72368e-07
-5.34877e-08
-5.84459e-08
5.77036e-07
5.06662e-07
-3.04926e-08
5.0868e-07
-3.07372e-08
5.10714e-07
-3.09863e-08
5.12767e-07
-3.124e-08
5.14837e-07
-3.14991e-08
5.16925e-07
-3.17641e-08
5.19031e-07
-3.2036e-08
5.21156e-07
-3.2316e-08
5.23299e-07
-3.26058e-08
5.25462e-07
-3.29072e-08
5.27644e-07
-3.32231e-08
5.29846e-07
-3.35568e-08
5.32068e-07
-3.3913e-08
5.34311e-07
-3.42977e-08
5.36576e-07
-3.47185e-08
5.38863e-07
-3.51858e-08
5.41176e-07
-3.57129e-08
5.43515e-07
-3.63174e-08
5.45883e-07
-3.70223e-08
5.48286e-07
-3.78579e-08
5.50731e-07
-3.88638e-08
5.53228e-07
-4.00917e-08
5.55795e-07
-4.16086e-08
5.5846e-07
-4.35008e-08
5.61265e-07
-4.58739e-08
5.64276e-07
-4.88613e-08
5.67587e-07
-5.25933e-08
5.71338e-07
-5.72391e-08
-6.27721e-08
5.75664e-07
4.97884e-07
-3.27684e-08
5.00179e-07
-3.30323e-08
5.02493e-07
-3.33007e-08
5.04827e-07
-3.35739e-08
5.07181e-07
-3.38525e-08
5.09554e-07
-3.41373e-08
5.11947e-07
-3.4429e-08
5.1436e-07
-3.47291e-08
5.16793e-07
-3.50389e-08
5.19247e-07
-3.53606e-08
5.2172e-07
-3.56969e-08
5.24215e-07
-3.60512e-08
5.2673e-07
-3.64281e-08
5.29266e-07
-3.68335e-08
5.31822e-07
-3.72754e-08
5.344e-07
-3.77639e-08
5.37e-07
-3.83127e-08
5.39622e-07
-3.89395e-08
5.42268e-07
-3.96681e-08
5.4494e-07
-4.05296e-08
5.47642e-07
-4.15657e-08
5.50381e-07
-4.28315e-08
5.53172e-07
-4.43996e-08
5.56038e-07
-4.63668e-08
5.59019e-07
-4.88543e-08
5.62183e-07
-5.2025e-08
5.65629e-07
-5.60396e-08
5.6953e-07
-6.114e-08
-6.72836e-08
5.74041e-07
5.13853e-07
-3.45261e-08
5.15626e-07
-3.4805e-08
5.17414e-07
-3.50883e-08
5.19216e-07
-3.53766e-08
5.21034e-07
-3.56703e-08
5.22867e-07
-3.59702e-08
5.24715e-07
-3.6277e-08
5.26578e-07
-3.65921e-08
5.28456e-07
-3.6917e-08
5.30349e-07
-3.72536e-08
5.32257e-07
-3.76046e-08
5.34179e-07
-3.79734e-08
5.36115e-07
-3.83644e-08
5.38065e-07
-3.87837e-08
5.40029e-07
-3.92387e-08
5.42005e-07
-3.97398e-08
5.43992e-07
-4.03003e-08
5.45991e-07
-4.0938e-08
5.47999e-07
-4.16766e-08
5.50018e-07
-4.2548e-08
5.52047e-07
-4.35947e-08
5.5409e-07
-4.48747e-08
5.56156e-07
-4.64654e-08
5.58263e-07
-4.84742e-08
5.60446e-07
-5.10376e-08
5.62775e-07
-5.43541e-08
5.65354e-07
-5.86183e-08
5.68392e-07
-6.4178e-08
-7.09601e-08
5.72069e-07
5.33284e-07
-3.56491e-08
5.34417e-07
-3.59376e-08
5.35559e-07
-3.62305e-08
5.3671e-07
-3.65282e-08
5.37871e-07
-3.68313e-08
5.39042e-07
-3.71404e-08
5.40221e-07
-3.74563e-08
5.41409e-07
-3.77803e-08
5.42606e-07
-3.81137e-08
5.43811e-07
-3.84586e-08
5.45024e-07
-3.88173e-08
5.46244e-07
-3.91933e-08
5.4747e-07
-3.95907e-08
5.48701e-07
-4.00153e-08
5.49937e-07
-4.04744e-08
5.51175e-07
-4.09778e-08
5.52413e-07
-4.15386e-08
5.5365e-07
-4.21741e-08
5.54881e-07
-4.29077e-08
5.56104e-07
-4.37708e-08
5.57315e-07
-4.48066e-08
5.58515e-07
-4.60744e-08
5.59705e-07
-4.76554e-08
5.60898e-07
-4.96669e-08
5.6212e-07
-5.22599e-08
5.63442e-07
-5.56758e-08
5.64966e-07
-6.01429e-08
5.66955e-07
-6.61669e-08
-7.36142e-08
5.69609e-07
5.56871e-07
-3.5994e-08
5.57219e-07
-3.62853e-08
5.57569e-07
-3.65808e-08
5.57922e-07
-3.6881e-08
5.58277e-07
-3.71863e-08
5.58634e-07
-3.74973e-08
5.58993e-07
-3.78148e-08
5.59352e-07
-3.814e-08
5.59713e-07
-3.84741e-08
5.60073e-07
-3.8819e-08
5.60433e-07
-3.9177e-08
5.60791e-07
-3.95512e-08
5.61145e-07
-3.99455e-08
5.61496e-07