/*--------------------------------*- C++ -*----------------------------------*\
  =========                 |
  \\      /  F ield         | OpenFOAM: The Open Source CFD Toolbox
   \\    /   O peration     | Website:  https://openfoam.org
    \\  /    A nd           | Version:  6
     \\/     M anipulation  |
\*---------------------------------------------------------------------------*/
FoamFile
{
    version     2.0;
    format      ascii;
    class       volVectorField;
    location    "0.02";
    object      U;
}
// * * * * * * * * * * * * * * * * * * * * * * * * * * * * * * * * * * * * * //

dimensions      [0 1 -1 0 0 0 0];

internalField   nonuniform List<vector> 
3080
(
(0.459136 -4.36778e-05 8.63169e-21)
(0.459188 -4.25192e-05 8.58283e-21)
(0.459237 -4.13655e-05 0)
(0.459284 -4.0194e-05 8.48582e-21)
(0.459329 -3.89764e-05 0)
(0.459371 -3.76799e-05 0)
(0.45941 -3.62656e-05 8.34218e-21)
(0.459445 -3.46857e-05 0)
(0.459477 -3.28816e-05 8.24775e-21)
(0.459504 -3.07787e-05 0)
(0.459525 -2.82827e-05 0)
(0.459539 -2.52715e-05 8.10843e-21)
(0.459545 -2.15859e-05 0)
(0.45954 -1.7016e-05 8.01744e-21)
(0.459521 -1.12816e-05 0)
(0.459484 -4.00619e-06 0)
(0.459425 5.32342e-06 0)
(0.459335 1.74169e-05 -7.84221e-21)
(0.459207 3.3274e-05 0)
(0.459026 5.43368e-05 7.76016e-21)
(0.458774 8.27519e-05 0)
(0.458424 0.000121837 0)
(0.457936 0.00017703 0)
(0.457247 0.000257682 0)
(0.456258 0.000382316 0)
(0.454756 0.000586443 0)
(0.452452 0.000973466 0)
(0.448074 0.00171672 -1.52413e-20)
(0.441562 0.00375201 0)
(0.41946 0.00734914 0)
(0.484161 -7.26667e-05 6.75304e-21)
(0.484222 -7.02681e-05 -6.71987e-21)
(0.484282 -6.78643e-05 0)
(0.484339 -6.54138e-05 6.64905e-21)
(0.484395 -6.28633e-05 0)
(0.484448 -6.0148e-05 0)
(0.484498 -5.71892e-05 -6.54692e-21)
(0.484545 -5.38897e-05 1.30238e-20)
(0.48459 -5.01283e-05 -6.47826e-21)
(0.48463 -4.57516e-05 0)
(0.484665 -4.05641e-05 0)
(0.484694 -3.43132e-05 6.37506e-21)
(0.484716 -2.66696e-05 0)
(0.484729 -1.71993e-05 6.30803e-21)
(0.48473 -5.32491e-06 0)
(0.484716 9.72986e-06 0)
(0.484683 2.9021e-05 0)
(0.484624 5.40067e-05 6.17857e-21)
(0.484532 8.67378e-05 0)
(0.484396 0.000130166 -6.11711e-21)
(0.4842 0.00018867 0)
(0.483924 0.000268991 0)
(0.483537 0.000382092 1.20727e-20)
(0.482993 0.000546732 -1.20297e-20)
(0.482224 0.000799039 0)
(0.481104 0.00120913 0)
(0.479501 0.00196042 0)
(0.476855 0.00338966 3.60902e-20)
(0.473613 0.00693158 0)
(0.466314 0.0135514 -2.47285e-20)
(0.492077 -0.000122147 -1.10451e-20)
(0.492141 -0.000118401 0)
(0.492203 -0.000114636 0)
(0.492263 -0.000110793 -3.26334e-20)
(0.492321 -0.000106794 2.16438e-20)
(0.492377 -0.000102543 0)
(0.492431 -9.79193e-05 2.14213e-20)
(0.492482 -9.27732e-05 -1.06558e-20)
(0.49253 -8.69176e-05 0)
(0.492574 -8.01157e-05 0)
(0.492613 -7.20651e-05 0)
(0.492646 -6.23756e-05 -3.13015e-20)
(0.492672 -5.05392e-05 0)
(0.492689 -3.58878e-05 -1.03246e-20)
(0.492693 -1.75348e-05 0)
(0.492683 5.70875e-06 0)
(0.492653 3.54551e-05 0)
(0.492597 7.39208e-05 0)
(0.492508 0.000124206 0)
(0.492374 0.000190741 0)
(0.492179 0.000280029 -1.99253e-20)
(0.491903 0.000401945 0)
(0.491516 0.00057219 -9.87618e-21)
(0.490972 0.000816953 2.95229e-20)
(0.490207 0.00118391 0)
(0.489111 0.00176235 0)
(0.487566 0.00275638 -1.96015e-20)
(0.485218 0.00454986 -1.96794e-20)
(0.482403 0.00837549 1.98395e-20)
(0.478246 0.0156084 2.02219e-20)
(0.496285 -0.000173221 -1.92592e-20)
(0.49635 -0.000168212 0)
(0.496413 -0.000163155 0)
(0.496475 -0.000157975 1.89693e-20)
(0.496535 -0.000152565 -9.7601e-25)
(0.496593 -0.000146797 0)
(0.496649 -0.000140506 -1.86771e-20)
(0.496703 -0.000133486 -1.85787e-20)
(0.496753 -0.000125481 0)
(0.4968 -0.000116164 0)
(0.496842 -0.000105115 1.82866e-20)
(0.496878 -9.17964e-05 8.47421e-25)
(0.496907 -7.55049e-05 0)
(0.496927 -5.53182e-05 1.79964e-20)
(0.496936 -3.00135e-05 0)
(0.49693 2.04555e-06 0)
(0.496904 4.3073e-05 0)
(0.496853 9.61032e-05 -1.76191e-20)
(0.496769 0.000165363 0)
(0.496641 0.000256854 0)
(0.496454 0.000379321 1.73564e-20)
(0.496189 0.000545887 0)
(0.495816 0.000777055 0)
(0.495295 0.00110625 -3.42743e-20)
(0.494569 0.0015918 0)
(0.493551 0.0023385 0)
(0.492157 0.00356271 1.70577e-20)
(0.490186 0.00565248 3.41452e-20)
(0.487977 0.00962018 -1.72475e-20)
(0.485472 0.0164751 0)
(0.498935 -0.000222044 1.7481e-20)
(0.499 -0.000215894 -1.73919e-20)
(0.499065 -0.000209661 0)
(0.499128 -0.00020325 1.72148e-20)
(0.499189 -0.000196531 -1.71268e-20)
(0.499249 -0.000189341 0)
(0.499307 -0.000181475 -1.69479e-20)
(0.499362 -0.000172672 3.37182e-20)
(0.499414 -0.000162608 0)
(0.499463 -0.000150865 3.33604e-20)
(0.499508 -0.000136913 -1.65918e-20)
(0.499547 -0.000120065 1.65027e-20)
(0.49958 -9.94288e-05 0)
(0.499604 -7.3831e-05 -1.63253e-20)
(0.499616 -4.17208e-05 0)
(0.499615 -1.026e-06 0)
(0.499594 5.10494e-05 0)
(0.49955 0.000118325 1.5978e-20)
(0.499474 0.000206095 0)
(0.499356 0.000321833 0)
(0.499182 0.000476327 0)
(0.498934 0.000685574 0)
(0.498587 0.000974119 0)
(0.498105 0.00138102 1.55292e-20)
(0.497442 0.0019718 0)
(0.496535 0.00285904 3.08625e-20)
(0.495333 0.00425612 0)
(0.493748 0.00652177 -3.09101e-20)
(0.492121 0.0104455 -3.09188e-20)
(0.490685 0.0167094 0)
(0.50074 -0.000269325 0)
(0.500806 -0.000262149 1.61897e-20)
(0.50087 -0.000254853 0)
(0.500934 -0.000247321 -4.80695e-20)
(0.500996 -0.000239401 0)
(0.501057 -0.000230898 3.17121e-20)
(0.501116 -0.000221567 1.5773e-20)
(0.501173 -0.000211099 -1.56891e-20)
(0.501227 -0.000199101 0)
(0.501278 -0.000185073 -3.10425e-20)
(0.501325 -0.000168377 0)
(0.501367 -0.000148187 -3.07054e-20)
(0.501403 -0.000123428 0)
(0.50143 -9.2693e-05 0)
(0.501447 -5.41206e-05 0)
(0.501451 -5.23187e-06 0)
(0.501437 5.73089e-05 0)
(0.501401 0.00013804 2.97133e-20)
(0.501334 0.000243221 2.95539e-20)
(0.501229 0.000381622 0)
(0.501073 0.000565781 0)
(0.500849 0.000814043 0)
(0.500535 0.00115403 0)
(0.500104 0.00162858 -2.88395e-20)
(0.49952 0.00230693 0)
(0.498741 0.00330282 -5.73104e-20)
(0.497748 0.00481616 2.85764e-20)
(0.496527 0.00716175 2.85425e-20)
(0.495409 0.0109393 2.86861e-20)
(0.494723 0.0165992 2.84866e-20)
(0.502029 -0.000315423 0)
(0.502094 -0.000307325 0)
(0.502159 -0.00029907 0)
(0.502223 -0.000290522 1.0609e-24)
(0.502286 -0.000281507 3.01953e-20)
(0.502347 -0.000271803 -3.00365e-20)
(0.502407 -0.000261125 2.98751e-20)
(0.502465 -0.000249118 0)
(0.502521 -0.000235328 -2.95538e-20)
(0.502573 -0.000219179 0)
(0.502622 -0.000199931 2.92318e-20)
(0.502667 -0.000176627 2.90723e-20)
(0.502705 -0.000148028 0)
(0.502737 -0.000112506 0)
(0.502758 -6.7919e-05 2.85897e-20)
(0.502767 -1.14163e-05 2.84307e-20)
(0.502761 6.08231e-05 2.82727e-20)
(0.502733 0.000153975 -3.54154e-24)
(0.502679 0.000275135 -2.79665e-20)
(0.502589 0.000434171 0)
(0.502454 0.000645036 0)
(0.502258 0.00092786 0)
(0.501986 0.00131237 2.73845e-20)
(0.501614 0.00184349 2.72746e-20)
(0.501118 0.00259124 0)
(0.500476 0.00366574 5.41142e-20)
(0.499693 0.00524795 -5.31308e-23)
(0.498803 0.00760534 -7.95513e-23)
(0.49812 0.0111872 -2.68373e-20)
(0.49798 0.0162828 -5.35913e-20)
(0.502983 -0.000360319 -2.95898e-20)
(0.503048 -0.000351395 0)
(0.503113 -0.000342278 0)
(0.503176 -0.000332816 9.05544e-25)
(0.503239 -0.000322813 -5.79484e-20)
(0.5033 -0.000312019 -2.88186e-20)
(0.50336 -0.000300118 -2.8664e-20)
(0.503419 -0.000286711 2.85072e-20)
(0.503475 -0.000271288 5.67032e-20)
(0.503529 -0.000253203 -2.81947e-20)
(0.50358 -0.000231625 -1.28671e-24)
(0.503626 -0.00020548 0)
(0.503668 -0.000173376 0)
(0.503703 -0.000133493 0)
(0.503729 -8.34343e-05 -2.74156e-20)
(0.503744 -2.00239e-05 -2.72609e-20)
(0.503745 6.09812e-05 -2.71072e-20)
(0.503727 0.000165301 -3.94e-24)
(0.503686 0.000300727 0)
(0.503614 0.000478003 0)
(0.503502 0.000712156 0)
(0.50334 0.00102454 0)
(0.503113 0.00144609 -2.62395e-20)
(0.502806 0.00202235 0)
(0.502406 0.0028219 0)
(0.501903 0.00394812 -2.58957e-20)
(0.501324 0.00556088 -2.58087e-20)
(0.50073 0.00788242 -2.57344e-20)
(0.500412 0.0112461 2.56756e-20)
(0.50068 0.0158299 2.55403e-20)
(0.503714 -0.000403871 5.7367e-20)
(0.503778 -0.000394211 -2.8533e-20)
(0.503841 -0.000384327 0)
(0.503904 -0.000374049 2.82319e-20)
(0.503966 -0.000363163 2.80803e-20)
(0.504027 -0.000351397 2.79282e-20)
(0.504086 -0.000338404 2.77749e-20)
(0.504145 -0.000323746 -2.7623e-20)
(0.504202 -0.000306866 -2.74699e-20)
(0.504256 -0.000287055 2.73166e-20)
(0.504308 -0.0002634 -5.43251e-20)
(0.504356 -0.000234726 0)
(0.5044 -0.00019951 0)
(0.504438 -0.000155762 -2.6701e-20)
(0.504468 -0.000100868 2.65478e-20)
(0.50449 -3.13775e-05 0)
(0.504499 5.73051e-05 5.24855e-20)
(0.504492 0.000171341 -2.60958e-20)
(0.504465 0.000319067 0)
(0.504412 0.000511879 0)
(0.504326 0.000765535 0)
(0.504199 0.0011021 5.10085e-20)
(0.504022 0.00155289 5.07295e-20)
(0.503784 0.00216292 0)
(0.503481 0.00299767 0)
(0.503117 0.00415202 0)
(0.502731 0.00576462 4.9709e-20)
(0.502401 0.00801709 4.94668e-20)
(0.50239 0.0111547 -4.92146e-20)
(0.502968 0.0152806 0)
(0.504295 -0.000445861 -6.85855e-25)
(0.504357 -0.000435549 5.57451e-20)
(0.504418 -0.000424987 0)
(0.504479 -0.000413992 0)
(0.504539 -0.000402333 0)
(0.504599 -0.000389716 0)
(0.504657 -0.00037577 -2.71244e-20)
(0.504715 -0.000360023 0)
(0.504771 -0.000341878 0)
(0.504826 -0.000320571 0)
(0.504878 -0.000295124 7.95545e-20)
(0.504927 -0.000264275 5.27315e-20)
(0.504973 -0.000226389 0)
(0.505013 -0.000179337 2.60636e-20)
(0.505048 -0.00012033 -2.5912e-20)
(0.505075 -4.56928e-05 -5.1516e-20)
(0.505092 4.94433e-05 -5.12207e-20)
(0.505097 0.000171574 -5.09123e-20)
(0.505085 0.000329429 -5.0613e-20)
(0.505052 0.000534834 5.0316e-20)
(0.504994 0.000803951 0)
(0.504905 0.00115908 -2.43489e-23)
(0.504779 0.00163125 -9.89254e-20)
(0.504612 0.002264 0)
(0.504407 0.00311869 0)
(0.504178 0.00428081 0)
(0.503971 0.00586892 -1.02173e-22)
(0.503875 0.00802957 -1.3593e-22)
(0.504123 0.0109419 4.79425e-20)
(0.504942 0.0146597 0)
(0.504777 -0.000485964 -2.75395e-20)
(0.504835 -0.000475083 -2.73924e-20)
(0.504894 -0.000463935 0)
(0.504952 -0.000452323 5.41919e-20)
(0.50501 -0.000440002 0)
(0.505067 -0.000426662 0)
(0.505123 -0.00041191 0)
(0.505179 -0.000395249 0)
(0.505234 -0.000376047 5.26964e-20)
(0.505287 -0.000353499 0)
(0.505339 -0.000326571 -5.20955e-20)
(0.505389 -0.000293934 -2.8455e-24)
(0.505435 -0.000253867 -5.14881e-20)
(0.505478 -0.000204132 0)
(0.505517 -0.000141805 0)
(0.505549 -6.30471e-05 5.0586e-20)
(0.505574 3.72069e-05 5.02778e-20)
(0.50559 0.000165678 4.99858e-20)
(0.505593 0.000331336 1.18928e-23)
(0.505581 0.000546221 -4.93922e-20)
(0.505552 0.000826603 0)
(0.505501 0.0011946 -4.881e-20)
(0.505427 0.00168042 9.70168e-20)
(0.505332 0.00232544 0)
(0.505223 0.00318623 0)
(0.505123 0.00433879 4.76206e-20)
(0.505082 0.00588334 -9.47438e-20)
(0.505193 0.00793695 -1.26531e-22)
(0.505659 0.0106295 0)
(0.506671 0.0139831 0)
(0.505251 -0.000512368 0)
(0.505305 -0.000500726 0)
(0.50536 -0.000488601 -1.07005e-19)
(0.505414 -0.000475737 5.32058e-20)
(0.505467 -0.000461809 5.29085e-20)
(0.505521 -0.000446409 0)
(0.505573 -0.00042902 -5.23113e-20)
(0.505626 -0.000408986 -5.20133e-20)
(0.505677 -0.00038547 0)
(0.505727 -0.0003574 0)
(0.505776 -0.000323396 -2.84573e-24)
(0.505823 -0.000281676 5.08092e-20)
(0.505867 -0.000229927 0)
(0.505909 -0.000165135 5.02004e-20)
(0.505946 -8.33566e-05 0)
(0.505978 2.05919e-05 -4.96024e-20)
(0.506004 0.000153549 0)
(0.506023 0.000324575 9.79914e-20)
(0.506032 0.000545731 0)
(0.506031 0.000833125 4.83864e-20)
(0.506019 0.00120834 0)
(0.505998 0.00170034 -4.78179e-20)
(0.505972 0.00234788 0)
(0.505956 0.00320245 0)
(0.505977 0.0043308 -4.69422e-20)
(0.506088 0.00581698 4.66419e-20)
(0.50638 0.00775369 -1.17144e-22)
(0.507033 0.0102345 -4.58267e-20)
(0.508203 0.0132615 0)
(0.505631 -0.000546826 0)
(0.50568 -0.00053479 0)
(0.505729 -0.000522264 5.30118e-20)
(0.505778 -0.000508981 -1.22457e-24)
(0.505826 -0.00049461 -5.24191e-20)
(0.505875 -0.000478731 0)
(0.505924 -0.000460816 5.18227e-20)
(0.505972 -0.000440191 0)
(0.50602 -0.000416001 0)
(0.506067 -0.000387149 0)
(0.506114 -0.000352227 -5.06209e-20)
(0.50616 -0.000309417 0)
(0.506205 -0.000256365 -5.00126e-20)
(0.506248 -0.000190012 -4.97142e-20)
(0.506289 -0.000106367 0)
(0.506328 -2.09126e-07 4.9101e-20)
(0.506364 0.000135313 -4.87963e-20)
(0.506397 0.000309217 -1.23248e-23)
(0.506426 0.000533397 -4.81861e-20)
(0.506453 0.000823573 -1.99088e-23)
(0.506479 0.00120051 0)
(0.506509 0.0016916 4.72647e-20)
(0.506551 0.00233269 0)
(0.506623 0.00317014 0)
(0.506756 0.00426206 0)
(0.507006 0.00567839 -4.59683e-20)
(0.507457 0.0074921 -1.07961e-22)
(0.508269 0.00977003 9.05219e-20)
(0.50957 0.0125022 0)
(0.505994 -0.000577752 5.32536e-20)
(0.506036 -0.000565432 5.29598e-20)
(0.506078 -0.000552624 -5.2665e-20)
(0.50612 -0.000539059 -1.19168e-24)
(0.506163 -0.000524402 0)
(0.506205 -0.000508227 0)
(0.506248 -0.000489999 5.14752e-20)
(0.506291 -0.000469042 0)
(0.506334 -0.000444489 -5.08746e-20)
(0.506378 -0.000415238 0)
(0.506421 -0.000379871 0)
(0.506465 -0.000336561 4.99677e-20)
(0.506508 -0.000282948 9.93319e-20)
(0.506552 -0.000215971 0)
(0.506596 -0.000131652 0)
(0.50664 -2.48077e-05 -9.75039e-20)
(0.506685 0.000111328 4.8451e-20)
(0.506731 0.000285602 -4.81457e-20)
(0.50678 0.000509585 4.78399e-20)
(0.506834 0.000798405 -4.75335e-20)
(0.506896 0.00117179 -4.72008e-20)
(0.506974 0.00165533 -9.38011e-20)
(0.50708 0.00228183 0)
(0.507234 0.00309263 0)
(0.50747 0.00413792 0)
(0.507844 0.00547561 4.56143e-20)
(0.508436 0.0071628 -4.52442e-20)
(0.509383 0.00924684 -4.48373e-20)
(0.510795 0.0117108 0)
(0.506354 -0.000604323 -5.31355e-20)
(0.506387 -0.00059184 -5.2838e-20)
(0.506421 -0.000578885 5.25392e-20)
(0.506455 -0.000565189 -1.17195e-24)
(0.506489 -0.000550415 0)
(0.506524 -0.00053414 0)
(0.506559 -0.000515831 -1.02665e-19)
(0.506595 -0.000494813 0)
(0.506632 -0.000470228 1.01447e-19)
(0.50667 -0.000440979 5.04165e-20)
(0.506708 -0.000405659 0)
(0.506748 -0.00036246 -4.98048e-20)
(0.506789 -0.000309048 -4.94966e-20)
(0.506832 -0.000242406 0)
(0.506878 -0.000158624 0)
(0.506926 -5.2628e-05 9.71266e-20)
(0.506978 8.21716e-05 -4.8246e-20)
(0.507036 0.000254335 -4.79309e-20)
(0.507103 0.000474972 0)
(0.507181 0.000758457 0)
(0.507277 0.00112331 4.69953e-20)
(0.507401 0.00159316 4.66738e-20)
(0.507566 0.00219775 -4.6308e-20)
(0.507796 0.00297363 0)
(0.508126 0.00396388 0)
(0.50861 0.00521621 0)
(0.509324 0.00677512 0)
(0.510387 0.00867384 0)
(0.511893 0.0108918 0)
(0.506721 -0.00062584 0)
(0.506743 -0.000613323 0)
(0.506766 -0.000600364 -5.19204e-20)
(0.50679 -0.000586695 -1.0328e-19)
(0.506815 -0.000571983 0)
(0.50684 -0.000555814 0)
(0.506866 -0.000537664 1.51875e-24)
(0.506894 -0.00051687 -5.05029e-20)
(0.506922 -0.000492592 -1.98526e-24)
(0.506953 -0.000463756 -2.32535e-24)
(0.506985 -0.000428987 -4.96376e-20)
(0.507019 -0.000386521 -4.93466e-20)
(0.507056 -0.000334083 4.90544e-20)
(0.507097 -0.000268742 0)
(0.507142 -0.000186711 0)
(0.507193 -8.30907e-05 -4.81765e-20)
(0.507251 4.84467e-05 4.78796e-20)
(0.507319 0.000216074 9.515e-20)
(0.507401 0.000430316 -4.72652e-20)
(0.507502 0.000704666 0)
(0.507629 0.0010563 0)
(0.507794 0.00150682 -9.26533e-20)
(0.508014 0.00208294 1.38036e-19)
(0.508312 0.00281673 -9.13213e-20)
(0.508726 0.00374495 -9.0611e-20)
(0.509307 0.00490678 0)
(0.510126 0.00633679 8.90399e-20)
(0.511289 0.00805811 0)
(0.512873 0.0100488 0)
(0.507089 -0.000640857 5.27725e-20)
(0.507099 -0.000628475 0)
(0.50711 -0.00061569 1.0435e-19)
(0.507123 -0.000602241 1.03749e-19)
(0.507136 -0.000587807 0)
(0.50715 -0.000571983 0)
(0.507166 -0.000554264 5.09689e-20)
(0.507184 -0.00053401 5.06651e-20)
(0.507203 -0.000510409 -5.03606e-20)
(0.507225 -0.000482425 -2.22863e-24)
(0.507249 -0.000448737 2.64286e-24)
(0.507276 -0.000407646 3.17289e-24)
(0.507308 -0.000356971 -3.84956e-24)
(0.507345 -0.000293905 0)
(0.507388 -0.000214831 0)
(0.507439 -0.00011509 0)
(0.507502 1.13128e-05 0)
(0.507578 0.000172074 -4.75763e-20)
(0.507674 0.000377036 4.72591e-20)
(0.507794 0.00063871 0)
(0.507949 0.000972845 0)
(0.508152 0.00139899 9.25661e-20)
(0.50842 0.00194091 -9.18883e-20)
(0.50878 0.00262657 8.52562e-23)
(0.509268 0.00348714 9.0456e-20)
(0.509934 0.00455472 0)
(0.510844 0.00585609 -8.88446e-20)
(0.51209 0.00740712 -8.77611e-20)
(0.513742 0.00918587 0)
(0.507444 -0.000648576 -1.0543e-19)
(0.507442 -0.000636496 0)
(0.507441 -0.000624064 -5.2105e-20)
(0.507441 -0.000611028 -5.17991e-20)
(0.507443 -0.00059708 0)
(0.507446 -0.000581835 0)
(0.507451 -0.000564809 0)
(0.507458 -0.000545395 0)
(0.507467 -0.000522821 5.02608e-20)
(0.507479 -0.000496105 -9.99059e-20)
(0.507494 -0.000463991 4.96449e-20)
(0.507514 -0.000424874 9.86676e-20)
(0.50754 -0.000376692 -4.90251e-20)
(0.507571 -0.000316798 -4.87096e-20)
(0.507612 -0.000241792 0)
(0.507663 -0.000147304 0)
(0.507728 -2.77411e-05 0)
(0.507811 0.000124046 0)
(0.507917 0.000317139 0)
(0.508055 0.000562987 0)
(0.508235 0.000875862 0)
(0.50847 0.00127326 0)
(0.508782 0.00177613 0)
(0.509195 0.00240863 1.81736e-19)
(0.509748 0.00319706 0)
(0.510487 0.00416758 0)
(0.511475 0.00534081 -8.83889e-20)
(0.512793 0.00672745 8.75962e-20)
(0.514502 0.00830639 0)
(0.507781 -0.000648936 5.26394e-20)
(0.507766 -0.000637307 5.23306e-20)
(0.507753 -0.000625383 5.20225e-20)
(0.507741 -0.000612929 -5.17142e-20)
(0.50773 -0.000599652 0)
(0.507721 -0.00058519 0)
(0.507715 -0.000569091 0)
(0.507711 -0.000550786 0)
(0.507709 -0.000529552 -5.01716e-20)
(0.507712 -0.000504472 1.98639e-24)
(0.507718 -0.000474378 -4.95504e-20)
(0.50773 -0.000437773 -4.92427e-20)
(0.507748 -0.000392743 0)
(0.507774 -0.000336831 4.11573e-24)
(0.50781 -0.000266893 -4.83041e-20)
(0.50786 -0.000178899 4.79897e-20)
(0.507926 -6.7708e-05 4.76733e-20)
(0.508013 7.32154e-05 0)
(0.508129 0.000252127 0)
(0.508282 0.000479358 0)
(0.508482 0.00076767 0)
(0.508746 0.00113253 -9.20607e-20)
(0.509095 0.00159219 0)
(0.509555 0.00216735 -9.06945e-20)
(0.510163 0.00288001 0)
(0.510965 0.00375136 0)
(0.512018 0.00479716 8.82781e-20)
(0.513396 0.00602443 0)
(0.515154 0.00741348 0)
(0.508091 -0.00064204 5.25467e-20)
(0.508064 -0.000630985 -5.22398e-20)
(0.508038 -0.000619703 -5.19319e-20)
(0.508013 -0.000607973 5.1624e-20)
(0.507991 -0.000595526 0)
(0.50797 -0.000582026 0)
(0.507952 -0.000567055 0)
(0.507937 -0.000550091 5.03912e-20)
(0.507925 -0.00053047 -5.00831e-20)
(0.507917 -0.000507354 4.97766e-20)
(0.507914 -0.00047967 4.94684e-20)
(0.507917 -0.000446054 0)
(0.507928 -0.000404758 0)
(0.507948 -0.000353548 4.85413e-20)
(0.507979 -0.000289567 4.63111e-24)
(0.508026 -0.000209167 -9.5832e-20)
(0.508092 -0.000107709 -4.76051e-20)
(0.508183 2.06797e-05 0)
(0.508306 0.000183375 0)
(0.50847 0.000389546 4.66319e-20)
(0.508688 0.000650427 0)
(0.508976 0.000979493 9.19552e-20)
(0.509356 0.00139244 4.56034e-20)
(0.509856 0.00190678 0)
(0.510511 0.00254074 -8.96966e-20)
(0.511366 0.00331133 0)
(0.512474 0.00423051 8.79916e-20)
(0.513901 0.00530266 8.70366e-20)
(0.515699 0.00650993 8.58931e-20)
(0.508366 -0.000628141 -5.24433e-20)
(0.508327 -0.000617761 0)
(0.508289 -0.00060723 -5.18311e-20)
(0.508252 -0.000596345 0)
(0.508218 -0.000584859 0)
(0.508186 -0.000572469 0)
(0.508157 -0.000558797 0)
(0.50813 -0.000543373 -5.03059e-20)
(0.508108 -0.0005256 1.49426e-24)
(0.50809 -0.000504725 -4.96938e-20)
(0.508077 -0.000479791 0)
(0.508072 -0.000449576 0)
(0.508074 -0.000412522 0)
(0.508087 -0.00036664 -4.84678e-20)
(0.508114 -0.000309391 4.81631e-20)
(0.508157 -0.000237544 9.57021e-20)
(0.508222 -0.000147003 0)
(0.508314 -3.26031e-05 -4.72199e-20)
(0.508442 0.000112113 -4.68999e-20)
(0.508615 0.000295121 -1.21045e-23)
(0.508848 0.000526118 -4.62423e-20)
(0.509156 0.000816633 4.59007e-20)
(0.509562 0.00117993 -4.55698e-20)
(0.510095 0.0016306 0)
(0.510789 0.00218353 1.34436e-19)
(0.511687 0.00285221 4.43776e-20)
(0.512839 0.00364557 -8.79591e-20)
(0.514306 0.00456616 -1.3047e-19)
(0.516136 0.00559824 -8.58804e-20)
(0.508599 -0.000607638 5.2329e-20)
(0.508548 -0.000598014 0)
(0.508498 -0.00058832 5.17268e-20)
(0.508451 -0.000578374 0)
(0.508405 -0.000567955 0)
(0.508362 -0.000556796 0)
(0.508322 -0.000544564 0)
(0.508285 -0.000530843 0)
(0.508252 -0.000515113 4.99197e-20)
(0.508224 -0.000496715 1.56364e-24)
(0.508202 -0.000474815 0)
(0.508188 -0.00044835 0)
(0.508183 -0.000415969 0)
(0.508189 -0.000375948 4.84089e-20)
(0.50821 -0.000326092 0)
(0.508249 -0.000263618 -4.53071e-24)
(0.508311 -0.000185004 0)
(0.508404 -8.58276e-05 4.71774e-20)
(0.508535 3.94138e-05 4.68615e-20)
(0.508715 0.000197482 -9.307e-20)
(0.508958 0.000396542 1.29993e-23)
(0.509282 0.000646215 -4.58745e-20)
(0.509709 0.000957462 0)
(0.510268 0.00134216 4.5137e-20)
(0.510993 0.00181223 -2.81207e-23)
(0.511926 0.00237817 -4.43685e-20)
(0.513114 0.00304649 0)
(0.514611 0.00381845 4.34568e-20)
(0.516467 0.00468063 0)
(0.508784 -0.000581063 -5.22111e-20)
(0.508722 -0.000572253 2.59569e-20)
(0.508662 -0.000563461 0)
(0.508603 -0.000554526 0)
(0.508547 -0.000545257 0)
(0.508494 -0.000535424 0)
(0.508443 -0.00052474 5.04332e-20)
(0.508396 -0.000512855 -5.0137e-20)
(0.508354 -0.000499324 4.98406e-20)
(0.508317 -0.000483594 4.95453e-20)
(0.508286 -0.000464961 -4.92467e-20)
(0.508263 -0.000442534 0)
(0.508249 -0.000415181 -4.86504e-20)
(0.508249 -0.000381461 0)
(0.508263 -0.000339547 4.80493e-20)
(0.508298 -0.000287124 -4.77498e-20)
(0.508357 -0.000221274 0)
(0.508449 -0.000138344 -4.713e-20)
(0.508581 -3.38104e-05 0)
(0.508765 9.78592e-05 4.65037e-20)
(0.509016 0.000263302 4.61772e-20)
(0.509352 0.000470278 0)
(0.509795 0.000727542 4.5476e-20)
(0.510374 0.00104447 -1.965e-23)
(0.511123 0.00143027 -8.94642e-20)
(0.512082 0.00189289 0)
(0.513297 0.0024369 4.38655e-20)
(0.514818 0.00306263 0)
(0.516693 0.00375909 4.28219e-20)
(0.508918 -0.000549056 2.60446e-20)
(0.508846 -0.000541102 -2.59e-20)
(0.508776 -0.000533257 2.57546e-20)
(0.508707 -0.000525385 2.56095e-20)
(0.508641 -0.000517327 0)
(0.508578 -0.000508889 0)
(0.508518 -0.000499838 -5.03492e-20)
(0.508462 -0.000489887 7.50874e-20)
(0.50841 -0.000478678 -4.97677e-20)
(0.508364 -0.000465764 0)
(0.508325 -0.000450581 7.37762e-20)
(0.508293 -0.000432418 2.44452e-20)
(0.508273 -0.000410374 4.85985e-20)
(0.508265 -0.000383306 0)
(0.508273 -0.00034977 -7.20095e-20)
(0.508303 -0.000307938 0)
(0.508358 -0.000255518 0)
(0.508447 -0.00018965 4.71018e-20)
(0.508579 -0.000106803 0)
(0.508766 -2.68673e-06 0)
(0.509021 0.000127818 0)
(0.509365 0.00029065 -4.58059e-20)
(0.509819 0.000492444 -4.54694e-20)
(0.510413 0.000740214 -4.51059e-20)
(0.511179 0.00104074 4.47223e-20)
(0.512157 0.00139967 0)
(0.513391 0.00181999 -4.38761e-20)
(0.514928 0.00230141 0)
(0.516815 0.00283536 -8.56532e-20)
(0.508999 -0.000512349 -5.1969e-20)
(0.508918 -0.000505275 -2.58427e-20)
(0.508839 -0.000498406 -2.57016e-20)
(0.508761 -0.000491632 -4.27867e-25)
(0.508687 -0.000484824 0)
(0.508615 -0.000477831 0)
(0.508546 -0.000470471 0)
(0.508481 -0.000462527 -2.49915e-20)
(0.508421 -0.000453727 0)
(0.508367 -0.000443737 0)
(0.508319 -0.000432138 -2.45629e-20)
(0.50828 -0.000418407 -4.88377e-20)
(0.508252 -0.000401882 0)
(0.508238 -0.000381729 2.4129e-20)
(0.50824 -0.000356896 1.09474e-24)
(0.508264 -0.000326062 0)
(0.508315 -0.000287573 2.36864e-20)
(0.508401 -0.000239376 -2.35352e-20)
(0.508531 -0.000178949 0)
(0.508718 -0.000103245 0)
(0.508975 -8.65696e-06 0)
(0.509323 0.000108967 4.58005e-20)
(0.509784 0.000254211 0)
(0.510386 0.000431847 0)
(0.511163 0.000646385 0)
(0.512153 0.000901427 0)
(0.513398 0.00119862 0)
(0.514944 0.00153717 0)
(0.516838 0.00191096 6.42427e-20)
(0.509028 -0.000471749 2.59258e-20)
(0.508939 -0.000465567 2.57879e-20)
(0.508851 -0.000459689 1.28247e-20)
(0.508766 -0.000454031 -2.55115e-20)
(0.508684 -0.000448496 0)
(0.508604 -0.000442975 0)
(0.508528 -0.000437343 0)
(0.508455 -0.00043145 0)
(0.508387 -0.000425115 -1.2408e-20)
(0.508326 -0.00041812 0)
(0.508271 -0.000410195 0)
(0.508225 -0.000401007 3.65921e-20)
(0.50819 -0.000390141 0)
(0.508169 -0.000377078 -2.41106e-20)
(0.508165 -0.000361171 2.39669e-20)
(0.508184 -0.000341609 0)
(0.50823 -0.00031739 -2.36752e-20)
(0.508312 -0.000287276 2.35263e-20)
(0.508439 -0.000249763 1.16865e-20)
(0.508623 -0.00020305 1.16089e-20)
(0.50888 -0.000145032 0)
(0.509228 -7.33198e-05 -1.14464e-20)
(0.509691 1.46694e-05 0)
(0.510297 0.000121551 -1.12701e-20)
(0.511079 0.000249685 0)
(0.512074 0.000400774 0)
(0.513325 0.000575269 0)
(0.514874 0.000772004 -1.08462e-20)
(0.516767 0.000987182 -2.14206e-20)
(0.509006 -0.000428073 0)
(0.50891 -0.000422785 0)
(0.508816 -0.000417902 -1.31171e-20)
(0.508725 -0.000413365 0)
(0.508635 -0.000409112 0)
(0.508549 -0.000405077 0)
(0.508466 -0.000401189 0)
(0.508387 -0.000397368 0)
(0.508312 -0.000393527 1.27033e-20)
(0.508244 -0.000389562 0)
(0.508183 -0.000385357 0)
(0.508131 -0.000380772 -1.24928e-20)
(0.50809 -0.000375641 0)
(0.508063 -0.000369764 0)
(0.508053 -0.0003629 0)
(0.508066 -0.00035476 0)
(0.508107 -0.000344994 0)
(0.508184 -0.000333187 0)
(0.508307 -0.000318854 -1.19797e-20)
(0.508488 -0.00030144 -1.19013e-20)
(0.508741 -0.000280335 0)
(0.509087 -0.000254899 1.1737e-20)
(0.509548 -0.000224516 0)
(0.510152 -0.00018868 1.15584e-20)
(0.510933 -0.000147116 0)
(0.511927 -9.99342e-05 0)
(0.513175 -4.78143e-05 0)
(0.514722 7.75374e-06 1.11275e-20)
(0.51661 6.51424e-05 0)
(0.508933 -0.000378129 0)
(0.508831 -0.000373786 0)
(0.508731 -0.00036996 0)
(0.508633 -0.000366619 -1.26934e-20)
(0.508538 -0.000363739 0)
(0.508445 -0.000361301 -1.2545e-20)
(0.508356 -0.000359295 1.24703e-20)
(0.508271 -0.000357718 0)
(0.508191 -0.000356583 1.23203e-20)
(0.508116 -0.000355916 0)
(0.508049 -0.000355765 1.2169e-20)
(0.507991 -0.000356205 0)
(0.507944 -0.000357344 -1.20161e-20)
(0.507911 -0.000359332 0)
(0.507896 -0.000362378 0)
(0.507903 -0.000366761 -1.17824e-20)
(0.507938 -0.000372853 -1.17028e-20)
(0.508009 -0.000381142 0)
(0.508126 -0.000392264 -2.30797e-20)
(0.5083 -0.000407032 0)
(0.508548 -0.000426478 2.27394e-20)
(0.508887 -0.000451876 0)
(0.509342 -0.000484772 0)
(0.509939 -0.000526966 0)
(0.510712 -0.000580469 0)
(0.511698 -0.000647386 0)
(0.512938 -0.000729664 0)
(0.514474 -0.000829151 0)
(0.516352 -0.000945394 -2.09915e-20)
(0.508794 -0.000321665 0)
(0.508688 -0.000318339 0)
(0.508583 -0.000315651 -2.60091e-20)
(0.50848 -0.000313601 1.29304e-20)
(0.50838 -0.000312202 0)
(0.508283 -0.000311487 1.27809e-20)
(0.508189 -0.00031151 -1.27057e-20)
(0.508099 -0.000312355 0)
(0.508014 -0.000314141 -1.25545e-20)
(0.507934 -0.000317033 0)
(0.507862 -0.00032126 1.24017e-20)
(0.507799 -0.000327124 -2.46497e-20)
(0.507747 -0.000335029 1.22475e-20)
(0.507708 -0.000345506 2.43389e-20)
(0.507687 -0.000359247 2.41816e-20)
(0.507688 -0.000377146 1.20113e-20)
(0.507717 -0.000400353 -1.1931e-20)
(0.507781 -0.000430336 2.36985e-20)
(0.50789 -0.00046894 -6.36613e-25)
(0.508056 -0.000518467 0)
(0.508294 -0.00058173 -2.31865e-20)
(0.508622 -0.000662095 0)
(0.509064 -0.00076347 0)
(0.509647 -0.000890201 -4.52488e-20)
(0.510404 -0.00104684 4.48359e-20)
(0.511372 -0.00123774 0)
(0.512594 -0.00146634 4.39292e-20)
(0.514112 -0.00173498 0)
(0.51597 -0.00204125 -2.14182e-20)
(0.508603 -0.000263653 5.25947e-20)
(0.508493 -0.00026138 0)
(0.508386 -0.000259865 2.60003e-20)
(0.50828 -0.000259134 0)
(0.508177 -0.000259243 0)
(0.508077 -0.000260272 0)
(0.507981 -0.00026234 5.07988e-20)
(0.507888 -0.000265613 0)
(0.5078 -0.000270314 0)
(0.507718 -0.000276746 4.98868e-20)
(0.507642 -0.000285311 2.479e-20)
(0.507576 -0.000296536 7.3908e-20)
(0.50752 -0.000311114 0)
(0.507477 -0.000329946 2.43251e-20)
(0.507452 -0.000354196 -2.41672e-20)
(0.507447 -0.000385362 0)
(0.50747 -0.000425357 7.15428e-20)
(0.507527 -0.000476607 -2.36836e-20)
(0.507627 -0.000542157 -2.35204e-20)
(0.507783 -0.000625777 0)
(0.508008 -0.000732059 0)
(0.508322 -0.000866467 0)
(0.508746 -0.0010353 0)
(0.509308 -0.00124552 4.52174e-20)
(0.510042 -0.00150434 -4.4804e-20)
(0.510985 -0.00181852 0)
(0.512178 -0.00219322 -4.38958e-20)
(0.51367 -0.00263146 0)
(0.515501 -0.00312906 -2.38415e-23)
(0.508365 -0.000205511 -5.25805e-20)
(0.508255 -0.000204322 0)
(0.508147 -0.000204001 0)
(0.508041 -0.000204609 -5.16814e-20)
(0.507938 -0.000206233 0)
(0.507837 -0.000209006 0)
(0.50774 -0.000213105 -4.18408e-25)
(0.507647 -0.000218775 0)
(0.507558 -0.000226342 0)
(0.507475 -0.000236238 -4.98616e-20)
(0.507399 -0.000249032 1.05866e-25)
(0.507331 -0.000265467 -4.92455e-20)
(0.507273 -0.000286514 0)
(0.507228 -0.000313427 9.55083e-25)
(0.507199 -0.000347826 0)
(0.507191 -0.000391792 4.79912e-20)
(0.507208 -0.000447976 -4.76675e-20)
(0.507258 -0.00051974 0)
(0.507349 -0.000611297 9.40231e-20)
(0.507492 -0.00072787 0)
(0.507703 -0.000875822 4.63302e-20)
(0.507997 -0.00106273 0)
(0.508399 -0.00129736 0)
(0.508935 -0.00158941 9.04323e-20)
(0.509638 -0.00194892 0)
(0.510546 -0.00238542 8.8752e-20)
(0.511704 -0.00290607 -8.78259e-20)
(0.51316 -0.00351497 -8.68289e-20)
(0.514958 -0.00420633 1.28408e-19)
(0.508088 -0.000148733 5.25648e-20)
(0.507981 -0.000148641 -5.22647e-20)
(0.507875 -0.000149523 5.1964e-20)
(0.507771 -0.000151464 5.98604e-25)
(0.50767 -0.000154591 0)
(0.507571 -0.000159076 0)
(0.507476 -0.000165159 -5.07543e-20)
(0.507385 -0.000173157 -5.04496e-20)
(0.507298 -0.00018349 1.00288e-19)
(0.507216 -0.000196713 0)
(0.507141 -0.000213552 4.95307e-20)
(0.507073 -0.000234954 9.84432e-20)
(0.507016 -0.000262148 0)
(0.50697 -0.000296726 -4.85978e-20)
(0.506939 -0.000340738 9.657e-20)
(0.506928 -0.000396817 -4.79653e-20)
(0.50694 -0.00046832 9.52961e-20)
(0.506982 -0.000559506 0)
(0.507063 -0.000675727 -4.6988e-20)
(0.507194 -0.000823629 -9.33181e-20)
(0.507387 -0.00101134 -4.63043e-20)
(0.50766 -0.00124858 9.19233e-20)
(0.508034 -0.00154665 -9.11901e-20)
(0.508537 -0.00191817 -9.03806e-20)
(0.509201 -0.00237634 0)
(0.510066 -0.00293383 -8.86995e-20)
(0.511178 -0.00360032 8.77723e-20)
(0.512591 -0.00438157 8.67739e-20)
(0.514347 -0.00527027 9.3104e-23)
(0.507781 -9.47903e-05 -5.25517e-20)
(0.507677 -9.57933e-05 1.5675e-19)
(0.507576 -9.78642e-05 5.19471e-20)
(0.507477 -0.000101114 1.54937e-19)
(0.50738 -0.000105701 0)
(0.507286 -0.00011184 -1.02077e-19)
(0.507195 -0.000119822 1.01469e-19)
(0.507108 -0.000130033 -5.04293e-20)
(0.507025 -0.000142981 -2.00494e-19)
(0.506947 -0.000159332 9.9634e-20)