/*--------------------------------*- C++ -*----------------------------------*\
  =========                 |
  \\      /  F ield         | OpenFOAM: The Open Source CFD Toolbox
   \\    /   O peration     | Website:  https://openfoam.org
    \\  /    A nd           | Version:  6
     \\/     M anipulation  |
\*---------------------------------------------------------------------------*/
FoamFile
{
    version     2.0;
    format      ascii;
    class       volScalarField;
    location    "0.03";
    object      epsilon;
}
// * * * * * * * * * * * * * * * * * * * * * * * * * * * * * * * * * * * * * //

dimensions      [0 2 -3 0 0 0 0];

internalField   nonuniform List<scalar> 
3032
(
307.532
159.149
103.279
76.3331
61.1358
51.7035
45.3857
40.8674
37.4673
34.8178
32.7274
31.0537
29.7158
28.6682
27.8959
27.4155
27.3678
28.1077
71.5843
59.7332
44.4071
34.3614
27.8386
23.4153
20.2921
18.0031
16.2658
14.9084
13.8314
12.9622
12.2532
11.6731
11.2018
10.8258
10.5438
10.3466
33.6057
34.3909
29.2798
24.3845
20.5458
17.6339
15.4208
13.7161
12.3788
11.3104
10.4463
9.73834
9.15258
8.66495
8.25844
7.92032
7.64196
7.41234
22.4911
24.189
22.2137
19.5368
17.0668
14.9942
13.306
11.9394
10.8282
9.91715
9.16493
8.53855
8.01327
7.57059
7.19674
6.88122
6.61604
6.39395
18.0506
19.1604
18.2194
16.5902
14.8954
13.3549
12.0252
10.9006
9.95538
9.16057
8.49081
7.92397
7.4423
7.03182
6.68165
6.38331
6.13016
5.91734
15.965
16.3963
15.7616
14.638
13.3938
12.2007
11.125
10.1826
9.36766
8.66704
8.06544
7.54845
7.10358
6.72045
6.39061
6.10728
5.86511
5.66071
14.9022
14.7866
14.1853
13.2961
12.3116
11.3443
10.4482
9.64301
8.93144
8.30818
7.76439
7.29075
6.87852
6.52003
6.20877
5.93937
5.70753
5.51087
14.3398
13.824
13.1568
12.3616
11.5209
10.6969
9.9252
9.22165
8.59083
8.03046
7.53536
7.0993
6.71608
6.37995
6.08586
5.82951
5.60745
5.41802
14.0383
13.2447
12.4849
11.7121
10.9443
10.2073
9.51907
8.8889
8.31936
7.8089
7.35387
6.94974
6.59181
6.27563
5.99714
5.75282
5.5399
5.35722
13.8766
12.8985
12.0508
11.2661
10.5292
9.84135
9.20672
8.62733
8.10273
7.63061
7.20757
6.82976
6.49326
6.19436
5.92966
5.69615
5.49154
5.31499
13.7905
12.6952
11.7757
10.9664
10.2367
9.57354
8.97097
8.42499
7.93197
7.48816
7.08971
6.73282
6.41383
6.12939
5.87643
5.65229
5.45496
5.28381
13.7488
12.5879
11.6202
10.7869
10.053
9.39874
8.81204
8.28488
7.81111
7.38557
7.00369
6.66139
6.35498
6.08116
5.837
5.61999
5.42826
5.26127
13.7254
12.5235
11.5211
10.6667
9.92485
9.27245
8.69387
8.17817
7.71719
7.3045
6.93478
6.60354
6.3069
6.0415
5.80442
5.59321
5.40609
5.24252
13.7116
12.4832
11.4552
10.5823
9.83064
9.17585
8.60036
8.09125
7.63878
7.23535
6.87489
6.55242
6.26377
6.00542
5.77438
5.56817
5.38503
5.22443
13.7045
12.4611
11.4167
10.5301
9.76928
9.11005
8.53411
8.02751
7.57949
7.18162
6.82718
6.51072
6.22775
5.97455
5.74799
5.54553
5.36538
5.20694
13.7013
12.4506
11.3975
10.5024
9.73486
9.07125
8.49325
7.98656
7.53994
7.14448
6.79305
6.47984
6.2001
5.94989
5.72597
5.5257
5.34723
5.18991
13.7001
12.4464
11.3894
10.4901
9.7187
9.05201
8.4719
7.96407
7.51713
7.122
6.77132
6.4591
6.18042
5.93121
5.7081
5.50841
5.33022
5.17285
13.6997
12.4452
11.3868
10.4858
9.7127
9.04438
8.46285
7.95383
7.50597
7.1101
6.75882
6.44606
6.16684
5.91701
5.69317
5.49261
5.31339
5.15482
13.6998
12.4455
11.3872
10.4864
9.71322
9.04464
8.4626
7.95284
7.50398
7.10688
6.75413
6.43969
6.15859
5.90671
5.68066
5.47775
5.29609
5.13506
13.701
12.4494
11.3948
10.4977
9.72781
9.0616
8.48081
7.97113
7.52124
7.12218
6.7667
6.44893
6.16406
5.90809
5.67776
5.47046
5.28443
5.11919
13.7054
12.4635
11.4203
10.5339
9.77215
9.11098
8.5321
8.0216
7.56875
7.16513
6.80403
6.47997
6.18846
5.92575
5.68874
5.47494
5.2827
5.11176
13.7205
12.5084
11.4954
10.6325
9.88511
9.22951
8.64912
8.13205
7.66936
7.25404
6.88039
6.54365
6.23978
5.96532
5.7173
5.49332
5.29178
5.1126
13.7672
12.6336
11.6852
10.8611
10.128
9.46856
8.87265
8.3336
7.84613
7.40558
7.00764
6.6483
6.32385
6.03089
5.76642
5.52788
5.31353
5.1234
13.9009
12.947
12.1103
11.3276
10.587
9.89225
9.24824
8.65761
8.12021
7.63389
7.19532
6.80058
6.44567
6.12667
5.84002
5.58259
5.3522
5.14874
14.261
13.6668
12.9764
12.192
11.3753
10.5764
9.82519
9.13589
8.51258
7.9537
7.45484
7.01048
6.61489
6.26257
5.94859
5.66869
5.41972
5.20117
15.1943
15.2334
14.6377
13.6974
12.6488
11.6193
10.6669
9.81203
9.05652
8.39349
7.81302
7.30469
6.8588
6.46673
6.12113
5.81586
5.54635
5.31129
17.6335
18.6194
17.7674
16.2611
14.6647
13.1877
11.8923
10.7816
9.83693
9.0338
8.34882
7.76168
7.2556
6.81695
6.43481
6.10047
5.80742
5.55321
24.7044
26.4231
23.9028
20.7816
17.997
15.6968
13.8397
12.3449
11.134
10.1426
9.32091
8.63198
8.0481
7.54854
7.11765
6.74349
6.41725
6.1349
51.9613
47.7331
37.7958
30.1659
24.7456
20.8546
18.0042
15.8661
14.2195
12.9177
11.8644
10.9951
10.2658
9.64586
9.11304
8.65123
8.24859
7.89902
251.823
137.34
90.741
67.0593
53.2079
44.3917
38.4064
34.1017
30.846
28.28
26.1907
24.4465
22.9625
21.6817
20.5644
19.5819
18.7132
17.9446
0.652524
1.09272
1.67547
2.19509
2.66228
3.08631
3.47306
3.8269
4.15174
4.45129
4.72925
4.98974
5.23739
5.47705
5.70453
5.91808
6.11813
6.30518
6.47951
6.64147
6.79141
6.92974
7.05748
7.17533
7.28478
7.38746
7.48146
7.56517
7.63748
7.69806
7.74699
7.78455
7.81118
7.82741
7.83388
7.83129
7.82039
7.80197
7.77686
7.74585
7.70977
7.66939
7.62546
7.5787
2.35315
1.60589
1.71972
1.91639
2.11894
2.31007
2.48547
2.64476
2.78899
2.91964
3.03837
3.14686
3.24672
3.33941
3.42621
3.507
3.5819
3.65125
3.71543
3.77472
3.82936
3.87954
3.9254
3.96703
4.0045
4.03779
4.06679
4.09114
4.11096
4.12634
4.13739
4.14425
4.14712
4.14621
4.14178
4.13412
4.12351
4.11027
4.09473
4.07719
4.05798
4.0374
4.01574
3.99326
3.72978
2.15418
2.05316
2.12861
2.24575
2.37109
2.49311
2.60759
2.71319
2.80992
2.89837
2.97938
3.05389
3.12278
3.18688
3.24658
3.30211
3.35376
3.40174
3.44622
3.4873
3.52503
3.5594
3.59037
3.6179
3.64189
3.66221
3.67877
3.69164
3.70091
3.70664
3.70897
3.70805
3.70405
3.6972
3.68773
3.67591
3.66199
3.64625
3.62898
3.61044
3.59091
3.57063
3.54985
4.83624
2.61944
2.36907
2.3676
2.4335
2.52127
2.61449
2.70626
2.79361
2.87542
2.9515
3.02211
3.08773
3.14891
3.2062
3.25993
3.31028
3.35738
3.40135
3.44224
3.48004
3.51472
3.54618
3.57434
3.59908
3.62029
3.63782
3.65163
3.66176
3.66829
3.67131
3.67095
3.66737
3.66077
3.65137
3.63942
3.62519
3.60896
3.59103
3.57168
3.55119
3.52985
3.5079
3.48561
5.79062
3.0159
2.64624
2.58882
2.61996
2.68362
2.75932
2.83812
2.9158
2.99041
3.06116
3.12786
3.19064
3.24979
3.30562
3.35835
3.40799
3.45458
3.49811
3.53852
3.57575
3.60966
3.64013
3.66702
3.6902
3.70955
3.72493
3.7363
3.74375
3.74737
3.74727
3.74363
3.73664
3.72653
3.71356
3.69801
3.6802
3.66042
3.639
3.61625
3.59248
3.56799
3.54305
3.51792
6.6684
3.3683
2.89385
2.79186
2.79787
2.84566
2.91093
2.9829
3.05629
3.12845
3.19811
3.2647
3.32809
3.3883
3.4455
3.4997
3.5508
3.59868
3.64325
3.68435
3.72184
3.75555
3.7853
3.81095
3.83235
3.8494
3.862
3.87016
3.87401
3.87368
3.86936
3.86126
3.84964
3.83477
3.81698
3.7966
3.77396
3.74942
3.72334
3.69607
3.66793
3.63925
3.61032
3.58142
7.52382
3.69985
3.12654
2.98608
2.97268
3.00981
3.06934
3.13865
3.21146
3.28449
3.356
3.42512
3.49144
3.5548
3.61517
3.67239
3.72618
3.77632
3.82258
3.86475
3.90261
3.93595
3.96459
3.98836
4.00717
4.02094
4.02964
4.03337
4.03231
4.02668
4.01675
4.0028
3.98516
3.96419
3.94025
3.91373
3.88504
3.85457
3.82272
3.78986
3.75636
3.72256
3.68878
3.65531
8.401
4.03082
3.35888
3.18268
3.15302
3.18262
3.23937
3.30879
3.38356
3.45975
3.53521
3.60873
3.67966
3.74763
3.81245
3.8737
3.93093
3.9838
4.03195
4.07511
4.11299
4.14537
4.17207
4.19297
4.20799
4.21716
4.22054
4.21835
4.21088
4.19845
4.18142
4.16016
4.13508
4.10663
4.07523
4.04135
4.00543
3.96792
3.92925
3.88984
3.85008
3.81034
3.77094
3.73219
9.33343
4.37733
3.60305
3.39152
3.34698
3.3707
3.42638
3.4976
3.57595
3.65685
3.73769
3.81695
3.8937
3.96735
4.0375
4.10342
4.16449
4.22018
4.27005
4.31373
4.35092
4.38137
4.40495
4.4216
4.43134
4.43431
4.43073
4.42099
4.4055
4.3847
4.35906
4.32905
4.29518
4.25797
4.21792
4.17556
4.13137
4.08587
4.0395
3.99272
3.94595
3.89956
3.85391
3.80929
10.3393
4.74949
3.86708
3.61925
3.56002
3.5785
3.63397
3.70792
3.79085
3.87749
3.96473
4.0507
4.13417
4.2143
4.29043
4.36138
4.42633
4.48461
4.53565
4.579
4.61434
4.64147
4.66033
4.67099
4.67362
4.66853
4.6562
4.63718
4.61204
4.58133
4.54565
4.50559
4.46174
4.41469
4.36502
4.31329
4.26006
4.20584
4.15113
4.09639
4.04207
3.98855
3.93618
3.88528
11.4168
5.14955
4.15349
3.86797
3.79372
3.80707
3.86267
3.93991
4.02811
4.12127
4.21576
4.30931
4.40032
4.48762
4.5702
4.6463
4.71491
4.77516
4.82635
4.86799
4.8998
4.92167
4.93371
4.93619
4.92951
4.91431
4.89133
4.8613
4.82492
4.78291
4.73599
4.68483
4.63011
4.57248
4.51256
4.45095
4.38823
4.32493
4.26157
4.19861
4.13651
4.07565
4.01639
3.95904
12.5402
5.57087
4.4584
4.13443
4.04492
4.05318
4.10923
4.19029
4.28449
4.38505
4.48781
4.58999
4.68959
4.78505
4.87429
4.95542
5.02708
5.08816
5.13787
5.17572
5.20157
5.21554
5.21803
5.20962
5.19117
5.1637
5.12815
5.08545
5.03647
4.98208
4.92306
4.86018
4.79417
4.72569
4.65538
4.58387
4.51171
4.43943
4.36756
4.29654
4.22682
4.15878
4.09277
4.02909
13.6581
5.99741
4.77122
4.40967
4.30536
4.30904
4.36622
4.45203
4.55343
4.66283
4.77541
4.88778
4.99737
5.10206
5.19841
5.28425
5.35784
5.41786
5.4635
5.49446
5.5109
5.51341
5.50285
5.48051
5.44774
5.40582
5.35594
5.29924
5.23674
5.16937
5.098
5.02341
4.94631
4.86737
4.78719
4.70635
4.6254
4.54482
4.4651
4.38667
4.30995
4.23531
4.16309
4.09358
14.6923
6.40399
5.07476
4.67908
4.56175
4.56228
4.62212
4.71452
4.82528
4.94597
5.07097
5.19611
5.31791
5.43314
5.53696
5.62667
5.7001
5.75584
5.79331
5.81272
5.81496
5.80143
5.77403
5.73463
5.685
5.62674
5.56129
5.48991
5.4137
5.33361
5.25047
5.16502
5.07789
4.98967
4.90089
4.81205
4.72362
4.63604
4.54973
4.46508
4.38248
4.30228
4.22479
4.1503
15.5384
6.75733
5.34628
4.92339
4.79666
4.79683
4.86217
4.96434
5.08809
5.22405
5.3656
5.50746
5.645
5.7721
5.88318
5.97459
6.04382
6.08969
6.11254
6.11373
6.0957
6.06126
6.01311
5.95374
5.88533
5.80973
5.7285
5.6429
5.55399
5.46259
5.36941
5.27503
5.17993
5.08456
4.98931
4.89457
4.8007
4.70806
4.61699
4.52785
4.44096
4.35666
4.27525
4.19699
16.0855
7.02794
5.56722
5.12747
4.99692
5.00128
5.07686
5.19418
5.33707
5.49502
5.65994
5.82462
5.98205
6.12175
6.23736
6.32436
6.38078
6.40643
6.40438
6.37863
6.33342
6.27278
6.20027
6.11886
6.03097
5.93846
5.84277
5.74495
5.64581
5.5459
5.44566
5.34541
5.24542
5.14592
5.04713
4.94928
4.85262
4.75739
4.66388
4.57237
4.48317
4.39656
4.31286
4.23232
16.1325
7.14487
5.68804
5.24988
5.12547
5.1415
5.23442
5.37463
5.5454
5.735
5.93308
6.12903
6.30917
6.46047
6.57295
6.64281
6.67157
6.66389
6.62622
6.56533
6.48744
6.39771
6.30024
6.19806
6.09334
5.98758
5.88174
5.77641
5.67191
5.56839
5.4659
5.36444
5.26398
5.16452
5.06611
4.9688
4.87273
4.77805
4.68497
4.59375
4.50464
4.41795
4.33396
4.25296
15.667
7.11399
5.71619
5.29865
5.19019
5.22447
5.34025
5.50887
5.71361
5.94181
6.17992
6.40924
6.60588
6.75441
6.84631
6.88186
6.86817
6.81577
6.73552
6.63691
6.52738
6.41233
6.29546
6.17914
6.06473
5.95296
5.84403
5.73789
5.63431
5.53296
5.43351
5.33565
5.2391
5.14367
5.04924
4.95577
4.86328
4.77188
4.68175
4.5931
4.5062
4.42135
4.33886
4.25904
14.7082
6.96482
5.68305
5.30747
5.22702
5.28793
5.43347
5.63697
5.88176
6.15252
6.4304
6.6845
6.88232
7.0054
7.05066
7.02842
6.95565
6.84975
6.72506
6.59195
6.45729
6.32522
6.19799
6.07656
5.96108
5.85121
5.74635
5.64576
5.54869
5.45442
5.36231
5.27182
5.1825
5.09403
5.00619
4.91888
4.83208
4.74588
4.66043
4.57597
4.49276
4.41113
4.33142
4.25397
13.5361
6.81905
5.65437
5.33102
5.28847
5.38468
5.56777
5.81342
6.10495
6.4233
6.73913
6.99648
7.1582
7.21265
7.17376
7.06881
6.9255
6.76529
6.60223
6.4444
6.29584
6.158
6.03091
5.91374
5.8053
5.70425
5.60924
5.51904
5.4325
5.34866
5.26668
5.18591
5.10582
5.02603
4.94629
4.86648
4.78657
4.70666
4.62691
4.54757
4.46894
4.39136
4.31523
4.2409
12.21
6.66042
5.65369
5.40744
5.42415
5.57504
5.81385
6.11851
6.4708
6.84456
7.1684
7.372
7.42805
7.35452
7.1949
6.99326
6.78133
6.57741
6.39004
6.22191
6.07263
5.94038
5.82278
5.7174
5.62193
5.5343
5.4527
5.37559
5.30165
5.22981
5.15919
5.08909
5.01898
4.94849
4.87738
4.80553
4.73295
4.65974
4.58609
4.51226
4.4386
4.36548
4.29332
4.22254
10.7534
6.47435
5.70181
5.58215
5.70008
5.94371
6.27295
6.6658
7.09644
7.49692
7.74038
7.77895
7.63777
7.38609
7.09291
6.80425
6.54276
6.31572
6.1225
5.95916
5.82084
5.70285
5.601
5.51177
5.43221
5.3599
5.29287
5.2295
5.16845
5.10868
5.04932
4.98973
4.9294
4.868
4.80532
4.74127
4.67588
4.60928
4.54168
4.47337
4.40472
4.33614
4.26806
4.20096
9.25551
6.27287
5.85629
5.95225
6.2448
6.64369
7.11288
7.62183
8.10954
8.37688
8.35599
8.09088
7.69125
7.26089
6.86292
6.52271
6.24317
6.01743
5.83585
5.68916
5.56942
5.47026
5.38666
5.31467
5.25123
5.19388
5.14072
5.0902
5.04109
4.9924
4.94337
4.89339
4.84203
4.78898
4.73408
4.67726
4.61858
4.55819
4.49631
4.43327
4.36943
4.30524
4.24117
4.1777
7.84697
6.17081
6.32666
6.79618
7.37206
7.99405
8.61973
9.187
9.41577
9.23845
8.75255
8.12796
7.50753
6.96736
6.52919
6.18619
5.92159
5.71787
5.56007
5.43648
5.33819
5.25856
5.1926
5.13656
5.08757
5.0434
5.00231
4.9629
4.92409
4.88498
4.84488
4.80327
4.75975
4.71407
4.66607
4.61572
4.56308
4.50833
4.4517
4.39352
4.33417
4.27411
4.21383
4.15383
6.69923
6.65026
7.7975
8.88324
9.799
10.5526
11.0547
11.0069
10.4483
9.58217
8.64185
7.7887
7.0901
6.54956
6.14271
5.83947
5.61326
5.44332
5.31426
5.21488
5.1371
5.07502
5.02428
4.98163
4.94457
4.91119
4.87995
4.84964
4.81928
4.78809
4.75544
4.72086
4.68399
4.6446
4.60256
4.55785
4.51054
4.4608
4.40887
4.35508
4.29983
4.24357
4.18681
4.13007
6.30492
9.95931
12.2695
13.7413
14.2868
14.0159
13.0739
11.7562
10.3424
9.04757
7.98004
7.15602
6.54248
6.09255
5.76339
5.52147
5.3422
5.20805
5.10654
5.0288
4.96841
4.92066
4.88205
4.8499
4.82215
4.79716
4.77361
4.75045
4.72679
4.70194
4.67532
4.6465
4.61515
4.58104
4.54406
4.50418
4.46149
4.41614
4.36837
4.31851
4.26694
4.21414
4.16059
4.10685
9.17072
17.808
19.2863
18.2835
16.3624
14.2234
12.1906
10.426
8.99382
7.88827
7.06168
6.4532
6.00699
5.67879
5.43584
5.25464
5.11849
5.01544
4.93689
4.87655
4.82975
4.79298
4.76351
4.73923
4.71842
4.69972
4.68199
4.66427
4.6458
4.62592
4.60409
4.57992
4.55307
4.52334
4.4906
4.45483
4.4161
4.37456
4.33044
4.28405
4.23578
4.18608
4.13545
4.08443
21.3654
17.7331
15.4829
13.6253
11.9691
10.5135
9.26867
8.23719
7.40814
6.75744
6.25452
5.86892
5.57407
5.34847
5.17549
5.04254
4.94012
4.86109
4.80003
4.75276
4.71604
4.68728
4.66444
4.64583
4.63004
4.61591
4.60244
4.5888
4.57425
4.55821
4.54015
4.51969
4.4965
4.47038
4.4412
4.40892
4.37361
4.33539
4.29448
4.25119
4.20587
4.15898
4.11101
4.06249
9.78231
9.25712
8.83004
8.42666
8.0028
7.55467
7.10159
6.67008
6.2809
5.94431
5.66173
5.42918
5.24029
5.08818
4.96639
4.86936
4.7924
4.73163
4.68387
4.64651
4.61736
4.59459
4.57666
4.56223
4.55016
4.53945
4.52922
4.51872
4.50728
4.49432
4.47937
4.46202
4.44197
4.419
4.39296
4.36382
4.33161
4.29645
4.25854
4.21816
4.17566
4.13146
4.08605
4.03995
7.19219
6.96876
6.76059
6.56479
6.37116
6.17341
5.97155
5.77073
5.57807
5.39978
5.23974
5.09955
4.97909
4.87711
4.79186
4.72137
4.66369
4.61701
4.57961
4.54997
4.5267
4.50855
4.49437
4.48315
4.47393
4.46589
4.45823
4.45028
4.44141
4.43108
4.41882
4.40424
4.38702
4.36694
4.34385
4.31769
4.28846
4.25627
4.22129
4.18379
4.14409
4.10259
4.05976
4.01609
6.22782
6.06908
5.91823
5.77746
5.64484
5.51765
5.39439
5.27508
5.16082
5.05319
4.95363
4.86322
4.7825
4.71155
4.65011
4.59766
4.55352
4.51694
4.48706
4.46306
4.44406
4.42923
4.41774
4.40879
4.40162
4.39551
4.38978
4.38379
4.37697
4.3688
4.35882
4.34665
4.33195
4.31451
4.29414
4.27076
4.24436
4.21503
4.18291
4.14824
4.11131
4.0725
4.03225
3.99104
5.76805
5.63187
5.50362
5.38495
5.2756
5.17435
5.08008
4.99201
4.9097
4.83298
4.76192
4.69667
4.63738
4.58416
4.53701
4.49584
4.46043
4.4305
4.40563
4.38537
4.36919
4.3565
4.34672
4.3392
4.33334
4.32849
4.32408
4.3195
4.31424
4.30777
4.29967
4.28953
4.27705
4.26195
4.24406
4.22326
4.19954
4.17294
4.14357
4.11165
4.07745
4.04131
4.00364
3.96488
5.51978
5.39461
5.27765
5.16981
5.07114
4.98103
4.8987
4.82337
4.75431
4.69091
4.6327
4.57939
4.53082
4.48688
4.44753
4.41271
4.38235
4.3563
4.33436
4.31624
4.30161
4.29005
4.28112
4.2743
4.26907
4.26491
4.26126
4.2576
4.25341
4.24823
4.2416
4.23315
4.22254
4.20951
4.19385
4.17543
4.1542
4.13018
4.10345
4.0742
4.04267
4.00915
3.97404
3.93775
5.37552
5.25712
5.1468
5.045
4.95178
4.86681
4.78954
4.71932
4.65547
4.59733
4.54435
4.49606
4.45216
4.41242
4.3767
4.3449
4.31693
4.2927
4.27205
4.2548
4.24069
4.22942
4.22061
4.21386
4.20872
4.20471
4.20135
4.19815
4.19462
4.19032
4.18481
4.1777
4.16866
4.15741
4.14373
4.12746
4.10853
4.08693
4.06272
4.03604
4.00709
3.97616
3.94358
3.90973
5.28708
5.17351
5.0676
4.96953
4.87935
4.79682
4.72156
4.65307
4.5908
4.53416
4.48265
4.4358
4.39327
4.35478
4.32013
4.28919
4.26183
4.23794
4.2174
4.20005
4.18566
4.174
4.16475
4.15756
4.15203
4.14776
4.14428
4.14115
4.13792
4.13414
4.1294
4.12333
4.11556
4.10582
4.09387
4.07954
4.06272
4.04337
4.02154
3.99731
3.97087
3.94245
3.91235
3.88094
5.23004
5.12023
5.01753
4.922
4.83363
4.75227
4.67764
4.60936
4.547
4.49012
4.43827
4.39105
4.34813
4.30925
4.27418
4.24277
4.21487
4.19035
4.1691
4.15094
4.1357
4.12315
4.11301
4.10499
4.09872
4.09383
4.0899
4.08653
4.08327
4.07972
4.07546
4.07012
4.06336
4.05488
4.04442
4.03181
4.01691
3.99965
3.98004
3.95814
3.9341
3.90812
3.88047
3.85146
5.19108
5.08435
4.98413
4.89044
4.80325
4.72243
4.6478
4.57906
4.51591
4.458
4.40499
4.35654
4.31236
4.27223
4.23592
4.20327
4.17414
4.14838
4.12587
4.10645
4.08995
4.07616
4.06483
4.05568
4.0484
4.04263
4.038
4.03413
4.03059
4.02701
4.02298
4.01813
4.01213
4.00467
3.99549
3.98439
3.97121
3.95587
3.93834
3.91865
3.89691
3.87329
3.84801
3.82135
5.16272
5.05852
4.96026
4.86795
4.78154
4.70095
4.62602
4.55658
4.49237
4.43314
4.37864
4.32859
4.28278
4.24098
4.20302
4.16874
4.138
4.11066
4.08658
4.06561
4.0476
4.03234
4.01961
4.00915
4.00067
3.99384
3.98832
3.98375
3.97974
3.97592
3.97191
3.96734
3.96189
3.95525
3.94715
3.93737
3.92574
3.91215
3.89654
3.87893
3.85937
3.83802
3.81504
3.79069
5.14226
5.03992
4.94307
4.85168
4.76573
4.68515
4.60982
4.5396
4.47432
4.41378
4.35778
4.30613
4.25864
4.21513
4.17545
4.13946
4.10702
4.07801
4.05228
4.02971
4.01014
3.99336
3.97919
3.96737
3.95763
3.94968
3.94319
3.93782
3.93322
3.92901
3.92485
3.92038
3.91528
3.90923
3.90197
3.89327
3.88294
3.87085
3.85693
3.84115
3.82355
3.80424
3.78336
3.76113
5.12525
5.02442
4.92865
4.83795
4.75228
4.67159
4.59581
4.52482
4.45849
4.3967
4.33928
4.28609
4.23698
4.1918
4.15044
4.11275
4.07864
4.04796
4.02061
3.99644
3.9753
3.95703
3.94141
3.92823
3.91723
3.90813
3.90063
3.89441
3.88914
3.88447
3.88005
3.87556
3.87066
3.86505
3.85847
3.85068
3.84148
3.83071
3.8183
3.80418
3.78838
3.77096
3.75204
3.7318
5.10862
5.00905
4.91415
4.82394
4.73839
4.65746
4.5811
4.50924
4.44179
4.37865
4.31971
4.26488
4.21404
4.16707
4.12389
4.08438
4.04844
4.01596
3.98683
3.96092
3.93809
3.91818
3.90099
3.88633
3.87394
3.86359
3.85498
3.84781
3.84177
3.83653
3.83177
3.82716
3.8224
3.81718
3.81123
3.80432
3.79623
3.7868
3.77591
3.7635
3.74955
3.7341
3.71724
3.69911
5.0921
4.99339
4.89901
4.80899
4.7233
4.64193
4.56483
4.49197
4.42328
4.35871
4.29818
4.24163
4.18897
4.14014
4.09504
4.0536
4.01574
3.98135
3.95034
3.92259
3.89796
3.87631
3.85746
3.84122
3.82737
3.81567
3.80585
3.79764
3.79075
3.78487
3.77968
3.77489
3.77019
3.76529
3.75992
3.75383
3.74682
3.73871
3.72935
3.71866
3.70659
3.69316
3.67844
5.07538
4.97696
4.88262
4.79237
4.7062
4.6241
4.54604
4.47199
4.40193
4.33582
4.27362
4.21528
4.16076
4.10999
4.06294
4.01952
3.97967
3.94332
3.91037
3.88072
3.85425
3.83081
3.81025
3.79239
3.77702
3.76393
3.75286
3.74356
3.73576
3.72917
3.72349
3.71845
3.71374
3.70908
3.70422
3.6989
3.69291
3.68606
3.67818
3.66918
3.65897
3.64754
3.63492
5.05789
4.95911
4.86424
4.77326
4.68618
4.60298
4.52366
4.44819
4.37658
4.30878
4.24479
4.18459
4.12813
4.0754
4.02634
3.98092
3.93908
3.90075
3.86586
3.83431
3.80599
3.78077
3.7585
3.73902
3.72214
3.70765
3.69532
3.68492
3.67618
3.66885
3.66264
3.65727
3.65248
3.64799
3.64355
3.6389
3.63382
3.62812
3.62163
3.61421
3.60578
3.59628
3.5857
5.0387
4.93888
4.84284
4.75057
4.66208
4.57735
4.49638
4.41918
4.34572
4.27602
4.21007
4.14785
4.08936
4.03457
3.98346
3.936
3.89215
3.85184
3.81501
3.78158
3.75144
3.72447
3.70054
3.67948
3.66112
3.64526
3.63169
3.62019
3.6105
3.60239
3.59559
3.58984
3.58488
3.58044
3.57627
3.57213
3.5678
3.56308
3.55778
3.55176
3.54491
3.53716
3.52847
5.01697
4.91531
4.81733
4.72304
4.63244
4.54554
4.46234
4.38285
4.30709
4.23506
4.16677
4.10223
4.04143
3.98438
3.93105
3.88142
3.83546
3.79312
3.75434
3.71903
3.68709
3.65842
3.63286
3.61028
3.59049
3.57331
3.55853
3.54595
3.53531
3.5264
3.51895
3.51272
3.50746
3.5029
3.49882
3.49496
3.49111
3.48707
3.48265
3.4777
3.4721
3.46576
3.45864
4.99801
4.89333
4.7923
4.69492
4.60123
4.51124
4.42497
4.34245
4.26371
4.18877
4.11765
4.05037
3.98694
3.92737
3.87165
3.81976
3.77166
3.72731
3.68665
3.64958
3.61601
3.58581
3.55884
3.53495
3.51396
3.49567
3.47989
3.4664
3.45496
3.44534
3.4373
3.4306
3.42497
3.42019
3.416
3.41218
3.4085
3.40477
3.40081
3.39647
3.39161
3.38616
3.38005
4.98662
4.87812
4.7733
4.67222
4.5749
4.48139
4.39172
4.30593
4.22405
4.14613
4.0722
4.00228
3.93639
3.87452
3.81668
3.76285
3.71297
3.66701
3.62488
3.58649
3.55173
3.52045
3.49252
3.46775
3.44597
3.42698
3.41055
3.39648
3.38452
3.37444
3.366
3.35894
3.35303
3.34802
3.34366
3.33975
3.33605
3.33238
3.32856
3.32445
3.31992
3.3149
3.30931
4.98204
4.86834
4.75854
4.65269
4.55084
4.45303
4.35931
4.26973
4.18433
4.10315
4.02621
3.95355
3.88517
3.82106
3.76122
3.70561
3.65418
3.60685
3.56353
3.52411
3.48845
3.45641
3.42782
3.40249
3.38021
3.36079
3.34398
3.32956
3.3173
3.30694
3.29824
3.29095
3.28483
3.27964
3.27513
3.2711
3.26732
3.26362
3.25982
3.2558
3.25143
3.24664
3.24139
4.98596
4.86574
4.74984
4.6383
4.53116
4.42847
4.33027
4.23659
4.14747
4.06294
3.98301
3.90768
3.83696
3.77082
3.70922
3.65211
3.59941
3.55103
3.50684
3.46671
3.43049
3.39799
3.36903
3.34339
3.32088
3.30125
3.28427
3.26969
3.25728
3.24678
3.23794
3.23052
3.22426
3.21893
3.21429
3.21014
3.20628
3.20251
3.1987
3.19471
3.19044
3.18582
3.18081
5.00336
4.87565
4.75288
4.63508
4.52226
4.41444
4.31163
4.21384
4.12109
4.03336
3.95065
3.87293
3.80017
3.73231
3.6693
3.61103
3.5574
3.50829
3.46354
3.42299
3.38645
3.35373
3.32461
3.29887
3.27627
3.25657
3.23952
3.22488
3.21239
3.2018
3.19286
3.18532
3.17893
3.17347
3.16871
3.16445
3.16049
3.15666
3.15283
3.14887
3.1447
3.14024
3.13547
5.04739
4.91164
4.78165
4.65739
4.53882
4.4259
4.3186
4.21689
4.12073
4.03007
3.94487
3.86505
3.79055
3.72128
3.65712
3.59795
3.54362
3.49398
3.44883
3.408
3.37125
3.33837
3.30913
3.28328
3.26057
3.24076
3.22359
3.2088
3.19615
3.18539
3.17626
3.16852
3.16194
3.15628
3.15135
3.14693
3.14285
3.13896
3.13511
3.13119
3.12714
3.12288
3.11839
5.14899
5.00484
4.86738
4.7365
4.61208
4.49401
4.3822
4.27656
4.177
4.08342
3.99572
3.9138
3.83754
3.76679
3.70141
3.64124
3.58608
3.53575
3.49002
3.44867
3.41146
3.37814
3.34847
3.3222
3.29905
3.27879
3.26115
3.24589
3.23276
3.22151
3.2119
3.20371
3.1967
3.19066
3.18539
3.1807
3.17641
3.17239
3.16849
3.16462
3.1607
3.15667
3.1525
5.38166
5.22794
5.0819
4.9433
4.81194
4.68765
4.57026
4.45963
4.35562
4.25808
4.16686
4.08182
4.00277
3.92956
3.86197
3.7998
3.74282
3.6908
3.64349
3.60063
3.56196
3.52722
3.49614
3.46847
3.44394
3.42231
3.40332
3.38674
3.37232
3.35985
3.3491
3.33984
3.33187
3.32498
3.31898
3.31369
3.30894
3.30459
3.3005
3.29657
3.29272
3.28889
3.28503
5.94975
5.78158
5.62204
5.47082
5.32766
5.19235
5.0647
4.94453
4.83166
4.7259
4.62707
4.53495
4.44933
4.36997
4.29662
4.22903
4.16692
4.11001
4.058
4.01062
3.96757
3.92857
3.89335
3.86164
3.83319
3.80776
3.78512
3.76504
3.74733
3.73177
3.71816
3.70631
3.696
3.68706
3.67929
3.67251
3.66656
3.66126
3.65647
3.65208
3.64799
3.6441
3.64037
7.67848
7.47313
7.27732
7.09097
6.91409
6.74661
6.58839
6.43926
6.29898
6.1673
6.04397
5.92867
5.82112
5.72096
5.62788
5.5415
5.46148
5.38745
5.31905
5.25594
5.19777
5.14425
5.09508
5.05001
5.00879
4.97121
4.93709
4.90624
4.87849
4.85368
4.83163
4.81216
4.79508
4.78019
4.76727
4.75611
4.74648
4.73818
4.73099
4.72473
4.71924
4.71438
4.71002
17.4513
16.9886
16.5465
16.1252
15.7249
15.3452
14.9857
14.6459
14.3253
14.0231
13.7389
13.4717
13.2211
12.9861
12.7661
12.5602
12.3679
12.1884
12.0211
11.8654
11.7209
11.587
11.4636
11.3503
11.2469
11.1533
11.0691
10.9944
10.9287
10.8717
10.8231
10.7824
10.7491
10.7224
10.7018
10.6865
10.6758
10.669
10.6654
10.6644
10.6655
10.6682
10.6721
)
;

boundaryField
{
    inlet
    {
        type            fixedValue;
        value           uniform 14.855;
    }
    outlet
    {
        type            zeroGradient;
    }
    upperWall
    {
        Cmu             0.09;
        kappa           0.41;
        E               9.8;
        type            epsilonWallFunction;
        value           nonuniform List<scalar> 
61
(
251.823
137.34
90.741
67.0593
53.2079
44.3917
38.4064
34.1017
30.846
28.28
26.1907
24.4465
22.9625
21.6817
20.5644
19.5819
18.7132
17.9446
17.4513
16.9886
16.5465
16.1252
15.7249
15.3452
14.9857
14.6459
14.3253
14.0231
13.7389
13.4717
13.2211
12.9861
12.7661
12.5602
12.3679
12.1884
12.0211
11.8654
11.7209
11.587
11.4636
11.3503
11.2469
11.1533
11.0691
10.9944
10.9287
10.8717
10.8231
10.7824
10.7491
10.7224
10.7018
10.6865
10.6758
10.669
10.6654
10.6644
10.6655
10.6682
10.6721
)
;
    }
    lowerWall
    {
        Cmu             0.09;
        kappa           0.41;
        E               9.8;
        type            epsilonWallFunction;
        value           nonuniform List<scalar> 
89
(
307.532
159.149
103.279
76.3331
61.1358
51.7035
45.3857
40.8674
37.4673
34.8178
32.7274
31.0537
29.7158
28.6682
27.8959
27.4155
27.3678
28.1077
0.652524
2.35315
3.72978
4.83624
5.79062
6.6684
7.52382
8.401
9.33343
10.3393
11.4168
12.5402
13.6581
14.6923
15.5384
16.0855
16.1325
15.667
14.7082
13.5361
12.21
10.7534
9.25551
7.84697
6.69923
6.30492
9.17072
0.652524
1.09272
1.67547
2.19509
2.66228
3.08631
3.47306
3.8269
4.15174
4.45129
4.72925
4.98974
5.23739
5.47705
5.70453
5.91808
6.11813
6.30518
6.47951
6.64147
6.79141
6.92974
7.05748
7.17533
7.28478
7.38746
7.48146
7.56517
7.63748
7.69806
7.74699
7.78455
7.81118
7.82741
7.83388
7.83129
7.82039
7.80197
7.77686
7.74585
7.70977
7.66939
7.62546
7.5787
)
;
    }
    frontAndBack
    {
        type            empty;
    }
    procBoundary2to3
    {
        type            processor;
        value           nonuniform List<scalar> 
58
(
7.52975
3.97024
3.52878
3.46317
3.49281
3.55277
3.62237
3.69432
3.76594
3.83607
3.9038
3.96795
4.02697
4.07898
4.12206
4.15509
4.17508
4.18202
4.17889
4.16849
4.15318
4.13483
4.1148
4.09405
4.07323
4.05275
4.03285
4.01326
3.99299
3.97146
3.94875
3.92497
3.90022
3.8746
3.84819
3.82108
3.79333
3.76496
3.73753
3.71021
3.67961
3.66241
3.66241
3.62107
3.57402
3.51879
3.45067
3.37323
3.30313
3.23562
3.17538
3.13038
3.11366
3.14818
3.28114
3.63675
4.70611
10.6769
)
;
    }
}


// ************************************************************************* //
