/*--------------------------------*- C++ -*----------------------------------*\
  =========                 |
  \\      /  F ield         | OpenFOAM: The Open Source CFD Toolbox
   \\    /   O peration     | Website:  https://openfoam.org
    \\  /    A nd           | Version:  6
     \\/     M anipulation  |
\*---------------------------------------------------------------------------*/
FoamFile
{
    version     2.0;
    format      ascii;
    class       volScalarField;
    location    "0.03";
    object      k;
}
// * * * * * * * * * * * * * * * * * * * * * * * * * * * * * * * * * * * * * //

dimensions      [0 2 -2 0 0 0 0];

internalField   nonuniform List<scalar> 
3032
(
0.246428
0.158841
0.119059
0.0973221
0.0839275
0.0750488
0.0687937
0.0641366
0.0605137
0.0576085
0.055255
0.0533282
0.0517541
0.0504924
0.0495334
0.0489006
0.0487551
0.0494915
0.339466
0.260106
0.208331
0.175485
0.153598
0.138172
0.12669
0.11775
0.110566
0.104672
0.099781
0.0956902
0.0922672
0.089426
0.0871219
0.085341
0.0841661
0.0836863
0.34748
0.292346
0.2486
0.216401
0.192586
0.174592
0.16062
0.149482
0.14041
0.132913
0.126639
0.121356
0.116904
0.113175
0.110105
0.107667
0.105895
0.10485
0.351363
0.309052
0.271976
0.242127
0.218501
0.199739
0.184656
0.172347
0.162165
0.153657
0.146475
0.140386
0.135222
0.130866
0.127243
0.124314
0.122084
0.12058
0.353915
0.319287
0.287288
0.260021
0.237394
0.218738
0.203304
0.190439
0.179631
0.170487
0.162697
0.156044
0.150363
0.145538
0.141489
0.13817
0.135565
0.133679
0.355678
0.326055
0.297955
0.273109
0.251775
0.233669
0.218331
0.205308
0.194208
0.184699
0.176524
0.169487
0.163438
0.158265
0.153888
0.150256
0.14734
0.145133
0.356919
0.330735
0.305655
0.28295
0.262969
0.245626
0.230649
0.217729
0.206567
0.196897
0.188511
0.181237
0.174941
0.169519
0.164895
0.161015
0.157843
0.155367
0.357805
0.334053
0.311321
0.290457
0.271775
0.25528
0.240813
0.228162
0.217099
0.207423
0.19896
0.191566
0.185122
0.179536
0.174734
0.170663
0.167284
0.164583
0.358437
0.336429
0.315523
0.296211
0.278722
0.263082
0.249197
0.236913
0.226064
0.216492
0.208056
0.200634
0.194125
0.188443
0.183523
0.179312
0.175772
0.172886
0.358886
0.338131
0.318634
0.300609
0.284179
0.269357
0.256072
0.244211
0.233648
0.224259
0.215926
0.208548
0.202037
0.196319
0.191331
0.187025
0.183362
0.180327
0.359199
0.339339
0.320918
0.30394
0.288425
0.274351
0.261651
0.250235
0.239999
0.230841
0.222666
0.215385
0.208924
0.203214
0.198201
0.193837
0.190087
0.186936
0.359398
0.340115
0.322431
0.306216
0.291407
0.277942
0.265745
0.254731
0.24481
0.235891
0.227893
0.220737
0.214356
0.20869
0.203687
0.199303
0.195504
0.192279
0.35954
0.340673
0.32355
0.307946
0.293727
0.280793
0.269053
0.258419
0.248805
0.240131
0.23232
0.225303
0.21902
0.213415
0.208439
0.204051
0.20022
0.196935
0.359648
0.341105
0.324442
0.309367
0.295686
0.283259
0.271973
0.261731
0.252448
0.244044
0.236449
0.229601
0.223441
0.217919
0.21299
0.208615
0.204765
0.201429
0.359723
0.341411
0.325092
0.310435
0.297205
0.285223
0.274355
0.264489
0.255534
0.247408
0.240044
0.23338
0.227362
0.221941
0.217074
0.212726
0.20887
0.205495
0.359771
0.341605
0.325515
0.311154
0.298259
0.286627
0.276103
0.266559
0.257895
0.250025
0.242878
0.236393
0.230515
0.225196
0.220397
0.216082
0.212226
0.20882
0.359797
0.34171
0.32575
0.311565
0.298881
0.28748
0.277192
0.267878
0.259429
0.251752
0.244771
0.238423
0.232653
0.227412
0.22266
0.218363
0.214497
0.211053
0.359807
0.341752
0.325843
0.311731
0.299135
0.287835
0.277652
0.268441
0.260086
0.252491
0.245577
0.239277
0.233535
0.228301
0.223536
0.219205
0.215286
0.211771
0.359803
0.341736
0.325805
0.311659
0.299019
0.287663
0.277413
0.268127
0.259687
0.251999
0.244984
0.238574
0.232714
0.227355
0.222456
0.217986
0.213922
0.210259
0.359776
0.341625
0.325551
0.311204
0.298313
0.286669
0.276106
0.266494
0.257725
0.24971
0.242376
0.235658
0.229501
0.223857
0.218687
0.213957
0.209647
0.205755
0.359716
0.341376
0.325003
0.310265
0.296921
0.284791
0.273736
0.263643
0.254417
0.245975
0.238244
0.231162
0.224672
0.218723
0.213274
0.20829
0.203748
0.199649
0.359585
0.340847
0.323888
0.308443
0.294344
0.281466
0.269706
0.258968
0.249165
0.240213
0.232038
0.224568
0.21774
0.211497
0.205791
0.200581
0.195843
0.191576
0.359328
0.339827
0.321834
0.305255
0.290045
0.276151
0.263503
0.252009
0.241576
0.232104
0.223503
0.215687
0.208577
0.202105
0.196213
0.190851
0.185989
0.181626
0.358859
0.337998
0.318337
0.300099
0.283407
0.268272
0.254624
0.24235
0.231319
0.221399
0.212468
0.204413
0.197135
0.190549
0.184583
0.179176
0.174292
0.169927
0.358048
0.334896
0.312709
0.292214
0.273699
0.257184
0.242539
0.229573
0.218084
0.207881
0.198794
0.190674
0.183396
0.176854
0.170961
0.165645
0.16086
0.156603
0.356703
0.329782
0.303917
0.280517
0.259934
0.242056
0.226583
0.213171
0.201497
0.191285
0.182301
0.174356
0.167295
0.160992
0.155346
0.150276
0.145729
0.141696
0.354511
0.321304
0.290169
0.263232
0.240557
0.221617
0.205753
0.192361
0.180949
0.171129
0.162605
0.155143
0.148565
0.142731
0.137531
0.13288
0.128719
0.125037
0.350889
0.306554
0.267828
0.236945
0.212694
0.19354
0.178172
0.165605
0.155141
0.146288
0.138696
0.13211
0.126342
0.121252
0.116731
0.112698
0.109094
0.105905
0.342422
0.275875
0.22716
0.193361
0.169569
0.152258
0.139135
0.128788
0.120365
0.113339
0.107368
0.10222
0.0977294
0.0937771
0.0902743
0.0871537
0.0843657
0.0818902
0.259296
0.173087
0.131303
0.107329
0.0919886
0.0815249
0.0740222
0.0683828
0.0639586
0.0603613
0.0573517
0.0547774
0.0525379
0.0505645
0.0488087
0.0472352
0.045818
0.0445416
0.00541074
0.0126973
0.0169161
0.0202781
0.0230814
0.0254894
0.0275944
0.0294559
0.0311174
0.0326131
0.0339714
0.035218
0.0363769
0.0374718
0.0385299
0.0395287
0.0404582
0.0413212
0.0421202
0.0428573
0.0435343
0.044153
0.0447165
0.0452276
0.0456915
0.046116
0.0465065
0.0468654
0.0471816
0.0474495
0.0476669
0.0478344
0.0479533
0.0480259
0.0480546
0.0480423
0.0479922
0.0479076
0.0477919
0.0476485
0.047481
0.0472926
0.0470867
0.0468664
0.012874
0.0293127
0.0385161
0.0456698
0.0517056
0.056942
0.0615479
0.0656367
0.0692937
0.0725866
0.0755704
0.0782902
0.0807826
0.0830774
0.0851983
0.0871677
0.0889952
0.09069
0.0922592
0.0937083
0.0950409
0.0962594
0.0973651
0.0983589
0.0992412
0.100012
0.100671
0.101216
0.10165
0.101976
0.102198
0.102318
0.102343
0.102276
0.102124
0.101893
0.101591
0.101223
0.100798
0.100324
0.0998062
0.0992533
0.0986719
0.0980684
0.0175834
0.03937
0.0510011
0.0597566
0.0670746
0.0734257
0.0790341
0.0840363
0.088529
0.0925874
0.0962724
0.0996345
0.102716
0.105552
0.10817
0.110597
0.112845
0.114929
0.116857
0.118635
0.12027
0.121763
0.123116
0.12433
0.125405
0.126342
0.127136
0.127789
0.128305
0.128687
0.128939
0.129067
0.129076
0.128972
0.128763
0.128457
0.128063
0.127588
0.127044
0.126438
0.125781
0.125081
0.124346
0.123587
0.0209866
0.046649
0.0600518
0.0699443
0.0781358
0.0852249
0.0914891
0.0970885
0.102131
0.106697
0.110852
0.114647
0.118129
0.121333
0.124291
0.127029
0.129564
0.13191
0.134077
0.136074
0.137905
0.139574
0.141083
0.142433
0.143624
0.144656
0.145527
0.146237
0.146791
0.147193
0.147449
0.147563
0.147543
0.147397
0.147131
0.146757
0.146284
0.145721
0.14508
0.144372
0.143606
0.142794
0.141945
0.141069
0.0237436
0.0524161
0.0672344
0.0780525
0.0869561
0.0946418
0.101431
0.107504
0.112982
0.117949
0.122474
0.126612
0.130409
0.133903
0.137127
0.140107
0.142861
0.145405
0.147749
0.149903
0.151872
0.153661
0.155271
0.156705
0.157962
0.159043
0.159946
0.160672
0.161227
0.161616
0.161845
0.16192
0.161849
0.16164
0.161304
0.16085
0.16029
0.159635
0.158896
0.158086
0.157216
0.156299
0.155344
0.154362
0.0261685
0.0573284
0.0733337
0.0849402
0.0944564
0.102656
0.109895
0.116373
0.122218
0.127522
0.132356
0.136777
0.140833
0.144563
0.148001
0.151173
0.154098
0.156791
0.159266
0.161532
0.163594
0.165458
0.167126
0.1686
0.169882
0.170973
0.17187
0.172577
0.173099
0.173443
0.173615
0.173624
0.173478
0.173186
0.17276
0.172211
0.17155
0.170791
0.169945
0.169027
0.168048
0.167022
0.165959
0.164873
0.0284437
0.0617822
0.0788283
0.0911267
0.10118
0.10983
0.11746
0.124285
0.130443
0.136031
0.141123
0.145777
0.150044
0.153963
0.15757
0.160889
0.163941
0.166743
0.169307
0.171643
0.173759
0.17566
0.177348
0.178827
0.180098
0.181164
0.182023
0.182679
0.183138
0.183409
0.1835
0.183419
0.183176
0.182782
0.182248
0.181587
0.180812
0.179937
0.178974
0.177939
0.176844
0.175703
0.174529
0.173334
0.0306882
0.0660327
0.084027
0.0969455
0.107473
0.116512
0.124476
0.131593
0.138009
0.143827
0.149124
0.153962
0.15839
0.162452
0.166183
0.169606
0.172744
0.175614
0.17823
0.180601
0.182735
0.184638
0.186315
0.187768
0.188999
0.190012
0.190806
0.191386
0.19176
0.191938
0.191927
0.191739
0.191383
0.190872
0.190218
0.189435
0.188536
0.187535
0.186448
0.185288
0.184071
0.18281
0.18152
0.180212
0.0329743
0.0702323
0.0891125
0.102592
0.113533
0.1229
0.131135
0.138483
0.145097
0.151086
0.156531
0.161498
0.166037
0.170194
0.174002
0.177487
0.180671
0.183571
0.186203
0.188576
0.190699
0.192579
0.194218
0.195621
0.196791
0.197731
0.198442
0.19893
0.199205
0.199277
0.199155
0.19885
0.198375
0.197741
0.196961
0.19605
0.195023
0.193894
0.192678
0.191392
0.190051
0.188668
0.18726
0.185838
0.0353276
0.0744387
0.094153
0.108135
0.119427
0.129055
0.137494
0.145003
0.151748
0.157844
0.163376
0.168414
0.17301
0.177211
0.181051
0.184555
0.187746
0.190643
0.19326
0.195609
0.197698
0.199533
0.201118
0.202457
0.203554
0.204411
0.20503
0.205421
0.205594
0.205559
0.205326
0.204908
0.204315
0.203561
0.20266
0.201626
0.200475
0.199222
0.197884
0.196475
0.195012
0.193511
0.191986
0.190452
0.0377272
0.0786171
0.0991067
0.113527
0.125098
0.134914
0.14348
0.151076
0.15788
0.164014
0.169569
0.174619
0.179218
0.183413
0.18724
0.190723
0.193886
0.19675
0.19933
0.201636
0.203675
0.205455
0.206978
0.208248
0.20927
0.210044
0.210577
0.210879
0.21096
0.21083
0.210501
0.209982
0.209288
0.20843
0.207423
0.206281
0.205021
0.203658
0.202209
0.20069
0.199117
0.197506
0.195874
0.194234
0.0401063
0.082646
0.103829
0.118607
0.130375
0.140295
0.148908
0.156513
0.1633
0.169403
0.174918
0.179921
0.184471
0.188616
0.192386
0.195811
0.198919
0.201729
0.204254
0.206506
0.208491
0.210214
0.211679
0.21289
0.213845
0.214551
0.215017
0.215253
0.215268
0.21507
0.214672
0.214083
0.213315
0.212382
0.211296
0.210074
0.208731
0.207282
0.205744
0.204135
0.202471
0.200768
0.199043
0.197312
0.0423563
0.086325
0.10808
0.123114
0.134984
0.144918
0.153491
0.161024
0.167723
0.173727
0.179141
0.184044
0.188497
0.192547
0.196223
0.199564
0.202596
0.205339
0.207805
0.210003
0.211939
0.213618
0.215043
0.216209
0.217124
0.217797
0.218235
0.218445
0.218435
0.218214
0.217791
0.217174
0.216377
0.21541
0.214287
0.213023
0.211633
0.210133
0.208539
0.20687
0.205142
0.203372
0.201577
0.199774
0.0443298
0.089386
0.111543
0.126704
0.138567
0.148417
0.156863
0.164247
0.170787
0.176632
0.181891
0.186647
0.190959
0.194873
0.198428
0.201665
0.20461
0.207282
0.209693
0.21185
0.21376
0.215419
0.216827
0.217992
0.21892
0.219616
0.220085
0.22033
0.220358
0.220174
0.219786
0.219202
0.218432
0.217487
0.216379
0.215123
0.213733
0.212226
0.210617
0.208925
0.207168
0.205363
0.203527
0.201678
0.0458441
0.0915087
0.113844
0.128977
0.140709
0.150375
0.158609
0.165771
0.17209
0.177722
0.182779
0.187343
0.191473
0.195215
0.198626
0.201747
0.204604
0.207212
0.209588
0.211731
0.213639
0.215321
0.216781
0.218021
0.219042
0.219844
0.220426
0.22079
0.220936
0.220869
0.220593
0.220114
0.219441
0.218584
0.217554
0.216364
0.215029
0.213566
0.21199
0.21032
0.208574
0.20677
0.204928
0.203065
0.0467086
0.0923723
0.114613
0.129537
0.141003
0.150376
0.158309
0.165173
0.171206
0.176566
0.181367
0.185687
0.189575
0.193116
0.196363
0.199358
0.202139
0.204696
0.207052
0.209221
0.21121
0.213018
0.214642
0.216074
0.217305
0.21833
0.21914
0.219731
0.2201
0.220249
0.220177
0.21989
0.219395
0.218701
0.217819
0.216761
0.215542
0.214178
0.212687
0.211087
0.209397
0.207637
0.205825
0.203982
0.0466022
0.0915193
0.113357
0.127892
0.138971
0.147962
0.15552
0.16202
0.167699
0.172719
0.177187
0.18117
0.184756
0.188059
0.191107
0.19394
0.19661
0.199152
0.201584
0.203916
0.206139
0.208238
0.210193
0.211981
0.213582
0.214978
0.216154
0.217101
0.21781
0.21828
0.218511
0.218505
0.21827
0.217814
0.217149
0.216286
0.215243
0.214034
0.212679
0.211197
0.209608
0.207932
0.20619
0.204402
0.0455229
0.0891357
0.110384
0.124457
0.135117
0.143706
0.150869
0.156975
0.162262
0.166892
0.170966
0.174517
0.177734
0.180694
0.183468
0.186134
0.188763
0.191397
0.19405
0.196707
0.199334
0.201888
0.204325
0.206603
0.208688
0.210554
0.212179
0.21355
0.214658
0.2155
0.216076
0.21639
0.216449
0.216262
0.215842
0.215203
0.21436
0.213333
0.212139
0.210799
0.209334
0.207767
0.206118
0.204409
0.0434771
0.0854935
0.106151
0.119825
0.130123
0.13835
0.145135
0.150836
0.155683
0.159824
0.163339
0.166393
0.169142
0.171682
0.174147
0.176674
0.17936
0.182241
0.185295
0.18846
0.191655
0.194803
0.197832
0.200685
0.203316
0.205695
0.207798
0.209612
0.211131
0.212351
0.213275
0.213909
0.214263
0.214347
0.214174
0.213761
0.213125
0.212283
0.211258
0.210069
0.208739
0.207291
0.205748
0.204131
0.04113
0.0807238
0.101022
0.114468
0.124544
0.132514
0.138988
0.144315
0.148712
0.152314
0.155204
0.157663
0.159796
0.161808
0.163951
0.166435
0.169352
0.172683
0.176327
0.180151
0.184025
0.187833
0.191487
0.19492
0.198085
0.200952
0.203501
0.205724
0.207616
0.209179
0.21042
0.211346
0.211969
0.212301
0.212357
0.212155
0.211713
0.211049
0.210186
0.209145
0.207949
0.206622
0.205186
0.203665
0.0383572
0.0751697
0.0953132
0.108811
0.1189
0.126799
0.133105
0.138151
0.142128
0.145115
0.147356
0.149016
0.150359
0.151806
0.153756
0.156426
0.159823
0.163806
0.168171
0.172715
0.177267
0.181695
0.185906
0.189837
0.193449
0.196717
0.19963
0.202183
0.204379
0.206223
0.207724
0.208892
0.209741
0.210284
0.210538
0.21052
0.210249
0.209746
0.20903
0.208126
0.207055
0.205843
0.204511
0.203086
0.0352105
0.06932
0.0894176
0.10323
0.113599
0.121664
0.127996
0.132889
0.136463
0.138794
0.140123
0.140744
0.141275
0.14239
0.144512
0.147718
0.151836
0.156579
0.161661
0.166842
0.171943
0.176841
0.181455
0.185736
0.189656
0.1932
0.196364
0.19915
0.201562
0.20361
0.205305
0.206657
0.207682
0.208393
0.208807
0.208941
0.208815
0.208448
0.207862
0.207079
0.206122
0.205014
0.20378
0.202444
0.0318533
0.0638306
0.0839888
0.0982981
0.109159
0.117592
0.124094
0.128847
0.13181
0.133161
0.133224
0.132836
0.132995
0.134388
0.137205
0.141255
0.146178
0.151606
0.157232
0.162833
0.168258
0.173411
0.178232
0.182687
0.186762
0.190449
0.193748
0.196665
0.199208
0.201384
0.203207
0.204686
0.205837
0.206673
0.20721
0.207465
0.207456
0.207203
0.206726
0.206047
0.205189
0.204175
0.20303
0.201776
0.0285667
0.0597159
0.0802843
0.0951899
0.106577
0.115337
0.121791
0.125846
0.127541
0.127297
0.126204
0.125573
0.126323
0.128739
0.132623
0.137562
0.143128
0.148977
0.154857
0.1606
0.166098
0.171286
0.176125
0.180595
0.184688
0.1884
0.191734
0.194696
0.197293
0.199533
0.201426
0.202983
0.204216
0.205139
0.205765
0.206111
0.206194
0.206032
0.205645
0.205055
0.204282
0.203351
0.202284
0.201105
0.0257947
0.058819
0.0804905
0.0960009
0.107431
0.115564
0.120494
0.122384
0.121933
0.120498
0.119553
0.120074
0.122341
0.126129
0.131007
0.136545
0.142401
0.148328
0.154161
0.159793
0.165154
0.170204
0.174917
0.17928
0.183287
0.186936
0.190229
0.193169
0.195761
0.198013
0.199931
0.201526
0.202806
0.203783
0.204471
0.204883
0.205036
0.204946
0.204632
0.204115
0.203415
0.202555
0.201558
0.200445
0.0249214
0.0666158
0.0880129
0.102024
0.110581
0.114951
0.11627
0.115703
0.114597
0.114186
0.115197
0.117773
0.121665
0.126492
0.131891
0.13758
0.143353
0.149069
0.154634
0.159982
0.16507
0.169872
0.174367
0.178546
0.182401
0.185928
0.189128
0.192
0.194547
0.196773
0.198683
0.200284
0.201583
0.202591
0.203317
0.203775
0.203979
0.203945
0.20369
0.203233
0.202594
0.201795
0.200858
0.199805
0.0323263
0.071772
0.0891121
0.0984076
0.103335
0.105741
0.106899
0.107805
0.109212
0.111539
0.114859
0.119025
0.12381
0.128991
0.134385
0.139852
0.145291
0.150626
0.155803
0.160781
0.165531
0.170031
0.174264
0.178218
0.181885
0.185258
0.188334
0.191109
0.193584
0.19576
0.197638
0.199224
0.200522
0.20154
0.202288
0.202776
0.203017
0.203025
0.202816
0.202409
0.201822
0.201075
0.200191
0.19919
0.0548799
0.0648352
0.0758565
0.0852809
0.0924791
0.0978552
0.102102
0.10588
0.109661
0.113693
0.11805
0.122702
0.127572
0.132576
0.137638
0.142692
0.147686
0.152576
0.157328
0.161913
0.166307
0.17049
0.174445
0.17816
0.181624
0.184826
0.187761
0.190423
0.192809
0.194917
0.196747
0.198301
0.199583
0.200598
0.201354
0.201859
0.202125
0.202164
0.201992
0.201625
0.201081
0.20038
0.199542
0.198588
0.0846243
0.0868523
0.0901367
0.0940656
0.0982709
0.102476
0.106576
0.110618
0.114693
0.118873
0.123183
0.127613
0.132133
0.136704
0.141288
0.145849
0.150356
0.154778
0.159092
0.163273
0.167301
0.171156
0.174823
0.178285
0.18153
0.184547
0.187326
0.189859
0.19214
0.194166
0.195934
0.197444
0.198698
0.199698
0.200451
0.200964
0.201246
0.20131
0.201168
0.200836
0.200331
0.199671
0.198876
0.197966
0.104834
0.105356
0.106439
0.108083
0.110238
0.11281
0.115711
0.118876
0.122263
0.125839
0.129571
0.133424
0.137363
0.141355
0.145369
0.149377
0.153355
0.157281
0.161131
0.164886
0.168527
0.172033
0.175388
0.178576
0.181582
0.184391
0.186994
0.189379
0.191538
0.193466
0.195157
0.196609
0.197822
0.198797
0.199538
0.200051
0.200344
0.200426
0.20031
0.20001
0.199542
0.198922
0.198169
0.197302
0.120102
0.120013
0.120298
0.121008
0.122158
0.123727
0.125681
0.127976
0.130565
0.133397
0.136425
0.139605
0.142897
0.146268
0.149687
0.153129
0.156572
0.159994
0.163375
0.166696
0.169939
0.173085
0.176115
0.179013
0.181762
0.184349
0.186758
0.188978
0.191
0.192814
0.194414
0.195795
0.196956
0.197895
0.198616
0.199121
0.199417
0.199513
0.199419
0.199147
0.198713
0.198131
0.197419
0.196595
0.13286
0.132409
0.132259
0.132454
0.133017
0.133947
0.13523
0.13684
0.138743
0.140899
0.143264
0.1458
0.148469
0.15124
0.154084
0.156977
0.159899
0.16283
0.165751
0.168643
0.171489
0.174271
0.17697
0.17957
0.182053
0.184403
0.186606
0.188649
0.190519
0.192206
0.193702
0.195001
0.196098
0.196992
0.197683
0.198172
0.198465
0.198569
0.198492
0.198245
0.197842
0.197296
0.196624
0.195842
0.144029
0.143305
0.142844
0.142678
0.142827
0.143292
0.144068
0.145138
0.146477
0.148056
0.149841
0.151801
0.153904
0.156123
0.158434
0.160814
0.163246
0.16571
0.168189
0.170666
0.173125
0.175548
0.177917
0.180216
0.182427
0.184535
0.186523
0.188377
0.190084
0.191634
0.193015
0.194221
0.195245
0.196084
0.196737
0.197203
0.197487
0.197592
0.197528
0.197302
0.196927
0.196415
0.195781
0.195041
0.154015
0.153062
0.152347
0.151891
0.151708
0.151801
0.152167
0.152793
0.153662
0.154751
0.156036
0.157491
0.159092
0.160817
0.162644
0.164554
0.166532
0.168561
0.170624
0.172708
0.174795
0.17687
0.178916
0.180917
0.182857
0.184718
0.186486
0.188146
0.189683
0.191086
0.192344
0.193448
0.19439
0.195166
0.195772
0.196209
0.196476
0.196579
0.196522
0.196314
0.195964
0.195484
0.194887
0.194188
0.163016
0.161862
0.160926
0.160221
0.159756
0.159535
0.159554
0.159804
0.160272
0.160941
0.161793
0.162808
0.163967
0.165251
0.166644
0.168129
0.169693
0.17132
0.172998
0.174712
0.176447
0.17819
0.179925
0.181636
0.183308
0.184925
0.186472
0.187933
0.189296
0.190547
0.191675
0.192669
0.193522
0.194228
0.194782
0.195182
0.195428
0.195522
0.195469
0.195274
0.194947
0.194497
0.193936
0.193278
0.17113
0.169798
0.168666
0.167743
0.167032
0.166538
0.166257
0.166182
0.166304
0.166609
0.167084
0.167714
0.168483
0.169377
0.170382
0.171485
0.172672
0.173933
0.175255
0.176626
0.178032
0.179461
0.180899
0.182332
0.183745
0.185122
0.18645
0.187715
0.188901
0.189997
0.19099
0.19187
0.192629
0.193259
0.193755
0.194113
0.194332
0.194414
0.19436
0.194176
0.193869
0.193447
0.192921
0.192302
0.178409
0.176921
0.175616
0.174498
0.173573
0.172839
0.172296
0.171938
0.171757
0.171746
0.171891
0.172183
0.172608
0.173156
0.173815
0.174574
0.175423
0.176351
0.177347
0.178402
0.179503
0.180639
0.181797
0.182965
0.184129
0.185275
0.18639
0.18746
0.188471
0.189411
0.190268
0.191032
0.191693
0.192243
0.192676
0.192989
0.193178
0.193243
0.193186
0.19301
0.19272
0.192325
0.191832
0.191251
0.184878
0.183255
0.181798
0.180511
0.179396
0.178453
0.177681
0.177076
0.176632
0.176343
0.176199
0.176194
0.176316
0.176557
0.176908
0.177359
0.177902
0.178528
0.179228
0.179993
0.180812
0.181676
0.182573
0.183492
0.18442
0.185345
0.186255
0.187136
0.187976
0.188763
0.189484
0.190131
0.190692
0.19116
0.191529
0.191792
0.191948
0.191993
0.19193
0.191759
0.191486
0.191115
0.190654
0.190113
0.190126
0.188404
0.186832
0.185414
0.18415
0.183042
0.182089
0.181287
0.180632
0.18012
0.179743
0.179496
0.17937
0.179358
0.179454
0.179649
0.179936
0.180307
0.180755
0.181272
0.18185
0.182478
0.183147
0.183847
0.184567
0.185296
0.186022
0.186732
0.187416
0.188062
0.188658
0.189195
0.189663
0.190053
0.190359
0.190574
0.190696
0.190722
0.19065
0.190483
0.190223
0.189874
0.189443
0.188938
0.194695
0.192884
0.191209
0.189672
0.188277
0.187022
0.185907
0.184931
0.18409
0.18338
0.182797
0.182335
0.181989
0.181754
0.181622
0.181588
0.181646
0.18179
0.182012
0.182306
0.182664
0.183079
0.183541
0.184041
0.18457
0.185117
0.185672
0.186224
0.186761
0.187274
0.187751
0.188183
0.188561
0.188875
0.189119
0.189288
0.189376
0.18938
0.1893
0.189134
0.188886
0.188558
0.188155
0.187683
0.199104
0.197201
0.19542
0.193764
0.192234
0.190831
0.189554
0.188402
0.187374
0.186466
0.185676
0.184999
0.184433
0.183971
0.183611
0.183347
0.183173
0.183086
0.183079
0.183146
0.183282
0.183478
0.183728
0.184023
0.184355
0.184715
0.185093
0.18548
0.185865
0.186238
0.18659
0.186911
0.187193
0.187427
0.187605
0.187723
0.187774
0.187756
0.187665
0.187502
0.187266
0.18696
0.186588
0.186155
0.20309
0.201099
0.199217
0.197445
0.195785
0.194238
0.192803
0.191481
0.19027
0.18917
0.188177
0.187291
0.186508
0.185825
0.185239
0.184747
0.184345
0.184029
0.183794
0.183635
0.183548
0.183526
0.183563
0.183652
0.183786
0.183957
0.184156
0.184374
0.184603
0.184834
0.185057
0.185264
0.185446
0.185596
0.185706
0.18577
0.185784
0.185741
0.18564
0.185479
0.185258
0.184977
0.18464
0.206343
0.204271
0.202293
0.200412
0.198629
0.196945
0.195361
0.193877
0.192494
0.19121
0.190025
0.188938
0.187948
0.187053
0.18625
0.185539
0.184915
0.184377
0.183921
0.183543
0.183239
0.183004
0.182833
0.18272
0.182659
0.182643
0.182665
0.182717
0.182792
0.18288
0.182975
0.183068
0.183151
0.183217
0.183258
0.183269
0.183245
0.183179
0.183069
0.182913
0.182708
0.182454
0.182154
0.208506
0.206353
0.204283
0.202297
0.200396
0.198582
0.196856
0.19522
0.193673
0.192216
0.19085
0.189574
0.188389
0.187293
0.186286
0.185367
0.184535
0.183787
0.183121
0.182534
0.182024
0.181587
0.181218
0.180913
0.180667
0.180473
0.180326
0.180219
0.180145
0.180098
0.180069
0.180053
0.18004
0.180026
0.180002
0.179963
0.179903
0.179817
0.1797
0.179551
0.179365
0.179143
0.178883
0.209137
0.206891
0.204717
0.202617
0.200593
0.198645
0.196776
0.194988
0.193281
0.191656
0.190116
0.18866
0.187289
0.186004
0.184805
0.183692
0.182664
0.18172
0.18086
0.180081
0.17938
0.178756
0.178205
0.177723
0.177305
0.176948
0.176645
0.176392
0.176182
0.176009
0.175867
0.17575
0.17565
0.175562
0.175479
0.175395
0.175304
0.175202
0.175083
0.174944
0.174781
0.174593
0.174379
0.207492
0.205116
0.202804
0.20056
0.198386
0.196282
0.194252
0.192298
0.19042
0.188622
0.186904
0.185269
0.183718
0.182251
0.180871
0.179576
0.178368
0.177246
0.176209
0.175257
0.174387
0.173597
0.172886
0.172248
0.171681
0.171182
0.170744
0.170364
0.170036
0.169756
0.169516
0.169313
0.169139
0.168989
0.168856
0.168736
0.168622
0.16851
0.168393
0.168269
0.168133
0.167982
0.167814
0.202805
0.200257
0.197775
0.19536
0.193016
0.190743
0.188545
0.186424
0.184381
0.182421
0.180543
0.178751
0.177046
0.175429
0.173902
0.172465
0.171118
0.169862
0.168696
0.167618
0.166628
0.165722
0.164899
0.164156
0.163489
0.162894
0.162368
0.161905
0.161502
0.161154
0.160855
0.1606
0.160383
0.1602
0.160045
0.159911
0.159794
0.159687
0.159587
0.159488
0.159386
0.159278
0.159162
0.196545
0.193854
0.191232
0.188681
0.186205
0.183804
0.181483
0.179242
0.177086
0.175015
0.173032
0.171139
0.169338
0.16763
0.166016
0.164496
0.163072
0.161742
0.160505
0.159361
0.158308
0.157342
0.156463
0.155666
0.154949
0.154308
0.153738
0.153236
0.152797
0.152417
0.152091
0.151813
0.15158
0.151385
0.151223
0.151089
0.150977
0.150882
0.150799
0.150723
0.15065
0.150576
0.150498
0.18836
0.18556
0.182836
0.180189
0.177622
0.175137
0.172736
0.170422
0.168197
0.166064
0.164023
0.162078
0.160229
0.158477
0.156824
0.155269
0.153812
0.152453
0.151191
0.150023
0.148948
0.147962
0.147065
0.146251
0.145518
0.144863
0.14428
0.143767
0.143319
0.142931
0.1426
0.14232
0.142087
0.141895
0.14174
0.141616
0.141517
0.141439
0.141376
0.141324
0.141279
0.141236
0.141192
0.17836
0.175506
0.172733
0.170045
0.167442
0.164927
0.162502
0.160169
0.157929
0.155786
0.15374
0.151793
0.149945
0.148198
0.146552
0.145007
0.143562
0.142215
0.140966
0.139812
0.138751
0.137779
0.136895
0.136094
0.135374
0.13473
0.134158
0.133656
0.133219
0.132843
0.132523
0.132255
0.132035
0.131858
0.131718
0.131611
0.131532
0.131474
0.131434
0.131407
0.131388
0.131373
0.13136
0.166691
0.163847
0.161091
0.158425
0.155849
0.153365
0.150975
0.148681
0.146484
0.144385
0.142385
0.140487
0.138689
0.136993
0.135398
0.133903
0.132508
0.131211
0.130009
0.128901
0.127883
0.126953
0.126107
0.125343
0.124656
0.124044
0.123502
0.123027
0.122616
0.122264
0.121968
0.121723
0.121526
0.12137
0.121252
0.121167
0.12111
0.121075
0.121059
0.121055
0.121062
0.121073
0.121088
0.153482
0.150722
0.148054
0.145477
0.142994
0.140605
0.138311
0.136113
0.134013
0.132011
0.130108
0.128305
0.126601
0.124997
0.123492
0.122084
0.120773
0.119556
0.11843
0.117394
0.116443
0.115576
0.11479
0.11408
0.113443
0.112877
0.112378
0.111942
0.111568
0.11125
0.110985
0.110769
0.110599
0.11047
0.110378
0.110317
0.110283
0.110272
0.110278
0.110298
0.110327
0.110363
0.110401
0.138782
0.136181
0.133672
0.131254
0.128929
0.126696
0.124557
0.122511
0.12056
0.118705
0.116945
0.11528
0.113711
0.112236
0.110855
0.109565
0.108366
0.107254
0.106228
0.105285
0.104421
0.103634
0.102922
0.102279
0.101705
0.101196
0.100749
0.100361
0.10003
0.0997511
0.0995226
0.0993405
0.0992011
0.0991003
0.0990339
0.0989977
0.098987
0.0989974
0.0990248
0.0990649
0.099114
0.0991688
0.0992264
0.122419
0.120055
0.117778
0.115589
0.113487
0.111472
0.109545
0.107707
0.105957
0.104295
0.102722
0.101237
0.0998392
0.0985279
0.0973017
0.0961587
0.0950971
0.0941146
0.0932087
0.0923767
0.091616
0.0909238
0.0902975
0.0897344
0.0892321
0.088788
0.0883998
0.0880651
0.0877812
0.0875457
0.0873556
0.0872078
0.0870991
0.0870257
0.0869839
0.0869696
0.0869788
0.0870074
0.0870513
0.0871069
0.0871707
0.0872396
0.087311
0.103681
0.101641
0.0996794
0.0977966
0.0959924
0.0942666
0.0926191
0.0910499
0.0895587
0.0881453
0.0868092
0.0855497
0.0843659
0.0832566
0.0822204
0.0812556
0.0803602
0.079532
0.0787688
0.0780682
0.0774279
0.0768456
0.0763191
0.0758461
0.0754248
0.0750531
0.0747293
0.0744513
0.0742172
0.0740248
0.0738719
0.0737559
0.0736738
0.0736226
0.0735989
0.0735994
0.0736203
0.0736581
0.0737094
0.0737708
0.0738394
0.0739124
0.0739876
0.0802058
0.0786298
0.077119
0.0756726
0.0742897
0.0729693
0.0717105
0.0705128
0.0693756
0.0682984
0.0672805
0.0663212
0.0654196
0.0645744
0.0637844
0.0630481
0.0623638
0.0617297
0.061144
0.0606048
0.0601104
0.0596589
0.0592488
0.0588785
0.0585466
0.0582518
0.0579928
0.0577683
0.0575771
0.0574178
0.0572887
0.057188
0.0571138
0.0570637
0.0570354
0.0570263
0.0570336
0.0570547
0.0570869
0.0571277
0.0571747
0.0572259
0.0572795
0.0436963
0.0428788
0.0420873
0.0413232
0.0405871
0.0398793
0.0391998
0.0385485
0.0379253
0.0373298
0.0367617
0.0362208
0.0357063
0.0352179
0.0347549
0.0343165
0.0339021
0.0335109
0.033142
0.0327948
0.0324686
0.0321627
0.0318766
0.0316099
0.0313622
0.0311333
0.0309228
0.0307304
0.0305558
0.0303986
0.0302582
0.0301339
0.0300248
0.02993
0.0298482
0.0297783
0.0297188
0.0296685
0.029626
0.0295899
0.0295592
0.0295326
0.0295093
)
;

boundaryField
{
    inlet
    {
        type            fixedValue;
        value           uniform 0.375;
    }
    outlet
    {
        type            zeroGradient;
    }
    upperWall
    {
        type            kqRWallFunction;
        value           nonuniform List<scalar> 
61
(
0.259296
0.173087
0.131303
0.107329
0.0919886
0.0815249
0.0740222
0.0683828
0.0639586
0.0603613
0.0573517
0.0547774
0.0525379
0.0505645
0.0488087
0.0472352
0.045818
0.0445416
0.0436963
0.0428788
0.0420873
0.0413232
0.0405871
0.0398793
0.0391998
0.0385485
0.0379253
0.0373298
0.0367617
0.0362208
0.0357063
0.0352179
0.0347549
0.0343165
0.0339021
0.0335109
0.033142
0.0327948
0.0324686
0.0321627
0.0318766
0.0316099
0.0313622
0.0311333
0.0309228
0.0307304
0.0305558
0.0303986
0.0302582
0.0301339
0.0300248
0.02993
0.0298482
0.0297783
0.0297188
0.0296685
0.029626
0.0295899
0.0295592
0.0295326
0.0295093
)
;
    }
    lowerWall
    {
        type            kqRWallFunction;
        value           nonuniform List<scalar> 
89
(
0.246428
0.158841
0.119059
0.0973221
0.0839275
0.0750488
0.0687937
0.0641366
0.0605137
0.0576085
0.055255
0.0533282
0.0517541
0.0504924
0.0495334
0.0489006
0.0487551
0.0494915
0.00541074
0.012874
0.0175834
0.0209866
0.0237436
0.0261685
0.0284437
0.0306882
0.0329743
0.0353276
0.0377272
0.0401063
0.0423563
0.0443298
0.0458441
0.0467086
0.0466022
0.0455229
0.0434771
0.04113
0.0383572
0.0352105
0.0318533
0.0285667
0.0257947
0.0249214
0.0323263
0.00541074
0.0126973
0.0169161
0.0202781
0.0230814
0.0254894
0.0275944
0.0294559
0.0311174
0.0326131
0.0339714
0.035218
0.0363769
0.0374718
0.0385299
0.0395287
0.0404582
0.0413212
0.0421202
0.0428573
0.0435343
0.044153
0.0447165
0.0452276
0.0456915
0.046116
0.0465065
0.0468654
0.0471816
0.0474495
0.0476669
0.0478344
0.0479533
0.0480259
0.0480546
0.0480423
0.0479922
0.0479076
0.0477919
0.0476485
0.047481
0.0472926
0.0470867
0.0468664
)
;
    }
    frontAndBack
    {