/*--------------------------------*- C++ -*----------------------------------*\
  =========                 |
  \\      /  F ield         | OpenFOAM: The Open Source CFD Toolbox
   \\    /   O peration     | Website:  https://openfoam.org
    \\  /    A nd           | Version:  6
     \\/     M anipulation  |
\*---------------------------------------------------------------------------*/
FoamFile
{
    version     2.0;
    format      ascii;
    class       volScalarField;
    location    "0.03";
    object      nut;
}
// * * * * * * * * * * * * * * * * * * * * * * * * * * * * * * * * * * * * * //

dimensions      [0 2 -1 0 0 0 0];

internalField   nonuniform List<scalar> 
3032
(
1.77719e-05
1.42681e-05
1.23525e-05
1.11674e-05
1.03694e-05
9.80414e-06
9.3847e-06
9.05895e-06
8.79626e-06
8.57856e-06
8.39603e-06
8.24221e-06
8.11231e-06
8.00374e-06
7.91586e-06
7.8501e-06
7.81704e-06
7.84293e-06
0.000144883
0.000101936
8.79626e-05
8.06583e-05
7.62726e-05
7.33803e-05
7.11864e-05
6.93139e-05
6.76408e-05
6.61414e-05
6.47847e-05
6.35768e-05
6.25301e-05
6.16574e-05
6.09828e-05
6.05477e-05
6.04673e-05
6.09193e-05
0.000323363
0.000223662
0.000189966
0.000172841
0.000162469
0.000155576
0.000150569
0.000146619
0.000143339
0.000140572
0.000138172
0.000136108
0.000134388
0.000133039
0.000132117
0.000131724
0.000132065
0.000133483
0.000494019
0.000355376
0.000299698
0.00027007
0.000251766
0.000239467
0.000230633
0.000223909
0.000218575
0.000214269
0.000210689
0.000207734
0.000205367
0.000203595
0.000202476
0.000202124
0.000202751
0.000204654
0.000624523
0.000478853
0.000407702
0.000366782
0.00034051
0.000322441
0.000309345
0.000299436
0.000291706
0.000285563
0.000280579
0.000276562
0.000273413
0.000271099
0.000269653
0.000269169
0.000269814
0.000271796
0.00071316
0.000583552
0.000506926
0.0004586
0.000425956
0.000402769
0.000385633
0.000372558
0.000362366
0.000354241
0.000347713
0.000342499
0.000338434
0.000335441
0.000333512
0.000332703
0.000333124
0.000334892
0.000769367
0.000665783
0.000592744
0.000541924
0.000505519
0.000478641
0.000458255
0.000442448
0.000429973
0.000419968
0.000411916
0.000405475
0.000400434
0.000396672
0.000394141
0.000392855
0.000392865
0.000394219
0.000803509
0.000726503
0.000662995
0.000614227
0.000577001
0.000548297
0.000525851
0.000508067
0.00049377
0.000482188
0.000472793
0.000465225
0.000459244
0.000454701
0.000451517
0.000449663
0.000449146
0.000449959
0.000823673
0.000769112
0.00071766
0.000674233
0.000638844
0.000610254
0.00058713
0.000568294
0.000552862
0.000540179
0.000529771
0.000521296
0.000514515
0.000509268
0.000505453
0.000503015
0.000501925
0.000502136
0.000835357
0.00079776
0.000758251
0.000721892
0.000690292
0.000663505
0.000641004
0.000622152
0.000606369
0.000593173
0.000582188
0.000573126
0.000565774
0.000559977
0.00055563
0.000552662
0.00055102
0.000550634
0.000842045
0.000816343
0.00078712
0.000758148
0.000731392
0.000707591
0.000686829
0.000668912
0.000653552
0.000640464
0.000629392
0.000620123
0.000612491
0.000606364
0.000601646
0.000598262
0.000596151
0.000595226
0.000845533
0.000827065
0.000805194
0.000782353
0.000760231
0.000739741
0.000721267
0.000704888
0.000690536
0.000678083
0.000667384
0.000658305
0.000650728
0.000644555
0.000639705
0.000636112
0.000633716
0.000632432
0.000847642
0.000834052
0.000817769
0.000800135
0.00078236
0.000765282
0.000749387
0.000734913
0.000721943
0.000710473
0.000700457
0.000691833
0.000684534
0.000678495
0.00067366
0.000669974
0.000667384
0.000665808
0.000849001
0.000838868
0.000827013
0.000813972
0.000800427
0.000786978
0.000774064
0.00076197
0.000750864
0.00074083
0.000731902
0.000724082
0.000717354
0.00071169
0.00070706
0.00070343
0.000700755
0.000698955
0.0008498
0.000841867
0.000833129
0.000823668
0.000813751
0.000803697
0.000793799
0.000784293
0.000775352
0.000767095
0.000759599
0.000752908
0.000747043
0.000742012
0.000737808
0.000734416
0.000731804
0.000729899
0.000850223
0.000843531
0.000836711
0.000829668
0.00082243
0.000815099
0.00080781
0.000800699
0.000793889
0.00078748
0.000781548
0.000776153
0.000771331
0.000767107
0.000763494
0.000760489
0.000758075
0.00075618
0.000850421
0.000844333
0.000838515
0.000832839
0.000827238
0.0008217
0.000816249
0.00081093
0.000805799
0.000800914
0.000796326
0.000792079
0.000788208
0.000784739
0.000781689
0.000779064
0.000776852
0.000774986
0.000850491
0.000844623
0.000839187
0.000834062
0.00082916
0.000824425
0.000819835
0.000815385
0.00081109
0.000806973
0.00080306
0.000799376
0.000795945
0.000792787
0.000789918
0.000787345
0.00078506
0.000782999
0.000850468
0.000844525
0.000838958
0.000833636
0.000828473
0.000823417
0.000818452
0.00081358
0.00080882
0.000804197
0.000799738
0.000795471
0.000791418
0.000787598
0.000784029
0.000780722
0.000777673
0.000774832
0.000850267
0.000843706
0.000837093
0.000830308
0.000823329
0.000816205
0.000809016
0.000801857
0.000794812
0.000787957
0.000781348
0.00077503
0.000769032
0.000763375
0.000758072
0.000753133
0.000748554
0.000744292
0.000849707
0.000841523
0.000832412
0.00082247
0.000811958
0.00080118
0.000790408
0.000779858
0.00076968
0.000759973
0.000750794
0.000742169
0.000734103
0.000726591
0.00071962
0.000713179
0.000707251
0.000701788
0.000848158
0.000835911
0.000821311
0.000805301
0.000788808
0.000772532
0.00075692
0.000742222
0.000728544
0.000715907
0.000704282
0.000693612
0.000683829
0.000674865
0.000666657
0.000659154
0.000652313
0.000646076
0.000844075
0.00082268
0.000797752
0.000772135
0.000747561
0.000724858
0.000704302
0.000685873
0.000669412
0.000654712
0.000641562
0.000629766
0.000619148
0.000609561
0.000600885
0.000593025
0.000585913
0.000579483
0.000833772
0.000794151
0.000753113
0.000715539
0.000682793
0.000654782
0.000630931
0.000610563
0.000593058
0.000577894
0.000564648
0.000552982
0.000542628
0.000533375
0.000525062
0.000517569
0.000510816
0.00050474
0.000809053
0.000738575
0.000678216
0.00063033
0.000592691
0.00056285
0.000538844
0.000519198
0.00050284
0.000488995
0.000477101
0.000466743
0.000457616
0.000449491
0.000442201
0.000435629
0.000429698
0.000424366
0.000753661
0.000642537
0.000567911
0.000517041
0.000480748
0.000453829
0.000433173
0.000416812
0.000403479
0.000392338
0.000382827
0.000374555
0.00036725
0.000360718
0.000354823
0.00034947
0.000344608
0.00034022
0.00064145
0.00049901
0.000426504
0.000383506
0.000355145
0.000335182
0.000320384
0.000308883
0.000299567
0.000291757
0.000285025
0.000279095
0.000273782
0.000268962
0.000264552
0.000260495
0.000256768
0.00025338
0.000448548
0.00032009
0.000270087
0.000243141
0.000226232
0.00021477
0.00020644
0.000199941
0.000194555
0.000189894
0.000185742
0.000181971
0.000178504
0.00017529
0.000172297
0.000169507
0.000166914
0.000164537
0.000203089
0.000143498
0.000122875
0.000111548
0.000104578
0.000100047
9.67696e-05
9.40848e-05
9.16974e-05
8.94983e-05
8.7448e-05
8.55294e-05
8.37333e-05
8.20532e-05
8.04836e-05
7.90198e-05
7.76595e-05
7.64069e-05
2.40291e-05
1.96325e-05
1.70996e-05
1.54602e-05
1.43131e-05
1.34748e-05
1.28399e-05
1.23413e-05
1.19355e-05
1.15953e-05
1.13029e-05
1.10466e-05
1.08185e-05
1.06131e-05
1.04261e-05
1.02546e-05
1.00964e-05
9.95037e-06
4.03794e-06
1.32788e-05
1.53712e-05
1.68594e-05
1.801e-05
1.89463e-05
1.97321e-05
2.04052e-05
2.09904e-05
2.15051e-05
2.19623e-05
2.23714e-05
2.27394e-05
2.3073e-05
2.34217e-05
2.37622e-05
2.40789e-05
2.4372e-05
2.46423e-05
2.48902e-05
2.51157e-05
2.53189e-05
2.54993e-05
2.56571e-05
2.57928e-05
2.5909e-05
2.60186e-05
2.61294e-05
2.62324e-05
2.63223e-05
2.63964e-05
2.64539e-05
2.6495e-05
2.65201e-05
2.65299e-05
2.65251e-05
2.65067e-05
2.64757e-05
2.6433e-05
2.63798e-05
2.63172e-05
2.62463e-05
2.61681e-05
2.60838e-05
6.33899e-06
4.81545e-05
7.76371e-05
9.79528e-05
0.000113553
0.000126323
0.000137171
0.000146605
0.000154947
0.000162415
0.000169163
0.000175299
0.000180898
0.000186011
0.000190674
0.000194992
0.000199004
0.000202731
0.000206183
0.00020937
0.000212294
0.000214955
0.000217353
0.000219485
0.000221349
0.000222947
0.000224286
0.00022537
0.00022621
0.000226816
0.000227194
0.000227354
0.000227305
0.000227059
0.000226627
0.000226022
0.000225259
0.000224353
0.000223319
0.000222171
0.000220926
0.000219599
0.000218205
0.000216757
7.46046e-06
6.47576e-05
0.00011402
0.00015098
0.000180301
0.00020464
0.000225491
0.000243746
0.000259976
0.00027457
0.000287801
0.000299872
0.000310931
0.000321092
0.000330439
0.000339078
0.000347071
0.000354463
0.000361284
0.000367559
0.000373306
0.000378536
0.00038326
0.000387485
0.000391218
0.000394465
0.000397228
0.000399512
0.000401337
0.000402719
0.000403675
0.000404221
0.000404377
0.000404163
0.000403601
0.000402717
0.000401535
0.000400082
0.000398386
0.000396475
0.000394377
0.000392119
0.00038973
0.000387235
8.19635e-06
7.47683e-05
0.000136998
0.000185968
0.000225793
0.000259272
0.000288133
0.000313479
0.000336041
0.000356326
0.000374701
0.000391436
0.000406737
0.000420765
0.000433644
0.000445494
0.000456404
0.000466443
0.000475665
0.000484116
0.000491831
0.000498838
0.00050516
0.000510818
0.000515828
0.000520204
0.000523948
0.000527073
0.000529603
0.000531561
0.000532969
0.000533849
0.000534227
0.000534127
0.000533578
0.000532611
0.000531256
0.000529549
0.000527522
0.000525212
0.000522654
0.000519882
0.000516933
0.000513839
8.76214e-06
8.19888e-05
0.000153743
0.000211794
0.000259745
0.000300391
0.000335567
0.000366493
0.000394006
0.0004187
0.000441009
0.000461262
0.000479711
0.000496557
0.000511958
0.000526059
0.000538978
0.000550812
0.000561641
0.000571532
0.00058054
0.000588711
0.000596083
0.000602687
0.000608549
0.000613691
0.000618118
0.000621846
0.000624903
0.000627315
0.000629106
0.000630301
0.000630927
0.000631012
0.000630585
0.000629678
0.000628327
0.000626567
0.000624436
0.000621974
0.000619219
0.00061621
0.000612989
0.000609591
9.24229e-06
8.78156e-05
0.000167253
0.000232582
0.000286997
0.000333294
0.000373393
0.000408608
0.000439863
0.000467825
0.000492989
0.000515736
0.000536362
0.000555107
0.000572164
0.000587704
0.000601877
0.000614812
0.000626616
0.000637377
0.000647171
0.00065606
0.000664094
0.000671316
0.000677757
0.000683445
0.000688386
0.000692595
0.0006961
0.000698926
0.000701098
0.00070264
0.000703575
0.000703931
0.000703736
0.000703022
0.000701822
0.000700174
0.000698116
0.000695687
0.000692929
0.000689884
0.000686594
0.000683101
9.67777e-06
9.28507e-05
0.000178872
0.000250284
0.000309947
0.000360696
0.000404553
0.000442934
0.000476853
0.000507052
0.000534091
0.000558402
0.00058033
0.000600153
0.000618102
0.000634376
0.000649164
0.000662625
0.000674893
0.00068608
0.000696279
0.000705565
0.000713999
0.000721629
0.000728491
0.000734611
0.000739994
0.000744647
0.000748595
0.000751862
0.000754466
0.000756426
0.000757762
0.000758498
0.000758657
0.000758268
0.000757362
0.000755974
0.000754141
0.000751903
0.000749302
0.00074638
0.000743181
0.00073975
1.00892e-05
9.73572e-05
0.000189185
0.00026577
0.000329699
0.000383884
0.000430478
0.000471019
0.000506625
0.000538121
0.000566139
0.000591171
0.00061361
0.000633779
0.000651945
0.000668346
0.000683212
0.000696731
0.000709066
0.000720347
0.000730682
0.000740156
0.000748836
0.000756769
0.00076399
0.00077052
0.000776351
0.000781483
0.000785935
0.000789721
0.000792852
0.00079534
0.000797198
0.000798442
0.000799089
0.000799164
0.000798693
0.000797708
0.000796244
0.000794338
0.000792033
0.00078937
0.000786396
0.000783154
1.04846e-05
0.000101416
0.000198358
0.0002793
0.000346605
0.0004033
0.000451696
0.000493474
0.000529868
0.000561803
0.000589987
0.000614977
0.000637224
0.000657096
0.000674901
0.000690924
0.000705435
0.000718657
0.000730772
0.00074193
0.000752247
0.000761813
0.000770691
0.000778923
0.000786535
0.000793538
0.000799896
0.000805606
0.000810676
0.000815108
0.000818902
0.000822059
0.000824582
0.000826478
0.000827759
0.000828442
0.000828548
0.000828104
0.000827143
0.0008257
0.000823816
0.000821533
0.000818897
0.000815955
1.08637e-05
0.000105001
0.000206313
0.000290774
0.000360572
0.000418883
0.000468195
0.000510346
0.000546701
0.00057829
0.000605907
0.000630182
0.000651624
0.000670652
0.000687615
0.000702863
0.000716702
0.000729386
0.000741119
0.000752058
0.000762323
0.000771999
0.000781138
0.000789768
0.000797898
0.00080551
0.000812541
0.000818989
0.000824842
0.000830087
0.000834712
0.000838702
0.000842052
0.000844758
0.000846824
0.000848259
0.000849081
0.000849311
0.000848978
0.000848117
0.000846766
0.000844968
0.000842769
0.000840218
1.12203e-05
0.000108021
0.000212831
0.000299886
0.000371258
0.000430292
0.000479662
0.000521372
0.000556921
0.000587452
0.000613849
0.000636819
0.000656932
0.000674663
0.000690408
0.000704594
0.000717566
0.000729602
0.000740916
0.000751671
0.000761976
0.000771901
0.000781476
0.000790704
0.000799566
0.000807979
0.000815897
0.000823295
0.000830141
0.000836404
0.000842052
0.00084706
0.00085141
0.000855088
0.00085809
0.000860419
0.000862088
0.000863113
0.000863523
0.000863348
0.000862628
0.000861404
0.000859725
0.00085764
1.15442e-05
0.000110348
0.000217619
0.000306227
0.0003782
0.000437051
0.000485641
0.000526135
0.000560168
0.000588992
0.000613588
0.000634738
0.00065308
0.000669138
0.000683403
0.000696363
0.000708399
0.000719808
0.000730807
0.000741546
0.000752114
0.000762549
0.000772847
0.000782973
0.00079282
0.000802308
0.000811386
0.000819996
0.000828082
0.000835591
0.000842476
0.000848697
0.000854224
0.000859036
0.00086312
0.000866476
0.00086911
0.000871039
0.000872288
0.000872888
0.000872877
0.0008723
0.000871206
0.000869646
1.18219e-05
0.000111828
0.000220345
0.00030935
0.000380889
0.000438639
0.000485627
0.000524165
0.000556016
0.000582542
0.000604815
0.000623699
0.000639897
0.000653989
0.000666614
0.000678304
0.00068947
0.000700415
0.000711347
0.000722384
0.000733572
0.000744899
0.000756317
0.000767657
0.000778828
0.00078974
0.000800302
0.000810425
0.000820026
0.000829031
0.000837376
0.000845008
0.000851887
0.000857985
0.000863286
0.000867784
0.000871486
0.000874408
0.000876573
0.000878015
0.000878774
0.000878896
0.000878432
0.000877438
1.20377e-05
0.000112287
0.000220655
0.000308791
0.000378815
0.000434538
0.000479118
0.000514993
0.000544036
0.000567712
0.000587185
0.000603401
0.000617139
0.000629063
0.000639995
0.000650505
0.000661018
0.000671826
0.000683099
0.000694897
0.000707208
0.000719904
0.000732808
0.000745794
0.000758726
0.000771464
0.000783876
0.00079584
0.000807247
0.000818002
0.000828026
0.000837258
0.00084565
0.00085317
0.0008598
0.000865536
0.000870383
0.000874361
0.000877496
0.000879824
0.000881389
0.00088224
0.000882433
0.000882026
1.21732e-05
0.00011153
0.000218179
0.000304091
0.000371491
0.000424267
0.00046566
0.000498196
0.000523839
0.000544146
0.000560373
0.000573545
0.000584511
0.000594202
0.000603537
0.000613124
0.000623388
0.000634569
0.000646776
0.000659944
0.000673875
0.000688416
0.00070337
0.000718537
0.000733714
0.000748712
0.000763357
0.000777495
0.000790992
0.000803737
0.000815642
0.000826637
0.000836673
0.000845718
0.000853758
0.00086079
0.000866828
0.000871893
0.000876019
0.000879248
0.000881627
0.000883213
0.000884064
0.000884245
1.22068e-05
0.000109269
0.000212361
0.000294529
0.000358094
0.000406929
0.000444282
0.000472722
0.000494282
0.000510608
0.000523058
0.000532768
0.0005407
0.00054828
0.000556367
0.000565581
0.000576325
0.000588636
0.000602455
0.000617629
0.000633919
0.000651053
0.000668745
0.000686712
0.000704687
0.000722426
0.000739717
0.000756376
0.000772251
0.000787221
0.000801191
0.000814093
0.000825881
0.000836531
0.000846035
0.0008544
0.000861648
0.00086781
0.000872928
0.000877052
0.000880238
0.000882547
0.000884046
0.000884804
1.21158e-05
0.000105505
0.000203318
0.000280402
0.000339125
0.000383225
0.00041586
0.000439572
0.000456428
0.000468157
0.000476241
0.000481971
0.00048693
0.000492684
0.000500074
0.000509596
0.000521468
0.000535651
0.000551938
0.000570015
0.000589506
0.000610011
0.000631133
0.000652501
0.000673778
0.000694671
0.000714931
0.000734355
0.000752782
0.000770088
0.000786186
0.000801018
0.000814549
0.00082677
0.000837687
0.000847323
0.000855711
0.000862896
0.000868933
0.00087388
0.000877804
0.000880773
0.00088286
0.000884141
1.19046e-05
0.000100515
0.000191845
0.000263099
0.000316578
0.000355756
0.000383602
0.00040257
0.000414729
0.000421887
0.000425678
0.000427671
0.000430381
0.000435051
0.000442492
0.000453096
0.000466911
0.000483724
0.000503152
0.000524707
0.000547858
0.000572069
0.000596838
0.000621709
0.000646289
0.000670249
0.000693323
0.000715303
0.000736034
0.000755407
0.00077335
0.000789824
0.000804815
0.000818333
0.000830401
0.00084106
0.000850358
0.000858355
0.000865116
0.00087071
0.000875212
0.000878698
0.000881247
0.000882939
1.15666e-05
9.44494e-05
0.000178447
0.000243472
0.000291537
0.000325775
0.000348906
0.000363251
0.000370866
0.000373655
0.00037341
0.000372773
0.000374119
0.000378669
0.000387119
0.000399695
0.000416251
0.000436377
0.000459489
0.000484915
0.000511958
0.000539956
0.00056831
0.000596504
0.000624112
0.000650794
0.000676292
0.000700414
0.000723027
0.000744048
0.000763432
0.000781164
0.000797255
0.000811736
0.00082465
0.000836053
0.000846009
0.00085459
0.000861871
0.00086793
0.000872848
0.000876709
0.000879593
0.000881586
1.12478e-05
8.60047e-05
0.000162438
0.000221208
0.000263972
0.0002935
0.00031226
0.000322429
0.000326028
0.000325062
0.000321695
0.000319758
0.00032105
0.000326698
0.000337229
0.000352682
0.000372712
0.000396694
0.000423826
0.000453246
0.000484106
0.00051564
0.00054719
0.000578218
0.000608303
0.000637128
0.000664464
0.000690156
0.000714107
0.000736268
0.000756623
0.000775186
0.000791991
0.000807087
0.000820535
0.000832405
0.000842773
0.00085172
0.000859328
0.000865682
0.000870868
0.000874972
0.000878079
0.000880273
1.08448e-05
7.6353e-05
0.000144616
0.000197059
0.00023457
0.000259554
0.000274263
0.000280742
0.00028096
0.000276899
0.000272619
0.000271096
0.000273921
0.000282011
0.000295719
0.000314906
0.000339007
0.000367154
0.00039833
0.0004315
0.000465716
0.000500167
0.000534194
0.000567292
0.000599085
0.000629307
0.00065778
0.000684395
0.000709096
0.000731867
0.000752722
0.000771698
0.000788847
0.000804234
0.000817932
0.00083002
0.000840581
0.000849701
0.000857469
0.000863973
0.000869299
0.000873535
0.000876767
0.000879078
1.03763e-05
6.6798e-05
0.000126205
0.000171812
0.000203755
0.000224135
0.000235051
0.000238433
0.000236175
0.00023126
0.000228295
0.000229181
0.000235184
0.000247052
0.000264986
0.000288623
0.000317123
0.000349371
0.000384171
0.000420406
0.000457116
0.000493534
0.000529074
0.000563307
0.000595935
0.000626758
0.000655655
0.000682561
0.000707458
0.000730356
0.00075129
0.000770313
0.000787489
0.000802891
0.0008166
0.000828698
0.000839272
0.000848411
0.000856203
0.000862738
0.000868102
0.000872381
0.00087566
0.00087802
9.86625e-06
5.84567e-05
0.000108408
0.000146101
0.000171727
0.000187322
0.000194848
0.000196033
0.000192815
0.000190508
0.000191165
0.00019628
0.000206974
0.000223858
0.000246872
0.000275309
0.000308038
0.000343767
0.000381258
0.00041945
0.000457495
0.000494751
0.000530752
0.000565176
0.000597803
0.000628501
0.000657194
0.000683854
0.000708484
0.000731113
0.000751788
0.000770568
0.000787522
0.000802726
0.000816261
0.00082821
0.00083866
0.000847698
0.000855412
0.000861887
0.000867211
0.000871466
0.000874734
0.000877092
9.35967e-06
5.20092e-05
9.16915e-05
0.000119994
0.000138668
0.000149766
0.000154875
0.000155149
0.000155484
0.000157863
0.000163778
0.000174604
0.000191298
0.000214091
0.000242451
0.000275305
0.000311355
0.000349339
0.000388171
0.000426987
0.000465132
0.000502132
0.00053765
0.000571457
0.000603404
0.000633403
0.000661411
0.000687418
0.000711441
0.000733512
0.000753683
0.000772011
0.000788566
0.000803419
0.000816649
0.000828337
0.000838565
0.000847417
0.000854978
0.00086133
0.000866558
0.00087074
0.000873954
0.000876274
8.93881e-06
4.68208e-05
7.47784e-05
9.33731e-05
0.000106004
0.000113902
0.000118202
0.000122468
0.000128067
0.000136375
0.000148852
0.0001666
0.000189992
0.000218606
0.000251461
0.000287357
0.000325126
0.000363768
0.000402486
0.000440669
0.000477864
0.000513742
0.000548068
0.00058068
0.000611475
0.000640388
0.000667391
0.000692481
0.000715673
0.000737001
0.000756509
0.000774252
0.000790292
0.000804696
0.000817536
0.000828889
0.00083883
0.000847441
0.0008548
0.000860987
0.00086608
0.000870156
0.000873287
0.000875543
8.8656e-06
4.01022e-05
5.68211e-05
6.81749e-05
7.70313e-05
8.48494e-05
9.30626e-05
0.000102486
0.00011428
0.000129699
0.000149666
0.000174446
0.000203626
0.000236357
0.000271642
0.000308529
0.000346205
0.000384011
0.000421428
0.000458056
0.000493587
0.00052779
0.000560494
0.000591576
0.000620949
0.00064856
0.000674382
0.000698409
0.000720651
0.000741133
0.000759893
0.000776977
0.000792438
0.000806338
0.00081874
0.000829715
0.000839333
0.000847668
0.000854795
0.00086079
0.000865726
0.000869675
0.000872705
0.000874881
1.02553e-05
2.60339e-05
3.70567e-05
4.76694e-05
5.87336e-05
7.07497e-05
8.43653e-05
0.000100323
0.000119355
0.000141942
0.000168137
0.000197581
0.000229667
0.000263697
0.000299003
0.000334994
0.000371174
0.000407131
0.000442528
0.000477091
0.000510596
0.000542867
0.00057376
0.00060317
0.000631016
0.000657243
0.000681819
0.00070473
0.000725977
0.000745576
0.000763555
0.00077995
0.000794808
0.00080818
0.000820123
0.0008307
0.000839976
0.00084802
0.000854901
0.000860689
0.000865454
0.000869264
0.000872183
0.000874271
1.2687e-05
2.13343e-05
3.34484e-05
4.80397e-05
6.43084e-05
8.19713e-05
0.000101226
0.000122487
0.000146095
0.000172159
0.000200532
0.000230879
0.000262772
0.000295763
0.000329433
0.000363407
0.000397359
0.000431005
0.0004641
0.000496432
0.000527819
0.000558107
0.000587167
0.000614896
0.000641213
0.000666057
0.000689388
0.000711184
0.000731435
0.000750148
0.000767342
0.000783044
0.000797291
0.000810127
0.000821603
0.000831775
0.0008407
0.000848443
0.000855068
0.00086064
0.000865226
0.000868889
0.000871689
0.000873684
6.58856e-05
7.3338e-05
8.281e-05
9.45037e-05
0.000108605
0.000125103
0.000143949
0.000165105
0.000188494
0.000213948
0.000241209
0.000269959
0.000299853
0.000330555
0.000361755
0.00039317
0.000424551
0.000455672
0.000486333
0.00051635
0.000545563
0.000573829
0.000601023
0.000627042
0.0006518
0.000675232
0.000697289
0.000717939
0.000737165
0.000754963
0.000771342
0.000786323
0.000799932
0.000812208
0.000823192
0.000832935
0.000841489
0.000848911
0.000855262
0.000860604
0.000864996
0.0008685
0.000871172
0.000873066
0.000137525
0.000143353
0.00015082
0.000160155
0.000171666
0.00018553
0.000201792
0.000220394
0.000241185
0.000263936
0.000288369
0.00031418
0.000341061
0.000368723
0.000396898
0.000425346
0.000453848
0.000482206
0.000510239
0.000537779
0.000564674
0.000590785
0.000615992
0.000640186
0.000663279
0.000685197
0.000705885
0.0007253
0.000743417
0.000760223
0.000775718
0.000789912
0.000802825
0.000814487
0.000824933
0.000834204
0.000842349
0.000849419
0.000855468
0.000860553
0.000864731
0.000868058
0.000870588
0.000872371
0.000208451
0.000213587
0.000220074
0.000228106
0.000237921
0.0002497
0.000263537
0.00027943
0.000297286
0.000316933
0.000338146
0.000360677
0.000384269
0.000408674
0.000433659
0.00045901
0.000484531
0.000510039
0.000535366
0.000560354
0.000584857
0.00060874
0.000631881
0.000654172
0.00067552
0.000695845
0.000715085
0.00073319
0.000750126
0.000765872
0.000780417
0.000793765
0.000805928
0.000816925
0.000826787
0.000835547
0.000843246
0.000849931
0.000855649
0.000860454
0.000864397
0.00086753
0.000869904
0.000871567
0.000275422
0.000280172
0.000286051
0.000293219
0.000301846
0.000312071
0.000323979
0.000337593
0.000352867
0.000369692
0.000387914
0.00040735
0.000427801
0.00044907
0.000470962
0.000493294
0.000515892
0.00053859
0.000561235
0.000583678
0.000605781
0.000627415
0.000648458
0.000668805
0.000688359
0.000707038
0.000724773
0.000741509
0.000757204
0.000771831
0.000785372
0.00079782
0.000809182
0.000819469
0.000828703
0.000836913
0.000844132
0.000850401
0.000855763
0.000860264
0.000863952
0.000866875
0.00086908
0.000870611
0.000338236
0.000342613
0.000347958
0.000354392
0.000362039
0.000370995
0.000381325
0.000393053
0.000406156
0.000420567
0.000436184
0.000452879
0.000470506
0.000488913
0.000507947
0.000527456
0.000547291
0.000567309
0.00058737
0.000607341
0.000627093
0.000646504
0.000665461
0.000683857
0.000701599
0.000718603
0.000734798
0.000750125
0.000764537
0.000777999
0.000790489
0.000801994
0.000812511
0.000822047
0.000830616
0.000838241
0.000844949
0.000850774
0.000855753
0.000859929
0.000863344
0.000866042
0.000868066
0.000869457
0.000397146
0.000401078
0.000405856
0.000411571
0.000418309
0.000426137
0.000435099
0.000445215
0.000456469
0.000468819
0.000482194
0.000496505
0.000511647
0.000527507
0.000543963
0.000560896
0.00057818
0.000595696
0.000613322
0.000630938
0.000648431
0.000665687
0.000682601
0.000699074
0.000715015
0.000730342
0.000744984
0.000758881
0.000771982
0.000784249
0.000795654
0.00080618
0.000815818
0.000824569
0.000832442
0.000839451
0.00084562
0.000850977
0.000855553
0.000859384
0.00086251
0.00086497
0.000866801
0.000868043
0.000452363
0.00045577
0.000459929
0.000464904
0.000470756
0.00047753
0.000485255
0.000493942
0.000503581
0.000514139
0.000525568
0.000537803
0.000550767
0.000564372
0.000578528
0.000593137
0.000608098
0.000623311
0.000638673
0.000654081
0.000669433
0.00068463
0.000699576
0.00071418
0.000728356
0.000742028
0.000755126
0.00076759
0.000779371
0.000790427
0.000800727
0.000810251
0.000818985
0.000826926
0.000834076
0.000840447
0.000846055
0.000850922
0.000855077
0.000858549
0.000861372
0.000863582
0.000865213
0.000866301
0.000503954
0.000506781
0.000510282
0.000514502
0.000519482
0.000525252
0.000531831
0.000539223
0.000547419
0.000556394
0.00056611
0.000576518
0.00058756
0.00059917
0.000611274
0.000623797
0.000636655
0.000649767
0.000663045
0.000676401
0.000689749
0.000703002
0.000716073
0.000728882
0.000741351
0.000753409
0.000764991
0.00077604
0.000786507
0.000796351
0.00080554
0.000814051
0.000821867
0.000828981
0.000835393
0.000841108
0.000846138
0.000850502
0.000854222
0.000857323
0.000859835
0.000861788
0.000863213
0.000864141
0.000551844
0.000554072
0.000556904
0.000560374
0.000564508
0.000569325
0.000574836
0.000581042
0.000587933
0.000595489
0.000603679
0.000612465
0.0006218
0.000631633
0.000641905
0.000652553
0.000663513
0.000674713
0.000686083
0.000697548
0.000709033
0.000720465
0.000731768
0.000742872
0.000753707
0.00076421
0.000774321
0.000783987
0.000793163
0.00080181
0.000809895
0.000817394
0.00082429
0.000830572
0.000836237
0.000841288
0.000845733
0.000849585
0.000852862
0.000855585
0.00085778
0.000859472
0.000860689
0.000861458
0.000595845
0.000597489
0.000599678
0.000602429
0.000605762
0.000609687
0.00061421
0.000619331
0.000625038
0.000631314
0.000638136
0.00064547
0.00065328
0.000661523
0.000670152
0.000679115
0.000688359
0.000697824
0.000707452
0.000717179
0.000726944
0.000736683
0.000746332
0.000755829
0.000765115
0.000774133
0.000782831
0.000791163
0.000799085
0.000806561
0.000813562
0.000820063
0.000826048
0.000831504
0.000836425
0.000840812
0.00084467
0.000848009
0.000850842
0.000853187
0.000855064
0.000856496
0.000857506
0.000858117
0.000632661
0.000633867
0.00063555
0.000637726
0.00064041
0.00064361
0.00064733
0.000651565
0.000656307
0.000661539
0.000667241
0.000673385
0.00067994
0.00068687
0.000694135
0.000701692
0.000709496
0.000717498
0.000725647
0.000733892
0.000742178
0.000750452
0.00075866
0.00076675
0.000774669
0.000782371
0.000789808
0.000796939
0.000803728
0.000810142
0.000816152
0.000821738
0.000826882
0.000831572
0.000835803
0.000839572
0.000842882
0.00084574
0.000848157
0.000850148
0.00085173
0.000852919
0.000853737
0.000854204
0.000665639
0.00066642
0.00066762
0.000669252
0.000671326
0.000673848
0.00067682
0.000680236
0.000684089
0.000688365
0.000693045
0.000698107
0.000703523
0.000709264
0.000715296
0.000721582
0.000728084
0.00073476
0.000741569
0.000748465
0.000755405
0.000762341
0.000769229
0.000776024
0.000782683
0.000789164
0.000795428
0.00080144
0.000807167
0.000812581
0.000817657
0.000822376
0.000826722
0.000830684
0.000834256
0.000837434
0.00084022
0.00084262
0.000844641
0.000846294
0.000847593
0.000848554
0.000849192
0.000849524
0.000698389
0.00069872
0.000699409
0.000700466
0.000701897
0.000703706
0.000705893
0.000708454
0.000711381
0.000714664
0.000718287
0.000722231
0.000726474
0.000730991
0.000735754
0.000740734
0.000745899
0.000751214
0.000756644
0.000762153
0.000767705
0.000773261
0.000778784
0.000784238
0.000789588
0.000794799
0.000799839
0.00080468
0.000809294
0.000813657
0.00081775
0.000821555
0.000825058
0.000828251
0.000831126
0.00083368
0.000835914
0.00083783
0.000839435
0.000840736
0.000841745
0.000842471
0.000842928
0.000843129
0.000728992
0.000728901
0.000729099
0.000729596
0.000730394
0.000731496
0.000732903
0.000734611
0.000736614
0.000738904
0.000741468
0.000744292
0.000747358
0.000750647
0.000754137
0.000757804
0.000761623
0.000765567
0.000769608
0.000773717
0.000777865
0.000782023
0.000786163
0.000790254
0.000794271
0.000798186
0.000801975
0.000805616
0.000809087
0.00081237
0.000815449
0.000818311
0.000820945
0.000823343
0.000825499
0.00082741
0.000829075
0.000830496
0.000831677
0.000832623
0.00083334
0.000833837
0.00083412
0.000755011
0.000754553
0.000754311
0.00075429
0.000754495
0.000754928
0.000755589
0.000756477
0.000757586
0.000758912
0.000760446
0.000762176
0.000764092
0.000766177
0.000768417
0.000770794
0.000773288
0.00077588
0.000778551
0.000781277
0.000784039
0.000786814
0.000789582
0.000792323
0.000795016
0.000797643
0.000800187
0.000802632
0.000804963
0.000807168
0.000809235
0.000811155
0.000812921
0.000814527
0.000815967
0.00081724
0.000818345
0.000819281
0.00082005
0.000820656
0.000821102
0.000821392
0.000821531
0.000773587
0.00077279
0.000772133
0.000771621
0.00077126
0.00077105
0.000770994
0.000771091
0.000771338
0.000771733
0.000772271
0.000772945
0.000773747
0.000774669
0.0007757
0.000776829
0.000778043
0.00077933
0.000780676
0.000782068
0.000783491
0.000784933
0.000786379
0.000787817
0.000789235
0.000790621
0.000791966
0.000793261
0.000794496
0.000795665
0.000796762
0.000797781
0.000798719
0.000799571
0.000800335
0.00080101
0.000801593