/*--------------------------------*- C++ -*----------------------------------*\
  =========                 |
  \\      /  F ield         | OpenFOAM: The Open Source CFD Toolbox
   \\    /   O peration     | Website:  https://openfoam.org
    \\  /    A nd           | Version:  6
     \\/     M anipulation  |
\*---------------------------------------------------------------------------*/
FoamFile
{
    version     2.0;
    format      ascii;
    class       volScalarField;
    location    "0.03";
    object      p;
}
// * * * * * * * * * * * * * * * * * * * * * * * * * * * * * * * * * * * * * //

dimensions      [0 2 -2 0 0 0 0];

internalField   nonuniform List<scalar> 
3032
(
0.367093
0.114459
0.0361117
0.0251513
0.0199233
0.0143592
0.0105599
0.00758376
0.00434797
0.000662047
-0.00351265
-0.00835581
-0.0140895
-0.0210188
-0.0297088
-0.0411872
-0.0584327
-0.0871146
-0.0154275
0.015064
0.0157871
0.0217454
0.0203567
0.0153677
0.0112886
0.00795003
0.00445914
0.000585647
-0.00374281
-0.00870673
-0.0145576
-0.0216141
-0.0304435
-0.0419506
-0.058525
-0.0815197
-0.0516623
0.0190925
0.0204313
0.02217
0.0205323
0.0159137
0.0118423
0.00833579
0.00467363
0.000645532
-0.00383232
-0.00893909
-0.0149289
-0.0221134
-0.0310125
-0.042314
-0.057514
-0.0760021
-0.00634542
0.0322238
0.0238326
0.0219627
0.0201361
0.0159809
0.0120886
0.00856208
0.00483272
0.000725755
-0.00384126
-0.00903438
-0.0150875
-0.0222812
-0.0310395
-0.0418142
-0.0553807
-0.0707661
0.0139547
0.0321266
0.0233437
0.0212227
0.0195289
0.0158157
0.0121386
0.00865826
0.0049343
0.000822165
-0.00375619
-0.0089481
-0.0149546
-0.0220068
-0.0304122
-0.0404202
-0.0523374
-0.0652327
0.0163337
0.0278893
0.022205
0.0205335
0.018924
0.0155873
0.0121239
0.00872089
0.00504828
0.000986206
-0.00353671
-0.00864543
-0.0145022
-0.02128
-0.0291741
-0.0382797
-0.0486185
-0.0593783
0.0165558
0.0250748
0.0215556
0.0200101
0.0183909
0.0153717
0.0121164
0.00881509
0.00523055
0.00126487
-0.00314356
-0.0080945
-0.013709
-0.0201017
-0.0273719
-0.0355063
-0.0443711
-0.0532966
0.0176662
0.0235909
0.0211727
0.0196092
0.0179645
0.0152151
0.0121619
0.00898529
0.00552252
0.00169645
-0.00254194
-0.00726577
-0.0125557
-0.0184732
-0.0250426
-0.0321815
-0.0396897
-0.0470305
0.0188203
0.0226234
0.0208641
0.0193206
0.0176707
0.015153
0.0122983
0.00926873
0.00596008
0.00231518
-0.00170051
-0.0061338
-0.0110285
-0.0164013
-0.0222235
-0.0283756
-0.0346439
-0.0406016
0.01962
0.0219264
0.0206248
0.0191544
0.0175257
0.015213
0.0125573
0.00969789
0.00657529
0.00315174
-0.000592103
-0.00467863
-0.00912017
-0.0138993
-0.0189534
-0.0241497
-0.0292886
-0.0340301
0.0201468
0.0214771
0.0204795
0.0191105
0.0175318
0.0154091
0.0129573
0.0102917
0.00738619
0.00422144
0.000793042
-0.00290019
-0.00684562
-0.0110019
-0.0152886
-0.0195749
-0.0236876
-0.0273528
0.0205093
0.0212686
0.0204448
0.0191811
0.0176754
0.0157234
0.0134669
0.0110009
0.00832169
0.00542509
0.00231913
-0.000981703
-0.00444825
-0.00802608
-0.0116292
-0.0151366
-0.0184021
-0.0211938
0.0208254
0.0212052
0.0205138
0.019359
0.0179435
0.0161626
0.0141067
0.0118549
0.00942104
0.0068138
0.00405161
0.00116097
-0.00181782
-0.0048239
-0.00777296
-0.0105585
-0.0130579
-0.0150854
0.0211803
0.0213027
0.0207203
0.0196953
0.0184068
0.0168263
0.0150106
0.0130245
0.0108956
0.00864469
0.00629935
0.00389542
0.00148004
-0.000884919
-0.00312274
-0.00514548
-0.00685472
-0.00811308
0.0216403
0.0216219
0.0211306
0.0202565
0.0191373
0.0177919
0.0162611
0.0145982
0.0128396
0.0110156
0.00916064
0.00731564
0.00552918
0.00385833
0.00236713
0.00112261
0.000198824
-0.000310989
0.0223031
0.0222296
0.0218282
0.0211244
0.0202161
0.0191433
0.0179427
0.0166595
0.0153336
0.014001
0.0126991
0.0114687
0.0103542
0.00940298
0.00866328
0.00818121
0.00800833
0.00820076
0.0232898
0.023213
0.0229129
0.0223979
0.0217356
0.0209707
0.0201397
0.0192826
0.0184385
0.017644
0.0169349
0.016347
0.0159159
0.015676
0.015659
0.0158919
0.0164068
0.0172296
0.0247232
0.0246713
0.024488
0.024177
0.0237836
0.0233494
0.0229101
0.0225019
0.0221601
0.0219172
0.0218031
0.0218449
0.0220672
0.0224904
0.023131
0.0240001
0.0251142
0.0264757
0.0266916
0.0266845
0.0266361
0.0265381
0.0264181
0.0263145
0.0262616
0.0262911
0.026433
0.0267129
0.027152
0.0277666
0.0285692
0.0295673
0.0307642
0.0321589
0.0337555
0.0355395
0.0286322
0.0286829
0.0287535
0.0288
0.0288524
0.0289561
0.0291438
0.0294466
0.0298931
0.030504
0.0312928
0.0322681
0.033434
0.03479
0.0363318
0.0380511
0.0399452
0.0419927
0.0300796
0.0302446
0.0304346
0.0305566
0.0306956
0.0309069
0.0312142
0.031655
0.0322625
0.0330533
0.0340346
0.0352096
0.0365769
0.0381306
0.0398611
0.041756
0.0438078
0.0459927
0.0311047
0.031584
0.0319344
0.0320601
0.0322281
0.0324818
0.0328227
0.0333114
0.0339914
0.0348723
0.0359549
0.0372384
0.0387175
0.0403822
0.0422192
0.0442128
0.0463522
0.0486123
0.0315245
0.0327319
0.0332971
0.0333526
0.0335268
0.0337675
0.0340593
0.0345224
0.0352098
0.0361163
0.0372357
0.0385652
0.0400962
0.0418148
0.0437044
0.0457468
0.0479282
0.0502235
0.031378
0.0338835
0.0345325
0.0344381
0.0346645
0.0348394
0.0349934
0.0353697
0.0360169
0.0369016
0.0380119
0.0393443
0.0408865
0.0426202
0.0445259
0.0465829
0.0487747
0.0510772
0.0313494
0.0360812
0.0359456
0.0353811
0.0357164
0.0357513
0.0356714
0.0359118
0.0364853
0.0373145
0.0383845
0.0396918
0.0412188
0.0429421
0.0448391
0.0468873
0.049067
0.0513559
0.0297499
0.0406339
0.038343
0.0365134
0.0368063
0.0365359
0.0361185
0.0361851
0.0366613
0.0374138
0.0384261
0.0396938
0.0411911
0.0428888
0.0447614
0.0467845
0.0489361
0.0511948
0.0128769
0.0427704
0.0406408
0.0379313
0.0379906
0.0371546
0.0363047
0.0361733
0.0365393
0.0372098
0.038165
0.039394
0.0408603
0.042528
0.0443691
0.046358
0.0484709
0.0506885
-0.0311519
0.0295769
0.036634
0.0380789
0.0387465
0.0372824
0.036017
0.035729
0.0360155
0.0366327
0.0375577
0.0387689
0.0402177
0.041862
0.0436727
0.0456246
0.0476933
0.0498621
-0.0113603
0.0194442
0.0266325
0.0357623
0.0381755
0.0363775
0.0349627
0.0347305
0.0350747
0.0357213
0.0366647
0.0378861
0.0393316
0.0409578
0.0427378
0.0446501
0.046672
0.0487772
0.353432
0.133772
0.0569427
0.0443929
0.0398249
0.0356374
0.0337869
0.0337307
0.0342971
0.0350873
0.0361097
0.0373693
0.0388243
0.0404385
0.0421914
0.0440678
0.0460549
0.048152
-4.90049e-05
-0.00048616
-0.000849696
-0.000929445
-0.000706083
-0.000138161
0.000811055
0.00216456
0.00393593
0.00613314
0.00876033
0.0118185
0.0153053
0.0192219
0.023568
0.0283325
0.0334983
0.0390448
0.044947
0.0511752
0.0576957
0.0644707
0.0714593
0.0786186
0.0859061
0.0932811
0.100699
0.10811
0.115463
0.122712
0.129814
0.136729
0.14342
0.149858
0.156014
0.161868
0.167401
0.172603
0.177463
0.18198
0.186153
0.189986
0.193485
0.19666
0.000483013
-0.000190739
-0.000747724
-0.000880061
-0.00067555
-0.000158107
0.000698373
0.00191841
0.00351758
0.0055067
0.00789412
0.0106867
0.0138902
0.0175023
0.0215152
0.0259231
0.0307176
0.0358853
0.041408
0.0472627
0.0534219
0.0598537
0.0665219
0.073386
0.0804004
0.087512
0.0946748
0.10185
0.108996
0.11607
0.123029
0.129836
0.136455
0.142854
0.149006
0.154887
0.160479
0.165766
0.170739
0.175391
0.17972
0.183726
0.187413
0.190787
-0.000504498
-0.00117567
-0.00181014
-0.00199619
-0.00180323
-0.00130397
-0.000499235
0.000629714
0.00209913
0.0039217
0.0061079
0.00866637
0.0116035
0.014922
0.018621
0.0226978
0.0271466
0.0319574
0.0371162
0.0426045
0.0483997
0.0544747
0.0607986
0.0673364
0.0740478
0.0808908
0.0878244
0.0948065
0.101794
0.108744
0.115616
0.122371
0.128972
0.135387
0.141587
0.147547
0.153244
0.158662
0.163788
0.168613
0.173131
0.17734
0.181242
0.184839
-0.00336151
-0.00405342
-0.00482872
-0.0051909
-0.00512266
-0.00470145
-0.00395335
-0.00287552
-0.00145959
0.000303135
0.00242127
0.00490279
0.00775425
0.01098
0.0145817
0.0185583
0.0229051
0.0276136
0.032671
0.0380599
0.0437585
0.0497409
0.0559769
0.0624328
0.0690705
0.0758505
0.0827324
0.0896741
0.0966331
0.103568
0.110437
0.117202
0.123828
0.130281
0.136532
0.142554
0.148327
0.153832
0.159055
0.163987
0.16862
0.172951
0.176982
0.180713
-0.00780644
-0.00860597
-0.0095797
-0.0101501
-0.0102455
-0.00994277
-0.00927997
-0.00826306
-0.00688935
-0.00515395
-0.00305077
-0.000573333
0.0022842
0.00552593
0.0091536
0.0131663
0.0175589
0.0223226
0.0274439
0.0329045
0.0386817
0.0447483
0.0510729
0.0576205
0.0643518
0.0712262
0.0782025
0.0852381
0.0922903
0.0993169
0.106277
0.113133
0.119848
0.12639
0.132729
0.138839
0.1447
0.150294
0.155607
0.160628
0.165352
0.169776
0.173899
0.177725
-0.0137475
-0.0147897
-0.0161003
-0.0169574
-0.0172618
-0.0171082
-0.0165476
-0.0155924
-0.0142444
-0.0125027
-0.0103641
-0.0078245
-0.00487973
-0.00152724
0.00223331
0.00639953
0.0109645
0.0159171
0.0212413
0.0269163
0.0329165
0.0392116
0.0457673
0.0525457
0.0595048
0.0666015
0.0737923
0.0810332
0.0882803
0.0954906
0.102623
0.109639
0.116503
0.123183
0.129649
0.135878
0.141848
0.147543
0.15295
0.15806
0.162868
0.16737
0.171569
0.175467
-0.0212242
-0.0226441
-0.0244512
-0.0257008
-0.0262741
-0.0263045
-0.0258631
-0.0249696
-0.0236309
-0.0218505
-0.0196286
-0.0169641
-0.0138552
-0.0103019
-0.00630624
-0.00187359
0.00298567
0.00825651
0.0139186
0.0199466
0.0263098
0.0329732
0.0398977
0.0470407
0.0543562
0.061797
0.0693162
0.0768678
0.0844058
0.0918864
0.0992677
0.106511
0.113581
0.120446
0.127079
0.133456
0.139558
0.14537
0.150881
0.156083
0.160972
0.165548
0.169812
0.173769
-0.0303493
-0.032274
-0.0347348
-0.0364884
-0.0373965
-0.0376488
-0.0373445
-0.0365135
-0.0351686
-0.0333183
-0.0309669
-0.0281165
-0.0247681
-0.0209249
-0.0165927
-0.0117809
-0.0065051
-0.00078602
0.00534971
0.0118698
0.0187369
0.0259087
0.0333394
0.0409802
0.0487791
0.0566833
0.0646423
0.0726067
0.0805287
0.0883628
0.0960665
0.103601
0.110933
0.11803
0.124867
0.131423
0.137681
0.143627
0.149253
0.154553
0.159525
0.164172
0.168496
0.172504
-0.0413148
-0.0438614
-0.0471178
-0.0494764
-0.0507784
-0.0512851
-0.051132
-0.0503614
-0.048993
-0.0470406
-0.0445127
-0.0414141
-0.0377491
-0.0335243
-0.02875
-0.0234414
-0.0176209
-0.0113172
-0.00456565
0.0025923
0.0101096
0.0179347
0.0260127
0.0342866
0.0426965
0.0511828
0.059691
0.0681682
0.0765638
0.0848311
0.0929271
0.100814
0.108458
0.11583
0.122908
0.129671
0.136106
0.142203
0.147955
0.153361
0.15842
0.163137
0.167518
0.171572
-0.0543863
-0.0576531
-0.0618157
-0.0648535
-0.0665904
-0.0673722
-0.0673764
-0.0666589
-0.0652465
-0.0631577
-0.0604036
-0.0569914
-0.0529276
-0.0482227
-0.0428919
-0.0369582
-0.0304533
-0.0234161
-0.015894
-0.00794085
0.000383542
0.00901538
0.0178884
0.0269346
0.0360839
0.0452706
0.0544355
0.0635215
0.0724757
0.08125
0.089802
0.0980946
0.106096
0.113782
0.12113
0.128125
0.134757
0.141018
0.146907
0.152424
0.157573
0.162361
0.166797
0.170893
-0.0698821
-0.0739351
-0.0790622
-0.0828113
-0.0849973
-0.0860587
-0.0862166
-0.0855401
-0.0840609
-0.0817993
-0.0787669
-0.0749703
-0.0704174
-0.0651222
-0.059106
-0.0524018
-0.0450536
-0.0371147
-0.0286486
-0.0197259
-0.0104231
-0.000819842
0.00900313
0.0189635
0.0289804
0.0389836
0.0489075
0.0586912
0.0682799
0.0776257
0.0866872
0.09543
0.103826
0.111853
0.119494
0.126738
0.133579
0.140014
0.146045
0.151677
0.156917
0.161775
0.166265
0.1704
-0.08813
-0.0929842
-0.0990589
-0.103494
-0.106111
-0.10744
-0.107741
-0.107093
-0.105526
-0.103056
-0.0996914
-0.0954334
-0.090289
-0.0842756
-0.0774224
-0.0697765
-0.0613986
-0.0523624
-0.0427535
-0.0326652
-0.0221957
-0.0114449
-0.000513133
0.0105011
0.0215106
0.0324379
0.0432114
0.0537675
0.0640515
0.0740169
0.0836258
0.0928476
0.101659
0.110043
0.117988
0.125488
0.132542
0.139153
0.145326
0.151072
0.156401
0.161327
0.165867
0.170037
-0.109388
-0.114986
-0.121894
-0.126922
-0.129918
-0.131492
-0.131928
-0.131303
-0.129636
-0.126932
-0.123182
-0.118379
-0.112524
-0.105638
-0.0977637
-0.0889683
-0.0793365
-0.0689714
-0.0579895
-0.0465145
-0.0346735
-0.0225953
-0.0104009
0.00180098
0.0139149
0.0258546
0.0375452
0.0489237
0.059938
0.0705463
0.0807161
0.0904232
0.0996509
0.108389
0.116632
0.124381
0.131641
0.138419
0.144727
0.150579
0.155989
0.160977
0.165561
0.16976
-0.133711
-0.139903
-0.147414
-0.15287
-0.156168
-0.157966
-0.158548
-0.157966
-0.156215
-0.153267
-0.149087
-0.143646
-0.136938
-0.128991
-0.119868
-0.109665
-0.0985046
-0.0865342
-0.0739139
-0.0608125
-0.0473968
-0.0338209
-0.0202225
-0.00672282
0.00657249
0.0195742
0.0322095
0.0444199
0.0561606
0.067398
0.0781083
0.0882762
0.0978938
0.106959
0.115475
0.123448
0.130891
0.137816
0.14424
0.150182
0.155661
0.160698
0.165316
0.169537
-0.160754
-0.167276
-0.175041
-0.180703
-0.184225
-0.186258
-0.187044
-0.186583
-0.18481
-0.181644
-0.176999
-0.170813
-0.163071
-0.153817
-0.143148
-0.131211
-0.118191
-0.104306
-0.0897816
-0.0748358
-0.059671
-0.0444662
-0.0293776
-0.0145366
-5.02335e-05
0.0139973
0.0275418
0.0405359
0.0529467
0.064753
0.0759429
0.0865125
0.096464
0.105805
0.114546
0.122703
0.130292
0.137333
0.143847
0.149857
0.155386
0.160458
0.165097
0.16933
-0.190408
-0.196867
-0.204437
-0.210058
-0.21376
-0.216114
-0.217257
-0.21709
-0.215447
-0.212148
-0.207029
-0.199981
-0.190971
-0.180068
-0.167434
-0.153314
-0.138007
-0.121823
-0.105062
-0.0880043
-0.070894
-0.0539376
-0.0373013
-0.021114
-0.00547163
0.00955756
0.0239276
0.0376101
0.0505906
0.0628649
0.0744367
0.0853158
0.0955163
0.105056
0.113954
0.122232
0.129915
0.137026
0.143591
0.149636
0.155187
0.160271
0.164915
0.169145
-0.218878
-0.224928
-0.231809
-0.237157
-0.241106
-0.244025
-0.245858
-0.246333
-0.245119
-0.241879
-0.236322
-0.228266
-0.217684
-0.204726
-0.18969
-0.172959
-0.154975
-0.136179
-0.116977
-0.097717
-0.0786803
-0.0600812
-0.0420743
-0.0247651
-0.00821954
0.00752548
0.0224546
0.0365677
0.0498747
0.0623924
0.0741422
0.0851481
0.0954357
0.105032
0.113963
0.122258
0.129943
0.137048
0.143599
0.149625
0.155153
0.160211
0.164828
0.16903
-0.240763
-0.246018
-0.25184
-0.256859
-0.261262
-0.265107
-0.26806
-0.269613
-0.269199
-0.26626
-0.260364
-0.251279
-0.238999
-0.223791
-0.206144
-0.18667
-0.166009
-0.144752
-0.123398
-0.102332
-0.081834
-0.0620908
-0.0432155
-0.0252675
-0.00826857
0.00778438
0.02291
0.0371359
0.0504945
0.0630201
0.0747473
0.0857104
0.0959426
0.105476
0.114342
0.12257
0.130191
0.137233
0.143725
0.149696
0.155173
0.160184
0.164757
0.168918
-0.25359
-0.258325
-0.263014
-0.267848
-0.273044
-0.278261
-0.282815
-0.285903
-0.286664
-0.284279
-0.278131
-0.267927
-0.253744
-0.236092
-0.215754
-0.193626
-0.170561
-0.147277
-0.124317
-0.102052
-0.0807139
-0.060424
-0.0412315
-0.0231379
-0.00611675
0.00987329
0.0248801
0.038953
0.0521403
0.0644876
0.0760371
0.0868284
0.0968979
0.10628
0.115006
0.123108
0.130613
0.137552
0.143952
0.14984
0.155244
0.160191
0.164707
0.168817
-0.256282
-0.260905
-0.264693
-0.269695
-0.276135
-0.283202
-0.289814
-0.294818
-0.297002
-0.295253
-0.288782
-0.277267
-0.261012
-0.240881
-0.218034
-0.193665
-0.168801
-0.144212
-0.120411
-0.0976907
-0.0761916
-0.0559517
-0.03695
-0.0191345
-0.00243989
0.0132025
0.0278588
0.0415908
0.0544539
0.0664982
0.0777683
0.0883044
0.0981428
0.107317
0.115857
0.123793
0.131152
0.137961
0.144247
0.150035
0.155352
0.160223
0.164673
0.168726
-0.249704
-0.253845
-0.257168
-0.262873
-0.271062
-0.280402
-0.28939
-0.296483
-0.300094
-0.298845
-0.291809
-0.278757
-0.260393
-0.238034
-0.213231
-0.187407
-0.161653
-0.136681
-0.112887
-0.090445
-0.0693917
-0.0496881
-0.03126
-0.0140209
0.00211583
0.0172309
0.0313971
0.0446785
0.0571311
0.0688038
0.0797394
0.0899757
0.0995466
0.108483
0.116812
0.124562
0.131758
0.138423
0.144584
0.150263
0.155485
0.160274
0.164653
0.168644
-0.236541
-0.238979
-0.242085
-0.248991
-0.259306
-0.271108
-0.282465
-0.291458
-0.296193
-0.295063
-0.287071
-0.272361
-0.252144
-0.228218
-0.202422
-0.176239
-0.150655
-0.126222
-0.103182
-0.0815915
-0.0614101
-0.0425537
-0.0249239
-0.00842321
0.00703852
0.0215413
0.0351549
0.0479395
0.0599469
0.0712216
0.0818022
0.0917228
0.101013
0.109701
0.117812
0.125369
0.132395
0.138912
0.144942
0.150508
0.155633
0.160338
0.164644
0.168572
-0.220913
-0.219741
-0.222099
-0.230337
-0.242813
-0.256867
-0.270182
-0.280564
-0.285872
-0.284275
-0.27499
-0.258764
-0.237386
-0.212991
-0.187449
-0.162065
-0.137597
-0.114405
-0.0926089
-0.0721982
-0.0531031
-0.035231
-0.0184856
-0.00277596
0.0119795
0.0258524
0.0389046
0.0511889
0.0627508
0.0736289
0.0838571
0.0934646
0.102478
0.11092
0.118813
0.126178
0.133036
0.139406
0.145307
0.150761
0.155789
0.16041
0.164644
0.168509
-0.206848
-0.200067
-0.200041
-0.20909
-0.223378
-0.239129
-0.253786
-0.26497
-0.270093
-0.26731
-0.256624
-0.239516
-0.218154
-0.194632
-0.170527
-0.146826
-0.124058
-0.102463
-0.0821098
-0.0629819
-0.0450185
-0.0281429
-0.0122754
0.00265944
0.0167297
0.0299954
0.0425087
0.0543142
0.0654502
0.0759495
0.0858408
0.0951488
0.103896
0.112102
0.119787
0.126968
0.133663
0.139891
0.145668
0.151013
0.155946
0.160485
0.164649
0.168452
-0.197302
-0.18314
-0.177965
-0.187002
-0.202829
-0.219777
-0.235169
-0.246072
-0.249744
-0.245343
-0.233836
-0.217101
-0.197131
-0.175584
-0.153625
-0.131988
-0.111089
-0.0911378
-0.0722163
-0.0543303
-0.0374459
-0.0215106
-0.00646604
0.00774569
0.0211782
0.0338797
0.0458924
0.0572528
0.0679927
0.0781392
0.0877161
0.0967442
0.105242
0.113227
0.120715
0.127722
0.134264
0.140356
0.146014
0.151256
0.156098
0.160559
0.164656
0.1684
-0.190173
-0.165785
-0.154479
-0.16604
-0.184448
-0.201409
-0.215219
-0.223879
-0.225618
-0.220432
-0.209562
-0.19455
-0.176844
-0.157668
-0.137951
-0.118325
-0.0991874
-0.0807617
-0.063156
-0.0464058
-0.0305052
-0.0154258
-0.00112943
0.0124249
0.0252774
0.037465
0.0490211
0.0599749
0.070352
0.0801747
0.0894622
0.098232
0.106499
0.114279
0.121584
0.128429
0.134826
0.140791
0.146337
0.151481
0.156238
0.160624
0.164657
0.168346
-0.190763
-0.144648
-0.130094
-0.146497
-0.166071
-0.180751
-0.191951
-0.199058
-0.200542
-0.19626
-0.187098
-0.174194
-0.158702
-0.141669
-0.123929
-0.106073
-0.0884892
-0.0714139
-0.0549767
-0.0392381
-0.0242154
-0.00990144
0.00372435
0.0166884
0.0290187
0.0407428
0.0518859
0.0624711
0.0725185
0.082046
0.0910693
0.0996023
0.107658
0.115248
0.122384
0.129078
0.135342
0.141188
0.14663
0.151682
0.156358
0.160675
0.164648
0.168285
-0.13461
-0.108548
-0.103709
-0.123111
-0.143697
-0.158683
-0.169868
-0.177087
-0.179075
-0.175746
-0.167927
-0.156641
-0.142899
-0.127613
-0.111523
-0.0951678
-0.078918
-0.0630128
-0.0475961
-0.0327464
-0.0184995
-0.00486508
0.0081629
0.0205986
0.0324599
0.0437662
0.0545359
0.0647865
0.0745337
0.0837915
0.0925724
0.100888
0.108747
0.116162
0.123141
0.129694
0.135832
0.141567
0.14691
0.151874
0.156474
0.160724
0.164639
0.168226
-0.108378
-0.104726
-0.10328
-0.115378
-0.130628
-0.142978
-0.1524
-0.158458
-0.160094
-0.157167
-0.150309
-0.14035
-0.128117
-0.114375
-0.0997649
-0.0847722
-0.069746
-0.054924
-0.0404593
-0.0264445
-0.0129306
5.87585e-05
0.0125167
0.0244465
0.0358573
0.0467606
0.0571691
0.067095
0.07655
0.0855445
0.0940879
0.102189
0.109856
0.117096
0.123919
0.130332
0.136344
0.141967
0.14721
0.152087
0.156609
0.16079
0.164646
0.168181
-0.0946792
-0.0984782
-0.0991229
-0.107265
-0.118921
-0.128931
-0.136362
-0.140924
-0.141928
-0.13919
-0.13312
-0.124332
-0.113475
-0.10117
-0.0879599
-0.0742739
-0.0604354
-0.0466758
-0.0331532
-0.0199705
-0.00719132
0.00514795
0.0170291
0.0284453
0.0393971
0.049889
0.0599277
0.0695205
0.0786749
0.0873979
0.0956959
0.103575
0.111042
0.118101
0.124761
0.131027
0.136908
0.142413
0.147552
0.152335
0.156774
0.160883
0.164674
0.168154
-0.0847378
-0.0900747
-0.0927934
-0.0991773
-0.107859
-0.115503
-0.121079
-0.124299
-0.124684
-0.122039
-0.116603
-0.108814
-0.0991679
-0.0881593
-0.0762373
-0.0637755
-0.0510669
-0.0383311
-0.0257263
-0.0133619
-0.00131086
0.0103802
0.021683
0.0325819
0.0430697
0.0531442
0.0628065
0.0720593
0.0809061
0.0893505
0.097396
0.105047
0.112306
0.119178
0.125668
0.131782
0.137526
0.142907
0.147935
0.15262
0.156972
0.161004
0.164727
0.168148
-0.0759781
-0.0814032
-0.0852713
-0.0905932
-0.0969747
-0.102596
-0.106607
-0.108686
-0.108489
-0.105849
-0.100894
-0.0939256
-0.0853139
-0.0754449
-0.0646839
-0.0533483
-0.0416979
-0.0299358
-0.0182154
-0.0066481
0.004687
0.0157357
0.0264618
0.0368422
0.0468627
0.0565152
0.0657956
0.0747024
0.0832352
0.0913944
0.0991809
0.106596
0.113642
0.12032
0.126635
0.13259
0.138191
0.143444
0.148357
0.152938
0.157199
0.161149
0.164799
0.168157
-0.0679043
-0.0729207
-0.0769971
-0.0814371
-0.0861345
-0.090158
-0.0928896
-0.0940234
-0.0933097
-0.0906211
-0.0860236
-0.0797197
-0.0719794
-0.0630989
-0.0533702
-0.0430576
-0.0323864
-0.0215402
-0.0106633
0.000134492
0.0107715
0.0211885
0.0313436
0.0412073
0.0507599
0.0599881
0.0688832
0.0774396
0.0856534
0.0935221
0.101044
0.108218
0.115044
0.121523
0.127657
0.133447
0.1389
0.14402
0.148812
0.153287
0.157451
0.161315
0.164889
0.16818
-0.0601995
-0.0645482
-0.0682842
-0.0719126
-0.0753554
-0.0781322
-0.0798301
-0.0801965
-0.0790494
-0.076296
-0.071969
-0.0662032
-0.0591937
-0.0511649
-0.0423465
-0.0329549
-0.0231818
-0.0131894
-0.00311011
0.00695094
0.0169125
0.0267129
0.0363061
0.0456585
0.0547455
0.0635495
0.0720578
0.0802611
0.0881525
0.0957266
0.102979
0.109907
0.116509
0.122783
0.12873
0.134352
0.139652
0.144633
0.149301
0.153663
0.157727
0.161502
0.164996
0.168217
-0.0526367
-0.0562264
-0.0593788
-0.06224
-0.064699
-0.0664937
-0.067362
-0.0671132
-0.0656145
-0.0627991
-0.0586835
-0.053358
-0.0469627
-0.039666
-0.0316467
-0.0230794
-0.0141243
-0.00492203
0.0044084
0.0137692
0.0230817
0.0322841
0.0413282
0.0501774
0.0588037
0.067186
0.0753081
0.0831575
0.0907245
0.0980011
0.104981
0.111659
0.118032
0.124097
0.129854
0.135302
0.140444
0.145283
0.149822
0.154068
0.158028
0.161709
0.16512
0.168267
-0.0451103
-0.0479454
-0.0504354
-0.0525753
-0.0542297
-0.0552409
-0.0554452
-0.054706
-0.0529274
-0.0500618
-0.0461181
-0.0411578
-0.0352813
-0.0286145
-0.0212952
-0.0134625
-0.0052487
0.00322656
0.0118584
0.0205578
0.0292508
0.0378769
0.0463877
0.0547449
0.062918
0.0708832
0.0786216
0.086118
0.09336
0.100338
0.107043
0.113468
0.119609
0.125461
0.131024
0.136295
0.141275
0.145967
0.150374
0.154501
0.158352
0.161937
0.165261
0.168331
-0.037582
-0.03971
-0.0415427
-0.0430204
-0.0440013
-0.04438
-0.0440527
-0.0429247
-0.0409274
-0.0380274
-0.0342302
-0.0295783
-0.0241441
-0.0180213
-0.0113155
-0.00413662
0.00340783
0.0112173
0.0192011
0.0272796
0.0353848
0.0434592
0.0514555
0.0593345
0.0670647
0.0746201
0.0819796
0.089126
0.0960446
0.102724
0.109153
0.115324
0.121231
0.126869
0.132235
0.137325
0.142142
0.146684
0.150955
0.154959
0.1587
0.162184
0.165418
0.168409
-0.0300516
-0.0315353
-0.0327574
-0.0336418
-0.0340531
-0.033915
-0.0331608
-0.0317254
-0.0295604
-0.0266424
-0.0229753
-0.018589
-0.0135361
-0.00788607
-0.00171949
0.00487758
0.0118186
0.0190202
0.0264052
0.0339038
0.0414543
0.0490035
0.0565058
0.0639228
0.0712221
0.0783768
0.0853641
0.0921649
0.0987631
0.105145
0.111299
0.117217
0.122889
0.128311
0.133477
0.138386
0.143036
0.147426
0.151559
0.155437
0.159064
0.162446
0.165588
0.168497
-0.0232168
-0.0241634
-0.0248759
-0.0252755
-0.0252352
-0.0246966
-0.0236144
-0.0219427
-0.0196473
-0.0167123
-0.0131414
-0.00895749
-0.00420012
0.00107751
0.00681265
0.012937
0.0193804
0.0260736
0.032951
0.0399517
0.0470207
0.0541091
0.061174
0.0681783
0.07509
0.0818815
0.0885295
0.0950137
0.101317
0.107424
0.113324
0.119004
0.124458
0.129677
0.134657
0.139394
0.143887
0.148133
0.152135
0.155893
0.159411
0.162695
0.165748
0.168578
-0.0165038
-0.0169834
-0.0172444
-0.017222
-0.0168006
-0.0159317
-0.0145841
-0.0127258
-0.0103322
-0.00739257
-0.00391041
9.66039e-05
0.00459806
0.00955288
0.0149119
0.0206208
0.0266227
0.0328602
0.0392779
0.0458232
0.0524474
0.0591061
0.0657597
0.0723728
0.0789144
0.0853571
0.0916772
0.097854
0.10387
0.109708
0.115357
0.120805
0.126042
0.131061
0.135855
0.140422
0.144756
0.148858
0.152728
0.156365
0.159774
0.162958
0.165922
0.168672
-0.0089024
-0.00893055
-0.00875544
-0.00832744
-0.00754767
-0.00637652
-0.00479327
-0.00277652
-0.000309513
0.00261496
0.00599368
0.00981343
0.0140517
0.0186777
0.0236544
0.0289399
0.0344895
0.0402573
0.0461978
0.0522666
0.0584219
0.0646244
0.0708382
0.0770303
0.0831711
0.0892342
0.095196
0.101035
0.106734
0.112277
0.117648
0.122837
0.127833
0.132629
0.137216
0.141591
0.145749
0.149689
0.153409
0.15691
0.160195
0.163266
0.166128
0.168788
-0.000494388
-9.88041e-05
0.000480743
0.00128245
0.00238673
0.00382478
0.0056098
0.00775542
0.0102727
0.013166
0.0164327
0.0200632
0.024041
0.0283439
0.0329448
0.0378123
0.0429125
0.0482097
0.0536676
0.0592503
0.0649224
0.0706505
0.0764027
0.0821494
0.0878631
0.0935187
0.0990934
0.104567
0.10992
0.115138
0.120205
0.125108
0.129839
0.134386
0.138743
0.142904
0.146865
0.150622
0.154175
0.157523
0.160668
0.163612
0.166359
0.00858101
0.0093562
0.0102924
0.0114214
0.0128052
0.0144673
0.0164156
0.0186584
0.0212025
0.0240507
0.0272005
0.0306449
0.0343724
0.0383671
0.0426094
0.0470766
0.0517435
0.0565832
0.0615676
0.066668
0.0718561
0.0771037
0.0823838
0.0876703
0.0929388
0.0981662
0.103331
0.108414
0.113397
0.118264
0.123001
0.127594
0.132033
0.136308
0.140411
0.144336
0.148077
0.151632
0.154998
0.158175
0.161163
0.163965
0.166583
0.0181121
0.0192074
0.0204401
0.0218396
0.0234509
0.02529
0.027361
0.029669
0.0322179
0.0350091
0.0380403
0.0413064
0.0447991
0.0485072
0.0524167
0.0565113
0.0607725
0.0651804
0.0697137
0.0743502
0.0790675
0.0838428
0.0886537
0.0934783
0.0982951
0.103084
0.107826
0.112502
0.117096
0.121592
0.125977
0.130237
0.134363
0.138342
0.142169
0.145836
0.149337
0.152668
0.155828
0.158815
0.16163
0.164273
0.166748
0.0277863
0.029139
0.0306076
0.0322222
0.0340118
0.0359856
0.0381455
0.0404941
0.0430334
0.0457635
0.0486822
0.0517853
0.0550667
0.058518
0.0621293
0.0658884
0.0697821
0.0737953
0.0779122
0.082116
0.0863889
0.0907133
0.0950709
0.0994437
0.103814
0.108164
0.112478
0.116738
0.120931
0.125042
0.129057
0.132965
0.136756
0.140419
0.143947
0.147333
0.150572
0.153659
0.156592
0.159369
0.161991
0.164458
0.166774
0.0371829
0.0387206
0.0403556
0.0421204
0.0440297
0.0460876
0.0482944
0.0506514
0.0531589
0.0558162
0.0586212
0.06157
0.0646577
0.067878
0.071223
0.0746838
0.0782503
0.081911
0.085654
0.0894661
0.0933338
0.097243
0.101179
0.105128
0.109074
0.113004
0.116902
0.120756
0.124552
0.128278
0.131921
0.135471
0.138918
0.142255
0.145472
0.148565
0.151527
0.154356
0.157049
0.159604
0.162022
0.164304
0.166452
0.0438443
0.0454934
0.0472301
0.0490868
0.05107
0.0531801
0.0554163
0.0577787
0.0602666
0.0628784
0.0656113
0.0684614
0.0714241
0.0744936
0.0776631
0.080925
0.0842706
0.0876906
0.0911748
0.0947126
0.0982925
0.101903
0.105532
0.109167
0.112796
0.116406
0.119985
0.123522
0.127004
0.130422
0.133765
0.137022
0.140187
0.143251
0.146208
0.149053
0.151781
0.15439
0.156878
0.159244
0.161488
0.163612
0.165619
0.0479491
0.0496491
0.0514294
0.0533228
0.0553315
0.0574539
0.0596889
0.0620359
0.0644936
0.0670599
0.0697319
0.0725056
0.0753766
0.0783393
0.0813876
0.0845144
0.0877122
0.0909724
0.0942862
0.097644
0.101036
0.104451
0.107879
0.111309
0.11473
0.118131
0.1215
0.124828
0.128103
0.131317
0.134459
0.137521
0.140496
0.143378
0.146161
0.14884
0.151413
0.153876
0.15623
0.158473
0.160606
0.162632
0.164553
0.0506227
0.0523473
0.0541485
0.0560575
0.0580743
0.0601963
0.0624217
0.0647496
0.0671783
0.0697052
0.0723272
0.0750402
0.0778398
0.0807206
0.0836767
0.0867017
0.0897884
0.092929
0.0961154
0.0993388
0.10259
0.10586
0.109138
0.112415
0.11568
0.118924
0.122135
0.125305
0.128423
0.131482
0.134471
0.137386
0.140217
0.142961
0.145612
0.148167
0.150623
0.152979
0.155235
0.157391
0.159447
0.161407
0.163272
0.0522552
0.0539857
0.0557907
0.057699
0.0597093
0.0618186
0.064025
0.066327
0.0687228
0.0712095
0.0737838
0.0764416
0.0791786
0.0819894
0.0848686
0.08781
0.0908068
0.0938519
0.0969377
0.100056
0.103198
0.106356
0.109519
0.112679
0.115826
0.118951
0.122043
0.125094
0.128095
0.131038
0.133915
0.13672
0.139446
0.142089
0.144645
0.147112
0.149488
0.151771
0.153962
0.156062
0.158072
0.159994
0.161831
0.0531065
0.0548292
0.0566258
0.0585214
0.0605147
0.0626025
0.0647826
0.0670534
0.0694129
0.071858
0.0743853
0.0769908
0.0796702
0.0824186
0.0852306
0.0881003
0.0910214
0.0939873
0.0969908
0.100024
0.10308
0.106148
0.109222
0.112292
0.115348
0.118381
0.121384
0.124346
0.127259
0.130117
0.132911
0.135637
0.138289
0.140862
0.143354
0.145763
0.148088
0.150327
0.152482
0.154554
0.156543
0.158452
0.160284
0.0533654
0.0550699
0.0568488
0.0587225
0.0606899
0.0627482
0.0648953
0.0671295
0.0694484
0.0718491
0.0743283
0.0768822
0.0795064
0.0821964
0.0849471
0.0877529
0.090608
0.093506
0.0964401
0.0994032
0.102388
0.105385
0.108388
0.111386
0.114373
0.117337
0.120272
0.123168
0.126018
0.128815
0.131552
0.134225
0.136827
0.139357
0.141811
0.144188
0.146487
0.148708
0.150851
0.152918
0.154909
0.156826
0.158671
0.0531702
0.0548479
0.0566014
0.0584455
0.0603795
0.0624015
0.0645095
0.0667017
0.0689757
0.071329
0.0737582
0.0762599
0.0788301
0.0814643
0.0841578
0.0869054
0.0897015
0.0925402
0.095415
0.0983189
0.101245
0.104185
0.10713
0.110074
0.113006
0.115918
0.118803
0.121653
0.124459
0.127215
0.129916
0.132557
0.135132
0.137641
0.140079
0.142446
0.144742
0.146965
0.149117
0.151198
0.153208
0.15515
0.157025
0.0526274
0.0542726
0.0559931
0.0577992
0.0596916
0.06167
0.0637325
0.065877
0.0681015
0.0704037
0.0727807
0.0752293
0.0777458
0.080326
0.0829655
0.0856594
0.0884023
0.0911884
0.0940116
0.0968651
0.0997419
0.102634
0.105535
0.108434
0.111325
0.1142
0.117049
0.119866
0.122644
0.125377
0.128059
0.130686
0.133254
0.135759
0.138201
0.140577
0.142888
0.145131
0.147309
0.14942
0.151465
0.153445
0.155362
0.0517824
0.0534045
0.0550877
0.0568438
0.0586826
0.0606073
0.0626156
0.0647055
0.0668755
0.0691235
0.0714469
0.0738425
0.0763067
0.0788356
0.081425
0.08407
0.0867654
0.0895056
0.0922845
0.0950954
0.0979315
0.100785
0.103649
0.106515
0.109376
0.112223
0.115049
0.117847
0.120611
0.123335
0.126014
0.128643
0.131218
0.133738
0.1362
0.138602
0.140943
0.143222
0.145439
0.147594
0.149686
0.151716
0.153684
0.0506387
0.0522424
0.0538905
0.0556003
0.0573943
0.0592752
0.0612383
0.0632819
0.0654059
0.0676089
0.0698883
0.072241
0.0746637
0.0771525
0.0797032