/*--------------------------------*- C++ -*----------------------------------*\
  =========                 |
  \\      /  F ield         | OpenFOAM: The Open Source CFD Toolbox
   \\    /   O peration     | Website:  https://openfoam.org
    \\  /    A nd           | Version:  6
     \\/     M anipulation  |
\*---------------------------------------------------------------------------*/
FoamFile
{
    version     2.0;
    format      ascii;
    class       surfaceScalarField;
    location    "0.03";
    object      phi;
}
// * * * * * * * * * * * * * * * * * * * * * * * * * * * * * * * * * * * * * //

dimensions      [0 3 -1 0 0 0 0];

internalField   nonuniform List<scalar> 
5945
(
3.25711e-07
-6.87011e-09
3.19565e-07
6.14612e-09
3.16201e-07
3.36324e-09
3.0949e-07
6.71103e-09
3.03044e-07
6.44631e-09
2.98714e-07
4.32984e-09
2.96242e-07
2.47197e-09
2.94937e-07
1.3057e-09
2.94372e-07
5.64889e-10
2.94317e-07
5.4585e-11
2.94671e-07
-3.54017e-10
2.95454e-07
-7.83112e-10
2.96737e-07
-1.28248e-09
2.98635e-07
-1.89848e-09
3.01408e-07
-2.77263e-09
3.05476e-07
-4.06793e-09
3.13016e-07
-7.5404e-09
-1.53052e-08
3.28321e-07
3.50351e-07
-1.54961e-08
3.47891e-07
8.60586e-09
3.44339e-07
6.91562e-09
3.4279e-07
8.25981e-09
3.41042e-07
8.19419e-09
3.3912e-07
6.25238e-09
3.37496e-07
4.09542e-09
3.36391e-07
2.41074e-09
3.35831e-07
1.12543e-09
3.35818e-07
6.74418e-11
3.36341e-07
-8.7774e-10
3.37377e-07
-1.81877e-09
3.38959e-07
-2.86395e-09
3.41193e-07
-4.13289e-09
3.44293e-07
-5.87305e-09
3.48717e-07
-8.49114e-09
3.54867e-07
-1.36905e-08
-2.29768e-08
3.62538e-07
3.63459e-07
-1.2703e-08
3.66695e-07
5.36941e-09
3.67063e-07
6.54733e-09
3.67556e-07
7.76676e-09
3.67635e-07
8.11509e-09
3.67239e-07
6.64904e-09
3.66709e-07
4.6249e-09
3.66341e-07
2.77863e-09
3.66291e-07
1.17573e-09
3.66636e-07
-2.77711e-10
3.67424e-07
-1.66567e-09
3.68691e-07
-3.08587e-09
3.70494e-07
-4.66712e-09
3.72938e-07
-6.57615e-09
3.76183e-07
-9.11801e-09
3.80474e-07
-1.2782e-08
3.8567e-07
-1.88872e-08
-2.84869e-08
3.9118e-07
3.89282e-07
-9.44638e-09
3.91626e-07
3.02512e-09
3.92793e-07
5.38034e-09
3.93813e-07
6.74685e-09
3.94577e-07
7.35112e-09
3.94956e-07
6.26998e-09
3.95128e-07
4.45336e-09
3.95325e-07
2.58141e-09
3.95715e-07
7.85903e-10
3.96402e-07
-9.64702e-10
3.97461e-07
-2.72487e-09
3.98957e-07
-4.58149e-09
4.00959e-07
-6.66931e-09
4.03561e-07
-9.17778e-09
4.06868e-07
-1.24256e-08
4.10972e-07
-1.68854e-08
4.15599e-07
-2.35144e-08
-3.2989e-08
4.20101e-07
4.18321e-07
-7.05499e-09
4.19609e-07
1.73751e-09
4.20756e-07
4.233e-09
4.21908e-07
5.59478e-09
4.22997e-07
6.26196e-09
4.23839e-07
5.42847e-09
4.24498e-07
3.79455e-09
4.2514e-07
1.93957e-09
4.25909e-07
1.6151e-11
4.26913e-07
-1.96857e-09
4.28236e-07
-4.04725e-09
4.29951e-07
-6.29672e-09
4.32131e-07
-8.84905e-09
4.34849e-07
-1.18966e-08
4.38163e-07
-1.57392e-08
4.42063e-07
-2.07855e-08
4.46241e-07
-2.76927e-08
-3.6839e-08
4.50091e-07
4.49094e-07
-5.24055e-09
4.4983e-07
1.00183e-09
4.50858e-07
3.20509e-09
4.52041e-07
4.41151e-09
4.53302e-07
5.00082e-09
4.54437e-07
4.29395e-09
4.55445e-07
2.78682e-09
4.56437e-07
9.47299e-10
4.57529e-07
-1.07589e-09
4.58816e-07
-3.25587e-09
4.60381e-07
-5.61167e-09
4.62295e-07
-8.21108e-09
4.64623e-07
-1.11773e-08
4.67417e-07
-1.46904e-08
4.70689e-07
-1.90111e-08
4.74368e-07
-2.44642e-08
4.78147e-07
-3.14716e-08
-4.02096e-08
4.81517e-07
4.81826e-07
-3.79476e-09
4.8231e-07
5.18418e-10
4.83227e-07
2.28818e-09
4.84396e-07
3.24168e-09
4.85741e-07
3.65591e-09
4.87061e-07
2.97412e-09
4.88319e-07
1.52909e-09
4.89584e-07
-3.17505e-10
4.90941e-07
-2.4337e-09
4.92471e-07
-4.78585e-09
4.94245e-07
-7.38574e-09
4.96327e-07
-1.02926e-08
4.98766e-07
-1.36161e-08
5.01589e-07
-1.75136e-08
5.04774e-07
-2.21962e-08
5.08212e-07
-2.79018e-08
5.11618e-07
-3.48782e-08
-4.31777e-08
5.14587e-07
5.16827e-07
-2.66414e-09
5.17182e-07
1.63798e-10
5.18005e-07
1.46554e-09
5.19138e-07
2.10835e-09
5.20512e-07
2.28184e-09
5.21944e-07
1.54214e-09
5.23377e-07
9.62145e-11
5.24848e-07
-1.78812e-09
5.26416e-07
-4.00169e-09
5.28142e-07
-6.51206e-09
5.30084e-07
-9.32772e-09
5.32291e-07
-1.24994e-08
5.34794e-07
-1.61196e-08
5.37597e-07
-2.0317e-08
5.40651e-07
-2.525e-08
5.43826e-07
-3.10771e-08
5.46872e-07
-3.79234e-08
-4.57691e-08
5.49463e-07
5.54297e-07
-1.82701e-09
5.54583e-07
-1.22153e-10
5.55333e-07
7.14816e-10
5.56424e-07
1.01795e-09
5.57795e-07
9.10661e-10
5.59288e-07
4.89911e-11
5.60837e-07
-1.4529e-09
5.62455e-07
-3.40592e-09
5.64178e-07
-5.7252e-09
5.6605e-07
-8.38368e-09
5.68111e-07
-1.13885e-08
5.70393e-07
-1.47812e-08
5.72908e-07
-1.86355e-08
5.7564e-07
-2.30482e-08
5.78518e-07
-2.8128e-08
5.81407e-07
-3.39663e-08
5.84089e-07
-4.06056e-08
-4.79858e-08
5.86306e-07
5.94399e-07
-1.24865e-09
5.94661e-07
-3.83432e-10
5.95365e-07
1.08223e-11
5.96415e-07
-3.30267e-11
5.97766e-07
-4.40012e-10
5.99284e-07
-1.46891e-09
6.00902e-07
-3.07038e-09
6.02614e-07
-5.11827e-09
6.04439e-07
-7.55049e-09
6.06402e-07
-1.03468e-08
6.08527e-07
-1.35133e-08
6.10828e-07
-1.70819e-08
6.13299e-07
-2.11065e-08
6.15904e-07
-2.56529e-08
6.18561e-07
-3.07854e-08
6.21138e-07
-3.65428e-08
6.23446e-07
-4.29139e-08
-4.98186e-08
6.25279e-07
6.37319e-07
-8.86583e-10
6.37586e-07
-6.5028e-10
6.38267e-07
-6.69867e-10
6.39286e-07
-1.05222e-09
6.40606e-07
-1.76041e-09
6.42122e-07
-2.9845e-09
6.43768e-07
-4.7161e-09
6.45526e-07
-6.87697e-09
6.47401e-07
-9.42475e-09
6.49399e-07
-1.23455e-08
6.5153e-07
-1.56438e-08
6.53789e-07
-1.93414e-08
6.56155e-07
-2.34728e-08
6.58578e-07
-2.80755e-08
6.60969e-07
-3.31769e-08
6.63204e-07
-3.87769e-08
6.65121e-07
-4.48313e-08
-5.12519e-08
6.66554e-07
5.73913e-07
-7.15672e-10
5.74151e-07
-8.88669e-10
5.74721e-07
-1.23995e-09
5.75563e-07
-1.89443e-09
5.7665e-07
-2.84713e-09
5.77912e-07
-4.24613e-09
5.79296e-07
-6.10097e-09
5.80783e-07
-8.36358e-09
5.82364e-07
-1.10057e-08
5.84036e-07
-1.40176e-08
5.85794e-07
-1.74017e-08
5.87624e-07
-2.11712e-08
5.89496e-07
-2.53454e-08
5.91362e-07
-2.99406e-08
5.93144e-07
-3.49597e-08
5.94746e-07
-4.03783e-08
5.96051e-07
-4.61366e-08
-5.21429e-08
5.96942e-07
6.9973e-07
-6.30114e-10
7.0004e-07
-1.19889e-09
7.00689e-07
-1.88854e-09
7.0163e-07
-2.8357e-09
7.02837e-07
-4.05401e-09
7.04243e-07
-5.65218e-09
7.05795e-07
-7.65268e-09
7.07463e-07
-1.00315e-08
7.09229e-07
-1.2772e-08
7.11079e-07
-1.58677e-08
7.12995e-07
-1.93179e-08
7.14951e-07
-2.31266e-08
7.16903e-07
-2.72974e-08
7.18789e-07
-3.18268e-08
7.20525e-07
-3.6696e-08
7.22009e-07
-4.18622e-08
7.23128e-07
-4.72559e-08
-5.27904e-08
7.23776e-07
8.5309e-07
-6.35663e-10
8.53479e-07
-1.58772e-09
8.54212e-07
-2.6214e-09
8.55247e-07
-3.87078e-09
8.56556e-07
-5.36334e-09
8.58078e-07
-7.17422e-09
8.59758e-07
-9.33224e-09
8.61557e-07
-1.18306e-08
8.63446e-07
-1.46612e-08
8.65397e-07
-1.78188e-08
8.67378e-07
-2.1299e-08
8.69348e-07
-2.50961e-08
8.7125e-07
-2.91995e-08
8.73012e-07
-3.35886e-08
8.74544e-07
-3.82281e-08
8.75745e-07
-4.30633e-08
8.76511e-07
-4.80216e-08
-5.30262e-08
8.76747e-07
1.04001e-06
-7.23689e-10
1.04047e-06
-2.04812e-09
1.04128e-06
-3.42728e-09
1.04238e-06
-4.97639e-09
1.04375e-06
-6.7345e-09
1.04533e-06
-8.75336e-09
1.04706e-06
-1.10617e-08
1.04889e-06
-1.36632e-08
1.05079e-06
-1.65548e-08
1.0527e-06
-1.97311e-08
1.05458e-06
-2.31834e-08
1.05639e-06
-2.68972e-08
1.05804e-06
-3.08505e-08
1.05946e-06
-3.50108e-08
1.06056e-06
-3.93324e-08
1.06126e-06
-4.37559e-08
1.06145e-06
-4.82115e-08
-5.26349e-08
1.06105e-06
1.26782e-06
-8.68253e-10
1.26833e-06
-2.55132e-09
1.26916e-06
-4.26244e-09
1.27028e-06
-6.09226e-09
1.27163e-06
-8.08577e-09
1.27316e-06
-1.02815e-08
1.2748e-06
-1.27048e-08
1.2765e-06
-1.53641e-08
1.27821e-06
-1.82588e-08
1.27986e-06
-2.13829e-08
1.2814e-06
-2.47237e-08
1.28276e-06
-2.82611e-08
1.28388e-06
-3.1966e-08
1.28467e-06
-3.57996e-08
1.28505e-06
-3.97132e-08
1.28494e-06
-4.36491e-08
1.28427e-06
-4.75454e-08
-5.13509e-08
1.28299e-06
1.54548e-06
-1.03031e-09
1.54597e-06
-3.03642e-09
1.54674e-06
-5.03739e-09
1.54775e-06
-7.10173e-09
1.54894e-06
-9.27201e-09
1.55023e-06
-1.15796e-08
1.55158e-06
-1.40462e-08
1.55289e-06
-1.66818e-08
1.55412e-06
-1.94876e-08
1.5552e-06
-2.24578e-08
1.55605e-06
-2.55786e-08
1.55662e-06
-2.88283e-08
1.55683e-06
-3.21764e-08
1.55661e-06
-3.55844e-08
1.55591e-06
-3.90067e-08
1.55465e-06
-4.23922e-08
1.5528e-06
-4.569e-08
-4.88615e-08
1.55031e-06
1.88389e-06
-1.16103e-09
1.88426e-06
-3.40495e-09
1.88484e-06
-5.61036e-09
1.88556e-06
-7.82281e-09
1.88636e-06
-1.00735e-08
1.88717e-06
-1.23884e-08
1.88791e-06
-1.47862e-08
1.8885e-06
-1.72781e-08
1.88888e-06
-1.98686e-08
1.88898e-06
-2.2555e-08
1.88873e-06
-2.53272e-08
1.88807e-06
-2.81671e-08
1.88694e-06
-3.10486e-08
1.8853e-06
-3.39391e-08
1.88309e-06
-3.68007e-08
1.88029e-06
-3.95922e-08
1.87687e-06
-4.2274e-08
-4.48185e-08
1.87283e-06
2.29636e-06
-1.19076e-09
2.29647e-06
-3.51022e-09
2.29665e-06
-5.7881e-09
2.29684e-06
-8.02106e-09
2.29699e-06
-1.02189e-08
2.297e-06
-1.2402e-08
2.2968e-06
-1.45852e-08
2.29631e-06
-1.67818e-08
2.29544e-06
-1.90031e-08
2.29414e-06
-2.12555e-08
2.29235e-06
-2.3538e-08
2.29003e-06
-2.58419e-08
2.28713e-06
-2.8151e-08
2.28363e-06
-3.04425e-08
2.27952e-06
-3.26888e-08
2.27479e-06
-3.48595e-08
2.26944e-06
-3.6925e-08
-3.88656e-08
2.26349e-06
1.68097e-06
-1.08921e-09
1.68079e-06
-3.32973e-09
1.6806e-06
-5.59805e-09
1.68037e-06
-7.7917e-09
1.68005e-06
-9.90246e-09
1.67959e-06
-1.19442e-08
1.67893e-06
-1.39225e-08
1.678e-06
-1.58531e-08
1.67676e-06
-1.77574e-08
1.67515e-06
-1.96523e-08
1.67316e-06
-2.15466e-08
1.67076e-06
-2.34415e-08
1.66794e-06
-2.53296e-08
1.6647e-06
-2.71965e-08
1.66103e-06
-2.90218e-08
1.65695e-06
-3.07815e-08
1.65248e-06
-3.24513e-08
-3.40143e-08
1.64763e-06
1.46319e-06
-8.2501e-10
1.4628e-06
-2.93404e-09
1.46243e-06
-5.22786e-09
1.46204e-06
-7.40261e-09
1.46159e-06
-9.45321e-09
1.46102e-06
-1.13776e-08
1.46026e-06
-1.31616e-08
1.45924e-06
-1.48304e-08
1.45791e-06
-1.64241e-08
1.45623e-06
-1.79744e-08
1.45418e-06
-1.95021e-08
1.45176e-06
-2.10194e-08
1.44896e-06
-2.25283e-08
1.44578e-06
-2.40219e-08
1.44225e-06
-2.54858e-08
1.43837e-06
-2.69005e-08
1.43416e-06
-2.82449e-08
-2.95032e-08
1.42965e-06
1.27346e-06
-2.75386e-10
1.27286e-06
-2.33399e-09
1.27242e-06
-4.78735e-09
1.27203e-06
-7.00835e-09
1.27164e-06
-9.06421e-09
1.27117e-06
-1.09101e-08
1.27051e-06
-1.25042e-08
1.26959e-06
-1.39033e-08
1.26834e-06
-1.51801e-08
1.26676e-06
-1.63857e-08
1.26481e-06
-1.75552e-08
1.2625e-06
-1.87125e-08
1.25984e-06
-1.98685e-08
1.25684e-06
-2.10223e-08
1.25352e-06
-2.21638e-08
1.2499e-06
-2.32764e-08
1.24599e-06
-2.43405e-08
-2.534e-08
1.24183e-06
1.10809e-06
7.23521e-10
1.10732e-06
-1.55832e-09
1.10692e-06
-4.3929e-09
1.10666e-06
-6.74673e-09
1.10648e-06
-8.88468e-09
1.10624e-06
-1.06685e-08
1.10578e-06
-1.20418e-08
1.10501e-06
-1.31341e-08
1.1039e-06
-1.40673e-08
1.10242e-06
-1.49141e-08
1.10059e-06
-1.57246e-08
1.09841e-06
-1.6533e-08
1.0959e-06
-1.73567e-08
1.09308e-06
-1.81982e-08
1.08996e-06
-1.90489e-08
1.08658e-06
-1.98932e-08
1.08295e-06
-2.07116e-08
-2.14864e-08
1.0791e-06
9.63915e-07
2.32959e-09
9.63043e-07
-6.8619e-10
9.62822e-07
-4.17191e-09
9.62816e-07
-6.7408e-09
9.62949e-07
-9.01784e-09
9.6298e-07
-1.06987e-08
9.62705e-07
-1.17676e-08
9.62056e-07
-1.24846e-08
9.61021e-07
-1.30318e-08
9.59607e-07
-1.3501e-08
9.57836e-07
-1.39531e-08
9.55731e-07
-1.44284e-08
9.5332e-07
-1.49456e-08
9.50628e-07
-1.55061e-08
9.47679e-07
-1.60998e-08
9.44496e-07
-1.67096e-08
9.41099e-07
-1.73148e-08
-1.78959e-08
9.37508e-07
8.38039e-07
4.82581e-09
8.37343e-07
9.64786e-12
8.37477e-07
-4.30577e-09
8.37831e-07
-7.09443e-09
8.38314e-07
-9.5008e-09
8.38568e-07
-1.09527e-08
8.38382e-07
-1.15817e-08
8.37733e-07
-1.18353e-08
8.36654e-07
-1.19534e-08
8.3519e-07
-1.20368e-08
8.33384e-07
-1.21474e-08
8.31278e-07
-1.23221e-08
8.28906e-07
-1.25731e-08
8.26294e-07
-1.2895e-08
8.23467e-07
-1.32727e-08
8.20444e-07
-1.36861e-08
8.17242e-07
-1.41125e-08
-1.45307e-08
8.13876e-07
7.2756e-07
8.99457e-09
7.278e-07
-2.30862e-10
7.28587e-07
-5.09294e-09
7.29393e-07
-7.90003e-09
7.30181e-07
-1.02886e-08
7.30506e-07
-1.12776e-08
7.30216e-07
-1.12925e-08
7.29379e-07
-1.09975e-08
7.28093e-07
-1.06677e-08
7.26446e-07
-1.03899e-08
7.24507e-07
-1.02083e-08
7.22327e-07
-1.01419e-08
7.1994e-07
-1.0187e-08
7.17372e-07
-1.03263e-08
7.14637e-07
-1.05375e-08
7.11747e-07
-1.07968e-08
7.08715e-07
-1.10806e-08
-1.1367e-08
7.05552e-07
6.30173e-07
1.58285e-08
6.32508e-07
-2.56619e-09
6.34148e-07
-6.73341e-09
6.35446e-07
-9.19724e-09
6.36385e-07
-1.1228e-08
6.36502e-07
-1.13947e-08
6.35816e-07
-1.06068e-08
6.34538e-07
-9.71922e-09
6.32855e-07
-8.98427e-09
6.30895e-07
-8.43042e-09
6.28741e-07
-8.05369e-09
6.26438e-07
-7.8387e-09
6.24009e-07
-7.75859e-09
6.21466e-07
-7.78265e-09
6.1881e-07
-7.88195e-09
6.16044e-07
-8.031e-09
6.13171e-07
-8.20722e-09
-8.39107e-09
6.10195e-07
5.47153e-07
2.32223e-08
5.51644e-07
-7.05723e-09
5.53069e-07
-8.15871e-09
5.54373e-07
-1.05015e-08
5.54939e-07
-1.1794e-08
5.54296e-07
-1.07516e-08
5.52749e-07
-9.05959e-09
5.507e-07
-7.67051e-09
5.48417e-07
-6.70124e-09
5.46038e-07
-6.05072e-09
5.43618e-07
-5.63455e-09
5.41175e-07
-5.39492e-09
5.38701e-07
-5.28461e-09
5.36183e-07
-5.2649e-09
5.33607e-07
-5.30598e-09
5.30962e-07
-5.38587e-09
5.28241e-07
-5.48626e-09
-5.59447e-09
5.25444e-07
4.91554e-07
1.44286e-08
4.90545e-07
-6.04787e-09
4.86922e-07
-4.53574e-09
4.85644e-07
-9.22359e-09
4.83758e-07
-9.90815e-09
4.80851e-07
-7.84392e-09
4.77517e-07
-5.72603e-09
4.74213e-07
-4.36674e-09
4.71114e-07
-3.60247e-09
4.68236e-07
-3.17236e-09
4.65534e-07
-2.9324e-09
4.62951e-07
-2.81187e-09
4.60433e-07
-2.76707e-09
4.57937e-07
-2.76804e-09
4.55426e-07
-2.79535e-09
4.52879e-07
-2.83855e-09
4.50285e-07
-2.89223e-09
-2.99561e-09
4.47686e-07
4.34696e-07
4.28648e-07
4.24113e-07
4.14889e-07
4.04981e-07
3.97137e-07
3.91411e-07
3.87044e-07
3.83442e-07
3.80269e-07
3.77337e-07
3.74525e-07
3.71758e-07
3.6899e-07
3.66195e-07
3.63356e-07
3.60464e-07
3.57468e-07
-9.07624e-09
9.07624e-09
-1.86499e-08
9.5737e-09
-2.79297e-08
9.27979e-09
-3.64102e-08
8.48047e-09
-4.39589e-08
7.54872e-09
-5.06047e-08
6.64573e-09
-5.64071e-08
5.80243e-09
-6.14146e-08
5.00751e-09
-6.56549e-08
4.24034e-09
-6.91348e-08
3.4799e-09
-7.1843e-08
2.7082e-09
-7.37552e-08
1.91214e-09
-7.48399e-08
1.08474e-09
-7.50669e-08
2.26979e-10
-7.44092e-08
-6.57714e-10
-7.28413e-08
-1.56794e-09
-7.0341e-08
-2.50026e-09
-6.68924e-08
-3.44855e-09
-6.24876e-08
-4.40485e-09
-5.71276e-08
-5.36003e-09
-5.08228e-08
-6.30472e-09
-4.35944e-08
-7.22848e-09
-3.54716e-08
-8.12273e-09
-2.64925e-08
-8.97916e-09
-1.67031e-08
-9.78931e-09
-6.14714e-09
-1.0556e-08
5.12486e-09
-1.1272e-08
1.7046e-08
-1.19211e-08
2.95453e-08
-1.24994e-08
4.25501e-08
-1.30048e-08
5.59858e-08
-1.34358e-08
6.97775e-08
-1.37916e-08
8.38499e-08
-1.40724e-08
9.8129e-08
-1.42791e-08
1.12542e-07
-1.44135e-08
1.27021e-07
-1.44782e-08
1.41497e-07
-1.44765e-08
1.55909e-07
-1.44122e-08
1.70199e-07
-1.42896e-08
1.84312e-07
-1.41136e-08
1.98201e-07
-1.3889e-08
2.11822e-07
-1.3621e-08
2.25137e-07
-1.33148e-08
-1.29756e-08
-9.08068e-09
1.81569e-08
-1.64323e-08
1.69253e-08
-2.30861e-08
1.59336e-08
-2.94608e-08
1.48552e-08
-3.55804e-08
1.36684e-08
-4.13609e-08
1.24262e-08
-4.67109e-08
1.11524e-08
-5.1549e-08
9.84563e-09
-5.5803e-08
8.49437e-09
-5.94082e-08
7.0851e-09
-6.23065e-08
5.60651e-09
-6.44459e-08
4.05157e-09
-6.57794e-08
2.41819e-09
-6.62606e-08
7.08154e-10
-6.58456e-08
-1.0727e-09
-6.4499e-08
-2.91453e-09
-6.21951e-08
-4.80411e-09
-5.89177e-08
-6.72601e-09
-5.46594e-08
-8.66312e-09
-4.94221e-08
-1.05973e-08
-4.32168e-08
-1.25101e-08
-3.60624e-08
-1.43829e-08
-2.79873e-08
-1.61978e-08
-1.90281e-08
-1.79384e-08
-9.22762e-09
-1.95897e-08
1.35486e-09
-2.11385e-08
1.26549e-08
-2.25721e-08
2.46127e-08
-2.38788e-08
3.71633e-08
-2.50499e-08
5.02377e-08
-2.60792e-08
6.37644e-08
-2.69625e-08
7.76702e-08
-2.76975e-08
9.18818e-08
-2.8284e-08
1.06326e-07
-2.87237e-08
1.20933e-07
-2.90197e-08
1.35632e-07
-2.9177e-08
1.50357e-07
-2.92017e-08
1.65046e-07
-2.9101e-08
1.79639e-07
-2.88833e-08
1.94083e-07
-2.85576e-08
2.08328e-07
-2.81335e-08
2.22328e-07
-2.7621e-08
2.36043e-07
-2.70302e-08
-2.63712e-08
-6.68015e-09
2.48371e-08
-1.29203e-08
2.31655e-08
-1.89283e-08
2.19416e-08
-2.48318e-08
2.07587e-08
-3.06302e-08
1.94668e-08
-3.62411e-08
1.80371e-08
-4.15545e-08
1.64658e-08
-4.64589e-08
1.475e-08
-5.08505e-08
1.28859e-08
-5.46358e-08
1.08704e-08
-5.77323e-08
8.70306e-09
-6.00679e-08
6.38717e-09
-6.15799e-08
3.93015e-09
-6.22153e-08
1.34361e-09
-6.19315e-08
-1.35657e-09
-6.06948e-08
-4.15124e-09
-5.8481e-08
-7.01788e-09
-5.52754e-08
-9.93156e-09
-5.10729e-08
-1.28657e-08
-4.58774e-08
-1.57928e-08
-3.97022e-08
-1.86852e-08
-3.25694e-08
-2.15156e-08
-2.45095e-08
-2.42577e-08
-1.5561e-08
-2.68869e-08
-5.77032e-09
-2.93804e-08
4.80786e-09
-3.17167e-08
1.61138e-08
-3.3878e-08
2.80841e-08
-3.58491e-08
4.06518e-08
-3.76177e-08
5.37471e-08
-3.91745e-08
6.7298e-08
-4.05134e-08
8.12317e-08
-4.16312e-08
9.54753e-08
-4.25276e-08
1.09956e-07
-4.32048e-08
1.24604e-07
-4.36677e-08
1.39351e-07
-4.39233e-08
1.5413e-07
-4.39805e-08
1.68879e-07
-4.38501e-08
1.8354e-07
-4.35443e-08
1.98058e-07
-4.30762e-08
2.12385e-07
-4.24599e-08
2.26474e-07
-4.17101e-08
2.40285e-07
-4.08418e-08
-3.98699e-08
-5.30609e-09
3.01432e-08
-1.11104e-08
2.89698e-08
-1.70714e-08
2.79026e-08
-2.30688e-08
2.6756e-08
-2.90056e-08
2.54036e-08
-3.47744e-08
2.38059e-08
-4.02596e-08
2.1951e-08
-4.53453e-08
1.98357e-08
-4.99213e-08
1.7462e-08
-5.38867e-08
1.48358e-08
-5.71506e-08
1.1967e-08
-5.96333e-08
8.86988e-09
-6.12663e-08
5.56317e-09
-6.19924e-08
2.06973e-09
-6.17656e-08
-1.58337e-09
-6.05509e-08
-5.36598e-09
-5.8324e-08
-9.24476e-09
-5.50714e-08
-1.31841e-08
-5.079e-08
-1.71471e-08
-4.54869e-08
-2.10959e-08
-3.9179e-08
-2.49931e-08
-3.18925e-08
-2.88021e-08
-2.36624e-08
-3.24878e-08
-1.45317e-08
-3.60176e-08
-4.55071e-09
-3.93615e-08
6.2236e-09
-4.2491e-08
1.77286e-08
-4.5383e-08
2.98973e-08
-4.80179e-08
4.26597e-08
-5.038e-08
5.59432e-08
-5.24579e-08
6.96738e-08
-5.4244e-08
8.37773e-08
-5.57347e-08
9.81795e-08
-5.69298e-08
1.12808e-07
-5.78329e-08
1.2759e-07
-5.84506e-08
1.4246e-07
-5.87927e-08
1.5735e-07
-5.8871e-08
1.722e-07
-5.87e-08
1.86952e-07
-5.82958e-08
2.01552e-07
-5.7676e-08
2.15951e-07
-5.6859e-08
2.30105e-07
-5.58644e-08
2.43975e-07
-5.47119e-08
-5.34213e-08
-5.18986e-09
3.5333e-08
-1.1141e-08
3.49209e-08
-1.74023e-08
3.41639e-08
-2.37701e-08
3.31238e-08
-3.00925e-08
3.1726e-08
-3.62342e-08
2.99476e-08
-4.20666e-08
2.77834e-08
-4.7467e-08
2.52361e-08
-5.23203e-08
2.23153e-08
-5.65208e-08
1.90362e-08
-5.99733e-08
1.54194e-08
-6.25942e-08
1.14908e-08
-6.43118e-08
7.28083e-09
-6.50667e-08
2.82461e-09
-6.48116e-08
-1.83847e-09
-6.35116e-08
-6.66603e-09
-6.11438e-08
-1.16125e-08
-5.76975e-08
-1.66304e-08
-5.31735e-08
-2.16711e-08
-4.75839e-08
-2.66855e-08
-4.09516e-08
-3.16255e-08
-3.33091e-08
-3.64446e-08
-2.46984e-08
-4.10985e-08
-1.51697e-08
-4.55463e-08
-4.78034e-09
-4.97509e-08
6.4062e-09
-5.36775e-08
1.8321e-08
-5.72978e-08
3.08914e-08
-6.05882e-08
4.4042e-08
-6.35307e-08
5.7696e-08
-6.61119e-08
7.17757e-08
-6.83238e-08
8.6204e-08
-7.01629e-08
1.00905e-07
-7.16305e-08
1.15804e-07
-7.27319e-08
1.3083e-07
-7.34764e-08
1.45913e-07
-7.38766e-08
1.60991e-07
-7.39484e-08
1.76001e-07
-7.371e-08
1.90887e-07
-7.31819e-08
2.05597e-07
-7.23862e-08
2.20084e-07
-7.13464e-08
2.34307e-07
-7.00865e-08
2.48226e-07
-6.86313e-08
-6.70052e-08
-5.92714e-09
4.12602e-08
-1.25934e-08
4.15871e-08
-1.95575e-08
4.11281e-08
-2.66035e-08
4.01699e-08
-3.3562e-08
3.86845e-08
-4.02835e-08
3.66691e-08
-4.66296e-08
3.41295e-08
-5.24714e-08
3.10779e-08
-5.76891e-08
2.7533e-08
-6.21737e-08
2.35208e-08
-6.58275e-08
1.90732e-08
-6.85648e-08
1.42281e-08
-7.0313e-08
9.02906e-09
-7.10127e-08
3.52425e-09
-7.06177e-08
-2.23339e-09
-6.90959e-08
-8.1879e-09
-6.64283e-08
-1.428e-08
-6.26099e-08
-2.04489e-08
-5.76483e-08
-2.66326e-08
-5.15638e-08
-3.277e-08
-4.43884e-08
-3.8801e-08
-3.61645e-08
-4.46685e-08
-2.69445e-08
-5.03185e-08
-1.67888e-08
-5.5702e-08
-5.76514e-09
-6.07746e-08
6.05345e-09
-6.54961e-08
1.8589e-08
-6.98334e-08
3.17608e-08
-7.37601e-08
4.54865e-08
-7.72564e-08
5.96832e-08
-8.03086e-08
7.42687e-08
-8.29093e-08
8.91622e-08
-8.50564e-08
1.04285e-07
-8.67535e-08
1.19562e-07
-8.80088e-08
1.34921e-07
-8.88351e-08
1.50293e-07
-8.92491e-08
1.65616e-07
-8.9271e-08
1.80829e-07
-8.89235e-08
1.9588e-07
-8.82321e-08
2.10717e-07
-8.72237e-08
2.25297e-07
-8.59266e-08
2.39581e-07
-8.43701e-08
2.53533e-07
-8.25837e-08
-8.05968e-08
-7.24686e-09
4.8507e-08
-1.51091e-08
4.94494e-08
-2.31624e-08
4.91814e-08
-3.11966e-08
4.8204e-08
-3.90403e-08
4.65282e-08
-4.65394e-08
4.41682e-08
-5.35514e-08
4.11415e-08
-5.99435e-08
3.747e-08
-6.55937e-08
3.31832e-08
-7.03909e-08
2.8318e-08
-7.42364e-08
2.29187e-08
-7.70446e-08
1.70363e-08
-7.87437e-08
1.07282e-08
-7.92767e-08
4.05725e-09
-7.86015e-08
-2.90861e-09
-7.66913e-08
-1.00981e-08
-7.35347e-08
-1.74366e-08
-6.91358e-08
-2.48478e-08
-6.35132e-08
-3.22553e-08
-5.66993e-08
-3.95838e-08
-4.87395e-08
-4.67608e-08
-3.96905e-08
-5.37175e-08
-2.96189e-08
-6.03902e-08
-1.85993e-08
-6.67215e-08
-6.71313e-09
-7.26608e-08
5.95377e-09
-7.8163e-08
1.9312e-08
-8.31916e-08
3.32708e-08
-8.77188e-08
4.77393e-08
-9.17249e-08
6.2628e-08
-9.51973e-08
7.78495e-08
-9.81308e-08
9.33194e-08
-1.00526e-07
1.08957e-07
-1.02391e-07
1.24687e-07
-1.03738e-07
1.40436e-07
-1.04585e-07
1.56139e-07
-1.04952e-07
1.71734e-07
-1.04866e-07
1.87164e-07
-1.04354e-07
2.0238e-07
-1.03447e-07
2.17334e-07
-1.02178e-07
2.31988e-07
-1.0058e-07
2.46304e-07
-9.86868e-08
2.60254e-07
-9.65332e-08
-9.41536e-08
-9.0004e-09
5.75074e-08
-1.84358e-08
5.88847e-08
-2.78946e-08
5.86403e-08
-3.71762e-08
5.74856e-08
-4.61121e-08
5.54641e-08
-5.45483e-08
5.26044e-08
-6.23411e-08
4.89343e-08
-6.93568e-08
4.44857e-08
-7.5472e-08
3.92985e-08
-8.05754e-08
3.34214e-08
-8.45684e-08
2.69116e-08
-8.73667e-08
1.98346e-08
-8.89016e-08
1.22631e-08
-8.91207e-08
4.27636e-09
-8.79887e-08
-4.04065e-09
-8.54878e-08
-1.2599e-08
-8.16182e-08
-2.13062e-08
-7.63976e-08
-3.00684e-08
-6.98605e-08
-3.87923e-08
-6.2057e-08
-4.73873e-08
-5.30511e-08
-5.57668e-08
-4.29186e-08
-6.38499e-08
-3.17453e-08
-7.15634e-08
-1.96246e-08
-7.88423e-08
-6.65471e-09
-8.56306e-08
7.06234e-09
-9.18801e-08
2.14237e-08
-9.75529e-08
3.63272e-08
-1.02622e-07
5.16732e-08
-1.07071e-07
6.73653e-08
-1.10889e-07
8.33116e-08
-1.14077e-07
9.94252e-08
-1.1664e-07
1.15625e-07
-1.18591e-07
1.31835e-07
-1.19949e-07
1.47987e-07
-1.20736e-07
1.64016e-07
-1.20981e-07
1.79866e-07
-1.20716e-07
1.95485e-07
-1.19973e-07
2.10827e-07
-1.1879e-07
2.25852e-07
-1.17203e-07
2.40524e-07
-1.15252e-07
2.54815e-07
-1.12977e-07
2.68697e-07
-1.10416e-07
-1.07608e-07
-1.10807e-08
6.85881e-08
-2.2362e-08
7.0166e-08
-3.34492e-08
6.97275e-08
-4.41549e-08
6.81913e-08
-5.43163e-08
6.56255e-08
-6.37821e-08
6.20702e-08
-7.24095e-08
5.75617e-08
-8.00646e-08
5.21408e-08
-8.66237e-08
4.58576e-08
-9.19754e-08
3.8773e-08
-9.60217e-08
3.0958e-08
-9.86809e-08
2.24937e-08
-9.98883e-08
1.34705e-08
-9.95987e-08
3.98679e-09
-9.77867e-08
-5.85273e-09
-9.44476e-08
-1.59381e-08
-8.95983e-08
-2.61555e-08
-8.3276e-08
-3.63906e-08
-7.55376e-08
-4.65308e-08
-6.64572e-08
-5.64677e-08
-5.61242e-08
-6.60998e-08
-4.46399e-08
-7.53343e-08
-3.21147e-08
-8.40886e-08
-1.86648e-08
-9.22921e-08
-4.40971e-09
-9.98857e-08
1.05303e-08
-1.0682e-07
2.60379e-08
-1.1306e-07
4.19992e-08
-1.18584e-07
5.83063e-08
-1.23378e-07
7.48576e-08
-1.27441e-07
9.15584e-08
-1.30778e-07
1.08322e-07
-1.33403e-07
1.25068e-07
-1.35338e-07
1.41726e-07
-1.36606e-07
1.58231e-07
-1.37241e-07
1.74525e-07
-1.37275e-07
1.90558e-07
-1.36748e-07
2.06284e-07
-1.35699e-07
2.21665e-07
-1.34171e-07
2.36668e-07
-1.32206e-07
2.51264e-07
-1.29849e-07
2.65431e-07
-1.27143e-07
2.79148e-07
-1.24134e-07
-1.20862e-07
-1.33793e-08
8.19675e-08
-2.66637e-08
8.34504e-08
-3.94902e-08
8.25541e-08
-5.16919e-08
8.03929e-08
-6.31156e-08
7.70493e-08
-7.36149e-08
7.25694e-08
-8.30485e-08
6.69953e-08
-9.12825e-08
6.03748e-08
-9.81925e-08
5.27676e-08
-1.03666e-07
4.42466e-08
-1.07606e-07
3.48976e-08
-1.09932e-07
2.48199e-08
-1.10585e-07
1.41241e-08
-1.0953e-07
2.93178e-09
-1.06755e-07
-8.62817e-09
-1.02273e-07
-2.04199e-08
-9.61247e-08
-3.23039e-08
-8.83746e-08
-4.41407e-08
-7.91103e-08
-5.57951e-08
-6.84387e-08
-6.71393e-08
-5.64825e-08
-7.80559e-08
-4.33759e-08
-8.84409e-08
-2.92599e-08
-9.82047e-08
-1.42782e-08
-1.07274e-07
1.42551e-09
-1.15589e-07
1.77119e-08
-1.23107e-07
3.44492e-08
-1.29798e-07
5.1514e-08
-1.35649e-07
6.87925e-08
-1.40657e-07
8.61811e-08
-1.44829e-07
1.03587e-07
-1.48183e-07
1.20926e-07
-1.50742e-07
1.38125e-07
-1.52537e-07
1.5512e-07
-1.53601e-07
1.71855e-07
-1.53976e-07
1.88281e-07
-1.53702e-07
2.04357e-07
-1.52824e-07
2.20048e-07
-1.5139e-07
2.35324e-07
-1.49447e-07
2.50161e-07
-1.47043e-07
2.64539e-07
-1.44227e-07
2.78444e-07
-1.41048e-07
2.91862e-07
-1.37552e-07
-1.33787e-07
-1.57593e-08
9.77267e-08
-3.1066e-08
9.87571e-08
-4.56105e-08
9.70985e-08
-5.92551e-08
9.40376e-08
-7.18613e-08
8.96555e-08
-8.32891e-08
8.39972e-08
-9.33994e-08
7.71056e-08
-1.02057e-07
6.90327e-08
-1.09136e-07
5.98459e-08
-1.14519e-07
4.96299e-08
-1.18108e-07
3.84871e-08
-1.19826e-07
2.65374e-08
-1.19619e-07
1.39169e-08
-1.17463e-07
7.76009e-10
-1.13365e-07
-1.27259e-08
-1.07365e-07
-2.64199e-08
-9.95355e-08
-4.01336e-08
-8.99789e-08
-5.36973e-08
-7.8825e-08
-6.6949e-08
-6.62248e-08
-7.97395e-08
-5.23443e-08
-9.19364e-08
-3.73586e-08
-1.03427e-07
-2.14452e-08
-1.14118e-07
-4.77919e-09
-1.2394e-07
1.24704e-08
-1.32839e-07
3.01475e-08
-1.40784e-07
4.8109e-08
-1.47759e-07
6.62263e-08
-1.53766e-07
8.43853e-08
-1.58816e-07
1.02486e-07
-1.6293e-07
1.20443e-07
-1.6614e-07
1.38183e-07
-1.68482e-07
1.55644e-07
-1.69997e-07
1.72773e-07
-1.70731e-07
1.89528e-07
-1.70731e-07
2.05873e-07
-1.70047e-07
2.2178e-07
-1.68731e-07
2.37226e-07
-1.66836e-07
2.52193e-07
-1.64413e-07
2.66666e-07
-1.61517e-07
2.80637e-07
-1.58198e-07
2.94097e-07
-1.54508e-07
3.07044e-07
-1.50499e-07
-1.46218e-07
-1.80409e-08
1.15768e-07
-3.52195e-08
1.15936e-07
-5.13001e-08
1.13179e-07
-6.61847e-08
1.08922e-07
-7.97531e-08
1.03224e-07
-9.18739e-08
9.6118e-08
-1.02409e-07
8.76411e-08
-1.11222e-07
7.78447e-08
-1.18177e-07
6.68011e-08
-1.23153e-07
5.46063e-08
-1.26047e-07
4.1381e-08
-1.2678e-07
2.72705e-08
-1.25307e-07
1.24433e-08
-1.21618e-07
-2.91246e-09
-1.15747e-07
-1.85969e-08
-1.0777e-07
-3.4397e-08
-9.78052e-08
-5.00984e-08
-8.60091e-08
-6.54934e-08
-7.25689e-08
-8.03892e-08
-5.76937e-08
-9.46147e-08
-4.16047e-08
-1.08025e-07
-2.45261e-08
-1.20505e-07
-6.67683e-09
-1.31967e-07
1.17356e-08
-1.42352e-07
3.05221e-08
-1.51625e-07
4.95148e-08
-1.59776e-07
6.8567e-08
-1.66811e-07
8.75533e-08
-1.72752e-07
1.06369e-07
-1.77631e-07
1.24926e-07
-1.81488e-07
1.43155e-07
-1.8437e-07
1.61001e-07
-1.86328e-07
1.78419e-07
-1.87415e-07
1.95377e-07
-1.87688e-07
2.11848e-07
-1.87202e-07
2.27814e-07
-1.86014e-07
2.43264e-07
-1.84181e-07
2.58187e-07
-1.81759e-07
2.72579e-07
-1.78806e-07
2.86438e-07
-1.75376e-07
2.99764e-07
-1.71524e-07
3.12559e-07
-1.67303e-07
3.24827e-07
-1.62767e-07
-1.57965e-07
-1.99931e-08
1.35761e-07
-3.86797e-08
1.34622e-07
-5.59158e-08
1.30415e-07
-7.16514e-08
1.24658e-07
-8.57894e-08
1.17362e-07
-9.82079e-08
1.08536e-07
-1.08769e-07
9.82024e-08
-1.17328e-07
8.64033e-08
-1.23738e-07
7.32118e-08
-1.27866e-07
5.8734e-08
-1.29597e-07
4.31115e-08
-1.28849e-07
2.65227e-08
-1.25585e-07
9.17936e-09
-1.19816e-07
-8.68097e-09
-1.11614e-07
-2.67996e-08
-1.01106e-07
-4.49044e-08
-8.84793e-08
-6.27252e-08
-7.39652e-08
-8.00075e-08
-5.78297e-08
-9.65248e-08
-4.03575e-08
-1.12087e-07
-2.18368e-08
-1.26546e-07
-2.54796e-09
-1.39794e-07
1.72494e-08
-1.51765e-07
3.73234e-08
-1.62426e-07
5.74746e-08
-1.71777e-07
7.75354e-08
-1.79837e-07
9.73691e-08
-1.86645e-07
1.16868e-07
-1.92251e-07
1.35948e-07
-1.96711e-07
1.54548e-07
-2.00088e-07
1.72625e-07
-2.02447e-07
1.90149e-07
-2.03852e-07
2.07102e-07
-2.04368e-07
2.23474e-07
-2.0406e-07
2.39263e-07
-2.02991e-07
2.5447e-07
-2.01221e-07
2.69101e-07
-1.98811e-07
2.83162e-07
-1.9582e-07
2.96662e-07
-1.92306e-07
3.09611e-07
-1.88324e-07
3.22019e-07
-1.83931e-07
3.33895e-07
-1.7918e-07
3.45252e-07
-1.74123e-07
-1.68812e-07
-2.13222e-08
1.57083e-07
-4.08795e-08
1.5418e-07
-5.86356e-08
1.48171e-07
-7.45973e-08
1.40619e-07
-8.86947e-08
1.31459e-07
-1.00816e-07
1.20658e-07
-1.10821e-07
1.08207e-07
-1.18551e-07
9.41327e-08
-1.23839e-07
7.84997e-08
-1.26527e-07
6.14221e-08
-1.26481e-07
4.30663e-08
-1.23613e-07
2.36546e-08
-1.17893e-07
3.45956e-09
-1.09363e-07
-1.72111e-08
-9.81498e-08
-3.80132e-08
-8.44629e-08
-5.85913e-08
-6.8587e-08
-7.86012e-08
-5.08623e-08
-9.77321e-08
-3.16604e-08
-1.15727e-07
-1.13613e-08
-1.32386e-07
9.67052e-09
-1.47578e-07
3.11034e-08
-1.61227e-07
5.26495e-08
-1.73311e-07
7.40705e-08
-1.83847e-07
9.5176e-08
-1.92882e-07
1.15821e-07
-2.00482e-07
1.35899e-07
-2.06724e-07
1.5534e-07
-2.11692e-07
1.741e-07
-2.1547e-07
1.92155e-07
-2.18143e-07
2.095e-07
-2.19791e-07
2.26139e-07
-2.20492e-07
2.42088e-07
-2.20317e-07
2.57365e-07
-2.19337e-07
2.71991e-07
-2.17617e-07
2.8599e-07
-2.1522e-07
2.99384e-07
-2.12206e-07
3.12197e-07
-2.08633e-07
3.2445e-07
-2.04559e-07
3.36163e-07
-2.00037e-07
3.47354e-07
-1.95122e-07
3.58041e-07
-1.89866e-07
3.68238e-07
-1.84321e-07
-1.78536e-07
-2.16466e-08
1.7873e-07
-4.10754e-08
1.73608e-07
-5.83861e-08
1.65482e-07
-7.36451e-08
1.55878e-07
-8.68129e-08
1.44627e-07
-9.77891e-08
1.31634e-07
-1.06427e-07
1.16845e-07
-1.12543e-07
1.0025e-07
-1.15939e-07
8.18956e-08
-1.16417e-07
6.18995e-08
-1.13809e-07
4.04589e-08
-1.08012e-07
1.78569e-08
-9.90022e-08
-5.54993e-09
-8.68716e-08
-2.93416e-08
-7.18383e-08
-5.30465e-08
-5.42413e-08
-7.61883e-08
-3.45143e-08
-9.83282e-08
-1.31522e-08
-1.19094e-07
9.33703e-09
-1.38216e-07
3.2469e-08
-1.55518e-07
5.58117e-08
-1.70921e-07
7.90051e-08
-1.8442e-07
1.01765e-07
-1.9607e-07
1.23879e-07
-2.05961e-07
1.45202e-07
-2.14205e-07
1.65644e-07
-2.20924e-07
1.85158e-07
-2.26238e-07
2.03732e-07
-2.30266e-07
2.21379e-07
-2.33117e-07
2.38128e-07
-2.34892e-07
2.54018e-07
-2.35682e-07
2.69097e-07
-2.3557e-07
2.83411e-07
-2.34631e-07
2.97009e-07
-2.32935e-07
3.09937e-07
-2.30544e-07
3.22237e-07
-2.2752e-07
3.33948e-07
-2.23918e-07
3.45107e-07
-2.19792e-07
3.55744e-07
-2.15196e-07