/*--------------------------------*- C++ -*----------------------------------*\
  =========                 |
  \\      /  F ield         | OpenFOAM: The Open Source CFD Toolbox
   \\    /   O peration     | Website:  https://openfoam.org
    \\  /    A nd           | Version:  6
     \\/     M anipulation  |
\*---------------------------------------------------------------------------*/
FoamFile
{
    version     2.0;
    format      ascii;
    class       volVectorField;
    location    "0.03";
    object      U;
}
// * * * * * * * * * * * * * * * * * * * * * * * * * * * * * * * * * * * * * //

dimensions      [0 1 -1 0 0 0 0];

internalField   nonuniform List<vector> 
3032
(
(0.94883 -0.405164 0)
(1.01297 -0.190236 0)
(1.01555 -0.0512915 0)
(0.985145 -0.00527422 0)
(0.958528 0.00424468 0)
(0.942016 0.00383668 0)
(0.932208 0.0020717 0)
(0.926525 0.000832657 0)
(0.923678 0.000124274 0)
(0.922891 -0.000287209 0)
(0.923367 -0.000563751 0)
(0.925114 -0.000829306 0)
(0.928297 -0.00115572 0)
(0.933247 -0.00158469 0)
(0.940384 -0.00224897 0)
(0.951425 -0.00312673 0)
(0.967048 -0.00602587 0)
(1.00236 -0.00888601 0)
(1.03689 0.0760899 0)
(1.02003 0.0531613 0)
(1.01181 0.0191032 0)
(1.00555 0.00859104 0)
(1.00031 0.00612724 0)
(0.995055 0.00447976 0)
(0.989819 0.00298012 0)
(0.985682 0.00183304 0)
(0.983207 0.000950441 0)
(0.982342 0.000209964 0)
(0.983125 -0.000479844 0)
(0.9854 -0.0012252 0)
(0.98918 -0.00211967 0)
(0.994691 -0.00327281 0)
(1.00232 -0.00494 0)
(1.01317 -0.00753709 0)
(1.02792 -0.0132554 0)
(1.04923 -0.0251529 0)
(0.998313 0.0130154 0)
(0.995522 0.0116361 0)
(1.00145 0.00596908 0)
(1.00334 0.005882 0)
(1.00379 0.00611005 0)
(1.00339 0.00509538 0)
(1.00202 0.00364777 0)
(1.0006 0.00230809 0)
(0.999936 0.00111594 0)
(1.00029 -1.12728e-05 0)
(1.00181 -0.00114814 0)
(1.00459 -0.00238818 0)
(1.00872 -0.00386104 0)
(1.01444 -0.00574884 0)
(1.02206 -0.0084116 0)
(1.03226 -0.012487 0)
(1.0451 -0.0199574 0)
(1.0607 -0.0332163 0)
(0.99512 -0.00702058 0)
(0.992712 0.000976581 0)
(0.999321 0.00338672 0)
(1.00236 0.00506535 0)
(1.00431 0.00576635 0)
(1.00583 0.00506231 0)
(1.00646 0.00373868 0)
(1.00678 0.00232926 0)
(1.00743 0.000927316 0)
(1.00874 -0.000508938 0)
(1.01092 -0.00203935 0)
(1.01413 -0.00375827 0)
(1.01853 -0.00581785 0)
(1.02433 -0.00844713 0)
(1.03176 -0.012062 0)
(1.04119 -0.0173512 0)
(1.0524 -0.025886 0)
(1.06475 -0.039195 0)
(0.996686 -0.00700418 0)
(0.994072 0.000470818 0)
(0.99883 0.00301906 0)
(1.00168 0.00437694 0)
(1.00414 0.00507971 0)
(1.00653 0.00457493 0)
(1.00829 0.00338619 0)
(1.00972 0.0019614 0)
(1.01131 0.000407984 0)
(1.01336 -0.00128883 0)
(1.01608 -0.00317782 0)
(1.01964 -0.00535458 0)
(1.02422 -0.00798393 0)
(1.02999 -0.0113198 0)
(1.03711 -0.0157884 0)
(1.04572 -0.0220381 0)
(1.05548 -0.0312362 0)
(1.06553 -0.0443543 0)
(0.997842 -0.00425349 0)
(0.995426 0.00080208 0)
(0.99869 0.00254118 0)
(1.00125 0.00356819 0)
(1.00385 0.00419217 0)
(1.00661 0.00378962 0)
(1.00898 0.00269445 0)
(1.01112 0.00125862 0)
(1.01337 -0.000419545 0)
(1.01596 -0.00234368 0)
(1.01907 -0.00455824 0)
(1.02289 -0.00716056 0)
(1.02755 -0.0103202 0)
(1.0332 -0.0142961 0)
(1.03991 -0.0194913 0)
(1.04768 -0.0264681 0)
(1.05612 -0.036061 0)
(1.0644 -0.0488808 0)
(0.998468 -0.00272223 0)
(0.9965 0.000573484 0)
(0.998804 0.0018853 0)
(1.00107 0.00271754 0)
(1.00362 0.00321065 0)
(1.00647 0.00282239 0)
(1.00915 0.00176257 0)
(1.01171 0.000293479 0)
(1.01437 -0.00150644 0)
(1.01732 -0.00364094 0)
(1.0207 -0.00615563 0)
(1.02465 -0.00914951 0)
(1.0293 -0.0127902 0)
(1.03473 -0.0173262 0)
(1.04096 -0.0231161 0)
(1.04788 -0.0306201 0)
(1.05512 -0.0404137 0)
(1.06196 -0.0528679 0)
(0.998905 -0.00192983 0)
(0.997423 0.000244117 0)
(0.999102 0.00126706 0)
(1.00109 0.00188938 0)
(1.00349 0.0021926 0)
(1.00627 0.00174491 0)
(1.00906 0.000662754 0)
(1.01183 -0.000870912 0)
(1.01473 -0.00280149 0)
(1.01788 -0.0051392 0)
(1.02139 -0.00793372 0)
(1.02537 -0.0112844 0)
(1.0299 -0.0153511 0)
(1.03502 -0.0203605 0)
(1.0407 -0.0266163 0)
(1.04679 -0.0344761 0)
(1.05292 -0.0443225 0)
(1.05855 -0.0563695 0)
(0.999256 -0.00136922 0)
(0.998216 8.51725e-06 0)
(0.99948 0.000726386 0)
(1.00122 0.00109605 0)
(1.00343 0.00116818 0)
(1.00607 0.000603856 0)
(1.00883 -0.000551538 0)
(1.01167 -0.00218167 0)
(1.01466 -0.0042558 0)
(1.01787 -0.00679336 0)
(1.02139 -0.00984869 0)
(1.02529 -0.0135192 0)
(1.0296 -0.0179521 0)
(1.03434 -0.023345 0)
(1.03943 -0.0299434 0)
(1.04469 -0.0380121 0)
(1.04981 -0.0477935 0)
(1.05437 -0.0594009 0)
(0.999525 -0.000940671 0)
(0.998864 -0.000166266 0)
(0.999865 0.000234983 0)
(1.00141 0.000334573 0)
(1.00343 0.000155293 0)
(1.00588 -0.000567 0)
(1.00854 -0.00183689 0)
(1.01133 -0.00359104 0)
(1.01429 -0.00582035 0)
(1.01746 -0.00855367 0)
(1.02088 -0.0118489 0)
(1.02459 -0.0157988 0)
(1.02861 -0.0205341 0)
(1.03289 -0.0262197 0)
(1.03735 -0.0330453 0)
(1.04181 -0.0411963 0)
(1.046 -0.050816 0)
(1.0496 -0.061953 0)
(0.999716 -0.000650103 0)
(0.999366 -0.000334669 0)
(1.00021 -0.000235687 0)
(1.00159 -0.000403674 0)
(1.00343 -0.000839721 0)
(1.00569 -0.00174719 0)
(1.00819 -0.00316203 0)
(1.01085 -0.00506092 0)
(1.0137 -0.00745286 0)
(1.01673 -0.0103746 0)
(1.01996 -0.0138853 0)
(1.0234 -0.0180707 0)
(1.02704 -0.0230422 0)
(1.03082 -0.0289317 0)
(1.03463 -0.035878 0)
(1.03832 -0.0440023 0)
(1.04163 -0.0533787 0)
(1.04436 -0.0640138 0)
(0.999832 -0.000490368 0)
(0.999701 -0.000501259 0)
(1.00046 -0.000659658 0)
(1.00172 -0.00106239 0)
(1.00341 -0.00172851 0)
(1.00548 -0.00281801 0)
(1.0078 -0.0043822 0)
(1.01031 -0.00642401 0)
(1.01298 -0.0089653 0)
(1.01581 -0.0120476 0)
(1.0188 -0.0157293 0)
(1.02193 -0.0200871 0)
(1.02517 -0.0252143 0)
(1.02845 -0.0312133 0)
(1.03167 -0.038183 0)
(1.03466 -0.0461985 0)
(1.03724 -0.0552899 0)
(1.03925 -0.0654365 0)
(0.999912 -0.000411602 0)
(0.999942 -0.00068463 0)
(1.00065 -0.00108091 0)
(1.00181 -0.0017051 0)
(1.00335 -0.00259005 0)
(1.00524 -0.00386244 0)
(1.00737 -0.00558057 0)
(1.00967 -0.00776569 0)
(1.01213 -0.0104491 0)
(1.01472 -0.0136749 0)
(1.01742 -0.0174985 0)
(1.02019 -0.0219869 0)
(1.023 -0.027215 0)
(1.02577 -0.0332587 0)
(1.02839 -0.0401829 0)
(1.03073 -0.0480264 0)
(1.03263 -0.0567893 0)
(1.03397 -0.0664345 0)
(0.999968 -0.000389938 0)
(1.00012 -0.000914963 0)
(1.00078 -0.00155644 0)
(1.00183 -0.00241494 0)
(1.00322 -0.00353269 0)
(1.00489 -0.00500708 0)
(1.00678 -0.00689834 0)
(1.00883 -0.00924034 0)
(1.01099 -0.0120704 0)
(1.01325 -0.0154329 0)
(1.01557 -0.0193781 0)
(1.01789 -0.0239606 0)
(1.02018 -0.029236 0)
(1.02235 -0.0352537 0)
(1.02431 -0.042048 0)
(1.02595 -0.0496272 0)
(1.02713 -0.0579682 0)
(1.02779 -0.0670259 0)
(1 -0.000424701 0)
(1.00022 -0.00119893 0)
(1.00082 -0.00208985 0)
(1.00175 -0.00318791 0)
(1.00295 -0.00454156 0)
(1.00438 -0.00622499 0)
(1.00599 -0.00829561 0)
(1.00771 -0.0107938 0)
(1.00951 -0.0137587 0)
(1.01135 -0.0172321 0)
(1.01319 -0.0212563 0)
(1.01497 -0.0258724 0)
(1.01665 -0.0311164 0)
(1.01815 -0.0370136 0)
(1.01939 -0.0435727 0)
(1.02028 -0.0507788 0)
(1.02073 -0.0585933 0)
(1.02068 -0.0669685 0)
(1.00002 -0.000502761 0)
(1.00025 -0.00152379 0)
(1.00077 -0.00266256 0)
(1.00155 -0.00399496 0)
(1.00253 -0.00557202 0)
(1.00368 -0.00745189 0)
(1.00494 -0.00968578 0)
(1.00627 -0.0123146 0)
(1.00762 -0.0153757 0)
(1.00895 -0.0189051 0)
(1.01023 -0.0229355 0)
(1.01139 -0.0274941 0)
(1.01238 -0.0325994 0)
(1.01315 -0.0382573 0)
(1.01363 -0.0444573 0)
(1.01376 -0.05117 0)
(1.01347 -0.0583492 0)
(1.01274 -0.0659487 0)
(1.00002 -0.000603202 0)
(1.00021 -0.00185939 0)
(1.00062 -0.00322964 0)
(1.0012 -0.00477429 0)
(1.00192 -0.00654149 0)
(1.00274 -0.00857837 0)
(1.0036 -0.0109282 0)
(1.00447 -0.0136281 0)
(1.00531 -0.0167107 0)
(1.00606 -0.0202045 0)
(1.0067 -0.0241327 0)
(1.00717 -0.0285106 0)
(1.00744 -0.033343 0)
(1.00745 -0.0386225 0)
(1.00717 -0.0443276 0)
(1.00654 -0.0504222 0)
(1.00555 -0.0568593 0)
(1.00417 -0.0635974 0)
(1.00001 -0.000698224 0)
(1.00014 -0.00215209 0)
(1.00039 -0.00371048 0)
(1.00074 -0.00541747 0)
(1.00115 -0.00731224 0)
(1.00159 -0.00943218 0)
(1.00201 -0.011812 0)
(1.00238 -0.0144824 0)
(1.00265 -0.0174701 0)
(1.00278 -0.020797 0)
(1.00275 -0.0244787 0)
(1.00252 -0.0285224 0)
(1.00205 -0.0329253 0)
(1.00133 -0.0376737 0)
(1.00031 -0.0427422 0)
(0.998992 -0.0480951 0)
(0.99735 -0.0536897 0)
(0.995384 -0.0594909 0)
(1 -0.000754166 0)
(1.00003 -0.00232286 0)
(1.00009 -0.00398555 0)
(1.00018 -0.00576379 0)
(1.00026 -0.00768195 0)
(1.0003 -0.00976684 0)
(1.00027 -0.0120439 0)
(1.00013 -0.0145372 0)
(0.999844 -0.0172689 0)
(0.999382 -0.0202572 0)
(0.998717 -0.0235145 0)
(0.997828 -0.0270457 0)
(0.996698 -0.030847 0)
(0.995311 -0.0349051 0)
(0.993658 -0.0391975 0)
(0.991734 -0.0436936 0)
(0.989545 -0.048358 0)
(0.987087 -0.0531626 0)
(0.999989 -0.000732212 0)
(0.999895 -0.00228884 0)
(0.999779 -0.00394804 0)
(0.999657 -0.00569357 0)
(0.999503 -0.0075343 0)
(0.999283 -0.00948644 0)
(0.998961 -0.0115643 0)
(0.998498 -0.0137862 0)
(0.99786 -0.0161731 0)
(0.997021 -0.0187443 0)
(0.995958 -0.0215141 0)
(0.994657 -0.0244907 0)
(0.993108 -0.0276744 0)
(0.991306 -0.031057 0)
(0.989252 -0.0346217 0)
(0.986948 -0.0383444 0)
(0.984408 -0.0421962 0)
(0.981633 -0.0461537 0)
(0.999962 -0.000624946 0)
(0.999699 -0.00210524 0)
(0.999419 -0.00374568 0)
(0.999165 -0.0054495 0)
(0.998892 -0.00721542 0)
(0.998557 -0.00904677 0)
(0.998117 -0.010942 0)
(0.99752 -0.0129159 0)
(0.996725 -0.014993 0)
(0.995704 -0.0171967 0)
(0.994438 -0.0195461 0)
(0.992916 -0.0220548 0)
(0.991134 -0.0247286 0)
(0.989094 -0.0275648 0)
(0.986801 -0.0305521 0)
(0.984265 -0.0336715 0)
(0.981505 -0.0368986 0)
(0.978522 -0.0402127 0)
(0.99989 -0.000386812 0)
(0.99933 -0.00177864 0)
(0.998889 -0.00344699 0)
(0.998584 -0.00514314 0)
(0.998299 -0.00687276 0)
(0.99798 -0.00861266 0)
(0.997558 -0.0103378 0)
(0.996953 -0.0120679 0)
(0.996112 -0.0138394 0)
(0.995007 -0.0156842 0)
(0.993624 -0.0176291 0)
(0.991957 -0.0196952 0)
(0.990009 -0.0218954 0)
(0.987788 -0.0242328 0)
(0.985306 -0.0267012 0)
(0.982577 -0.029286 0)
(0.979624 -0.0319662 0)
(0.976453 -0.0347226 0)
(0.999741 3.07986e-05 0)
(0.998681 -0.00135491 0)
(0.998122 -0.00313789 0)
(0.997894 -0.00487784 0)
(0.997732 -0.00663253 0)
(0.997566 -0.00831463 0)
(0.997279 -0.00987094 0)
(0.996745 -0.0113476 0)
(0.995906 -0.0128054 0)
(0.994745 -0.0142896 0)
(0.993258 -0.0158371 0)
(0.991451 -0.0174781 0)
(0.989335 -0.0192323 0)
(0.986928 -0.0211082 0)
(0.984249 -0.0231032 0)
(0.981316 -0.0252057 0)
(0.978155 -0.0273972 0)
(0.974777 -0.0296585 0)
(0.999491 0.000741832 0)
(0.99765 -0.000936372 0)
(0.997122 -0.00295649 0)
(0.997163 -0.00476975 0)
(0.997275 -0.00659618 0)
(0.997392 -0.00822345 0)
(0.99731 -0.00957708 0)
(0.996855 -0.0107632 0)
(0.995985 -0.011881 0)
(0.994715 -0.0129916 0)
(0.993064 -0.0141427 0)
(0.991055 -0.0153729 0)
(0.988713 -0.016707 0)
(0.986067 -0.018156 0)
(0.983143 -0.0197191 0)
(0.979963 -0.0213858 0)
(0.976554 -0.0231382 0)
(0.972933 -0.0249567 0)
(0.998965 0.00238112 0)
(0.996017 -0.000347704 0)
(0.995975 -0.00295457 0)
(0.996585 -0.0049146 0)
(0.997106 -0.00682898 0)
(0.997578 -0.00834504 0)
(0.99768 -0.00941529 0)
(0.997199 -0.010247 0)
(0.996159 -0.0109859 0)
(0.994635 -0.0117074 0)
(0.992682 -0.0124672 0)
(0.990349 -0.0133082 0)
(0.987679 -0.0142554 0)
(0.98471 -0.0153186 0)
(0.981472 -0.0164952 0)
(0.977988 -0.0177738 0)
(0.974283 -0.019136 0)
(0.970376 -0.0205611 0)
(0.997452 0.00603342 0)
(0.993256 0.00112735 0)
(0.994746 -0.00279438 0)
(0.99643 -0.00524194 0)
(0.997469 -0.00729671 0)
(0.998239 -0.00859181 0)
(0.998331 -0.00926033 0)
(0.997555 -0.00966093 0)
(0.996066 -0.00998532 0)
(0.994036 -0.0103157 0)
(0.991572 -0.0107076 0)
(0.988747 -0.0111993 0)
(0.98562 -0.0118092 0)
(0.98223 -0.0125397 0)
(0.978604 -0.0133835 0)
(0.974759 -0.0143263 0)
(0.970711 -0.0153487 0)
(0.96648 -0.0164293 0)
(0.994447 0.00853032 0)
(0.989298 0.00204529 0)
(0.993608 -0.00245328 0)
(0.996944 -0.00559186 0)
(0.998565 -0.0078304 0)
(0.999358 -0.00875333 0)
(0.998957 -0.00889124 0)
(0.997361 -0.00880266 0)
(0.99496 -0.00871023 0)
(0.992061 -0.0086848 0)
(0.988814 -0.00876613 0)
(0.985306 -0.00897596 0)
(0.981588 -0.00931718 0)
(0.977685 -0.00978092 0)
(0.973605 -0.0103526 0)
(0.969351 -0.0110148 0)
(0.964925 -0.0117478 0)
(0.960339 -0.0125309 0)
(0.994521 -0.00658058 0)
(0.989346 -0.00859974 0)
(0.995015 -0.00560187 0)
(0.99899 -0.00676733 0)
(1.00058 -0.00839718 0)
(1.00049 -0.00859927 0)
(0.998507 -0.00807043 0)
(0.995132 -0.00749033 0)
(0.991112 -0.00704947 0)
(0.986866 -0.00676453 0)
(0.982532 -0.00663539 0)
(0.978148 -0.00665622 0)
(0.973719 -0.00681085 0)
(0.969225 -0.00707839 0)
(0.96464 -0.00743837 0)
(0.959938 -0.00787218 0)
(0.955102 -0.00836213 0)
(0.950127 -0.00888656 0)
(1.02644 -0.0702325 0)
(1.01692 -0.0624387 0)
(1.01143 -0.0293653 0)
(1.00759 -0.0151854 0)
(1.00407 -0.0108157 0)
(0.999235 -0.00849271 0)
(0.992784 -0.0067883 0)
(0.985752 -0.00568514 0)
(0.979027 -0.00503923 0)
(0.972842 -0.00467503 0)
(0.967097 -0.00449576 0)
(0.961652 -0.00445539 0)
(0.956391 -0.00452252 0)
(0.951217 -0.00467093 0)
(0.946046 -0.00487984 0)
(0.940818 -0.00513464 0)
(0.935497 -0.00542455 0)
(0.930067 -0.00576295 0)
(0.96622 0.35002 0)
(1.02678 0.19391 0)
(1.03213 0.0676302 0)
(1.0033 0.0150066 0)
(0.974096 -0.00154721 0)
(0.952841 -0.00464507 0)
(0.937507 -0.00399369 0)
(0.925799 -0.00292581 0)
(0.916422 -0.00220475 0)
(0.908476 -0.00182611 0)
(0.90131 -0.00166899 0)
(0.894533 -0.00164454 0)
(0.887925 -0.001699 0)
(0.881358 -0.00179952 0)
(0.874751 -0.00192562 0)
(0.868057 -0.00206675 0)
(0.86124 -0.00221252 0)
(0.854308 -0.00241183 0)
(-0.0065386 0.010131 5.5483e-24)
(-0.0132286 0.0113675 7.8071e-24)
(-0.0207259 0.0108563 0)
(-0.0287661 0.00945043 0)
(-0.0358998 0.00792062 0)
(-0.0421811 0.00654617 -2.92159e-24)
(-0.0477025 0.00535271 0)
(-0.0525137 0.00429591 0)
(-0.0566427 0.00332595 0)
(-0.0601015 0.00240033 0)
(-0.0628859 0.00148654 -1.51034e-22)
(-0.0649771 0.000562888 0)
(-0.0663482 -0.000381997 0)
(-0.0669618 -0.00134715 0)
(-0.0668015 -0.00233062 0)
(-0.0658417 -0.00333308 -4.7169e-22)
(-0.0640572 -0.00435128 0)
(-0.0614299 -0.00537801 0)
(-0.0579475 -0.00640349 0)
(-0.0536061 -0.00741663 0)
(-0.0484097 -0.00840513 0)
(-0.0423706 -0.00935608 0)
(-0.0355118 -0.0102558 0)
(-0.0278611 -0.0110903 -1.32226e-21)
(-0.0194555 -0.0118478 1.45534e-21)
(-0.0103359 -0.0125169 -1.57317e-21)
(-0.000540974 -0.0130931 -1.66673e-21)
(0.00987667 -0.0135811 0)
(0.0208572 -0.0139831 0)
(0.0323371 -0.0143005 1.90793e-21)
(0.044251 -0.0145347 1.9769e-21)
(0.0565324 -0.0146882 0)
(0.0691142 -0.0147641 0)
(0.0819299 -0.0147664 2.14762e-21)
(0.0949139 -0.0146994 0)
(0.108002 -0.0145683 0)
(0.121135 -0.0143785 -2.26552e-21)
(0.134252 -0.0141356 0)
(0.1473 -0.0138457 -2.31747e-21)
(0.160229 -0.0135145 -4.67262e-21)
(0.172992 -0.013148 0)
(0.185547 -0.0127519 0)
(0.197857 -0.0123319 0)
(0.20989 -0.0118931 0)
(-0.00642701 0.027638 -4.52583e-24)
(-0.0120496 0.0261442 -2.99449e-23)
(-0.0175034 0.0244639 0)
(-0.0233171 0.0224258 3.65432e-23)
(-0.0289346 0.0201871 0)
(-0.0342558 0.0179444 1.62565e-24)
(-0.0392303 0.0157691 2.07881e-24)
(-0.0437903 0.0136597 2.55315e-23)
(-0.0478665 0.0115873 0)
(-0.0513968 0.009518 8.8671e-23)
(-0.0543256 0.00742192 7.63959e-23)
(-0.0566029 0.0052781 0)
(-0.0581831 0.00307627 0)
(-0.0590294 0.000815816 0)
(-0.0590947 -0.00149676 0)
(-0.0583419 -0.00385109 2.28856e-22)
(-0.0567434 -0.0062325 0)
(-0.0542795 -0.0086226 -5.60659e-22)
(-0.0509384 -0.0110004 0)
(-0.0467162 -0.0133436 0)
(-0.0416174 -0.0156292 8.25639e-22)
(-0.0356541 -0.0178346 0)
(-0.0288462 -0.0199379 -1.02685e-21)
(-0.0212214 -0.0219185 6.12562e-22)
(-0.0128147 -0.023757 -6.68042e-22)
(-0.00367032 -0.0254356 7.19982e-22)
(0.00615737 -0.026942 7.69827e-22)
(0.016613 -0.0282691 0)
(0.0276416 -0.0294124 0)
(0.0391845 -0.0303694 -9.13689e-22)
(0.051179 -0.0311399 8.51211e-22)
(0.0635608 -0.0317263 0)
(0.0762645 -0.0321325 0)
(0.089225 -0.0323649 -1.08354e-21)
(0.102378 -0.0324315 0)
(0.11566 -0.0323418 0)
(0.12901 -0.0321065 1.189e-21)
(0.142371 -0.0317372 0)
(0.155688 -0.0312466 -1.14978e-21)
(0.16891 -0.0306473 2.54739e-21)
(0.181989 -0.0299525 0)
(0.194882 -0.0291752 0)
(0.207552 -0.0283283 5.1796e-21)
(0.219963 -0.0274242 5.2547e-21)
(-0.0040703 0.0411674 8.49366e-23)
(-0.00917579 0.0378152 1.0244e-22)
(-0.0141104 0.0352664 0)
(-0.0193826 0.0328326 -1.00821e-22)
(-0.0246372 0.030294 0)
(-0.0297488 0.0276346 0)
(-0.03464 0.0248627 -3.56639e-23)
(-0.0392194 0.0219754 -1.85045e-23)
(-0.0433912 0.0189626 -4.43981e-24)
(-0.0470667 0.0158137 -6.3016e-23)
(-0.0501669 0.0125221 0)
(-0.0526223 0.00908773 0)
(-0.054372 0.00551802 1.18961e-22)
(-0.0553638 0.00182719 3.11608e-22)
(-0.0555539 -0.00196371 -3.91643e-22)
(-0.0549071 -0.00582817 0)
(-0.0533964 -0.00973459 -5.71673e-22)
(-0.0510033 -0.0136483 3.82451e-22)
(-0.0477175 -0.0175331 0)
(-0.0435372 -0.0213522 -8.91104e-22)
(-0.0384689 -0.0250694 -5.58117e-22)
(-0.032527 -0.02865 1.13552e-21)
(-0.0257338 -0.0320616 6.9044e-22)
(-0.0181189 -0.0352751 0)
(-0.00971964 -0.0382651 -1.53837e-21)
(-0.000579296 -0.0410085 -1.6699e-21)
(0.009251 -0.0434873 0)
(0.019717 -0.0456865 -1.93404e-21)
(0.0307614 -0.0475954 0)
(0.0423236 -0.0492084 -2.1962e-21)
(0.0543406 -0.0505238 -1.22723e-21)
(0.0667481 -0.0515437 0)
(0.0794811 -0.0522741 0)
(0.0924746 -0.052724 0)
(0.105665 -0.0529053 0)
(0.118989 -0.0528323 0)
(0.132388 -0.0525215 0)
(0.145802 -0.0519909 -3.13484e-21)
(0.159179 -0.0512599 4.90795e-21)
(0.172467 -0.0503484 0)
(0.185619 -0.049277 0)
(0.198593 -0.0480664 0)
(0.211349 -0.0467369 -1.04049e-22)
(0.223852 -0.0453085 -3.74544e-21)
(-0.00283554 0.0521142 -5.62565e-22)
(-0.00761633 0.0489855 -4.42626e-22)
(-0.0124906 0.0464076 -3.07569e-22)
(-0.0177723 0.0438665 -2.0626e-22)
(-0.0231228 0.0411007 0)
(-0.0283684 0.0380404 2.03779e-22)
(-0.033409 0.0346705 -1.41819e-22)
(-0.0381472 0.0309904 0)
(-0.0424834 0.0270049 3.67875e-24)
(-0.0463228 0.022724 0)
(-0.0495792 0.0181634 6.68892e-24)
(-0.0521761 0.0133451 0)
(-0.0540464 0.00829792 -9.70556e-23)
(-0.0551332 0.00305675 -2.53648e-22)
(-0.0553895 -0.00233731 3.1804e-22)
(-0.0547781 -0.00783893 0)
(-0.0532713 -0.0133987 4.62467e-22)
(-0.0508509 -0.0189646 0)
(-0.0475083 -0.0244839 0)
(-0.0432439 -0.0299038 7.17865e-22)
(-0.0380671 -0.0351733 0)
(-0.0319961 -0.0402436 -8.51857e-23)
(-0.0250567 -0.0450697 0)
(-0.0172828 -0.0496111 0)
(-0.00871539 -0.0538325 8.35553e-23)
(0.000599395 -0.0577013 1.33929e-21)
(0.0106083 -0.0611931 1.36464e-21)
(0.0212543 -0.0642887 1.55362e-21)
(0.0324768 -0.0669752 0)
(0.0442126 -0.0692455 3.45686e-21)
(0.0563966 -0.0710979 0)
(0.0689628 -0.0725362 1.90126e-21)
(0.0818451 -0.073569 0)
(0.0949778 -0.0742092 0)
(0.108297 -0.0744737 -2.20425e-21)
(0.121739 -0.0743826 0)
(0.135245 -0.0739588 2.39209e-21)
(0.148757 -0.0732275 6.82634e-23)
(0.162222 -0.0722155 -5.19896e-21)
(0.17559 -0.0709506 5.29497e-21)
(0.188813 -0.0694614 0)
(0.201851 -0.0677764 0)
(0.214664 -0.0659239 2.80754e-21)
(0.22722 -0.0639317 0)
(-0.00276086 0.0617636 4.6911e-22)
(-0.00755115 0.0597938 3.49096e-22)
(-0.0126499 0.0576389 2.86042e-22)
(-0.0182274 0.0551906 2.46432e-22)
(-0.0239159 0.0522708 0)
(-0.0295025 0.0488315 -5.20313e-22)
(-0.0348661 0.0448662 -1.44609e-22)
(-0.0399009 0.0403852 0)
(-0.0445023 0.0354097 0)
(-0.0485717 0.0299698 0)
(-0.0520188 0.0241031 -5.8806e-24)
(-0.0547631 0.0178544 0)
(-0.0567346 0.0112755 0)
(-0.0578737 0.0044239 0)
(-0.0581316 -0.00263729 0)
(-0.0574706 -0.00984165 0)
(-0.0558636 -0.0171194 -2.30128e-22)
(-0.0532944 -0.0243994 -3.03888e-22)
(-0.0497571 -0.0316103 0)
(-0.0452561 -0.0386823 0)
(-0.0398058 -0.0455483 5.50398e-22)
(-0.0334297 -0.052145 -1.36146e-21)
(-0.0261599 -0.0584144 0)
(-0.0180363 -0.0643046 -8.31671e-22)
(-0.0091064 -0.0697704 1.00111e-21)
(0.000577453 -0.0747711 0)
(0.0109564 -0.0792761 -3.43516e-21)
(0.021968 -0.0832625 2.44109e-21)
(0.0335467 -0.0867153 -2.63592e-21)
(0.0456249 -0.0896268 -1.47351e-21)
(0.0581339 -0.0919966 0)
(0.0710048 -0.0938307 -4.87082e-21)
(0.0841692 -0.0951415 0)
(0.0975599 -0.0959465 0)
(0.111112 -0.0962683 1.92736e-21)
(0.124762 -0.0961335 -3.92852e-21)
(0.13845 -0.095572 -6.18927e-21)
(0.152121 -0.0946164 6.4292e-21)
(0.165721 -0.0933013 2.24903e-21)
(0.1792 -0.0916627 -4.64363e-21)
(0.192515 -0.0897371 0)
(0.205625 -0.0875611 0)
(0.218494 -0.085171 -7.77394e-23)
(0.231089 -0.0826021 0)
(-0.0034117 0.0720396 0)
(-0.008607 0.0714211 -9.90961e-22)
(-0.0142619 0.069794 0)
(-0.0204433 0.0674711 0)
(-0.026722 0.0643722 0)
(-0.032854 0.0604912 -1.88296e-22)
(-0.038707 0.0558462 -1.74938e-22)
(-0.0441691 0.0504677 -3.9915e-22)
(-0.0491318 0.0443976 0)
(-0.0534925 0.0376881 0)
(-0.0571584 0.0304002 0)
(-0.0600469 0.0226031 0)
(-0.0620864 0.0143726 0)
(-0.0632169 0.00579071 -1.84913e-22)
(-0.0633899 -0.00305568 0)
(-0.0625693 -0.0120769 -6.77078e-23)
(-0.060731 -0.0211807 2.09627e-22)
(-0.0578627 -0.0302744 2.76799e-22)
(-0.0539641 -0.0392663 0)
(-0.0490465 -0.0480679 0)
(-0.0431319 -0.0565946 -5.01302e-22)
(-0.0362521 -0.064768 5.83402e-22)
(-0.0284484 -0.0725167 0)
(-0.01977 -0.0797773 7.57321e-22)
(-0.0102737 -0.0864957 -1.5566e-21)
(-2.07036e-05 -0.0926242 0)
(0.0109218 -0.0981268 2.0473e-21)
(0.0224836 -0.102978 -2.22516e-21)
(0.0345922 -0.107162 2.40287e-21)
(0.0471743 -0.110673 0)
(0.0601564 -0.113513 0)
(0.0734657 -0.115691 2.92759e-21)
(0.0870312 -0.117225 0)
(0.100784 -0.118139 0)
(0.114658 -0.118462 -3.35221e-21)
(0.12859 -0.118229 7.09721e-21)
(0.142521 -0.117477 3.73653e-21)
(0.156396 -0.116247 -7.70396e-21)
(0.170164 -0.114581 3.96441e-21)
(0.183777 -0.112525 0)
(0.197194 -0.110123 0)
(0.210376 -0.10742 0)
(0.223289 -0.10446 -4.53419e-21)
(0.235905 -0.101286 0)
(-0.0045187 0.0843407 0)
(-0.0104707 0.084901 9.55272e-22)
(-0.0170047 0.0836587 0)
(-0.0240913 0.0813236 1.76371e-21)
(-0.0312106 0.0778979 1.54228e-21)
(-0.0380875 0.0734157 -9.11568e-22)
(-0.0445855 0.0679219 -8.2914e-22)
(-0.0505916 0.0614706 -7.5783e-22)
(-0.0559946 0.0541266 -1.02112e-21)
(-0.0606903 0.0459662 0)
(-0.0645841 0.0370754 0)
(-0.0675928 0.0275487 6.94226e-22)
(-0.069645 0.0174883 0)
(-0.0706822 0.00700207 6.29469e-22)
(-0.0706582 -0.00379684 0)
(-0.0695415 -0.0147933 6.33581e-23)
(-0.067313 -0.0258699 0)
(-0.0639681 -0.0369101 0)
(-0.0595153 -0.0477998 -2.57894e-22)
(-0.0539761 -0.0584297 0)
(-0.0473839 -0.0686967 -5.91081e-22)
(-0.0397831 -0.0785062 0)
(-0.0312274 -0.0877731 0)
(-0.0217792 -0.0964233 0)
(-0.0115073 -0.104394 1.37485e-22)
(-0.000485453 -0.111633 0)
(0.0112087 -0.1181 0)
(0.0234949 -0.123769 0)
(0.0362927 -0.128626 0)
(0.0495216 -0.132669 0)
(0.0631027 -0.135904 0)
(0.0769595 -0.138347 2.58694e-21)
(0.0910183 -0.140023 0)
(0.105209 -0.140964 -2.92092e-21)
(0.119465 -0.141207 5.84729e-23)
(0.133724 -0.140796 -3.29008e-21)
(0.14793 -0.139777 0)
(0.162028 -0.138201 3.57663e-21)
(0.17597 -0.136118 -3.71195e-21)
(0.189714 -0.133583 0)
(0.203219 -0.130648 0)
(0.216452 -0.127367 0)
(0.229382 -0.123791 0)
(0.241983 -0.119972 0)
(-0.00595052 0.0996023 5.65697e-21)
(-0.0129399 0.101032 0)
(-0.020621 0.0998951 0)
(-0.0288623 0.0972877 -4.00031e-21)
(-0.037031 0.0932812 -1.46404e-21)
(-0.0448164 0.0879443 -5.10925e-22)
(-0.0520818 0.0813476 1.18212e-21)
(-0.0587157 0.0735689 -4.42506e-22)
(-0.0646067 0.0646973 9.6797e-22)
(-0.0696494 0.0548337 0)
(-0.0737489 0.0440906 0)
(-0.0768226 0.0325899 -6.59936e-22)
(-0.0788007 0.0204618 0)
(-0.0796277 0.00784302 -4.34955e-22)
(-0.0792625 -0.00512462 0)
(-0.0776801 -0.0182973 0)
(-0.0748708 -0.0315296 0)
(-0.0708409 -0.044678 0)
(-0.0656122 -0.0576033 2.46464e-22)
(-0.059221 -0.0701735 0)
(-0.0517169 -0.0822657 5.65288e-22)
(-0.0431611 -0.0937684 0)
(-0.033625 -0.104583 0)
(-0.0231875 -0.114627 9.27898e-22)
(-0.0119337 -0.123829 1.26493e-21)
(4.76333e-05 -0.132135 1.31333e-21)
(0.0126657 -0.139504 1.50193e-21)
(0.0258291 -0.145913 0)
(0.0394479 -0.151352 1.87251e-21)
(0.0534348 -0.155826 2.0531e-21)
(0.0677057 -0.159349 2.22978e-21)
(0.0821807 -0.161947 -2.46901e-21)
(0.0967848 -0.163654 0)
(0.111448 -0.164511 2.78583e-21)
(0.126104 -0.164568 4.86364e-23)
(0.140695 -0.163876 -3.0402e-21)
(0.155166 -0.162494 -3.18575e-21)
(0.169467 -0.160481 0)
(0.183555 -0.157897 3.4591e-21)
(0.197391 -0.154807 0)
(0.21094 -0.151271 0)
(0.224172 -0.14735 -7.64794e-21)
(0.237063 -0.143106 -7.86709e-21)
(0.249591 -0.138594 0)
(-0.00762418 0.118532 -5.52308e-21)
(-0.0158577 0.120425 -4.84016e-21)
(-0.024879 0.119014 0)
(-0.034448 0.115778 2.22275e-21)
(-0.043805 0.110847 0)
(-0.0526003 0.104318 -5.81323e-22)
(-0.0606984 0.0962866 2.12072e-21)
(-0.0679915 0.0868522 1.45025e-21)
(-0.0743685 0.0761281 0)
(-0.0797234 0.0642412 1.66345e-21)
(-0.0839614 0.0513312 0)
(-0.0870007 0.0375496 0)
(-0.0887743 0.0230576 0)
(-0.0892313 0.00802422 1.10106e-21)
(-0.0883379 -0.00737637 0)
(-0.0860792 -0.0229674 0)
(-0.0824585 -0.0385712 -6.12344e-22)
(-0.0774982 -0.0540133 0)
(-0.0712387 -0.0691265 0)
(-0.0637371 -0.0837536 6.57761e-23)
(-0.0550652 -0.0977507 0)
(-0.0453071 -0.11099 -3.26345e-22)
(-0.0345565 -0.12336 0)
(-0.0229139 -0.134771 -1.63554e-21)
(-0.0104845 -0.14515 9.38718e-22)
(0.00262566 -0.154441 -1.349e-22)
(0.0163105 -0.162608 -1.19622e-22)
(0.030467 -0.169636 -1.53154e-21)
(0.0449961 -0.175525 -1.81438e-21)
(0.0598045 -0.18029 -3.8946e-21)
(0.0748043 -0.183957 -7.15281e-23)
(0.0899145 -0.186564 0)
(0.105061 -0.188158 0)
(0.120175 -0.188794 -5.18338e-21)
(0.135196 -0.188532 2.79003e-21)
(0.150069 -0.187437 2.93498e-21)
(0.164745 -0.185576 3.07439e-21)
(0.179181 -0.183021 0)
(0.193339 -0.179842 -9.95597e-21)
(0.207186 -0.176111 6.86927e-21)
(0.220695 -0.171898 7.10641e-21)
(0.233842 -0.167273 7.37211e-21)
(0.246607 -0.162301 7.58254e-21)
(0.258974 -0.157049 0)
(-0.00945953 0.141647 0)
(-0.0190616 0.143492 4.68645e-21)
(-0.0295271 0.141334 0)
(-0.0405028 0.137032 3.67635e-21)
(-0.0510973 0.130758 0)
(-0.060921 0.122632 2.23693e-21)
(-0.0698412 0.112768 -2.04752e-21)
(-0.0777544 0.101286 2.45785e-21)
(-0.0845495 0.0883221 0)
(-0.0901194 0.0740295 -1.61627e-21)
(-0.0943686 0.0585771 0)
(-0.0972159 0.0421485 0)
(-0.0985973 0.0249403 0)
(-0.098468 0.00715858 -1.07864e-21)
(-0.0968044 -0.0109844 1.31881e-21)
(-0.0936056 -0.0292728 0)
(-0.0888929 -0.0474906 1.54727e-21)
(-0.0827116 -0.0654276 -7.48231e-22)
(-0.0751279 -0.0828842 0)
(-0.0662277 -0.0996756 -6.47706e-23)
(-0.0561123 -0.115636 0)
(-0.0448958 -0.130623 3.2146e-22)
(-0.0327004 -0.144516 3.18882e-22)
(-0.0196528 -0.157221 1.26408e-21)
(-0.0058818 -0.168668 -1.68548e-21)
(0.00848729 -0.178807 -1.11917e-21)
(0.0233332 -0.187614 -3.68762e-21)
(0.0385419 -0.195088 1.50078e-21)
(0.0540076 -0.201243 -3.18334e-21)
(0.0696333 -0.206111 5.43329e-21)
(0.0853308 -0.209735 -2.03944e-21)
(0.101021 -0.212169 0)
(0.116634 -0.213477 -4.64001e-21)
(0.132109 -0.213726 5.05631e-21)
(0.14739 -0.212993 5.28311e-21)
(0.16243 -0.211353 0)
(0.177191 -0.208887 0)
(0.191635 -0.205677 -6.14184e-21)
(0.205735 -0.201802 6.44251e-21)
(0.219466 -0.197342 -1.33298e-20)
(0.232807 -0.192376 -1.37917e-20)
(0.245742 -0.186981 0)
(0.258258 -0.181228 0)
(0.270346 -0.175189 0)
(-0.0113554 0.169234 1.15303e-20)
(-0.0223509 0.170405 -7.47309e-21)
(-0.0342592 0.166945 0)
(-0.0466092 0.161073 -3.56073e-21)
(-0.0583825 0.152981 0)
(-0.0691525 0.142798 -3.54489e-21)
(-0.078791 0.130651 0)
(-0.0871979 0.116678 -2.40082e-21)
(-0.0942613 0.101034 0)
(-0.0998708 0.0838988 2.66332e-21)
(-0.103928 0.0654726 0)
(-0.106352 0.0459755 0)
(-0.107081 0.0256453 0)
(-0.106078 0.00473322 -1.95497e-21)
(-0.103332 -0.0165022 -1.30977e-21)
(-0.0988626 -0.037797 0)
(-0.0927165 -0.0588882 -9.4093e-22)
(-0.0849706 -0.0795226 7.45266e-22)
(-0.0757274 -0.0994634 0)
(-0.0651111 -0.118496 0)
(-0.053263 -0.136435 0)
(-0.0403349 -0.153124 0)
(-0.0264842 -0.16844 -3.17735e-22)
(-0.0118685 -0.182294 -5.3861e-22)
(0.00335831 -0.194625 7.56013e-22)
(0.0190516 -0.205401 0)
(0.0350773 -0.214618 2.34942e-21)
(0.0513143 -0.222298 -2.53193e-21)
(0.067654 -0.228477 6.09417e-21)
(0.0840011 -0.23321 -3.51729e-21)
(0.100272 -0.23656 0)
(0.116397 -0.238604 0)
(0.132313 -0.239422 4.5616e-21)
(0.147971 -0.239099 0)
(0.163328 -0.237726 -5.18649e-21)
(0.178347 -0.235393 5.42119e-21)
(0.193001 -0.232191 0)
(0.207266 -0.228211 1.19997e-20)
(0.221122 -0.223542 0)
(0.234555 -0.218271 6.50956e-21)
(0.247554 -0.212484 6.73569e-21)
(0.26011 -0.206262 -6.92763e-21)
(0.272219 -0.199684 0)
(0.283877 -0.192824 0)
(-0.0131795 0.201282 -1.11892e-20)
(-0.0254688 0.20105 7.26444e-21)
(-0.0386899 0.195667 -6.60044e-21)
(-0.0522474 0.187672 0)
(-0.065011 0.177243 0)
(-0.0765244 0.164507 -8.15939e-22)
(-0.0866645 0.149592 0)
(-0.0953339 0.132644 0)
(-0.102416 0.113837 0)
(-0.107795 0.093376 6.46006e-22)
(-0.111366 0.071494 0)
(-0.113044 0.0484546 0)
(-0.11277 0.0245465 0)
(-0.110517 7.7835e-05 1.96278e-21)
(-0.106293 -0.024634 4.5239e-21)
(-0.100142 -0.0492628 0)
(-0.09215 -0.0734869 0)
(-0.0824379 -0.0970006 0)
(-0.0711587 -0.119525 2.47541e-21)
(-0.058489 -0.140814 1.92764e-21)
(-0.0446213 -0.160665 -1.37294e-21)
(-0.0297547 -0.178917 -8.15587e-22)
(-0.0140876 -0.195457 0)
(0.00218851 -0.210211 0)
(0.0188972 -0.22314 0)
(0.0358785 -0.234246 0)
(0.0529919 -0.243558 0)
(0.070116 -0.251128 2.18518e-22)
(0.0871478 -0.257025 -2.93066e-21)
(0.104002 -0.261332 0)
(0.120607 -0.264139 0)
(0.136909 -0.265545 0)
(0.152861 -0.265652 0)
(0.16843 -0.264561 0)
(0.183588 -0.262378 0)
(0.198317 -0.259205 -5.34554e-21)
(0.212601 -0.255142 0)
(0.226431 -0.250289 -5.89006e-21)
(0.2398 -0.244741 0)
(0.252705 -0.238593 0)
(0.265143 -0.231933 0)
(0.277116 -0.224846 6.81422e-21)
(0.288625 -0.217415 0)
(0.299675 -0.209717 0)
(-0.0147684 0.237391 0)
(-0.0280904 0.234956 0)
(-0.042332 0.226985 6.4638e-21)
(-0.056763 0.216286 0)
(-0.0701685 0.202986 0)
(-0.0820738 0.187184 4.24766e-21)
(-0.0923621 0.168997 0)
(-0.100935 0.14857 4.49248e-21)
(-0.107668 0.126088 0)
(-0.112432 0.101778 4.75638e-21)
(-0.115111 0.0759129 0)
(-0.115612 0.0488092 0)
(-0.113879 0.0208206 0)
(-0.109894 -0.00766951 0)
(-0.103692 -0.036265 -4.60834e-21)
(-0.095357 -0.0645568 5.1533e-21)
(-0.0850291 -0.092147 0)
(-0.0728941 -0.118665 0)
(-0.0591748 -0.143785 -2.52639e-21)
(-0.0441181 -0.167234 -1.96646e-21)
(-0.0279812 -0.188801 -6.20202e-22)