/*--------------------------------*- C++ -*----------------------------------*\
  =========                 |
  \\      /  F ield         | OpenFOAM: The Open Source CFD Toolbox
   \\    /   O peration     | Website:  https://openfoam.org
    \\  /    A nd           | Version:  6
     \\/     M anipulation  |
\*---------------------------------------------------------------------------*/
FoamFile
{
    version     2.0;
    format      ascii;
    class       volScalarField;
    location    "0.24";
    object      epsilon;
}
// * * * * * * * * * * * * * * * * * * * * * * * * * * * * * * * * * * * * * //

dimensions      [0 2 -3 0 0 0 0];

internalField   nonuniform List<scalar> 
12225
(
307.554
159.142
103.206
76.1802
60.8917
51.354
44.9142
40.2545
36.6907
33.8507
31.5192
29.5624
27.8925
26.4483
25.1853
24.071
23.0797
22.2453
71.6108
59.7633
44.4174
34.349
27.8021
23.3529
20.2005
17.8783
16.1026
14.6996
13.5607
12.6165
11.8201
11.139
10.5498
10.0352
9.58121
9.1727
33.6139
34.4055
29.2906
24.3864
20.5356
17.6093
15.3794
13.6554
12.296
11.2019
10.3046
9.55651
8.9239
8.38245
7.9142
7.50567
7.14646
6.82846
22.4947
24.1974
22.2225
19.5419
17.0649
14.9828
13.2828
11.9022
10.7748
9.84485
9.06897
8.41424
7.85586
7.37504
6.95746
6.59208
6.27057
5.98821
18.0525
19.1659
18.2265
16.5959
14.8967
13.3495
12.0108
10.8752
9.91687
9.10653
8.41762
7.82795
7.31957
6.87814
6.49228
6.15299
5.85356
5.59099
15.9662
16.4001
15.7672
14.6432
13.3964
12.1983
11.1154
10.1639
9.33796
8.62365
8.00542
7.46864
7.00054
6.59034
6.22912
5.90964
5.62649
5.37778
14.903
14.7895
14.1897
13.3006
12.3143
11.3432
10.4411
9.62825
8.90691
8.2713
7.71251
7.22097
6.78765
6.40449
6.06453
5.762
5.4926
5.25523
14.3404
13.8261
13.1601
12.3652
11.5231
10.6961
9.91942
9.20916
8.56933
7.99761
7.48866
7.03602
6.63318
6.27405
5.95316
5.66591
5.40892
5.18161
14.0387
13.2461
12.4873
11.7147
10.9458
10.2062
9.51374
8.87735
8.29946
7.77844
7.31047
6.89078
6.5144
6.17653
5.8728
5.59948
5.35388
5.13581
13.8768
12.8995
12.0524
11.2678
10.5298
9.83968
9.20107
8.61587
8.0835
7.60149
7.16628
6.77378
6.41983
6.10042
5.8119
5.55113
5.31593
5.10637
13.7906
12.6958
11.7767
10.9671
10.2363
9.57091
8.96456
8.41313
7.91282
7.45973
7.04981
6.67904
6.34354
6.03972
5.76432
5.5146
5.28872
5.08685
13.7489
12.5882
11.6206
10.7868
10.0518
9.39519
8.80487
8.27256
7.79192
7.35761
6.96488
6.60943
6.28738
5.99522
5.72988
5.48882
5.27037
5.07474
13.7254
12.5235
11.521
10.6659
9.92274
9.26802
8.68592
8.16532
7.69784
7.27686
6.89689
6.55321
6.24179
5.9591
5.70211
5.46837
5.25632
5.06612
13.7116
12.4831
11.4547
10.5809
9.8278
9.17069
8.5918
8.07804
7.61945
7.20827
6.83822
6.50414
6.2017
5.92726
5.67775
5.45073
5.24466
5.05964
13.7045
12.4608
11.416
10.5284
9.76602
9.1045
8.52533
8.01439
7.56071
7.15568
6.79241
6.46529
6.16969
5.90176
5.65836
5.43699
5.23608
5.0556
13.7012
12.4503
11.3966
10.5006
9.7316
9.06588
8.48493
7.97432
7.52261
7.12073
6.76138
6.4386
6.14753
5.88415
5.64517
5.42804
5.2311
5.05421
13.7
12.4461
11.3886
10.4886
9.71594
9.04748
8.4649
7.95374
7.50247
7.10183
6.74432
6.42381
6.13527
5.87457
5.63833
5.42392
5.22961
5.05515
13.6996
12.4449
11.3862
10.4848
9.71086
9.04129
8.45795
7.94641
7.49516
7.09489
6.73803
6.41842
6.13096
5.87145
5.63647
5.42335
5.23033
5.05708
13.6998
12.4453
11.387
10.486
9.71247
9.04326
8.46018
7.9488
7.49761
7.09731
6.74036
6.4206
6.13295
5.87324
5.63804
5.42469
5.23144
5.05799
13.701
12.4493
11.3947
10.4976
9.72763
9.06119
8.47986
7.96921
7.5178
7.1165
6.75794
6.4361
6.14608
5.8838
5.64596
5.42995
5.23411
5.05824
13.7054
12.4634
11.4201
10.5336
9.7719
9.11063
8.53149
8.02044
7.56663
7.16149
6.79815
6.47101
6.17543
5.90759
5.6643
5.44309
5.24235
5.06207
13.7204
12.5081
11.4948
10.6317
9.88425
9.2286
8.64817
8.13094
7.66783
7.25167
6.8766
6.5377
6.23078
5.95225
5.69908
5.4688
5.25987
5.07243
13.767
12.633
11.6842
10.8596
10.1263
9.46683
8.87114
8.33239
7.84512
7.40448
7.00596
6.64537
6.31882
6.0228
5.75417
5.51032
5.28953
5.09202
13.9007
12.9462
12.1086
11.3251
10.5843
9.88982
9.24647
8.65673
8.12025
7.63464
7.19635
6.80126
6.44517
6.12401
5.83407
5.57217
5.3361
5.12595
14.2607
13.6658
12.974
12.1888
11.372
10.5738
9.8239
9.13626
8.5147
7.95738
7.45968
7.01582
6.61988
6.2662
5.94969
5.66598
5.41193
5.1872
15.1941
15.2319
14.6347
13.6937
12.6456
11.6176
10.6673
9.81511
9.06229
8.40176
7.82332
7.31634
6.87088
6.47817
6.13069
5.82218
5.54805
5.30716
17.6338
18.6177
17.7644
16.258
14.6629
13.1886
11.8967
10.7898
9.84899
9.04944
8.3675
7.78264
7.27786
6.83936
6.45602
6.11902
5.82178
5.56202
24.7058
26.4229
23.9014
20.7812
17.9998
15.7043
13.8525
12.3634
11.1581
10.1718
9.35474
8.66955
8.08834
7.59018
7.1592
6.78334
6.45365
6.16627
51.9669
47.7357
37.7987
30.1744
24.7626
20.8812
18.0409
15.9128
14.2759
12.9836
11.939
11.0777
10.3552
9.74063
9.21149
8.75141
8.34842
7.99655
251.833
137.373
90.8043
67.16
53.3513
44.5811
38.6437
34.3885
31.1841
28.6714
26.6376
24.9506
23.5245
22.3012
21.2395
20.3091
19.4877
18.7606
0.0513092
0.0560805
0.0714797
0.0773393
0.0821864
0.0897515
0.0996232
0.112147
0.128315
0.149572
0.17229
0.197722
0.226141
0.25754
0.29173
0.328407
0.367212
0.407774
0.449732
0.492749
0.536521
0.580781
0.625298
0.669879
0.714368
0.758641
0.80261
0.846213
0.889415
0.932203
0.974581
1.01657
1.05819
1.0995
1.14052
1.1813
1.2219
1.26235
1.30269
1.34297
1.38322
1.42347
1.46374
1.50407
1.54447
1.58497
1.62558
1.66634
1.70729
1.74851
1.7901
1.83224
1.87517
1.91926
1.96415
2.00878
2.05316
2.09722
2.14084
2.18388
2.22618
2.26756
2.30782
2.34674
2.3841
2.41967
2.45319
2.48442
2.5131
2.53897
2.56177
2.58127
2.59724
2.60944
2.6177
2.62183
2.6217
2.61718
2.60822
2.59478
2.57685
2.55448
2.52776
2.49681
2.46181
2.42294
2.38043
2.33456
2.28559
2.23385
2.17964
2.12332
2.0653
2.00622
1.94742
1.8922
1.84627
1.80845
1.77171
1.73481
1.69763
1.66027
1.62285
1.58553
1.54842
1.51165
1.47534
1.43959
1.40447
1.37007
1.33645
1.30366
1.27174
1.24072
1.21062
1.18145
1.15322
1.12592
1.09954
1.07407
1.04947
1.02571
1.00278
0.980621
0.959198
0.938466
0.91838
0.89889
0.879948
0.861506
0.843516
0.825934
0.808714
0.791819
0.775213
0.758866
0.742755
0.72686
0.711172
0.695685
0.680401
0.665325
0.650465
0.635826
0.621404
0.607195
0.593224
0.579627
0.566752
0.5547
0.543435
0.532938
0.523197
0.514199
0.505931
0.498377
0.491521
0.485341
0.479813
0.474908
0.470594
0.466835
0.463594
0.460829
0.458498
0.456556
0.454957
0.453653
0.452594
0.451727
0.450994
0.450328
0.449649
0.448853
0.447797
0.44626
0.443891
0.44
0.433575
0.422225
0.142002
0.0912303
0.0868369
0.0943041
0.106887
0.1231
0.142682
0.164647
0.187551
0.210103
0.231516
0.251814
0.271138
0.289614
0.307359
0.324488
0.341117
0.357363
0.373329
0.389106
0.404763
0.420352
0.435905
0.451438
0.466958
0.482462
0.497943
0.513391
0.528799
0.544156
0.559457
0.574698
0.589875
0.604988
0.620038
0.635025
0.649953
0.664823
0.679639
0.694404
0.70912
0.72379
0.738419
0.753009
0.767568
0.782103
0.796626
0.811156
0.82572
0.840353
0.85511
0.870064
0.885305
0.900936
0.917009
0.93305
0.948974
0.964739
0.980304
0.99562
1.01063
1.02528
1.0395
1.05321
1.06635
1.07882
1.09055
1.10145
1.11142
1.12039
1.12825
1.13492
1.1403
1.14433
1.14693
1.14802
1.14755
1.14548
1.14176
1.13638
1.12932
1.1206
1.11024
1.09826
1.08474
1.06972
1.05329
1.03554
1.01657
0.996502
0.975468
0.953621
0.931156
0.908337
0.885561
0.863384
0.84302
0.823786
0.804802
0.785848
0.766911
0.748029
0.729257
0.710649
0.692257
0.674126
0.656299
0.638812
0.621694
0.604972
0.588666
0.572793
0.557364
0.542387
0.527865
0.513801
0.500191
0.48703
0.474311
0.462023
0.450156
0.438694
0.427624
0.416928
0.40659
0.396591
0.386914
0.377539
0.368448
0.359623
0.351046
0.342701
0.334572
0.326646
0.318911
0.311355
0.303971
0.296752
0.289695
0.282797
0.27606
0.269486
0.263079
0.256844
0.25079
0.24493
0.239291
0.233921
0.228915
0.224345
0.220081
0.216088
0.212364
0.208906
0.205709
0.202766
0.200072
0.197618
0.195396
0.193398
0.191614
0.190033
0.188646
0.187441
0.186407
0.185531
0.184802
0.18421
0.183743
0.183393
0.183153
0.18302
0.182997
0.183096
0.183354
0.183852
0.184775
0.186561
0.190231
0.198919
0.278723
0.147959
0.135825
0.139168
0.148848
0.162965
0.1801
0.198578
0.216785
0.23368
0.248952
0.262808
0.275621
0.287759
0.299527
0.311154
0.322803
0.334576
0.346528
0.358672
0.370992
0.383455
0.396013
0.408618
0.42122
0.433776
0.446249
0.458611
0.47084
0.482922
0.494849
0.506618
0.518228
0.529683
0.540988
0.552152
0.563183
0.574091
0.584886
0.595581
0.606188
0.616722
0.627197
0.637629
0.648038
0.658443
0.668865
0.679329
0.68986
0.700486
0.711235
0.722132
0.7332
0.744452
0.755825
0.767207
0.778547
0.789816
0.800984
0.812017
0.822881
0.833533
0.843927
0.854013
0.863733
0.873028
0.881832
0.890076
0.897689
0.904597
0.910724
0.915995
0.920336
0.923675
0.925945
0.927083
0.927035
0.925752
0.923198
0.919347
0.914182
0.9077
0.899912
0.890839
0.880516
0.86899
0.85632
0.842577
0.827842
0.812207
0.795775
0.778665
0.761014
0.742975
0.724724
0.706834
0.689457
0.672377
0.655413
0.638515
0.621693
0.604987
0.588441
0.572099
0.556001
0.540185
0.524682
0.509519
0.494719
0.480299
0.466275
0.452655
0.439447
0.426654
0.414277
0.402315
0.390762
0.379612
0.368857
0.358488
0.348492
0.338859
0.329573
0.320623
0.311991
0.303665
0.295628
0.287865
0.280362
0.273104
0.266076
0.259266
0.252661
0.24625
0.240023
0.233971
0.228086
0.222363
0.216799
0.211389
0.206133
0.201032
0.196087
0.191301
0.186681
0.182233
0.17797
0.173908
0.170068
0.16647
0.163125
0.160012
0.157115
0.154429
0.151948
0.149668
0.147582
0.145683
0.143965
0.14242
0.14104
0.139817
0.13874
0.137802
0.136992
0.136302
0.135722
0.135243
0.134857
0.134557
0.134337
0.134194
0.134127
0.134142
0.134257
0.134514
0.135004
0.135939
0.137801
0.141815
0.422866
0.210881
0.182213
0.178146
0.182453
0.191288
0.202781
0.215432
0.228073
0.240048
0.251214
0.261751
0.271948
0.282072
0.29232
0.302812
0.313607
0.324712
0.336104
0.347737
0.359556
0.371498
0.383503
0.395517
0.407491
0.419384
0.431164
0.442806
0.45429
0.465607
0.476747
0.487708
0.498491
0.509098
0.519537
0.529814
0.539939
0.549924
0.559781
0.569525
0.57917
0.588733
0.598232
0.607685
0.617112
0.626533
0.635968
0.645437
0.65496
0.664554
0.674236
0.684018
0.693906
0.703903
0.71398
0.724086
0.734192
0.744276
0.754315
0.764281
0.774144
0.783869
0.793414
0.802732
0.811772
0.820475
0.82878
0.836618
0.843919
0.850608
0.856609
0.861846
0.866241
0.86972
0.872211
0.873649
0.873973
0.873131
0.871082
0.867794
0.863247
0.857433
0.850356
0.842036
0.832502
0.821798
0.809979
0.797112
0.783272
0.768548
0.753033
0.736835
0.720063
0.702823
0.685514
0.668279
0.651145
0.634085
0.617081
0.600146
0.583315
0.566631
0.55014
0.533886
0.517908
0.50224
0.486914
0.471953
0.457379
0.443208
0.429451
0.416117
0.403211
0.390735
0.378688
0.367067
0.355866
0.345078
0.334694
0.324703
0.315094
0.305854
0.296969
0.288425
0.280209
0.272304
0.264697
0.257371
0.250313
0.243508
0.236942
0.230602
0.224476
0.218553
0.212821
0.207272
0.201899
0.196693
0.191651
0.186767
0.18204
0.177467
0.17305
0.168789
0.164687
0.160749
0.15698
0.153387
0.14998
0.146767
0.143757
0.140952
0.138342
0.135921
0.133685
0.131629
0.129747
0.128033
0.126481
0.125084
0.123834
0.122724
0.121745
0.120889
0.120148
0.119511
0.118972
0.118522
0.118154
0.11786
0.117635
0.117475
0.117379
0.117349
0.117396
0.117546
0.117854
0.118442
0.119559
0.121677
0.54389
0.255872
0.214727
0.204923
0.204447
0.208446
0.21503
0.223027
0.231646
0.240454
0.249315
0.25828
0.267464
0.276971
0.286863
0.297159
0.307846
0.318885
0.330226
0.341808
0.353574
0.365464
0.377425
0.389407
0.40137
0.413274
0.425091
0.436795
0.448365
0.459786
0.471048
0.482142
0.493066
0.503818
0.514401
0.524818
0.535078
0.545189
0.555162
0.56501
0.574748
0.584391
0.593956
0.603461
0.612924
0.622363
0.631798
0.641245
0.650721
0.660242
0.66982
0.679466
0.689188
0.698992
0.708871
0.718792
0.728737
0.738687
0.748621
0.758517
0.768344
0.778068
0.78765
0.797041
0.806189
0.815035
0.823513
0.831555
0.839084
0.846022
0.852289
0.857801
0.862478
0.866238
0.869005
0.870707
0.871279
0.870666
0.868819
0.865705
0.861301
0.855596
0.848595
0.840314
0.830786
0.820053
0.808172
0.795212
0.781248
0.766369
0.750665
0.734255
0.71721
0.699894
0.682383
0.664764
0.647095
0.629415
0.611761
0.594179
0.576717
0.559427
0.542358
0.525555
0.509059
0.492905
0.477124
0.461741
0.446776
0.432244
0.418158
0.404524
0.391347
0.378629
0.366367
0.354557
0.343193
0.332267
0.321769
0.311688
0.302011
0.292724
0.283815
0.275267
0.267067
0.259198
0.251644
0.244392
0.237424
0.230727
0.224286
0.218086
0.212116
0.206362
0.200814
0.195461
0.190294
0.185306
0.180489
0.175839
0.171351
0.167022
0.162851
0.158838
0.154982
0.151287
0.147754
0.144388
0.141193
0.138173
0.135335
0.13268
0.130208
0.127913
0.125792
0.123838
0.122049
0.120418
0.118939
0.117606
0.116412
0.115349
0.114409
0.113585
0.112868
0.112249
0.111722
0.111278
0.11091
0.110612
0.110377
0.110201
0.110082
0.110021
0.110025
0.110112
0.110316
0.110716
0.11145
0.112721
0.625239
0.283988
0.233711
0.219701
0.21587
0.216593
0.219967
0.225041
0.231243
0.238235
0.245853
0.254032
0.262755
0.272009
0.281773
0.29201
0.302675
0.313716
0.325076
0.336702
0.34854
0.36054
0.372655
0.384841
0.397059
0.409274
0.421453
0.433569
0.445597
0.457518
0.469314
0.480971
0.492481
0.503837
0.515035
0.526076
0.536961
0.547697
0.558291
0.568752
0.579093
0.589327
0.599468
0.609534
0.61954
0.629503
0.63944
0.649368
0.659302
0.669258
0.679248
0.689285
0.699379
0.709538
0.719765
0.730039
0.740344
0.750663
0.760979
0.771266
0.781498
0.791637
0.801642
0.811464
0.821047
0.830329
0.83924
0.847705
0.855645
0.862976
0.86961
0.875461
0.880439
0.88446
0.887441
0.889306
0.889985
0.889419
0.887559
0.884368
0.879823
0.873913
0.866644
0.858035
0.848121
0.836946
0.824572
0.811072
0.796522
0.781022
0.764641
0.747596
0.730052
0.712127
0.69392
0.67552
0.657006
0.638444
0.619897
0.601427
0.583094
0.564955
0.547064
0.529467
0.512207
0.495322
0.478842
0.462793
0.447196
0.432066
0.417415
0.403251
0.389576
0.376392
0.363697
0.351485
0.33975
0.328483
0.317673
0.307309
0.297377
0.287863
0.278752
0.270029
0.261678
0.253682
0.246026
0.238693
0.231666
0.224931
0.218472
0.212274
0.206322
0.200604
0.195108
0.18982
0.184733
0.179835
0.17512
0.170581
0.166211
0.162007
0.157966
0.154085
0.150363
0.146801
0.1434
0.14016
0.137085
0.134177
0.131438
0.128872
0.126478
0.124253
0.122194
0.120296
0.118556
0.116968
0.115526
0.114224
0.113056
0.112014
0.111091
0.11028
0.109571
0.108958
0.108432
0.107986
0.107612
0.107305
0.107059
0.106868
0.10673
0.106645
0.106617
0.106658
0.106792
0.107069
0.107571
0.108394
0.676475
0.298982
0.24196
0.225008
0.219126
0.218014
0.219659
0.223184
0.228114
0.234152
0.241108
0.248858
0.257311
0.266397
0.276053
0.286222
0.296846
0.307875
0.319258
0.330948
0.342899
0.355069
0.367416
0.379901
0.392486
0.405136
0.417818
0.430499
0.443152
0.455751
0.468274
0.480702
0.493018
0.50521
0.51727
0.529191
0.540971
0.552611
0.564114
0.575485
0.586735
0.597872
0.608908
0.619858
0.630736
0.641557
0.652336
0.663089
0.673831
0.684575
0.695337
0.706127
0.716957
0.727836
0.73877
0.749742
0.760739
0.771744
0.78274
0.793699
0.804593
0.815384
0.826025
0.836465
0.846644
0.856495
0.865943
0.874908
0.883305
0.891045
0.898036
0.904184
0.909396
0.913583
0.916659
0.918543
0.919166
0.918465
0.916391
0.912908
0.907995
0.901645
0.893864
0.884676
0.874123
0.862253
0.849125
0.834837
0.819442
0.803089
0.785965
0.76817
0.749826
0.731045
0.711935
0.692593
0.673108
0.653562
0.634032
0.61459
0.595302
0.576231
0.557432
0.538956
0.520847
0.503144
0.485878
0.469075
0.452757
0.43694
0.421635
0.40685
0.392588
0.378849
0.365632
0.35293
0.340736
0.329042
0.317835
0.307104
0.296834
0.287011
0.277619
0.268642
0.260064
0.251867
0.244034
0.236548
0.229393
0.222551
0.216006
0.209742
0.203744
0.197998
0.192489
0.187206
0.182136
0.177269
0.172595
0.168108
0.163798
0.159662
0.155694
0.15189
0.148249
0.144769
0.141449
0.138289
0.13529
0.132453
0.12978
0.127271
0.124928
0.122748
0.120728
0.118865
0.117154
0.115591
0.11417
0.112885
0.111731
0.110699
0.109784
0.108976
0.108269
0.107655
0.107126
0.106675
0.106295
0.105979
0.105721
0.105516
0.105362
0.105257
0.105203
0.105208
0.105289
0.105479
0.105827
0.106383
0.702528
0.304305
0.242704
0.223801
0.216782
0.214807
0.215695
0.218545
0.222901
0.228482
0.23509
0.242577
0.250829
0.259755
0.269281
0.279344
0.289891
0.300876
0.312258
0.323996
0.336053
0.348394
0.360981
0.373779
0.386753
0.399866
0.413085
0.426375
0.439706
0.453047
0.466372
0.479656
0.492878
0.506019
0.519066
0.532008
0.544836
0.557547
0.570139
0.582613
0.594975
0.607231
0.61939
0.631462
0.643459
0.655393
0.667278
0.679128
0.690955
0.702773
0.714593
0.726427
0.738284
0.750171
0.762091
0.774029
0.785973
0.797903
0.809799
0.821633
0.833371
0.844969
0.85638
0.867546
0.878402
0.888875
0.898885
0.908347
0.917171
0.925262
0.932524
0.938861
0.944177
0.948379
0.95138
0.953101
0.953471
0.95243
0.949932
0.945943
0.940447
0.933445
0.924946
0.914974
0.90359
0.890851
0.87678
0.861564
0.845309
0.828117
0.810113
0.791417
0.772146
0.752415
0.732334
0.712006
0.691529
0.670993
0.650482
0.630072
0.609837
0.58984
0.570141
0.550792
0.531837
0.513317
0.495264
0.477704
0.460659
0.444146
0.428175
0.412755
0.397888
0.383576
0.369815
0.3566
0.343923
0.331774
0.320143
0.309015
0.298377
0.288214
0.27851
0.269247
0.260409
0.251978
0.243936
0.236266
0.228949
0.221967
0.215304
0.208943
0.202867
0.197061
0.191509
0.186198
0.181115
0.176249
0.171588
0.167122
0.162844
0.158747
0.154824
0.151071
0.147483
0.144059
0.140795
0.137691
0.134747
0.131962
0.129337
0.126871
0.124566
0.122419
0.120429
0.11859
0.1169
0.115355
0.113948
0.112675
0.111529
0.110503
0.10959
0.108784
0.108076
0.10746
0.106927
0.10647
0.106082
0.105757
0.105489
0.105273
0.105104
0.104982
0.104906
0.104882
0.104921
0.105045
0.105285
0.105671
0.708637
0.302877
0.238651
0.218564
0.210973
0.208681
0.209336
0.211977
0.216128
0.221506
0.227917
0.235213
0.24328
0.252029
0.261387
0.271301
0.281725
0.292622
0.303957
0.315701
0.327824
0.340295
0.353083
0.366157
0.379483
0.393026
0.406753
0.42063
0.434622
0.448697
0.462826
0.47698
0.491133
0.505264
0.519353
0.533384
0.547345
0.561227
0.575024
0.588733
0.602354
0.61589
0.629346
0.642728
0.656045
0.669305
0.682519
0.695697
0.70885
0.721987
0.735117
0.748247
0.761384
0.77453
0.78768
0.800817
0.813925
0.826981
0.83996
0.852829
0.865546
0.878064
0.890329
0.902276
0.913834
0.924925
0.935463
0.945358
0.954513
0.962834
0.97022
0.976576
0.981804
0.985814
0.988521
0.989848
0.98973
0.988114
0.984956
0.980231
0.973931
0.966072
0.956667
0.945722
0.933345
0.919635
0.904651
0.888507
0.871314
0.853185
0.834239
0.814596
0.794374
0.77369
0.752657
0.731381
0.709963
0.688497
0.667071
0.645766
0.624655
0.603805
0.583276
0.563121
0.543386
0.52411
0.505326
0.487062
0.469338
0.452172
0.435574
0.419553
0.404112
0.389251
0.374967
0.361256
0.348109
0.335516
0.323466
0.311946
0.300942
0.290438
0.280417
0.270864
0.261759
0.253086
0.244825
0.236959
0.229469
0.222336
0.215543
0.209071
0.202903
0.197023
0.191415
0.186063
0.180953
0.176073
0.171409
0.166953
0.162692
0.15862
0.154729
0.151013
0.147466
0.144085
0.140867
0.137809
0.134909
0.132167
0.129582
0.127154
0.124881
0.122763
0.120798
0.118981
0.11731
0.115779
0.114385
0.113121
0.111981
0.11096
0.110051
0.109245
0.108536
0.107917
0.10738
0.106918
0.106524
0.106191
0.105914
0.105687
0.105506
0.105369
0.105274
0.105226
0.105232
0.105305
0.105468
0.105738
0.699443
0.296869
0.231748
0.211087
0.203262
0.200912
0.201567
0.204197
0.208297
0.213578
0.219848
0.22697
0.234839
0.243378
0.252527
0.262242
0.272488
0.283238
0.294468
0.306155
0.318276
0.330809
0.343728
0.357004
0.370609
0.384511
0.398678
0.413075
0.427669
0.442428
0.45732
0.472314
0.487381
0.502498
0.517641
0.532789
0.547928
0.563043
0.578124
0.593163
0.608157
0.623103
0.638001
0.652854
0.667664
0.682438
0.697179
0.711895
0.72659
0.74127
0.755938
0.770596
0.785244
0.799879
0.814479
0.829024
0.843488
0.857844
0.872057
0.886085
0.89988
0.913387
0.926541
0.939273
0.951503
0.963149
0.974118
0.984314
0.99364
1.002
1.00929
1.01543
1.02031
1.02386
1.02599
1.02665
1.02576
1.02329
1.01922
1.0135
1.00616
0.997237
0.986767
0.974791
0.961389
0.946649
0.930659
0.913525
0.895358
0.876273
0.856389
0.835825
0.8147
0.79313
0.771227
0.7491
0.72685
0.704571
0.682352
0.660275
0.638412
0.616832
0.595593
0.574749
0.554344
0.534418
0.515005
0.49613
0.477815
0.460078
0.442928
0.426375
0.410422
0.39507
0.380315
0.366153
0.352576
0.339574
0.327137
0.315251
0.303902
0.293075
0.282754
0.272922
0.263561
0.254653
0.246179
0.23812
0.230459
0.223175
0.21625
0.209666
0.203404
0.197447
0.191777
0.18638
0.181239
0.17634
0.17167
0.167216
0.162969
0.158917
0.155052
0.151368
0.147858
0.144516
0.141338
0.138321
0.135463
0.132761
0.130214
0.127822
0.125581
0.123492
0.121552
0.119757
0.118104
0.11659
0.115208
0.113955
0.112823
0.111808
0.110902
0.110098
0.109389
0.108769
0.108229
0.107762
0.107363
0.107024
0.106739
0.106503
0.106311
0.106161
0.106052
0.105984
0.105962
0.105996
0.106101
0.10629
0.678612
0.287806
0.223299
0.202575
0.194729
0.192432
0.193155
0.195825
0.19991
0.205112
0.211242
0.218173
0.225817
0.234108
0.243
0.252463
0.262472
0.27301
0.284063
0.295617
0.307657
0.320166
0.333126
0.346514
0.360306
0.374475
0.388991
0.403824
0.418943
0.434314
0.449907
0.465692
0.481639
0.49772
0.513911
0.53019
0.546536
0.562931
0.579362
0.595816
0.612283
0.628757
0.645232
0.661705
0.678173
0.694636
0.711092
0.727541
0.743983
0.760415
0.776834
0.793234
0.809607
0.825941
0.84219
0.858324
0.874307
0.8901
0.905656
0.920924
0.935842
0.950346
0.964363
0.977812
0.990611
1.00267
1.01389
1.02418
1.03343
1.04154
1.04844
1.05404
1.05824
1.06099
1.06221
1.06185
1.05986
1.05624
1.05096
1.04403
1.03548
1.02535
1.01368
1.00055
0.986015
0.970181
0.953142
0.935003
0.915874
0.89587
0.875109
0.853708
0.831784
0.80945
0.786815
0.763986
0.74106
0.718132
0.695288
0.672605
0.650158
0.628011
0.606222
0.584842
0.563917
0.543483
0.523574
0.504216
0.48543
0.467233
0.449636
0.432647
0.41627
0.400506
0.385354
0.370807
0.35686
0.343504
0.330727
0.318518
0.306863
0.295747
0.285154
0.275068
0.265471
0.256346
0.247674
0.239436
0.231613
0.224187
0.217138
0.210446
0.204095
0.198064
0.192336
0.186895
0.181724
0.176807
0.17213
0.167681
0.163445
0.159414
0.155576
0.151923
0.148449
0.145146
0.142009
0.139034
0.136218
0.133557
0.13105
0.128694
0.126488
0.12443
0.122517
0.120747
0.119115
0.117619
0.116253
0.115012
0.11389
0.112883
0.111982
0.111182
0.110475
0.109855
0.109314
0.108845
0.108442
0.108098
0.107806
0.107563
0.107363
0.107203
0.10708
0.106996
0.106952
0.106956
0.107017
0.107147
0.648822
0.276724
0.214159
0.193822
0.18612
0.183922
0.184716
0.18741
0.191459
0.196557
0.202523
0.209236
0.216619
0.224623
0.233214
0.242373
0.252087
0.262351
0.273156
0.2845
0.296376
0.308774
0.321685
0.335093
0.348981
0.363326
0.378105
0.393292
0.408859
0.424779
0.44102
0.457555
0.474354
0.49139
0.508636
0.526068
0.543662
0.561398
0.579256
0.59722
0.615275
0.633406
0.651601
0.669851
0.688146
0.706476
0.724834
0.74321
0.761595
0.779979
0.798349
0.816689
0.834979
0.853193
0.871253
0.889114
0.906726
0.924034
0.940976
0.957485
0.973489
0.988909
1.00366
1.01766
1.03081
1.04303
1.05422
1.06428
1.07308
1.08058
1.08668
1.09131
1.09442
1.09596
1.09586
1.09412
1.09071
1.08562
1.07888
1.07049
1.06052
1.049
1.03599
1.02159
1.00585
0.988892
0.970801
0.951684
0.931653
0.910818
0.889292
0.867189
0.844618
0.821689
0.798504
0.775164
0.751763
0.728388
0.705121
0.682038
0.659207
0.636689
0.614541
0.592811
0.571541
0.550769
0.530526
0.510836
0.491722
0.473198
0.455278
0.437969
0.421276
0.4052
0.38974
0.374892
0.360651
0.347008
0.333953
0.321476
0.309563
0.298201
0.287375
0.277069
0.267267
0.257951
0.249103
0.240705
0.232738
0.225184
0.218022
0.211235
0.204802
0.198705
0.192926
0.187446
0.18225
0.177319
0.17264
0.168197
0.163977
0.159969
0.15616
0.152543
0.149107
0.145845
0.142752
0.139822
0.13705
0.134434
0.131969
0.129654
0.127486
0.125462
0.123581
0.121839
0.120232
0.118758
0.11741
0.116185
0.115077
0.11408
0.113187
0.112393
0.111691
0.111073
0.110533
0.110063
0.109658
0.10931
0.109015
0.108766
0.108559
0.10839
0.108257
0.108159
0.108098
0.108078
0.108106
0.108193
0.611737
0.264314
0.204892
0.185366
0.177965
0.175906
0.17676
0.179449
0.183427
0.188392
0.194162
0.200629
0.207724
0.215409
0.223664
0.232479
0.241857
0.251802
0.262307
0.273381
0.285027
0.297248
0.310041
0.323401
0.337318
0.351778
0.366764
0.382258
0.398237
0.414678
0.431554
0.44884
0.466509
0.484533
0.502885
0.521539
0.540468
0.559649
0.579056
0.598666
0.618457
0.638408
0.658499
0.678709
0.699019
0.719412
0.739866
0.760365
0.780886
0.801409
0.821909
0.84236
0.86273
0.882946
0.902909
0.922555
0.941814
0.960611
0.978866
0.996495
1.01341
1.02952
1.04474
1.05896
1.07209
1.08405
1.09474
1.10407
1.11196
1.11834
1.12315
1.12635
1.12789
1.12775
1.12592
1.12239
1.11717
1.11029
1.10179
1.0917
1.08009
1.06701
1.05256
1.0368
1.01983
1.00175
0.982645
0.962628
0.9418
0.920268
0.898135
0.875507
0.852485
0.829168
0.805652
0.782027
0.75838
0.73479
0.711333
0.688078
0.665087
0.642419
0.620124
0.598248
0.576831
0.555908
0.535508
0.515655
0.496371
0.477671
0.459567
0.442068
0.425179
0.408902
0.393238
0.378183
0.363733
0.349882
0.33662
0.323939
0.311827
0.300271
0.289257
0.278773
0.268801
0.259325
0.25033
0.241796
0.233706
0.226042
0.218784
0.211914
0.205412
0.199259
0.193437
0.187928
0.182713
0.177776
0.173099
0.168669
0.16447
0.160489
0.156715
0.153136
0.149743
0.146527
0.143482
0.140601
0.137879
0.13531
0.132893
0.130623
0.128497
0.126513
0.124668
0.122958
0.121381
0.119932
0.118607
0.117402
0.116311
0.115327
0.114446
0.113661
0.112966
0.112353
0.111815
0.111347
0.110942
0.110593
0.110295
0.110042
0.109829
0.109654
0.109512
0.109404
0.109328
0.10929
0.109293
0.109349
0.568371
0.251433
0.19599
0.17764
0.1707
0.16884
0.169762
0.172432
0.17632
0.181131
0.186691
0.192898
0.199694
0.207051
0.214956
0.223413
0.232432
0.242026
0.252208
0.262993
0.274396
0.286429
0.299098
0.312408
0.32636
0.340949
0.356167
0.372003
0.388442
0.405467
0.423055
0.441185
0.459831
0.478968
0.498567
0.518598
0.539034
0.559842
0.580992
0.602453
0.624194
0.646182
0.668386
0.690774
0.713315
0.735975
0.758724
0.781528
0.804353
0.827165
0.849926
0.872594
0.895123
0.917349
0.939178
0.96052
0.98128
1.00136
1.02067
1.0391
1.05656
1.07293
1.08813
1.10206
1.11463
1.12574
1.13533
1.14333
1.14967
1.15432
1.15723
1.1584
1.15781
1.15548
1.15142
1.14567
1.13826
1.12925
1.11869
1.10666
1.09323
1.07848
1.0625
1.04536
1.02717
1.00802
0.988
0.967207
0.945736
0.923683
0.901141
0.878203
0.854957
0.831491
0.807888
0.784227
0.760584
0.737029
0.713628
0.690443
0.667531
0.644941
0.622722
0.600915
0.579555
0.558676
0.538306
0.518467
0.499179
0.480459
0.462318
0.444765
0.427808
0.411449
0.39569
0.380529
0.365964
0.351989
0.338598
0.325783
0.313534
0.301841
0.290692
0.280074
0.269973
0.260375
0.251263
0.242621
0.234433
0.22668
0.219344
0.212407
0.20585
0.199654
0.193801
0.188271
0.183046
0.178109
0.173443
0.169032
0.164859
0.160912
0.157178
0.153643
0.150299
0.147134
0.144142
0.141315
0.138647
0.136132
0.133767
0.131547
0.129469
0.127529
0.125725
0.124053
0.12251
0.121092
0.119794
0.118612
0.117541
0.116576
0.11571
0.114937
0.11425
0.113645
0.113113
0.112648
0.112245
0.111896
0.111597
0.111341
0.111125
0.110945
0.110797
0.11068
0.110594
0.110541
0.110526
0.110558
0.525274
0.24056
0.188543
0.171285
0.164806
0.163141
0.164116
0.166747
0.170525
0.175168
0.180513
0.186467
0.192979
0.20003
0.20762
0.21576
0.224469
0.233774
0.243698
0.25427
0.265514
0.277453
0.290105
0.303487
0.317609
0.332477
0.348094
0.364455
0.381554
0.399379
0.417913
0.437137
0.457027
0.477556
0.498693
0.520404
0.542654
0.565404
0.588613
0.612238
0.636234
0.660556
0.685155
0.709985
0.734997
0.760143
0.785372
0.810636
0.835885
0.861069
0.886138
0.911037
0.935605
0.959668
0.983111
1.00582
1.02768
1.04857
1.06839
1.08702
1.10435
1.12028
1.13472
1.14757
1.15876
1.16822
1.17589
1.18175
1.18575
1.1879
1.1882
1.18666
1.18332
1.17823
1.17145
1.16303
1.15306
1.14161
1.12876
1.11462
1.09925
1.08276
1.06524
1.04676
1.02743
1.00733
0.986534
0.965139
0.943222
0.920864
0.898144
0.875137
0.851918
0.828557
0.805124
0.781684
0.758301
0.735033
0.711937
0.689064
0.666465
0.644183
0.622259
0.600731
0.579631
0.558989
0.538832
0.51918
0.500054
0.481469
0.463437
0.445969
0.429072
0.41275
0.397007
0.381843
0.367257
0.353246
0.339806
0.32693
0.314611
0.302841
0.29161
0.280907
0.27072
0.261037
0.251843
0.243123
0.234862
0.227044
0.219651
0.212665
0.206069
0.199843
0.193969
0.188429
0.183205
0.178277
0.173629
0.169243
0.165104
0.161197
0.157508
0.154024
0.150734
0.147626
0.144693
0.141926
0.139317
0.136862
0.134554
0.132389
0.130364
0.128474
0.126716
0.125087
0.123583
0.1222
0.120934
0.11978
0.118733
0.117789
0.116941
0.116183
0.115509
0.114913
0.114389
0.11393
0.113531
0.113184
0.112885
0.112629
0.112411
0.112228
0.112075
0.111952
0.111858
0.111794
0.111765
0.111779
0.476574
0.229472
0.181902
0.166056
0.160195
0.158816
0.1599
0.16253
0.166235
0.170754
0.175938
0.181709
0.188027
0.194883
0.202287
0.210261
0.218837
0.228051
0.237941
0.248545
0.259901
0.272043
0.285004
0.298809
0.313481
0.329036
0.345485
0.362833
0.381079
0.400214
0.420225
0.441092
0.462788
0.485281
0.508532
0.5325
0.557135
0.582383
0.608189
0.63449
0.661222
0.688319
0.715712
0.743332
0.771108
0.798972
0.826852
0.854681
0.882393
0.909921
0.9372
0.964064
0.990244
1.01561
1.04002
1.06334
1.08545
1.10623
1.12555
1.14331
1.1594
1.17373
1.18622
1.19681
1.20545
1.2121
1.21675
1.21939
1.22005
1.21876
1.21557
1.21054
1.20376
1.1953
1.18527
1.17377
1.16089
1.14674
1.13142
1.11504
1.0977
1.07947
1.06047
1.04075
1.02042
0.999528
0.978161
0.95638
0.934251
0.911834
0.889188
0.866371
0.843439
0.820446
0.797443
0.774482
0.751611
0.728879
0.706328
0.684004
0.661944
0.640188
0.618771
0.597724
0.577078
0.556859
0.537091
0.517794
0.498988
0.480688
0.462907
0.445656
0.428944
0.412777
0.397159
0.382093
0.36758
0.353619
0.340208
0.327344
0.315021
0.303234
0.291976
0.281237
0.271008
0.261279
0.252037
0.24327
0.234964
0.227103
0.219673
0.212657
0.206037
0.199795
0.193914
0.188375
0.18316
0.17825
0.173628
0.169277
0.165179
0.161319
0.157682
0.154255
0.151025
0.147981