/*--------------------------------*- C++ -*----------------------------------*\
  =========                 |
  \\      /  F ield         | OpenFOAM: The Open Source CFD Toolbox
   \\    /   O peration     | Website:  https://openfoam.org
    \\  /    A nd           | Version:  6
     \\/     M anipulation  |
\*---------------------------------------------------------------------------*/
FoamFile
{
    version     2.0;
    format      ascii;
    class       volScalarField;
    location    "0.24";
    object      k;
}
// * * * * * * * * * * * * * * * * * * * * * * * * * * * * * * * * * * * * * //

dimensions      [0 2 -2 0 0 0 0];

internalField   nonuniform List<scalar> 
12225
(
0.24644
0.158838
0.119006
0.0971983
0.0837149
0.0747275
0.0683419
0.0635294
0.0597222
0.0565993
0.0539696
0.0517122
0.0497461
0.0480139
0.046473
0.0450921
0.0438457
0.0427828
0.339526
0.260133
0.208256
0.175289
0.153263
0.137672
0.125996
0.116825
0.109365
0.103143
0.0978553
0.0932959
0.0893175
0.0858114
0.0826969
0.079906
0.0774177
0.0751625
0.347498
0.292336
0.248511
0.216195
0.192229
0.174047
0.15985
0.14844
0.139043
0.131149
0.124411
0.118585
0.113492
0.108999
0.105004
0.101427
0.0982232
0.0953667
0.35137
0.309034
0.271886
0.241925
0.218144
0.199187
0.183864
0.171264
0.160729
0.151792
0.144111
0.137437
0.131584
0.126407
0.121795
0.117663
0.113956
0.110666
0.353917
0.319265
0.2872
0.259825
0.237043
0.218188
0.202506
0.189337
0.178158
0.168567
0.160257
0.152992
0.14659
0.140907
0.135832
0.131276
0.127183
0.123552
0.355677
0.326031
0.29787
0.272919
0.251434
0.233127
0.217537
0.204201
0.192716
0.182752
0.174043
0.166378
0.159586
0.153532
0.148106
0.143224
0.13883
0.134928
0.356917
0.33071
0.305572
0.282767
0.262638
0.245096
0.229865
0.216626
0.205075
0.194947
0.186019
0.178105
0.171053
0.164738
0.159057
0.153931
0.149306
0.145193
0.357802
0.334027
0.311241
0.29028
0.271456
0.254764
0.240044
0.227074
0.215626
0.20549
0.196483
0.188445
0.181241
0.174758
0.168904
0.163605
0.158813
0.154539
0.358433
0.336404
0.315446
0.296042
0.278415
0.262584
0.248449
0.235853
0.224625
0.214598
0.20562
0.197556
0.19029
0.18372
0.177764
0.172355
0.167451
0.163064
0.358881
0.338106
0.31856
0.300448
0.283886
0.268879
0.255353
0.243191
0.232258
0.222421
0.213554
0.205544
0.198289
0.1917
0.185703
0.18024
0.175274
0.170817
0.359195
0.339315
0.320847
0.303788
0.288148
0.2739
0.260971
0.249264
0.238671
0.229079
0.220383
0.212486
0.2053
0.198747
0.192761
0.187291
0.182306
0.177817
0.359394
0.340091
0.322364
0.306074
0.291148
0.277518
0.265104
0.253812
0.243546
0.234208
0.225705
0.217951
0.210869
0.204389
0.198452
0.193012
0.188043
0.183557
0.359535
0.340651
0.323487
0.307814
0.293487
0.2804
0.268456
0.25756
0.247618
0.238542
0.230248
0.222659
0.215704
0.209322
0.203459
0.198074
0.193143
0.18868
0.359643
0.341084
0.324385
0.309247
0.295469
0.282902
0.271429
0.260945
0.251356
0.242577
0.234529
0.227143
0.220354
0.214105
0.20835
0.203051
0.198188
0.193772
0.359719
0.341392
0.325041
0.31033
0.297014
0.28491
0.273875
0.263791
0.254559
0.246092
0.238314
0.231159
0.224565
0.218482
0.212866
0.207682
0.202914
0.198572
0.359767
0.341588
0.325471
0.311064
0.298097
0.286362
0.275694
0.265962
0.257057
0.248888
0.241377
0.234458
0.228072
0.222169
0.21671
0.211662
0.207009
0.202759
0.359793
0.341696
0.325715
0.311494
0.298752
0.287268
0.276864
0.267396
0.258748
0.250821
0.243535
0.236821
0.230621
0.224886
0.219576
0.214659
0.210121
0.205966
0.359804
0.341741
0.325817
0.311679
0.299043
0.287683
0.277414
0.268087
0.259581
0.251793
0.244641
0.238053
0.23197
0.226342
0.22113
0.216302
0.211843
0.207754
0.359801
0.341729
0.32579
0.311631
0.29897
0.28758
0.27728
0.267922
0.259386
0.25157
0.244392
0.237782
0.231679
0.226035
0.220808
0.215968
0.211498
0.207401
0.359775
0.341622
0.325547
0.3112
0.298308
0.286657
0.27608
0.266441
0.257629
0.24955
0.242126
0.235289
0.22898
0.223151
0.217759
0.212772
0.208173
0.203965
0.359715
0.341376
0.32501
0.310283
0.296954
0.284842
0.273804
0.263722
0.254497
0.246041
0.238278
0.231139
0.224567
0.218507
0.212914
0.207756
0.203009
0.19868
0.359586
0.340852
0.323905
0.308483
0.294416
0.281579
0.269863
0.259169
0.249404
0.240482
0.232322
0.224848
0.217994
0.2117
0.205915
0.200598
0.195724
0.191297
0.359329
0.339835
0.321861
0.305316
0.290154
0.276321
0.26374
0.252319
0.241955
0.232547
0.223998
0.216219
0.209129
0.202655
0.196735
0.191319
0.186376
0.181908
0.35886
0.338009
0.318374
0.30018
0.283551
0.268493
0.254932
0.242751
0.231812
0.221982
0.213131
0.205145
0.197921
0.19137
0.185417
0.179999
0.175078
0.170651
0.358051
0.334911
0.312756
0.292315
0.273874
0.257449
0.242905
0.230047
0.218668
0.208571
0.199585
0.191556
0.184357
0.177878
0.172028
0.166735
0.161948
0.157665
0.356707
0.329803
0.303977
0.280638
0.260138
0.242359
0.226997
0.213701
0.202146
0.19205
0.18318
0.175342
0.168377
0.162158
0.156579
0.151557
0.147036
0.143007
0.354518
0.321336
0.290244
0.263374
0.240786
0.22195
0.206201
0.192928
0.181638
0.17194
0.163535
0.156189
0.14972
0.143985
0.138869
0.134286
0.130172
0.126517
0.350901
0.3066
0.26792
0.237106
0.212944
0.193894
0.178636
0.166186
0.155841
0.147109
0.139637
0.13317
0.127517
0.122533
0.118107
0.114155
0.110614
0.107469
0.342446
0.275934
0.227262
0.193528
0.16982
0.152602
0.139577
0.129331
0.121013
0.114094
0.108231
0.103189
0.0988026
0.0949483
0.0915343
0.08849
0.0857628
0.0833307
0.259302
0.173114
0.131362
0.107433
0.0921499
0.081752
0.074322
0.0687607
0.0644199
0.0609112
0.0579955
0.0555203
0.0533841
0.051517
0.0498686
0.0484015
0.0470874
0.0459087
0.00103845
0.00182766
0.00214877
0.00226549
0.00235682
0.00249713
0.00267484
0.00289236
0.0031609
0.0035009
0.00384643
0.00421563
0.0046099
0.00502673
0.00546171
0.00590974
0.00636581
0.00682547
0.00728493
0.00774112
0.00819157
0.00863443
0.0090683
0.00949223
0.00990562
0.0103082
0.0106999
0.011081
0.0114517
0.0118126
0.0121642
0.0125072
0.0128422
0.0131698
0.0134908
0.0138058
0.0141153
0.01442
0.0147202
0.0150166
0.0153094
0.015599
0.0158858
0.0161699
0.0164517
0.0167313
0.0170089
0.0172849
0.0175595
0.0178333
0.0181069
0.0183813
0.0186581
0.0189393
0.0192253
0.0195071
0.0197848
0.020058
0.0203263
0.0205889
0.020845
0.0210935
0.0213334
0.0215636
0.0217829
0.0219901
0.0221839
0.022363
0.0225261
0.0226719
0.0227991
0.0229065
0.0229928
0.0230569
0.0230978
0.0231146
0.0231065
0.0230729
0.0230132
0.0229273
0.0228149
0.0226761
0.0225113
0.0223208
0.0221054
0.0218658
0.0216031
0.0213184
0.021013
0.0206883
0.0203458
0.0199872
0.0196146
0.0192309
0.0188425
0.0184657
0.0181357
0.0178685
0.017615
0.0173599
0.0171014
0.0168399
0.0165762
0.0163111
0.0160454
0.0157802
0.015516
0.0152538
0.014994
0.0147374
0.0144845
0.0142356
0.0139913
0.0137518
0.0135175
0.0132885
0.0130649
0.0128469
0.0126346
0.0124278
0.0122266
0.0120308
0.0118403
0.011655
0.0114745
0.0112986
0.0111271
0.0109596
0.0107958
0.0106353
0.0104779
0.0103232
0.0101708
0.0100205
0.00987188
0.00972479
0.00957898
0.00943428
0.00929059
0.00914782
0.00900598
0.00886511
0.00872526
0.00858649
0.00844882
0.00831221
0.00817671
0.00804302
0.00791353
0.0077911
0.00767531
0.00756612
0.00746354
0.00736754
0.00727811
0.00719521
0.00711876
0.00704866
0.00698475
0.00692682
0.00687463
0.00682788
0.00678625
0.00674935
0.0067168
0.00668817
0.00666302
0.00664086
0.00662121
0.00660354
0.00658726
0.00657172
0.00655612
0.00653944
0.00652029
0.0064965
0.00646467
0.00641807
0.00634679
0.00622707
0.00204651
0.00395932
0.00504388
0.00587311
0.00651178
0.00708355
0.00769595
0.00835937
0.00903427
0.00968183
0.0102899
0.010871
0.01144
0.0120083
0.012584
0.0131722
0.0137759
0.0143962
0.0150331
0.0156851
0.0163499
0.0170246
0.0177057
0.0183896
0.019073
0.0197527
0.0204262
0.0210913
0.0217464
0.0223906
0.0230232
0.0236441
0.0242535
0.024852
0.0254401
0.0260187
0.0265887
0.027151
0.0277067
0.0282567
0.0288019
0.0293433
0.0298815
0.0304174
0.0309516
0.0314847
0.0320171
0.0325492
0.0330814
0.0336136
0.034146
0.0346786
0.0352111
0.0357432
0.0362715
0.0367989
0.0373257
0.0378512
0.0383744
0.0388944
0.0394095
0.0399184
0.0404192
0.0409099
0.0413885
0.0418526
0.0422998
0.0427275
0.0431332
0.0435138
0.0438668
0.0441893
0.0444784
0.0447315
0.0449459
0.0451191
0.0452491
0.0453336
0.045371
0.04536
0.0452994
0.0451885
0.0450272
0.0448154
0.0445538
0.0442431
0.0438847
0.0434803
0.0430318
0.0425416
0.0420122
0.0414467
0.0408484
0.0402214
0.0395704
0.0389012
0.0382371
0.0375736
0.0369031
0.0362249
0.0355404
0.0348519
0.0341615
0.0334713
0.0327835
0.0320998
0.031422
0.0307516
0.0300899
0.0294382
0.0287975
0.0281686
0.0275524
0.0269495
0.0263603
0.0257851
0.0252243
0.0246778
0.0241459
0.0236283
0.0231248
0.0226354
0.0221595
0.0216968
0.0212469
0.0208092
0.0203832
0.0199683
0.0195639
0.0191694
0.0187842
0.0184077
0.0180393
0.0176785
0.0173249
0.016978
0.0166375
0.0163032
0.0159749
0.0156526
0.0153363
0.0150262
0.0147226
0.0144257
0.0141359
0.0138538
0.0135799
0.013315
0.0130594
0.0128138
0.0125823
0.0123662
0.012165
0.0119782
0.0118055
0.0116465
0.0115009
0.0113682
0.0112481
0.0111399
0.011043
0.0109569
0.0108809
0.0108142
0.0107559
0.0107054
0.0106618
0.0106243
0.010592
0.010564
0.0105395
0.0105175
0.010497
0.0104769
0.0104557
0.0104317
0.0104016
0.0103647
0.010305
0.0103144
0.0032069
0.00639329
0.00790713
0.00886704
0.00960576
0.0102865
0.0109794
0.011692
0.0124024
0.0130924
0.0137623
0.0144259
0.0150999
0.0157977
0.0165277
0.0172937
0.0180957
0.0189307
0.0197934
0.0206777
0.0215766
0.022483
0.0233904
0.024293
0.0251859
0.0260651
0.0269278
0.0277719
0.0285963
0.0294004
0.0301844
0.0309486
0.0316939
0.0324213
0.033132
0.0338271
0.0345082
0.0351763
0.035833
0.0364795
0.0371171
0.037747
0.0383704
0.0389885
0.0396023
0.0402129
0.0408212
0.0414281
0.0420343
0.0426406
0.0432475
0.0438555
0.0444649
0.0450759
0.0456885
0.0463021
0.0469163
0.0475302
0.0481428
0.0487529
0.0493589
0.0499593
0.0505519
0.0511347
0.051705
0.0522604
0.0527977
0.053314
0.0538058
0.0542698
0.0547025
0.0551002
0.0554593
0.0557763
0.0560478
0.0562704
0.0564412
0.0565574
0.0566166
0.0566168
0.0565563
0.0564342
0.0562497
0.0560027
0.0556938
0.0553237
0.0548939
0.0544064
0.0538635
0.0532679
0.0526229
0.051932
0.0511991
0.0504285
0.0496244
0.0488051
0.0479759
0.0471349
0.0462819
0.0454182
0.0445466
0.0436698
0.0427908
0.0419123
0.0410369
0.0401669
0.0393045
0.0384517
0.0376102
0.0367816
0.0359671
0.0351679
0.034385
0.0336191
0.0328709
0.0321408
0.0314292
0.0307361
0.0300616
0.0294057
0.0287682
0.0281487
0.0275469
0.0269623
0.0263943
0.0258424
0.0253059
0.024784
0.0242761
0.0237814
0.0232992
0.0228287
0.0223692
0.02192
0.0214806
0.0210504
0.0206289
0.0202159
0.019811
0.0194142
0.0190254
0.0186448
0.0182725
0.0179089
0.0175544
0.0172096
0.016875
0.0165514
0.0162393
0.0159395
0.0156528
0.0153819
0.0151279
0.014891
0.014671
0.0144677
0.0142811
0.0141106
0.013956
0.0138165
0.0136916
0.0135805
0.0134823
0.0133961
0.013321
0.0132558
0.0131997
0.0131514
0.01311
0.0130743
0.0130433
0.0130157
0.0129905
0.0129662
0.0129412
0.0129135
0.01288
0.0128377
0.0127753
0.0127197
0.00423492
0.00848808
0.0102591
0.0113277
0.0121105
0.0127869
0.0134434
0.0141115
0.0147953
0.0154943
0.0162133
0.016962
0.0177496
0.0185821
0.0194613
0.0203846
0.0213468
0.0223409
0.0233587
0.024392
0.0254332
0.0264751
0.0275114
0.028537
0.0295478
0.0305406
0.0315132
0.032464
0.0333923
0.0342976
0.0351802
0.0360406
0.0368794
0.0376976
0.0384963
0.0392766
0.0400398
0.0407872
0.0415201
0.0422398
0.0429477
0.0436452
0.0443335
0.045014
0.0456878
0.0463563
0.0470206
0.0476818
0.0483409
0.0489988
0.0496562
0.0503139
0.0509722
0.0516315
0.0522926
0.0529551
0.0536183
0.0542818
0.0549444
0.0556052
0.0562627
0.0569152
0.0575606
0.0581968
0.0588209
0.0594302
0.0600214
0.0605911
0.0611354
0.0616507
0.0621328
0.0625775
0.0629808
0.0633385
0.0636464
0.0639009
0.0640982
0.064235
0.0643084
0.0643158
0.0642554
0.0641256
0.0639255
0.0636549
0.063314
0.0629038
0.0624256
0.0618816
0.0612743
0.0606067
0.0598823
0.0591052
0.0582791
0.0574082
0.0565083
0.0555856
0.0546426
0.0536814
0.0527044
0.0517144
0.0507149
0.0497093
0.0487009
0.047693
0.0466885
0.0456903
0.0447008
0.0437222
0.0427567
0.0418059
0.0408715
0.0399548
0.0390568
0.0381785
0.0373207
0.0364839
0.0356684
0.0348746
0.0341024
0.0333519
0.0326228
0.0319148
0.0312276
0.0305606
0.0299133
0.0292849
0.0286748
0.0280822
0.0275062
0.0269461
0.026401
0.02587
0.0253523
0.0248472
0.024354
0.0238719
0.0234006
0.0229394
0.0224881
0.0220464
0.0216142
0.0211916
0.0207787
0.0203759
0.0199834
0.0196018
0.0192317
0.0188738
0.0185286
0.0181971
0.01788
0.0175783
0.0172942
0.017028
0.0167799
0.0165499
0.016338
0.0161438
0.0159671
0.0158072
0.0156635
0.0155353
0.0154217
0.0153216
0.0152341
0.015158
0.0150922
0.0150356
0.0149869
0.014945
0.0149088
0.0148769
0.0148481
0.0148212
0.0147945
0.0147664
0.0147344
0.0146962
0.0146456
0.0145941
0.00501093
0.00987561
0.0119297
0.0131457
0.0139919
0.0146772
0.0153131
0.015956
0.0166317
0.0173518
0.0181228
0.0189486
0.0198308
0.0207677
0.0217549
0.0227858
0.0238525
0.0249467
0.0260602
0.0271851
0.0283145
0.0294423
0.0305632
0.031673
0.032768
0.0338455
0.0349036
0.0359405
0.0369554
0.0379478
0.0389172
0.039864
0.0407883
0.0416908
0.0425721
0.0434332
0.0442749
0.0450984
0.0459049
0.0466954
0.0474714
0.0482341
0.0489848
0.0497248
0.0504555
0.0511781
0.0518939
0.0526041
0.0533099
0.0540122
0.054712
0.05541
0.0561071
0.0568036
0.0575009
0.0581987
0.058897
0.0595952
0.0602926
0.0609884
0.0616811
0.0623692
0.0630507
0.0637232
0.0643841
0.0650302
0.0656583
0.0662645
0.066845
0.0673955
0.0679116
0.0683888
0.0688225
0.069208
0.0695409
0.0698168
0.0700317
0.0701818
0.0702638
0.0702748
0.0702124
0.0700749
0.0698612
0.0695709
0.069204
0.0687616
0.068245
0.0676564
0.0669984
0.0662743
0.0654876
0.0646431
0.0637436
0.0628049
0.0618312
0.0608273
0.059797
0.0587442
0.0576725
0.0565858
0.0554881
0.0543833
0.0532751
0.0521672
0.0510627
0.0499649
0.0488764
0.0477998
0.0467374
0.0456912
0.0446629
0.043654
0.0426657
0.0416992
0.0407553
0.0398347
0.0389377
0.0380648
0.037216
0.0363914
0.0355908
0.0348138
0.0340602
0.0333294
0.0326208
0.0319337
0.0312673
0.0306209
0.0299935
0.0293843
0.0287923
0.0282167
0.0276565
0.0271108
0.0265789
0.02606
0.0255535
0.0250588
0.0245754
0.024103
0.0236414
0.0231906
0.0227507
0.0223217
0.0219042
0.0214984
0.021105
0.0207245
0.0203577
0.0200052
0.0196679
0.0193465
0.0190425
0.0187568
0.0184899
0.0182417
0.0180123
0.0178016
0.0176092
0.0174346
0.0172773
0.0171364
0.0170111
0.0169004
0.0168033
0.0167186
0.0166451
0.0165816
0.016527
0.0164799
0.0164391
0.0164035
0.0163716
0.0163422
0.0163139
0.0162851
0.0162539
0.0162185
0.0161756
0.0161331
0.00550023
0.0107196
0.0129906
0.0143459
0.0152802
0.0160159
0.0166786
0.0173402
0.0180397
0.0187965
0.0196181
0.0205054
0.0214554
0.0224624
0.0235188
0.0246167
0.0257476
0.0269035
0.028077
0.0292613
0.0304506
0.0316395
0.0328236
0.033999
0.0351626
0.0363116
0.0374439
0.0385576
0.0396514
0.0407243
0.0417756
0.0428047
0.0438116
0.0447963
0.045759
0.0467002
0.0476205
0.0485207
0.0494015
0.050264
0.0511094
0.0519386
0.052753
0.0535538
0.0543422
0.0551196
0.0558872
0.0566463
0.057398
0.0581435
0.0588838
0.0596199
0.0603527
0.0610829
0.0618118
0.0625397
0.0632667
0.0639928
0.0647174
0.0654398
0.0661588
0.066873
0.0675803
0.0682786
0.068965
0.0696366
0.0702897
0.0709206
0.0715252
0.0720989
0.0726372
0.0731352
0.073588
0.0739908
0.0743386
0.0746268
0.0748509
0.075007
0.0750914
0.0751009
0.075033
0.0748856
0.0746576
0.0743483
0.0739578
0.073487
0.0729372
0.0723108
0.0716103
0.0708393
0.0700007
0.0691031
0.0681544
0.0671604
0.0661263
0.0650571
0.0639577
0.0628325
0.0616861
0.0605229
0.0593474
0.0581637
0.0569759
0.055788
0.0546034
0.0534256
0.0522575
0.0511018
0.0499611
0.0488375
0.0477329
0.046649
0.0455873
0.0445488
0.0435346
0.0425454
0.0415818
0.0406442
0.0397327
0.0388475
0.0379884
0.0371553
0.0363476
0.035565
0.0348069
0.0340725
0.0333611
0.0326718
0.0320038
0.031356
0.0307276
0.0301175
0.0295248
0.0289485
0.0283878
0.0278417
0.0273096
0.0267907
0.0262845
0.0257906
0.0253087
0.0248386
0.0243803
0.0239338
0.0234995
0.0230777
0.0226689
0.0222735
0.0218923
0.0215259
0.0211751
0.0208405
0.0205232
0.0202244
0.0199444
0.0196835
0.0194418
0.0192192
0.0190154
0.01883
0.0186624
0.018512
0.0183778
0.0182588
0.0181541
0.0180625
0.0179827
0.0179136
0.017854
0.0178024
0.0177578
0.0177188
0.0176841
0.0176525
0.0176226
0.0175929
0.0175618
0.0175278
0.0174894
0.0174532
0.00579781
0.0111486
0.0135582
0.0150292
0.0160621
0.0168777
0.0176039
0.0183178
0.0190645
0.0198673
0.0207355
0.0216697
0.0226658
0.0237169
0.0248153
0.025953
0.0271224
0.0283164
0.0295286
0.0307533
0.0319854
0.0332204
0.0344544
0.0356837
0.0369053
0.0381163
0.0393145
0.0404976
0.0416639
0.0428119
0.0439402
0.0450481
0.0461346
0.0471994
0.0482422
0.049263
0.0502619
0.0512394
0.0521959
0.0531322
0.0540489
0.0549472
0.0558279
0.0566922
0.0575412
0.0583762
0.0591983
0.0600088
0.0608088
0.0615995
0.0623821
0.0631576
0.0639269
0.0646909
0.0654508
0.0662074
0.066961
0.0677119
0.0684598
0.0692041
0.0699438
0.0706777
0.0714038
0.0721199
0.0728234
0.0735112
0.0741798
0.0748253
0.0754434
0.0760297
0.0765792
0.0770872
0.0775484
0.0779579
0.0783105
0.0786015
0.0788261
0.0789802
0.07906
0.079062
0.0789837
0.0788229
0.0785781
0.0782489
0.0778351
0.0773377
0.0767578
0.0760983
0.0753608
0.0745507
0.0736757
0.0727404
0.0717504
0.0707113
0.0696287
0.0685079
0.067354
0.066172
0.0649669
0.0637435
0.0625066
0.0612606
0.0600098
0.0587583
0.0575099
0.0562681
0.0550361
0.0538168
0.0526128
0.0514265
0.05026
0.049115
0.0479931
0.0468957
0.0458237
0.0447782
0.0437597
0.0427687
0.0418056
0.0408704
0.0399631
0.0390836
0.0382315
0.0374064
0.0366077
0.0358348
0.0350869
0.0343631
0.0336625
0.0329842
0.0323272
0.0316904
0.0310727
0.0304732
0.0298909
0.0293249
0.0287743
0.0282383
0.0277164
0.0272078
0.0267123
0.0262295
0.0257593
0.0253018
0.024857
0.0244252
0.0240068
0.0236023
0.0232123
0.0228373
0.022478
0.0221352
0.0218095
0.0215021
0.0212136
0.0209441
0.0206939
0.020463
0.020251
0.0200578
0.0198827
0.019725
0.019584
0.0194587
0.019348
0.0192509
0.0191661
0.0190924
0.0190286
0.0189733
0.0189254
0.0188835
0.0188464
0.0188127
0.0187812
0.0187505
0.0187193
0.0186861
0.0186503
0.0186182
0.00594646
0.0112774
0.013761
0.0153193
0.0164454
0.0173507
0.0181569
0.0189393
0.0197437
0.020595
0.0215043
0.0224737
0.0234999
0.0245774
0.0256993
0.026859
0.02805
0.0292664
0.0305028
0.0317545
0.0330172
0.0342869
0.0355599
0.0368331
0.0381033
0.0393676
0.0406234
0.0418683
0.0431001
0.0443168
0.0455167
0.0466983
0.0478605
0.0490022
0.0501227
0.0512215
0.0522983
0.0533531
0.0543859
0.0553972
0.0563873
0.0573571
0.0583071
0.0592382
0.0601515
0.061048
0.0619287
0.0627946
0.063647
0.064487
0.0653156
0.0661338
0.0669426
0.067743
0.0685358
0.0693221
0.0701026
0.0708776
0.0716472
0.0724109
0.073168
0.0739171
0.0746566
0.0753844
0.0760978
0.0767939
0.0774691
0.0781197
0.0787414
0.0793296
0.0798796
0.0803865
0.0808452
0.0812504
0.0815973
0.0818807
0.0820962
0.0822394
0.0823065
0.0822941
0.0821994
0.0820204
0.0817556
0.0814041
0.0809665
0.0804434
0.0798348
0.0791464
0.078382
0.0775452
0.0766413
0.0756753
0.0746526
0.0735786
0.0724588
0.0712987
0.0701036
0.0688788
0.0676295
0.0663608
0.0650774
0.063784
0.0624852
0.061185
0.0598875
0.0585962
0.0573145
0.0560454
0.0547917
0.053556
0.0523403
0.0511466
0.0499766
0.0488317
0.0477132
0.046622
0.0455588
0.0445244
0.0435191
0.042543
0.0415964
0.040679
0.0397906
0.0389308
0.0380992
0.0372951
0.0365178
0.0357664
0.03504
0.0343377
0.0336585
0.0330011
0.0323647
0.0317481
0.0311503
0.0305702
0.0300069
0.0294596
0.0289274
0.0284097
0.0279061
0.027416
0.0269393
0.0264758
0.0260256
0.0255888
0.0251657
0.0247567
0.0243623
0.023983
0.0236195
0.0232724
0.0229422
0.0226301
0.0223366
0.0220619
0.0218064
0.0215701
0.0213528
0.0211541
0.0209737
0.0208109
0.0206649
0.0205349
0.0204197
0.0203183
0.0202295
0.0201521
0.0200849
0.0200266
0.0199759
0.0199316
0.0198924
0.0198569
0.0198241
0.0197925
0.0197609
0.0197282
0.0196942
0.0196648
0.00598135
0.011198
0.0137087
0.0153272
0.0165319
0.0175212
0.0184071
0.0192593
0.0201211
0.0210176
0.0219613
0.022956
0.0240007
0.0250918
0.0262243
0.0273931
0.0285933
0.0298201
0.0310694
0.0323371
0.0336197
0.0349137
0.0362159
0.037523
0.0388322
0.0401403
0.0414447
0.0427428
0.0440319
0.0453098
0.0465743
0.0478237
0.049056
0.0502701
0.0514645
0.0526385
0.0537912
0.0549222
0.0560312
0.0571181
0.0581831
0.0592265
0.0602486
0.0612501
0.0622315
0.0631938
0.0641377
0.0650641
0.0659739
0.0668681
0.0677477
0.0686134
0.0694662
0.0703069
0.071136
0.0719547
0.0727639
0.0735641
0.0743555
0.0751376
0.0759098
0.0766711
0.0774197
0.0781537
0.0788706
0.0795674
0.0802409
0.0808873
0.0815024
0.0820819
0.0826211
0.0831153
0.0835596
0.083949
0.0842785
0.0845434
0.0847391
0.0848616
0.084907
0.0848721
0.0847543
0.0845517
0.0842628
0.0838861
0.0834231
0.0828759
0.0822456
0.0815356
0.0807494
0.079891
0.0789649
0.0779761
0.0769296
0.0758307
0.0746849
0.0734977
0.0722743
0.0710202
0.0697406
0.0684405
0.067125
0.0657987
0.0644661
0.0631315
0.0617988
0.0604719
0.059154
0.0578485
0.056558
0.0552853
0.0540325
0.0528018
0.0515949
0.0504135
0.0492588
0.0481318
0.0470337
0.0459649
0.0449261
0.0439176
0.0429395
0.0419918
0.0410744
0.040187
0.0393292
0.0385004
0.0376999
0.0369269
0.0361806
0.03546
0.034764
0.0340916
0.0334417
0.0328131
0.0322048
0.0316156
0.0310446
0.0304907
0.0299531
0.029431
0.0289238
0.028431
0.0279522
0.0274872
0.0270358
0.0265982
0.0261744
0.0257649
0.02537
0.0249902
0.024626
0.024278
0.0239468
0.0236331
0.0233377
0.0230608
0.0228028
0.0225636
0.0223432
0.0221414
0.0219577
0.0217916
0.0216422
0.0215089
0.0213904
0.0212859
0.0211942
0.021114
0.0210441
0.0209834
0.0209305
0.0208841
0.0208431
0.0208063
0.0207722
0.0207399
0.020708
0.0206757
0.020643
0.0206156
0.00592975
0.0109774
0.0134838
0.0151395
0.0164046
0.0174642
0.0184195
0.0193334
0.0202456
0.0211801
0.0221502
0.0231616
0.0242154
0.0253102
0.0264431
0.0276109
0.02881
0.0300371
0.031289
0.0325626
0.0338549
0.0351629
0.0364837
0.0378144
0.0391521
0.0404939
0.0418369
0.0431783
0.0445154
0.0458457
0.0471667
0.0484762
0.0497721
0.0510526
0.0523161
0.0535613
0.0547869
0.0559921
0.0571763
0.0583388
0.0594795
0.0605982
0.061695
0.06277
0.0638236
0.0648561
0.0658681
0.0668602
0.0678329
0.0687869
0.069723
0.0706416
0.0715436
0.0724294
0.073299
0.0741538
0.0749947
0.075822
0.076636
0.0774363
0.0782223
0.078993
0.0797469
0.0804819
0.0811959
0.0818861
0.0825491
0.0831816
0.0837795
0.0843388
0.0848552
0.0853243
0.0857416
0.0861024
0.0864022
0.0866365
0.086801
0.0868919
0.086906
0.0868401
0.0866916
0.0864594
0.0861426
0.0857407
0.0852545
0.0846856
0.0840356
0.0833075
0.0825043
0.0816301
0.0806889
0.0796854
0.0786244
0.0775111
0.0763507
0.0751485
0.0739097
0.0726396
0.0713433
0.0700259
0.0686923
0.0673471
0.0659949
0.0646398
0.0632858
0.0619368
0.0605961
0.0592669
0.0579522
0.0566547
0.0553766
0.0541202
0.0528874
0.0516797
0.0504988
0.0493457
0.0482215
0.0471271
0.0460631
0.0450299
0.0440278
0.043057
0.0421174
0.0412089
0.040331
0.0394833
0.0386653
0.0378762
0.0371151
0.0363812
0.0356734
0.0349907
0.0343319
0.0336958
0.0330814
0.0324875
0.0319129
0.0313567
0.0308178
0.0302953
0.0297886
0.029297
0.02882
0.0283571
0.0279084
0.0274735
0.0270527
0.0266462
0.0262541
0.025877
0.0255153
0.0251695
0.0248401
0.0245278
0.0242331
0.0239566
0.0236984
0.0234587
0.0232374
0.0230344
0.0228492
0.0226814
0.0225302
0.0223948
0.0222744
0.0221678
0.022074
0.0219918
0.02192
0.0218575
0.0218028
0.021755
0.0217126
0.0216745
0.0216396
0.0216067
0.0215747
0.0215428
0.0215113
0.0214856
0.00581154
0.0106624
0.013145
0.0148205
0.0161287
0.0172422
0.0182526
0.0192159
0.020168
0.0211314
0.0221194
0.0231392
0.0241939
0.0252841
0.0264089
0.0275667
0.0287557
0.0299737
0.0312184
0.0324877
0.0337791
0.0350903
0.0364188
0.037762
0.0391171
0.0404814
0.041852
0.0432261
0.044601
0.0459739
0.0473423
0.0487035
0.0500554
0.0513957
0.0527226
0.0540343
0.0553292
0.0566061
0.0578638
0.0591014
0.0603182
0.0615137
0.0626873
0.0638389
0.0649683
0.0660755
0.0671605
0.0682234
0.0692645
0.070284
0.0712822
0.0722594
0.0732157
0.0741515
0.0750662
0.075961
0.0768364
0.0776929
0.0785305
0.0793488
0.0801471
0.0809244
0.0816791
0.0824096
0.0831137
0.0837888
0.0844321
0.0850401
0.0856092
0.0861358
0.0866163
0.0870467
0.0874232
0.0877419
0.0879988
0.0881896
0.0883105
0.0883587
0.0883314
0.0882264
0.0880416
0.0877759
0.0874287
0.0869999
0.0864902
0.0859007
0.0852335
0.0844909
0.0836759
0.0827921
0.0818434
0.0808339
0.0797683
0.0786514
0.0774879
0.076283
0.0750416
0.0737689
0.0724696
0.0711488
0.0698111
0.0684611
0.0671031
0.0657413
0.0643797
0.0630219
0.0616714
0.0603313
0.0590047
0.0576942
0.0564024
0.0551313
0.0538831
0.0526594
0.0514619
0.0502919
0.0491505
0.0480388
0.0469574
0.0459071
0.0448881
0.0439009
0.0429454
0.0420217
0.0411295
0.0402684
0.039438
0.0386377
0.0378666
0.0371239
0.0364087
0.0357198
0.0350562
0.0344166
0.0338
0.0332051
0.0326308
0.0320758
0.0315393
0.03102
0.0305173
0.0300303
0.0295584
0.0291012
0.0286583
0.0282295
0.0278147
0.0274142
0.027028
0.0266565
0.0263001
0.0259592
0.0256343
0.0253258
0.0250344
0.0247605
0.0245044
0.0242662
0.024046
0.0238435
0.0236585
0.0234905
0.0233388
0.0232028
0.0230814
0.0229737
0.0228788
0.0227953
0.0227223
0.0226585
0.0226027
0.0225537
0.0225103
0.0224715
0.0224359
0.0224026
0.0223707
0.0223393
0.0223091
0.0222847
0.00564021
0.0102846
0.0127331
0.0144169
0.0157543
0.0169067
0.0179578
0.0189577
0.0199385
0.020921
0.0219186
0.0229392
0.0239875
0.0250657
0.0261747
0.0273147
0.028485
0.0296848
0.0309127
0.0321675
0.0334474
0.0347508
0.0360756
0.0374196
0.0387805
0.0401557
0.0415425
0.0429383
0.0443403
0.0457458
0.047152
0.0485564
0.0499565
0.0513498
0.0527342
0.0541076
0.0554681
0.0568139
0.0581436
0.0594557
0.060749
0.0620225
0.0632752
0.0645063
0.0657151
0.066901
0.0680635
0.0692023
0.0703169
0.0714071
0.0724726
0.0735132
0.0745286
0.0755186
0.0764821
0.0774199
0.0783321
0.0792189
0.0800801
0.0809149
0.0817227
0.0825023
0.0832523
0.083971
0.0846566
0.0853068
0.0859197
0.0864913
0.0870184
0.0874984
0.0879285
0.0883056
0.0886265
0.0888883
0.0890878
0.0892219
0.089288
0.0892835
0.0892065
0.0890552
0.0888283
0.0885248
0.0881444
0.0876872
0.0871538
0.0865454
0.0858638
0.0851111
0.08429
0.0834035
0.0824553
0.0814491
0.0803889
0.0792793
0.0781245
0.0769293
0.0756983
0.0744361
0.0731475
0.0718369
0.0705089
0.0691678
0.0678178
0.0664628
0.0651068
0.0637533
0.0624057
0.0610671
0.0597406
0.0584288
0.0571343
0.0558594
0.054606
0.0533762
0.0521715
0.0509934
0.0498433
0.0487222
0.0476311
0.0465708
0.0455417
0.0445444
0.0435791
0.0426459
0.0417446
0.0408752
0.0400373
0.0392302
0.0384534
0.037706
0.0369872
0.036296
0.0356312
0.0349918
0.0343764
0.0337839
0.033213
0.0326626
0.0321315
0.0316186
0.0311229
0.0306436
0.0301798
0.0297311
0.029297
0.028877
0.0284712
0.0280794
0.0277018
0.0273385
0.0269899
0.0266563
0.0263382
0.0260358
0.0257499
0.0254807
0.0252287
0.024994
0.0247765
0.0245763
0.0243931
0.0242263
0.0240754
0.0239398
0.0238185
0.0237108
0.0236155
0.0235316
0.0234579
0.0233934
0.0233369
0.0232873
0.0232433
0.0232039
0.0231681
0.0231347
0.023103
0.0230724
0.0230433
0.0230203
0.00542323
0.00986493
0.0122767
0.013963
0.0153203
0.0165004
0.0175804
0.0186056
0.0196051
0.0205982
0.0215977
0.0226123
0.0236475
0.0247072
0.0257936
0.0269083
0.0280522
0.0292258
0.0304278
0.0316581
0.032916
0.0342006
0.0355105
0.036844
0.0381992
0.039574
0.0409661
0.0423728
0.0437918
0.0452203
0.0466557
0.0480953
0.0495365
0.0509767
0.0524135
0.0538445
0.0552674
0.0566802
0.0580807
0.0594672
0.0608378
0.0621908
0.0635248
0.0648383
0.0661298
0.0673982
0.0686423
0.069861
0.0710533
0.0722183
0.073355
0.0744626
0.0755403
0.0765867
0.0776008
0.0785824
0.0795315
0.0804473
0.0813295
0.082177
0.0829889
0.0837639
0.0845008
0.0851979
0.0858537
0.0864662
0.0870336
0.0875536
0.088024
0.0884426
0.0888074
0.0891165
0.0893677
0.089559
0.0896884
0.0897542
0.0897545
0.0896878
0.0895528
0.0893485
0.0890741
0.088729
0.0883132
0.0878269
0.0872708
0.0866458
0.0859535
0.0851957
0.0843747
0.0834931
0.0825538
0.0815603
0.080516
0.0794246
0.0782903
0.077117
0.0759089
0.0746702
0.0734053
0.0721182
0.0708132
0.0694942
0.0681653
0.0668301
0.0654925
0.0641557
0.0628232
0.061498
0.060183
0.0588811
0.0575946
0.056326
0.0550775
0.0538508
0.0526479
0.0514704
0.0503196
0.0491968
0.0481032
0.0470397
0.0460069
0.0450055
0.044036
0.0430986
0.0421933
0.0413203
0.0404791
0.0396695
0.0388909
0.0381426
0.0374238
0.0367336
0.0360709
0.0354346
0.0348235
0.0342363
0.0336718
0.0331288
0.0326059
0.032102
0.0316161
0.031147
0.0306941
0.0302565
0.0298337
0.0294251
0.0290306
0.0286501
0.0282833
0.0279306
0.0275921
0.0272681
0.0269588
0.0266647
0.0263862
0.0261237
0.0258776
0.0256481
0.0254351
0.0252387
0.0250585
0.0248943
0.0247454
0.0246114
0.0244912
0.0243842
0.0242894
0.0242057
0.0241321
0.0240675
0.0240108
0.0239609
0.0239167
0.0238772
0.0238413
0.0238081
0.0237768
0.023747
0.0237193
0.0236977
0.00516338
0.00940973
0.0117942
0.0134847
0.0148586
0.01606
0.017161
0.0182033
0.0192139
0.0202105
0.0212058
0.0222085
0.0232251
0.0242604
0.025318
0.0264006
0.0275103
0.0286484
0.0298157
0.0310127
0.0322397
0.0334962
0.0347818
0.0360954
0.0374357
0.038801
0.0401894
0.0415988
0.0430268
0.0444711
0.045929
0.047398
0.0488753
0.0503582
0.0518441
0.0533303
0.0548141
0.056293
0.0577643
0.0592258
0.0606748
0.0621091
0.0635265
0.0649246
0.0663015
0.0676549
0.0689831
0.070284
0.071556
0.0727973
0.0740062
0.0751813
0.0763211
0.0774228
0.0784855
0.079508
0.0804895
0.081429
0.0823252
0.0831771
0.0839835
0.0847432
0.0854548
0.0861172
0.0867291
0.0872892
0.0877963
0.0882492
0.0886467
0.088988
0.089272
0.0894979
0.0896649
0.0897724
0.0898196
0.0898058
0.0897306
0.0895933
0.0893935
0.0891308
0.0888051
0.0884162
0.0879643
0.0874497
0.0868729
0.0862348
0.0855365
0.0847795
0.0839655
0.0830966
0.0821752
0.0812038
0.0801855
0.0791233
0.0780205
0.0768807
0.0757074
0.0745044
0.0732754
0.0720242
0.0707544
0.0694699
0.0681741
0.0668708
0.0655633
0.0642548
0.0629487
0.0616479
0.0603552
0.0590734
0.057805
0.0565523
0.0553177
0.0541031
0.0529104
0.0517413
0.0505975
0.0494802
0.0483909
0.0473305
0.0463
0.0453002
0.0443318
0.0433951
0.0424905