/*--------------------------------*- C++ -*----------------------------------*\
  =========                 |
  \\      /  F ield         | OpenFOAM: The Open Source CFD Toolbox
   \\    /   O peration     | Website:  https://openfoam.org
    \\  /    A nd           | Version:  6
     \\/     M anipulation  |
\*---------------------------------------------------------------------------*/
FoamFile
{
    version     2.0;
    format      ascii;
    class       volScalarField;
    location    "0.24";
    object      nut;
}
// * * * * * * * * * * * * * * * * * * * * * * * * * * * * * * * * * * * * * //

dimensions      [0 2 -1 0 0 0 0];

internalField   nonuniform List<scalar> 
12225
(
1.77723e-05
1.42681e-05
1.23501e-05
1.11614e-05
1.03583e-05
9.78654e-06
9.35907e-06
9.02354e-06
8.749e-06
8.51719e-06
8.317e-06
8.14122e-06
7.98498e-06
7.84475e-06
7.71788e-06
7.6024e-06
7.49665e-06
7.4053e-06
0.00014488
0.000101905
8.78785e-05
8.05076e-05
7.60398e-05
7.30459e-05
7.07282e-05
6.87053e-05
6.68502e-05
6.51351e-05
6.35517e-05
6.20909e-05
6.07425e-05
5.94956e-05
5.83413e-05
5.72633e-05
5.62993e-05
5.54304e-05
0.000323316
0.000223553
0.00018976
0.000172499
0.000161946
0.000154823
0.000149529
0.000145225
0.000141506
0.000138191
0.000135185
0.000132435
0.000129903
0.000127561
0.000125386
0.000123356
0.000121501
0.000119871
0.000493959
0.00035521
0.000299381
0.000269548
0.000250972
0.000238326
0.000229058
0.000221792
0.000215787
0.000210634
0.0002061
0.00020204
0.00019836
0.000194992
0.00019189
0.000189018
0.000186385
0.000184066
0.000624463
0.000478649
0.000407296
0.000366103
0.000339475
0.000320953
0.00030729
0.000296673
0.000288058
0.000280826
0.000274593
0.000269113
0.000264221
0.0002598
0.00025577
0.000252074
0.000248701
0.000245728
0.000713105
0.000583329
0.000506457
0.000457797
0.000424721
0.000400986
0.000383164
0.00036923
0.000357953
0.000348558
0.000340544
0.000333574
0.000327417
0.000321908
0.00031693
0.000312402
0.000308297
0.000304681
0.000769316
0.000665557
0.000592241
0.00054104
0.000504138
0.000476629
0.000455451
0.000438649
0.000424953
0.000413525
0.000403795
0.000395367
0.00038796
0.000381371
0.000375451
0.0003701
0.000365276
0.000361027
0.000803464
0.000726286
0.000662487
0.000613305
0.000575533
0.00054613
0.000522803
0.000503913
0.000488311
0.000475188
0.000463969
0.000454237
0.000445689
0.000438098
0.000431297
0.000425171
0.000419666
0.000414814
0.000823632
0.000768911
0.000717171
0.000673316
0.00063735
0.000608014
0.000583935
0.000563951
0.000547151
0.000532843
0.000520506
0.000509746
0.000500263
0.000491827
0.000484268
0.000477466
0.00047136
0.000465964
0.000835321
0.000797581
0.000757798
0.000721016
0.000688828
0.000661267
0.000637804
0.000617784
0.000600597
0.000585727
0.000572751
0.000561334
0.000551207
0.000542159
0.000534028
0.0005267
0.000520114
0.000514271
0.000842014
0.000816187
0.000786712
0.000757338
0.000730012
0.000705459
0.00068375
0.000664669
0.000647902
0.000633125
0.000620043
0.0006084
0.000597981
0.000588609
0.000580143
0.000572485
0.000565581
0.000559425
0.000845506
0.00082693
0.000804837
0.000781629
0.000758972
0.000737766
0.000718375
0.000700855
0.000685111
0.00067098
0.000658281
0.000646841
0.0006365
0.000627123
0.000618599
0.000610848
0.000603831
0.000597544
0.000847618
0.000833937
0.000817463
0.000799505
0.000781248
0.000763506
0.000746747
0.000731182
0.000716866
0.000703766
0.000691802
0.000680876
0.000670888
0.000661746
0.000653372
0.00064571
0.000638733
0.000632439
0.00084898
0.000838773
0.000826761
0.000813446
0.000799482
0.000785442
0.00077174
0.000758637
0.000746271
0.000734699
0.000723925
0.000713922
0.000704648
0.000696056
0.000688104
0.000680766
0.00067403
0.000667892
0.000849782
0.00084179
0.000832926
0.000823243
0.000812978
0.000802419
0.000791835
0.000781432
0.000771358
0.000761704
0.000752521
0.000743832
0.000735638
0.000727935
0.000720714
0.000713973
0.00070772
0.000701946
0.000850209
0.000843469
0.00083655
0.000829333
0.000821816
0.000814074
0.000806213
0.000798342
0.000790558
0.000782936
0.000775532
0.000768386
0.000761524
0.000754965
0.000748725
0.00074282
0.00073727
0.000732061
0.000850409
0.000844283
0.000838388
0.000832578
0.000826761
0.000820901
0.000814994
0.000809063
0.000803139
0.000797259
0.000791456
0.000785761
0.000780202
0.000774803
0.000769591
0.000764591
0.000759822
0.000755267
0.000850482
0.000844584
0.000839091
0.000833867
0.000828806
0.000823834
0.000818906
0.000813999
0.000809108
0.000804239
0.000799404
0.000794621
0.000789908
0.000785288
0.000780784
0.000776422
0.000772219
0.000768145
0.000850461
0.000844499
0.000838897
0.000833517
0.00082826
0.000823066
0.000817901
0.000812754
0.000807631
0.000802543
0.000797508
0.000792544
0.000787673
0.000782915
0.000778294
0.000773832
0.000769543
0.000765395
0.000850264
0.000843698
0.000837082
0.000830294
0.000823311
0.000816173
0.000808954
0.000801733
0.000794586
0.000787575
0.000780749
0.000774144
0.000767786
0.000761694
0.000755884
0.000750371
0.00074516
0.000740212
0.000849709
0.000841538
0.000832462
0.000822583
0.000812163
0.0008015
0.000790857
0.000780437
0.000770379
0.000760769
0.000751654
0.000743052
0.000734963
0.00072738
0.000720288
0.000713679
0.000707537
0.000701817
0.000848165
0.000835955
0.000821438
0.000805565
0.000789265
0.000773226
0.000757885
0.000743476
0.000730093
0.000717746
0.000706395
0.000695976
0.000686418
0.000677648
0.0006696
0.000662224
0.000655476
0.000649292
0.000844088
0.000822755
0.000797961
0.000772554
0.000748256
0.000725882
0.000705694
0.000687656
0.000671599
0.000657307
0.000644561
0.000633159
0.000622924
0.000613703
0.000605372
0.000597837
0.000591026
0.000584863
0.000833791
0.00079425
0.000753396
0.000716082
0.000683659
0.000656022
0.00063258
0.000612645
0.000595589
0.000580882
0.000568099
0.000556898
0.000547008
0.000538216
0.000530358
0.00052331
0.000516987
0.000511314
0.000809076
0.000738693
0.000678547
0.000630934
0.000593623
0.000564152
0.000540546
0.000521324
0.000505408
0.000492018
0.000480592
0.000470713
0.000462075
0.000454448
0.00044766
0.00044159
0.000436155
0.000431299
0.000753685
0.000642687
0.000568249
0.000517625
0.000481625
0.000455035
0.000434736
0.000418755
0.00040582
0.000395096
0.000386017
0.000378197
0.000371362
0.000365315
0.000359916
0.000355067
0.000350709
0.000346811
0.000641466
0.000499155
0.000426794
0.000383991
0.000355865
0.000336167
0.000321659
0.00031047
0.000301483
0.000294019
0.000287654
0.00028211
0.000277204
0.000272809
0.000268838
0.00026523
0.000261954
0.000259005
0.000448553
0.000320189
0.000270289
0.000243477
0.00022673
0.000215453
0.000207326
0.000201045
0.000195893
0.00019148
0.000187592
0.000184102
0.000180932
0.000178031
0.000175361
0.000172898
0.000170631
0.000168571
0.000203095
0.000143552
0.000122976
0.00011171
0.000104815
0.000100371
9.71877e-05
9.4603e-05
9.23216e-05
9.02346e-05
8.83029e-05
8.65094e-05
8.48437e-05
8.32971e-05
8.18617e-05
8.05291e-05
7.92932e-05
7.81537e-05
2.40294e-05
1.96339e-05
1.71031e-05
1.54671e-05
1.43248e-05
1.34924e-05
1.28647e-05
1.2374e-05
1.1977e-05
1.16463e-05
1.13641e-05
1.1119e-05
1.0903e-05
1.07106e-05
1.05379e-05
1.03817e-05
1.02398e-05
1.01108e-05
1.89157e-06
5.36072e-06
5.81354e-06
5.97265e-06
6.08267e-06
6.25293e-06
6.46365e-06
6.71369e-06
7.00788e-06
7.37483e-06
7.72857e-06
8.08935e-06
8.45758e-06
8.83015e-06
9.20278e-06
9.57121e-06
9.93191e-06
1.02822e-05
1.06204e-05
1.09452e-05
1.12562e-05
1.15531e-05
1.18361e-05
1.21055e-05
1.23619e-05
1.26058e-05
1.2838e-05
1.30592e-05
1.32702e-05
1.34717e-05
1.36644e-05
1.38492e-05
1.40266e-05
1.41974e-05
1.43621e-05
1.45213e-05
1.46754e-05
1.4825e-05
1.49703e-05
1.51119e-05
1.52499e-05
1.53847e-05
1.55165e-05
1.56455e-05
1.57719e-05
1.58957e-05
1.60173e-05
1.61367e-05
1.6254e-05
1.63696e-05
1.64836e-05
1.65964e-05
1.67085e-05
1.68204e-05
1.69362e-05
1.70489e-05
1.71586e-05
1.72654e-05
1.73691e-05
1.74696e-05
1.75665e-05
1.76596e-05
1.77485e-05
1.78328e-05
1.79122e-05
1.79862e-05
1.80545e-05
1.81166e-05
1.81721e-05
1.82205e-05
1.82615e-05
1.82946e-05
1.83195e-05
1.83356e-05
1.83428e-05
1.83405e-05
1.83286e-05
1.83068e-05
1.82748e-05
1.82325e-05
1.81798e-05
1.81166e-05
1.80429e-05
1.79588e-05
1.78642e-05
1.77596e-05
1.76449e-05
1.75205e-05
1.73868e-05
1.7244e-05
1.70926e-05
1.6933e-05
1.67655e-05
1.65906e-05
1.64081e-05
1.62183e-05
1.60332e-05
1.58897e-05
1.57622e-05
1.56346e-05
1.55048e-05
1.53725e-05
1.52382e-05
1.5102e-05
1.49643e-05
1.48256e-05
1.46862e-05
1.45465e-05
1.44067e-05
1.42673e-05
1.41284e-05
1.39904e-05
1.38535e-05
1.3718e-05
1.35839e-05
1.34516e-05
1.33211e-05
1.31927e-05
1.30662e-05
1.2942e-05
1.28199e-05
1.27001e-05
1.25825e-05
1.2467e-05
1.23538e-05
1.22426e-05
1.21334e-05
1.2026e-05
1.19204e-05
1.18164e-05
1.17138e-05
1.16125e-05
1.15122e-05
1.14128e-05
1.13141e-05
1.1216e-05
1.11182e-05
1.10207e-05
1.09233e-05
1.08259e-05
1.07285e-05
1.06311e-05
1.05335e-05
1.0436e-05
1.03386e-05
1.02411e-05
1.01433e-05
1.00446e-05
9.94467e-06
9.84876e-06
9.75633e-06
9.66746e-06
9.58223e-06
9.50072e-06
9.423e-06
9.34914e-06
9.27918e-06
9.21316e-06
9.15107e-06
9.09287e-06
9.03847e-06
8.98775e-06
8.94054e-06
8.89665e-06
8.85585e-06
8.81786e-06
8.78241e-06
8.74918e-06
8.71783e-06
8.688e-06
8.65928e-06
8.63122e-06
8.60326e-06
8.57472e-06
8.54466e-06
8.51164e-06
8.47341e-06
8.42556e-06
8.36155e-06
8.26544e-06
2.65446e-06
1.54648e-05
2.63674e-05
3.29191e-05
3.57041e-05
3.66847e-05
3.73593e-05
3.81975e-05
3.91659e-05
4.01536e-05
4.1161e-05
4.2238e-05
4.34411e-05
4.48111e-05
4.63698e-05
4.81241e-05
5.00699e-05
5.2195e-05
5.44811e-05
5.69048e-05
5.94393e-05
6.20559e-05
6.47256e-05
6.742e-05
7.01136e-05
7.27837e-05
7.54117e-05
7.79831e-05
8.04875e-05
8.29182e-05
8.52719e-05
8.75484e-05
8.97496e-05
9.18792e-05
9.39423e-05
9.5945e-05
9.78936e-05
9.97951e-05
0.000101656
0.000103484
0.000105285
0.000107065
0.000108829
0.000110582
0.000112329
0.000114072
0.000115812
0.000117549
0.000119282
0.000121007
0.000122716
0.000124398
0.00012604
0.000127625
0.000129122
0.000130619
0.000132131
0.000133657
0.000135197
0.000136748
0.00013831
0.000139877
0.000141447
0.000143016
0.000144578
0.00014613
0.000147664
0.000149174
0.000150656
0.0001521
0.000153501
0.000154851
0.000156142
0.000157368
0.00015852
0.000159593
0.000160579
0.000161472
0.000162265
0.000162954
0.000163535
0.000164002
0.000164353
0.000164585
0.000164698
0.000164689
0.00016456
0.00016431
0.00016394
0.000163452
0.000162847
0.000162123
0.000161276
0.000160291
0.000159135
0.000157748
0.00015609
0.000154239
0.000152293
0.000150286
0.000148232
0.000146142
0.000144024
0.000141884
0.000139729
0.000137565
0.000135397
0.000133231
0.000131071
0.000128923
0.000126789
0.000124674
0.000122581
0.000120513
0.000118473
0.000116462
0.000114484
0.000112539
0.000110628
0.000108753
0.000106915
0.000105113
0.000103347
0.000101618
9.99254e-05
9.82674e-05
9.66434e-05
9.50523e-05
9.34927e-05
9.1963e-05
9.04616e-05
8.89869e-05
8.75371e-05
8.61107e-05
8.47061e-05
8.33221e-05
8.19573e-05
8.06111e-05
7.92828e-05
7.79723e-05
7.66799e-05
7.54062e-05
7.41523e-05
7.29197e-05
7.17099e-05
7.0524e-05
6.93604e-05
6.82117e-05
6.70522e-05
6.58687e-05
6.47413e-05
6.36922e-05
6.2717e-05
6.18123e-05
6.09758e-05
6.02058e-05
5.95003e-05
5.88575e-05
5.82748e-05
5.77496e-05
5.72786e-05
5.6858e-05
5.64838e-05
5.61517e-05
5.58571e-05
5.5595e-05
5.53605e-05
5.51482e-05
5.49523e-05
5.47666e-05
5.45841e-05
5.43961e-05
5.41915e-05
5.39546e-05
5.36609e-05
5.32698e-05
5.2699e-05
5.18247e-05
5.02413e-05
4.81338e-05
3.32078e-06
2.48627e-05
4.14285e-05
5.08466e-05
5.57907e-05
5.84367e-05
6.02399e-05
6.19567e-05
6.38595e-05
6.60179e-05
6.84713e-05
7.12674e-05
7.44524e-05
7.80546e-05
8.20787e-05
8.65056e-05
9.12971e-05
9.64003e-05
0.000101753
0.000107288
0.000112938
0.000118641
0.000124339
0.000129983
0.000135534
0.00014096
0.00014624
0.000151359
0.00015631
0.000161091
0.000165704
0.000170155
0.000174451
0.000178603
0.00018262
0.000186515
0.000190299
0.000193983
0.000197578
0.000201094
0.000204542
0.00020793
0.000211267
0.000214559
0.000217813
0.000221032
0.000224221
0.00022738
0.000230509
0.000233609
0.000236675
0.000239704
0.000242692
0.000245638
0.000248562
0.000251497
0.000254452
0.000257428
0.000260425
0.000263438
0.000266463
0.000269496
0.000272529
0.000275555
0.000278566
0.000281552
0.000284503
0.000287407
0.000290252
0.000293025
0.000295713
0.000298301
0.000300777
0.000303126
0.000305333
0.000307386
0.000309271
0.000310976
0.00031249
0.000313801
0.0003149
0.00031578
0.000316433
0.000316856
0.000317043
0.000316993
0.000316705
0.000316179
0.000315416
0.000314418
0.000313186
0.000311718
0.000310009
0.000308049
0.000305816
0.000303288
0.000300457
0.000297383
0.000294136
0.000290758
0.000287274
0.0002837
0.000280054
0.000276347
0.000272593
0.000268804
0.000264991
0.000261164
0.000257333
0.000253507
0.000249696
0.000245906
0.000242144
0.000238418
0.000234734
0.000231095
0.000227508
0.000223975
0.000220501
0.000217086
0.000213734
0.000210446
0.000207222
0.000204062
0.000200965
0.000197931
0.000194958
0.000192042
0.000189183
0.000186376
0.000183619
0.000180908
0.000178239
0.000175609
0.000173014
0.000170451
0.000167918
0.000165411
0.00016293
0.000160473
0.000158039
0.00015563
0.000153247
0.000150891
0.000148565
0.00014627
0.000144007
0.000141773
0.000139557
0.000137358
0.000135177
0.000133079
0.000131095
0.00012923
0.000127487
0.000125868
0.000124374
0.000123006
0.00012176
0.000120633
0.000119621
0.000118718
0.000117915
0.000117205
0.000116578
0.000116026
0.000115536
0.000115099
0.000114703
0.000114333
0.000113978
0.000113618
0.000113235
0.000112798
0.000112267
0.000111573
0.000110593
0.000109113
0.000106594
0.000102677
3.81707e-06
3.07485e-05
5.19858e-05
6.48264e-05
7.23458e-05
7.69279e-05
8.02115e-05
8.31911e-05
8.63802e-05
9.0009e-05
9.41768e-05
9.89253e-05
0.000104264
0.000110173
0.000116608
0.000123502
0.000130775
0.000138339
0.000146105
0.000153988
0.000161912
0.000169809
0.000177623
0.000185308
0.00019283
0.000200164
0.000207293
0.000214207
0.000220902
0.00022738
0.000233643
0.000239699
0.000245558
0.000251228
0.000256723
0.000262052
0.000267228
0.000272262
0.000277166
0.000281951
0.000286627
0.000291204
0.00029569
0.000300095
0.000304424
0.000308686
0.000312885
0.000317026
0.000321113
0.000325149
0.000329138
0.000333082
0.000336984
0.000340847
0.000344697
0.000348552
0.000352419
0.0003563
0.000360195
0.0003641
0.000368012
0.000371925
0.000375832
0.000379725
0.000383594
0.000387429
0.000391215
0.000394941
0.000398592
0.000402151
0.000405603
0.000408931
0.000412117
0.000415143
0.000417993
0.000420649
0.000423093
0.000425311
0.000427286
0.000429004
0.000430454
0.000431624
0.000432504
0.000433088
0.000433368
0.000433342
0.000433006
0.000432361
0.000431406
0.000430143
0.000428574
0.0004267
0.00042452
0.000422031
0.000419228
0.00041611
0.000412694
0.000409019
0.000405129
0.000401059
0.000396835
0.000392479
0.00038801
0.000383445
0.000378801
0.000374092
0.000369335
0.000364542
0.000359728
0.000354904
0.000350083
0.000345274
0.000340489
0.000335737
0.000331025
0.000326362
0.000321754
0.000317207
0.000312727
0.000308316
0.000303979
0.000299718
0.000295535
0.000291429
0.000287401
0.00028345
0.000279573
0.000275768
0.000272033
0.000268362
0.000264752
0.000261198
0.000257696
0.000254239
0.000250823
0.000247443
0.000244096
0.000240778
0.000237485
0.000234216
0.00023097
0.000227747
0.000224548
0.000221376
0.000218233
0.000215123
0.000212049
0.000209012
0.000206014
0.000203057
0.000200147
0.000197299
0.000194576
0.000191991
0.000189555
0.000187276
0.000185158
0.000183203
0.000181413
0.000179784
0.000178313
0.000176992
0.000175814
0.000174768
0.000173844
0.000173028
0.000172306
0.000171665
0.000171087
0.000170557
0.000170054
0.000169559
0.000169043
0.000168472
0.000167799
0.000166948
0.000165792
0.000164113
0.000161465
0.00015754
4.15498e-06
3.43042e-05
5.96511e-05
7.58962e-05
8.61812e-05
9.3011e-05
9.81457e-05
0.000102739
0.000107471
0.000112694
0.000118562
0.000125114
0.000132329
0.000140147
0.000148485
0.000157247
0.000166333
0.000175645
0.000185092
0.000194591
0.000204071
0.000213473
0.000222747
0.000231855
0.000240767
0.000249463
0.000257929
0.000266155
0.000274137
0.000281877
0.000289375
0.000296639
0.000303675
0.000310491
0.000317097
0.000323502
0.000329717
0.000335752
0.000341618
0.000347324
0.000352882
0.0003583
0.000363589
0.000368756
0.000373811
0.000378762
0.000383617
0.000388382
0.000393064
0.00039767
0.000402207
0.000406679
0.000411093
0.000415453
0.000419783
0.000424098
0.000428408
0.000432717
0.000437027
0.000441338
0.000445647
0.000449951
0.000454244
0.000458519
0.000462767
0.000466978
0.000471141
0.000475241
0.000479264
0.000483195
0.000487017
0.000490711
0.000494259
0.000497643
0.000500842
0.000503838
0.000506611
0.000509144
0.000511418
0.000513418
0.000515128
0.000516534
0.000517624
0.000518389
0.000518819
0.00051891
0.000518657
0.000518057
0.00051711
0.000515816
0.000514179
0.0005122
0.000509881
0.000507221
0.000504231
0.000500924
0.000497318
0.000493442
0.000489326
0.000484999
0.000480485
0.000475806
0.000470983
0.000466035
0.00046098
0.000455835
0.000450618
0.000445345
0.00044003
0.000434689
0.000429334
0.00042398
0.000418638
0.000413319
0.000408033
0.00040279
0.000397599
0.000392466
0.000387399
0.000382402
0.000377481
0.000372638
0.000367876
0.000363197
0.0003586
0.000354086
0.000349652
0.000345296
0.000341014
0.000336802
0.000332655
0.000328569
0.000324536
0.000320551
0.000316609
0.000312703
0.000308829
0.000304981
0.000301156
0.000297351
0.000293565
0.000289797
0.000286049
0.000282322
0.000278621
0.00027495
0.000271315
0.00026772
0.000264172
0.000260678
0.000257247
0.000253886
0.00025064
0.00024754
0.000244601
0.000241834
0.000239247
0.000236847
0.000234636
0.000232615
0.000230779
0.000229123
0.00022764
0.000226318
0.000225146
0.000224108
0.00022319
0.000222375
0.000221645
0.000220978
0.000220355
0.00021975
0.000219133
0.000218468
0.000217704
0.000216766
0.000215536
0.000213821
0.000211291
0.000207813
4.35471e-06
3.64165e-05
6.49863e-05
8.43069e-05
9.7344e-05
0.000106586
0.000113816
0.00012025
0.000126659
0.000133472
0.00014089
0.000148968
0.000157677
0.000166944
0.000176675
0.000186769
0.000197123
0.000207646
0.000218252
0.000228868
0.000239431
0.000249889
0.0002602
0.00027033
0.000280252
0.000289948
0.000299402
0.000308606
0.000317554
0.000326244
0.000334675
0.000342852
0.000350777
0.000358456
0.000365897
0.000373106
0.000380091
0.000386861
0.000393426
0.000399793
0.000405971
0.000411972
0.000417802
0.000423472
0.000428991
0.000434368
0.00043961
0.000444728
0.000449729
0.000454623
0.000459416
0.000464116
0.000468731
0.000473267
0.000477743
0.000482178
0.000486586
0.000490975
0.00049535
0.000499715
0.000504069
0.000508414
0.000512746
0.000517061
0.000521353
0.000525614
0.000529834
0.000534002
0.000538105
0.000542128
0.000546055
0.000549869
0.000553551
0.000557082
0.000560443
0.000563612
0.000566571
0.000569299
0.000571776
0.000573984
0.000575906
0.000577526
0.000578828
0.000579801
0.000580434
0.000580718
0.000580647
0.000580216
0.000579423
0.000578267
0.000576752
0.000574872
0.000572633
0.000570048
0.000567129
0.00056389
0.00056035
0.000556531
0.000552456
0.00054815
0.000543634
0.000538929
0.000534057
0.000529036
0.000523886
0.000518625
0.000513271
0.000507842
0.000502353
0.00049682
0.000491259
0.000485683
0.000480106
0.000474541
0.000468999
0.00046349
0.000458025
0.000452612
0.000447258
0.000441971
0.000436756
0.000431616
0.000426557
0.000421579
0.000416684
0.00041187
0.000407139
0.000402485
0.000397907
0.000393401
0.00038896
0.000384579
0.000380252
0.000375972
0.000371733
0.000367529
0.000363352
0.000359199
0.000355063
0.000350943
0.000346835
0.000342738
0.000338655
0.000334586
0.000330536
0.000326511
0.000322517
0.000318562
0.000314655
0.000310804
0.000307023
0.000303321
0.000299722
0.000296269
0.000292979
0.000289866
0.000286942
0.000284215
0.000281692
0.000279373
0.000277259
0.000275343
0.00027362
0.000272078
0.000270705
0.000269488
0.000268409
0.000267451
0.000266593
0.000265815
0.000265093
0.000264401
0.000263708
0.000262975
0.000262152
0.00026117
0.000259921
0.000258246
0.000255914
0.000252922
4.47217e-06
3.74142e-05
6.83756e-05
9.03479e-05
0.000105962
0.000117594
0.000126973
0.000135309
0.000143398
0.000151714
0.000160495
0.000169824
0.00017969
0.000190033
0.000200765
0.000211795
0.000223032
0.000234393
0.000245803
0.000257198
0.000268522
0.000279731
0.000290786
0.000301656
0.000312316
0.000322748
0.000332936
0.00034287
0.000352541
0.000361945
0.00037108
0.000379944
0.000388538
0.000396866
0.00040493
0.000412736
0.000420288
0.000427594
0.000434659
0.000441492
0.0004481
0.000454491
0.000460673
0.000466655
0.000472447
0.000478056
0.000483492
0.000488765
0.000493883
0.000498857
0.000503695
0.000508406
0.000512999
0.000517482
0.000521871
0.000526191
0.000530458
0.000534686
0.000538885
0.000543062
0.000547224
0.000551372
0.000555509
0.000559635
0.000563746
0.000567839
0.000571906
0.00057594
0.000579928
0.00058386
0.00058772
0.000591494
0.000595162
0.000598707
0.000602109
0.000605347
0.0006084
0.000611247
0.000613868
0.000616242
0.000618349
0.000620171
0.000621691
0.000622894
0.000623766
0.000624296
0.000624476
0.000624296
0.000623757
0.000622849
0.000621567
0.00061992
0.000617917
0.000615568
0.000612885
0.000609882
0.000606575
0.000602981
0.000599122
0.000595017
0.000590686
0.00058615
0.000581427
0.000576538
0.000571502
0.000566338
0.000561062
0.000555694
0.00055025
0.000544747
0.000539201
0.000533626
0.000528037
0.000522447
0.000516868
0.000511314
0.000505792
0.000500315
0.00049489
0.000489524
0.000484225
0.000478997
0.000473845
0.000468771
0.000463776
0.000458862
0.000454028
0.00044927
0.000444587
0.000439973
0.000435424
0.000430934
0.000426496
0.000422104
0.000417749
0.000413426
0.000409126
0.000404845
0.000400577
0.000396316
0.000392062
0.000387812
0.000383567
0.000379328
0.0003751
0.000370889
0.000366702
0.000362547
0.000358436
0.000354379
0.00035039
0.000346481
0.000342668
0.000338994
0.000335476
0.000332134
0.000328982
0.000326029
0.000323285
0.000320753
0.000318434
0.000316324
0.000314418
0.000312707
0.000311179
0.00030982
0.000308612
0.000307539
0.000306579
0.000305711
0.00030491
0.00030415
0.000303398
0.000302618
0.00030176
0.000300761
0.000299528
0.000297931
0.000295813
0.000293253
4.52998e-06
3.76139e-05
7.02205e-05
9.43758e-05
0.000112282
0.000126133
0.000137559
0.000147717
0.000157393
0.000167076
0.000177035
0.000187387
0.000198151
0.00020929
0.00022074
0.000232426
0.000244272
0.000256208
0.000268169
0.000280101
0.000291954
0.000303688
0.000315268
0.000326666
0.000337858
0.000348823
0.000359547
0.000370016
0.000380221
0.000390153
0.000399808
0.000409181
0.000418272
0.000427078
0.000435601
0.000443843
0.000451806
0.000459494
0.000466912
0.000474064
0.000480958
0.000487598
0.000493993
0.000500149
0.000506075
0.00051178
0.000517272
0.00052256
0.000527654
0.000532564
0.0005373
0.000541873
0.000546292
0.000550569
0.000554716
0.000558764
0.000562734
0.000566644
0.00057051
0.000574345
0.000578158
0.000581957
0.00058575
0.000589539
0.000593326
0.000597111
0.000600891
0.000604661
0.000608413
0.000612137
0.000615821
0.000619452
0.000623013
0.000626487
0.000629853
0.000633092
0.000636182
0.000639101
0.000641828
0.000644339
0.000646614
0.00064863
0.000650371
0.000651818
0.000652953
0.000653761
0.00065424
0.000654361
0.000654123
0.000653523
0.000652563
0.000651246
0.00064958
0.000647571
0.000645231
0.000642571
0.000639606
0.00063635
0.00063282
0.000629035
0.000625013
0.000620772
0.000616331
0.000611709
0.000606925
0.000601998
0.000596945
0.000591784
0.000586534
0.000581209
0.000575828
0.000570405
0.000564956
0.000559493
0.000554032
0.000548583
0.000543159
0.00053777
0.000532425
0.000527132
0.0005219
0.000516733
0.000511637
0.000506616
0.00050167
0.000496802
0.000492011
0.000487295
0.000482651
0.000478076
0.000473563
0.000469108
0.000464703
0.00046034
0.000456013
0.000451714
0.000447435
0.000443169
0.00043891
0.000434653
0.000430395
0.000426133
0.000421868
0.0004176
0.000413334
0.000409074
0.000404829
0.000400608
0.000396422
0.000392283
0.000388205
0.000384202
0.000380288
0.0003765
0.00037286
0.000369387
0.000366097
0.000363004
0.000360117
0.000357443
0.000354984
0.000352738
0.000350702
0.000348868
0.000347224
0.000345757
0.000344451
0.000343288
0.000342248
0.000341309
0.000340447
0.000339634
0.000338841
0.000338029
0.000337154
0.000336158
0.00033496
0.000333459
0.00033155
0.000329354
4.54377e-06
3.72611e-05
7.08718e-05
9.67361e-05
0.000116589
0.0001324
0.000145669
0.000157483
0.000168591
0.000179483
0.00019045
0.000201638
0.000213101
0.000224831
0.000236792
0.000248928
0.000261183
0.000273498
0.000285821
0.000298105
0.000310306
0.000322389
0.000334321
0.000346076
0.00035763
0.000368963
0.000380058
0.000390902
0.000401482
0.000411787
0.000421811
0.000431547
0.000440989
0.000450135
0.000458982
0.000467529
0.000475777
0.000483726
0.000491378
0.000498737
0.000505806
0.000512591
0.000519095
0.000525325
0.000531288
0.000536992
0.000542443
0.000547652
0.000552628
0.000557381
0.00056192
0.000566259
0.000570409
0.000574381
0.000578191
0.000581872
0.000585451
0.000588951
0.000592392
0.000595793
0.000599168
0.000602531
0.000605891
0.000609259
0.00061264
0.000616037
0.000619452
0.000622883
0.000626327
0.000629775
0.00063322
0.000636647
0.000640045
0.000643396
0.000646681
0.00064988
0.00065297
0.00065593
0.000658737
0.000661369
0.000663801
0.000666005
0.000667964
0.000669667
0.000671077
0.000672176
0.000672957
0.000673405
0.000673514
0.000673279
0.000672699
0.000671774
0.000670508
0.000668907
0.000666978
0.000664731
0.000662179
0.000659333
0.000656208
0.000652821
0.000649189
0.000645327
0.000641255
0.000636989
0.000632549
0.000627953
0.000623217
0.000618361
0.000613402
0.000608356
0.000603241
0.000598072
0.000592865
0.000587634
0.000582393
0.000577155
0.000571933
0.000566737
0.000561579
0.000556466
0.000551407
0.000546409
0.000541477
0.000536616
0.000531828
0.000527115
0.000522476
0.000517911
0.000513417
0.00050899
0.000504625
0.000500316
0.000496056
0.000491836
0.00048765
0.000483489
0.000479345
0.000475209
0.000471076
0.000466939
0.000462793
0.000458636
0.000454467
0.000450286
0.000446096
0.000441902
0.000437712
0.000433534
0.000429381
0.000425264
0.000421197
0.000417197
0.000413275
0.000409465
0.000405788
0.000402267
0.000398918
0.000395757
0.000392796
0.000390042
0.0003875
0.00038517
0.000383049
0.000381132
0.000379408
0.000377865
0.000376488
0.000375259
0.00037416
0.000373169
0.000372261
0.000371411
0.000370589
0.000369759
0.000368881
0.0003679
0.000366751
0.000365353
0.000363639
0.000361747
4.52443e-06
3.65324e-05
7.06081e-05
9.77251e-05
0.000119157
0.000136625
0.000151488
0.000164744
0.0001771
0.000189036
0.000200852
0.000212722
0.000224728
0.000236893
0.000249207
0.000261638
0.000274146
0.000286687
0.000299219
0.000311702
0.000324101
0.000336383
0.000348518
0.000360482
0.000372251
0.000383806
0.000395129
0.000406204
0.000417018
0.00042756
0.000437818
0.000447784
0.000457452
0.000466814
0.000475866
0.000484605
0.000493029
0.000501135
0.000508924
0.000516397
0.000523554
0.000530398
0.000536934
0.000543164
0.000549093
0.000554729
0.000560078
0.000565147
0.000569946
0.000574484
0.000578773
0.000582824
0.00058665
0.000590266
0.000593689
0.000596957
0.000600101
0.000603149
0.000606126
0.000609055
0.000611955
0.000614845
0.000617739
0.000620651
0.000623592
0.000626569
0.000629587
0.000632649
0.000635754
0.000638897
0.000642071
0.000645268
0.000648475
0.000651677
0.000654859
0.000657997
0.000661068
0.000664051
0.000666923
0.000669666
0.000672249
0.000674635
0.000676806
0.000678743
0.000680422
0.000681824
0.000682934
0.000683738
0.000684226
0.000684389
0.000684225
0.00068373
0.000682904
0.000681752
0.000680278
0.000678489
0.000676395
0.000674007
0.000671337
0.000668399
0.000665208
0.00066178
0.000658132
0.000654281
0.000650244
0.000646039
0.000641683
0.000637195
0.000632591
0.000627889
0.000623106
0.000618257
0.00061336
0.000608428
0.000603477
0.00059852
0.000593571
0.00058864
0.00058374
0.00057888
0.000574068
0.000569313
0.000564621
0.000559996
0.000555443
0.000550963
0.000546557
0.000542224
0.000537962
0.000533767
0.000529634
0.000525557
0.000521529
0.000517541
0.000513586
0.000509653
0.000505736
0.000501824
0.00049791
0.000493987
0.000490049
0.000486092
0.000482115
0.000478116
0.000474098
0.000470064
0.000466022
0.000461981
0.00045795
0.000453943
0.000449973
0.000446056
0.000442207
0.00043845
0.000434811
0.000431312
0.000427971
0.000424805
0.000421828
0.000419049
0.000416474
0.000414105
0.000411941
0.000409978
0.000408206
0.000406616
0.000405194
0.000403922
0.000402783
0.000401756
0.000400818
0.000399943
0.000399105
0.000398268
0.000397397
0.000396442
0.000395349
0.000394054
0.000392518
0.000390881
4.47923e-06
3.55508e-05
6.96426e-05
9.75853e-05
0.00012023
0.000139043
0.000155233
0.000169705
0.000183119
0.000195933
0.000208453
0.00022087
0.000233291
0.000245765
0.000258307
0.000270904
0.000283536
0.000296171
0.00030878
0.000321329
0.000333789
0.000346132
0.000358333
0.000370366
0.000382211
0.000393849
0.000405261
0.000416431
0.000427344
0.000437988
0.000448351
0.000458421
0.000468191
0.000477652
0.000486797
0.000495621
0.000504119
0.000512287
0.000520124
0.000527626
0.000534795
0.00054163
0.000548133
0.000554305
0.000560151
0.000565674
0.000570879
0.000575774
0.000580365
0.000584663
0.000588677
0.00059242
0.000595905
0.000599147
0.000602173
0.000605024
0.000607733
0.000610333
0.000612852
0.000615318
0.000617754
0.000620182
0.000622622
0.000625091
0.000627602
0.000630169
0.000632799
0.000635499
0.000638269
0.00064111
0.000644017
0.000646982
0.000649996
0.000653047
0.000656122
0.000659197
0.000662244
0.000665242
0.00066817
0.000671003
0.000673713
0.000676272
0.000678654
0.000680838
0.000682798
0.000684515
0.00068597
0.000687147
0.000688031
0.000688614
0.000688886
0.000688843
0.000688483
0.000687805
0.000686811
0.000685508
0.000683901
0.000682
0.000679814
0.000677357
0.000674641
0.000671681
0.000668492
0.000665091
0.000661493
0.000657717
0.000653779
0.000649698
0.000645489
0.000641171
0.000636761
0.000632274
0.000627729
0.000623139
0.000618521
0.000613889
0.000609257
0.000604637
0.000600041
0.00059548
0.000590964
0.000586501
0.000582099
0.000577763
0.000573498