/*--------------------------------*- C++ -*----------------------------------*\
  =========                 |
  \\      /  F ield         | OpenFOAM: The Open Source CFD Toolbox
   \\    /   O peration     | Website:  https://openfoam.org
    \\  /    A nd           | Version:  6
     \\/     M anipulation  |
\*---------------------------------------------------------------------------*/
FoamFile
{
    version     2.0;
    format      ascii;
    class       volScalarField;
    location    "0.24";
    object      p;
}
// * * * * * * * * * * * * * * * * * * * * * * * * * * * * * * * * * * * * * //

dimensions      [0 2 -2 0 0 0 0];

internalField   nonuniform List<scalar> 
12225
(
0.305472
0.0531174
-0.0247358
-0.0349631
-0.0391154
-0.0432596
-0.0452814
-0.0460819
-0.0466884
-0.0472378
-0.0476451
-0.0479103
-0.0480587
-0.0480864
-0.0479939
-0.0477101
-0.0474979
-0.046454
-0.0763783
-0.0461032
-0.0450545
-0.0383241
-0.0386068
-0.0421445
-0.0444071
-0.0455246
-0.0463319
-0.0469844
-0.0474487
-0.0477504
-0.0479232
-0.0479662
-0.0478842
-0.0476036
-0.0473035
-0.0465
-0.11339
-0.042368
-0.040426
-0.0378199
-0.0383066
-0.0414322
-0.0436393
-0.0448694
-0.0457824
-0.0465085
-0.0470309
-0.04738
-0.0475889
-0.0476581
-0.0475945
-0.0473261
-0.0469922
-0.0460404
-0.0680218
-0.0291364
-0.0369388
-0.0379467
-0.0386025
-0.0412355
-0.043229
-0.0444394
-0.0453747
-0.0461289
-0.0466848
-0.047068
-0.0473066
-0.0474016
-0.0473581
-0.0471175
-0.0467561
-0.0458983
-0.0476064
-0.0291797
-0.0373986
-0.0386502
-0.039156
-0.0413301
-0.0430911
-0.044238
-0.0451522
-0.0459006
-0.0464656
-0.0468664
-0.0471249
-0.0472426
-0.0472216
-0.0470203
-0.0466739
-0.0459935
-0.0452504
-0.0334643
-0.0385688
-0.0393521
-0.0397618
-0.0415543
-0.043101
-0.0441754
-0.0450519
-0.0457787
-0.04634
-0.0467494
-0.0470236
-0.0471643
-0.0471726
-0.0470225
-0.0467302
-0.0462256
-0.0451162
-0.0363754
-0.0392984
-0.0399446
-0.0403625
-0.0418452
-0.0432006
-0.0442014
-0.0450341
-0.0457335
-0.0462861
-0.046701
-0.0469907
-0.0471577
-0.0472036
-0.0471158
-0.0469041
-0.0465652
-0.0441281
-0.0379953
-0.0398165
-0.0404828
-0.0409371
-0.0421728
-0.0433623
-0.0442919
-0.0450805
-0.0457518
-0.0462946
-0.0467149
-0.0470222
-0.0472201
-0.0473118
-0.0472949
-0.0471801
-0.0469976
-0.0431408
-0.0391493
-0.0403253
-0.0409875
-0.0414727
-0.042517
-0.0435663
-0.0444305
-0.0451777
-0.0458233
-0.0463581
-0.0467858
-0.0471141
-0.0473477
-0.0474922
-0.0475524
-0.0475418
-0.0475045
-0.0425666
-0.0400942
-0.0408383
-0.041458
-0.0419648
-0.0428647
-0.043798
-0.0446039
-0.0453147
-0.045939
-0.0464693
-0.0469078
-0.047261
-0.0475351
-0.0477374
-0.0478777
-0.047972
-0.0480665
-0.0423323
-0.0408586
-0.0413345
-0.0418984
-0.0424164
-0.0432086
-0.0440472
-0.0448023
-0.0454825
-0.0460907
-0.0466207
-0.0470739
-0.0474561
-0.0477744
-0.0480376
-0.0482582
-0.0484532
-0.0486652
-0.0423119
-0.0414262
-0.0417684
-0.0422821
-0.0428003
-0.043518
-0.0442857
-0.0450005
-0.0456576
-0.0462557
-0.0467894
-0.0472596
-0.0476715
-0.0480326
-0.0483525
-0.0486444
-0.0489247
-0.0492313
-0.0424079
-0.041912
-0.0421692
-0.0426398
-0.0431547
-0.0438147
-0.0445264
-0.0452091
-0.045849
-0.0464419
-0.0469831
-0.0474729
-0.0479164
-0.0483209
-0.0486963
-0.0490552
-0.0494133
-0.0498009
-0.0426164
-0.0423905
-0.0425996
-0.0430277
-0.0435318
-0.0441422
-0.0448039
-0.0454575
-0.0460836
-0.0466755
-0.0472289
-0.0477439
-0.0482248
-0.0486786
-0.0491144
-0.0495437
-0.0499801
-0.0504455
-0.0429259
-0.0428581
-0.0430502
-0.0434406
-0.0439265
-0.0444969
-0.0451176
-0.0457467
-0.0463637
-0.0469599
-0.047531
-0.0480766
-0.0486
-0.0491071
-0.0496055
-0.0501046
-0.050615
-0.0511515
-0.0433018
-0.0433111
-0.0435015
-0.0438632
-0.0443285
-0.0448696
-0.045461
-0.0460736
-0.0466882
-0.0472952
-0.0478896
-0.0484703
-0.0490393
-0.0496005
-0.0501598
-0.0507235
-0.051299
-0.0518953
-0.0436904
-0.043731
-0.0439227
-0.0442669
-0.0447166
-0.045241
-0.045818
-0.0464257
-0.0470474
-0.0476726
-0.0482958
-0.0489146
-0.0495293
-0.050142
-0.0507558
-0.0513745
-0.0520022
-0.0526437
-0.0440191
-0.0440701
-0.0442622
-0.0446001
-0.045047
-0.045572
-0.0461537
-0.0467733
-0.0474152
-0.0480684
-0.0487263
-0.0493852
-0.0500438
-0.0507019
-0.0513607
-0.0520215
-0.052686
-0.053356
-0.0441869
-0.0442376
-0.0444272
-0.0447715
-0.045236
-0.0457862
-0.0463988
-0.0470545
-0.0477365
-0.0484325
-0.0491344
-0.0498375
-0.0505389
-0.0512371
-0.0519315
-0.0526219
-0.0533086
-0.0539916
-0.0440801
-0.0441032
-0.0442746
-0.044641
-0.0451505
-0.0457545
-0.0464271
-0.0471443
-0.047884
-0.0486319
-0.0493801
-0.0501235
-0.0508592
-0.0515854
-0.0523014
-0.0530069
-0.0537017
-0.0543855
-0.0438837
-0.0438111
-0.0439326
-0.0443357
-0.0449014
-0.0455665
-0.0463107
-0.0470993
-0.0479012
-0.0487014
-0.0494934
-0.0502731
-0.0510377
-0.0517862
-0.0525183
-0.0532342
-0.0539338
-0.054617
-0.0437571
-0.0433873
-0.0434036
-0.0438841
-0.0445192
-0.0452555
-0.0460921
-0.0469681
-0.0478391
-0.0486944
-0.0495311
-0.0503458
-0.051137
-0.0519048
-0.0526501
-0.0533739
-0.0540766
-0.0547581
-0.0439546
-0.042875
-0.0427199
-0.0433252
-0.0440162
-0.044835
-0.0457963
-0.046778
-0.0477244
-0.048638
-0.0495212
-0.0503712
-0.0511878
-0.0519737
-0.0527311
-0.0534621
-0.0541679
-0.0548483
-0.0445035
-0.0421447
-0.0419368
-0.0427223
-0.0433923
-0.0443114
-0.0454485
-0.0465572
-0.0475847
-0.0485611
-0.0494938
-0.0503792
-0.0512203
-0.0520228
-0.0527911
-0.0535282
-0.0542365
-0.0549157
-0.044776
-0.0402062
-0.0407988
-0.0420635
-0.0426325
-0.043701
-0.0450835
-0.0463408
-0.0474549
-0.048499
-0.0494829
-0.0504025
-0.0512652
-0.0520814
-0.0528577
-0.0535986
-0.0543077
-0.0549845
-0.046522
-0.0357973
-0.0385381
-0.0410609
-0.0416657
-0.0430333
-0.0447483
-0.0461746
-0.0473803
-0.0484941
-0.0495265
-0.0504742
-0.051352
-0.0521757
-0.0529546
-0.0536947
-0.0544007
-0.0550729
-0.063544
-0.0337716
-0.0362957
-0.0396649
-0.0404845
-0.042402
-0.0445334
-0.0461407
-0.0474381
-0.0486131
-0.0496792
-0.0506386
-0.0515166
-0.0523353
-0.0531063
-0.0538369
-0.0545334
-0.0551961
-0.107678
-0.0470648
-0.0403338
-0.0394817
-0.039656
-0.0421745
-0.0446946
-0.0464299
-0.0477765
-0.048972
-0.0500318
-0.0509682
-0.051818
-0.052609
-0.0533541
-0.0540605
-0.0547359
-0.0553821
-0.0873075
-0.0569023
-0.0502343
-0.041719
-0.0401201
-0.0429366
-0.0455679
-0.0472072
-0.0484539
-0.0495751
-0.0505676
-0.0514396
-0.0522326
-0.0529761
-0.053681
-0.054352
-0.0549952
-0.0556257
0.277008
0.0572729
-0.0198659
-0.0330185
-0.0383852
-0.0435683
-0.0466106
-0.0480461
-0.0490398
-0.0499838
-0.0508602
-0.051652
-0.0523878
-0.0530898
-0.053763
-0.0544062
-0.0550142
-0.0555671
-0.074751
-0.074851
-0.0752264
-0.075702
-0.076082
-0.0763818
-0.0766911
-0.0770644
-0.0775309
-0.078112
-0.0788263
-0.0796955
-0.0807439
-0.0819943
-0.0834643
-0.0851641
-0.0870938
-0.0892436
-0.0915931
-0.0941138
-0.0967708
-0.0995255
-0.102339
-0.105172
-0.10799
-0.110762
-0.113461
-0.116066
-0.118561
-0.120932
-0.123169
-0.125267
-0.12722
-0.129026
-0.130682
-0.132186
-0.133537
-0.134732
-0.135769
-0.136646
-0.137358
-0.137902
-0.138272
-0.138463
-0.138469
-0.138281
-0.137893
-0.137298
-0.136485
-0.135449
-0.134184
-0.132689
-0.130954
-0.128955
-0.126657
-0.124043
-0.121118
-0.117878
-0.114317
-0.11043
-0.106209
-0.101652
-0.0967555
-0.0915192
-0.0859447
-0.0800362
-0.0738007
-0.0672478
-0.0603903
-0.0532437
-0.0458265
-0.0381602
-0.0302691
-0.0221797
-0.0139213
-0.00552495
0.00297674
0.0115498
0.0201594
0.0287704
0.0373478
0.0458573
0.0542652
0.0625396
0.0706503
0.0785692
0.0862706
0.0937316
0.100932
0.107854
0.114483
0.120808
0.12682
0.132511
0.13788
0.142927
0.147667
0.152105
0.156236
0.160064
0.1636
0.166852
0.169832
0.172553
0.175027
0.177267
0.179286
0.181096
0.18271
0.184142
0.185404
0.186507
0.187463
0.188284
0.188979
0.18956
0.190034
0.190412
0.1907
0.190908
0.191042
0.191109
0.191114
0.191064
0.190963
0.190816
0.190627
0.1904
0.190139
0.189846
0.189525
0.189179
0.188809
0.188419
0.188012
0.187588
0.187151
0.186703
0.186247
0.185785
0.185319
0.184852
0.184386
0.183924
0.183468
0.183022
0.182588
0.182171
0.181767
0.181364
0.180967
0.180586
0.180222
0.179875
0.179547
0.179237
0.178945
0.178671
0.178414
0.178175
0.177954
0.17775
0.177563
0.177395
0.177247
0.177119
0.177013
0.176934
0.176886
0.176874
0.176908
0.177002
0.177175
0.177456
0.177891
0.178554
0.179583
0.181173
0.183895
0.187722
-0.074855
-0.0753314
-0.075804
-0.0761226
-0.0762124
-0.0761146
-0.0759933
-0.0760045
-0.076209
-0.0765967
-0.0771619
-0.0779291
-0.0789279
-0.080184
-0.0817141
-0.0835224
-0.085599
-0.0879207
-0.0904531
-0.0931537
-0.0959762
-0.0988738
-0.101802
-0.104722
-0.107598
-0.110404
-0.113117
-0.11572
-0.118202
-0.120555
-0.122772
-0.12485
-0.126787
-0.128582
-0.130233
-0.131741
-0.133103
-0.134319
-0.135385
-0.1363
-0.137059
-0.137659
-0.138094
-0.138359
-0.138446
-0.138348
-0.138057
-0.137563
-0.136856
-0.135925
-0.134756
-0.133333
-0.13164
-0.129673
-0.12744
-0.124938
-0.122148
-0.119055
-0.11565
-0.111925
-0.107873
-0.103488
-0.0987675
-0.09371
-0.0883164
-0.0825899
-0.0765363
-0.0701645
-0.0634858
-0.0565146
-0.0492683
-0.041767
-0.0340337
-0.0260939
-0.0179755
-0.00970833
-0.00132411
0.00714416
0.0156625
0.0241966
0.0327119
0.0411743
0.0495506
0.0578089
0.0659188
0.073852
0.0815825
0.0890868
0.0963441
0.103337
0.110049
0.11647
0.122589
0.128402
0.133904
0.139089
0.143946
0.148478
0.152704
0.156632
0.16027
0.163629
0.166718
0.16955
0.172134
0.174485
0.176613
0.178532
0.180253
0.18179
0.183154
0.184356
0.185409
0.186322
0.187107
0.187774
0.188331
0.188788
0.189153
0.189434
0.189638
0.189771
0.18984
0.189851
0.189809
0.189718
0.189583
0.189409
0.189198
0.188954
0.18868
0.188379
0.188055
0.187709
0.187344
0.186962
0.186567
0.18616
0.185744
0.185321
0.184893
0.184464
0.184036
0.18361
0.183189
0.182777
0.182375
0.181981
0.181593
0.181215
0.180849
0.180495
0.180154
0.179828
0.179517
0.179222
0.178942
0.178678
0.17843
0.178198
0.177982
0.177781
0.177598
0.177431
0.177283
0.177155
0.177048
0.176967
0.176916
0.176902
0.176932
0.177021
0.177187
0.177457
0.177874
0.178501
0.179457
0.180881
0.183233
0.186405
-0.0730569
-0.0739405
-0.0746724
-0.0750339
-0.0751406
-0.0751465
-0.0751753
-0.0753202
-0.0756386
-0.0761644
-0.0769235
-0.0779376
-0.0792194
-0.0807702
-0.0825796
-0.0846267
-0.0868824
-0.0893123
-0.0918789
-0.0945446
-0.097273
-0.100031
-0.102788
-0.105518
-0.108199
-0.110814
-0.113347
-0.115786
-0.118122
-0.120349
-0.12246
-0.124451
-0.12632
-0.128062
-0.129677
-0.131161
-0.132513
-0.133729
-0.134806
-0.13574
-0.136528
-0.137165
-0.137645
-0.137962
-0.138109
-0.138078
-0.137862
-0.137452
-0.136838
-0.136011
-0.134958
-0.133667
-0.132122
-0.130315
-0.12824
-0.125892
-0.123259
-0.120331
-0.117097
-0.11355
-0.109681
-0.105486
-0.100959
-0.0960994
-0.0909064
-0.0853826
-0.0795327
-0.0733645
-0.0668881
-0.0601168
-0.0530666
-0.0457565
-0.038208
-0.0304454
-0.0224954
-0.0143866
-0.00614954
0.00218376
0.0105803
0.0190065
0.0274285
0.0358128
0.0441265
0.0523379
0.0604167
0.0683345
0.076065
0.0835844
0.0908713
0.0979074
0.104677
0.111167
0.117368
0.123273
0.128877
0.134172
0.139158
0.143838
0.148218
0.152303
0.1561
0.159617
0.162864
0.165851
0.168589
0.171089
0.173365
0.175427
0.177288
0.17896
0.180454
0.181782
0.182956
0.183986
0.184883
0.185656
0.186316
0.18687
0.187329
0.187698
0.187987
0.188201
0.188348
0.188432
0.18846
0.188437
0.188367
0.188255
0.188103
0.187917
0.1877
0.187453
0.187182
0.186887
0.186573
0.186241
0.185894
0.185535
0.185166
0.184789
0.184406
0.184021
0.183635
0.183251
0.182871
0.182497
0.18213
0.18177
0.181415
0.181069
0.180731
0.180403
0.180086
0.179781
0.179489
0.17921
0.178944
0.178692
0.178454
0.178229
0.178019
0.177823
0.177642
0.177478
0.17733
0.177201
0.177094
0.177011
0.176957
0.176939
0.176965
0.177048
0.177206
0.177463
0.177859
0.178446
0.179321
0.180569
0.18248
0.184677
-0.0701926
-0.0715137
-0.0728103
-0.073581
-0.074026
-0.0743816
-0.0747792
-0.0752964
-0.0759832
-0.0768712
-0.0779788
-0.0793135
-0.0808726
-0.0826442
-0.0846093
-0.0867439
-0.0890213
-0.0914135
-0.0938929
-0.0964327
-0.0990079
-0.101595
-0.104174
-0.106725
-0.109232
-0.111681
-0.11406
-0.11636
-0.118572
-0.120689
-0.122705
-0.124618
-0.126421
-0.128112
-0.129689
-0.131147
-0.132483
-0.133695
-0.134778
-0.135728
-0.13654
-0.137209
-0.13773
-0.138094
-0.138296
-0.138327
-0.138178
-0.137841
-0.137305
-0.13656
-0.135596
-0.134401
-0.132965
-0.131277
-0.129329
-0.127111
-0.124612
-0.121821
-0.118729
-0.115327
-0.111606
-0.107561
-0.103186
-0.0984793
-0.0934391
-0.0880673
-0.0823679
-0.0763476
-0.0700159
-0.0633851
-0.0564705
-0.0492901
-0.0418648
-0.0342182
-0.0263761
-0.0183668
-0.0102202
-0.00196777
0.00635782
0.0147233
0.023095
0.0314396
0.0397242
0.0479172
0.0559881
0.0639084
0.0716516
0.0791933
0.0865121
0.0935887
0.100407
0.106954
0.113218
0.119191
0.124868
0.130247
0.135326
0.140107
0.144591
0.148783
0.152689
0.156317
0.159675
0.162773
0.165623
0.168233
0.170618
0.172787
0.174753
0.176527
0.178122
0.179548
0.180816
0.181938
0.182923
0.183783
0.184525
0.185159
0.185694
0.186137
0.186496
0.186778
0.18699
0.187137
0.187225
0.18726
0.187246
0.187187
0.187088
0.186953
0.186785
0.186586
0.186361
0.186113
0.185843
0.185555
0.185252
0.184935
0.184607
0.184271
0.183929
0.183583
0.183236
0.182889
0.182544
0.182204
0.181869
0.181538
0.181213
0.180894
0.180584
0.180282
0.179989
0.179707
0.179435
0.179173
0.178924
0.178685
0.178458
0.178243
0.178041
0.177851
0.177675
0.177513
0.177367
0.177238
0.177129
0.177044
0.176987
0.176963
0.176982
0.177055
0.177198
0.177434
0.177795
0.178323
0.179088
0.180128
0.181587
0.183012
-0.0678901
-0.0695822
-0.0714019
-0.0726267
-0.0734674
-0.074201
-0.0749696
-0.0758499
-0.0768873
-0.0781049
-0.0795094
-0.0810973
-0.0828579
-0.0847754
-0.0868311
-0.0890043
-0.0912736
-0.0936175
-0.0960155
-0.0984477
-0.100896
-0.103343
-0.105774
-0.108175
-0.110533
-0.112839
-0.115082
-0.117255
-0.119351
-0.121365
-0.12329
-0.125124
-0.126861
-0.128499
-0.130032
-0.131459
-0.132776
-0.133977
-0.135059
-0.136018
-0.136848
-0.137543
-0.138096
-0.138502
-0.138752
-0.138838
-0.138751
-0.138482
-0.13802
-0.137356
-0.136479
-0.135376
-0.134039
-0.132455
-0.130614
-0.128506
-0.126119
-0.123442
-0.120466
-0.117181
-0.113577
-0.109649
-0.10539
-0.100798
-0.0958695
-0.0906068
-0.0850128
-0.0790935
-0.0728578
-0.0663176
-0.0594875
-0.0523852
-0.0450314
-0.0374492
-0.0296643
-0.0217049
-0.0136009
-0.00538372
0.00291391
0.0112586
0.0196165
0.0279542
0.0362387
0.0444379
0.0525213
0.06046
0.0682273
0.0757987
0.0831522
0.0902686
0.097131
0.103725
0.11004
0.116068
0.121803
0.127243
0.132384
0.137229
0.14178
0.146042
0.150019
0.15372
0.157152
0.160326
0.163251
0.165939
0.168399
0.170644
0.172686
0.174535
0.176203
0.177701
0.17904
0.180231
0.181284
0.182209
0.183015
0.183711
0.184306
0.184807
0.185223
0.18556
0.185824
0.186023
0.186161
0.186243
0.186276
0.186262
0.186207
0.186114
0.185987
0.18583
0.185644
0.185434
0.185203
0.184952
0.184685
0.184404
0.184111
0.18381
0.183501
0.183188
0.182873
0.182557
0.182242
0.181931
0.181622
0.181318
0.181018
0.180724
0.180436
0.180157
0.179885
0.179622
0.179368
0.179123
0.178888
0.178662
0.178446
0.17824
0.178045
0.177862
0.17769
0.177531
0.177387
0.177258
0.177149
0.177061
0.176999
0.176968
0.176978
0.177037
0.17716
0.177367
0.177682
0.178136
0.178774
0.179598
0.180661
0.181521
-0.0670456
-0.0689464
-0.0710571
-0.0725994
-0.0737584
-0.0748065
-0.0758803
-0.077049
-0.0783516
-0.0798056
-0.0814126
-0.0831644
-0.0850474
-0.0870455
-0.0891411
-0.0913164
-0.0935542
-0.0958378
-0.0981517
-0.100481
-0.102813
-0.105135
-0.107436
-0.109706
-0.111935
-0.114116
-0.116242
-0.118305
-0.120301
-0.122225
-0.124071
-0.125835
-0.127514
-0.129104
-0.130601
-0.132001
-0.1333
-0.134494
-0.135578
-0.136546
-0.137394
-0.138115
-0.138702
-0.139148
-0.139444
-0.139584
-0.139556
-0.139352
-0.138961
-0.138373
-0.137576
-0.13656
-0.135311
-0.13382
-0.132074
-0.130062
-0.127773
-0.125195
-0.122317
-0.119129
-0.115621
-0.111787
-0.10762
-0.103116
-0.0982726
-0.0930898
-0.0875706
-0.0817206
-0.0755481
-0.0690648
-0.0622851
-0.0552266
-0.0479098
-0.040358
-0.0325971
-0.0246554
-0.0165631
-0.00835197
-5.50799e-05
0.00829378
0.0166605
0.0250111
0.0333123
0.0415318
0.0496387
0.0576039
0.0654004
0.0730036
0.0803912
0.0875437
0.094444
0.101078
0.107435
0.113507
0.119287
0.124773
0.129961
0.134855
0.139456
0.143769
0.1478
0.151556
0.155044
0.158275
0.161258
0.164003
0.166522
0.168826
0.170926
0.172833
0.174559
0.176115
0.177511
0.178757
0.179865
0.180844
0.181702
0.18245
0.183095
0.183645
0.184108
0.184491
0.1848
0.185042
0.185223
0.185347
0.185419
0.185445
0.185428
0.185372
0.185282
0.185159
0.185008
0.184832
0.184634
0.184415
0.18418
0.18393
0.183668
0.183396
0.183117
0.182832
0.182544
0.182254
0.181965
0.181678
0.181393
0.181111
0.180833
0.18056
0.180293
0.180033
0.179779
0.179533
0.179294
0.179064
0.178841
0.178627
0.178421
0.178224
0.178037
0.177859
0.177692
0.177536
0.177393
0.177265
0.177153
0.177062
0.176994
0.176956
0.176953
0.176995
0.177095
0.177265
0.177527
0.177899
0.178404
0.179022
0.179752
0.180185
-0.0677809
-0.0696825
-0.071844
-0.0735296
-0.0748782
-0.0761286
-0.0774004
-0.0787522
-0.0802158
-0.0818046
-0.0835179
-0.0853466
-0.0872771
-0.0892943
-0.0913823
-0.0935262
-0.0957117
-0.0979254
-0.100155
-0.10239
-0.104619
-0.106834
-0.109026
-0.111187
-0.11331
-0.115389
-0.117418
-0.119392
-0.121306
-0.123155
-0.124937
-0.126646
-0.128279
-0.129832
-0.131301
-0.132683
-0.133972
-0.135164
-0.136255
-0.137238
-0.138108
-0.138857
-0.13948
-0.139968
-0.140313
-0.140506
-0.140538
-0.140398
-0.140076
-0.13956
-0.13884
-0.137903
-0.136738
-0.135331
-0.133671
-0.131747
-0.129544
-0.127052
-0.124259
-0.121155
-0.117728
-0.113972
-0.109878
-0.105443
-0.100664
-0.095539
-0.090072
-0.0842676
-0.0781342
-0.071683
-0.0649287
-0.0578887
-0.050584
-0.0430379
-0.035277
-0.0273297
-0.019227
-0.0110012
-0.00268586
0.00568466
0.0140757
0.0224528
0.0307821
0.0390311
0.0471685
0.055165
0.0629933
0.0706287
0.0780485
0.0852334
0.0921667
0.0988348
0.105226
0.111333
0.117149
0.122671
0.127897
0.132829
0.13747
0.141824
0.145896
0.149694
0.153226
0.156502
0.15953
0.162322
0.164888
0.167239
0.169386
0.171341
0.173114
0.174717
0.17616
0.177453
0.178607
0.179631
0.180534
0.181325
0.182013
0.182605
0.18311
0.183533
0.183882
0.184162
0.18438
0.184541
0.184649
0.184709
0.184726
0.184704
0.184646
0.184555
0.184435
0.184289
0.18412
0.183931
0.183723
0.183501
0.183266
0.18302
0.182766
0.182506
0.182242
0.181975
0.181708
0.181442
0.181177
0.180915
0.180657
0.180402
0.180153
0.179909
0.179672
0.17944
0.179216
0.178998
0.178787
0.178583
0.178387
0.178198
0.178017
0.177845
0.177682
0.177529
0.177387
0.177259
0.177146
0.17705
0.176976
0.176928
0.176911
0.176934
0.177006
0.177136
0.17734
0.177625
0.178
0.178428
0.178878
0.178985
-0.0697006
-0.071459
-0.0734958
-0.075174
-0.0765855
-0.0779231
-0.0792852
-0.0807187
-0.0822489
-0.0838856
-0.0856274
-0.0874655
-0.0893874
-0.0913794
-0.0934275
-0.0955184
-0.0976398
-0.0997805
-0.10193
-0.10408
-0.106221
-0.108345
-0.110447
-0.11252
-0.114557
-0.116555
-0.118508
-0.120412
-0.122263
-0.124057
-0.125791
-0.12746
-0.129061
-0.13059
-0.132043
-0.133417
-0.134706
-0.135906
-0.137011
-0.138015
-0.138913
-0.139697
-0.14036
-0.140894
-0.141291
-0.14154
-0.141632
-0.141556
-0.141302
-0.140858
-0.140212
-0.139352
-0.138264
-0.136937
-0.135357
-0.133512
-0.131389
-0.128975
-0.126257
-0.123224
-0.119867
-0.116175
-0.112141
-0.10776
-0.103028
-0.0979449
-0.0925125
-0.0867358
-0.0806229
-0.0741851
-0.0674371
-0.0603967
-0.0530852
-0.0455266
-0.0377477
-0.029778
-0.0216488
-0.0133934
-0.00504594
0.00335854
0.0117847
0.0201975
0.0285627
0.0368472
0.0450194
0.0530497
0.0609105
0.0685771
0.0760273
0.0832421
0.0902048
0.0969017
0.103322
0.109457
0.115301
0.120852
0.126107
0.131069
0.135741
0.140126
0.14423
0.148062
0.151629
0.154939
0.158004
0.160833
0.163437
0.165827
0.168013
0.170007
0.17182
0.173463
0.174945
0.176278
0.177472
0.178535
0.179477
0.180306
0.181032
0.181662
0.182202
0.182662
0.183046
0.183361
0.183612
0.183806
0.183946
0.184038
0.184086
0.184094
0.184065
0.184003
0.183911
0.183793
0.183651
0.183487
0.183305
0.183108
0.182896
0.182674
0.182443
0.182205
0.181962
0.181716
0.181468
0.181221
0.180974
0.18073
0.180488
0.18025
0.180016
0.179787
0.179563
0.179345
0.179133
0.178927
0.178727
0.178533
0.178345
0.178163
0.177989
0.177822
0.177662
0.177512
0.177372
0.177243
0.177127
0.177027
0.176946
0.176887
0.176855
0.176856
0.176897
0.176986
0.177128
0.177327
0.177578
0.177834
0.17805
0.177905
-0.0722902
-0.0738254
-0.0756319
-0.0771959
-0.0785714
-0.0799048
-0.0812724
-0.0827102
-0.0842369
-0.0858595
-0.087576
-0.0893782
-0.0912548
-0.0931935
-0.0951815
-0.097207
-0.0992587
-0.101327
-0.103402
-0.105475
-0.107541
-0.109591
-0.11162
-0.113623
-0.115595
-0.117532
-0.119429
-0.121283
-0.12309
-0.124846
-0.126549
-0.128194
-0.129779
-0.131298
-0.132749
-0.134127
-0.135427
-0.136644
-0.137773
-0.138808
-0.139741
-0.140567
-0.141276
-0.14186
-0.142311
-0.142619
-0.142774
-0.142764
-0.142578
-0.142205
-0.141631
-0.140845
-0.139832
-0.138581
-0.137076
-0.135305
-0.133254
-0.13091
-0.128259
-0.125289
-0.121991
-0.118352
-0.114366
-0.110027
-0.105331
-0.100276
-0.0948647
-0.0891018
-0.0829952
-0.0765566
-0.0698008
-0.0627463
-0.0554146
-0.0478304
-0.0400214
-0.0320176
-0.0238513
-0.0155566
-0.00716854
0.00127725
0.00974469
0.018198
0.0266025
0.0349243
0.0431317
0.0511952
0.0590873
0.0667834
0.0742615
0.0815024
0.0884897
0.0952101
0.101653
0.10781
0.113676
0.119248
0.124526
0.129511
0.134205
0.138614
0.142744
0.146602
0.150196
0.153535
0.156629
0.159488
0.162124
0.164545
0.166765
0.168793
0.17064
0.172317
0.173834
0.175202
0.17643
0.177527
0.178504
0.179368
0.180128
0.180791
0.181365
0.181857
0.182273
0.18262
0.182902
0.183127
0.183297
0.183418
0.183495
0.18353
0.183529
0.183493
0.183428
0.183335
0.183217
0.183077
0.182919
0.182744
0.182554
0.182353
0.182142
0.181924
0.1817
0.181472
0.181242
0.181011
0.180781
0.180552
0.180325
0.180101
0.179881
0.179666
0.179455
0.179249
0.179048
0.178852
0.178661
0.178476
0.178296
0.178122
0.177953
0.177791
0.177635
0.177487
0.177348
0.177218
0.177099
0.176994
0.176905
0.176834
0.176786
0.176765
0.176774
0.176818
0.1769
0.177015
0.177149
0.177253
0.177274
0.176934
-0.0750857
-0.0763607
-0.0778829
-0.0792661
-0.0805381
-0.0818036
-0.0831184
-0.0845081
-0.0859857
-0.0875553
-0.0892138
-0.0909537
-0.0927647
-0.0946354
-0.0965542
-0.0985101
-0.100492
-0.102492
-0.1045
-0.106509
-0.108513
-0.110504
-0.112478
-0.11443
-0.116356
-0.11825
-0.120111
-0.121934
-0.123716
-0.125453
-0.127143
-0.128781
-0.130365
-0.13189
-0.133352
-0.134748
-0.136071
-0.137317
-0.138479
-0.139552
-0.140529
-0.141402
-0.142163
-0.142803
-0.143313
-0.143682
-0.143901
-0.143958
-0.14384
-0.143537
-0.143035
-0.14232
-0.141379
-0.140199
-0.138765
-0.137062
-0.135078
-0.132797
-0.130205
-0.127291
-0.124042
-0.120448
-0.1165
-0.112192
-0.10752
-0.102483
-0.0970822
-0.0913221
-0.0852112
-0.0787613
-0.0719878
-0.0649094
-0.0575486
-0.0499307
-0.042084
-0.0340397
-0.0258308
-0.0174924
-0.00906016
-0.000570995
0.00793829
0.0164317
0.024874
0.0332314
0.0414717
0.0495654
0.0574851
0.0652062
0.0727067
0.079968
0.0869738
0.0937113
0.10017
0.106343
0.112224
0.117811
0.123104
0.128105
0.132816
0.137243
0.141392
0.14527
0.148885
0.152247
0.155365
0.15825
0.160911
0.16336
0.165608
0.167665
0.169542
0.17125
0.172798
0.174198
0.175457
0.176587
0.177595
0.178491
0.179282
0.179976
0.180581
0.181104
0.18155
0.181926
0.182238
0.182491
0.182689
0.182838
0.182941
0.183003
0.183027
0.183017
0.182975
0.182906
0.182811
0.182694
0.182557
0.182403
0.182234
0.182052
0.18186
0.18166
0.181453
0.181241
0.181027
0.180812
0.180596
0.180381
0.180167
0.179957
0.179749
0.179545
0.179346
0.17915
0.17896
0.178773
0.178591
0.178414
0.178242
0.178074
0.177911
0.177753
0.177601
0.177455
0.177316
0.177185
0.177064
0.176953
0.176856
0.176773
0.176707
0.176662
0.176639
0.176639
0.176661
0.176696
0.176724
0.176694
0.176552
0.176059
-0.0777073
-0.0787132
-0.0799325
-0.0811
-0.0822284
-0.0833873
-0.0846139
-0.0859249
-0.0873279
-0.0888241
-0.0904093
-0.092076
-0.0938145
-0.0956142
-0.0974643
-0.0993542
-0.101274
-0.103215
-0.105168
-0.107126
-0.109083
-0.111032
-0.112969
-0.114888
-0.116786
-0.118659
-0.120502
-0.122314
-0.124089
-0.125826
-0.12752
-0.129168
-0.130767
-0.132312
-0.1338
-0.135225
-0.136582
-0.137867
-0.139073
-0.140193
-0.14122
-0.142147
-0.142964
-0.143664
-0.144235
-0.144669
-0.144953
-0.145076
-0.145027
-0.144792
-0.144358
-0.143712
-0.142839
-0.141726
-0.140357
-0.138717
-0.136792
-0.134567
-0.132027
-0.129159
-0.125951
-0.122392
-0.118474
-0.114188
-0.109532
-0.104503
-0.0991033
-0.0933376
-0.0872145
-0.0807461
-0.0739482
-0.0668404
-0.0594455
-0.0517899
-0.0439032
-0.0358172
-0.0275659
-0.0191848
-0.0107108
-0.00218115
0.00636659
0.0148959
0.0233713
0.0317586
0.0400256
0.0481426
0.0560825
0.0638209
0.0713361
0.0786098
0.0856264
0.0923732
0.0988404
0.105021
0.11091
0.116505
0.121807
0.126817
0.131539
0.135978
0.14014
0.144033
0.147665
0.151045
0.154182
0.157088
0.159772
0.162246
0.164519
0.166602
0.168506
0.170242
0.171818
0.173247
0.174536
0.175695
0.176733
0.177658
0.178479
0.179203
0.179838
0.180389
0.180864
0.181268
0.181608
0.181888
0.182113
0.182288
0.182417
0.182504
0.182553
0.182567
0.182548
0.182501
0.182429
0.182333
0.182216
0.182081
0.181931
0.181767
0.181593
0.181409
0.181218
0.181022
0.180822
0.18062
0.180418
0.180215
0.180014
0.179815
0.179619
0.179426
0.179237
0.179051
0.17887
0.178692
0.178518
0.178349
0.178183
0.178021
0.177863
0.17771
0.177561
0.177417
0.177278
0.177146
0.177022
0.176906
0.176799
0.176704
0.176621
0.176551
0.176496
0.176453
0.176418
0.176377
0.176308
0.17616
0.175883
0.17527
-0.0798606
-0.0806074
-0.0815294
-0.0824705
-0.0834373
-0.0844708
-0.0855927
-0.0868117
-0.0881305
-0.0895474
-0.0910571
-0.0926517
-0.0943217
-0.0960568
-0.0978467
-0.0996812
-0.101551
-0.103446
-0.10536
-0.107283
-0.109211
-0.111137
-0.113055
-0.114962
-0.116852
-0.118722
-0.120567
-0.122386
-0.124173
-0.125926
-0.127642
-0.129316
-0.130945
-0.132524
-0.13405
-0.135517
-0.136919
-0.138252
-0.139509
-0.140683
-0.141766
-0.142751
-0.143628
-0.144389
-0.145024
-0.145521
-0.14587
-0.146059
-0.146074
-0.145905
-0.145535
-0.144953
-0.144143
-0.143091
-0.14178
-0.140196
-0.138323
-0.136145
-0.133648
-0.130818
-0.127642
-0.124109
-0.12021
-0.115938
-0.111288
-0.10626
-0.100855
-0.0950774
-0.0889372
-0.0824465
-0.0756217
-0.068483
-0.0610542
-0.0533624
-0.0454378
-0.0373133
-0.0290237
-0.0206054
-0.0120958
-0.00353308
0.00504495
0.0136013
0.0221
0.0305071
0.0387903
0.0469202
0.0548697
0.0626148
0.0701344
0.0774105
0.084428
0.0911747
0.0976413
0.103821
0.10971
0.115306
0.120609
0.125623
0.130349
0.134794
0.138964
0.142867
0.146511
0.149905
0.153059
0.155983
0.158687
0.161181
0.163477
0.165584
0.167513
0.169274
0.170878
0.172334
0.173651
0.174838
0.175905
0.176859
0.177708
0.178461
0.179124
0.179703
0.180206
0.180638
0.181004
0.181311
0.181562
0.181763
0.181917
0.182028
0.1821
0.182137
0.182141
0.182116
0.182064
0.181988
0.181891
0.181775
0.181642
0.181496
0.181337
0.181169
0.180993
0.180811
0.180625
0.180436
0.180245
0.180055
0.179865
0.179676
0.179491
0.179307
0.179128
0.178951
0.178778
0.178608
0.178442
0.17828
0.17812
0.177964
0.177811
0.177662
0.177516
0.177373
0.177235
0.177102
0.176974
0.176852
0.176737
0.176629
0.176528
0.176435
0.176348
0.176263
0.176173
0.176063
0.175907
0.175658
0.175267
0.174558
-0.0813271
-0.0818443
-0.0824915
-0.0832122
-0.084015
-0.0849196
-0.0859341
-0.0870607
-0.0882976
-0.0896405
-0.0910824
-0.0926148
-0.0942282
-0.0959124
-0.0976572
-0.0994526
-0.101289
-0.103158
-0.10505
-0.106959
-0.108877
-0.110799
-0.11272
-0.114633
-0.116535
-0.118421
-0.120288
-0.122132
-0.123949
-0.125735
-0.127488
-0.129202
-0.130874
-0.1325
-0.134074
-0.135592
-0.137048
-0.138436
-0.139749
-0.140981
-0.142123
-0.143168
-0.144106
-0.144929
-0.145624
-0.146183
-0.146593
-0.146843
-0.146919
-0.146809
-0.146498
-0.145973
-0.145218
-0.144219
-0.142959
-0.141422
-0.13959
-0.13745
-0.134985
-0.132183
-0.129029
-0.125513
-0.121625
-0.117359
-0.112709
-0.107676
-0.10226
-0.0964673
-0.0903074
-0.0837933
-0.0769421
-0.0697745
-0.0623153
-0.0545922
-0.0466364
-0.0384814
-0.0301628
-0.0217178
-0.0131844
-0.00460105
0.00399406
0.0125636
0.0210718
0.0294845
0.0377698
0.0458984
0.0538437
0.0615822
0.0690933
0.0763595
0.0833662
0.0901019
0.0965576
0.102727
0.108607
0.114196
0.119493
0.124503
0.129227
0.133673
0.137847
0.141755
0.145408
0.148812
0.151979
0.154917
0.157638
0.160152
0.162468
0.164597
0.16655
0.168336
0.169965
0.171447
0.172791
0.174006
0.175101
0.176083
0.17696
0.177741
0.178431
0.179039
0.179569
0.180027
0.180421
0.180753
0.18103
0.181256
0.181434
0.181569
0.181664
0.181723
0.181749
0.181745
0.181713
0.181657
0.181578
0.18148
0.181365
0.181234
0.181091
0.180938
0.180776
0.180607
0.180433
0.180256
0.180077
0.179898
0.179718
0.17954
0.179363
0.179189
0.179018
0.17885
0.178685
0.178523
0.178364
0.178208
0.178055
0.177904
0.177755
0.17761
0.177466
0.177326
0.177188
0.177054
0.176922
0.176794
0.17667
0.17655
0.176432
0.176315
0.176198
0.176073
0.175932
0.175758
0.175525
0.175187
0.174701
0.173915
-0.0819352
-0.0822955
-0.0827036
-0.0832221
-0.0838698
-0.0846519
-0.0855663
-0.0866092
-0.0877751
-0.0890569
-0.0904462
-0.0919334
-0.0935085
-0.0951612
-0.0968809
-0.0986578
-0.100482
-0.102345
-0.104237
-0.106152
-0.108083
-0.110022
-0.111964
-0.113904
-0.115837
-0.117758
-0.119664
-0.12155
-0.123412
-0.125246
-0.127049
-0.128815
-0.130541
-0.132222
-0.133853
-0.135428
-0.136942
-0.138388
-0.13976
-0.141051
-0.142252
-0.143355
-0.144351
-0.14523
-0.145983
-0.146597
-0.147062
-0.147366
-0.147495
-0.147436
-0.147175
-0.146698
-0.145989
-0.145033
-0.143812
-0.142309
-0.140508
-0.138394
-0.135951
-0.133165
-0.130023
-0.126515
-0.12263
-0.118362
-0.113706
-0.108663
-0.103234
-0.0974254
-0.0912467
-0.084712
-0.0778389
-0.0706491
-0.0631677
-0.0554234
-0.0474481
-0.0392758
-0.0309428
-0.0224868
-0.0139461
-0.00535944
0.00323487
0.0117996
0.020299
0.0286992
0.0369688
0.0450789
0.0530034
0.0607195
0.068207
0.0754491
0.0824318
0.0891441
0.0955777
0.101727
0.107588
0.11316