/*--------------------------------*- C++ -*----------------------------------*\
  =========                 |
  \\      /  F ield         | OpenFOAM: The Open Source CFD Toolbox
   \\    /   O peration     | Website:  https://openfoam.org
    \\  /    A nd           | Version:  6
     \\/     M anipulation  |
\*---------------------------------------------------------------------------*/
FoamFile
{
    version     2.0;
    format      ascii;
    class       surfaceScalarField;
    location    "0.24";
    object      phi;
}
// * * * * * * * * * * * * * * * * * * * * * * * * * * * * * * * * * * * * * //

dimensions      [0 3 -1 0 0 0 0];

internalField   nonuniform List<scalar> 
24170
(
3.2567e-07
-6.82907e-09
3.1941e-07
6.26016e-09
3.15794e-07
3.61547e-09
3.08692e-07
7.10177e-09
3.01708e-07
6.98438e-09
2.96678e-07
5.0304e-09
2.93327e-07
3.35058e-09
2.90943e-07
2.38354e-09
2.89081e-07
1.86278e-09
2.87535e-07
1.54536e-09
2.86202e-07
1.33308e-09
2.85013e-07
1.18891e-09
2.83923e-07
1.09057e-09
2.82895e-07
1.02733e-09
2.81912e-07
9.83572e-10
2.80917e-07
9.94575e-10
2.80069e-07
8.47744e-10
1.04374e-09
2.79026e-07
3.50377e-07
-1.54816e-08
3.47809e-07
8.82857e-09
3.44049e-07
7.37595e-09
3.42178e-07
8.97238e-09
3.39978e-07
9.18427e-09
3.37461e-07
7.54762e-09
3.35084e-07
5.72785e-09
3.33045e-07
4.42178e-09
3.31343e-07
3.56479e-09
3.29909e-07
2.97967e-09
3.28674e-07
2.56847e-09
3.27583e-07
2.27932e-09
3.26598e-07
2.07629e-09
3.25684e-07
1.94083e-09
3.2482e-07
1.84764e-09
3.23972e-07
1.84278e-09
3.2311e-07
1.70956e-09
1.96886e-09
3.22185e-07
3.63433e-07
-1.26628e-08
3.66546e-07
5.71502e-09
3.66685e-07
7.23728e-09
3.66824e-07
8.83335e-09
3.66411e-07
9.5971e-09
3.65369e-07
8.58939e-09
3.64023e-07
7.07418e-09
3.62645e-07
5.80038e-09
3.61361e-07
4.84843e-09
3.60202e-07
4.139e-09
3.59156e-07
3.61379e-09
3.58204e-07
3.2315e-09
3.57323e-07
2.95765e-09
3.56491e-07
2.77235e-09
3.55686e-07
2.65267e-09
3.549e-07
2.62897e-09
3.54034e-07
2.57579e-09
2.84061e-09
3.53162e-07
3.89234e-07
-9.35787e-09
3.91438e-07
3.51071e-09
3.92347e-07
6.32896e-09
3.92975e-07
8.20495e-09
3.93202e-07
9.36963e-09
3.92884e-07
8.90765e-09
3.92178e-07
7.78061e-09
3.91292e-07
6.68566e-09
3.90365e-07
5.77546e-09
3.8946e-07
5.04484e-09
3.88597e-07
4.47681e-09
3.87779e-07
4.0494e-09
3.86999e-07
3.73772e-09
3.86245e-07
3.5258e-09
3.85501e-07
3.39697e-09
3.84758e-07
3.37173e-09
3.83942e-07
3.39208e-09
3.6618e-09
3.83121e-07
4.18265e-07
-6.91029e-09
4.1939e-07
2.3859e-09
4.20247e-07
5.4716e-09
4.2097e-07
7.48227e-09
4.21478e-07
8.8616e-09
4.2157e-07
8.81514e-09
4.21292e-07
8.05909e-09
4.20784e-07
7.19414e-09
4.2016e-07
6.39931e-09
4.19488e-07
5.71642e-09
4.18804e-07
5.16056e-09
4.18125e-07
4.72919e-09
4.17452e-07
4.40986e-09
4.16785e-07
4.19334e-09
4.16111e-07
4.07043e-09
4.15426e-07
4.05689e-09
4.14686e-07
4.13267e-09
4.4159e-09
4.13932e-07
4.4903e-07
-5.03159e-09
4.49579e-07
1.83656e-09
4.50287e-07
4.76432e-09
4.51004e-07
6.76523e-09
4.5164e-07
8.22489e-09
4.51976e-07
8.47941e-09
4.5199e-07
8.04491e-09
4.5177e-07
7.41481e-09
4.514e-07
6.76923e-09
4.5094e-07
6.176e-09
4.50429e-07
5.67139e-09
4.4989e-07
5.26862e-09
4.49333e-07
4.96716e-09
4.48761e-07
4.76523e-09
4.4817e-07
4.66065e-09
4.4756e-07
4.66689e-09
4.4691e-07
4.78307e-09
5.07664e-09
4.46249e-07
4.81752e-07
-3.5116e-09
4.82026e-07
1.5627e-09
4.82592e-07
4.19813e-09
4.8326e-07
6.09738e-09
4.83939e-07
7.54573e-09
4.84413e-07
8.005e-09
4.84626e-07
7.83207e-09
4.84623e-07
7.41805e-09
4.84462e-07
6.9305e-09
4.84189e-07
6.4484e-09
4.83841e-07
6.01989e-09
4.8344e-07
5.66913e-09
4.83002e-07
5.40524e-09
4.82534e-07
5.23304e-09
4.82039e-07
5.15599e-09
4.8152e-07
5.1862e-09
4.80972e-07
5.33072e-09
5.62563e-09
4.80423e-07
5.16743e-07
-2.29648e-09
5.16865e-07
1.44051e-09
5.17307e-07
3.75581e-09
5.17904e-07
5.50038e-09
5.18574e-07
6.87582e-09
5.19119e-07
7.46026e-09
5.19463e-07
7.48818e-09
5.19621e-07
7.26004e-09
5.19628e-07
6.92367e-09
5.19517e-07
6.55935e-09
5.19317e-07
6.21985e-09
5.1905e-07
5.93572e-09
5.18733e-07
5.72276e-09
5.18375e-07
5.59078e-09
5.17984e-07
5.54701e-09
5.17568e-07
5.60234e-09
5.17133e-07
5.76532e-09
6.05262e-09
5.16706e-07
5.54203e-07
-1.36548e-09
5.54234e-07
1.40881e-09
5.54577e-07
3.41361e-09
5.55099e-07
4.9781e-09
5.55732e-07
6.24276e-09
5.56303e-07
6.88923e-09
5.56729e-07
7.06205e-09
5.57004e-07
6.98526e-09
5.57144e-07
6.78407e-09
5.57169e-07
6.53381e-09
5.57102e-07
6.28678e-09
5.56962e-07
6.07608e-09
5.56763e-07
5.92129e-09
5.56519e-07
5.83523e-09
5.56239e-07
5.82713e-09
5.55935e-07
5.90635e-09
5.5562e-07
6.07987e-09
6.35271e-09
5.5532e-07
5.94298e-07
-6.85685e-10
5.94285e-07
1.42117e-09
5.94556e-07
3.14324e-09
5.95011e-07
4.52257e-09
5.95597e-07
5.65749e-09
5.96167e-07
6.31863e-09
5.96641e-07
6.58803e-09
5.96998e-07
6.62809e-09
5.97241e-07
6.54137e-09
5.9738e-07
6.39467e-09
5.97431e-07
6.23651e-09
5.97407e-07
6.09956e-09
5.97324e-07
6.0047e-09
5.97193e-07
5.96587e-09
5.97027e-07
5.99278e-09
5.96841e-07
6.09297e-09
5.9665e-07
6.27077e-09
6.52466e-09
5.96478e-07
6.37212e-07
-2.16667e-10
6.3719e-07
1.44294e-09
6.37418e-07
2.91575e-09
6.37821e-07
4.11902e-09
6.38359e-07
5.12011e-09
6.38915e-07
5.76238e-09
6.39414e-07
6.08876e-09
6.39829e-07
6.21392e-09
6.40151e-07
6.21933e-09
6.40383e-07
6.16174e-09
6.40536e-07
6.08395e-09
6.40619e-07
6.01612e-09
6.40646e-07
5.97845e-09
6.40627e-07
5.98452e-09
6.40577e-07
6.04331e-09
6.40509e-07
6.16045e-09
6.40442e-07
6.33764e-09
6.57011e-09
6.40397e-07
5.7382e-07
4.68915e-11
5.73809e-07
1.45367e-09
5.73988e-07
2.73656e-09
5.74304e-07
3.80382e-09
5.74726e-07
4.69754e-09
5.75182e-07
5.30667e-09
5.75613e-07
5.6573e-09
5.75994e-07
5.83332e-09
5.76313e-07
5.89984e-09
5.7657e-07
5.90506e-09
5.76768e-07
5.88632e-09
5.76913e-07
5.87068e-09
5.77015e-07
5.87668e-09
5.77083e-07
5.91676e-09
5.77127e-07
5.99876e-09
5.77161e-07
6.12667e-09
5.77198e-07
6.30055e-09
6.51386e-09
5.77254e-07
6.99625e-07
2.37882e-10
6.99649e-07
1.42922e-09
6.99851e-07
2.53468e-09
7.00193e-07
3.46137e-09
7.00652e-07
4.23911e-09
7.01159e-07
4.79987e-09
7.01658e-07
5.15766e-09
7.02121e-07
5.3709e-09
7.02531e-07
5.48945e-09
7.02884e-07
5.5521e-09
7.03181e-07
5.58965e-09
7.03426e-07
5.62497e-09
7.03629e-07
5.67396e-09
7.03799e-07
5.74712e-09
7.03947e-07
5.8506e-09
7.04087e-07
5.98673e-09
7.04233e-07
6.15408e-09
6.3458e-09
7.04401e-07
8.52976e-07
3.4642e-10
8.53052e-07
1.35306e-09
8.53297e-07
2.29002e-09
8.53681e-07
3.0774e-09
8.54183e-07
3.73658e-09
8.54748e-07
4.23583e-09
8.55322e-07
4.5831e-09
8.55876e-07
4.81714e-09
8.56391e-07
4.97448e-09
8.56858e-07
5.08452e-09
8.57277e-07
5.17097e-09
8.5765e-07
5.25169e-09
8.57985e-07
5.33914e-09
8.58291e-07
5.44126e-09
8.58579e-07
5.56217e-09
8.58864e-07
5.70262e-09
8.59157e-07
5.86018e-09
6.02863e-09
8.59475e-07
1.03989e-06
3.73447e-10
1.04004e-06
1.21019e-09
1.04035e-06
1.97972e-09
1.0408e-06
2.62887e-09
1.04136e-06
3.17098e-09
1.042e-06
3.59864e-09
1.04266e-06
3.91886e-09
1.04332e-06
4.15641e-09
1.04396e-06
4.33657e-09
1.04457e-06
4.48017e-09
1.04513e-06
4.60388e-09
1.04567e-06
4.72026e-09
1.04617e-06
4.83786e-09
1.04665e-06
4.96177e-09
1.04711e-06
5.09404e-09
1.04758e-06
5.23414e-09
1.04806e-06
5.37921e-09
5.52408e-09
1.04857e-06
1.26772e-06
3.31276e-10
1.26794e-06
9.88539e-10
1.26834e-06
1.58214e-09
1.26888e-06
2.08693e-09
1.26954e-06
2.51094e-09
1.27028e-06
2.85829e-09
1.27107e-06
3.13644e-09
1.27186e-06
3.36064e-09
1.27265e-06
3.54687e-09
1.27342e-06
3.70831e-09
1.27417e-06
3.85519e-09
1.2749e-06
3.99489e-09
1.2756e-06
4.13211e-09
1.27629e-06
4.26913e-09
1.27698e-06
4.40621e-09
1.27767e-06
4.54189e-09
1.27838e-06
4.67334e-09
4.79662e-09
1.27911e-06
1.54541e-06
2.36465e-10
1.54572e-06
6.82234e-10
1.54622e-06
1.07833e-09
1.54689e-06
1.42008e-09
1.54769e-06
1.71479e-09
1.54857e-06
1.96923e-09
1.54952e-06
2.18954e-09
1.5505e-06
2.38378e-09
1.55149e-06
2.55986e-09
1.55247e-06
2.72392e-09
1.55345e-06
2.88022e-09
1.55441e-06
3.0314e-09
1.55536e-06
3.17858e-09
1.55631e-06
3.32157e-09
1.55726e-06
3.45915e-09
1.55821e-06
3.58927e-09
1.55917e-06
3.70938e-09
3.81665e-09
1.56015e-06
1.8839e-06
1.03127e-10
1.88429e-06
2.90843e-10
1.88492e-06
4.50662e-10
1.88574e-06
5.93894e-10
1.88672e-06
7.32118e-10
1.88782e-06
8.70794e-10
1.889e-06
1.0125e-09
1.89023e-06
1.15867e-09
1.89148e-06
1.30929e-09
1.89274e-06
1.46326e-09
1.894e-06
1.61888e-09
1.89526e-06
1.77412e-09
1.89651e-06
1.9267e-09
1.89775e-06
2.07414e-09
1.899e-06
2.21391e-09
1.90025e-06
2.34349e-09
1.90149e-06
2.46051e-09
2.56291e-09
1.90275e-06
2.29649e-06
-5.09068e-11
2.29695e-06
-1.70879e-10
2.29771e-06
-3.13221e-10
2.29874e-06
-4.30474e-10
2.29997e-06
-4.99741e-10
2.30136e-06
-5.18337e-10
2.30286e-06
-4.86812e-10
2.30443e-06
-4.10437e-10
2.30604e-06
-2.98829e-10
2.30766e-06
-1.62108e-10
2.30929e-06
-9.09137e-12
2.31091e-06
1.52741e-10
2.31252e-06
3.17096e-10
2.31411e-06
4.78795e-10
2.3157e-06
6.33663e-10
2.31726e-06
7.78388e-10
2.31881e-06
9.10411e-10
1.02792e-09
2.32035e-06
1.68113e-06
-1.06108e-10
1.68139e-06
-4.33653e-10
1.68191e-06
-8.37865e-10
1.68267e-06
-1.18281e-09
1.6836e-06
-1.43659e-09
1.68468e-06
-1.59744e-09
1.68586e-06
-1.66188e-09
1.68709e-06
-1.64086e-09
1.68834e-06
-1.55486e-09
1.6896e-06
-1.42308e-09
1.69086e-06
-1.26107e-09
1.69209e-06
-1.08142e-09
1.6933e-06
-8.9419e-10
1.69449e-06
-7.0708e-10
1.69565e-06
-5.25818e-10
1.69678e-06
-3.54573e-10
1.69789e-06
-1.96278e-10
-5.28972e-11
1.69897e-06
1.46336e-06
-1.34863e-11
1.46345e-06
-5.22157e-10
1.46385e-06
-1.23911e-09
1.46451e-06
-1.83999e-09
1.46538e-06
-2.30659e-09
1.46641e-06
-2.62898e-09
1.46754e-06
-2.78896e-09
1.46871e-06
-2.80985e-09
1.46988e-06
-2.7308e-09
1.47105e-06
-2.58367e-09
1.47218e-06
-2.39251e-09
1.47327e-06
-2.17628e-09
1.47433e-06
-1.94945e-09
1.47534e-06
-1.72236e-09
1.47632e-06
-1.50222e-09
1.47726e-06
-1.29389e-09
1.47816e-06
-1.10052e-09
-9.24002e-10
1.47903e-06
1.27363e-06
3.66945e-10
1.2735e-06
-3.94274e-10
1.27381e-06
-1.54336e-09
1.27442e-06
-2.44884e-09
1.27529e-06
-3.17576e-09
1.27634e-06
-3.67861e-09
1.27746e-06
-3.91604e-09
1.2786e-06
-3.94469e-09
1.2797e-06
-3.83606e-09
1.28076e-06
-3.63915e-09
1.28176e-06
-3.38871e-09
1.28269e-06
-3.11122e-09
1.28357e-06
-2.82555e-09
1.28439e-06
-2.54412e-09
1.28516e-06
-2.2748e-09
1.28589e-06
-2.02242e-09
1.28658e-06
-1.78964e-09
-1.57777e-09
1.28723e-06
1.10825e-06
1.2106e-09
1.1079e-06
-4.67356e-11
1.10818e-06
-1.82167e-09
1.10882e-06
-3.09371e-09
1.10978e-06
-4.13447e-09
1.11092e-06
-4.81064e-09
1.11207e-06
-5.06934e-09
1.11317e-06
-5.04116e-09
1.11418e-06
-4.84597e-09
1.11509e-06
-4.55268e-09
1.11591e-06
-4.20745e-09
1.11664e-06
-3.8438e-09
1.1173e-06
-3.48332e-09
1.11789e-06
-3.13849e-09
1.11843e-06
-2.81613e-09
1.11893e-06
-2.51956e-09
1.11939e-06
-2.24984e-09
-2.00689e-09
1.11982e-06
9.64048e-07
2.68357e-09
9.63544e-07
4.57418e-10
9.63906e-07
-2.18367e-09
9.64693e-07
-3.88008e-09
9.65827e-07
-5.26871e-09
9.6707e-07
-6.05389e-09
9.68226e-07
-6.22552e-09
9.6923e-07
-6.04505e-09
9.70076e-07
-5.69187e-09
9.70776e-07
-5.2525e-09
9.7135e-07
-4.7816e-09
9.71822e-07
-4.31594e-09
9.72215e-07
-3.87565e-09
9.72546e-07
-3.46967e-09
9.72831e-07
-3.10102e-09
9.73081e-07
-2.76966e-09
9.73305e-07
-2.47376e-09
-2.21103e-09
9.73509e-07
8.38144e-07
5.07438e-09
8.37753e-07
8.48753e-10
8.38381e-07
-2.81131e-09
8.39415e-07
-4.91426e-09
8.40765e-07
-6.61908e-09
8.42076e-07
-7.36499e-09
8.43141e-07
-7.29021e-09
8.4394e-07
-6.84363e-09
8.4451e-07
-6.2622e-09
8.44897e-07
-5.64e-09
8.45147e-07
-5.03129e-09
8.45299e-07
-4.46771e-09
8.45384e-07
-3.96111e-09
8.45427e-07
-3.51211e-09
8.45443e-07
-3.11698e-09
8.45444e-07
-2.77063e-09
8.45437e-07
-2.46746e-09
-2.20235e-09
8.45429e-07
7.27634e-07
9.16856e-09
7.28121e-07
3.61673e-10
7.29323e-07
-4.01278e-09
7.30707e-07
-6.29893e-09
7.3224e-07
-8.1516e-09
7.33478e-07
-8.6031e-09
7.34274e-07
-8.08584e-09
7.34695e-07
-7.2647e-09
7.34844e-07
-6.41101e-09
7.34808e-07
-5.60428e-09
7.34657e-07
-4.88044e-09
7.34442e-07
-4.25283e-09
7.34198e-07
-3.71682e-09
7.33946e-07
-3.26034e-09
7.337e-07
-2.87099e-09
7.33468e-07
-2.53812e-09
7.33253e-07
-2.25256e-09
-2.00639e-09
7.33057e-07
6.30219e-07
1.5956e-08
6.3275e-07
-2.16865e-09
6.34735e-07
-5.99816e-09
6.3652e-07
-8.08445e-09
6.38094e-07
-9.72506e-09
6.38995e-07
-9.50386e-09
6.39245e-07
-8.33623e-09
6.39056e-07
-7.07573e-09
6.38615e-07
-5.96982e-09
6.3805e-07
-5.03956e-09
6.37443e-07
-4.2735e-09
6.36842e-07
-3.6515e-09
6.36272e-07
-3.14651e-09
6.35744e-07
-2.73269e-09
6.35263e-07
-2.38994e-09
6.34829e-07
-2.10376e-09
6.34439e-07
-1.86309e-09
-1.65795e-09
6.34091e-07
5.47192e-07
2.33106e-08
5.51825e-07
-6.80184e-09
5.53526e-07
-7.69864e-09
5.55233e-07
-9.79155e-09
5.56332e-07
-1.08242e-08
5.56357e-07
-9.52921e-09
5.55615e-07
-7.59389e-09
5.54506e-07
-5.96654e-09
5.53294e-07
-4.75824e-09
5.52116e-07
-3.86173e-09
5.5103e-07
-3.18746e-09
5.50054e-07
-2.67529e-09
5.49187e-07
-2.27944e-09
5.4842e-07
-1.96614e-09
5.47743e-07
-1.71311e-09
5.47147e-07
-1.50686e-09
5.46622e-07
-1.3381e-09
-1.19833e-09
5.46162e-07
4.91615e-07
1.44566e-08
4.907e-07
-5.88709e-09
4.87264e-07
-4.26311e-09
4.86304e-07
-8.83075e-09
4.84861e-07
-9.38186e-09
4.82524e-07
-7.19183e-09
4.79883e-07
-4.95255e-09
4.77387e-07
-3.47116e-09
4.75209e-07
-2.57974e-09
4.73361e-07
-2.0143e-09
4.71804e-07
-1.62976e-09
4.70485e-07
-1.35661e-09
4.6936e-07
-1.15452e-09
4.68392e-07
-9.98288e-10
4.67553e-07
-8.73842e-10
4.66822e-07
-7.76006e-10
4.6619e-07
-7.06517e-10
-7.11581e-10
4.65704e-07
4.34724e-07
4.28837e-07
4.24574e-07
4.15743e-07
4.06361e-07
3.9917e-07
3.94217e-07
3.90746e-07
3.88166e-07
3.86152e-07
3.84522e-07
3.83165e-07
3.82011e-07
3.81013e-07
3.80139e-07
3.79363e-07
3.78656e-07
3.77945e-07
1.6425e-08
-1.6425e-08
3.04589e-08
-1.40339e-08
3.8408e-08
-7.94909e-09
4.05541e-08
-2.14614e-09
3.76122e-08
2.94194e-09
3.07434e-08
6.86872e-09
2.13463e-08
9.3971e-09
1.05201e-08
1.08263e-08
-1.27675e-09
1.17968e-08
-1.41728e-08
1.28961e-08
-2.84088e-08
1.4236e-08
-4.40651e-08
1.56563e-08
-6.1099e-08
1.70339e-08
-7.93628e-08
1.82638e-08
-9.86331e-08
1.92703e-08
-1.1864e-07
2.00071e-08
-1.39095e-07
2.04552e-08
-1.59713e-07
2.06179e-08
-1.8023e-07
2.05162e-08
-2.00413e-07
2.0183e-08
-2.20071e-07
1.9658e-08
-2.39054e-07
1.89835e-08
-2.57255e-07
1.82006e-08
-2.74602e-07
1.73472e-08
-2.91058e-07
1.64562e-08
-3.06613e-07
1.55548e-08
-3.21277e-07
1.46643e-08
-3.35078e-07
1.38005e-08
-3.48052e-07
1.29742e-08
-3.60244e-07
1.21921e-08
-3.71701e-07
1.14574e-08
-3.82472e-07
1.07706e-08
-3.92602e-07
1.01301e-08
-4.02135e-07
9.53322e-09
-4.11111e-07
8.97588e-09
-4.19565e-07
8.45363e-09
-4.27526e-07
7.96163e-09
-4.35021e-07
7.49493e-09
-4.4207e-07
7.04857e-09
-4.48687e-07
6.6177e-09
-4.54885e-07
6.1976e-09
-4.60669e-07
5.78369e-09
-4.6604e-07
5.37157e-09
-4.70997e-07
4.95697e-09
-4.75533e-07
4.53571e-09
-4.79637e-07
4.10379e-09
-4.83294e-07
3.65731e-09
-4.86487e-07
3.1926e-09
-4.89193e-07
2.70634e-09
-4.91388e-07
2.19523e-09
-4.93044e-07
1.65568e-09
-4.94131e-07
1.08713e-09
-4.94631e-07
4.99513e-10
-4.94549e-07
-8.19328e-11
-4.93915e-07
-6.33293e-10
-4.92752e-07
-1.16301e-09
-4.91058e-07
-1.69413e-09
-4.88822e-07
-2.23664e-09
-4.86027e-07
-2.7946e-09
-4.82658e-07
-3.36948e-09
-4.78696e-07
-3.96136e-09
-4.74127e-07
-4.56957e-09
-4.68934e-07
-5.19292e-09
-4.63104e-07
-5.82981e-09
-4.56626e-07
-6.47829e-09
-4.49489e-07
-7.1361e-09
-4.41689e-07
-7.80065e-09
-4.3322e-07
-8.46914e-09
-4.24081e-07
-9.13847e-09
-4.14276e-07
-9.80538e-09
-4.03809e-07
-1.04664e-08
-3.92691e-07
-1.1118e-08
-3.80935e-07
-1.17564e-08
-3.68557e-07
-1.23781e-08
-3.55578e-07
-1.29794e-08
-3.42021e-07
-1.35566e-08
-3.27914e-07
-1.41065e-08
-3.13289e-07
-1.46257e-08
-2.98177e-07
-1.51113e-08
-2.82617e-07
-1.55605e-08
-2.66646e-07
-1.59711e-08
-2.50305e-07
-1.63411e-08
-2.33636e-07
-1.66688e-08
-2.16683e-07
-1.69531e-08
-1.9949e-07
-1.71932e-08
-1.82101e-07
-1.73888e-08
-1.64561e-07
-1.75399e-08
-1.46914e-07
-1.76471e-08
-1.29203e-07
-1.77109e-08
-1.11471e-07
-1.77323e-08
-9.37585e-08
-1.77123e-08
-7.61073e-08
-1.76512e-08
-5.85587e-08
-1.75486e-08
-4.11568e-08
-1.74019e-08
-2.39485e-08
-1.72083e-08
-6.96675e-09
-1.69817e-08
9.79313e-09
-1.67599e-08
2.63205e-08
-1.65273e-08
4.25787e-08
-1.62583e-08
5.85454e-08
-1.59667e-08
7.42036e-08
-1.56582e-08
8.95398e-08
-1.53362e-08
1.04543e-07
-1.50028e-08
1.19203e-07
-1.46603e-08
1.33514e-07
-1.43106e-08
1.47469e-07
-1.39556e-08
1.61066e-07
-1.3597e-08
1.74303e-07
-1.32366e-08
1.87179e-07
-1.2876e-08
1.99695e-07
-1.25164e-08
2.11855e-07
-1.21593e-08
2.2366e-07
-1.18058e-08
2.35117e-07
-1.14568e-08
2.4623e-07
-1.11133e-08
2.57006e-07
-1.0776e-08
2.67452e-07
-1.04455e-08
2.77574e-07
-1.01221e-08
2.8738e-07
-9.80624e-09
2.96878e-07
-9.49797e-09
3.06076e-07
-9.19729e-09
3.1498e-07
-8.90405e-09
3.23598e-07
-8.61792e-09
3.31936e-07
-8.33843e-09
3.40001e-07
-8.06494e-09
3.47798e-07
-7.7967e-09
3.5533e-07
-7.53278e-09
3.62603e-07
-7.27211e-09
3.69616e-07
-7.01355e-09
3.76372e-07
-6.7558e-09
3.82869e-07
-6.49752e-09
3.89107e-07
-6.2373e-09
3.9508e-07
-5.9737e-09
4.00786e-07
-5.70533e-09
4.06217e-07
-5.43085e-09
4.11366e-07
-5.14901e-09
4.16224e-07
-4.85875e-09
4.20784e-07
-4.55922e-09
4.25033e-07
-4.24981e-09
4.28964e-07
-3.93022e-09
4.32564e-07
-3.6005e-09
4.35825e-07
-3.26101e-09
4.38737e-07
-2.91239e-09
4.41293e-07
-2.55527e-09
4.43482e-07
-2.18949e-09
4.45294e-07
-1.81199e-09
4.46707e-07
-1.41246e-09
4.47676e-07
-9.69137e-10
4.48142e-07
-4.65796e-10
4.48109e-07
3.31252e-11
4.47676e-07
4.32636e-10
4.46947e-07
7.28879e-10
4.45985e-07
9.61508e-10
4.44834e-07
1.15193e-09
4.43524e-07
1.30916e-09
4.42087e-07
1.43788e-09
4.40546e-07
1.54093e-09
4.38925e-07
1.62065e-09
4.37246e-07
1.67941e-09
4.35526e-07
1.71976e-09
4.33781e-07
1.74437e-09
4.32025e-07
1.75605e-09
4.30268e-07
1.75763e-09
4.28516e-07
1.75207e-09
4.26773e-07
1.74241e-09
4.25041e-07
1.73188e-09
4.23317e-07
1.72398e-09
4.21595e-07
1.72268e-09
4.19862e-07
1.73276e-09
4.18102e-07
1.76019e-09
4.16289e-07
1.81297e-09
4.14386e-07
1.90235e-09
4.12341e-07
2.04504e-09
4.10074e-07
2.26752e-09
4.0746e-07
2.6137e-09
4.04296e-07
3.16435e-09
4.0023e-07
4.06569e-09
3.94562e-07
5.668e-09
3.86071e-07
8.49099e-09
3.71174e-07
1.48972e-08
2.39877e-08
3.47186e-07
6.91003e-09
-2.3335e-08
5.01106e-09
-1.21349e-08
-2.22162e-10
-2.71587e-09
-7.40946e-09
5.04116e-09
-1.61525e-08
1.1685e-08
-2.65655e-08
1.72817e-08
-3.89619e-08
2.17935e-08
-5.35257e-08
2.53901e-08
-7.01373e-08
2.84084e-08
-8.83541e-08
3.11128e-08
-1.07685e-07
3.35667e-08
-1.27726e-07
3.56976e-08
-1.48099e-07
3.74071e-08
-1.68456e-07
3.86208e-08
-1.8849e-07
3.93038e-08
-2.07943e-07
3.94607e-08
-2.26618e-07
3.91293e-08
-2.44371e-07
3.83712e-08
-2.61117e-07
3.72624e-08
-2.76818e-07
3.58839e-08
-2.91475e-07
3.4315e-08
-3.05119e-07
3.2628e-08
-3.17804e-07
3.0885e-08
-3.29593e-07
2.91365e-08
-3.40558e-07
2.74214e-08
-3.50771e-07
2.57676e-08
-3.60301e-07
2.41939e-08
-3.69211e-07
2.27107e-08
-3.77559e-07
2.13225e-08
-3.85396e-07
2.00289e-08
-3.92765e-07
1.88261e-08
-3.99702e-07
1.77078e-08
-4.06238e-07
1.66664e-08
-4.12398e-07
1.56933e-08
-4.18202e-07
1.47798e-08
-4.23666e-07
1.39168e-08
-4.288e-07
1.30958e-08
-4.33613e-07
1.23084e-08
-4.38112e-07
1.15469e-08
-4.42298e-07
1.08039e-08
-4.46173e-07
1.00725e-08
-4.49735e-07
9.34647e-09
-4.52984e-07
8.62003e-09
-4.55915e-07
7.88791e-09
-4.58524e-07
7.14536e-09
-4.60809e-07
6.38822e-09
-4.62765e-07
5.61296e-09
-4.64389e-07
4.81675e-09
-4.6568e-07
3.99759e-09
-4.66639e-07
3.1544e-09
-4.67271e-07
2.28777e-09
-4.67585e-07
1.40107e-09
-4.67584e-07
4.98269e-10
-4.67242e-07
-4.2355e-10
-4.665e-07
-1.37577e-09
-4.65298e-07
-2.36477e-09
-4.63602e-07
-3.39017e-09
-4.61386e-07
-4.4522e-09
-4.5863e-07
-5.5509e-09
-4.55314e-07
-6.6857e-09
-4.5142e-07
-7.85529e-09
-4.46932e-07
-9.05773e-09
-4.41834e-07
-1.02904e-08
-4.36114e-07
-1.15499e-08
-4.2976e-07
-1.28325e-08
-4.22763e-07
-1.41335e-08
-4.15115e-07
-1.5448e-08
-4.06814e-07
-1.67703e-08
-3.97858e-07
-1.80945e-08
-3.8825e-07
-1.94139e-08
-3.77994e-07
-2.0722e-08
-3.671e-07
-2.20115e-08
-3.55581e-07
-2.32754e-08
-3.43453e-07
-2.45065e-08
-3.30735e-07
-2.56974e-08
-3.1745e-07
-2.68413e-08
-3.03625e-07
-2.79314e-08
-2.8929e-07
-2.89613e-08
-2.74476e-07
-2.99252e-08
-2.59219e-07
-3.08177e-08
-2.43556e-07
-3.16343e-08
-2.27526e-07
-3.23709e-08
-2.1117e-07
-3.30244e-08
-1.94531e-07
-3.35925e-08
-1.7765e-07
-3.40736e-08
-1.60572e-07
-3.4467e-08
-1.43339e-07
-3.47726e-08
-1.25995e-07
-3.49913e-08
-1.08581e-07
-3.51246e-08
-9.11393e-08
-3.51744e-08
-7.37086e-08
-3.51429e-08
-5.63271e-08
-3.50328e-08
-3.90297e-08
-3.48459e-08
-2.18472e-08
-3.45843e-08
-4.80279e-09
-3.42528e-08
1.20782e-08
-3.38627e-08
2.87446e-08
-3.34263e-08
4.51625e-08
-3.29452e-08
6.13237e-08
-3.24195e-08
7.72127e-08
-3.18556e-08
9.28137e-08
-3.12593e-08
1.08113e-07
-3.06352e-08
1.23098e-07
-2.99877e-08
1.37758e-07
-2.9321e-08
1.52087e-07
-2.86391e-08
1.66077e-07
-2.79456e-08
1.79724e-07
-2.72443e-08
1.93026e-07
-2.65384e-08
2.05981e-07
-2.5831e-08
2.18589e-07
-2.5125e-08
2.30853e-07
-2.4423e-08
2.42775e-07
-2.37273e-08
2.54358e-07
-2.30399e-08
2.65607e-07
-2.23624e-08
2.76527e-07
-2.16965e-08
2.87125e-07
-2.10433e-08
2.97407e-07
-2.04036e-08
3.07378e-07
-1.97781e-08
3.17048e-07
-1.91671e-08
3.26421e-07
-1.85707e-08
3.35506e-07
-1.79886e-08
3.44308e-07
-1.74203e-08
3.52834e-07
-1.68649e-08
3.61091e-07
-1.63213e-08
3.69082e-07
-1.57881e-08
3.76813e-07
-1.52635e-08
3.84287e-07
-1.47457e-08
3.91505e-07
-1.42325e-08
3.98471e-07
-1.37214e-08
4.05184e-07
-1.321e-08
4.11642e-07
-1.26955e-08
4.17843e-07
-1.21754e-08
4.23785e-07
-1.16469e-08
4.29462e-07
-1.11075e-08
4.34867e-07
-1.05547e-08
4.39995e-07
-9.98659e-09
4.44837e-07
-9.40132e-09
4.49385e-07
-8.7977e-09
4.5363e-07
-8.175e-09
4.57563e-07
-7.53313e-09
4.61174e-07
-6.87258e-09
4.64456e-07
-6.19434e-09
4.674e-07
-5.49957e-09
4.7e-07
-4.78887e-09
4.72249e-07
-4.0611e-09
4.74149e-07
-3.31282e-09
4.75723e-07
-2.54259e-09
4.77022e-07
-1.76483e-09
4.78065e-07
-1.0103e-09
4.78808e-07
-3.10298e-10
4.7922e-07
3.17347e-10
4.79308e-07
8.72774e-10
4.79097e-07
1.3631e-09
4.78613e-07
1.79368e-09
4.77883e-07
2.16805e-09
4.76935e-07
2.48889e-09
4.75797e-07
2.75872e-09
4.74495e-07
2.98046e-09
4.73058e-07
3.15755e-09
4.71508e-07
3.29405e-09
4.69869e-07
3.39454e-09
4.68163e-07
3.46408e-09
4.66407e-07
3.50816e-09
4.64617e-07
3.53269e-09
4.62805e-07
3.54399e-09
4.6098e-07
3.54895e-09
4.59147e-07
3.55523e-09
4.57308e-07
3.57164e-09
4.5546e-07
3.60878e-09
4.53592e-07
3.68008e-09
4.51691e-07
3.80352e-09
4.49732e-07
4.00453e-09
4.47678e-07
4.32161e-09
4.45476e-07
4.8154e-09
4.43048e-07
5.59266e-09
4.4028e-07
6.83313e-09
4.36994e-07
8.95471e-09
4.32933e-07
1.25518e-08
4.27707e-07
2.01232e-08
3.34662e-08
4.18228e-07
-8.44083e-09
-1.48942e-08
-1.91671e-08
-1.40862e-09
-3.02891e-08
8.40609e-09
-4.19958e-08
1.67479e-08
-5.44178e-08
2.4107e-08
-6.76912e-08
3.05551e-08
-8.19876e-08
3.60899e-08
-9.7369e-08
4.07715e-08
-1.13668e-07
4.47074e-08
-1.30528e-07
4.79727e-08
-1.4754e-07
5.05787e-08
-1.64343e-07
5.25005e-08
-1.80654e-07
5.3718e-08
-1.96273e-07
5.42399e-08
-2.11078e-07
5.41094e-08
-2.25016e-07
5.33984e-08
-2.38085e-07
5.21979e-08
-2.50321e-07
5.06073e-08
-2.61784e-07
4.8726e-08
-2.72547e-07
4.66463e-08
-2.82682e-07
4.44497e-08
-2.92258e-07
4.22044e-08
-3.01338e-07
3.99648e-08
-3.09974e-07
3.77723e-08
-3.18209e-07
3.56567e-08
-3.26079e-07
3.36375e-08
-3.33611e-07
3.17261e-08
-3.40827e-07
2.99271e-08
-3.47745e-07
2.82402e-08
-3.54377e-07
2.66614e-08
-3.60735e-07
2.5184e-08
-3.66827e-07
2.37997e-08
-3.7266e-07
2.2499e-08
-3.78238e-07
2.12718e-08
-3.83567e-07
2.01081e-08
-3.88647e-07
1.89976e-08
-3.93482e-07
1.79307e-08
-3.98072e-07
1.6898e-08
-4.02415e-07
1.58904e-08
-4.06511e-07
1.48995e-08
-4.10356e-07
1.39176e-08
-4.13947e-07
1.29372e-08
-4.17278e-07
1.19516e-08
-4.20345e-07
1.09546e-08
-4.2314e-07
9.94059e-09
-4.25656e-07
8.90456e-09
-4.27886e-07
7.84212e-09
-4.29818e-07
6.74949e-09
-4.31444e-07
5.62352e-09
-4.32751e-07
4.46157e-09
-4.33725e-07
3.26158e-09
-4.34346e-07
2.02169e-09
-4.34586e-07
7.38707e-10
-4.34416e-07
-5.93477e-10
-4.33811e-07
-1.98123e-09
-4.32748e-07
-3.42742e-09
-4.31206e-07
-4.93224e-09
-4.29163e-07
-6.4951e-09
-4.26599e-07
-8.11491e-09
-4.23495e-07
-9.78998e-09
-4.19832e-07
-1.15179e-08
-4.15595e-07
-1.32954e-08
-4.10767e-07
-1.51185e-08
-4.05334e-07
-1.69821e-08
-3.99286e-07
-1.88805e-08
-3.92613e-07
-2.08068e-08
-3.85307e-07
-2.27536e-08
-3.77365e-07
-2.47125e-08
-3.68785e-07
-2.66746e-08
-3.59569e-07
-2.86304e-08
-3.49721e-07
-3.05697e-08
-3.3925e-07
-3.24821e-08
-3.28169e-07
-3.43571e-08
-3.16492e-07
-3.61837e-08
-3.04237e-07
-3.79516e-08
-2.91429e-07
-3.96501e-08
-2.7809e-07
-4.12695e-08
-2.64252e-07
-4.28001e-08
-2.49943e-07
-4.42335e-08
-2.35199e-07
-4.55617e-08
-2.20056e-07
-4.67777e-08
-2.04551e-07
-4.78759e-08
-1.88724e-07
-4.88514e-08
-1.72616e-07
-4.97008e-08
-1.56268e-07
-5.04217e-08
-1.39722e-07
-5.10129e-08
-1.2302e-07
-5.14746e-08
-1.06203e-07
-5.18079e-08
-8.93129e-08
-5.20149e-08
-7.23885e-08
-5.20987e-08
-5.54683e-08
-5.20632e-08
-3.85881e-08
-5.19129e-08
-2.17811e-08
-5.1653e-08
-5.07578e-09
-5.12897e-08
1.15004e-08
-5.0829e-08
2.79176e-08
-5.02799e-08
4.41437e-08
-4.96524e-08
6.01523e-08
-4.89537e-08
7.59235e-08
-4.81908e-08
9.14391e-08
-4.73712e-08
1.06682e-07
-4.65024e-08
1.21638e-07
-4.55911e-08
1.36294e-07
-4.4644e-08
1.50641e-07
-4.36672e-08
1.64668e-07
-4.26668e-08
1.78371e-07
-4.16485e-08
1.91744e-07
-4.06176e-08
2.04785e-07
-3.9579e-08
2.17491e-07
-3.85374e-08
2.29863e-07
-3.7497e-08
2.41902e-07
-3.64616e-08
2.53609e-07
-3.54347e-08
2.64989e-07
-3.44192e-08
2.76044e-07
-3.34177e-08
2.8678e-07
-3.24325e-08
2.97202e-07
-3.14654e-08
3.07316e-07
-3.05176e-08
3.17128e-07
-2.95902e-08
3.26645e-07
-2.86838e-08
3.35873e-07
-2.77984e-08
3.44818e-07
-2.69338e-08
3.53487e-07
-2.60892e-08
3.61885e-07
-2.52636e-08
3.70019e-07
-2.44553e-08
3.77894e-07
-2.36625e-08
3.85513e-07
-2.28826e-08
3.9288e-07
-2.21131e-08
3.99999e-07
-2.13508e-08
4.0687e-07
-2.05924e-08
4.13494e-07
-1.98343e-08
4.19871e-07
-1.90727e-08
4.25999e-07
-1.83037e-08
4.31876e-07
-1.75237e-08
4.37498e-07
-1.67289e-08
4.42859e-07
-1.59158e-08
4.47954e-07
-1.50816e-08
4.52776e-07
-1.42235e-08
4.57318e-07
-1.33398e-08
4.61572e-07
-1.24293e-08
4.65531e-07
-1.14918e-08
4.69186e-07
-1.05278e-08
4.72531e-07
-9.53863e-09
4.75557e-07
-8.52623e-09
4.78261e-07
-7.49263e-09
4.8064e-07
-6.4397e-09
4.82697e-07
-5.37021e-09
4.84446e-07
-4.29174e-09
4.85903e-07
-3.22151e-09
4.87073e-07
-2.18087e-09
4.87952e-07
-1.18927e-09
4.88532e-07
-2.62704e-10
4.88815e-07
5.90049e-10
4.88812e-07
1.36605e-09
4.88541e-07
2.06477e-09
4.88023e-07
2.68646e-09
4.8728e-07
3.23188e-09
4.86336e-07
3.70255e-09
4.85215e-07
4.10094e-09
4.83942e-07
4.43063e-09
4.8254e-07
4.69632e-09
4.81031e-07
4.90374e-09
4.79435e-07
5.05958e-09
4.77772e-07
5.1714e-09
4.76057e-07
5.24756e-09
4.74304e-07
5.29721e-09
4.72523e-07
5.33041e-09
4.70719e-07
5.35841e-09
4.68897e-07
5.39404e-09
4.67053e-07
5.45254e-09
4.6518e-07
5.55288e-09
4.63264e-07
5.71989e-09
4.61281e-07
5.98787e-09
4.59195e-07
6.40712e-09
4.56956e-07
7.05481e-09
4.54488e-07
8.06008e-09
4.51686e-07
9.63533e-09
4.48423e-07
1.22176e-08
4.4451e-07
1.64653e-08
4.403e-07
2.43328e-08
3.77539e-08
4.36012e-07
-1.6382e-08
1.48787e-09
-3.17043e-08
1.39136e-08
-4.62986e-08
2.30004e-08
-6.05396e-08
3.09889e-08
-7.46619e-08
3.82293e-08
-8.88182e-08
4.47114e-08
-1.03089e-07
5.03602e-08
-1.17444e-07
5.51267e-08
-1.31738e-07
5.9002e-08
-1.45761e-07
6.19959e-08
-1.59307e-07
6.41244e-08
-1.72221e-07
6.54143e-08
-1.84417e-07
6.59135e-08
-1.95871e-07
6.56942e-08
-2.06611e-07
6.48491e-08
-2.16695e-07
6.34831e-08
-2.26202e-07
6.17041e-08
-2.3521e-07
5.96162e-08
-2.43798e-07
5.73137e-08
-2.52031e-07
5.48788e-08
-2.59961e-07
5.23803e-08
-2.6763e-07
4.98736e-08
-2.75067e-07
4.74015e-08
-2.82291e-07
4.49959e-08
-2.89313e-07
4.26788e-08
-2.9614e-07
4.04646e-08
-3.02775e-07
3.83609e-08
-3.09218e-07
3.63701e-08
-3.15468e-07
3.44907e-08
-3.21525e-07
3.27181e-08
-3.27387e-07
3.10456e-08
-3.33052e-07
2.94647e-08
-3.38519e-07
2.7966e-08
-3.43786e-07
2.65396e-08
-3.48854e-07
2.51753e-08
-3.53719e-07
2.38627e-08
-3.58379e-07
2.25915e-08
-3.62833e-07
2.13519e-08
-3.67077e-07
2.01343e-08
-3.71107e-07
1.89293e-08
-3.74918e-07
1.77284e-08
-3.78504e-07
1.6523e-08
-3.81858e-07
1.53055e-08
-3.84972e-07
1.40685e-08
-3.87836e-07
1.28053e-08
-3.90441e-07
1.15095e-08
-3.92774e-07
1.01753e-08
-3.94823e-07
8.79757e-09
-3.9657e-07
7.37133e-09
-3.98001e-07
5.89212e-09
-3.99095e-07
4.35573e-09
-3.99831e-07
2.75793e-09
-4.00187e-07
1.09406e-09
-4.00139e-07
-6.40934e-10
-3.99669e-07
-2.45133e-09
-3.98757e-07
-4.33957e-09
-3.97383e-07
-6.30635e-09
-3.95527e-07
-8.35121e-09
-3.93169e-07
-1.04727e-08
-3.9029e-07
-1.26687e-08
-3.86873e-07
-1.49356e-08
-3.82899e-07
-1.72693e-08
-3.78353e-07
-1.96642e-08
-3.73221e-07
-2.21137e-08
-3.67492e-07
-2.461e-08
-3.61154e-07
-2.71442e-08
-3.54202e-07
-2.97064e-08
-3.46629e-07
-3.22855e-08
-3.38434e-07
-3.48697e-08
-3.29618e-07
-3.74462e-08
-3.20186e-07
-4.00017e-08
-3.10145e-07
-4.25225e-08
-2.99508e-07
-4.49945e-08
-2.88288e-07
-4.74034e-08
-2.76505e-07
-4.97352e-08
-2.64179e-07
-5.19761e-08
-2.51335e-07
-5.41131e-08
-2.38001e-07
-5.61337e-08
-2.24209e-07
-5.80263e-08
-2.0999e-07
-5.97808e-08
-1.95379e-07
-6.13879e-08
-1.80415e-07
-6.284e-08
-1.65136e-07
-6.4131e-08
-1.4958e-07
-6.52563e-08
-1.33789e-07
-6.62127e-08
-1.17803e-07
-6.69989e-08
-1.01663e-07
-6.76149e-08
-8.54083e-08
-6.80624e-08
-6.90789e-08
-6.83443e-08
-5.27128e-08
-6.84648e-08
-3.63466e-08
-6.84294e-08
-2.0015e-08
-6.82446e-08
-3.74988e-09
-6.7918e-08
1.24178e-08
-6.74574e-08
2.84602e-08
-6.68714e-08
4.43507e-08
-6.61704e-08
6.00629e-08
-6.53646e-08
7.55728e-08
-6.44636e-08
9.0859e-08
-6.3477e-08
1.05902e-07
-6.24146e-08
1.20686e-07
-6.12861e-08
1.35195e-07
-6.01004e-08
1.49418e-07
-5.88665e-08
1.63344e-07
-5.75927e-08
1.76964e-07
-5.6287e-08
1.90272e-07
-5.49568e-08
2.03264e-07
-5.36092e-08
2.15935e-07
-5.22507e-08
2.28285e-07
-5.08875e-08
2.40314e-07
-4.95251e-08
2.5202e-07
-4.81684e-08
2.63408e-07
-4.6822e-08
2.74478e-07
-4.54898e-08
2.85236e-07
-4.41753e-08
2.95685e-07
-4.28813e-08
3.05829e-07
-4.16103e-08
3.15676e-07
-4.0364e-08
3.2523e-07
-3.91439e-08
3.34496e-07
-3.79507e-08
3.43483e-07
-3.67846e-08
3.52194e-07
-3.56453e-08
3.60637e-07
-3.45321e-08
3.68817e-07