/*--------------------------------*- C++ -*----------------------------------*\
  =========                 |
  \\      /  F ield         | OpenFOAM: The Open Source CFD Toolbox
   \\    /   O peration     | Website:  https://openfoam.org
    \\  /    A nd           | Version:  6
     \\/     M anipulation  |
\*---------------------------------------------------------------------------*/
FoamFile
{
    version     2.0;
    format      ascii;
    class       volVectorField;
    location    "0.24";
    object      U;
}
// * * * * * * * * * * * * * * * * * * * * * * * * * * * * * * * * * * * * * //

dimensions      [0 1 -1 0 0 0 0];

internalField   nonuniform List<vector> 
12225
(
(0.948757 -0.405569 0)
(1.0127 -0.19067 0)
(1.01474 -0.0513925 0)
(0.983372 -0.00514071 0)
(0.955311 0.00452619 0)
(0.936867 0.00424014 0)
(0.9246 0.00260118 0)
(0.915871 0.001506 0)
(0.909316 0.000965808 0)
(0.904079 0.000717149 0)
(0.899636 0.000596883 0)
(0.895716 0.000536503 0)
(0.89216 0.000508474 0)
(0.888872 0.000503886 0)
(0.885682 0.000511085 0)
(0.882838 0.000552354 0)
(0.878956 0.000593741 0)
(0.880419 -2.91311e-05 0)
(1.03699 0.0761209 0)
(1.02001 0.0533191 0)
(1.01136 0.0193989 0)
(1.00432 0.00901818 0)
(0.99796 0.00672957 0)
(0.99119 0.00529756 0)
(0.983997 0.00405025 0)
(0.977411 0.00320117 0)
(0.971928 0.00267109 0)
(0.967394 0.00231948 0)
(0.963532 0.00207706 0)
(0.960156 0.00191486 0)
(0.957136 0.00181262 0)
(0.954383 0.0017615 0)
(0.951766 0.00173926 0)
(0.949385 0.00181773 0)
(0.946635 0.00163743 0)
(0.944837 0.00239649 0)
(0.998333 0.013212 0)
(0.995363 0.0119555 0)
(1.00082 0.00640906 0)
(1.00191 0.00652643 0)
(1.00122 0.00702963 0)
(0.999292 0.0063482 0)
(0.995938 0.00529516 0)
(0.992047 0.00442508 0)
(0.988344 0.00379503 0)
(0.985011 0.00333831 0)
(0.982014 0.00301205 0)
(0.979298 0.00278965 0)
(0.976805 0.00264828 0)
(0.974482 0.00257723 0)
(0.972248 0.00255871 0)
(0.970121 0.00263963 0)
(0.96783 0.0026465 0)
(0.965634 0.00303819 0)
(0.995105 -0.00695091 0)
(0.992486 0.00125528 0)
(0.998596 0.00394311 0)
(1.00082 0.00596245 0)
(1.0016 0.00706442 0)
(1.00156 0.0068316 0)
(1.00021 0.0060649 0)
(0.998043 0.0053192 0)
(0.995662 0.00471402 0)
(0.993308 0.00424042 0)
(0.99105 0.00388618 0)
(0.988909 0.00363829 0)
(0.986877 0.00348104 0)
(0.984933 0.0034073 0)
(0.983028 0.00340658 0)
(0.981159 0.00351509 0)
(0.979179 0.00364776 0)
(0.97712 0.0041095 0)
(0.996671 -0.00693956 0)
(0.993819 0.000831943 0)
(0.998049 0.0037623 0)
(1.00005 0.00556868 0)
(1.00132 0.00679545 0)
(1.00214 0.00690719 0)
(1.00192 0.00644842 0)
(1.00089 0.00589438 0)
(0.999482 0.00538733 0)
(0.997917 0.00495836 0)
(0.996294 0.00462231 0)
(0.994668 0.00438226 0)
(0.99306 0.00423327 0)
(0.991472 0.00417457 0)
(0.989881 0.00420426 0)
(0.98828 0.00435379 0)
(0.986596 0.00459676 0)
(0.984803 0.00513602 0)
(0.997828 -0.00414719 0)
(0.995152 0.00128545 0)
(0.997862 0.00349792 0)
(0.999554 0.00508135 0)
(1.00096 0.0063576 0)
(1.00215 0.00672334 0)
(1.00256 0.00653845 0)
(1.00227 0.00618857 0)
(1.00157 0.00581493 0)
(1.00063 0.00547073 0)
(0.999535 0.00518909 0)
(0.998362 0.00498669 0)
(0.997142 0.00486928 0)
(0.995891 0.00484323 0)
(0.994603 0.00491489 0)
(0.993278 0.00511358 0)
(0.991888 0.00544593 0)
(0.990403 0.006041 0)
(0.998451 -0.00256772 0)
(0.996205 0.00119057 0)
(0.997936 0.00307338 0)
(0.999327 0.00457698 0)
(1.00068 0.00585671 0)
(1.00197 0.00639434 0)
(1.00271 0.006431 0)
(1.0029 0.00626894 0)
(1.0027 0.00603696 0)
(1.00223 0.00579726 0)
(1.00158 0.00559276 0)
(1.00079 0.00544937 0)
(0.99992 0.0053815 0)
(0.998981 0.00540186 0)
(0.997984 0.00552343 0)
(0.996935 0.00577401 0)
(0.995834 0.00617529 0)
(0.994664 0.00680767 0)
(0.998884 -0.00172423 0)
(0.997111 0.00100702 0)
(0.998203 0.00270595 0)
(0.999311 0.00412007 0)
(1.00052 0.0053491 0)
(1.00178 0.00598953 0)
(1.00267 0.00619435 0)
(1.00314 0.00619217 0)
(1.00328 0.00609454 0)
(1.00317 0.00596428 0)
(1.00286 0.00584768 0)
(1.0024 0.00577577 0)
(1.00183 0.00576886 0)
(1.00117 0.00584431 0)
(1.00045 0.00601937 0)
(0.999667 0.00632005 0)
(0.998845 0.00677204 0)
(0.99798 0.0074244 0)
(0.999233 -0.00110715 0)
(0.997893 0.000931908 0)
(0.998563 0.00243629 0)
(0.999429 0.00372202 0)
(1.00047 0.00486242 0)
(1.00162 0.0055513 0)
(1.00256 0.00587524 0)
(1.00318 0.00600117 0)
(1.00355 0.00602194 0)
(1.00369 0.00599604 0)
(1.00364 0.00596883 0)
(1.00345 0.00597303 0)
(1.00314 0.00603212 0)
(1.00274 0.00616606 0)
(1.00226 0.00639404 0)
(1.00173 0.00673947 0)
(1.00117 0.0072261 0)
(1.00059 0.00788255 0)
(0.999502 -0.000617182 0)
(0.998538 0.000930962 0)
(0.998945 0.0022339 0)
(0.999623 0.00337651 0)
(1.00051 0.00440954 0)
(1.00153 0.00510595 0)
(1.00244 0.0055064 0)
(1.00314 0.00572871 0)
(1.00364 0.00584761 0)
(1.00396 0.00591457 0)
(1.00411 0.00597132 0)
(1.00413 0.00604977 0)
(1.00404 0.00617418 0)
(1.00385 0.00636513 0)
(1.0036 0.0066417 0)
(1.0033 0.00702398 0)
(1.00298 0.00753107 0)
(1.00265 0.00817835 0)
(0.999692 -0.000259331 0)
(0.999045 0.000949579 0)
(0.999306 0.00206963 0)
(0.999849 0.00307351 0)
(1.0006 0.00399377 0)
(1.00149 0.00466846 0)
(1.00235 0.00511028 0)
(1.00307 0.00539965 0)
(1.00365 0.00559493 0)
(1.00408 0.00573953 0)
(1.00438 0.00587008 0)
(1.00457 0.0060159 0)
(1.00465 0.00620018 0)
(1.00465 0.00644249 0)
(1.00459 0.00676027 0)
(1.00449 0.0071698 0)
(1.00438 0.00768488 0)
(1.00427 0.0083124 0)
(0.999809 -3.82381e-05 0)
(0.999392 0.000959523 0)
(0.999594 0.00193469 0)
(1.00006 0.00282216 0)
(1.00071 0.00364208 0)
(1.0015 0.00427969 0)
(1.0023 0.00473476 0)
(1.00302 0.00506271 0)
(1.00363 0.00530889 0)
(1.00413 0.00550942 0)
(1.00452 0.00569574 0)
(1.00482 0.00589384 0)
(1.00503 0.00612475 0)
(1.00518 0.00640607 0)
(1.00527 0.00675282 0)
(1.00533 0.00717772 0)
(1.00539 0.00769013 0)
(1.00546 0.00829177 0)
(0.99989 0.00010599 0)
(0.999652 0.000955813 0)
(0.999834 0.00180521 0)
(1.00025 0.00258738 0)
(1.00083 0.00331333 0)
(1.00154 0.0039051 0)
(1.00228 0.00435715 0)
(1.00297 0.00470677 0)
(1.0036 0.00498837 0)
(1.00415 0.00523126 0)
(1.00461 0.00546173 0)
(1.005 0.00570205 0)
(1.00532 0.00597048 0)
(1.00558 0.00628211 0)
(1.0058 0.0066492 0)
(1.006 0.00708109 0)
(1.0062 0.0075834 0)
(1.00642 0.00815446 0)
(0.999948 0.00019729 0)
(0.999857 0.000924531 0)
(1.00005 0.00165415 0)
(1.00043 0.00232965 0)
(1.00096 0.0029569 0)
(1.0016 0.00349002 0)
(1.00228 0.0039226 0)
(1.00295 0.00427827 0)
(1.00358 0.00458202 0)
(1.00416 0.00485635 0)
(1.00468 0.00512193 0)
(1.00514 0.00539661 0)
(1.00555 0.00569512 0)
(1.00593 0.00602928 0)
(1.00627 0.00640808 0)
(1.0066 0.00683745 0)
(1.00694 0.00731962 0)
(1.00729 0.00785097 0)
(0.999983 0.000235902 0)
(1 0.000852457 0)
(1.00021 0.00146585 0)
(1.00059 0.00203493 0)
(1.00108 0.00256223 0)
(1.00167 0.00302635 0)
(1.00231 0.00342331 0)
(1.00295 0.00376764 0)
(1.00358 0.00407676 0)
(1.00418 0.00436699 0)
(1.00474 0.00465343 0)
(1.00527 0.00494918 0)
(1.00577 0.00526491 0)
(1.00624 0.00560878 0)
(1.00669 0.00598637 0)
(1.00714 0.00640044 0)
(1.00759 0.00685059 0)
(1.00806 0.00733234 0)
(1 0.000227256 0)
(1.00009 0.000730397 0)
(1.00033 0.00122388 0)
(1.0007 0.00168342 0)
(1.00118 0.00210968 0)
(1.00174 0.0024961 0)
(1.00235 0.00284231 0)
(1.00298 0.00315741 0)
(1.00361 0.00345303 0)
(1.00422 0.00374021 0)
(1.00482 0.00402891 0)
(1.00541 0.00432761 0)
(1.00597 0.0046429 0)
(1.00652 0.00497934 0)
(1.00706 0.00533935 0)
(1.00761 0.00572312 0)
(1.00816 0.00612853 0)
(1.00872 0.00655094 0)
(1.00001 0.000181039 0)
(1.00013 0.000553419 0)
(1.00039 0.000914122 0)
(1.00077 0.00125298 0)
(1.00125 0.00157123 0)
(1.0018 0.00186924 0)
(1.0024 0.0021491 0)
(1.00303 0.00241661 0)
(1.00366 0.00267879 0)
(1.0043 0.00294212 0)
(1.00494 0.00321205 0)
(1.00557 0.0034929 0)
(1.00619 0.00378756 0)
(1.0068 0.00409743 0)
(1.00741 0.00442241 0)
(1.00803 0.00476089 0)
(1.00865 0.00510986 0)
(1.00927 0.00546497 0)
(1.00001 0.000107007 0)
(1.00014 0.000320221 0)
(1.00041 0.000524466 0)
(1.0008 0.000720425 0)
(1.00129 0.000912552 0)
(1.00184 0.00110411 0)
(1.00245 0.00129788 0)
(1.00309 0.00149706 0)
(1.00375 0.00170462 0)
(1.00442 0.00192274 0)
(1.00509 0.00215283 0)
(1.00576 0.00239547 0)
(1.00643 0.00265039 0)
(1.00709 0.00291646 0)
(1.00775 0.00319171 0)
(1.00841 0.00347345 0)
(1.00907 0.0037583 0)
(1.00974 0.00404244 0)
(1.00001 1.31878e-05 0)
(1.00014 3.12075e-05 0)
(1.0004 4.15042e-05 0)
(1.00079 5.84461e-05 0)
(1.00129 9.23233e-05 0)
(1.00186 0.000147982 0)
(1.0025 0.00022827 0)
(1.00317 0.000333964 0)
(1.00386 0.000463826 0)
(1.00457 0.000615594 0)
(1.00528 0.00078663 0)
(1.00599 0.000974056 0)
(1.00669 0.00117479 0)
(1.00739 0.00138559 0)
(1.00808 0.0016031 0)
(1.00877 0.00182386 0)
(1.00945 0.00204442 0)
(1.01012 0.00226134 0)
(1.00001 -5.75035e-05 0)
(1.00008 -0.000217712 0)
(1.0003 -0.000406501 0)
(1.00069 -0.000577943 0)
(1.0012 -0.000713684 0)
(1.0018 -0.000806166 0)
(1.00248 -0.000849127 0)
(1.0032 -0.000842844 0)
(1.00394 -0.000792996 0)
(1.00469 -0.000706555 0)
(1.00544 -0.0005902 0)
(1.00618 -0.000450217 0)
(1.00691 -0.000292427 0)
(1.00763 -0.000122094 0)
(1.00832 5.60686e-05 0)
(1.009 0.000237837 0)
(1.00967 0.000419429 0)
(1.01032 0.000597457 0)
(0.999981 -5.4909e-05 0)
(0.999932 -0.000347177 0)
(1.00008 -0.000728727 0)
(1.00044 -0.00108001 0)
(1.00098 -0.00138003 0)
(1.00164 -0.00161532 0)
(1.00238 -0.00176998 0)
(1.00318 -0.00184588 0)
(1.00398 -0.00185558 0)
(1.00478 -0.00181199 0)
(1.00557 -0.00172644 0)
(1.00633 -0.0016091 0)
(1.00707 -0.00146889 0)
(1.00777 -0.00131327 0)
(1.00845 -0.00114839 0)
(1.00911 -0.000979366 0)
(1.00974 -0.000810427 0)
(1.01035 -0.000645125 0)
(0.999912 7.43952e-05 0)
(0.999593 -0.000341212 0)
(0.999625 -0.000960242 0)
(1.00001 -0.00151968 0)
(1.00061 -0.00201343 0)
(1.00138 -0.00240831 0)
(1.00225 -0.00267048 0)
(1.00315 -0.00281098 0)
(1.00403 -0.00285651 0)
(1.00488 -0.00282922 0)
(1.00569 -0.00274713 0)
(1.00645 -0.00262583 0)
(1.00716 -0.00247812 0)
(1.00782 -0.00231393 0)
(1.00845 -0.0021409 0)
(1.00904 -0.00196489 0)
(1.00959 -0.00179042 0)
(1.01012 -0.00162105 0)
(0.999764 0.000388346 0)
(0.998956 -0.000218078 0)
(0.998889 -0.00114375 0)
(0.999375 -0.00194435 0)
(1.00013 -0.00267367 0)
(1.0011 -0.00324034 0)
(1.00215 -0.00358692 0)
(1.00318 -0.00375377 0)
(1.00414 -0.00379379 0)
(1.00501 -0.00374254 0)
(1.00579 -0.003627 0)
(1.00649 -0.00346954 0)
(1.00711 -0.00328712 0)
(1.00767 -0.00309173 0)
(1.00818 -0.00289181 0)
(1.00865 -0.00269336 0)
(1.00908 -0.00250053 0)
(1.00948 -0.00231643 0)
(0.999513 0.00100727 0)
(0.997919 -6.43561e-05 0)
(0.99788 -0.00139656 0)
(0.998635 -0.00244666 0)
(0.999673 -0.00343691 0)
(1.00093 -0.00415554 0)
(1.00222 -0.00452704 0)
(1.00335 -0.00465398 0)
(1.00431 -0.00462872 0)
(1.00511 -0.00450277 0)
(1.00576 -0.00431303 0)
(1.0063 -0.00408842 0)
(1.00674 -0.00384874 0)
(1.00711 -0.00360629 0)
(1.00743 -0.00336875 0)
(1.0077 -0.0031409 0)
(1.00795 -0.00292548 0)
(1.00817 -0.00272434 0)
(0.998981 0.0025718 0)
(0.996264 0.000303653 0)
(0.996693 -0.00176428 0)
(0.998002 -0.00311843 0)
(0.999443 -0.00436583 0)
(1.00106 -0.00515802 0)
(1.00253 -0.00544887 0)
(1.00365 -0.00544357 0)
(1.00445 -0.00528194 0)
(1.005 -0.00502997 0)
(1.00537 -0.00473202 0)
(1.0056 -0.00442028 0)
(1.00573 -0.00411358 0)
(1.0058 -0.00382127 0)
(1.00583 -0.00354775 0)
(1.00584 -0.00329483 0)
(1.00584 -0.0030626 0)
(1.00583 -0.00285083 0)
(0.997456 0.00616903 0)
(0.993468 0.00160358 0)
(0.995405 -0.00191083 0)
(0.997768 -0.00389415 0)
(0.999709 -0.00543336 0)
(1.00161 -0.00616893 0)
(1.00306 -0.00623762 0)
(1.00388 -0.005997 0)
(1.00423 -0.00563357 0)
(1.00428 -0.00522039 0)
(1.00414 -0.00480162 0)
(1.00387 -0.00440502 0)
(1.00355 -0.00404214 0)
(1.00321 -0.00371497 0)
(1.00286 -0.0034219 0)
(1.00253 -0.00316029 0)
(1.00223 -0.00292681 0)
(1.00195 -0.00271857 0)
(0.994438 0.0086043 0)
(0.989472 0.00236426 0)
(0.994196 -0.00182884 0)
(0.998184 -0.00462383 0)
(1.00068 -0.00648009 0)
(1.00259 -0.0069891 0)
(1.00353 -0.00668607 0)
(1.00352 -0.00612864 0)
(1.00295 -0.00553431 0)
(1.00212 -0.00496526 0)
(1.00118 -0.00445072 0)
(1.00022 -0.00400292 0)
(0.999289 -0.00361911 0)
(0.998423 -0.00329018 0)
(0.99763 -0.00300711 0)
(0.996911 -0.00276258 0)
(0.996263 -0.00255031 0)
(0.995691 -0.00236417 0)
(0.994525 -0.00665004 0)
(0.989503 -0.00850135 0)
(0.995534 -0.00523218 0)
(1.00011 -0.0061248 0)
(1.00255 -0.00747806 0)
(1.00353 -0.00739302 0)
(1.00288 -0.00656344 0)
(1.00107 -0.00566535 0)
(0.998864 -0.00488358 0)
(0.996665 -0.00422699 0)
(0.994612 -0.00368684 0)
(0.992749 -0.00325022 0)
(0.991086 -0.00289737 0)
(0.989616 -0.00260841 0)
(0.988317 -0.00236833 0)
(0.987172 -0.00216733 0)
(0.986161 -0.00199876 0)
(0.985275 -0.00185077 0)
(1.02649 -0.0702257 0)
(1.0171 -0.0623768 0)
(1.01189 -0.0291847 0)
(1.00856 -0.0148165 0)
(1.00582 -0.0102502 0)
(1.00204 -0.00773771 0)
(0.996893 -0.00584299 0)
(0.991416 -0.0045408 0)
(0.986481 -0.00368026 0)
(0.982314 -0.00307902 0)
(0.978816 -0.00263478 0)
(0.975859 -0.0022985 0)
(0.973342 -0.00203899 0)
(0.971187 -0.00183334 0)
(0.969325 -0.00166667 0)
(0.967705 -0.00153199 0)
(0.966296 -0.00142867 0)
(0.965081 -0.00137999 0)
(0.966187 0.350228 0)
(1.02696 0.194276 0)
(1.0328 0.0679387 0)
(1.00478 0.0152958 0)
(0.976673 -0.00122833 0)
(0.956818 -0.00427067 0)
(0.943176 -0.00354517 0)
(0.93345 -0.00238716 0)
(0.926348 -0.00156092 0)
(0.920986 -0.00106109 0)
(0.916739 -0.000765598 0)
(0.913234 -0.000586212 0)
(0.91027 -0.000472021 0)
(0.907725 -0.000394669 0)
(0.90551 -0.000339013 0)
(0.903559 -0.0002996 0)
(0.901806 -0.00027309 0)
(0.900202 -0.00030978 0)
(0.00921691 -0.0283459 -2.50385e-21)
(0.0217107 -0.0309675 2.32145e-21)
(0.0306823 -0.0229055 0)
(0.0360712 -0.0132112 0)
(0.0360983 -0.00391606 0)
(0.0313179 0.00357619 -2.20158e-21)
(0.0236639 0.00822055 0)
(0.0144719 0.0101707 0)
(0.00437454 0.0107683 0)
(-0.00655657 0.0114375 0)
(-0.0186037 0.0126004 2.19246e-21)
(-0.0319349 0.0141004 0)
(-0.0465541 0.0157262 0)
(-0.0623691 0.0172952 0)
(-0.0792077 0.0186705 0)
(-0.0968437 0.01976 1.90071e-21)
(-0.115023 0.0205134 0)
(-0.133485 0.0209166 0)
(-0.151983 0.0209841 0)
(-0.170293 0.0207511 0)
(-0.188227 0.0202655 0)
(-0.205632 0.0195805 0)
(-0.222393 0.0187498 0)
(-0.238431 0.0178229 1.76603e-21)
(-0.253698 0.0168432 -1.76525e-21)
(-0.268174 0.0158463 1.76562e-21)
(-0.28186 0.0148599 1.76665e-21)
(-0.294771 0.0139044 0)
(-0.306938 0.0129937 0)
(-0.318396 0.0121361 -1.77024e-21)
(-0.329187 0.0113356 -1.77079e-21)
(-0.339352 0.0105925 0)
(-0.348933 0.00990514 0)
(-0.357971 0.00926969 -1.76837e-21)
(-0.366502 0.00868141 0)
(-0.374558 0.00813483 0)
(-0.38217 0.00762418 1.75814e-21)
(-0.38936 0.00714353 0)
(-0.39615 0.00668704 1.74627e-21)
(-0.402554 0.00624899 3.47738e-21)
(-0.408583 0.00582382 0)
(-0.414246 0.0054062 0)
(-0.419544 0.00499101 0)
(-0.424477 0.00457334 0)
(-0.429041 0.00414858 0)
(-0.433226 0.00371251 3.33479e-21)
(-0.43702 0.00326143 3.30147e-21)
(-0.440408 0.00279263 3.26512e-21)
(-0.443371 0.0023048 0)
(-0.445885 0.00179807 -3.18273e-21)
(-0.447931 0.00127636 0)
(-0.449483 0.000752517 3.08663e-21)
(-0.450511 0.000247386 3.03299e-21)
(-0.450986 -0.000221032 0)
(-0.450936 -0.000648426 0)
(-0.450421 -0.00105217 0)
(-0.449424 -0.00145299 2.76814e-21)
(-0.447937 -0.00185861 0)
(-0.445948 -0.00227203 0)
(-0.443439 -0.00269429 0)
(-0.440395 -0.00312543 0)
(-0.436798 -0.00356493 0)
(-0.432634 -0.00401195 0)
(-0.427887 -0.00446539 0)
(-0.422544 -0.00492394 0)
(-0.416595 -0.00538608 -1.83899e-21)
(-0.410031 -0.00585018 0)
(-0.402845 -0.00631441 0)
(-0.395034 -0.00677687 1.41158e-21)
(-0.386596 -0.00723553 1.2554e-21)
(-0.377535 -0.00768831 0)
(-0.367855 -0.00813309 -9.22766e-22)
(-0.357565 -0.00856773 7.46542e-22)
(-0.346678 -0.00899012 0)
(-0.335209 -0.00939822 -3.75176e-22)
(-0.323178 -0.00979005 0)
(-0.310607 -0.0101638 0)
(-0.29752 -0.0105178 -2.25258e-22)
(-0.283948 -0.0108504 0)
(-0.26992 -0.0111606 6.50533e-22)
(-0.255471 -0.0114471 0)
(-0.240635 -0.0117092 -1.09193e-21)
(-0.225452 -0.0119463 -1.31751e-21)
(-0.209959 -0.0121581 -1.54566e-21)
(-0.194196 -0.0123446 -3.55176e-21)
(-0.178204 -0.012506 4.01528e-21)
(-0.162024 -0.0126426 0)
(-0.145696 -0.0127549 0)
(-0.12926 -0.0128433 0)
(-0.112757 -0.012908 5.8787e-21)
(-0.0962246 -0.0129482 6.34163e-21)
(-0.0797023 -0.0129615 -6.80135e-21)
(-0.063229 -0.0129419 0)
(-0.046845 -0.0128773 7.70742e-21)
(-0.0305923 -0.0127455 8.15211e-21)
(-0.014508 -0.0125162 8.5903e-21)
(0.00139393 -0.012177 0)
(0.0171136 -0.0117753 0)
(0.0326302 -0.0113647 0)
(0.0479134 -0.0109589 9.00991e-21)
(0.0629424 -0.0105603 0)
(0.0777022 -0.0101699 0)
(0.0921806 -0.0097882 -9.00184e-21)
(0.106367 -0.00941568 0)
(0.120254 -0.00905272 0)
(0.133835 -0.00869968 -8.90405e-21)
(0.147104 -0.00835686 0)
(0.160059 -0.00802454 0)
(0.172697 -0.00770292 8.74563e-21)
(0.18502 -0.00739214 8.68333e-21)
(0.197027 -0.00709231 0)
(0.208721 -0.00680344 -8.54854e-21)
(0.220105 -0.0065255 0)
(0.231184 -0.0062584 8.40384e-21)
(0.241961 -0.00600199 0)
(0.252444 -0.00575607 8.25283e-21)
(0.262637 -0.00552037 8.17587e-21)
(0.272548 -0.00529458 0)
(0.282183 -0.00507835 0)
(0.291548 -0.00487124 0)
(0.30065 -0.00467281 0)
(0.309496 -0.00448253 0)
(0.318092 -0.00429985 0)
(0.326443 -0.00412417 0)
(0.334554 -0.00395485 7.55842e-21)
(0.342429 -0.0037912 -7.48358e-21)
(0.350071 -0.00363254 0)
(0.357483 -0.00347812 0)
(0.364665 -0.0033272 0)
(0.371617 -0.00317906 0)
(0.378337 -0.00303296 -1.42498e-20)
(0.384821 -0.00288819 0)
(0.391064 -0.00274409 1.39802e-20)
(0.397062 -0.00260007 -1.38497e-20)
(0.402806 -0.00245559 0)
(0.408287 -0.00231022 0)
(0.413497 -0.00216364 0)
(0.418424 -0.00201566 1.33594e-20)
(0.423058 -0.00186622 1.32455e-20)
(0.427387 -0.0017154 0)
(0.4314 -0.00156343 1.30289e-20)
(0.435087 -0.00141065 1.29265e-20)
(0.438438 -0.00125739 -1.28281e-20)
(0.441443 -0.00110351 0)
(0.444092 -0.000947043 0)
(0.446369 -0.000781129 -1.25585e-20)
(0.448243 -0.000591635 0)
(0.449658 -0.000368475 0)
(0.450533 -0.000143147 0)
(0.450955 3.06347e-05 0)
(0.451051 0.00014215 1.21973e-20)
(0.450891 0.000213511 1.21342e-20)
(0.450525 0.000262068 0)
(0.449988 0.000295864 1.20149e-20)
(0.449311 0.000318702 0)
(0.44852 0.000332676 0)
(0.447639 0.000339276 1.18497e-20)
(0.446692 0.000339824 0)
(0.445697 0.000335575 1.17465e-20)
(0.444673 0.00032772 0)
(0.443632 0.000317375 0)
(0.442588 0.000305585 1.15992e-20)
(0.441549 0.000293329 0)
(0.440521 0.00028155 1.15053e-20)
(0.439507 0.000271188 0)
(0.438505 0.000263234 0)
(0.437512 0.000258801 0)
(0.436518 0.000259228 -1.13304e-20)
(0.435508 0.000266233 0)
(0.434461 0.000282151 1.12536e-20)
(0.433345 0.000310325 0)
(0.432113 0.00035577 0)
(0.430699 0.000426473 0)
(0.428996 0.000535569 0)
(0.426847 0.000707526 0)
(0.423944 0.000983926 0)
(0.419894 0.00147601 0)
(0.413273 0.00229945 -2.25967e-20)
(0.404178 0.00433192 0)
(0.379978 0.00663906 0)
(0.00241937 -0.0463176 7.08464e-21)
(0.00573048 -0.0294804 -6.31229e-21)
(0.00244604 -0.0123568 0)
(-0.00306539 0.00121239 3.62748e-21)
(-0.00992202 0.0122858 0)
(-0.0183226 0.0209482 1.66677e-21)
(-0.0285337 0.0272559 -3.192e-21)
(-0.0406405 0.0318364 -3.08379e-21)
(-0.0546209 0.0355881 0)
(-0.0702195 0.03911 -2.88324e-21)
(-0.0870468 0.0425189 -1.41462e-21)
(-0.104708 0.0456575 0)
(-0.122846 0.0483176 0)
(-0.141136 0.0503372 0)
(-0.159282 0.0516247 0)
(-0.177029 0.0521569 -1.26203e-21)
(-0.194172 0.0519682 0)
(-0.210557 0.0511346 2.47703e-21)
(-0.226084 0.0497589 0)
(-0.240699 0.0479559 0)
(-0.254385 0.0458409 -2.46899e-21)
(-0.26716 0.0435215 0)
(-0.279063 0.041092 2.4822e-21)
(-0.290146 0.0386311 -1.24359e-21)
(-0.300471 0.0362005 1.24931e-21)
(-0.310102 0.0338461 -1.25517e-21)
(-0.319103 0.0315998 -1.2609e-21)
(-0.327531 0.0294812 0)
(-0.335442 0.0275004 0)
(-0.342883 0.0256595 1.27546e-21)
(-0.349894 0.0239552 -1.27167e-21)
(-0.356512 0.0223804 0)
(-0.362766 0.0209252 0)
(-0.368679 0.0195782 1.28516e-21)
(-0.374272 0.0183274 0)
(-0.37956 0.0171607 0)
(-0.384555 0.0160662 -1.28364e-21)
(-0.389265 0.0150325 0)
(-0.393695 0.014049 1.269e-21)
(-0.397849 0.0131057 -2.5477e-21)
(-0.401729 0.0121937 0)
(-0.405333 0.0113044 0)
(-0.408661 0.0104302 -5.00858e-21)
(-0.411708 0.00956421 -4.97704e-21)
(-0.414472 0.00869999 -4.94107e-21)
(-0.416948 0.00783181 2.44843e-21)
(-0.419132 0.00695445 -2.42777e-21)
(-0.42102 0.00606334 -7.20533e-21)
(-0.422611 0.00515459 4.74859e-21)
(-0.423904 0.004225 2.33875e-21)
(-0.4249 0.00327291 0)
(-0.425602 0.00230188 -2.26492e-21)
(-0.426018 0.00132413 2.24313e-21)
(-0.426153 0.000355659 0)
(-0.425967 -0.00059804 0)
(-0.425373 -0.00154767 0)
(-0.424342 -0.00250644 -2.01469e-21)
(-0.422848 -0.00348076 0)
(-0.420869 -0.00447312 3.8187e-21)
(-0.418385 -0.0054838 0)
(-0.415379 -0.00651175 3.54001e-21)
(-0.411833 -0.00755502 0)
(-0.407733 -0.00861098 -3.22749e-21)
(-0.403062 -0.00967642 0)
(-0.39781 -0.0107477 2.88042e-21)
(-0.391964 -0.0118206 -1.38981e-21)
(-0.385517 -0.0128906 0)
(-0.378461 -0.0139531 -2.29505e-21)
(-0.370794 -0.0150027 -9.89609e-22)
(-0.362514 -0.0160343 -8.76543e-22)
(-0.353623 -0.0170424 0)
(-0.344127 -0.0180216 -7.60285e-22)
(-0.334033 -0.0189663 -5.14586e-22)
(-0.323354 -0.0198712 0)
(-0.312105 -0.0207313 2.56287e-22)
(-0.300303 -0.0215416 -3.88303e-22)
(-0.287971 -0.0222977 0)
(-0.275132 -0.0229956 1.5175e-22)
(-0.261815 -0.0236317 0)
(-0.248049 -0.0242031 -1.14239e-21)
(-0.233867 -0.0247073 0)
(-0.219302 -0.0251428 1.99924e-21)
(-0.204392 -0.0255085 8.67094e-22)
(-0.189173 -0.025804 -8.40947e-22)
(-0.173685 -0.0260296 -1.96931e-21)
(-0.157966 -0.0261862 2.25712e-21)
(-0.142057 -0.0262753 0)
(-0.125996 -0.0262991 0)
(-0.109823 -0.0262599 0)
(-0.093577 -0.0261606 -1.09105e-20)
(-0.0772945 -0.026004 -4.03517e-21)
(-0.061012 -0.0257928 4.31222e-21)
(-0.0447632 -0.025529 0)
(-0.0285789 -0.0252128 4.51168e-21)
(-0.0124846 -0.0248415 -5.12214e-21)
(0.00349623 -0.0244093 -5.32042e-21)
(0.0193297 -0.0239119 0)
(0.0349758 -0.0233639 0)
(0.0504124 -0.022787 0)
(0.0656284 -0.0221933 -5.74364e-21)
(0.0806094 -0.0215887 0)
(0.0953406 -0.020977 1.1525e-20)
(0.109809 -0.0203614 1.76077e-20)
(0.124004 -0.0197445 -1.17703e-20)
(0.137917 -0.0191288 0)
(0.151539 -0.0185166 -5.86849e-21)
(0.164866 -0.0179102 0)
(0.177894 -0.0173115 -1.20747e-20)
(0.19062 -0.0167223 5.96716e-21)
(0.203042 -0.016144 5.98793e-21)
(0.215163 -0.0155779 0)
(0.226981 -0.0150253 1.83563e-20)
(0.238501 -0.014487 -1.21891e-20)
(0.249726 -0.0139638 -6.16335e-21)
(0.260658 -0.0134561 0)
(0.271305 -0.0129642 -6.14181e-21)
(0.281669 -0.0124885 -1.82597e-20)
(0.291758 -0.0120287 0)
(0.301578 -0.0115848 -1.20702e-20)
(0.311133 -0.0111564 -1.2032e-20)
(0.320431 -0.0107429 -1.199e-20)
(0.329477 -0.0103437 0)
(0.338277 -0.00995792 0)
(0.346837 -0.00958466 0)
(0.355161 -0.00922277 5.85648e-21)
(0.363252 -0.00887104 5.90458e-21)
(0.371115 -0.00852813 0)
(0.378752 -0.00819262 1.16194e-20)
(0.386164 -0.00786303 1.15596e-20)
(0.39335 -0.00753783 0)
(0.400311 -0.00721549 1.14934e-20)
(0.407044 -0.00689451 2.27531e-20)
(0.413545 -0.00657343 -1.13642e-20)
(0.419809 -0.00625095 -1.12079e-20)
(0.42583 -0.00592586 0)
(0.431602 -0.00559718 0)
(0.437116 -0.00526416 0)
(0.442362 -0.00492633 -1.10504e-20)
(0.447332 -0.00458351 1.09269e-20)
(0.452016 -0.00423587 2.18068e-20)
(0.456403 -0.00388385 -1.08763e-20)
(0.460484 -0.00352813 1.0773e-20)
(0.464249 -0.00316938 1.0769e-20)
(0.467689 -0.0028077 0)
(0.470797 -0.00244162 0)
(0.473568 -0.00206675 -1.0593e-20)
(0.476006 -0.00167648 0)
(0.478144 -0.00127224 0)
(0.480057 -0.000883854 2.09754e-20)
(0.481708 -0.000548748 0)
(0.483035 -0.000273118 1.04023e-20)
(0.484038 -4.38924e-05 -1.03749e-20)
(0.484733 0.000149011 0)
(0.485145 0.000310922 1.02911e-20)
(0.485302 0.000445158 0)
(0.485229 0.000554122 0)
(0.484955 0.000639932 -1.01854e-20)
(0.484506 0.000704749 2.03002e-20)
(0.483909 0.000750852 -1.01138e-20)
(0.48319 0.000780648 0)
(0.482373 0.000796638 0)
(0.481479 0.000801389 1.00121e-20)
(0.480529 0.000797518 0)
(0.479539 0.000787688 9.94252e-21)
(0.478525 0.000774639 0)
(0.477496 0.000761243 0)
(0.476461 0.000750617 0)
(0.475422 0.000746291 9.80173e-21)
(0.474379 0.000752494 0)
(0.473326 0.000774591 -9.73947e-21)
(0.47225 0.000819842 0)
(0.47113 0.000898646 0)
(0.469935 0.00102698 1.93347e-20)
(0.468617 0.00123043 -1.93057e-20)
(0.467114 0.00155509 0)
(0.465299 0.00207954 0)
(0.463105 0.00299408 0)
(0.459999 0.00455195 5.84316e-20)
(0.456731 0.00798048 0)
(0.450214 0.0134096 -3.98326e-20)
(-0.00839012 -0.0373034 -1.44144e-22)
(-0.012854 -0.0138406 7.5301e-21)
(-0.0216851 0.00404199 0)
(-0.0317546 0.0190869 -5.77374e-21)
(-0.0425222 0.0320282 0)
(-0.0539451 0.043015 0)
(-0.0662149 0.0521018 1.99997e-23)
(-0.0794696 0.0595429 2.40291e-21)
(-0.093667 0.0657168 2.32117e-21)
(-0.108555 0.0708916 2.25391e-21)
(-0.123771 0.0751284 0)
(-0.138961 0.0783579 0)
(-0.153833 0.0804963 -2.11561e-21)
(-0.168173 0.0815098 -4.16719e-21)
(-0.181838 0.0814328 4.11659e-21)
(-0.194752 0.0803607 0)
(-0.206892 0.0784332 4.0488e-21)
(-0.218277 0.0758147 -1.97512e-21)
(-0.228953 0.072677 0)
(-0.238981 0.0691846 4.00515e-21)
(-0.248426 0.0654856 1.96925e-21)
(-0.257352 0.0617055 -3.99845e-21)
(-0.265818 0.0579452 -1.97648e-21)
(-0.273875 0.0542814 0)
(-0.281566 0.0507684 4.00339e-21)
(-0.288925 0.0474411 4.00665e-21)
(-0.295979 0.044319 0)
(-0.302749 0.0414089 4.01314e-21)
(-0.309253 0.0387085 0)
(-0.315504 0.0362088 4.01767e-21)
(-0.321513 0.0338965 2.00984e-21)
(-0.327287 0.0317557 0)
(-0.332832 0.0297689 0)
(-0.338154 0.0279185 0)
(-0.343257 0.0261869 0)
(-0.348144 0.0245574 0)
(-0.352815 0.0230142 0)
(-0.357271 0.0215425 3.984e-21)
(-0.361513 0.0201289 -5.96148e-21)
(-0.365539 0.018761 0)
(-0.369345 0.0174277 0)
(-0.37293 0.0161191 0)
(-0.376289 0.0148263 5.15962e-24)
(-0.379416 0.0135416 3.8729e-21)
(-0.382306 0.0122584 7.68181e-21)
(-0.384953 0.0109711 -7.61462e-21)
(-0.387347 0.00967551 -3.77092e-21)
(-0.389482 0.00836835 3.72719e-21)
(-0.391347 0.00704763 6.03203e-24)
(-0.392933 0.00571234 3.6391e-21)
(-0.394228 0.00436223 0)
(-0.395214 0.00299678 3.53008e-21)
(-0.39587 0.00161224 1.73285e-23)
(-0.396169 0.000198765 0)
(-0.396085 -0.0012536 0)
(-0.395594 -0.0027465 -3.24336e-21)
(-0.394677 -0.00427706 0)
(-0.393312 -0.00584303 0)
(-0.391479 -0.00744228 3.00507e-21)
(-0.389161 -0.00907227 5.72405e-21)
(-0.386337 -0.0107298 -2.70511e-21)
(-0.382992 -0.0124109 0)
(-0.379109 -0.0141108 2.45745e-21)
(-0.374675 -0.015824 0)
(-0.369675 -0.0175444 2.30951e-21)
(-0.364099 -0.019265 2.03891e-21)
(-0.357937 -0.0209786 -3.91534e-21)
(-0.351184 -0.022677 -1.87852e-21)
(-0.343836 -0.0243521 0)
(-0.335889 -0.0259952 2.95933e-21)
(-0.327348 -0.0275975 0)
(-0.318215 -0.0291501 3.31287e-21)
(-0.308499 -0.0306443 1.90861e-21)
(-0.298212 -0.0320714 1.54011e-21)
(-0.287366 -0.0334233 -1.16368e-21)
(-0.275981 -0.0346922 1.06704e-21)
(-0.264076 -0.035871 0)
(-0.251674 -0.0369533 0)
(-0.238804 -0.0379336 4.051e-22)
(-0.225492 -0.0388073 1.32669e-21)
(-0.211772 -0.0395706 0)
(-0.197675 -0.0402211 -9.29282e-22)
(-0.183238 -0.0407571 0)
(-0.168495 -0.0411782 3.78436e-21)
(-0.153486 -0.0414851 2.43269e-22)
(-0.138247 -0.0416791 -2.45059e-22)
(-0.122817 -0.041763 -3.66454e-21)
(-0.107234 -0.04174 0)
(-0.0915372 -0.0416142 4.46619e-21)
(-0.0757624 -0.0413904 2.47453e-22)
(-0.0599461 -0.0410738 0)
(-0.0441227 -0.0406699 0)
(-0.0283246 -0.0401844 0)
(-0.0125807 -0.0396233 -6.63634e-21)
(0.00308321 -0.0389932 0)
(0.0186416 -0.0383021 0)
(0.0340649 -0.0375612 0)
(0.0493238 -0.0367783 0)
(0.0643965 -0.0359584 0)
(0.0792653 -0.0351078 -7.78866e-21)
(0.0939136 -0.0342326 0)
(0.108326 -0.0333383 -8.31068e-21)
(0.122489 -0.0324301 -8.45101e-21)
(0.136391 -0.0315129 8.57932e-21)
(0.150024 -0.0305913 0)
(0.163379 -0.0296694 8.80218e-21)
(0.176451 -0.0287511 0)
(0.189236 -0.0278399 8.98383e-21)
(0.20173 -0.0269389 -9.06059e-21)
(0.213933 -0.026051 -2.71197e-20)
(0.225843 -0.0251785 0)
(0.237463 -0.0243236 -2.74799e-20)
(0.248794 -0.023488 -9.05443e-21)
(0.259839 -0.0226731 0)
(0.270602 -0.0218799 -1.85022e-20)
(0.281086 -0.0211094 -1.85645e-20)
(0.291296 -0.0203619 2.80184e-20)
(0.301239 -0.0196378 0)
(0.310918 -0.0189368 9.4295e-21)
(0.32034 -0.0182588 9.43588e-21)
(0.329511 -0.017603 2.81574e-20)
(0.338436 -0.0169685 0)
(0.34712 -0.0163543 0)
(0.355569 -0.0157591 0)
(0.363787 -0.0151812 9.28401e-21)
(0.371778 -0.0146189 0)
(0.379545 -0.0140702 0)
(0.387091 -0.013533 -9.36491e-21)
(0.394418 -0.0130051 -9.34502e-21)
(0.401526 -0.0124843 0)
(0.408414 -0.0119682 0)
(0.415081 -0.0114544 -1.85537e-20)
(0.421524 -0.0109409 0)
(0.42774 -0.0104255 1.84536e-20)
(0.433723 -0.00990639 1.83283e-20)
(0.439466 -0.00938199 0)
(0.444964 -0.00885107 0)
(0.450209 -0.00831281 -1.81872e-20)
(0.455191 -0.00776684 -5.57517e-23)
(0.459903 -0.00721328 -5.14611e-23)
(0.464336 -0.00665269 0)
(0.46848 -0.00608603 -3.60638e-20)
(0.472329 -0.00551447 0)
(0.475873 -0.00493901 0)
(0.479109 -0.00436016 0)
(0.482035 -0.00377846 1.7889e-20)
(0.484657 -0.00319739 0)
(0.486991 -0.00262738 -3.55974e-20)
(0.489052 -0.00208206 -1.77894e-20)
(0.490836 -0.00157307 0)
(0.492332 -0.00110878 -1.77265e-20)
(0.493535 -0.000692633 0)
(0.494451 -0.000324116 0)
(0.495094 -1.25477e-06 -5.28051e-20)
(0.495484 0.000278029 3.5121e-20)
(0.495641 0.000515724 0)
(0.495588 0.000713935 3.49569e-20)
(0.495348 0.000875076 -1.74349e-20)
(0.494947 0.00100196 0)
(0.494406 0.00109777 0)
(0.493749 0.00116607 0)
(0.492998 0.00121069 -5.17304e-20)
(0.492173 0.00123573 0)
(0.49129 0.00124545 -1.71353e-20)
(0.490366 0.00124435 0)
(0.489411 0.00123717 0)
(0.488434 0.00122902 0)
(0.487441 0.00122556 0)
(0.486431 0.00123338 0)
(0.4854 0.00126054 0)
(0.484335 0.0013175 -3.35268e-20)
(0.483218 0.0014187 0)
(0.482018 0.00158546 -1.66826e-20)
(0.48069 0.00185067 4.99716e-20)
(0.47917 0.00227056 0)
(0.477353 0.00293827 0)
(0.475152 0.00405638 -3.33896e-20)
(0.472264 0.00592466 -3.36228e-20)
(0.469073 0.00955707 3.3843e-20)
(0.465034 0.015985 3.44383e-20)
(-0.0136511 -0.0119417 -1.29442e-20)
(-0.0227425 0.0111545 -1.01018e-20)
(-0.0345321 0.0286145 -5.48831e-21)
(-0.0472313 0.0437197 -2.40564e-21)
(-0.0599246 0.0570926 0)
(-0.0725322 0.0687897 4.35036e-21)
(-0.0852056 0.0787614 -2.09799e-21)
(-0.0979989 0.08702 0)
(-0.110832 0.0936466 -1.97545e-21)
(-0.123533 0.0987238 0)
(-0.135904 0.102301 3.81964e-21)
(-0.147776 0.104416 0)