/*--------------------------------*- C++ -*----------------------------------*\
  =========                 |
  \\      /  F ield         | OpenFOAM: The Open Source CFD Toolbox
   \\    /   O peration     | Website:  https://openfoam.org
    \\  /    A nd           | Version:  6
     \\/     M anipulation  |
\*---------------------------------------------------------------------------*/
FoamFile
{
    version     2.0;
    format      ascii;
    class       volScalarField;
    location    "0.11";
    object      epsilon;
}
// * * * * * * * * * * * * * * * * * * * * * * * * * * * * * * * * * * * * * //

dimensions      [0 2 -3 0 0 0 0];

internalField   nonuniform List<scalar> 
12225
(
307.554
159.145
103.216
76.1974
60.9179
51.3904
44.9621
40.3152
36.7656
33.9415
31.6278
29.6911
28.044
26.6263
25.395
24.3202
23.3881
22.6615
71.6106
59.7625
44.4176
34.3509
27.8062
23.3593
20.2096
17.8903
16.1178
14.7182
13.5831
12.6427
11.8504
11.1734
10.5879
10.076
9.62299
9.21563
33.6139
34.405
29.2902
24.3866
20.5369
17.6118
15.3835
13.6611
12.3035
11.2113
10.3161
9.57012
8.9397
8.40039
7.93404
7.52671
7.16714
6.84814
22.4946
24.197
22.222
19.5416
17.0652
14.9839
13.2849
11.9055
10.7794
9.85093
9.07654
8.42336
7.86656
7.38729
6.9711
6.60669
6.28534
6.00254
18.0525
19.1656
18.2259
16.5954
14.8966
13.35
12.012
10.8774
9.92008
9.11087
8.42318
7.83477
7.32768
6.88753
6.50285
6.16451
5.86561
5.6033
15.9662
16.3999
15.7667
14.6427
13.3961
12.1984
11.1161
10.1654
9.34029
8.62695
8.00975
7.47407
7.0071
6.59803
6.2379
5.91937
5.63697
5.3889
14.9029
14.7892
14.1893
13.3001
12.3139
11.3431
10.4416
9.62931
8.9087
8.27392
7.71604
7.22548
6.79317
6.41105
6.07211
5.77054
5.50201
5.26545
14.3404
13.8259
13.1597
12.3648
11.5228
10.696
9.91971
9.20996
8.57077
7.99978
7.49163
7.03988
6.63797
6.2798
5.95988
5.67358
5.41749
5.19107
14.0386
13.246
12.487
11.7143
10.9456
10.2061
9.51397
8.87801
8.30068
7.7803
7.31305
6.89416
6.51863
6.18165
5.87884
5.60643
5.36174
5.14457
13.8768
12.8994
12.0522
11.2675
10.5296
9.83964
9.2013
8.61648
8.08458
7.60314
7.16858
6.7768
6.42363
6.10504
5.81737
5.55747
5.32314
5.11446
13.7906
12.6957
11.7765
10.967
10.2362
9.57095
8.96483
8.41372
7.91384
7.46124
7.0519
6.68177
6.34698
6.0439
5.76928
5.52037
5.29531
5.09427
13.7489
12.5882
11.6205
10.7868
10.0518
9.3953
8.80519
8.27317
7.7929
7.35903
6.96681
6.61194
6.29052
5.99903
5.7344
5.49408
5.27639
5.08151
13.7254
12.5235
11.5209
10.6659
9.9228
9.2682
8.6863
8.16595
7.6988
7.27822
6.89869
6.55553
6.24467
5.96257
5.70621
5.47314
5.26176
5.07225
13.7116
12.4831
11.4547
10.581
9.82793
9.17093
8.59222
8.07869
7.62038
7.20953
6.83987
6.50622
6.20426
5.93032
5.68135
5.4549
5.24941
5.06498
13.7045
12.4608
11.416
10.5285
9.76618
9.10477
8.52576
8.01501
7.56156
7.15681
6.79385
6.46707
6.17184
5.90432
5.66135
5.44043
5.23998
5.05997
13.7012
12.4503
11.3967
10.5007
9.73176
9.06613
8.48531
7.97484
7.5233
7.12163
6.76249
6.43996
6.14915
5.88605
5.64738
5.43056
5.23394
5.05737
13.7
12.4461
11.3887
10.4886
9.71604
9.04765
8.46514
7.95407
7.50289
7.10236
6.74496
6.42458
6.13617
5.87561
5.63952
5.42526
5.2311
5.05678
13.6996
12.4449
11.3862
10.4848
9.71086
9.04131
8.45797
7.94643
7.49517
7.0949
6.73804
6.41841
6.13093
5.87139
5.63638
5.42322
5.23015
5.05684
13.6997
12.4453
11.387
10.4859
9.71235
9.04308
8.45992
7.94844
7.49713
7.0967
6.7396
6.41966
6.13182
5.87189
5.63645
5.42285
5.22934
5.0556
13.701
12.4493
11.3947
10.4975
9.72745
9.0609
8.47943
7.96861
7.517
7.11546
6.75662
6.43448
6.14411
5.88146
5.64322
5.42678
5.23048
5.05414
13.7054
12.4634
11.4201
10.5336
9.77174
9.11035
8.53103
8.01977
7.5657
7.16024
6.79654
6.46899
6.17297
5.90464
5.66082
5.43905
5.23772
5.05684
13.7204
12.5081
11.4949
10.6317
9.88418
9.22841
8.64779
8.1303
7.66688
7.25034
6.87483
6.53543
6.22797
5.94885
5.69504
5.4641
5.25448
5.06634
13.767
12.6331
11.6842
10.8597
10.1263
9.46676
8.87086
8.33182
7.84417
7.40307
7.00403
6.64286
6.31569
6.01898
5.74963
5.50503
5.28346
5.08517
13.9007
12.9463
12.1088
11.3254
10.5845
9.88987
9.24627
8.65617
8.11923
7.63309
7.19419
6.79844
6.44163
6.11971
5.82897
5.56624
5.32933
5.11833
14.2608
13.666
12.9743
12.1892
11.3723
10.5739
9.82368
9.13559
8.51348
7.95553
7.45713
7.01252
6.61577
6.26125
5.94386
5.65926
5.4043
5.17865
15.1942
15.2321
14.6352
13.6942
12.646
11.6176
10.6669
9.81412
9.06063
8.39935
7.8201
7.31225
6.86589
6.47225
6.1238
5.81431
5.53918
5.2973
17.6338
18.6181
17.765
16.2585
14.6632
13.1884
11.8958
10.7882
9.84648
9.04602
8.3631
7.77722
7.27139
6.8318
6.44735
6.10922
5.81084
5.54995
24.7059
26.4233
23.902
20.7815
17.9995
15.7032
13.8505
12.3603
11.1538
10.1663
9.348
8.66149
8.07893
7.57937
7.14697
6.76965
6.43849
6.14964
51.9671
47.7366
37.7992
30.1738
24.7605
20.8775
18.0354
15.9055
14.2668
12.9724
11.9257
11.0622
10.3374
9.72047
9.18891
8.72635
8.32082
7.96637
251.832
137.37
90.7972
67.1474
53.3322
44.5549
38.6099
34.3466
31.1335
28.6116
26.5681
24.8708
23.4341
22.1997
21.1264
20.1841
19.3504
18.6108
0.128435
0.137089
0.185526
0.248458
0.321899
0.39571
0.46492
0.534291
0.605337
0.679163
0.756532
0.837803
0.922994
1.01188
1.10408
1.19917
1.29668
1.39616
1.49722
1.59947
1.70261
1.80635
1.91047
2.01479
2.11915
2.22345
2.3276
2.43156
2.53534
2.639
2.74269
2.84666
2.95135
3.05745
3.16603
3.27879
3.39064
3.50026
3.60747
3.71192
3.81313
3.91055
4.00356
4.09151
4.17372
4.24952
4.31823
4.3792
4.43184
4.47558
4.50997
4.53463
4.54925
4.55369
4.54787
4.53185
4.50581
4.47003
4.4249
4.37092
4.30866
4.23887
4.16242
4.08064
3.99565
3.9114
3.83418
3.76981
3.71189
3.65306
3.59203
3.52872
3.46335
3.39619
3.32755
3.2577
3.18691
3.11544
3.04352
2.97138
2.8992
2.8272
2.75555
2.68442
2.61399
2.54442
2.47586
2.40847
2.3424
2.27779
2.21478
2.15351
2.0941
2.03668
1.98134
1.92818
1.87729
1.82873
1.78256
1.73881
1.6975
1.65864
1.62222
1.58819
1.55653
1.52717
1.50005
1.47507
1.45215
1.43118
1.41203
1.39453
1.37859
1.36441
1.35185
1.34073
1.33088
1.32218
1.31452
1.30779
1.3019
1.29676
1.29229
1.28843
1.2851
1.28227
1.27987
1.27785
1.27619
1.27484
1.27376
1.27293
1.27233
1.27192
1.2717
1.27163
1.27171
1.27191
1.27223
1.27266
1.27318
1.27379
1.27447
1.27522
1.27603
1.2769
1.27782
1.27879
1.2798
1.28085
1.28193
1.28305
1.2842
1.28537
1.28656
1.28778
1.28901
1.29026
1.29152
1.29278
1.29405
1.29532
1.29657
1.29781
1.29902
1.30019
1.30129
1.30231
1.30321
1.30394
1.30443
1.30461
1.30431
1.30335
1.30138
1.29782
1.29162
1.28064
1.26104
1.22524
0.465891
0.293665
0.305492
0.346236
0.401507
0.461144
0.518646
0.571811
0.620611
0.665842
0.708376
0.748908
0.787934
0.825797
0.862739
0.898935
0.934517
0.969583
1.00421
1.03845
1.07235
1.10594
1.13925
1.1723
1.20513
1.23776
1.27022
1.30258
1.33489
1.36723
1.39973
1.43253
1.46582
1.49987
1.53498
1.5715
1.60889
1.64598
1.68248
1.71821
1.75298
1.7866
1.81884
1.84946
1.87822
1.90486
1.92914
1.95079
1.96959
1.98531
1.99775
2.00675
2.01216
2.0139
2.01192
2.0062
1.99678
1.98376
1.96726
1.94748
1.92463
1.89902
1.87102
1.84109
1.80981
1.77792
1.74606
1.7151
1.68469
1.65381
1.62223
1.58997
1.55714
1.52386
1.49025
1.45643
1.42251
1.3886
1.35478
1.32113
1.28775
1.2547
1.22206
1.18987
1.15822
1.12715
1.09672
1.06698
1.03798
1.00978
0.982409
0.955919
0.930347
0.905728
0.882092
0.859467
0.837875
0.817331
0.797846
0.779424
0.762065
0.74576
0.730497
0.716257
0.703015
0.690743
0.679407
0.668969
0.65939
0.650626
0.642629
0.635354
0.628773
0.622931
0.617807
0.613247
0.609184
0.605569
0.60236
0.599518
0.597008
0.594797
0.592855
0.591154
0.589669
0.588378
0.58726
0.586297
0.585473
0.584773
0.584184
0.583695
0.583295
0.582974
0.582725
0.58254
0.582413
0.582338
0.58231
0.582324
0.582376
0.582462
0.582579
0.582725
0.582896
0.58309
0.583305
0.58354
0.583792
0.58406
0.584343
0.584639
0.584948
0.585268
0.585599
0.585939
0.586288
0.586645
0.587009
0.58738
0.587757
0.588139
0.588525
0.588915
0.589307
0.589701
0.590095
0.590487
0.590876
0.591259
0.591634
0.592001
0.592361
0.592721
0.59311
0.593603
0.594417
0.596117
0.600369
0.61246
0.933362
0.481098
0.436639
0.450062
0.48338
0.524399
0.566325
0.605634
0.641189
0.673182
0.702309
0.72931
0.754796
0.779211
0.802857
0.825929
0.848546
0.870783
0.89269
0.914306
0.935668
0.956819
0.97781
0.998703
1.01957
1.04048
1.06153
1.0828
1.10438
1.12637
1.14886
1.17193
1.19567
1.22013
1.24538
1.2714
1.29789
1.32453
1.35116
1.37762
1.40376
1.42941
1.45438
1.47848
1.50147
1.52315
1.54326
1.56158
1.57787
1.59193
1.60354
1.61253
1.61875
1.6221
1.62249
1.61988
1.61429
1.60577
1.59441
1.58034
1.56373
1.54479
1.52378
1.50096
1.47664
1.45111
1.42466
1.39809
1.37119
1.34382
1.31597
1.28772
1.25917
1.23042
1.20159
1.17277
1.14404
1.1155
1.0872
1.05921
1.0316
1.00441
0.977688
0.951477
0.925818
0.900746
0.876295
0.852498
0.829384
0.806981
0.785316
0.764412
0.74429
0.724969
0.706466
0.688794
0.671962
0.655977
0.640839
0.626549
0.613098
0.600479
0.588675
0.577671
0.567443
0.557968
0.549218
0.541162
0.533768
0.527002
0.520828
0.515213
0.510125
0.505544
0.501446
0.497805
0.49456
0.491672
0.489103
0.486824
0.484804
0.483017
0.48144
0.48005
0.478828
0.477756
0.476817
0.475998
0.475285
0.474667
0.474134
0.473676
0.473285
0.472954
0.472677
0.472448
0.472261
0.472113
0.471999
0.471916
0.47186
0.471829
0.471821
0.471832
0.471862
0.471908
0.471968
0.472042
0.472128
0.472225
0.472332
0.472448
0.472572
0.472704
0.472842
0.472987
0.473137
0.473293
0.473453
0.473617
0.473785
0.473956
0.474131
0.474308
0.474487
0.474668
0.47485
0.475032
0.475215
0.475398
0.47558
0.475763
0.475951
0.476151
0.476386
0.476707
0.477243
0.478325
0.4808
0.48696
1.33881
0.628674
0.537452
0.527214
0.541538
0.565989
0.594044
0.622168
0.648724
0.673275
0.695983
0.717217
0.737344
0.756657
0.775359
0.793584
0.81142
0.828926
0.846154
0.863152
0.879975
0.896687
0.913359
0.930073
0.946912
0.963967
0.981328
0.999083
1.01732
1.03611
1.05553
1.07564
1.09648
1.11807
1.14042
1.16351
1.18716
1.21124
1.23561
1.26014
1.28468
1.30907
1.33311
1.3566
1.37931
1.401
1.42142
1.44031
1.45741
1.47248
1.48531
1.49567
1.5034
1.50837
1.51047
1.50966
1.50592
1.49929
1.48985
1.47773
1.46306
1.44605
1.42689
1.40583
1.38308
1.35887
1.33379
1.30809
1.28181
1.25502
1.2278
1.20027
1.17255
1.14475
1.11697
1.08931
1.06185
1.03466
1.00782
0.981366
0.955356
0.929832
0.904829
0.880381
0.856517
0.833263
0.810644
0.788682
0.767396
0.746807
0.726932
0.707785
0.689383
0.671736
0.654856
0.638749
0.623421
0.608874
0.595107
0.582117
0.569896
0.558433
0.547714
0.537722
0.528436
0.519834
0.51189
0.504575
0.497861
0.491716
0.486108
0.481005
0.476378
0.472196
0.468434
0.465063
0.462057
0.459375
0.456987
0.454864
0.452978
0.451305
0.449824
0.448514
0.447357
0.446336
0.445437
0.444645
0.44395
0.44334
0.442806
0.44234
0.441933
0.44158
0.441274
0.44101
0.440784
0.440591
0.440428
0.440291
0.440179
0.440087
0.440014
0.439958
0.439918
0.439891
0.439876
0.439872
0.439877
0.439892
0.439914
0.439944
0.43998
0.440022
0.440069
0.44012
0.440176
0.440235
0.440298
0.440364
0.440432
0.440503
0.440575
0.44065
0.440725
0.440802
0.440879
0.440956
0.441033
0.44111
0.441187
0.441265
0.441346
0.441437
0.441555
0.441734
0.442057
0.44273
0.444202
0.447426
1.64035
0.735501
0.607147
0.578596
0.578984
0.591452
0.609393
0.629402
0.649684
0.669416
0.688332
0.70644
0.723847
0.740676
0.75703
0.772992
0.788626
0.803987
0.819131
0.834114
0.849001
0.863863
0.878776
0.893823
0.909088
0.924659
0.940623
0.957064
0.974063
0.991692
1.01002
1.02909
1.04895
1.06963
1.09112
1.11343
1.13645
1.16009
1.18423
1.20876
1.23354
1.25838
1.2831
1.30747
1.33124
1.35415
1.37592
1.39625
1.41488
1.43151
1.4459
1.4578
1.46701
1.47339
1.47681
1.47721
1.47456
1.46891
1.46034
1.44895
1.43491
1.41841
1.39965
1.37886
1.35626
1.33232
1.3074
1.28165
1.25521
1.22824
1.20086
1.17323
1.14546
1.11769
1.09001
1.06253
1.03533
1.00846
0.982006
0.956004
0.930501
0.905532
0.881127
0.857314
0.834114
0.811546
0.789629
0.768378
0.747807
0.72793
0.708759
0.690304
0.672576
0.655584
0.639334
0.623832
0.609081
0.595081
0.581831
0.569326
0.55756
0.54652
0.536194
0.526566
0.517615
0.509321
0.501659
0.494602
0.488122
0.482189
0.476774
0.471845
0.467372
0.463325
0.459675
0.456394
0.453456
0.450832
0.448492
0.446408
0.444554
0.442907
0.441446
0.44015
0.439001
0.437985
0.437085
0.436289
0.435586
0.434965
0.434416
0.433931
0.433504
0.433127
0.432794
0.432502
0.432244
0.432017
0.431819
0.431644
0.431492
0.431358
0.431242
0.431142
0.431054
0.430979
0.430915
0.43086
0.430814
0.430775
0.430743
0.430717
0.430697
0.430681
0.430669
0.430661
0.430656
0.430654
0.430655
0.430657
0.430661
0.430667
0.430674
0.430682
0.43069
0.430699
0.430707
0.430715
0.430722
0.430728
0.430733
0.430737
0.430742
0.430753
0.430782
0.430853
0.431022
0.431418
0.432295
0.434087
1.86897
0.811516
0.653034
0.610337
0.600802
0.605092
0.616143
0.63054
0.646425
0.662791
0.679127
0.695205
0.71095
0.726354
0.741443
0.756256
0.770833
0.785221
0.79947
0.813636
0.82778
0.841967
0.856269
0.870762
0.885523
0.900635
0.916178
0.932234
0.948879
0.966189
0.984231
1.00306
1.02274
1.04329
1.06474
1.08708
1.11028
1.13424
1.15889
1.18411
1.20975
1.23565
1.26159
1.28734
1.31262
1.33714
1.36059
1.38265
1.403
1.42132
1.43731
1.45072
1.46132
1.46891
1.47338
1.47465
1.4727
1.46756
1.45933
1.44812
1.43412
1.41753
1.39856
1.37745
1.35467
1.33053
1.30527
1.27909
1.25218
1.22474
1.19692
1.16889
1.14079
1.11274
1.08485
1.05722
1.02993
1.00304
0.976622
0.950711
0.925347
0.90056
0.876376
0.852814
0.829891
0.807621
0.786014
0.765083
0.744835
0.72528
0.706426
0.68828
0.670849
0.65414
0.638158
0.622906
0.608387
0.594601
0.581546
0.569218
0.55761
0.546713
0.536513
0.526997
0.518145
0.509938
0.502351
0.49536
0.488937
0.483055
0.477683
0.472792
0.468351
0.46433
0.460699
0.457431
0.454497
0.451871
0.449527
0.447437
0.445576
0.44392
0.442449
0.441142
0.439981
0.438951
0.438037
0.437226
0.436507
0.435868
0.4353
0.434796
0.434347
0.433948
0.433592
0.433275
0.432992
0.432738
0.432511
0.432308
0.432125
0.431961
0.431812
0.431678
0.431557
0.431446
0.431346
0.431254
0.43117
0.431092
0.431021
0.430955
0.430893
0.430835
0.430781
0.43073
0.430681
0.430635
0.43059
0.430547
0.430505
0.430464
0.430423
0.430383
0.430342
0.430301
0.430259
0.430216
0.43017
0.430123
0.430073
0.430021
0.429968
0.429916
0.429874
0.429858
0.429908
0.430104
0.430597
0.431608
2.03527
0.864534
0.682059
0.628257
0.611435
0.610037
0.616377
0.626893
0.639667
0.653602
0.668065
0.682702
0.697323
0.711841
0.726223
0.740468
0.754595
0.768635
0.782627
0.796614
0.810649
0.824786
0.839084
0.85361
0.868432
0.883621
0.899253
0.915405
0.932154
0.949578
0.967749
0.986738
1.0066
1.0274
1.04915
1.07189
1.09558
1.12019
1.14563
1.17179
1.19855
1.22571
1.25307
1.28037
1.30731
1.33357
1.35881
1.38265
1.40475
1.42474
1.44229
1.45711
1.46893
1.47756
1.48286
1.48474
1.48319
1.47826
1.47004
1.45868
1.44438
1.42736
1.40788
1.3864
1.3632
1.33856
1.31273
1.28595
1.25845
1.23043
1.20207
1.17355
1.14502
1.1166
1.0884
1.06053
1.03306
1.00605
0.979566
0.95364
0.928308
0.903593
0.879516
0.856089
0.833323
0.811226
0.789805
0.769065
0.74901
0.729646
0.710976
0.693005
0.675738
0.659178
0.643331
0.628198
0.613781
0.600082
0.587098
0.574827
0.563262
0.552395
0.542215
0.532709
0.523858
0.515646
0.508048
0.501043
0.494603
0.488702
0.48331
0.478397
0.473935
0.469893
0.466241
0.462951
0.459993
0.457342
0.454973
0.452859
0.450975
0.449297
0.447804
0.446476
0.445296
0.444247
0.443314
0.442485
0.441747
0.44109
0.440504
0.439981
0.439514
0.439095
0.438719
0.438382
0.438077
0.437802
0.437553
0.437327
0.43712
0.436931
0.436758
0.436598
0.43645
0.436313
0.436185
0.436065
0.435952
0.435845
0.435743
0.435646
0.435554
0.435464
0.435378
0.435294
0.435212
0.435132
0.435053
0.434975
0.434897
0.43482
0.434743
0.434666
0.434588
0.434508
0.434428
0.434345
0.434259
0.434171
0.434078
0.433982
0.433882
0.43378
0.43368
0.433596
0.433552
0.433601
0.433834
0.434385
2.14817
0.899996
0.699219
0.6367
0.614325
0.608774
0.611759
0.619509
0.630031
0.642171
0.655237
0.668809
0.682639
0.696587
0.710581
0.72459
0.738612
0.752658
0.766752
0.780925
0.795212
0.809655
0.824299
0.839197
0.854405
0.869986
0.886005
0.902537
0.919657
0.937444
0.955977
0.975336
0.995594
1.01681
1.03905
1.06234
1.08669
1.11205
1.13839
1.16559
1.19353
1.22203
1.25086
1.27974
1.30835
1.33635
1.36334
1.38892
1.41269
1.43424
1.45321
1.46927
1.48214
1.49159
1.49748
1.49972
1.49832
1.49332
1.48486
1.4731
1.45825
1.4407
1.42075
1.39872
1.37491
1.34962
1.32313
1.2957
1.26756
1.23894
1.21003
1.18102
1.15206
1.12327
1.09478
1.06668
1.03903
1.01192
0.985377
0.959445
0.93415
0.909511
0.88554
0.862247
0.839634
0.817705
0.79646
0.775899
0.756022
0.736831
0.718325
0.700506
0.683378
0.666941
0.6512
0.636155
0.621811
0.608166
0.59522
0.582971
0.571415
0.560545
0.550351
0.540822
0.531941
0.523692
0.516055
0.509007
0.502524
0.496578
0.491142
0.486188
0.481685
0.477605
0.473916
0.470591
0.467601
0.464917
0.462517
0.460373
0.458461
0.456758
0.455241
0.453891
0.452691
0.451622
0.450671
0.449824
0.449069
0.448396
0.447794
0.447255
0.446772
0.446337
0.445945
0.445591
0.44527
0.444978
0.444711
0.444467
0.444242
0.444034
0.443842
0.443662
0.443494
0.443336
0.443187
0.443045
0.44291
0.44278
0.442656
0.442535
0.442418
0.442304
0.442193
0.442084
0.441976
0.44187
0.441764
0.441659
0.441555
0.44145
0.441345
0.441238
0.441131
0.441022
0.440911
0.440798
0.440681
0.44056
0.440434
0.440302
0.440165
0.440023
0.439879
0.43974
0.439623
0.439564
0.43962
0.439885
2.2151
0.921556
0.707844
0.638673
0.611999
0.603285
0.603757
0.609452
0.618291
0.629078
0.641086
0.653863
0.667128
0.680711
0.694513
0.708483
0.722598
0.736852
0.751253
0.765816
0.780561
0.795515
0.810709
0.826181
0.841973
0.858138
0.874733
0.891824
0.909486
0.927798
0.946844
0.966712
0.987488
1.00925
1.03207
1.056
1.08107
1.10727
1.13454
1.16281
1.19194
1.22175
1.25201
1.28241
1.31263
1.34226
1.37088
1.39804
1.4233
1.44621
1.46637
1.48342
1.49706
1.50704
1.51324
1.51557
1.51404
1.50873
1.49977
1.48748
1.4721
1.45396
1.43338
1.41068
1.38618
1.36021
1.33304
1.30495
1.2762
1.24702
1.21762
1.18817
1.15884
1.12975
1.10103
1.07275
1.045
1.01784
0.991303
0.965425
0.940226
0.915719
0.891911
0.868803
0.846393
0.824679
0.803654
0.783315
0.763656
0.744674
0.726366
0.708731
0.691769
0.675481
0.659869
0.644933
0.630677
0.617102
0.604207
0.591992
0.580454
0.569587
0.559385
0.549836
0.540928
0.532645
0.524968
0.517877
0.511349
0.505358
0.499878
0.49488
0.490335
0.486215
0.482489
0.479129
0.476106
0.473393
0.470963
0.468792
0.466855
0.465128
0.46359
0.462221
0.461002
0.459917
0.45895
0.458089
0.457321
0.456634
0.456019
0.455468
0.454972
0.454525
0.454121
0.453755
0.453421
0.453116
0.452837
0.452579
0.45234
0.452119
0.451911
0.451717
0.451534
0.45136
0.451194
0.451036
0.450884
0.450737
0.450595
0.450457
0.450322
0.450189
0.450059
0.44993
0.449803
0.449676
0.44955
0.449425
0.449299
0.449173
0.449046
0.448917
0.448788
0.448656
0.448522
0.448384
0.448243
0.448096
0.447944
0.447786
0.44762
0.447447
0.447268
0.447087
0.446916
0.446778
0.446713
0.446796
2.24193
0.931746
0.710192
0.636282
0.606348
0.595192
0.593727
0.597843
0.605394
0.615146
0.626351
0.638536
0.651403
0.664765
0.678504
0.692553
0.706874
0.721446
0.736264
0.751326
0.76664
0.782218
0.798076
0.814239
0.830736
0.847607
0.864902
0.88268
0.901009
0.919969
0.939649
0.96014
0.981541
1.00395
1.02744
1.0521
1.07797
1.10505
1.13329
1.16262
1.19292
1.22399
1.25558
1.28738
1.31903
1.35009
1.3801
1.40856
1.43498
1.4589
1.47988
1.49755
1.51157
1.52172
1.52785
1.52993
1.52797
1.52214
1.51263
1.49971
1.48368
1.46485
1.44357
1.42017
1.39498
1.36834
1.34053
1.31186
1.28258
1.25293
1.22312
1.19333
1.16372
1.13443
1.10557
1.07722
1.04946
1.02234
0.995894
0.970154
0.945134
0.92084
0.897272
0.874426
0.852293
0.830865
0.81013
0.790079
0.770702
0.751991
0.733941
0.716547
0.699806
0.683717
0.668282
0.653501
0.639377
0.62591
0.613103
0.600956
0.589467
0.578632
0.568447
0.558903
0.549989
0.541691
0.533993
0.526875
0.520317
0.514293
0.508779
0.503748
0.499171
0.495019
0.491265
0.487877
0.484829
0.482091
0.479639
0.477447
0.475491
0.473747
0.472193
0.470809
0.469577
0.46848
0.467503
0.466631
0.465853
0.465158
0.464534
0.463975
0.463471
0.463016
0.462603
0.462229
0.461886
0.461573
0.461284
0.461017
0.460768
0.460537
0.460319
0.460114
0.45992
0.459734
0.459557
0.459387
0.459223
0.459063
0.458908
0.458756
0.458608
0.458461
0.458317
0.458174
0.458031
0.45789
0.457749
0.457608
0.457466
0.457324
0.45718
0.457035
0.456889
0.45674
0.456588
0.456432
0.456272
0.456107
0.455936
0.455757
0.455569
0.455373
0.455168
0.454957
0.454747
0.454555
0.454409
0.454376
2.23325
0.932424
0.707897
0.63111
0.598885
0.585905
0.582959
0.585863
0.592428
0.601397
0.612005
0.623767
0.636373
0.649625
0.663394
0.677601
0.692196
0.707147
0.722436
0.738052
0.753989
0.770247
0.786832
0.803753
0.821032
0.838696
0.856786
0.875352
0.89446
0.914186
0.93462
0.95586
0.978013
1.00119
1.02548
1.051
1.07778
1.10582
1.13509
1.16551
1.19693
1.22917
1.26194
1.29492
1.32771
1.35985
1.39085
1.42015
1.44723
1.4716
1.49283
1.51057
1.52445
1.53423
1.53985
1.54131
1.5387
1.53216
1.52193
1.50828
1.49151
1.47196
1.44997
1.4259
1.40008
1.37285
1.34452
1.31538
1.28569
1.25569
1.22561
1.19561
1.16585
1.13648
1.1076
1.07929
1.05162
1.02465
0.998398
0.972894
0.948145
0.924152
0.900911
0.878409
0.856635
0.835572
0.815204
0.795516
0.776494
0.758126
0.740402
0.723315
0.70686
0.691033
0.675835
0.661265
0.647327
0.634021
0.621351
0.609317
0.59792
0.587158
0.577028
0.567523
0.558635
0.550352
0.542659
0.53554
0.528973
0.522938
0.51741
0.512362
0.507768
0.5036
0.499829
0.496426
0.493363
0.490612
0.488147
0.485944
0.483977
0.482223
0.48066
0.479269
0.47803
0.476927
0.475944
0.475067
0.474285
0.473585
0.472957
0.472394
0.471885
0.471426
0.47101
0.47063
0.470283
0.469964
0.46967
0.469397
0.469143
0.468905
0.468681
0.468469
0.468267
0.468074
0.467889
0.467711
0.467538
0.46737
0.467206
0.467045
0.466886
0.46673
0.466576
0.466422
0.46627
0.466118
0.465966
0.465813
0.46566
0.465506
0.465351
0.465194
0.465035
0.464874
0.464709
0.464541
0.464368
0.464189
0.464004
0.46381
0.463608
0.463395
0.463172
0.462941
0.462705
0.462477
0.462279
0.462173
2.19259
0.92503
0.702246
0.624449
0.590918
0.576726
0.572732
0.574757
0.580608
0.58902
0.599219
0.610715
0.62319
0.636437
0.650321
0.664754
0.679677
0.69505
0.710848
0.727051
0.743644
0.76062
0.777974
0.795708
0.813834
0.832369
0.851347
0.870812
0.890823
0.911456
0.932798
0.954955
0.978038
1.00217
1.02746
1.05402
1.08189
1.11106
1.14146
1.173
1.20551
1.23877
1.27249
1.30629
1.33976
1.37242
1.4038
1.43325
1.46018
1.48416
1.50481
1.52176
1.53476
1.54363
1.54831
1.54881
1.54524
1.53778
1.52667
1.51218
1.49463
1.47437
1.45173
1.42708
1.40075
1.37308
1.34438
1.31493
1.285
1.25483
1.22463
1.19458
1.16483
1.13552
1.10675
1.07861
1.05115
1.02444
0.998482
0.973309
0.948924
0.925321
0.90249
0.880415
0.859077
0.838456
0.81853
0.799279
0.780685
0.76273
0.745402
0.72869
0.712586
0.697086
0.682187
0.667889
0.654195
0.641106
0.628625
0.616755
0.605499
0.594855
0.584822
0.575397
0.566573
0.558339
0.550684
0.543592
0.537046
0.531024
0.525505
0.520462
0.51587
0.511703
0.507931
0.504527
0.501464
0.498712
0.496247
0.494042
0.492074
0.490319
0.488756
0.487364
0.486125
0.485022
0.48404
0.483164
0.482382
0.481682
0.481055
0.480492
0.479984
0.479524
0.479107
0.478727
0.478379
0.478058
0.477762
0.477487
0.47723
0.476989
0.476762
0.476546
0.47634
0.476144
0.475954
0.475771
0.475593
0.475419
0.47525
0.475083
0.474919
0.474756
0.474595
0.474435
0.474276
0.474117
0.473957
0.473798
0.473637
0.473476
0.473313
0.473148
0.472981
0.472811
0.472638
0.472461
0.47228
0.472092
0.471898
0.471695
0.471483
0.471261
0.471027
0.470783
0.470532
0.470283
0.470055
0.469906
2.12166
0.91078
0.694417
0.617513
0.583706
0.568952
0.564368
0.565863
0.57128
0.579367
0.589355
0.600753
0.61324
0.626604
0.640706
0.655455
0.670781
0.68664
0.703001
0.719842
0.737144
0.754894
0.773083
0.791708
0.810773
0.830292
0.85029
0.870808
0.891901
0.91364
0.936115
0.959432
0.983709
1.00907
1.03566
1.06357
1.09282
1.12333
1.15501
1.18771
1.22122
1.25528
1.28954
1.3236
1.357
1.38925
1.41983
1.44823
1.47393
1.49652
1.51564
1.53099
1.54236
1.54964
1.55279
1.55187
1.54699
1.53835
1.52619
1.51079
1.49247
1.47155
1.44838
1.4233
1.39664
1.36872
1.33985
1.3103
1.28034
1.2502
1.22007
1.19014
1.16057
1.13147
1.10296
1.07511
1.04798
1.02163
0.996071
0.971323
0.947387
0.924254
0.90191
0.880334
0.859504
0.839393
0.819977
0.801229
0.783126
0.76565
0.748781
0.732506
0.716816
0.701703
0.687163
0.673196
0.659802
0.646985
0.634747
0.623093
0.612025
0.601546
0.591656
0.582352
0.57363
0.565483
0.5579
0.550869
0.544372
0.538391
0.532905
0.527891
0.523323
0.519175
0.515421
0.512033
0.508983
0.506244
0.50379
0.501596
0.499637
0.497891
0.496336
0.494952
0.49372
0.492624
0.491649
0.490779
0.490003
0.489309
0.488687
0.488128
0.487624
0.487168
0.486754
0.486376
0.48603
0.485711
0.485416
0.485142
0.484886
0.484645
0.484417
0.484201
0.483994
0.483796
0.483605
0.48342
0.48324
0.483064
0.482891
0.482722
0.482555
0.482389
0.482225
0.482062
0.481899
0.481736
0.481573
0.481409
0.481245
0.481079
0.480912
0.480742
0.480571
0.480397
0.480219
0.480037
0.479851
0.479659
0.47946
0.479253
0.479036
0.478809
0.478571
0.478322
0.478065
0.477806
0.477564
0.477392
2.02902
0.894294
0.686598
0.61194
0.578754
0.564071
0.559369
0.560706
0.565994
0.574015
0.584018
0.595518
0.608196
0.62184
0.636307
0.651502
0.667357
0.683826
0.700876
0.718482
0.736625
0.755289
0.774463
0.794144
0.814331
0.835037
0.856284
0.878108
0.90056
0.92371
0.947646
0.972475
0.998317
1.02531
1.05357
1.08322
1.11414
1.14618
1.1792
1.21296
1.24719
1.28156
1.31566
1.34908
1.38134
1.41198
1.44053
1.46656
1.48967
1.50954
1.52589
1.53851
1.54728
1.55213
1.55308
1.5502
1.54363
1.53356
1.52022
1.50387
1.48482
1.46336
1.43981
1.41449
1.38772
1.35979
1.33098
1.30157
1.2718
1.24189
1.21204
1.18243
1.15319
1.12446
1.09635
1.06891
1.04223
1.01634
0.991271
0.967028
0.943614
0.921019
0.899226
0.87821
0.857944
0.8384
0.819547
0.801356
0.7838
0.766855
0.7505
0.734717
0.719495
0.704823
0.690696
0.677112
0.664071
0.651577
0.639632
0.628242
0.617411
0.607142
0.597436
0.588295
0.579715
0.571692
0.564216
0.557276
0.550859
0.544948
0.539522
0.534559
0.530037
0.52593
0.522211
0.518855
0.515834
0.513122
0.510693
0.50852
0.506582
0.504854
0.503316
0.501948
0.500731
0.499649
0.498686
0.497828
0.497063
0.496379
0.495766
0.495216
0.49472
0.494271
0.493863
0.493491
0.493151
0.492837
0.492546
0.492275
0.492022
0.491784
0.491558
0.491344
0.491139
0.490942
0.490752
0.490568
0.490388
0.490213
0.490041
0.489871
0.489703
0.489538
0.489373
0.489209
0.489045
0.488881
0.488717
0.488552
0.488387
0.48822
0.488051
0.487881
0.487708
0.487533
0.487354
0.487171
0.486983
0.48679
0.48659
0.486382
0.486165
0.485939
0.485701
0.485453
0.485196
0.484938
0.484694
0.484512
1.92486
0.879034
0.681054
0.609427
0.577539
0.563485
0.559125
0.560695
0.566196
0.574462
0.584768
0.596645
0.609782
0.62397
0.639067
0.654974
0.671626
0.688975
0.706988
0.725641
0.744914
0.764793
0.785268
0.806335
0.827995
0.850259
0.873146
0.89669
0.920942
0.945966
0.97185
0.998696
1.02663
1.05578
1.0863
1.11814
1.15104
1.18477
1.21906
1.25358
1.28797
1.3218
1.35464
1.38606
1.41563
1.44297
1.46773
1.48962
1.5084
1.52391
1.536
1.5446
1.54966
1.55119
1.54923
1.54388
1.53526
1.52354
1.50892
1.49163
1.47192
1.45006
1.42633
1.40099
1.37433
1.34662
1.31813
1.28909
1.25973
1.23027
1.20089
1.17176
1.14302
1.11481
1.08721
1.0603
1.03416
1.00882
0.984306
0.960632
0.937798
0.915792
0.894596
0.874183
0.854524
0.835586
0.817337
0.799743
0.782774
0.766402
0.750602
0.735355
0.720644
0.706458
0.692789
0.679634
0.666992
0.654866
0.643259
0.632178
0.621625
0.611608
0.602128
0.593189
0.584788
0.576923
0.569588
0.562772
0.556465
0.55065
0.545309
0.540423
0.535968
0.531921
0.528257
0.52495
0.521974
0.519302
0.516909
0.514771
0.512862
0.511163
0.50965
0.508306
0.507111
0.506049
0.505105
0.504264
0.503515
0.502846
0.502247
0.501709
0.501224
0.500786
0.500388
0.500025
0.499692
0.499385
0.499101
0.498837
0.498589
0.498356
0.498135
0.497925
0.497724
0.497531
0.497344
0.497163
0.496986
0.496813
0.496643
0.496476
0.49631
0.496146
0.495983
0.495821
0.495659
0.495497
0.495334
0.495171
0.495007
0.494841
0.494674
0.494505
0.494334
0.49416
0.493982
0.493801
0.493615
0.493424
0.493227
0.493022
0.492808
0.492586
0.492353
0.492111
0.491861
0.49161
0.491372
0.491191
1.79444
0.860136
0.676872
0.610288
0.58089
0.568319
0.564985
0.567375
0.573622
0.582635
0.593738
0.606487
0.620586
0.635832
0.652087
0.669254
0.687265
0.706072
0.725643
0.745952
0.766981
0.788717
0.811151
0.834278
0.858101
0.882628
0.907879
0.933884
0.960689
0.988354
1.01696
1.04661
1.0774
1.10949
1.14299
1.17738
1.21236
1.24754
1.28253
1.31686
1.35008
1.38171
1.41131
1.43852
1.46303
1.48462
1.50317
1.51861
1.53094
1.54018
1.54637
1.54954
1.54976
1.54707
1.54153
1.53322
1.52223
1.50869
1.49273
1.47452
1.45425
1.43213
1.40838
1.38322
1.35689
1.32962
1.30165
1.27319
1.24444
1.21561
1.18688
1.15839
1.1303
1.10271
1.07574
1.04946
1.02394
0.999216
0.975323
0.952272
0.930064
0.90869
0.888128
0.868354
0.849336
0.83104
0.813429
0.796467
0.780122
0.764361
0.749157
0.734486
0.720329
0.706672
0.693507
0.680826
0.668629
0.656917
0.645694
0.634965
0.624737
0.615014
0.605802
0.597104
0.58892
0.581251
0.57409
0.567432
0.561264
0.555574
0.550345
0.545559
0.541194
0.537228
0.533637
0.530396
0.527479
0.524862
0.522518
0.520424
0.518556
0.516893
0.515414
0.5141
0.512933
0.511897
0.510976
0.510157
0.509427
0.508776
0.508193
0.50767
0.507199
0.506773
0.506386
0.506033
0.50571
0.505412
0.505135
0.504878
0.504636
0.504409
0.504193
0.503988
0.503791
0.503602
0.503419
0.503241
0.503067
0.502897
0.50273
0.502565
0.502402
0.50224
0.502079
0.501919
0.501759
0.501599
0.501438
0.501277
0.501114
0.50095
0.500785
0.500618
0.500448
0.500276
0.500101
0.499922
0.499739
0.49955
0.499356
0.499154
0.498946
0.498728
0.498502
0.498267
0.498026
0.497785
0.497557
0.497383
1.6556
0.839234
0.674314
0.614698
0.58913
0.579143
0.577827
0.581978
0.589896
0.600584
0.613421
0.627998
0.644037
0.661342
0.679779
0.699247
0.719678
0.741021
0.763237
0.7863
0.810188
0.834886
0.860383
0.886673
0.913754
0.941633
0.970323
0.999849
1.03025
1.06157
1.0939
1.1273
1.16191
1.19784
1.23451
1.27127
1.30765
1.34313
1.37715