/*--------------------------------*- C++ -*----------------------------------*\
  =========                 |
  \\      /  F ield         | OpenFOAM: The Open Source CFD Toolbox
   \\    /   O peration     | Website:  https://openfoam.org
    \\  /    A nd           | Version:  6
     \\/     M anipulation  |
\*---------------------------------------------------------------------------*/
FoamFile
{
    version     2.0;
    format      ascii;
    class       volScalarField;
    location    "0.11";
    object      k;
}
// * * * * * * * * * * * * * * * * * * * * * * * * * * * * * * * * * * * * * //

dimensions      [0 2 -2 0 0 0 0];

internalField   nonuniform List<scalar> 
12225
(
0.24644
0.15884
0.119013
0.0972122
0.0837377
0.0747611
0.0683882
0.0635902
0.0597997
0.0566958
0.0540878
0.0518552
0.0499177
0.0482191
0.0467187
0.0453885
0.0442167
0.0432885
0.339526
0.260136
0.208267
0.175311
0.153299
0.137724
0.126065
0.116915
0.109478
0.103282
0.0980243
0.0934983
0.0895579
0.0860958
0.0830335
0.0803055
0.077895
0.0757372
0.347498
0.29234
0.248522
0.216218
0.192266
0.174103
0.159926
0.14854
0.13917
0.131306
0.124603
0.118816
0.113766
0.109323
0.105387
0.101879
0.0987625
0.0960095
0.35137
0.309037
0.271897
0.241947
0.218181
0.199243
0.183941
0.171366
0.160861
0.151955
0.144311
0.137678
0.131871
0.126745
0.122194
0.118133
0.114511
0.111324
0.353917
0.319269
0.28721
0.259845
0.237079
0.218243
0.202583
0.18944
0.178291
0.168733
0.160461
0.153238
0.146883
0.141253
0.136238
0.131752
0.127741
0.124207
0.355678
0.326034
0.29788
0.272939
0.251468
0.23318
0.217613
0.204303
0.192848
0.182917
0.174247
0.166624
0.15988
0.153879
0.148514
0.143701
0.139386
0.135574
0.356918
0.330713
0.305581
0.282785
0.262671
0.245147
0.229938
0.216725
0.205204
0.19511
0.18622
0.178349
0.171345
0.165083
0.159462
0.154403
0.149854
0.145823
0.357802
0.33403
0.311249
0.290298
0.271487
0.254813
0.240114
0.227169
0.215751
0.205649
0.196679
0.188683
0.181527
0.175097
0.169302
0.164067
0.159347
0.155149
0.358434
0.336406
0.315453
0.296058
0.278443
0.262629
0.248515
0.235944
0.224744
0.21475
0.205809
0.197787
0.190567
0.184049
0.178149
0.172802
0.167966
0.16365
0.358882
0.338108
0.318567
0.300463
0.283913
0.268922
0.255415
0.243276
0.23237
0.222565
0.213734
0.205764
0.198553
0.192014
0.186071
0.180666
0.175763
0.171372
0.359195
0.339317
0.320853
0.303801
0.288172
0.273938
0.261028
0.249343
0.238775
0.229213
0.220551
0.212692
0.205548
0.199042
0.193107
0.187691
0.182765
0.178336
0.359394
0.340093
0.322369
0.306086
0.291169
0.277553
0.265155
0.253884
0.243642
0.234332
0.225861
0.218142
0.211099
0.204663
0.198773
0.193384
0.188469
0.184038
0.359535
0.340652
0.323492
0.307824
0.293506
0.280431
0.268502
0.257624
0.247704
0.238654
0.230389
0.222832
0.215913
0.20957
0.20375
0.198411
0.193529
0.189116
0.359644
0.341086
0.324389
0.309256
0.295485
0.282929
0.271469
0.261
0.25143
0.242674
0.234652
0.227294
0.220536
0.214323
0.208605
0.203347
0.198526
0.194154
0.35972
0.341393
0.325045
0.310337
0.297027
0.284931
0.273906
0.263836
0.254619
0.246171
0.238415
0.231283
0.224716
0.218662
0.213076
0.207927
0.203194
0.198887
0.359767
0.341589
0.325474
0.31107
0.298107
0.286377
0.275717
0.265995
0.257102
0.248946
0.241451
0.23455
0.228183
0.222303
0.216868
0.211845
0.207218
0.202994
0.359793
0.341697
0.325716
0.311496
0.298758
0.287277
0.276878
0.267416
0.258774
0.250855
0.243579
0.236876
0.230688
0.224966
0.219669
0.214767
0.210243
0.206102
0.359804
0.341741
0.325817
0.311679
0.299044
0.287684
0.277417
0.268091
0.259586
0.2518
0.244649
0.238063
0.231982
0.226357
0.221146
0.216321
0.211862
0.207774
0.359801
0.341728
0.325789
0.311629
0.298965
0.287573
0.27727
0.267908
0.259366
0.251544
0.244359
0.23774
0.231628
0.225974
0.220736
0.215884
0.211401
0.20729
0.359775
0.341621
0.325545
0.311195
0.298299
0.286642
0.276058
0.26641
0.257587
0.249496
0.242057
0.235203
0.228876
0.223026
0.217612
0.212602
0.207979
0.203746
0.359715
0.341375
0.325006
0.310276
0.296941
0.284821
0.273773
0.263678
0.254437
0.245963
0.23818
0.23102
0.224423
0.218336
0.212716
0.207527
0.20275
0.198389
0.359585
0.340851
0.323901
0.308474
0.2944
0.281552
0.269822
0.259112
0.249329
0.240386
0.232201
0.224701
0.217819
0.211494
0.205677
0.200326
0.195416
0.190952
0.359329
0.339833
0.321856
0.305304
0.290133
0.276288
0.263692
0.252252
0.241867
0.232435
0.22386
0.216052
0.20893
0.202423
0.196468
0.191015
0.186034
0.181526
0.35886
0.338007
0.318368
0.300167
0.283527
0.268455
0.254877
0.242675
0.231714
0.221858
0.212979
0.204963
0.197707
0.191121
0.185131
0.179675
0.174715
0.170249
0.35805
0.334908
0.312749
0.2923
0.273848
0.257407
0.242845
0.229966
0.218562
0.20844
0.199424
0.191365
0.184133
0.17762
0.171733
0.166402
0.161576
0.157253
0.356706
0.329801
0.303969
0.280621
0.260108
0.242313
0.226932
0.213615
0.202036
0.191914
0.183015
0.175147
0.16815
0.161897
0.156283
0.151224
0.146664
0.142597
0.354517
0.321332
0.290235
0.263355
0.240754
0.221902
0.206133
0.19284
0.181526
0.171803
0.163371
0.155996
0.149496
0.143728
0.138578
0.13396
0.12981
0.126118
0.350901
0.306596
0.267909
0.237085
0.21291
0.193844
0.178569
0.166098
0.155731
0.146975
0.139478
0.132984
0.127301
0.122287
0.117831
0.113846
0.110271
0.107091
0.342446
0.275931
0.227251
0.193508
0.169787
0.152554
0.139513
0.129251
0.120914
0.113974
0.10809
0.103025
0.0986146
0.094735
0.0912946
0.0882228
0.0854673
0.0830067
0.259302
0.173112
0.131355
0.10742
0.0921289
0.0817215
0.0742805
0.0687072
0.0643532
0.06083
0.0578988
0.0554068
0.0532528
0.0513669
0.0496986
0.0482106
0.0468749
0.0456738
0.00191397
0.00331124
0.0040227
0.00486899
0.00577221
0.00662897
0.00738118
0.00809809
0.00880108
0.00950348
0.0102133
0.0109337
0.0116645
0.0124033
0.013147
0.0138923
0.0146359
0.015375
0.0161074
0.0168313
0.0175453
0.0182485
0.0189401
0.0196199
0.0202876
0.0209434
0.0215875
0.0222202
0.0228423
0.0234544
0.0240579
0.0246544
0.0252466
0.025838
0.0264344
0.0270436
0.0276507
0.028239
0.0288083
0.0293578
0.0298856
0.0303897
0.0308677
0.0313169
0.0317346
0.0321181
0.0324646
0.0327715
0.0330362
0.0332565
0.0334305
0.0335565
0.0336333
0.0336599
0.0336361
0.0335619
0.0334378
0.0332649
0.0330446
0.0327786
0.0324694
0.0321195
0.0317325
0.0313131
0.0308689
0.0304141
0.0299751
0.0295882
0.0292613
0.028942
0.0286121
0.0282689
0.0279127
0.0275446
0.0271658
0.0267779
0.026382
0.0259793
0.025571
0.0251582
0.0247419
0.0243231
0.0239026
0.0234815
0.0230605
0.0226407
0.0222229
0.0218079
0.0213968
0.0209904
0.0205896
0.0201955
0.019809
0.0194309
0.0190622
0.0187038
0.0183564
0.018021
0.0176981
0.0173884
0.0170923
0.0168104
0.016543
0.0162901
0.016052
0.0158285
0.0156195
0.0154248
0.0152439
0.0150765
0.0149218
0.0147789
0.0146469
0.0145266
0.0144187
0.0143216
0.014234
0.0141552
0.0140843
0.0140204
0.013963
0.0139113
0.0138648
0.0138229
0.0137852
0.0137512
0.0137205
0.0136927
0.0136677
0.0136449
0.0136243
0.0136054
0.0135883
0.0135726
0.0135581
0.0135449
0.0135326
0.0135212
0.0135106
0.0135007
0.0134913
0.0134826
0.0134742
0.0134663
0.0134587
0.0134515
0.0134444
0.0134377
0.0134311
0.0134246
0.0134183
0.0134121
0.0134059
0.0133999
0.0133938
0.0133877
0.0133817
0.0133756
0.0133694
0.0133631
0.0133568
0.0133502
0.0133434
0.0133364
0.013329
0.0133211
0.0133127
0.0133035
0.0132934
0.0132819
0.0132688
0.0132532
0.0132344
0.0132109
0.0131804
0.013139
0.0130798
0.0129881
0.0128379
0.0125769
0.00448771
0.00948365
0.0119825
0.0137461
0.0153551
0.0168746
0.0182686
0.0195324
0.0206906
0.0217788
0.0228294
0.0238668
0.0249075
0.0259613
0.0270334
0.0281254
0.0292372
0.0303668
0.0315116
0.0326688
0.0338354
0.0350084
0.0361854
0.0373644
0.0385438
0.0397222
0.0408989
0.042073
0.0432443
0.044412
0.0455758
0.046735
0.0478885
0.0490349
0.0501723
0.0512989
0.0524083
0.0535082
0.0545981
0.0556752
0.0567354
0.057774
0.0587855
0.0597642
0.0607038
0.0615978
0.0624396
0.0632225
0.06394
0.0645858
0.0651543
0.0656401
0.0660387
0.0663466
0.0665611
0.0666803
0.0667037
0.0666316
0.0664655
0.0662077
0.0658615
0.0654314
0.0649224
0.0643405
0.0636927
0.0629862
0.0622277
0.0614358
0.0606224
0.0597792
0.058906
0.0580058
0.057082
0.0561385
0.0551788
0.0542063
0.0532242
0.0522353
0.0512423
0.0502476
0.0492534
0.0482619
0.047275
0.0462947
0.0453228
0.044361
0.043411
0.0424746
0.0415535
0.0406493
0.0397636
0.0388982
0.0380545
0.0372341
0.0364385
0.035669
0.0349269
0.0342134
0.0335295
0.032876
0.0322535
0.0316626
0.0311036
0.0305763
0.0300809
0.0296168
0.0291837
0.0287806
0.0284069
0.0280613
0.0277428
0.0274498
0.0271806
0.0269326
0.0267047
0.0264988
0.0263136
0.0261473
0.025998
0.0258641
0.0257441
0.0256365
0.02554
0.0254536
0.025376
0.0253063
0.0252437
0.0251874
0.0251366
0.0250907
0.0250492
0.0250115
0.0249771
0.0249457
0.0249169
0.0248903
0.0248658
0.0248429
0.0248215
0.0248015
0.0247825
0.0247646
0.0247474
0.024731
0.0247151
0.0246998
0.0246849
0.0246703
0.024656
0.0246419
0.024628
0.0246142
0.0246005
0.0245868
0.0245731
0.0245594
0.0245455
0.0245316
0.0245175
0.0245032
0.0244887
0.0244738
0.0244586
0.024443
0.0244267
0.0244098
0.024392
0.0243731
0.0243528
0.0243305
0.0243058
0.0242777
0.0242449
0.0242055
0.0241562
0.0240919
0.0240023
0.0238727
0.0236551
0.0234227
0.00713498
0.0144463
0.0176912
0.0199133
0.0217701
0.0234605
0.0250306
0.0264934
0.0278692
0.0291867
0.0304743
0.0317549
0.0330429
0.034346
0.0356659
0.0370007
0.0383464
0.0396977
0.0410496
0.0423975
0.0437377
0.0450676
0.046386
0.0476925
0.0489877
0.0502728
0.0515495
0.05282
0.0540864
0.0553508
0.0566149
0.0578803
0.0591481
0.0604187
0.0616921
0.0629678
0.0642459
0.0655261
0.066806
0.0680816
0.0693481
0.0705994
0.0718289
0.0730291
0.074192
0.0753089
0.0763712
0.0773697
0.0782956
0.0791401
0.0798951
0.0805531
0.0811074
0.0815527
0.0818845
0.0820999
0.0821973
0.0821763
0.0820382
0.0817855
0.0814217
0.0809517
0.0803813
0.0797169
0.0789657
0.0781348
0.0772319
0.0762829
0.0752893
0.0742532
0.0731784
0.0720697
0.0709322
0.0697707
0.06859
0.0673945
0.066188
0.0649741
0.0637563
0.0625375
0.0613205
0.0601079
0.0589019
0.057705
0.0565191
0.0553464
0.0541888
0.0530482
0.0519267
0.0508261
0.0497483
0.048695
0.0476682
0.0466695
0.0457007
0.0447632
0.0438587
0.0429883
0.0421533
0.0413547
0.0405932
0.0398695
0.0391839
0.0385365
0.0379272
0.0373556
0.0368212
0.0363231
0.0358605
0.035432
0.0350364
0.0346721
0.0343374
0.0340302
0.0337488
0.0334911
0.0332578
0.0330471
0.0328573
0.0326864
0.0325328
0.0323947
0.0322706
0.0321592
0.0320591
0.031969
0.031888
0.031815
0.0317492
0.0316896
0.0316356
0.0315865
0.0315418
0.0315009
0.0314633
0.0314286
0.0313964
0.0313665
0.0313386
0.0313123
0.0312874
0.0312638
0.0312413
0.0312197
0.0311988
0.0311786
0.031159
0.0311398
0.0311209
0.0311024
0.031084
0.0310658
0.0310477
0.0310297
0.0310116
0.0309935
0.0309753
0.030957
0.0309385
0.0309197
0.0309007
0.0308813
0.0308615
0.0308412
0.0308203
0.0307986
0.0307759
0.030752
0.0307265
0.0306989
0.0306687
0.0306349
0.0305962
0.0305506
0.0304951
0.0304248
0.0303307
0.0301995
0.0299983
0.0297457
0.00908062
0.0179723
0.0219394
0.0245402
0.0265817
0.0283646
0.0300109
0.0315712
0.0330735
0.0345396
0.0359879
0.0374312
0.038877
0.0403275
0.0417811
0.0432342
0.0446818
0.0461191
0.0475421
0.0489478
0.0503344
0.0517014
0.0530496
0.0543805
0.0556967
0.0570013
0.0582976
0.0595892
0.0608796
0.0621723
0.0634703
0.064776
0.0660916
0.0674182
0.0687563
0.0701057
0.0714677
0.0728411
0.0742235
0.0756109
0.0769978
0.078378
0.0797439
0.081087
0.082398
0.0836668
0.084883
0.0860356
0.0871138
0.0881069
0.0890047
0.0897979
0.090478
0.091038
0.091472
0.091776
0.0919474
0.0919853
0.0918906
0.0916655
0.0913138
0.0908405
0.0902516
0.0895539
0.0887548
0.0878617
0.086894
0.0858639
0.0847767
0.0836382
0.0824547
0.0812325
0.0799777
0.0786961
0.0773932
0.0760739
0.0747429
0.0734041
0.0720613
0.0707179
0.0693769
0.0680411
0.0667132
0.0653954
0.0640901
0.0627994
0.0615254
0.0602702
0.0590357
0.057824
0.0566371
0.0554767
0.0543449
0.0532436
0.0521744
0.0511391
0.0501392
0.0491764
0.0482517
0.0473664
0.0465213
0.0457172
0.0449545
0.0442333
0.0435537
0.0429154
0.0423177
0.0417599
0.041241
0.0407598
0.0403149
0.0399047
0.0395275
0.0391813
0.0388643
0.0385744
0.03831
0.0380706
0.0378544
0.0376593
0.0374834
0.037325
0.0371824
0.0370541
0.0369386
0.0368346
0.0367409
0.0366563
0.0365799
0.0365106
0.0364478
0.0363906
0.0363384
0.0362906
0.0362466
0.036206
0.0361683
0.0361332
0.0361003
0.0360694
0.0360401
0.0360123
0.0359856
0.0359601
0.0359354
0.0359115
0.0358883
0.0358655
0.0358432
0.0358211
0.0357994
0.0357778
0.0357563
0.0357349
0.0357136
0.0356921
0.0356706
0.0356489
0.035627
0.0356049
0.0355825
0.0355597
0.0355365
0.0355127
0.0354883
0.0354631
0.0354368
0.0354093
0.0353802
0.035349
0.0353151
0.0352777
0.0352354
0.0351865
0.0351282
0.0350561
0.0349631
0.0348385
0.0346623
0.0344449
0.0103941
0.0204
0.0249491
0.0278968
0.0301465
0.0320539
0.0337874
0.0354287
0.0370192
0.0385818
0.0401298
0.0416699
0.0432046
0.044733
0.0462521
0.0477581
0.0492469
0.050715
0.0521598
0.05358
0.0549752
0.0563464
0.0576955
0.0590252
0.060339
0.0616406
0.0629344
0.0642246
0.0655156
0.0668114
0.0681159
0.0694323
0.0707634
0.0721112
0.0734767
0.0748601
0.0762635
0.0776867
0.0791274
0.0805821
0.0820457
0.0835115
0.0849716
0.086417
0.0878373
0.0892214
0.0905572
0.0918323
0.0930342
0.0941504
0.0951689
0.0960785
0.0968692
0.0975324
0.098061
0.0984498
0.0986954
0.0987964
0.098753
0.0985675
0.0982437
0.0977866
0.0972026
0.0964988
0.0956831
0.0947713
0.0937775
0.0927103
0.0915777
0.0903877
0.0891477
0.0878652
0.0865472
0.0852001
0.0838299
0.0824421
0.0810416
0.0796328
0.0782197
0.0768059
0.0753947
0.0739889
0.0725912
0.071204
0.0698298
0.0684706
0.0671286
0.0658059
0.0645044
0.0632262
0.0619733
0.0607477
0.0595513
0.058386
0.0572537
0.0561562
0.0550952
0.0540723
0.0530889
0.0521462
0.0512452
0.0503869
0.0495717
0.0487999
0.0480716
0.0473867
0.0467445
0.0461445
0.0455856
0.0450666
0.0445861
0.0441427
0.0437344
0.0433596
0.0430162
0.0427021
0.0424152
0.0421548
0.0419189
0.0417058
0.0415133
0.0413397
0.0411832
0.0410422
0.0409151
0.0408005
0.040697
0.0406036
0.0405191
0.0404425
0.0403729
0.0403094
0.0402515
0.0401983
0.0401493
0.0401041
0.0400621
0.0400228
0.0399861
0.0399515
0.0399187
0.0398875
0.0398576
0.0398289
0.0398012
0.0397744
0.0397482
0.0397226
0.0396975
0.0396727
0.0396482
0.0396239
0.0395997
0.0395756
0.0395515
0.0395274
0.0395032
0.0394788
0.0394542
0.0394294
0.0394043
0.0393787
0.0393527
0.0393262
0.0392989
0.0392709
0.0392418
0.0392114
0.0391794
0.0391454
0.0391087
0.0390684
0.0390234
0.038972
0.0389117
0.0388386
0.0387469
0.0386282
0.0384704
0.0382838
0.0113328
0.0220263
0.0270058
0.0302478
0.0327089
0.0347658
0.0366076
0.0383338
0.0399975
0.0416266
0.0432352
0.044829
0.0464092
0.0479743
0.0495216
0.0510477
0.0525498
0.0540254
0.0554731
0.0568925
0.0582839
0.059649
0.0609899
0.0623098
0.0636123
0.0649015
0.066182
0.0674583
0.0687353
0.0700176
0.0713096
0.0726154
0.0739384
0.0752816
0.0766468
0.0780351
0.0794492
0.08089
0.0823565
0.0838457
0.0853531
0.0868722
0.0883953
0.0899127
0.0914137
0.0928859
0.0943164
0.0956912
0.0969961
0.0982171
0.0993405
0.100353
0.101244
0.102002
0.10262
0.103091
0.103411
0.103578
0.103592
0.103455
0.10317
0.102743
0.102181
0.10149
0.100687
0.0997835
0.0987898
0.0977158
0.0965708
0.0953639
0.0941034
0.0927975
0.0914538
0.0900791
0.08868
0.0872621
0.0858306
0.0843902
0.0829451
0.081499
0.080055
0.0786163
0.0771854
0.0757649
0.0743569
0.0729638
0.0715874
0.07023
0.0688934
0.0675796
0.0662907
0.0650286
0.0637953
0.0625928
0.0614231
0.0602879
0.0591891
0.0581283
0.0571072
0.0561271
0.0551891
0.0542943
0.0534432
0.0526365
0.0518742
0.0511563
0.0504824
0.0498518
0.0492638
0.0487171
0.0482104
0.0477422
0.0473108
0.0469143
0.0465508
0.0462182
0.0459145
0.0456379
0.0453871
0.0451601
0.0449549
0.0447695
0.0446023
0.0444514
0.0443152
0.0441923
0.0440814
0.043981
0.0438902
0.0438078
0.0437328
0.0436645
0.043602
0.0435446
0.0434917
0.0434428
0.0433974
0.0433549
0.0433151
0.0432776
0.043242
0.0432081
0.0431757
0.0431445
0.0431144
0.0430852
0.0430567
0.0430288
0.0430014
0.0429745
0.0429478
0.0429213
0.0428949
0.0428687
0.0428424
0.0428161
0.0427898
0.0427632
0.0427365
0.0427094
0.0426821
0.0426544
0.0426261
0.0425973
0.0425679
0.0425375
0.0425062
0.0424735
0.0424392
0.0424029
0.0423639
0.0423215
0.0422744
0.0422212
0.0421595
0.042086
0.0419957
0.0418823
0.0417382
0.041575
0.011988
0.0230756
0.0283552
0.0318266
0.0344737
0.0366776
0.0386317
0.0404429
0.0421716
0.0438509
0.0454981
0.0471212
0.0487227
0.0503023
0.0518583
0.0533885
0.054891
0.0563642
0.0578074
0.0592203
0.0606038
0.0619592
0.0632889
0.0645956
0.0658828
0.0671545
0.0684151
0.0696693
0.0709221
0.0721785
0.0734434
0.0747217
0.0760177
0.0773352
0.0786773
0.0800461
0.081445
0.0828766
0.0843409
0.0858364
0.0873592
0.0889037
0.0904623
0.0920255
0.093582
0.095119
0.0966224
0.0980769
0.0994671
0.100777
0.101992
0.103096
0.104077
0.104924
0.105626
0.106177
0.106571
0.106805
0.10688
0.106798
0.106561
0.106175
0.105648
0.104994
0.104222
0.103345
0.102372
0.101315
0.100183
0.0989854
0.097732
0.096431
0.0950903
0.0937174
0.0923188
0.0909005
0.0894679
0.0880257
0.0865782
0.085129
0.0836815
0.0822387
0.080803
0.079377
0.0779627
0.0765624
0.075178
0.0738113
0.0724645
0.0711393
0.0698377
0.0685617
0.0673134
0.0660946
0.0649073
0.0637536
0.0626353
0.0615542
0.0605119
0.05951
0.0585498
0.0576324
0.0567586
0.0559292
0.0551444
0.0544043
0.0537086
0.0530568
0.0524482
0.0518818
0.0513562
0.05087
0.0504216
0.0500091
0.0496307
0.0492843
0.0489678
0.0486792
0.0484171
0.0481796
0.0479647
0.0477704
0.0475949
0.0474365
0.0472934
0.0471641
0.0470473
0.0469417
0.0468459
0.046759
0.04668
0.0466078
0.0465418
0.0464812
0.0464253
0.0463736
0.0463255
0.0462806
0.0462384
0.0461986
0.0461609
0.0461249
0.0460905
0.0460574
0.0460254
0.0459944
0.0459641
0.0459344
0.0459053
0.0458766
0.0458482
0.04582
0.045792
0.045764
0.0457361
0.0457081
0.04568
0.0456518
0.0456233
0.0455946
0.0455655
0.045536
0.0455061
0.0454755
0.0454443
0.0454122
0.045379
0.0453446
0.0453086
0.0452705
0.0452298
0.0451858
0.0451372
0.0450828
0.0450204
0.044947
0.0448586
0.0447501
0.0446173
0.044472
0.0124193
0.0236994
0.0291771
0.0328152
0.0356103
0.0379403
0.039996
0.041885
0.0436708
0.0453903
0.0470645
0.0487043
0.0503149
0.0518979
0.0534532
0.05498
0.0564773
0.0579441
0.05938
0.0607849
0.0621594
0.0635045
0.0648221
0.0661145
0.0673846
0.0686359
0.0698726
0.0710991
0.0723204
0.0735416
0.0747682
0.0760055
0.0772589
0.0785332
0.0798327
0.0811609
0.0825222
0.0839206
0.0853579
0.086834
0.0883463
0.0898902
0.0914587
0.0930429
0.0946312
0.0962105
0.0977657
0.0992808
0.100739
0.102122
0.103414
0.104599
0.105661
0.106588
0.107368
0.107995
0.108461
0.108764
0.108903
0.10888
0.108697
0.108364
0.107889
0.107284
0.106558
0.105722
0.104789
0.103767
0.102668
0.101502
0.100278
0.0990048
0.0976906
0.0963431
0.0949689
0.0935742
0.0921645
0.0907445
0.0893185
0.0878901
0.0864627
0.085039
0.0836216
0.0822127
0.0808145
0.0794289
0.0780578
0.0767029
0.0753662
0.0740494
0.0727544
0.0714832
0.0702377
0.06902
0.067832
0.0666757
0.0655531
0.0644662
0.0634166
0.0624061
0.0614361
0.060508
0.0596227
0.058781
0.0579834
0.0572302
0.0565212
0.0558562
0.0552344
0.0546551
0.0541169
0.0536186
0.0531585
0.052735
0.0523461
0.0519899
0.0516644
0.0513672
0.0510971
0.0508521
0.0506301
0.0504293
0.0502478
0.0500837
0.0499356
0.0498016
0.0496806
0.049571
0.0494716
0.0493814
0.0492993
0.0492244
0.0491558
0.0490928
0.0490347
0.0489809
0.0489308
0.048884
0.0488401
0.0487987
0.0487594
0.0487219
0.0486861
0.0486516
0.0486182
0.0485858
0.0485541
0.0485232
0.0484928
0.0484627
0.0484331
0.0484036
0.0483743
0.0483451
0.0483159
0.0482867
0.0482573
0.0482278
0.0481981
0.0481681
0.0481377
0.0481069
0.0480757
0.0480438
0.0480113
0.0479779
0.0479434
0.0479077
0.0478704
0.0478311
0.0477893
0.0477442
0.0476948
0.0476397
0.0475771
0.0475045
0.0474184
0.047315
0.0471919
0.0470612
0.012668
0.0239985
0.0295975
0.0333495
0.0362539
0.0386831
0.0408226
0.0427777
0.0446122
0.0463651
0.04806
0.0497108
0.0513252
0.0529071
0.0544581
0.0559788
0.0574691
0.0589284
0.0603566
0.0617535
0.0631193
0.0644545
0.0657604
0.0670385
0.068291
0.0695208
0.0707314
0.0719268
0.0731118
0.0742915
0.0754715
0.0766579
0.0778565
0.0790735
0.0803144
0.0815841
0.0828882
0.0842325
0.0856205
0.0870536
0.0885312
0.0900498
0.0916036
0.0931842
0.0947806
0.0963793
0.0979649
0.0995202
0.101027
0.102467
0.103821
0.105072
0.106204
0.107201
0.108054
0.108751
0.109286
0.109657
0.109861
0.1099
0.10978
0.10951
0.109097
0.108551
0.107883
0.107104
0.106224
0.105255
0.104206
0.103089
0.101913
0.100686
0.0994177
0.0981149
0.0967847
0.0954333
0.0940661
0.092688
0.091303
0.0899149
0.0885268
0.0871414
0.0857611
0.0843881
0.0830243
0.0816715
0.0803314
0.0790056
0.077696
0.0764042
0.075132
0.0738812
0.0726539
0.0714519
0.0702773
0.0691321
0.0680185
0.0669383
0.0658934
0.0648857
0.0639169
0.0629882
0.062101
0.0612562
0.0604545
0.0596963
0.0589817
0.0583104
0.0576821
0.0570959
0.0565508
0.0560455
0.0555787
0.0551485
0.0547532
0.054391
0.0540597
0.0537573
0.053482
0.053232
0.0530055
0.0528004
0.0526148
0.0524471
0.0522955
0.0521584
0.0520345
0.0519222
0.0518205
0.051728
0.0516439
0.0515671
0.0514968
0.0514321
0.0513726
0.0513174
0.051266
0.051218
0.051173
0.0511304
0.0510901
0.0510516
0.0510148
0.0509793
0.050945
0.0509117
0.0508792
0.0508473
0.050816
0.0507852
0.0507546
0.0507243
0.0506942
0.0506641
0.050634
0.0506039
0.0505737
0.0505433
0.0505127
0.0504818
0.0504506
0.050419
0.0503868
0.0503541
0.0503207
0.0502864
0.0502511
0.0502146
0.0501765
0.0501364
0.0500939
0.0500482
0.0499985
0.0499434
0.0498813
0.04981
0.0497267
0.0496284
0.0495143
0.049396
0.0127624
0.0240421
0.0297069
0.0335323
0.0365136
0.0390169
0.0412219
0.0432309
0.0451062
0.0468876
0.0486004
0.0502604
0.0518776
0.0534578
0.0550044
0.0565191
0.0580026
0.0594551
0.0608762
0.0622659
0.0636238
0.0649501
0.066245
0.0675095
0.0687449
0.0699532
0.0711372
0.0723003
0.0734468
0.0745816
0.0757103
0.0768392
0.0779749
0.0791244
0.0802945
0.0814916
0.0827229
0.0839954
0.0853147
0.086684
0.0881044
0.0895742
0.0910891
0.0926416
0.0942214
0.0958154
0.0974079
0.0989808
0.100515
0.101991
0.103389
0.104691
0.105878
0.106934
0.107847
0.108609
0.109208
0.109641
0.10991
0.110017
0.109967
0.109766
0.109423
0.108947
0.108348
0.107636
0.106824
0.10592
0.104937
0.103884
0.102771
0.101606
0.100399
0.0991571
0.0978869
0.0965947
0.095286
0.0939655
0.0926374
0.0913052
0.089972
0.0886404
0.0873125
0.0859905
0.0846761
0.0833708
0.0820764
0.0807942
0.0795258
0.0782728
0.0770369
0.0758198
0.0746235
0.0734498
0.0723008
0.0711785
0.0700851
0.0690225
0.0679929
0.0669981
0.0660398
0.0651198
0.0642394
0.0633996
0.0626015
0.0618456
0.0611321
0.060461
0.059832
0.0592446
0.0586977
0.0581903
0.0577211
0.0572883
0.0568905
0.0565256
0.0561917
0.0558869
0.0556091
0.0553567
0.0551278
0.0549205
0.0547328
0.0545631
0.0544097
0.0542709
0.0541454
0.0540317
0.0539287
0.053835
0.0537498
0.053672
0.0536007
0.0535353
0.0534749
0.053419
0.053367
0.0533183
0.0532726
0.0532295
0.0531886
0.0531496
0.0531122
0.0530763
0.0530415
0.0530076
0.0529746
0.0529423
0.0529106
0.0528792
0.0528482
0.0528174
0.0527868
0.0527562
0.0527257
0.0526951
0.0526644
0.0526335
0.0526024
0.0525711
0.0525393
0.0525072
0.0524746
0.0524414
0.0524075
0.0523728
0.052337
0.0523001
0.0522616
0.0522212
0.0521785
0.0521328
0.0520832
0.0520287
0.0519676
0.0518982
0.0518181
0.0517252
0.0516195
0.0515119
0.0127223
0.0238807
0.0295733
0.0334449
0.0364798
0.0390382
0.0412944
0.0433473
0.0452578
0.0470651
0.0487952
0.0504654
0.0520871
0.0536676
0.0552117
0.0567223
0.0582007
0.0596476
0.061063
0.0624465
0.0637976
0.0651159
0.0664011
0.0676531
0.0688726
0.0700607
0.0712192
0.0723509
0.0734593
0.0745489
0.0756251
0.0766943
0.0777633
0.0788398
0.0799318
0.0810471
0.0821942
0.0833818
0.0846168
0.0859045
0.0872478
0.0886468
0.090099
0.0915984
0.0931357
0.0946988
0.0962721
0.0978369
0.099373
0.10086
0.10228
0.103613
0.104838
0.105935
0.106894
0.107705
0.10836
0.108856
0.109192
0.10937
0.109393
0.109267
0.109001
0.108602
0.108081
0.107448
0.106713
0.105887
0.104981
0.104004
0.102966
0.101877
0.100744
0.0995752
0.0983776
0.0971572
0.0959194
0.0946691
0.0934102
0.0921462
0.0908801
0.0896143
0.088351
0.087092
0.0858388
0.084593
0.0833559
0.0821288
0.0809132
0.0797104
0.078522
0.0773497
0.0761952
0.0750604
0.0739473
0.0728579
0.0717945
0.070759
0.0697537
0.0687805
0.0678414
0.066938
0.066072
0.0652447
0.0644571
0.0637099
0.0630038
0.0623387
0.0617145
0.0611309
0.060587
0.0600819
0.0596144
0.0591829
0.0587859
0.0584216
0.0580881
0.0577835
0.0575058
0.0572534
0.0570243
0.0568166
0.0566287
0.0564586
0.0563048
0.0561657
0.0560399
0.0559259
0.0558226
0.0557287
0.0556433
0.0555653
0.0554939
0.0554283
0.0553678
0.0553117
0.0552596
0.0552109
0.0551651
0.0551219
0.0550809
0.0550418
0.0550043
0.0549682
0.0549333
0.0548994
0.0548663
0.0548339
0.054802
0.0547706
0.0547394
0.0547085
0.0546778
0.0546471
0.0546165
0.0545857
0.0545549
0.0545239
0.0544927
0.0544612
0.0544293
0.054397
0.0543643
0.054331
0.054297
0.0542622
0.0542264
0.0541894
0.054151
0.0541108
0.0540683
0.054023
0.053974
0.0539205
0.053861
0.0537939
0.0537175
0.0536301
0.0535324
0.0534346
0.012561
0.0235523
0.0292505
0.0331536
0.0362295
0.038832
0.0411312
0.0432228
0.0451658
0.0469989
0.0487482
0.0504315
0.0520611
0.0536456
0.0551908
0.0567002
0.0581761
0.0596196
0.0610308
0.0624095
0.063755
0.0650665
0.0663431
0.0675843
0.0687898
0.06996
0.0710957
0.072199
0.0732725
0.0743201
0.0753466
0.0763582
0.0773618
0.0783654
0.0793777
0.0804077
0.0814654
0.0825603
0.0837006
0.0848932
0.0861427
0.0874513
0.088818
0.0902386
0.0917056
0.0932084
0.0947341
0.0962619
0.0977689
0.099237
0.100647
0.101978
0.103212
0.104332
0.105324
0.106177
0.106884
0.107438
0.10784
0.108088
0.108186
0.10814
0.107955
0.10764
0.107204
0.106657
0.106008
0.105269
0.104448
0.103557
0.102605
0.101599
0.10055
0.0994641
0.0983484
0.097209
0.0960515
0.0948804
0.0936998
0.092513
0.091323
0.0901321
0.0889423
0.0877552
0.0865724
0.085395
0.0842243
0.0830615
0.0819076
0.0807641
0.0796322
0.0785136
0.0774097
0.0763226
0.075254
0.0742061
0.0731809
0.0721807
0.0712075
0.0702636
0.0693509
0.0684713
0.0676266
0.0668181
0.0660473
0.0653148
0.0646216
0.0639678
0.0633534
0.0627783
0.0622418
0.0617431
0.061281
0.0608543
0.0604614
0.0601007
0.0597703
0.0594685
0.0591933
0.0589429
0.0587156
0.0585095
0.0583229
0.0581541
0.0580014
0.0578632
0.0577383
0.0576251
0.0575225
0.0574293
0.0573445
0.0572671
0.0571962
0.0571312
0.0570711
0.0570156
0.0569639
0.0569155
0.0568702
0.0568273
0.0567867
0.0567479
0.0567107
0.056675
0.0566404
0.0566067
0.0565739
0.0565417
0.0565101
0.0564788
0.0564479
0.0564172
0.0563867
0.0563562
0.0563258
0.0562952
0.0562646
0.0562338
0.0562028
0.0561715
0.0561398
0.0561078
0.0560752
0.0560421
0.0560084
0.0559739
0.0559384
0.0559018
0.0558638
0.0558241
0.0557822
0.0557377
0.0556899
0.0556378
0.0555803
0.0555161
0.0554436
0.0553618
0.0552718
0.055183
0.0122824
0.0230847
0.0287814
0.032714
0.0358291
0.0384738
0.0408146
0.0429446
0.0449216
0.0467833
0.0485556
0.0502565
0.0518989
0.0534922
0.0550428
0.0565553
0.058032
0.0594745
0.0608835
0.062259
0.0636004
0.0649066
0.0661766
0.0674092
0.0686036
0.0697595
0.0708769
0.071957
0.0730017
0.0740139
0.0749979
0.075959
0.0769041
0.077841
0.0787787
0.079727
0.0806969
0.0816979
0.0827391
0.0838284
0.0849718
0.0861732
0.0874332
0.0887493
0.0901157
0.0915229
0.0929581
0.0944051
0.0958453
0.0972599
0.0986295
0.0999347
0.101157
0.10228
0.103288
0.10417
0.104918
0.105524
0.105986
0.106302
0.106475
0.106508
0.106407
0.10618
0.105833
0.105377
0.10482
0.104173
0.103445
0.102646
0.101784
0.10087
0.0999099
0.0989127
0.0978849
0.0968325
0.095761
0.0946749
0.0935784
0.0924747
0.0913666
0.0902565
0.0891462
0.0880372
0.0869309
0.0858284
0.0847306
0.0836386
0.0825532
0.0814758
0.0804073
0.0793493
0.0783032
0.0772707
0.0762537
0.0752541
0.0742741
0.0733159
0.0723816
0.0714734
0.0705935
0.0697439
0.0689264
0.0681426
0.067394
0.0666816
0.0660062
0.0653684
0.0647684
0.064206
0.0636809
0.0631922
0.0627392
0.0623205
0.0619347
0.0615804
0.0612558
0.0609592
0.0606886
0.0604424
0.0602187
0.0600159
0.0598322
0.059666
0.0595157
0.0593798
0.0592568
0.0591455
0.0590445
0.0589529
0.0588695
0.0587934
0.0587238
0.0586599
0.058601
0.0585464
0.0584956
0.0584482
0.0584037
0.0583616
0.0583218
0.0582837
0.0582473
0.0582122
0.0581782
0.0581451
0.0581129
0.0580813
0.0580502
0.0580196
0.0579892
0.057959
0.057929
0.0578991
0.0578691
0.0578391
0.057809
0.0577787
0.0577481
0.0577173
0.0576862
0.0576547
0.0576227
0.0575902
0.057557
0.0575231
0.0574882
0.0574523
0.0574151
0.0573763
0.0573355
0.0572922
0.0572458
0.0571956
0.0571405
0.0570794
0.0570112
0.0569351
0.0568526
0.056772
0.0119185
0.0224856
0.0281983
0.0321735
0.0353369
0.0380304
0.0404181
0.0425915
0.0446073
0.0465027
0.0483033
0.0500274
0.0516882
0.0532954
0.0548561
0.0563753
0.0578564
0.0593014
0.0607115
0.0620868
0.063427
0.064731
0.0659976
0.0672255
0.0684136
0.0695608
0.0706667
0.0717315
0.0727564
0.0737434
0.0746958
0.0756183
0.0765168
0.0773988
0.078273
0.0791497
0.0800388
0.0809496
0.0818911
0.0828717
0.0838982
0.0849756
0.0861063
0.0872902
0.0885237
0.0898003
0.0911102
0.0924407
0.0937768
0.0951018
0.0963979
0.0976469
0.0988309
0.0999331
0.100938
0.101834
0.102609
0.103256
0.10377
0.104149
0.104392
0.104503
0.104485
0.104345
0.104088
0.103724
0.103261
0.102708
0.102075
0.101369
0.100602
0.0997799
0.0989124
0.0980064
0.0970688
0.0961057
0.0951225
0.0941239
0.0931139
0.0920958
0.0910724
0.0900459
0.0890182
0.0879907
0.0869645
0.0859405
0.0849196
0.0839027
0.0828904
0.0818837
0.0808835
0.0798912
0.078908
0.0779356
0.0769756
0.0760299
0.0751006
0.0741899
0.0733
0.0724331
0.0715914
0.0707771
0.0699919
0.0692378
0.0685162
0.0678285
0.0671755
0.066558
0.0659764
0.0654306
0.0649205
0.0644454
0.0640045
0.0635968
0.063221
0.0628757
0.0625593
0.06227
0.0620061
0.0617659
0.0615476
0.0613497
0.0611705
0.0610083
0.0608616
0.060729
0.060609
0.0605005
0.0604022
0.0603129
0.0602317
0.0601576
0.0600899
0.0600277
0.0599704
0.0599174
0.0598681
0.059822
0.0597787
0.0597379
0.0596992
0.0596622
0.0596268
0.0595927
0.0595597
0.0595276
0.0594963
0.0594656
0.0594354
0.0594056
0.059376