/*--------------------------------*- C++ -*----------------------------------*\
  =========                 |
  \\      /  F ield         | OpenFOAM: The Open Source CFD Toolbox
   \\    /   O peration     | Website:  https://openfoam.org
    \\  /    A nd           | Version:  6
     \\/     M anipulation  |
\*---------------------------------------------------------------------------*/
FoamFile
{
    version     2.0;
    format      ascii;
    class       volScalarField;
    location    "0.11";
    object      nut;
}
// * * * * * * * * * * * * * * * * * * * * * * * * * * * * * * * * * * * * * //

dimensions      [0 2 -1 0 0 0 0];

internalField   nonuniform List<scalar> 
12225
(
1.77723e-05
1.42681e-05
1.23504e-05
1.11621e-05
1.03595e-05
9.78841e-06
9.36177e-06
9.02723e-06
8.75384e-06
8.52339e-06
8.32477e-06
8.15082e-06
7.99672e-06
7.85904e-06
7.73527e-06
7.62372e-06
7.52353e-06
7.44216e-06
0.000144881
0.000101909
8.78874e-05
8.05233e-05
7.60639e-05
7.308e-05
7.07741e-05
6.87647e-05
6.69254e-05
6.52287e-05
6.36667e-05
6.22313e-05
6.0914e-05
5.97065e-05
5.86054e-05
5.76027e-05
5.67482e-05
5.6019e-05
0.000323318
0.000223562
0.00018978
0.000172534
0.000162
0.000154899
0.000149633
0.00014536
0.000141679
0.000138407
0.000135452
0.000132761
0.000130301
0.000128046
0.000125985
0.00012411
0.000122484
0.000121143
0.000493962
0.000355224
0.000299412
0.000269601
0.000251053
0.000238442
0.000229214
0.000221996
0.000216046
0.000210959
0.0002065
0.000202529
0.000198954
0.000195714
0.000192771
0.000190107
0.000187761
0.000185817
0.000624467
0.000478667
0.000407336
0.000366172
0.00033958
0.000321102
0.000307492
0.000296936
0.000288393
0.000281244
0.000275108
0.000269741
0.000264982
0.00026072
0.000256884
0.000253431
0.000250375
0.000247795
0.000713108
0.00058335
0.000506504
0.000457879
0.000424846
0.000401164
0.000383405
0.000369544
0.000358352
0.000349056
0.000341156
0.000334319
0.000328316
0.00032299
0.00031823
0.000313968
0.000310193
0.000306967
0.00076932
0.000665579
0.000592291
0.00054113
0.000504277
0.000476828
0.000455721
0.000439002
0.000425402
0.000414085
0.000404483
0.000396203
0.000388968
0.000382578
0.000376894
0.000371823
0.000367331
0.000363461
0.000803468
0.000726307
0.000662538
0.000613398
0.000575679
0.000546342
0.000523093
0.000504293
0.000488795
0.000475793
0.000464712
0.00045514
0.000446774
0.000439395
0.000432839
0.000426999
0.000421823
0.000417335
0.000823636
0.00076893
0.000717219
0.000673408
0.000637497
0.000608229
0.000584232
0.000564343
0.000547653
0.000533472
0.000521281
0.000510687
0.000501394
0.000493177
0.000485867
0.000479349
0.000473564
0.000468516
0.000835325
0.000797598
0.000757842
0.000721101
0.000688968
0.000661476
0.000638096
0.000618174
0.0006011
0.000586359
0.000573533
0.000562285
0.000552351
0.000543523
0.000535639
0.00052859
0.000522313
0.0005168
0.000842017
0.000816202
0.000786751
0.000757414
0.000730141
0.000705654
0.000684027
0.000665042
0.000648387
0.00063374
0.000620806
0.000609332
0.000599104
0.000589947
0.000581723
0.000574333
0.000567723
0.000561876
0.000845508
0.000826943
0.000804869
0.000781695
0.000759087
0.000737943
0.000718629
0.000701202
0.000685566
0.000671561
0.000659006
0.000647729
0.000637573
0.000628403
0.00062011
0.000612615
0.000605875
0.000599879
0.00084762
0.000833947
0.00081749
0.000799561
0.000781345
0.000763659
0.00074697
0.000731491
0.000717276
0.000704294
0.000692465
0.000681693
0.000671879
0.000662931
0.000654773
0.000647347
0.000640627
0.0006346
0.000848982
0.000838781
0.000826781
0.000813489
0.00079956
0.000785567
0.000771927
0.000758899
0.000746623
0.000735157
0.000724506
0.000714642
0.000705525
0.000697109
0.000689353
0.000682227
0.000675721
0.000669821
0.000849784
0.000841795
0.000832941
0.000823275
0.000813036
0.000802514
0.000791979
0.000781638
0.000771639
0.000762075
0.000752996
0.000744425
0.000736367
0.000728815
0.000721761
0.000715204
0.000709146
0.000703573
0.00085021
0.000843472
0.00083656
0.000829354
0.000821854
0.000814138
0.000806312
0.000798487
0.000790759
0.000783205
0.000775881
0.000768827
0.000762071
0.000755631
0.000749523
0.000743763
0.000738362
0.000733302
0.00085041
0.000844285
0.000838394
0.000832589
0.000826782
0.000820936
0.00081505
0.000809146
0.000803256
0.000797418
0.000791666
0.00078603
0.000780539
0.000775216
0.000770085
0.000765172
0.000760492
0.000756021
0.000850482
0.000844584
0.000839092
0.00083387
0.000828811
0.000823842
0.00081892
0.00081402
0.000809138
0.00080428
0.000799459
0.000794691
0.000789996
0.000785395
0.000780912
0.000776571
0.000772387
0.000768327
0.000850461
0.000844498
0.000838894
0.00083351
0.000828247
0.000823044
0.000817866
0.000812703
0.000807558
0.000802445
0.000797379
0.000792382
0.000787473
0.000782673
0.000778005
0.000773493
0.000769149
0.000764941
0.000850264
0.000843695
0.000837074
0.000830276
0.000823277
0.000816117
0.000808867
0.000801608
0.000794413
0.000787346
0.000780454
0.000773773
0.000767331
0.000761145
0.000755233
0.000749609
0.000744282
0.000739215
0.000849708
0.000841533
0.000832448
0.000822551
0.000812105
0.000801406
0.000790717
0.00078024
0.000770113
0.000760424
0.000751219
0.000742516
0.000734316
0.000726611
0.000719389
0.00071264
0.000706353
0.000700482
0.000848164
0.000835946
0.000821415
0.000805517
0.00078918
0.000773093
0.000757692
0.000743211
0.000729744
0.000717302
0.000705845
0.000695311
0.000685625
0.000676718
0.000668524
0.000660992
0.000654081
0.000647731
0.000844086
0.000822743
0.000797929
0.000772489
0.000748146
0.000725715
0.000705458
0.00068734
0.000671192
0.000656799
0.000643941
0.000632417
0.000622049
0.000612686
0.000604205
0.00059651
0.000589532
0.000583199
0.000833788
0.000794237
0.000753356
0.000716004
0.000683531
0.000655834
0.000632321
0.000612306
0.000595159
0.000580353
0.00056746
0.00055614
0.000546121
0.000537192
0.000529187
0.000521984
0.0005155
0.000509662
0.000809073
0.000738676
0.0006785
0.000630849
0.00059349
0.000563961
0.00054029
0.000520993
0.000504993
0.000491512
0.000479984
0.000469996
0.00046124
0.000453486
0.000446563
0.00044035
0.000434767
0.000429759
0.000753681
0.000642666
0.000568202
0.000517544
0.000481501
0.000454862
0.000434506
0.00041846
0.000405453
0.000394649
0.000385484
0.000377568
0.00037063
0.000364473
0.000358958
0.000353985
0.000349497
0.000345467
0.000641463
0.000499134
0.000426753
0.000383924
0.000355765
0.000336027
0.000321474
0.000310233
0.000301189
0.000293662
0.000287227
0.000281607
0.000276619
0.000272137
0.000268073
0.000264366
0.000260986
0.000257932
0.00044855
0.000320175
0.000270261
0.000243431
0.000226661
0.000215357
0.000207199
0.000200883
0.000195691
0.000191235
0.000187299
0.000183758
0.000180533
0.000177571
0.000174838
0.000172309
0.000169973
0.000167842
0.000203095
0.000143546
0.000122963
0.000111688
0.000104783
0.000100326
9.71286e-05
9.45281e-05
9.22293e-05
9.01234e-05
8.81713e-05
8.63559e-05
8.46666e-05
8.30952e-05
8.16335e-05
8.02734e-05
7.9009e-05
7.78409e-05
2.40294e-05
1.96338e-05
1.71027e-05
1.54663e-05
1.43234e-05
1.34902e-05
1.28616e-05
1.23698e-05
1.19717e-05
1.16396e-05
1.13559e-05
1.11091e-05
1.08913e-05
1.0697e-05
1.05222e-05
1.03638e-05
1.02196e-05
1.00882e-05
2.567e-06
7.19816e-06
7.85007e-06
8.58754e-06
9.31552e-06
9.99443e-06
1.05467e-05
1.10467e-05
1.15164e-05
1.19683e-05
1.24093e-05
1.28421e-05
1.3267e-05
1.36833e-05
1.40895e-05
1.44847e-05
1.48678e-05
1.52383e-05
1.55959e-05
1.59406e-05
1.62724e-05
1.65918e-05
1.68992e-05
1.71951e-05
1.748e-05
1.77546e-05
1.80193e-05
1.82749e-05
1.85219e-05
1.87608e-05
1.89925e-05
1.92175e-05
1.94369e-05
1.96518e-05
1.98639e-05
2.00752e-05
2.02943e-05
2.05041e-05
2.07051e-05
2.08973e-05
2.10807e-05
2.12549e-05
2.14193e-05
2.15733e-05
2.17163e-05
2.18475e-05
2.19663e-05
2.20719e-05
2.21635e-05
2.22406e-05
2.23026e-05
2.23489e-05
2.2379e-05
2.23927e-05
2.23896e-05
2.23697e-05
2.23329e-05
2.22795e-05
2.22095e-05
2.21234e-05
2.20215e-05
2.19044e-05
2.17724e-05
2.16255e-05
2.14633e-05
2.12844e-05
2.10907e-05
2.09007e-05
2.07603e-05
2.06368e-05
2.05118e-05
2.03819e-05
2.02465e-05
2.01058e-05
1.99602e-05
1.981e-05
1.96556e-05
1.94974e-05
1.93358e-05
1.9171e-05
1.90034e-05
1.88331e-05
1.86606e-05
1.8486e-05
1.83095e-05
1.81315e-05
1.79521e-05
1.77717e-05
1.75905e-05
1.74088e-05
1.7227e-05
1.70453e-05
1.68643e-05
1.66842e-05
1.65055e-05
1.63287e-05
1.61543e-05
1.59827e-05
1.58143e-05
1.56498e-05
1.54894e-05
1.53337e-05
1.51831e-05
1.50379e-05
1.48985e-05
1.4765e-05
1.46377e-05
1.45167e-05
1.4402e-05
1.42938e-05
1.41919e-05
1.4096e-05
1.40055e-05
1.39196e-05
1.38409e-05
1.37683e-05
1.37012e-05
1.3639e-05
1.35813e-05
1.35277e-05
1.34778e-05
1.34313e-05
1.33877e-05
1.33469e-05
1.33085e-05
1.32722e-05
1.32378e-05
1.32051e-05
1.31739e-05
1.31441e-05
1.31154e-05
1.30877e-05
1.30609e-05
1.30349e-05
1.30095e-05
1.29847e-05
1.29604e-05
1.29365e-05
1.29129e-05
1.28896e-05
1.28666e-05
1.28437e-05
1.2821e-05
1.27984e-05
1.27758e-05
1.27534e-05
1.27309e-05
1.27084e-05
1.26859e-05
1.26633e-05
1.26407e-05
1.2618e-05
1.25952e-05
1.25723e-05
1.25493e-05
1.25261e-05
1.25028e-05
1.24793e-05
1.24557e-05
1.24318e-05
1.24077e-05
1.23835e-05
1.23589e-05
1.23341e-05
1.23089e-05
1.22834e-05
1.22575e-05
1.2231e-05
1.2204e-05
1.21761e-05
1.21474e-05
1.21173e-05
1.20856e-05
1.20516e-05
1.20142e-05
1.19717e-05
1.19209e-05
1.18552e-05
1.17626e-05
1.16189e-05
3.89052e-06
2.7564e-05
4.22997e-05
4.91167e-05
5.2851e-05
5.55741e-05
5.79136e-05
6.00482e-05
6.20827e-05
6.4112e-05
6.62165e-05
6.84546e-05
7.0862e-05
7.34554e-05
7.62367e-05
7.91978e-05
8.23239e-05
8.55962e-05
8.8994e-05
9.24965e-05
9.60835e-05
9.9737e-05
0.000103441
0.000107182
0.000110948
0.000114729
0.000118518
0.000122305
0.000126082
0.000129838
0.000133557
0.000137222
0.000140807
0.000144278
0.000147594
0.00015071
0.000153644
0.000156552
0.000159458
0.000162364
0.000165262
0.000168143
0.000170997
0.000173812
0.000176575
0.000179271
0.000181886
0.000184406
0.000186815
0.000189099
0.000191244
0.000193236
0.000195064
0.000196717
0.000198186
0.000199464
0.000200545
0.000201426
0.000202103
0.000202576
0.000202842
0.000202901
0.000202746
0.000202366
0.000201738
0.000200827
0.000199596
0.00019806
0.000196331
0.000194472
0.000192509
0.000190457
0.000188327
0.000186131
0.000183877
0.000181574
0.000179228
0.000176846
0.000174435
0.000171999
0.000169544
0.000167074
0.000164594
0.000162108
0.000159619
0.000157132
0.000154649
0.000152176
0.000149716
0.000147273
0.000144851
0.000142456
0.000140091
0.000137761
0.000135472
0.000133228
0.000131034
0.000128896
0.000126817
0.000124803
0.000122859
0.000120987
0.000119191
0.000117475
0.00011584
0.000114289
0.000112822
0.000111439
0.00011014
0.000108925
0.000107791
0.000106734
0.000105746
0.000104799
0.000103888
0.000103053
0.000102295
0.000101609
0.000100987
0.000100424
9.99119e-05
9.94468e-05
9.90232e-05
9.86367e-05
9.82832e-05
9.79589e-05
9.76605e-05
9.73848e-05
9.7129e-05
9.68907e-05
9.66675e-05
9.64574e-05
9.62586e-05
9.60695e-05
9.58886e-05
9.57146e-05
9.55465e-05
9.53832e-05
9.52239e-05
9.50677e-05
9.49141e-05
9.47624e-05
9.46122e-05
9.44629e-05
9.43143e-05
9.41659e-05
9.40174e-05
9.38687e-05
9.37194e-05
9.35695e-05
9.34186e-05
9.32667e-05
9.31135e-05
9.2959e-05
9.28031e-05
9.26455e-05
9.24862e-05
9.2325e-05
9.21617e-05
9.19961e-05
9.18281e-05
9.16573e-05
9.14833e-05
9.13057e-05
9.11238e-05
9.09368e-05
9.07437e-05
9.05428e-05
9.03322e-05
9.01089e-05
8.98687e-05
8.96055e-05
8.93094e-05
8.89651e-05
8.85453e-05
8.80014e-05
8.72279e-05
8.60426e-05
8.38828e-05
8.06189e-05
4.90883e-06
3.90412e-05
6.4511e-05
7.92968e-05
8.82422e-05
9.44616e-05
9.9568e-05
0.000104306
0.00010902
0.000113888
0.00011901
0.000124437
0.000130188
0.000136251
0.000142597
0.000149183
0.000155961
0.000162879
0.000169887
0.000176942
0.000184006
0.000191048
0.000198044
0.000204978
0.000211836
0.000218612
0.0002253
0.000231896
0.000238397
0.000244799
0.000251095
0.000257279
0.000263338
0.000269264
0.000275043
0.00028067
0.000286217
0.000291748
0.000297281
0.000302812
0.000308332
0.000313825
0.000319273
0.000324653
0.000329943
0.000335115
0.000340144
0.000345002
0.000349659
0.000354089
0.000358264
0.000362159
0.000365749
0.000369013
0.000371933
0.000374494
0.000376682
0.000378488
0.000379906
0.00038093
0.000381559
0.00038179
0.00038162
0.000381043
0.000380054
0.000378643
0.000376812
0.000374594
0.000372057
0.000369259
0.000366236
0.000363016
0.000359621
0.000356069
0.000352378
0.000348561
0.000344634
0.000340609
0.000336496
0.000332308
0.000328052
0.000323739
0.000319376
0.000314971
0.000310533
0.000306068
0.000301586
0.000297092
0.000292596
0.000288106
0.000283631
0.00027918
0.000274763
0.000270389
0.00026607
0.000261816
0.000257637
0.000253545
0.00024955
0.000245662
0.000241891
0.000238247
0.000234737
0.000231369
0.00022815
0.000225084
0.000222174
0.000219423
0.000216832
0.000214399
0.000212123
0.000209999
0.000208017
0.000206164
0.000204425
0.000202788
0.000201284
0.00019991
0.000198658
0.000197518
0.00019648
0.000195536
0.000194677
0.000193895
0.000193181
0.000192529
0.000191931
0.000191382
0.000190877
0.000190409
0.000189974
0.000189568
0.000189187
0.000188829
0.000188489
0.000188165
0.000187854
0.000187556
0.000187266
0.000186985
0.000186711
0.000186441
0.000186176
0.000185914
0.000185654
0.000185396
0.000185138
0.000184881
0.000184624
0.000184366
0.000184107
0.000183846
0.000183583
0.000183319
0.000183052
0.000182783
0.00018251
0.000182234
0.000181955
0.000181672
0.000181384
0.000181091
0.000180792
0.000180487
0.000180174
0.000179851
0.000179518
0.00017917
0.000178804
0.000178415
0.000177996
0.000177535
0.000177017
0.000176416
0.000175689
0.000174762
0.000173488
0.0001716
0.00016845
0.00016353
5.54314e-06
4.62409e-05
8.06029e-05
0.000102804
0.00011743
0.000127934
0.000136453
0.000144184
0.000151754
0.000159472
0.000167477
0.000175817
0.000184484
0.00019344
0.000202629
0.000211984
0.000221441
0.000230934
0.000240409
0.000249817
0.000259121
0.000268292
0.000277309
0.000286162
0.000294844
0.000303354
0.000311694
0.000319872
0.000327892
0.000335761
0.000343488
0.000351078
0.000358537
0.00036587
0.000373081
0.000380172
0.000387214
0.000394244
0.000401277
0.000408313
0.000415341
0.000422347
0.000429311
0.000436207
0.000443009
0.000449687
0.000456206
0.000462534
0.000468635
0.000474473
0.000480012
0.00048522
0.000490064
0.000494515
0.000498547
0.000502137
0.000505265
0.000507918
0.000510083
0.000511753
0.000512924
0.000513593
0.00051376
0.000513428
0.000512601
0.000511285
0.00050949
0.000507254
0.000504627
0.000501651
0.000498363
0.000494792
0.000490963
0.000486899
0.000482622
0.000478149
0.000473499
0.000468688
0.000463729
0.000458638
0.000453426
0.000448106
0.000442689
0.000437186
0.000431606
0.000425962
0.000420263
0.00041452
0.000408745
0.00040295
0.000397146
0.000391347
0.000385567
0.00037982
0.00037412
0.000368483
0.000362925
0.00035746
0.000352105
0.000346875
0.000341784
0.000336846
0.000332074
0.00032748
0.000323073
0.000318862
0.000314854
0.000311054
0.000307463
0.000304083
0.000300913
0.000297948
0.000295181
0.000292602
0.000290199
0.000287957
0.000285871
0.000283959
0.000282209
0.000280611
0.000279153
0.000277825
0.000276614
0.00027551
0.000274504
0.000273585
0.000272744
0.000271973
0.000271264
0.00027061
0.000270005
0.000269443
0.000268917
0.000268425
0.00026796
0.00026752
0.0002671
0.000266698
0.000266312
0.000265938
0.000265574
0.000265219
0.000264871
0.000264529
0.00026419
0.000263855
0.000263522
0.00026319
0.000262859
0.000262528
0.000262196
0.000261862
0.000261527
0.000261189
0.000260848
0.000260505
0.000260158
0.000259807
0.000259451
0.00025909
0.000258724
0.000258351
0.000257971
0.000257583
0.000257185
0.000256774
0.00025635
0.000255907
0.000255442
0.000254947
0.000254415
0.000253831
0.000253176
0.000252421
0.000251518
0.000250385
0.000248876
0.00024673
0.000243432
0.000238656
5.92763e-06
5.09235e-05
9.22695e-05
0.000121053
0.00014127
0.000156345
0.000168599
0.000179483
0.000189843
0.00020013
0.000210561
0.000221214
0.00023209
0.000243148
0.000254327
0.000265559
0.000276776
0.000287916
0.000298924
0.000309758
0.000320382
0.000330773
0.000340917
0.000350806
0.00036044
0.000369824
0.000378968
0.000387886
0.000396593
0.000405105
0.000413439
0.000421612
0.000429641
0.000437538
0.000445316
0.000452982
0.000460602
0.000468214
0.000475838
0.00048348
0.000491135
0.000498795
0.000506442
0.000514055
0.000521609
0.000529071
0.00053641
0.000543587
0.000550565
0.000557303
0.000563761
0.000569899
0.000575678
0.000581062
0.000586018
0.000590516
0.000594529
0.000598037
0.000601023
0.000603472
0.000605378
0.000606736
0.000607545
0.000607809
0.000607533
0.000606717
0.000605384
0.000603572
0.000601319
0.000598658
0.000595621
0.000592236
0.000588529
0.000584523
0.000580241
0.000575703
0.000570928
0.000565935
0.000560739
0.000555357
0.000549803
0.000544091
0.000538234
0.000532245
0.000526137
0.000519921
0.000513612
0.000507221
0.000500763
0.000494251
0.000487701
0.000481129
0.000474551
0.000467984
0.000461446
0.000454957
0.000448534
0.000442197
0.000435966
0.000429859
0.000423895
0.000418092
0.000412465
0.000407031
0.000401803
0.000396792
0.000392009
0.00038746
0.00038315
0.000379083
0.000375258
0.000371672
0.000368322
0.000365197
0.000362289
0.000359584
0.000357068
0.000354749
0.000352621
0.000350673
0.000348893
0.000347268
0.000345785
0.000344431
0.000343197
0.000342069
0.000341038
0.000340093
0.000339225
0.000338426
0.000337688
0.000337004
0.000336367
0.000335771
0.000335211
0.000334682
0.00033418
0.000333701
0.000333241
0.000332799
0.00033237
0.000331953
0.000331546
0.000331146
0.000330753
0.000330364
0.000329979
0.000329596
0.000329214
0.000328832
0.000328451
0.000328068
0.000327684
0.000327297
0.000326908
0.000326515
0.000326119
0.000325718
0.000325313
0.000324901
0.000324484
0.000324059
0.000323626
0.000323184
0.00032273
0.000322263
0.000321779
0.000321275
0.000320746
0.000320185
0.000319581
0.00031892
0.000318182
0.000317336
0.000316333
0.000315095
0.000313485
0.000311282
0.000308117
0.000303875
6.1846e-06
5.38059e-05
0.000100513
0.000134915
0.000160266
0.000179774
0.000195751
0.000209746
0.000222735
0.000235293
0.000247723
0.000260164
0.000272654
0.000285176
0.000297683
0.000310118
0.000322422
0.000334539
0.000346422
0.000358032
0.000369339
0.000380324
0.000390974
0.000401287
0.000411267
0.000420923
0.000430271
0.000439328
0.000448117
0.000456662
0.000464988
0.000473119
0.000481081
0.000488894
0.000496579
0.00050415
0.000511671
0.000519191
0.000526739
0.000534334
0.00054198
0.000549678
0.000557419
0.000565188
0.000572964
0.000580719
0.000588422
0.000596037
0.000603523
0.000610837
0.000617935
0.000624772
0.000631302
0.000637482
0.000643271
0.000648631
0.000653529
0.000657934
0.000661823
0.000665175
0.000667976
0.000670217
0.000671892
0.000673003
0.000673531
0.000673496
0.000672926
0.00067185
0.000670297
0.000668293
0.000665867
0.000663042
0.000659843
0.000656294
0.000652415
0.000648229
0.000643754
0.00063901
0.000634012
0.00062878
0.000623326
0.000617668
0.000611819
0.000605793
0.000599604
0.000593266
0.000586794
0.000580202
0.000573505
0.00056672
0.000559863
0.000552951
0.000546004
0.00053904
0.000532081
0.000525146
0.000518258
0.000511438
0.000504709
0.000498092
0.000491608
0.000485279
0.000479124
0.00047316
0.000467406
0.000461874
0.000456578
0.000451527
0.000446729
0.000442189
0.000437909
0.000433887
0.000430122
0.000426606
0.00042333
0.000420285
0.000417457
0.000414838
0.000412431
0.000410223
0.000408201
0.000406352
0.000404663
0.00040312
0.000401711
0.000400424
0.000399247
0.000398169
0.000397179
0.000396269
0.000395429
0.000394651
0.000393928
0.000393254
0.000392621
0.000392026
0.000391462
0.000390925
0.000390412
0.00038992
0.000389444
0.000388982
0.000388532
0.000388092
0.000387659
0.000387233
0.000386811
0.000386393
0.000385976
0.000385561
0.000385146
0.00038473
0.000384313
0.000383894
0.000383473
0.000383048
0.000382619
0.000382185
0.000381747
0.000381303
0.000380852
0.000380393
0.000379926
0.000379449
0.000378959
0.000378455
0.000377934
0.000377392
0.000376823
0.000376219
0.000375571
0.000374864
0.000374078
0.000373181
0.000372128
0.000370845
0.000369214
0.000367054
0.000364116
0.000360426
6.35499e-06
5.54328e-05
0.000106093
0.000145106
0.000174932
0.000198467
0.000217913
0.00023482
0.000250223
0.00026478
0.000278875
0.000292715
0.000306388
0.000319916
0.00033328
0.000346443
0.000359361
0.000371988
0.000384286
0.000396219
0.000407764
0.000418903
0.000429627
0.000439935
0.000449832
0.000459332
0.000468451
0.000477213
0.000485644
0.000493773
0.000501633
0.000509254
0.00051667
0.000523912
0.00053101
0.000537988
0.000544911
0.000551843
0.000558826
0.000565894
0.000573066
0.000580354
0.000587762
0.000595283
0.000602905
0.000610606
0.000618358
0.000626128
0.000633874
0.000641551
0.000649111
0.000656502
0.000663674
0.000670574
0.000677152
0.000683363
0.000689161
0.00069451
0.000699375
0.000703727
0.000707546
0.000710811
0.000713514
0.000715616
0.000717138
0.000718095
0.000718508
0.000718397
0.000717782
0.000716686
0.00071513
0.000713137
0.000710728
0.000707925
0.000704748
0.000701218
0.000697353
0.000693172
0.000688693
0.000683932
0.000678906
0.00067363
0.000668119
0.000662389
0.000656453
0.000650327
0.000644026
0.000637567
0.000630964
0.000624237
0.000617402
0.000610478
0.000603486
0.000596446
0.00058938
0.000582312
0.000575264
0.000568259
0.000561323
0.000554479
0.00054775
0.00054116
0.00053473
0.000528482
0.000522434
0.000516603
0.000511004
0.00050565
0.000500549
0.00049571
0.000491137
0.00048683
0.000482788
0.000479008
0.000475481
0.000472199
0.000469151
0.000466324
0.000463719
0.000461325
0.000459129
0.000457117
0.000455278
0.000453596
0.000452058
0.000450653
0.000449367
0.000448189
0.000447108
0.000446115
0.000445199
0.000444351
0.000443565
0.000442832
0.000442146
0.000441501
0.000440892
0.000440313
0.000439761
0.000439232
0.000438723
0.000438229
0.000437749
0.000437281
0.000436821
0.000436369
0.000435923
0.00043548
0.000435041
0.000434603
0.000434166
0.000433729
0.000433291
0.000432851
0.000432408
0.000431963
0.000431513
0.000431059
0.0004306
0.000430135
0.000429663
0.000429183
0.000428695
0.000428196
0.000427684
0.000427158
0.000426614
0.000426049
0.000425455
0.000424827
0.000424155
0.000423423
0.000422611
0.000421692
0.000420621
0.000419332
0.000417727
0.000415662
0.000412977
0.000409771
6.46206e-06
5.61665e-05
0.000109576
0.000152215
0.000185778
0.000212808
0.000235339
0.000254866
0.000272435
0.000288748
0.00030425
0.000319209
0.000333768
0.00034799
0.00036189
0.000375457
0.000388664
0.00040148
0.000413874
0.000425819
0.000437293
0.000448282
0.000458779
0.000468783
0.000478299
0.000487342
0.00049593
0.000504088
0.000511845
0.000519235
0.000526294
0.000533063
0.000539582
0.000545893
0.000552035
0.000558048
0.000564001
0.000569972
0.000576023
0.000582203
0.00058855
0.000595092
0.000601846
0.000608819
0.000616008
0.000623401
0.000630975
0.000638698
0.00064653
0.000654424
0.000662326
0.000670179
0.000677924
0.000685499
0.000692845
0.000699906
0.000706624
0.000712954
0.000718851
0.000724272
0.000729201
0.000733566
0.000737364
0.000740592
0.000743254
0.000745357
0.000746911
0.000747929
0.000748426
0.000748418
0.000747923
0.000746959
0.000745545
0.0007437
0.000741443
0.000738792
0.000735766
0.000732381
0.000728656
0.000724607
0.00072025
0.000715601
0.000710675
0.000705487
0.000700054
0.00069439
0.000688511
0.000682435
0.000676178
0.000669758
0.000663194
0.000656506
0.000649715
0.000642843
0.000635912
0.000628947
0.000621973
0.000615013
0.000608095
0.000601242
0.000594482
0.000587837
0.000581333
0.000574992
0.000568835
0.00056288
0.000557146
0.000551647
0.000546394
0.000541397
0.000536662
0.000532193
0.000527989
0.000524049
0.000520367
0.000516937
0.000513747
0.000510786
0.000508051
0.000505533
0.00050322
0.000501098
0.000499154
0.000497375
0.000495748
0.000494259
0.000492896
0.000491648
0.000490503
0.000489449
0.000488479
0.000487582
0.00048675
0.000485976
0.000485252
0.000484572
0.000483931
0.000483324
0.000482745
0.000482191
0.000481659
0.000481144
0.000480644
0.000480157
0.00047968
0.000479212
0.000478749
0.000478292
0.000477838
0.000477387
0.000476936
0.000476486
0.000476035
0.000475583
0.000475128
0.000474671
0.000474209
0.000473743
0.000473272
0.000472795
0.000472312
0.00047182
0.00047132
0.000470809
0.000470285
0.000469747
0.000469191
0.000468613
0.000468008
0.000467368
0.000466684
0.000465942
0.000465123
0.0004642
0.000463133
0.000461866
0.000460315
0.000458371
0.000455933
0.000453138
6.52023e-06
5.62455e-05
0.000111382
0.000156726
0.000193287
0.000223236
0.000248417
0.000270233
0.000289706
0.000307553
0.00032426
0.00034014
0.000355382
0.00037009
0.000384315
0.000398071
0.000411353
0.000424143
0.000436422
0.000448169
0.000459367
0.000470003
0.000480072
0.000489571
0.000498507
0.000506892
0.000514744
0.000522089
0.000528958
0.000535386
0.000541415
0.00054709
0.00055246
0.000557578
0.000562496
0.000567267
0.000571969
0.000576699
0.000581538
0.000586555
0.000591808
0.000597345
0.0006032
0.000609396
0.000615943
0.000622837
0.000630064
0.000637595
0.000645388
0.000653396
0.000661558
0.000669811
0.000678084
0.000686305
0.000694406
0.000702318
0.000709967
0.0007173
0.000724273
0.000730781
0.000736809
0.000742327
0.000747315
0.000751762
0.00075566
0.000759008
0.000761808
0.000764067
0.000765793
0.000766998
0.000767695
0.000767897
0.000767622
0.000766884
0.0007657
0.000764088
0.000762064
0.000759643
0.000756844
0.000753681
0.00075017
0.000746327
0.000742167
0.000737707
0.00073296
0.000727945
0.000722676
0.00071717
0.000711446
0.000705522
0.000699418
0.000693153
0.00068675
0.000680231
0.00067362
0.000666941
0.00066022
0.000653483
0.000646756
0.000640067
0.00063344
0.000626904
0.000620482
0.0006142
0.00060808
0.000602143
0.000596408
0.000590892
0.000585608
0.000580568
0.000575779
0.000571248
0.000566977
0.000562965
0.000559209
0.000555704
0.00055244
0.000549409
0.000546601
0.000544012
0.000541629
0.000539441
0.000537433
0.000535594
0.00053391
0.000532368
0.000530956
0.000529662
0.000528475
0.000527383
0.000526377
0.000525448
0.000524587
0.000523786
0.000523038
0.000522336
0.000521675
0.000521049
0.000520454
0.000519885
0.000519338
0.000518811
0.0005183
0.000517802
0.000517316
0.000516838
0.000516367
0.000515902
0.000515441
0.000514983
0.000514526
0.000514069
0.000513612
0.000513154
0.000512694
0.000512231
0.000511764
0.000511294
0.000510818
0.000510336
0.000509847
0.000509351
0.000508846
0.00050833
0.000507802
0.00050726
0.0005067
0.000506118
0.00050551
0.000504868
0.000504183
0.000503442
0.000502628
0.000501715
0.000500669
0.000499441
0.000497961
0.000496148
0.000493941
0.000491491
6.53861e-06
5.5833e-05
0.000111836
0.000159045
0.000197893
0.000230193
0.00025758
0.000281347
0.000302466
0.000321648
0.000339394
0.000356049
0.000371837
0.000386899
0.000401315
0.000415126
0.000428347
0.000440977
0.000453007
0.000464423
0.000475215
0.000485371
0.000494885
0.000503756
0.000511989
0.000519593
0.000526586
0.000532991
0.000538839
0.000544167
0.000549018
0.000553444
0.000557499
0.000561246
0.000564751
0.000568081
0.000571329
0.00057461
0.000578029
0.000581677
0.000585635
0.000589972
0.000594745
0.000599993
0.000605742
0.000612
0.000618758
0.000625992
0.000633661
0.000641711
0.000650077
0.000658688
0.000667459
0.000676302
0.00068514
0.000693911
0.00070248
0.000710783
0.000718767
0.000726369
0.000733546
0.00074026
0.000746484
0.000752194
0.000757377
0.000762022
0.000766125
0.000769686
0.000772708
0.000775198
0.000777164
0.000778616
0.000779567
0.000780031
0.000780021
0.000779551
0.000778637
0.000777294
0.000775537
0.00077338
0.000770839
0.000767929
0.000764665
0.000761063
0.000757138
0.000752906
0.000748383
0.000743587
0.000738536
0.000733248
0.000727744
0.000722044
0.00071617
0.000710146
0.000703994
0.000697741
0.000691412
0.000685034
0.000678634
0.00067224
0.000665879
0.000659578
0.000653363
0.000647261
0.000641296
0.000635489
0.000629862
0.000624432
0.000619216
0.000614227
0.000609475
0.000604966
0.000600706
0.000596695
0.000592933
0.000589416
0.000586136
0.000583086
0.000580256
0.000577641
0.000575231
0.000573014
0.000570978
0.00056911
0.000567398
0.00056583
0.000564393
0.000563075
0.000561866
0.000560754
0.00055973
0.000558783
0.000557907
0.000557092
0.000556331
0.000555619
0.000554948
0.000554313
0.00055371
0.000553135
0.000552583
0.00055205
0.000551535
0.000551033
0.000550543
0.000550063
0.00054959
0.000549123
0.000548661
0.000548201
0.000547743
0.000547286
0.000546829
0.000546371
0.000545911
0.000545448
0.000544981
0.000544511
0.000544035
0.000543554
0.000543067
0.000542571
0.000542067
0.000541553
0.000541027
0.000540486
0.000539928
0.00053935
0.000538746
0.000538109
0.000537431
0.0005367
0.0005359
0.000535008
0.000533994
0.000532815
0.000531417
0.000529737
0.000527744
0.000525585
6.52289e-06
5.50456e-05
0.000111192
0.000159513
0.000199988
0.000234096
0.000263261
0.00028865
0.000311167
0.000331496
0.00035014
0.000367458
0.000383698
0.000399029
0.000413555
0.000427342
0.000440423
0.000452813
0.000464514
0.000475523
0.000485833
0.000495435
0.000504325
0.000512502
0.000519966
0.000526728
0.0005328
0.000538205
0.000542969
0.00054713
0.000550732
0.000553827
0.000556477
0.000558751
0.000560728
0.000562491
0.000564152
0.000565849
0.000567709
0.000569849
0.000572377
0.000575385
0.000578953
0.000583141
0.000587992
0.000593525
0.00059974
0.000606615
0.000614105
0.000622151
0.000630683
0.000639628
0.000648879
0.000658309
0.000667834
0.000677363
0.000686798
0.000696058
0.000705069
0.000713766
0.000722095
0.000730008
0.000737467
0.000744443
0.000750913
0.000756861
0.000762276
0.000767152
0.000771487
0.000775283
0.000778545
0.000781279
0.000783496
0.000785204
0.000786416
0.000787144
0.0007874
0.000787198
0.000786551
0.000785474
0.00078398
0.000782084
0.000779801
0.000777144
0.000774131
0.000770775
0.000767094
0.000763106
0.000758827
0.000754277
0.000749476
0.000744444
0.000739204
0.000733779
0.000728193
0.000722471
0.00071664
0.000710727
0.000704758
0.000698763
0.000692769
0.000686804
0.000680896
0.000675071
0.000669353
0.000663768
0.000658337
0.000653079
0.000648013
0.000643153
0.00063851
0.000634094
0.000629911
0.000625964
0.000622254
0.000618778
0.000615532
0.000612508
0.000609698
0.000607098
0.000604697
0.000602485
0.00060045
0.000598583