/*--------------------------------*- C++ -*----------------------------------*\
  =========                 |
  \\      /  F ield         | OpenFOAM: The Open Source CFD Toolbox
   \\    /   O peration     | Website:  https://openfoam.org
    \\  /    A nd           | Version:  6
     \\/     M anipulation  |
\*---------------------------------------------------------------------------*/
FoamFile
{
    version     2.0;
    format      ascii;
    class       volScalarField;
    location    "0.11";
    object      p;
}
// * * * * * * * * * * * * * * * * * * * * * * * * * * * * * * * * * * * * * //

dimensions      [0 2 -2 0 0 0 0];

internalField   nonuniform List<scalar> 
12225
(
0.322854
0.070484
-0.00741866
-0.0177318
-0.0220048
-0.0263054
-0.0285206
-0.0295545
-0.0304384
-0.0313145
-0.0321047
-0.032819
-0.033498
-0.0341625
-0.0348577
-0.0356036
-0.0368801
-0.0383522
-0.0589948
-0.0287375
-0.0277417
-0.0210997
-0.0215056
-0.0252026
-0.0276625
-0.0290177
-0.0301071
-0.0310912
-0.0319438
-0.0327002
-0.0334089
-0.0340919
-0.034796
-0.0355235
-0.0366294
-0.0377351
-0.0960059
-0.0250036
-0.0231185
-0.020605
-0.0212191
-0.0245086
-0.026918
-0.0283913
-0.0295924
-0.0306569
-0.0315746
-0.0323859
-0.0331377
-0.0338515
-0.0345695
-0.0352724
-0.0361872
-0.0366733
-0.050637
-0.011774
-0.0196367
-0.0207403
-0.0215265
-0.0243269
-0.0265264
-0.0279841
-0.0292118
-0.0303087
-0.0312644
-0.0321131
-0.0328955
-0.0336298
-0.0343461
-0.0350124
-0.0357272
-0.0359915
-0.0302189
-0.0118164
-0.0200987
-0.0214485
-0.0220869
-0.0244305
-0.0263996
-0.0277959
-0.0290044
-0.0300969
-0.0310619
-0.0319263
-0.0327223
-0.0334633
-0.0341661
-0.0347948
-0.0353712
-0.035588
-0.0278577
-0.0160963
-0.0212667
-0.0221502
-0.022694
-0.0246569
-0.0264123
-0.0277362
-0.0289064
-0.0299756
-0.0309333
-0.0317992
-0.0325975
-0.0333371
-0.034024
-0.034625
-0.0351268
-0.035359
-0.0277149
-0.0189983
-0.0219887
-0.0227365
-0.0232889
-0.0249418
-0.0265051
-0.0277534
-0.0288768
-0.0299137
-0.0308548
-0.0317139
-0.0325082
-0.0332428
-0.0339174
-0.0345049
-0.0349818
-0.0352679
-0.0267139
-0.0206041
-0.0224929
-0.0232609
-0.0238493
-0.0252536
-0.0266481
-0.0278214
-0.0288947
-0.0298951
-0.0308146
-0.0316619
-0.0324488
-0.0331778
-0.0338462
-0.0344345
-0.0349225
-0.0352866
-0.0257083
-0.021738
-0.0229805
-0.0237433
-0.0243606
-0.0255703
-0.02682
-0.0279212
-0.0289444
-0.0299072
-0.0308026
-0.0316356
-0.0324137
-0.0331386
-0.0338073
-0.0344084
-0.0349306
-0.0353818
-0.0251092
-0.0226558
-0.0234642
-0.0241817
-0.0248168
-0.0258769
-0.0270037
-0.0280375
-0.0290123
-0.0299382
-0.0308089
-0.0316266
-0.0323961
-0.0331188
-0.0337935
-0.0344158
-0.0349835
-0.0355194
-0.0248426
-0.0233856
-0.0239223
-0.0245797
-0.0252205
-0.0261656
-0.0271882
-0.0281591
-0.029088
-0.0299787
-0.030825
-0.0316273
-0.0323888
-0.0331113
-0.0337958
-0.0344432
-0.0350582
-0.0356685
-0.0247841
-0.0239137
-0.0243127
-0.0249148
-0.0255489
-0.0264107
-0.0273513
-0.0282682
-0.029157
-0.0300167
-0.0308412
-0.0316299
-0.0323848
-0.0331083
-0.033803
-0.0344732
-0.0351272
-0.0357919
-0.024834
-0.0243526
-0.024662
-0.0252144
-0.0258368
-0.0266304
-0.0275018
-0.0283705
-0.0292226
-0.0300535
-0.0308574
-0.0316328
-0.0323812
-0.0331054
-0.0338094
-0.0344994
-0.0351856
-0.0358901
-0.0249788
-0.0247664
-0.0250213
-0.0255224
-0.0261227
-0.026852
-0.0276556
-0.0284736
-0.0292859
-0.0300853
-0.0308658
-0.0316254
-0.032365
-0.0330877
-0.0337982
-0.0345033
-0.0352132
-0.0359443
-0.0252004
-0.0251442
-0.0253744
-0.0258261
-0.0263928
-0.0270628
-0.0278016
-0.0285666
-0.0293364
-0.0301011
-0.0308547
-0.0315945
-0.0323211
-0.0330369
-0.0337464
-0.0344562
-0.0351742
-0.0359112
-0.0254564
-0.0254749
-0.0256938
-0.0261019
-0.026628
-0.0272435
-0.0279223
-0.0286345
-0.0293597
-0.0300867
-0.0308089
-0.0315232
-0.0322289
-0.0329279
-0.0336234
-0.03432
-0.035023
-0.0357382
-0.0256843
-0.0257309
-0.0259397
-0.0263113
-0.0267966
-0.0273638
-0.0279899
-0.0286522
-0.0293325
-0.0300191
-0.0307046
-0.031385
-0.0320586
-0.0327256
-0.0333878
-0.0340474
-0.0347064
-0.0353674
-0.025804
-0.0258568
-0.0260522
-0.0263946
-0.0268462
-0.0273755
-0.0279603
-0.0285807
-0.0292199
-0.0298657
-0.03051
-0.0311476
-0.0317759
-0.0323934
-0.0330002
-0.0335968
-0.0341825
-0.0347585
-0.0257137
-0.0257605
-0.0259369
-0.0262583
-0.0266911
-0.0272007
-0.0277629
-0.0283576
-0.0289671
-0.0295779
-0.030181
-0.0307706
-0.0313428
-0.0318953
-0.0324271
-0.0329374
-0.0334244
-0.0338892
-0.0253806
-0.0253953
-0.0255398
-0.0258606
-0.0263084
-0.0268351
-0.027414
-0.0280206
-0.028632
-0.0292334
-0.0298158
-0.0303738
-0.0309038
-0.0314038
-0.0318728
-0.0323104
-0.0327148
-0.0330877
-0.0250276
-0.024944
-0.0250289
-0.0253706
-0.0258539
-0.0264166
-0.0270378
-0.0276825
-0.0283188
-0.0289316
-0.0295138
-0.0300607
-0.0305695
-0.031039
-0.0314691
-0.03186
-0.0322106
-0.0325229
-0.0247876
-0.0244043
-0.0243761
-0.0247833
-0.0253211
-0.0259373
-0.0266303
-0.027339
-0.0280187
-0.0286584
-0.0292548
-0.0298044
-0.0303055
-0.0307584
-0.0311645
-0.0315248
-0.0318392
-0.0321099
-0.0249067
-0.0238109
-0.0236051
-0.0241288
-0.0247128
-0.0253998
-0.0262042
-0.0270035
-0.0277419
-0.0284216
-0.0290449
-0.0296087
-0.0301132
-0.030561
-0.0309552
-0.0312979
-0.0315903
-0.0318343
-0.0254042
-0.0230265
-0.0227635
-0.0234627
-0.0240203
-0.0248011
-0.0257737
-0.0266912
-0.027501
-0.0282329
-0.028894
-0.029481
-0.0299968
-0.0304476
-0.0308384
-0.0311728
-0.031453
-0.0316809
-0.0256452
-0.0210539
-0.0215893
-0.0227663
-0.023221
-0.0241488
-0.0253635
-0.0264257
-0.0273174
-0.0281117
-0.0288184
-0.0294334
-0.0299645
-0.0304223
-0.0308142
-0.0311453
-0.0314194
-0.0316379
-0.0273737
-0.0166257
-0.0193097
-0.021746
-0.0222372
-0.0234642
-0.0250109
-0.0262413
-0.0272237
-0.0280865
-0.0288403
-0.0294819
-0.0300265
-0.0304903
-0.0308833
-0.0312121
-0.0314821
-0.0316948
-0.0443876
-0.0145919
-0.0170614
-0.0203468
-0.0210551
-0.0228336
-0.0247984
-0.0262115
-0.0272871
-0.0282128
-0.0290021
-0.0296575
-0.0302045
-0.0306655
-0.0310531
-0.0313752
-0.0316387
-0.0318452
-0.0885194
-0.0278851
-0.0211032
-0.0201704
-0.0202364
-0.0226191
-0.0249759
-0.0265206
-0.0276494
-0.0285997
-0.0293873
-0.0300244
-0.0305483
-0.0309871
-0.0313544
-0.0316584
-0.0319073
-0.0321037
-0.0681478
-0.0377236
-0.0310088
-0.0224174
-0.0207148
-0.0234003
-0.0258734
-0.0273276
-0.0283623
-0.0292446
-0.0299713
-0.0305509
-0.0310251
-0.0314238
-0.0317588
-0.0320356
-0.0322611
-0.0324511
0.29617
0.0764513
-0.000644488
-0.0137244
-0.0189901
-0.0240452
-0.0269331
-0.0281879
-0.0289743
-0.0296843
-0.0303
-0.0308048
-0.0312274
-0.0315905
-0.0318999
-0.0321553
-0.0323527
-0.0324745
-0.0721493
-0.0724712
-0.0729088
-0.0733898
-0.0740014
-0.0748231
-0.0758897
-0.0772191
-0.0788284
-0.0807301
-0.0829304
-0.0854268
-0.0882062
-0.0912445
-0.094506
-0.0979452
-0.101508
-0.105136
-0.108765
-0.112331
-0.115771
-0.119026
-0.122039
-0.124757
-0.127135
-0.129128
-0.130701
-0.131818
-0.132451
-0.132573
-0.132162
-0.131205
-0.129694
-0.127632
-0.124997
-0.12171
-0.117718
-0.113034
-0.107681
-0.101674
-0.0950298
-0.0877646
-0.0799006
-0.0714652
-0.0624919
-0.0530201
-0.0430958
-0.0327703
-0.0221004
-0.011147
2.51889e-05
0.0113494
0.0227573
0.0341807
0.0455522
0.0568067
0.0678823
0.078721
0.0892697
0.0994806
0.109312
0.118726
0.127695
0.136193
0.144202
0.151716
0.158741
0.1653
0.171389
0.176991
0.18211
0.186759
0.190953
0.194709
0.198047
0.200988
0.203552
0.205759
0.207633
0.209195
0.210465
0.211464
0.212215
0.212736
0.213048
0.213169
0.213119
0.212914
0.212572
0.212109
0.211542
0.210883
0.210149
0.209351
0.208502
0.207613
0.206694
0.205756
0.204806
0.203852
0.2029
0.201957
0.201028
0.200116
0.199225
0.198358
0.197518
0.196706
0.195923
0.195171
0.19445
0.193761
0.193109
0.192487
0.191887
0.191309
0.190759
0.190237
0.189741
0.189271
0.188826
0.188404
0.188005
0.187627
0.187269
0.186929
0.186608
0.186303
0.186013
0.185739
0.185477
0.185229
0.184992
0.184766
0.18455
0.184344
0.184146
0.183956
0.183773
0.183597
0.183427
0.183262
0.183102
0.182947
0.182796
0.182649
0.182505
0.182364
0.182225
0.182089
0.181955
0.181823
0.181693
0.181564
0.181437
0.181311
0.181187
0.181064
0.180944
0.180825
0.180709
0.180596
0.180487
0.180384
0.180287
0.180198
0.180121
0.180059
0.180016
0.18
0.18002
0.18009
0.180228
0.180464
0.180844
0.181444
0.182413
0.183973
0.186819
0.191072
-0.0705345
-0.0715975
-0.0722202
-0.0722197
-0.0721923
-0.072502
-0.0731921
-0.0742595
-0.0757105
-0.0775522
-0.0797839
-0.0823934
-0.0853548
-0.0886284
-0.0921624
-0.0958953
-0.0997594
-0.103684
-0.107598
-0.111434
-0.115128
-0.118621
-0.121861
-0.1248
-0.127395
-0.129609
-0.131408
-0.132761
-0.133637
-0.134009
-0.133851
-0.133135
-0.131832
-0.129908
-0.127337
-0.12415
-0.12038
-0.116013
-0.111027
-0.105414
-0.0991765
-0.0923245
-0.0848743
-0.0768486
-0.0682769
-0.0591949
-0.0496446
-0.039674
-0.0293364
-0.0186896
-0.00779521
0.00328234
0.014477
0.0257221
0.0369518
0.0481016
0.0591101
0.0699194
0.0804762
0.0907322
0.100645
0.110178
0.1193
0.127988
0.136223
0.143986
0.151254
0.158
0.164239
0.169998
0.175289
0.180124
0.184515
0.188478
0.192032
0.195194
0.197984
0.200421
0.202526
0.204319
0.20582
0.20705
0.208029
0.208776
0.209309
0.209649
0.209811
0.209814
0.209675
0.209409
0.209031
0.208556
0.207997
0.207368
0.206679
0.205944
0.20517
0.204369
0.203547
0.202714
0.201875
0.201037
0.200204
0.199382
0.198574
0.197782
0.197011
0.196261
0.195535
0.194833
0.194157
0.193507
0.192882
0.192283
0.191711
0.191164
0.190641
0.190142
0.189665
0.189211
0.188779
0.188369
0.187979
0.187609
0.187257
0.186923
0.186605
0.186303
0.186016
0.185743
0.185483
0.185236
0.184999
0.184774
0.184558
0.184351
0.184153
0.183962
0.183779
0.183602
0.183431
0.183266
0.183105
0.182949
0.182798
0.18265
0.182505
0.182363
0.182224
0.182087
0.181952
0.181819
0.181689
0.181559
0.181432
0.181305
0.181181
0.181058
0.180937
0.180818
0.180702
0.180589
0.180481
0.180377
0.18028
0.180192
0.180116
0.180054
0.180013
0.179998
0.180019
0.18009
0.180229
0.180465
0.180841
0.181424
0.182346
0.183768
0.186263
0.189777
-0.0665972
-0.0685269
-0.0701907
-0.070934
-0.0713512
-0.0719313
-0.0728422
-0.0741358
-0.0758321
-0.0779319
-0.0804184
-0.0832595
-0.0864112
-0.0898205
-0.0934285
-0.0971737
-0.100994
-0.10483
-0.108624
-0.112322
-0.115874
-0.119233
-0.122358
-0.125208
-0.127748
-0.129945
-0.131765
-0.133181
-0.134163
-0.134684
-0.13472
-0.134245
-0.133232
-0.131653
-0.129481
-0.126711
-0.123344
-0.119373
-0.114788
-0.109586
-0.103768
-0.0973399
-0.0903161
-0.0827154
-0.0745635
-0.0658927
-0.0567417
-0.047155
-0.0371827
-0.0268797
-0.016305
-0.00552064
0.00540944
0.0164203
0.0274473
0.038427
0.0492986
0.0600044
0.0704909
0.0807095
0.0906169
0.100176
0.109354
0.118127
0.126475
0.134379
0.141822
0.148792
0.155293
0.161331
0.16691
0.172039
0.17673
0.180996
0.184854
0.18832
0.191413
0.194151
0.196554
0.198642
0.200434
0.20195
0.203208
0.204228
0.205029
0.205629
0.206044
0.206292
0.20639
0.206352
0.206194
0.205929
0.205572
0.205135
0.204629
0.204067
0.203457
0.202809
0.202132
0.201434
0.200721
0.199999
0.199274
0.198551
0.197834
0.197127
0.196431
0.195751
0.195087
0.194442
0.193816
0.193211
0.192627
0.192065
0.191526
0.191007
0.190509
0.190031
0.189574
0.189137
0.18872
0.188322
0.187943
0.187581
0.187237
0.186909
0.186597
0.186299
0.186016
0.185746
0.185488
0.185242
0.185007
0.184782
0.184567
0.18436
0.184162
0.183971
0.183787
0.18361
0.183439
0.183273
0.183112
0.182955
0.182803
0.182654
0.182508
0.182366
0.182226
0.182088
0.181953
0.18182
0.181688
0.181558
0.18143
0.181304
0.181179
0.181056
0.180934
0.180816
0.180699
0.180586
0.180478
0.180374
0.180277
0.18019
0.180114
0.180053
0.180012
0.179998
0.180021
0.180093
0.180232
0.180466
0.180835
0.181398
0.182264
0.183537
0.185605
0.188061
-0.0632464
-0.0660202
-0.0688987
-0.0707079
-0.0719384
-0.0731325
-0.0745252
-0.0762072
-0.0782155
-0.0805567
-0.0832158
-0.0861633
-0.0893596
-0.092759
-0.0963123
-0.0999689
-0.103678
-0.107392
-0.111061
-0.114641
-0.118088
-0.121363
-0.124426
-0.127241
-0.129773
-0.131988
-0.133857
-0.135346
-0.136427
-0.137071
-0.137251
-0.136939
-0.136111
-0.134741
-0.132811
-0.130307
-0.127214
-0.123522
-0.11922
-0.114301
-0.108764
-0.102614
-0.0958609
-0.0885211
-0.0806182
-0.0721825
-0.0632507
-0.0538662
-0.0440778
-0.0339399
-0.0235108
-0.0128524
-0.0020287
0.00889517
0.0198542
0.0307848
0.0416254
0.0523179
0.0628081
0.0730469
0.08299
0.0925989
0.101841
0.110688
0.11912
0.127121
0.134681
0.141792
0.14845
0.154654
0.160409
0.165723
0.170605
0.175069
0.179129
0.182801
0.186102
0.189052
0.191667
0.193967
0.19597
0.197697
0.199164
0.200391
0.201395
0.202194
0.202806
0.203246
0.20353
0.203673
0.20369
0.203596
0.203402
0.203121
0.202766
0.202346
0.201873
0.201354
0.2008
0.200217
0.199612
0.198992
0.198362
0.197727
0.197092
0.19646
0.195834
0.195218
0.194613
0.194021
0.193444
0.192883
0.192338
0.191811
0.191303
0.190812
0.19034
0.189886
0.18945
0.189032
0.188631
0.188247
0.187881
0.18753
0.187195
0.186876
0.18657
0.186279
0.186
0.185734
0.18548
0.185237
0.185004
0.184781
0.184567
0.184362
0.184164
0.183974
0.183791
0.183614
0.183443
0.183277
0.183115
0.182959
0.182806
0.182657
0.182511
0.182368
0.182228
0.18209
0.181954
0.18182
0.181689
0.181558
0.18143
0.181303
0.181178
0.181054
0.180933
0.180813
0.180697
0.180583
0.180474
0.18037
0.180273
0.180185
0.180108
0.180046
0.180004
0.179989
0.180008
0.180075
0.180207
0.180428
0.180773
0.181291
0.182062
0.18314
0.184742
0.186362
-0.0625374
-0.0657904
-0.0693945
-0.0719468
-0.0738162
-0.0755328
-0.0773471
-0.0793647
-0.0816335
-0.0841678
-0.0869585
-0.0899817
-0.0932044
-0.0965885
-0.100093
-0.103675
-0.107293
-0.110905
-0.11447
-0.11795
-0.121306
-0.124504
-0.127507
-0.130283
-0.132798
-0.135022
-0.136922
-0.138468
-0.13963
-0.140378
-0.140684
-0.140519
-0.139855
-0.138667
-0.136931
-0.134629
-0.131742
-0.128253
-0.12415
-0.119424
-0.11407
-0.108092
-0.101495
-0.0942968
-0.0865176
-0.078187
-0.0693414
-0.060024
-0.0502845
-0.0401779
-0.0297641
-0.0191065
-0.00827062
0.00267665
0.0136687
0.0246405
0.0355291
0.0462755
0.0568248
0.067127
0.0771375
0.0868176
0.096134
0.105059
0.113572
0.121657
0.129304
0.136507
0.143262
0.14957
0.155436
0.160866
0.165872
0.170465
0.174659
0.17847
0.181915
0.185011
0.187775
0.190227
0.192383
0.194263
0.195884
0.197264
0.19842
0.199371
0.200131
0.200717
0.201144
0.201428
0.201581
0.201619
0.201553
0.201396
0.20116
0.200854
0.20049
0.200075
0.19962
0.19913
0.198614
0.198078
0.197527
0.196966
0.196399
0.195831
0.195266
0.194704
0.19415
0.193606
0.193072
0.19255
0.192041
0.191547
0.191068
0.190605
0.190157
0.189725
0.189309
0.188909
0.188524
0.188155
0.187801
0.187462
0.187137
0.186826
0.186528
0.186243
0.185971
0.18571
0.18546
0.18522
0.18499
0.18477
0.184558
0.184355
0.184159
0.18397
0.183788
0.183612
0.183441
0.183276
0.183115
0.182958
0.182806
0.182657
0.182511
0.182368
0.182228
0.18209
0.181954
0.18182
0.181688
0.181557
0.181429
0.181301
0.181176
0.181052
0.18093
0.18081
0.180693
0.180579
0.180469
0.180364
0.180266
0.180176
0.180097
0.180033
0.179988
0.179967
0.17998
0.180037
0.180154
0.180352
0.180659
0.181111
0.181764
0.182631
0.183815
0.184822
-0.0646077
-0.0679374
-0.0717751
-0.0747142
-0.076993
-0.0790747
-0.0811918
-0.0834488
-0.0858975
-0.0885576
-0.0914259
-0.0944841
-0.0977053
-0.101058
-0.104506
-0.108016
-0.111551
-0.115075
-0.118554
-0.121953
-0.12524
-0.128381
-0.131345
-0.1341
-0.136614
-0.138857
-0.140797
-0.142404
-0.143646
-0.144494
-0.144916
-0.144881
-0.144361
-0.143326
-0.14175
-0.139609
-0.13688
-0.133545
-0.129586
-0.124991
-0.119754
-0.113875
-0.107358
-0.100217
-0.0924742
-0.0841573
-0.0753037
-0.0659579
-0.0561713
-0.0460014
-0.0355108
-0.0247658
-0.0138349
-0.00278798
0.00830597
0.0193795
0.0303681
0.0412113
0.0518533
0.0622439
0.0723384
0.0820982
0.0914904
0.100488
0.109072
0.117228
0.124946
0.132219
0.139047
0.145432
0.151377
0.156892
0.161987
0.166674
0.170966
0.174881
0.178432
0.181638
0.184516
0.187084
0.189359
0.191358
0.1931
0.194602
0.19588
0.196951
0.197831
0.198535
0.199079
0.199476
0.199741
0.199888
0.199927
0.199872
0.199734
0.199524
0.19925
0.198923
0.19855
0.19814
0.197699
0.197233
0.196749
0.196252
0.195745
0.195233
0.194719
0.194207
0.193698
0.193196
0.192701
0.192215
0.19174
0.191276
0.190825
0.190387
0.189963
0.189552
0.189155
0.188773
0.188404
0.188049
0.187708
0.18738
0.187065
0.186763
0.186474
0.186196
0.18593
0.185674
0.185429
0.185194
0.184968
0.184751
0.184542
0.184341
0.184148
0.183961
0.18378
0.183605
0.183435
0.183271
0.183111
0.182955
0.182803
0.182654
0.182508
0.182366
0.182225
0.182088
0.181952
0.181818
0.181686
0.181555
0.181426
0.181299
0.181173
0.181049
0.180926
0.180806
0.180688
0.180573
0.180462
0.180356
0.180256
0.180164
0.180082
0.180014
0.179963
0.179936
0.179938
0.179982
0.180078
0.180245
0.180504
0.180879
0.181404
0.182065
0.182897
0.183443
-0.0687168
-0.0718749
-0.0756178
-0.0786621
-0.0811373
-0.0834209
-0.0857128
-0.0881064
-0.0906515
-0.0933702
-0.0962635
-0.0993185
-0.102514
-0.105822
-0.109215
-0.112661
-0.116129
-0.119588
-0.123007
-0.126354
-0.1296
-0.132715
-0.135666
-0.138426
-0.140962
-0.143244
-0.145241
-0.146922
-0.148254
-0.149205
-0.149744
-0.149836
-0.149451
-0.148556
-0.147122
-0.145119
-0.142523
-0.13931
-0.135459
-0.130956
-0.12579
-0.119957
-0.113463
-0.106318
-0.0985441
-0.09017
-0.0812343
-0.0717839
-0.0618734
-0.0515638
-0.0409219
-0.0300181
-0.0189252
-0.00771667
0.00353483
0.0147591
0.0258893
0.0368638
0.0476257
0.0581245
0.0683158
0.0781613
0.08763
0.0966974
0.105345
0.11356
0.121334
0.128661
0.135543
0.141983
0.147985
0.153561
0.158719
0.163474
0.167839
0.171829
0.175461
0.178751
0.181717
0.184375
0.186743
0.188838
0.190677
0.192277
0.193654
0.194824
0.195803
0.196606
0.197246
0.19774
0.198098
0.198336
0.198465
0.198496
0.198442
0.198312
0.198116
0.197863
0.197562
0.19722
0.196844
0.19644
0.196015
0.195573
0.195119
0.194656
0.194189
0.193721
0.193253
0.192789
0.19233
0.191877
0.191433
0.190998
0.190573
0.19016
0.189758
0.189368
0.18899
0.188624
0.188271
0.187931
0.187602
0.187286
0.186982
0.18669
0.186409
0.186139
0.18588
0.18563
0.185391
0.18516
0.184939
0.184725
0.18452
0.184322
0.184131
0.183946
0.183767
0.183594
0.183426
0.183263
0.183104
0.182949
0.182797
0.182649
0.182504
0.182362
0.182222
0.182084
0.181949
0.181815
0.181683
0.181552
0.181423
0.181295
0.181169
0.181045
0.180922
0.180801
0.180682
0.180566
0.180454
0.180346
0.180243
0.180148
0.180063
0.179989
0.179932
0.179895
0.179885
0.179911
0.179983
0.180113
0.180317
0.18061
0.181007
0.181475
0.182012
0.182205
-0.0740683
-0.0769181
-0.0803655
-0.0833104
-0.0858076
-0.0881516
-0.0905052
-0.0929468
-0.0955199
-0.0982456
-0.101127
-0.104155
-0.107311
-0.110574
-0.113917
-0.117313
-0.120734
-0.124153
-0.127539
-0.130865
-0.134101
-0.13722
-0.14019
-0.142984
-0.145569
-0.147917
-0.149995
-0.15177
-0.15321
-0.154281
-0.154948
-0.155176
-0.154931
-0.154178
-0.152881
-0.151011
-0.148537
-0.145431
-0.141669
-0.137231
-0.132106
-0.126285
-0.119771
-0.112576
-0.104719
-0.0962315
-0.0871543
-0.0775375
-0.06744
-0.0569278
-0.046073
-0.0349514
-0.0236412
-0.0122206
-0.000766318
0.0106482
0.0219535
0.0330862
0.0439887
0.05461
0.0649066
0.0748423
0.0843883
0.093522
0.102226
0.11049
0.118307
0.125674
0.132593
0.13907
0.145111
0.150726
0.155928
0.160729
0.165145
0.16919
0.172882
0.176235
0.179268
0.181997
0.184439
0.186611
0.188529
0.19021
0.191669
0.192922
0.193984
0.194869
0.195592
0.196167
0.196606
0.196922
0.197127
0.197234
0.197252
0.197192
0.197063
0.196876
0.196637
0.196355
0.196036
0.195687
0.195314
0.194921
0.194514
0.194096
0.193671
0.193243
0.192812
0.192383
0.191957
0.191536
0.191121
0.190713
0.190313
0.189923
0.189543
0.189173
0.188813
0.188465
0.188127
0.187801
0.187486
0.187182
0.186889
0.186607
0.186335
0.186073
0.185821
0.185578
0.185344
0.185119
0.184903
0.184694
0.184492
0.184297
0.184109
0.183927
0.18375
0.183579
0.183413
0.183251
0.183094
0.18294
0.182789
0.182642
0.182498
0.182356
0.182217
0.18208
0.181944
0.181811
0.181679
0.181548
0.181419
0.181291
0.181165
0.18104
0.180916
0.180795
0.180675
0.180558
0.180444
0.180334
0.180229
0.18013
0.18004
0.17996
0.179895
0.179847
0.179823
0.179828
0.179871
0.179961
0.180108
0.180317
0.180589
0.180883
0.181172
0.181092
-0.0799742
-0.082441
-0.0854735
-0.0881796
-0.0905703
-0.0928664
-0.0951943
-0.0976158
-0.100166
-0.102862
-0.105708
-0.108695
-0.111809
-0.115029
-0.118334
-0.121697
-0.125093
-0.128495
-0.131878
-0.135212
-0.138471
-0.141625
-0.144648
-0.147507
-0.150175
-0.152618
-0.154805
-0.156702
-0.158275
-0.159488
-0.160304
-0.160686
-0.160596
-0.159995
-0.158846
-0.157112
-0.154761
-0.151758
-0.148077
-0.143693
-0.13859
-0.132757
-0.126195
-0.118914
-0.110935
-0.10229
-0.0930232
-0.0831898
-0.0728541
-0.0620882
-0.0509708
-0.0395842
-0.0280131
-0.0163413
-0.00465012
0.00698322
0.0184862
0.0297935
0.0408475
0.0515983
0.0620041
0.0720309
0.0816512
0.0908445
0.0995963
0.107898
0.115745
0.123137
0.130079
0.136577
0.142639
0.148278
0.153506
0.158337
0.162787
0.16687
0.170604
0.174005
0.177089
0.179873
0.182375
0.184609
0.186592
0.18834
0.189868
0.191191
0.192324
0.193281
0.194075
0.19472
0.195229
0.195614
0.195887
0.196059
0.196141
0.196143
0.196074
0.195945
0.195761
0.195533
0.195265
0.194965
0.194639
0.194291
0.193927
0.193549
0.193163
0.192771
0.192375
0.191979
0.191583
0.191191
0.190803
0.190421
0.190046
0.189678
0.189319
0.188968
0.188627
0.188295
0.187974
0.187662
0.18736
0.187068
0.186786
0.186514
0.186252
0.185998
0.185754
0.185518
0.185291
0.185072
0.18486
0.184656
0.184459
0.184268
0.184083
0.183904
0.18373
0.183561
0.183397
0.183237
0.183081
0.182929
0.18278
0.182634
0.18249
0.182349
0.182211
0.182074
0.181939
0.181806
0.181674
0.181544
0.181414
0.181287
0.18116
0.181034
0.18091
0.180788
0.180667
0.180548
0.180433
0.18032
0.180212
0.180109
0.180014
0.179927
0.179852
0.179792
0.179752
0.179735
0.179747
0.179795
0.179882
0.180008
0.180164
0.180301
0.180383
0.180092
-0.0858387
-0.0878855
-0.0904375
-0.0928154
-0.0950107
-0.0971822
-0.0994221
-0.101776
-0.104269
-0.106914
-0.109712
-0.112655
-0.11573
-0.118919
-0.1222
-0.12555
-0.128944
-0.132358
-0.135766
-0.13914
-0.142453
-0.145678
-0.148786
-0.151746
-0.154528
-0.1571
-0.159428
-0.161477
-0.163212
-0.164595
-0.165585
-0.166144
-0.166229
-0.165799
-0.164812
-0.163228
-0.161008
-0.158115
-0.154515
-0.15018
-0.14509
-0.13923
-0.1326
-0.125208
-0.117075
-0.108238
-0.0987447
-0.0886548
-0.07804
-0.0669804
-0.055562
-0.0438751
-0.0320119
-0.020063
-0.00811473
0.00375138
0.0154614
0.0269493
0.0381578
0.0490383
0.05955
0.0696609
0.0793461
0.0885879
0.0973748
0.105701
0.113564
0.120967
0.127917
0.13442
0.14049
0.146137
0.151377
0.156223
0.160692
0.1648
0.168563
0.171998
0.175121
0.177948
0.180496
0.182781
0.184818
0.186623
0.18821
0.189594
0.190788
0.191807
0.192664
0.193372
0.193943
0.194389
0.194721
0.194952
0.195092
0.195149
0.195135
0.195057
0.194924
0.194744
0.194523
0.194268
0.193984
0.193677
0.193352
0.193012
0.192661
0.192303
0.191939
0.191574
0.191208
0.190843
0.190481
0.190124
0.189771
0.189426
0.189087
0.188755
0.188432
0.188117
0.187811
0.187514
0.187225
0.186946
0.186675
0.186414
0.186161
0.185916
0.18568
0.185452
0.185232
0.185018
0.184812
0.184613
0.18442
0.184234
0.184052
0.183877
0.183706
0.18354
0.183378
0.18322
0.183066
0.182915
0.182768
0.182623
0.182481
0.182341
0.182203
0.182067
0.181933
0.1818
0.181668
0.181538
0.181409
0.181281
0.181154
0.181028
0.180904
0.18078
0.180658
0.180538
0.18042
0.180305
0.180193
0.180086
0.179985
0.17989
0.179806
0.179732
0.179674
0.179634
0.179614
0.179619
0.179647
0.179692
0.17974
0.17974
0.179648
0.179193
-0.0911537
-0.0927686
-0.0948108
-0.0968089
-0.0987529
-0.10075
-0.102862
-0.105118
-0.107535
-0.11012
-0.112869
-0.115775
-0.118823
-0.121997
-0.125275
-0.128636
-0.132056
-0.13551
-0.138973
-0.142419
-0.14582
-0.149148
-0.152374
-0.155468
-0.158398
-0.161131
-0.163632
-0.165865
-0.167792
-0.169371
-0.170563
-0.171323
-0.171607
-0.171369
-0.170563
-0.169144
-0.167069
-0.164294
-0.160782
-0.156497
-0.151416
-0.145521
-0.138807
-0.131285
-0.122976
-0.11392
-0.10417
-0.0937928
-0.0828692
-0.0714877
-0.059744
-0.0477382
-0.0355696
-0.0233342
-0.0111238
0.000977111
0.012893
0.0245571
0.0359123
0.0469111
0.0575153
0.0676953
0.0774297
0.0867037
0.0955092
0.103843
0.111706
0.119105
0.126047
0.132542
0.138604
0.144246
0.149484
0.154333
0.158809
0.16293
0.166711
0.170168
0.17332
0.17618
0.178766
0.181093
0.183175
0.185027
0.186665
0.188101
0.18935
0.190424
0.191337
0.1921
0.192727
0.193228
0.193615
0.193899
0.194091
0.194199
0.194234
0.194204
0.194117
0.193981
0.193803
0.193589
0.193345
0.193076
0.192787
0.192482
0.192164
0.191837
0.191504
0.191168
0.190829
0.190491
0.190154
0.18982
0.18949
0.189166
0.188847
0.188534
0.188229
0.18793
0.18764
0.187357
0.187082
0.186816
0.186557
0.186306
0.186063
0.185828
0.1856
0.18538
0.185166
0.18496
0.18476
0.184566
0.184378
0.184195
0.184018
0.183846
0.183679
0.183516
0.183356
0.183201
0.183049
0.1829
0.182754
0.182611
0.18247
0.182331
0.182194
0.182059
0.181925
0.181793
0.181662
0.181532
0.181403
0.181275
0.181148
0.181022
0.180896
0.180772
0.180649
0.180527
0.180407
0.180289
0.180173
0.180061
0.179954
0.179851
0.179756
0.179669
0.179592
0.179527
0.179475
0.179436
0.179407
0.179377
0.179326
0.179204
0.178968
0.178383
-0.0954974
-0.0966873
-0.0982166
-0.0998123
-0.101475
-0.103271
-0.105234
-0.10738
-0.109716
-0.112242
-0.114952
-0.117834
-0.120875
-0.124056
-0.127357
-0.130756
-0.13423
-0.137755
-0.141305
-0.144854
-0.148375
-0.151838
-0.155215
-0.158474
-0.161583
-0.164507
-0.16721
-0.169655
-0.1718
-0.173603
-0.17502
-0.176004
-0.176508
-0.176481
-0.175873
-0.174634
-0.172715
-0.170068
-0.166648
-0.162415
-0.157339
-0.1514
-0.144593
-0.136925
-0.128422
-0.119127
-0.109101
-0.0984217
-0.0871757
-0.0754624
-0.0633874
-0.0510597
-0.0385862
-0.0260694
-0.0136058
-0.00128296
0.0108218
0.0226419
0.0341216
0.0452156
0.0558888
0.0661148
0.0758756
0.0851602
0.0939635
0.102286
0.110131
0.117508
0.124426
0.130898
0.136939
0.142563
0.147787
0.152627
0.1571
0.161223
0.165012
0.168484
0.171654
0.17454
0.177155
0.179516
0.181636
0.18353
0.185211
0.186694
0.18799
0.189114
0.190077
0.190891
0.191568
0.192119
0.192556
0.192889
0.193129
0.193284
0.193364
0.193378
0.193334
0.193239
0.193101
0.192925
0.192718
0.192484
0.192229
0.191957
0.19167
0.191374
0.19107
0.19076
0.190448
0.190135
0.189822
0.189511
0.189203
0.188899
0.1886
0.188306
0.188018
0.187736
0.187461
0.187193
0.186932
0.186678
0.186431
0.186191
0.185959
0.185733
0.185514
0.185302
0.185096
0.184896
0.184702
0.184514
0.184331
0.184154
0.183981
0.183812
0.183649
0.183489
0.183332
0.183179
0.18303
0.182883
0.182739
0.182597
0.182458
0.18232
0.182184
0.18205
0.181917
0.181785
0.181655
0.181525
0.181397
0.181269
0.181141
0.181015
0.180889
0.180763
0.180639
0.180515
0.180393
0.180272
0.180152
0.180035
0.179921
0.17981
0.179704
0.179602
0.179506
0.179417
0.179333
0.179252
0.179168
0.179067
0.178926
0.178698
0.178341
0.177653
-0.0985031
-0.0993204
-0.100356
-0.101548
-0.102921
-0.104506
-0.106315
-0.108352
-0.110614
-0.113094
-0.115781
-0.118662
-0.12172
-0.124935
-0.128289
-0.131757
-0.135317
-0.138944
-0.142613
-0.146296
-0.149966
-0.153595
-0.157151
-0.160602
-0.163916
-0.167056
-0.169985
-0.172662
-0.175047
-0.177092
-0.178752
-0.179976
-0.180714
-0.180909
-0.180509
-0.179459
-0.177702
-0.175185
-0.171857
-0.167673
-0.162597
-0.156608
-0.149697
-0.141874
-0.133168
-0.123627
-0.11332
-0.102332
-0.0907626
-0.0787211
-0.0663237
-0.0536884
-0.04093
-0.0281575
-0.0154708
-0.00295951
0.00929889
0.0212389
0.0328072
0.0439614
0.0546699
0.0649102
0.074668
0.0839359
0.0927122
0.101
0.108808
0.116144
0.123022
0.129456
0.135462
0.141056
0.146255
0.151076
0.155536
0.159652
0.163441
0.166919
0.170102
0.173005
0.175643
0.178031
0.180183
0.182112
0.183832
0.185355
0.186695
0.187863
0.188871
0.189732
0.190455
0.191053
0.191536
0.191914
0.192198
0.192396
0.192519
0.192574
0.19257
0.192514
0.192413
0.192273
0.1921
0.1919
0.191677
0.191435
0.191179
0.190911
0.190634
0.190351
0.190064
0.189775
0.189486
0.189197
0.188911
0.188627
0.188347
0.188071
0.187801
0.187535
0.187276
0.187022
0.186775
0.186534
0.186299
0.186071
0.185848
0.185632
0.185422
0.185218
0.18502
0.184828
0.18464
0.184458
0.184281
0.184108
0.18394
0.183776
0.183616
0.183459
0.183306
0.183156
0.183009
0.182864
0.182722
0.182582
0.182444
0.182308
0.182173
0.18204
0.181908
0.181777
0.181647
0.181518
0.181389
0.181262
0.181134
0.181007
0.18088
0.180754
0.180628
0.180503
0.180378
0.180254
0.180131
0.180008
0.179887
0.179768
0.17965
0.179534
0.179419
0.179305
0.17919
0.179068
0.178932
0.178765
0.178545
0.178224
0.177765
0.176994
-0.0998885
-0.100415
-0.100997
-0.101808
-0.102901
-0.104284
-0.10595
-0.107891
-0.110096
-0.112552
-0.115243
-0.11815
-0.121256
-0.124539
-0.127977
-0.131547
-0.135225
-0.138985
-0.142802
-0.146649
-0.150496
-0.154314
-0.158072
-0.161737
-0.165274
-0.168647
-0.171816
-0.174739
-0.177373
-0.179669
-0.181579
-0.183048
-0.184022
-0.184442
-0.18425
-0.183386
-0.181787
-0.179394
-0.176149
-0.172003
-0.166916
-0.160865
-0.153839
-0.145852
-0.136936
-0.127147
-0.116561
-0.105275
-0.0934001
-0.0810561
-0.0683696
-0.0554669
-0.0424696
-0.029491
-0.0166337
-0.00398753
0.00837111
0.0203791
0.0319863
0.0431542
0.053855
0.0640703
0.0737897
0.0830091
0.0917305
0.0999599
0.107707
0.114984
0.121805
0.128187
0.134145
0.139697
0.144861
0.149654
0.154092
0.158194
0.161976
0.165453
0.168642
0.171557
0.174212
0.176623
0.178801
0.180761
0.182515
0.184075
0.185453
0.186661
0.187711
0.188614
0.18938
0.190021
0.190546
0.190967
0.191292
0.191532
0.191694
0.191788
0.191821
0.191801
0.191735
0.19163
0.19149
0.191321
0.191129
0.190917
0.190688
0.190448
0.190198
0.18994
0.189678
0.189412
0.189145
0.188878
0.188613
0.188349
0.188088
0.18783
0.187577
0.187328
0.187084
0.186845
0.186612
0.186384
0.186161
0.185944
0.185733
0.185527
0.185326
0.185131
0.18494
0.184755
0.184574
0.184399
0.184227
0.18406
0.183896
0.183736
0.18358
0.183427
0.183277
0.18313
0.182986
0.182844
0.182704
0.182566
0.182429
0.182295
0.182161
0.182029
0.181898
0.181768
0.181639
0.18151
0.181382
0.181254
0.181127
0.180999
0.180872
0.180745
0.180618
0.18049
0.180363