/*--------------------------------*- C++ -*----------------------------------*\
  =========                 |
  \\      /  F ield         | OpenFOAM: The Open Source CFD Toolbox
   \\    /   O peration     | Website:  https://openfoam.org
    \\  /    A nd           | Version:  6
     \\/     M anipulation  |
\*---------------------------------------------------------------------------*/
FoamFile
{
    version     2.0;
    format      ascii;
    class       surfaceScalarField;
    location    "0.11";
    object      phi;
}
// * * * * * * * * * * * * * * * * * * * * * * * * * * * * * * * * * * * * * //

dimensions      [0 3 -1 0 0 0 0];

internalField   nonuniform List<scalar> 
24170
(
3.25672e-07
-6.8317e-09
3.19427e-07
6.24545e-09
3.15839e-07
3.58738e-09
3.0878e-07
7.05904e-09
3.01855e-07
6.92581e-09
2.96899e-07
4.9553e-09
2.93641e-07
3.25789e-09
2.9137e-07
2.27149e-09
2.89641e-07
1.72887e-09
2.88255e-07
1.38628e-09
2.8711e-07
1.14429e-09
2.86147e-07
9.63747e-10
2.85328e-07
8.18483e-10
2.84638e-07
6.90503e-10
2.84091e-07
5.46805e-10
2.8369e-07
4.00882e-10
2.83817e-07
-1.27247e-10
-6.89109e-10
2.84506e-07
3.50379e-07
-1.54856e-08
3.4782e-07
8.80375e-09
3.44082e-07
7.32606e-09
3.42246e-07
8.89446e-09
3.40096e-07
9.0761e-09
3.37644e-07
7.40764e-09
3.35348e-07
5.55403e-09
3.33408e-07
4.21111e-09
3.31824e-07
3.31314e-09
3.30528e-07
2.68159e-09
3.29456e-07
2.21658e-09
3.28557e-07
1.86314e-09
3.27795e-07
1.57986e-09
3.27148e-07
1.33827e-09
3.26604e-07
1.09046e-09
3.26168e-07
8.36574e-10
3.25835e-07
2.06009e-10
-4.66441e-10
3.25612e-07
3.63436e-07
-1.26696e-08
3.66563e-07
5.67688e-09
3.66727e-07
7.16154e-09
3.66906e-07
8.71589e-09
3.66547e-07
9.43453e-09
3.65576e-07
8.37886e-09
3.64318e-07
6.81235e-09
3.63046e-07
5.48278e-09
3.6189e-07
4.46914e-09
3.60881e-07
3.69027e-09
3.60013e-07
3.0852e-09
3.59267e-07
2.6085e-09
3.58629e-07
2.21871e-09
3.58083e-07
1.88352e-09
3.57619e-07
1.55465e-09
3.57242e-07
1.21345e-09
3.56827e-07
6.21628e-10
1.82422e-12
3.56358e-07
3.89238e-07
-9.36902e-09
3.91459e-07
3.45658e-09
3.92396e-07
6.22371e-09
3.93069e-07
8.0435e-09
3.93356e-07
9.14753e-09
3.93114e-07
8.62071e-09
3.92502e-07
7.42401e-09
3.91732e-07
6.25328e-09
3.90941e-07
5.25946e-09
3.90197e-07
4.43506e-09
3.89522e-07
3.75984e-09
3.88924e-07
3.20685e-09
3.88399e-07
2.74318e-09
3.87943e-07
2.33928e-09
3.87544e-07
1.95377e-09
3.87193e-07
1.56506e-09
3.86775e-07
1.03961e-09
5.17389e-10
3.86259e-07
4.18271e-07
-6.92695e-09
4.19414e-07
2.31327e-09
4.20304e-07
5.33339e-09
4.21075e-07
7.27253e-09
4.21648e-07
8.57489e-09
4.21823e-07
8.44596e-09
4.21646e-07
7.60107e-09
4.21259e-07
6.6394e-09
4.20781e-07
5.73802e-09
4.2028e-07
4.93608e-09
4.19795e-07
4.24494e-09
4.19345e-07
3.65658e-09
4.18938e-07
3.15012e-09
4.18574e-07
2.70308e-09
4.18243e-07
2.28467e-09
4.1793e-07
1.87885e-09
4.17549e-07
1.42046e-09
1.00738e-09
4.17059e-07
4.49037e-07
-5.05502e-09
4.49607e-07
1.74286e-09
4.50351e-07
4.5897e-09
4.5112e-07
6.50295e-09
4.51827e-07
7.86856e-09
4.5225e-07
8.02224e-09
4.52373e-07
7.47897e-09
4.52282e-07
6.73048e-09
4.52065e-07
5.95469e-09
4.51784e-07
5.21651e-09
4.51481e-07
4.54825e-09
4.5118e-07
3.95752e-09
4.50895e-07
3.43564e-09
4.50629e-07
2.96903e-09
4.50375e-07
2.53844e-09
4.50118e-07
2.13608e-09
4.49799e-07
1.73878e-09
1.41847e-09
4.49388e-07
4.8176e-07
-3.5431e-09
4.82058e-07
1.4453e-09
4.82664e-07
3.98364e-09
4.83388e-07
5.77838e-09
4.84142e-07
7.1149e-09
4.8471e-07
7.45429e-09
4.85037e-07
7.15204e-09
4.8517e-07
6.59737e-09
4.85169e-07
5.95547e-09
4.85083e-07
5.30231e-09
4.8495e-07
4.682e-09
4.84794e-07
4.11336e-09
4.84631e-07
3.59822e-09
4.84468e-07
3.13179e-09
4.84301e-07
2.70543e-09
4.84118e-07
2.31913e-09
4.83884e-07
1.973e-09
1.71858e-09
4.83584e-07
5.16752e-07
-2.33734e-09
5.16901e-07
1.29669e-09
5.17387e-07
3.49794e-09
5.18044e-07
5.12053e-09
5.18794e-07
6.3658e-09
5.19437e-07
6.8108e-09
5.19901e-07
6.68839e-09
5.20201e-07
6.29699e-09
5.20375e-07
5.78199e-09
5.20456e-07
5.22063e-09
5.20476e-07
4.66189e-09
5.20458e-07
4.13153e-09
5.20417e-07
3.63935e-09
5.20361e-07
3.18805e-09
5.20289e-07
2.77744e-09
5.20195e-07
2.41332e-09
5.20061e-07
2.10646e-09
1.89167e-09
5.19888e-07
5.54213e-07
-1.41688e-09
5.54274e-07
1.23594e-09
5.54663e-07
3.10895e-09
5.5525e-07
4.53344e-09
5.55967e-07
5.64917e-09
5.56641e-07
6.13631e-09
5.57192e-07
6.13757e-09
5.57614e-07
5.87484e-09
5.57925e-07
5.47092e-09
5.58148e-07
4.99823e-09
5.58304e-07
4.5057e-09
5.58413e-07
4.02241e-09
5.58489e-07
3.56347e-09
5.5854e-07
3.13709e-09
5.58568e-07
2.74893e-09
5.58573e-07
2.40819e-09
5.58551e-07
2.12861e-09
1.93179e-09
5.58511e-07
5.94309e-07
-7.48612e-10
5.94328e-07
1.2168e-09
5.94649e-07
2.78859e-09
5.95173e-07
4.0095e-09
5.95845e-07
4.97648e-09
5.96523e-07
5.45829e-09
5.97126e-07
5.53496e-09
5.97634e-07
5.3667e-09
5.98051e-07
5.05372e-09
5.98389e-07
4.66022e-09
5.98663e-07
4.23189e-09
5.98887e-07
3.79834e-09
5.99073e-07
3.37749e-09
5.99229e-07
2.98093e-09
5.99361e-07
2.61769e-09
5.99471e-07
2.29817e-09
5.99564e-07
2.03501e-09
1.84004e-09
5.99656e-07
6.37224e-07
-2.91906e-10
6.37236e-07
1.20506e-09
6.37516e-07
2.50841e-09
6.37991e-07
3.53452e-09
6.38619e-07
4.34862e-09
6.39286e-07
4.79175e-09
6.39916e-07
4.90462e-09
6.40483e-07
4.79974e-09
6.4098e-07
4.55639e-09
6.41412e-07
4.22911e-09
6.41785e-07
3.85849e-09
6.42111e-07
3.47267e-09
6.42398e-07
3.09027e-09
6.42654e-07
2.72433e-09
6.42887e-07
2.38518e-09
6.43102e-07
2.08276e-09
6.4331e-07
1.82703e-09
1.62307e-09
6.43527e-07
5.73831e-07
-3.9145e-11
5.73849e-07
1.1866e-09
5.74074e-07
2.28332e-09
5.74451e-07
3.15747e-09
5.74952e-07
3.84827e-09
5.75501e-07
4.24187e-09
5.76044e-07
4.36202e-09
5.76553e-07
4.29047e-09
5.77019e-07
4.09034e-09
5.77441e-07
3.80799e-09
5.7782e-07
3.47913e-09
5.78163e-07
3.12958e-09
5.78476e-07
2.77737e-09
5.78765e-07
2.43556e-09
5.79035e-07
2.11441e-09
5.79295e-07
1.82276e-09
5.79554e-07
1.56811e-09
1.35125e-09
5.79826e-07
6.99637e-07
1.39374e-10
6.99695e-07
1.12829e-09
6.9995e-07
2.02834e-09
7.00364e-07
2.74376e-09
7.00912e-07
3.3007e-09
7.01526e-07
3.62787e-09
7.02151e-07
3.73674e-09
7.02758e-07
3.68365e-09
7.03331e-07
3.51671e-09
7.03866e-07
3.27333e-09
7.04362e-07
2.98333e-09
7.04822e-07
2.66917e-09
7.05252e-07
2.34719e-09
7.05658e-07
2.02948e-09
7.06048e-07
1.72531e-09
7.06428e-07
1.44187e-09
7.06813e-07
1.18401e-09
9.49563e-10
7.07214e-07
8.5299e-07
2.34179e-10
8.53104e-07
1.0145e-09
8.53407e-07
1.72463e-09
8.5387e-07
2.28068e-09
8.54471e-07
2.69968e-09
8.55153e-07
2.94617e-09
8.55865e-07
3.02534e-09
8.56574e-07
2.97396e-09
8.57264e-07
2.82709e-09
8.57924e-07
2.61325e-09
8.58552e-07
2.3558e-09
8.59148e-07
2.073e-09
8.59716e-07
1.77854e-09
8.60263e-07
1.4826e-09
8.60796e-07
1.19272e-09
8.61323e-07
9.14216e-10
8.61858e-07
6.49655e-10
3.95269e-10
8.62412e-07
1.03991e-06
2.46984e-10
1.04009e-06
8.32406e-10
1.04046e-06
1.35263e-09
1.04099e-06
1.74958e-09
1.04166e-06
2.0317e-09
1.04242e-06
2.18753e-09
1.04323e-06
2.22114e-09
1.04404e-06
2.15541e-09
1.04486e-06
2.01447e-09
1.04565e-06
1.81874e-09
1.04642e-06
1.58515e-09
1.04717e-06
1.32728e-09
1.04789e-06
1.05549e-09
1.0486e-06
7.77462e-10
1.04929e-06
4.98666e-10
1.04998e-06
2.22598e-10
1.05068e-06
-4.96842e-11
-3.22371e-10
1.0514e-06
1.26773e-06
1.91529e-10
1.26799e-06
5.74234e-10
1.26845e-06
8.97538e-10
1.26907e-06
1.13082e-09
1.26982e-06
1.27693e-09
1.27067e-06
1.33577e-09
1.27158e-06
1.31188e-09
1.27252e-06
1.2187e-09
1.27346e-06
1.07141e-09
1.2744e-06
8.83166e-10
1.27532e-06
6.64935e-10
1.27622e-06
4.25567e-10
1.2771e-06
1.71874e-10
1.27797e-06
-9.11342e-11
1.27883e-06
-3.60008e-10
1.27969e-06
-6.32672e-10
1.28054e-06
-9.08837e-10
-1.19224e-09
1.28141e-06
1.54542e-06
8.68721e-11
1.54576e-06
2.41545e-10
1.5463e-06
3.52491e-10
1.54702e-06
4.09379e-10
1.54788e-06
4.14377e-10
1.54885e-06
3.7014e-10
1.54988e-06
2.80041e-10
1.55095e-06
1.50571e-10
1.55203e-06
-1.08936e-11
1.55311e-06
-1.97894e-10
1.55418e-06
-4.05095e-10
1.55524e-06
-6.28174e-10
1.55627e-06
-8.6378e-10
1.55729e-06
-1.10944e-09
1.55829e-06
-1.36343e-09
1.55929e-06
-1.62467e-09
1.56027e-06
-1.89313e-09
-2.17168e-09
1.56125e-06
1.8839e-06
-4.8713e-11
1.8843e-06
-1.54221e-10
1.88493e-06
-2.80939e-10
1.88576e-06
-4.22961e-10
1.88675e-06
-5.73458e-10
1.88785e-06
-7.30689e-10
1.88902e-06
-8.94496e-10
1.89024e-06
-1.0647e-09
1.89147e-06
-1.24154e-09
1.8927e-06
-1.42555e-09
1.89391e-06
-1.61717e-09
1.8951e-06
-1.81666e-09
1.89626e-06
-2.02412e-09
1.89739e-06
-2.23954e-09
1.89849e-06
-2.46279e-09
1.89956e-06
-2.69365e-09
1.9006e-06
-2.9322e-09
-3.18047e-09
1.9016e-06
2.29648e-06
-1.90545e-10
2.2969e-06
-5.80945e-10
2.29761e-06
-9.87774e-10
2.29855e-06
-1.36815e-09
2.29968e-06
-1.70321e-09
2.30095e-06
-1.99335e-09
2.30229e-06
-2.24097e-09
2.30368e-06
-2.45214e-09
2.30508e-06
-2.63638e-09
2.30645e-06
-2.80302e-09
2.3078e-06
-2.95958e-09
2.30909e-06
-3.11179e-09
2.31033e-06
-3.26394e-09
2.31151e-06
-3.41901e-09
2.31263e-06
-3.57886e-09
2.31368e-06
-3.74449e-09
2.31466e-06
-3.91645e-09
-4.09656e-09
2.31558e-06
1.68111e-06
-2.27906e-10
1.68132e-06
-7.93685e-10
1.68176e-06
-1.43213e-09
1.68241e-06
-2.01097e-09
1.68321e-06
-2.50155e-09
1.68412e-06
-2.90446e-09
1.68509e-06
-3.21752e-09
1.68609e-06
-3.45208e-09
1.68709e-06
-3.62825e-09
1.68805e-06
-3.7644e-09
1.68896e-06
-3.87476e-09
1.68982e-06
-3.97032e-09
1.69062e-06
-4.05932e-09
1.69134e-06
-4.14753e-09
1.692e-06
-4.23868e-09
1.69259e-06
-4.33491e-09
1.69312e-06
-4.43743e-09
-4.54804e-09
1.69357e-06
1.46334e-06
-1.14789e-10
1.46337e-06
-8.24693e-10
1.46368e-06
-1.74196e-09
1.46422e-06
-2.54455e-09
1.46493e-06
-3.21635e-09
1.46578e-06
-3.74895e-09
1.46668e-06
-4.12484e-09
1.4676e-06
-4.3674e-09
1.46849e-06
-4.51526e-09
1.46932e-06
-4.59939e-09
1.47009e-06
-4.64264e-09
1.47078e-06
-4.66256e-09
1.47139e-06
-4.67203e-09
1.47193e-06
-4.67972e-09
1.47238e-06
-4.69113e-09
1.47275e-06
-4.70946e-09
1.47305e-06
-4.7363e-09
-4.77337e-09
1.47328e-06
1.27361e-06
2.86461e-10
1.27343e-06
-6.39043e-10
1.27364e-06
-1.95515e-09
1.27413e-06
-3.0308e-09
1.27484e-06
-3.93184e-09
1.27571e-06
-4.61345e-09
1.27662e-06
-5.03448e-09
1.2775e-06
-5.25135e-09
1.27832e-06
-5.335e-09
1.27905e-06
-5.33362e-09
1.27969e-06
-5.28089e-09
1.28023e-06
-5.20209e-09
1.28067e-06
-5.11475e-09
1.28102e-06
-5.0299e-09
1.28129e-06
-4.95402e-09
1.28147e-06
-4.89053e-09
1.28157e-06
-4.84081e-09
-4.8059e-09
1.2816e-06
1.10823e-06
1.14964e-09
1.10783e-06
-2.38077e-10
1.10802e-06
-2.14951e-09
1.10855e-06
-3.5624e-09
1.10937e-06
-4.74805e-09
1.11033e-06
-5.57315e-09
1.11128e-06
-5.98471e-09
1.11214e-06
-6.11296e-09
1.11288e-06
-6.07726e-09
1.1135e-06
-5.9458e-09
1.11398e-06
-5.76387e-09
1.11434e-06
-5.56398e-09
1.11459e-06
-5.36667e-09
1.11475e-06
-5.18329e-09
1.11481e-06
-5.0195e-09
1.1148e-06
-4.87753e-09
1.11472e-06
-4.75737e-09
-4.65861e-09
1.11457e-06
9.64031e-07
2.63973e-09
9.63481e-07
3.12624e-10
9.63769e-07
-2.43782e-09
9.64455e-07
-4.24837e-09
9.65462e-07
-5.75488e-09
9.6655e-07
-6.66132e-09
9.67522e-07
-6.95722e-09
9.68313e-07
-6.90369e-09
9.68916e-07
-6.67964e-09
9.69341e-07
-6.37104e-09
9.69609e-07
-6.03184e-09
9.69743e-07
-5.69805e-09
9.69765e-07
-5.38895e-09
9.69694e-07
-5.11259e-09
9.69546e-07
-4.87112e-09
9.69332e-07
-4.66362e-09
9.69062e-07
-4.4874e-09
-4.33982e-09
9.68743e-07
8.3813e-07
5.0446e-09
8.377e-07
7.42775e-10
8.38265e-07
-3.00264e-09
8.39212e-07
-5.19558e-09
8.40451e-07
-6.9937e-09
8.41625e-07
-7.83557e-09
8.42527e-07
-7.85895e-09
8.43136e-07
-7.51239e-09
8.43489e-07
-7.03245e-09
8.4363e-07
-6.51282e-09
8.43606e-07
-6.00724e-09
8.43454e-07
-5.54678e-09
8.43208e-07
-5.14267e-09
8.4289e-07
-4.79485e-09
8.42518e-07
-4.49891e-09
8.42104e-07
-4.24911e-09
8.41656e-07
-4.03917e-09
-3.86366e-09
8.41179e-07
7.27623e-07
9.14964e-09
7.28079e-07
2.8714e-10
7.29228e-07
-4.15151e-09
7.30538e-07
-6.50601e-09
7.31974e-07
-8.42987e-09
7.33093e-07
-8.95453e-09
7.33746e-07
-8.51185e-09
7.34e-07
-7.7664e-09
7.33957e-07
-6.98931e-09
7.33704e-07
-6.25983e-09
7.33311e-07
-5.61355e-09
7.32827e-07
-5.06345e-09
7.32289e-07
-4.60442e-09
7.31718e-07
-4.22391e-09
7.31128e-07
-3.909e-09
7.30528e-07
-3.64857e-09
7.29921e-07
-3.43297e-09
-3.25399e-09
7.29312e-07
6.30211e-07
1.5945e-08
6.32717e-07
-2.21828e-09
6.34659e-07
-6.09352e-09
6.36382e-07
-8.22903e-09
6.37873e-07
-9.92116e-09
6.38671e-07
-9.75267e-09
6.38798e-07
-8.63839e-09
6.38463e-07
-7.43173e-09
6.37854e-07
-6.38015e-09
6.37099e-07
-5.5046e-09
6.36279e-07
-4.79346e-09
6.35441e-07
-4.22632e-09
6.34613e-07
-3.77584e-09
6.33805e-07
-3.4158e-09
6.33021e-07
-3.12574e-09
6.32264e-07
-2.8908e-09
6.3153e-07
-2.69961e-09
-2.54204e-09
6.30818e-07
5.47187e-07
2.33046e-08
5.51801e-07
-6.83253e-09
5.53467e-07
-7.75919e-09
5.55122e-07
-9.88454e-09
5.56152e-07
-1.09511e-08
5.5609e-07
-9.69041e-09
5.55241e-07
-7.7893e-09
5.54005e-07
-6.19626e-09
5.52648e-07
-5.02254e-09
5.51304e-07
-4.16088e-09
5.50032e-07
-3.52165e-09
5.4885e-07
-3.04453e-09
5.47758e-07
-2.68351e-09
5.46747e-07
-2.40459e-09
5.45806e-07
-2.18524e-09
5.44927e-07
-2.01169e-09
5.44102e-07
-1.87439e-09
-1.76469e-09
5.43325e-07
4.91613e-07
1.44527e-08
4.90685e-07
-5.90532e-09
4.87224e-07
-4.29753e-09
4.86221e-07
-8.88208e-09
4.84721e-07
-9.45075e-09
4.82309e-07
-7.27821e-09
4.79576e-07
-5.05617e-09
4.76971e-07
-3.59199e-09
4.74667e-07
-2.718e-09
4.72676e-07
-2.17024e-09
4.70958e-07
-1.80353e-09
4.69462e-07
-1.54827e-09
4.68142e-07
-1.36398e-09
4.66963e-07
-1.22532e-09
4.65896e-07
-1.11805e-09
4.64921e-07
-1.03681e-09
4.64029e-07
-9.82912e-10
-1.00163e-09
4.63266e-07
4.3472e-07
4.28815e-07
4.24517e-07
4.15635e-07
4.06185e-07
3.98906e-07
3.9385e-07
3.90258e-07
3.8754e-07
3.8537e-07
3.83567e-07
3.82018e-07
3.80654e-07
3.79429e-07
3.78311e-07
3.77274e-07
3.76291e-07
3.7529e-07
1.73294e-08
-1.73294e-08
2.41215e-08
-6.79215e-09
2.05078e-08
3.61369e-09
9.40679e-09
1.1101e-08
-5.68935e-09
1.50961e-08
-2.28576e-08
1.71683e-08
-4.14234e-08
1.85657e-08
-6.11595e-08
1.97362e-08
-8.19782e-08
2.08186e-08
-1.03788e-07
2.18096e-08
-1.26449e-07
2.26615e-08
-1.49773e-07
2.33242e-08
-1.73534e-07
2.37608e-08
-1.97486e-07
2.39516e-08
-2.21379e-07
2.38935e-08
-2.44976e-07
2.3597e-08
-2.68059e-07
2.30828e-08
-2.90437e-07
2.23779e-08
-3.11949e-07
2.15123e-08
-3.32465e-07
2.05159e-08
-3.51882e-07
1.94171e-08
-3.70123e-07
1.8241e-08
-3.87132e-07
1.70087e-08
-4.02869e-07
1.57371e-08
-4.17308e-07
1.44386e-08
-4.3043e-07
1.3122e-08
-4.42222e-07
1.17925e-08
-4.52675e-07
1.04526e-08
-4.61777e-07
9.10277e-09
-4.6952e-07
7.74205e-09
-4.75888e-07
6.36841e-09
-4.80867e-07
4.97954e-09
-4.84442e-07
3.57436e-09
-4.86598e-07
2.15657e-09
-4.8735e-07
7.5133e-10
-4.86771e-07
-5.78576e-10
-4.84958e-07
-1.81274e-09
-4.81965e-07
-2.99327e-09
-4.77815e-07
-4.15009e-09
-4.72517e-07
-5.29761e-09
-4.66076e-07
-6.44109e-09
-4.58495e-07
-7.58097e-09
-4.4978e-07
-8.71492e-09
-4.39942e-07
-9.83892e-09
-4.28994e-07
-1.09478e-08
-4.16958e-07
-1.20358e-08
-4.03861e-07
-1.30966e-08
-3.89738e-07
-1.41236e-08
-3.74627e-07
-1.51103e-08
-3.58577e-07
-1.60503e-08
-3.4164e-07
-1.69375e-08
-3.23873e-07
-1.77662e-08
-3.05342e-07
-1.85316e-08
-2.86112e-07
-1.92294e-08
-2.66256e-07
-1.98562e-08
-2.45847e-07
-2.04094e-08
-2.24959e-07
-2.08873e-08
-2.0367e-07
-2.1289e-08
-1.82056e-07
-2.16145e-08
-1.60192e-07
-2.18643e-08
-1.38153e-07
-2.20391e-08
-1.16013e-07
-2.21397e-08
-9.38465e-08
-2.21664e-08
-7.17287e-08
-2.21178e-08
-4.97373e-08
-2.19914e-08
-2.79465e-08
-2.17908e-08
-6.38499e-09
-2.15615e-08
1.49581e-08
-2.13431e-08
3.60479e-08
-2.10898e-08
5.68227e-08
-2.07748e-08
7.72409e-08
-2.04182e-08
9.72694e-08
-2.00285e-08
1.1688e-07
-1.9611e-08
1.3605e-07
-1.91694e-08
1.54756e-07
-1.87064e-08
1.72981e-07
-1.82244e-08
1.90706e-07
-1.77255e-08
2.07917e-07
-1.72112e-08
2.246e-07
-1.66832e-08
2.40743e-07
-1.61426e-08
2.56334e-07
-1.55908e-08
2.71362e-07
-1.50286e-08
2.8582e-07
-1.44571e-08
2.99697e-07
-1.38773e-08
3.12987e-07
-1.329e-08
3.25683e-07
-1.26964e-08
3.37781e-07
-1.20974e-08
3.49275e-07
-1.14943e-08
3.60163e-07
-1.08885e-08
3.70445e-07
-1.02813e-08
3.80119e-07
-9.67458e-09
3.89189e-07
-9.07007e-09
3.97659e-07
-8.46977e-09
4.05535e-07
-7.8758e-09
4.12825e-07
-7.29036e-09
4.19541e-07
-6.71573e-09
4.25695e-07
-6.15419e-09
4.31303e-07
-5.60799e-09
4.36383e-07
-5.07932e-09
4.40953e-07
-4.57023e-09
4.45035e-07
-4.0826e-09
4.48653e-07
-3.61807e-09
4.51832e-07
-3.17806e-09
4.54595e-07
-2.76362e-09
4.56971e-07
-2.37557e-09
4.58985e-07
-2.01432e-09
4.60665e-07
-1.67998e-09
4.62037e-07
-1.37227e-09
4.63128e-07
-1.0904e-09
4.63961e-07
-8.33357e-10
4.6456e-07
-5.99035e-10
4.64938e-07
-3.77822e-10
4.65091e-07
-1.53136e-10
4.65028e-07
6.29682e-11
4.64788e-07
2.402e-10
4.64413e-07
3.75149e-10
4.63933e-07
4.79259e-10
4.63372e-07
5.61114e-10
4.62746e-07
6.26092e-10
4.62068e-07
6.78076e-10
4.61349e-07
7.19683e-10
4.60596e-07
7.52764e-10
4.59817e-07
7.78682e-10
4.59019e-07
7.98557e-10
4.58205e-07
8.13301e-10
4.57382e-07
8.23704e-10
4.56551e-07
8.30474e-10
4.55717e-07
8.34198e-10
4.54881e-07
8.35412e-10
4.54047e-07
8.34582e-10
4.53215e-07
8.32096e-10
4.52386e-07
8.28319e-10
4.51563e-07
8.23532e-10
4.50745e-07
8.18009e-10
4.49933e-07
8.11967e-10
4.49127e-07
8.056e-10
4.48328e-07
7.99057e-10
4.47536e-07
7.925e-10
4.4675e-07
7.86024e-10
4.4597e-07
7.79733e-10
4.45196e-07
7.73709e-10
4.44428e-07
7.68016e-10
4.43666e-07
7.62713e-10
4.42908e-07
7.57833e-10
4.42154e-07
7.53417e-10
4.41405e-07
7.4949e-10
4.40659e-07
7.46085e-10
4.39916e-07
7.4323e-10
4.39175e-07
7.40954e-10
4.38435e-07
7.3928e-10
4.37697e-07
7.38234e-10
4.36959e-07
7.37858e-10
4.36221e-07
7.38196e-10
4.35482e-07
7.39289e-10
4.3474e-07
7.41213e-10
4.33996e-07
7.4405e-10
4.33249e-07
7.47923e-10
4.32496e-07
7.52971e-10
4.31736e-07
7.59394e-10
4.30969e-07
7.67445e-10
4.30191e-07
7.77477e-10
4.29401e-07
7.89932e-10
4.28596e-07
8.05423e-10
4.27771e-07
8.24748e-10
4.26922e-07
8.49004e-10
4.26042e-07
8.79672e-10
4.25124e-07
9.18775e-10
4.24155e-07
9.69163e-10
4.2312e-07
1.03487e-09
4.21998e-07
1.12175e-09
4.20759e-07
1.23858e-09
4.1936e-07
1.39894e-09
4.17735e-07
1.62501e-09
4.15781e-07
1.95453e-09
4.13322e-07
2.45917e-09
4.10048e-07
3.27347e-09
4.05313e-07
4.73476e-09
3.97911e-07
7.40248e-09
3.84206e-07
1.37046e-08
2.37822e-08
3.60424e-07
-5.48453e-09
-1.18448e-08
-1.78382e-08
5.5615e-09
-3.17568e-08
1.75323e-08
-4.72909e-08
2.66351e-08
-6.53321e-08
3.31374e-08
-8.5763e-08
3.75991e-08
-1.07925e-07
4.07278e-08
-1.31187e-07
4.29979e-08
-1.55017e-07
4.46488e-08
-1.78982e-07
4.57749e-08
-2.02726e-07
4.64049e-08
-2.25952e-07
4.65507e-08
-2.48422e-07
4.62307e-08
-2.69948e-07
4.54772e-08
-2.9039e-07
4.4336e-08
-3.09655e-07
4.28618e-08
-3.27686e-07
4.11139e-08
-3.44459e-07
3.91511e-08
-3.59975e-07
3.7028e-08
-3.74252e-07
3.4793e-08
-3.87321e-07
3.24863e-08
-3.9922e-07
3.01401e-08
-4.0999e-07
2.77785e-08
-4.19671e-07
2.54185e-08
-4.28304e-07
2.30709e-08
-4.35924e-07
2.07417e-08
-4.42564e-07
1.84329e-08
-4.48255e-07
1.6144e-08
-4.53025e-07
1.38728e-08
-4.569e-07
1.16167e-08
-4.59905e-07
9.37292e-09
-4.62065e-07
7.14036e-09
-4.63411e-07
4.92045e-09
-4.63973e-07
2.71792e-09
-4.63757e-07
5.35611e-10
-4.62694e-07
-1.64154e-09
-4.60674e-07
-3.83263e-09
-4.57627e-07
-6.0409e-09
-4.53513e-07
-8.26401e-09
-4.48311e-07
-1.04989e-08
-4.42012e-07
-1.27408e-08
-4.3461e-07
-1.49831e-08
-4.26107e-07
-1.72177e-08
-4.16511e-07
-1.94345e-08
-4.05836e-07
-2.16227e-08
-3.94102e-07
-2.377e-08
-3.81335e-07
-2.58639e-08
-3.67567e-07
-2.78913e-08
-3.52838e-07
-2.98392e-08
-3.37194e-07
-3.16949e-08
-3.20685e-07
-3.34464e-08
-3.03368e-07
-3.50828e-08
-2.85306e-07
-3.65942e-08
-2.66563e-07
-3.79723e-08
-2.47209e-07
-3.92105e-08
-2.27314e-07
-4.03039e-08
-2.06952e-07
-4.12492e-08
-1.86196e-07
-4.20451e-08
-1.65119e-07
-4.26917e-08
-1.43792e-07
-4.31908e-08
-1.22286e-07
-4.35452e-08
-1.00667e-07
-4.37588e-08
-7.89974e-08
-4.3836e-08
-5.73335e-08
-4.37817e-08
-3.57234e-08
-4.36015e-08
-1.42073e-08
-4.33069e-08
7.15093e-09
-4.29197e-08
2.82627e-08
-4.24549e-08
4.90836e-08
-4.19107e-08
6.95974e-08
-4.12887e-08
8.97771e-08
-4.05979e-08
1.09595e-07
-3.98467e-08
1.29026e-07
-3.9042e-08
1.48047e-07
-3.81897e-08
1.66635e-07
-3.72953e-08
1.84774e-07
-3.63631e-08
2.02446e-07
-3.53973e-08
2.19636e-07
-3.44014e-08
2.36332e-07
-3.33784e-08
2.5252e-07
-3.23311e-08
2.68191e-07
-3.12616e-08
2.83335e-07
-3.01723e-08
2.97942e-07
-2.90648e-08
3.12006e-07
-2.79412e-08
3.25519e-07
-2.68032e-08
3.38476e-07
-2.56527e-08
3.5087e-07
-2.44917e-08
3.62698e-07
-2.33223e-08
3.73957e-07
-2.2147e-08
3.84644e-07
-2.09684e-08
3.94759e-07
-1.97895e-08
4.04302e-07
-1.86136e-08
4.13276e-07
-1.74441e-08
4.21685e-07
-1.62848e-08
4.29535e-07
-1.51397e-08
4.36832e-07
-1.40129e-08
4.43586e-07
-1.29085e-08
4.49809e-07
-1.18309e-08
4.55514e-07
-1.07839e-08
4.60715e-07
-9.7717e-09
4.6543e-07
-8.79777e-09
4.69678e-07
-7.86547e-09
4.73477e-07
-6.97766e-09
4.7685e-07
-6.13674e-09
4.79819e-07
-5.34453e-09
4.82407e-07
-4.6023e-09
4.84638e-07
-3.91071e-09
4.86536e-07
-3.26975e-09
4.88124e-07
-2.67878e-09
4.89427e-07
-2.13659e-09
4.90469e-07
-1.64105e-09
4.91279e-07
-1.18766e-09
4.91898e-07
-7.71987e-10
4.92353e-07
-3.92303e-10
4.92645e-07
-5.19089e-11
4.92776e-07
2.44703e-10
4.92756e-07
4.98697e-10
4.92603e-07
7.14664e-10
4.92331e-07
8.97409e-10
4.91958e-07
1.05138e-09
4.91497e-07
1.18048e-09
4.90962e-07
1.28803e-09
4.90364e-07
1.37688e-09
4.89713e-07
1.44952e-09
4.89018e-07
1.5081e-09
4.88287e-07
1.55456e-09
4.87527e-07
1.59057e-09
4.86744e-07
1.61767e-09
4.85942e-07
1.6372e-09
4.85126e-07
1.65033e-09
4.843e-07
1.65813e-09
4.83467e-07
1.66152e-09
4.82629e-07
1.6613e-09
4.81789e-07
1.65819e-09
4.80948e-07
1.65281e-09
4.80108e-07
1.64567e-09
4.7927e-07
1.63727e-09
4.78434e-07
1.62799e-09
4.77602e-07
1.61817e-09
4.76774e-07
1.6081e-09
4.75949e-07
1.59804e-09
4.75129e-07
1.58818e-09
4.74313e-07
1.5787e-09
4.73501e-07
1.56975e-09
4.72693e-07
1.56145e-09
4.71889e-07
1.55391e-09
4.71088e-07
1.54722e-09
4.7029e-07
1.54146e-09
4.69494e-07
1.53671e-09
4.687e-07
1.53304e-09
4.67908e-07
1.53051e-09
4.67116e-07
1.52922e-09
4.66325e-07
1.52922e-09
4.65534e-07
1.53065e-09
4.64742e-07
1.53361e-09
4.63947e-07
1.53826e-09
4.63151e-07
1.5448e-09
4.6235e-07
1.55348e-09
4.61545e-07
1.56465e-09
4.60733e-07
1.57874e-09
4.59915e-07
1.59636e-09
4.59086e-07
1.61824e-09
4.58246e-07
1.64543e-09
4.57392e-07
1.6793e-09
4.56519e-07
1.72166e-09
4.55624e-07
1.77501e-09
4.547e-07
1.84274e-09
4.53739e-07
1.92954e-09
4.52732e-07
2.04201e-09
4.51664e-07
2.18963e-09
4.50517e-07
2.38635e-09
4.49262e-07
2.65329e-09
4.47863e-07
3.024e-09
4.46264e-07
3.55337e-09
4.44383e-07
4.34083e-09
4.42095e-07
5.56155e-09
4.39202e-07
7.62745e-09
4.35413e-07
1.1191e-08
4.30276e-07
1.88419e-08
3.2922e-08
4.21136e-07
-2.05464e-08
8.70156e-09
-3.98537e-08
2.48688e-08
-5.82724e-08
3.5951e-08
-7.63829e-08
4.47456e-08
-9.48697e-08
5.16242e-08
-1.14062e-07
5.67913e-08
-1.33858e-07
6.05239e-08
-1.53949e-07
6.30893e-08
-1.73992e-07
6.46915e-08
-1.93688e-07
6.54707e-08
-2.1281e-07
6.55269e-08
-2.31202e-07
6.49426e-08
-2.48768e-07
6.37966e-08
-2.65459e-07
6.21689e-08
-2.81263e-07
6.014e-08
-2.9619e-07
5.77884e-08
-3.10263e-07
5.51869e-08
-3.23512e-07
5.24003e-08
-3.35968e-07
4.94841e-08
-3.47658e-07
4.64835e-08
-3.58606e-07
4.34338e-08
-3.68827e-07
4.03612e-08
-3.78333e-07
3.72839e-08
-3.87127e-07
3.42131e-08
-3.95211e-07
3.11546e-08
-4.02579e-07
2.81101e-08
-4.09224e-07
2.5078e-08
-4.15135e-07
2.20548e-08
-4.20298e-07
1.90355e-08
-4.24696e-07
1.60148e-08
-4.2831e-07
1.29874e-08
-4.31118e-07
9.94832e-09
-4.33091e-07
6.89311e-09
-4.3419e-07
3.81711e-09
-4.34368e-07
7.13388e-10
-4.33582e-07
-2.42795e-09
-4.31802e-07
-5.61267e-09
-4.29003e-07
-8.83902e-09
-4.25166e-07
-1.21015e-08
-4.20273e-07
-1.53921e-08
-4.14313e-07
-1.8701e-08
-4.0728e-07
-2.2016e-08
-3.99174e-07
-2.53234e-08
-3.90001e-07
-2.86074e-08
-3.79773e-07
-3.18508e-08
-3.68508e-07
-3.50351e-08
-3.56231e-07
-3.81408e-08
-3.42974e-07
-4.11485e-08
-3.28775e-07
-4.40384e-08
-3.13678e-07
-4.67915e-08
-2.97735e-07
-4.93899e-08
-2.81e-07
-5.18171e-08
-2.63536e-07
-5.40587e-08
-2.45406e-07
-5.61023e-08
-2.26678e-07
-5.79383e-08
-2.07422e-07
-5.95593e-08
-1.87711e-07
-6.0961e-08
-1.67614e-07
-6.21416e-08
-1.47204e-07
-6.31018e-08
-1.2655e-07
-6.38447e-08
-1.0572e-07
-6.43756e-08
-8.47771e-08
-6.47014e-08
-6.37825e-08
-6.48307e-08
-4.27906e-08
-6.47735e-08
-2.18505e-08
-6.45417e-08
-1.00953e-09
-6.41479e-08
1.96768e-08
-6.3606e-08
4.01529e-08
-6.2931e-08
6.03776e-08
-6.21354e-08
8.03188e-08
-6.12299e-08
9.99464e-08
-6.02254e-08
1.19232e-07
-5.91327e-08
1.38152e-07
-5.79612e-08
1.56682e-07
-5.67197e-08
1.74802e-07
-5.5416e-08
1.92496e-07
-5.40569e-08
2.09747e-07
-5.26485e-08
2.26542e-07
-5.11962e-08
2.42868e-07
-4.97045e-08
2.58714e-07
-4.81774e-08
2.74071e-07
-4.66185e-08
2.8893e-07
-4.50308e-08
3.03282e-07
-4.34172e-08
3.17121e-07
-4.17803e-08
3.30441e-07
-4.01226e-08
3.43235e-07
-3.84469e-08
3.55499e-07
-3.67558e-08
3.67229e-07
-3.50524e-08
3.78422e-07
-3.33399e-08
3.89076e-07
-3.1622e-08
3.99189e-07
-2.99027e-08
4.08761e-07
-2.81863e-08
4.17795e-07
-2.64776e-08
4.26292e-07
-2.47819e-08
4.34257e-07
-2.31045e-08
4.41695e-07
-2.1451e-08
4.48614e-07
-1.98275e-08
4.55023e-07
-1.82396e-08
4.60932e-07
-1.66931e-08
4.66354e-07
-1.51938e-08
4.71303e-07
-1.37469e-08
4.75795e-07
-1.23572e-08
4.79846e-07
-1.10291e-08
4.83476e-07
-9.76636e-09
4.86703e-07
-8.57192e-09
4.89549e-07
-7.44804e-09
4.92034e-07
-6.39613e-09
4.94181e-07
-5.41678e-09
4.96012e-07
-4.50977e-09
4.9755e-07
-3.67407e-09
4.98817e-07
-2.90778e-09
4.99837e-07
-2.20809e-09
5.00637e-07
-1.57187e-09
5.0124e-07
-9.9554e-10
5.01665e-07
-4.76809e-10
5.01925e-07
-1.51488e-11
5.02033e-07
3.91062e-10
5.02002e-07
7.45261e-10
5.01848e-07
1.0518e-09
5.01584e-07
1.31535e-09
5.01224e-07
1.54045e-09
5.0078e-07
1.73141e-09
5.00265e-07
1.89214e-09
4.99688e-07
2.02626e-09
4.99059e-07
2.137e-09
4.98387e-07
2.22734e-09
4.97677e-07
2.29993e-09
4.96938e-07
2.35718e-09
4.96174e-07
2.40125e-09
4.9539e-07
2.43407e-09
4.94591e-07
2.45736e-09
4.9378e-07
2.47266e-09
4.9296e-07
2.48132e-09
4.92133e-07
2.48451e-09
4.91303e-07
2.48328e-09
4.9047e-07
2.47856e-09
4.89636e-07
2.47113e-09
4.88802e-07
2.46168e-09
4.8797e-07
2.4508e-09
4.87139e-07
2.439e-09
4.8631e-07
2.42672e-09
4.85484e-07
2.41432e-09
4.8466e-07
2.40213e-09
4.8384e-07
2.39041e-09
4.83022e-07
2.3794e-09
4.82207e-07
2.36927e-09
4.81394e-07
2.36022e-09
4.80583e-07
2.35239e-09
4.79773e-07
2.34591e-09
4.78966e-07
2.34091e-09
4.78159e-07
2.33751e-09
4.77352e-07
2.33582e-09
4.76545e-07
2.33601e-09
4.75738e-07
2.3382e-09
4.74929e-07
2.3426e-09
4.74117e-07
2.34942e-09
4.73303e-07
2.35896e-09
4.72485e-07
2.37159e-09
4.71662e-07
2.38779e-09
4.70833e-07
2.4082e-09
4.69995e-07
2.43365e-09
4.69148e-07
2.46523e-09
4.68289e-07
2.5044e-09
4.67416e-07
2.55308e-09
4.66523e-07
2.61386e-09
4.65608e-07
2.69024e-09
4.64664e-07
2.78697e-09
4.63683e-07
2.91061e-09
4.62654e-07
3.07033e-09
4.61565e-07
3.2792e-09
4.60395e-07
3.55626e-09
4.59118e-07
3.92998e-09
4.57698e-07
4.44459e-09
4.5608e-07
5.17106e-09
4.54189e-07
6.23186e-09
4.51914e-07
7.83696e-09
4.49116e-07
1.04253e-08
4.45602e-07
1.4705e-08
4.4167e-07
2.27736e-08
3.685e-08
4.37742e-07
-2.4398e-08
3.30996e-08
-4.61878e-08
4.66586e-08
-6.61729e-08
5.59361e-08
-8.49162e-08
6.34889e-08
-1.02918e-07
6.96259e-08
-1.20512e-07
7.43855e-08
-1.37827e-07
7.78389e-08
-1.54842e-07
8.01043e-08
-1.7147e-07
8.13187e-08
-1.87615e-07
8.16166e-08
-2.03211e-07
8.11222e-08
-2.18218e-07
7.99499e-08
-2.32627e-07
7.82057e-08
-2.46447e-07
7.59886e-08
-2.59696e-07
7.33893e-08
-2.72397e-07
7.04891e-08
-2.84569e-07
6.73586e-08
-2.96226e-07
6.40576e-08
-3.07377e-07
6.06348e-08
-3.18021e-07
5.71283e-08
-3.28155e-07
5.35669e-08
-3.37764e-07
4.99711e-08
-3.46835e-07
4.63541e-08
-3.55345e-07
4.27235e-08
-3.63272e-07
3.90819e-08
-3.70591e-07
3.54286e-08
-3.77273e-07
3.176e-08
-3.83289e-07
2.80708e-08
-3.88608e-07
2.43545e-08
-3.93197e-07
2.06041e-08
-3.97022e-07
1.68127e-08
-4.00048e-07
1.29736e-08
-4.02235e-07
9.08064e-09
-4.03546e-07
5.12814e-09
-4.03944e-07
1.111e-09
-4.03397e-07
-2.97462e-09
-4.01881e-07
-7.129e-09
-3.99372e-07
-1.13481e-08
-3.95849e-07
-1.56239e-08
-3.91296e-07
-1.99451e-08
-3.857e-07
-2.42975e-08
-3.79052e-07
-2.86643e-08
-3.71349e-07
-3.3026e-08
-3.62596e-07
-3.73607e-08
-3.52802e-07
-4.16447e-08
-3.41984e-07
-4.58525e-08
-3.30167e-07
-4.99577e-08
-3.17382e-07
-5.39336e-08
-3.03667e-07
-5.77535e-08
-2.89067e-07
-6.13917e-08
-2.73633e-07
-6.48241e-08
-2.57421e-07
-6.80288e-08
-2.40493e-07
-7.09863e-08
-2.22915e-07
-7.36806e-08
-2.04754e-07
-7.6099e-08
-1.86081e-07
-7.82323e-08
-1.66967e-07
-8.0075e-08
-1.47483e-07
-8.16255e-08
-1.277e-07
-8.28854e-08
-1.07685e-07
-8.38596e-08
-8.75048e-08
-8.45557e-08
-6.72221e-08
-8.49841e-08
-4.68958e-08
-8.5157e-08
-2.65805e-08
-8.50888e-08
-6.32699e-09
-8.47951e-08
1.38161e-08
-8.4291e-08
3.38032e-08
-8.35931e-08
5.35918e-08
-8.27197e-08
7.31434e-08
-8.1687e-08
9.24242e-08
-8.05106e-08
1.11404e-07
-7.92053e-08
1.30056e-07
-7.77848e-08
1.48357e-07
-7.62619e-08
1.66285e-07
-7.46481e-08
1.83823e-07
-7.29537e-08
2.00954e-07
-7.11878e-08
2.17664e-07
-6.93585e-08
2.3394e-07
-6.74726e-08
2.49772e-07
-6.55364e-08
2.6515e-07
-6.35549e-08
2.80064e-07
-6.15329e-08
2.94508e-07
-5.94742e-08
3.08473e-07
-5.73825e-08
3.21954e-07
-5.52611e-08
3.34944e-07
-5.31133e-08
3.4744e-07
-5.09423e-08
3.59436e-07
-4.87515e-08
3.70928e-07
-4.65446e-08
3.81913e-07
-4.43255e-08
3.9239e-07
-4.20986e-08
4.02356e-07
-3.98689e-08
4.11812e-07
-3.76417e-08
4.20757e-07
-3.54229e-08
4.29194e-07
-3.32187e-08
4.37125e-07
-3.10359e-08
4.44556e-07
-2.88815e-08
4.51491e-07
-2.67627e-08
4.57938e-07
-2.4687e-08
4.63907e-07
-2.26616e-08
4.69407e-07
-2.06937e-08
4.7445e-07
-1.87902e-08
4.7905e-07
-1.69574e-08
4.83222e-07
-1.5201e-08
4.86982e-07
-1.35262e-08
4.90347e-07
-1.19371e-08
4.93336e-07
-1.04369e-08
4.95968e-07
-9.02811e-09
4.98263e-07
-7.7119e-09
5.00242e-07
-6.4886e-09
5.01925e-07
-5.35758e-09
5.03335e-07
-4.31729e-09
5.04492e-07
-3.3653e-09
5.05419e-07
-2.49857e-09
5.06136e-07
-1.71313e-09
5.06664e-07
-1.00495e-09
5.0702e-07
-3.70819e-10
5.07219e-07
1.92566e-10
5.07275e-07
6.89265e-10
5.07202e-07
1.12403e-09
5.07016e-07
1.50198e-09
5.06728e-07
1.82833e-09
5.06351e-07
2.10819e-09
5.05897e-07
2.3464e-09
5.05376e-07
2.54756e-09
5.04797e-07
2.71591e-09
5.04169e-07
2.85534e-09
5.03499e-07
2.96947e-09
5.02795e-07