/*--------------------------------*- C++ -*----------------------------------*\
  =========                 |
  \\      /  F ield         | OpenFOAM: The Open Source CFD Toolbox
   \\    /   O peration     | Website:  https://openfoam.org
    \\  /    A nd           | Version:  6
     \\/     M anipulation  |
\*---------------------------------------------------------------------------*/
FoamFile
{
    version     2.0;
    format      ascii;
    class       volVectorField;
    location    "0.11";
    object      U;
}
// * * * * * * * * * * * * * * * * * * * * * * * * * * * * * * * * * * * * * //

dimensions      [0 1 -1 0 0 0 0];

internalField   nonuniform List<vector> 
12225
(
(0.948756 -0.405569 0)
(1.01272 -0.190675 0)
(1.01483 -0.0514069 0)
(0.983569 -0.00516403 0)
(0.955666 0.00449376 0)
(0.937431 0.00419737 0)
(0.925426 0.00254626 0)
(0.917015 0.0014368 0)
(0.910844 0.000879847 0)
(0.906063 0.000611339 0)
(0.902162 0.000467058 0)
(0.898885 0.000376713 0)
(0.8961 0.000309447 0)
(0.893754 0.000250978 0)
(0.891753 0.000172199 0)
(0.890513 9.38381e-05 0)
(0.888912 -0.000236502 0)
(0.894219 -0.000930319 0)
(1.03698 0.0761186 0)
(1.02002 0.0533066 0)
(1.01142 0.0193722 0)
(1.00446 0.00897367 0)
(0.998221 0.00666448 0)
(0.991618 0.00520968 0)
(0.984637 0.00393683 0)
(0.978313 0.00305835 0)
(0.973145 0.00249369 0)
(0.968984 0.00210075 0)
(0.965562 0.001808 0)
(0.962701 0.00158289 0)
(0.960284 0.00139882 0)
(0.958244 0.00123522 0)
(0.956478 0.00104347 0)
(0.955147 0.000843833 0)
(0.953744 8.76976e-05 0)
(0.95358 -0.000407822 0)
(0.998332 0.0132086 0)
(0.995381 0.011934 0)
(1.00089 0.00636542 0)
(1.00207 0.00645645 0)
(1.00151 0.00692886 0)
(0.999746 0.00621233 0)
(0.996608 0.00511923 0)
(0.992982 0.00420282 0)
(0.989598 0.0035185 0)
(0.986642 0.00299735 0)
(0.984089 0.00259329 0)
(0.981893 0.0022748 0)
(0.980009 0.00201066 0)
(0.978403 0.00177514 0)
(0.977017 0.001519 0)
(0.975908 0.00122314 0)
(0.974801 0.000538714 0)
(0.973834 -0.000359469 0)
(0.995105 -0.00695651 0)
(0.992509 0.00122521 0)
(0.998676 0.0038814 0)
(1.00099 0.0058632 0)
(1.0019 0.00692172 0)
(1.00203 0.00663931 0)
(1.0009 0.00581584 0)
(0.999 0.00500454 0)
(0.996938 0.00432269 0)
(0.994961 0.00375839 0)
(0.993145 0.00329522 0)
(0.991521 0.00291377 0)
(0.99009 0.00258794 0)
(0.988847 0.00229269 0)
(0.987757 0.00198327 0)
(0.986829 0.00163178 0)
(0.985877 0.0010205 0)
(0.984793 0.000300514 0)
(0.996672 -0.0069482 0)
(0.993846 0.000790512 0)
(0.998136 0.00367911 0)
(1.00024 0.00543638 0)
(1.00164 0.00660643 0)
(1.00263 0.00665321 0)
(1.00262 0.00611988 0)
(1.00186 0.00547963 0)
(1.00077 0.00487199 0)
(0.999578 0.00432442 0)
(0.998391 0.00384661 0)
(0.997271 0.00343412 0)
(0.996249 0.00307024 0)
(0.995335 0.00273505 0)
(0.994512 0.00239369 0)
(0.993767 0.00202359 0)
(0.992977 0.00150943 0)
(0.991985 0.000980292 0)
(0.997829 -0.00415973 0)
(0.995182 0.00123093 0)
(0.997954 0.00339088 0)
(0.999745 0.00491296 0)
(1.00129 0.00611854 0)
(1.00265 0.00640324 0)
(1.00327 0.00612519 0)
(1.00324 0.00566759 0)
(1.00286 0.00516845 0)
(1.00228 0.00467673 0)
(1.00162 0.00421971 0)
(1.00094 0.00380575 0)
(1.00028 0.00342825 0)
(0.999669 0.00307489 0)
(0.999096 0.0027231 0)
(0.998545 0.00236097 0)
(0.997937 0.00194118 0)
(0.997135 0.00156671 0)
(0.998453 -0.00258497 0)
(0.996238 0.00112128 0)
(0.998034 0.00294017 0)
(0.999524 0.00436953 0)
(1.00101 0.00556398 0)
(1.00248 0.0060038 0)
(1.00343 0.00592799 0)
(1.00387 0.00563594 0)
(1.00398 0.0052528 0)
(1.00387 0.00483604 0)
(1.00363 0.00442224 0)
(1.00332 0.00402865 0)
(1.00298 0.00365754 0)
(1.00265 0.0033046 0)
(1.00231 0.00295928 0)
(1.00196 0.00262052 0)
(1.00154 0.0022812 0)
(1.00098 0.00202165 0)
(0.998886 -0.00174703 0)
(0.997146 0.000921211 0)
(0.998304 0.00254417 0)
(0.999513 0.0038706 0)
(1.00086 0.00499912 0)
(1.00229 0.00552437 0)
(1.00339 0.0055968 0)
(1.00411 0.00544177 0)
(1.00455 0.00516682 0)
(1.00478 0.00482967 0)
(1.00487 0.00447005 0)
(1.00486 0.00411039 0)
(1.0048 0.00375969 0)
(1.0047 0.00342075 0)
(1.00458 0.0030929 0)
(1.00442 0.00278373 0)
(1.00421 0.00250666 0)
(1.0039 0.0023221 0)
(0.999236 -0.00113629 0)
(0.99793 0.000827775 0)
(0.998667 0.00224353 0)
(0.999634 0.00342759 0)
(1.00081 0.00445178 0)
(1.00213 0.00500763 0)
(1.00327 0.00517881 0)
(1.00414 0.00512868 0)
(1.00479 0.00494579 0)
(1.00526 0.00468332 0)
(1.00559 0.00438005 0)
(1.00582 0.00406057 0)
(1.00599 0.00373832 0)
(1.0061 0.00342143 0)
(1.00617 0.00311632 0)
(1.0062 0.0028359 0)
(1.00619 0.00260141 0)
(1.00611 0.00245558 0)
(0.999504 -0.000653242 0)
(0.998576 0.000806924 0)
(0.99905 0.00200798 0)
(0.999828 0.00303452 0)
(1.00084 0.00393529 0)
(1.00203 0.00448053 0)
(1.00313 0.00470767 0)
(1.00407 0.00473067 0)
(1.00484 0.00461975 0)
(1.00547 0.00442106 0)
(1.00598 0.00416998 0)
(1.0064 0.00389095 0)
(1.00674 0.00359969 0)
(1.00702 0.00330765 0)
(1.00726 0.00302539 0)
(1.00747 0.00276794 0)
(1.00764 0.0025568 0)
(1.00777 0.00241987 0)
(0.999695 -0.000303138 0)
(0.999082 0.000803899 0)
(0.99941 0.00180822 0)
(1.00005 0.00268126 0)
(1.00093 0.00345298 0)
(1.00198 0.00395827 0)
(1.00302 0.00420626 0)
(1.00397 0.00427334 0)
(1.0048 0.00421325 0)
(1.00553 0.00406417 0)
(1.00616 0.00385679 0)
(1.0067 0.00361382 0)
(1.00718 0.00335146 0)
(1.0076 0.00308252 0)
(1.00799 0.00281912 0)
(1.00833 0.00257585 0)
(1.00866 0.0023707 0)
(1.00898 0.00221989 0)
(0.999812 -8.9107e-05 0)
(0.999428 0.000793241 0)
(0.999695 0.00163948 0)
(1.00025 0.00238235 0)
(1.00103 0.00303877 0)
(1.00197 0.00349041 0)
(1.00294 0.00373319 0)
(1.00387 0.00381835 0)
(1.00472 0.00378666 0)
(1.00549 0.00366919 0)
(1.00619 0.00349191 0)
(1.00682 0.00327507 0)
(1.00739 0.00303402 0)
(1.00791 0.00278136 0)
(1.00839 0.00252889 0)
(1.00885 0.00228926 0)
(1.0093 0.00207617 0)
(1.00975 0.00189777 0)
(0.999892 4.73946e-05 0)
(0.999687 0.000768356 0)
(0.999931 0.00147556 0)
(1.00043 0.0020994 0)
(1.00113 0.00264718 0)
(1.00198 0.00303689 0)
(1.00288 0.00325891 0)
(1.00377 0.00334629 0)
(1.00462 0.00332892 0)
(1.00541 0.00323132 0)
(1.00615 0.00307484 0)
(1.00683 0.00287684 0)
(1.00747 0.00265105 0)
(1.00806 0.00240899 0)
(1.00863 0.00216108 0)
(1.00917 0.00191748 0)
(1.00972 0.00168747 0)
(1.01027 0.00147288 0)
(0.99995 0.00013042 0)
(0.999888 0.000713373 0)
(1.00013 0.00128569 0)
(1.0006 0.00178744 0)
(1.00123 0.00222024 0)
(1.002 0.00253376 0)
(1.00283 0.00271726 0)
(1.00367 0.0027901 0)
(1.00449 0.00277286 0)
(1.00529 0.00268363 0)
(1.00604 0.00253874 0)
(1.00676 0.002352 0)
(1.00744 0.00213469 0)
(1.00809 0.00189621 0)
(1.00872 0.00164471 0)
(1.00934 0.00138718 0)
(1.00996 0.00112855 0)
(1.01059 0.000865912 0)
(0.999986 0.00016007 0)
(1.00003 0.000615491 0)
(1.00029 0.00105511 0)
(1.00073 0.00143376 0)
(1.00132 0.00174928 0)
(1.00201 0.0019755 0)
(1.00277 0.00210393 0)
(1.00356 0.0021448 0)
(1.00435 0.00211136 0)
(1.00512 0.00201595 0)
(1.00588 0.00186998 0)
(1.00661 0.00168333 0)
(1.00731 0.00146416 0)
(1.008 0.0012191 0)
(1.00867 0.000953386 0)
(1.00933 0.000670815 0)
(1.01 0.000372665 0)
(1.01068 5.30902e-05 0)
(1 0.000142643 0)
(1.00011 0.000467855 0)
(1.00038 0.000771035 0)
(1.00081 0.00102352 0)
(1.00136 0.00122102 0)
(1.002 0.00135205 0)
(1.0027 0.00141165 0)
(1.00344 0.00140473 0)
(1.00418 0.00133905 0)
(1.00493 0.00122213 0)
(1.00566 0.0010609 0)
(1.00638 0.000861339 0)
(1.00708 0.000628271 0)
(1.00777 0.000365297 0)
(1.00845 7.47842e-05 0)
(1.00913 -0.000242246 0)
(1.0098 -0.000586997 0)
(1.01048 -0.000966569 0)
(1.00001 8.90326e-05 0)
(1.00014 0.000269305 0)
(1.00042 0.000425675 0)
(1.00084 0.000543522 0)
(1.00135 0.000619095 0)
(1.00195 0.000647911 0)
(1.0026 0.000627597 0)
(1.00329 0.00056 0)
(1.00399 0.000448662 0)
(1.00469 0.000297053 0)
(1.00539 0.000108196 0)
(1.00607 -0.000115483 0)
(1.00675 -0.000372303 0)
(1.00741 -0.000661397 0)
(1.00807 -0.000982751 0)
(1.00871 -0.00133725 0)
(1.00935 -0.00172732 0)
(1.00999 -0.00215998 0)
(1.00001 1.10939e-05 0)
(1.00015 2.48827e-05 0)
(1.00042 1.76206e-05 0)
(1.00081 -1.42385e-05 0)
(1.0013 -7.09627e-05 0)
(1.00186 -0.000153854 0)
(1.00247 -0.00026423 0)
(1.0031 -0.000402428 0)
(1.00376 -0.000568482 0)
(1.00441 -0.000762644 0)
(1.00506 -0.000985414 0)
(1.0057 -0.00123754 0)
(1.00632 -0.00152004 0)
(1.00693 -0.00183426 0)
(1.00752 -0.00218183 0)
(1.0081 -0.00256468 0)
(1.00866 -0.00298557 0)
(1.0092 -0.0034506 0)
(1.00001 -7.99074e-05 0)
(1.00013 -0.000255133 0)
(1.00037 -0.0004498 0)
(1.00073 -0.000653234 0)
(1.00119 -0.000859272 0)
(1.00172 -0.00106708 0)
(1.00229 -0.00127732 0)
(1.00289 -0.00149217 0)
(1.0035 -0.00171527 0)
(1.0041 -0.00195073 0)
(1.0047 -0.00220253 0)
(1.00527 -0.00247436 0)
(1.00583 -0.00276966 0)
(1.00635 -0.00309155 0)
(1.00685 -0.00344284 0)
(1.00733 -0.00382606 0)
(1.00777 -0.00424384 0)
(1.00818 -0.00470122 0)
(1 -0.000140621 0)
(1.00006 -0.000473751 0)
(1.00024 -0.000846041 0)
(1.00057 -0.00121493 0)
(1.00101 -0.00156571 0)
(1.00152 -0.00189419 0)
(1.00209 -0.00219698 0)
(1.00268 -0.00247666 0)
(1.00328 -0.00274073 0)
(1.00386 -0.00299749 0)
(1.00442 -0.00325451 0)
(1.00495 -0.00351853 0)
(1.00545 -0.00379543 0)
(1.0059 -0.00409016 0)
(1.00631 -0.00440676 0)
(1.00669 -0.00474847 0)
(1.00702 -0.0051181 0)
(1.00731 -0.00552001 0)
(0.999979 -0.000125821 0)
(0.999904 -0.000566848 0)
(0.999998 -0.00110747 0)
(1.00029 -0.00163092 0)
(1.00073 -0.00211909 0)
(1.00127 -0.00256122 0)
(1.00188 -0.00294362 0)
(1.00251 -0.00326993 0)
(1.00313 -0.00355406 0)
(1.00373 -0.00380985 0)
(1.00428 -0.00404923 0)
(1.00478 -0.00428263 0)
(1.00522 -0.00451885 0)
(1.00562 -0.00476497 0)
(1.00595 -0.00502645 0)
(1.00624 -0.00530745 0)
(1.00647 -0.00561119 0)
(1.00665 -0.0059418 0)
(0.999909 1.66684e-05 0)
(0.999561 -0.000522166 0)
(0.999535 -0.00127501 0)
(0.999834 -0.0019807 0)
(1.00033 -0.00263515 0)
(1.00096 -0.0032071 0)
(1.00167 -0.0036643 0)
(1.00239 -0.00401909 0)
(1.00307 -0.0042991 0)
(1.00368 -0.00452718 0)
(1.00422 -0.00472171 0)
(1.00468 -0.00489842 0)
(1.00507 -0.00506993 0)
(1.00538 -0.00524579 0)
(1.00562 -0.00543297 0)
(1.00579 -0.00563649 0)
(1.00591 -0.0058599 0)
(1.00596 -0.00610702 0)
(0.999761 0.000343492 0)
(0.998922 -0.000361862 0)
(0.998793 -0.00139759 0)
(0.99919 -0.00231996 0)
(0.999833 -0.00318381 0)
(1.00066 -0.00389902 0)
(1.00154 -0.00440918 0)
(1.00238 -0.00475556 0)
(1.00311 -0.00499175 0)
(1.00372 -0.00515379 0)
(1.00421 -0.00526892 0)
(1.00459 -0.00535957 0)
(1.00487 -0.00544253 0)
(1.00505 -0.00552942 0)
(1.00515 -0.00562813 0)
(1.00517 -0.00574391 0)
(1.00512 -0.00588007 0)
(1.00502 -0.00603974 0)
(0.99951 0.000974124 0)
(0.997885 -0.000174838 0)
(0.997784 -0.00159584 0)
(0.998449 -0.00274537 0)
(0.999369 -0.00384598 0)
(1.00048 -0.00468657 0)
(1.00159 -0.00519229 0)
(1.00253 -0.00546633 0)
(1.00325 -0.00560154 0)
(1.00377 -0.00564982 0)
(1.00413 -0.00564822 0)
(1.00433 -0.00562573 0)
(1.00441 -0.00560197 0)
(1.00438 -0.00558896 0)
(1.00426 -0.0055939 0)
(1.00408 -0.005621 0)
(1.00382 -0.00567224 0)
(1.00352 -0.00574936 0)
(0.998979 0.00254863 0)
(0.996232 0.000221515 0)
(0.996601 -0.00191654 0)
(0.997821 -0.00335001 0)
(0.999144 -0.00468576 0)
(1.00061 -0.00557559 0)
(1.0019 -0.00597378 0)
(1.00281 -0.00608591 0)
(1.00337 -0.00605218 0)
(1.00365 -0.00593885 0)
(1.00371 -0.00579043 0)
(1.0036 -0.00563915 0)
(1.00335 -0.00550372 0)
(1.00301 -0.00539326 0)
(1.0026 -0.00531182 0)
(1.00213 -0.00526075 0)
(1.00161 -0.00523954 0)
(1.00107 -0.00524775 0)
(0.997455 0.00615384 0)
(0.993439 0.00154474 0)
(0.99532 -0.0020234 0)
(0.997596 -0.00406807 0)
(0.999421 -0.00567581 0)
(1.00117 -0.00648709 0)
(1.00245 -0.00663883 0)
(1.00306 -0.00648886 0)
(1.00316 -0.00622396 0)
(1.00293 -0.00591743 0)
(1.00247 -0.00561356 0)
(1.00186 -0.00534016 0)
(1.00116 -0.00510872 0)
(1.00039 -0.00492105 0)
(0.999596 -0.00477528 0)
(0.99878 -0.00466843 0)
(0.997954 -0.00459673 0)
(0.997128 -0.00455705 0)
(0.994437 0.008595 0)
(0.989447 0.00232407 0)
(0.994118 -0.00190834 0)
(0.998024 -0.00474871 0)
(1.00041 -0.00665588 0)
(1.00217 -0.00722099 0)
(1.00294 -0.00697923 0)
(1.00272 -0.00648844 0)
(1.0019 -0.00596638 0)
(1.00078 -0.00547544 0)
(0.999528 -0.00504501 0)
(0.998215 -0.00468738 0)
(0.9969 -0.00439976 0)
(0.995612 -0.00417293 0)
(0.994361 -0.00399764 0)
(0.993152 -0.00386635 0)
(0.99198 -0.00377248 0)
(0.990853 -0.00370973 0)
(0.994525 -0.0066555 0)
(0.989483 -0.0085288 0)
(0.995467 -0.00528663 0)
(0.999966 -0.00621017 0)
(1.00229 -0.00759834 0)
(1.00314 -0.00755174 0)
(1.00231 -0.00676395 0)
(1.00029 -0.00591117 0)
(0.997841 -0.00517849 0)
(0.995361 -0.00457495 0)
(0.992992 -0.00409195 0)
(0.990777 -0.00371663 0)
(0.988726 -0.00342919 0)
(0.986832 -0.00320963 0)
(0.985075 -0.00304282 0)
(0.983437 -0.00291873 0)
(0.981902 -0.0028305 0)
(0.980459 -0.00276613 0)
(1.02649 -0.0702292 0)
(1.01709 -0.0623923 0)
(1.01184 -0.0292169 0)
(1.00844 -0.014869 0)
(1.0056 -0.0103258 0)
(1.00168 -0.00783815 0)
(0.996363 -0.00596967 0)
(0.990678 -0.00469539 0)
(0.9855 -0.00386484 0)
(0.981054 -0.00329595 0)
(0.977243 -0.00288653 0)
(0.973935 -0.00258758 0)
(0.971034 -0.00236785 0)
(0.968458 -0.00220434 0)
(0.966141 -0.00208207 0)
(0.964033 -0.00199381 0)
(0.962102 -0.00193864 0)
(0.960332 -0.00193895 0)
(0.966188 0.350229 0)
(1.02693 0.19427 0)
(1.03272 0.0679218 0)
(1.00459 0.0152684 0)
(0.976346 -0.00126616 0)
(0.956306 -0.00431946 0)
(0.942438 -0.00360591 0)
(0.932446 -0.00246099 0)
(0.925036 -0.00164894 0)
(0.919325 -0.00116434 0)
(0.914686 -0.000885078 0)
(0.910747 -0.000722866 0)
(0.907306 -0.00062676 0)
(0.904242 -0.000568366 0)
(0.901467 -0.000532484 0)
(0.898915 -0.000513562 0)
(0.896523 -0.000507948 0)
(0.894242 -0.000565731 0)
(0.00767267 -0.0332307 -2.36074e-21)
(0.0201827 -0.0242888 2.20764e-21)
(0.0221733 -0.00480247 0)
(0.0148159 0.00972883 0)
(0.00229782 0.0160609 0)
(-0.0123538 0.018053 -2.0886e-21)
(-0.0283151 0.0189812 0)
(-0.0453826 0.0198588 0)
(-0.063459 0.0208714 0)
(-0.0824835 0.021954 0)
(-0.102357 0.0229928 1.79359e-21)
(-0.122933 0.0238847 0)
(-0.144022 0.024553 0)
(-0.16541 0.0249504 0)
(-0.186875 0.0250565 0)
(-0.208197 0.0248734 1.71584e-21)
(-0.229171 0.0244201 0)
(-0.249615 0.0237262 0)
(-0.269369 0.0228275 0)
(-0.288306 0.0217611 0)
(-0.306319 0.0205625 0)
(-0.323329 0.0192634 0)
(-0.339275 0.0178906 0)
(-0.354116 0.0164654 1.73831e-21)
(-0.367819 0.0150037 -1.73677e-21)
(-0.380365 0.0135166 1.73258e-21)
(-0.391738 0.0120116 1.72541e-21)
(-0.401928 0.0104928 0)
(-0.410922 0.00896343 0)
(-0.418709 0.00742616 -1.68339e-21)
(-0.425276 0.00588525 -1.66176e-21)
(-0.430613 0.00435044 0)
(-0.434706 0.00283978 0)
(-0.437548 0.00138021 -1.57128e-21)
(-0.439119 1.49315e-05 0)
(-0.439361 -0.0012114 0)
(-0.438514 -0.00231703 1.43325e-21)
(-0.436592 -0.00335859 0)
(-0.433618 -0.00436882 1.31118e-21)
(-0.429601 -0.0053625 2.48203e-21)
(-0.424544 -0.00634548 0)
(-0.41845 -0.00731906 0)
(-0.41132 -0.00828207 0)
(-0.40316 -0.00923191 0)
(-0.393978 -0.0101651 0)
(-0.38379 -0.0110776 1.37244e-21)
(-0.372614 -0.0119651 1.14245e-21)
(-0.360477 -0.0128232 8.99868e-22)
(-0.34741 -0.0136477 0)
(-0.333451 -0.0144343 -3.78066e-22)
(-0.318645 -0.0151793 0)
(-0.303038 -0.0158794 -1.89952e-22)
(-0.286687 -0.0165316 -4.90058e-22)
(-0.269648 -0.0171336 0)
(-0.251984 -0.0176838 0)
(-0.233759 -0.0181811 0)
(-0.21504 -0.0186248 -1.78355e-21)
(-0.195895 -0.0190146 0)
(-0.176393 -0.0193502 0)
(-0.156603 -0.0196311 0)
(-0.136593 -0.0198557 0)
(-0.116431 -0.0200206 0)
(-0.0961847 -0.0201186 0)
(-0.0759238 -0.0201368 0)
(-0.0557176 -0.0200532 0)
(-0.0356341 -0.0198371 5.04669e-21)
(-0.0157211 -0.0194583 0)
(0.00401254 -0.018928 0)
(0.0235625 -0.0183206 -5.59343e-21)
(0.042887 -0.0176955 -5.60967e-21)
(0.0619321 -0.0170683 0)
(0.0806617 -0.0164441 5.60437e-21)
(0.099047 -0.0158256 -5.58599e-21)
(0.117064 -0.0152142 0)
(0.13469 -0.0146107 5.52449e-21)
(0.151907 -0.0140157 0)
(0.168697 -0.0134296 0)
(0.185045 -0.0128525 -5.38674e-21)
(0.200936 -0.0122845 0)
(0.216357 -0.0117256 5.2749e-21)
(0.231298 -0.011176 0)
(0.245745 -0.0106355 -5.15355e-21)
(0.259691 -0.0101042 -5.09071e-21)
(0.273124 -0.00958206 -5.02707e-21)
(0.286038 -0.00906914 -9.92604e-21)
(0.298424 -0.00856559 9.79789e-21)
(0.310275 -0.00807162 0)
(0.321587 -0.00758751 0)
(0.332355 -0.00711369 0)
(0.342575 -0.00665063 9.29659e-21)
(0.352246 -0.00619895 9.17646e-21)
(0.361368 -0.00575935 -9.05914e-21)
(0.369943 -0.00533258 0)
(0.377974 -0.00491947 8.83395e-21)
(0.385466 -0.00452088 8.72646e-21)
(0.392429 -0.00413766 8.62256e-21)
(0.398871 -0.00377065 0)
(0.404805 -0.00342062 0)
(0.410244 -0.00308827 0)
(0.415206 -0.00277419 8.24378e-21)
(0.419708 -0.00247884 0)
(0.423771 -0.00220254 0)
(0.427416 -0.00194545 -7.99762e-21)
(0.430665 -0.00170754 0)
(0.433543 -0.00148861 0)
(0.436073 -0.00128831 -7.78111e-21)
(0.438281 -0.0011061 0)
(0.44019 -0.000941254 0)
(0.441826 -0.000792768 7.59043e-21)
(0.443212 -0.000659894 7.53191e-21)
(0.444369 -0.000541826 0)
(0.445321 -0.00043203 -7.42173e-21)
(0.446071 -0.000316182 0)
(0.446595 -0.000196868 7.31997e-21)
(0.446935 -9.65227e-05 0)
(0.447136 -2.52295e-05 7.2245e-21)
(0.447227 2.28621e-05 7.17902e-21)
(0.447234 5.5442e-05 0)
(0.447175 7.76619e-05 0)
(0.447064 9.28663e-05 0)
(0.446912 0.000103161 0)
(0.446728 0.000109832 0)
(0.446519 0.000113707 0)
(0.446293 0.000115366 0)
(0.446053 0.000115243 6.85529e-21)
(0.445804 0.000113685 -6.81873e-21)
(0.445552 0.000110981 0)
(0.445297 0.000107372 0)
(0.445045 0.000103064 0)
(0.444796 9.82297e-05 0)
(0.444552 9.3016e-05 -1.32904e-20)
(0.444316 8.75448e-05 0)
(0.444087 8.19181e-05 1.31588e-20)
(0.443868 7.62205e-05 -1.30942e-20)
(0.443658 7.05221e-05 0)
(0.443459 6.48798e-05 0)
(0.44327 5.93405e-05 0)
(0.443092 5.39423e-05 1.28433e-20)
(0.442925 4.87151e-05 1.27822e-20)
(0.442768 4.36822e-05 0)
(0.442622 3.88614e-05 1.26615e-20)
(0.442486 3.42653e-05 1.26019e-20)
(0.44236 2.99021e-05 -1.25428e-20)
(0.442243 2.57766e-05 0)
(0.442137 2.18914e-05 0)
(0.442039 1.82479e-05 -1.23681e-20)
(0.441949 1.48479e-05 0)
(0.441867 1.16934e-05 0)
(0.441793 8.78761e-06 0)
(0.441726 6.13404e-06 0)
(0.441666 3.73796e-06 1.20841e-20)
(0.441611 1.60706e-06 1.20283e-20)
(0.441562 -2.48302e-07 0)
(0.441517 -1.814e-06 1.19176e-20)
(0.441476 -3.07056e-06 0)
(0.441438 -3.99116e-06 0)
(0.441402 -4.53971e-06 1.17539e-20)
(0.441367 -4.66805e-06 0)
(0.441331 -4.31199e-06 1.16465e-20)
(0.441294 -3.38592e-06 0)
(0.441254 -1.77615e-06 0)
(0.441208 6.68153e-07 1.14886e-20)
(0.441153 4.14743e-06 0)
(0.441086 8.92934e-06 1.1386e-20)
(0.441003 1.53735e-05 0)
(0.440897 2.39667e-05 0)
(0.440762 3.5375e-05 0)
(0.440587 5.05229e-05 -1.11917e-20)
(0.440358 7.07168e-05 0)
(0.440056 9.78423e-05 1.11043e-20)
(0.439655 0.000134705 0)
(0.439117 0.000185612 0)
(0.438387 0.000257559 0)
(0.437377 0.000362221 0)
(0.435952 0.000522009 0)
(0.433843 0.000776133 0)
(0.430699 0.00123354 0)
(0.425143 0.00202936 -2.21739e-20)
(0.417245 0.00405109 0)
(0.394134 0.00675587 0)
(-0.00732129 -0.0324199 6.46912e-21)
(-0.0108009 -0.00314902 -5.34894e-21)
(-0.0210455 0.0181188 0)
(-0.0340522 0.0338133 2.73993e-21)
(-0.0493568 0.0440715 0)
(-0.0666785 0.0503784 1.25269e-21)
(-0.0857698 0.0544803 -2.36692e-21)
(-0.106121 0.0574227 -2.29847e-21)
(-0.127214 0.0596483 0)
(-0.148622 0.0612757 -2.21266e-21)
(-0.169997 0.062298 -1.11272e-21)
(-0.19105 0.0626861 0)
(-0.211542 0.0624313 0)
(-0.231284 0.0615562 0)
(-0.25013 0.0601118 0)
(-0.267975 0.05817 -1.11431e-21)
(-0.284753 0.055814 0)
(-0.30043 0.0531302 2.26235e-21)
(-0.314994 0.0502018 0)
(-0.328455 0.0471042 0)
(-0.340834 0.043902 -2.32426e-21)
(-0.352163 0.0406482 0)
(-0.362476 0.0373838 2.35305e-21)
(-0.371809 0.0341388 -1.1787e-21)
(-0.380195 0.0309332 1.18002e-21)
(-0.387669 0.0277791 -1.17872e-21)
(-0.394261 0.0246818 -1.17462e-21)
(-0.399996 0.021642 0)
(-0.4049 0.0186567 0)
(-0.408995 0.0157211 1.144e-21)
(-0.412303 0.0128292 -1.14903e-21)
(-0.414846 0.00997654 0)
(-0.416647 0.00716316 0)
(-0.417724 0.00439898 1.05728e-21)
(-0.418097 0.00170698 0)
(-0.417807 -0.000884319 0)
(-0.416679 -0.00337964 -9.51776e-22)
(-0.414639 -0.00581164 0)
(-0.411648 -0.00820039 9.17338e-22)
(-0.407682 -0.0105557 -1.62091e-21)
(-0.402723 -0.0128795 0)
(-0.396762 -0.0151686 0)
(-0.389799 -0.0174164 -2.70326e-21)
(-0.381834 -0.0196145 -2.45423e-21)
(-0.372875 -0.0217529 -2.19176e-21)
(-0.362936 -0.0238206 1.05681e-21)
(-0.352036 -0.0258062 -7.0993e-22)
(-0.340199 -0.0276984 -1.88431e-21)
(-0.327457 -0.0294859 1.01975e-21)
(-0.313845 -0.0311584 2.29164e-22)
(-0.299407 -0.0327063 0)
(-0.28419 -0.0341213 1.13151e-22)
(-0.268247 -0.0353968 -1.97261e-23)
(-0.251633 -0.0365275 0)
(-0.234408 -0.03751 0)
(-0.216637 -0.0383427 0)
(-0.198382 -0.0390257 1.01536e-21)
(-0.17971 -0.0395609 0)
(-0.160686 -0.0399514 -2.4619e-21)
(-0.141377 -0.0402017 0)
(-0.121846 -0.0403174 -3.19151e-21)
(-0.102154 -0.0403042 0)
(-0.0823619 -0.0401681 3.91691e-21)
(-0.0625217 -0.0399139 0)
(-0.0426812 -0.0395448 -4.63553e-21)
(-0.0228815 -0.0390612 2.34079e-21)
(-0.00317001 -0.0384591 0)
(0.0163847 -0.0377406 5.47481e-21)
(0.0357213 -0.0369307 2.96162e-21)
(0.0548092 -0.0360577 3.02994e-21)
(0.0736297 -0.035139 0)
(0.0921584 -0.0341852 2.89025e-21)
(0.11037 -0.0332037 3.18748e-21)
(0.128241 -0.0322004 0)
(0.145751 -0.03118 -3.25774e-21)
(0.16288 -0.0301463 6.35779e-21)
(0.179613 -0.0291029 0)
(0.195933 -0.0280527 3.32057e-21)
(0.211828 -0.026998 0)
(0.227284 -0.0259411 -9.84749e-21)
(0.242291 -0.0248838 0)
(0.256837 -0.0238277 9.87802e-21)
(0.270914 -0.0227743 3.34079e-21)
(0.284514 -0.0217249 -3.20099e-21)
(0.297628 -0.0206809 -6.40367e-21)
(0.310248 -0.0196438 6.40085e-21)
(0.32237 -0.0186149 0)
(0.333987 -0.0175959 0)
(0.345095 -0.0165884 0)
(0.35569 -0.0155945 -1.94214e-20)
(0.36577 -0.0146161 -6.50221e-21)
(0.375334 -0.0136554 6.46991e-21)
(0.384381 -0.0127148 0)
(0.392914 -0.0117969 6.27335e-21)
(0.400935 -0.010904 -6.36872e-21)
(0.40845 -0.0100387 -6.33438e-21)
(0.415465 -0.00920351 0)
(0.42199 -0.00840076 0)
(0.428033 -0.00763267 0)
(0.433608 -0.0069012 -6.19849e-21)
(0.438728 -0.00620806 0)
(0.443409 -0.0055546 1.2206e-20)
(0.447667 -0.00494182 1.82488e-20)
(0.451523 -0.00437032 -1.20907e-20)
(0.454995 -0.00384028 0)
(0.458103 -0.00335147 -5.97012e-21)
(0.46087 -0.00290323 0)
(0.463317 -0.00249448 -1.18666e-20)
(0.465466 -0.00212368 5.89332e-21)
(0.46734 -0.00178898 5.86784e-21)
(0.46896 -0.00148749 0)
(0.47035 -0.00121237 1.74845e-20)
(0.471538 -0.000955276 -1.15983e-20)
(0.472576 -0.000720205 -5.77924e-21)
(0.473464 -0.000519421 0)
(0.474198 -0.000355588 -5.7245e-21)
(0.474787 -0.000223085 -1.70842e-20)
(0.475244 -0.000115899 0)
(0.475585 -2.94356e-05 -1.12825e-20)
(0.475826 3.99816e-05 -1.1231e-20)
(0.475979 9.52537e-05 -1.11799e-20)
(0.47606 0.000138656 0)
(0.476078 0.000172037 0)
(0.476045 0.00019694 0)
(0.47597 0.000214678 5.48996e-21)
(0.475861 0.000226383 5.46644e-21)
(0.475724 0.000233035 0)
(0.475567 0.000235488 1.08365e-20)
(0.475393 0.000234482 1.07892e-20)
(0.475208 0.000230657 0)
(0.475015 0.000224567 1.06956e-20)
(0.474818 0.000216688 2.12996e-20)
(0.47462 0.000207428 -1.06036e-20)
(0.474423 0.000197135 -1.05591e-20)
(0.474229 0.000186105 0)
(0.474039 0.000174588 0)
(0.473856 0.000162794 0)
(0.473679 0.000150899 -1.03795e-20)
(0.473509 0.000139049 1.03363e-20)
(0.473348 0.000127362 2.05842e-20)
(0.473196 0.000115935 -1.02482e-20)
(0.473052 0.000104847 1.02054e-20)
(0.472918 9.41569e-05 1.01616e-20)
(0.472792 8.3913e-05 0)
(0.472676 7.41521e-05 0)
(0.472568 6.49037e-05 -1.00334e-20)
(0.472469 5.61916e-05 0)
(0.472378 4.80362e-05 0)
(0.472295 4.04555e-05 1.98117e-20)
(0.47222 3.34661e-05 0)
(0.472152 2.70849e-05 9.82149e-21)
(0.472091 2.13316e-05 -9.77966e-21)
(0.472035 1.62303e-05 0)
(0.471986 1.18118e-05 9.6958e-21)
(0.471941 8.11702e-06 0)
(0.471901 5.2014e-06 0)
(0.471865 3.13913e-06 -9.57167e-21)
(0.471831 2.0295e-06 1.90605e-20)
(0.471799 2.00501e-06 -9.48946e-21)
(0.471767 3.24231e-06 0)
(0.471734 5.97623e-06 0)
(0.471699 1.05187e-05 9.36719e-21)
(0.47166 1.72845e-05 0)
(0.471613 2.68275e-05 9.28764e-21)
(0.471556 3.98911e-05 0)
(0.471484 5.74803e-05 0)
(0.471393 8.09678e-05 0)
(0.471274 0.000112253 9.13638e-21)
(0.471119 0.00015401 0)
(0.470915 0.000210079 -9.06757e-21)
(0.470645 0.000286135 0)
(0.470285 0.000390828 0)
(0.469802 0.000538021 1.7969e-20)
(0.469146 0.000750674 -1.79333e-20)
(0.468249 0.00107139 0)
(0.466984 0.00157599 0)
(0.465254 0.00245258 0)
(0.462518 0.00398379 5.42196e-20)
(0.459422 0.00744926 0)
(0.452825 0.0133709 -3.71039e-20)
(-0.0173017 -0.00153871 -2.16621e-22)
(-0.0284065 0.0279845 5.90107e-21)
(-0.0432261 0.0491058 0)
(-0.0593456 0.065537 -4.20989e-21)
(-0.0757611 0.0778151 0)
(-0.092606 0.0865457 0)
(-0.110043 0.0925444 -1.62751e-23)
(-0.127905 0.0965076 1.73414e-21)
(-0.145886 0.0988956 1.72826e-21)
(-0.16369 0.0999735 1.67799e-21)
(-0.181083 0.099898 0)
(-0.197896 0.0987862 0)
(-0.214019 0.0967528 -1.70299e-21)
(-0.22939 0.0939229 -3.4215e-21)
(-0.243984 0.0904304 3.44286e-21)
(-0.257802 0.0864118 0)
(-0.270858 0.0819981 3.49481e-21)
(-0.28318 0.077309 -1.73019e-21)
(-0.294792 0.0724481 0)
(-0.305722 0.0675011 3.57153e-21)
(-0.315991 0.0625359 1.77322e-21)
(-0.325615 0.0576027 -3.6081e-21)
(-0.334607 0.052737 -1.7909e-21)
(-0.342972 0.0479612 0)
(-0.350711 0.0432875 3.6249e-21)
(-0.357821 0.0387202 3.61796e-21)
(-0.364296 0.0342584 0)
(-0.370126 0.0298973 3.58237e-21)
(-0.375298 0.0256305 0)
(-0.379799 0.021451 3.51519e-21)
(-0.383611 0.017352 1.71277e-21)
(-0.386715 0.0133277 0)
(-0.389087 0.0093722 0)
(-0.390694 0.00547739 0)
(-0.391495 0.00162825 0)
(-0.391452 -0.00220047 0)
(-0.390524 -0.00602386 0)
(-0.388686 -0.00983697 2.85699e-21)
(-0.385918 -0.0136312 -4.04004e-21)
(-0.382201 -0.0173966 0)
(-0.377521 -0.0211222 0)
(-0.371867 -0.0247952 0)
(-0.365236 -0.0284008 -1.23718e-22)
(-0.357629 -0.0319228 1.78477e-21)
(-0.34905 -0.0353435 3.31352e-21)
(-0.339512 -0.0386444 -2.91062e-21)
(-0.329034 -0.0418066 -1.32122e-21)
(-0.317638 -0.0448113 9.52574e-22)
(-0.305354 -0.0476405 1.61269e-22)
(-0.292219 -0.0502773 6.64057e-22)
(-0.278274 -0.0527063 0)
(-0.263566 -0.0549146 2.00356e-22)
(-0.248147 -0.0568914 1.80127e-22)
(-0.232072 -0.0586286 0)
(-0.2154 -0.0601211 0)
(-0.198193 -0.0613667 7.61195e-22)
(-0.180514 -0.062366 0)
(-0.162429 -0.0631223 0)
(-0.144 -0.0636416 -1.29221e-21)
(-0.125292 -0.0639319 -3.46107e-21)
(-0.106367 -0.0640033 2.1699e-21)
(-0.0872849 -0.0638674 0)
(-0.0681016 -0.063537 -2.64261e-21)
(-0.0488698 -0.0630262 0)
(-0.0296364 -0.0623501 -2.69932e-21)
(-0.0104449 -0.0615255 -3.31449e-21)
(0.00865838 -0.0605712 6.5785e-21)
(0.0276217 -0.0595065 3.24642e-21)
(0.0463986 -0.0583444 0)
(0.0649558 -0.0570947 -7.41111e-21)
(0.0832657 -0.0557689 0)
(0.101301 -0.0543785 -1.1969e-20)
(0.119037 -0.0529338 -8.06803e-21)
(0.136452 -0.0514442 -8.25118e-21)
(0.153524 -0.0499177 8.41783e-21)
(0.170237 -0.0483616 -1.29964e-20)
(0.186574 -0.0467819 0)
(0.202521 -0.0451841 0)
(0.218065 -0.0435729 8.93718e-21)
(0.233196 -0.0419521 1.36712e-20)
(0.247902 -0.0403253 0)
(0.262174 -0.0386955 -4.70617e-21)
(0.276003 -0.0370654 0)
(0.289383 -0.0354375 1.40788e-20)
(0.302305 -0.0338142 1.8249e-22)
(0.314764 -0.0321979 -1.7207e-22)
(0.326753 -0.030591 -9.45044e-21)
(0.338267 -0.028996 0)
(0.349302 -0.0274158 9.50595e-21)
(0.359854 -0.0258531 1.33264e-22)
(0.369921 -0.0243113 0)
(0.379502 -0.0227936 0)
(0.388595 -0.0213037 0)
(0.397201 -0.0198454 -9.67014e-21)
(0.405322 -0.0184225 0)
(0.412963 -0.0170389 0)
(0.420127 -0.0156985 0)
(0.426822 -0.014405 0)
(0.433055 -0.0131621 0)
(0.438836 -0.011973 -9.56131e-21)
(0.444177 -0.0108407 0)
(0.449091 -0.00976753 -9.59319e-21)
(0.453592 -0.00875557 -9.5777e-21)
(0.457695 -0.00780619 9.56108e-21)
(0.461419 -0.00692019 0)
(0.46478 -0.00609774 9.52452e-21)
(0.467799 -0.00533842 0)
(0.470494 -0.00464116 9.48354e-21)
(0.472886 -0.0040043 -9.46141e-21)
(0.474996 -0.00342565 -2.82752e-20)
(0.476844 -0.00290237 0)
(0.478452 -0.00243101 -2.81358e-20)
(0.479844 -0.00200819 -9.3362e-21)
(0.481044 -0.00163027 0)
(0.482072 -0.00129502 -1.85971e-20)
(0.482941 -0.00100209 -1.85403e-20)
(0.483664 -0.000750056 2.77269e-20)
(0.484252 -0.000535806 0)
(0.48472 -0.000355419 9.18244e-21)
(0.485081 -0.000204849 9.14938e-21)
(0.485347 -8.02977e-05 2.73408e-20)
(0.485532 2.16499e-05 0)
(0.485647 0.000104017 0)
(0.485702 0.000169471 0)
(0.485707 0.000220369 8.97698e-21)
(0.485669 0.000258792 0)
(0.485598 0.000286577 0)
(0.485499 0.000305346 -8.87658e-21)
(0.485377 0.000316528 -8.84206e-21)
(0.485239 0.000321375 0)
(0.485088 0.000320985 0)
(0.484928 0.000316312 -1.74771e-20)
(0.484763 0.000308184 0)
(0.484594 0.000297316 1.73394e-20)
(0.484426 0.000284325 1.72711e-20)
(0.484258 0.000269737 0)
(0.484094 0.000253999 0)
(0.483934 0.000237491 -1.70658e-20)
(0.48378 0.000220534 5.59297e-25)
(0.483632 0.000203393 5.48895e-25)
(0.48349 0.000186291 0)
(0.483356 0.00016941 -3.35856e-20)
(0.48323 0.0001529 0)
(0.483111 0.000136882 0)
(0.483 0.000121456 0)
(0.482897 0.000106702 1.65211e-20)
(0.482802 9.26843e-05 0)
(0.482715 7.94586e-05 -3.27717e-20)
(0.482634 6.70708e-05 -1.6318e-20)
(0.482561 5.55619e-05 0)
(0.482495 4.49702e-05 -1.61827e-20)
(0.482434 3.53348e-05 0)
(0.48238 2.66994e-05 0)
(0.48233 1.91163e-05 -4.79402e-20)
(0.482286 1.2651e-05 3.18252e-20)
(0.482245 7.38864e-06 0)
(0.482208 3.44144e-06 3.15558e-20)
(0.482174 9.57976e-07 -1.57109e-20)
(0.482141 1.35048e-07 0)
(0.482108 1.23347e-06 0)
(0.482074 4.59891e-06 0)
(0.482038 1.06897e-05 -4.63326e-20)
(0.481997 2.01142e-05 0)
(0.481949 3.36829e-05 -1.53135e-20)
(0.48189 5.24804e-05 0)
(0.481817 7.79689e-05 0)
(0.481723 0.000112137 0)
(0.481602 0.000157722 0)
(0.481444 0.000218547 0)
(0.481237 0.000300057 0)
(0.480964 0.000410194 -2.97933e-20)
(0.480601 0.000560873 0)
(0.480115 0.000770739 -1.48111e-20)
(0.479459 0.00106991 4.4342e-20)
(0.478568 0.00151142 0)
(0.477333 0.00218723 0)
(0.475657 0.00329958 -2.96001e-20)
(0.47322 0.00517477 -2.97997e-20)
(0.470399 0.00889035 3.00381e-20)
(0.466533 0.0156531 3.06167e-20)
(-0.0193818 0.0399814 -1.07838e-20)
(-0.0335319 0.0670732 -7.70857e-21)
(-0.0499047 0.0856467 -4.09564e-21)
(-0.0669267 0.100377 -1.81806e-21)
(-0.0833752 0.111906 0)
(-0.0992537 0.120456 3.18878e-21)
(-0.114822 0.126339 -1.59033e-21)
(-0.130156 0.129925 0)
(-0.145201 0.131567 -1.43633e-21)
(-0.159867 0.131567 0)