/*--------------------------------*- C++ -*----------------------------------*\
  =========                 |
  \\      /  F ield         | OpenFOAM: The Open Source CFD Toolbox
   \\    /   O peration     | Website:  https://openfoam.org
    \\  /    A nd           | Version:  6
     \\/     M anipulation  |
\*---------------------------------------------------------------------------*/
FoamFile
{
    version     2.0;
    format      ascii;
    class       volScalarField;
    location    "0.08";
    object      epsilon;
}
// * * * * * * * * * * * * * * * * * * * * * * * * * * * * * * * * * * * * * //

dimensions      [0 2 -3 0 0 0 0];

internalField   nonuniform List<scalar> 
12225
(
307.554
159.15
103.227
76.2175
60.9483
51.4327
45.0178
40.3859
36.8531
34.048
31.7556
29.8432
28.2239
26.8382
25.6439
24.6215
23.7818
23.203
71.6103
59.7616
44.4178
34.3532
27.8109
23.3668
20.2202
17.9042
16.1355
14.7398
13.609
12.6733
11.8859
11.2141
10.6345
10.1322
9.69762
9.30751
33.6138
34.4044
29.2897
24.3868
20.5383
17.6147
15.3881
13.6677
12.3122
11.2223
10.3294
9.58599
8.95822
8.42164
7.95809
7.55452
7.20127
6.88784
22.4946
24.1965
22.2213
19.5413
17.0655
14.9852
13.2875
11.9094
10.7849
9.85798
9.08535
8.43402
7.87914
7.40184
6.98763
6.62558
6.30746
6.02793
18.0524
19.1651
18.2253
16.5948
14.8965
13.3505
12.0135
10.8799
9.92381
9.11593
8.42967
7.84278
7.33728
6.89875
6.51572
6.17924
5.88254
5.6225
15.9661
16.3995
15.7661
14.6421
13.3957
12.1985
11.117
10.1671
9.34302
8.63081
8.01485
7.48048
7.01491
6.60729
6.24863
5.93172
5.65111
5.40487
14.9029
14.7889
14.1888
13.2995
12.3135
11.3431
10.4421
9.63055
8.9108
8.27701
7.72022
7.23084
6.7998
6.419
6.08143
5.78135
5.5144
5.27945
14.3403
13.8257
13.1593
12.3643
11.5224
10.6959
9.92005
9.21091
8.57247
8.00235
7.49519
7.04451
6.64376
6.28681
5.96818
5.68327
5.42864
5.20369
14.0386
13.2458
12.4867
11.714
10.9452
10.2061
9.51425
8.87881
8.30213
7.78252
7.31616
6.89824
6.52377
6.18793
5.88634
5.61523
5.37188
5.15608
13.8768
12.8993
12.0519
11.2673
10.5294
9.83961
9.20159
8.61721
8.08588
7.60513
7.17135
6.78046
6.42825
6.11071
5.82418
5.56548
5.33241
5.12498
13.7906
12.6956
11.7764
10.9668
10.2361
9.57101
8.96516
8.41444
7.91505
7.46306
7.05442
6.68508
6.35116
6.04904
5.77547
5.52766
5.30375
5.10386
13.7488
12.5881
11.6204
10.7867
10.0517
9.39545
8.80558
8.2739
7.79407
7.36074
6.96914
6.61498
6.29434
6.00372
5.74004
5.50072
5.28407
5.09024
13.7254
12.5235
11.5209
10.6659
9.92288
9.26843
8.68676
8.16672
7.69996
7.27984
6.90086
6.55832
6.24816
5.96684
5.71133
5.47914
5.26869
5.08011
13.7116
12.4831
11.4547
10.5811
9.82808
9.17123
8.59273
8.07946
7.62149
7.21104
6.84183
6.50872
6.20736
5.9341
5.68584
5.46015
5.25545
5.0718
13.7045
12.4608
11.4161
10.5286
9.76637
9.1051
8.52627
8.01574
7.56256
7.15813
6.79555
6.46921
6.17447
5.90748
5.66508
5.44476
5.24492
5.06554
13.7012
12.4503
11.3967
10.5008
9.73195
9.06643
8.48575
7.97545
7.52412
7.12269
6.76383
6.44162
6.15116
5.88843
5.65014
5.43374
5.23754
5.06139
13.7
12.4462
11.3887
10.4887
9.71617
9.04784
8.46543
7.95446
7.5034
7.10301
6.74576
6.42555
6.13732
5.87696
5.64106
5.427
5.23304
5.05893
13.6996
12.4449
11.3863
10.4848
9.71088
9.04133
8.458
7.94647
7.49522
7.09495
6.73809
6.41846
6.13098
5.87143
5.63641
5.42323
5.23013
5.05679
13.6998
12.4453
11.387
10.4859
9.71223
9.04289
8.45964
7.94805
7.49662
7.09604
6.73878
6.41867
6.13062
5.87048
5.63481
5.42096
5.22719
5.05318
13.701
12.4493
11.3946
10.4974
9.72726
9.06058
8.47897
7.96796
7.51613
7.11433
6.7552
6.43274
6.14202
5.87899
5.64034
5.42347
5.22673
5.04993
13.7054
12.4634
11.4201
10.5335
9.77156
9.11004
8.53054
8.01905
7.56469
7.15891
6.79483
6.46685
6.17036
5.90153
5.65718
5.43484
5.23294
5.05146
13.7204
12.5081
11.4949
10.6317
9.8841
9.2282
8.64738
8.12962
7.66586
7.24892
6.87294
6.53303
6.225
5.94527
5.69082
5.45921
5.2489
5.06006
13.7671
12.6332
11.6844
10.8598
10.1264
9.4667
8.87057
8.33121
7.84316
7.40158
7.00199
6.64021
6.31237
6.01497
5.74488
5.49951
5.27716
5.07808
13.9007
12.9463
12.109
11.3257
10.5848
9.88994
9.24606
8.65558
8.11815
7.63144
7.1919
6.79545
6.43789
6.11517
5.82361
5.56004
5.32226
5.11041
14.2608
13.6661
12.9747
12.1896
11.3726
10.574
9.82345
9.13488
8.51217
7.95355
7.4544
7.00899
6.6114
6.256
5.93771
5.65218
5.39629
5.16972
15.1942
15.2324
14.6357
13.6948
12.6464
11.6177
10.6665
9.81306
9.05884
8.39676
7.81664
7.30787
6.86056
6.46593
6.11648
5.80597
5.52982
5.28692
17.6339
18.6185
17.7656
16.259
14.6634
13.1881
11.8948
10.7864
9.84377
9.04232
8.35836
7.77139
7.26444
6.82371
6.4381
6.09879
5.79922
5.53716
24.7059
26.4239
23.9027
20.7818
17.9992
15.702
13.8482
12.3569
11.1492
10.1604
9.34072
8.65281
8.06881
7.56778
7.13388
6.75504
6.42234
6.13197
51.9673
47.7376
37.7997
30.1731
24.7583
20.8735
18.0295
15.8977
14.2568
12.9603
11.9114
11.0455
10.3183
9.69888
9.16478
8.69963
8.29146
7.93435
251.832
137.367
90.7894
67.1335
53.3114
44.5265
38.5733
34.3013
31.079
28.5475
26.4938
24.786
23.3384
22.0926
21.0077
20.0535
19.2077
18.4559
0.148208
0.183705
0.313166
0.454461
0.583844
0.703273
0.819393
0.934102
1.04865
1.16411
1.28137
1.40101
1.52337
1.64857
1.77651
1.90699
2.0397
2.17429
2.31036
2.44752
2.5854
2.72364
2.86197
3.00017
3.13817
3.27606
3.41426
3.55358
3.69556
3.84277
3.99132
4.13499
4.27343
4.4062
4.53267
4.6521
4.7637
4.86667
4.96022
5.04359
5.11608
5.17709
5.22609
5.26266
5.28654
5.29756
5.2957
5.28111
5.25406
5.215
5.16455
5.10365
5.03365
4.95671
4.87647
4.79865
4.729
4.66722
4.60395
4.53644
4.46442
4.3882
4.30829
4.22524
4.13959
4.0519
3.96271
3.87252
3.78184
3.69113
3.60082
3.51134
3.42306
3.33634
3.25149
3.16881
3.08855
3.01094
2.93617
2.86439
2.79573
2.73027
2.66809
2.60921
2.55363
2.50135
2.4523
2.40644
2.36367
2.32389
2.28701
2.25288
2.2214
2.19241
2.16579
2.1414
2.11909
2.09874
2.08021
2.06336
2.04808
2.03425
2.02175
2.01047
2.00032
1.99116
1.98289
1.97558
1.96921
1.96364
1.95877
1.95451
1.9508
1.94759
1.94483
1.94246
1.94046
1.93878
1.93739
1.93628
1.9354
1.93475
1.9343
1.93403
1.93393
1.93399
1.93419
1.93451
1.93496
1.93552
1.93619
1.93695
1.93779
1.93872
1.93973
1.94081
1.94195
1.94315
1.94441
1.94573
1.94709
1.94851
1.94997
1.95147
1.953
1.95458
1.95619
1.95784
1.95952
1.96122
1.96296
1.96472
1.96651
1.96831
1.97014
1.97199
1.97385
1.97573
1.97761
1.97951
1.9814
1.98329
1.98517
1.98702
1.98883
1.99059
1.99226
1.99382
1.99521
1.99638
1.99722
1.99762
1.99736
1.99616
1.99351
1.98855
1.97969
1.96358
1.93394
1.87843
0.689911
0.437478
0.459619
0.527375
0.608767
0.691455
0.770143
0.842938
0.909811
0.971539
1.02909
1.08337
1.13509
1.18483
1.23299
1.27989
1.32576
1.37076
1.41503
1.45868
1.50179
1.54447
1.58682
1.62896
1.67106
1.7133
1.75595
1.79933
1.84385
1.88992
1.93808
1.98577
2.03229
2.0773
2.12052
2.16165
2.20037
2.23636
2.26931
2.29891
2.32487
2.34692
2.36484
2.37842
2.38754
2.39209
2.39204
2.38742
2.37832
2.3649
2.3474
2.32615
2.3016
2.27431
2.24494
2.21418
2.18246
2.15034
2.11708
2.08227
2.04593
2.00823
1.96938
1.92962
1.88917
1.84824
1.80706
1.76583
1.72473
1.68395
1.64364
1.60396
1.56505
1.52704
1.49003
1.45414
1.41944
1.38602
1.35393
1.32322
1.29392
1.26607
1.23967
1.21472
1.19122
1.16914
1.14846
1.12914
1.11115
1.09443
1.07893
1.0646
1.05138
1.0392
1.02802
1.01778
1.0084
0.999833
0.992023
0.984915
0.978455
0.972593
0.967282
0.962477
0.958135
0.954217
0.95069
0.947575
0.944883
0.942512
0.940417
0.938567
0.936934
0.935496
0.934233
0.933128
0.932165
0.93133
0.930611
0.929997
0.929478
0.929045
0.92869
0.928406
0.928188
0.928029
0.927925
0.927871
0.927864
0.927899
0.927974
0.928085
0.92823
0.928407
0.928613
0.928845
0.929103
0.929384
0.929688
0.930011
0.930354
0.930715
0.931092
0.931486
0.931894
0.932316
0.932751
0.933199
0.933658
0.934128
0.934609
0.9351
0.9356
0.936109
0.936626
0.937151
0.937683
0.938223
0.938769
0.93932
0.939877
0.940438
0.941002
0.941568
0.942134
0.942698
0.943257
0.943808
0.944346
0.944864
0.945356
0.945812
0.946222
0.946579
0.946888
0.947194
0.947679
0.948894
0.952731
0.965721
1.37255
0.689363
0.625455
0.646557
0.693498
0.749118
0.805554
0.858955
0.907848
0.952108
0.992237
1.02895
1.06294
1.09483
1.12513
1.15424
1.18249
1.21015
1.23743
1.26455
1.29169
1.31901
1.34667
1.37483
1.40363
1.43319
1.46364
1.49507
1.52755
1.56109
1.59547
1.63002
1.66434
1.69814
1.73114
1.76306
1.79361
1.82249
1.84939
1.87401
1.89608
1.91532
1.93151
1.94442
1.95392
1.95986
1.9622
1.96091
1.95603
1.94765
1.93592
1.92103
1.90322
1.88276
1.85994
1.835
1.80833
1.78052
1.75143
1.72108
1.6896
1.65716
1.62395
1.59016
1.55597
1.52157
1.48713
1.45279
1.41872
1.38504
1.35188
1.31935
1.28755
1.25659
1.22652
1.19744
1.1694
1.14245
1.11663
1.09197
1.06849
1.04621
1.02513
1.00524
0.986531
0.968984
0.952572
0.937264
0.923023
0.909808
0.897575
0.886277
0.875867
0.866294
0.857509
0.849462
0.842104
0.835387
0.829264
0.823692
0.818627
0.814028
0.809858
0.806081
0.802664
0.799574
0.796786
0.794281
0.792049
0.790074
0.788318
0.786755
0.785365
0.784129
0.78303
0.782055
0.78119
0.780424
0.779747
0.77915
0.778625
0.778166
0.777766
0.777419
0.777121
0.776868
0.776654
0.776477
0.776334
0.776222
0.776139
0.776081
0.776048
0.776036
0.776045
0.776073
0.776119
0.77618
0.776256
0.776346
0.776449
0.776564
0.77669
0.776826
0.776971
0.777126
0.777289
0.777459
0.777637
0.777822
0.778012
0.778209
0.778411
0.778619
0.778831
0.779047
0.779268
0.779492
0.779721
0.779952
0.780186
0.780423
0.780661
0.780901
0.781141
0.781381
0.781618
0.781852
0.78208
0.7823
0.782509
0.782703
0.782879
0.783039
0.783193
0.783379
0.783715
0.784548
0.786864
0.793612
1.94185
0.897119
0.761954
0.746822
0.767114
0.801283
0.840404
0.879912
0.917537
0.952377
0.984307
1.01359
1.04065
1.06592
1.08983
1.11274
1.13499
1.15685
1.17859
1.20041
1.22254
1.24514
1.2684
1.29244
1.3174
1.34337
1.37041
1.39856
1.4278
1.45808
1.48919
1.52078
1.55255
1.58423
1.61553
1.64615
1.6758
1.70414
1.73084
1.75559
1.77807
1.79798
1.81507
1.82911
1.8399
1.8473
1.85124
1.85168
1.84862
1.84214
1.83235
1.8194
1.80348
1.7848
1.76356
1.74001
1.71474
1.68797
1.65983
1.63047
1.60007
1.56882
1.5369
1.50452
1.47183
1.43902
1.40623
1.37362
1.34131
1.30942
1.27808
1.24737
1.2174
1.18823
1.15995
1.13261
1.10627
1.08097
1.05674
1.03362
1.01162
0.990754
0.971018
0.952409
0.934915
0.918517
0.903189
0.888902
0.875621
0.863306
0.851917
0.841409
0.831734
0.822848
0.814701
0.807246
0.800436
0.794225
0.78857
0.783426
0.778754
0.774514
0.770671
0.76719
0.764039
0.76119
0.758615
0.756293
0.754205
0.752334
0.750662
0.749166
0.747828
0.746629
0.745556
0.744595
0.743733
0.742962
0.74227
0.74165
0.741095
0.740599
0.740154
0.739757
0.739402
0.739087
0.738806
0.738557
0.738337
0.738143
0.737974
0.737827
0.737699
0.737591
0.737499
0.737422
0.73736
0.737311
0.737274
0.737248
0.737232
0.737225
0.737227
0.737236
0.737253
0.737277
0.737306
0.737341
0.737382
0.737427
0.737477
0.73753
0.737587
0.737648
0.737711
0.737778
0.737846
0.737917
0.737991
0.738065
0.738142
0.738219
0.738297
0.738375
0.738453
0.738529
0.738603
0.738674
0.738739
0.738798
0.738847
0.738884
0.738909
0.73892
0.738925
0.738951
0.739072
0.739499
0.740754
0.74409
2.41909
1.06651
0.870744
0.826707
0.826847
0.844998
0.871134
0.900287
0.929794
0.958298
0.985216
1.01042
1.03404
1.05631
1.07751
1.09794
1.11788
1.13759
1.15732
1.1773
1.19772
1.21878
1.24064
1.26345
1.28731
1.31231
1.3385
1.3659
1.39448
1.42417
1.45481
1.48613
1.51787
1.54975
1.58149
1.61277
1.64324
1.67256
1.70036
1.72629
1.75
1.77116
1.78948
1.8047
1.81662
1.82509
1.83
1.83131
1.82905
1.82326
1.81407
1.80163
1.78611
1.76772
1.74669
1.72348
1.69844
1.67178
1.64369
1.6144
1.5841
1.55299
1.52127
1.48914
1.45675
1.42428
1.39187
1.35966
1.32778
1.29634
1.26545
1.2352
1.20567
1.17695
1.14909
1.12216
1.0962
1.07127
1.04739
1.02459
1.00288
0.98229
0.962806
0.94443
0.92715
0.91095
0.895807
0.881692
0.868572
0.85641
0.845166
0.834795
0.825253
0.816494
0.80847
0.801133
0.794437
0.788336
0.782786
0.777743
0.773166
0.769017
0.765258
0.761856
0.758778
0.755995
0.753481
0.751209
0.749161
0.747316
0.745658
0.74417
0.742832
0.741629
0.740547
0.739572
0.738692
0.737898
0.737181
0.736532
0.735945
0.735412
0.734929
0.734491
0.734092
0.733729
0.733399
0.733098
0.732824
0.732574
0.732345
0.732137
0.731947
0.731773
0.731614
0.731469
0.731336
0.731215
0.731104
0.731002
0.730909
0.730823
0.730745
0.730673
0.730607
0.730546
0.73049
0.730438
0.73039
0.730346
0.730305
0.730266
0.73023
0.730197
0.730165
0.730135
0.730106
0.730079
0.730052
0.730026
0.730001
0.729975
0.729949
0.729923
0.729894
0.729864
0.729831
0.729793
0.72975
0.729699
0.729639
0.729566
0.729479
0.729377
0.729263
0.729155
0.729098
0.729222
0.729811
0.731448
2.81708
1.20528
0.957774
0.890045
0.874591
0.880751
0.89723
0.918645
0.942088
0.965943
0.989353
1.01193
1.03356
1.05431
1.07434
1.09383
1.11302
1.13213
1.15137
1.17096
1.19109
1.21195
1.23369
1.25645
1.28034
1.30546
1.33185
1.35954
1.38849
1.41864
1.44985
1.48188
1.51451
1.54744
1.58037
1.61297
1.64484
1.67562
1.7049
1.73228
1.75737
1.77982
1.79931
1.81554
1.82831
1.83746
1.84287
1.84452
1.84242
1.83667
1.82738
1.81473
1.79891
1.78016
1.75889
1.73546
1.71012
1.68313
1.65472
1.62512
1.59455
1.56322
1.53133
1.49906
1.46659
1.43407
1.40164
1.36943
1.33757
1.30616
1.2753
1.24507
1.21557
1.18686
1.159
1.13205
1.10606
1.08107
1.05712
1.03424
1.01243
0.991721
0.972113
0.953604
0.936188
0.919849
0.904566
0.890315
0.877064
0.864778
0.853417
0.842939
0.833301
0.824456
0.816356
0.808955
0.802205
0.796059
0.790473
0.785401
0.780804
0.776639
0.772871
0.769462
0.766382
0.763598
0.761083
0.758812
0.756762
0.754913
0.753245
0.751744
0.750391
0.749171
0.74807
0.747074
0.746172
0.745354
0.744611
0.743935
0.743319
0.742756
0.742241
0.74177
0.741336
0.740937
0.740569
0.74023
0.739915
0.739623
0.739352
0.739099
0.738864
0.738643
0.738436
0.738242
0.738058
0.737885
0.737721
0.737566
0.737417
0.737276
0.737141
0.737011
0.736886
0.736765
0.736648
0.736534
0.736424
0.736316
0.73621
0.736107
0.736005
0.735904
0.735805
0.735706
0.735608
0.735511
0.735413
0.735315
0.735217
0.735118
0.735018
0.734916
0.734812
0.734705
0.734594
0.734478
0.734356
0.734224
0.734082
0.733926
0.733754
0.733564
0.733356
0.733139
0.732941
0.73284
0.732996
0.733718
3.14139
1.3186
1.02758
0.94016
0.912254
0.90918
0.918353
0.93393
0.952786
0.973138
0.993961
1.0147
1.03508
1.05504
1.07461
1.09391
1.11309
1.13234
1.15182
1.17174
1.19226
1.21355
1.23578
1.25908
1.28357
1.30933
1.33643
1.36488
1.39468
1.42577
1.45801
1.4912
1.52511
1.55946
1.59391
1.62809
1.6616
1.69401
1.72487
1.75375
1.7802
1.80384
1.82432
1.84133
1.85464
1.8641
1.8696
1.87114
1.86875
1.86254
1.85268
1.83936
1.82281
1.80347
1.78165
1.75764
1.73172
1.70417
1.67524
1.64517
1.61419
1.58252
1.55035
1.51785
1.4852
1.45254
1.42
1.38772
1.3558
1.32433
1.29342
1.26315
1.23358
1.20479
1.17684
1.14977
1.12365
1.09851
1.07438
1.0513
1.02929
1.00835
0.988511
0.96976
0.952096
0.935509
0.91998
0.905488
0.892003
0.879494
0.867922
0.857247
0.847426
0.838413
0.830162
0.822624
0.815753
0.809501
0.803822
0.798671
0.794005
0.789783
0.785966
0.782518
0.779404
0.776593
0.774056
0.771766
0.769698
0.767833
0.766148
0.764629
0.763259
0.762021
0.7609
0.759885
0.758963
0.758125
0.757361
0.756663
0.756024
0.755438
0.754898
0.754401
0.753942
0.753516
0.75312
0.752752
0.752408
0.752085
0.751783
0.751498
0.751228
0.750974
0.750732
0.750501
0.750281
0.750071
0.749868
0.749673
0.749485
0.749303
0.749126
0.748954
0.748786
0.748621
0.74846
0.748302
0.748145
0.747991
0.747838
0.747687
0.747537
0.747387
0.747238
0.747089
0.74694
0.746791
0.746641
0.746491
0.746339
0.746186
0.746031
0.745874
0.745714
0.74555
0.745381
0.745207
0.745025
0.744833
0.744629
0.74441
0.744173
0.743915
0.743633
0.743332
0.743026
0.742763
0.742636
0.742836
3.39675
1.40972
1.08315
0.979446
0.941414
0.931025
0.934528
0.945617
0.960958
0.978635
0.997511
1.01692
1.03648
1.05603
1.07552
1.09498
1.11452
1.13426
1.15434
1.17493
1.19617
1.21823
1.24126
1.26539
1.29074
1.31741
1.34547
1.37495
1.40584
1.43811
1.47162
1.5062
1.54162
1.57757
1.61371
1.64962
1.68487
1.71897
1.75143
1.78175
1.80946
1.83413
1.85537
1.87287
1.8864
1.8958
1.90101
1.90202
1.89892
1.89186
1.88103
1.86673
1.84932
1.82913
1.80647
1.78166
1.755
1.72677
1.69724
1.66666
1.63525
1.60323
1.57078
1.53809
1.50529
1.47255
1.43997
1.40767
1.37575
1.34431
1.31342
1.28316
1.25359
1.22479
1.1968
1.16967
1.14346
1.11821
1.09394
1.07069
1.04849
1.02735
1.00728
0.988291
0.970381
0.953541
0.937759
0.923015
0.909283
0.896535
0.884735
0.873845
0.863822
0.854622
0.8462
0.838507
0.831497
0.825121
0.819334
0.814088
0.80934
0.805047
0.801171
0.797672
0.794517
0.791671
0.789105
0.786792
0.784705
0.782822
0.781122
0.779588
0.778203
0.77695
0.775815
0.774786
0.773849
0.772996
0.772217
0.771504
0.770849
0.770247
0.769691
0.769176
0.768699
0.768254
0.76784
0.767451
0.767086
0.766743
0.766418
0.76611
0.765818
0.765539
0.765272
0.765016
0.76477
0.764533
0.764303
0.76408
0.763863
0.763652
0.763445
0.763243
0.763043
0.762847
0.762654
0.762463
0.762273
0.762086
0.761899
0.761713
0.761527
0.761342
0.761156
0.760971
0.760785
0.760598
0.76041
0.760221
0.76003
0.759837
0.759642
0.759444
0.759242
0.759036
0.758825
0.758607
0.758381
0.758145
0.757895
0.75763
0.757344
0.757035
0.756699
0.756335
0.755952
0.755576
0.755267
0.755164
3.58684
1.4807
1.12645
1.00957
0.963301
0.947028
0.946034
0.953605
0.96621
0.981821
0.999214
1.01764
1.03666
1.05602
1.07562
1.09542
1.11547
1.13586
1.1567
1.17811
1.20023
1.2232
1.24717
1.27227
1.29862
1.32633
1.35548
1.38611
1.41825
1.45184
1.48679
1.52292
1.55999
1.59768
1.63562
1.67336
1.71039
1.74618
1.78018
1.81183
1.84063
1.86609
1.88781
1.90548
1.91885
1.92781
1.9323
1.93238
1.92818
1.91991
1.9079
1.89245
1.87393
1.85266
1.829
1.80326
1.77577
1.74681
1.71667
1.68559
1.65379
1.62148
1.58885
1.55606
1.52324
1.49053
1.45804
1.42586
1.39409
1.3628
1.33207
1.30197
1.27254
1.24385
1.21595
1.18889
1.16271
1.13745
1.11314
1.08982
1.06752
1.04625
1.02602
1.00686
0.98876
0.971718
0.955725
0.940767
0.926822
0.913862
0.901857
0.89077
0.880562
0.871189
0.862607
0.854768
0.847626
0.841132
0.835241
0.829904
0.825077
0.820718
0.816785
0.81324
0.810045
0.807168
0.804577
0.802244
0.800141
0.798246
0.796536
0.794992
0.793598
0.792338
0.791195
0.790158
0.789214
0.788354
0.787567
0.786845
0.786182
0.785571
0.785005
0.784481
0.783993
0.783538
0.783111
0.782711
0.782333
0.781976
0.781638
0.781315
0.781008
0.780713
0.78043
0.780158
0.779894
0.779639
0.779391
0.779149
0.778913
0.778681
0.778454
0.778231
0.77801
0.777792
0.777577
0.777363
0.77715
0.776939
0.776728
0.776518
0.776307
0.776097
0.775886
0.775674
0.775462
0.775248
0.775033
0.774817
0.774598
0.774377
0.774153
0.773926
0.773695
0.773459
0.773217
0.772969
0.772711
0.772443
0.77216
0.771862
0.771542
0.771197
0.770823
0.770418
0.769983
0.769534
0.769114
0.768835
3.71432
1.53294
1.15881
1.03177
0.978949
0.957959
0.953373
0.958156
0.968613
0.982617
0.998878
1.01659
1.03525
1.05456
1.07436
1.09458
1.11521
1.13631
1.15795
1.18023
1.20328
1.22721
1.25217
1.27829
1.3057
1.33452
1.36484
1.39673
1.43021
1.46526
1.50177
1.53959
1.57844
1.61798
1.6578
1.69739
1.73619
1.7736
1.809
1.84179
1.87139
1.8973
1.91912
1.93652
1.94929
1.95734
1.96069
1.95943
1.95381
1.94412
1.93069
1.91388
1.89404
1.87156
1.84679
1.82007
1.79173
1.76207
1.73136
1.69985
1.66776
1.63528
1.60259
1.56984
1.53715
1.50464
1.4724
1.44052
1.40907
1.37811
1.34772
1.31794
1.28882
1.26042
1.23277
1.20593
1.17992
1.1548
1.13059
1.10732
1.08503
1.06374
1.04346
1.02422
1.00601
0.988844
0.972711
0.957602
0.943498
0.930379
0.918214
0.906971
0.896612
0.887097
0.878382
0.870421
0.863169
0.856576
0.850597
0.845185
0.840294
0.83588
0.831901
0.828319
0.825095
0.822195
0.819587
0.817242
0.815131
0.81323
0.811518
0.809973
0.808578
0.807317
0.806175
0.805137
0.804194
0.803333
0.802545
0.801823
0.801158
0.800545
0.799977
0.79945
0.798959
0.798499
0.798068
0.797663
0.797279
0.796916
0.796571
0.796241
0.795925
0.795622
0.79533
0.795048
0.794775
0.794509
0.79425
0.793997
0.793749
0.793505
0.793265
0.793029
0.792795
0.792563
0.792333
0.792105
0.791878
0.791651
0.791425
0.791198
0.790972
0.790745
0.790517
0.790289
0.790059
0.789828
0.789595
0.78936
0.789122
0.788882
0.788639
0.788393
0.788142
0.787886
0.787624
0.787355
0.787076
0.786787
0.786483
0.786163
0.785821
0.785454
0.785057
0.784626
0.784162
0.783673
0.783191
0.782818
3.78123
1.56748
1.1813
1.04712
0.989361
0.96471
0.957309
0.959909
0.968696
0.981472
0.996891
1.0141
1.03256
1.05193
1.072
1.09268
1.11391
1.13573
1.15817
1.18133
1.2053
1.2302
1.25617
1.28334
1.31184
1.34181
1.37337
1.4066
1.44154
1.47818
1.51641
1.55604
1.59679
1.63827
1.67999
1.72138
1.76181
1.80062
1.83713
1.87067
1.90062
1.92646
1.94781
1.96442
1.976
1.9826
1.98435
1.98143
1.97413
1.96277
1.94772
1.92937
1.90812
1.88435
1.85844
1.83076
1.80162
1.77132
1.74015
1.70834
1.67609
1.6436
1.61102
1.57848
1.5461
1.51396
1.48216
1.45076
1.41982
1.38939
1.35952
1.33026
1.30163
1.27369
1.24647
1.22
1.19433
1.1695
1.14553
1.12245
1.10031
1.07912
1.05891
1.03969
1.02148
1.00427
0.988084
0.972899
0.958708
0.94549
0.933221
0.921873
0.911409
0.901793
0.892982
0.884932
0.877598
0.870934
0.864891
0.859423
0.854486
0.850034
0.846026
0.842421
0.83918
0.83627
0.833656
0.831308
0.829198
0.827302
0.825595
0.824057
0.82267
0.821416
0.820282
0.819252
0.818315
0.817461
0.81668
0.815964
0.815305
0.814696
0.814133
0.813609
0.81312
0.812663
0.812234
0.811829
0.811446
0.811083
0.810737
0.810406
0.810088
0.809783
0.809488
0.809203
0.808926
0.808656
0.808392
0.808134
0.80788
0.807631
0.807385
0.807142
0.806901
0.806663
0.806425
0.806189
0.805954
0.805719
0.805484
0.805249
0.805013
0.804777
0.80454
0.804302
0.804062
0.803821
0.803577
0.803332
0.803084
0.802833
0.802579
0.802321
0.802059
0.801791
0.801517
0.801236
0.800945
0.800644
0.800329
0.799996
0.799644
0.799266
0.798858
0.798417
0.797941
0.797436
0.796929
0.796512
3.78923
1.58524
1.19493
1.05669
0.995655
0.968397
0.958932
0.959919
0.967487
0.979392
0.994251
1.01118
1.0296
1.04914
1.06958
1.09076
1.11263
1.13519
1.15845
1.18249
1.2074
1.23328
1.26028
1.28853
1.31818
1.34938
1.38227
1.41695
1.4535
1.49191
1.53202
1.57361
1.61634
1.65977
1.70331
1.74629
1.788
1.82771
1.86473
1.89841
1.92795
1.95289
1.97293
1.98789
1.99768
2.00237
2.00213
1.99721
1.98794
1.9747
1.95788
1.93791
1.9152
1.89016
1.86317
1.83461
1.80478
1.774
1.74252
1.71057
1.67835
1.64603
1.61374
1.5816
1.54972
1.51816
1.48699
1.45626
1.42602
1.3963
1.36714
1.33856
1.31061
1.2833
1.25668
1.23076
1.20559
1.1812
1.15762
1.13488
1.11301
1.09205
1.07202
1.05294
1.03482
1.01768
1.00152
0.986342
0.972136
0.958888
0.946578
0.935179
0.924662
0.91499
0.906124
0.898022
0.890641
0.883933
0.877853
0.872355
0.867393
0.862923
0.858903
0.85529
0.852048
0.849139
0.846531
0.844192
0.842094
0.840211
0.838519
0.836997
0.835625
0.834388
0.833268
0.832253
0.831331
0.83049
0.829722
0.829018
0.82837
0.827773
0.827219
0.826705
0.826225
0.825775
0.825353
0.824955
0.824578
0.824219
0.823878
0.823551
0.823237
0.822934
0.822642
0.822358
0.822083
0.821814
0.821551
0.821293
0.821039
0.82079
0.820543
0.820299
0.820057
0.819817
0.819578
0.81934
0.819102
0.818865
0.818627
0.818389
0.818151
0.817911
0.817671
0.817429
0.817185
0.81694
0.816693
0.816443
0.816191
0.815936
0.815677
0.815415
0.815148
0.814875
0.814597
0.814311
0.814016
0.81371
0.813391
0.813056
0.812701
0.812321
0.811914
0.811474
0.811001
0.8105
0.809993
0.809564
3.73947
1.58709
1.20076
1.06173
0.999203
0.970478
0.959756
0.959746
0.966582
0.978012
0.992635
1.00955
1.02815
1.04804
1.06898
1.09079
1.1134
1.13677
1.16093
1.18593
1.21185
1.2388
1.26691
1.29635
1.32728
1.35987
1.39427
1.43063
1.46904
1.50944
1.55162
1.59526
1.63997
1.68523
1.73031
1.77432
1.81652
1.85617
1.89253
1.92497
1.9529
1.97592
1.99378
2.00637
2.01369
2.01589
2.01319
2.00591
1.99441
1.97912
1.96045
1.93885
1.91474
1.88854
1.86062
1.83134
1.80102
1.76994
1.73836
1.70648
1.67449
1.64254
1.61075
1.57922
1.54802
1.51722
1.48687
1.457
1.42764
1.3988
1.37053
1.34282
1.3157
1.2892
1.26333
1.23812
1.21359
1.18979
1.16674
1.14447
1.12301
1.1024
1.08266
1.06382
1.04591
1.02892
1.01288
0.997792
0.983647
0.970438
0.95815
0.94676
0.93624
0.92656
0.917683
0.909567
0.902172
0.895453
0.889365
0.883861
0.878898
0.87443
0.870415
0.866812
0.863583
0.86069
0.8581
0.855781
0.853705
0.851845
0.850177
0.848678
0.84733
0.846115
0.845018
0.844025
0.843123
0.842302
0.841553
0.840867
0.840236
0.839654
0.839116
0.838616
0.838149
0.837712
0.837302
0.836914
0.836548
0.836199
0.835866
0.835548
0.835242
0.834946
0.834661
0.834384
0.834114
0.83385
0.833593
0.833339
0.83309
0.832845
0.832602
0.832362
0.832123
0.831886
0.83165
0.831414
0.831179
0.830944
0.830709
0.830473
0.830236
0.829999
0.82976
0.82952
0.829278
0.829034
0.828788
0.828539
0.828288
0.828034
0.827777
0.827515
0.827249
0.826978
0.826701
0.826417
0.826124
0.82582
0.825504
0.825172
0.824822
0.824449
0.824051
0.823623
0.823164
0.822679
0.82219
0.821773
3.63089
1.57411
1.20028
1.06395
1.00186
0.972933
0.961871
0.961576
0.968262
0.979711
0.994522
1.01178
1.03089
1.05142
1.07312
1.0958
1.11936
1.14377
1.16904
1.1952
1.22235
1.2506
1.28009
1.31099
1.34349
1.37777
1.41404
1.45245
1.49311
1.53583
1.58024
1.62589
1.67221
1.71851
1.764
1.80782
1.84917
1.88729
1.9215
1.95127
1.97616
1.99591
2.01037
2.01954
2.02353
2.02255
2.01689
2.00691
1.99299
1.97558
1.95509
1.93196
1.9066
1.87943
1.85079
1.82104
1.79047
1.75935
1.72791
1.69634
1.66481
1.63344
1.60235
1.57161
1.54129
1.51143
1.48207
1.45322
1.42489
1.39711
1.36986
1.34317
1.31704
1.29148
1.2665
1.24214
1.2184
1.19532
1.17292
1.15124
1.13031
1.11017
1.09083
1.07234
1.05472
1.03798
1.02215
1.00723
0.993216
0.980114
0.967909
0.956584
0.946115
0.936474
0.927627
0.919537
0.912164
0.905465
0.899396
0.893913
0.88897
0.884525
0.880535
0.876958
0.873757
0.870893
0.868333
0.866046
0.864002
0.862173
0.860537
0.85907
0.857753
0.856567
0.855498
0.854532
0.853657
0.852861
0.852136
0.851473
0.850864
0.850303
0.849784
0.849302
0.848853
0.848433
0.848038
0.847666
0.847313
0.846977
0.846657
0.846351
0.846056
0.845772
0.845497
0.84523
0.844969
0.844715
0.844466
0.844221
0.84398
0.843742
0.843507
0.843274
0.843043
0.842812
0.842583
0.842354
0.842125
0.841897
0.841668
0.841438
0.841207
0.840976
0.840743
0.840508
0.840272
0.840034
0.839793
0.83955
0.839305
0.839056
0.838804
0.838549
0.838289
0.838024
0.837753
0.837475
0.837189
0.836893
0.836585
0.836263
0.835924
0.835564
0.835181
0.834772
0.834336
0.833879
0.833419
0.833027
3.48378
1.55635
1.19802
1.06658
1.00655
0.978666
0.968249
0.968476
0.975695
0.987749
1.00328
1.02138
1.04146
1.06308
1.08598
1.10996
1.13491
1.1608
1.18761
1.21539
1.24424
1.27425
1.3056
1.33846
1.37303
1.40953
1.44817
1.48913
1.53251
1.57776
1.62435
1.67161
1.71878
1.76502
1.80944
1.85121
1.88956
1.92387
1.95364
1.97853
1.99836
2.01302
2.02255
2.02708
2.02679
2.02195
2.01289
1.99995
1.98353
1.96403
1.94185
1.91739
1.89105
1.86318
1.83412
1.80419
1.77365
1.74276
1.71171
1.68069
1.64983
1.61925
1.58905
1.55928
1.53
1.50123
1.473
1.44531
1.41815
1.39154
1.36545
1.3399
1.31487
1.29038
1.26642
1.24301
1.22017
1.19793
1.1763
1.15532
1.13503
1.11545
1.09662
1.07857
1.06133
1.04492
1.02937
1.01469
1.00088
0.987954
0.975892
0.964687
0.954319
0.944762
0.935988
0.927962
0.920645
0.913997
0.907975
0.902537
0.897638
0.893236
0.889288
0.885753
0.882594
0.879772
0.877254
0.875008
0.873005
0.871217
0.86962
0.868192
0.866911
0.865761
0.864726
0.863793
0.862949
0.862183
0.861486
0.86085
0.860266
0.85973
0.859234
0.858774
0.858346
0.857946
0.85757
0.857215
0.85688
0.856561
0.856257
0.855965
0.855685
0.855414
0.855152
0.854898
0.85465
0.854408
0.85417
0.853937
0.853707
0.85348
0.853255
0.853032
0.852811
0.852591
0.852371
0.852152
0.851933
0.851714
0.851494
0.851274
0.851052
0.85083
0.850606
0.850381
0.850154
0.849924
0.849693
0.84946
0.849223
0.848984
0.848742
0.848496
0.848245
0.84799
0.847729
0.847462
0.847187
0.846903
0.846608
0.8463
0.845977
0.845635
0.845273
0.844889
0.844482
0.844059
0.843637
0.843279
3.2909
1.53283
1.19614
1.07239
1.01635
0.990973
0.982417
0.984228
0.992942
1.00651
1.02362
1.04341
1.06529
1.08884
1.11377
1.1399
1.1671
1.19533
1.22458
1.2549
1.28636
1.3191
1.35327
1.38906
1.42669
1.46637
1.50835
1.55282
1.59938
1.64715
1.69534
1.74304
1.78926
1.83306
1.87353
1.90996
1.94184
1.96884
1.99085
2.00787
2.01999
2.02738
2.03024
2.02879
2.02327
2.01394
2.0011
1.98505
1.96613
1.94467
1.92101
1.8955
1.86846
1.84021
1.81104
1.78123
1.75102
1.72062
1.69022
1.65996
1.62999
1.60039
1.57124
1.5426
1.5145
1.48696
1.45999
1.43357
1.4077
1.38237
1.35756
1.33326
1.30945
1.28613
1.2633
1.24096
1.21913
1.19783
1.17708
1.15691
1.13735
1.11844
1.10021
1.08269
1.06593
1.04994
1.03475
1.02039
1.00686
0.994162
0.982304
0.971274
0.961057
0.951632
0.942973
0.935048
0.927821
0.921255
0.915309
0.90994
0.905108
0.900768
0.89688
0.893404
0.8903
0.887533
0.885068
0.882873
0.880919
0.879179
0.877628
0.876243
0.875004
0.873894
0.872897
0.872
0.87119
0.870457
0.869791
0.869184
0.868628
0.868117
0.867647
0.86721
0.866804
0.866425
0.866069
0.865734
0.865416
0.865114
0.864826
0.86455
0.864285
0.864029
0.86378
0.863539
0.863304
0.863074
0.862849
0.862627
0.862408
0.862192
0.861978
0.861766
0.861555
0.861345
0.861136
0.860927
0.860717
0.860508
0.860298
0.860087
0.859875
0.859662
0.859448
0.859232
0.859014
0.858794
0.858572
0.858348
0.858121
0.857892
0.857659
0.857423
0.857182
0.856937
0.856687
0.856431
0.856167
0.855896
0.855614
0.85532
0.855013
0.854691
0.85435
0.853991
0.853615
0.853226
0.852842
0.85252
3.06877
1.50376
1.19541
1.08269
1.03298
1.01207
1.00711
1.01211
1.02386
1.04042
1.06059
1.08352
1.10866
1.13559
1.16403
1.1938
1.22476
1.25686
1.29009
1.3245
1.36017
1.39722
1.43581
1.47613
1.51839
1.56278
1.6095
1.65856
1.70828
1.75769
1.80566
1.85102
1.89266
1.92963
1.9613
1.98735
2.00778
2.02286
2.03298
2.03863
2.04023
2.03817
2.03275
2.02422
2.01276
1.99858
1.98184
1.96276
1.94153
1.9184
1.8936
1.86739
1.84001
1.81174
1.78279
1.75341
1.72379
1.69413
1.66459
1.63529
1.60636
1.57787
1.5499
1.52249
1.49566
1.46941
1.44376
1.41868
1.39415
1.37016
1.34667
1.32366
1.30112
1.27904
1.25739
1.23619
1.21543
1.19514
1.17533
1.15604
1.13728
1.11911
1.10155
1.08464
1.06841
1.05291
1.03815
1.02416
1.01096
0.998554
0.98695
0.976143
0.966122
0.95687
0.948363