/*--------------------------------*- C++ -*----------------------------------*\
  =========                 |
  \\      /  F ield         | OpenFOAM: The Open Source CFD Toolbox
   \\    /   O peration     | Website:  https://openfoam.org
    \\  /    A nd           | Version:  6
     \\/     M anipulation  |
\*---------------------------------------------------------------------------*/
FoamFile
{
    version     2.0;
    format      ascii;
    class       volScalarField;
    location    "0.08";
    object      k;
}
// * * * * * * * * * * * * * * * * * * * * * * * * * * * * * * * * * * * * * //

dimensions      [0 2 -2 0 0 0 0];

internalField   nonuniform List<scalar> 
12225
(
0.24644
0.158842
0.119021
0.0972286
0.0837646
0.0748006
0.0684424
0.0636615
0.0598907
0.0568094
0.0542274
0.0520248
0.050122
0.0484639
0.0470109
0.0457453
0.0446897
0.0439464
0.339525
0.26014
0.20828
0.175337
0.153341
0.137784
0.126146
0.11702
0.109611
0.103446
0.0982239
0.0937385
0.0898446
0.0864362
0.0834357
0.0807828
0.0784698
0.0764528
0.347499
0.292345
0.248535
0.216244
0.19231
0.174168
0.160015
0.148658
0.139319
0.131492
0.12483
0.119089
0.114093
0.109712
0.105848
0.102426
0.099408
0.0967873
0.351371
0.309041
0.27191
0.241972
0.218225
0.199308
0.184032
0.171487
0.161015
0.152148
0.144548
0.137965
0.132213
0.127153
0.122678
0.118706
0.115185
0.112118
0.353918
0.319272
0.287222
0.25987
0.237121
0.218307
0.202673
0.189561
0.178446
0.168929
0.160701
0.15353
0.147233
0.14167
0.136733
0.132338
0.128427
0.125007
0.355678
0.326038
0.29789
0.272962
0.251508
0.233242
0.217701
0.204422
0.193002
0.183113
0.174488
0.166918
0.160233
0.1543
0.149015
0.144291
0.140074
0.136369
0.356918
0.330716
0.305591
0.282807
0.262709
0.245206
0.230024
0.216841
0.205356
0.195302
0.186459
0.178641
0.171697
0.165503
0.159962
0.154989
0.150536
0.146607
0.357803
0.334033
0.311258
0.290318
0.271523
0.254869
0.240196
0.227281
0.215898
0.205837
0.196913
0.18897
0.181873
0.175511
0.169793
0.164643
0.160014
0.155913
0.358434
0.336409
0.315462
0.296077
0.278477
0.262682
0.248592
0.23605
0.224885
0.21493
0.206035
0.198064
0.190903
0.184452
0.178627
0.17336
0.16861
0.164384
0.358882
0.338111
0.318575
0.30048
0.283944
0.268971
0.255487
0.243376
0.232503
0.222736
0.213949
0.206029
0.198875
0.192401
0.186528
0.181199
0.176376
0.172068
0.359196
0.339319
0.32086
0.303817
0.2882
0.273983
0.261094
0.249436
0.238899
0.229373
0.220753
0.212942
0.205852
0.199406
0.193536
0.188191
0.183338
0.178986
0.359394
0.340095
0.322376
0.3061
0.291195
0.277594
0.265216
0.253969
0.243756
0.23448
0.226048
0.218375
0.211383
0.205002
0.199172
0.193847
0.189
0.184639
0.359536
0.340654
0.323498
0.307837
0.293529
0.280468
0.268556
0.2577
0.247807
0.238787
0.230559
0.223044
0.216171
0.209878
0.204112
0.198831
0.194011
0.18966
0.359644
0.341088
0.324394
0.309266
0.295504
0.28296
0.271515
0.261066
0.251519
0.24279
0.234801
0.227479
0.220761
0.214591
0.20892
0.203711
0.198943
0.194625
0.35972
0.341395
0.325049
0.310346
0.297042
0.284956
0.273944
0.263889
0.254693
0.246267
0.238537
0.231433
0.224898
0.218879
0.213331
0.208221
0.20353
0.199265
0.359767
0.34159
0.325477
0.311076
0.298118
0.286396
0.275745
0.266035
0.257155
0.249016
0.24154
0.234658
0.228315
0.222459
0.217049
0.212054
0.207456
0.203261
0.359793
0.341697
0.325718
0.3115
0.298764
0.287288
0.276894
0.267438
0.258804
0.250894
0.243627
0.236935
0.230759
0.22505
0.219768
0.214881
0.210372
0.206247
0.359804
0.341741
0.325818
0.31168
0.299045
0.287686
0.277419
0.268095
0.25959
0.251805
0.244656
0.238071
0.231991
0.226367
0.221158
0.216333
0.211875
0.207788
0.359801
0.341728
0.325788
0.311626
0.298961
0.287566
0.277259
0.267892
0.259345
0.251516
0.244323
0.237695
0.231573
0.225907
0.220658
0.215793
0.211297
0.207172
0.359775
0.34162
0.325543
0.31119
0.298289
0.286627
0.276035
0.266377
0.257542
0.249437
0.241982
0.235111
0.228765
0.222894
0.217458
0.212425
0.207777
0.203519
0.359715
0.341374
0.325003
0.310268
0.296927
0.284799
0.273739
0.26363
0.254373
0.245881
0.238076
0.230893
0.224271
0.218157
0.212508
0.207289
0.20248
0.198087
0.359585
0.340849
0.323896
0.308464
0.294381
0.281522
0.269778
0.259052
0.249249
0.240282
0.232073
0.224545
0.217633
0.211277
0.205427
0.200041
0.195095
0.190595
0.359329
0.339831
0.32185
0.305292
0.290111
0.276253
0.26364
0.25218
0.241772
0.232315
0.223712
0.215874
0.20872
0.202178
0.196187
0.190697
0.185678
0.181132
0.35886
0.338005
0.318361
0.300152
0.283501
0.268414
0.254818
0.242594
0.231609
0.221726
0.212817
0.204769
0.197479
0.190858
0.184831
0.179337
0.174337
0.169832
0.35805
0.334906
0.312742
0.292283
0.273818
0.257361
0.24278
0.229878
0.218449
0.208299
0.199253
0.191162
0.183896
0.177347
0.171424
0.166054
0.161189
0.156827
0.356706
0.329798
0.30396
0.280603
0.260076
0.242264
0.226862
0.213522
0.201918
0.191768
0.18284
0.17494
0.16791
0.161622
0.155971
0.150875
0.146277
0.142172
0.354517
0.321329
0.290225
0.263334
0.240719
0.22185
0.206061
0.192745
0.181406
0.171656
0.163195
0.15579
0.149258
0.143456
0.138273
0.133618
0.129432
0.125703
0.3509
0.306591
0.267897
0.237062
0.212873
0.193789
0.178495
0.166003
0.155613
0.146832
0.139308
0.132785
0.127074
0.122029
0.11754
0.113522
0.109913
0.1067
0.342446
0.275927
0.22724
0.193485
0.16975
0.152503
0.139444
0.129164
0.120807
0.113846
0.107939
0.102851
0.0984155
0.09451
0.0910428
0.0879436
0.08516
0.0826712
0.259302
0.173109
0.131348
0.107406
0.0921059
0.0816881
0.0742354
0.0686492
0.0642811
0.0607428
0.0577952
0.0552858
0.0531134
0.0512081
0.0495196
0.0480106
0.0466532
0.04543
0.00211246
0.00398744
0.00565015
0.00723413
0.00856391
0.00969702
0.0107374
0.0117179
0.0126582
0.0135727
0.0144718
0.0153621
0.0162474
0.0171294
0.0180082
0.0188828
0.019752
0.0206141
0.0214673
0.0223101
0.0231411
0.023959
0.024763
0.0255528
0.0263284
0.0270911
0.027843
0.0285883
0.0293335
0.0300884
0.0308617
0.0316007
0.0323049
0.0329738
0.0336056
0.0341981
0.0347485
0.0352541
0.035712
0.0361195
0.036474
0.0367734
0.0370156
0.0371992
0.037323
0.0373863
0.0373892
0.0373319
0.0372154
0.0370411
0.0368113
0.0365289
0.0361984
0.0358268
0.0354258
0.0350159
0.0346266
0.0342841
0.0339641
0.0336287
0.0332706
0.0328894
0.0324868
0.0320649
0.0316261
0.0311728
0.0307073
0.0302321
0.0297495
0.0292618
0.0287711
0.0282796
0.0277893
0.0273021
0.0268201
0.0263448
0.0258781
0.0254214
0.0249761
0.0245435
0.0241248
0.0237209
0.0233327
0.0229608
0.0226057
0.0222678
0.0219473
0.0216442
0.0213585
0.0210899
0.0208381
0.0206027
0.0203832
0.020179
0.0199894
0.0198138
0.0196514
0.0195016
0.0193635
0.0192364
0.0191196
0.0190124
0.018914
0.0188237
0.018741
0.0186651
0.0185951
0.0185312
0.0184737
0.0184217
0.0183744
0.0183313
0.0182918
0.0182557
0.0182226
0.0181921
0.018164
0.0181381
0.0181141
0.0180917
0.018071
0.0180516
0.0180335
0.0180165
0.0180005
0.0179854
0.0179712
0.0179577
0.0179449
0.0179327
0.017921
0.0179099
0.0178992
0.0178889
0.0178789
0.0178693
0.0178599
0.0178508
0.0178419
0.0178332
0.0178247
0.0178163
0.0178081
0.0177999
0.0177918
0.0177839
0.0177759
0.017768
0.0177602
0.0177523
0.0177445
0.0177366
0.0177287
0.0177208
0.0177128
0.0177047
0.0176965
0.0176883
0.0176799
0.0176713
0.0176626
0.0176536
0.0176444
0.0176348
0.0176248
0.0176142
0.017603
0.0175908
0.0175775
0.0175626
0.0175457
0.0175258
0.017502
0.0174725
0.0174342
0.0173824
0.0173075
0.0171902
0.0169937
0.0166444
0.00582878
0.012659
0.016087
0.0187575
0.021118
0.0232551
0.0251975
0.0269715
0.028611
0.0301516
0.0316258
0.0330598
0.0344735
0.0358809
0.0372914
0.0387105
0.0401413
0.0415844
0.0430394
0.0445047
0.0459784
0.047458
0.0489407
0.0504239
0.0519045
0.0533794
0.0548452
0.0562981
0.057734
0.0591489
0.0605238
0.0618705
0.0631892
0.0644758
0.0657247
0.0669293
0.0680822
0.0691761
0.0702032
0.071156
0.0720273
0.0728102
0.0734986
0.0740869
0.0745707
0.0749465
0.0752118
0.0753654
0.0754071
0.0753382
0.0751609
0.0748787
0.0744963
0.0740192
0.0734541
0.0728074
0.0720859
0.0713105
0.070484
0.0696045
0.0686752
0.067701
0.0666876
0.0656406
0.0645657
0.0634686
0.0623544
0.0612284
0.0600954
0.0589602
0.0578273
0.0567011
0.0555854
0.0544842
0.053401
0.0523392
0.0513018
0.0502916
0.0493111
0.0483626
0.0474478
0.0465686
0.045726
0.0449212
0.0441548
0.0434272
0.0427384
0.0420883
0.0414764
0.040902
0.0403643
0.0398621
0.0393944
0.0389596
0.0385564
0.0381831
0.0378383
0.0375202
0.0372273
0.0369579
0.0367104
0.0364833
0.0362751
0.0360844
0.0359096
0.0357496
0.0356028
0.0354672
0.0353415
0.0352271
0.035123
0.0350281
0.0349416
0.0348626
0.0347902
0.0347237
0.0346626
0.0346062
0.034554
0.0345056
0.0344607
0.0344187
0.0343795
0.0343427
0.0343082
0.0342755
0.0342446
0.0342153
0.0341874
0.0341608
0.0341353
0.0341107
0.0340871
0.0340642
0.0340421
0.0340205
0.0339995
0.033979
0.0339589
0.0339391
0.0339196
0.0339004
0.0338814
0.0338625
0.0338438
0.0338252
0.0338067
0.0337882
0.0337697
0.0337512
0.0337326
0.033714
0.0336953
0.0336765
0.0336575
0.0336384
0.0336191
0.0335996
0.0335798
0.0335598
0.0335394
0.0335186
0.0334973
0.0334755
0.0334529
0.0334295
0.033405
0.033379
0.0333513
0.0333211
0.0332877
0.0332499
0.033206
0.0331533
0.0330873
0.0330006
0.0328782
0.0326964
0.0323856
0.0319972
0.00921945
0.018807
0.0234099
0.0267349
0.0295396
0.0320552
0.0343628
0.0364993
0.0384943
0.0403775
0.0421769
0.0439168
0.045616
0.0472885
0.0489436
0.0505873
0.0522231
0.053853
0.0554784
0.0570998
0.0587179
0.0603333
0.0619466
0.0635584
0.065169
0.0667784
0.0683861
0.069991
0.0715913
0.0731844
0.074765
0.0763324
0.0778826
0.0794096
0.0809053
0.0823611
0.0837673
0.0851137
0.08639
0.0875858
0.0886911
0.0896962
0.0905923
0.0913716
0.0920273
0.0925541
0.0929479
0.0932064
0.0933285
0.0933148
0.0931673
0.0928893
0.0924854
0.0919611
0.0913224
0.0905752
0.0897309
0.0888093
0.0878138
0.0867492
0.0856219
0.0844387
0.083207
0.0819338
0.0806261
0.0792908
0.0779345
0.0765634
0.0751835
0.0738006
0.0724201
0.0710472
0.0696868
0.0683435
0.0670216
0.0657251
0.0644577
0.0632228
0.0620235
0.0608623
0.0597418
0.0586639
0.0576302
0.0566419
0.0557
0.0548049
0.0539569
0.0531558
0.0524012
0.0516922
0.0510279
0.0504071
0.0498283
0.0492899
0.0487901
0.0483272
0.0478993
0.0475043
0.0471403
0.0468054
0.0464975
0.0462148
0.0459556
0.0457178
0.0455
0.0453004
0.0451175
0.0449495
0.0447948
0.0446523
0.0445221
0.044403
0.044294
0.0441942
0.0441024
0.044018
0.0439403
0.0438684
0.0438018
0.04374
0.0436825
0.0436287
0.0435784
0.0435312
0.0434867
0.0434446
0.0434048
0.043367
0.0433309
0.0432964
0.0432633
0.0432315
0.0432008
0.043171
0.0431422
0.0431141
0.0430867
0.0430599
0.0430336
0.0430077
0.0429822
0.042957
0.042932
0.0429073
0.0428827
0.0428583
0.0428339
0.0428096
0.0427852
0.0427609
0.0427365
0.042712
0.0426874
0.0426627
0.0426378
0.0426127
0.0425874
0.0425618
0.0425359
0.0425096
0.042483
0.0424559
0.0424283
0.0423999
0.0423708
0.0423407
0.0423094
0.0422765
0.0422417
0.0422042
0.0421632
0.0421176
0.0420655
0.0420042
0.0419294
0.0418341
0.0417051
0.0415214
0.0412351
0.0408539
0.0116244
0.0233833
0.0289589
0.0328205
0.0359513
0.0386954
0.0411975
0.0435235
0.04571
0.0477832
0.0497649
0.0516733
0.0535233
0.0553266
0.0570922
0.0588268
0.0605359
0.062224
0.0638952
0.0655535
0.0672026
0.0688465
0.0704888
0.0721328
0.0737814
0.0754369
0.0771005
0.0787727
0.0804524
0.0821374
0.0838242
0.0855099
0.0871893
0.0888549
0.0904979
0.0921079
0.0936737
0.0951834
0.0966244
0.0979844
0.099251
0.100412
0.101458
0.102378
0.103163
0.103808
0.104306
0.104654
0.10485
0.104895
0.10479
0.104538
0.104144
0.103613
0.10295
0.102164
0.101273
0.100287
0.099214
0.0980613
0.0968371
0.0955496
0.094207
0.0928175
0.0913887
0.0899281
0.0884431
0.0869405
0.0854269
0.0839086
0.0823916
0.0808815
0.0793837
0.0779032
0.0764449
0.0750131
0.073612
0.0722454
0.0709166
0.0696289
0.0683847
0.0671866
0.0660363
0.0649354
0.063885
0.0628859
0.0619383
0.0610424
0.0601976
0.0594032
0.0586584
0.0579617
0.0573117
0.0567067
0.0561449
0.0556242
0.0551426
0.0546979
0.0542879
0.0539106
0.0535636
0.053245
0.0529526
0.0526846
0.0524389
0.0522137
0.0520074
0.0518182
0.0516444
0.0514844
0.0513377
0.0512033
0.0510801
0.0509669
0.0508629
0.050767
0.0506785
0.0505967
0.0505207
0.0504501
0.0503842
0.0503227
0.050265
0.0502107
0.0501595
0.0501111
0.0500652
0.0500215
0.0499798
0.0499398
0.0499015
0.0498645
0.0498288
0.0497942
0.0497606
0.0497278
0.0496958
0.0496645
0.0496337
0.0496034
0.0495735
0.0495439
0.0495146
0.0494856
0.0494567
0.049428
0.0493993
0.0493707
0.0493421
0.0493134
0.0492847
0.0492559
0.0492269
0.0491978
0.0491685
0.049139
0.0491092
0.0490791
0.0490487
0.0490179
0.0489867
0.048955
0.0489226
0.0488896
0.0488557
0.0488208
0.0487846
0.0487468
0.0487069
0.0486644
0.0486183
0.0485675
0.0485103
0.0484441
0.0483648
0.0482661
0.0481372
0.0479611
0.0477073
0.0473819
0.0134473
0.0268035
0.0331642
0.0374926
0.0409231
0.0438692
0.046521
0.0489725
0.0512741
0.0534563
0.0555395
0.0575396
0.0594689
0.0613376
0.0631544
0.0649269
0.066662
0.068366
0.0700454
0.0717064
0.0733552
0.0749978
0.0766399
0.078287
0.0799435
0.0816132
0.0832985
0.0850008
0.0867197
0.0884531
0.0901984
0.0919527
0.0937106
0.0954644
0.0972045
0.0989197
0.100597
0.102224
0.103786
0.105269
0.106659
0.107942
0.109106
0.110138
0.11103
0.111773
0.11236
0.112788
0.113053
0.113156
0.113099
0.112883
0.112513
0.111996
0.111337
0.110551
0.109651
0.108646
0.107546
0.106358
0.105093
0.10376
0.102366
0.100921
0.0994325
0.097909
0.0963577
0.0947858
0.0932003
0.0916078
0.0900144
0.0884261
0.0868486
0.0852872
0.083747
0.0822326
0.0807486
0.079299
0.0778875
0.0765176
0.0751923
0.0739142
0.0726855
0.071508
0.0703831
0.0693118
0.0682947
0.0673318
0.0664231
0.0655678
0.0647651
0.0640137
0.0633123
0.0626589
0.0620519
0.061489
0.0609682
0.0604872
0.0600436
0.0596353
0.0592598
0.0589149
0.0585985
0.0583083
0.0580424
0.0577987
0.0575755
0.0573708
0.0571831
0.0570106
0.056852
0.0567067
0.0565733
0.0564508
0.056338
0.0562339
0.0561378
0.0560487
0.0559661
0.0558891
0.0558173
0.0557501
0.055687
0.0556277
0.0555717
0.0555186
0.0554682
0.0554202
0.0553744
0.0553304
0.0552881
0.0552474
0.0552079
0.0551697
0.0551325
0.0550962
0.0550607
0.055026
0.0549918
0.0549581
0.0549249
0.054892
0.0548594
0.0548271
0.0547949
0.0547629
0.0547309
0.054699
0.054667
0.0546351
0.054603
0.0545709
0.0545385
0.054506
0.0544733
0.0544404
0.0544071
0.0543736
0.0543397
0.0543053
0.0542706
0.0542352
0.0541993
0.0541626
0.054125
0.0540864
0.0540464
0.0540048
0.0539611
0.0539147
0.0538648
0.0538102
0.0537492
0.0536794
0.0535972
0.0534968
0.0533691
0.0532007
0.0529722
0.0526929
0.0148688
0.0293771
0.0363495
0.0410654
0.0447631
0.0478964
0.0506821
0.0532341
0.0556159
0.0578651
0.0600057
0.062054
0.0640224
0.0659209
0.0677582
0.0695425
0.0712815
0.0729828
0.074654
0.0763028
0.0779366
0.0795631
0.0811892
0.0828216
0.0844662
0.0861277
0.0878099
0.0895149
0.0912431
0.0929932
0.0947633
0.0965514
0.0983526
0.100159
0.101962
0.103748
0.105505
0.107218
0.108872
0.11045
0.111937
0.113319
0.114579
0.115706
0.116689
0.117517
0.118184
0.118684
0.119015
0.119177
0.119169
0.118997
0.118663
0.118175
0.117544
0.116781
0.115898
0.114904
0.113809
0.112623
0.111355
0.110014
0.10861
0.107151
0.105646
0.104103
0.102528
0.100931
0.0993166
0.0976925
0.096065
0.0944399
0.0928232
0.0912203
0.0896364
0.0880765
0.0865451
0.0850467
0.0835853
0.0821645
0.0807876
0.0794576
0.0781771
0.0769481
0.0757722
0.0746509
0.0735848
0.0725744
0.0716197
0.0707202
0.0698753
0.0690837
0.0683441
0.0676549
0.0670141
0.0664197
0.0658695
0.0653612
0.0648925
0.0644608
0.064064
0.0636995
0.0633651
0.0630585
0.0627775
0.0625202
0.0622845
0.0620685
0.0618705
0.0616888
0.0615217
0.0613684
0.0612278
0.0610984
0.0609793
0.0608694
0.0607678
0.0606736
0.0605861
0.0605046
0.0604286
0.0603573
0.0602904
0.0602274
0.0601679
0.0601115
0.0600578
0.0600067
0.0599578
0.0599109
0.0598658
0.0598223
0.0597801
0.0597392
0.0596994
0.0596605
0.0596224
0.0595851
0.0595484
0.0595122
0.0594765
0.0594412
0.0594061
0.0593713
0.0593366
0.0593021
0.0592677
0.0592333
0.0591988
0.0591644
0.0591298
0.0590951
0.0590602
0.0590252
0.0589899
0.0589543
0.0589184
0.0588822
0.0588457
0.0588086
0.0587711
0.0587331
0.0586944
0.0586549
0.0586145
0.058573
0.0585302
0.0584858
0.0584392
0.0583899
0.0583372
0.0582798
0.0582162
0.058144
0.05806
0.0579591
0.0578336
0.0576729
0.0574647
0.0572211
0.0159708
0.0313018
0.0387381
0.04376
0.0476801
0.0509767
0.0538808
0.0565184
0.0589624
0.0612574
0.0634318
0.0655045
0.0674893
0.0693971
0.0712371
0.073018
0.0747478
0.0764348
0.0780873
0.0797135
0.0813217
0.0829203
0.0845172
0.08612
0.0877355
0.0893696
0.0910272
0.0927114
0.0944237
0.0961638
0.097931
0.0997246
0.101541
0.103372
0.105209
0.10704
0.108851
0.110626
0.112349
0.114002
0.115569
0.117031
0.118374
0.119582
0.120644
0.121549
0.122289
0.122857
0.123252
0.123473
0.123519
0.123396
0.123108
0.122665
0.122077
0.121354
0.120508
0.119548
0.118484
0.117325
0.116083
0.114766
0.113383
0.111942
0.110453
0.108923
0.107359
0.105769
0.10416
0.102538
0.100909
0.0992799
0.0976558
0.0960424
0.094445
0.0928687
0.0913182
0.0897982
0.0883127
0.0868658
0.085461
0.0841016
0.0827904
0.0815299
0.0803219
0.0791681
0.0780697
0.0770272
0.0760409
0.0751106
0.0742358
0.0734155
0.0726486
0.0719333
0.0712679
0.0706505
0.0700787
0.0695504
0.0690631
0.0686144
0.0682018
0.067823
0.0674754
0.0671569
0.0668651
0.0665979
0.0663533
0.0661293
0.065924
0.0657358
0.0655628
0.0654041
0.0652584
0.0651245
0.065001
0.0648871
0.0647818
0.0646841
0.0645934
0.0645089
0.0644299
0.0643559
0.0642864
0.0642209
0.064159
0.0641004
0.0640446
0.0639913
0.0639404
0.0638915
0.0638444
0.0637989
0.0637549
0.0637122
0.0636705
0.0636298
0.06359
0.0635509
0.0635124
0.0634745
0.063437
0.0633999
0.0633631
0.0633265
0.0632901
0.0632539
0.0632176
0.0631815
0.0631452
0.063109
0.0630726
0.0630361
0.0629994
0.0629625
0.0629253
0.0628879
0.0628501
0.062812
0.0627735
0.0627346
0.0626951
0.0626551
0.0626144
0.0625729
0.0625305
0.062487
0.0624422
0.0623957
0.0623471
0.0622958
0.0622411
0.0621819
0.0621167
0.0620433
0.0619587
0.0618584
0.061736
0.0615833
0.0613926
0.0611775
0.016805
0.032704
0.0404822
0.0457352
0.0498296
0.0532592
0.0562624
0.0589715
0.0614654
0.0637937
0.0659888
0.0680727
0.0700609
0.0719657
0.0737972
0.0755642
0.0772755
0.0789394
0.0805643
0.0821587
0.0837314
0.085291
0.0868461
0.0884048
0.0899751
0.0915638
0.0931768
0.0948186
0.0964922
0.0981984
0.0999383
0.101713
0.103519
0.105351
0.1072
0.109054
0.110898
0.112716
0.11449
0.116202
0.117832
0.119363
0.120776
0.122057
0.12319
0.124165
0.124973
0.125607
0.126066
0.126346
0.126451
0.126383
0.126152
0.125765
0.125233
0.124566
0.123773
0.122865
0.121853
0.120745
0.119551
0.118282
0.116945
0.115549
0.114103
0.112613
0.111087
0.109532
0.107955
0.106362
0.10476
0.103153
0.101547
0.0999492
0.0983634
0.0967951
0.0952491
0.09373
0.0922424
0.0907903
0.0893775
0.0880076
0.0866838
0.0854086
0.0841845
0.0830134
0.0818966
0.0808352
0.0798296
0.0788801
0.0779861
0.0771471
0.0763619
0.0756291
0.074947
0.0743137
0.0737272
0.073185
0.0726849
0.0722244
0.071801
0.0714123
0.0710559
0.0707293
0.0704302
0.0701565
0.069906
0.0696768
0.0694669
0.0692745
0.069098
0.068936
0.0687872
0.0686504
0.0685245
0.0684082
0.0683006
0.0682009
0.0681083
0.068022
0.0679413
0.0678658
0.0677948
0.0677279
0.0676646
0.0676046
0.0675475
0.0674931
0.0674409
0.0673908
0.0673426
0.067296
0.0672509
0.067207
0.0671642
0.0671225
0.0670815
0.0670414
0.0670018
0.0669628
0.0669242
0.066886
0.0668481
0.0668105
0.066773
0.0667356
0.0666982
0.0666609
0.0666236
0.0665862
0.0665486
0.0665109
0.0664731
0.066435
0.0663966
0.066358
0.066319
0.0662797
0.0662399
0.0661997
0.066159
0.0661177
0.0660757
0.0660329
0.0659892
0.0659444
0.0658983
0.0658505
0.0658007
0.0657483
0.0656925
0.0656323
0.0655664
0.0654927
0.0654086
0.06531
0.0651917
0.0650474
0.0648725
0.0646809
0.0174053
0.0336675
0.0416877
0.0471076
0.051331
0.0548622
0.0579433
0.0607093
0.0632424
0.0655953
0.0678032
0.0698904
0.0718745
0.0737689
0.0755844
0.0773305
0.079016
0.0806493
0.0822387
0.0837929
0.0853205
0.0868303
0.0883313
0.0898322
0.0913416
0.0928675
0.0944171
0.0959965
0.09761
0.0992602
0.10095
0.102683
0.104458
0.106269
0.108109
0.109966
0.111825
0.113669
0.115479
0.117236
0.118919
0.120507
0.121982
0.123326
0.124525
0.125565
0.126439
0.127138
0.12766
0.128003
0.128169
0.128166
0.128001
0.127681
0.127217
0.126618
0.125894
0.125055
0.124112
0.123073
0.121948
0.120747
0.119478
0.118148
0.116766
0.115339
0.113874
0.112377
0.110856
0.109315
0.10776
0.106198
0.104634
0.103073
0.10152
0.09998
0.0984584
0.0969598
0.0954886
0.0940492
0.0926457
0.0912817
0.0899607
0.0886858
0.0874596
0.0862842
0.0851616
0.0840928
0.0830789
0.0821201
0.0812165
0.0803674
0.0795721
0.0788293
0.0781376
0.077495
0.0768996
0.0763491
0.0758413
0.0753738
0.0749439
0.0745494
0.0741878
0.0738565
0.0735534
0.0732761
0.0730225
0.0727906
0.0725783
0.072384
0.0722059
0.0720425
0.0718924
0.0717545
0.0716275
0.0715103
0.0714019
0.0713015
0.0712081
0.0711212
0.0710399
0.0709638
0.0708923
0.0708249
0.0707611
0.0707007
0.0706431
0.0705882
0.0705356
0.0704851
0.0704364
0.0703894
0.0703438
0.0702995
0.0702563
0.0702141
0.0701727
0.070132
0.070092
0.0700525
0.0700135
0.0699748
0.0699364
0.0698982
0.0698602
0.0698223
0.0697844
0.0697466
0.0697087
0.0696707
0.0696326
0.0695943
0.0695558
0.0695172
0.0694782
0.0694389
0.0693994
0.0693594
0.069319
0.0692782
0.0692368
0.0691948
0.0691522
0.0691088
0.0690644
0.069019
0.0689723
0.0689239
0.0688736
0.0688207
0.0687646
0.0687043
0.0686386
0.0685655
0.0684828
0.068387
0.0682736
0.068138
0.0679777
0.0678063
0.0177941
0.0342511
0.0424319
0.0479657
0.0522796
0.0558841
0.059023
0.0618321
0.064395
0.0667659
0.0689816
0.071068
0.073044
0.0749239
0.0767192
0.0784397
0.0800942
0.0816911
0.0832386
0.084745
0.0862188
0.0876689
0.0891043
0.0905343
0.0919683
0.0934153
0.0948838
0.0963816
0.0979149
0.0994883
0.101108
0.102779
0.104501
0.106271
0.108082
0.109923
0.111779
0.113634
0.115466
0.117255
0.118978
0.120613
0.122141
0.123543
0.124801
0.125903
0.126841
0.127602
0.128187
0.128596
0.128833
0.128903
0.128813
0.128571
0.128186
0.127669
0.127027
0.126272
0.125413
0.12446
0.123421
0.122305
0.121121
0.119875
0.118577
0.117231
0.115846
0.114426
0.112979
0.111509
0.110022
0.108524
0.107019
0.105513
0.10401
0.102517
0.101037
0.0995749
0.0981363
0.0967251
0.0953456
0.0940018
0.0926973
0.0914356
0.0902195
0.0890516
0.0879339
0.0868682
0.0858555
0.0848966
0.0839917
0.0831405
0.0823424
0.0815965
0.0809013
0.0802552
0.0796564
0.0791026
0.0785918
0.0781214
0.0776891
0.0772924
0.0769289
0.0765961
0.0762918
0.0760136
0.0757593
0.075527
0.0753146
0.0751203
0.0749423
0.0747791
0.0746294
0.0744918
0.0743652
0.0742483
0.0741404
0.0740403
0.0739474
0.0738608
0.0737799
0.0737042
0.073633
0.073566
0.0735025
0.0734424
0.0733851
0.0733305
0.0732781
0.0732278
0.0731794
0.0731325
0.0730871
0.0730429
0.0729999
0.0729578
0.0729165
0.0728759
0.072836
0.0727966
0.0727576
0.0727189
0.0726806
0.0726424
0.0726044
0.0725665
0.0725286
0.0724907
0.0724528
0.0724148
0.0723767
0.0723383
0.0722998
0.0722611
0.0722221
0.0721827
0.0721431
0.072103
0.0720626
0.0720216
0.0719802
0.0719382
0.0718955
0.071852
0.0718076
0.0717621
0.0717154
0.0716671
0.0716169
0.0715643
0.0715086
0.0714489
0.0713841
0.0713125
0.071232
0.0711397
0.0710321
0.0709054
0.0707589
0.0706054
0.0179864
0.0344985
0.0427751
0.048382
0.0527562
0.0564116
0.0595922
0.0624336
0.0650194
0.0674042
0.0696256
0.0717099
0.0736769
0.0755414
0.0773151
0.0790081
0.0806291
0.0821861
0.0836871
0.0851401
0.0865533
0.0879355
0.0892957
0.0906436
0.0919893
0.0933427
0.094714
0.0961126
0.097547
0.099024
0.100553
0.102141
0.10379
0.1055
0.107262
0.109068
0.110903
0.11275
0.114588
0.116394
0.118144
0.119815
0.121386
0.122839
0.124149
0.125305
0.126298
0.127123
0.127777
0.12826
0.128575
0.128727
0.128723
0.128569
0.128275
0.127851
0.127304
0.126646
0.125886
0.125031
0.124092
0.123077
0.121992
0.120847
0.119646
0.118398
0.117108
0.115781
0.114423
0.11304
0.111636
0.110216
0.108786
0.10735
0.105914
0.104481
0.103057
0.101646
0.100254
0.0988839
0.0975413
0.09623
0.0949539
0.0937166
0.0925214
0.0913712
0.0902683
0.0892147
0.0882119
0.0872609
0.0863623
0.085516
0.0847218
0.0839788
0.0832859
0.0826416
0.0820442
0.0814917
0.080982
0.0805126
0.0800814
0.0796859
0.0793236
0.0789921
0.0786892
0.0784124
0.0781598
0.0779291
0.0777184
0.0775258
0.0773497
0.0771883
0.0770403
0.0769044
0.0767794
0.0766641
0.0765576
0.076459
0.0763674
0.0762822
0.0762026
0.076128
0.076058
0.075992
0.0759296
0.0758705
0.0758141
0.0757604
0.0757089
0.0756595
0.0756118
0.0755657
0.075521
0.0754775
0.0754351
0.0753936
0.075353
0.075313
0.0752736
0.0752348
0.0751963
0.0751582
0.0751203
0.0750826
0.0750451
0.0750077
0.0749703
0.0749329
0.0748954
0.0748578
0.0748201
0.0747822
0.0747441
0.0747058
0.0746672
0.0746283
0.0745891
0.0745494
0.0745094
0.0744689
0.0744279
0.0743863
0.074344
0.074301
0.0742571
0.0742122
0.074166
0.0741183
0.0740688
0.074017
0.0739623
0.0739039
0.0738407
0.0737713
0.0736938
0.0736058
0.0735044
0.0733869
0.0732534
0.0731158
0.0179918
0.0344449
0.0427681
0.0484195
0.0528341
0.0565261
0.0597384
0.0626061
0.065212
0.0676104
0.0698385
0.0719231
0.0738837
0.0757352
0.0774895
0.0791564
0.0807443
0.0822611
0.0837142
0.0851112
0.0864599
0.087769
0.0890473
0.0903049
0.0915522
0.0928004
0.0940608
0.095345
0.0966637
0.0980268
0.0994469
0.100933
0.102489
0.104116
0.105808
0.107557
0.109349
0.111166
0.112988
0.114796
0.116556
0.118244
0.119839
0.121321
0.122674
0.123882
0.124936
0.125829
0.126558
0.127121
0.127522
0.127765
0.127855
0.127799
0.127607
0.127286
0.126847
0.126297
0.125646
0.124902
0.124075
0.123171
0.122199
0.121165
0.120075
0.118936
0.117752
0.11653
0.115275
0.11399
0.112681
0.111353
0.11001
0.108657
0.107298
0.105938
0.104582
0.103234
0.101899
0.100582
0.0992871
0.0980188
0.0967812
0.0955782
0.0944133
0.0932896
0.0922099
0.0911766
0.0901913
0.0892554
0.0883698
0.0875348
0.0867503
0.0860158
0.0853303
0.0846926
0.0841011
0.0835539
0.0830491
0.0825843
0.0821574
0.081766
0.0814077
0.0810801
0.0807809
0.0805078
0.0802588
0.0800316
0.0798243
0.0796351
0.0794622
0.079304
0.079159
0.079026
0.0789037
0.078791
0.078687
0.0785908
0.0785014
0.0784183
0.0783408
0.0782682
0.0782
0.0781358
0.0780751
0.0780175
0.0779627
0.0779105
0.0778604
0.0778123
0.0777659
0.0777211
0.0776776
0.0776352
0.077594
0.0775536
0.077514
0.0774751
0.0774367
0.0773988
0.0773613
0.0773241
0.0772872
0.0772505
0.0772138
0.0771773
0.0771408
0.0771042
0.0770676
0.0770309
0.0769941
0.076957
0.0769198
0.0768823
0.0768446
0.0768065
0.0767681
0.0767293
0.0766901
0.0766505
0.0766104
0.0765696
0.0765283
0.0764862
0.0764433
0.0763993
0.0763542
0.0763077
0.0762594
0.076209
0.0761558
0.0760992
0.0760382
0.0759716
0.0758977
0.0758145
0.0757197
0.0756114
0.0754903
0.0753673
0.0178153
0.0341193
0.0424557
0.0481365
0.0525833
0.056307
0.0595494
0.062444
0.0650729
0.0674893
0.06973
0.071821
0.0737816
0.0756265
0.0773672
0.0790132
0.0805726
0.0820527
0.0834605
0.0848031
0.0860879
0.0873231
0.0885174
0.089681
0.0908246
0.0919603
0.0931008
0.0942591
0.0954484
0.0966835
0.0979779
0.0993423
0.100784
0.102306
0.103906
0.105571
0.10729
0.109047
0.110821
0.11259
0.114329
0.116012
0.117618
0.119125
0.120515
0.121773
0.122887
0.123851
0.124658
0.125308
0.125801
0.126141
0.126334
0.126385
0.126303
0.126095
0.12577
0.125337
0.124805
0.124182
0.123475
0.122692
0.12184
0.120926
0.119955
0.118933
0.117865
0.116757
0.115612
0.114436
0.113231
0.112004
0.110757
0.109496
0.108224
0.106946
0.105667
0.104392
0.103124
0.101869
0.10063
0.0994141
0.0982236
0.0970631
0.0959365
0.0948472
0.0937982
0.092792
0.091831
0.0909166
0.09005
0.0892319
0.0884624
0.0877413
0.0870678
0.0864409
0.0858593
0.0853211
0.0848246
0.0843676
0.083948
0.0835634
0.0832116
0.0828901
0.0825968
0.0823294
0.0820857
0.0818637
0.0816614
0.0814769
0.0813086
0.0811548
0.081014
0.0808849
0.0807664
0.0806572
0.0805566
0.0804635
0.0803772
0.080297
0.0802222
0.0801522
0.0800865
0.0800246
0.0799662
0.0799108
0.079858
0.0798077
0.0797596
0.0797133
0.0796686
0.0796255
0.0795836
0.0795429
0.0795031
0.0794642
0.0794261
0.0793886
0.0793516
0.0793151
0.079279
0.0792431
0.0792075
0.079172
0.0791367
0.0791014
0.0790661
0.0790308
0.0789954
0.0789599
0.0789243
0.0788885
0.0788525
0.0788162
0.0787797
0.0787429
0.0787057
0.0786682
0.0786302
0.0785918
0.078553
0.0785135
0.0784735
0.0784327
0.0783912
0.0783487
0.078305
0.0782601
0.0782135
0.0781648
0.0781137
0.0780594
0.0780012
0.0779378
0.077868
0.07779
0.0777021
0.0776029
0.0774936
0.0773839
0.0174503
0.0335432
0.0418779
0.0475887
0.0520723
0.0558344
0.0591143
0.0620444
0.0647059
0.0671511
0.0694147
0.0715226
0.0734937
0.0753421
0.0770791
0.0787136
0.0802533
0.081705
0.0830751
0.0843702
0.0855972
0.0867638
0.0878784
0.088951
0.0899926
0.0910157
0.092034
0.0930623
0.0941157
0.0952131
0.0963682
0.0975925
0.0988944
0.100278
0.101744
0.103285
0.104891
0.106549
0.10824
0.109943
0.111635
0.113291
0.114889
0.116407
0.117825
0.119126
0.120298
0.121331
0.122219
0.122957
0.123547
0.12399
0.12429
0.124454
0.124487
0.124398
0.124194
0.123884
0.123475
0.122976
0.122394
0.121737
0.12101
0.120221
0.119374
0.118475
0.117528
0.116538
0.11551
0.114447
0.113353
0.112232
0.111088
0.109925
0.108747
0.107559
0.106365
0.105168
0.103975
0.102788
0.101614
0.100457
0.0993207
0.0982098
0.0971282
0.0960798
0.0950677
0.0940949
0.0931638
0.0922764
0.0914341
0.0906378
0.0898881
0.0891847
0.0885274
0.0879152
0.087347
0.0868212
0.0863361
0.0858897
0.08548
0.0851047
0.0847616
0.0844484
0.0841628
0.0839028
0.0836661
0.0834508
0.0832548
0.0830764
0.0829139
0.0827655
0.0826299
0.0825057
0.0823917
0.0822869
0.0821904
0.0821012
0.0820187
0.081942
0.0818705
0.0818037
0.081741
0.081682
0.0816263
0.0815735
0.0815234
0.0814755
0.0814296
0.0813855
0.081343
0.0813019
0.0812621
0.0812233
0.0811855
0.0811484
0.0811121
0.0810763
0.0810411
0.0810063
0.0809718
0.0809376
0.0809036
0.0808697
0.0808359
0.0808022
0.0807685
0.0807348
0.080701
0.080667
0.0806329
0.0805987
0.0805642
0.0805295
0.0804945
0.0804592
0.0804236
0.0803877
0.0803513
0.0803145
0.0802773
0.0802395
0.0802011
0.080162
0.0801222
0.0800814
0.0800397
0.0799966
0.0799521
0.0799057
0.079857
0.0798054
0.0797503
0.0796906
0.0796252
0.0795528
0.0794719
0.0793817
0.0792835
0.0791861