/*--------------------------------*- C++ -*----------------------------------*\
  =========                 |
  \\      /  F ield         | OpenFOAM: The Open Source CFD Toolbox
   \\    /   O peration     | Website:  https://openfoam.org
    \\  /    A nd           | Version:  6
     \\/     M anipulation  |
\*---------------------------------------------------------------------------*/
FoamFile
{
    version     2.0;
    format      ascii;
    class       volScalarField;
    location    "0.08";
    object      nut;
}
// * * * * * * * * * * * * * * * * * * * * * * * * * * * * * * * * * * * * * //

dimensions      [0 2 -1 0 0 0 0];

internalField   nonuniform List<scalar> 
12225
(
1.77723e-05
1.42682e-05
1.23508e-05
1.11629e-05
1.0361e-05
9.79067e-06
9.36502e-06
9.03165e-06
8.75965e-06
8.53083e-06
8.33411e-06
8.1624e-06
8.01092e-06
7.87636e-06
7.75631e-06
7.6493e-06
7.55809e-06
7.49107e-06
0.000144881
0.000101914
8.7898e-05
8.05418e-05
7.60923e-05
7.31202e-05
7.08282e-05
6.8835e-05
6.70146e-05
6.53401e-05
6.38044e-05
6.24006e-05
6.11214e-05
5.99609e-05
5.89156e-05
5.79667e-05
5.71456e-05
5.65191e-05
0.00032332
0.000223573
0.000189804
0.000172575
0.000162063
0.000154989
0.000149755
0.00014552
0.000141883
0.000138663
0.00013577
0.000133153
0.00013078
0.000128633
0.000126705
0.000124985
0.000123503
0.000122404
0.000493965
0.000355241
0.000299449
0.000269663
0.000251148
0.000238577
0.000229397
0.000222236
0.000216353
0.000211343
0.000206977
0.000203115
0.000199671
0.000196589
0.000193841
0.00019141
0.000189312
0.000187684
0.000624471
0.000478689
0.000407383
0.000366253
0.000339703
0.000321278
0.000307729
0.000297246
0.000288789
0.00028174
0.000275722
0.000270494
0.000265899
0.000261836
0.000258244
0.000255079
0.000252343
0.000250138
0.000713113
0.000583375
0.000506559
0.000457975
0.000424993
0.000401373
0.000383687
0.000369913
0.000358822
0.000349645
0.000341884
0.00033521
0.0003294
0.000324305
0.000319827
0.000315891
0.000312479
0.000309664
0.000769325
0.000665604
0.000592351
0.000541235
0.00050444
0.000477061
0.000456038
0.000439416
0.000425931
0.000414748
0.000405302
0.000397205
0.000390184
0.000384051
0.000378677
0.000373953
0.000369848
0.000366405
0.000803473
0.000726333
0.000662598
0.000613507
0.000575851
0.00054659
0.000523431
0.000504738
0.000489365
0.000476508
0.000465596
0.000456221
0.000448088
0.000440982
0.000434752
0.00042927
0.00042449
0.000420432
0.00082364
0.000768954
0.000717277
0.000673515
0.000637669
0.00060848
0.000584579
0.000564802
0.000548244
0.000534217
0.000522204
0.000511818
0.000502768
0.000494838
0.000487856
0.000481697
0.000476304
0.000471677
0.000835329
0.000797618
0.000757894
0.000721202
0.000689132
0.000661721
0.000638438
0.00061863
0.000601692
0.000587109
0.000574465
0.000563431
0.000553746
0.00054521
0.000537647
0.000530947
0.000525049
0.000519939
0.00084202
0.000816219
0.000786796
0.000757504
0.000730291
0.000705882
0.00068435
0.00066548
0.000648959
0.000634469
0.000621719
0.00061046
0.000600484
0.000591607
0.000583688
0.000576631
0.00057038
0.000564911
0.000845511
0.000826957
0.000804908
0.000781773
0.00075922
0.000738149
0.000718926
0.000701609
0.000686103
0.000672252
0.000659877
0.000648812
0.000638899
0.000629995
0.000621991
0.000614811
0.00060841
0.000602767
0.000847622
0.000833959
0.000817522
0.000799626
0.000781459
0.000763838
0.000747232
0.000731854
0.000717762
0.000704926
0.000693269
0.000682699
0.000673108
0.000664406
0.000656515
0.00064938
0.000642971
0.000637268
0.000848984
0.00083879
0.000826806
0.00081354
0.000799651
0.000785714
0.000772146
0.000759209
0.000747044
0.000735712
0.000725218
0.000715531
0.00070661
0.00069841
0.000690888
0.000684018
0.000677782
0.000672164
0.000849785
0.000841802
0.000832958
0.000823312
0.000813104
0.000802627
0.00079215
0.000781885
0.000771981
0.000762528
0.000753577
0.00074515
0.000737251
0.000729874
0.000723011
0.00071666
0.00071082
0.000705473
0.000850211
0.000843476
0.000836571
0.000829378
0.0008219
0.000814215
0.000806433
0.000798663
0.000791002
0.000783527
0.000776293
0.000769342
0.000762699
0.000756383
0.00075041
0.000744794
0.000739549
0.000734651
0.00085041
0.000844287
0.0008384
0.000832602
0.000826808
0.000820979
0.000815116
0.000809241
0.000803388
0.000797592
0.000791888
0.000786307
0.000780877
0.000775622
0.000770566
0.000765734
0.000761141
0.000756761
0.000850482
0.000844585
0.000839094
0.000833872
0.000828816
0.000823851
0.000818932
0.000814037
0.000809161
0.00080431
0.000799496
0.000794736
0.00079005
0.000785459
0.000780987
0.000776658
0.000772487
0.00076844
0.000850461
0.000844497
0.00083889
0.000833502
0.000828233
0.00082302
0.000817828
0.000812647
0.000807479
0.000802337
0.000797239
0.000792203
0.00078725
0.000782402
0.000777682
0.000773112
0.000768708
0.000764438
0.000850263
0.000843692
0.000837065
0.000830256
0.00082324
0.000816056
0.000808773
0.000801472
0.000794227
0.000787099
0.000780137
0.000773378
0.000766848
0.000760567
0.000754552
0.000748819
0.000743376
0.000738191
0.000849707
0.000841527
0.000832431
0.000822517
0.000812043
0.000801305
0.000790566
0.000780027
0.000769827
0.000760053
0.000750752
0.000741944
0.000733629
0.000725799
0.000718443
0.000711554
0.00070512
0.000699099
0.000848162
0.000835937
0.00082139
0.000805465
0.000789088
0.000772949
0.000757483
0.000742924
0.000729368
0.000716826
0.000705258
0.000694601
0.000684784
0.000675735
0.000667392
0.000659704
0.00065263
0.000646114
0.000844084
0.000822731
0.000797894
0.000772418
0.000748025
0.000725533
0.000705202
0.000686999
0.000670754
0.000656253
0.000643278
0.000631627
0.000621122
0.000611614
0.00060298
0.000595124
0.00058798
0.000581478
0.000833785
0.000794222
0.000753312
0.000715917
0.000683391
0.000655629
0.00063204
0.000611939
0.000594697
0.000579786
0.000566778
0.000555334
0.000545183
0.000536113
0.00052796
0.000520602
0.000513957
0.000507957
0.000809069
0.000738657
0.000678449
0.000630756
0.000593344
0.000563754
0.000540012
0.000520635
0.000504547
0.000490969
0.000479336
0.000469234
0.000460357
0.000452474
0.000445415
0.00043906
0.00043333
0.000428172
0.000753676
0.000642644
0.00056815
0.000517454
0.000481366
0.000454673
0.000434256
0.000418142
0.000405059
0.000394171
0.000384914
0.000376901
0.000369858
0.00036359
0.000357956
0.00035286
0.000348245
0.000344085
0.000641459
0.000499109
0.000426708
0.00038385
0.000355655
0.000335875
0.000321274
0.000309978
0.000300873
0.000293279
0.000286772
0.000281074
0.000276003
0.000271432
0.000267274
0.00026347
0.000259989
0.000256833
0.000448548
0.000320159
0.00027023
0.00024338
0.000226585
0.000215252
0.000207062
0.000200708
0.000195474
0.000190973
0.000186988
0.000183394
0.000180112
0.000177091
0.000174296
0.000171701
0.000169297
0.000167098
0.000203094
0.000143539
0.000122949
0.000111665
0.000104748
0.000100277
9.70645e-05
9.44473e-05
9.21304e-05
9.00049e-05
8.80318e-05
8.6194e-05
8.44812e-05
8.28851e-05
8.13977e-05
8.00111e-05
7.87196e-05
7.75246e-05
2.40294e-05
1.96337e-05
1.71023e-05
1.54654e-05
1.43218e-05
1.34878e-05
1.28581e-05
1.23652e-05
1.19658e-05
1.16322e-05
1.1347e-05
1.10985e-05
1.08788e-05
1.06825e-05
1.05056e-05
1.03449e-05
1.01984e-05
1.00645e-05
2.70988e-06
7.78952e-06
9.17459e-06
1.03638e-05
1.13055e-05
1.20336e-05
1.26634e-05
1.32297e-05
1.37517e-05
1.42423e-05
1.471e-05
1.51601e-05
1.55957e-05
1.60185e-05
1.64291e-05
1.68278e-05
1.72147e-05
1.75895e-05
1.79522e-05
1.83029e-05
1.86415e-05
1.89683e-05
1.92834e-05
1.95872e-05
1.988e-05
2.01625e-05
2.04352e-05
2.06992e-05
2.09551e-05
2.1203e-05
2.14766e-05
2.17351e-05
2.19787e-05
2.22083e-05
2.24239e-05
2.26254e-05
2.28124e-05
2.29842e-05
2.31403e-05
2.32802e-05
2.34031e-05
2.35085e-05
2.35959e-05
2.36648e-05
2.3715e-05
2.37461e-05
2.3758e-05
2.37507e-05
2.37242e-05
2.36786e-05
2.36141e-05
2.35307e-05
2.34282e-05
2.33058e-05
2.3162e-05
2.29961e-05
2.28188e-05
2.26658e-05
2.25502e-05
2.24361e-05
2.23151e-05
2.21854e-05
2.20471e-05
2.19004e-05
2.17458e-05
2.15841e-05
2.14158e-05
2.12416e-05
2.1062e-05
2.08778e-05
2.06897e-05
2.04982e-05
2.0304e-05
2.01079e-05
1.99104e-05
1.97123e-05
1.95142e-05
1.93169e-05
1.9121e-05
1.89271e-05
1.8736e-05
1.85481e-05
1.83642e-05
1.81848e-05
1.80103e-05
1.78412e-05
1.76779e-05
1.75207e-05
1.73699e-05
1.72256e-05
1.7088e-05
1.69571e-05
1.6833e-05
1.67154e-05
1.66045e-05
1.64998e-05
1.64014e-05
1.63088e-05
1.62219e-05
1.61404e-05
1.60639e-05
1.59923e-05
1.5925e-05
1.58619e-05
1.58026e-05
1.57469e-05
1.56943e-05
1.56442e-05
1.55976e-05
1.55539e-05
1.55126e-05
1.54735e-05
1.54363e-05
1.54008e-05
1.53668e-05
1.53341e-05
1.53026e-05
1.52721e-05
1.52425e-05
1.52137e-05
1.51857e-05
1.51582e-05
1.51313e-05
1.51049e-05
1.50789e-05
1.50533e-05
1.50279e-05
1.50028e-05
1.49779e-05
1.49532e-05
1.49287e-05
1.49043e-05
1.48799e-05
1.48557e-05
1.48314e-05
1.48072e-05
1.4783e-05
1.47588e-05
1.47345e-05
1.47102e-05
1.46859e-05
1.46614e-05
1.46369e-05
1.46123e-05
1.45875e-05
1.45627e-05
1.45377e-05
1.45126e-05
1.44873e-05
1.44619e-05
1.44363e-05
1.44106e-05
1.43847e-05
1.43586e-05
1.43324e-05
1.43059e-05
1.42792e-05
1.42523e-05
1.42252e-05
1.41979e-05
1.41703e-05
1.41424e-05
1.41143e-05
1.40858e-05
1.4057e-05
1.40278e-05
1.39981e-05
1.39678e-05
1.3937e-05
1.39053e-05
1.38725e-05
1.38385e-05
1.38027e-05
1.37643e-05
1.37224e-05
1.36749e-05
1.36181e-05
1.35444e-05
1.34392e-05
1.32734e-05
4.43205e-06
3.29675e-05
5.06751e-05
6.00443e-05
6.59319e-05
7.03908e-05
7.41967e-05
7.76705e-05
8.0976e-05
8.42179e-05
8.74726e-05
9.07963e-05
9.42284e-05
9.77945e-05
0.000101508
0.000105373
0.000109385
0.000113538
0.000117817
0.000122207
0.00012669
0.000131245
0.000135849
0.000140477
0.000145098
0.000149678
0.000154173
0.000158533
0.000162698
0.000166606
0.000170107
0.000173493
0.000176825
0.00018011
0.00018334
0.000186504
0.000189589
0.00019258
0.000195462
0.000198218
0.000200834
0.000203296
0.000205589
0.0002077
0.000209618
0.000211333
0.000212836
0.00021412
0.000215177
0.000216003
0.000216591
0.000216931
0.000217011
0.000216812
0.000216307
0.000215467
0.000214287
0.000212835
0.000211196
0.000209402
0.000207468
0.000205409
0.000203236
0.000200963
0.000198599
0.000196156
0.000193643
0.000191073
0.000188453
0.000185794
0.000183106
0.000180398
0.000177679
0.000174958
0.000172245
0.000169547
0.000166874
0.000164234
0.000161636
0.000159085
0.000156591
0.00015416
0.000151797
0.000149509
0.000147301
0.000145177
0.00014314
0.000141194
0.000139339
0.000137577
0.000135908
0.000134332
0.000132847
0.000131453
0.000130146
0.000128924
0.000127783
0.00012672
0.000125731
0.000124812
0.00012396
0.000123169
0.000122436
0.000121756
0.000121126
0.000120542
0.000119997
0.000119476
0.000118969
0.000118498
0.000118061
0.000117655
0.000117279
0.000116928
0.0001166
0.000116293
0.000116004
0.00011573
0.000115471
0.000115224
0.000114988
0.000114761
0.000114544
0.000114334
0.00011413
0.000113933
0.00011374
0.000113552
0.000113368
0.000113187
0.000113009
0.000112833
0.000112659
0.000112487
0.000112316
0.000112145
0.000111976
0.000111807
0.000111638
0.000111469
0.0001113
0.000111131
0.000110961
0.000110791
0.00011062
0.000110449
0.000110276
0.000110103
0.000109928
0.000109752
0.000109575
0.000109397
0.000109217
0.000109036
0.000108853
0.000108668
0.000108482
0.000108294
0.000108104
0.000107911
0.000107716
0.000107519
0.000107318
0.000107114
0.000106905
0.000106691
0.000106472
0.000106244
0.000106007
0.000105758
0.000105491
0.000105201
0.000104878
0.000104506
0.000104056
0.000103478
0.000102659
0.000101397
9.90775e-05
9.54144e-05
5.57345e-06
4.61777e-05
7.88577e-05
9.94928e-05
0.000113241
0.00012345
0.000131925
0.000139586
0.0001469
0.000154111
0.000161353
0.000168699
0.000176185
0.000183826
0.000191615
0.000199539
0.000207572
0.000215688
0.000223856
0.000232046
0.000240228
0.000248375
0.000256457
0.000264447
0.000272316
0.000280034
0.00028757
0.000294894
0.000301973
0.000308782
0.000315319
0.000321713
0.000328006
0.000334207
0.000340302
0.000346274
0.000352098
0.000357748
0.000363197
0.000368416
0.000373376
0.000378049
0.00038241
0.000386433
0.000390095
0.000393376
0.000396259
0.000398728
0.00040077
0.000402376
0.000403535
0.00040424
0.000404483
0.000404255
0.00040355
0.000402369
0.000400726
0.00039867
0.000396256
0.000393525
0.000390506
0.000387224
0.000383698
0.000379952
0.000376004
0.000371874
0.000367582
0.000363146
0.000358584
0.000353916
0.000349159
0.000344332
0.000339452
0.000334538
0.000329607
0.000324676
0.000319763
0.000314886
0.00031006
0.000305302
0.000300627
0.00029605
0.000291584
0.000287243
0.000283036
0.000278975
0.000275068
0.000271321
0.000267739
0.000264328
0.000261089
0.000258022
0.000255127
0.000252402
0.000249843
0.000247447
0.000245208
0.00024312
0.000241176
0.000239369
0.000237693
0.000236138
0.000234698
0.000233365
0.00023213
0.000230987
0.000229927
0.000228938
0.000228006
0.000227124
0.000226304
0.000225542
0.000224834
0.000224174
0.000223557
0.000222981
0.000222439
0.00022193
0.000221449
0.000220993
0.000220561
0.000220148
0.000219754
0.000219375
0.000219011
0.000218659
0.000218319
0.000217988
0.000217665
0.00021735
0.000217041
0.000216738
0.00021644
0.000216145
0.000215854
0.000215565
0.000215279
0.000214994
0.00021471
0.000214427
0.000214144
0.000213862
0.000213579
0.000213295
0.000213011
0.000212726
0.00021244
0.000212152
0.000211862
0.000211571
0.000211278
0.000210983
0.000210685
0.000210385
0.000210082
0.000209776
0.000209468
0.000209156
0.00020884
0.000208521
0.000208197
0.000207869
0.000207534
0.000207194
0.000206846
0.000206489
0.000206121
0.000205739
0.00020534
0.000204918
0.000204466
0.000203973
0.000203423
0.000202789
0.000202028
0.000201062
0.000199739
0.000197773
0.000194481
0.000189279
6.2628e-06
5.48534e-05
9.90554e-05
0.000129812
0.000151639
0.000168181
0.00018176
0.000193754
0.000204947
0.000215767
0.000226442
0.000237089
0.000247757
0.000258456
0.000269177
0.000279897
0.000290587
0.000301217
0.000311758
0.000322184
0.000332471
0.0003426
0.000352556
0.000362324
0.000371894
0.000381254
0.000390397
0.000399312
0.000407993
0.00041643
0.000424649
0.000432721
0.000440679
0.000448526
0.000456253
0.000463838
0.000471256
0.000478476
0.000485466
0.00049219
0.000498613
0.000504699
0.000510413
0.000515722
0.000520595
0.000525006
0.000528927
0.000532339
0.000535224
0.000537567
0.000539357
0.000540587
0.000541252
0.000541351
0.000540888
0.000539869
0.00053831
0.000536251
0.000533734
0.000530792
0.000527456
0.000523755
0.000519712
0.000515353
0.000510704
0.000505787
0.000500626
0.000495247
0.000489671
0.000483923
0.000478026
0.000472003
0.000465879
0.000459677
0.000453421
0.000447134
0.000440839
0.000434561
0.000428321
0.000422142
0.000416046
0.000410054
0.000404185
0.000398457
0.000392888
0.000387491
0.000382281
0.000377269
0.000372464
0.000367873
0.0003635
0.00035935
0.000355422
0.000351716
0.000348229
0.000344957
0.000341893
0.000339031
0.000336364
0.000333881
0.000331575
0.000329436
0.000327453
0.000325617
0.000323917
0.000322344
0.000320886
0.000319534
0.000318273
0.00031709
0.000315988
0.000314963
0.00031401
0.000313123
0.000312295
0.00031152
0.000310795
0.000310113
0.000309471
0.000308864
0.000308289
0.000307742
0.000307221
0.000306723
0.000306245
0.000305784
0.00030534
0.00030491
0.000304492
0.000304086
0.000303688
0.000303299
0.000302917
0.000302541
0.000302171
0.000301804
0.000301441
0.000301081
0.000300723
0.000300366
0.000300011
0.000299656
0.000299301
0.000298947
0.000298591
0.000298234
0.000297877
0.000297517
0.000297156
0.000296793
0.000296428
0.00029606
0.000295689
0.000295315
0.000294938
0.000294557
0.000294173
0.000293784
0.000293391
0.000292993
0.00029259
0.00029218
0.000291764
0.000291339
0.000290905
0.000290459
0.000289999
0.000289522
0.000289023
0.000288496
0.000287931
0.000287315
0.000286629
0.000285842
0.000284905
0.000283734
0.000282174
0.000279952
0.000276528
0.000271545
6.72763e-06
6.06264e-05
0.000113682
0.000153032
0.000182286
0.000204978
0.000223592
0.000239754
0.000254479
0.000268373
0.000281784
0.000294899
0.000307811
0.000320557
0.000333141
0.000345552
0.00035777
0.000369774
0.000381547
0.000393072
0.000404341
0.000415349
0.000426094
0.000436581
0.000446814
0.000456802
0.000466552
0.00047607
0.000485363
0.000494432
0.000503308
0.000512053
0.000520698
0.000529253
0.00053771
0.000546054
0.000554261
0.000562301
0.00057014
0.00057774
0.000585061
0.000592063
0.000598703
0.000604943
0.000610745
0.000616072
0.000620892
0.000625177
0.000628903
0.00063205
0.000634602
0.000636548
0.000637883
0.000638604
0.000638714
0.000638211
0.000637119
0.00063547
0.000633298
0.000630631
0.000627496
0.000623922
0.000619934
0.000615558
0.000610821
0.000605748
0.000600365
0.000594699
0.000588776
0.000582622
0.000576264
0.000569727
0.00056304
0.00055623
0.000549323
0.000542347
0.000535329
0.000528298
0.000521279
0.000514299
0.000507386
0.000500563
0.000493854
0.000487284
0.000480872
0.000474638
0.000468599
0.000462771
0.000457166
0.000451795
0.000446666
0.000441783
0.00043715
0.000432769
0.000428636
0.00042475
0.000421104
0.000417693
0.000414508
0.000411541
0.00040878
0.000406216
0.000403838
0.000401634
0.000399593
0.000397704
0.000395955
0.000394334
0.000392829
0.000391426
0.000390117
0.000388901
0.000387771
0.000386719
0.000385738
0.000384821
0.000383963
0.000383158
0.0003824
0.000381685
0.000381009
0.000380367
0.000379757
0.000379174
0.000378616
0.00037808
0.000377564
0.000377066
0.000376583
0.000376113
0.000375656
0.000375209
0.000374771
0.000374341
0.000373917
0.000373499
0.000373086
0.000372677
0.000372271
0.000371867
0.000371464
0.000371063
0.000370663
0.000370262
0.000369861
0.00036946
0.000369057
0.000368653
0.000368247
0.000367838
0.000367428
0.000367014
0.000366598
0.000366178
0.000365754
0.000365327
0.000364895
0.000364459
0.000364018
0.000363571
0.000363118
0.000362658
0.00036219
0.000361713
0.000361225
0.000360725
0.000360208
0.000359672
0.000359112
0.00035852
0.000357886
0.000357196
0.00035643
0.000355555
0.000354521
0.000353247
0.00035159
0.000349315
0.000346041
0.000341635
7.06313e-06
6.44426e-05
0.000124158
0.000170523
0.000206194
0.00023442
0.000257661
0.000277635
0.000295494
0.000311979
0.000327549
0.000342478
0.00035692
0.000370953
0.000384615
0.000397917
0.000410859
0.000423436
0.000435645
0.000447487
0.000458965
0.000470091
0.000480878
0.000491345
0.000501513
0.000511405
0.000521043
0.000530448
0.000539636
0.000548622
0.000557444
0.000566168
0.000574834
0.00058346
0.000592048
0.000600589
0.000609065
0.000617449
0.000625709
0.000633805
0.000641695
0.000649333
0.000656673
0.000663667
0.000670269
0.000676435
0.000682124
0.000687298
0.000691925
0.000695976
0.000699429
0.000702265
0.000704475
0.00070605
0.000706972
0.000707251
0.000706914
0.000705984
0.000704485
0.000702441
0.000699878
0.000696819
0.00069329
0.000689316
0.000684923
0.000680138
0.000674987
0.000669498
0.000663696
0.000657611
0.00065127
0.000644702
0.000637934
0.000630998
0.000623921
0.000616733
0.000609465
0.000602147
0.000594808
0.000587478
0.000580186
0.00057296
0.000565829
0.000558817
0.00055195
0.000545251
0.000538739
0.000532434
0.000526352
0.000520506
0.000514907
0.000509562
0.000504479
0.000499659
0.000495103
0.000490809
0.000486773
0.000482989
0.000479451
0.000476149
0.000473073
0.000470213
0.000467558
0.000465095
0.000462813
0.0004607
0.000458743
0.000456931
0.00045525
0.000453689
0.000452233
0.000450882
0.000449626
0.000448458
0.000447369
0.000446352
0.0004454
0.000444508
0.000443669
0.000442879
0.000442132
0.000441424
0.000440751
0.000440111
0.000439498
0.00043891
0.000438345
0.0004378
0.000437273
0.000436761
0.000436264
0.000435778
0.000435303
0.000434837
0.000434379
0.000433928
0.000433482
0.000433041
0.000432604
0.00043217
0.000431738
0.000431307
0.000430878
0.000430449
0.00043002
0.00042959
0.000429159
0.000428727
0.000428293
0.000427857
0.000427418
0.000426977
0.000426532
0.000426084
0.000425632
0.000425176
0.000424716
0.00042425
0.00042378
0.000423303
0.00042282
0.000422329
0.00042183
0.000421321
0.000420801
0.000420266
0.000419716
0.000419144
0.000418547
0.000417916
0.000417242
0.00041651
0.000415699
0.000414777
0.000413697
0.000412382
0.000410708
0.000408486
0.000405456
0.00040163
7.30761e-06
6.68757e-05
0.000131433
0.000183313
0.000224285
0.000257238
0.000284513
0.000307828
0.000328396
0.000347045
0.000364323
0.000380582
0.000396039
0.000410825
0.000425015
0.000438652
0.00045176
0.000464355
0.000476451
0.000488064
0.000499213
0.000509924
0.000520224
0.000530147
0.000539727
0.000549002
0.000558007
0.000566779
0.000575346
0.000583736
0.000592002
0.00060022
0.000608443
0.000616701
0.00062501
0.00063337
0.000641772
0.000650193
0.000658604
0.000666965
0.000675232
0.000683354
0.000691278
0.000698949
0.00070631
0.000713307
0.000719888
0.000726005
0.000731614
0.000736677
0.000741161
0.000745039
0.000748296
0.000750883
0.000752811
0.000754091
0.000754738
0.000754765
0.000754192
0.000753037
0.00075132
0.000749064
0.000746291
0.000743025
0.000739291
0.000735114
0.000730522
0.00072554
0.000720197
0.000714521
0.000708539
0.000702282
0.000695779
0.000689061
0.000682158
0.000675101
0.000667922
0.000660653
0.000653325
0.00064597
0.000638619
0.000631303
0.000624053
0.000616896
0.000609859
0.00060297
0.00059625
0.000589722
0.000583405
0.000577314
0.000571464
0.000565865
0.000560525
0.000555449
0.00055064
0.000546099
0.000541821
0.000537804
0.000534041
0.000530524
0.000527243
0.000524189
0.00052135
0.000518716
0.000516272
0.000514009
0.000511912
0.00050997
0.00050817
0.0005065
0.000504946
0.000503503
0.000502162
0.000500915
0.000499753
0.000498668
0.000497654
0.000496704
0.000495811
0.00049497
0.000494176
0.000493425
0.000492711
0.000492032
0.000491383
0.000490762
0.000490165
0.00048959
0.000489035
0.000488496
0.000487973
0.000487463
0.000486965
0.000486477
0.000485998
0.000485526
0.00048506
0.0004846
0.000484144
0.000483692
0.000483242
0.000482794
0.000482348
0.000481902
0.000481456
0.00048101
0.000480563
0.000480115
0.000479665
0.000479213
0.000478758
0.000478301
0.00047784
0.000477376
0.000476908
0.000476436
0.000475959
0.000475477
0.000474989
0.000474496
0.000473995
0.000473487
0.00047297
0.000472443
0.000471905
0.000471352
0.000470782
0.000470191
0.000469574
0.000468923
0.000468228
0.000467475
0.000466643
0.000465703
0.000464609
0.000463294
0.000461653
0.000459535
0.000456772
0.000453453
7.48264e-06
6.8283e-05
0.00013617
0.000192205
0.000237376
0.000274202
0.000304851
0.000330987
0.000353834
0.000374264
0.000392885
0.000410112
0.000426218
0.000441385
0.000455726
0.000469318
0.000482212
0.000494445
0.00050605
0.000517059
0.000527505
0.000537426
0.000546864
0.000555865
0.000564478
0.000572754
0.000580744
0.000588498
0.000596062
0.000603477
0.000610817
0.000618173
0.000625614
0.000633188
0.000640925
0.00064884
0.000656931
0.000665184
0.000673572
0.000682058
0.000690593
0.000699122
0.000707582
0.000715909
0.000724034
0.000731892
0.000739418
0.000746549
0.000753231
0.000759411
0.00076505
0.00077009
0.000774492
0.000778249
0.000781356
0.000783813
0.000785626
0.000786801
0.00078735
0.000787287
0.000786627
0.000785389
0.000783593
0.000781261
0.000778416
0.000775083
0.000771287
0.000767054
0.000762413
0.00075739
0.000752015
0.000746318
0.000740328
0.000734076
0.000727595
0.000720916
0.000714072
0.000707095
0.000700019
0.000692876
0.000685701
0.000678524
0.000671379
0.000664295
0.000657302
0.000650428
0.0006437
0.00063714
0.000630771
0.000624611
0.000618677
0.000612981
0.000607535
0.000602346
0.000597418
0.000592753
0.000588351
0.00058421
0.000580324
0.000576686
0.000573288
0.000570122
0.000567175
0.000564438
0.000561898
0.000559543
0.000557361
0.00055534
0.000553467
0.00055173
0.000550117
0.000548617
0.000547224
0.000545929
0.000544723
0.000543597
0.000542545
0.000541559
0.000540634
0.000539763
0.000538941
0.000538164
0.000537426
0.000536724
0.000536055
0.000535414
0.000534799
0.000534207
0.000533636
0.000533083
0.000532545
0.000532022
0.000531512
0.000531012
0.000530521
0.000530039
0.000529563
0.000529093
0.000528628
0.000528166
0.000527708
0.000527252
0.000526797
0.000526343
0.000525889
0.000525436
0.000524981
0.000524525
0.000524068
0.000523608
0.000523147
0.000522682
0.000522214
0.000521743
0.000521267
0.000520788
0.000520303
0.000519814
0.000519319
0.000518818
0.00051831
0.000517794
0.000517269
0.000516735
0.000516188
0.000515627
0.00051505
0.000514451
0.000513826
0.000513167
0.000512465
0.000511707
0.000510872
0.000509933
0.000508849
0.00050756
0.00050598
0.000503992
0.000501491
0.000498601
7.60139e-06
6.88967e-05
0.000138851
0.000197828
0.000246173
0.00028604
0.000319405
0.000347844
0.000372552
0.000394417
0.00041408
0.000431999
0.000448493
0.000463784
0.000478024
0.00049132
0.000503748
0.000515368
0.00052623
0.00053638
0.000545865
0.000554736
0.000563047
0.000570856
0.000578225
0.000585219
0.000591905
0.000598349
0.000604615
0.000610763
0.000616892
0.000623112
0.000629513
0.000636162
0.000643108
0.000650382
0.000657995
0.000665941
0.000674197
0.000682726
0.000691475
0.000700381
0.000709373
0.000718373
0.000727299
0.00073607
0.000744609
0.000752831
0.00076068
0.000768067
0.000774919
0.000781204
0.00078689
0.000791953
0.000796379
0.000800155
0.000803279
0.00080575
0.000807573
0.000808756
0.00080931
0.000809251
0.000808596
0.000807364
0.000805577
0.000803257
0.00080043
0.00079712
0.000793355
0.000789162
0.000784571
0.000779611
0.000774313
0.000768707
0.000762826
0.000756704
0.000750372
0.000743865
0.000737216
0.00073046
0.000723632
0.000716764
0.00070989
0.000703042
0.000696252
0.000689549
0.000682962
0.000676517
0.000670236
0.000664142
0.000658253
0.000652584
0.000647149
0.000641957
0.000637015
0.000632326
0.000627894
0.000623715
0.000619787
0.000616105
0.000612662
0.000609449
0.000606456
0.000603673
0.000601088
0.000598691
0.000596469
0.00059441
0.000592502
0.000590733
0.000589092
0.000587566
0.000586149
0.000584831
0.000583604
0.000582459
0.000581389
0.000580388
0.000579448
0.000578563
0.000577729
0.000576941
0.000576193
0.000575482
0.000574804
0.000574155
0.000573534
0.000572935
0.000572358
0.000571799
0.000571257
0.00057073
0.000570215
0.000569712
0.000569218
0.000568733
0.000568255
0.000567782
0.000567315
0.000566852
0.000566392
0.000565934
0.000565478
0.000565023
0.000564569
0.000564114
0.000563658
0.000563202
0.000562744
0.000562284
0.000561821
0.000561356
0.000560888
0.000560416
0.00055994
0.00055946
0.000558976
0.000558486
0.00055799
0.000557489
0.00055698
0.000556464
0.00055594
0.000555405
0.000554858
0.000554297
0.00055372
0.000553122
0.000552498
0.000551842
0.000551144
0.000550391
0.000549565
0.000548642
0.000547584
0.00054634
0.000544838
0.000542992
0.000540736
0.000538207
7.67213e-06
6.88758e-05
0.000139835
0.000200688
0.000251274
0.000293408
0.000328868
0.000359116
0.000385298
0.000408289
0.000428743
0.000447142
0.000463837
0.000479082
0.00049306
0.000505902
0.00051771
0.000528561
0.000538521
0.00054765
0.000556008
0.000563656
0.000570658
0.000577084
0.000583008
0.000588509
0.000593671
0.000598577
0.000603311
0.000607957
0.000612644
0.000617509
0.000622663
0.000628199
0.000634188
0.000640677
0.000647695
0.000655243
0.000663303
0.000671836
0.000680785
0.000690075
0.000699625
0.000709342
0.00071912
0.000728866
0.000738502
0.000747875
0.000756915
0.00076555
0.000773717
0.000781362
0.000788441
0.000794921
0.000800772
0.000805976
0.00081052
0.000814397
0.000817604
0.000820145
0.000822027
0.000823262
0.000823863
0.000823848
0.000823236
0.000822049
0.00082031
0.000818044
0.000815277
0.000812038
0.000808354
0.000804256
0.000799774
0.000794941
0.000789788
0.000784348
0.000778656
0.000772746
0.000766652
0.00076041
0.000754054
0.000747619
0.00074114
0.000734651
0.000728183
0.000721769
0.000715438
0.000709217
0.000703134
0.00069721
0.000691467
0.000685922
0.00068059
0.000675483
0.00067061
0.000665978
0.000661589
0.000657443
0.000653541
0.000649876
0.000646445
0.000643239
0.00064025
0.000637468
0.000634884
0.000632484
0.00063026
0.000628197
0.000626287
0.000624515
0.000622872
0.000621345
0.000619927
0.000618608
0.00061738
0.000616235
0.000615165
0.000614163
0.000613223
0.000612339
0.000611506
0.000610719
0.000609972
0.000609263
0.000608587
0.000607941
0.000607321
0.000606725
0.000606151
0.000605595
0.000605056
0.000604532
0.00060402
0.00060352
0.00060303
0.000602549
0.000602074
0.000601606
0.000601142
0.000600683
0.000600227
0.000599774
0.000599322
0.000598872
0.000598422
0.000597972
0.000597521
0.000597069
0.000596616
0.000596161
0.000595703
0.000595243
0.00059478
0.000594313
0.000593842
0.000593367
0.000592888
0.000592403
0.000591913
0.000591417
0.000590914
0.000590403
0.000589884
0.000589355
0.000588815
0.000588261
0.00058769
0.0005871
0.000586485
0.000585839
0.000585152
0.000584414
0.000583608
0.00058271
0.00058169
0.000580502
0.00057909
0.000577386
0.000575356
0.000573135
7.70009e-06
6.83346e-05
0.0001394
0.000201194
0.000253183
0.000296881
0.000333863
0.000365468
0.000392772
0.000416619
0.000437655
0.000456372
0.000473139
0.00048823
0.000501851
0.000514155
0.000525259
0.000535259
0.000544234
0.000552254
0.000559389
0.000565709
0.000571288
0.000576204
0.000580544
0.000584401
0.000587872
0.000591063
0.00059408
0.000597032
0.000600094
0.000603426
0.000607171
0.000611448
0.000616355
0.000621961
0.000628308
0.00063541
0.000643251
0.000651791
0.000660957
0.000670664
0.000680817
0.000691322
0.000702004
0.000712755
0.000723467
0.000734029
0.000744343
0.000754323
0.00076389
0.000772978
0.000781531
0.000789502
0.000796855
0.000803559
0.000809595
0.000814949
0.000819612
0.000823583
0.000826864
0.000829465
0.000831395
0.00083267
0.000833308
0.000833328
0.000832753
0.000831608
0.000829918
0.000827711
0.000825015
0.000821861
0.00081828
0.000814303
0.000809962
0.000805293
0.000800329
0.000795104
0.000789655
0.000784016
0.000778224
0.000772313
0.00076632
0.000760278
0.000754223
0.000748185
0.000742197
0.000736287
0.000730484
0.000724812
0.000719293
0.000713948
0.000708793
0.000703842
0.000699106
0.000694593
0.000690308
0.000686253
0.000682429
0.000678834
0.000675462
0.000672309
0.000669366
0.000666624
0.000664075
0.000661708
0.000659511
0.000657476
0.000655589
0.00065384
0.000652217
0.000650711
0.000649311
0.00064801
0.000646798
0.000645668
0.000644612
0.000643624
0.000642697
0.000641826
0.000641005
0.00064023
0.000639495
0.000638797
0.000638131
0.000637496