/*--------------------------------*- C++ -*----------------------------------*\
  =========                 |
  \\      /  F ield         | OpenFOAM: The Open Source CFD Toolbox
   \\    /   O peration     | Website:  https://openfoam.org
    \\  /    A nd           | Version:  6
     \\/     M anipulation  |
\*---------------------------------------------------------------------------*/
FoamFile
{
    version     2.0;
    format      ascii;
    class       volScalarField;
    location    "0.08";
    object      p;
}
// * * * * * * * * * * * * * * * * * * * * * * * * * * * * * * * * * * * * * //

dimensions      [0 2 -2 0 0 0 0];

internalField   nonuniform List<scalar> 
12225
(
0.334892
0.0825015
0.00453809
-0.0058797
-0.0102996
-0.0147909
-0.0172433
-0.0185647
-0.0197926
-0.0210767
-0.0223488
-0.0236324
-0.0249867
-0.0264599
-0.0281373
-0.0301417
-0.0332877
-0.0379524
-0.0469552
-0.0167208
-0.01579
-0.00925557
-0.00981105
-0.0137024
-0.0164037
-0.0180515
-0.0194905
-0.0208888
-0.0222299
-0.0235627
-0.0249547
-0.0264569
-0.028169
-0.0301915
-0.0330908
-0.0366348
-0.0839653
-0.012988
-0.0111725
-0.00877151
-0.00954008
-0.0130292
-0.0156859
-0.0174582
-0.019016
-0.0205025
-0.0219175
-0.0233146
-0.0247597
-0.0263028
-0.028035
-0.030005
-0.0325398
-0.0349258
-0.0385944
0.000240086
-0.00769618
-0.00891561
-0.00985986
-0.0128635
-0.0153145
-0.0170758
-0.0186651
-0.020189
-0.0216467
-0.0230853
-0.024563
-0.0261227
-0.0278319
-0.029698
-0.0318484
-0.0336598
-0.0181719
0.000200354
-0.00815917
-0.00962767
-0.0104265
-0.0129755
-0.0151981
-0.0168999
-0.0184716
-0.019992
-0.0214587
-0.0229099
-0.024393
-0.0259404
-0.0275931
-0.0293312
-0.0311682
-0.0326727
-0.0158025
-0.00407198
-0.00932239
-0.0103269
-0.0110323
-0.0132014
-0.0152105
-0.0168393
-0.018371
-0.0198648
-0.0213181
-0.0227606
-0.024228
-0.0257422
-0.0273217
-0.028933
-0.0305359
-0.0318531
-0.0156472
-0.00696089
-0.0100329
-0.0109027
-0.0116171
-0.0134753
-0.0152902
-0.0168402
-0.01832
-0.0197738
-0.021199
-0.0226171
-0.0240535
-0.0255204
-0.0270208
-0.0285173
-0.029953
-0.0311641
-0.0146283
-0.00854704
-0.0105175
-0.0114073
-0.0121564
-0.0137634
-0.0154054
-0.0168741
-0.0182949
-0.0196999
-0.0210861
-0.0224679
-0.0238615
-0.0252719
-0.0266932
-0.0280903
-0.0294112
-0.0305699
-0.0135982
-0.00965399
-0.0109765
-0.0118593
-0.0126341
-0.0140417
-0.015532
-0.0169193
-0.0182771
-0.0196273
-0.0209663
-0.0223022
-0.0236444
-0.024993
-0.0263379
-0.0276508
-0.0288929
-0.0300271
-0.0129665
-0.0105364
-0.0114215
-0.0122552
-0.0130427
-0.0142934
-0.0156509
-0.0169576
-0.0182501
-0.0195412
-0.0208264
-0.0221092
-0.0233938
-0.0246773
-0.0259496
-0.0271899
-0.0283741
-0.0294923
-0.0126582
-0.0112217
-0.0118304
-0.0125984
-0.0133839
-0.0145096
-0.0157499
-0.016977
-0.0182021
-0.0194306
-0.020657
-0.021881
-0.0231033
-0.0243199
-0.0255221
-0.0266966
-0.0278312
-0.0289291
-0.0125512
-0.0116993
-0.0121652
-0.0128707
-0.0136404
-0.0146711
-0.0158143
-0.0169685
-0.0181299
-0.0192982
-0.0204666
-0.0216327
-0.0227948
-0.0239489
-0.0250882
-0.0262047
-0.0272934
-0.0283615
-0.012543
-0.0120791
-0.0124492
-0.0130966
-0.0138437
-0.014792
-0.0158485
-0.0169326
-0.0180306
-0.0191373
-0.0202455
-0.021351
-0.0224508
-0.0235411
-0.0246173
-0.0256752
-0.0267145
-0.0277413
-0.0126093
-0.0124126
-0.0127203
-0.0133053
-0.0140154
-0.0148806
-0.0158457
-0.0168504
-0.0178738
-0.0189073
-0.0199427
-0.0209746
-0.021999
-0.0230126
-0.0240124
-0.0249972
-0.0259688
-0.0269307
-0.0127242
-0.0126813
-0.0129544
-0.0134753
-0.0141324
-0.0149134
-0.0157831
-0.0166979
-0.0176347
-0.0185816
-0.0195298
-0.0204727
-0.0214061
-0.0223267
-0.0232328
-0.0241242
-0.0250024
-0.0258686
-0.0128363
-0.012865
-0.0131151
-0.0135736
-0.0141653
-0.0148604
-0.0156316
-0.0164474
-0.0172854
-0.0181319
-0.0189772
-0.0198143
-0.0206383
-0.021446
-0.0222358
-0.0230074
-0.0237606
-0.0244943
-0.0128735
-0.0129263
-0.0131524
-0.0135514
-0.0140717
-0.0146798
-0.0153514
-0.0160618
-0.0167908
-0.0175239
-0.0182508
-0.018964
-0.0196583
-0.02033
-0.0209771
-0.0215987
-0.0221922
-0.0227559
-0.0127478
-0.0128016
-0.0129981
-0.0133407
-0.0137907
-0.0143155
-0.0148912
-0.0154963
-0.0161118
-0.0167232
-0.0173199
-0.017894
-0.0184402
-0.0189546
-0.0194348
-0.0198792
-0.020284
-0.020649
-0.0123577
-0.0123988
-0.0125574
-0.0128477
-0.0132374
-0.0136913
-0.0141841
-0.0146942
-0.0152024
-0.0156934
-0.0161566
-0.0165845
-0.0169719
-0.0173152
-0.0176122
-0.0178616
-0.0180594
-0.0182081
-0.0117643
-0.0117686
-0.01188
-0.0121449
-0.0125169
-0.0129482
-0.0134114
-0.0138809
-0.0143332
-0.0147522
-0.0151282
-0.015455
-0.0157285
-0.0159461
-0.0161071
-0.0162111
-0.0162552
-0.0162435
-0.0112323
-0.0111353
-0.0111765
-0.0114451
-0.0118305
-0.0122714
-0.0127465
-0.0132199
-0.0136598
-0.0140504
-0.0143842
-0.0146565
-0.0148643
-0.0150068
-0.0150845
-0.0150982
-0.0150463
-0.0149337
-0.0108628
-0.0104632
-0.0103828
-0.0107043
-0.0111287
-0.0116046
-0.0121305
-0.0126449
-0.0131032
-0.0134942
-0.0138147
-0.0140613
-0.0142329
-0.0143304
-0.0143561
-0.0143123
-0.0141987
-0.0140206
-0.0108922
-0.00977719
-0.00951246
-0.00994184
-0.0104022
-0.0109372
-0.0115612
-0.0121517
-0.012653
-0.0130676
-0.0133979
-0.0136413
-0.0137988
-0.013874
-0.0138711
-0.0137937
-0.0136431
-0.0134244
-0.0113306
-0.00893061
-0.00860402
-0.0092039
-0.00963233
-0.010255
-0.0110398
-0.0117406
-0.0123046
-0.0127621
-0.0131206
-0.0133776
-0.0135368
-0.0136057
-0.0135905
-0.0134964
-0.0133263
-0.0130846
-0.0115352
-0.0069186
-0.00738814
-0.00846449
-0.00878843
-0.00955562
-0.0105797
-0.0114216
-0.0120637
-0.0125795
-0.0129795
-0.0132603
-0.0134308
-0.0135029
-0.0134855
-0.0133853
-0.0132068
-0.0129539
-0.0132431
-0.00246789
-0.00508637
-0.00742334
-0.00778484
-0.00885166
-0.0102077
-0.0112174
-0.0119498
-0.0125336
-0.0129802
-0.0132873
-0.0134714
-0.0135497
-0.013534
-0.0134326
-0.0132517
-0.0129949
-0.030247
-0.000424136
-0.00283073
-0.00601973
-0.00660074
-0.00822116
-0.00999709
-0.0111915
-0.0120191
-0.0126681
-0.0131526
-0.0134762
-0.0136656
-0.0137446
-0.0137271
-0.0136229
-0.0134401
-0.0131816
-0.0743754
-0.0137167
-0.00687604
-0.00585047
-0.00579238
-0.00802023
-0.0101918
-0.0115218
-0.0124067
-0.0130849
-0.0135726
-0.0138831
-0.0140549
-0.0141174
-0.0140858
-0.0139698
-0.013779
-0.0135174
-0.0540026
-0.0235561
-0.0167868
-0.00810777
-0.00628605
-0.00882188
-0.0111153
-0.0123606
-0.0131577
-0.013774
-0.0142075
-0.0144675
-0.0145968
-0.0146266
-0.0145703
-0.014435
-0.0142292
-0.01397
0.310317
0.0906187
0.0135729
0.000577205
-0.0045724
-0.00948111
-0.0121934
-0.0132439
-0.0137976
-0.014247
-0.0145748
-0.0147654
-0.0148489
-0.0148489
-0.014773
-0.0146225
-0.0143955
-0.014077
-0.0727936
-0.0731387
-0.0736103
-0.0742209
-0.075022
-0.0760414
-0.07729
-0.0787712
-0.0804808
-0.0824062
-0.084526
-0.0868092
-0.0892157
-0.0916967
-0.0941959
-0.0966512
-0.0989964
-0.101163
-0.103082
-0.104687
-0.105913
-0.1067
-0.106994
-0.106745
-0.105914
-0.104468
-0.10239
-0.0996752
-0.0963089
-0.0922389
-0.0873986
-0.0817803
-0.0754283
-0.0683805
-0.0606737
-0.0523472
-0.0434452
-0.0340172
-0.0241187
-0.0138104
-0.00315768
0.00777027
0.0189016
0.0301631
0.041481
0.0527825
0.063997
0.0750567
0.085898
0.0964619
0.106695
0.11655
0.125984
0.134965
0.143467
0.15148
0.15902
0.166081
0.172633
0.178663
0.184176
0.189178
0.193685
0.197711
0.201277
0.204404
0.207114
0.209431
0.21138
0.212986
0.214275
0.215271
0.216001
0.216488
0.216756
0.216828
0.216727
0.216473
0.216085
0.215583
0.214983
0.214302
0.213553
0.21275
0.211905
0.211028
0.21013
0.209218
0.2083
0.207381
0.206469
0.205567
0.204679
0.203808
0.202958
0.202129
0.201325
0.200546
0.199793
0.199066
0.198367
0.197694
0.197048
0.196429
0.195836
0.195269
0.19473
0.194216
0.193723
0.193248
0.192793
0.192358
0.191944
0.191548
0.19117
0.19081
0.190466
0.190138
0.189824
0.189524
0.189236
0.188961
0.188697
0.188444
0.188201
0.187967
0.187741
0.187524
0.187314
0.187111
0.186915
0.186725
0.18654
0.18636
0.186185
0.186014
0.185847
0.185684
0.185524
0.185368
0.185213
0.185062
0.184912
0.184764
0.184618
0.184473
0.18433
0.184188
0.184046
0.183906
0.183766
0.183626
0.183487
0.183349
0.183211
0.183074
0.182938
0.182802
0.182667
0.182534
0.182403
0.182275
0.182149
0.182029
0.181914
0.181807
0.181711
0.181629
0.181566
0.181529
0.181526
0.181572
0.181684
0.181891
0.182241
0.182807
0.183743
0.185279
0.18816
0.192568
-0.0704375
-0.0715106
-0.0721649
-0.0723487
-0.0726022
-0.0731664
-0.0740817
-0.0753452
-0.0769448
-0.0788587
-0.0810547
-0.0834903
-0.0861132
-0.0888628
-0.0916715
-0.0944675
-0.0971761
-0.0997226
-0.102034
-0.104039
-0.105674
-0.106875
-0.107588
-0.107762
-0.107351
-0.106314
-0.104614
-0.10221
-0.0990695
-0.095197
-0.090643
-0.0854312
-0.0795495
-0.0730014
-0.0658045
-0.0579865
-0.0495834
-0.0406384
-0.0312016
-0.021329
-0.0110817
-0.00052509
0.0102724
0.0212404
0.0323077
0.0434036
0.054459
0.0654073
0.0761859
0.0867364
0.0970059
0.106947
0.116519
0.125688
0.134419
0.142679
0.150419
0.157627
0.16433
0.170533
0.17624
0.18146
0.186201
0.190479
0.19431
0.197712
0.200705
0.203312
0.205553
0.207454
0.209036
0.210324
0.211342
0.212111
0.212655
0.212996
0.213154
0.21315
0.213003
0.212731
0.212349
0.211875
0.211322
0.210704
0.210033
0.209318
0.208571
0.2078
0.207012
0.206214
0.205413
0.204613
0.203819
0.203034
0.202261
0.201504
0.200765
0.200045
0.199345
0.198666
0.19801
0.197376
0.196766
0.196178
0.195613
0.19507
0.194549
0.194049
0.193572
0.193115
0.192677
0.192258
0.191856
0.191472
0.191104
0.190752
0.190416
0.190093
0.189785
0.189489
0.189206
0.188934
0.188673
0.188422
0.188181
0.187949
0.187725
0.187509
0.1873
0.187098
0.186903
0.186713
0.186528
0.186349
0.186174
0.186004
0.185837
0.185674
0.185514
0.185357
0.185203
0.185051
0.184901
0.184753
0.184607
0.184462
0.184319
0.184176
0.184035
0.183894
0.183754
0.183615
0.183476
0.183337
0.1832
0.183062
0.182926
0.18279
0.182656
0.182523
0.182392
0.182264
0.182139
0.182019
0.181905
0.181799
0.181704
0.181624
0.181562
0.181527
0.181527
0.181575
0.18169
0.181901
0.18225
0.182807
0.183706
0.185116
0.187657
0.191292
-0.066481
-0.0686107
-0.0705663
-0.0715424
-0.072147
-0.0728783
-0.0739032
-0.0752603
-0.0769498
-0.0789507
-0.0812264
-0.0837288
-0.0864015
-0.0891825
-0.092006
-0.0948047
-0.0975111
-0.100059
-0.102383
-0.104424
-0.106122
-0.107423
-0.108279
-0.108641
-0.108468
-0.107723
-0.106371
-0.104377
-0.101711
-0.0983593
-0.0943279
-0.0896228
-0.084246
-0.0782059
-0.0715189
-0.064209
-0.0563077
-0.047854
-0.0388935
-0.0294783
-0.0196656
-0.00951735
0.000901167
0.0115223
0.0222771
0.033097
0.0439143
0.0546638
0.0652834
0.0757153
0.0859066
0.09581
0.105384
0.114593
0.123406
0.13179
0.139719
0.147179
0.154166
0.160676
0.166707
0.172264
0.177355
0.181991
0.186185
0.189954
0.193317
0.196292
0.1989
0.201163
0.203102
0.20474
0.206099
0.2072
0.208066
0.208717
0.209174
0.209456
0.209581
0.209568
0.209432
0.20919
0.208856
0.208442
0.207962
0.207427
0.206846
0.206229
0.205584
0.204919
0.204239
0.20355
0.202858
0.202167
0.20148
0.200801
0.200133
0.199477
0.198835
0.19821
0.197602
0.197011
0.196439
0.195887
0.195353
0.194839
0.194343
0.193867
0.193409
0.192971
0.19255
0.192145
0.191757
0.191384
0.191027
0.190684
0.190356
0.190041
0.189738
0.189448
0.18917
0.188903
0.188645
0.188398
0.188159
0.18793
0.187708
0.187494
0.187286
0.187086
0.186891
0.186702
0.186519
0.18634
0.186165
0.185995
0.185829
0.185666
0.185506
0.185349
0.185195
0.185043
0.184894
0.184746
0.1846
0.184455
0.184311
0.184169
0.184027
0.183886
0.183746
0.183607
0.183468
0.183329
0.183192
0.183054
0.182918
0.182783
0.182648
0.182516
0.182385
0.182257
0.182132
0.182013
0.181899
0.181794
0.1817
0.181621
0.181561
0.181528
0.18153
0.181581
0.181698
0.18191
0.182257
0.182799
0.183652
0.184924
0.187045
0.189586
-0.0637185
-0.0667657
-0.0700444
-0.072143
-0.0735225
-0.0747737
-0.0761532
-0.0777519
-0.0796023
-0.0817047
-0.084037
-0.0865621
-0.0892334
-0.0919977
-0.0947978
-0.097574
-0.100266
-0.102814
-0.105157
-0.107239
-0.109003
-0.110397
-0.11137
-0.111875
-0.111868
-0.111309
-0.110162
-0.108396
-0.105987
-0.102919
-0.0991824
-0.0947737
-0.0896921
-0.0839432
-0.0775406
-0.0705052
-0.0628659
-0.0546595
-0.0459296
-0.0367268
-0.0271072
-0.017132
-0.00686605
0.00362318
0.0142669
0.0249964
0.0357436
0.0464431
0.0570325
0.0674532
0.0776517
0.0875794
0.0971935
0.106457
0.115338
0.123813
0.131862
0.139468
0.146618
0.153306
0.159531
0.165294
0.170602
0.175465
0.179895
0.183906
0.187515
0.190741
0.193601
0.196117
0.198309
0.200197
0.201804
0.203148
0.204252
0.205135
0.205817
0.206316
0.206651
0.206839
0.206896
0.206838
0.206678
0.206429
0.206106
0.205717
0.205274
0.204787
0.204262
0.203709
0.203133
0.202542
0.201939
0.201331
0.20072
0.200111
0.199507
0.19891
0.198323
0.197747
0.197183
0.196634
0.1961
0.195581
0.195078
0.194591
0.194121
0.193667
0.19323
0.192809
0.192405
0.192015
0.191641
0.191281
0.190935
0.190602
0.190283
0.189976
0.189681
0.189397
0.189125
0.188862
0.18861
0.188366
0.188131
0.187905
0.187686
0.187474
0.187269
0.18707
0.186877
0.186689
0.186507
0.186329
0.186156
0.185986
0.185821
0.185658
0.185499
0.185343
0.185189
0.185037
0.184888
0.18474
0.184594
0.184449
0.184306
0.184163
0.184021
0.183881
0.183741
0.183601
0.183462
0.183324
0.183186
0.183049
0.182912
0.182777
0.182643
0.18251
0.182379
0.182251
0.182127
0.182007
0.181893
0.181788
0.181694
0.181614
0.181553
0.181519
0.181519
0.181566
0.181677
0.181878
0.182204
0.182705
0.183467
0.184548
0.186195
0.187874
-0.0636973
-0.0672259
-0.0712826
-0.0741868
-0.0762344
-0.0780007
-0.0797678
-0.0816527
-0.0837094
-0.0859556
-0.0883831
-0.0909656
-0.0936658
-0.0964386
-0.0992343
-0.102
-0.104682
-0.107225
-0.109575
-0.111677
-0.113478
-0.114928
-0.115976
-0.116576
-0.116683
-0.116256
-0.115257
-0.113652
-0.111414
-0.108522
-0.10496
-0.100718
-0.0957928
-0.0901874
-0.083913
-0.076989
-0.0694434
-0.061312
-0.0526389
-0.0434748
-0.0338773
-0.0239086
-0.0136352
-0.00312622
0.00754787
0.0183167
0.029111
0.0398642
0.0505129
0.0609981
0.0712656
0.0812668
0.0909582
0.100303
0.109269
0.117834
0.125978
0.133685
0.140945
0.147751
0.154102
0.160001
0.165453
0.170467
0.175055
0.17923
0.183009
0.186407
0.189444
0.192138
0.194509
0.196577
0.198361
0.199883
0.201161
0.202216
0.203065
0.203728
0.204221
0.204562
0.204767
0.20485
0.204825
0.204707
0.204506
0.204234
0.203901
0.203517
0.203091
0.202629
0.20214
0.201628
0.201101
0.200562
0.200016
0.199467
0.198919
0.198373
0.197833
0.197301
0.196777
0.196265
0.195764
0.195276
0.194802
0.194341
0.193894
0.193462
0.193045
0.192642
0.192253
0.191878
0.191517
0.191169
0.190834
0.190512
0.190202
0.189903
0.189615
0.189339
0.189072
0.188815
0.188567
0.188328
0.188097
0.187874
0.187658
0.187449
0.187246
0.18705
0.186859
0.186673
0.186492
0.186316
0.186143
0.185975
0.18581
0.185649
0.18549
0.185334
0.185181
0.18503
0.184881
0.184734
0.184588
0.184443
0.1843
0.184158
0.184016
0.183875
0.183735
0.183596
0.183457
0.183319
0.183181
0.183044
0.182907
0.182771
0.182637
0.182504
0.182373
0.182244
0.182119
0.181999
0.181884
0.181778
0.181682
0.1816
0.181536
0.181498
0.181492
0.18153
0.181628
0.181806
0.182096
0.182534
0.18318
0.184049
0.185268
0.186317
-0.0663857
-0.0700478
-0.0744288
-0.0778059
-0.0803285
-0.0825047
-0.0846042
-0.0867481
-0.0889997
-0.0913875
-0.0939134
-0.0965606
-0.0992996
-0.102093
-0.104898
-0.107667
-0.110352
-0.112903
-0.115269
-0.117397
-0.119238
-0.120741
-0.121855
-0.122535
-0.122733
-0.122405
-0.121512
-0.120016
-0.117886
-0.115095
-0.111625
-0.10746
-0.102594
-0.0970276
-0.090771
-0.0838427
-0.0762703
-0.0680907
-0.0593495
-0.0500998
-0.0404017
-0.0303207
-0.0199265
-0.00929144
0.00151111
0.0124081
0.0233282
0.034203
0.0449683
0.0555643
0.0659371
0.076038
0.0858241
0.0952592
0.104314
0.112967
0.121197
0.128991
0.136341
0.14324
0.14969
0.155692
0.161252
0.16638
0.171086
0.175385
0.17929
0.18282
0.18599
0.188821
0.191329
0.193536
0.195459
0.197119
0.198534
0.199724
0.200706
0.201499
0.202119
0.202584
0.202907
0.203105
0.203191
0.203178
0.203079
0.202903
0.202663
0.202366
0.202022
0.201638
0.201222
0.200779
0.200316
0.199838
0.199349
0.198853
0.198354
0.197854
0.197357
0.196864
0.196377
0.195898
0.195429
0.19497
0.194522
0.194086
0.193662
0.193251
0.192852
0.192466
0.192094
0.191733
0.191386
0.19105
0.190726
0.190414
0.190113
0.189823
0.189543
0.189273
0.189013
0.188761
0.188519
0.188284
0.188058
0.187838
0.187626
0.18742
0.18722
0.187026
0.186837
0.186654
0.186475
0.1863
0.186129
0.185962
0.185798
0.185638
0.18548
0.185325
0.185173
0.185022
0.184873
0.184727
0.184581
0.184437
0.184294
0.184152
0.184011
0.18387
0.18373
0.183591
0.183452
0.183313
0.183176
0.183038
0.182902
0.182766
0.182631
0.182498
0.182366
0.182237
0.182111
0.181989
0.181873
0.181765
0.181666
0.18158
0.181512
0.181466
0.181451
0.181476
0.181554
0.181703
0.181946
0.182309
0.182827
0.18349
0.184347
0.184922
-0.0712083
-0.0747864
-0.0791812
-0.0827586
-0.0855596
-0.0880107
-0.0903517
-0.0926956
-0.0951058
-0.0976151
-0.100232
-0.102946
-0.105733
-0.108563
-0.111398
-0.114194
-0.116908
-0.119492
-0.121898
-0.124075
-0.125973
-0.127542
-0.128732
-0.129493
-0.129776
-0.129536
-0.128728
-0.127311
-0.12525
-0.122515
-0.119081
-0.114931
-0.110054
-0.10445
-0.0981271
-0.0911039
-0.0834093
-0.0750822
-0.0661713
-0.0567336
-0.0468337
-0.0365418
-0.0259326
-0.015083
-0.0040705
0.00702819
0.018139
0.0291916
0.0401205
0.0508656
0.0613728
0.0715939
0.081488
0.0910216
0.100167
0.108903
0.117212
0.125083
0.132507
0.139481
0.146007
0.152088
0.157731
0.162945
0.167741
0.172133
0.176137
0.179767
0.183042
0.185978
0.188595
0.190912
0.192946
0.194716
0.196242
0.197542
0.198632
0.199532
0.200256
0.200822
0.201245
0.201539
0.201717
0.201794
0.201779
0.201686
0.201524
0.201301
0.201028
0.200712
0.200359
0.199977
0.199571
0.199146
0.198708
0.198259
0.197804
0.197346
0.196888
0.196431
0.195979
0.195532
0.195092
0.19466
0.194238
0.193825
0.193423
0.193032
0.192652
0.192283
0.191926
0.191581
0.191246
0.190923
0.19061
0.190309
0.190017
0.189735
0.189464
0.189201
0.188947
0.188702
0.188465
0.188236
0.188014
0.187798
0.18759
0.187387
0.187191
0.186999
0.186813
0.186632
0.186455
0.186282
0.186113
0.185947
0.185785
0.185625
0.185469
0.185315
0.185163
0.185013
0.184865
0.184719
0.184574
0.18443
0.184288
0.184146
0.184005
0.183865
0.183725
0.183585
0.183447
0.183308
0.18317
0.183033
0.182896
0.18276
0.182625
0.182491
0.182358
0.182228
0.182101
0.181978
0.18186
0.181749
0.181646
0.181556
0.181481
0.181426
0.181399
0.181407
0.181461
0.181574
0.181764
0.182045
0.182435
0.182904
0.183459
0.183671
-0.0775405
-0.0808956
-0.0850914
-0.0886556
-0.0915614
-0.0941563
-0.0966436
-0.0991221
-0.101649
-0.104257
-0.106956
-0.10974
-0.112589
-0.115475
-0.118364
-0.121218
-0.123993
-0.126643
-0.129122
-0.13138
-0.133366
-0.13503
-0.136317
-0.137178
-0.137561
-0.137414
-0.136691
-0.135347
-0.13334
-0.130636
-0.127207
-0.12303
-0.118094
-0.112394
-0.10594
-0.0987496
-0.0908543
-0.0822967
-0.0731299
-0.0634168
-0.0532282
-0.0426409
-0.031736
-0.0205965
-0.00930531
0.00205679
0.0134123
0.0246885
0.035819
0.0467424
0.0574055
0.0677625
0.0777754
0.0874128
0.0966489
0.105464
0.113844
0.121779
0.129264
0.136297
0.142882
0.149022
0.154726
0.160004
0.164868
0.169332
0.17341
0.177118
0.180474
0.183495
0.186198
0.188603
0.190727
0.192588
0.194205
0.195595
0.196775
0.197763
0.198576
0.199227
0.199734
0.200109
0.200366
0.200519
0.200578
0.200556
0.200461
0.200304
0.200093
0.199835
0.199539
0.19921
0.198855
0.198479
0.198085
0.19768
0.197266
0.196846
0.196423
0.196001
0.19558
0.195163
0.194751
0.194346
0.193947
0.193558
0.193177
0.192805
0.192444
0.192092
0.191751
0.19142
0.191099
0.190788
0.190487
0.190196
0.189914
0.189641
0.189378
0.189123
0.188876
0.188637
0.188406
0.188182
0.187965
0.187754
0.187549
0.187351
0.187157
0.186969
0.186786
0.186607
0.186432
0.186261
0.186094
0.18593
0.18577
0.185612
0.185456
0.185303
0.185153
0.185004
0.184857
0.184711
0.184567
0.184423
0.184281
0.18414
0.183999
0.183859
0.183719
0.18358
0.183441
0.183303
0.183165
0.183028
0.18289
0.182754
0.182618
0.182484
0.18235
0.182219
0.182091
0.181965
0.181845
0.18173
0.181623
0.181527
0.181444
0.181379
0.181337
0.181325
0.181352
0.181425
0.181558
0.181755
0.182021
0.182314
0.182615
0.182547
-0.0847762
-0.0878159
-0.0916666
-0.0950579
-0.0979294
-0.100557
-0.103107
-0.10566
-0.108266
-0.110951
-0.113726
-0.116585
-0.119509
-0.122475
-0.125448
-0.128391
-0.131264
-0.134021
-0.136614
-0.138994
-0.141109
-0.142905
-0.144327
-0.14532
-0.14583
-0.1458
-0.145179
-0.143916
-0.141965
-0.139287
-0.135847
-0.13162
-0.126591
-0.120753
-0.114116
-0.106699
-0.0985362
-0.0896764
-0.0801787
-0.0701137
-0.0595606
-0.0486047
-0.037335
-0.025842
-0.014215
-0.0025399
0.00910187
0.0206348
0.0319912
0.0431114
0.0539439
0.0644461
0.0745816
0.0843213
0.0936428
0.102529
0.110969
0.118956
0.126488
0.133564
0.140191
0.146373
0.152121
0.157446
0.162359
0.166875
0.17101
0.174779
0.178199
0.181286
0.184059
0.186536
0.188733
0.190669
0.192362
0.193828
0.195085
0.196149
0.197035
0.197761
0.198339
0.198785
0.199111
0.19933
0.199453
0.199493
0.199458
0.199358
0.199202
0.198997
0.198752
0.198471
0.198162
0.197829
0.197477
0.197111
0.196734
0.19635
0.195961
0.195571
0.19518
0.194791
0.194406
0.194026
0.193651
0.193284
0.192923
0.192571
0.192228
0.191893
0.191567
0.191251
0.190943
0.190645
0.190356
0.190075
0.189804
0.18954
0.189285
0.189038
0.188799
0.188567
0.188342
0.188123
0.187911
0.187706
0.187505
0.187311
0.187121
0.186936
0.186756
0.18658
0.186408
0.186239
0.186074
0.185912
0.185753
0.185597
0.185443
0.185291
0.185141
0.184993
0.184847
0.184702
0.184558
0.184416
0.184274
0.184133
0.183993
0.183853
0.183714
0.183575
0.183436
0.183298
0.18316
0.183022
0.182885
0.182748
0.182612
0.182476
0.182342
0.182209
0.182079
0.181951
0.181827
0.181709
0.181597
0.181494
0.181402
0.181325
0.181267
0.181234
0.18123
0.181262
0.181335
0.18145
0.181598
0.181734
0.181822
0.181539
-0.0923296
-0.094991
-0.0983958
-0.101498
-0.104229
-0.106801
-0.109346
-0.111927
-0.11458
-0.117329
-0.120178
-0.123121
-0.126141
-0.129211
-0.132301
-0.135373
-0.138386
-0.141294
-0.144049
-0.146599
-0.14889
-0.150865
-0.152468
-0.153637
-0.154313
-0.154436
-0.153946
-0.152788
-0.150909
-0.148263
-0.144811
-0.140523
-0.135379
-0.129371
-0.122508
-0.114814
-0.106326
-0.0971008
-0.0872053
-0.0767205
-0.0657362
-0.0543482
-0.0426554
-0.0307572
-0.0187512
-0.00672905
0.0052245
0.017033
0.0286289
0.0399548
0.0509608
0.0616061
0.0718578
0.0816906
0.0910856
0.10003
0.108515
0.116539
0.1241
0.131204
0.137855
0.144064
0.149839
0.155193
0.16014
0.164694
0.16887
0.172684
0.176153
0.179293
0.182122
0.184658
0.186916
0.188915
0.190672
0.192203
0.193525
0.194654
0.195605
0.196395
0.197036
0.197543
0.19793
0.198208
0.198388
0.198483
0.198501
0.198453
0.198346
0.198189
0.197989
0.197752
0.197485
0.197192
0.196879
0.19655
0.196208
0.195857
0.1955
0.195139
0.194777
0.194416
0.194056
0.1937
0.193349
0.193003
0.192663
0.19233
0.192004
0.191686
0.191376
0.191075
0.190781
0.190495
0.190218
0.189949
0.189687
0.189433
0.189187
0.188948
0.188716
0.188491
0.188273
0.18806
0.187854
0.187653
0.187458
0.187267
0.187081
0.1869
0.186723
0.18655
0.186381
0.186215
0.186052
0.185892
0.185735
0.18558
0.185428
0.185277
0.185129
0.184982
0.184837
0.184693
0.18455
0.184408
0.184267
0.184126
0.183987
0.183847
0.183708
0.183569
0.183431
0.183293
0.183154
0.183016
0.182879
0.182741
0.182604
0.182468
0.182333
0.182199
0.182066
0.181936
0.181809
0.181686
0.181568
0.181458
0.181356
0.181266
0.181191
0.181134
0.181099
0.181088
0.181103
0.181137
0.181177
0.181173
0.181084
0.180632
-0.0996447
-0.101884
-0.104773
-0.107503
-0.110015
-0.112468
-0.114958
-0.117532
-0.120214
-0.12302
-0.125949
-0.128992
-0.132131
-0.135338
-0.138582
-0.141824
-0.145023
-0.148132
-0.151099
-0.153872
-0.156393
-0.158602
-0.160437
-0.161832
-0.162723
-0.163041
-0.162723
-0.161702
-0.15992
-0.157324
-0.153868
-0.149516
-0.144243
-0.13804
-0.130917
-0.122901
-0.114037
-0.104388
-0.0940345
-0.0830694
-0.071597
-0.0597259
-0.0475673
-0.0352309
-0.0228205
-0.0104327
0.00184501
0.0139357
0.0257721
0.0372978
0.0484663
0.0592404
0.0695918
0.0794992
0.0889484
0.0979305
0.106442
0.114482
0.122055
0.129166
0.135825
0.142042
0.147828
0.153196
0.158161
0.162738
0.166941
0.170788
0.174293
0.177475
0.180348
0.182931
0.18524
0.187292
0.189103
0.19069
0.192068
0.193254
0.194263
0.195109
0.195806
0.196368
0.196808
0.197139
0.19737
0.197515
0.197581
0.19758
0.197518
0.197404
0.197246
0.19705
0.196821
0.196566
0.196288
0.195993
0.195684
0.195365
0.195038
0.194706
0.194372
0.194036
0.193701
0.193369
0.19304
0.192715
0.192395
0.192081
0.191774
0.191472
0.191178
0.190891
0.190611
0.190339
0.190073
0.189815
0.189564
0.18932
0.189083
0.188853
0.188629
0.188411
0.188199
0.187993
0.187792
0.187597
0.187406
0.18722
0.187039
0.186861
0.186688
0.186518
0.186352
0.186188
0.186028
0.18587
0.185715
0.185562
0.185412
0.185263
0.185116
0.18497
0.184826
0.184683
0.184541
0.1844
0.184259
0.184119
0.18398
0.183841
0.183702
0.183564
0.183425
0.183287
0.183149
0.183011
0.182873
0.182735
0.182597
0.18246
0.182323
0.182187
0.182053
0.18192
0.181789
0.181661
0.181537
0.181419
0.181307
0.181203
0.18111
0.181029
0.180962
0.180908
0.180865
0.180824
0.180764
0.180637
0.180401
0.179816
-0.106198
-0.107986
-0.110313
-0.112615
-0.114854
-0.117144
-0.119547
-0.122094
-0.124797
-0.127663
-0.130686
-0.133851
-0.137138
-0.140518
-0.143957
-0.147415
-0.150849
-0.154209
-0.157443
-0.160494
-0.163301
-0.165799
-0.167921
-0.169596
-0.170752
-0.171315
-0.17121
-0.170364
-0.168711
-0.166188
-0.16274
-0.158326
-0.152915
-0.146496
-0.139081
-0.130702
-0.121413
-0.111291
-0.100429
-0.0889391
-0.0769401
-0.0645538
-0.0519045
-0.0391116
-0.0262863
-0.0135301
-0.000933289
0.0114267
0.0234846
0.0351874
0.0464928
0.0573686
0.0677916
0.0777459
0.0872219
0.0962156
0.104727
0.11276
0.120322
0.127421
0.134067
0.140274
0.146054
0.151421
0.156389
0.160975
0.165193
0.169059
0.17259
0.175801
0.178709
0.18133
0.183681
0.185776
0.187634
0.189269
0.190696
0.191932
0.192991
0.193887
0.194634
0.195245
0.195734
0.196112
0.19639
0.19658
0.19669
0.196731
0.196711
0.196638
0.196518
0.196359
0.196166
0.195946
0.195702
0.19544
0.195162
0.194873
0.194574
0.19427
0.193962
0.193652
0.193342
0.193032
0.192725
0.192421
0.192121
0.191826
0.191536
0.191251
0.190973
0.190701
0.190435
0.190175
0.189922
0.189676
0.189436
0.189202
0.188974
0.188752
0.188536
0.188326
0.188121
0.187922
0.187727
0.187537
0.187352
0.187171
0.186993
0.18682
0.18665
0.186484
0.18632
0.18616
0.186002
0.185847
0.185694
0.185543
0.185394
0.185247
0.185101
0.184957
0.184814
0.184672
0.184531
0.184391
0.184251
0.184112
0.183973
0.183834
0.183696
0.183558
0.18342
0.183281
0.183143
0.183005
0.182866
0.182728
0.18259
0.182451
0.182313
0.182176
0.182039
0.181903
0.181768
0.181635
0.181505
0.181378
0.181255
0.181138
0.181026
0.18092
0.180821
0.180726
0.180628
0.180515
0.180366
0.180132
0.179771
0.179081
-0.111498
-0.112819
-0.11456
-0.1164
-0.118336
-0.120437
-0.122738
-0.125251
-0.12798
-0.130919
-0.134057
-0.137374
-0.140844
-0.144437
-0.148115
-0.151836
-0.155555
-0.159218
-0.162772
-0.166154
-0.169301
-0.172142
-0.174605
-0.176611
-0.178082
-0.178935
-0.179085
-0.178451
-0.176955
-0.174526
-0.171099
-0.166623
-0.161062
-0.154407
-0.146672
-0.137898
-0.128148
-0.117516
-0.106113
-0.0940672
-0.0815155
-0.0685974
-0.0554502
-0.0422041
-0.0289778
-0.0158767
-0.0029913
0.00960246
0.0218431
0.0336822
0.0450833
0.0560203
0.0664757
0.0764393
0.085907
0.0948795
0.103361
0.11136
0.118885
0.125947
0.13256
0.138738
0.144494
0.149843
0.1548
0.159381
0.163601
0.167475
0.17102
0.174252
0.177185
0.179835
0.182219
0.184351
0.186248
0.187924
0.189394
0.190674
0.191777
0.192718
0.19351
0.194166
0.194698
0.19512
0.19544
0.195671
0.195822
0.195903
0.195921
0.195885
0.195801
0.195677
0.195519
0.195331
0.195119
0.194888
0.19464
0.194379
0.194109
0.193831
0.193549
0.193263
0.192977
0.19269
0.192404
0.192121
0.191841
0.191564
0.191292
0.191024
0.190761
0.190504
0.190252
0.190006
0.189765
0.189531
0.189301
0.189078
0.18886
0.188647
0.188439
0.188237
0.188039
0.187846
0.187658
0.187474
0.187294
0.187118
0.186945
0.186776
0.18661
0.186447
0.186287
0.18613
0.185975
0.185822
0.185672
0.185523
0.185376
0.18523
0.185086
0.184943
0.184802
0.184661
0.184521
0.184381
0.184242
0.184104
0.183966
0.183827
0.18369
0.183552
0.183414
0.183275
0.183137
0.182999
0.18286
0.182721
0.182582
0.182443
0.182303
0.182164
0.182024
0.181885
0.181747
0.181609
0.181472
0.181336
0.181203
0.18107
0.18094
0.18081
0.18068
0.180544
0.180394
0.180216
0.179986
0.179658
0.179193
0.178418
-0.115048
-0.115958
-0.117112
-0.118478
-0.120096
-0.122
-0.124198
-0.126686
-0.129455
-0.132492
-0.135774
-0.139278
-0.142971
-0.14682
-0.150782
-0.154814
-0.158866
-0.162882
-0.166804
-0.170566
-0.1741
-0.17733
-0.180178
-0.182558
-0.184383
-0.185562
-0.186
-0.185606
-0.18429
-0.18197
-0.17857
-0.17403
-0.168312
-0.161403
-0.153323
-0.144122
-0.133881
-0.122711
-0.110744
-0.0981297
-0.0850256
-0.0715887
-0.0579697
-0.0443078
-0.0307268
-0.0173335
-0.00421681
0.00855129
0.0209148
0.0328317
0.0442723
0.0552172
0.0656553
0.0755827
0.0850005
0.093914
0.102332
0.110265
0.117726
0.124728
0.131285
0.137414
0.143128
0.148443
0.153374
0.157937
0.162147
0.166019
0.169568
0.17281
0.17576
0.178432
0.180841
0.183003
0.184932
0.186643
0.188151
0.189469
0.190612
0.191593
0.192425
0.193121
0.193694
0.194155
0.194515
0.194784
0.194973
0.19509
0.195144
0.195143
0.195093
0.195002
0.194876
0.19472
0.194538
0.194336
0.194117
0.193884
0.193641
0.193389
0.193132
0.19287
0.192607
0.192342
0.192078
0.191815
0.191554
0.191296
0.191041
0.19079
0.190544
0.190301
0.190064
0.189831
0.189603
0.18938
0.189162
0.188949
0.18874
0.188537
0.188338
0.188144
0.187954
0.187768
0.187586
0.187408
0.187233
0.187062
0.186895
0.18673
0.186568
0.186409
0.186252
0.186098
0.185946
0.185796
0.185648
0.185501
0.185356
0.185213
0.18507
0.184929
0.184788
0.184649
0.18451
0.184371
0.184233
0.184095
0.183958
0.18382
0.183683
0.183545
0.183407
0.183269
0.183131
0.182993
0.182854
0.182714
0.182574
0.182434
0.182293
0.182152
0.18201
0.181868
0.181725
0.181582
0.181438
0.181294
0.181149
0.181003
0.180854
0.180701
0.18054
0.180365