/*--------------------------------*- C++ -*----------------------------------*\
  =========                 |
  \\      /  F ield         | OpenFOAM: The Open Source CFD Toolbox
   \\    /   O peration     | Website:  https://openfoam.org
    \\  /    A nd           | Version:  6
     \\/     M anipulation  |
\*---------------------------------------------------------------------------*/
FoamFile
{
    version     2.0;
    format      ascii;
    class       surfaceScalarField;
    location    "0.08";
    object      phi;
}
// * * * * * * * * * * * * * * * * * * * * * * * * * * * * * * * * * * * * * //

dimensions      [0 3 -1 0 0 0 0];

internalField   nonuniform List<scalar> 
24170
(
3.25676e-07
-6.83501e-09
3.19448e-07
6.22786e-09
3.15894e-07
3.55406e-09
3.08885e-07
7.00856e-09
3.02028e-07
6.85675e-09
2.97162e-07
4.86665e-09
2.94014e-07
3.14816e-09
2.91875e-07
2.13825e-09
2.90307e-07
1.56878e-09
2.89112e-07
1.19498e-09
2.88196e-07
9.16008e-10
2.87505e-07
6.90629e-10
2.87015e-07
4.89848e-10
2.86723e-07
2.91923e-10
2.86648e-07
7.56025e-11
2.86785e-07
-1.37316e-10
2.87764e-07
-9.79246e-10
-2.51091e-09
2.90275e-07
3.5038e-07
-1.54905e-08
3.47834e-07
8.774e-09
3.44122e-07
7.26679e-09
3.42328e-07
8.80231e-09
3.40236e-07
8.9484e-09
3.3786e-07
7.24232e-09
3.3566e-07
5.3483e-09
3.33838e-07
3.9608e-09
3.32394e-07
3.01267e-09
3.31265e-07
2.32367e-09
3.3039e-07
1.79158e-09
3.29722e-07
1.35807e-09
3.29235e-07
9.76587e-10
3.28918e-07
6.09326e-10
3.28802e-07
1.91548e-10
3.28981e-07
-3.16476e-10
3.29463e-07
-1.46104e-09
-3.17391e-09
3.30126e-07
3.63439e-07
-1.26782e-08
3.66582e-07
5.63123e-09
3.66777e-07
7.0716e-09
3.67003e-07
8.57699e-09
3.66708e-07
9.24262e-09
3.65821e-07
8.13023e-09
3.64666e-07
6.50247e-09
3.63522e-07
5.1055e-09
3.62518e-07
4.01641e-09
3.6169e-07
3.15159e-09
3.61035e-07
2.44683e-09
3.60541e-07
1.85192e-09
3.602e-07
1.31791e-09
3.6001e-07
7.99117e-10
3.59981e-07
2.20319e-10
3.60153e-07
-4.88946e-10
3.60383e-07
-1.69015e-09
-3.31265e-09
3.60521e-07
3.89243e-07
-9.38278e-09
3.91483e-07
3.39196e-09
3.92455e-07
6.0989e-09
3.9318e-07
7.85274e-09
3.93537e-07
8.88547e-09
3.93385e-07
8.28197e-09
3.92885e-07
7.00209e-09
3.92251e-07
5.73981e-09
3.91624e-07
4.64371e-09
3.91072e-07
3.70326e-09
3.90625e-07
2.89407e-09
3.90294e-07
2.1832e-09
3.90083e-07
1.52847e-09
3.89997e-07
8.84748e-10
3.90036e-07
1.81728e-10
3.90197e-07
-6.50129e-10
3.90335e-07
-1.8276e-09
-3.28533e-09
3.90307e-07
4.18277e-07
-6.94729e-09
4.19442e-07
2.22676e-09
4.20372e-07
5.16972e-09
4.21199e-07
7.02495e-09
4.21848e-07
8.23683e-09
4.2212e-07
8.01036e-09
4.22062e-07
7.05939e-09
4.21821e-07
5.98094e-09
4.21516e-07
4.94929e-09
4.21219e-07
4.00001e-09
4.20973e-07
3.13961e-09
4.20803e-07
2.35321e-09
4.20722e-07
1.6097e-09
4.20736e-07
8.70569e-10
4.2084e-07
7.8434e-11
4.21011e-07
-8.21135e-10
4.21128e-07
-1.94507e-09
-3.22153e-09
4.21064e-07
4.49045e-07
-5.08343e-09
4.4964e-07
1.63151e-09
4.50427e-07
4.38324e-09
4.51258e-07
6.19371e-09
4.52046e-07
7.4488e-09
4.52573e-07
7.48323e-09
4.52822e-07
6.81013e-09
4.52884e-07
5.91874e-09
4.5285e-07
4.98384e-09
4.52784e-07
4.06631e-09
4.5273e-07
3.19316e-09
4.52719e-07
2.36471e-09
4.52766e-07
1.56191e-09
4.52881e-07
7.56184e-10
4.53053e-07
-9.38158e-11
4.53255e-07
-1.02346e-09
4.53394e-07
-2.08404e-09
-3.20334e-09
4.53376e-07
4.8177e-07
-3.58112e-09
4.82095e-07
1.30606e-09
4.82748e-07
3.73044e-09
4.83539e-07
5.40273e-09
4.8438e-07
6.60793e-09
4.85057e-07
6.80562e-09
4.85518e-07
6.3491e-09
4.85812e-07
5.6248e-09
4.86002e-07
4.79446e-09
4.86138e-07
3.92975e-09
4.86262e-07
3.06927e-09
4.86402e-07
2.22458e-09
4.86576e-07
1.38779e-09
4.86791e-07
5.41149e-10
4.87038e-07
-3.40809e-10
4.87291e-07
-1.27574e-09
4.87482e-07
-2.27541e-09
-3.27626e-09
4.87555e-07
5.16763e-07
-2.38645e-09
5.16943e-07
1.12648e-09
5.17479e-07
3.19405e-09
5.18208e-07
4.67387e-09
5.1905e-07
5.76638e-09
5.19809e-07
6.04671e-09
5.20413e-07
5.74516e-09
5.2088e-07
5.15709e-09
5.21251e-07
4.42426e-09
5.21561e-07
3.61953e-09
5.21844e-07
2.78642e-09
5.22124e-07
1.94389e-09
5.22419e-07
1.09323e-09
5.22733e-07
2.26806e-10
5.2306e-07
-6.67223e-10
5.23377e-07
-1.59267e-09
5.23642e-07
-2.54053e-09
-3.46054e-09
5.23826e-07
5.54226e-07
-1.47843e-09
5.5432e-07
1.03175e-09
5.54764e-07
2.75055e-09
5.55426e-07
4.0114e-09
5.5624e-07
4.95255e-09
5.57035e-07
5.25175e-09
5.57731e-07
5.04887e-09
5.58326e-07
4.56256e-09
5.58838e-07
3.9119e-09
5.59293e-07
3.165e-09
5.59714e-07
2.36569e-09
5.6012e-07
1.53708e-09
5.60526e-07
6.8731e-10
5.60936e-07
-1.82923e-10
5.61344e-07
-1.07506e-09
5.61735e-07
-1.98361e-09
5.62085e-07
-2.89102e-09
-3.76093e-09
5.62386e-07
5.94323e-07
-8.23714e-10
5.94379e-07
9.7593e-10
5.94757e-07
2.37218e-09
5.9536e-07
3.40818e-09
5.96134e-07
4.17861e-09
5.96937e-07
4.44926e-09
5.97689e-07
4.29707e-09
5.98372e-07
3.87889e-09
5.98993e-07
3.29128e-09
5.99563e-07
2.5944e-09
6.001e-07
1.82942e-09
6.00616e-07
1.02102e-09
6.01121e-07
1.81918e-10
6.01619e-07
-6.81164e-10
6.02107e-07
-1.56261e-09
6.02575e-07
-2.45176e-09
6.03014e-07
-3.32953e-09
-4.17171e-09
6.03424e-07
6.37239e-07
-3.81421e-10
6.3729e-07
9.2532e-10
6.37631e-07
2.03111e-09
6.38188e-07
2.85085e-09
6.3892e-07
3.44652e-09
6.39714e-07
3.65569e-09
6.40495e-07
3.51569e-09
6.41238e-07
3.13568e-09
6.41938e-07
2.59147e-09
6.42598e-07
1.93399e-09
6.43228e-07
1.20007e-09
6.43835e-07
4.14104e-10
6.44425e-07
-4.08739e-10
6.45002e-07
-1.25795e-09
6.45563e-07
-2.12388e-09
6.46105e-07
-2.99382e-09
6.46626e-07
-3.85056e-09
-4.67924e-09
6.47134e-07
5.73843e-07
-1.41234e-10
5.73895e-07
8.73151e-10
5.74173e-07
1.75325e-09
5.74621e-07
2.40288e-09
5.75211e-07
2.85711e-09
5.75868e-07
2.9981e-09
5.76538e-07
2.84605e-09
5.77194e-07
2.47939e-09
5.77828e-07
1.95801e-09
5.78436e-07
1.32512e-09
5.79023e-07
6.13399e-10
5.79591e-07
-1.54045e-10
5.80144e-07
-9.61268e-10
5.80682e-07
-1.79608e-09
5.81205e-07
-2.64717e-09
5.81713e-07
-3.50173e-09
5.82208e-07
-4.34506e-09
-5.16855e-09
5.82697e-07
6.99651e-07
2.28324e-11
6.99749e-07
7.75959e-10
7.00064e-07
1.4376e-09
7.00559e-07
1.90797e-09
7.01208e-07
2.20824e-09
7.01944e-07
2.26253e-09
7.02711e-07
2.07856e-09
7.03481e-07
1.70947e-09
7.04239e-07
1.20049e-09
7.04977e-07
5.86466e-10
7.05696e-07
-1.04947e-10
7.06394e-07
-8.52849e-10
7.07075e-07
-1.64158e-09
7.07737e-07
-2.45843e-09
7.08382e-07
-3.29171e-09
7.09009e-07
-4.1295e-09
7.09625e-07
-4.96028e-09
-5.78053e-09
7.10237e-07
8.53006e-07
1.01838e-10
8.53162e-07
6.19276e-10
8.53533e-07
1.06695e-09
8.54085e-07
1.35559e-09
8.54797e-07
1.49647e-09
8.55611e-07
1.44902e-09
8.56475e-07
1.21455e-09
8.57357e-07
8.26741e-10
8.5824e-07
3.18246e-10
8.5911e-07
-2.84277e-10
8.59964e-07
-9.58642e-10
8.60798e-07
-1.68699e-09
8.61612e-07
-2.45503e-09
8.62404e-07
-3.25068e-09
8.63175e-07
-4.06303e-09
8.63928e-07
-4.88177e-09
8.64666e-07
-5.69831e-09
-6.51266e-09
8.65398e-07
1.03993e-06
9.84775e-11
1.04015e-06
3.93012e-10
1.04059e-06
6.25918e-10
1.04122e-06
7.32659e-10
1.042e-06
7.15314e-10
1.04289e-06
5.57029e-10
1.04385e-06
2.57895e-10
1.04483e-06
-1.62045e-10
1.04583e-06
-6.80522e-10
1.04683e-06
-1.27822e-09
1.04781e-06
-1.93839e-09
1.04877e-06
-2.64679e-09
1.0497e-06
-3.39134e-09
1.05061e-06
-4.16158e-09
1.0515e-06
-4.94811e-09
1.05236e-06
-5.74244e-09
1.0532e-06
-6.53827e-09
-7.3374e-09
1.05402e-06
1.26775e-06
2.82552e-11
1.26805e-06
9.45923e-11
1.26857e-06
1.07976e-10
1.26927e-06
3.06868e-11
1.27012e-06
-1.41038e-10
1.27109e-06
-4.1269e-10
1.27214e-06
-7.83613e-10
1.27322e-06
-1.24281e-09
1.27431e-06
-1.77642e-09
1.27541e-06
-2.37157e-09
1.27648e-06
-3.01665e-09
1.27754e-06
-3.70123e-09
1.27856e-06
-4.41604e-09
1.27955e-06
-5.15271e-09
1.28051e-06
-5.90369e-09
1.28143e-06
-6.66217e-09
1.28231e-06
-7.4233e-09
-8.1893e-09
1.28317e-06
1.54543e-06
-8.67777e-11
1.54579e-06
-2.65625e-10
1.54638e-06
-4.79522e-10
1.54716e-06
-7.45984e-10
1.54809e-06
-1.06926e-09
1.54912e-06
-1.45179e-09
1.55023e-06
-1.89363e-09
1.55138e-06
-2.39029e-09
1.55254e-06
-2.93507e-09
1.55369e-06
-3.52114e-09
1.55482e-06
-4.14185e-09
1.55591e-06
-4.7907e-09
1.55695e-06
-5.46144e-09
1.55795e-06
-6.14808e-09
1.55889e-06
-6.8449e-09
1.55977e-06
-7.54652e-09
1.5606e-06
-8.24899e-09
-8.95423e-09
1.56136e-06
1.8839e-06
-2.23557e-10
1.8843e-06
-6.62646e-10
1.88493e-06
-1.11319e-09
1.88576e-06
-1.57594e-09
1.88674e-06
-2.0498e-09
1.88783e-06
-2.53746e-09
1.88898e-06
-3.04156e-09
1.89015e-06
-3.56331e-09
1.89132e-06
-4.10304e-09
1.89246e-06
-4.6604e-09
1.89355e-06
-5.23408e-09
1.89458e-06
-5.82192e-09
1.89554e-06
-6.42105e-09
1.89642e-06
-7.02809e-09
1.89721e-06
-7.63931e-09
1.89792e-06
-8.25077e-09
1.89853e-06
-8.85935e-09
-9.4665e-09
1.89904e-06
2.29646e-06
-3.4984e-10
2.29684e-06
-1.04531e-09
2.29748e-06
-1.74828e-09
2.29832e-06
-2.42126e-09
2.29932e-06
-3.05006e-09
2.30042e-06
-3.63852e-09
2.30157e-06
-4.19106e-09
2.30272e-06
-4.7144e-09
2.30384e-06
-5.21768e-09
2.30489e-06
-5.709e-09
2.30585e-06
-6.19398e-09
2.3067e-06
-6.67601e-09
2.30744e-06
-7.15668e-09
2.30805e-06
-7.63606e-09
2.30852e-06
-8.11303e-09
2.30885e-06
-8.58565e-09
2.30905e-06
-9.05199e-09
-9.51364e-09
2.30909e-06
1.68109e-06
-3.66119e-10
1.68124e-06
-1.19924e-09
1.68159e-06
-2.09844e-09
1.68211e-06
-2.93563e-09
1.68274e-06
-3.68576e-09
1.68345e-06
-4.35196e-09
1.6842e-06
-4.93335e-09
1.68492e-06
-5.44145e-09
1.6856e-06
-5.89571e-09
1.68621e-06
-6.31314e-09
1.68672e-06
-6.70615e-09
1.68713e-06
-7.08358e-09
1.68742e-06
-7.45131e-09
1.6876e-06
-7.8126e-09
1.68765e-06
-8.16871e-09
1.68759e-06
-8.51941e-09
1.6874e-06
-8.86387e-09
-9.20368e-09
1.68709e-06
1.46332e-06
-2.29342e-10
1.46329e-06
-1.16422e-09
1.46349e-06
-2.30357e-09
1.46388e-06
-3.32788e-09
1.46442e-06
-4.22327e-09
1.46505e-06
-4.98288e-09
1.46571e-06
-5.58983e-09
1.46633e-06
-6.06725e-09
1.46689e-06
-6.45295e-09
1.46735e-06
-6.77658e-09
1.46771e-06
-7.05933e-09
1.46794e-06
-7.31688e-09
1.46805e-06
-7.56005e-09
1.46803e-06
-7.79548e-09
1.46789e-06
-8.02662e-09
1.46763e-06
-8.25474e-09
1.46724e-06
-8.47982e-09
-8.70335e-09
1.46674e-06
1.27359e-06
1.9563e-10
1.27334e-06
-9.13094e-10
1.27345e-06
-2.41387e-09
1.2738e-06
-3.67595e-09
1.27434e-06
-4.76596e-09
1.27499e-06
-5.63968e-09
1.27566e-06
-6.25602e-09
1.27626e-06
-6.67093e-09
1.27677e-06
-6.9545e-09
1.27714e-06
-7.15371e-09
1.27738e-06
-7.30081e-09
1.27749e-06
-7.4195e-09
1.27745e-06
-7.52564e-09
1.27729e-06
-7.62857e-09
1.27699e-06
-7.73315e-09
1.27658e-06
-7.84126e-09
1.27605e-06
-7.95296e-09
-8.06909e-09
1.27542e-06
1.10821e-06
1.08089e-09
1.10775e-06
-4.52042e-10
1.10785e-06
-2.51416e-09
1.10825e-06
-4.08105e-09
1.10891e-06
-5.42351e-09
1.10968e-06
-6.40814e-09
1.1104e-06
-6.98166e-09
1.11101e-06
-7.27376e-09
1.11145e-06
-7.40297e-09
1.11174e-06
-7.43648e-09
1.11186e-06
-7.4184e-09
1.11182e-06
-7.37996e-09
1.11163e-06
-7.34036e-09
1.11131e-06
-7.3096e-09
1.11087e-06
-7.29208e-09
1.11032e-06
-7.2888e-09
1.10966e-06
-7.29871e-09
-7.32119e-09
1.10892e-06
9.64012e-07
2.59025e-09
9.63409e-07
1.50763e-10
9.63615e-07
-2.7203e-09
9.6419e-07
-4.65548e-09
9.65056e-07
-6.28938e-09
9.65973e-07
-7.32542e-09
9.66744e-07
-7.75268e-09
9.67302e-07
-7.8317e-09
9.6764e-07
-7.74071e-09
9.67768e-07
-7.56485e-09
9.67707e-07
-7.35717e-09
9.6748e-07
-7.15267e-09
9.67109e-07
-6.9696e-09
9.66614e-07
-6.81497e-09
9.66012e-07
-6.68993e-09
9.65316e-07
-6.59264e-09
9.64537e-07
-6.51958e-09
-6.46792e-09
9.63683e-07
8.38115e-07
5.01092e-09
8.37641e-07
6.24252e-10
8.38136e-07
-3.2153e-09
8.38987e-07
-5.50643e-09
8.40103e-07
-7.40526e-09
8.41127e-07
-8.34958e-09
8.41851e-07
-8.47656e-09
8.42253e-07
-8.23424e-09
8.42371e-07
-7.85865e-09
8.42249e-07
-7.44285e-09
8.41932e-07
-7.03994e-09
8.4146e-07
-6.68024e-09
8.40864e-07
-6.37421e-09
8.4017e-07
-6.12099e-09
8.39396e-07
-5.91544e-09
8.38554e-07
-5.75111e-09
8.37656e-07
-5.6211e-09
-5.51978e-09
8.36708e-07
7.27611e-07
9.12817e-09
7.28032e-07
2.03689e-10
7.29122e-07
-4.30576e-09
7.30351e-07
-6.73483e-09
7.31681e-07
-8.73549e-09
7.32669e-07
-9.3382e-09
7.33167e-07
-8.97416e-09
7.3324e-07
-8.30752e-09
7.32991e-07
-7.60907e-09
7.32506e-07
-6.95766e-09
7.31854e-07
-6.38844e-09
7.31088e-07
-5.91389e-09
7.30242e-07
-5.52835e-09
7.2934e-07
-5.21868e-09
7.28396e-07
-4.97141e-09
7.27419e-07
-4.77491e-09
7.26417e-07
-4.61907e-09
-4.49555e-09
7.25393e-07
6.30202e-07
1.59324e-08
6.3268e-07
-2.27394e-09
6.34574e-07
-6.19963e-09
6.36228e-07
-8.38882e-09
6.37629e-07
-1.01365e-08
6.38315e-07
-1.00242e-08
6.38307e-07
-8.96617e-09
6.37815e-07
-7.81554e-09
6.37026e-07
-6.81965e-09
6.36067e-07
-5.99932e-09
6.35021e-07
-5.34264e-09
6.33936e-07
-4.82889e-09
6.32838e-07
-4.43033e-09
6.3174e-07
-4.12033e-09
6.30647e-07
-3.87804e-09
6.2956e-07
-3.6882e-09
6.2848e-07
-3.53916e-09
-3.42072e-09
6.27405e-07
5.47181e-07
2.32977e-08
5.51774e-07
-6.86702e-09
5.53401e-07
-7.8266e-09
5.55e-07
-9.98731e-09
5.55954e-07
-1.10905e-08
5.55796e-07
-9.86627e-09
5.54831e-07
-8.00118e-09
5.53459e-07
-6.44377e-09
5.51945e-07
-5.30542e-09
5.50424e-07
-4.47885e-09
5.48956e-07
-3.87426e-09
5.47558e-07
-3.43113e-09
5.46231e-07
-3.1032e-09
5.44967e-07
-2.85617e-09
5.43756e-07
-2.66723e-09
5.4259e-07
-2.52233e-09
5.41463e-07
-2.41164e-09
-2.32644e-09
5.40368e-07
4.9161e-07
1.44482e-08
4.90669e-07
-5.92576e-09
4.87178e-07
-4.33575e-09
4.86129e-07
-8.93867e-09
4.84565e-07
-9.52619e-09
4.82071e-07
-7.37221e-09
4.79238e-07
-5.1682e-09
4.76516e-07
-3.72178e-09
4.74076e-07
-2.86547e-09
4.71933e-07
-2.33534e-09
4.70045e-07
-1.98609e-09
4.68361e-07
-1.74797e-09
4.66839e-07
-1.58036e-09
4.6544e-07
-1.45773e-09
4.64139e-07
-1.3657e-09
4.62915e-07
-1.29868e-09
4.61761e-07
-1.25754e-09
-1.28666e-09
4.60721e-07
4.34716e-07
4.2879e-07
4.24454e-07
4.15516e-07
4.05989e-07
3.98617e-07
3.93449e-07
3.89727e-07
3.86862e-07
3.84526e-07
3.8254e-07
3.80792e-07
3.79212e-07
3.77754e-07
3.76389e-07
3.7509e-07
3.73832e-07
3.72546e-07
1.35901e-08
-1.35901e-08
1.4736e-08
-1.14586e-09
6.4247e-09
8.31127e-09
-7.66741e-09
1.40921e-08
-2.50059e-08
1.73385e-08
-4.42808e-08
1.92749e-08
-6.48091e-08
2.05283e-08
-8.62088e-08
2.13997e-08
-1.08229e-07
2.202e-08
-1.30666e-07
2.24369e-08
-1.53326e-07
2.26604e-08
-1.76014e-07
2.26882e-08
-1.98531e-07
2.25168e-08
-2.20678e-07
2.21465e-08
-2.42261e-07
2.15831e-08
-2.63098e-07
2.08371e-08
-2.83021e-07
1.9923e-08
-3.01879e-07
1.88579e-08
-3.19538e-07
1.76597e-08
-3.35885e-07
1.63465e-08
-3.5082e-07
1.49352e-08
-3.64261e-07
1.34413e-08
-3.7614e-07
1.18782e-08
-3.86397e-07
1.02574e-08
-3.94986e-07
8.5888e-09
-4.01867e-07
6.88088e-09
-4.07007e-07
5.14073e-09
-4.10385e-07
3.37787e-09
-4.12005e-07
1.61955e-09
-4.11928e-07
-7.68158e-11
-4.10265e-07
-1.66301e-09
-4.07113e-07
-3.15176e-09
-4.02532e-07
-4.58111e-09
-3.96562e-07
-5.9702e-09
-3.89236e-07
-7.32618e-09
-3.80586e-07
-8.65005e-09
-3.70646e-07
-9.9394e-09
-3.59456e-07
-1.11899e-08
-3.4706e-07
-1.23963e-08
-3.33507e-07
-1.35528e-08
-3.18854e-07
-1.46535e-08
-3.03161e-07
-1.56928e-08
-2.86496e-07
-1.66654e-08
-2.68929e-07
-1.75664e-08
-2.50537e-07
-1.83917e-08
-2.314e-07
-1.91379e-08
-2.11597e-07
-1.98023e-08
-1.91215e-07
-2.03827e-08
-1.70337e-07
-2.08779e-08
-1.4905e-07
-2.12868e-08
-1.27441e-07
-2.16087e-08
-1.05598e-07
-2.18427e-08
-8.36108e-08
-2.19876e-08
-6.15702e-08
-2.20406e-08
-3.95669e-08
-2.20033e-08
-1.76709e-08
-2.1896e-08
4.11024e-09
-2.17811e-08
2.57486e-08
-2.16384e-08
4.71629e-08
-2.14143e-08
6.82865e-08
-2.11236e-08
8.90647e-08
-2.07782e-08
1.0945e-07
-2.03852e-08
1.294e-07
-1.99499e-08
1.48876e-07
-1.94763e-08
1.67844e-07
-1.89683e-08
1.86274e-07
-1.84293e-08
2.04136e-07
-1.78625e-08
2.21407e-07
-1.72713e-08
2.38066e-07
-1.66586e-08
2.54094e-07
-1.60278e-08
2.69475e-07
-1.53817e-08
2.84199e-07
-1.47234e-08
2.98255e-07
-1.4056e-08
3.11637e-07
-1.33826e-08
3.24343e-07
-1.2706e-08
3.36373e-07
-1.20293e-08
3.47728e-07
-1.13555e-08
3.58416e-07
-1.06874e-08
3.68444e-07
-1.00279e-08
3.77823e-07
-9.37965e-09
3.86568e-07
-8.74522e-09
3.94695e-07
-8.12701e-09
4.02223e-07
-7.52721e-09
4.0917e-07
-6.94778e-09
4.15561e-07
-6.39044e-09
4.21418e-07
-5.85662e-09
4.26765e-07
-5.34749e-09
4.31629e-07
-4.86392e-09
4.36035e-07
-4.40649e-09
4.40011e-07
-3.97552e-09
4.43582e-07
-3.57106e-09
4.46775e-07
-3.19293e-09
4.49616e-07
-2.84074e-09
4.5213e-07
-2.51388e-09
4.54341e-07
-2.21158e-09
4.56274e-07
-1.93291e-09
4.57951e-07
-1.67681e-09
4.59393e-07
-1.44214e-09
4.60621e-07
-1.22772e-09
4.61653e-07
-1.0323e-09
4.62508e-07
-8.54644e-10
4.63201e-07
-6.93477e-10
4.63749e-07
-5.47553e-10
4.64164e-07
-4.15438e-10
4.6446e-07
-2.95582e-10
4.64645e-07
-1.85749e-10
4.64724e-07
-7.81224e-11
4.64693e-07
3.01079e-11
4.64566e-07
1.27863e-10
4.64358e-07
2.0792e-10
4.64085e-07
2.72755e-10
4.63759e-07
3.26141e-10
4.63388e-07
3.70618e-10
4.6298e-07
4.08052e-10
4.6254e-07
4.39884e-10
4.62073e-07
4.67175e-10
4.61582e-07
4.9067e-10
4.61071e-07
5.10969e-10
4.60543e-07
5.28497e-10
4.59999e-07
5.43655e-10
4.59443e-07
5.56733e-10
4.58875e-07
5.68017e-10
4.58297e-07
5.7773e-10
4.57711e-07
5.86097e-10
4.57117e-07
5.93294e-10
4.56518e-07
5.99483e-10
4.55913e-07
6.04835e-10
4.55304e-07
6.09461e-10
4.5469e-07
6.1349e-10
4.54073e-07
6.17029e-10
4.53453e-07
6.20158e-10
4.5283e-07
6.22973e-10
4.52204e-07
6.25529e-10
4.51577e-07
6.27903e-10
4.50946e-07
6.30145e-10
4.50314e-07
6.32308e-10
4.4968e-07
6.34422e-10
4.49043e-07
6.36547e-10
4.48404e-07
6.38695e-10
4.47764e-07
6.409e-10
4.4712e-07
6.43189e-10
4.46475e-07
6.45578e-10
4.45827e-07
6.48094e-10
4.45176e-07
6.50745e-10
4.44522e-07
6.53552e-10
4.43866e-07
6.56532e-10
4.43206e-07
6.59711e-10
4.42543e-07
6.63114e-10
4.41876e-07
6.66773e-10
4.41206e-07
6.70711e-10
4.40531e-07
6.74957e-10
4.39851e-07
6.79559e-10
4.39166e-07
6.84563e-10
4.38476e-07
6.90015e-10
4.3778e-07
6.95994e-10
4.37078e-07
7.02582e-10
4.36368e-07
7.09901e-10
4.3565e-07
7.18085e-10
4.34923e-07
7.27325e-10
4.34185e-07
7.37863e-10
4.33435e-07
7.50031e-10
4.3267e-07
7.64245e-10
4.31889e-07
7.81081e-10
4.31088e-07
8.01284e-10
4.30262e-07
8.25885e-10
4.29406e-07
8.56265e-10
4.28512e-07
8.94318e-10
4.27569e-07
9.42707e-10
4.26564e-07
1.0052e-09
4.25476e-07
1.08727e-09
4.24279e-07
1.19712e-09
4.22932e-07
1.34749e-09
4.21373e-07
1.55919e-09
4.19505e-07
1.86786e-09
4.17163e-07
2.34176e-09
4.14052e-07
3.11078e-09
4.09546e-07
4.50611e-09
4.02446e-07
7.10003e-09
3.89096e-07
1.33499e-08
2.37786e-08
3.65318e-07
-9.66922e-09
-3.92089e-09
-2.29671e-08
1.2152e-08
-3.75879e-08
2.29321e-08
-5.42534e-08
3.07576e-08
-7.30843e-08
3.61694e-08
-9.35949e-08
3.97855e-08
-1.15194e-07
4.21279e-08
-1.37349e-07
4.35543e-08
-1.59618e-07
4.4289e-08
-1.81648e-07
4.44666e-08
-2.03156e-07
4.41689e-08
-2.23919e-07
4.34507e-08
-2.43758e-07
4.23557e-08
-2.62535e-07
4.09241e-08
-2.80148e-07
3.91959e-08
-2.96522e-07
3.7211e-08
-3.11607e-07
3.50086e-08
-3.25376e-07
3.26262e-08
-3.37814e-07
3.00982e-08
-3.48923e-07
2.74552e-08
-3.58712e-07
2.47239e-08
-3.67197e-07
2.19269e-08
-3.74402e-07
1.90831e-08
-3.80353e-07
1.62085e-08
-3.85081e-07
1.33164e-08
-3.88619e-07
1.04193e-08
-3.91008e-07
7.52966e-09
-3.92293e-07
4.66239e-09
-3.92505e-07
1.83213e-09
-3.91624e-07
-9.58268e-10
-3.89565e-07
-3.7215e-09
-3.86254e-07
-6.46329e-09
-3.81657e-07
-9.17814e-09
-3.75767e-07
-1.18597e-08
-3.68593e-07
-1.45001e-08
-3.60153e-07
-1.70902e-08
-3.50474e-07
-1.96191e-08
-3.39588e-07
-2.20754e-08
-3.27538e-07
-2.44467e-08
-3.1437e-07
-2.67209e-08
-3.00137e-07
-2.8886e-08
-2.84899e-07
-3.09306e-08
-2.6872e-07
-3.28442e-08
-2.51669e-07
-3.46175e-08
-2.33819e-07
-3.62424e-08
-2.15244e-07
-3.77124e-08
-1.96024e-07
-3.90227e-08
-1.76237e-07
-4.01698e-08
-1.55963e-07
-4.1152e-08
-1.35281e-07
-4.19688e-08
-1.14268e-07
-4.26211e-08
-9.30001e-08
-4.31108e-08
-7.15471e-08
-4.34405e-08
-4.99735e-08
-4.36142e-08
-2.83378e-08
-4.3639e-08
-6.70299e-09
-4.35308e-08
1.48247e-08
-4.33088e-08
3.61613e-08
-4.2975e-08
5.72739e-08
-4.25268e-08
7.81219e-08
-4.19717e-08
9.86624e-08
-4.13187e-08
1.18854e-07
-4.05764e-08
1.38656e-07
-3.97523e-08
1.58033e-07
-3.88536e-08
1.76952e-07
-3.78872e-08
1.95383e-07
-3.68596e-08
2.13297e-07
-3.57771e-08
2.30672e-07
-3.46459e-08
2.47485e-07
-3.3472e-08
2.63719e-07
-3.22612e-08
2.79356e-07
-3.10193e-08
2.94385e-07
-2.97519e-08
3.08793e-07
-2.84647e-08
3.22574e-07
-2.71633e-08
3.35722e-07
-2.58534e-08
3.48233e-07
-2.45404e-08
3.60107e-07
-2.32299e-08
3.71347e-07
-2.19272e-08
3.81957e-07
-2.06377e-08
3.91944e-07
-1.93664e-08
4.01317e-07
-1.81183e-08
4.10088e-07
-1.68979e-08
4.1827e-07
-1.57096e-08
4.2588e-07
-1.45573e-08
4.32934e-07
-1.34446e-08
4.39451e-07
-1.23743e-08
4.45453e-07
-1.13492e-08
4.5096e-07
-1.03712e-08
4.55996e-07
-9.44188e-09
4.60582e-07
-8.5623e-09
4.64744e-07
-7.73298e-09
4.68505e-07
-6.95399e-09
4.7189e-07
-6.22495e-09
4.74921e-07
-5.54509e-09
4.77623e-07
-4.91324e-09
4.80018e-07
-4.32793e-09
4.82128e-07
-3.78744e-09
4.83976e-07
-3.28984e-09
4.85581e-07
-2.83299e-09
4.86964e-07
-2.41472e-09
4.88142e-07
-2.03272e-09
4.89133e-07
-1.68468e-09
4.89954e-07
-1.36822e-09
4.90619e-07
-1.08093e-09
4.91144e-07
-8.20383e-10
4.91542e-07
-5.84141e-10
4.91833e-07
-3.69343e-10
4.92036e-07
-1.72383e-10
4.92155e-07
8.30059e-12
4.92192e-07
1.7104e-10
4.9215e-07
3.14916e-10
4.92035e-07
4.41222e-10
4.91854e-07
5.51803e-10
4.91613e-07
6.4851e-10
4.9132e-07
7.33065e-10
4.9098e-07
8.07057e-10
4.90599e-07
8.71826e-10
4.90182e-07
9.28521e-10
4.89732e-07
9.78148e-10
4.89254e-07
1.02157e-09
4.88751e-07
1.05954e-09
4.88227e-07
1.09271e-09
4.87683e-07
1.12168e-09
4.87122e-07
1.14696e-09
4.86546e-07
1.16903e-09
4.85957e-07
1.18831e-09
4.85357e-07
1.20515e-09
4.84747e-07
1.2199e-09
4.84127e-07
1.23286e-09
4.835e-07
1.24428e-09
4.82866e-07
1.25442e-09
4.82225e-07
1.26347e-09
4.81579e-07
1.27163e-09
4.80928e-07
1.27907e-09
4.80272e-07
1.28593e-09
4.79612e-07
1.29234e-09
4.78948e-07
1.29842e-09
4.7828e-07
1.30428e-09
4.77609e-07
1.30999e-09
4.76934e-07
1.31564e-09
4.76256e-07
1.3213e-09
4.75575e-07
1.32702e-09
4.7489e-07
1.33286e-09
4.74202e-07
1.33886e-09
4.7351e-07
1.34509e-09
4.72815e-07
1.35158e-09
4.72117e-07
1.35839e-09
4.71414e-07
1.36556e-09
4.70708e-07
1.37316e-09
4.69997e-07
1.38125e-09
4.69282e-07
1.38988e-09
4.68563e-07
1.39914e-09
4.67838e-07
1.4091e-09
4.67108e-07
1.41989e-09
4.66373e-07
1.43162e-09
4.65631e-07
1.44446e-09
4.64882e-07
1.45859e-09
4.64126e-07
1.4743e-09
4.63361e-07
1.49188e-09
4.62587e-07
1.5118e-09
4.61803e-07
1.5346e-09
4.61006e-07
1.56102e-09
4.60195e-07
1.59204e-09
4.59367e-07
1.62899e-09
4.5852e-07
1.67359e-09
4.57648e-07
1.72823e-09
4.56746e-07
1.79614e-09
4.55807e-07
1.88182e-09
4.5482e-07
1.99157e-09
4.53773e-07
2.13446e-09
4.52647e-07
2.32385e-09
4.51414e-07
2.58002e-09
4.50038e-07
2.93524e-09
4.48463e-07
3.44267e-09
4.46606e-07
4.19911e-09
4.44339e-07
5.37762e-09
4.41457e-07
7.38781e-09
4.37655e-07
1.09027e-08
4.32443e-07
1.85614e-08
3.28673e-08
4.23354e-07
-2.06562e-08
1.67353e-08
-3.9617e-08
3.11128e-08
-5.75369e-08
4.08519e-08
-7.51268e-08
4.83475e-08
-9.29421e-08
5.39847e-08
-1.11161e-07
5.80042e-08
-1.29695e-07
6.0662e-08
-1.48336e-07
6.21952e-08
-1.66849e-07
6.28022e-08
-1.85021e-07
6.26391e-08
-2.02679e-07
6.18268e-08
-2.1969e-07
6.04613e-08
-2.35956e-07
5.8622e-08
-2.5141e-07
5.63777e-08
-2.66004e-07
5.37896e-08
-2.79705e-07
5.09126e-08
-2.92492e-07
4.77956e-08
-3.04348e-07
4.44817e-08
-3.15257e-07
4.10079e-08
-3.25208e-07
3.74057e-08
-3.34185e-07
3.37013e-08
-3.42175e-07
2.99163e-08
-3.4916e-07
2.60681e-08
-3.55122e-07
2.21712e-08
-3.60043e-07
1.82375e-08
-3.63902e-07
1.42776e-08
-3.66673e-07
1.03006e-08
-3.68325e-07
6.31499e-09
-3.6882e-07
2.32666e-09
-3.68115e-07
-1.66301e-09
-3.66184e-07
-5.65289e-09
-3.63011e-07
-9.63586e-09
-3.58589e-07
-1.36002e-08
-3.52918e-07
-1.75313e-08
-3.46005e-07
-2.14131e-08
-3.37866e-07
-2.52283e-08
-3.28527e-07
-2.89585e-08
-3.18018e-07
-3.25847e-08
-3.06377e-07
-3.60876e-08
-2.9365e-07
-3.94481e-08
-2.79888e-07
-4.26479e-08
-2.65149e-07
-4.56696e-08
-2.49496e-07
-4.84976e-08
-2.32995e-07
-5.11178e-08
-2.15719e-07
-5.35187e-08
-1.97741e-07
-5.56907e-08
-1.79136e-07
-5.7627e-08
-1.59983e-07
-5.93233e-08
-1.40357e-07
-6.07774e-08
-1.20336e-07
-6.19899e-08
-9.99941e-08
-6.29633e-08
-7.94028e-08
-6.3702e-08
-5.86309e-08
-6.42125e-08
-3.77422e-08
-6.45029e-08
-1.67973e-08
-6.45839e-08
4.13823e-09
-6.44663e-08
2.49918e-08
-6.41624e-08
4.57016e-08
-6.36848e-08
6.62187e-08
-6.30439e-08
8.64976e-08
-6.22505e-08
1.06495e-07
-6.13161e-08
1.2617e-07
-6.02517e-08
1.45486e-07
-5.90681e-08
1.64408e-07
-5.77754e-08
1.82904e-07
-5.63837e-08
2.00947e-07
-5.49022e-08
2.1851e-07
-5.33403e-08
2.35571e-07
-5.17066e-08
2.52108e-07
-5.00097e-08
2.68105e-07
-4.82579e-08
2.83545e-07
-4.64594e-08
2.98416e-07
-4.46223e-08
3.12705e-07
-4.27544e-08
3.26406e-07
-4.08636e-08
3.3951e-07
-3.89579e-08
3.52015e-07
-3.70449e-08
3.63917e-07
-3.51324e-08
3.75218e-07
-3.32281e-08
3.8592e-07
-3.13393e-08
3.96027e-07
-2.94734e-08
4.05546e-07
-2.76373e-08
4.14485e-07
-2.58379e-08
4.22857e-07
-2.40813e-08
4.30673e-07
-2.23734e-08
4.37948e-07
-2.07195e-08
4.44698e-07
-1.91242e-08
4.5094e-07
-1.75915e-08
4.56694e-07
-1.61248e-08
4.61979e-07
-1.47268e-08
4.66816e-07
-1.33993e-08
4.71227e-07
-1.21436e-08
4.75233e-07
-1.09603e-08
4.78857e-07
-9.84914e-09
4.82121e-07
-8.80949e-09
4.85048e-07
-7.84005e-09
4.87659e-07
-6.93907e-09
4.89976e-07
-6.10434e-09
4.9202e-07
-5.33334e-09
4.9381e-07
-4.62328e-09
4.95366e-07
-3.97114e-09
4.96708e-07
-3.37376e-09
4.97851e-07
-2.82789e-09
4.98813e-07
-2.33022e-09
4.99609e-07
-1.87742e-09
5.00255e-07
-1.46622e-09
5.00764e-07
-1.09343e-09
5.01151e-07
-7.55997e-10
5.01429e-07
-4.50318e-10
5.0161e-07
-1.72914e-10
5.01703e-07
7.79816e-11
5.01715e-07
3.03353e-10
5.01651e-07
5.04641e-10
5.01519e-07
6.83705e-10
5.01325e-07
8.42544e-10
5.01075e-07
9.83148e-10
5.00775e-07
1.10744e-09
5.0043e-07
1.21718e-09
5.00044e-07
1.314e-09
4.99623e-07
1.39933e-09
4.9917e-07
1.47449e-09
4.98689e-07
1.54062e-09
4.98183e-07
1.59878e-09
4.97655e-07
1.64989e-09
4.97107e-07
1.6948e-09
4.96542e-07
1.73424e-09
4.95961e-07
1.76891e-09
4.95367e-07
1.7994e-09
4.9476e-07
1.82625e-09
4.94143e-07
1.84997e-09
4.93517e-07
1.87098e-09
4.92881e-07
1.88966e-09
4.92238e-07
1.90639e-09
4.91589e-07
1.92146e-09
4.90933e-07
1.93516e-09
4.90271e-07
1.94774e-09
4.89604e-07
1.95941e-09
4.88932e-07
1.97037e-09
4.88255e-07
1.98081e-09
4.87574e-07
1.99086e-09
4.86889e-07
2.00065e-09
4.862e-07
2.01032e-09
4.85507e-07
2.01996e-09
4.8481e-07
2.02967e-09
4.8411e-07
2.03954e-09
4.83405e-07
2.04964e-09
4.82697e-07
2.06007e-09
4.81984e-07
2.07089e-09
4.81268e-07
2.0822e-09
4.80547e-07
2.09407e-09
4.79821e-07
2.10662e-09
4.79091e-07
2.11992e-09
4.78356e-07
2.13409e-09
4.77616e-07
2.14927e-09
4.76871e-07
2.1656e-09
4.76119e-07
2.18329e-09
4.75361e-07
2.20256e-09
4.74596e-07
2.2237e-09
4.73823e-07
2.24708e-09
4.73042e-07
2.27319e-09
4.72251e-07
2.30264e-09
4.71449e-07
2.33623e-09
4.70635e-07
2.37503e-09
4.69807e-07
2.42044e-09
4.68961e-07
2.47433e-09
4.68096e-07
2.53918e-09
4.67206e-07
2.61835e-09
4.66285e-07
2.71644e-09
4.65327e-07
2.83977e-09
4.64322e-07
2.99718e-09
4.63255e-07
3.20128e-09
4.62108e-07
3.47049e-09
4.60856e-07
3.83242e-09
4.59461e-07
4.33009e-09
4.57871e-07
5.03288e-09
4.56009e-07
6.06126e-09
4.53762e-07
7.62431e-09
4.50988e-07
1.01621e-08
4.47487e-07
1.44029e-08
4.4354e-07
2.25092e-08
3.6772e-08
4.39635e-07
-2.29994e-08
3.97347e-08
-4.37204e-08
5.18339e-08
-6.27293e-08
5.98608e-08
-8.05498e-08
6.61681e-08
-9.76445e-08
7.10794e-08
-1.14319e-07
7.46783e-08
-1.30717e-07
7.706e-08
-1.46867e-07
7.83456e-08
-1.62732e-07
7.86675e-08
-1.78248e-07
7.81547e-08
-1.93346e-07
7.69243e-08
-2.07963e-07
7.50793e-08
-2.2205e-07
7.27088e-08
-2.35563e-07
6.98906e-08
-2.48465e-07
6.66919e-08
-2.60724e-07
6.31709e-08
-2.72306e-07
5.93778e-08
-2.8318e-07
5.53552e-08
-2.93311e-07
5.11388e-08
-3.02663e-07
4.67583e-08
-3.112e-07
4.22381e-08
-3.18882e-07
3.75981e-08
-3.25668e-07
3.28545e-08
-3.31518e-07
2.80208e-08
-3.36389e-07
2.31084e-08
-3.40239e-07
1.81275e-08
-3.43026e-07
1.30875e-08
-3.44708e-07
7.99745e-09
-3.45247e-07
2.86609e-09
-3.44613e-07
-2.29773e-09
-3.42782e-07
-7.4833e-09
-3.39742e-07
-1.26761e-08
-3.35484e-07
-1.78579e-08
-3.30008e-07
-2.30073e-08
-3.2332e-07
-2.81012e-08
-3.15434e-07
-3.31143e-08
-3.06372e-07
-3.80205e-08
-2.96164e-07
-4.27929e-08
-2.84847e-07
-4.74046e-08
-2.72466e-07
-5.18292e-08
-2.59072e-07
-5.60414e-08
-2.44724e-07
-6.00179e-08
-2.29484e-07
-6.37372e-08
-2.13421e-07
-6.71811e-08
-1.96606e-07
-7.03341e-08
-1.79112e-07
-7.31843e-08
-1.61016e-07
-7.5723e-08
-1.42394e-07
-7.79452e-08
-1.23322e-07
-7.98492e-08
-1.03876e-07
-8.14366e-08
-8.41275e-08
-8.27117e-08
-6.41478e-08
-8.36817e-08
-4.40043e-08
-8.4356e-08
-2.37608e-08
-8.47464e-08
-3.47906e-09
-8.48656e-08
1.67811e-08
-8.47265e-08
3.69628e-08
-8.43441e-08
5.70125e-08
-8.37345e-08
7.68813e-08
-8.29127e-08
9.65244e-08
-8.18936e-08
1.15901e-07
-8.06922e-08
1.34972e-07
-7.93229e-08
1.53703e-07
-7.77995e-08
1.72063e-07
-7.61354e-08
1.90023e-07
-7.43432e-08
2.07556e-07
-7.24352e-08
2.24638e-07
-7.04229e-08
2.41249e-07
-6.83176e-08
2.5737e-07
-6.613e-08
2.72982e-07
-6.38708e-08
2.88073e-07
-6.15501e-08
3.02629e-07
-5.91779e-08
3.16639e-07
-5.67644e-08
3.30094e-07
-5.43192e-08
3.42989e-07
-5.18523e-08
3.55317e-07
-4.93733e-08
3.67077e-07
-4.68919e-08
3.78266e-07
-4.44176e-08
3.88887e-07
-4.196e-08
3.98942e-07
-3.95282e-08
4.08436e-07
-3.71312e-08
4.17375e-07
-3.47776e-08
4.25769e-07
-3.24755e-08
4.33629e-07
-3.02326e-08
4.40965e-07
-2.80557e-08
4.47792e-07
-2.59513e-08
4.54125e-07
-2.39247e-08
4.59981e-07
-2.19808e-08
4.65378e-07
-2.01232e-08
4.70333e-07
-1.83549e-08
4.74868e-07
-1.6678e-08
4.79001e-07
-1.50935e-08
4.82754e-07
-1.36019e-08
4.86147e-07
-1.22027e-08
4.89201e-07
-1.08945e-08
4.91938e-07
-9.67555e-09
4.94377e-07
-8.54336e-09
4.96538e-07
-7.49499e-09
4.98442e-07
-6.52709e-09
5.00107e-07
-5.63598e-09
5.01551e-07
-4.81778e-09
5.02792e-07
-4.06843e-09
5.03845e-07
-3.38378e-09
5.04727e-07
-2.75966e-09
5.05453e-07
-2.19191e-09
5.06036e-07
-1.67653e-09
5.0649e-07
-1.20962e-09
5.06827e-07
-7.87098e-10
5.07058e-07
-4.04786e-10
5.07196e-07
-5.92949e-11
5.07247e-07
2.51995e-10
5.0722e-07
5.31527e-10
5.07122e-07
7.81764e-10
5.06959e-07
1.00517e-09
5.06738e-07
1.20419e-09
5.06465e-07
1.38116e-09
5.06144e-07
1.53825e-09
5.0578e-07
1.67753e-09
5.05379e-07
1.80088e-09
5.04943e-07
1.90999e-09
5.04477e-07
2.00642e-09
5.03984e-07
2.09159e-09
5.03468e-07
2.16676e-09
5.02929e-07
2.23307e-09