/*--------------------------------*- C++ -*----------------------------------*\
  =========                 |
  \\      /  F ield         | OpenFOAM: The Open Source CFD Toolbox
   \\    /   O peration     | Website:  https://openfoam.org
    \\  /    A nd           | Version:  6
     \\/     M anipulation  |
\*---------------------------------------------------------------------------*/
FoamFile
{
    version     2.0;
    format      ascii;
    class       volVectorField;
    location    "0.08";
    object      U;
}
// * * * * * * * * * * * * * * * * * * * * * * * * * * * * * * * * * * * * * //

dimensions      [0 1 -1 0 0 0 0];

internalField   nonuniform List<vector> 
12225
(
(0.948756 -0.405568 0)
(1.01275 -0.190681 0)
(1.01493 -0.051424 0)
(0.983802 -0.00519151 0)
(0.956087 0.00445563 0)
(0.938098 0.00414705 0)
(0.926402 0.00248146 0)
(0.91837 0.0013548 0)
(0.912656 0.000777446 0)
(0.908422 0.000484548 0)
(0.905173 0.00031059 0)
(0.902676 0.000183371 0)
(0.900826 6.92668e-05 0)
(0.899609 -5.11475e-05 0)
(0.899005 -0.000204914 0)
(0.899423 -0.00033388 0)
(0.899721 -0.0009182 0)
(0.908454 -0.00185081 0)
(1.03698 0.0761156 0)
(1.02004 0.0532916 0)
(1.01148 0.0193405 0)
(1.00463 0.00892107 0)
(0.998531 0.00658769 0)
(0.992125 0.00510595 0)
(0.985396 0.00380264 0)
(0.979381 0.0028887 0)
(0.974588 0.00228188 0)
(0.970873 0.00183809 0)
(0.967979 0.00148304 0)
(0.965742 0.00118024 0)
(0.96406 0.000897123 0)
(0.962896 0.00060318 0)
(0.962197 0.00024328 0)
(0.962327 -0.000188116 0)
(0.963039 -0.00148701 0)
(0.965423 -0.00341385 0)
(0.998331 0.0132042 0)
(0.995403 0.0119083 0)
(1.00097 0.0063136 0)
(1.00226 0.0063737 0)
(1.00185 0.0068099 0)
(1.00028 0.00605188 0)
(0.9974 0.00491101 0)
(0.994088 0.0039388 0)
(0.991083 0.00318841 0)
(0.988579 0.00258804 0)
(0.98656 0.00208761 0)
(0.984995 0.0016498 0)
(0.983854 0.00123444 0)
(0.983131 0.000800178 0)
(0.982804 0.000266348 0)
(0.983015 -0.000454209 0)
(0.983552 -0.0019075 0)
(0.984419 -0.00425128 0)
(0.995105 -0.00696344 0)
(0.992536 0.00118928 0)
(0.998771 0.00380819 0)
(1.00119 0.00574588 0)
(1.00226 0.0067533 0)
(1.00259 0.00641225 0)
(1.00171 0.00552112 0)
(1.00013 0.00463081 0)
(0.998447 0.00385565 0)
(0.996921 0.00317984 0)
(0.995638 0.00258159 0)
(0.994639 0.00203371 0)
(0.993943 0.00149811 0)
(0.993564 0.000929366 0)
(0.993493 0.00024367 0)
(0.993771 -0.000659171 0)
(0.9942 -0.00214329 0)
(0.994543 -0.0042355 0)
(0.996672 -0.0069588 0)
(0.993877 0.000741117 0)
(0.998238 0.00358053 0)
(1.00045 0.00528013 0)
(1.00201 0.00638348 0)
(1.00321 0.00635345 0)
(1.00345 0.00573123 0)
(1.003 0.00498719 0)
(1.00229 0.00425717 0)
(1.00154 0.00356378 0)
(1.00088 0.00291004 0)
(1.00037 0.00228205 0)
(1.00007 0.00164879 0)
(0.999985 0.00096735 0)
(1.00012 0.000162891 0)
(1.00048 -0.000851329 0)
(1.00088 -0.00229156 0)
(1.00105 -0.00411688 0)
(0.997831 -0.00417498 0)
(0.995217 0.00116607 0)
(0.998064 0.00326423 0)
(0.999969 0.00471431 0)
(1.00167 0.00583679 0)
(1.00323 0.00602568 0)
(1.00411 0.0056366 0)
(1.00439 0.00504936 0)
(1.00438 0.0043976 0)
(1.00424 0.00372453 0)
(1.00409 0.00304973 0)
(1.004 0.00237078 0)
(1.00403 0.00166548 0)
(1.00421 0.000898006 0)
(1.00453 9.06168e-06 0)
(1.00497 -0.00106508 0)
(1.0054 -0.00243733 0)
(1.00558 -0.0040421 0)
(0.998455 -0.00260585 0)
(0.996276 0.00103904 0)
(0.998149 0.00278279 0)
(0.999756 0.0041251 0)
(1.0014 0.0052193 0)
(1.00307 0.00554354 0)
(1.00428 0.00533376 0)
(1.00502 0.00488538 0)
(1.00549 0.00431855 0)
(1.0058 0.00368423 0)
(1.00606 0.00301047 0)
(1.00632 0.00230303 0)
(1.00663 0.0015482 0)
(1.00703 0.000719314 0)
(1.00752 -0.000225676 0)
(1.00805 -0.00132684 0)
(1.00855 -0.00263105 0)
(1.00884 -0.00406834 0)
(0.998889 -0.00177448 0)
(0.997187 0.000819548 0)
(0.998424 0.00235335 0)
(0.999749 0.00357702 0)
(1.00125 0.00458751 0)
(1.00288 0.00497675 0)
(1.00422 0.00489161 0)
(1.00524 0.00455296 0)
(1.00603 0.00406275 0)
(1.00667 0.00347164 0)
(1.00723 0.00281032 0)
(1.00776 0.00208948 0)
(1.00831 0.00130267 0)
(1.0089 0.000432501 0)
(1.00952 -0.00054721 0)
(1.01016 -0.00165667 0)
(1.01074 -0.00290451 0)
(1.01117 -0.00422842 0)
(0.999239 -0.00117123 0)
(0.997973 0.000704656 0)
(0.99879 0.00201655 0)
(0.999873 0.00308162 0)
(1.0012 0.00396948 0)
(1.00272 0.00436841 0)
(1.00409 0.00435801 0)
(1.00525 0.00409669 0)
(1.00623 0.00366694 0)
(1.0071 0.00311452 0)
(1.00787 0.00246902 0)
(1.00861 0.00174348 0)
(1.00934 0.000937058 0)
(1.01007 4.05216e-05 0)
(1.01081 -0.00095951 0)
(1.01154 -0.00206889 0)
(1.01222 -0.00327736 0)
(1.0128 -0.00453624 0)
(0.999507 -0.000696352 0)
(0.998619 0.000660568 0)
(0.999174 0.00174243 0)
(1.00007 0.00263332 0)
(1.00123 0.00337914 0)
(1.00261 0.00374633 0)
(1.00394 0.00376781 0)
(1.00515 0.00355219 0)
(1.00624 0.00316335 0)
(1.00724 0.00263985 0)
(1.00816 0.00200799 0)
(1.00904 0.00128135 0)
(1.0099 0.000462914 0)
(1.01074 -0.000450209 0)
(1.01157 -0.00146225 0)
(1.01238 -0.00257023 0)
(1.01314 -0.00375725 0)
(1.01385 -0.0049895 0)
(0.999698 -0.000355368 0)
(0.999125 0.00063235 0)
(0.999532 0.00150154 0)
(1.00029 0.00222193 0)
(1.00131 0.00281992 0)
(1.00254 0.00312607 0)
(1.0038 0.00314458 0)
(1.005 0.00294622 0)
(1.00613 0.00257822 0)
(1.0072 0.00207126 0)
(1.00821 0.00144734 0)
(1.00917 0.000719279 0)
(1.01011 -0.000107677 0)
(1.01102 -0.00103215 0)
(1.01192 -0.00205267 0)
(1.01278 -0.00316203 0)
(1.01362 -0.00434347 0)
(1.01442 -0.00557642 0)
(0.999815 -0.000149482 0)
(0.99947 0.00059796 0)
(0.999813 0.00129397 0)
(1.00048 0.00186846 0)
(1.00139 0.00233406 0)
(1.00251 0.00256758 0)
(1.00368 0.00255969 0)
(1.00484 0.00235586 0)
(1.00597 0.00199036 0)
(1.00705 0.00148697 0)
(1.00809 0.000863569 0)
(1.0091 0.000131577 0)
(1.01007 -0.000702924 0)
(1.01102 -0.00163635 0)
(1.01195 -0.00266458 0)
(1.01285 -0.00377945 0)
(1.01372 -0.004967 0)
(1.01457 -0.00621606 0)
(0.999895 -2.20297e-05 0)
(0.999726 0.000548605 0)
(1.00004 0.00109046 0)
(1.00065 0.00153034 0)
(1.00147 0.00187063 0)
(1.00248 0.00202398 0)
(1.00357 0.00197527 0)
(1.00468 0.00175166 0)
(1.00577 0.00137667 0)
(1.00684 0.000867925 0)
(1.00789 0.000239373 0)
(1.0089 -0.000499329 0)
(1.00988 -0.00134207 0)
(1.01084 -0.00228428 0)
(1.01178 -0.00332083 0)
(1.01269 -0.00444404 0)
(1.01357 -0.00564369 0)
(1.01445 -0.0069167 0)
(0.999953 5.14328e-05 0)
(0.999924 0.000466488 0)
(1.00023 0.000856392 0)
(1.00079 0.00115682 0)
(1.00154 0.00136392 0)
(1.00245 0.00142153 0)
(1.00345 0.00131318 0)
(1.00448 0.00105234 0)
(1.00552 0.000653497 0)
(1.00655 0.000128389 0)
(1.00756 -0.000513135 0)
(1.00855 -0.00126366 0)
(1.00952 -0.00211784 0)
(1.01046 -0.00307118 0)
(1.01137 -0.00411886 0)
(1.01227 -0.0052548 0)
(1.01314 -0.00647285 0)
(1.014 -0.00777621 0)
(0.999988 7.08303e-05 0)
(1.00006 0.000339339 0)
(1.00037 0.000578155 0)
(1.0009 0.000737008 0)
(1.00158 0.000807798 0)
(1.00239 0.000758231 0)
(1.00329 0.000573928 0)
(1.00423 0.000259386 0)
(1.00519 -0.000177813 0)
(1.00615 -0.000730925 0)
(1.00711 -0.00139396 0)
(1.00804 -0.002162 0)
(1.00895 -0.00303111 0)
(1.00984 -0.00399781 0)
(1.0107 -0.00505846 0)
(1.01154 -0.00620908 0)
(1.01236 -0.00744698 0)
(1.01316 -0.00877924 0)
(1.00001 4.35264e-05 0)
(1.00013 0.000163169 0)
(1.00045 0.000247437 0)
(1.00093 0.000262159 0)
(1.00156 0.000196885 0)
(1.00228 3.3941e-05 0)
(1.00308 -0.000237431 0)
(1.00393 -0.000617728 0)
(1.00479 -0.00110425 0)
(1.00566 -0.00169417 0)
(1.00651 -0.00238475 0)
(1.00736 -0.00317354 0)
(1.00818 -0.0040584 0)
(1.00898 -0.00503729 0)
(1.00974 -0.00610814 0)
(1.01048 -0.00726888 0)
(1.0112 -0.00851905 0)
(1.01188 -0.00986727 0)
(1.00001 -1.81185e-05 0)
(1.00015 -5.86647e-05 0)
(1.00046 -0.000135989 0)
(1.0009 -0.000270231 0)
(1.00146 -0.000471208 0)
(1.0021 -0.000749325 0)
(1.00281 -0.00111237 0)
(1.00354 -0.00156331 0)
(1.00429 -0.00210288 0)
(1.00504 -0.00273125 0)
(1.00578 -0.00344836 0)
(1.0065 -0.00425398 0)
(1.00719 -0.00514771 0)
(1.00785 -0.006129 0)
(1.00848 -0.0071971 0)
(1.00907 -0.00835114 0)
(1.00962 -0.00959157 0)
(1.01014 -0.0109266 0)
(1.00001 -9.98006e-05 0)
(1.00015 -0.000313753 0)
(1.00042 -0.000561151 0)
(1.00081 -0.000850641 0)
(1.0013 -0.00118807 0)
(1.00185 -0.00158006 0)
(1.00245 -0.00203264 0)
(1.00307 -0.00255016 0)
(1.00369 -0.00313593 0)
(1.00431 -0.00379278 0)
(1.0049 -0.00452299 0)
(1.00547 -0.00532831 0)
(1.006 -0.00620994 0)
(1.00649 -0.00716855 0)
(1.00694 -0.00820429 0)
(1.00733 -0.00931685 0)
(1.00769 -0.0105067 0)
(1.00799 -0.0117806 0)
(1.00001 -0.000186628 0)
(1.00011 -0.000580767 0)
(1.00033 -0.00100606 0)
(1.00066 -0.0014561 0)
(1.00106 -0.00192938 0)
(1.00153 -0.00242949 0)
(1.00202 -0.00296087 0)
(1.00253 -0.00352869 0)
(1.00303 -0.00413886 0)
(1.0035 -0.004797 0)
(1.00394 -0.00550788 0)
(1.00434 -0.00627529 0)
(1.00469 -0.00710203 0)
(1.00498 -0.00798996 0)
(1.00522 -0.00894 0)
(1.00539 -0.00995225 0)
(1.00551 -0.0110269 0)
(1.00556 -0.0121693 0)
(1 -0.000235191 0)
(1.00004 -0.000762857 0)
(1.00017 -0.00134007 0)
(1.00043 -0.00192798 0)
(1.00078 -0.00251581 0)
(1.00119 -0.0031029 0)
(1.00163 -0.00368873 0)
(1.00207 -0.00427804 0)
(1.0025 -0.00487975 0)
(1.00288 -0.00550299 0)
(1.00322 -0.0061555 0)
(1.00349 -0.00684363 0)
(1.0037 -0.00757233 0)
(1.00385 -0.0083451 0)
(1.00392 -0.0091641 0)
(1.00391 -0.0100303 0)
(1.00384 -0.0109442 0)
(1.00369 -0.0119101 0)
(0.999976 -0.000206144 0)
(0.999872 -0.000813772 0)
(0.999908 -0.00153118 0)
(1.00012 -0.00224451 0)
(1.00045 -0.00293869 0)
(1.00086 -0.00360567 0)
(1.00131 -0.00423384 0)
(1.00175 -0.00482833 0)
(1.00217 -0.00540395 0)
(1.00252 -0.00597493 0)
(1.0028 -0.00655306 0)
(1.003 -0.00714818 0)
(1.00312 -0.0077681 0)
(1.00315 -0.00841844 0)
(1.0031 -0.00910295 0)
(1.00296 -0.00982375 0)
(1.00274 -0.010582 0)
(1.00244 -0.0113814 0)
(0.999906 -4.85382e-05 0)
(0.999524 -0.000724959 0)
(0.999433 -0.00162602 0)
(0.999637 -0.00249237 0)
(1.00001 -0.00332194 0)
(1.00049 -0.00408528 0)
(1.00103 -0.00475157 0)
(1.00154 -0.00533407 0)
(1.00198 -0.00586096 0)
(1.00233 -0.00635519 0)
(1.00258 -0.00683489 0)
(1.00271 -0.00731514 0)
(1.00274 -0.00780761 0)
(1.00266 -0.00832055 0)
(1.00248 -0.00885942 0)
(1.0022 -0.0094275 0)
(1.00183 -0.0100265 0)
(1.00138 -0.0106598 0)
(0.999758 0.000292896 0)
(0.998883 -0.000522711 0)
(0.998685 -0.00168008 0)
(0.998982 -0.00273587 0)
(0.999497 -0.00374586 0)
(1.00016 -0.004621 0)
(1.00086 -0.00530573 0)
(1.00148 -0.00584189 0)
(1.00196 -0.00628337 0)
(1.00229 -0.00666619 0)
(1.00247 -0.00701729 0)
(1.00251 -0.00735852 0)
(1.0024 -0.0077058 0)
(1.00218 -0.00806968 0)
(1.00183 -0.00845678 0)
(1.00138 -0.0088709 0)
(1.00084 -0.00931383 0)
(1.00021 -0.00978817 0)
(0.999507 0.000936732 0)
(0.997846 -0.000298338 0)
(0.997676 -0.00181737 0)
(0.99824 -0.00307568 0)
(0.999031 -0.00429592 0)
(0.999984 -0.00526749 0)
(1.0009 -0.00591601 0)
(1.00161 -0.006345 0)
(1.00207 -0.00664748 0)
(1.00231 -0.00687527 0)
(1.00234 -0.00706515 0)
(1.00219 -0.00724561 0)
(1.00187 -0.00743557 0)
(1.00142 -0.00764617 0)
(1.00085 -0.0078836 0)
(1.00018 -0.00815088 0)
(0.999412 -0.00844877 0)
(0.998568 -0.00877846 0)
(0.998976 0.00252246 0)
(0.996196 0.000129692 0)
(0.996498 -0.00208574 0)
(0.997619 -0.00360592 0)
(0.998812 -0.00503731 0)
(1.00012 -0.00603184 0)
(1.00121 -0.00654401 0)
(1.0019 -0.00677957 0)
(1.00219 -0.0068788 0)
(1.00218 -0.00690788 0)
(1.00191 -0.00691113 0)
(1.00143 -0.00692037 0)
(1.00079 -0.00695378 0)
(1.00001 -0.00701981 0)
(0.999136 -0.00712166 0)
(0.998172 -0.00725982 0)
(0.997135 -0.00743279 0)
(0.996039 -0.00763963 0)
(0.997453 0.00613663 0)
(0.993406 0.0014789 0)
(0.995224 -0.00214852 0)
(0.997404 -0.00426021 0)
(0.999102 -0.00594209 0)
(1.00069 -0.00683448 0)
(1.00177 -0.00707431 0)
(1.00216 -0.0070195 0)
(1.002 -0.00685685 0)
(1.00147 -0.00665966 0)
(1.00067 -0.00647208 0)
(0.999691 -0.00632165 0)
(0.998581 -0.00621946 0)
(0.997381 -0.0061668 0)
(0.996116 -0.0061612 0)
(0.994801 -0.006199 0)
(0.993448 -0.0062757 0)
(0.992068 -0.00638778 0)
(0.994436 0.00858443 0)
(0.989419 0.00227905 0)
(0.994032 -0.00199676 0)
(0.997845 -0.0048867 0)
(1.00011 -0.00684891 0)
(1.00171 -0.0074741 0)
(1.00228 -0.0072973 0)
(1.00183 -0.0068764 0)
(1.00075 -0.00642925 0)
(0.999337 -0.0060183 0)
(0.997744 -0.00567287 0)
(0.996059 -0.0054051 0)
(0.994338 -0.00521192 0)
(0.992611 -0.00508373 0)
(0.990889 -0.00501082 0)
(0.989177 -0.00498517 0)
(0.987476 -0.00499969 0)
(0.985791 -0.0050478 0)
(0.994525 -0.00666176 0)
(0.989461 -0.0085596 0)
(0.995392 -0.00534721 0)
(0.999805 -0.00630452 0)
(1.00201 -0.00773041 0)
(1.00271 -0.00772494 0)
(1.00168 -0.00698141 0)
(0.999443 -0.00617611 0)
(0.996726 -0.00549426 0)
(0.993946 -0.004945 0)
(0.991241 -0.00451968 0)
(0.988653 -0.00420535 0)
(0.986196 -0.00398202 0)
(0.983862 -0.00382943 0)
(0.981634 -0.0037321 0)
(0.979494 -0.00367964 0)
(0.977427 -0.00366482 0)
(0.975425 -0.00367538 0)
(1.02649 -0.0702331 0)
(1.01708 -0.0624098 0)
(1.01178 -0.0292527 0)
(1.00831 -0.0149269 0)
(1.00535 -0.0104087 0)
(1.00128 -0.00794761 0)
(0.995778 -0.00610686 0)
(0.989868 -0.00486174 0)
(0.984428 -0.00406212 0)
(0.979685 -0.00352616 0)
(0.975539 -0.00315171 0)
(0.971862 -0.00288968 0)
(0.968556 -0.00270871 0)
(0.965543 -0.00258557 0)
(0.962757 -0.00250506 0)
(0.960148 -0.00245965 0)
(0.957687 -0.00244794 0)
(0.955359 -0.00249142 0)
(0.966188 0.350229 0)
(1.0269 0.194263 0)
(1.03263 0.067903 0)
(1.00439 0.0152381 0)
(0.975983 -0.00130757 0)
(0.955742 -0.00437256 0)
(0.94163 -0.00367161 0)
(0.93135 -0.00254031 0)
(0.923611 -0.00174286 0)
(0.917528 -0.00127374 0)
(0.912476 -0.00101071 0)
(0.908082 -0.000865415 0)
(0.904147 -0.000786826 0)
(0.900548 -0.000746456 0)
(0.897202 -0.000728987 0)
(0.894043 -0.000728735 0)
(0.891013 -0.000741659 0)
(0.888063 -0.000817604 0)
(0.00597052 -0.0239077 -2.38808e-21)
(0.0147972 -0.00997624 2.24546e-21)
(0.0111442 0.0065137 0)
(0.000375708 0.0156924 0)
(-0.0140243 0.0195947 0)
(-0.0304954 0.021346 -1.96664e-21)
(-0.0483015 0.0223201 0)
(-0.0670248 0.0230005 0)
(-0.0864112 0.0235322 0)
(-0.106271 0.023935 0)
(-0.126434 0.0241868 1.7043e-21)
(-0.146727 0.0242576 0)
(-0.166974 0.0241236 0)
(-0.186998 0.0237704 0)
(-0.206622 0.0231947 0)
(-0.225677 0.0224019 1.61844e-21)
(-0.244007 0.021405 0)
(-0.261466 0.0202216 0)
(-0.277928 0.0188721 0)
(-0.293281 0.0173779 0)
(-0.307429 0.0157598 0)
(-0.320289 0.0140374 0)
(-0.331792 0.0122289 0)
(-0.341879 0.0103514 1.49667e-21)
(-0.350501 0.0084224 -1.4667e-21)
(-0.357618 0.00646195 1.43179e-21)
(-0.363201 0.00449539 1.39162e-21)
(-0.367236 0.00256022 0)
(-0.369691 0.000714348 0)
(-0.370527 -0.000984826 -1.23495e-21)
(-0.369883 -0.00251986 -1.16769e-21)
(-0.367906 -0.00393152 0)
(-0.364619 -0.00527129 0)
(-0.360062 -0.00656229 -9.23266e-22)
(-0.354263 -0.00781409 0)
(-0.347251 -0.00902975 0)
(-0.339053 -0.0102089 6.12829e-22)
(-0.329699 -0.0113492 0)
(-0.319226 -0.0124475 3.69105e-22)
(-0.307673 -0.0135001 4.72876e-22)
(-0.295086 -0.0145033 0)
(-0.281517 -0.0154536 0)
(-0.267022 -0.0163475 0)
(-0.251661 -0.0171823 0)
(-0.235501 -0.0179553 0)
(-0.218609 -0.0186644 -1.39935e-21)
(-0.201057 -0.0193075 -1.75348e-21)
(-0.182919 -0.0198828 -2.11807e-21)
(-0.164271 -0.0203882 0)
(-0.145191 -0.0208206 2.87602e-21)
(-0.125755 -0.0211754 0)
(-0.106045 -0.0214451 -3.66796e-21)
(-0.0861394 -0.0216182 -4.07505e-21)
(-0.0661212 -0.0216769 0)
(-0.0460725 -0.0215948 0)
(-0.0260649 -0.0213442 0)
(-0.00613599 -0.0209148 -5.6116e-21)
(0.0137024 -0.0203574 0)
(0.0334087 -0.0197456 0)
(0.0529096 -0.0191072 0)
(0.0721468 -0.0184519 0)
(0.0910725 -0.0177855 0)
(0.109645 -0.0171118 0)
(0.127827 -0.0164335 0)
(0.145584 -0.0157529 0)
(0.162886 -0.0150722 5.67604e-21)
(0.179706 -0.0143933 0)
(0.196017 -0.013718 0)
(0.211798 -0.013048 -5.52996e-21)
(0.227031 -0.012385 -5.47354e-21)
(0.241698 -0.0117307 0)
(0.255786 -0.0110866 5.35365e-21)
(0.269284 -0.0104542 -5.29142e-21)
(0.282184 -0.00983503 0)
(0.294481 -0.00923053 5.16499e-21)
(0.306171 -0.00864208 0)
(0.317255 -0.00807098 0)
(0.327736 -0.00751847 -4.97632e-21)
(0.337619 -0.00698568 0)
(0.346912 -0.00647362 4.85461e-21)
(0.355626 -0.00598319 0)
(0.363772 -0.00551512 -4.73799e-21)
(0.371367 -0.00507 -4.6819e-21)
(0.378427 -0.00464824 -4.62739e-21)
(0.384971 -0.00425009 -9.14904e-21)
(0.391019 -0.0038756 9.04662e-21)
(0.396592 -0.00352467 0)
(0.401713 -0.00319701 0)
(0.406405 -0.00289218 0)
(0.410692 -0.00260961 8.67006e-21)
(0.414597 -0.00234858 8.58397e-21)
(0.418146 -0.00210829 -8.50094e-21)
(0.42136 -0.00188784 0)
(0.424265 -0.00168625 8.34366e-21)
(0.426881 -0.00150251 8.26919e-21)
(0.429233 -0.00133555 8.19735e-21)
(0.431339 -0.00118427 0)
(0.433222 -0.0010476 0)
(0.4349 -0.00092445 0)
(0.43639 -0.000813765 7.93395e-21)
(0.437711 -0.000714527 0)
(0.438877 -0.00062575 0)
(0.439903 -0.000546495 -7.75842e-21)
(0.440803 -0.000475757 0)
(0.441589 -0.000412552 0)
(0.442271 -0.000355935 -7.59875e-21)
(0.442862 -0.000300975 0)
(0.443348 -0.000242713 0)
(0.443735 -0.0001863 7.45256e-21)
(0.444045 -0.000139748 7.40636e-21)
(0.444292 -0.000104466 0)
(0.444486 -7.81426e-05 -7.31744e-21)
(0.444638 -5.83752e-05 0)
(0.444755 -4.33637e-05 7.23263e-21)
(0.444843 -3.17937e-05 0)
(0.444907 -2.27494e-05 7.15138e-21)
(0.44495 -1.56208e-05 7.11196e-21)
(0.444977 -1.00004e-05 0)
(0.44499 -5.60373e-06 0)
(0.444991 -2.22275e-06 0)
(0.444982 3.03272e-07 0)
(0.444966 2.10421e-06 0)
(0.444944 3.2895e-06 0)
(0.444917 3.95361e-06 0)
(0.444886 4.179e-06 6.81945e-21)
(0.444854 4.03859e-06 -6.7852e-21)
(0.44482 3.59662e-06 0)
(0.444785 2.90925e-06 0)
(0.44475 2.02537e-06 0)
(0.444716 9.87103e-07 0)
(0.444683 -1.69249e-07 -1.32393e-20)
(0.444652 -1.41265e-06 0)
(0.444622 -2.71645e-06 1.31115e-20)
(0.444595 -4.05773e-06 -1.30484e-20)
(0.444569 -5.41672e-06 0)
(0.444546 -6.77701e-06 0)
(0.444526 -8.12445e-06 0)
(0.444508 -9.44715e-06 1.28009e-20)
(0.444493 -1.07355e-05 1.27401e-20)
(0.44448 -1.19818e-05 0)
(0.44447 -1.31797e-05 1.26198e-20)
(0.444463 -1.4324e-05 1.25602e-20)
(0.444457 -1.54103e-05 -1.2501e-20)
(0.444455 -1.64345e-05 0)
(0.444454 -1.73921e-05 0)
(0.444456 -1.82777e-05 -1.23252e-20)
(0.44446 -1.90845e-05 0)
(0.444466 -1.98045e-05 0)
(0.444473 -2.04288e-05 0)
(0.444482 -2.09479e-05 0)
(0.444492 -2.1351e-05 1.20381e-20)
(0.444503 -2.16252e-05 1.19815e-20)
(0.444515 -2.17554e-05 0)
(0.444527 -2.17232e-05 1.18692e-20)
(0.444538 -2.15056e-05 0)
(0.444549 -2.10729e-05 0)
(0.444559 -2.03874e-05 1.17029e-20)
(0.444566 -1.93999e-05 0)
(0.44457 -1.80467e-05 1.15936e-20)
(0.44457 -1.62439e-05 0)
(0.444564 -1.38812e-05 0)
(0.444551 -1.08133e-05 1.14326e-20)
(0.444527 -6.84783e-06 0)
(0.444491 -1.72891e-06 1.13279e-20)
(0.444438 4.88654e-06 0)
(0.444362 1.3462e-05 0)
(0.444258 2.46306e-05 0)
(0.444115 3.92708e-05 -1.11289e-20)
(0.443921 5.8622e-05 0)
(0.443659 8.44737e-05 1.10387e-20)
(0.443304 0.000119488 0)
(0.442821 0.000167757 0)
(0.442159 0.000235943 0)
(0.441234 0.000335207 0)
(0.439921 0.000487157 0)
(0.437963 0.000730078 0)
(0.435025 0.00117172 0)
(0.429748 0.00195447 -2.19995e-20)
(0.422195 0.0039702 0)
(0.399371 0.00684518 0)
(-0.00946935 -0.0189759 6.42234e-21)
(-0.0148337 0.00827643 -5.0541e-21)
(-0.0258472 0.0275345 0)
(-0.0399721 0.041034 2.50684e-21)
(-0.0560677 0.0496613 0)
(-0.0737408 0.0549301 1.13878e-21)
(-0.0926114 0.0580777 -2.14698e-21)
(-0.112208 0.0598726 -2.08627e-21)
(-0.132099 0.0607355 0)
(-0.151934 0.0608795 -2.0118e-21)
(-0.171435 0.0604112 -1.01625e-21)
(-0.190378 0.0593913 0)
(-0.208585 0.0578663 0)
(-0.225916 0.0558822 0)
(-0.242264 0.0534894 0)
(-0.257551 0.0507422 -9.98859e-22)
(-0.271719 0.0476967 0)
(-0.284735 0.0444082 1.98058e-21)
(-0.296579 0.0409291 0)
(-0.307244 0.0373069 0)
(-0.316735 0.0335833 -1.96023e-21)
(-0.325062 0.0297936 0)
(-0.332242 0.0259671 1.92132e-21)
(-0.338294 0.0221277 -9.37973e-22)
(-0.343244 0.0182945 9.1749e-22)
(-0.347119 0.0144838 -8.93363e-22)
(-0.34995 0.0107111 -8.65525e-22)
(-0.351767 0.00699778 0)
(-0.352606 0.00337685 0)
(-0.352508 -0.000109136 7.57986e-22)
(-0.351417 -0.00344249 -7.68161e-22)
(-0.3492 -0.00664073 0)
(-0.345833 -0.00972617 0)
(-0.3413 -0.012711 5.52793e-22)
(-0.335601 -0.015598 0)
(-0.328745 -0.0183836 0)
(-0.320751 -0.0210609 -3.5865e-22)
(-0.311644 -0.0236209 0)
(-0.301457 -0.0260538 3.2585e-22)
(-0.290226 -0.0283493 -2.69704e-22)
(-0.277996 -0.0304978 0)
(-0.264816 -0.0324904 0)
(-0.250739 -0.0343194 1.72394e-22)
(-0.235825 -0.0359783 5.07433e-22)
(-0.220135 -0.0374624 8.49584e-22)
(-0.203736 -0.0387686 -4.44798e-22)
(-0.186697 -0.0398955 9.33914e-22)
(-0.169086 -0.0408434 3.02501e-21)
(-0.150975 -0.0416139 -2.26928e-21)
(-0.132436 -0.0422101 -1.48424e-21)
(-0.113539 -0.0426358 0)
(-0.0943515 -0.0428954 1.85329e-21)
(-0.0749396 -0.0429933 -1.69138e-21)
(-0.0553638 -0.0429331 0)
(-0.0356797 -0.042717 0)
(-0.015943 -0.0423439 0)
(0.00377062 -0.0418108 2.70255e-21)
(0.0233748 -0.0411332 0)
(0.0428143 -0.040341 -5.44577e-21)
(0.0620555 -0.0394563 0)
(0.081062 -0.0384943 -5.7552e-21)
(0.0997943 -0.0374662 0)
(0.118215 -0.0363814 6.00227e-21)
(0.136288 -0.0352478 0)
(0.153982 -0.0340729 -6.19377e-21)
(0.171266 -0.0328635 3.01857e-21)
(0.188114 -0.0316259 0)
(0.204502 -0.0303664 6.3921e-21)
(0.220407 -0.0290907 3.31828e-21)
(0.235811 -0.0278043 3.33114e-21)
(0.250697 -0.0265126 0)
(0.26505 -0.0252207 3.18006e-21)
(0.278859 -0.0239336 3.34799e-21)
(0.292113 -0.0226561 0)
(0.304806 -0.0213928 -3.34468e-21)
(0.316932 -0.0201482 6.55317e-21)
(0.328489 -0.0189264 0)
(0.339476 -0.0177316 3.324e-21)
(0.349895 -0.0165675 0)
(0.359751 -0.0154376 -9.81516e-21)
(0.36905 -0.0143453 0)
(0.377801 -0.0132932 9.75268e-21)
(0.386013 -0.0122839 3.26315e-21)
(0.393701 -0.0113195 -3.18251e-21)
(0.400877 -0.0104015 -6.34626e-21)
(0.407558 -0.00953127 6.32595e-21)
(0.413761 -0.00870948 0)
(0.419505 -0.00793647 0)
(0.424809 -0.00721215 0)
(0.429694 -0.00653604 -1.88489e-20)
(0.434181 -0.0059073 -6.27537e-21)
(0.438292 -0.00532476 6.24271e-21)
(0.442048 -0.00478697 0)
(0.44547 -0.00429225 6.12771e-21)
(0.448582 -0.00383868 -6.14517e-21)
(0.451402 -0.00342421 -6.11301e-21)
(0.453953 -0.00304664 0)
(0.456253 -0.00270374 0)
(0.458323 -0.00239321 0)
(0.460181 -0.00211278 -5.9872e-21)
(0.461844 -0.00186021 0)
(0.463328 -0.0016333 1.18323e-20)
(0.46465 -0.00142989 1.76714e-20)
(0.465823 -0.00124779 -1.17181e-20)
(0.466862 -0.00108481 0)
(0.46778 -0.000938477 -5.79675e-21)
(0.468589 -0.000803971 0)
(0.469314 -0.000678381 -1.14973e-20)
(0.469966 -0.000565325 5.71707e-21)
(0.470542 -0.000468467 5.69073e-21)
(0.471045 -0.000387089 0)
(0.471481 -0.000318708 1.69294e-20)
(0.471854 -0.00026117 -1.12325e-20)
(0.472173 -0.000212745 -5.59311e-21)
(0.472442 -0.000171972 0)
(0.472669 -0.000137652 -5.54247e-21)
(0.472858 -0.000108824 -1.65498e-20)
(0.473014 -8.47012e-05 0)
(0.473142 -6.463e-05 -1.09355e-20)
(0.473245 -4.80575e-05 -1.0888e-20)
(0.473328 -3.45111e-05 -1.0841e-20)
(0.473392 -2.35825e-05 0)
(0.473441 -1.49157e-05 0)
(0.473477 -8.19808e-06 0)
(0.473502 -3.15445e-06 5.32804e-21)
(0.473518 4.58133e-07 5.30665e-21)
(0.473527 2.85405e-06 0)
(0.47353 4.22194e-06 1.05232e-20)
(0.473528 4.72732e-06 1.04791e-20)
(0.473523 4.51518e-06 0)
(0.473515 3.71238e-06 1.03924e-20)
(0.473506 2.42966e-06 2.06968e-20)
(0.473495 7.63811e-07 -1.03058e-20)
(0.473484 -1.20084e-06 -1.02617e-20)
(0.473473 -3.39085e-06 0)
(0.473463 -5.7429e-06 0)
(0.473453 -8.20246e-06 0)
(0.473445 -1.07228e-05 -1.00925e-20)
(0.473438 -1.32645e-05 1.00493e-20)
(0.473433 -1.57945e-05 2.00155e-20)
(0.47343 -1.8285e-05 -9.96624e-21)
(0.473428 -2.07125e-05 9.92338e-21)
(0.473429 -2.30565e-05 9.88256e-21)
(0.473431 -2.52986e-05 0)
(0.473436 -2.74211e-05 0)
(0.473442 -2.94059e-05 -9.75665e-21)
(0.47345 -3.1234e-05 0)
(0.47346 -3.2885e-05 0)
(0.473472 -3.43378e-05 1.92656e-20)
(0.473486 -3.55695e-05 0)
(0.4735 -3.65552e-05 9.54972e-21)
(0.473516 -3.72658e-05 -9.50953e-21)
(0.473533 -3.76674e-05 0)
(0.473551 -3.77193e-05 9.4263e-21)
(0.473569 -3.7371e-05 0)
(0.473587 -3.65589e-05 0)
(0.473604 -3.5202e-05 -9.30459e-21)
(0.47362 -3.31962e-05 1.85268e-20)
(0.473634 -3.0407e-05 -9.22331e-21)
(0.473645 -2.66586e-05 0)
(0.473653 -2.17208e-05 0)
(0.473655 -1.52907e-05 9.10179e-21)
(0.47365 -6.96845e-06 0)
(0.473635 3.77737e-06 9.02284e-21)
(0.473608 1.76577e-05 0)
(0.473565 3.56318e-05 0)
(0.473501 5.90073e-05 0)
(0.473408 8.95923e-05 8.87221e-21)
(0.473279 0.00012993 0)
(0.473101 0.000183675 -8.80303e-21)
(0.472857 0.000256232 0)
(0.472523 0.000355847 0)
(0.472068 0.000495783 1.74368e-20)
(0.471441 0.000698118 -1.73989e-20)
(0.470575 0.00100413 0)
(0.469341 0.00148834 0)
(0.467633 0.00233767 0)
(0.464906 0.00384472 5.25685e-20)
(0.461767 0.00731642 0)
(0.455014 0.013393 -3.6013e-20)
(-0.0168228 0.0129914 -1.95497e-22)
(-0.0284288 0.0400025 5.51248e-21)
(-0.0428548 0.0587953 0)
(-0.0585281 0.0728684 -3.78962e-21)
(-0.074427 0.0829493 0)
(-0.0905406 0.0897243 0)
(-0.106964 0.093895 -2.19113e-23)
(-0.123591 0.0960514 1.51921e-21)
(-0.140221 0.096638 1.51299e-21)
(-0.156647 0.0959711 1.46589e-21)
(-0.172697 0.0942748 0)
(-0.188236 0.0917163 0)
(-0.203163 0.0884307 -1.46769e-21)
(-0.217404 0.084536 -2.93312e-21)
(-0.23091 0.0801387 2.93368e-21)
(-0.243646 0.0753365 0)
(-0.255586 0.0702183 2.93519e-21)
(-0.266714 0.0648629 -1.44403e-21)
(-0.277015 0.0593395 0)
(-0.286476 0.0537065 2.91462e-21)
(-0.295083 0.0480126 1.42595e-21)
(-0.302824 0.0422979 -2.87177e-21)
(-0.309682 0.0365945 -1.39504e-21)
(-0.315641 0.0309285 0)
(-0.320684 0.0253213 2.74732e-21)
(-0.32479 0.0197909 2.68751e-21)
(-0.327939 0.0143523 0)
(-0.330103 0.00901718 2.53786e-21)
(-0.331249 0.00378993 0)
(-0.331338 -0.00133907 2.3408e-21)
(-0.330338 -0.00638205 1.062e-21)
(-0.328224 -0.0113346 0)
(-0.324987 -0.0161826 0)
(-0.32062 -0.0209098 0)
(-0.315126 -0.0254997 0)
(-0.308513 -0.0299346 0)
(-0.300799 -0.0341965 0)
(-0.292005 -0.038267 1.10638e-21)
(-0.282162 -0.0421276 -1.28714e-21)
(-0.271305 -0.0457608 0)
(-0.259477 -0.0491501 0)
(-0.246724 -0.0522809 0)
(-0.233101 -0.0551407 -1.82133e-22)
(-0.218664 -0.0577193 -3.48166e-22)
(-0.203474 -0.0600095 -9.69402e-22)
(-0.187596 -0.0620068 1.43471e-21)
(-0.171096 -0.0637095 8.51747e-22)
(-0.154043 -0.065119 -1.28917e-21)
(-0.136506 -0.0662392 2.06707e-22)
(-0.118553 -0.0670766 -1.55466e-21)
(-0.100253 -0.0676397 0)
(-0.08167 -0.0679393 -2.02229e-21)
(-0.0628687 -0.0679879 2.15086e-22)
(-0.0439082 -0.0677997 0)
(-0.0248444 -0.0673912 0)
(-0.00573363 -0.0667812 2.91904e-21)
(0.0133612 -0.0659899 0)
(0.0323773 -0.0650335 0)
(0.0512635 -0.0639229 -3.19185e-21)
(0.0699782 -0.062671 -7.05702e-21)
(0.088481 -0.0612923 3.84336e-21)
(0.106733 -0.0598008 0)
(0.124698 -0.05821 -4.05847e-21)
(0.142343 -0.0565324 0)
(0.159638 -0.0547798 -3.91825e-21)
(0.176554 -0.0529634 -4.3182e-21)
(0.193066 -0.0510936 8.48538e-21)
(0.20915 -0.0491805 4.17395e-21)
(0.224787 -0.0472335 0)
(0.239958 -0.0452615 -8.8755e-21)
(0.254647 -0.0432732 0)
(0.268839 -0.0412767 -1.37293e-20)
(0.282523 -0.03928 -9.16273e-21)
(0.295687 -0.0372907 -9.23904e-21)
(0.308326 -0.0353162 9.30676e-21)
(0.320432 -0.0333637 -1.41387e-20)
(0.332002 -0.0314398 0)
(0.343033 -0.0295512 0)
(0.353527 -0.027704 9.5034e-21)
(0.363485 -0.025904 1.43723e-20)
(0.372911 -0.0241564 0)
(0.381812 -0.0224663 -4.85148e-21)
(0.390196 -0.0208378 0)
(0.398072 -0.0192748 1.44766e-20)
(0.405451 -0.0177804 9.13033e-23)
(0.412348 -0.0163571 -8.3962e-23)
(0.418777 -0.0150067 -9.63433e-21)
(0.424754 -0.0137304 0)
(0.430296 -0.0125287 9.62776e-21)
(0.43542 -0.0114016 5.89858e-23)
(0.440147 -0.0103483 0)
(0.444496 -0.0093677 0)
(0.448486 -0.008458 0)
(0.452137 -0.00761706 -9.60314e-21)
(0.455471 -0.00684233 0)
(0.458506 -0.00613095 0)
(0.461263 -0.00547983 0)
(0.46376 -0.00488571 0)
(0.466018 -0.0043452 0)
(0.468052 -0.00385488 -9.41977e-21)
(0.469882 -0.00341131 0)
(0.471524 -0.00301108 -9.37969e-21)
(0.472993 -0.00265084 -9.34774e-21)
(0.474304 -0.00232731 9.31529e-21)
(0.475472 -0.00203728 0)
(0.476509 -0.00177774 9.24924e-21)
(0.477428 -0.001546 0)
(0.478243 -0.0013388 9.18237e-21)
(0.478967 -0.00115302 -9.14881e-21)
(0.479608 -0.00098734 -2.73284e-20)
(0.480174 -0.00084115 0)
(0.48067 -0.000713305 -2.71225e-20)
(0.481102 -0.000602227 -8.99981e-21)
(0.481477 -0.000506192 0)
(0.4818 -0.000423473 -1.78739e-20)
(0.482076 -0.000352455 -1.78062e-20)
(0.482312 -0.000291684 2.66112e-20)
(0.482512 -0.000239878 0)
(0.48268 -0.00019591 8.80461e-21)
(0.482821 -0.000158793 8.77092e-21)
(0.482937 -0.00012766 2.62083e-20)
(0.483032 -0.00010175 0)
(0.483109 -8.03905e-05 0)
(0.483171 -6.29893e-05 0)
(0.483219 -4.90207e-05 8.60216e-21)
(0.483256 -3.80198e-05 0)
(0.483284 -2.95751e-05 0)
(0.483304 -2.33222e-05 -8.50584e-21)
(0.483318 -1.89399e-05 -8.47313e-21)
(0.483327 -1.61445e-05 0)
(0.483331 -1.46858e-05 0)
(0.483333 -1.43439e-05 -1.67507e-20)
(0.483332 -1.49249e-05 0)
(0.48333 -1.62593e-05 1.66207e-20)
(0.483327 -1.81985e-05 1.65549e-20)
(0.483323 -2.06128e-05 0)
(0.48332 -2.33901e-05 0)
(0.483317 -2.64337e-05 -1.63604e-20)
(0.483315 -2.96603e-05 -6.52912e-25)
(0.483313 -3.29988e-05 -6.28631e-25)
(0.483313 -3.63885e-05 0)
(0.483315 -3.97767e-05 -3.22023e-20)
(0.483318 -4.31173e-05 0)
(0.483322 -4.63687e-05 0)
(0.483328 -4.94923e-05 0)
(0.483336 -5.24514e-05 1.58412e-20)
(0.483346 -5.52101e-05 0)
(0.483356 -5.77321e-05 -3.14203e-20)
(0.483369 -5.99805e-05 -1.56453e-20)
(0.483383 -6.19161e-05 0)
(0.483398 -6.34968e-05 -1.55145e-20)
(0.483414 -6.46756e-05 0)
(0.483431 -6.53978e-05 0)
(0.483448 -6.55985e-05 -4.59521e-20)
(0.483466 -6.51989e-05 3.05031e-20)
(0.483483 -6.4101e-05 0)
(0.4835 -6.21814e-05 3.02405e-20)
(0.483516 -5.92821e-05 -1.50553e-20)
(0.483529 -5.52005e-05 0)
(0.48354 -4.96733e-05 0)
(0.483547 -4.23572e-05 0)
(0.483548 -3.28019e-05 -4.43819e-20)
(0.483543 -2.04141e-05 0)
(0.483527 -4.40713e-06 -1.46657e-20)
(0.4835 1.62679e-05 0)
(0.483456 4.30219e-05 0)
(0.48339 7.77711e-05 0)
(0.483297 0.00012315 0)
(0.483166 0.000182841 0)
(0.482986 0.000262085 0)
(0.48274 0.000368541 -2.85048e-20)
(0.482405 0.00051372 0)
(0.481948 0.000715689 -1.4165e-20)
(0.481324 0.00100379 4.23996e-20)
(0.480466 0.00143001 0)
(0.479266 0.00208569 0)
(0.477623 0.00317301 -2.82863e-20)
(0.475209 0.00502839 -2.84684e-20)
(0.472397 0.00875863 2.87059e-20)
(0.468473 0.0156178 2.92682e-20)
(-0.0179858 0.0535834 -1.04796e-20)
(-0.0317734 0.077867 -7.258e-21)
(-0.0473322 0.0939336 -3.77019e-21)