/*--------------------------------*- C++ -*----------------------------------*\
  =========                 |
  \\      /  F ield         | OpenFOAM: The Open Source CFD Toolbox
   \\    /   O peration     | Website:  https://openfoam.org
    \\  /    A nd           | Version:  6
     \\/     M anipulation  |
\*---------------------------------------------------------------------------*/
FoamFile
{
    version     2.0;
    format      ascii;
    class       volScalarField;
    location    "0.02";
    object      epsilon;
}
// * * * * * * * * * * * * * * * * * * * * * * * * * * * * * * * * * * * * * //

dimensions      [0 2 -3 0 0 0 0];

internalField   nonuniform List<scalar> 
12225
(
307.513
159.146
103.322
76.4341
61.3042
51.944
45.7056
41.2865
38.0254
35.5739
33.76
32.4469
31.5607
31.0663
30.9704
31.3378
32.4877
35.1939
71.5622
59.7123
44.4031
34.3768
27.8761
23.4793
20.3894
18.1444
16.4654
15.1846
14.2083
13.4649
12.9082
12.5075
12.2444
12.1089
12.1165
12.2927
33.5989
34.3818
29.2761
24.3904
20.5649
17.6704
15.4808
13.8075
12.5119
11.4978
10.7029
10.0797
9.59449
9.2232
8.94883
8.75975
8.65201
8.61845
22.4883
24.1846
22.2117
19.5409
17.0806
15.0221
13.3537
12.0139
10.938
10.0731
9.37833
8.82132
8.37753
8.02832
7.7599
7.56256
7.43035
7.35517
18.0494
19.1582
18.2189
16.5942
14.9076
13.3797
12.068
10.9682
10.0555
9.30287
8.68488
8.17991
7.77031
7.44198
7.18409
6.98879
6.85033
6.76192
15.9645
16.3954
15.7621
14.6425
13.4059
12.2247
11.1663
10.2474
9.46416
8.8035
8.25057
7.79126
7.41308
7.10554
6.86023
6.67073
6.53192
6.43808
14.902
14.7865
14.1867
13.3014
12.3242
11.3686
10.4893
9.70762
9.02713
8.44265
7.94576
7.52727
7.17837
6.89123
6.65929
6.47725
6.34057
6.24439
14.3398
13.8244
13.1589
12.3678
11.5344
10.7219
9.96724
9.2874
8.68723
8.16496
7.71565
7.33309
7.0109
6.7431
6.52442
6.35039
6.21696
6.12
14.0384
13.2454
12.4877
11.719
10.9587
10.2336
9.5628
8.95626
8.41716
7.94436
7.53436
7.18253
6.88389
6.63365
6.42739
6.26119
6.13141
6.03449
13.8768
12.8997
12.0541
11.274
10.5448
9.86925
9.25217
8.69641
8.20213
7.76734
7.38871
7.06219
6.7835
6.54849
6.35324
6.19417
6.06794
5.97145
13.7907
12.6966
11.7797
10.9751
10.2535
9.60285
9.01796
8.49564
8.03283
7.62603
7.2714
6.96485
6.70231
6.47985
6.29382
6.1408
6.01768
5.92168
13.7491
12.5895
11.6245
10.7962
10.0707
9.42905
8.86012
8.35662
7.91291
7.52404
7.18539
6.89256
6.64135
6.42785
6.24843
6.09976
5.97881
5.88304
13.7257
12.5252
11.5257
10.6765
9.94319
9.30353
8.74277
8.25069
7.81959
7.44319
7.11607
6.83339
6.59072
6.38403
6.20965
6.06425
5.94487
5.84912
13.712
12.485
11.46
10.5925
9.84945
9.20749
8.64984
8.16422
7.74132
7.37367
7.05504
6.78005
6.54396
6.34255
6.17202
6.029
5.91057
5.81448
13.7049
12.4629
11.4217
10.5405
9.78832
9.14192
8.58371
8.10036
7.68147
7.3187
7.00513
6.7349
6.50292
6.30474
6.13643
5.99454
5.87617
5.77913
13.7017
12.4525
11.4024
10.5127
9.75384
9.10293
8.54242
8.05857
7.64048
7.27927
6.9676
6.69922
6.46879
6.27164
6.10372
5.96153
5.84214
5.74342
13.7005
12.4483
11.3943
10.5003
9.73734
9.08309
8.52009
8.03455
7.6154
7.25356
6.94145
6.67264
6.44161
6.2436
6.07446
5.93064
5.80924
5.70817
13.7001
12.447
11.3915
10.4957
9.73083
9.07461
8.50973
8.02242
7.60159
7.23809
6.9243
6.65371
6.42076
6.22065
6.04923
5.90295
5.77891
5.67509
13.7002
12.4472
11.3918
10.496
9.73083
9.07405
8.50829
8.01978
7.59741
7.23207
6.91615
6.6432
6.40769
6.20487
6.03062
5.88147
5.75455
5.64789
13.7014
12.4512
11.3993
10.5072
9.74521
9.0907
8.52609
8.03757
7.61415
7.24689
6.92836
6.65233
6.41346
6.20715
6.02943
5.87688
5.74675
5.63713
13.7058
12.4653
11.4249
10.5433
9.78952
9.14004
8.57734
8.08808
7.66185
7.29033
6.96664
6.68499
6.4404
6.22852
6.04556
5.8882
5.75375
5.64041
13.7209
12.5102
11.4999
10.6419
9.90241
9.25842
8.69417
8.19836
7.76243
7.37951
7.04383
6.75034
6.49456
6.27245
6.08034
5.91499
5.77368
5.65463
13.7676
12.6354
11.6898
10.8704
10.1451
9.49696
8.91695
8.39898
7.93824
7.53028
7.17079
6.85553
6.58041
6.34148
6.13502
5.9576
5.8063
5.67921
13.9012
12.9487
12.1148
11.3367
10.6035
9.91964
9.29107
8.72111
8.21018
7.75644
7.35666
7.00681
6.70251
6.43935
6.21302
6.01948
5.85523
5.71802
14.2613
13.6685
12.9807
12.2007
11.3908
10.6023
9.86589
9.19668
8.59943
8.07302
7.61328
7.21467
6.87117
6.57678
6.32577
6.11289
5.93358
5.78489
15.1945
15.2349
14.6417
13.7054
12.6633
11.6435
10.7051
9.86976
9.13992
8.50941
7.96868
7.50741
7.11566
6.78427
6.50504
6.27068
6.07509
5.91423
17.6333
18.6203
17.7707
16.2683
14.678
13.2102
11.9284
10.8369
9.91789
9.14796
8.50423
7.96661
7.51809
7.14443
6.83366
6.57575
6.36249
6.18842
24.7031
26.4225
23.9049
20.7879
18.0095
15.7187
13.8753
12.4001
11.2163
10.2603
9.4837
8.84952
8.32986
7.90318
7.55251
7.26429
7.02771
6.83547
51.9558
47.7287
37.796
30.1717
24.7593
20.8793
18.0446
15.929
14.3137
13.0542
12.0555
11.2539
10.605
10.0769
9.64553
9.29244
9.00309
8.76747
251.816
137.329
90.7338
67.0618
53.2211
44.4118
38.4285
34.1272
30.8883
28.3653
26.3551
24.7312
23.4084
22.3255
21.436
20.7028
20.0961
19.5923
1.34213
2.17784
3.23329
4.14479
4.95424
5.68924
6.33981
6.9084
7.40547
7.84096
8.22377
8.56176
8.86151
9.12669
9.3612
9.56831
9.75073
9.91098
10.0513
10.1736
10.2797
10.371
10.4488
10.5143
10.5685
10.6122
10.6463
10.6716
10.6887
10.6985
10.7015
10.6985
10.6899
10.6764
10.6586
10.637
10.6122
10.5846
10.5548
10.5231
10.49
10.4558
10.4209
10.3856
10.3501
10.3148
10.2798
10.2452
10.2114
10.1783
10.1461
10.1149
10.0848
10.0558
10.0279
10.0013
9.97583
9.95157
9.92851
9.90664
9.88594
9.86639
9.84796
9.83063
9.81435
9.7991
9.78484
9.77153
9.75914
9.74764
9.73698
9.72713
9.71805
9.70971
9.70209
9.69513
9.68882
9.68312
9.67801
9.67345
9.66942
9.6659
9.66285
9.66026
9.6581
9.65636
9.655
9.65402
9.65339
9.65309
9.65311
9.65343
9.65404
9.65492
9.65606
9.65744
9.65905
9.66087
9.66287
9.665
9.66762
9.67077
9.67422
9.67784
9.6816
9.68548
9.68948
9.6936
9.69784
9.70219
9.70665
9.71123
9.71591
9.7207
9.7256
9.7306
9.73569
9.74089
9.74618
9.75156
9.75704
9.76261
9.76827
9.77401
9.77985
9.78578
9.79179
9.79789
9.80409
9.81037
9.81673
9.82318
9.82971
9.83633
9.84302
9.84978
9.85662
9.86353
9.87052
9.87757
9.88469
9.89189
9.89916
9.9065
9.91392
9.92142
9.929
9.93666
9.9444
9.95222
9.96013
9.96811
9.97618
9.98434
9.99257
10.0009
10.0093
10.0177
10.0262
10.0348
10.0434
10.052
10.0607
10.0693
10.0778
10.0863
10.0946
10.1026
10.1103
10.1174
10.1237
10.1289
10.1323
10.1331
10.1297
10.1188
10.0937
10.0387
9.91862
9.65602
4.23131
3.06098
3.27124
3.5916
3.90694
4.19545
4.45288
4.67816
4.87381
5.04321
5.18969
5.31651
5.42596
5.52048
5.60211
5.67252
5.73311
5.78508
5.82944
5.86706
5.89865
5.92483
5.94614
5.96303
5.97589
5.98509
5.99095
5.99377
5.99382
5.99138
5.9867
5.98002
5.97159
5.96163
5.95036
5.93799
5.92471
5.91072
5.89617
5.88122
5.86603
5.85071
5.83539
5.82016
5.80511
5.79032
5.77585
5.76176
5.74808
5.73486
5.72212
5.70987
5.69813
5.68691
5.6762
5.66601
5.65633
5.64716
5.63847
5.63026
5.62251
5.61521
5.60835
5.6019
5.59584
5.59017
5.58486
5.5799
5.57527
5.57095
5.56694
5.5632
5.55974
5.55653
5.55357
5.55083
5.54831
5.546
5.54388
5.54195
5.54019
5.5386
5.53716
5.53587
5.53472
5.5337
5.53281
5.53204
5.53138
5.53082
5.53037
5.53001
5.52974
5.52956
5.52945
5.52942
5.52947
5.52958
5.52975
5.53
5.5304
5.53098
5.53168
5.53243
5.53323
5.53407
5.53493
5.53581
5.53673
5.53767
5.53864
5.53963
5.54066
5.54171
5.54279
5.54389
5.54502
5.54617
5.54735
5.54856
5.54979
5.55104
5.55232
5.55362
5.55494
5.55629
5.55766
5.55905
5.56047
5.56191
5.56337
5.56485
5.56636
5.56789
5.56943
5.571
5.57259
5.5742
5.57582
5.57747
5.57913
5.58081
5.58252
5.58424
5.58598
5.58775
5.58953
5.59134
5.59317
5.59503
5.5969
5.5988
5.60073
5.60267
5.60464
5.60663
5.60864
5.61068
5.61273
5.6148
5.61689
5.61899
5.62111
5.62323
5.62535
5.62746
5.62955
5.63161
5.63361
5.63553
5.63734
5.63896
5.64034
5.64134
5.64179
5.64137
5.63963
5.63574
5.63038
5.63592
6.38123
3.96199
3.81636
3.92521
4.08629
4.25204
4.40755
4.54787
4.6721
4.78091
4.87574
4.95822
5.02988
5.09212
5.14617
5.19305
5.23363
5.26862
5.2986
5.32406
5.34538
5.3629
5.3769
5.38763
5.39532
5.40018
5.40243
5.40227
5.3999
5.39554
5.38939
5.38165
5.37255
5.36227
5.35102
5.33897
5.32631
5.3132
5.29978
5.28621
5.27259
5.25904
5.24565
5.2325
5.21965
5.20718
5.19511
5.18348
5.17232
5.16164
5.15146
5.14178
5.13259
5.12389
5.11568
5.10793
5.10065
5.0938
5.08737
5.08135
5.07572
5.07045
5.06554
5.06095
5.05667
5.05269
5.04898
5.04553
5.04233
5.03936
5.03659
5.03403
5.03166
5.02946
5.02743
5.02555
5.02381
5.0222
5.02072
5.01936
5.01811
5.01695
5.0159
5.01493
5.01404
5.01324
5.0125
5.01184
5.01123
5.01069
5.01021
5.00977
5.00939
5.00905
5.00875
5.0085
5.00828
5.0081
5.00795
5.00784
5.0078
5.00782
5.0079
5.00802
5.00817
5.00834
5.00852
5.00872
5.00894
5.00916
5.0094
5.00966
5.00992
5.0102
5.01049
5.01079
5.0111
5.01142
5.01176
5.01211
5.01246
5.01283
5.01321
5.01359
5.01399
5.0144
5.01482
5.01524
5.01568
5.01613
5.01658
5.01705
5.01752
5.018
5.01849
5.01899
5.0195
5.02001
5.02053
5.02106
5.0216
5.02214
5.02269
5.02325
5.02382
5.02439
5.02498
5.02557
5.02617
5.02678
5.0274
5.02803
5.02867
5.02932
5.02998
5.03065
5.03132
5.032
5.0327
5.03339
5.0341
5.03481
5.03553
5.03624
5.03696
5.03767
5.03837
5.03906
5.03973
5.04036
5.04093
5.04144
5.04185
5.04211
5.04215
5.0419
5.0412
5.03996
5.03903
5.0457
7.94073
4.64366
4.26885
4.25102
4.32369
4.42203
4.52399
4.62106
4.71
4.78995
4.8611
4.92412
4.97982
5.029
5.07241
5.11065
5.14424
5.17358
5.19899
5.22071
5.23896
5.25388
5.26564
5.27436
5.2802
5.28332
5.28386
5.28202
5.27798
5.27196
5.26416
5.2548
5.2441
5.23228
5.21955
5.20612
5.19217
5.17788
5.1634
5.14889
5.13447
5.12024
5.1063
5.09274
5.0796
5.06695
5.05481
5.04321
5.03217
5.0217
5.0118
5.00247
4.99369
4.98544
4.97772
4.97051
4.96378
4.95751
4.95167
4.94625
4.94123
4.93656
4.93225
4.92826
4.92457
4.92116
4.91801
4.9151
4.91242
4.90995
4.90767
4.90557
4.90364
4.90186
4.90022
4.89871
4.89732
4.89604
4.89486
4.89378
4.89278
4.89186
4.89102
4.89024
4.88952
4.88887
4.88826
4.88771
4.8872
4.88673
4.8863
4.88591
4.88554
4.88521
4.88491
4.88464
4.88438
4.88415
4.88395
4.88376
4.88361
4.88349
4.8834
4.88334
4.88329
4.88326
4.88324
4.88322
4.88322
4.88322
4.88323
4.88325
4.88327
4.8833
4.88334
4.88338
4.88342
4.88348
4.88354
4.8836
4.88367
4.88374
4.88382
4.8839
4.88399
4.88408
4.88418
4.88428
4.88438
4.88449
4.8846
4.88472
4.88484
4.88496
4.88509
4.88522
4.88535
4.88549
4.88563
4.88577
4.88591
4.88606
4.88621
4.88636
4.88652
4.88668
4.88684
4.88701
4.88718
4.88735
4.88753
4.88771
4.88789
4.88808
4.88827
4.88847
4.88867
4.88887
4.88907
4.88928
4.88949
4.8897
4.88991
4.89012
4.89033
4.89054
4.89074
4.89093
4.89111
4.89127
4.89141
4.89151
4.89156
4.89154
4.89144
4.89122
4.89087
4.89043
4.89054
4.89471
9.06497
5.12315
4.59653
4.50028
4.52034
4.57966
4.65138
4.72454
4.79444
4.85919
4.91823
4.97163
5.01973
5.06294
5.10165
5.1362
5.16686
5.19382
5.21724
5.2372
5.2538
5.2671
5.27718
5.28414
5.28807
5.28913
5.28747
5.28329
5.27679
5.26821
5.25779
5.24578
5.23242
5.21798
5.20268
5.18676
5.17043
5.15388
5.13728
5.1208
5.10455
5.08867
5.07323
5.05831
5.04398
5.03027
5.01721
5.00483
4.99312
4.98209
4.97173
4.96203
4.95296
4.94451
4.93665
4.92935
4.92258
4.91632
4.91054
4.90521
4.90029
4.89577
4.89161
4.88779
4.88429
4.88107
4.87813
4.87543
4.87296
4.8707
4.86864
4.86675
4.86502
4.86344
4.862
4.86068
4.85947
4.85837
4.85736
4.85644
4.8556
4.85482
4.85412
4.85347
4.85287
4.85233
4.85183
4.85137
4.85094
4.85056
4.8502
4.84987
4.84956
4.84928
4.84902
4.84878
4.84856
4.84835
4.84816
4.84799
4.84783
4.8477
4.84758
4.84747
4.84738
4.84729
4.84722
4.84715
4.84708
4.84702
4.84697
4.84692
4.84687
4.84683
4.84679
4.84675
4.84672
4.84668
4.84666
4.84663
4.8466
4.84658
4.84656
4.84654
4.84653
4.84651
4.8465
4.84649
4.84648
4.84648
4.84647
4.84647
4.84646
4.84646
4.84646
4.84646
4.84647
4.84647
4.84647
4.84648
4.84648
4.84649
4.84649
4.8465
4.84651
4.84652
4.84653
4.84654
4.84655
4.84656
4.84657
4.84659
4.84661
4.84662
4.84664
4.84666
4.84668
4.8467
4.84672
4.84675
4.84677
4.84679
4.84681
4.84683
4.84685
4.84687
4.84688
4.84689
4.84689
4.84688
4.84686
4.84682
4.84676
4.84668
4.84657
4.84645
4.84633
4.84634
4.84692
4.84985
9.91202
5.46325
4.82991
4.68392
4.67334
4.71147
4.76775
4.82943
4.89079
4.94924
5.00373
5.05387
5.09968
5.1413
5.17887
5.21253
5.24238
5.26848
5.29087
5.30956
5.32458
5.33597
5.3438
5.34815
5.34916
5.347
5.34188
5.33402
5.32369
5.31118
5.29677
5.28077
5.26347
5.24516
5.22612
5.2066
5.18685
5.16708
5.14746
5.12817
5.10934
5.09108
5.07348
5.05662
5.04053
5.02525
5.01079
4.99718
4.98438
4.97241
4.96123
4.95081
4.94113
4.93216
4.92386
4.9162
4.90914
4.90263
4.89666
4.89117
4.88615
4.88155
4.87734
4.8735
4.86999
4.8668
4.86389
4.86124
4.85883
4.85664
4.85465
4.85284
4.8512
4.84971
4.84836
4.84713
4.84602
4.84501
4.84409
4.84326
4.84251
4.84182
4.8412
4.84064
4.84012
4.83965
4.83923
4.83884
4.83848
4.83816
4.83786
4.83759
4.83734
4.83711
4.8369
4.8367
4.83652
4.83636
4.8362
4.83606
4.83593
4.83581
4.83571
4.83561
4.83552
4.83544
4.83537
4.8353
4.83524
4.83517
4.83512
4.83506
4.83501
4.83496
4.83491
4.83486
4.83481
4.83477
4.83472
4.83468
4.83464
4.8346
4.83456
4.83452
4.83449
4.83445
4.83441
4.83438
4.83434
4.83431
4.83428
4.83424
4.83421
4.83418
4.83414
4.83411
4.83408
4.83405
4.83401
4.83398
4.83395
4.83392
4.83388
4.83385
4.83382
4.83379
4.83375
4.83372
4.83369
4.83365
4.83362
4.83359
4.83355
4.83352
4.83349
4.83346
4.83342
4.83339
4.83336
4.83332
4.83329
4.83325
4.83322
4.83318
4.83314
4.8331
4.83306
4.83302
4.83297
4.83291
4.83286
4.8328
4.83273
4.83267
4.83262
4.8326
4.83267
4.83296
4.83382
4.83618
10.6079
5.72498
5.00844
4.82879
4.80063
4.82876
4.87935
4.93818
4.99855
5.05728
5.11287
5.16461
5.21224
5.25567
5.29477
5.32953
5.35993
5.38595
5.40756
5.42477
5.4376
5.44614
5.45047
5.45078
5.44725
5.44015
5.42977
5.41641
5.40044
5.38221
5.36209
5.34045
5.31765
5.29401
5.26987
5.24551
5.2212
5.19715
5.17358
5.15064
5.12847
5.10716
5.08681
5.06746
5.04915
5.03188
5.01566
5.00048
4.98632
4.97313
4.96089
4.94955
4.93907
4.9294
4.9205
4.91232
4.90481
4.89793
4.89163
4.88587
4.88062
4.87583
4.87146
4.8675
4.86389
4.86062
4.85765
4.85496
4.85252
4.85031
4.84832
4.84652
4.84489
4.84342
4.8421
4.8409
4.83983
4.83886
4.83798
4.83719
4.83648
4.83584
4.83527
4.83475
4.83428
4.83386
4.83348
4.83313
4.83282
4.83254
4.83228
4.83205
4.83184
4.83165
4.83148
4.83132
4.83117
4.83104
4.83092
4.83081
4.83071
4.83061
4.83053
4.83046
4.83039
4.83033
4.83027
4.83022
4.83017
4.83012
4.83008
4.83003
4.82999
4.82996
4.82992
4.82988
4.82985
4.82981
4.82978
4.82975
4.82971
4.82968
4.82965
4.82962
4.82959
4.82956
4.82953
4.8295
4.82947
4.82944
4.82941
4.82938
4.82935
4.82932
4.82929
4.82926
4.82923
4.8292
4.82917
4.82914
4.82911
4.82908
4.82905
4.82902
4.82898
4.82895
4.82892
4.82888
4.82885
4.82882
4.82878
4.82875
4.82871
4.82868
4.82864
4.82861
4.82857
4.82853
4.82849
4.82846
4.82842
4.82838
4.82834
4.8283
4.82826
4.82822
4.82817
4.82813
4.82808
4.82804
4.82799
4.82795
4.82792
4.8279
4.82791
4.82799
4.8282
4.82867
4.82966
4.83171
11.3039
5.96712
5.17034
4.9635
4.92478
4.9498
5.00125
5.06335
5.12839
5.1925
5.25371
5.31094
5.36361
5.41138
5.45398
5.49126
5.52298
5.54907
5.56954
5.58442
5.59381
5.59789
5.59689
5.5911
5.58085
5.56653
5.54858
5.52744
5.50357
5.47745
5.44954
5.42029
5.39014
5.35947
5.32866
5.29802
5.26784
5.23837
5.20979
5.18228
5.15595
5.13089
5.10716
5.08479
5.06379
5.04414
5.02582
5.00878
4.99299
4.97838
4.96489
4.95247
4.94104
4.93055
4.92094
4.91214
4.90409
4.89675
4.89005
4.88395
4.8784
4.87336
4.86878
4.86463
4.86087
4.85746
4.85438
4.85159
4.84908
4.84681
4.84477
4.84293
4.84127
4.83978
4.83844
4.83724
4.83616
4.83519
4.83432
4.83354
4.83284
4.83221
4.83165
4.83115
4.8307
4.8303
4.82994
4.82961
4.82933
4.82907
4.82883
4.82862
4.82844
4.82827
4.82812
4.82798
4.82786
4.82775
4.82765
4.82756
4.82747
4.8274
4.82734
4.82728
4.82723
4.82718
4.82714
4.8271
4.82707
4.82703
4.827
4.82698
4.82695
4.82692
4.8269
4.82688
4.82686
4.82683
4.82681
4.82679
4.82677
4.82676
4.82674
4.82672
4.8267
4.82668
4.82666
4.82665
4.82663
4.82661
4.82659
4.82658
4.82656
4.82654
4.82652
4.8265
4.82648
4.82647
4.82645
4.82643
4.82641
4.82639
4.82637
4.82635
4.82633
4.82631
4.82629
4.82626
4.82624
4.82622
4.8262
4.82617
4.82615
4.82613
4.8261
4.82608
4.82605
4.82603
4.826
4.82598
4.82595
4.82593
4.8259
4.82587
4.82584
4.82582
4.82579
4.82576
4.82573
4.82571
4.82569
4.82568
4.82568
4.8257
4.82577
4.82591
4.82621
4.82676
4.82779
4.82962
12.0632
6.22653
5.34581
5.11397
5.06858
5.09493
5.15189
5.22159
5.29557
5.36905
5.43944
5.50521
5.56539
5.61935
5.66663
5.7069
5.73992
5.7655
5.78366
5.79456
5.79848
5.79578
5.78687
5.77225
5.75248
5.72812
5.69978
5.66809
5.63367
5.59711
5.55901
5.51991
5.48031
5.44068
5.40144
5.36292
5.32545
5.28926
5.25454
5.22146
5.19009
5.16052
5.13275
5.1068
5.08263
5.06018
5.03941
5.02023
5.00257
4.98633
4.97143
4.95777
4.94529
4.93388
4.92347
4.91398
4.90534
4.89748
4.89034
4.88385
4.87796
4.87263
4.8678
4.86343
4.85948
4.85591
4.85268
4.84978
4.84716
4.8448
4.84268
4.84077
4.83906
4.83752
4.83614
4.8349
4.83379
4.8328
4.83191
4.83112
4.83041
4.82977
4.82921
4.8287
4.82825
4.82785
4.82749
4.82717
4.82688
4.82663
4.8264
4.8262
4.82602
4.82586
4.82572
4.82559
4.82548
4.82538
4.82529
4.82521
4.82513
4.82507
4.82502
4.82497
4.82492
4.82489
4.82485
4.82482
4.82479
4.82477
4.82475
4.82473
4.82471
4.82469
4.82468
4.82466
4.82465
4.82464
4.82463
4.82462
4.8246
4.82459
4.82458
4.82457
4.82457
4.82456
4.82455
4.82454
4.82453
4.82452
4.82451
4.8245
4.82449
4.82449
4.82448
4.82447
4.82446
4.82445
4.82444
4.82443
4.82442
4.82441
4.8244
4.82439
4.82438
4.82437
4.82436
4.82435
4.82434
4.82433
4.82432
4.82431
4.8243
4.82428
4.82427
4.82426
4.82425
4.82423
4.82422
4.82421
4.82419
4.82418
4.82417
4.82415
4.82414
4.82412
4.82411
4.8241
4.82409
4.82409
4.82409
4.8241
4.82412
4.82417
4.82428
4.82446
4.82479
4.82537
4.82637
4.82798
12.9541
6.53486
5.5609
5.30384
5.25392
5.28463
5.35031
5.43098
5.5172
5.60316
5.68544
5.76194
5.83124
5.89234
5.94454
5.98734
6.02046
6.04381
6.05743
6.06169
6.05713
6.0444
6.02421
5.99735
5.96461
5.92683
5.88485
5.83949
5.79153
5.74174
5.69082
5.63943
5.58815
5.53752
5.48797
5.4399
5.39362
5.34937
5.30733
5.26762
5.23031
5.19543
5.16295
5.13283
5.105
5.07935
5.05578
5.03417
5.01439
4.99633
4.97985
4.96485
4.95119
4.93877
4.9275
4.91726
4.90798
4.89956
4.89194
4.88504
4.8788
4.87315
4.86805
4.86344
4.85928
4.85553
4.85215
4.8491
4.84636
4.8439
4.84168
4.83969
4.8379
4.8363
4.83486
4.83358
4.83243
4.8314
4.83047
4.82965
4.82891
4.82826
4.82767
4.82715
4.82669
4.82627
4.8259
4.82557
4.82528
4.82502
4.82479
4.82459
4.8244
4.82424
4.8241
4.82397
4.82385
4.82375
4.82366
4.82358
4.82351
4.82345
4.82339
4.82335
4.8233
4.82327
4.82323
4.82321
4.82318
4.82316
4.82314
4.82312
4.8231
4.82309
4.82308
4.82307
4.82305
4.82304
4.82304
4.82303
4.82302
4.82301
4.82301
4.823
4.82299
4.82299
4.82298
4.82298
4.82297
4.82297
4.82296
4.82296
4.82295
4.82295
4.82295
4.82294
4.82294
4.82293
4.82293
4.82293
4.82292
4.82292
4.82291
4.82291
4.8229
4.8229
4.82289
4.82289
4.82288
4.82288
4.82287
4.82287
4.82286
4.82286
4.82285
4.82285
4.82284
4.82284
4.82283
4.82282
4.82282
4.82281
4.82281
4.8228
4.8228
4.82279
4.82279
4.82279
4.82279
4.8228
4.82281
4.82283
4.82287
4.82294
4.82305
4.82325
4.82359
4.82415
4.82507
4.82647
14.0527
6.92367
5.84017
5.55517
5.50151
5.5386
5.61558
5.70997
5.81059
5.91122
6.00726
6.09578
6.17477
6.2428
6.29889
6.34242
6.37312
6.39103
6.39646
6.3901
6.37291
6.34594
6.31028
6.26705
6.2174
6.16244
6.10325
6.04087
5.97628
5.91038
5.84401
5.77791
5.71274
5.64909
5.58744
5.52818
5.47163
5.41802
5.3675
5.32017
5.27604
5.23509
5.19724
5.1624
5.13044
5.10118
5.07449
5.05017
5.02807
5.008
4.9898
4.97332
4.9584
4.9449
4.9327
4.92167
4.91171
4.90271
4.89458
4.88724
4.88063
4.87465
4.86927
4.86441
4.86004
4.8561
4.85255
4.84936
4.84649
4.84391
4.84159
4.83951
4.83764
4.83597
4.83447
4.83312
4.83192
4.83084
4.82987
4.82901
4.82824
4.82756
4.82694
4.8264
4.82591
4.82547
4.82509
4.82474
4.82443
4.82416
4.82392
4.8237
4.82351
4.82334
4.82318
4.82305
4.82292
4.82282
4.82272
4.82264
4.82256
4.82249
4.82244
4.82238
4.82234
4.8223
4.82226
4.82223
4.8222
4.82217
4.82215
4.82213
4.82211
4.82209
4.82208
4.82207
4.82205
4.82204
4.82203
4.82202
4.82201
4.822
4.822
4.82199
4.82198
4.82198
4.82197
4.82197
4.82196
4.82195
4.82195
4.82195
4.82194
4.82194
4.82193
4.82193
4.82192
4.82192
4.82192
4.82191
4.82191
4.82191
4.8219
4.8219
4.8219
4.82189
4.82189
4.82189
4.82188
4.82188
4.82187
4.82187
4.82187
4.82186
4.82186
4.82186
4.82185
4.82185
4.82185
4.82184
4.82184
4.82184
4.82183
4.82183
4.82183
4.82183
4.82183
4.82183
4.82184
4.82185
4.82186
4.82189
4.82193
4.822
4.82212
4.82231
4.82263
4.82315
4.82397
4.82518
15.4128
7.41805
6.20421
5.88681
5.82915
5.87385
5.96388
6.07385
6.19095
6.30794
6.41882
6.51962
6.6076
6.68083
6.73808
6.77869
6.80256
6.81005
6.80193
6.77952
6.74435
6.69797
6.64193
6.57777
6.50696
6.43092
6.35098
6.26836
6.18422
6.09958
6.01538
5.93243
5.85145
5.77306
5.69774
5.62591
5.55785
5.49378
5.43381
5.37799
5.32629
5.27863
5.23486
5.19483
5.15832
5.12513
5.09503
5.06778
5.04315
5.02093
5.00089
4.98283
4.96657
4.95194
4.93876
4.92691
4.91623
4.90663
4.89799
4.89021
4.8832
4.8769
4.87123
4.86612
4.86153
4.8574
4.85368
4.85034
4.84733
4.84463
4.84221
4.84003
4.83808
4.83633
4.83476
4.83335
4.83209
4.83096
4.82995
4.82904
4.82824
4.82751
4.82687
4.82629
4.82578
4.82532
4.8249
4.82454
4.82421
4.82392
4.82366
4.82343
4.82322
4.82303
4.82287
4.82272
4.82259
4.82247
4.82237
4.82227
4.82219
4.82211
4.82205
4.82199
4.82193
4.82189
4.82184
4.8218
4.82177
4.82174
4.82171
4.82168
4.82166
4.82164
4.82162
4.8216
4.82158
4.82157
4.82155
4.82154
4.82153
4.82152
4.8215
4.82149
4.82148
4.82147
4.82147
4.82146
4.82145
4.82144
4.82143
4.82143
4.82142
4.82141
4.82141
4.8214
4.82139
4.82139
4.82138
4.82138
4.82137
4.82136
4.82136
4.82135
4.82135
4.82134
4.82134
4.82133
4.82133
4.82132
4.82132
4.82131
4.82131
4.8213
4.8213
4.82129
4.82129
4.82128
4.82128
4.82127
4.82127
4.82127
4.82126
4.82126
4.82126
4.82126
4.82125
4.82126
4.82126
4.82127
4.82128
4.82131
4.82135
4.82141
4.82152
4.8217
4.82199
4.82246
4.82317
4.82421
17.0513
8.0309
6.66595
6.31154
6.24943
6.30284
6.40766
6.53511
6.67037
6.80485
6.93074
7.04279
7.13731
7.2119
7.26519
7.29674
7.30692
7.29675
7.26786
7.22255
7.16302
7.09141
7.00976
6.92002
6.82398
6.72332
6.61955
6.51404
6.40805
6.30268
6.19892
6.09761
5.9995
5.90519
5.81518
5.72985
5.64947
5.57421
5.50415
5.43928
5.37951
5.32469
5.27462
5.22907
5.18776
5.1504
5.11671
5.08637
5.0591
5.03461
5.01265
4.99297
4.97533
4.95952
4.94535
4.93265
4.92126
4.91105
4.90188
4.89366
4.88627
4.87964
4.87368
4.86832
4.86351
4.85919
4.8553
4.85181
4.84867
4.84586
4.84333
4.84105
4.83901
4.83718
4.83554
4.83407
4.83275
4.83156
4.8305
4.82955
4.8287
4.82794
4.82726
4.82665
4.82611
4.82562
4.82518
4.82479
4.82444
4.82413
4.82385
4.8236
4.82338
4.82317
4.823
4.82283
4.82269
4.82256
4.82244
4.82234
4.82224
4.82216
4.82208
4.82201
4.82195
4.8219
4.82185
4.8218
4.82176
4.82172
4.82168
4.82165
4.82162
4.82159
4.82157
4.82155
4.82152
4.8215
4.82148
4.82147
4.82145
4.82143
4.82142
4.8214
4.82139
4.82138
4.82136
4.82135
4.82134
4.82133
4.82132
4.82131
4.82129
4.82128
4.82127
4.82126
4.82126
4.82125
4.82124
4.82123
4.82122
4.82121
4.8212
4.82119
4.82119
4.82118
4.82117
4.82116
4.82115
4.82114
4.82114
4.82113
4.82112
4.82111
4.82111
4.8211
4.82109
4.82108
4.82108
4.82107
4.82106
4.82106
4.82105
4.82104
4.82104
4.82103
4.82103
4.82103
4.82103
4.82104
4.82105
4.82107
4.8211
4.82116
4.82126
4.82142
4.82168
4.82209
4.8227
4.82358
18.9358
8.75754
7.22646
6.83244
6.76646
6.83041
6.95244
7.09992
7.25559
7.40851
7.54862
7.66903
7.7651
7.83408
7.87489
7.88786
7.87444
7.83686
7.7784
7.70232
7.61155
7.50885
7.39671
7.27739
7.15291
7.02509
6.89552
6.76561
6.63662
6.50966
6.38568
6.26552
6.14988
6.03935
5.93438
5.83534
5.74244
5.65582
5.57551
5.50144
5.43346
5.37137
5.3149
5.26374
5.21754
5.17595
5.1386
5.10513
5.07519
5.04844
5.02455
5.00323
4.9842
4.96723
4.95207
4.93854
4.92645
4.91564
4.90597
4.89731
4.88956
4.8826
4.87637
4.87077
4.86575
4.86125
4.8572
4.85356
4.8503
4.84736
4.84473
4.84236
4.84024
4.83833
4.83662
4.83508
4.8337
4.83247
4.83136
4.83036
4.82947
4.82867
4.82795
4.8273
4.82673
4.82621
4.82575
4.82533
4.82496
4.82462
4.82432
4.82405
4.82381
4.82359
4.8234
4.82322
4.82306
4.82292
4.82279
4.82267
4.82257
4.82247
4.82239
4.82231
4.82224
4.82218
4.82212
4.82206
4.82201
4.82197
4.82193
4.82189
4.82185
4.82182
4.82179
4.82176
4.82173
4.8217
4.82168
4.82166
4.82164
4.82162
4.8216
4.82158
4.82156
4.82154
4.82153
4.82151
4.82149
4.82148
4.82147
4.82145
4.82144
4.82142
4.82141
4.8214
4.82139
4.82137
4.82136
4.82135
4.82134
4.82133
4.82131
4.8213
4.82129
4.82128
4.82127
4.82126
4.82125
4.82124
4.82123
4.82122
4.82121
4.8212
4.82119
4.82118
4.82117
4.82116
4.82115
4.82114
4.82113
4.82112
4.82111
4.8211
4.82109
4.82108
4.82108
4.82107
4.82107
4.82107
4.82108
4.82109
4.82112
4.82117
4.82126
4.8214
4.82163
4.82199
4.82252
4.82327
20.976
9.57241
7.87174
7.43985
7.37322
7.45178
7.5954
7.76712
7.94681
8.11916
8.27122
8.39418
8.48263
8.53423
8.54921
8.52977
8.47937
8.40299
8.30531
8.19048
8.06217
7.92358
7.77749
7.62627
7.47195
7.31629
7.16079
7.00675
6.85532
6.70749
6.56413
6.42598
6.29367
6.16774
6.04858
5.9365
5.8317
5.73425
5.64413
5.56125
5.4854
5.41631
5.35366
5.29708
5.24616
5.20048
5.15961
5.12312
5.0906
5.06166
5.03591
5.01303
4.99269
4.9746
4.95852
4.9442
4.93145
4.92009
4.90994
4.90088
4.89279
4.88554
4.87905
4.87324
4.86803
4.86335
4.85915
4.85539
4.852
4.84897
4.84624
4.84378
4.84158
4.8396
4.83782
4.83622
4.83479
4.8335
4.83234
4.8313
4.83036
4.82952
4.82877
4.82809
4.82748
4.82694
4.82644
4.826
4.82561
4.82525
4.82493
4.82464
4.82438
4.82414
4.82393
4.82374
4.82357
4.82341
4.82327
4.82314
4.82303
4.82292
4.82283
4.82274
4.82266
4.82259
4.82252
4.82246
4.8224
4.82235
4.8223
4.82226
4.82221
4.82217
4.82214
4.8221
4.82207
4.82204
4.82201
4.82199
4.82196
4.82194
4.82192
4.82189
4.82187
4.82185
4.82183
4.82181
4.82179
4.82178
4.82176
4.82174
4.82173
4.82171
4.8217
4.82168
4.82167
4.82165
4.82164
4.82162
4.82161
4.82159
4.82158
4.82157
4.82155
4.82154
4.82153
4.82152
4.8215
4.82149
4.82148
4.82147
4.82145
4.82144
4.82143
4.82142
4.8214
4.82139
4.82138
4.82137
4.82136
4.82135
4.82134
4.82133
4.82132
4.82131
4.8213
4.82129
4.82129
4.82128
4.82129
4.8213
4.82132
4.82137
4.82144
4.82157
4.82177
4.82208
4.82255
4.8232
23.0858
10.4547
8.59133
8.1284
8.06914
8.17142
8.34611
8.55051
8.75997
8.9512
9.10815
9.22045
9.28328
9.29673
9.26459
9.19298
9.08984
8.96195
8.8152
8.65451
8.48392
8.30673
8.12555
7.94253
7.75938
7.57753
7.39817
7.22232
7.05086
6.88458
6.72417
6.57024
6.42333
6.28386
6.15219
6.02857
5.91316
5.80602
5.70708
5.61622
5.5332
5.45772
5.3894
5.32782
5.27254
5.22307
5.17892
5.13963
5.10472
5.07374
5.04628
5.02195
5.0004
4.9813
4.96436
4.94934
4.93599
4.92413
4.91357
4.90415
4.89575
4.88825
4.88154
4.87554
4.87016
4.86534
4.86102
4.85714
4.85365
4.85052
4.84771
4.84518
4.8429
4.84086
4.83902
4.83737
4.83588
4.83454
4.83334
4.83226
4.83128
4.83041
4.82962
4.82891
4.82827
4.8277
4.82718
4.82671
4.82629
4.82592
4.82557
4.82527
4.82499
4.82474
4.82451
4.8243
4.82412
4.82395
4.82379
4.82365
4.82353
4.82341
4.8233
4.82321
4.82312
4.82304
4.82296
4.82289
4.82283
4.82277
4.82272
4.82267
4.82262
4.82258
4.82254
4.8225
4.82246
4.82243
4.82239
4.82236
4.82234
4.82231
4.82228
4.82226
4.82223
4.82221
4.82219
4.82217
4.82215
4.82213
4.82211
4.82209
4.82207
4.82205
4.82204
4.82202
4.822
4.82199
4.82197
4.82195
4.82194
4.82192
4.82191
4.82189
4.82188
4.82187
4.82185
4.82184
4.82182
4.82181
4.8218
4.82178
4.82177
4.82176
4.82174
4.82173
4.82172
4.8217
4.82169
4.82168
4.82167
4.82166
4.82164
4.82163
4.82162
4.82161
4.8216
4.82159
4.82159
4.82158
4.82158
4.82159
4.82161
4.82165
4.82172
4.82183
4.82201
4.82229
4.8227
4.82326
24.7702
11.2225
9.25674
8.79141
8.76271
8.91157
9.13965
9.3959
9.64621
9.85555
10.0047
10.0839
10.0932
10.0396
9.93595
9.79429
9.62515
9.43703
9.23653
9.02862
8.81697
8.60426
8.3924
8.18283
7.97658
7.77447
7.57716
7.38526
7.19927
7.01971
6.84706
6.68176
6.52424
6.37485
6.23391
6.10164
5.97817
5.86357
5.75777
5.66063
5.57191
5.49129
5.41839
5.35275
5.29389
5.24131
5.19447
5.15287
5.11598
5.08333
5.05446
5.02895
5.00642
4.9865
4.96888
4.95329
4.93948
4.92723
4.91634
4.90666
4.89804
4.89035
4.88348
4.87734
4.87185
4.86692
4.86251
4.85855
4.85499
4.85179
4.84892
4.84634
4.84401
4.84192
4.84004
4.83834
4.83682
4.83544
4.83421
4.83309
4.83209
4.83118
4.83037
4.82963
4.82897
4.82837
4.82783
4.82734
4.8269
4.82651
4.82615
4.82582
4.82553
4.82526
4.82502
4.8248
4.82461
4.82442
4.82426
4.82411
4.82397
4.82385
4.82373
4.82363
4.82353
4.82345
4.82336
4.82329
4.82322
4.82316
4.8231
4.82304
4.82299
4.82294
4.8229
4.82286
4.82282
4.82278
4.82274
4.82271
4.82268
4.82265
4.82262
4.82259
4.82257
4.82254
4.82252
4.8225
4.82247
4.82245
4.82243
4.82241
4.82239
4.82238
4.82236
4.82234
4.82232
4.82231
4.82229
4.82227
4.82226
4.82224
4.82223
4.82221
4.8222
4.82218
4.82217
4.82215
4.82214
4.82213
4.82211
4.8221
4.82209
4.82207
4.82206
4.82205
4.82203
4.82202
4.82201
4.822
4.82198
4.82197
4.82196
4.82195
4.82194
4.82193
4.82192
4.82191
4.8219
4.8219
4.8219
4.82191
4.82192
4.82196
4.82202
4.82212
4.82228
4.82253
4.8229
4.82341
25.7267
11.7637
9.76678
9.32609
9.34891
9.56572
9.86839
10.1939
10.4877
10.7033
10.8188
10.8314
10.756
10.6146
10.4271
10.2101
9.97583
9.73289
9.48721
9.24263
9.00153
8.76532
8.53474
8.31017
8.0918
7.87972
7.67402
7.47484
7.28237
7.09686
6.91862
6.74797
6.58528
6.43086
6.28502
6.148
6.01995
5.90097
5.79102
5.68998
5.59764
5.5137
5.43778
5.36943
5.30817
5.25346
5.20478
5.16158
5.12333
5.08953
5.05969
5.03338
5.01017
4.9897
4.97163
4.95567
4.94156
4.92907
4.91799
4.90815
4.8994
4.8916
4.88465
4.87844
4.87288
4.8679
4.86344
4.85944
4.85585
4.85262
4.84972
4.84711
4.84476
4.84264
4.84074
4.83902
4.83747
4.83608
4.83482
4.83369
4.83267
4.83174
4.83091
4.83016
4.82948
4.82887
4.82832
4.82781
4.82736
4.82695
4.82658
4.82625
4.82594
4.82566
4.82541
4.82519
4.82498
4.82479
4.82462
4.82446
4.82432
4.82418
4.82406
4.82395
4.82385
4.82376
4.82367
4.82359
4.82352
4.82345
4.82339
4.82333