/*--------------------------------*- C++ -*----------------------------------*\
  =========                 |
  \\      /  F ield         | OpenFOAM: The Open Source CFD Toolbox
   \\    /   O peration     | Website:  https://openfoam.org
    \\  /    A nd           | Version:  6
     \\/     M anipulation  |
\*---------------------------------------------------------------------------*/
FoamFile
{
    version     2.0;
    format      ascii;
    class       volScalarField;
    location    "0.02";
    object      k;
}
// * * * * * * * * * * * * * * * * * * * * * * * * * * * * * * * * * * * * * //

dimensions      [0 2 -2 0 0 0 0];

internalField   nonuniform List<scalar> 
12225
(
0.246418
0.158838
0.119087
0.097398
0.0840671
0.0752648
0.0690983
0.0645488
0.0610675
0.0583621
0.0562814
0.0547096
0.0535865
0.0528871
0.0526259
0.0528726
0.0539516
0.056616
0.339416
0.260077
0.208378
0.175626
0.153859
0.138579
0.127279
0.118578
0.111714
0.106261
0.101937
0.098559
0.096009
0.0942111
0.0931421
0.0928322
0.0934921
0.095456
0.347465
0.292349
0.248666
0.216569
0.192897
0.175089
0.161355
0.150525
0.141861
0.134905
0.129323
0.124904
0.121503
0.119022
0.117421
0.116718
0.117052
0.118607
0.351357
0.309069
0.272055
0.242313
0.218846
0.2003
0.185498
0.173555
0.163855
0.155961
0.149558
0.144435
0.140435
0.137455
0.13544
0.134397
0.1344
0.135529
0.353915
0.319313
0.287378
0.260224
0.23777
0.219355
0.204241
0.191795
0.181531
0.173067
0.166132
0.160525
0.156096
0.152739
0.150395
0.14905
0.148736
0.149462
0.355682
0.326088
0.298056
0.27333
0.252183
0.234341
0.21936
0.206807
0.196298
0.187533
0.180282
0.174363
0.169638
0.166004
0.163398
0.16179
0.161176
0.161526
0.356926
0.330774
0.305767
0.28319
0.26341
0.246354
0.23177
0.219357
0.208836
0.199971
0.192571
0.186477
0.181565
0.177736
0.174925
0.17309
0.1722
0.172205
0.357814
0.334097
0.311444
0.290717
0.27225
0.256065
0.242019
0.22991
0.219538
0.210721
0.2033
0.19714
0.192128
0.188174
0.185208
0.183179
0.182042
0.18173
0.358448
0.33648
0.315657
0.296491
0.279231
0.26392
0.250479
0.238775
0.228662
0.219997
0.212651
0.206507
0.201466
0.197441
0.194364
0.192175
0.190818
0.190223
0.358898
0.338187
0.318779
0.300909
0.28472
0.270243
0.257427
0.24618
0.236391
0.227949
0.220746
0.21468
0.209663
0.205612
0.202459
0.20014
0.198592
0.197747
0.359213
0.3394
0.321073
0.304257
0.288994
0.275282
0.263075
0.252301
0.242871
0.234693
0.227677
0.221732
0.216776
0.212733
0.209533
0.207111
0.205403
0.204341
0.359413
0.34018
0.322595
0.30655
0.292002
0.278913
0.267227
0.256877
0.247785
0.239869
0.233048
0.22724
0.222368
0.218358
0.215141
0.212651
0.210824
0.209598
0.359556
0.340742
0.323722
0.308294
0.294346
0.2818
0.270586
0.260632
0.251865
0.244208
0.237585
0.231919
0.227138
0.223169
0.219944
0.217397
0.215468
0.214095
0.359665
0.341178
0.324622
0.309729
0.296327
0.284299
0.273551
0.264003
0.255578
0.2482
0.241795
0.23629
0.231614
0.227696
0.22447
0.221873
0.219843
0.218327
0.359741
0.341487
0.325279
0.31081
0.297865
0.286291
0.27597
0.266805
0.258711
0.25161
0.245426
0.240086
0.235519
0.231657
0.228435
0.22579
0.223667
0.222014
0.359789
0.341683
0.325707
0.311537
0.298931
0.287711
0.277736
0.268892
0.261084
0.254226
0.248237
0.243043
0.238572
0.234756
0.231532
0.228839
0.226626
0.224845
0.359816
0.34179
0.325944
0.31195
0.299556
0.288564
0.27882
0.270197
0.262588
0.255897
0.250041
0.244941
0.240523
0.23672
0.23347
0.230715
0.228405
0.226498
0.359826
0.34183
0.326035
0.312111
0.2998
0.288901
0.279248
0.270709
0.263169
0.256528
0.250697
0.245595
0.241148
0.237289
0.233957
0.231097
0.228662
0.226613
0.359822
0.341812
0.325991
0.312026
0.29966
0.288689
0.27895
0.270308
0.262649
0.255874
0.249896
0.244635
0.240018
0.235981
0.232465
0.229417
0.226792
0.224557
0.359794
0.341697
0.325726
0.311549
0.298916
0.287633
0.277551
0.268546
0.260515
0.253368
0.247024
0.241408
0.236452
0.232095
0.228279
0.224952
0.222071
0.219603
0.359732
0.341442
0.325163
0.310582
0.297474
0.285679
0.275069
0.265542
0.257007
0.249382
0.242592
0.236566
0.231238
0.226545
0.222429
0.218838
0.215725
0.213057
0.359599
0.340906
0.32403
0.308724
0.294837
0.28226
0.270902
0.260679
0.251511
0.243317
0.236021
0.229551
0.223837
0.218812
0.214413
0.210583
0.207271
0.20444
0.35934
0.339877
0.321955
0.305495
0.290469
0.27684
0.264546
0.253511
0.243647
0.234863
0.227071
0.220188
0.214134
0.208831
0.20421
0.200203
0.196753
0.19382
0.358868
0.338038
0.318435
0.300297
0.283762
0.268851
0.255509
0.243632
0.233099
0.223789
0.215588
0.208391
0.202099
0.196623
0.191879
0.18779
0.184289
0.181331
0.358055
0.334926
0.312785
0.292371
0.273986
0.257658
0.243268
0.230636
0.219571
0.209896
0.201454
0.194109
0.187739
0.182237
0.177504
0.173453
0.170006
0.167112
0.356707
0.329802
0.303972
0.280637
0.260157
0.24243
0.227164
0.214022
0.202697
0.192928
0.184502
0.177244
0.171007
0.165665
0.161104
0.157228
0.153952
0.151219
0.354511
0.321312
0.290203
0.263315
0.240721
0.221899
0.206194
0.19301
0.18187
0.172411
0.164356
0.157491
0.151647
0.146683
0.142479
0.138929
0.135947
0.133472
0.350884
0.306547
0.267839
0.236994
0.212804
0.193735
0.178478
0.166057
0.155792
0.147218
0.140007
0.133925
0.128793
0.124466
0.120826
0.117771
0.115217
0.113104
0.342402
0.275846
0.227148
0.193377
0.169625
0.152364
0.139304
0.129045
0.120757
0.113936
0.108261
0.103515
0.0995355
0.0962001
0.0934076
0.0910733
0.0891259
0.0875115
0.259291
0.173076
0.131291
0.107323
0.0919916
0.0815363
0.0740377
0.0684003
0.0639858
0.0604204
0.0574801
0.0550242
0.052959
0.0512167
0.0497448
0.0485003
0.0474472
0.0465559
0.00867383
0.0198966
0.0259637
0.0306902
0.0345919
0.0379346
0.0408339
0.0432997
0.0454079
0.0472223
0.0487938
0.0501639
0.0513661
0.0524282
0.0533698
0.0542013
0.0549355
0.0555818
0.0561488
0.056644
0.057074
0.0574444
0.0577601
0.0580254
0.0582442
0.0584198
0.0585555
0.0586544
0.0587191
0.0587525
0.0587573
0.0587359
0.0586909
0.0586247
0.0585398
0.0584383
0.0583225
0.0581944
0.058056
0.0579091
0.0577555
0.0575967
0.0574342
0.0572692
0.057103
0.0569366
0.0567709
0.0566067
0.0564447
0.0562855
0.0561295
0.0559773
0.055829
0.055685
0.0555455
0.0554105
0.0552802
0.0551546
0.0550336
0.0549174
0.0548057
0.0546985
0.0545958
0.0544973
0.054403
0.0543127
0.0542263
0.0541437
0.0540646
0.0539889
0.0539165
0.0538473
0.053781
0.0537176
0.0536568
0.0535987
0.0535429
0.0534894
0.0534381
0.0533889
0.0533415
0.0532961
0.0532523
0.0532101
0.0531695
0.0531303
0.0530924
0.0530558
0.0530204
0.052986
0.0529527
0.0529203
0.0528889
0.0528582
0.0528283
0.0527991
0.0527706
0.0527426
0.052715
0.0526877
0.0526617
0.0526376
0.0526143
0.0525915
0.0525689
0.0525465
0.0525243
0.0525022
0.0524803
0.0524584
0.0524367
0.052415
0.0523935
0.052372
0.0523505
0.0523291
0.0523078
0.0522864
0.052265
0.0522437
0.0522223
0.0522009
0.0521794
0.0521579
0.0521363
0.0521147
0.0520931
0.0520713
0.0520495
0.0520276
0.0520056
0.0519834
0.0519612
0.0519389
0.0519164
0.0518937
0.0518709
0.0518479
0.0518247
0.0518014
0.0517778
0.051754
0.0517301
0.0517059
0.0516815
0.0516569
0.0516321
0.0516072
0.051582
0.0515566
0.051531
0.0515051
0.0514791
0.0514528
0.0514262
0.0513994
0.0513724
0.051345
0.0513173
0.0512892
0.0512607
0.0512317
0.0512022
0.051172
0.051141
0.0511091
0.0510761
0.0510415
0.051005
0.050966
0.0509237
0.0508768
0.0508233
0.0507602
0.0506819
0.0505776
0.0504247
0.0501699
0.049696
0.0487418
0.0188422
0.0440914
0.057888
0.0682888
0.0767658
0.0838549
0.0898586
0.0949983
0.0994275
0.103262
0.106589
0.109487
0.112005
0.114196
0.116101
0.117755
0.119186
0.120418
0.121471
0.122363
0.12311
0.123723
0.124216
0.124598
0.124878
0.125066
0.125169
0.125195
0.125151
0.125044
0.124879
0.124665
0.124405
0.124107
0.123776
0.123417
0.123034
0.122633
0.122217
0.12179
0.121357
0.120919
0.120481
0.120044
0.11961
0.119182
0.118761
0.118348
0.117945
0.117553
0.117171
0.116801
0.116443
0.116098
0.115765
0.115444
0.115135
0.114839
0.114555
0.114283
0.114022
0.113772
0.113533
0.113304
0.113085
0.112876
0.112676
0.112485
0.112303
0.112128
0.111961
0.111801
0.111649
0.111502
0.111362
0.111228
0.1111
0.110977
0.110859
0.110745
0.110636
0.110531
0.11043
0.110333
0.11024
0.110149
0.110062
0.109978
0.109896
0.109817
0.10974
0.109665
0.109593
0.109522
0.109454
0.109387
0.109321
0.109257
0.109194
0.109132
0.109071
0.109011
0.108952
0.108894
0.108836
0.108779
0.108723
0.108668
0.108614
0.10856
0.108506
0.108453
0.1084
0.108348
0.108296
0.108245
0.108193
0.108142
0.108091
0.108041
0.10799
0.107939
0.107889
0.107838
0.107787
0.107737
0.107686
0.107635
0.107584
0.107533
0.107482
0.107431
0.107379
0.107327
0.107275
0.107223
0.10717
0.107117
0.107063
0.107009
0.106955
0.1069
0.106845
0.10679
0.106734
0.106678
0.106621
0.106564
0.106506
0.106448
0.10639
0.106331
0.106272
0.106212
0.106151
0.10609
0.106029
0.105967
0.105904
0.105841
0.105776
0.105711
0.105645
0.105577
0.105508
0.105438
0.105365
0.10529
0.105211
0.105128
0.10504
0.104943
0.104835
0.10471
0.104558
0.10436
0.104071
0.103602
0.102715
0.101207
0.0248314
0.0572373
0.0742417
0.0867077
0.0968022
0.105278
0.112517
0.118765
0.124193
0.128924
0.133059
0.136678
0.139848
0.142624
0.145051
0.147169
0.149011
0.150604
0.151973
0.153138
0.154117
0.154926
0.155579
0.156089
0.156467
0.156724
0.156872
0.156919
0.156874
0.156749
0.15655
0.156286
0.155966
0.155598
0.155188
0.154743
0.154271
0.153777
0.153267
0.152745
0.152216
0.151684
0.151153
0.150626
0.150104
0.149592
0.149089
0.148598
0.148121
0.147657
0.147208
0.146774
0.146356
0.145953
0.145566
0.145194
0.144837
0.144496
0.144169
0.143856
0.143557
0.143271
0.142998
0.142738
0.142489
0.142251
0.142025
0.141808
0.141601
0.141404
0.141215
0.141035
0.140862
0.140697
0.140539
0.140388
0.140243
0.140104
0.13997
0.139842
0.139719
0.1396
0.139486
0.139376
0.139269
0.139167
0.139067
0.138971
0.138878
0.138787
0.138699
0.138614
0.138531
0.13845
0.13837
0.138293
0.138217
0.138143
0.13807
0.137998
0.137927
0.137857
0.137788
0.13772
0.137652
0.137585
0.137518
0.137453
0.137387
0.137323
0.137259
0.137195
0.137132
0.137069
0.137007
0.136945
0.136883
0.136821
0.136759
0.136698
0.136636
0.136575
0.136513
0.136452
0.13639
0.136328
0.136267
0.136205
0.136142
0.13608
0.136017
0.135955
0.135891
0.135828
0.135764
0.1357
0.135635
0.13557
0.135504
0.135438
0.135372
0.135305
0.135237
0.135169
0.1351
0.135031
0.134962
0.134891
0.13482
0.134749
0.134677
0.134605
0.134532
0.134458
0.134383
0.134308
0.134233
0.134156
0.134079
0.134
0.133921
0.133841
0.13376
0.133677
0.133592
0.133506
0.133417
0.133326
0.133231
0.133131
0.133026
0.132912
0.132787
0.132644
0.132474
0.132259
0.131959
0.131498
0.130704
0.129446
0.028842
0.0658336
0.0849526
0.0987565
0.109869
0.1192
0.127198
0.134133
0.140188
0.145496
0.150161
0.154267
0.157883
0.161066
0.163863
0.166315
0.168457
0.170318
0.171923
0.173294
0.17445
0.175408
0.176185
0.176792
0.177246
0.177557
0.177737
0.177799
0.177755
0.177614
0.177387
0.177086
0.176719
0.176297
0.175829
0.175322
0.174785
0.174225
0.173648
0.173061
0.172468
0.171875
0.171284
0.1707
0.170126
0.169563
0.169014
0.16848
0.167962
0.167462
0.166979
0.166514
0.166067
0.165639
0.165229
0.164836
0.164461
0.164102
0.16376
0.163434
0.163122
0.162826
0.162543
0.162274
0.162018
0.161773
0.16154
0.161318
0.161106
0.160905
0.160712
0.160528
0.160352
0.160184
0.160024
0.15987
0.159723
0.159581
0.159446
0.159316
0.159191
0.15907
0.158954
0.158842
0.158734
0.158629
0.158528
0.15843
0.158335
0.158243
0.158153
0.158066
0.15798
0.157897
0.157816
0.157736
0.157658
0.157581
0.157506
0.157432
0.157359
0.157287
0.157215
0.157143
0.157073
0.157003
0.156933
0.156864
0.156796
0.156728
0.15666
0.156593
0.156526
0.15646
0.156394
0.156328
0.156262
0.156197
0.156131
0.156066
0.156
0.155935
0.155869
0.155804
0.155738
0.155672
0.155606
0.15554
0.155473
0.155406
0.155339
0.155272
0.155204
0.155136
0.155067
0.154998
0.154929
0.154859
0.154788
0.154717
0.154645
0.154573
0.1545
0.154427
0.154353
0.154278
0.154203
0.154127
0.154051
0.153974
0.153896
0.153818
0.153739
0.153659
0.153579
0.153497
0.153415
0.153333
0.153249
0.153164
0.153078
0.152992
0.152903
0.152814
0.152723
0.152629
0.152534
0.152436
0.152334
0.152227
0.152115
0.151995
0.151863
0.151715
0.151542
0.151326
0.151037
0.150611
0.149933
0.148935
0.0316257
0.0718895
0.092512
0.107301
0.119176
0.129155
0.137729
0.145188
0.151725
0.157479
0.162558
0.167046
0.171013
0.174517
0.177607
0.180323
0.182702
0.184772
0.18656
0.188089
0.189377
0.190444
0.191306
0.191978
0.192475
0.192811
0.193
0.193055
0.19299
0.192817
0.192548
0.192197
0.191774
0.191291
0.190759
0.190187
0.189585
0.18896
0.18832
0.187672
0.187022
0.186374
0.185733
0.185103
0.184486
0.183885
0.183301
0.182737
0.182192
0.181668
0.181165
0.180683
0.180222
0.179782
0.179361
0.178961
0.17858
0.178217
0.177872
0.177544
0.177232
0.176936
0.176655
0.176388
0.176134
0.175892
0.175663
0.175445
0.175237
0.17504
0.174852
0.174673
0.174502
0.174338
0.174183
0.174034
0.173891
0.173754
0.173623
0.173498
0.173377
0.173261
0.173149
0.173041
0.172937
0.172836
0.172739
0.172644
0.172552
0.172463
0.172377
0.172292
0.17221
0.172129
0.17205
0.171973
0.171898
0.171823
0.17175
0.171678
0.171607
0.171536
0.171466
0.171397
0.171327
0.171259
0.17119
0.171123
0.171055
0.170988
0.170922
0.170856
0.17079
0.170724
0.170659
0.170594
0.170529
0.170464
0.170399
0.170334
0.170269
0.170204
0.170139
0.170073
0.170008
0.169942
0.169876
0.16981
0.169744
0.169677
0.16961
0.169542
0.169475
0.169406
0.169338
0.169269
0.169199
0.169129
0.169058
0.168987
0.168915
0.168843
0.16877
0.168696
0.168622
0.168547
0.168471
0.168395
0.168318
0.168241
0.168162
0.168083
0.168004
0.167923
0.167842
0.16776
0.167678
0.167594
0.16751
0.167424
0.167337
0.16725
0.167161
0.16707
0.166978
0.166884
0.166788
0.166689
0.166586
0.16648
0.166367
0.166247
0.166117
0.165971
0.165802
0.165596
0.165326
0.164944
0.164374
0.163584
0.0336933
0.0764106
0.0981522
0.113707
0.126197
0.136708
0.14576
0.15366
0.160604
0.166738
0.172169
0.17698
0.181243
0.185017
0.188349
0.191281
0.193848
0.196082
0.198007
0.199648
0.201025
0.202158
0.203064
0.203761
0.204264
0.204588
0.204751
0.204766
0.20465
0.204416
0.204079
0.203654
0.203154
0.202592
0.201979
0.201327
0.200647
0.199947
0.199237
0.198522
0.197809
0.197105
0.196413
0.195736
0.195078
0.194441
0.193827
0.193236
0.192669
0.192127
0.19161
0.191117
0.190648
0.190203
0.189779
0.189378
0.188998
0.188637
0.188296
0.187973
0.187668
0.187378
0.187104
0.186845
0.1866
0.186367
0.186147
0.185938
0.18574
0.185552
0.185373
0.185203
0.185041
0.184887
0.184741
0.1846
0.184467
0.184339
0.184216
0.184099
0.183986
0.183878
0.183773
0.183673
0.183576
0.183483
0.183392
0.183304
0.183219
0.183136
0.183056
0.182977
0.182901
0.182826
0.182753
0.182681
0.182611
0.182542
0.182473
0.182406
0.18234
0.182274
0.182208
0.182143
0.182078
0.182014
0.18195
0.181886
0.181823
0.18176
0.181697
0.181635
0.181573
0.181511
0.181449
0.181388
0.181326
0.181265
0.181203
0.181142
0.18108
0.181019
0.180957
0.180895
0.180833
0.18077
0.180708
0.180645
0.180582
0.180518
0.180454
0.18039
0.180326
0.180261
0.180195
0.180129
0.180063
0.179996
0.179928
0.17986
0.179792
0.179722
0.179652
0.179582
0.179511
0.179439
0.179367
0.179294
0.17922
0.179146
0.179071
0.178995
0.178919
0.178841
0.178763
0.178685
0.178605
0.178525
0.178443
0.178361
0.178277
0.178193
0.178107
0.17802
0.177931
0.177841
0.177748
0.177653
0.177554
0.177452
0.177344
0.177229
0.177105
0.176967
0.176808
0.176617
0.176372
0.176038
0.175564
0.174939
0.0354327
0.0800723
0.102694
0.118866
0.131872
0.142842
0.152314
0.160602
0.167908
0.174375
0.180113
0.185207
0.189729
0.193737
0.197274
0.200383
0.203099
0.205453
0.207472
0.209181
0.210603
0.211757
0.212663
0.213339
0.213804
0.214076
0.214171
0.214107
0.213902
0.213572
0.213135
0.212605
0.211998
0.211329
0.210612
0.209859
0.209081
0.208289
0.207492
0.206698
0.205913
0.205142
0.204391
0.203663
0.20296
0.202284
0.201637
0.20102
0.200431
0.199872
0.199342
0.19884
0.198366
0.197918
0.197495
0.197096
0.196719
0.196365
0.196031
0.195717
0.19542
0.195141
0.194878
0.19463
0.194396
0.194175
0.193967
0.19377
0.193584
0.193408
0.193242
0.193084
0.192934
0.192791
0.192656
0.192527
0.192405
0.192288
0.192176
0.192069
0.191966
0.191868
0.191773
0.191682
0.191595
0.19151
0.191428
0.191349
0.191272
0.191198
0.191125
0.191055
0.190986
0.190918
0.190853
0.190788
0.190725
0.190662
0.190601
0.19054
0.19048
0.190421
0.190361
0.190303
0.190244
0.190186
0.190127
0.19007
0.190012
0.189955
0.189898
0.189842
0.189785
0.189729
0.189673
0.189617
0.189561
0.189505
0.189449
0.189393
0.189337
0.18928
0.189224
0.189167
0.189111
0.189054
0.188996
0.188939
0.188881
0.188823
0.188764
0.188705
0.188646
0.188586
0.188526
0.188466
0.188405
0.188343
0.188281
0.188218
0.188155
0.188091
0.188027
0.187962
0.187896
0.18783
0.187764
0.187696
0.187628
0.187559
0.18749
0.18742
0.187349
0.187278
0.187205
0.187132
0.187059
0.186984
0.186909
0.186832
0.186755
0.186676
0.186597
0.186516
0.186433
0.186349
0.186263
0.186174
0.186083
0.185987
0.185887
0.185781
0.185666
0.18554
0.185395
0.185223
0.185007
0.18472
0.184331
0.183838
0.0371366
0.0833475
0.10673
0.123447
0.136911
0.148291
0.158139
0.166776
0.174405
0.181171
0.187182
0.192523
0.197264
0.201464
0.205168
0.208421
0.211248
0.213683
0.215755
0.217489
0.218909
0.220038
0.220897
0.221507
0.221889
0.222062
0.222046
0.221861
0.221526
0.221061
0.220484
0.219814
0.219067
0.218261
0.21741
0.216529
0.21563
0.214724
0.213821
0.212929
0.212056
0.211206
0.210384
0.209594
0.208838
0.208117
0.207432
0.206783
0.20617
0.205591
0.205047
0.204535
0.204054
0.203603
0.203181
0.202785
0.202413
0.202066
0.20174
0.201435
0.201149
0.200882
0.20063
0.200395
0.200174
0.199966
0.199771
0.199588
0.199415
0.199252
0.199099
0.198954
0.198817
0.198688
0.198565
0.198448
0.198338
0.198232
0.198132
0.198036
0.197945
0.197857
0.197773
0.197693
0.197615
0.197541
0.197468
0.197399
0.197331
0.197266
0.197202
0.19714
0.19708
0.197021
0.196963
0.196907
0.196851
0.196797
0.196743
0.19669
0.196638
0.196585
0.196533
0.196482
0.19643
0.196379
0.196328
0.196277
0.196227
0.196176
0.196126
0.196077
0.196027
0.195977
0.195928
0.195878
0.195829
0.19578
0.19573
0.195681
0.195631
0.195581
0.195531
0.195481
0.195431
0.195381
0.19533
0.195279
0.195227
0.195176
0.195124
0.195072
0.195019
0.194966
0.194912
0.194858
0.194804
0.194749
0.194694
0.194638
0.194582
0.194525
0.194467
0.194409
0.194351
0.194292
0.194232
0.194172
0.194111
0.194049
0.193987
0.193924
0.193861
0.193797
0.193732
0.193666
0.1936
0.193533
0.193465
0.193396
0.193326
0.193256
0.193184
0.193111
0.193036
0.192961
0.192883
0.192803
0.19272
0.192634
0.192544
0.192449
0.192346
0.192233
0.192104
0.191953
0.191767
0.191527
0.191211
0.190826
0.0389367
0.086644
0.110755
0.127985
0.141874
0.153629
0.163816
0.172759
0.180672
0.187697
0.193942
0.19949
0.204412
0.208763
0.212592
0.21594
0.21884
0.221317
0.223399
0.225114
0.226488
0.227547
0.228314
0.228812
0.229065
0.229095
0.228925
0.228576
0.22807
0.22743
0.226677
0.22583
0.224909
0.223933
0.222918
0.22188
0.220833
0.219788
0.218757
0.217747
0.216767
0.215822
0.214915
0.214051
0.21323
0.212454
0.211723
0.211036
0.210392
0.209789
0.209226
0.2087
0.208211
0.207755
0.207331
0.206936
0.206569
0.206227
0.205909
0.205613
0.205337
0.20508
0.204841
0.204617
0.204409
0.204214
0.204032
0.203862
0.203703
0.203553
0.203413
0.203281
0.203157
0.20304
0.20293
0.202825
0.202727
0.202633
0.202545
0.20246
0.20238
0.202303
0.20223
0.20216
0.202093
0.202028
0.201966
0.201905
0.201847
0.201791
0.201737
0.201684
0.201632
0.201582
0.201532
0.201484
0.201437
0.20139
0.201345
0.201299
0.201255
0.20121
0.201166
0.201121
0.201077
0.201034
0.20099
0.200947
0.200904
0.200861
0.200818
0.200775
0.200733
0.20069
0.200648
0.200606
0.200563
0.200521
0.200479
0.200436
0.200393
0.200351
0.200308
0.200265
0.200222
0.200178
0.200135
0.200091
0.200046
0.200002
0.199957
0.199912
0.199867
0.199821
0.199775
0.199728
0.199681
0.199634
0.199586
0.199537
0.199488
0.199439
0.199389
0.199339
0.199288
0.199237
0.199185
0.199132
0.199079
0.199026
0.198972
0.198917
0.198862
0.198806
0.198749
0.198692
0.198634
0.198575
0.198516
0.198456
0.198395
0.198333
0.19827
0.198206
0.19814
0.198074
0.198005
0.197935
0.197863
0.197787
0.197708
0.197625
0.197535
0.197436
0.197325
0.197196
0.197039
0.196842
0.19659
0.196291
0.0409827
0.0902794
0.115147
0.132886
0.147178
0.159273
0.169756
0.17896
0.187109
0.194344
0.200773
0.20648
0.211535
0.215992
0.2199
0.223297
0.226219
0.228695
0.230746
0.2324
0.233685
0.234631
0.235264
0.235609
0.235693
0.235541
0.235178
0.234627
0.233915
0.233065
0.232101
0.231045
0.229918
0.228741
0.227534
0.226311
0.22509
0.223882
0.2227
0.221553
0.220447
0.219389
0.218382
0.217429
0.216532
0.21569
0.214902
0.214168
0.213485
0.212852
0.212264
0.211721
0.211218
0.210754
0.210325
0.209928
0.209562
0.209224
0.208911
0.208622
0.208354
0.208107
0.207878
0.207665
0.207468
0.207285
0.207115
0.206957
0.206809
0.206672
0.206544
0.206424
0.206312
0.206207
0.206108
0.206015
0.205928
0.205846
0.205768
0.205694
0.205624
0.205558
0.205495
0.205434
0.205377
0.205321
0.205268
0.205217
0.205168
0.205121
0.205075
0.20503
0.204987
0.204945
0.204904
0.204864
0.204824
0.204785
0.204747
0.20471
0.204672
0.204635
0.204598
0.204561
0.204525
0.204488
0.204452
0.204416
0.20438
0.204345
0.204309
0.204274
0.204238
0.204203
0.204168
0.204132
0.204097
0.204062
0.204026
0.203991
0.203955
0.20392
0.203884
0.203848
0.203812
0.203776
0.203739
0.203702
0.203665
0.203628
0.20359
0.203553
0.203514
0.203476
0.203437
0.203398
0.203358
0.203318
0.203278
0.203237
0.203196
0.203155
0.203113
0.20307
0.203027
0.202984
0.20294
0.202895
0.202851
0.202805
0.202759
0.202713
0.202666
0.202618
0.20257
0.202522
0.202472
0.202422
0.202372
0.20232
0.202268
0.202215
0.202162
0.202107
0.202051
0.201994
0.201936
0.201876
0.201814
0.201749
0.201682
0.20161
0.201533
0.20145
0.201356
0.201248
0.201119
0.20096
0.200763
0.200535
0.0433968
0.0944716
0.120154
0.138411
0.153083
0.165478
0.176207
0.185618
0.193933
0.201314
0.207866
0.213673
0.218804
0.223313
0.227248
0.230647
0.233545
0.23597
0.23795
0.239502
0.240661
0.241458
0.241922
0.242083
0.241967
0.241603
0.241019
0.24024
0.239295
0.238209
0.237008
0.235718
0.234361
0.23296
0.231536
0.230108
0.228691
0.2273
0.225947
0.224643
0.223394
0.222207
0.221085
0.220031
0.219044
0.218125
0.217272
0.216482
0.215753
0.215081
0.214463
0.213896
0.213375
0.212897
0.212459
0.212057
0.211689
0.211351
0.211041
0.210756
0.210494
0.210254
0.210032
0.209828
0.209641
0.209467
0.209307
0.209159
0.209022
0.208895
0.208777
0.208668
0.208566
0.208471
0.208383
0.2083
0.208223
0.20815
0.208082
0.208018
0.207957
0.2079
0.207846
0.207794
0.207745
0.207698
0.207654
0.207611
0.20757
0.20753
0.207492
0.207455
0.20742
0.207385
0.207351
0.207318
0.207286
0.207255
0.207224
0.207193
0.207163
0.207132
0.207102
0.207072
0.207043
0.207013
0.206984
0.206954
0.206925
0.206896
0.206868
0.206839
0.20681
0.206781
0.206753
0.206724
0.206696
0.206667
0.206638
0.20661
0.206581
0.206552
0.206523
0.206493
0.206464
0.206434
0.206405
0.206375
0.206345
0.206314
0.206283
0.206253
0.206221
0.20619
0.206158
0.206126
0.206094
0.206061
0.206028
0.205995
0.205961
0.205927
0.205892
0.205857
0.205822
0.205786
0.20575
0.205713
0.205676
0.205639
0.205601
0.205563
0.205524
0.205484
0.205444
0.205404
0.205363
0.205322
0.20528
0.205237
0.205194
0.20515
0.205105
0.205059
0.205013
0.204965
0.204917
0.204866
0.204815
0.204761
0.204705
0.204645
0.204581
0.204512
0.204435
0.204347
0.204244
0.204119
0.203967
0.203796
0.0462338
0.0993118
0.125874
0.144647
0.159665
0.172303
0.183207
0.192745
0.201155
0.208605
0.215207
0.221044
0.226187
0.230689
0.234598
0.237949
0.240778
0.243112
0.244979
0.246397
0.2474
0.248023
0.248298
0.248256
0.247925
0.247336
0.246518
0.245499
0.244309
0.242976
0.241528
0.239991
0.238392
0.236755
0.235102
0.233453
0.231827
0.23024
0.228703
0.227229
0.225825
0.224496
0.223248
0.22208
0.220995
0.219989
0.219061
0.218208
0.217425
0.216709
0.216055
0.215458
0.214914
0.214418
0.213967
0.213556
0.213181
0.21284
0.21253
0.212246
0.211987
0.211751
0.211535
0.211337
0.211156
0.21099
0.210837
0.210697
0.210569
0.21045
0.210341
0.21024
0.210147
0.21006
0.20998
0.209906
0.209837
0.209772
0.209712
0.209656
0.209603
0.209553
0.209507
0.209463
0.209421
0.209382
0.209344
0.209308
0.209274
0.209242
0.20921
0.20918
0.209151
0.209123
0.209095
0.209069
0.209043
0.209018
0.208993
0.208968
0.208944
0.20892
0.208896
0.208872
0.208848
0.208825
0.208802
0.208778
0.208755
0.208733
0.20871
0.208687
0.208664
0.208642
0.208619
0.208596
0.208574
0.208551
0.208528
0.208506
0.208483
0.20846
0.208437
0.208414
0.20839
0.208367
0.208343
0.20832
0.208296
0.208271
0.208247
0.208223
0.208198
0.208173
0.208147
0.208122
0.208096
0.20807
0.208043
0.208017
0.20799
0.207962
0.207935
0.207907
0.207879
0.20785
0.207821
0.207791
0.207762
0.207732
0.207701
0.20767
0.207639
0.207607
0.207575
0.207542
0.207509
0.207476
0.207442
0.207407
0.207372
0.207336
0.2073
0.207263
0.207225
0.207186
0.207147
0.207106
0.207064
0.20702
0.206974
0.206926
0.206874
0.206818
0.206757
0.206687
0.206606
0.206509
0.206396
0.20627
0.0494638
0.104738
0.132222
0.151488
0.166793
0.179596
0.190587
0.200162
0.208574
0.216005
0.22257
0.228361
0.233446
0.23788
0.241708
0.244967
0.247687
0.249898
0.251624
0.252885
0.25372
0.254164
0.254249
0.254007
0.253467
0.252661
0.251618
0.250368
0.248942
0.24737
0.245681
0.243905
0.242067
0.240195
0.238314
0.236444
0.234607
0.232819
0.231094
0.229445
0.227879
0.226404
0.225022
0.223735
0.222544
0.221446
0.220438
0.219515
0.218674
0.217908
0.217213
0.216582
0.216011
0.215494
0.215026
0.214602
0.214219
0.213872
0.213557
0.213272
0.213014
0.212779
0.212565
0.212371
0.212194
0.212033
0.211886
0.211752
0.211629
0.211517
0.211414
0.21132
0.211233
0.211153
0.21108
0.211012
0.210949
0.210891
0.210837
0.210787
0.210741
0.210698
0.210657
0.210619
0.210583
0.21055
0.210518
0.210488
0.21046
0.210433
0.210407
0.210382
0.210358
0.210335
0.210313
0.210292
0.210271
0.210251
0.210232
0.210212
0.210193
0.210174
0.210155
0.210137
0.210118
0.2101
0.210082
0.210064
0.210046
0.210028
0.210011
0.209993
0.209975
0.209958
0.20994
0.209923
0.209905
0.209888
0.20987
0.209853
0.209835
0.209818
0.2098
0.209782
0.209764
0.209746
0.209727
0.209709
0.209691
0.209672
0.209653
0.209634
0.209615
0.209595
0.209576
0.209556
0.209536
0.209515
0.209495
0.209474
0.209453
0.209432
0.20941
0.209388
0.209366
0.209344
0.209321
0.209298
0.209275
0.209251
0.209227
0.209203
0.209178
0.209153
0.209128
0.209102
0.209076
0.20905
0.209023
0.208996
0.208968
0.20894
0.208911
0.208881
0.208851
0.208821
0.208789
0.208757
0.208723
0.208689
0.208652
0.208614
0.208573
0.208529
0.208481
0.208427
0.208365
0.208293
0.20821
0.20812
0.0529669
0.110521
0.138915
0.158613
0.174114
0.186978
0.197948
0.207451
0.215764
0.223075
0.229514
0.235176
0.240134
0.244442
0.248143
0.251272
0.253858
0.25593
0.257503
0.258612
0.259293
0.25958
0.259503
0.259093
0.258378
0.25739
0.256158
0.254713
0.253084
0.251304
0.249403
0.247412
0.245359
0.243273
0.24118
0.239104
0.237066
0.235087
0.233181
0.231361
0.229637
0.228016
0.226502
0.225096
0.223798
0.222606
0.221515
0.220522
0.219619
0.218802
0.218063
0.217397
0.216796
0.216255
0.215768
0.215329
0.214935
0.214579
0.214259
0.21397
0.21371
0.213474
0.213261
0.213069
0.212894
0.212736
0.212593
0.212462
0.212344
0.212236
0.212137
0.212047
0.211965
0.21189
0.211822
0.211759
0.211701
0.211648
0.211599
0.211554
0.211512
0.211473
0.211437
0.211404
0.211373
0.211344
0.211317
0.211291
0.211267
0.211244
0.211223
0.211202
0.211183
0.211164
0.211146
0.211129
0.211113
0.211097
0.211081
0.211066
0.211051
0.211036
0.211021
0.211007
0.210993
0.210979
0.210965
0.210951
0.210937
0.210924
0.21091
0.210897
0.210884
0.21087
0.210857
0.210844
0.210831
0.210818
0.210804
0.210791
0.210778
0.210764
0.210751
0.210738
0.210724
0.21071
0.210696
0.210683
0.210669
0.210654
0.21064
0.210626
0.210611
0.210597
0.210582
0.210567
0.210551
0.210536
0.21052
0.210505
0.210489
0.210472
0.210456
0.210439
0.210423
0.210405
0.210388
0.210371
0.210353
0.210335
0.210316
0.210298
0.210279
0.21026
0.21024
0.210221
0.210201
0.21018
0.210159
0.210138
0.210117
0.210095
0.210073
0.21005
0.210027
0.210003
0.209979
0.209954
0.209928
0.209901
0.209873
0.209843
0.209812
0.209778
0.209741
0.209701
0.209655
0.209603
0.209544
0.209482
0.0565347
0.116262
0.145467
0.165477
0.181045
0.193836
0.204655
0.213967
0.222068
0.229154
0.235373
0.24083
0.245598
0.249733
0.253275
0.256259
0.258714
0.260648
0.262099
0.263099
0.263681
0.263873
0.2637
0.26319
0.26237
0.261268
0.259912
0.258334
0.256563
0.254631
0.25257
0.250411
0.248185
0.245923
0.243652
0.2414
0.239188
0.23704
0.234971
0.232997
0.231128
0.229372
0.227734
0.226216
0.224817
0.223535
0.222365
0.221303
0.220341
0.219473
0.218691
0.217988
0.217358
0.216792
0.216286
0.215831
0.215425
0.21506
0.214733
0.214439
0.214175
0.213938
0.213724
0.213532
0.213358
0.213201
0.21306
0.212931
0.212815
0.21271
0.212615
0.212528
0.212449
0.212378
0.212312
0.212253
0.212198
0.212149
0.212103
0.212062
0.212023
0.211988
0.211956
0.211926
0.211898
0.211872
0.211848
0.211826
0.211805
0.211786
0.211768
0.21175
0.211734
0.211719
0.211704
0.21169
0.211677
0.211664
0.211651
0.211639
0.211627
0.211616
0.211604
0.211593
0.211582
0.211572
0.211561
0.211551
0.21154
0.21153
0.21152
0.21151
0.2115
0.21149
0.21148
0.21147
0.21146
0.211451
0.211441
0.211431
0.211421
0.211411
0.211401
0.211391
0.211381
0.211371
0.211361
0.211351
0.21134
0.21133
0.211319
0.211309
0.211298
0.211287
0.211276
0.211265
0.211254
0.211242
0.211231
0.211219
0.211207
0.211195
0.211183
0.211171
0.211158
0.211145
0.211133
0.211119
0.211106
0.211093
0.211079
0.211065
0.211051
0.211037
0.211022
0.211007
0.210992
0.210977
0.210961
0.210945
0.210929
0.210913
0.210896
0.210879
0.210861
0.210843
0.210825
0.210806
0.210786
0.210766
0.210745
0.210723
0.210699
0.210674
0.210647
0.210617
0.210585
0.210548
0.210508
0.210467
0.0599851
0.121548
0.151349
0.171477
0.186928
0.199479
0.209997
0.218976
0.22673
0.233468
0.239364
0.244533
0.249056
0.252987
0.25637
0.259227
0.261571
0.26344
0.264862
0.265859
0.266453
0.266661
0.266506
0.266007
0.265188
0.264074
0.262692
0.26107
0.259241
0.257234