/*--------------------------------*- C++ -*----------------------------------*\
  =========                 |
  \\      /  F ield         | OpenFOAM: The Open Source CFD Toolbox
   \\    /   O peration     | Website:  https://openfoam.org
    \\  /    A nd           | Version:  6
     \\/     M anipulation  |
\*---------------------------------------------------------------------------*/
FoamFile
{
    version     2.0;
    format      ascii;
    class       volScalarField;
    location    "0.02";
    object      nut;
}
// * * * * * * * * * * * * * * * * * * * * * * * * * * * * * * * * * * * * * //

dimensions      [0 2 -1 0 0 0 0];

internalField   nonuniform List<scalar> 
12225
(
1.77715e-05
1.42678e-05
1.23532e-05
1.11701e-05
1.03754e-05
9.815e-06
9.40174e-06
9.08262e-06
8.82651e-06
8.61732e-06
8.44442e-06
8.30227e-06
8.18856e-06
8.10314e-06
8.04812e-06
8.02851e-06
8.06365e-06
8.19698e-06
0.000144885
0.000101949
8.80098e-05
8.07524e-05
7.64287e-05
7.36125e-05
7.15077e-05
6.97438e-05
6.82164e-05
6.69252e-05
6.58204e-05
6.4928e-05
6.42688e-05
6.38668e-05
6.37674e-05
6.40524e-05
6.49257e-05
6.67119e-05
0.000323399
0.000223727
0.000190092
0.000173068
0.000162843
0.00015614
0.000151362
0.000147687
0.000144759
0.000142457
0.000140635
0.0001393
0.000138481
0.000138234
0.000138665
0.000139968
0.000142523
0.000146904
0.000494064
0.00035548
0.000299898
0.000270429
0.000252357
0.000240365
0.00023191
0.000225648
0.000220914
0.000217324
0.000214654
0.000212839
0.000211873
0.000211805
0.000212757
0.000214956
0.000218792
0.000224757
0.000624567
0.000478983
0.000407969
0.000367267
0.00034131
0.000323661
0.000311093
0.000301843
0.000294946
0.000289769
0.000286011
0.000283516
0.00028222
0.000282135
0.00028336
0.000286093
0.000290643
0.000297327
0.000713201
0.0005837
0.000507251
0.000459199
0.000426951
0.000404295
0.000387839
0.000375627
0.00036643
0.000359536
0.000354537
0.000351191
0.000349373
0.000349047
0.000350264
0.000353159
0.000357932
0.000364731
0.000769406
0.000665946
0.000593118
0.000542627
0.000506695
0.000480457
0.000460904
0.000446102
0.000434813
0.000426284
0.000420038
0.000415774
0.000413314
0.000412571
0.000413542
0.000416289
0.000420904
0.000427408
0.000803549
0.00072668
0.000663411
0.000615021
0.000578342
0.000550387
0.000528889
0.000512228
0.000499323
0.000489446
0.000482109
0.000476985
0.000473859
0.000472607
0.000473172
0.000475549
0.00047974
0.000485675
0.000823714
0.000769297
0.000718113
0.00067511
0.000640339
0.000612574
0.000590473
0.000572919
0.000559067
0.000548299
0.00054017
0.000534363
0.000530654
0.000528892
0.00052898
0.000530859
0.000534465
0.000539669
0.000835401
0.000797953
0.000758732
0.000722832
0.000691893
0.000665987
0.000644624
0.0006272
0.000613166
0.000602068
0.000593551
0.000587338
0.000583217
0.00058103
0.000580658
0.000582003
0.000584959
0.000589364
0.000842092
0.000816545
0.000787619
0.000759127
0.000733074
0.000710228
0.000690708
0.000674346
0.000660883
0.000650049
0.000641596
0.000635312
0.000631017
0.000628562
0.000627819
0.000628672
0.000630994
0.00063461
0.000845583
0.000827278
0.000805715
0.000783378
0.000761997
0.000742525
0.000725377
0.000710659
0.00069832
0.00068824
0.000680271
0.000674267
0.000670086
0.000667597
0.000666679
0.000667212
0.000669065
0.00067207
0.000847695
0.000834276
0.000818315
0.000801206
0.000784209
0.000768204
0.000753708
0.000740981
0.000730117
0.000721111
0.000713902
0.000708403
0.000704512
0.000702123
0.000701128
0.000701413
0.000702852
0.000705288
0.000849057
0.000839105
0.000827587
0.000815096
0.000802367
0.000790044
0.000778597
0.000768327
0.000759405
0.000751903
0.000745827
0.000741143
0.000737787
0.000735683
0.00073474
0.000734861
0.000735933
0.000737814
0.00084986
0.000842117
0.000833731
0.000824846
0.000815782
0.000806902
0.000798528
0.000790906
0.000784202
0.000778511
0.000773869
0.000770274
0.000767692
0.000766067
0.000765334
0.000765414
0.000766214
0.000767611
0.000850286
0.000843791
0.000837338
0.000830892
0.000824537
0.000818416
0.00081269
0.000807497
0.000802941
0.000799088
0.000795964
0.000793569
0.000791878
0.000790851
0.000790439
0.000790581
0.000791205
0.00079221
0.000850485
0.000844599
0.000839156
0.000834089
0.000829387
0.000825075
0.000821195
0.00081779
0.000814888
0.0008125
0.000810619
0.000809223
0.000808281
0.000807754
0.000807601
0.000807776
0.000808225
0.000808864
0.000850556
0.000844889
0.000839828
0.000835309
0.000831297
0.000827773
0.000824724
0.000822137
0.00081999
0.000818253
0.000816891
0.000815861
0.000815122
0.000814633
0.000814356
0.000814258
0.000814296
0.000814406
0.00085053
0.000844783
0.000839576
0.000834836
0.000830523
0.000826615
0.000823101
0.000819969
0.0008172
0.000814767
0.000812638
0.000810777
0.000809151
0.000807729
0.000806483
0.000805391
0.000804427
0.000803542
0.000850325
0.000843943
0.000837659
0.000831398
0.00082518
0.000819073
0.000813162
0.000807523
0.000802209
0.000797253
0.000792665
0.000788445
0.000784581
0.000781056
0.000777854
0.000774955
0.000772335
0.000769951
0.000849758
0.000841731
0.000832904
0.000823411
0.000813542
0.00080362
0.000793915
0.000784629
0.000775889
0.000767763
0.000760279
0.000753436
0.000747216
0.000741591
0.000736527
0.000731988
0.000727935
0.000724312
0.0008482
0.000836081
0.000821708
0.000806053
0.00079007
0.000774468
0.000759693
0.000745983
0.000733428
0.000722036
0.000711764
0.000702548
0.000694315
0.000686986
0.000680485
0.000674739
0.000669679
0.000665229
0.000844107
0.000822805
0.000798042
0.000772688
0.000748495
0.000726297
0.000706366
0.000688668
0.000673037
0.000659264
0.000647143
0.000636488
0.000627133
0.000618933
0.000611759
0.000605498
0.00060005
0.000595321
0.000833794
0.000794232
0.000753303
0.000715913
0.000683442
0.000655799
0.000632397
0.000612546
0.000595621
0.000581108
0.000568606
0.000557801
0.000548446
0.000540344
0.00053333
0.000527265
0.000522034
0.000517535
0.000809066
0.000738618
0.000678325
0.000630564
0.000593122
0.000563546
0.000539852
0.000520552
0.00050457
0.000491149
0.000479758
0.000470019
0.000461659
0.000454467
0.000448278
0.000442953
0.000438383
0.000434474
0.000753668
0.000642553
0.000567962
0.000517176
0.000481023
0.000454289
0.000433839
0.000417688
0.000404569
0.00039367
0.000384466
0.000376614
0.000369877
0.000364081
0.000359094
0.000354804
0.000351124
0.000347982
0.000641456
0.000499012
0.000426523
0.000383577
0.000355308
0.000335462
0.000320783
0.000309384
0.000300156
0.000292448
0.000285876
0.000280209
0.000275299
0.000271041
0.000267355
0.00026417
0.000261428
0.000259087
0.000448556
0.000320083
0.000270086
0.000243168
0.000226308
0.000214904
0.000206619
0.000200138
0.000194754
0.000190108
0.000186023
0.00018241
0.00017922
0.000176417
0.000173968
0.000171841
0.000170005
0.000168435
0.000203086
0.000143482
0.000122861
0.000111545
0.000104588
0.000100067
9.67879e-05
9.40891e-05
9.16886e-05
8.94976e-05
8.74987e-05
8.56923e-05
8.40788e-05
8.26546e-05
8.14106e-05
8.03332e-05
7.94069e-05
7.86137e-05
2.40289e-05
1.96316e-05
1.7098e-05
1.54579e-05
1.43105e-05
1.34725e-05
1.2838e-05
1.23384e-05
1.19293e-05
1.15831e-05
1.12827e-05
1.10181e-05
1.07833e-05
1.05746e-05
1.03895e-05
1.02259e-05
1.00821e-05
9.9565e-06
5.0451e-06
1.63597e-05
1.87643e-05
2.04521e-05
2.17378e-05
2.27646e-05
2.36706e-05
2.4425e-05
2.50583e-05
2.55958e-05
2.60556e-05
2.64522e-05
2.67972e-05
2.71057e-05
2.73843e-05
2.76329e-05
2.78555e-05
2.80538e-05
2.82294e-05
2.83841e-05
2.85193e-05
2.86363e-05
2.87363e-05
2.88203e-05
2.88892e-05
2.8944e-05
2.89855e-05
2.90145e-05
2.90318e-05
2.90383e-05
2.90348e-05
2.9022e-05
2.90009e-05
2.89721e-05
2.89364e-05
2.88947e-05
2.88475e-05
2.87958e-05
2.874e-05
2.86809e-05
2.8619e-05
2.85549e-05
2.8489e-05
2.84219e-05
2.8354e-05
2.82856e-05
2.8217e-05
2.81486e-05
2.80805e-05
2.80131e-05
2.79464e-05
2.78807e-05
2.7816e-05
2.77526e-05
2.76903e-05
2.76294e-05
2.75697e-05
2.75115e-05
2.74546e-05
2.7399e-05
2.73449e-05
2.7292e-05
2.72404e-05
2.71901e-05
2.7141e-05
2.70931e-05
2.70464e-05
2.70007e-05
2.69561e-05
2.69124e-05
2.68697e-05
2.68278e-05
2.67868e-05
2.67466e-05
2.67072e-05
2.66684e-05
2.66303e-05
2.65927e-05
2.65558e-05
2.65193e-05
2.64834e-05
2.64479e-05
2.64128e-05
2.6378e-05
2.63436e-05
2.63096e-05
2.62757e-05
2.62422e-05
2.62089e-05
2.61757e-05
2.61428e-05
2.61099e-05
2.60772e-05
2.60446e-05
2.60121e-05
2.59797e-05
2.59473e-05
2.59149e-05
2.58824e-05
2.585e-05
2.58174e-05
2.57853e-05
2.57534e-05
2.57214e-05
2.56894e-05
2.56572e-05
2.56249e-05
2.55925e-05
2.55599e-05
2.55272e-05
2.54943e-05
2.54613e-05
2.54281e-05
2.53947e-05
2.53611e-05
2.53274e-05
2.52934e-05
2.52593e-05
2.5225e-05
2.51904e-05
2.51557e-05
2.51207e-05
2.50855e-05
2.50501e-05
2.50145e-05
2.49786e-05
2.49425e-05
2.49061e-05
2.48696e-05
2.48327e-05
2.47956e-05
2.47583e-05
2.47207e-05
2.46828e-05
2.46447e-05
2.46063e-05
2.45676e-05
2.45286e-05
2.44893e-05
2.44498e-05
2.44099e-05
2.43698e-05
2.43293e-05
2.42886e-05
2.42475e-05
2.42061e-05
2.41645e-05
2.41225e-05
2.40802e-05
2.40376e-05
2.39946e-05
2.39514e-05
2.39078e-05
2.38639e-05
2.38196e-05
2.37751e-05
2.37301e-05
2.36848e-05
2.36392e-05
2.35932e-05
2.35467e-05
2.34999e-05
2.34527e-05
2.3405e-05
2.33568e-05
2.33081e-05
2.32588e-05
2.32089e-05
2.31582e-05
2.31065e-05
2.30538e-05
2.29996e-05
2.29435e-05
2.28847e-05
2.28219e-05
2.27526e-05
2.26714e-05
2.25659e-05
2.24096e-05
2.21435e-05
7.55146e-06
5.71596e-05
9.21949e-05
0.000116857
0.000135751
0.000150842
0.0001632
0.00017362
0.000182552
0.000190289
0.000197029
0.000202927
0.000208085
0.0002126
0.000216552
0.00022
0.000222998
0.000225586
0.000227803
0.00022968
0.000231246
0.000232525
0.00023354
0.000234313
0.000234863
0.000235208
0.000235366
0.000235353
0.000235184
0.000234876
0.000234443
0.000233898
0.000233255
0.000232526
0.000231724
0.00023086
0.000229945
0.000228989
0.000228
0.000226987
0.000225958
0.000224919
0.000223877
0.000222837
0.000221803
0.000220781
0.000219773
0.000218782
0.000217811
0.000216862
0.000215937
0.000215036
0.000214161
0.000213311
0.000212489
0.000211693
0.000210924
0.000210181
0.000209464
0.000208773
0.000208107
0.000207465
0.000206847
0.000206252
0.000205678
0.000205126
0.000204595
0.000204083
0.00020359
0.000203114
0.000202656
0.000202214
0.000201788
0.000201376
0.000200978
0.000200593
0.000200221
0.000199861
0.000199511
0.000199173
0.000198844
0.000198524
0.000198213
0.000197911
0.000197616
0.000197328
0.000197047
0.000196773
0.000196504
0.000196241
0.000195983
0.000195729
0.00019548
0.000195235
0.000194994
0.000194756
0.000194521
0.000194289
0.00019406
0.000193832
0.000193601
0.000193367
0.000193133
0.000192899
0.000192668
0.000192438
0.00019221
0.000191984
0.00019176
0.000191537
0.000191314
0.000191093
0.000190872
0.000190653
0.000190433
0.000190214
0.000189995
0.000189776
0.000189556
0.000189337
0.000189117
0.000188897
0.000188677
0.000188456
0.000188234
0.000188012
0.000187788
0.000187564
0.000187339
0.000187113
0.000186885
0.000186657
0.000186427
0.000186196
0.000185964
0.00018573
0.000185494
0.000185257
0.000185018
0.000184777
0.000184535
0.000184291
0.000184045
0.000183797
0.000183547
0.000183296
0.000183042
0.000182787
0.00018253
0.000182271
0.00018201
0.000181747
0.000181482
0.000181214
0.000180945
0.000180673
0.000180399
0.000180122
0.000179843
0.000179561
0.000179276
0.000178988
0.000178697
0.000178401
0.000178102
0.000177797
0.000177486
0.000177167
0.00017684
0.000176501
0.000176147
0.000175772
0.000175368
0.00017492
0.000174399
0.00017375
0.000172843
0.000171408
0.000168644
0.00016357
8.69644e-06
7.44196e-05
0.000129983
0.000172383
0.000206387
0.000234598
0.000258511
0.000279132
0.000297115
0.000312897
0.000326806
0.000339091
0.000349944
0.000359523
0.000367959
0.000375364
0.000381834
0.000387454
0.000392296
0.00039643
0.000399913
0.000402803
0.000405147
0.000406994
0.000408385
0.000409362
0.000409961
0.000410218
0.000410167
0.00040984
0.000409267
0.000408477
0.000407496
0.000406349
0.000405061
0.000403654
0.000402148
0.000400563
0.000398915
0.000397221
0.000395494
0.000393748
0.000391993
0.00039024
0.000388497
0.000386771
0.00038507
0.000383397
0.000381759
0.000380157
0.000378595
0.000377076
0.0003756
0.000374169
0.000372784
0.000371444
0.00037015
0.000368902
0.000367698
0.000366538
0.000365421
0.000364346
0.000363312
0.000362317
0.00036136
0.00036044
0.000359556
0.000358705
0.000357887
0.0003571
0.000356343
0.000355614
0.000354912
0.000354236
0.000353584
0.000352955
0.000352348
0.000351762
0.000351195
0.000350647
0.000350117
0.000349602
0.000349104
0.00034862
0.000348149
0.000347692
0.000347247
0.000346812
0.000346389
0.000345975
0.000345571
0.000345174
0.000344786
0.000344406
0.000344032
0.000343664
0.000343302
0.000342945
0.000342593
0.000342245
0.000341897
0.000341549
0.000341201
0.000340854
0.000340508
0.000340165
0.000339824
0.000339485
0.000339149
0.000338815
0.000338483
0.000338152
0.000337823
0.000337495
0.000337168
0.000336842
0.000336516
0.000336191
0.000335865
0.00033554
0.000335214
0.000334888
0.000334562
0.000334235
0.000333906
0.000333577
0.000333247
0.000332916
0.000332583
0.000332249
0.000331913
0.000331575
0.000331236
0.000330895
0.000330552
0.000330206
0.000329858
0.000329508
0.000329155
0.000328799
0.000328441
0.00032808
0.000327716
0.00032735
0.000326981
0.000326608
0.000326233
0.000325855
0.000325474
0.00032509
0.000324703
0.000324313
0.00032392
0.000323523
0.000323123
0.000322719
0.000322312
0.000321901
0.000321485
0.000321066
0.000320641
0.000320212
0.000319777
0.000319335
0.000318887
0.00031843
0.000317963
0.000317484
0.00031699
0.000316477
0.000315939
0.000315367
0.000314746
0.000314054
0.000313249
0.000312247
0.000310877
0.000308785
0.000305123
0.000298879
9.42832e-06
8.39996e-05
0.000152154
0.000206481
0.000251267
0.000289186
0.00032187
0.000350405
0.000375526
0.000397752
0.000417468
0.000434974
0.000450507
0.000464266
0.000476419
0.000487113
0.000496477
0.000504628
0.000511671
0.000517701
0.000522805
0.000527064
0.000530551
0.000533335
0.000535479
0.000537043
0.000538082
0.000538646
0.000538786
0.000538546
0.00053797
0.000537098
0.000535969
0.000534616
0.000533075
0.000531375
0.000529544
0.000527608
0.000525591
0.000523513
0.000521394
0.00051925
0.000517096
0.000514944
0.000512806
0.000510691
0.000508607
0.00050656
0.000504556
0.000502599
0.000500692
0.000498838
0.000497039
0.000495296
0.000493609
0.000491978
0.000490404
0.000488886
0.000487423
0.000486014
0.000484658
0.000483353
0.000482098
0.000480892
0.000479732
0.000478617
0.000477545
0.000476515
0.000475525
0.000474572
0.000473656
0.000472775
0.000471927
0.00047111
0.000470323
0.000469564
0.000468832
0.000468126
0.000467443
0.000466784
0.000466146
0.000465528
0.000464929
0.000464348
0.000463784
0.000463236
0.000462703
0.000462183
0.000461677
0.000461183
0.0004607
0.000460228
0.000459765
0.000459312
0.000458867
0.00045843
0.000458
0.000457576
0.000457158
0.000456745
0.000456336
0.000455927
0.000455519
0.000455112
0.000454707
0.000454305
0.000453904
0.000453507
0.000453111
0.000452718
0.000452327
0.000451939
0.000451552
0.000451166
0.000450781
0.000450398
0.000450015
0.000449632
0.00044925
0.000448868
0.000448485
0.000448102
0.000447719
0.000447334
0.000446949
0.000446562
0.000446174
0.000445785
0.000445394
0.000445001
0.000444607
0.00044421
0.000443811
0.00044341
0.000443007
0.000442601
0.000442191
0.00044178
0.000441365
0.000440946
0.000440525
0.0004401
0.000439673
0.000439241
0.000438806
0.000438368
0.000437926
0.000437481
0.000437032
0.00043658
0.000436123
0.000435663
0.000435199
0.000434731
0.000434259
0.000433782
0.000433301
0.000432816
0.000432325
0.000431829
0.000431327
0.000430819
0.000430304
0.000429782
0.00042925
0.000428708
0.000428155
0.000427586
0.000426999
0.000426389
0.000425748
0.000425066
0.000424326
0.000423501
0.000422543
0.000421361
0.000419779
0.000417452
0.000413697
0.000407859
9.93015e-06
9.07897e-05
0.000167575
0.000230254
0.000282782
0.000327817
0.000367036
0.000401553
0.000432134
0.000459331
0.00048356
0.000505143
0.000524347
0.000541395
0.000556481
0.000569776
0.000581435
0.0005916
0.000600399
0.00060795
0.000614362
0.000619735
0.000624162
0.000627729
0.000630514
0.000632591
0.00063403
0.000634895
0.000635245
0.000635138
0.000634626
0.00063376
0.000632586
0.000631148
0.000629486
0.000627638
0.000625638
0.000623516
0.000621302
0.000619021
0.000616694
0.000614342
0.000611981
0.000609626
0.00060729
0.000604983
0.000602713
0.000600489
0.000598314
0.000596194
0.000594133
0.000592131
0.000590191
0.000588314
0.000586501
0.00058475
0.000583061
0.000581433
0.000579867
0.000578358
0.000576908
0.000575513
0.000574172
0.000572884
0.000571645
0.000570456
0.000569312
0.000568213
0.000567157
0.000566142
0.000565165
0.000564226
0.000563322
0.000562452
0.000561613
0.000560805
0.000560025
0.000559273
0.000558546
0.000557843
0.000557164
0.000556506
0.000555868
0.00055525
0.000554649
0.000554065
0.000553498
0.000552945
0.000552406
0.00055188
0.000551366
0.000550863
0.000550371
0.000549888
0.000549414
0.000548949
0.000548491
0.00054804
0.000547595
0.000547155
0.000546719
0.000546285
0.000545852
0.00054542
0.000544991
0.000544563
0.000544138
0.000543715
0.000543294
0.000542876
0.000542459
0.000542045
0.000541633
0.000541221
0.000540811
0.000540402
0.000539994
0.000539586
0.000539178
0.00053877
0.000538362
0.000537953
0.000537544
0.000537133
0.000536722
0.000536309
0.000535894
0.000535478
0.000535061
0.000534641
0.000534219
0.000533795
0.000533368
0.000532939
0.000532507
0.000532073
0.000531635
0.000531194
0.000530749
0.000530302
0.00052985
0.000529395
0.000528936
0.000528474
0.000528008
0.000527538
0.000527064
0.000526586
0.000526104
0.000525618
0.000525128
0.000524634
0.000524135
0.000523632
0.000523124
0.000522611
0.000522094
0.000521571
0.000521043
0.000520509
0.000519968
0.000519421
0.000518866
0.000518302
0.000517729
0.000517144
0.000516546
0.000515932
0.000515299
0.000514639
0.000513947
0.00051321
0.000512411
0.000511521
0.000510492
0.000509235
0.000507586
0.000505244
0.000501697
0.000496586
1.03078e-05
9.61831e-05
0.000179516
0.000248431
0.000306699
0.000357003
0.000401059
0.000440013
0.000474655
0.000505559
0.000533158
0.000557784
0.000579725
0.000599226
0.0006165
0.000631738
0.000645117
0.000656797
0.000666925
0.000675638
0.00068306
0.000689306
0.000694481
0.000698684
0.000702003
0.000704521
0.000706318
0.000707464
0.00070803
0.000708077
0.000707668
0.000706859
0.000705703
0.000704251
0.000702548
0.000700639
0.000698562
0.000696353
0.000694045
0.000691666
0.000689242
0.000686795
0.000684344
0.000681905
0.000679491
0.000677114
0.000674782
0.000672502
0.00067028
0.000668121
0.000666025
0.000663997
0.000662036
0.000660142
0.000658316
0.000656557
0.000654864
0.000653235
0.000651668
0.000650163
0.000648716
0.000647327
0.000645993
0.000644712
0.000643482
0.0006423
0.000641166
0.000640076
0.000639029
0.000638023
0.000637055
0.000636125
0.00063523
0.000634368
0.000633538
0.000632737
0.000631965
0.00063122
0.000630501
0.000629805
0.000629132
0.00062848
0.000627849
0.000627236
0.000626641
0.000626062
0.0006255
0.000624951
0.000624417
0.000623895
0.000623385
0.000622886
0.000622397
0.000621917
0.000621447
0.000620984
0.000620529
0.00062008
0.000619637
0.000619199
0.000618764
0.000618332
0.0006179
0.00061747
0.000617042
0.000616615
0.000616191
0.000615769
0.000615348
0.00061493
0.000614514
0.000614099
0.000613686
0.000613275
0.000612864
0.000612454
0.000612045
0.000611636
0.000611227
0.000610817
0.000610408
0.000609997
0.000609586
0.000609174
0.00060876
0.000608345
0.000607928
0.00060751
0.00060709
0.000606667
0.000606243
0.000605816
0.000605386
0.000604954
0.000604518
0.00060408
0.000603638
0.000603193
0.000602745
0.000602293
0.000601837
0.000601378
0.000600915
0.000600447
0.000599976
0.000599501
0.000599021
0.000598538
0.00059805
0.000597558
0.000597062
0.000596561
0.000596055
0.000595545
0.00059503
0.00059451
0.000593984
0.000593453
0.000592917
0.000592374
0.000591824
0.000591268
0.000590703
0.00059013
0.000589546
0.000588951
0.000588342
0.000587717
0.000587071
0.000586399
0.000585693
0.000584943
0.00058413
0.000583228
0.000582189
0.000580932
0.000579314
0.000577086
0.000573881
0.000569524
1.06518e-05
0.000100794
0.000189509
0.000263343
0.000326025
0.000380296
0.000427917
0.000470087
0.000507621
0.00054112
0.000571042
0.000597752
0.000621563
0.000642747
0.000661508
0.000678069
0.000692622
0.000705348
0.000716408
0.000725952
0.000734114
0.000741019
0.000746779
0.000751495
0.000755263
0.00075817
0.000760296
0.000761718
0.000762507
0.000762733
0.000762458
0.000761746
0.000760653
0.000759236
0.000757546
0.00075563
0.000753534
0.000751296
0.000748954
0.00074654
0.000744083
0.000741606
0.00073913
0.000736674
0.000734252
0.000731874
0.000729551
0.000727289
0.000725093
0.000722966
0.000720911
0.000718929
0.00071702
0.000715183
0.000713417
0.000711721
0.000710093
0.000708531
0.000707032
0.000705596
0.000704218
0.000702897
0.000701631
0.000700416
0.000699252
0.000698135
0.000697064
0.000696036
0.000695049
0.000694101
0.00069319
0.000692314
0.000691472
0.000690662
0.000689882
0.00068913
0.000688405
0.000687705
0.000687029
0.000686376
0.000685744
0.000685131
0.000684538
0.000683962
0.000683403
0.000682859
0.00068233
0.000681814
0.000681311
0.00068082
0.00068034
0.00067987
0.000679409
0.000678957
0.000678513
0.000678077
0.000677647
0.000677223
0.000676804
0.00067639
0.000675978
0.000675568
0.000675158
0.000674751
0.000674344
0.000673939
0.000673536
0.000673135
0.000672735
0.000672337
0.000671941
0.000671546
0.000671152
0.00067076
0.000670368
0.000669977
0.000669586
0.000669195
0.000668805
0.000668413
0.000668022
0.000667629
0.000667236
0.000666841
0.000666445
0.000666047
0.000665648
0.000665247
0.000664844
0.000664438
0.000664031
0.00066362
0.000663208
0.000662792
0.000662374
0.000661952
0.000661527
0.000661099
0.000660667
0.000660232
0.000659793
0.00065935
0.000658903
0.000658452
0.000657997
0.000657539
0.000657076
0.000656608
0.000656137
0.000655661
0.000655181
0.000654696
0.000654206
0.000653712
0.000653213
0.000652708
0.000652199
0.000651683
0.000651162
0.000650635
0.000650101
0.00064956
0.000649011
0.000648453
0.000647885
0.000647306
0.000646713
0.000646103
0.000645474
0.00064482
0.000644132
0.000643402
0.000642612
0.000641737
0.000640735
0.000639536
0.000638016
0.000635982
0.000633175
0.000629526
1.09804e-05
0.000104776
0.000198287
0.000276321
0.000342558
0.00039984
0.000450027
0.000494391
0.000533804
0.00056891
0.00060021
0.000628111
0.000652954
0.000675039
0.000694625
0.000711958
0.000727203
0.000740565
0.000752218
0.00076232
0.000771012
0.000778417
0.00078465
0.000789809
0.000793988
0.00079727
0.000799735
0.000801456
0.000802504
0.000802949
0.000802855
0.000802287
0.000801306
0.00079997
0.000798336
0.000796456
0.000794379
0.000792149
0.000789809
0.000787393
0.000784933
0.000782458
0.00077999
0.000777549
0.00077515
0.000772806
0.000770526
0.000768316
0.000766181
0.000764124
0.000762147
0.000760249
0.00075843
0.000756688
0.000755021
0.000753427
0.000751903
0.000750447
0.000749055
0.000747724
0.000746452
0.000745236
0.000744074
0.000742961
0.000741897
0.000740879
0.000739903
0.000738968
0.000738073
0.000737213
0.000736389
0.000735597
0.000734836
0.000734105
0.000733401
0.000732723
0.000732069
0.000731439
0.00073083
0.000730242
0.000729673
0.000729122
0.000728589
0.00072807
0.000727567
0.000727078
0.000726602
0.000726137
0.000725684
0.000725242
0.000724809
0.000724386
0.00072397
0.000723563
0.000723162
0.000722768
0.000722379
0.000721996
0.000721617
0.000721242
0.000720869
0.000720496
0.000720124
0.000719753
0.000719384
0.000719016
0.000718649
0.000718283
0.000717919
0.000717556
0.000717195
0.000716834
0.000716475
0.000716116
0.000715758
0.0007154
0.000715043
0.000714685
0.000714327
0.000713969
0.00071361
0.00071325
0.000712889
0.000712526
0.000712163
0.000711797
0.00071143
0.000711061
0.00071069
0.000710317
0.000709942
0.000709564
0.000709183
0.0007088
0.000708414
0.000708025
0.000707632
0.000707237
0.000706838
0.000706435
0.000706029
0.000705619
0.000705205
0.000704788
0.000704366
0.000703941
0.000703511
0.000703077
0.000702639
0.000702197
0.000701751
0.000701299
0.000700844
0.000700384
0.000699918
0.000699448
0.000698973
0.000698492
0.000698006
0.000697513
0.000697014
0.000696508
0.000695995
0.000695473
0.000694941
0.000694398
0.000693843
0.000693272
0.000692682
0.000692068
0.000691424
0.00069074
0.000690001
0.000689186
0.000688256
0.000687154
0.000685779
0.000683984
0.000681588
0.000678584
1.13109e-05
0.000108511
0.000206518
0.000288272
0.000357407
0.000416915
0.000468801
0.000514425
0.000554771
0.000590555
0.000622343
0.000650596
0.000675707
0.000698015
0.000717816
0.000735373
0.000750911
0.000764604
0.000776611
0.000787094
0.000796194
0.000804029
0.000810704
0.000816311
0.00082093
0.000824637
0.000827502
0.000829594
0.000830977
0.000831717
0.000831877
0.000831523
0.000830715
0.000829517
0.000827988
0.000826185
0.000824162
0.000821969
0.000819652
0.000817252
0.000814805
0.000812343
0.000809892
0.000807473
0.000805105
0.0008028
0.000800569
0.000798419
0.000796354
0.000794376
0.000792486
0.000790683
0.000788966
0.000787332
0.000785777
0.000784299
0.000782893
0.000781557
0.000780286
0.000779077
0.000777926
0.000776831
0.000775787
0.000774792
0.000773844
0.000772938
0.000772074
0.000771248
0.000770458
0.000769702
0.000768977
0.000768283
0.000767618
0.000766978
0.000766364
0.000765773
0.000765204
0.000764656
0.000764127
0.000763616
0.000763122
0.000762644
0.000762181
0.000761732
0.000761296
0.000760872
0.000760459
0.000760057
0.000759665
0.000759281
0.000758906
0.000758539
0.000758179
0.000757825
0.000757478
0.000757136
0.000756798
0.000756465
0.000756136
0.000755809
0.000755483
0.000755158
0.000754833
0.000754509
0.000754186
0.000753864
0.000753542
0.000753222
0.000752903
0.000752585
0.000752268
0.000751952
0.000751636
0.000751321
0.000751006
0.000750691
0.000750377
0.000750062
0.000749747
0.000749431
0.000749114
0.000748796
0.000748478
0.000748158
0.000747836
0.000747513
0.000747189
0.000746862
0.000746534
0.000746203
0.00074587
0.000745535
0.000745197
0.000744857
0.000744514
0.000744168
0.000743819
0.000743467
0.000743112
0.000742753
0.000742391
0.000742026
0.000741656
0.000741284
0.000740907
0.000740527
0.000740143
0.000739755
0.000739363
0.000738966
0.000738566
0.000738162
0.000737753
0.000737339
0.000736922
0.000736499
0.000736071
0.000735639
0.0007352
0.000734757
0.000734307
0.00073385
0.000733387
0.000732915
0.000732434
0.000731944
0.000731441
0.000730924
0.00073039
0.000729835
0.000729252
0.000728634
0.000727967
0.000727232
0.0007264
0.000725421
0.000724218
0.00072268
0.000720685
0.000718256
1.16691e-05
0.000112249
0.000214586
0.000299648
0.000371062
0.000432029
0.000484747
0.000530735
0.000571099
0.000606668
0.000638099
0.000665934
0.00069063
0.000712576
0.000732106
0.000749506
0.000765014
0.000778832
0.000791086
0.000801901
0.000811406
0.000819709
0.000826897
0.000833044
0.000838214
0.000842467
0.00084586
0.000848449
0.00085029
0.000851441
0.000851964
0.000851921
0.000851374
0.000850388
0.000849027
0.000847352
0.000845422
0.000843296
0.000841023
0.000838652
0.000836224
0.000833776
0.000831338
0.000828935
0.000826589
0.000824314
0.000822122
0.00082002
0.000818013
0.000816104
0.000814292
0.000812576
0.000810953
0.000809419
0.000807971
0.000806604
0.000805313
0.000804093
0.000802941
0.000801852
0.000800821
0.000799845
0.000798921
0.000798044
0.000797211
0.00079642
0.000795667
0.000794951
0.000794269
0.000793617
0.000792996
0.000792401
0.000791833
0.000791288
0.000790766
0.000790265
0.000789783
0.00078932
0.000788873
0.000788443
0.000788027
0.000787625
0.000787236
0.000786859
0.000786494
0.000786138
0.000785793
0.000785456
0.000785127
0.000784806
0.000784493
0.000784185
0.000783884
0.000783588
0.000783297
0.000783011
0.000782728
0.000782449
0.000782172
0.000781898
0.000781624
0.00078135
0.000781077
0.000780803
0.000780531
0.000780259
0.000779988
0.000779718
0.000779448
0.00077918
0.000778911
0.000778644
0.000778376
0.00077811
0.000777843
0.000777576
0.000777309
0.000777042
0.000776774
0.000776506
0.000776236
0.000775966
0.000775695
0.000775422
0.000775149
0.000774873
0.000774596
0.000774317
0.000774037
0.000773754
0.00077347
0.000773183
0.000772894
0.000772602
0.000772308
0.000772011
0.000771712
0.000771409
0.000771104
0.000770796
0.000770484
0.000770169
0.000769851
0.00076953
0.000769205
0.000768877
0.000768545
0.00076821
0.000767871
0.000767528
0.000767182
0.000766831
0.000766476
0.000766118
0.000765755
0.000765388
0.000765016
0.000764639
0.000764258
0.000763871
0.000763479
0.00076308
0.000762676
0.000762264
0.000761844
0.000761414
0.000760975
0.000760522
0.000760055
0.000759568
0.000759058
0.000758517
0.000757934
0.000757294
0.000756572
0.000755731
0.00075471
0.000753429
0.000751808
0.00074988
1.20614e-05
0.000116014
0.000222483
0.000310373
0.000383369
0.000444965
0.000497619
0.000543059
0.00058254
0.000617039
0.000647339
0.000674081
0.000697799
0.000718939
0.000737869
0.000754891
0.000770247
0.000784126
0.000796662
0.000807893
0.00081793
0.000826854
0.000834728
0.0008416
0.000847512
0.000852502
0.000856608
0.000859871
0.000862338
0.000864057
0.000865084
0.000865478
0.000865303
0.000864625
0.000863511
0.000862029
0.000860246
0.000858223
0.000856021
0.000853695
0.000851293
0.000848858
0.000846427
0.000844029
0.000841689
0.000839426
0.000837253
0.000835179
0.00083321
0.000831348
0.000829593
0.000827944
0.000826395
0.000824944
0.000823584
0.000822311
0.000821118
0.000820001
0.000818953
0.000817971
0.000817047
0.00081618
0.000815363
0.000814593
0.000813866
0.00081318
0.000812531
0.000811916
0.000811333
0.00081078
0.000810254
0.000809753
0.000809275
0.00080882
0.000808384
0.000807967
0.000807568
0.000807185
0.000806817
0.000806463
0.000806122
0.000805792
0.000805474
0.000805167
0.000804868
0.000804579
0.000804298
0.000804024
0.000803757
0.000803497
0.000803242
0.000802993
0.000802749
0.000802509
0.000802273
0.000802041
0.000801812
0.000801586
0.000801362
0.000801139
0.000800916
0.000800694
0.000800471
0.000800249
0.000800027
0.000799805
0.000799584
0.000799364
0.000799144
0.000798924
0.000798705
0.000798487
0.000798268
0.00079805
0.000797832
0.000797613
0.000797394
0.000797175
0.000796956
0.000796735
0.000796514
0.000796292
0.000796069