/*--------------------------------*- C++ -*----------------------------------*\
  =========                 |
  \\      /  F ield         | OpenFOAM: The Open Source CFD Toolbox
   \\    /   O peration     | Website:  https://openfoam.org
    \\  /    A nd           | Version:  6
     \\/     M anipulation  |
\*---------------------------------------------------------------------------*/
FoamFile
{
    version     2.0;
    format      ascii;
    class       volScalarField;
    location    "0.02";
    object      p;
}
// * * * * * * * * * * * * * * * * * * * * * * * * * * * * * * * * * * * * * //

dimensions      [0 2 -2 0 0 0 0];

internalField   nonuniform List<scalar> 
12225
(
0.378444
0.125643
0.0470927
0.035875
0.0302475
0.0241416
0.0196427
0.0157698
0.011396
0.00629529
0.000377162
-0.00663478
-0.0151167
-0.0256117
-0.0391235
-0.0575771
-0.0863589
-0.137284
-0.00467377
0.0261062
0.0267813
0.0324567
0.0306463
0.0250991
0.0203168
0.0160981
0.0114984
0.00622632
0.000141183
-0.00703331
-0.0157023
-0.0264252
-0.04022
-0.0588029
-0.0866579
-0.127485
-0.0402088
0.0303942
0.0314574
0.0328469
0.0307637
0.0255741
0.0207999
0.0164282
0.0116784
0.00626232
1.41213e-05
-0.00734671
-0.0162311
-0.0271889
-0.0411642
-0.0595072
-0.0851718
-0.118269
0.00504981
0.0434394
0.0348033
0.0326004
0.0303214
0.0255847
0.0209841
0.0165962
0.0117909
0.00630856
-2.66615e-05
-0.00748859
-0.0164623
-0.0274448
-0.0412156
-0.0587022
-0.0815578
-0.108807
0.0252283
0.0432869
0.0342948
0.0318444
0.0296918
0.0253909
0.0210018
0.0166607
0.0118685
0.0063963
6.97166e-05
-0.00736592
-0.0162483
-0.0269879
-0.0401564
-0.0562954
-0.0761439
-0.098404
0.0275997
0.0390669
0.0331698
0.031161
0.0290895
0.0251654
0.0209912
0.0167316
0.0120019
0.00660259
0.000370822
-0.00691718
-0.0155383
-0.0258002
-0.0380682
-0.0525736
-0.0694604
-0.0873896
0.0278565
0.0362926
0.0325526
0.0306664
0.0285879
0.0249877
0.0210294
0.0168821
0.0122592
0.00699145
0.000935917
-0.00609129
-0.0142992
-0.0238905
-0.0350496
-0.0477805
-0.0618797
-0.0761231
0.0290124
0.0348606
0.0322219
0.0303216
0.0282263
0.0249089
0.0211679
0.0171646
0.0126933
0.00761647
0.00181746
-0.00484247
-0.0125035
-0.0212712
-0.0311868
-0.0421049
-0.0536555
-0.0647919
0.0302269
0.0339629
0.0319903
0.0301199
0.0280345
0.0249689
0.0214504
0.0176244
0.0133513
0.00852572
0.00306146
-0.00313386
-0.010136
-0.0179691
-0.0265716
-0.0357154
-0.0449818
-0.0535093
0.031109
0.0333584
0.0318557
0.030074
0.0280317
0.0251992
0.0219138
0.018301
0.0142743
0.00976037
0.00470464
-0.00094126
-0.00719761
-0.014026
-0.021301
-0.0287631
-0.0360118
-0.0423567
0.0317443
0.0330275
0.0318447
0.0301858
0.0282224
0.0256167
0.0225805
0.0192187
0.0154866
0.0113417
0.00675963
0.00173085
-0.00372091
-0.00951466
-0.0154928
-0.0213988
-0.0268846
-0.0314042
0.032233
0.0329542
0.0319628
0.0304337
0.028576
0.0261831
0.0233944
0.0202983
0.0168794
0.0131205
0.00902197
0.00460261
-8.52954e-05
-0.00493868
-0.00979225
-0.0144109
-0.0185041
-0.0216259
0.0327009
0.0330491
0.0322101
0.030818
0.0290881
0.0269147
0.0243871
0.0215815
0.0185061
0.0151654
0.0115799
0.00779016
0.00386697
-7.72331e-05
-0.00388367
-0.00734902
-0.0102362
-0.0122011
0.0332634
0.0333598
0.0326545
0.0314285
0.029874
0.0279642
0.0257559
0.0233148
0.0206691
0.0178429
0.0148742
0.0118193
0.00875956
0.00580582
0.00309842
0.000800245
-0.000907328
-0.00178066
0.0340049
0.0339662
0.0333811
0.0323513
0.0310275
0.0294322
0.0276087
0.0256142
0.0234909
0.0212781
0.0190255
0.0167975
0.0146749
0.0127563
0.0111539
0.00998617
0.00938024
0.00949343
0.0350444
0.0349575
0.0344955
0.033691
0.0326528
0.0314265
0.0300534
0.028585
0.02707
0.0255561
0.024097
0.0227547
0.0216
0.0207101
0.0201646
0.0200397
0.0204151
0.0213809
0.0365238
0.0364421
0.0361187
0.0355669
0.034862
0.0340545
0.0331871
0.0323071
0.0314628
0.0307016
0.0300726
0.029627
0.0294176
0.0294962
0.0299102
0.0306999
0.0319074
0.0335732
0.0385782
0.0385315
0.0383655
0.0380882
0.0377476
0.0373901
0.0370577
0.0367927
0.0366373
0.0366313
0.0368121
0.0372145
0.0378701
0.0388055
0.0400412
0.0415899
0.0434665
0.0456774
0.0412822
0.0412924
0.041304
0.0413125
0.0413428
0.0414356
0.0416298
0.041961
0.0424618
0.0431595
0.0440752
0.0452242
0.0466168
0.0482576
0.0501452
0.0522733
0.0546379
0.0572234
0.043834
0.043908
0.0440667
0.0442681
0.0445351
0.0449139
0.045441
0.04615
0.0470692
0.0482163
0.0495993
0.0512194
0.0530721
0.0551479
0.0574331
0.0599104
0.0625662
0.0653769
0.0456882
0.0458802
0.0461762
0.0464819
0.0468733
0.0474068
0.0481112
0.0490262
0.0501827
0.0515906
0.0532462
0.0551391
0.0572535
0.0595699
0.0620661
0.0647188
0.067509
0.0704111
0.0469997
0.0475093
0.0479776
0.0483038
0.048745
0.0493481
0.0501225
0.0511324
0.0524176
0.0539769
0.0557946
0.05785
0.0601182
0.0625715
0.0651818
0.0679224
0.0707711
0.0737031
0.0476135
0.0488547
0.0495456
0.0498087
0.0502633
0.050865
0.0516105
0.052626
0.0539598
0.0555916
0.0574922
0.0596326
0.0619792
0.0644974
0.0671547
0.0699224
0.0727773
0.0756963
0.0475923
0.0501354
0.0509148
0.0510275
0.0515313
0.0520665
0.0526813
0.053628
0.0549494
0.0565918
0.0585136
0.0606791
0.0630465
0.065575
0.0682295
0.0709804
0.0738045
0.0766814
0.0476388
0.0524098
0.0524069
0.0520455
0.052649
0.0530354
0.0534137
0.0542309
0.0554919
0.0570939
0.0589862
0.0611283
0.0634706
0.0659669
0.0685807
0.0712831
0.0740509
0.0768667
0.0460911
0.0570045
0.054841
0.0532098
0.0537615
0.0538311
0.0538634
0.0545024
0.0556629
0.0571818
0.0590026
0.0610816
0.0633617
0.0657929
0.0683383
0.0709703
0.073666
0.0764093
0.0293148
0.0592033
0.0571642
0.0546354
0.0549442
0.0544377
0.0540256
0.0544514
0.0554791
0.0568822
0.058601
0.0605879
0.0627792
0.0651227
0.0675826
0.0701324
0.07275
0.0754199
-0.0146282
0.046101
0.0532062
0.0547912
0.0556914
0.054545
0.0536982
0.0539342
0.0548307
0.0561108
0.0577172
0.0596002
0.0616921
0.0639403
0.0663115
0.0687808
0.0713254
0.0739307
0.00464417
0.035721
0.0431466
0.05246
0.0551067
0.0536113
0.0525788
0.052807
0.0536728
0.0548786
0.0563961
0.0581893
0.0601934
0.0623591
0.0646559
0.0670609
0.0695505
0.0721
0.369842
0.150176
0.0734259
0.0610695
0.0567453
0.0528635
0.0513793
0.0517316
0.0527321
0.0539736
0.05546
0.0571926
0.0591257
0.0612191
0.0634484
0.0657944
0.0682386
0.0707745
0.0500719
0.0498763
0.050022
0.0506886
0.0518417
0.0534726
0.0555687
0.0581017
0.0610386
0.0643496
0.0680081
0.0719899
0.0762719
0.0808311
0.0856428
0.0906791
0.0959103
0.101306
0.106833
0.112458
0.118148
0.123868
0.129585
0.135265
0.140877
0.14639
0.151776
0.15701
0.162068
0.166932
0.171583
0.176009
0.180199
0.184146
0.187844
0.191293
0.194492
0.197444
0.200155
0.202631
0.204879
0.206909
0.20873
0.210354
0.211791
0.213052
0.214149
0.215093
0.215896
0.216568
0.217119
0.21756
0.2179
0.218149
0.218314
0.218405
0.218428
0.218392
0.218301
0.218162
0.217982
0.217764
0.217514
0.217235
0.216933
0.21661
0.21627
0.215915
0.215548
0.215172
0.214789
0.2144
0.214008
0.213614
0.213218
0.212823
0.212429
0.212038
0.211649
0.211263
0.210882
0.210505
0.210134
0.209767
0.209406
0.20905
0.208701
0.208357
0.208019
0.207688
0.207362
0.207043
0.206729
0.206421
0.206118
0.20582
0.205527
0.205238
0.204955
0.204676
0.204402
0.204132
0.203863
0.203596
0.203333
0.203073
0.202817
0.202563
0.202312
0.202064
0.201818
0.201576
0.201335
0.201097
0.200862
0.200629
0.200397
0.200168
0.19994
0.199714
0.199489
0.199266
0.199044
0.198823
0.198602
0.198382
0.198163
0.197944
0.197726
0.197508
0.19729
0.197073
0.196857
0.196641
0.196425
0.19621
0.195995
0.19578
0.195566
0.195352
0.195138
0.194924
0.19471
0.194496
0.194281
0.194066
0.193851
0.193634
0.193416
0.193198
0.192979
0.192758
0.192537
0.192315
0.192092
0.191868
0.191644
0.191419
0.191194
0.19097
0.190745
0.190522
0.190301
0.190083
0.189869
0.18966
0.18946
0.189271
0.189096
0.188943
0.188818
0.188733
0.188706
0.188761
0.188942
0.189322
0.190058
0.191417
0.194339
0.199275
0.0489793
0.0488119
0.0488471
0.0493173
0.0502321
0.0515908
0.0533831
0.0555939
0.058207
0.0612027
0.0645587
0.0682519
0.0722564
0.0765465
0.0810986
0.085887
0.0908837
0.0960589
0.101382
0.10682
0.112342
0.117913
0.123502
0.129075
0.134602
0.140054
0.145401
0.150619
0.155684
0.160576
0.165276
0.169771
0.174048
0.178098
0.181915
0.185495
0.188838
0.191944
0.194817
0.197462
0.199884
0.202092
0.204093
0.205898
0.207516
0.208957
0.210232
0.211352
0.212327
0.213167
0.213882
0.214482
0.214976
0.215373
0.215682
0.215911
0.216066
0.216156
0.216186
0.216164
0.216093
0.215981
0.21583
0.215647
0.215435
0.215198
0.214939
0.214661
0.214367
0.21406
0.213742
0.213416
0.213081
0.212742
0.212398
0.212052
0.211705
0.211356
0.211009
0.210662
0.210317
0.209975
0.209635
0.209299
0.208966
0.208637
0.208312
0.207992
0.207677
0.207366
0.20706
0.206759
0.206463
0.206171
0.205883
0.205599
0.20532
0.205044
0.204771
0.204502
0.204236
0.203974
0.203715
0.203458
0.203204
0.202952
0.202702
0.202455
0.20221
0.201968
0.201727
0.201489
0.201254
0.20102
0.200788
0.200558
0.20033
0.200104
0.199879
0.199656
0.199434
0.199212
0.198992
0.198773
0.198554
0.198336
0.198118
0.197901
0.197684
0.197467
0.197251
0.197035
0.196819
0.196604
0.196389
0.196175
0.19596
0.195746
0.195533
0.195319
0.195106
0.194893
0.19468
0.194466
0.194252
0.194038
0.193823
0.193607
0.19339
0.193172
0.192953
0.192733
0.192512
0.192291
0.192068
0.191845
0.191621
0.191397
0.191172
0.190948
0.190725
0.190503
0.190283
0.190066
0.189853
0.189647
0.189449
0.189262
0.189092
0.188943
0.188825
0.188748
0.188731
0.1888
0.188998
0.189393
0.190133
0.191417
0.194059
0.198098
0.046022
0.0463549
0.0468063
0.047381
0.0481967
0.0493445
0.0508624
0.0527624
0.0550455
0.057705
0.0607287
0.0640999
0.0677988
0.0718035
0.0760902
0.0806333
0.0854054
0.0903776
0.0955195
0.1008
0.106186
0.111646
0.117147
0.122656
0.128143
0.133576
0.138928
0.144172
0.149282
0.154239
0.159022
0.163615
0.168005
0.172182
0.176137
0.179865
0.183365
0.186634
0.189676
0.192493
0.195091
0.197475
0.199655
0.201637
0.203431
0.205046
0.206492
0.20778
0.208919
0.209918
0.210789
0.211539
0.212179
0.212717
0.213162
0.21352
0.213801
0.21401
0.214155
0.214242
0.214276
0.214263
0.214208
0.214115
0.213989
0.213833
0.213651
0.213447
0.213223
0.212982
0.212727
0.212459
0.212181
0.211894
0.211601
0.211302
0.210999
0.210693
0.210385
0.210076
0.209766
0.209457
0.209149
0.208842
0.208537
0.208235
0.207935
0.207638
0.207345
0.207054
0.206768
0.206485
0.206206
0.20593
0.205657
0.205387
0.205121
0.204857
0.204596
0.204338
0.204082
0.203829
0.203579
0.203331
0.203084
0.20284
0.202597
0.202356
0.202117
0.20188
0.201645
0.201412
0.20118
0.200951
0.200723
0.200496
0.200272
0.200048
0.199826
0.199606
0.199386
0.199167
0.198949
0.198731
0.198514
0.198298
0.198082
0.197866
0.19765
0.197434
0.197219
0.197004
0.19679
0.196575
0.196361
0.196147
0.195934
0.195721
0.195508
0.195295
0.195082
0.19487
0.194657
0.194444
0.194231
0.194017
0.193802
0.193586
0.19337
0.193153
0.192934
0.192715
0.192494
0.192273
0.192051
0.191828
0.191605
0.191381
0.191157
0.190934
0.190711
0.19049
0.190271
0.190055
0.189844
0.189639
0.189443
0.18926
0.189093
0.188949
0.188836
0.188768
0.18876
0.188841
0.189053
0.189458
0.190191
0.191387
0.193656
0.196464
0.0413036
0.0418819
0.0426026
0.0433307
0.0442224
0.0454036
0.0469202
0.0487877
0.0510136
0.0535993
0.0565399
0.0598251
0.06344
0.0673664
0.071583
0.0760659
0.0807889
0.0857235
0.0908398
0.0961061
0.10149
0.106958
0.112478
0.118016
0.12354
0.129019
0.134424
0.139728
0.144906
0.149935
0.154797
0.159473
0.16395
0.168218
0.172267
0.176093
0.179692
0.183063
0.186208
0.189131
0.191834
0.194325
0.196611
0.1987
0.2006
0.202321
0.203873
0.205264
0.206504
0.207604
0.208573
0.20942
0.210153
0.210783
0.211316
0.211761
0.212125
0.212415
0.212638
0.2128
0.212907
0.212963
0.212975
0.212946
0.212881
0.212784
0.212659
0.212508
0.212335
0.212143
0.211934
0.211711
0.211475
0.211228
0.210973
0.21071
0.210441
0.210168
0.20989
0.20961
0.209328
0.209045
0.208762
0.208478
0.208195
0.207913
0.207633
0.207355
0.207078
0.206805
0.206533
0.206265
0.205999
0.205736
0.205475
0.205217
0.204961
0.204707
0.204456
0.204206
0.203958
0.203713
0.20347
0.203228
0.202988
0.202749
0.202512
0.202277
0.202043
0.20181
0.201579
0.20135
0.201123
0.200896
0.200672
0.200448
0.200226
0.200006
0.199786
0.199568
0.19935
0.199133
0.198917
0.198701
0.198485
0.19827
0.198055
0.19784
0.197626
0.197411
0.197197
0.196983
0.196769
0.196555
0.196342
0.196129
0.195916
0.195703
0.195491
0.195279
0.195067
0.194855
0.194643
0.19443
0.194217
0.194003
0.193789
0.193574
0.193358
0.19314
0.192922
0.192703
0.192483
0.192262
0.19204
0.191817
0.191594
0.191371
0.191147
0.190924
0.190702
0.190481
0.190262
0.190047
0.189836
0.189632
0.189437
0.189254
0.189088
0.188945
0.188834
0.188765
0.188758
0.188836
0.189038
0.189418
0.190082
0.191105
0.192871
0.194721
0.0351667
0.0357807
0.0365834
0.0374044
0.0383814
0.0396385
0.0412233
0.0431529
0.0454377
0.0480826
0.0510857
0.0544394
0.0581306
0.0621423
0.0664537
0.0710405
0.0758759
0.0809304
0.0861725
0.0915694
0.097087
0.102691
0.108346
0.114018
0.119674
0.125283
0.130814
0.136238
0.141532
0.146673
0.15164
0.156417
0.160991
0.16535
0.169488
0.173398
0.177078
0.180528
0.183749
0.186745
0.189521
0.192083
0.194438
0.196595
0.198563
0.200351
0.201969
0.203425
0.204731
0.205895
0.206927
0.207836
0.208631
0.209321
0.209914
0.210417
0.210838
0.211184
0.211461
0.211676
0.211834
0.21194
0.212
0.212018
0.211998
0.211944
0.211861
0.21175
0.211616
0.211461
0.211288
0.211098
0.210895
0.21068
0.210454
0.21022
0.209978
0.20973
0.209477
0.209221
0.208961
0.208699
0.208435
0.208171
0.207906
0.207641
0.207377
0.207113
0.206852
0.206591
0.206333
0.206077
0.205822
0.20557
0.205319
0.20507
0.204823
0.204578
0.204334
0.204092
0.203851
0.203612
0.203375
0.203139
0.202904
0.202671
0.202438
0.202208
0.201978
0.20175
0.201523
0.201297
0.201072
0.200849
0.200628
0.200407
0.200187
0.199969
0.199752
0.199535
0.199319
0.199104
0.198889
0.198675
0.198461
0.198247
0.198033
0.197819
0.197605
0.197392
0.197178
0.196965
0.196752
0.196539
0.196326
0.196114
0.195902
0.195689
0.195478
0.195266
0.195054
0.194843
0.194631
0.194419
0.194206
0.193993
0.193779
0.193564
0.193348
0.193131
0.192913
0.192694
0.192474
0.192253
0.192031
0.191809
0.191586
0.191362
0.191139
0.190915
0.190693
0.190472
0.190253
0.190038
0.189826
0.189622
0.189426
0.189242
0.189075
0.188929
0.188815
0.188741
0.188724
0.188787
0.188961
0.189289
0.189846
0.190662
0.191955
0.193113
0.0277185
0.0281797
0.0288462
0.0296305
0.0306393
0.0319663
0.0336484
0.0356998
0.0381288
0.0409386
0.044126
0.0476819
0.0515922
0.0558378
0.0603957
0.0652392
0.0703385
0.0756611
0.0811728
0.0868375
0.0926185
0.0984788
0.104381
0.11029
0.116171
0.121989
0.127716
0.133322
0.138783
0.144075
0.149181
0.154083
0.158768
0.163229
0.167456
0.171447
0.1752
0.178716
0.181996
0.185047
0.187873
0.190483
0.192883
0.195083
0.197092
0.198919
0.200576
0.202071
0.203415
0.204618
0.205688
0.206636
0.207469
0.208197
0.208828
0.209369
0.209827
0.21021
0.210525
0.210776
0.210969
0.211111
0.211206
0.211257
0.211271
0.211249
0.211197
0.211117
0.211013
0.210887
0.210741
0.210578
0.210401
0.21021
0.210008
0.209797
0.209577
0.20935
0.209118
0.208881
0.208639
0.208395
0.208148
0.207899
0.20765
0.207399
0.207149
0.206898
0.206649
0.2064
0.206153
0.205907
0.205663
0.20542
0.205178
0.204937
0.204698
0.20446
0.204223
0.203987
0.203753
0.20352
0.203288
0.203057
0.202827
0.202598
0.202371
0.202144
0.201918
0.201694
0.20147
0.201248
0.201026
0.200806
0.200587
0.200369
0.200152
0.199935
0.19972
0.199505
0.199291
0.199078
0.198864
0.198651
0.198438
0.198225
0.198013
0.1978
0.197587
0.197374
0.197162
0.196949
0.196737
0.196525
0.196313
0.196101
0.195889
0.195677
0.195466
0.195255
0.195044
0.194832
0.194621
0.194409
0.194197
0.193984
0.19377
0.193555
0.193339
0.193122
0.192905
0.192686
0.192466
0.192245
0.192023
0.191801
0.191577
0.191354
0.19113
0.190907
0.190684
0.190463
0.190243
0.190027
0.189815
0.189609
0.189411
0.189225
0.189054
0.188904
0.188782
0.188698
0.188666
0.188704
0.188838
0.189099
0.189534
0.190143
0.191037
0.191677
0.018912
0.0190622
0.0193864
0.0199837
0.0209387
0.0222967
0.0240745
0.026279
0.0289127
0.031973
0.0354512
0.0393328
0.0435987
0.0482245
0.0531812
0.0584365
0.0639551
0.069699
0.0756289
0.0817039
0.0878831
0.0941257
0.100392
0.106643
0.112842
0.118956
0.124952
0.130803
0.136483
0.141971
0.147249
0.152303
0.15712
0.161693
0.166018
0.170091
0.173913
0.177486
0.180816
0.183907
0.186768
0.189407
0.191832
0.194054
0.196083
0.197929
0.199604
0.201116
0.202478
0.203698
0.204786
0.205752
0.206604
0.207352
0.208003
0.208566
0.209046
0.209451
0.209788
0.210062
0.210279
0.210444
0.210562
0.210637
0.210673
0.210675
0.210646
0.210588
0.210506
0.210401
0.210276
0.210134
0.209977
0.209806
0.209623
0.20943
0.209228
0.209018
0.208802
0.208581
0.208355
0.208125
0.207892
0.207657
0.20742
0.207182
0.206943
0.206704
0.206465
0.206227
0.205989
0.205752
0.205516
0.205281
0.205047
0.204814
0.204581
0.20435
0.204119
0.20389
0.203661
0.203433
0.203206
0.20298
0.202755
0.202531
0.202307
0.202084
0.201862
0.201641
0.201421
0.201202
0.200983
0.200766
0.200549
0.200333
0.200118
0.199904
0.199691
0.199478
0.199265
0.199053
0.198841
0.198629
0.198417
0.198206
0.197994
0.197782
0.19757
0.197359
0.197147
0.196935
0.196723
0.196512
0.1963
0.196089
0.195878
0.195667
0.195456
0.195245
0.195034
0.194824
0.194612
0.194401
0.194189
0.193976
0.193762
0.193548
0.193332
0.193115
0.192897
0.192678
0.192459
0.192238
0.192016
0.191793
0.19157
0.191346
0.191123
0.190899
0.190676
0.190453
0.190233
0.190015
0.189802
0.189594
0.189393
0.189203
0.189027
0.18887
0.188738
0.188641
0.188588
0.188595
0.188681
0.188866
0.189176
0.18959
0.190151
0.190394
0.00861303
0.00830871
0.00809217
0.00834558
0.00914785
0.0104834
0.0123414
0.0147177
0.0176058
0.0209938
0.0248637
0.0291923
0.0339508
0.039105
0.0446167
0.0504448
0.0565444
0.0628692
0.0693722
0.0760057
0.0827229
0.089478
0.0962273
0.102929
0.109545
0.116039
0.12238
0.12854
0.134494
0.140223
0.14571
0.150943
0.155913
0.160614
0.165044
0.169203
0.173094
0.176722
0.180093
0.183215
0.186099
0.188753
0.191189
0.193417
0.19545
0.197298
0.198973
0.200486
0.201848
0.203068
0.204158
0.205127
0.205984
0.206737
0.207394
0.207964
0.208453
0.208869
0.209216
0.209502
0.209732
0.20991
0.210042
0.210132
0.210184
0.210201
0.210187
0.210145
0.210078
0.209989
0.20988
0.209754
0.209612
0.209456
0.209288
0.209109
0.208921
0.208725
0.208523
0.208314
0.208101
0.207884
0.207663
0.207439
0.207213
0.206985
0.206757
0.206527
0.206297
0.206068
0.205838
0.205609
0.205381
0.205153
0.204925
0.204699
0.204472
0.204247
0.204022
0.203798
0.203574
0.203351
0.203129
0.202907
0.202686
0.202466
0.202246
0.202027
0.201809
0.201591
0.201374
0.201158
0.200942
0.200727
0.200513
0.200299
0.200086
0.199874
0.199662
0.199451
0.19924
0.19903
0.198819
0.198608
0.198398
0.198187
0.197976
0.197766
0.197555
0.197344
0.197133
0.196922
0.196711
0.1965
0.196289
0.196078
0.195868
0.195657
0.195447
0.195237
0.195026
0.194816
0.194605
0.194394
0.194182
0.193969
0.193756
0.193541
0.193326
0.193109
0.192891
0.192672
0.192452
0.192231
0.19201
0.191787
0.191563
0.191339
0.191115
0.190891
0.190667
0.190444
0.190222
0.190003
0.189787
0.189576
0.189372
0.189177
0.188995
0.188829
0.188685
0.18857
0.188493
0.188465
0.188498
0.188604
0.188791
0.189027
0.189311
0.189249
-0.00340002
-0.00430962
-0.00527351
-0.00552378
-0.00497251
-0.00371116
-0.00178563
0.000785426
0.00398347
0.0077836
0.0121548
0.0170601
0.0224571
0.0282985
0.034533
0.0411052
0.0479579
0.055033
0.0622723
0.0696194
0.0770199
0.084422
0.091777
0.0990401
0.10617
0.113132
0.119892
0.126425
0.132707
0.138721
0.144453
0.149894
0.155037
0.159881
0.164426
0.168677
0.172638
0.176318
0.179726
0.182873
0.18577
0.18843
0.190865
0.193088
0.195112
0.196949
0.198612
0.200112
0.201461
0.20267
0.203749
0.204708
0.205557
0.206304
0.206957
0.207524
0.208012
0.208427
0.208777
0.209066
0.2093
0.209484
0.209623
0.20972
0.209781
0.209807
0.209803
0.209771
0.209715
0.209637
0.209539
0.209424
0.209293
0.209149
0.208992
0.208825
0.208648
0.208464
0.208272
0.208074
0.207871
0.207664
0.207453
0.207239
0.207023
0.206804
0.206584
0.206363
0.206141
0.205919
0.205697
0.205475
0.205253
0.205031
0.20481
0.204589
0.204368
0.204148
0.203929
0.203709
0.203491
0.203272
0.203055
0.202837
0.20262
0.202404
0.202188
0.201972
0.201757
0.201543
0.201328
0.201115
0.200902
0.200689
0.200478
0.200266
0.200056
0.199845
0.199635
0.199426
0.199216
0.199007
0.198798
0.198588
0.198379
0.198169
0.19796
0.19775
0.19754
0.19733
0.197119
0.196909
0.196699
0.196489
0.196279
0.196068
0.195858
0.195649
0.195439
0.195229
0.195019
0.194809
0.194598
0.194387
0.194176
0.193963
0.19375
0.193535
0.19332
0.193103
0.192886
0.192667
0.192447
0.192226
0.192004
0.191781
0.191557
0.191333
0.191108
0.190883
0.190658
0.190434
0.190211
0.189989
0.189771
0.189557
0.189348
0.189148
0.188958
0.188781
0.188623
0.188489
0.188385
0.188319
0.188297
0.188322
0.188394
0.188468
0.188524
0.188227
-0.0174523
-0.0191409
-0.0210749
-0.0219877
-0.0217737
-0.0206212
-0.0186227
-0.0158146
-0.012231
-0.00791375
-0.00291112
0.00272228
0.00892587
0.0156338
0.0227763
0.0302808
0.0380739
0.0460819
0.0542316
0.0624556
0.0706908
0.0788782
0.0869639
0.0948995
0.102642
0.110156
0.117409
0.124376
0.131037
0.137378
0.143388
0.149063
0.1544
0.159401
0.164071
0.168419
0.172452
0.176184
0.179626
0.182793
0.185698
0.188356
0.190782
0.192991
0.194996
0.196813
0.198454
0.199931
0.201258
0.202446
0.203505
0.204446
0.205278
0.20601
0.20665
0.207206
0.207686
0.208094
0.208439
0.208725
0.208957
0.209141
0.209281
0.209381
0.209444
0.209475
0.209476
0.209451
0.209402
0.209331
0.209241
0.209134
0.209011
0.208875
0.208727
0.208569
0.208402
0.208226
0.208043
0.207854
0.20766
0.207462
0.207259
0.207053
0.206845
0.206634
0.206422
0.206208
0.205993
0.205778
0.205562
0.205346
0.20513
0.204915
0.204699
0.204483
0.204268
0.204053
0.203838
0.203623
0.203409
0.203195
0.202982
0.202769
0.202556
0.202343
0.202131
0.201918
0.201707
0.201495
0.201284
0.201073
0.200863
0.200653
0.200443
0.200234
0.200025
0.199817
0.199609
0.199401
0.199193
0.198985
0.198777
0.198569
0.198361
0.198152
0.197943
0.197734
0.197525
0.197316
0.197107
0.196897
0.196688
0.196478
0.196269
0.196059
0.19585
0.195641
0.195431
0.195222
0.195012
0.194803
0.194593
0.194382
0.19417
0.193958
0.193745
0.19353
0.193315
0.193098
0.192881
0.192662
0.192442
0.192221
0.191998
0.191775
0.191551
0.191326
0.191101
0.190875
0.190649
0.190423
0.190199
0.189975
0.189754
0.189536
0.189322
0.189115
0.188917
0.188729
0.188555
0.1884
0.188267
0.188161
0.188083
0.188031
0.187995
0.187927
0.187794
0.187314
-0.0340113
-0.036677
-0.0398156
-0.0415378
-0.041722
-0.0406818
-0.0385713
-0.0354499
-0.0313712
-0.0263972
-0.0205981
-0.0140512
-0.0068406
0.000944017
0.00920914
0.0178597
0.0268013
0.0359408
0.0451884
0.0544627
0.0636903
0.0728047
0.0817468
0.090465
0.0989156
0.107062
0.114876
0.122334
0.129421
0.136126
0.142445
0.148376
0.153923
0.159094
0.163898
0.168347
0.172455
0.176239
0.179713
0.182896
0.185805
0.188456
0.190868
0.193056
0.195038
0.196827
0.198439
0.199888
0.201186
0.202346
0.203379
0.204295
0.205104
0.205816
0.206438
0.206978
0.207443
0.20784
0.208174
0.208452
0.208679
0.208858
0.208995
0.209094
0.209157
0.209189
0.209192
0.20917
0.209124
0.209058
0.208973
0.208872
0.208756
0.208626
0.208485
0.208334
0.208174
0.208005
0.20783
0.207649
0.207462
0.207271
0.207076
0.206878
0.206676
0.206472
0.206267
0.206059
0.205851
0.205642
0.205432
0.205222
0.205011
0.204801
0.20459
0.20438
0.204169
0.203959
0.203749
0.203539
0.203329
0.20312
0.20291
0.202701
0.202492
0.202283
0.202074
0.201865
0.201656
0.201448
0.20124
0.201032
0.200824
0.200616
0.200409
0.200202
0.199995
0.199789
0.199582
0.199376
0.19917
0.198963
0.198756
0.198549
0.198342
0.198135
0.197927
0.197719
0.197511
0.197303
0.197094
0.196886
0.196677
0.196468
0.196259
0.19605
0.195842
0.195633
0.195424
0.195215
0.195006
0.194797
0.194587
0.194377
0.194165
0.193953
0.19374
0.193526
0.19331
0.193094
0.192876
0.192657
0.192437
0.192216
0.191993
0.19177
0.191545
0.19132
0.191094
0.190867
0.19064
0.190413
0.190186
0.18996
0.189736
0.189514
0.189295
0.18908
0.188872
0.188672
0.188482
0.188305
0.188142
0.187996
0.187863
0.187738
0.187603
0.187411
0.187121
0.186498
-0.0537266
-0.0575796
-0.0621458
-0.0647911
-0.0653929
-0.064425
-0.0621167
-0.0585583
-0.0538259
-0.0480054
-0.0411944
-0.0334987
-0.0250327
-0.0159167
-0.00627467
0.00377
0.0140967
0.0245885
0.0351362
0.0456437
0.0560266
0.0662109
0.0761329
0.0857391
0.094986
0.103839
0.112274
0.120272
0.127823
0.134923
0.141572
0.147778
0.153548
0.158897
0.163839
0.168393
0.172577
0.176411
0.179917
0.183114
0.186023
0.188665
0.191059
0.193223
0.195176
0.196934
0.198514
0.19993
0.201196
0.202324
0.203327
0.204215
0.204998
0.205685
0.206286
0.206806
0.207254
0.207636
0.207958
0.208225
0.208443
0.208615
0.208747
0.208841
0.208902
0.208933
0.208936
0.208915
0.208871
0.208808
0.208726
0.208629
0.208518
0.208393
0.208258
0.208112
0.207958
0.207796
0.207627
0.207453
0.207273
0.207088
0.2069
0.206708
0.206513
0.206316
0.206116
0.205915
0.205712
0.205508
0.205304
0.205099
0.204894
0.204689
0.204483
0.204277
0.204072
0.203866
0.20366
0.203455
0.203249
0.203044
0.202839
0.202633
0.202428
0.202222
0.202017
0.201812
0.201606
0.201401
0.201195
0.20099
0.200785
0.20058
0.200375
0.20017
0.199965
0.19976
0.199556
0.199351
0.199146
0.198941
0.198736
0.19853
0.198324
0.198118
0.197911
0.197704
0.197497
0.19729
0.197082
0.196874
0.196666
0.196458
0.19625
0.196042
0.195834
0.195626
0.195417
0.195209
0.195
0.194791
0.194582
0.194372
0.194161
0.193949
0.193736
0.193521
0.193306
0.19309
0.192872
0.192653
0.192433
0.192211
0.191989
0.191765
0.19154
0.191314
0.191087
0.190859
0.190631
0.190402
0.190173
0.189945
0.189717
0.18949
0.189266
0.189044
0.188826
0.188613
0.188406
0.188206
0.188014
0.187827
0.187643
0.187448
0.187224
0.186923
0.186504
0.185769
-0.0774533
-0.0826871
-0.0888485
-0.0924663
-0.0934458
-0.0924543
-0.0898071
-0.0856273
-0.0800179
-0.0730936
-0.0649856
-0.0558365
-0.0458
-0.0350368
-0.0237097
-0.0119781
5.41498e-06
0.0120951
0.0241604
0.0360917
0.0477938
0.0591863
0.0702028
0.0807905
0.0909087
0.100528
0.109629
0.118202
0.126243
0.133756
0.140749
0.147236
0.153234
0.158763
0.163845
0.168503
0.172762
0.176646
0.18018
0.183389
0.186297
0.188926
0.1913
0.193438
0.195361
0.197087
0.198633
0.200014
0.201246
0.202342
0.203313
0.204171
0.204927
0.205589
0.206166
0.206665
0.207095
0.20746
0.207768
0.208023
0.208231
0.208395
0.20852
0.208609
0.208666
0.208695
0.208697
0.208675
0.208632
0.208571
0.208492
0.208397
0.208289
0.208169
0.208039
0.207898
0.207749
0.207593
0.20743
0.207261
0.207087
0.206909
0.206727
0.206541
0.206352
0.206161
0.205967
0.205771
0.205574
0.205376
0.205177
0.204977
0.204777
0.204576
0.204375
0.204174
0.203973
0.203772
0.203571
0.20337
0.203169
0.202968
0.202766
0.202565
0.202363
0.202162
0.20196
0.201758
0.201555
0.201353
0.20115
0.200948
0.200745
0.200543
0.20034
0.200137
0.199934
0.199732
0.199529
0.199326
0.199122
0.198919
0.198715
0.19851
0.198306
0.1981
0.197895
0.197689
0.197483
0.197276
0.19707
0.196863
0.196655
0.196448
0.196241
0.196033
0.195826
0.195618
0.195411
0.195203
0.194995
0.194786
0.194577
0.194367
0.194156
0.193944
0.193731
0.193517
0.193302
0.193086
0.192868
0.192649
0.192428
0.192207
0.191984
0.19176
0.191534
0.191308
0.19108
0.190851
0.190622
0.190391
0.19016
0.189929
0.189697
0.189466
0.189236
0.189006
0.188778
0.188552
0.188328
0.188106
0.187884
0.187659
0.187424
0.187166
0.186862
0.186467
0.185941
0.185116
-0.106231
-0.112975
-0.120783
-0.125322
-0.126565
-0.125392
-0.122201
-0.117145
-0.110355
-0.10198
-0.0921931
-0.0811883
-0.069173
-0.0563629
-0.0429719
-0.0292057
-0.0152572
-0.00130497
0.0125044
0.026047
0.0392198
0.0519397
0.064142
0.0757788
0.0868167
0.0972352
0.107024
0.116184
0.12472
0.132646
0.13998
0.146745
0.152966
0.158669
0.163884
0.168641
0.172968
0.176897
0.180457
0.183675
0.186579
0.189194
0.191547
0.193659
0.195551
0.197244
0.198756
0.200104
0.201302
0.202365
0.203305
0.204134
0.204863
0.2055
0.206054
0.206533
0.206944
0.207293
0.207586
0.207829
0.208026
0.208182
0.2083
0.208384
0.208437
0.208463
0.208463
0.208441
0.208399
0.208338
0.208261
0.20817
0.208065
0.207949
0.207822
0.207687
0.207543
0.207392
0.207234
0.207071
0.206903
0.20673
0.206554
0.206374
0.206191
0.206005
0.205817
0.205627
0.205435
0.205242
0.205048
0.204853
0.204658
0.204462
0.204266
0.20407
0.203874
0.203677
0.203481
0.203284
0.203087
0.20289
0.202693
0.202496
0.202298
0.2021
0.201902
0.201703
0.201504
0.201304
0.201105
0.200905
0.200705
0.200505
0.200304
0.200104
0.199903
0.199702
0.199501
0.1993
0.199098
0.198896
0.198693
0.19849
0.198287
0.198083
0.197878
0.197674
0.197468
0.197263
0.197057
0.196851
0.196645
0.196438
0.196232
0.196025
0.195818
0.195611
0.195404
0.195197
0.194989
0.194781
0.194572
0.194362
0.194152
0.19394
0.193727
0.193513
0.193298
0.193082
0.192864
0.192645
0.192424
0.192203
0.191979
0.191755
0.191529
0.191302
0.191073
0.190843
0.190612
0.19038
0.190147
0.189913
0.189678
0.189442
0.189205
0.188968
0.18873
0.18849
0.188249
0.188005
0.187755
0.187493
0.187212
0.186895
0.18652
0.186044
0.185428
0.184532
-0.141181
-0.149445
-0.158774
-0.164053
-0.165368
-0.163792
-0.159781
-0.153499
-0.145103
-0.134785
-0.122786
-0.109379
-0.0948514
-0.0794971
-0.0635978
-0.0474178
-0.0311941
-0.0151263
0.000623867
0.0159239
0.0306704
0.0447854
0.0582135
0.0709184
0.0828795
0.0940897
0.104552
0.114279
0.12329
0.131609
0.139264
0.146288
0.152715
0.158578
0.163914
0.168759
0.173149
0.177117
0.180697
0.183922
0.18682
0.189422
0.191754
0.193841
0.195705
0.197367
0.198848
0.200164
0.201331
0.202364
0.203276
0.204078
0.204782
0.205395
0.205929
0.206389
0.206783
0.207117
0.207397
0.207629
0.207817
0.207964
0.208076
0.208155
0.208205
0.208228
0.208227
0.208205
0.208163
0.208104
0.208029
0.20794
0.207839
0.207726
0.207604
0.207473
0.207334
0.207188
0.207036
0.206879
0.206716
0.20655
0.206379
0.206205
0.206028
0.205848
0.205665
0.205481
0.205294
0.205107
0.204918
0.204728
0.204537
0.204346
0.204155
0.203964
0.203772
0.203581
0.203389
0.203197
0.203004
0.202812
0.202619
0.202426
0.202232
0.202037