/*--------------------------------*- C++ -*----------------------------------*\
  =========                 |
  \\      /  F ield         | OpenFOAM: The Open Source CFD Toolbox
   \\    /   O peration     | Website:  https://openfoam.org
    \\  /    A nd           | Version:  6
     \\/     M anipulation  |
\*---------------------------------------------------------------------------*/
FoamFile
{
    version     2.0;
    format      ascii;
    class       surfaceScalarField;
    location    "0.02";
    object      phi;
}
// * * * * * * * * * * * * * * * * * * * * * * * * * * * * * * * * * * * * * //

dimensions      [0 3 -1 0 0 0 0];

internalField   nonuniform List<scalar> 
24170
(
3.25734e-07
-6.89328e-09
3.19623e-07
6.11113e-09
3.1636e-07
3.26231e-09
3.09812e-07
6.54866e-09
3.03576e-07
6.23576e-09
2.99469e-07
4.10658e-09
2.97187e-07
2.28287e-09
2.96014e-07
1.17286e-09
2.95553e-07
4.60499e-10
2.95631e-07
-7.74193e-11
2.96202e-07
-5.71364e-10
2.97359e-07
-1.1566e-09
2.99276e-07
-1.91767e-09
3.02222e-07
-2.94591e-09
3.06696e-07
-4.47414e-09
3.135e-07
-6.80333e-09
3.26334e-07
-1.28342e-08
-2.65013e-08
3.52835e-07
3.50321e-07
-1.54892e-08
3.47912e-07
8.51984e-09
3.44447e-07
6.7274e-09
3.43038e-07
7.9581e-09
3.41501e-07
7.77184e-09
3.39863e-07
5.74529e-09
3.38567e-07
3.57858e-09
3.37789e-07
1.95047e-09
3.37526e-07
7.2427e-10
3.37802e-07
-3.53315e-10
3.38683e-07
-1.45236e-09
3.40245e-07
-2.71938e-09
3.42641e-07
-4.31345e-09
3.46124e-07
-6.42884e-09
3.51121e-07
-9.47098e-09
3.58479e-07
-1.41612e-08
3.69025e-07
-2.33806e-08
-4.03129e-08
3.82837e-07
3.63469e-07
-1.27068e-08
3.66754e-07
5.23475e-09
3.67211e-07
6.27039e-09
3.6785e-07
7.31996e-09
3.68143e-07
7.47851e-09
3.68033e-07
5.8547e-09
3.67851e-07
3.76055e-09
3.67867e-07
1.93469e-09
3.68219e-07
3.72449e-10
3.68997e-07
-1.1311e-09
3.70304e-07
-2.75902e-09
3.72266e-07
-4.68161e-09
3.75052e-07
-7.09965e-09
3.78901e-07
-1.02783e-08
3.84149e-07
-1.47189e-08
3.91273e-07
-2.1285e-08
4.00191e-07
-3.22982e-08
-5.01102e-08
4.09988e-07
3.89307e-07
-9.47476e-09
3.91703e-07
2.83822e-09
3.92969e-07
5.00479e-09
3.94145e-07
6.14388e-09
3.95131e-07
6.49243e-09
3.95804e-07
5.18203e-09
3.96339e-07
3.22571e-09
3.96961e-07
1.31214e-09
3.97834e-07
-5.00375e-10
3.99075e-07
-2.37182e-09
4.00802e-07
-4.48605e-09
4.03153e-07
-7.03294e-09
4.06294e-07
-1.02402e-08
4.10428e-07
-1.44124e-08
4.15784e-07
-2.00751e-08
4.22562e-07
-2.80636e-08
4.30379e-07
-4.01146e-08
-5.77782e-08
4.38047e-07
4.18347e-07
-7.10914e-09
4.19696e-07
1.48898e-09
4.20955e-07
3.74644e-09
4.22275e-07
4.82342e-09
4.23596e-07
5.17107e-09
4.24741e-07
4.03751e-09
4.2578e-07
2.18646e-09
4.26886e-07
2.06884e-10
4.28209e-07
-1.82398e-09
4.29874e-07
-4.03657e-09
4.31999e-07
-6.61137e-09
4.34716e-07
-9.74986e-09
4.38169e-07
-1.36927e-08
4.42511e-07
-1.87547e-08
4.47866e-07
-2.54304e-08
4.54241e-07
-3.44379e-08
4.61114e-07
-4.69882e-08
-6.39687e-08
4.67305e-07
4.49121e-07
-5.32177e-09
4.49928e-07
6.8205e-10
4.51079e-07
2.59597e-09
4.52442e-07
3.46016e-09
4.53946e-07
3.66704e-09
4.55395e-07
2.58857e-09
4.56802e-07
7.79424e-10
4.58295e-07
-1.2857e-09
4.60005e-07
-3.53441e-09
4.62049e-07
-6.08009e-09
4.64535e-07
-9.09783e-09
4.67577e-07
-1.27917e-08
4.71285e-07
-1.74009e-08
4.75755e-07
-2.32249e-08
4.81015e-07
-3.06905e-08
4.86935e-07
-4.03575e-08
4.92946e-07
-5.29995e-08
-6.90288e-08
4.98006e-07
4.81856e-07
-3.90591e-09
4.8242e-07
1.18638e-10
4.8347e-07
1.5459e-09
4.8483e-07
2.09949e-09
4.86429e-07
2.0685e-09
4.88076e-07
9.41703e-10
4.89753e-07
-8.97682e-10
4.91554e-07
-3.08647e-09
4.93588e-07
-5.56898e-09
4.95957e-07
-8.44914e-09
4.98753e-07
-1.18941e-08
5.02063e-07
-1.61013e-08
5.05957e-07
-2.12945e-08
5.1047e-07
-2.77378e-08
5.15548e-07
-3.57693e-08
5.20973e-07
-4.57825e-08
5.26185e-07
-5.82116e-08
-7.31573e-08
5.30314e-07
5.16861e-07
-2.80858e-09
5.17303e-07
-3.24009e-10
5.18269e-07
5.80306e-10
5.19603e-07
7.65295e-10
5.21241e-07
4.30391e-10
5.23013e-07
-8.30314e-10
5.24886e-07
-2.77008e-09
5.26925e-07
-5.12622e-09
5.29221e-07
-7.86447e-09
5.31854e-07
-1.10826e-08
5.34897e-07
-1.49364e-08
5.38402e-07
-1.9607e-08
5.42399e-07
-2.52916e-08
5.46866e-07
-3.22042e-08
5.51685e-07
-4.05879e-08
5.56584e-07
-5.06822e-08
5.61047e-07
-6.26748e-08
-7.64755e-08
5.64366e-07
5.54333e-07
-2.00774e-09
5.54714e-07
-7.05232e-10
5.55617e-07
-3.22128e-10
5.56917e-07
-5.34871e-10
5.58561e-07
-1.21434e-09
5.60407e-07
-2.67585e-09
5.62414e-07
-4.7774e-09
5.6463e-07
-7.34185e-09
5.67122e-07
-1.03562e-08
5.69951e-07
-1.39123e-08
5.73165e-07
-1.81496e-08
5.76783e-07
-2.32258e-08
5.80793e-07
-2.93013e-08
5.85123e-07
-3.65337e-08
5.89608e-07
-4.50737e-08
5.93958e-07
-5.50319e-08
5.97711e-07
-6.64274e-08
-7.90649e-08
6.003e-07
5.94438e-07
-1.46788e-09
5.948e-07
-1.06773e-09
5.95663e-07
-1.18491e-09
5.96931e-07
-1.80269e-09
5.98563e-07
-2.84623e-09
6.00443e-07
-4.55637e-09
6.02534e-07
-6.8682e-09
6.04866e-07
-9.6736e-09
6.07487e-07
-1.29774e-08
6.10438e-07
-1.68634e-08
6.13739e-07
-2.14504e-08
6.17379e-07
-2.68657e-08
6.21305e-07
-3.32277e-08
6.25408e-07
-4.0636e-08
6.29494e-07
-4.91597e-08
6.33271e-07
-5.88095e-08
6.36342e-07
-6.94979e-08
-8.09823e-08
6.38259e-07
6.37359e-07
-1.14551e-09
6.37731e-07
-1.43962e-09
6.38575e-07
-2.02888e-09
6.39815e-07
-3.04294e-09
6.41421e-07
-4.45235e-09
6.43305e-07
-6.44076e-09
6.45433e-07
-8.99612e-09
6.47823e-07
-1.2063e-08
6.50504e-07
-1.56588e-08
6.53497e-07
-1.98559e-08
6.56795e-07
-2.47485e-08
6.60358e-07
-3.04291e-08
6.64103e-07
-3.69724e-08
6.6789e-07
-4.44228e-08
6.71513e-07
-5.27831e-08
6.74696e-07
-6.19927e-08
6.77102e-07
-7.1904e-08
-8.22653e-08
6.78385e-07
5.73946e-07
-1.00835e-09
5.74274e-07
-1.76736e-09
5.74983e-07
-2.73762e-09
5.76012e-07
-4.07199e-09
5.7734e-07
-5.78011e-09
5.78913e-07
-8.01374e-09
5.80704e-07
-1.0788e-08
5.82722e-07
-1.40802e-08
5.84977e-07
-1.79145e-08
5.87472e-07
-2.2351e-08
5.90184e-07
-2.74603e-08
5.9306e-07
-3.33045e-08
5.96009e-07
-3.9922e-08
5.98902e-07
-4.73161e-08
6.01565e-07
-5.54454e-08
6.03781e-07
-6.42089e-08
6.05312e-07
-7.34352e-08
-8.28782e-08
6.05925e-07
6.99767e-07
-9.60175e-10
7.00178e-07
-2.17844e-09
7.00983e-07
-3.5421e-09
7.02134e-07
-5.22279e-09
7.03611e-07
-7.25722e-09
7.05366e-07
-9.7689e-09
7.07373e-07
-1.27953e-08
7.09632e-07
-1.63392e-08
7.12144e-07
-2.04265e-08
7.14894e-07
-2.51004e-08
7.17837e-07
-3.04038e-08
7.20897e-07
-3.63637e-08
7.23955e-07
-4.29802e-08
7.26856e-07
-5.02172e-08
7.29407e-07
-5.79964e-08
7.31388e-07
-6.61897e-08
7.32571e-07
-7.46183e-08
-8.30606e-08
7.32753e-07
8.5313e-07
-1.00508e-09
8.53627e-07
-2.67541e-09
8.54526e-07
-4.4418e-09
8.55785e-07
-6.48183e-09
8.57384e-07
-8.85544e-09
8.59279e-07
-1.16641e-08
8.61444e-07
-1.49604e-08
8.63869e-07
-1.87639e-08
8.66538e-07
-2.30963e-08
8.69418e-07
-2.79798e-08
8.7244e-07
-3.34254e-08
8.75499e-07
-3.94235e-08
8.78456e-07
-4.59367e-08
8.81134e-07
-5.28953e-08
8.83332e-07
-6.01948e-08
8.84838e-07
-6.76953e-08
8.85446e-07
-7.52265e-08
-8.26031e-08
8.84989e-07
1.04005e-06
-1.13122e-09
1.04061e-06
-3.24185e-09
1.04158e-06
-5.41122e-09
1.04291e-06
-7.80652e-09
1.04456e-06
-1.05092e-08
1.04651e-06
-1.36081e-08
1.04871e-06
-1.71629e-08
1.05115e-06
-2.12012e-08
1.05378e-06
-2.57352e-08
1.05657e-06
-3.07625e-08
1.0594e-06
-3.62616e-08
1.06217e-06
-4.21874e-08
1.0647e-06
-4.84704e-08
1.06682e-06
-5.50161e-08
1.06833e-06
-6.17073e-08
1.06905e-06
-6.84068e-08
1.06879e-06
-7.49658e-08
-8.12408e-08
1.06742e-06
1.26785e-06
-1.3071e-09
1.26845e-06
-3.83237e-09
1.26941e-06
-6.38007e-09
1.27071e-06
-9.09997e-09
1.27229e-06
-1.20886e-08
1.27411e-06
-1.54307e-08
1.27613e-06
-1.91877e-08
1.27832e-06
-2.33877e-08
1.28062e-06
-2.80304e-08
1.28294e-06
-3.30891e-08
1.28519e-06
-3.85122e-08
1.28723e-06
-4.42251e-08
1.2889e-06
-5.01348e-08
1.29001e-06
-5.61333e-08
1.29041e-06
-6.21031e-08
1.28992e-06
-6.79217e-08
1.28843e-06
-7.34692e-08
-7.86441e-08
1.28583e-06
1.5455e-06
-1.48504e-09
1.54602e-06
-4.35999e-09
1.54686e-06
-7.21609e-09
1.54795e-06
-1.01854e-08
1.54923e-06
-1.3369e-08
1.55065e-06
-1.68518e-08
1.55215e-06
-2.06945e-08
1.55369e-06
-2.49227e-08
1.55518e-06
-2.95246e-08
1.55655e-06
-3.44539e-08
1.55767e-06
-3.96359e-08
1.55842e-06
-4.49759e-08
1.55865e-06
-5.03675e-08
1.55822e-06
-5.57002e-08
1.55698e-06
-6.08657e-08
1.55483e-06
-6.57628e-08
1.55166e-06
-7.03028e-08
-7.44212e-08
1.54744e-06
1.88388e-06
-1.60384e-09
1.88421e-06
-4.68965e-09
1.88471e-06
-7.71711e-09
1.88532e-06
-1.07957e-08
1.88597e-06
-1.40194e-08
1.88659e-06
-1.74728e-08
1.88712e-06
-2.12177e-08
1.88747e-06
-2.52788e-08
1.88759e-06
-2.96388e-08
1.88737e-06
-3.42404e-08
1.88674e-06
-3.89964e-08
1.88556e-06
-4.38016e-08
1.88374e-06
-4.85457e-08
1.88116e-06
-5.3123e-08
1.87774e-06
-5.74394e-08
1.87339e-06
-6.1416e-08
1.86808e-06
-6.49926e-08
-6.81346e-08
1.86179e-06
2.29631e-06
-1.5776e-09
2.29625e-06
-4.63047e-09
2.29615e-06
-7.61857e-09
2.29595e-06
-1.05975e-08
2.29557e-06
-1.36412e-08
2.29494e-06
-1.68352e-08
2.29396e-06
-2.02446e-08
2.29258e-06
-2.39001e-08
2.29073e-06
-2.77886e-08
2.28835e-06
-3.18526e-08
2.28535e-06
-3.60009e-08
2.28167e-06
-4.01249e-08
2.27724e-06
-4.41157e-08
2.272e-06
-4.78751e-08
2.26588e-06
-5.13235e-08
2.25887e-06
-5.44025e-08
2.25095e-06
-5.70755e-08
-5.93306e-08
2.24215e-06
1.68091e-06
-1.41571e-09
1.68055e-06
-4.27291e-09
1.68007e-06
-7.13469e-09
1.67942e-06
-9.95099e-09
1.67856e-06
-1.27772e-08
1.67742e-06
-1.56982e-08
1.67595e-06
-1.87782e-08
1.67411e-06
-2.20571e-08
1.67185e-06
-2.55328e-08
1.66915e-06
-2.9153e-08
1.66598e-06
-3.28266e-08
1.6623e-06
-3.64445e-08
1.65808e-06
-3.98992e-08
1.65331e-06
-4.30979e-08
1.64795e-06
-4.59705e-08
1.64202e-06
-4.84714e-08
1.63552e-06
-5.05778e-08
-5.22901e-08
1.62848e-06
1.46313e-06
-1.09001e-09
1.46256e-06
-3.69812e-09
1.46189e-06
-6.46997e-09
1.46109e-06
-9.14508e-09
1.46009e-06
-1.17798e-08
1.45884e-06
-1.44488e-08
1.45727e-06
-1.72065e-08
1.45532e-06
-2.01115e-08
1.45297e-06
-2.31827e-08
1.4502e-06
-2.63772e-08
1.44698e-06
-2.96058e-08
1.44329e-06
-3.27598e-08
1.43912e-06
-3.57332e-08
1.43447e-06
-3.84386e-08
1.42931e-06
-4.08146e-08
1.42366e-06
-4.28268e-08
1.41755e-06
-4.44645e-08
-4.57375e-08
1.411e-06
1.27341e-06
-4.83313e-10
1.27264e-06
-2.93464e-09
1.27194e-06
-5.76329e-09
1.27117e-06
-8.3739e-09
1.27028e-06
-1.0891e-08
1.26918e-06
-1.33513e-08
1.26777e-06
-1.57928e-08
1.26597e-06
-1.83157e-08
1.26376e-06
-2.09748e-08
1.26113e-06
-2.37409e-08
1.25805e-06
-2.65287e-08
1.25452e-06
-2.92308e-08
1.25053e-06
-3.1744e-08
1.24608e-06
-3.39865e-08
1.24117e-06
-3.5906e-08
1.23582e-06
-3.74791e-08
1.23006e-06
-3.87056e-08
-3.96032e-08
1.22393e-06
1.10804e-06
5.65115e-10
1.10713e-06
-2.01971e-09
1.10651e-06
-5.14379e-09
1.10593e-06
-7.7923e-09
1.10532e-06
-1.02816e-08
1.10453e-06
-1.25583e-08
1.10339e-06
-1.46564e-08
1.10183e-06
-1.67589e-08
1.09983e-06
-1.89724e-08
1.09737e-06
-2.12842e-08
1.09446e-06
-2.36137e-08
1.09108e-06
-2.58558e-08
1.08725e-06
-2.79108e-08
1.08297e-06
-2.97039e-08
1.07825e-06
-3.11918e-08
1.07314e-06
-3.23615e-08
1.06765e-06
-3.3222e-08
-3.37964e-08
1.06185e-06
9.63875e-07
2.21135e-09
9.6289e-07
-1.03435e-09
9.62486e-07
-4.74001e-09
9.62219e-07
-7.52525e-09
9.61997e-07
-1.00596e-08
9.61563e-07
-1.21242e-08
9.60708e-07
-1.38019e-08
9.59364e-07
-1.54141e-08
9.5752e-07
-1.71288e-08
9.55183e-07
-1.89469e-08
9.5236e-07
-2.07914e-08
9.49064e-07
-2.25597e-08
9.4531e-07
-2.41563e-08
9.41119e-07
-2.55129e-08
9.36523e-07
-2.65956e-08
9.31561e-07
-2.73999e-08
9.2628e-07
-2.79415e-08
-2.82466e-08
9.20731e-07
8.3801e-07
4.73686e-09
8.37224e-07
-2.48494e-10
8.37211e-07
-4.72744e-09
8.37356e-07
-7.67026e-09
8.37554e-07
-1.02576e-08
8.37431e-07
-1.20004e-08
8.36761e-07
-1.31324e-08
8.35513e-07
-1.41657e-08
8.33708e-07
-1.53245e-08
8.31375e-07
-1.66136e-08
8.28538e-07
-1.79547e-08
8.25224e-07
-1.92458e-08
8.21463e-07
-2.03949e-08
8.17291e-07
-2.13405e-08
8.12751e-07
-2.20561e-08
8.07895e-07
-2.25436e-08
8.02776e-07
-2.28223e-08
-2.29179e-08
7.97447e-07
7.27543e-07
8.92218e-09
7.27712e-07
-4.16944e-10
7.2838e-07
-5.39562e-09
7.2902e-07
-8.31028e-09
7.29585e-07
-1.08226e-08
7.29614e-07
-1.20293e-08
7.28937e-07
-1.24553e-08
7.27596e-07
-1.28248e-08
7.25662e-07
-1.33913e-08
7.23192e-07
-1.41432e-08
7.20227e-07
-1.49898e-08
7.16807e-07
-1.58256e-08
7.12973e-07
-1.65611e-08
7.08773e-07
-1.71408e-08
7.04261e-07
-1.7544e-08
6.99494e-07
-1.77759e-08
6.94527e-07
-1.78561e-08
-1.78071e-08
6.89417e-07
6.30167e-07
1.57613e-08
6.32445e-07
-2.6949e-09
6.33987e-07
-6.93682e-09
6.35152e-07
-9.47584e-09
6.35923e-07
-1.1593e-08
6.3582e-07
-1.19266e-08
6.34838e-07
-1.14737e-08
6.33148e-07
-1.11345e-08
6.30886e-07
-1.11296e-08
6.28134e-07
-1.13914e-08
6.24943e-07
-1.17984e-08
6.21354e-07
-1.22368e-08
6.17414e-07
-1.26207e-08
6.13174e-07
-1.29012e-08
6.08692e-07
-1.30622e-08
6.04026e-07
-1.31096e-08
5.9923e-07
-1.30605e-08
-1.29325e-08
5.94356e-07
5.47141e-07
2.31668e-08
5.51592e-07
-7.14611e-09
5.52939e-07
-8.28346e-09
5.54141e-07
-1.06784e-08
5.54587e-07
-1.20392e-08
5.53797e-07
-1.11358e-08
5.52039e-07
-9.71646e-09
5.49657e-07
-8.75251e-09
5.46845e-07
-8.31699e-09
5.43679e-07
-8.22544e-09
5.40189e-07
-8.30827e-09
5.364e-07
-8.44772e-09
5.32349e-07
-8.56951e-09
5.28083e-07
-8.63576e-09
5.23657e-07
-8.63574e-09
5.19122e-07
-8.57544e-09
5.14529e-07
-8.46706e-09
-8.32457e-09
5.09921e-07
4.91508e-07
1.44196e-08
4.9047e-07
-6.10832e-09
4.86803e-07
-4.61609e-09
4.85457e-07
-9.33238e-09
4.835e-07
-1.00824e-08
4.8051e-07
-8.14596e-09
4.77033e-07
-6.23959e-09
4.73437e-07
-5.15633e-09
4.69804e-07
-4.68358e-09
4.66087e-07
-4.50851e-09
4.62231e-07
-4.45218e-09
4.58214e-07
-4.43093e-09
4.54049e-07
-4.405e-09
4.49772e-07
-4.35795e-09
4.45424e-07
-4.28775e-09
4.41049e-07
-4.20128e-09
4.3669e-07
-4.10766e-09
-4.05116e-09
4.32417e-07
4.34687e-07
4.28579e-07
4.23963e-07
4.1463e-07
4.04548e-07
3.96402e-07
3.90162e-07
3.85006e-07
3.80323e-07
3.75814e-07
3.71362e-07
3.66931e-07
3.62526e-07
3.58168e-07
3.5388e-07
3.49679e-07
3.45571e-07
3.4152e-07
-1.12336e-08
1.12336e-08
-1.91801e-08
7.94651e-09
-2.45963e-08
5.41616e-09
-2.77905e-08
3.19424e-09
-2.9146e-08
1.35552e-09
-2.90199e-08
-1.26138e-10
-2.77016e-08
-1.31829e-09
-2.54077e-08
-2.29389e-09
-2.2293e-08
-3.11472e-09
-1.84648e-08
-3.82818e-09
-1.39955e-08
-4.46933e-09
-8.93175e-09
-5.0637e-09
-3.30156e-09
-5.63019e-09
2.87708e-09
-6.17864e-09
9.5887e-09
-6.71162e-09
1.68197e-08
-7.23098e-09
2.4557e-08
-7.73729e-09
3.27862e-08
-8.22919e-09
4.14901e-08
-8.70399e-09
5.06484e-08
-9.15823e-09
6.02364e-08
-9.58799e-09
7.02256e-08
-9.98925e-09
8.05837e-08
-1.03581e-08
9.12747e-08
-1.0691e-08
1.02259e-07
-1.09848e-08
1.13496e-07
-1.12369e-08
1.24942e-07
-1.14454e-08
1.36551e-07
-1.16091e-08
1.48278e-07
-1.17274e-08
1.60079e-07
-1.18005e-08
1.71908e-07
-1.18292e-08
1.83723e-07
-1.18147e-08
1.95482e-07
-1.17589e-08
2.07146e-07
-1.16642e-08
2.18679e-07
-1.15331e-08
2.30047e-07
-1.13685e-08
2.41221e-07
-1.11737e-08
2.52173e-07
-1.09518e-08
2.62879e-07
-1.07061e-08
2.73319e-07
-1.04398e-08
2.83475e-07
-1.01562e-08
2.93333e-07
-9.85834e-09
3.02882e-07
-9.54908e-09
3.12114e-07
-9.23121e-09
3.21021e-07
-8.90727e-09
3.29601e-07
-8.57959e-09
3.37851e-07
-8.25029e-09
3.45772e-07
-7.92127e-09
3.53366e-07
-7.59419e-09
3.60637e-07
-7.27054e-09
3.67588e-07
-6.95158e-09
3.74227e-07
-6.6384e-09
3.80559e-07
-6.33189e-09
3.86592e-07
-6.03283e-09
3.92333e-07
-5.74179e-09
3.97793e-07
-5.45925e-09
4.02978e-07
-5.18557e-09
4.07899e-07
-4.92098e-09
4.12565e-07
-4.66564e-09
4.16984e-07
-4.41963e-09
4.21167e-07
-4.18294e-09
4.25123e-07
-3.95554e-09
4.2886e-07
-3.73731e-09
4.32388e-07
-3.52811e-09
4.35716e-07
-3.32777e-09
4.38852e-07
-3.13608e-09
4.41805e-07
-2.95281e-09
4.44583e-07
-2.77772e-09
4.47193e-07
-2.61057e-09
4.49644e-07
-2.45107e-09
4.51943e-07
-2.29898e-09
4.54097e-07
-2.15402e-09
4.56113e-07
-2.0159e-09
4.57998e-07
-1.88437e-09
4.59757e-07
-1.75916e-09
4.61397e-07
-1.64001e-09
4.62923e-07
-1.52666e-09
4.64342e-07
-1.41885e-09
4.65659e-07
-1.31634e-09
4.66878e-07
-1.2189e-09
4.68004e-07
-1.12629e-09
4.69042e-07
-1.03829e-09
4.69997e-07
-9.54687e-10
4.70872e-07
-8.75268e-10
4.71672e-07
-7.99838e-10
4.724e-07
-7.28194e-10
4.7306e-07
-6.60163e-10
4.73656e-07
-5.95549e-10
4.7419e-07
-5.34183e-10
4.74666e-07
-4.75896e-10
4.75086e-07
-4.20518e-10
4.75454e-07
-3.67914e-10
4.75772e-07
-3.17936e-10
4.76043e-07
-2.70466e-10
4.76268e-07
-2.2534e-10
4.7645e-07
-1.82407e-10
4.76592e-07
-1.41458e-10
4.76694e-07
-1.02139e-10
4.76758e-07
-6.39174e-11
4.76783e-07
-2.47001e-11
4.76766e-07
1.63225e-11
4.76711e-07
5.57195e-11
4.7662e-07
9.06691e-11
4.76499e-07
1.21421e-10
4.7635e-07
1.48915e-10
4.76176e-07
1.73878e-10
4.75979e-07
1.96808e-10
4.75761e-07
2.18108e-10
4.75523e-07
2.38067e-10
4.75266e-07
2.56896e-10
4.74991e-07
2.74735e-10
4.74699e-07
2.91686e-10
4.74392e-07
3.07819e-10
4.74068e-07
3.232e-10
4.73731e-07
3.37882e-10
4.73379e-07
3.51914e-10
4.73013e-07
3.65323e-10
4.72635e-07
3.78172e-10
4.72245e-07
3.9047e-10
4.71842e-07
4.02282e-10
4.71429e-07
4.13618e-10
4.71004e-07
4.24529e-10
4.70569e-07
4.35029e-10
4.70124e-07
4.45155e-10
4.69669e-07
4.54915e-10
4.69205e-07
4.64319e-10
4.68731e-07
4.734e-10
4.68249e-07
4.82153e-10
4.67759e-07
4.90607e-10
4.6726e-07
4.98791e-10
4.66753e-07
5.06722e-10
4.66239e-07
5.14455e-10
4.65717e-07
5.22011e-10
4.65187e-07
5.29445e-10
4.6465e-07
5.36793e-10
4.64106e-07
5.44097e-10
4.63555e-07
5.51374e-10
4.62996e-07
5.58675e-10
4.6243e-07
5.65999e-10
4.61857e-07
5.73361e-10
4.61276e-07
5.80769e-10
4.60688e-07
5.88214e-10
4.60092e-07
5.95698e-10
4.59489e-07
6.03199e-10
4.58878e-07
6.10714e-10
4.5826e-07
6.18232e-10
4.57634e-07
6.2576e-10
4.57001e-07
6.33303e-10
4.5636e-07
6.40877e-10
4.55712e-07
6.48492e-10
4.55056e-07
6.56163e-10
4.54392e-07
6.63925e-10
4.5372e-07
6.7181e-10
4.5304e-07
6.79852e-10
4.52352e-07
6.88116e-10
4.51655e-07
6.9667e-10
4.5095e-07
7.05616e-10
4.50234e-07
7.15061e-10
4.49509e-07
7.25163e-10
4.48773e-07
7.36112e-10
4.48025e-07
7.48172e-10
4.47263e-07
7.61667e-10
4.46486e-07
7.77045e-10
4.45691e-07
7.94881e-10
4.44875e-07
8.15969e-10
4.44034e-07
8.4137e-10
4.43162e-07
8.72533e-10
4.4225e-07
9.11496e-10
4.41289e-07
9.61142e-10
4.40263e-07
1.02565e-09
4.39152e-07
1.11131e-09
4.37924e-07
1.22791e-09
4.36532e-07
1.39167e-09
4.34901e-07
1.63098e-09
4.32899e-07
2.00206e-09
4.3028e-07
2.61956e-09
4.26487e-07
3.79315e-09
4.20337e-07
6.14924e-09
4.08052e-07
1.22858e-08
2.3974e-08
3.84078e-07
-4.30918e-09
1.55428e-08
-7.07824e-09
1.07156e-08
-8.9187e-09
7.25662e-09
-1.01223e-08
4.39781e-09
-1.07219e-08
1.95519e-09
-1.06905e-08
-1.57548e-10
-9.99884e-09
-2.00998e-09
-8.63152e-09
-3.66122e-09
-6.58436e-09
-5.16188e-09
-3.85872e-09
-6.55383e-09
-4.58557e-10
-7.8695e-09
3.61014e-09
-9.1324e-09
8.33831e-09
-1.03584e-08
1.37161e-08
-1.15565e-08
1.97347e-08
-1.27302e-08
2.63829e-08
-1.38792e-08
3.36458e-08
-1.50001e-08
4.1504e-08
-1.60874e-08
4.99341e-08
-1.71341e-08
5.89081e-08
-1.81323e-08
6.83938e-08
-1.90737e-08
7.8355e-08
-1.99504e-08
8.87515e-08
-2.07546e-08
9.95401e-08
-2.14796e-08
1.10675e-07
-2.21196e-08
1.22108e-07
-2.267e-08
1.3379e-07
-2.31275e-08
1.45672e-07
-2.34903e-08
1.57702e-07
-2.37576e-08
1.69832e-07
-2.39303e-08
1.82013e-07
-2.40104e-08
1.94199e-07
-2.40009e-08
2.06346e-07
-2.39059e-08
2.18412e-07
-2.37302e-08
2.30358e-07
-2.34794e-08
2.42149e-07
-2.31597e-08
2.53753e-07
-2.27773e-08
2.6514e-07
-2.2339e-08
2.76285e-07
-2.18513e-08
2.87166e-07
-2.1321e-08
2.97765e-07
-2.07545e-08
3.08065e-07
-2.01581e-08
3.18053e-07
-1.95376e-08
3.27721e-07
-1.88988e-08
3.3706e-07
-1.82466e-08
3.46066e-07
-1.7586e-08
3.54737e-07
-1.69211e-08
3.63072e-07
-1.62558e-08
3.71071e-07
-1.55937e-08
3.78738e-07
-1.49376e-08
3.86077e-07
-1.42902e-08
3.93092e-07
-1.36538e-08
3.9979e-07
-1.30302e-08
4.06179e-07
-1.2421e-08
4.12264e-07
-1.18275e-08
4.18056e-07
-1.12507e-08
4.23562e-07
-1.06914e-08
4.28791e-07
-1.01501e-08
4.33752e-07
-9.62717e-09
4.38456e-07
-9.12284e-09
4.4291e-07
-8.63719e-09
4.47124e-07
-8.17015e-09
4.51109e-07
-7.72156e-09
4.54872e-07
-7.29117e-09
4.58423e-07
-6.87868e-09
4.6177e-07
-6.4837e-09
4.64923e-07
-6.10581e-09
4.6789e-07
-5.74456e-09
4.70679e-07
-5.39943e-09
4.73298e-07
-5.06995e-09
4.75754e-07
-4.75557e-09
4.78056e-07
-4.45577e-09
4.8021e-07
-4.17001e-09
4.82224e-07
-3.89775e-09
4.84103e-07
-3.63848e-09
4.85855e-07
-3.39166e-09
4.87485e-07
-3.15677e-09
4.88999e-07
-2.93331e-09
4.90404e-07
-2.7208e-09
4.91704e-07
-2.51873e-09
4.92904e-07
-2.32666e-09
4.9401e-07
-2.14413e-09
4.95026e-07
-1.9707e-09
4.95956e-07
-1.80593e-09
4.96806e-07
-1.64944e-09
4.97579e-07
-1.50081e-09
4.98278e-07
-1.35969e-09
4.98908e-07
-1.22568e-09
4.99473e-07
-1.09845e-09
4.99974e-07
-9.77659e-10
5.00417e-07
-8.62983e-10
5.00803e-07
-7.54114e-10
5.01136e-07
-6.50764e-10
5.01418e-07
-5.52635e-10
5.01652e-07
-4.59431e-10
5.0184e-07
-3.70845e-10
5.01986e-07
-2.86547e-10
5.0209e-07
-2.06185e-10
5.02155e-07
-1.29364e-10
5.02186e-07
-5.55442e-11
5.02186e-07
1.60111e-11
5.02157e-07
8.51733e-11
5.02097e-07
1.50871e-10
5.02006e-07
2.12325e-10
5.01885e-07
2.69518e-10
5.01736e-07
3.22748e-10
5.01561e-07
3.72386e-10
5.0136e-07
4.18826e-10
5.01136e-07
4.62426e-10
5.00889e-07
5.03519e-10
5.00621e-07
5.4235e-10
5.00334e-07
5.79146e-10
5.00028e-07
6.14076e-10
4.99703e-07
6.47303e-10
4.99362e-07
6.7893e-10
4.99005e-07
7.09092e-10
4.98633e-07
7.37877e-10
4.98246e-07
7.65372e-10
4.97844e-07
7.91672e-10
4.9743e-07
8.16859e-10
4.97002e-07
8.41004e-10
4.96563e-07
8.64183e-10
4.96111e-07
8.86457e-10
4.95649e-07
9.07888e-10
4.95175e-07
9.28528e-10
4.94691e-07
9.48413e-10
4.94197e-07
9.67576e-10
4.93693e-07
9.86062e-10
4.93179e-07
1.00391e-09
4.92657e-07
1.02116e-09
4.92126e-07
1.03787e-09
4.91586e-07
1.0541e-09
4.91038e-07
1.06992e-09
4.90482e-07
1.08542e-09
4.89919e-07
1.10066e-09
4.89347e-07
1.1157e-09
4.88768e-07
1.13063e-09
4.88181e-07
1.1455e-09
4.87586e-07
1.16035e-09
4.86985e-07
1.17521e-09
4.86375e-07
1.19012e-09
4.85758e-07
1.20507e-09
4.85134e-07
1.22007e-09
4.84502e-07
1.2351e-09
4.83863e-07
1.25017e-09
4.83216e-07
1.26526e-09
4.82561e-07
1.28038e-09
4.81899e-07
1.29552e-09
4.81229e-07
1.31073e-09
4.80551e-07
1.32602e-09
4.79866e-07
1.34143e-09
4.79173e-07
1.35701e-09
4.78472e-07
1.37281e-09
4.77763e-07
1.38892e-09
4.77046e-07
1.40545e-09
4.7632e-07
1.42253e-09
4.75585e-07
1.44032e-09
4.74841e-07
1.45906e-09
4.74087e-07
1.47901e-09
4.73323e-07
1.50056e-09
4.72547e-07
1.52417e-09
4.71758e-07
1.55046e-09
4.70955e-07
1.58025e-09
4.70135e-07
1.61462e-09
4.69296e-07
1.65502e-09
4.68434e-07
1.70342e-09
4.67544e-07
1.76247e-09
4.6662e-07
1.83589e-09
4.65652e-07
1.92888e-09
4.64629e-07
2.04895e-09
4.63533e-07
2.2072e-09
4.6234e-07
2.42062e-09
4.61015e-07
2.71661e-09
4.59505e-07
3.14141e-09
4.57725e-07
3.7815e-09
4.55543e-07
4.80222e-09
4.52728e-07
6.6079e-09
4.48914e-07
9.96312e-09
4.43457e-07
1.77424e-08
3.28994e-08
4.34532e-07
9.34296e-12
1.55334e-08
-2.76746e-10
1.10017e-08
-6.56525e-10
7.6364e-09
-1.0229e-09
4.76418e-09
-1.23931e-09
2.1716e-09
-1.17197e-09
-2.24885e-10
-7.07579e-10
-2.47437e-09
2.4423e-10
-4.61303e-09
1.75284e-09
-6.67049e-09
3.86979e-09
-8.67077e-09
6.63226e-09
-1.0632e-08
1.00659e-08
-1.25661e-08
1.41869e-08
-1.44794e-08
1.90033e-08
-1.63728e-08
2.45159e-08
-1.82428e-08
3.0719e-08
-2.00823e-08
3.76002e-08
-2.18813e-08
4.51407e-08
-2.36278e-08
5.33153e-08
-2.53087e-08
6.20935e-08
-2.69104e-08
7.14391e-08
-2.84193e-08
8.13113e-08
-2.98226e-08
9.16651e-08
-3.11085e-08
1.02452e-07
-3.22667e-08
1.13621e-07
-3.32887e-08
1.25119e-07
-3.41682e-08
1.36892e-07
-3.49006e-08
1.48886e-07
-3.54836e-08
1.61045e-07
-3.5917e-08
1.73317e-07
-3.62026e-08
1.85651e-07
-3.63439e-08
1.97996e-07
-3.63463e-08
2.10307e-07
-3.62165e-08
2.22539e-07
-3.59622e-08
2.34652e-07
-3.55924e-08
2.46609e-07
-3.51166e-08
2.58376e-07
-3.45448e-08
2.69925e-07
-3.38874e-08
2.81228e-07
-3.31545e-08
2.92263e-07
-3.23565e-08
3.03012e-07
-3.15032e-08
3.13458e-07
-3.06042e-08
3.23589e-07
-2.96685e-08
3.33395e-07
-2.87046e-08
3.42868e-07
-2.77202e-08
3.52005e-07
-2.67227e-08
3.60802e-07
-2.57184e-08
3.6926e-07
-2.47132e-08
3.77379e-07
-2.37124e-08
3.85161e-07
-2.27203e-08
3.92612e-07
-2.17411e-08
3.99736e-07
-2.0778e-08
4.0654e-07
-1.9834e-08
4.1303e-07
-1.89113e-08
4.19215e-07
-1.8012e-08
4.25102e-07
-1.71376e-08
4.307e-07
-1.62893e-08
4.36017e-07
-1.54678e-08
4.41064e-07
-1.46739e-08
4.45849e-07
-1.39079e-08
4.50382e-07
-1.31698e-08
4.54671e-07
-1.24597e-08
4.58727e-07
-1.17773e-08
4.62558e-07
-1.11223e-08
4.66174e-07
-1.04943e-08
4.69583e-07
-9.89264e-09
4.72794e-07
-9.31677e-09
4.75815e-07
-8.76603e-09
4.78656e-07
-8.23968e-09
4.81323e-07
-7.73699e-09
4.83824e-07
-7.25719e-09
4.86168e-07
-6.79949e-09
4.88361e-07
-6.36309e-09
4.90411e-07
-5.94721e-09
4.92323e-07
-5.55104e-09
4.94105e-07
-5.17382e-09
4.95763e-07
-4.81477e-09
4.97303e-07
-4.47312e-09
4.98731e-07
-4.14816e-09
5.00051e-07
-3.83914e-09
5.0127e-07
-3.54538e-09
5.02392e-07
-3.26618e-09
5.03422e-07
-3.00088e-09
5.04365e-07
-2.74886e-09
5.05225e-07
-2.50948e-09
5.06006e-07
-2.28215e-09
5.06713e-07
-2.0663e-09
5.07348e-07
-1.86137e-09
5.07917e-07
-1.66684e-09
5.08421e-07
-1.48222e-09
5.08865e-07
-1.30698e-09
5.09252e-07
-1.14069e-09
5.09584e-07
-9.82873e-10
5.09865e-07
-8.33081e-10
5.10096e-07
-6.90882e-10
5.10281e-07
-5.55834e-10
5.10422e-07
-4.27505e-10
5.10521e-07
-3.0547e-10
5.10581e-07
-1.89341e-10
5.10604e-07
-7.87118e-11
5.10593e-07
2.693e-11
5.10551e-07
1.27967e-10
5.10477e-07
2.24228e-10
5.10374e-07
3.15358e-10
5.10243e-07
4.01249e-10
5.10083e-07
4.82028e-10
5.09898e-07
5.57951e-10
5.09687e-07
6.29363e-10
5.09453e-07
6.9662e-10
5.09196e-07
7.60081e-10
5.08919e-07
8.20087e-10
5.08621e-07
8.76921e-10
5.08304e-07
9.30834e-10
5.07969e-07
9.82063e-10
5.07617e-07
1.0308e-09
5.07249e-07
1.07722e-09
5.06866e-07
1.12148e-09
5.06467e-07
1.16374e-09
5.06055e-07
1.20412e-09
5.05629e-07
1.24275e-09
5.0519e-07
1.27975e-09
5.04739e-07
1.31525e-09
5.04276e-07
1.34932e-09
5.03802e-07
1.38209e-09
5.03317e-07
1.41361e-09
5.02822e-07
1.44397e-09
5.02316e-07
1.47323e-09
5.018e-07
1.50145e-09
5.01276e-07
1.5287e-09
5.00742e-07
1.55505e-09
5.00199e-07
1.58057e-09
4.99648e-07
1.60535e-09
4.99088e-07
1.6295e-09
4.98521e-07
1.65311e-09
4.97945e-07
1.67627e-09
4.97362e-07
1.6991e-09
4.96771e-07
1.72169e-09
4.96172e-07
1.74412e-09
4.95566e-07
1.76645e-09
4.94952e-07
1.78874e-09
4.94331e-07
1.81104e-09
4.93703e-07
1.83337e-09
4.93067e-07
1.85574e-09
4.92424e-07
1.87814e-09
4.91774e-07
1.90059e-09
4.91116e-07
1.92308e-09
4.90451e-07
1.9456e-09
4.89778e-07
1.9682e-09
4.89098e-07
1.99088e-09
4.8841e-07
2.0137e-09
4.87715e-07
2.03671e-09
4.87012e-07
2.05997e-09
4.86301e-07
2.08359e-09
4.85583e-07
2.10768e-09
4.84856e-07
2.13239e-09
4.8412e-07
2.15791e-09
4.83376e-07
2.18451e-09
4.82623e-07
2.21251e-09
4.81859e-07
2.24232e-09
4.81085e-07
2.27448e-09
4.803e-07
2.30968e-09
4.79502e-07
2.34885e-09
4.78689e-07
2.39319e-09
4.77859e-07
2.44428e-09
4.7701e-07
2.50426e-09
4.76137e-07
2.57599e-09
4.75236e-07
2.66339e-09
4.743e-07
2.77185e-09
4.7332e-07
2.90893e-09
4.72284e-07
3.08548e-09
4.71173e-07
3.31737e-09
4.69965e-07
3.62869e-09
4.68625e-07
4.05747e-09
4.67099e-07
4.66661e-09
4.65312e-07
5.56839e-09
4.63146e-07
6.96917e-09
4.60434e-07
9.31904e-09
4.56952e-07
1.34459e-08
4.52908e-07
2.17864e-08
3.68042e-08
4.49003e-07
1.56537e-09
1.39681e-08
2.29285e-09
1.02742e-08
2.55058e-09
7.37866e-09
2.57345e-09
4.74132e-09
2.55531e-09
2.18974e-09
2.65999e-09
-3.29566e-10
3.02683e-09
-2.84122e-09
3.77369e-09
-5.35988e-09
4.99835e-09
-7.89515e-09
6.78022e-09
-1.04526e-08
9.18212e-09
-1.30339e-08
1.22521e-08
-1.5636e-08
1.60247e-08
-1.8252e-08
2.05227e-08
-2.08708e-08
2.57576e-08
-2.34777e-08
3.17306e-08
-2.60553e-08
3.84334e-08
-2.85841e-08
4.58487e-08
-3.10431e-08
5.39511e-08
-3.34111e-08
6.27076e-08
-3.5667e-08
7.20788e-08
-3.77905e-08
8.20192e-08
-3.9763e-08
9.24788e-08
-4.1568e-08
1.03404e-07
-4.31914e-08
1.14737e-07
-4.46218e-08
1.26419e-07
-4.58507e-08
1.38391e-07
-4.68729e-08
1.50594e-07
-4.7686e-08
1.62967e-07
-4.82905e-08
1.75455e-07
-4.86898e-08
1.88e-07
-4.88896e-08
2.00552e-07
-4.8898e-08
2.1306e-07
-4.87248e-08
2.2548e-07
-4.83816e-08
2.37768e-07
-4.78809e-08
2.49888e-07
-4.72363e-08
2.61805e-07
-4.64619e-08
2.73489e-07
-4.55719e-08
2.84916e-07
-4.45807e-08
2.96061e-07
-4.35022e-08
3.06908e-07
-4.23501e-08
3.17441e-07
-4.11373e-08
3.27649e-07
-3.9876e-08
3.37522e-07
-3.85776e-08
3.47054e-07
-3.72526e-08
3.56242e-07
-3.59107e-08
3.65085e-07
-3.45605e-08
3.73581e-07
-3.32098e-08
3.81734e-07
-3.18654e-08
3.89547e-07
-3.05333e-08
3.97025e-07
-2.92187e-08
4.04173e-07
-2.79261e-08
4.10998e-07
-2.66592e-08
4.17508e-07
-2.54211e-08
4.2371e-07
-2.42143e-08
4.29613e-07
-2.30409e-08
4.35227e-07
-2.19024e-08
4.40559e-07
-2.07999e-08
4.45619e-07
-1.97342e-08
4.50417e-07
-1.87057e-08
4.54962e-07
-1.77146e-08
4.59263e-07
-1.67608e-08
4.63329e-07
-1.5844e-08
4.67171e-07
-1.49638e-08
4.70796e-07
-1.41196e-08
4.74214e-07
-1.33106e-08
4.77433e-07
-1.25361e-08
4.80463e-07
-1.17953e-08
4.8331e-07
-1.1087e-08
4.85983e-07
-1.04105e-08
4.88491e-07
-9.76453e-09
4.90839e-07
-9.1482e-09
4.93037e-07
-8.56045e-09
4.9509e-07
-8.00021e-09
4.97005e-07
-7.46644e-09
4.98789e-07
-6.95809e-09
5.00449e-07
-6.47416e-09
5.01989e-07
-6.01363e-09
5.03417e-07
-5.57553e-09
5.04736e-07
-5.15889e-09
5.05954e-07
-4.76279e-09
5.07074e-07
-4.3863e-09
5.08102e-07
-4.02855e-09
5.09042e-07
-3.6887e-09
5.09898e-07
-3.36588e-09
5.10675e-07
-3.05935e-09
5.11377e-07
-2.7683e-09
5.12008e-07
-2.49202e-09
5.12571e-07
-2.22978e-09
5.13069e-07
-1.98092e-09
5.13507e-07
-1.74478e-09
5.13887e-07
-1.52072e-09
5.14212e-07
-1.30814e-09
5.14486e-07
-1.10642e-09
5.1471e-07
-9.15001e-10
5.14887e-07
-7.33302e-10
5.15021e-07
-5.60781e-10
5.15112e-07
-3.96932e-10
5.15164e-07
-2.41286e-10
5.15179e-07
-9.33798e-11
5.15158e-07
4.72604e-11
5.15105e-07
1.81118e-10
5.15021e-07
3.08406e-10
5.14907e-07
4.29134e-10
5.14765e-07
5.43368e-10
5.14596e-07
6.51259e-10
5.14401e-07
7.53071e-10
5.14181e-07
8.49126e-10
5.13938e-07
9.39809e-10
5.13673e-07
1.0255e-09
5.13386e-07
1.10656e-09
5.1308e-07
1.18336e-09
5.12754e-07
1.25621e-09
5.12411e-07
1.3254e-09
5.1205e-07
1.39119e-09
5.11674e-07
1.45383e-09
5.11282e-07
1.51352e-09
5.10875e-07
1.57047e-09
5.10454e-07
1.62487e-09
5.1002e-07
1.67689e-09
5.09573e-07
1.72668e-09
5.09114e-07
1.77442e-09
5.08643e-07
1.82022e-09