/*--------------------------------*- C++ -*----------------------------------*\
  =========                 |
  \\      /  F ield         | OpenFOAM: The Open Source CFD Toolbox
   \\    /   O peration     | Website:  https://openfoam.org
    \\  /    A nd           | Version:  6
     \\/     M anipulation  |
\*---------------------------------------------------------------------------*/
FoamFile
{
    version     2.0;
    format      ascii;
    class       volVectorField;
    location    "0.02";
    object      U;
}
// * * * * * * * * * * * * * * * * * * * * * * * * * * * * * * * * * * * * * //

dimensions      [0 1 -1 0 0 0 0];

internalField   nonuniform List<vector> 
12225
(
(0.948894 -0.40481 0)
(1.0131 -0.189839 0)
(1.01586 -0.05114 0)
(0.985849 -0.00529162 0)
(0.959834 0.00414227 0)
(0.944047 0.00371661 0)
(0.934922 0.00199481 0)
(0.929748 0.000832195 0)
(0.927227 0.00018141 0)
(0.926777 -0.000234178 0)
(0.927766 -0.00058169 0)
(0.930385 -0.000971721 0)
(0.935065 -0.00148947 0)
(0.942574 -0.00221692 0)
(0.953894 -0.0033909 0)
(0.972002 -0.0049833 0)
(0.99912 -0.0101476 0)
(1.05837 -0.0149175 0)
(1.0368 0.0760642 0)
(1.01999 0.0530665 0)
(1.01196 0.0189535 0)
(1.00601 0.00839918 0)
(1.00128 0.00587447 0)
(0.996762 0.00418393 0)
(0.992453 0.00269186 0)
(0.98931 0.00159395 0)
(0.987762 0.00075026 0)
(0.987713 -1.87329e-05 0)
(0.989377 -0.000837909 0)
(0.992871 -0.00184905 0)
(0.998528 -0.00321085 0)
(1.00696 -0.00512579 0)
(1.01903 -0.00802589 0)
(1.03679 -0.0126772 0)
(1.06182 -0.0227185 0)
(1.0991 -0.04449 0)
(0.998301 0.0128522 0)
(0.995584 0.0114489 0)
(1.0017 0.00577232 0)
(1.0039 0.0056069 0)
(1.00483 0.00571347 0)
(1.00512 0.00458651 0)
(1.00462 0.00308423 0)
(1.00422 0.00175607 0)
(1.00464 0.000592333 0)
(1.00611 -0.000578355 0)
(1.00888 -0.0019196 0)
(1.01324 -0.00360253 0)
(1.01959 -0.00584752 0)
(1.02848 -0.00896817 0)
(1.04062 -0.0135798 0)
(1.05733 -0.0208239 0)
(1.07899 -0.0341592 0)
(1.10623 -0.0583661 0)
(0.995135 -0.00705721 0)
(0.992812 0.000865732 0)
(0.999608 0.00316673 0)
(1.00296 0.00469269 0)
(1.00539 0.00521073 0)
(1.00756 0.00433225 0)
(1.00904 0.00289325 0)
(1.01036 0.00144182 0)
(1.01217 1.84747e-05 0)
(1.01479 -0.00152635 0)
(1.01848 -0.00337506 0)
(1.02358 -0.00573747 0)
(1.03045 -0.0088908 0)
(1.03958 -0.0132329 0)
(1.05148 -0.0194812 0)
(1.0669 -0.0288734 0)
(1.08562 -0.04424 0)
(1.10671 -0.068818 0)
(0.996698 -0.00702253 0)
(0.994179 0.000337224 0)
(0.999136 0.00272812 0)
(1.00231 0.00388733 0)
(1.00524 0.00435434 0)
(1.00826 0.00361362 0)
(1.01083 0.00224129 0)
(1.01326 0.000701394 0)
(1.01606 -0.000954362 0)
(1.01954 -0.00286131 0)
(1.02396 -0.00521527 0)
(1.02963 -0.0082577 0)
(1.03686 -0.0123069 0)
(1.04602 -0.0178116 0)
(1.05746 -0.0255133 0)
(1.07146 -0.0365815 0)
(1.08749 -0.0531714 0)
(1.10404 -0.0774005 0)
(0.997851 -0.00429192 0)
(0.995537 0.000618216 0)
(0.999011 0.00216663 0)
(1.0019 0.00295308 0)
(1.00497 0.00328971 0)
(1.00833 0.00258897 0)
(1.01149 0.00123477 0)
(1.01462 -0.000407063 0)
(1.01809 -0.00229685 0)
(1.02219 -0.00456582 0)
(1.02715 -0.0074204 0)
(1.03321 -0.0111246 0)
(1.04062 -0.0160206 0)
(1.04963 -0.0225731 0)
(1.0604 -0.0314861 0)
(1.07292 -0.0437718 0)
(1.08648 -0.060984 0)
(1.09951 -0.0844385 0)
(0.998477 -0.00278262 0)
(0.996616 0.000336907 0)
(0.999138 0.00142214 0)
(1.00174 0.00196978 0)
(1.00474 0.00212339 0)
(1.00818 0.00137315 0)
(1.01162 -2.77159e-05 0)
(1.01515 -0.00180866 0)
(1.01906 -0.00395298 0)
(1.02356 -0.00659457 0)
(1.02885 -0.00994737 0)
(1.03512 -0.0142871 0)
(1.04253 -0.0199617 0)
(1.05121 -0.0274218 0)
(1.06116 -0.0372925 0)
(1.07218 -0.0503905 0)
(1.0835 -0.067774 0)
(1.09372 -0.0901893 0)
(0.998914 -0.00201086 0)
(0.997544 -4.79065e-05 0)
(0.999444 0.000709213 0)
(1.00176 0.00100161 0)
(1.00461 0.000912643 0)
(1.00796 3.70991e-05 0)
(1.01148 -0.00147443 0)
(1.01521 -0.0034386 0)
(1.01935 -0.00586523 0)
(1.02406 -0.0088935 0)
(1.0295 -0.0127401 0)
(1.0358 -0.0176808 0)
(1.04302 -0.024052 0)
(1.0512 -0.0322661 0)
(1.06023 -0.0428459 0)
(1.06978 -0.0564075 0)
(1.07909 -0.0736222 0)
(1.08702 -0.0948497 0)
(0.999266 -0.00147213 0)
(0.998339 -0.000343799 0)
(0.999826 6.73496e-05 0)
(1.00189 6.13709e-05 0)
(1.00453 -0.000311998 0)
(1.00772 -0.0013725 0)
(1.0112 -0.00305159 0)
(1.01497 -0.00524123 0)
(1.01917 -0.00797712 0)
(1.02393 -0.0114029 0)
(1.02935 -0.0157319 0)
(1.0355 -0.0212284 0)
(1.04237 -0.0282022 0)
(1.04992 -0.0370102 0)
(1.05794 -0.0480639 0)
(1.06606 -0.0617948 0)
(1.07358 -0.0785864 0)
(1.07961 -0.0985472 0)
(0.999535 -0.00106722 0)
(0.998987 -0.000583561 0)
(1.00021 -0.000530931 0)
(1.00206 -0.000852908 0)
(1.0045 -0.00153172 0)
(1.00748 -0.00282101 0)
(1.01082 -0.00471391 0)
(1.01452 -0.00716416 0)
(1.01865 -0.0102298 0)
(1.02331 -0.0140558 0)
(1.02856 -0.0188451 0)
(1.0344 -0.0248406 0)
(1.04078 -0.0323131 0)
(1.04758 -0.0415541 0)
(1.05455 -0.0528664 0)
(1.0613 -0.0665238 0)
(1.06723 -0.082705 0)
(1.07167 -0.101365 0)
(0.999725 -0.000801369 0)
(0.999485 -0.000820227 0)
(1.00054 -0.00111255 0)
(1.00222 -0.00174813 0)
(1.00445 -0.0027383 0)
(1.00721 -0.00428548 0)
(1.01036 -0.00642604 0)
(1.01389 -0.00916179 0)
(1.01785 -0.0125679 0)
(1.02229 -0.016786 0)
(1.02722 -0.0220021 0)
(1.03262 -0.0284287 0)
(1.03838 -0.0362901 0)
(1.04435 -0.0458088 0)
(1.05025 -0.0571883 0)
(1.05571 -0.0705761 0)
(1.06023 -0.0860123 0)
(1.06332 -0.103364 0)
(0.999841 -0.000664933 0)
(0.999813 -0.00105085 0)
(1.00077 -0.00164001 0)
(1.00232 -0.00255235 0)
(1.00437 -0.00382276 0)
(1.00691 -0.00561955 0)
(1.00985 -0.00800486 0)
(1.01316 -0.0110129 0)
(1.01687 -0.0147288 0)
(1.021 -0.0192867 0)
(1.02555 -0.0248517 0)
(1.03044 -0.031603 0)
(1.03556 -0.0397187 0)
(1.04071 -0.0493598 0)
(1.04563 -0.0606515 0)
(1.04999 -0.0736533 0)
(1.05336 -0.0883235 0)
(1.05539 -0.104487 0)
(0.99992 -0.000609072 0)
(1.00005 -0.00129778 0)
(1.00094 -0.00216362 0)
(1.00236 -0.00333842 0)
(1.00424 -0.00487679 0)
(1.00656 -0.00692288 0)
(1.00925 -0.00955542 0)
(1.01229 -0.0128318 0)
(1.0157 -0.0168424 0)
(1.01946 -0.0217099 0)
(1.02355 -0.0275752 0)
(1.02787 -0.034582 0)
(1.03228 -0.042862 0)
(1.0366 -0.0525195 0)
(1.04057 -0.0636144 0)
(1.0439 -0.0761404 0)
(1.04624 -0.0900042 0)
(1.04735 -0.105014 0)
(0.999975 -0.000612042 0)
(1.00021 -0.00159809 0)
(1.00103 -0.00275172 0)
(1.00231 -0.00420569 0)
(1.00399 -0.00603089 0)
(1.00604 -0.00835209 0)
(1.00843 -0.0112595 0)
(1.01112 -0.0148268 0)
(1.01411 -0.0191439 0)
(1.01737 -0.0243167 0)
(1.02085 -0.0304553 0)
(1.02445 -0.0376621 0)
(1.02802 -0.0460186 0)
(1.03138 -0.0555727 0)
(1.0343 -0.0663265 0)
(1.03654 -0.0782221 0)
(1.03784 -0.0911344 0)
(1.03804 -0.104876 0)
(1.00001 -0.000671519 0)
(1.00029 -0.00195411 0)
(1.00102 -0.00340122 0)
(1.00214 -0.005141 0)
(1.00358 -0.00725804 0)
(1.00531 -0.00986367 0)
(1.00731 -0.0130541 0)
(1.00954 -0.0169111 0)
(1.01199 -0.0215179 0)
(1.01461 -0.0269576 0)
(1.01734 -0.0333049 0)
(1.02006 -0.040617 0)
(1.02265 -0.0489249 0)
(1.02494 -0.0582254 0)
(1.02674 -0.0684737 0)
(1.02786 -0.0795779 0)
(1.02812 -0.0913998 0)
(1.02742 -0.10377 0)
(1.00002 -0.000771747 0)
(1.00029 -0.00234473 0)
(1.0009 -0.00407995 0)
(1.00181 -0.00609601 0)
(1.00295 -0.00848738 0)
(1.00429 -0.0113582 0)
(1.00582 -0.0148052 0)
(1.00748 -0.0189106 0)
(1.00926 -0.0237448 0)
(1.0111 -0.0293639 0)
(1.01293 -0.0358049 0)
(1.01465 -0.0430808 0)
(1.01615 -0.0511768 0)
(1.01729 -0.0600478 0)
(1.01792 -0.0696168 0)
(1.01792 -0.0797749 0)
(1.01717 -0.0903873 0)
(1.01562 -0.10131 0)
(1.00002 -0.000887319 0)
(1.00023 -0.00272568 0)
(1.00067 -0.00471922 0)
(1.0013 -0.00697444 0)
(1.00208 -0.00958897 0)
(1.00296 -0.0126628 0)
(1.00391 -0.0162895 0)
(1.00491 -0.0205451 0)
(1.0059 -0.0254841 0)
(1.00684 -0.0311351 0)
(1.00767 -0.0374998 0)
(1.0083 -0.0445527 0)
(1.00864 -0.0522424 0)
(1.00861 -0.0604947 0)
(1.00809 -0.0692149 0)
(1.00702 -0.0782916 0)
(1.00531 -0.0876039 0)
(1.00296 -0.0970371 0)
(1.00001 -0.00098376 0)
(1.00013 -0.00302236 0)
(1.00035 -0.00520236 0)
(1.00065 -0.00761488 0)
(1.00099 -0.0103523 0)
(1.00134 -0.0135094 0)
(1.00165 -0.0171741 0)
(1.0019 -0.0214141 0)
(1.00203 -0.0262684 0)
(1.00202 -0.0317428 0)
(1.00181 -0.0378111 0)
(1.00135 -0.044419 0)
(1.00057 -0.0514906 0)
(0.999421 -0.0589347 0)
(0.997843 -0.0666512 0)
(0.995792 -0.0745355 0)
(0.99324 -0.0824855 0)
(0.990185 -0.0904138 0)
(0.999999 -0.00101865 0)
(0.99998 -0.00312776 0)
(0.999947 -0.00536094 0)
(0.999889 -0.00778446 0)
(0.999772 -0.0104767 0)
(0.999561 -0.0135252 0)
(0.99922 -0.0170119 0)
(0.998717 -0.0209986 0)
(0.998024 -0.0255151 0)
(0.997111 -0.0305534 0)
(0.99595 -0.03607 0)
(0.994509 -0.0419934 0)
(0.992755 -0.0482338 0)
(0.990658 -0.0546935 0)
(0.988193 -0.061274 0)
(0.985339 -0.067882 0)
(0.982094 -0.0744345 0)
(0.978462 -0.0808674 0)
(0.999983 -0.000958795 0)
(0.999823 -0.00297337 0)
(0.99957 -0.00511188 0)
(0.999238 -0.00739859 0)
(0.998799 -0.00989552 0)
(0.998214 -0.012683 0)
(0.99745 -0.015838 0)
(0.996474 -0.0194213 0)
(0.995263 -0.0234628 0)
(0.993797 -0.0279507 0)
(0.992058 -0.0328342 0)
(0.990027 -0.0380333 0)
(0.987687 -0.0434524 0)
(0.985019 -0.0489919 0)
(0.982011 -0.0545578 0)
(0.978657 -0.0600673 0)
(0.974963 -0.0654524 0)
(0.970938 -0.0706656 0)
(0.999955 -0.000812548 0)
(0.999615 -0.00266949 0)
(0.999177 -0.00470193 0)
(0.998681 -0.00684796 0)
(0.99808 -0.00915767 0)
(0.997325 -0.0117019 0)
(0.996374 -0.0145485 0)
(0.995183 -0.0177618 0)
(0.993724 -0.0213778 0)
(0.991979 -0.0253857 0)
(0.989937 -0.0297306 0)
(0.987585 -0.0343275 0)
(0.984909 -0.0390766 0)
(0.981899 -0.0438782 0)
(0.978549 -0.0486428 0)
(0.974859 -0.0532967 0)
(0.970843 -0.0577841 0)
(0.966514 -0.06207 0)
(0.999882 -0.000536467 0)
(0.999241 -0.0022281 0)
(0.998635 -0.00420726 0)
(0.99808 -0.00625269 0)
(0.997453 -0.0084181 0)
(0.996692 -0.0107506 0)
(0.995726 -0.0133024 0)
(0.994481 -0.016151 0)
(0.992919 -0.0193477 0)
(0.991024 -0.0228871 0)
(0.988788 -0.0267131 0)
(0.986202 -0.030737 0)
(0.983256 -0.0348574 0)
(0.979947 -0.0389759 0)
(0.976275 -0.0430091 0)
(0.972248 -0.0468935 0)
(0.967887 -0.0505855 0)
(0.963216 -0.0540618 0)
(0.999733 -8.47196e-05 0)
(0.998593 -0.00170347 0)
(0.997873 -0.00372774 0)
(0.997402 -0.0057358 0)
(0.996905 -0.00782837 0)
(0.9963 -0.00999019 0)
(0.995461 -0.0122528 0)
(0.994267 -0.0147288 0)
(0.992671 -0.0174975 0)
(0.990666 -0.0205627 0)
(0.98825 -0.0238692 0)
(0.985419 -0.0273273 0)
(0.982173 -0.0308352 0)
(0.978515 -0.0342984 0)
(0.974458 -0.0376413 0)
(0.970022 -0.0408115 0)
(0.965237 -0.0437783 0)
(0.960142 -0.0465288 0)
(0.999484 0.000654939 0)
(0.997568 -0.00120129 0)
(0.99689 -0.00340571 0)
(0.996704 -0.00541929 0)
(0.9965 -0.00749863 0)
(0.996198 -0.00950322 0)
(0.995578 -0.0114496 0)
(0.994463 -0.0135176 0)
(0.992817 -0.015827 0)
(0.990654 -0.0183929 0)
(0.987985 -0.0211622 0)
(0.984819 -0.0240456 0)
(0.981168 -0.0269434 0)
(0.977051 -0.0297669 0)
(0.972496 -0.0324503 0)
(0.967538 -0.0349532 0)
(0.962225 -0.0372568 0)
(0.956609 -0.0393577 0)
(0.998961 0.002315 0)
(0.995946 -0.000547668 0)
(0.995765 -0.00329182 0)
(0.996166 -0.00539673 0)
(0.996399 -0.00749317 0)
(0.996482 -0.00929755 0)
(0.996077 -0.0108565 0)
(0.994958 -0.0124549 0)
(0.993137 -0.0142585 0)
(0.990672 -0.0162908 0)
(0.987596 -0.0184999 0)
(0.983936 -0.0207979 0)
(0.979722 -0.0230889 0)
(0.974996 -0.0252918 0)
(0.969803 -0.0273515 0)
(0.964202 -0.0292395 0)
(0.958255 -0.0309474 0)
(0.952032 -0.0324788 0)
(0.997454 0.00597958 0)
(0.993201 0.000974018 0)
(0.994562 -0.00304573 0)
(0.996052 -0.00559267 0)
(0.996829 -0.00777268 0)
(0.997251 -0.00928264 0)
(0.996886 -0.010348 0)
(0.995514 -0.0114031 0)
(0.993253 -0.0126547 0)
(0.990232 -0.0141266 0)
(0.986513 -0.0157641 0)
(0.982144 -0.0174795 0)
(0.977177 -0.0191818 0)
(0.971675 -0.0207985 0)
(0.965707 -0.0222855 0)
(0.959349 -0.0236243 0)
(0.952681 -0.0248146 0)
(0.945786 -0.0258644 0)
(0.994458 0.00850421 0)
(0.989258 0.00194374 0)
(0.993447 -0.00263258 0)
(0.996602 -0.00583954 0)
(0.997988 -0.0081618 0)
(0.998483 -0.00924316 0)
(0.997694 -0.00969912 0)
(0.995564 -0.0101543 0)
(0.992411 -0.0108364 0)
(0.988456 -0.0117529 0)
(0.983785 -0.0128377 0)
(0.978453 -0.0140012 0)
(0.972528 -0.015158 0)
(0.96609 -0.0162453 0)
(0.959225 -0.017229 0)
(0.952025 -0.0180985 0)
(0.944579 -0.0188587 0)
(0.936977 -0.0195188 0)
(0.994518 -0.00649525 0)
(0.989296 -0.00856542 0)
(0.994861 -0.00567578 0)
(0.998673 -0.00691909 0)
(1.00007 -0.00861762 0)
(0.99974 -0.00894288 0)
(0.99746 -0.00866804 0)
(0.993632 -0.00852175 0)
(0.988872 -0.00868589 0)
(0.983465 -0.00911292 0)
(0.977465 -0.00971146 0)
(0.970894 -0.01039 0)
(0.963808 -0.0110722 0)
(0.956289 -0.0117073 0)
(0.948431 -0.0122711 0)
(0.94033 -0.0127593 0)
(0.93208 -0.0131793 0)
(0.923764 -0.0135361 0)
(1.02639 -0.0702199 0)
(1.01681 -0.0624168 0)
(1.01123 -0.0293704 0)
(1.00727 -0.0152555 0)
(1.0036 -0.0109635 0)
(0.998627 -0.00877034 0)
(0.991985 -0.00729801 0)
(0.984558 -0.00654029 0)
(0.977027 -0.0063199 0)
(0.969446 -0.00640279 0)
(0.961635 -0.0066327 0)
(0.953486 -0.00691954 0)
(0.944999 -0.00720868 0)
(0.936235 -0.00746961 0)
(0.92728 -0.00769105 0)
(0.918225 -0.00787583 0)
(0.90916 -0.00803306 0)
(0.900153 -0.00819135 0)
(0.966245 0.349838 0)
(1.02672 0.193623 0)
(1.03191 0.0674355 0)
(1.00284 0.0148772 0)
(0.973326 -0.00166657 0)
(0.951561 -0.00482795 0)
(0.935313 -0.00433516 0)
(0.922087 -0.00350611 0)
(0.910482 -0.00305186 0)
(0.89963 -0.00290924 0)
(0.889023 -0.00292036 0)
(0.878463 -0.00298738 0)
(0.867936 -0.00306521 0)
(0.857493 -0.00313597 0)
(0.847193 -0.00319451 0)
(0.837085 -0.00324367 0)
(0.82719 -0.00328575 0)
(0.817552 -0.00336852 0)
(-0.00712639 0.0126433 1.02946e-21)
(-0.0145774 0.00951256 -9.3172e-22)
(-0.0197484 0.00578548 0)
(-0.0236025 0.00237501 0)
(-0.0255491 -0.000305333 0)
(-0.0260168 -0.0023335 8.81455e-22)
(-0.0253386 -0.00386956 0)
(-0.0237182 -0.00505292 0)
(-0.0213065 -0.00598842 0)
(-0.018216 -0.00675109 0)
(-0.0145238 -0.00739356 -1.06779e-21)
(-0.0102805 -0.00795214 0)
(-0.00551863 -0.00845153 0)
(-0.000255861 -0.0089084 0)
(0.00549314 -0.00933438 0)
(0.0117167 -0.00973634 -1.34228e-21)
(0.0184042 -0.010117 0)
(0.0255444 -0.0104765 0)
(0.0331241 -0.0108132 0)
(0.0411272 -0.0111244 0)
(0.0495344 -0.0114068 0)
(0.0583226 -0.0116571 0)
(0.0674653 -0.0118723 0)
(0.0769325 -0.0120494 -1.7596e-21)
(0.0866911 -0.0121863 1.80387e-21)
(0.0967053 -0.0122813 -1.84534e-21)
(0.106937 -0.0123335 -1.88383e-21)
(0.117348 -0.0123428 0)
(0.127897 -0.0123097 0)
(0.138544 -0.0122354 1.98031e-21)
(0.149249 -0.0121215 2.00602e-21)
(0.159972 -0.0119704 0)
(0.170676 -0.0117847 0)
(0.181324 -0.0115674 2.06428e-21)
(0.191883 -0.0113218 0)
(0.202321 -0.0110512 0)
(0.212609 -0.010759 -2.09651e-21)
(0.222721 -0.0104487 0)
(0.232634 -0.0101237 -2.10547e-21)
(0.242328 -0.00978712 -4.21337e-21)
(0.251786 -0.00944204 0)
(0.260992 -0.00909131 0)
(0.269935 -0.00873755 0)
(0.278606 -0.00838316 0)
(0.286997 -0.00803025 0)
(0.295104 -0.00768072 -4.15758e-21)
(0.302924 -0.00733621 -4.13941e-21)
(0.310456 -0.00699812 -4.11943e-21)
(0.3177 -0.00666765 0)
(0.324659 -0.00634578 4.07498e-21)
(0.331337 -0.00603328 0)
(0.337736 -0.00573078 -4.02588e-21)
(0.343863 -0.00543873 -4.00003e-21)
(0.349724 -0.00515745 0)
(0.355325 -0.00488713 0)
(0.360674 -0.00462786 0)
(0.365778 -0.00437963 -3.89132e-21)
(0.370644 -0.00414237 0)
(0.375281 -0.00391591 0)
(0.379698 -0.00370007 0)
(0.383901 -0.00349458 0)
(0.3879 -0.00329917 0)
(0.391702 -0.00311352 0)
(0.395316 -0.00293731 0)
(0.398749 -0.0027702 0)
(0.402009 -0.00261183 3.64111e-21)
(0.405104 -0.00246185 0)
(0.408041 -0.00231989 0)
(0.410827 -0.00218562 -3.56125e-21)
(0.41347 -0.00205867 -3.53527e-21)
(0.415974 -0.0019387 0)
(0.418349 -0.00182539 3.48432e-21)
(0.420598 -0.0017184 -3.45937e-21)
(0.422729 -0.00161742 0)
(0.424747 -0.00152215 3.41054e-21)
(0.426658 -0.00143229 0)
(0.428467 -0.00134757 0)
(0.430179 -0.0012677 -3.33995e-21)
(0.431799 -0.00119245 0)
(0.433331 -0.00112155 3.29462e-21)
(0.434781 -0.00105477 0)
(0.436152 -0.000991898 -3.25063e-21)
(0.437447 -0.000932705 -3.22912e-21)
(0.438672 -0.000876993 -3.20792e-21)
(0.43983 -0.000824567 -6.37406e-21)
(0.440924 -0.000775243 6.33287e-21)
(0.441958 -0.000728843 0)
(0.442935 -0.000685198 0)
(0.443857 -0.000644143 0)
(0.444728 -0.000605525 6.17377e-21)
(0.445551 -0.000569197 6.13533e-21)
(0.446327 -0.000535029 -6.09738e-21)
(0.44706 -0.000502899 0)
(0.447752 -0.000472693 6.02292e-21)
(0.448404 -0.000444294 5.98635e-21)
(0.44902 -0.000417571 5.95021e-21)
(0.449601 -0.00039237 0)
(0.450148 -0.00036847 0)
(0.450663 -0.000345588 0)
(0.451148 -0.000322363 5.80957e-21)
(0.451598 -0.000297363 0)
(0.452011 -0.000272251 0)
(0.452395 -0.000249894 -5.70771e-21)
(0.452752 -0.000231148 0)
(0.453086 -0.000215445 0)
(0.4534 -0.000202019 -5.6086e-21)
(0.453695 -0.00019027 0)
(0.453973 -0.000179762 0)
(0.454236 -0.000170197 5.51198e-21)
(0.454485 -0.000161384 5.48028e-21)
(0.45472 -0.000153206 0)
(0.454943 -0.000145592 -5.41762e-21)
(0.455155 -0.000138493 0)
(0.455356 -0.000131871 5.35588e-21)
(0.455547 -0.000125697 0)
(0.455728 -0.000119942 5.29503e-21)
(0.455901 -0.00011458 5.26492e-21)
(0.456065 -0.000109588 0)
(0.456222 -0.000104941 0)
(0.456372 -0.000100615 0)
(0.456514 -9.65875e-05 0)
(0.456651 -9.28387e-05 0)
(0.456782 -8.93509e-05 0)
(0.456907 -8.61099e-05 0)
(0.457028 -8.31054e-05 5.0309e-21)
(0.457143 -8.03292e-05 -5.00242e-21)
(0.457255 -7.77736e-05 0)
(0.457362 -7.54297e-05 0)
(0.457465 -7.32853e-05 0)
(0.457566 -7.13241e-05 0)
(0.457663 -6.95255e-05 -9.7247e-21)
(0.457757 -6.78657e-05 0)
(0.457849 -6.63191e-05 9.61477e-21)
(0.457938 -6.486e-05 -9.56025e-21)
(0.458025 -6.34641e-05 0)
(0.45811 -6.211e-05 0)
(0.458193 -6.07798e-05 0)
(0.458273 -5.94597e-05 9.34517e-21)
(0.458352 -5.81408e-05 9.29214e-21)
(0.458428 -5.68197e-05 0)
(0.458502 -5.54975e-05 9.18697e-21)
(0.458574 -5.41797e-05 9.13481e-21)
(0.458644 -5.28748e-05 -9.08293e-21)
(0.458712 -5.15921e-05 0)
(0.458777 -5.03393e-05 0)
(0.458841 -4.91206e-05 -8.92888e-21)
(0.458902 -4.79363e-05 0)
(0.458962 -4.67834e-05 0)
(0.459019 -4.56564e-05 0)
(0.459075 -4.45483e-05 0)
(0.459128 -4.34506e-05 8.67713e-21)
(0.459179 -4.23527e-05 8.6275e-21)
(0.459228 -4.12412e-05 0)
(0.459275 -4.00988e-05 8.52899e-21)
(0.459319 -3.89032e-05 0)
(0.459361 -3.76255e-05 0)
(0.4594 -3.62296e-05 8.38312e-21)
(0.459435 -3.46702e-05 0)
(0.459467 -3.28899e-05 8.28724e-21)
(0.459494 -3.08155e-05 0)
(0.459515 -2.83532e-05 0)
(0.45953 -2.5381e-05 8.14577e-21)
(0.459535 -2.17397e-05 0)
(0.459531 -1.72189e-05 8.05336e-21)
(0.459512 -1.15382e-05 0)
(0.459476 -4.32052e-06 0)
(0.459417 4.94809e-06 0)
(0.459329 1.69783e-05 -7.87538e-21)
(0.459201 3.27714e-05 0)
(0.459021 5.3771e-05 7.79197e-21)
(0.458771 8.21254e-05 0)
(0.458422 0.000121153 0)
(0.457936 0.00017629 0)
(0.457249 0.000256885 0)
(0.456261 0.000381456 0)
(0.454762 0.00058551 0)
(0.452459 0.000972442 0)
(0.448084 0.0017156 -1.52945e-20)
(0.441575 0.00375085 0)
(0.419475 0.00734804 0)
(-0.00240933 0.0278846 -2.75914e-21)
(-0.00552038 0.0196744 2.12658e-21)
(-0.00722487 0.0133766 0)
(-0.00856292 0.00810342 -1.04254e-21)
(-0.00936912 0.00369833 0)
(-0.00963456 5.24009e-05 -4.92882e-22)
(-0.00932425 -0.00297088 9.33919e-22)
(-0.00841522 -0.00550975 9.36045e-22)
(-0.00690064 -0.00768599 0)
(-0.00478005 -0.009598 9.72741e-22)
(-0.00205479 -0.0113201 5.29777e-22)
(0.00127139 -0.0129056 0)
(0.00519242 -0.0143905 0)
(0.00970093 -0.0157975 0)
(0.0147896 -0.0171399 0)
(0.0204504 -0.0184235 6.48608e-22)
(0.0266729 -0.019649 0)
(0.0334427 -0.0208127 -1.33773e-21)
(0.0407416 -0.0219088 0)
(0.0485475 -0.0229299 0)
(0.0568342 -0.023868 1.52274e-21)
(0.0655719 -0.0247153 0)
(0.0747269 -0.0254647 -1.64938e-21)
(0.0842628 -0.02611 8.99045e-22)
(0.0941401 -0.0266465 -9.30235e-22)
(0.104317 -0.027071 9.60696e-22)
(0.114751 -0.0273819 9.90259e-22)
(0.125398 -0.0275793 0)
(0.136212 -0.0276647 0)
(0.14715 -0.0276413 -1.07217e-21)
(0.158168 -0.0275137 1.01504e-21)
(0.169224 -0.0272876 0)
(0.180276 -0.0269694 0)
(0.191287 -0.0265668 -1.16203e-21)
(0.20222 -0.0260876 0)
(0.213042 -0.0255402 0)
(0.223722 -0.0249331 1.21345e-21)
(0.234232 -0.0242748 0)
(0.244547 -0.0235737 -1.1744e-21)
(0.254646 -0.0228377 2.50291e-21)
(0.264511 -0.0220746 0)
(0.274124 -0.0212915 0)
(0.283474 -0.0204952 4.99689e-21)
(0.29255 -0.0196918 5.0265e-21)
(0.301343 -0.0188867 5.05169e-21)
(0.309848 -0.0180848 -2.48731e-21)
(0.318062 -0.0172906 2.59168e-21)
(0.325982 -0.0165078 7.69951e-21)
(0.333608 -0.0157395 -5.11343e-21)
(0.340942 -0.0149885 -2.60045e-21)
(0.347986 -0.014257 0)
(0.354744 -0.0135469 2.59921e-21)
(0.361221 -0.0128594 -2.52819e-21)
(0.367422 -0.0121956 0)
(0.373354 -0.0115563 0)
(0.379023 -0.010942 0)
(0.384437 -0.0103527 2.57797e-21)
(0.389603 -0.00978854 0)
(0.39453 -0.00924932 -5.07945e-21)
(0.399224 -0.00873471 0)
(0.403695 -0.00824426 -5.05313e-21)
(0.407951 -0.00777742 0)
(0.412 -0.00733356 5.02306e-21)
(0.415849 -0.006912 0)
(0.419507 -0.00651199 -4.99009e-21)
(0.422982 -0.00613276 2.47027e-21)
(0.426282 -0.00577353 0)
(0.429414 -0.00543349 4.93668e-21)
(0.432385 -0.00511183 2.47243e-21)
(0.435203 -0.00480776 2.46219e-21)
(0.437874 -0.00452048 0)
(0.440406 -0.00424921 2.41935e-21)
(0.442805 -0.00399318 2.4311e-21)
(0.445077 -0.00375166 0)
(0.447228 -0.00352392 -2.41025e-21)
(0.449264 -0.00330926 4.78246e-21)
(0.45119 -0.00310703 0)
(0.453013 -0.00291656 2.37902e-21)
(0.454737 -0.00273723 0)
(0.456366 -0.00256846 -7.0617e-21)
(0.457907 -0.00240968 0)
(0.459363 -0.00226033 7.00171e-21)
(0.460738 -0.00211991 2.32759e-21)
(0.462038 -0.00198791 -2.30721e-21)
(0.463264 -0.00186387 -4.59551e-21)
(0.464423 -0.00174733 4.57663e-21)
(0.465516 -0.00163787 0)
(0.466548 -0.00153509 0)
(0.467522 -0.00143859 0)
(0.46844 -0.00134801 -1.35319e-20)
(0.469307 -0.001263 -4.49564e-21)
(0.470124 -0.00118324 4.47617e-21)
(0.470894 -0.00110843 0)
(0.47162 -0.00103826 4.42695e-21)
(0.472305 -0.000972436 -4.4183e-21)
(0.47295 -0.000910661 -4.39918e-21)
(0.473558 -0.000852597 0)
(0.474131 -0.000797839 0)
(0.47467 -0.000745902 0)
(0.475179 -0.000695585 -4.32338e-21)
(0.475663 -0.000646191 0)
(0.476123 -0.0005992 8.56499e-21)
(0.476559 -0.000556296 1.27946e-20)
(0.476971 -0.000517729 -8.49061e-21)
(0.477358 -0.000483015 0)
(0.477722 -0.000451633 -4.20582e-21)
(0.478064 -0.000423133 0)
(0.478386 -0.000397117 -8.34259e-21)
(0.47869 -0.000373249 4.15086e-21)
(0.478976 -0.000351258 4.13257e-21)
(0.479246 -0.000330935 0)
(0.479502 -0.000312113 1.22948e-20)
(0.479743 -0.000294658 -8.15874e-21)
(0.479971 -0.000278458 -4.06254e-21)
(0.480188 -0.000263416 0)
(0.480393 -0.00024945 -4.02582e-21)
(0.480588 -0.000236484 -1.202e-20)
(0.480772 -0.000224447 0)
(0.480948 -0.000213274 -7.93961e-21)
(0.481115 -0.000202904 -7.90322e-21)
(0.481275 -0.00019328 -7.86686e-21)
(0.481427 -0.000184347 0)
(0.481572 -0.000176059 0)
(0.481711 -0.000168374 0)
(0.481844 -0.000161256 3.85996e-21)
(0.481971 -0.000154674 3.8435e-21)
(0.482094 -0.000148601 0)
(0.482212 -0.000143008 7.61288e-21)
(0.482325 -0.000137867 7.57666e-21)
(0.482434 -0.000133143 0)
(0.48254 -0.000128797 7.50566e-21)
(0.482642 -0.000124787 1.49363e-20)
(0.482742 -0.000121067 -7.43332e-21)
(0.482838 -0.00011759 -7.39474e-21)
(0.482932 -0.00011431 0)
(0.483024 -0.000111187 0)
(0.483113 -0.000108184 0)
(0.4832 -0.00010527 -7.25316e-21)
(0.483285 -0.000102422 7.21513e-21)
(0.483368 -9.9626e-05 1.43608e-20)
(0.483449 -9.68732e-05 -7.14564e-21)
(0.483528 -9.4163e-05 7.10793e-21)
(0.483605 -9.14994e-05 7.07421e-21)
(0.48368 -8.88891e-05 0)
(0.483754 -8.63384e-05 0)
(0.483826 -8.38507e-05 -6.96562e-21)
(0.483895 -8.14251e-05 0)
(0.483964 -7.90559e-05 0)
(0.48403 -7.67331e-05 1.37202e-20)
(0.484094 -7.44434e-05 0)
(0.484157 -7.21692e-05 6.78858e-21)
(0.484218 -6.98882e-05 -6.75482e-21)
(0.484277 -6.75724e-05 0)
(0.484334 -6.51862e-05 6.68286e-21)
(0.484389 -6.2684e-05 0)
(0.484442 -6.00077e-05 0)
(0.484492 -5.70836e-05 -6.57903e-21)
(0.48454 -5.38191e-05 1.30869e-20)
(0.484584 -5.0096e-05 -6.50925e-21)
(0.484624 -4.57636e-05 0)
(0.484659 -4.06276e-05 0)
(0.484688 -3.44362e-05 6.40439e-21)
(0.48471 -2.68602e-05 0)
(0.484723 -1.74653e-05 6.33628e-21)
(0.484724 -5.67336e-06 0)
(0.484711 9.2925e-06 0)
(0.484677 2.84895e-05 0)
(0.484619 5.33773e-05 6.20468e-21)
(0.484528 8.6009e-05 0)
(0.484392 0.000129338 -6.14217e-21)
(0.484197 0.000187746 0)
(0.483922 0.000267974 0)
(0.483536 0.000380985 1.21197e-20)
(0.482993 0.000545533 -1.20756e-20)
(0.482225 0.000797741 0)
(0.481106 0.00120772 0)
(0.479505 0.00195888 0)
(0.476861 0.00338799 3.6216e-20)
(0.47362 0.00692986 0)
(0.466323 0.0135499 -2.48087e-20)
(0.00141507 0.0301178 1.42004e-22)
(4.89741e-05 0.0209044 -2.43469e-21)
(-0.000445753 0.0141782 0)
(-0.000795262 0.00864441 1.63373e-21)
(-0.00105897 0.00387942 0)
(-0.00114367 -0.000312224 0)
(-0.000928391 -0.0040599 -4.32673e-23)
(-0.000315911 -0.0074606 -6.87539e-22)
(0.000765686 -0.0105931 -6.43868e-22)
(0.00236991 -0.0135211 -6.95616e-22)
(0.00453629 -0.0162938 0)
(0.0072932 -0.0189465 0)
(0.0106598 -0.0215022 7.07557e-22)
(0.0146474 -0.0239728 1.47064e-21)
(0.0192608 -0.0263613 -1.53325e-21)
(0.0244988 -0.0286641 0)
(0.0303542 -0.0308726 -1.6763e-21)
(0.0368138 -0.0329751 9.29096e-22)
(0.043859 -0.0349579 0)
(0.0514657 -0.0368062 -1.92404e-21)
(0.0596048 -0.0385059 -1.05891e-21)
(0.0682427 -0.0400433 2.10319e-21)
(0.0773416 -0.0414069 1.15018e-21)
(0.0868605 -0.0425868 0)
(0.0967552 -0.043576 -2.37997e-21)
(0.10698 -0.0443699 -2.472e-21)
(0.117486 -0.0449667 0)
(0.128227 -0.0453674 -2.6525e-21)
(0.139152 -0.0455756 0)
(0.150215 -0.0455973 -2.82521e-21)
(0.161368 -0.0454405 -1.50239e-21)
(0.172567 -0.0451154 0)
(0.183767 -0.0446335 0)
(0.194929 -0.0440075 0)
(0.206015 -0.0432509 0)
(0.216989 -0.0423779 0)
(0.22782 -0.0414028 0)
(0.238479 -0.0403399 -3.38888e-21)
(0.248941 -0.0392032 5.20304e-21)
(0.259184 -0.038006 0)
(0.269189 -0.0367614 0)
(0.27894 -0.0354813 0)
(0.288423 -0.0341768 -6.83197e-23)
(0.297629 -0.0328582 -3.71923e-21)
(0.306549 -0.0315347 -7.43338e-21)
(0.315177 -0.0302145 7.48758e-21)
(0.323511 -0.028905 3.73886e-21)
(0.331547 -0.0276124 -3.8167e-21)
(0.339287 -0.0263423 5.29926e-23)
(0.346731 -0.0250991 -3.79796e-21)
(0.353882 -0.0238867 0)
(0.360745 -0.0227083 -3.82492e-21)
(0.367323 -0.0215662 4.37909e-23)
(0.373623 -0.0204623 0)
(0.37965 -0.0193979 0)
(0.385412 -0.0183739 3.85452e-21)
(0.390916 -0.0173907 0)
(0.396169 -0.0164485 0)
(0.40118 -0.0155472 -3.82768e-21)
(0.405955 -0.0146861 -7.71789e-21)
(0.410505 -0.0138648 3.88578e-21)
(0.414835 -0.0130823 0)
(0.418956 -0.0123378 -3.87591e-21)
(0.422874 -0.0116301 0)
(0.426599 -0.0109581 -3.81698e-21)
(0.430137 -0.0103207 -3.85546e-21)
(0.433496 -0.0097164 7.65391e-21)
(0.436685 -0.0091441 3.80027e-21)
(0.439711 -0.00860245 0)
(0.44258 -0.00809016 -7.60664e-21)
(0.4453 -0.00760593 0)
(0.447878 -0.00714849 -1.13714e-20)
(0.45032 -0.00671661 -7.55184e-21)
(0.452632 -0.00630905 -7.53228e-21)
(0.454821 -0.00592465 7.51217e-21)
(0.456893 -0.00556225 -1.12493e-20)
(0.458853 -0.00522073 0)
(0.460706 -0.00489904 0)
(0.462459 -0.00459614 7.42741e-21)
(0.464115 -0.00431104 1.11173e-20)
(0.46568 -0.00404279 0)
(0.467158 -0.00379049 -3.68838e-21)
(0.468554 -0.00355328 0)
(0.469873 -0.00333031 1.0979e-20)
(0.471117 -0.00312081 1.34828e-23)
(0.472291 -0.00292402 -1.26387e-23)
(0.473399 -0.00273922 -7.24446e-21)
(0.474443 -0.00256574 0)
(0.475429 -0.00240294 7.19702e-21)
(0.476357 -0.00225019 9.73489e-24)
(0.477233 -0.00210693 0)
(0.478058 -0.0019726 0)
(0.478835 -0.00184668 0)
(0.479568 -0.00172865 -7.08409e-21)
(0.480258 -0.00161803 0)
(0.480908 -0.00151433 0)
(0.48152 -0.00141706 0)
(0.482096 -0.00132576 0)
(0.482638 -0.00123999 0)
(0.48315 -0.00115933 -6.92889e-21)
(0.483632 -0.00108324 0)
(0.484088 -0.00101134 -6.88282e-21)
(0.484519 -0.000943865 -6.85713e-21)
(0.484927 -0.000881152 6.83139e-21)
(0.485311 -0.000823257 0)
(0.485673 -0.000769991 6.7797e-21)
(0.486014 -0.000721042 0)
(0.486335 -0.000676039 6.72773e-21)
(0.486638 -0.000634603 -6.70164e-21)
(0.486923 -0.000596384 -2.00212e-20)
(0.487192 -0.000561074 0)
(0.487446 -0.000528406 -1.98643e-20)
(0.487686 -0.000498151 -6.5923e-21)
(0.487913 -0.000470112 0)
(0.488128 -0.000444117 -1.30836e-20)
(0.488332 -0.000420012 -1.30307e-20)
(0.488525 -0.000397661 1.94682e-20)
(0.488708 -0.000376937 0)
(0.488882 -0.000357724 6.43708e-21)
(0.489048 -0.000339914 6.41027e-21)
(0.489206 -0.000323406 1.91475e-20)
(0.489356 -0.000308105 0)
(0.4895 -0.000293926 0)
(0.489637 -0.000280792 0)
(0.489769 -0.000268636 6.27298e-21)
(0.489895 -0.000257397 0)
(0.490016 -0.000247021 0)
(0.490132 -0.000237458 -6.19322e-21)
(0.490244 -0.000228655 -6.16578e-21)
(0.490353 -0.000220558 0)
(0.490457 -0.000213107 0)
(0.490559 -0.000206237 -1.21662e-20)
(0.490657 -0.000199881 0)
(0.490752 -0.00019397 1.20554e-20)
(0.490845 -0.000188435 1.19984e-20)
(0.490936 -0.000183212 0)
(0.491024 -0.000178242 0)
(0.49111 -0.000173475 -1.18316e-20)
(0.491195 -0.000168869 -1.25924e-24)
(0.491277 -0.000164392 -1.21872e-24)
(0.491358 -0.000160025 0)
(0.491437 -0.000155755 -2.32177e-20)
(0.491514 -0.000151578 0)
(0.49159 -0.000147495 0)
(0.491664 -0.00014351 0)
(0.491736 -0.000139622 1.13851e-20)
(0.491807 -0.00013583 0)
(0.491876 -0.000132124 -2.25431e-20)
(0.491944 -0.00012849 -1.12161e-20)
(0.492011 -0.000124905 0)
(0.492076 -0.000121344 -1.11032e-20)
(0.492139 -0.000117771 0)
(0.4922 -0.000114143 0)
(0.49226 -0.000110405 -3.27992e-20)
(0.492318 -0.000106487 2.17525e-20)
(0.492374 -0.0001023 0)
(0.492428 -9.77302e-05 2.15263e-20)
(0.492479 -9.2635e-05 -1.07074e-20)
(0.492526 -8.68322e-05 0)
(0.49257 -8.00889e-05 0)
(0.492609 -7.21052e-05 0)
(0.492642 -6.24925e-05 -3.14455e-20)
(0.492668 -5.07434e-05 0)
(0.492685 -3.61897e-05 -1.03708e-20)
(0.49269 -1.79443e-05 0)
(0.49268 5.18272e-06 0)
(0.49265 3.48049e-05 0)
(0.492594 7.31407e-05 0)
(0.492505 0.000123293 0)
(0.492371 0.000189694 0)
(0.492177 0.000278849 -2.00055e-20)
(0.491902 0.000400636 0)
(0.491515 0.000570754 -9.91459e-21)
(0.490972 0.00081539 2.96356e-20)
(0.490208 0.00118222 0)
(0.489113 0.0017605 0)
(0.487569 0.00275437 -1.96717e-20)
(0.485222 0.00454768 -1.9748e-20)
(0.482408 0.00837318 1.99065e-20)
(0.478253 0.0156062 2.02874e-20)
(0.00258509 0.0279214 4.37389e-21)
(0.00211235 0.0200945 3.05768e-21)