/*--------------------------------*- C++ -*----------------------------------*\
  =========                 |
  \\      /  F ield         | OpenFOAM: The Open Source CFD Toolbox
   \\    /   O peration     | Website:  https://openfoam.org
    \\  /    A nd           | Version:  6
     \\/     M anipulation  |
\*---------------------------------------------------------------------------*/
FoamFile
{
    version     2.0;
    format      ascii;
    class       volScalarField;
    location    "0.08";
    object      epsilon;
}
// * * * * * * * * * * * * * * * * * * * * * * * * * * * * * * * * * * * * * //

dimensions      [0 2 -3 0 0 0 0];

internalField   nonuniform List<scalar> 
3032
(
307.554
159.149
103.227
76.2172
60.948
51.4324
45.0173
40.3854
36.8526
34.0474
31.7549
29.8424
28.2231
26.8373
25.6429
24.6202
23.7803
23.201
71.6103
59.7615
44.4178
34.3531
27.8109
23.3668
20.2201
17.9042
16.1354
14.7397
13.6089
12.6732
11.8858
11.2141
10.6344
10.132
9.69746
9.30728
33.6137
34.4044
29.2896
24.3868
20.5383
17.6147
15.3881
13.6677
12.3122
11.2222
10.3294
9.58598
8.95821
8.42163
7.95809
7.55451
7.20125
6.88781
22.4946
24.1965
22.2213
19.5413
17.0655
14.9852
13.2875
11.9094
10.7849
9.85798
9.08535
8.43402
7.87915
7.40185
6.98764
6.62559
6.30747
6.02793
18.0524
19.1651
18.2253
16.5948
14.8965
13.3505
12.0135
10.8799
9.92381
9.11593
8.42967
7.84279
7.33728
6.89876
6.51573
6.17925
5.88255
5.62251
15.9661
16.3995
15.7661
14.6422
13.3957
12.1985
11.117
10.1671
9.34303
8.63082
8.01485
7.48049
7.01492
6.6073
6.24864
5.93173
5.65111
5.40488
14.9029
14.7889
14.1888
13.2995
12.3135
11.3431
10.4421
9.63055
8.91081
8.27702
7.72023
7.23085
6.79981
6.41901
6.08144
5.78136
5.51441
5.27946
14.3403
13.8257
13.1593
12.3643
11.5224
10.6959
9.92006
9.21092
8.57248
8.00236
7.49519
7.04451
6.64377
6.28682
5.96819
5.68328
5.42864
5.20369
14.0386
13.2458
12.4867
11.714
10.9452
10.2061
9.51426
8.87882
8.30214
7.78253
7.31616
6.89825
6.52378
6.18794
5.88634
5.61523
5.37189
5.15608
13.8768
12.8993
12.0519
11.2673
10.5294
9.83962
9.20159
8.61722
8.08589
7.60514
7.17136
6.78047
6.42826
6.11072
5.82418
5.56549
5.33242
5.12499
13.7906
12.6956
11.7764
10.9668
10.2361
9.57101
8.96517
8.41445
7.91506
7.46307
7.05443
6.68509
6.35117
6.04905
5.77547
5.52767
5.30375
5.10387
13.7488
12.5881
11.6204
10.7867
10.0517
9.39545
8.80558
8.2739
7.79408
7.36074
6.96915
6.61498
6.29434
6.00373
5.74005
5.50073
5.28408
5.09025
13.7254
12.5235
11.5209
10.6659
9.92288
9.26843
8.68676
8.16672
7.69996
7.27985
6.90087
6.55833
6.24816
5.96685
5.71133
5.47915
5.2687
5.08012
13.7116
12.4831
11.4547
10.5811
9.82808
9.17123
8.59273
8.07946
7.62149
7.21104
6.84184
6.50873
6.20737
5.9341
5.68585
5.46015
5.25545
5.07181
13.7045
12.4608
11.4161
10.5286
9.76637
9.1051
8.52627
8.01574
7.56256
7.15813
6.79556
6.46922
6.17447
5.90749
5.66508
5.44476
5.24493
5.06554
13.7012
12.4503
11.3967
10.5008
9.73195
9.06643
8.48575
7.97545
7.52412
7.12269
6.76384
6.44162
6.15116
5.88843
5.65015
5.43374
5.23755
5.0614
13.7
12.4462
11.3887
10.4887
9.71617
9.04784
8.46543
7.95446
7.5034
7.10301
6.74576
6.42555
6.13733
5.87696
5.64106
5.427
5.23305
5.05894
13.6996
12.4449
11.3863
10.4848
9.71088
9.04133
8.458
7.94647
7.49522
7.09495
6.73809
6.41847
6.13098
5.87143
5.63641
5.42323
5.23014
5.0568
13.6998
12.4453
11.387
10.4859
9.71223
9.04289
8.45964
7.94805
7.49662
7.09604
6.73878
6.41867
6.13063
5.87048
5.63481
5.42096
5.22719
5.05318
13.701
12.4493
11.3946
10.4974
9.72726
9.06058
8.47897
7.96796
7.51613
7.11433
6.7552
6.43274
6.14202
5.87899
5.64034
5.42347
5.22673
5.04993
13.7054
12.4634
11.4201
10.5335
9.77156
9.11004
8.53054
8.01905
7.56469
7.15891
6.79483
6.46685
6.17036
5.90153
5.65718
5.43485
5.23294
5.05146
13.7204
12.5081
11.4949
10.6317
9.8841
9.2282
8.64738
8.12962
7.66586
7.24892
6.87294
6.53303
6.225
5.94528
5.69082
5.45921
5.2489
5.06006
13.7671
12.6332
11.6844
10.8598
10.1264
9.4667
8.87057
8.33121
7.84316
7.40158
7.00199
6.64021
6.31238
6.01497
5.74488
5.49951
5.27716
5.07809
13.9007
12.9463
12.109
11.3257
10.5848
9.88994
9.24607
8.65558
8.11815
7.63144
7.1919
6.79545
6.43789
6.11518
5.82362
5.56004
5.32227
5.11041
14.2608
13.6661
12.9747
12.1896
11.3726
10.574
9.82345
9.13488
8.51218
7.95355
7.4544
7.009
6.61141
6.25601
5.93771
5.65218
5.39629
5.16972
15.1942
15.2324
14.6357
13.6948
12.6464
11.6177
10.6665
9.81306
9.05885
8.39676
7.81664
7.30788
6.86056
6.46593
6.11648
5.80598
5.52982
5.28692
17.6339
18.6186
17.7656
16.259
14.6634
13.1881
11.8948
10.7864
9.84377
9.04232
8.35836
7.7714
7.26445
6.82372
6.43811
6.0988
5.79923
5.53717
24.7059
26.4239
23.9027
20.7818
17.9992
15.702
13.8482
12.3569
11.1492
10.1604
9.34074
8.65283
8.06882
7.5678
7.1339
6.75506
6.42236
6.13199
51.9673
47.7377
37.7997
30.1731
24.7583
20.8735
18.0296
15.8977
14.2569
12.9603
11.9114
11.0455
10.3184
9.69892
9.16482
8.69968
8.29152
7.93442
251.832
137.367
90.7894
67.1335
53.3114
44.5265
38.5733
34.3013
31.0791
28.5475
26.4939
24.7861
23.3384
22.0926
21.0077
20.0535
19.2077
18.4559
0.148204
0.183696
0.313156
0.454446
0.583816
0.703236
0.819346
0.934046
1.04859
1.16404
1.28129
1.40093
1.5233
1.64849
1.77644
1.90693
2.03965
2.17424
2.31032
2.44749
2.58537
2.72362
2.86195
3.00016
3.13815
3.27605
3.41424
3.55355
3.69551
3.8427
3.99123
4.13489
4.27332
4.40607
4.53251
4.65192
4.76349
4.86644
4.95997
5.04333
5.11583
5.17685
5.22588
5.2625
0.689893
0.437472
0.459615
0.527373
0.608765
0.691451
0.770135
0.842927
0.909797
0.971522
1.02907
1.08335
1.13507
1.18481
1.23297
1.27987
1.32574
1.37075
1.41502
1.45866
1.50178
1.54446
1.58681
1.62895
1.67104
1.71328
1.75593
1.7993
1.84382
1.88989
1.93805
1.98573
2.03226
2.07728
2.1205
2.16164
2.20037
2.23637
2.26934
2.29895
2.32493
2.347
2.36494
2.37854
1.3725
0.689339
0.625438
0.646544
0.693487
0.749106
0.80554
0.858937
0.907828
0.952084
0.99221
1.02892
1.06291
1.0948
1.1251
1.15421
1.18246
1.21011
1.2374
1.26452
1.29165
1.31897
1.34663
1.37479
1.40359
1.43315
1.4636
1.49503
1.5275
1.56105
1.59543
1.62999
1.66432
1.69814
1.73116
1.7631
1.79368
1.82259
1.84952
1.87419
1.8963
1.91559
1.93181
1.94477
1.94173
0.897069
0.761919
0.746793
0.767087
0.801255
0.840373
0.879879
0.9175
0.952336
0.984263
1.01354
1.04059
1.06586
1.08977
1.11268
1.13493
1.15679
1.17852
1.20034
1.22246
1.24507
1.26832
1.29237
1.31732
1.34329
1.37034
1.39849
1.42774
1.45802
1.48914
1.52075
1.55253
1.58423
1.61556
1.64622
1.67591
1.7043
1.73106
1.75588
1.77843
1.79842
1.81558
1.82968
2.4189
1.06643
0.870689
0.826659
0.826802
0.844952
0.871085
0.900235
0.929738
0.958236
0.98515
1.01035
1.03396
1.05623
1.07743
1.09785
1.11779
1.13749
1.15722
1.17719
1.19761
1.21867
1.24053
1.26334
1.2872
1.3122
1.33839
1.36579
1.39438
1.42409
1.45474
1.48607
1.51784
1.54975
1.58153
1.61285
1.64338
1.67277
1.70065
1.72667
1.75047
1.77174
1.79017
1.80549
2.81683
1.20518
0.957699
0.88998
0.874528
0.880687
0.897163
0.918574
0.942011
0.96586
0.989264
1.01183
1.03346
1.0542
1.07422
1.09371
1.1129
1.132
1.15124
1.17082
1.19095
1.2118
1.23354
1.2563
1.2802
1.30532
1.33171
1.3594
1.38836
1.41852
1.44975
1.4818
1.51446
1.54742
1.5804
1.61305
1.64499
1.67585
1.70522
1.73271
1.75793
1.78052
1.80015
1.81653
3.1411
1.31848
1.02749
0.940079
0.912176
0.9091
0.918269
0.933841
0.95269
0.973034
0.99385
1.01458
1.03495
1.0549
1.07447
1.09376
1.11294
1.13218
1.15166
1.17156
1.19208
1.21338
1.2356
1.2589
1.28339
1.30915
1.33625
1.36471
1.39452
1.42562
1.45788
1.49109
1.52503
1.55942
1.59391
1.62815
1.66174
1.69423
1.7252
1.7542
1.7808
1.80461
1.82527
1.84246
3.39642
1.40958
1.08305
0.979353
0.941322
0.930932
0.934429
0.945512
0.960844
0.978512
0.997379
1.01678
1.03633
1.05587
1.07535
1.09481
1.11434
1.13407
1.15414
1.17473
1.19597
1.21803
1.24106
1.26519
1.29054
1.31721
1.34527
1.37475
1.40566
1.43793
1.47146
1.50607
1.54151
1.5775
1.61368
1.64965
1.68497
1.71916
1.75173
1.78219
1.81006
1.83491
1.85636
1.87408
3.58648
1.48055
1.12634
1.00947
0.9632
0.946923
0.945923
0.953486
0.966081
0.981682
0.999064
1.01748
1.03649
1.05584
1.07542
1.09522
1.11527
1.13565
1.15648
1.17789
1.2
1.22298
1.24695
1.27205
1.2984
1.32611
1.35526
1.38591
1.41805
1.45166
1.48662
1.52277
1.55986
1.59758
1.63556
1.67335
1.71045
1.74632
1.78043
1.81223
1.84119
1.86684
1.88879
1.9067
3.71396
1.53279
1.15869
1.03166
0.978841
0.957846
0.953253
0.958026
0.968472
0.982465
0.998715
1.01642
1.03507
1.05437
1.07416
1.09437
1.11499
1.13608
1.15772
1.18
1.20304
1.22697
1.25194
1.27806
1.30547
1.3343
1.36462
1.39651
1.43
1.46507
1.50159
1.53942
1.57829
1.61786
1.65771
1.69735
1.7362
1.77369
1.80919
1.8421
1.87187
1.89798
1.92003
1.9377
3.78087
1.56733
1.18118
1.04701
0.98925
0.964593
0.957183
0.959772
0.968548
0.981312
0.996719
1.01392
1.03237
1.05173
1.07179
1.09245
1.11369
1.1355
1.15794
1.18109
1.20506
1.22997
1.25594
1.28311
1.31162
1.3416
1.37316
1.40639
1.44134
1.47799
1.51623
1.55587
1.59664
1.63814
1.67988
1.72131
1.76179
1.80066
1.83725
1.8709
1.901
1.92703
1.94863
1.96551
3.78888
1.5851
1.19481
1.05658
0.995543
0.968279
0.958804
0.959781
0.967337
0.979229
0.994076
1.01099
1.0294
1.04894
1.06936
1.09054
1.1124
1.13495
1.15822
1.18226
1.20716
1.23305
1.26005
1.28831
1.31797
1.34918
1.38207
1.41677
1.45333
1.49174
1.53186
1.57346
1.6162
1.65964
1.7032
1.7462
1.78794
1.8277
1.86478
1.89856
1.92823
1.95334
1.97362
1.98886
3.73915
1.58694
1.20064
1.06163
0.999094
0.970362
0.95963
0.959609
0.966434
0.977851
0.992462
1.00936
1.02795
1.04784
1.06877
1.09057
1.11318
1.13655
1.16071
1.1857
1.21163
1.23858
1.26671
1.29616
1.32709
1.35969
1.3941
1.43047
1.46888
1.5093
1.55148
1.59514
1.63985
1.68511
1.73021
1.77423
1.81645
1.85613
1.89254
1.92504
1.95308
1.97626
1.99433
2.0072
3.63059
1.57398
1.20017
1.06385
1.00175
0.972821
0.961751
0.961445
0.968119
0.979556
0.994356
1.01161
1.0307
1.05123
1.07291
1.09559
1.11915
1.14356
1.16883
1.195
1.22215
1.2504
1.2799
1.31081
1.34332
1.37762
1.4139
1.45232
1.49299
1.53571
1.58013
1.62579
1.67212
1.71843
1.76392
1.80774
1.8491
1.88723
1.92148
1.95129
1.97626
1.99613
2.01078
2.02021
3.48352
1.55623
1.19792
1.06648
1.00645
0.97856
0.968134
0.968352
0.975559
0.987602
1.00312
1.02122
1.04128
1.0629
1.08579
1.10976
1.13472
1.1606
1.18741
1.2152
1.24405
1.27408
1.30544
1.33831
1.37289
1.40941
1.44806
1.48903
1.53243
1.57769
1.62428
1.67155
1.71873
1.76497
1.80939
1.85116
1.88951
1.92382
1.9536
1.97852
1.9984
2.01315
2.02284
2.0276
3.29068
1.53272
1.19605
1.0723
1.01625
0.990873
0.98231
0.984112
0.992815
1.00637
1.02347
1.04325
1.06512
1.08866
1.11359
1.13971
1.16692
1.19515
1.22441
1.25473
1.2862
1.31895
1.35313
1.38893
1.42657
1.46628
1.50827
1.55275
1.59933
1.64711
1.69531
1.74302
1.78925
1.83305
1.87352
1.90995
1.94182
1.96882
1.99082
2.00784
2.01999
2.02745
2.03043
2.02917
3.06859
1.50366
1.19532
1.08261
1.03289
1.01197
1.00701
1.012
1.02374
1.04029
1.06045
1.08338
1.1085
1.13543
1.16387
1.19363
1.22459
1.25669
1.28993
1.32434
1.36002
1.39708
1.43569
1.47602
1.5183
1.56272
1.60945
1.65853
1.70827
1.75769
1.80567
1.85105
1.89269
1.92967
1.96134
1.98738
2.0078
2.02286
2.03298
2.03861
2.04022
2.03819
2.03286
2.02449
2.82695
1.46773
1.19466
1.09678
1.05618
1.04211
1.04298
1.05333
1.07023
1.09189
1.11717
1.14529
1.1757
1.208
1.24191
1.27722
1.31381
1.35162
1.39063
1.43086
1.4724
1.51535
1.55984
1.60604
1.65412
1.70423
1.75654
1.80891
1.85977
1.90772
1.95138
1.98946
2.02099
2.04543
2.06273
2.07332
2.07798
2.07767
2.07335
2.06587
2.0559
2.0439
2.03017
2.01487
2.57738
1.42454
1.19291
1.11423
1.08645
1.08274
1.09289
1.11203
1.13745
1.16751
1.20113
1.23753
1.27618
1.31668
1.35872
1.4021
1.44667
1.49236
1.53912
1.58696
1.63591
1.68605
1.73746
1.79024
1.84448
1.90029
1.95549
2.00729
2.05411
2.09436
2.12667
2.15012
2.16436
2.16973
2.16719
2.15811
2.1441
2.12668
2.10719
2.0866
2.06555
2.04436
2.02315
2.00186
2.33215
1.37413
1.18988
1.13622
1.127
1.1394
1.16455
1.19804
1.23734
1.28087
1.32755
1.37661
1.42749
1.47978
1.53315
1.58739
1.64231
1.69781
1.7538
1.81025
1.86713
1.92443
1.98215
2.0403
2.09889
2.15547
2.20607
2.24893
2.28243
2.30528
2.31678
2.31698
2.30673
2.28759
2.26162
2.23104
2.19797
2.16416
2.13089
2.09894
2.06867
2.04008
2.013
1.9871
2.10396
1.31798
1.18887
1.17002
1.18947
1.22796
1.27763
1.33435
1.39567
1.45997
1.52615
1.59341
1.66116
1.72897
1.7965
1.8635
1.92978
1.99522
2.05968
2.12309
2.18534
2.24633
2.30602
2.36442
2.41802
2.46229
2.49558
2.51647
2.52403
2.51808
2.49924
2.46905
2.42974
2.38397
2.33454
2.28398
2.23438
2.18719
2.14326
2.10292
2.06605
2.0323
2.00117
1.97211
1.90603
1.26256
1.20371
1.23862
1.30541
1.3873
1.4771
1.57076
1.66573
1.76033
1.85341
1.94416
2.03204
2.11666
2.19779
2.27529
2.34908
2.41911
2.48535
2.54777
2.60631
2.66077
2.71151
2.75289
2.78123
2.79539
2.79459
2.77861
2.74802
2.70423
2.64946
2.58653
2.51861
2.44879
2.37983
2.3139
2.25247
2.19631
2.14563
2.10017
2.0594
2.02261
1.98907
1.95808
1.75157
1.23034
1.27782
1.40515
1.55456
1.71033
1.86539
2.01552
2.158
2.29124
2.41439
2.52714
2.62953
2.72184
2.80453
2.87812
2.94316
3.0001
3.0494
3.09137
3.1266
3.15365
3.16614
3.16306
3.14412
3.10945
3.05977
2.99649
2.92173
2.83822
2.74912
2.65771
2.56709
2.47991
2.39813
2.32304
2.2552
2.19461
2.14083
2.09314
2.05067
2.0125
1.97779
1.94576
1.65111
1.29613
1.54217
1.84752
2.14992
2.43167
2.68548
2.90784
3.09788
3.25672
3.38671
3.49077
3.57199
3.63336
3.67762
3.70725
3.72451
3.73073
3.72757
3.71577
3.69077
3.65032
3.59526
3.52632
3.44448
3.35114
3.24821
3.13807
3.02351
2.9075
2.793
2.68267
2.5787
2.48262
2.39531
2.31705
2.24755
2.1862
2.13208
2.08421
2.04154
2.00309
1.96798
1.93547
1.62115
1.73221
2.43971
3.12467
3.69994
4.15037
4.4836
4.71448
4.86038
4.93883
4.96558
4.9537
4.91357
4.85311
4.77822
4.69334
4.60306
4.50705
4.40341
4.29055
4.17027
4.04309
3.90969
3.77099
3.6282
3.48287
3.33688
3.19238
3.05159
2.91666
2.78946
2.67146
2.56359
2.46626
2.37936
2.3024
2.23454
2.17479
2.12203
2.07517
2.03315
1.99501
1.95992
1.92722
1.85007
3.81346
5.57656
6.85948
7.6033
7.92649
7.96245
7.82223
7.5823
7.29262
6.98413
6.67494
6.37496
6.08894
5.81849
5.56311
5.31942
5.08711
4.86505
4.65138
4.44488
4.24461
4.05005
3.86109
3.67807
3.50167
3.33287
3.17275
3.02244
2.88287
2.75473
2.63835
2.53368
2.44032
2.35756
2.28449
2.22003
2.16305
2.11244
2.06711
2.02608
1.98848
1.95358
1.92079
4.20272
11.2797
13.5226
13.9183
13.3972
12.5027
11.5258
10.5883
9.73391
8.97243
8.29973
7.70656
7.18244
6.71729
6.30196
5.92833
5.589
5.27833
4.99176
4.7255
4.4766
4.24286
4.02275
3.81529
3.61998
3.4367
3.26552
3.10668
2.96036
2.82664
2.70541
2.5963
2.49876
2.41199
2.33504
2.26688
2.20641
2.15254
2.10423
2.06051
2.02051
1.98348
1.94878
1.91591
17.958
15.1317
13.5885
12.5851
11.7852
11.0555
10.3557
9.68295
9.04457
8.44708
7.89377
7.38499
6.91902
6.4929
6.10307
5.74571
5.417
5.11351
4.83226
4.57069
4.32673
4.09876
3.88556
3.68631
3.50047
3.32771
3.16784
3.02069
2.88607
2.76368
2.65306
2.55363
2.46463
2.3852
2.31439
2.25121
2.19465
2.14375
2.0976
2.05536
2.01629
1.97974
1.94518
1.91219
8.77536
8.3136
7.99379
7.79831
7.68026
7.58477
7.46953
7.31432
7.11656
6.88314
6.62432
6.35034
6.06992
5.78976
5.51462
5.24769
4.99089
4.74526
4.51131
4.28917
4.07881
3.88014
3.69303
3.51741
3.35322
3.20042
3.05893
2.92864
2.8093
2.70059
2.60203
2.51303
2.43289
2.36084
2.29603
2.23761
2.18473
2.13657
2.09238
2.05145
2.01316
1.97699
1.94248
1.90932
6.63755
6.40129
6.19719
6.03693
5.92061
5.83777
5.7722
5.70813
5.63384
5.54249
5.43157
5.30174
5.15558
4.9966
4.8285
4.65476
4.47845
4.30212
4.12784
3.95728
3.79176
3.6323
3.47973
3.33469
3.19767
3.06904
2.949
2.83764
2.7349
2.64059
2.55437
2.47579
2.40433
2.33935
2.28021
2.22621
2.1767
2.13101
2.08853
2.04871
2.01105
1.97512
1.94057
1.90713
5.82782
5.64244
5.47032
5.31668
5.18455
5.07357
4.9801
4.89849
4.82262
4.747
4.66739
4.58103
4.48659
4.38386
4.27347
4.15661
4.03477
3.90954
3.78251
3.6552
3.52897
3.40504
3.28447
3.16813
3.05677
2.95093
2.85104
2.75735
2.66995
2.58881
2.51377
2.44455
2.38078
2.32203
2.26781
2.21762
2.17095
2.1273
2.08621
2.04722
2.00997
1.97412
1.93939
1.90559
5.44001
5.27369
5.11605
4.96882
4.83357
4.71107
4.60082
4.50121
4.40988
4.32415
4.2414
4.15935
4.07624
3.99088
3.90263
3.8113
3.71712
3.62058
3.52237
3.4233
3.32421
3.22598
3.12939
3.03519
2.94403
2.85644
2.77284
2.69352
2.61866
2.54831
2.48241
2.42082
2.36331
2.30959
2.25932
2.21214
2.16767
2.12555
2.08543
2.04698
2.0099
1.97393
1.93888
1.9046
5.23198
5.07596
4.92692
4.78534
4.6518
4.52675
4.41026
4.30192
4.20092
4.10611
4.01618
3.92981
3.84576
3.763
3.68074
3.59845
3.51581
3.43278
3.34946
3.26611
3.18311
3.10088
3.01988
2.94058
2.86339
2.78871
2.71683
2.64801
2.58239
2.52005
2.46097
2.40507
2.35222
2.30221
2.25481
2.20977
2.16682
2.12569
2.08612
2.04786
2.0107
1.97443
1.93892
1.90405
5.11349
4.96471
4.82196
4.68528
4.55484
4.43078
4.31318
4.20191
4.09668
3.99703
3.90232
3.81188
3.72497
3.64091
3.55911
3.47906
3.40039
3.32285
3.24631
3.17076
3.09626
3.02297
2.95106
2.88076
2.81229
2.74584
2.68161
2.61973
2.5603
2.50335
2.44888
2.39683
2.34709
2.29954
2.25399
2.21027
2.16817
2.1275
2.08807
2.04969
2.0122
1.97545
1.93933
1.90377
5.04358
4.90076
4.76326
4.631
4.50399
4.38223
4.26572
4.15439
4.04811
3.94666
3.84975
3.75702
3.66806
3.58246
3.49984
3.41981
3.34208
3.26639
3.19255
3.12043
3.04998
2.98119
2.91407
2.84869
2.78511
2.72341
2.66366
2.60591
2.55019
2.49648
2.44478
2.395
2.34706
2.30086
2.25627
2.21313
2.1713
2.13063
2.09097
2.05218
2.01414
1.97674
1.9399
1.90357
5.00129
4.86376
4.73096
4.6028
4.47923
4.36021
4.24569
4.13561
4.02989
3.92839
3.83097
3.73743
3.64753
3.56103
3.47768
3.39724
3.31947
3.24418
3.17118
3.10034
3.03154
2.96471
2.89979
2.83676
2.77558
2.71627
2.65879
2.60315
2.54931
2.49723
2.44687
2.39814
2.35096
2.30524
2.26087
2.21772
2.17567
2.13461
2.09442
2.05499
2.01623
1.97805
1.94038
1.90321
4.97513
4.84239
4.71389
4.58956
4.46933
4.35314
4.24093
4.13266
4.02824
3.92759
3.83061
3.73718
3.64715
3.56039
3.47671
3.39597
3.31799
3.24262
3.16972
3.09916
3.03083
2.96462
2.90046
2.83827
2.77799
2.71956
2.66293
2.60805
2.55485
2.50328
2.45325
2.40469
2.35751
2.31162
2.26693
2.22331
2.18068
2.13894
2.09799
2.05774
2.01812
1.97905
1.94049
1.90242
4.95852
4.83013
4.70557
4.58477
4.46768
4.35424
4.2444
4.13811
4.03529
3.93588
3.83982
3.747
3.65734
3.57074
3.48708
3.40624
3.32812
3.25259
3.17954
3.10886
3.04044
2.9742
2.91004
2.84787
2.78762
2.72921
2.67256
2.61761
2.56427
2.51246
2.46211
2.41314
2.36544
2.31894
2.27355
2.22916
2.18569
2.14307
2.10119
2.06
2.01942
1.97941
1.93992
1.90093
4.94858
4.82372
4.7024
4.58456
4.47013
4.35908
4.25133
4.14685
4.04557
3.94744
3.8524
3.76037
3.67129
3.58507
3.50162
3.42087
3.34272
3.26708
3.19384
3.12293
3.05424
2.9877
2.92321
2.86069
2.80005
2.74122
2.68411
2.62865
2.57475
2.52233
2.47131
2.42161
2.37313
2.3258
2.27953
2.23423
2.18983
2.14624
2.10341
2.06126
2.01974
1.9788
1.9384
1.89854
4.94173
4.81999
4.70154
4.58631
4.47427
4.36536
4.25953
4.15673
4.05691
3.96002
3.86599
3.77479
3.68633
3.60056
3.51741
3.4368
3.35867
3.28293
3.2095
3.13831
3.06928
3.00232
2.93737
2.87432
2.81312
2.75367
2.6959
2.63973
2.58507
2.53186
2.48
2.42942
2.38003
2.33176
2.28453
2.23825
2.19287
2.14831
2.1045
2.0614
2.01895
1.9771
1.93584
1.89514
4.93655
4.81781
4.70213
4.58946
4.47975
4.37295
4.26902
4.1679
4.06955
3.97393
3.88097
3.79063
3.70285
3.61758
3.53476
3.45432
3.37621
3.30036
3.22671
3.15518
3.08571
3.01822
2.95265
2.88892
2.82696
2.7667
2.70806
2.65096
2.59534
2.54112
2.48822
2.43656
2.38608
2.3367
2.28835
2.24096
2.19447
2.14882
2.10394
2.0598
2.01634
1.97353
1.93135
1.88977
4.93303
4.81693
4.70371
4.59332
4.48571
4.38083
4.27863
4.17907
4.08208
3.98763
3.89567
3.80614
3.719
3.6342
3.55168
3.47139
3.39328
3.31728
3.24335
3.17142
3.10144
3.03333
2.96705
2.90252
2.83968
2.77846
2.71881
2.66064
2.60391
2.54853
2.49444
2.44158
2.38988
2.33927
2.28969
2.24109
2.19341
2.14659
2.10058
2.05534
2.01083
1.96702
1.92388
4.93099
4.81696
4.70568
4.5971
4.49117
4.38783
4.28702
4.1887
4.09281
3.9993
3.90812
3.81923
3.73258
3.64811
3.56577
3.48553
3.40732
3.3311
3.25681
3.1844
3.11383
3.04503
2.97795
2.91254
2.84874
2.78649
2.72574
2.66642
2.60849
2.55188
2.49654
2.4424
2.38942
2.33753
2.28669
2.23684
2.18793
2.13992
2.09276
2.04641
2.00085
1.95604
1.91196
4.92984
4.81711
4.70708
4.59966
4.49481
4.39244
4.29252
4.19497
4.09974
4.00679
3.91605
3.82748
3.74102
3.65663
3.57425
3.49385
3.41537
3.33876
3.26398
3.19098
3.11971
3.05012
2.98217
2.91581
2.85099
2.78766
2.72577
2.66527
2.60612
2.54826
2.49165
2.43625
2.38199
2.32883
2.27674
2.22567
2.17557
2.12641
2.07814
2.03075
1.98419
1.93844
1.89348
4.92815
4.8159
4.70631
4.59928
4.49475
4.39266
4.29294
4.19554
4.10038
4.00742
3.9166
3.82786
3.74116
3.65644
3.57365
3.49276
3.4137
3.33644
3.26094
3.18713
3.11499
3.04447
2.97553
2.90812
2.84221
2.77774
2.71468
2.65299
2.59263
2.53355
2.47571
2.41908
2.36361
2.30927
2.25601
2.20381
2.15262
2.10242
2.05318
2.00485
1.95743
1.91087
1.86518
4.92401
4.81125
4.70109
4.59347
4.48831
4.38555
4.28512
4.18696
4.09102
3.99723
3.90554
3.81591
3.72827
3.64258
3.55879
3.47686
3.39674
3.31838
3.24175
3.1668
3.0935
3.0218
2.95166
2.88304
2.81591
2.75024
2.68597
2.62308
2.56153
2.50129
2.44231
2.38457
2.32803
2.27266
2.21843
2.16529
2.11323
2.06222
2.01221
1.96321
1.91516
1.86806
1.82189
4.91883
4.8041
4.69196
4.58235
4.47519
4.37044
4.26804
4.16792
4.07005
3.97435
3.8808
3.78932
3.69989
3.61244
3.52694
3.44334
3.3616
3.28168
3.20353
3.12712
3.0524
2.97934
2.9079
2.83804
2.76972
2.70291
2.63756
2.57366
2.51115
2.45001
2.3902
2.33169
2.27444
2.21843
2.16361
2.10997
2.05747
2.00608
1.95578
1.90653
1.85832
1.81113
1.76492
4.91725
4.79944
4.68427
4.5717
4.46166
4.35411
4.249
4.14628
4.04589
3.9478
3.85195
3.75829
3.66678
3.57737
3.49002
3.40468
3.3213
3.23985
3.16028
3.08254
3.0066
2.93241
2.85993
2.78912
2.71994
2.65235
2.58632
2.5218
2.45876
2.39716
2.33696
2.27813
2.22063
2.16442
2.10949
2.05578
2.00327
1.95193
1.90174
1.85265
1.80466
1.75772
1.71183
4.92113
4.79873
4.67918
4.56242
4.44842
4.33711
4.22845
4.12239
4.01888
3.91787
3.8193
3.72312
3.62928
3.53773
3.44842
3.36128
3.27629
3.19337
3.11248
3.03357
2.9566
2.8815
2.80824
2.73676
2.66703
2.59899
2.5326
2.46782
2.40459
2.34289
2.28266
2.22387
2.16648
2.11044
2.05573
2.0023
1.95012
1.89916
1.84937
1.80075
1.75324
1.70683
1.6615
4.93287
4.80445
4.67927
4.55727
4.43839
4.32257
4.20976
4.09988
3.99287
3.88867
3.7872
3.68841
3.59222
3.49856
3.40738
3.3186
3.23215
3.14798
3.06602
2.9862
2.90848
2.83277
2.75904
2.68721
2.61724
2.54907
2.48264
2.4179
2.3548
2.2933
2.23333
2.17487
2.11785
2.06224
2.00799
1.95507
1.90342
1.85303
1.80384
1.75583
1.70896
1.66321
1.61854
4.95773
4.82218
4.69047
4.56251
4.43821
4.31749
4.20023
4.08636
3.97578
3.86838
3.76408
3.66278
3.56439
3.46881
3.37597
3.28577
3.19813
3.11296
3.03019
2.94973
2.87151
2.79545
2.72148
2.64954
2.57955
2.51145
2.44518
2.38067
2.31786
2.2567
2.19713
2.1391
2.08255
2.02743
1.97371
1.92133
1.87024
1.82042
1.77181
1.72439
1.67811
1.63295
1.58888
5.00897
4.86562
4.72688
4.59262
4.46268
4.33691
4.21517
4.09732
3.98321
3.87271
3.76568
3.662
3.56155
3.46419
3.36983
3.27833
3.18961
3.10354
3.02004
2.939
2.86033
2.78395
2.70976
2.63768
2.56764
2.49956
2.43336
2.36897
2.30633
2.24537
2.18603
2.12825
2.07197
2.01714
1.9637
1.91161
1.86082
1.81128
1.76296
1.71582
1.66981
1.62491
1.5811
5.11785
4.96618
4.82002
4.67913
4.54328
4.41224
4.28579
4.16374
4.04589
3.93206
3.82207
3.71576
3.61296
3.51352
3.41731
3.32417
3.23399
3.14663
3.06197
2.97991
2.90032
2.82312
2.74819
2.67544
2.60479
2.53615
2.46943
2.40455
2.34145
2.28004
2.22027
2.16207
2.10537
2.05012
1.99626
1.94374
1.89252
1.84253
1.79376
1.74614
1.69966
1.65427
1.60995
5.3589
5.19761
5.04274
4.89394
4.75087
4.61322
4.4807
4.35307
4.23007
4.11147
3.99706
3.88663
3.78
3.67697
3.57738
3.48107
3.38788
3.29766
3.21028
3.12561
3.04352
2.96389
2.88662
2.81159
2.73871
2.66788
2.59901
2.53202
2.46683
2.40335
2.34152
2.28126
2.22251
2.16522
2.10931
2.05475
2.00147
1.94944
1.8986
1.84892
1.80037
1.75291
1.70651
5.94007
5.76412
5.59545
5.43357
5.27807
5.12859
4.9848
4.8464
4.71311
4.58467
4.46081
4.34131
4.22593
4.11447
4.00672
3.90249
3.80161
3.70391
3.60922
3.5174
3.42831
3.34181
3.25779
3.17612
3.09668
3.01939
2.94413
2.87081
2.79934
2.72965
2.66165
2.59526
2.53043
2.46707
2.40515
2.34459
2.28534
2.22737
2.17062
2.11506
2.06065
2.00736
1.95517
7.70753
7.49465
7.2896
7.09203
6.90174
6.71849
6.54198
6.37188
6.20789
6.04966
5.8969
5.74929
5.60656
5.46843
5.33464
5.20496
5.07917
4.95705
4.83841
4.72307
4.61085
4.50159
4.39514
4.29136
4.19011
4.09127
3.99471
3.90034
3.80804
3.71771
3.62927
3.54263
3.45771
3.37444
3.29276
3.2126
3.13391
3.05664
2.98075
2.9062
2.83296
2.76101
2.69033
17.9738
17.5178
17.0772
16.6517
16.241
15.8443
15.461
15.0901
14.731
14.3828
14.0449
13.7165
13.397
13.0859
12.7827
12.4868
12.1979
11.9155
11.6393
11.3689
11.1041
10.8444
10.5898
10.3398
10.0944
9.85322
9.61619
9.38313
9.15388
8.92833
8.70636
8.48789
8.27284
8.06116
7.85279
7.64771
7.44591
7.24738
7.05213
6.86019
6.67161
6.48643
6.30473
)
;

boundaryField
{
    inlet
    {
        type            fixedValue;
        value           uniform 14.855;
    }
    outlet
    {
        type            zeroGradient;
    }
    upperWall
    {
        Cmu             0.09;
        kappa           0.41;
        E               9.8;
        type            epsilonWallFunction;
        value           nonuniform List<scalar> 
61
(
251.832
137.367
90.7894
67.1335
53.3114
44.5265
38.5733
34.3013
31.0791
28.5475
26.4939
24.7861
23.3384
22.0926
21.0077
20.0535
19.2077
18.4559
17.9738
17.5178
17.0772
16.6517
16.241
15.8443
15.461
15.0901
14.731
14.3828
14.0449
13.7165
13.397
13.0859
12.7827
12.4868
12.1979
11.9155
11.6393
11.3689
11.1041
10.8444
10.5898
10.3398
10.0944
9.85322
9.61619
9.38313
9.15388
8.92833
8.70636
8.48789
8.27284
8.06116
7.85279
7.64771
7.44591
7.24738
7.05213
6.86019
6.67161
6.48643
6.30473
)
;
    }
    lowerWall
    {
        Cmu             0.09;
        kappa           0.41;
        E               9.8;
        type            epsilonWallFunction;
        value           nonuniform List<scalar> 
89
(
307.554
159.149
103.227
76.2172
60.948
51.4324
45.0173
40.3854
36.8526
34.0474
31.7549
29.8424
28.2231
26.8373
25.6429
24.6202
23.7803
23.201
0.148204
0.689893
1.3725
1.94173
2.4189
2.81683
3.1411
3.39642
3.58648
3.71396
3.78087
3.78888
3.73915
3.63059
3.48352
3.29068
3.06859
2.82695
2.57738
2.33215
2.10396
1.90603
1.75157
1.65111
1.62115
1.85007
4.20272
0.148204
0.183696
0.313156
0.454446
0.583816
0.703236
0.819346
0.934046
1.04859
1.16404
1.28129
1.40093
1.5233
1.64849
1.77644
1.90693
2.03965
2.17424
2.31032
2.44749
2.58537
2.72362
2.86195
3.00016
3.13815
3.27605
3.41424
3.55355
3.69551
3.8427
3.99123
4.13489
4.27332
4.40607
4.53251
4.65192
4.76349
4.86644
4.95997
5.04333
5.11583
5.17685
5.22588
5.2625
)
;
    }
    frontAndBack
    {
        type            empty;
    }
    procBoundary2to3
    {
        type            processor;
        value           nonuniform List<scalar> 
58
(
5.28643
2.38765
1.95422
1.84041
1.81735
1.82924
1.85571
1.88757
1.92006
1.95048
1.97714
1.99873
2.01462
2.02432
2.02744
2.02378
2.01316
1.99796
1.98025
1.96192
1.94446
1.92887
1.91562
1.90478
1.89616
1.88946
1.88431
1.8803
1.87708
1.87447
1.87243
1.87086
1.86965
1.86863
1.86763
1.86642
1.86476
1.86239
1.85916
1.85496
1.84875
1.8814
1.8814
1.86859
1.8493
1.82032
1.77662
1.71969
1.66695
1.61721
1.57494
1.54588
1.53833
1.56667
1.66116
1.90406
2.6209
6.1266
)
;
    }
}


// ************************************************************************* //
