/*--------------------------------*- C++ -*----------------------------------*\
  =========                 |
  \\      /  F ield         | OpenFOAM: The Open Source CFD Toolbox
   \\    /   O peration     | Website:  https://openfoam.org
    \\  /    A nd           | Version:  6
     \\/     M anipulation  |
\*---------------------------------------------------------------------------*/
FoamFile
{
    version     2.0;
    format      ascii;
    class       volScalarField;
    location    "0.08";
    object      k;
}
// * * * * * * * * * * * * * * * * * * * * * * * * * * * * * * * * * * * * * //

dimensions      [0 2 -2 0 0 0 0];

internalField   nonuniform List<scalar> 
3032
(
0.24644
0.158842
0.119021
0.0972285
0.0837644
0.0748003
0.068442
0.0636611
0.0598902
0.0568088
0.0542267
0.0520241
0.0501212
0.0484629
0.0470098
0.045744
0.0446882
0.0439444
0.339525
0.26014
0.20828
0.175337
0.15334
0.137783
0.126146
0.11702
0.109611
0.103446
0.0982234
0.0937379
0.089844
0.0864356
0.083435
0.080782
0.0784689
0.0764515
0.347499
0.292345
0.248535
0.216244
0.19231
0.174167
0.160015
0.148657
0.139319
0.131491
0.124829
0.119088
0.114093
0.109711
0.105847
0.102425
0.0994069
0.0967861
0.351371
0.309041
0.27191
0.241972
0.218224
0.199308
0.184032
0.171487
0.161015
0.152148
0.144547
0.137964
0.132213
0.127153
0.122677
0.118705
0.115184
0.112117
0.353918
0.319272
0.287222
0.25987
0.237121
0.218307
0.202673
0.189561
0.178446
0.168928
0.160701
0.153529
0.147232
0.14167
0.136733
0.132337
0.128426
0.125006
0.355678
0.326038
0.29789
0.272962
0.251508
0.233242
0.217701
0.204421
0.193002
0.183112
0.174488
0.166917
0.160232
0.1543
0.149014
0.14429
0.140073
0.136368
0.356918
0.330716
0.305591
0.282807
0.262709
0.245206
0.230024
0.216841
0.205356
0.195302
0.186459
0.17864
0.171696
0.165503
0.159961
0.154989
0.150535
0.146606
0.357803
0.334033
0.311258
0.290318
0.271523
0.254869
0.240196
0.227281
0.215898
0.205836
0.196913
0.188969
0.181872
0.175511
0.169793
0.164642
0.160013
0.155912
0.358434
0.336409
0.315462
0.296077
0.278477
0.262682
0.248592
0.23605
0.224885
0.21493
0.206034
0.198064
0.190902
0.184451
0.178626
0.17336
0.16861
0.164384
0.358882
0.338111
0.318575
0.30048
0.283944
0.268971
0.255487
0.243376
0.232503
0.222736
0.213949
0.206029
0.198875
0.1924
0.186528
0.181198
0.176376
0.172068
0.359196
0.339319
0.32086
0.303817
0.2882
0.273983
0.261094
0.249436
0.238899
0.229373
0.220753
0.212941
0.205852
0.199406
0.193536
0.18819
0.183338
0.178985
0.359394
0.340095
0.322376
0.3061
0.291195
0.277594
0.265216
0.253969
0.243756
0.23448
0.226048
0.218375
0.211383
0.205002
0.199172
0.193847
0.188999
0.184638
0.359536
0.340654
0.323498
0.307837
0.293529
0.280468
0.268556
0.2577
0.247807
0.238787
0.230559
0.223043
0.216171
0.209878
0.204112
0.198831
0.194011
0.18966
0.359644
0.341088
0.324394
0.309266
0.295504
0.28296
0.271515
0.261066
0.251519
0.24279
0.234801
0.227479
0.220761
0.214591
0.20892
0.203711
0.198943
0.194624
0.35972
0.341395
0.325049
0.310346
0.297042
0.284956
0.273944
0.263889
0.254693
0.246267
0.238537
0.231433
0.224898
0.218879
0.213331
0.208221
0.20353
0.199265
0.359767
0.34159
0.325477
0.311076
0.298118
0.286396
0.275745
0.266035
0.257155
0.249016
0.24154
0.234658
0.228315
0.222459
0.217049
0.212054
0.207456
0.203261
0.359793
0.341697
0.325718
0.3115
0.298764
0.287288
0.276894
0.267438
0.258804
0.250894
0.243627
0.236935
0.230759
0.22505
0.219768
0.214881
0.210372
0.206247
0.359804
0.341741
0.325818
0.31168
0.299045
0.287686
0.277419
0.268095
0.25959
0.251805
0.244656
0.238071
0.231991
0.226367
0.221158
0.216333
0.211876
0.207788
0.359801
0.341728
0.325788
0.311626
0.298961
0.287566
0.277259
0.267892
0.259345
0.251516
0.244323
0.237695
0.231573
0.225907
0.220658
0.215793
0.211297
0.207173
0.359775
0.34162
0.325543
0.31119
0.298289
0.286627
0.276035
0.266377
0.257542
0.249437
0.241982
0.235111
0.228765
0.222894
0.217458
0.212425
0.207777
0.203519
0.359715
0.341374
0.325003
0.310268
0.296927
0.284799
0.273739
0.26363
0.254373
0.245881
0.238076
0.230893
0.224271
0.218157
0.212508
0.207289
0.20248
0.198087
0.359585
0.340849
0.323896
0.308464
0.294381
0.281522
0.269778
0.259052
0.249249
0.240282
0.232073
0.224545
0.217633
0.211277
0.205427
0.200041
0.195095
0.190595
0.359329
0.339831
0.32185
0.305292
0.290111
0.276253
0.26364
0.25218
0.241772
0.232315
0.223712
0.215874
0.20872
0.202178
0.196187
0.190697
0.185678
0.181132
0.35886
0.338005
0.318361
0.300152
0.283501
0.268414
0.254818
0.242594
0.231609
0.221726
0.212817
0.204769
0.197479
0.190858
0.184831
0.179337
0.174337
0.169832
0.35805
0.334906
0.312742
0.292283
0.273818
0.257361
0.24278
0.229878
0.218449
0.208299
0.199253
0.191162
0.183896
0.177347
0.171424
0.166054
0.161189
0.156827
0.356706
0.329798
0.30396
0.280603
0.260076
0.242264
0.226862
0.213522
0.201918
0.191768
0.18284
0.174939
0.16791
0.161622
0.155971
0.150875
0.146277
0.142172
0.354517
0.321329
0.290225
0.263334
0.240719
0.221849
0.206061
0.192745
0.181406
0.171656
0.163195
0.15579
0.149258
0.143456
0.138272
0.133618
0.129432
0.125703
0.3509
0.306591
0.267897
0.237062
0.212873
0.193789
0.178495
0.166003
0.155613
0.146832
0.139308
0.132785
0.127073
0.122028
0.11754
0.113522
0.109913
0.1067
0.342446
0.275927
0.22724
0.193485
0.16975
0.152502
0.139444
0.129164
0.120807
0.113846
0.107939
0.102851
0.0984154
0.0945099
0.0910427
0.0879435
0.0851599
0.0826711
0.259302
0.173109
0.131348
0.107406
0.0921059
0.081688
0.0742354
0.0686491
0.064281
0.0607427
0.0577951
0.0552857
0.0531133
0.0512079
0.0495194
0.0480104
0.046653
0.0454298
0.00211242
0.00398728
0.00565001
0.00723398
0.00856365
0.0096967
0.010737
0.0117175
0.0126578
0.0135722
0.0144713
0.0153616
0.016247
0.017129
0.0180078
0.0188826
0.0197518
0.0206139
0.0214672
0.0223101
0.0231411
0.023959
0.0247631
0.0255529
0.0263286
0.0270912
0.0278431
0.0285884
0.0293334
0.0300882
0.0308614
0.0316004
0.0323045
0.0329732
0.0336049
0.0341973
0.0347476
0.0352531
0.0357109
0.0361184
0.0364729
0.0367724
0.0370148
0.0371986
0.00582868
0.0126588
0.0160865
0.0187569
0.0211172
0.0232542
0.0251963
0.0269702
0.0286095
0.0301501
0.0316242
0.0330581
0.0344717
0.0358791
0.0372896
0.0387088
0.0401396
0.0415828
0.0430379
0.0445033
0.045977
0.0474567
0.0489395
0.0504227
0.0519034
0.0533783
0.054844
0.0562969
0.0577327
0.0591475
0.0605223
0.061869
0.0631875
0.064474
0.0657227
0.0669271
0.0680799
0.0691736
0.0702006
0.0711534
0.0720247
0.0728077
0.0734962
0.0740848
0.00921926
0.0188063
0.023409
0.0267337
0.0295383
0.0320538
0.0343612
0.0364975
0.0384924
0.0403754
0.0421748
0.0439146
0.0456139
0.0472864
0.0489415
0.0505853
0.0522212
0.0538513
0.0554767
0.0570982
0.0587164
0.0603318
0.0619452
0.0635571
0.0651677
0.0667771
0.0683848
0.0699896
0.0715898
0.0731829
0.0747633
0.0763306
0.0778808
0.0794076
0.0809033
0.082359
0.0837651
0.0851115
0.0863878
0.0875837
0.088689
0.0896943
0.0905906
0.0913702
0.011624
0.0233822
0.0289575
0.0328189
0.0359495
0.0386934
0.0411954
0.0435212
0.0457076
0.0477807
0.0497624
0.0516708
0.0535208
0.0553242
0.0570898
0.0588246
0.0605338
0.062222
0.0638933
0.0655517
0.0672009
0.0688449
0.0704872
0.0721312
0.0737799
0.0754353
0.077099
0.0787711
0.0804508
0.0821357
0.0838224
0.0855081
0.0871874
0.0888531
0.090496
0.0921061
0.093672
0.0951817
0.0966229
0.0979831
0.09925
0.100412
0.101458
0.102378
0.0134467
0.026802
0.0331623
0.0374905
0.0409208
0.0438668
0.0465184
0.0489698
0.0512714
0.0534535
0.0555368
0.0575368
0.0594662
0.061335
0.0631519
0.0649245
0.0666596
0.0683638
0.0700433
0.0717044
0.0733533
0.0749959
0.0766382
0.0782853
0.0799418
0.0816115
0.0832969
0.0849991
0.086718
0.0884514
0.0901966
0.0919509
0.0937089
0.0954628
0.0972029
0.0989182
0.100596
0.102223
0.103786
0.105269
0.106659
0.107943
0.109107
0.11014
0.014868
0.0293753
0.0363473
0.0410629
0.0447604
0.0478936
0.0506792
0.0532311
0.0556129
0.0578621
0.0600027
0.062051
0.0640195
0.065918
0.0677555
0.0695399
0.071279
0.0729804
0.0746518
0.0763006
0.0779346
0.0795611
0.0811873
0.0828198
0.0844644
0.086126
0.0878082
0.0895132
0.0912414
0.0929915
0.0947616
0.0965498
0.0983511
0.100158
0.10196
0.103747
0.105504
0.107218
0.108872
0.110451
0.111939
0.113321
0.114582
0.11571
0.0159699
0.0312998
0.0387356
0.0437572
0.0476772
0.0509736
0.0538777
0.0565152
0.0589592
0.0612542
0.0634286
0.0655014
0.0674863
0.0693941
0.0712343
0.0730152
0.0747452
0.0764323
0.0780849
0.0797112
0.0813196
0.0829183
0.0845153
0.0861181
0.0877337
0.0893679
0.0910255
0.0927098
0.0944221
0.0961622
0.0979295
0.0997232
0.101539
0.103371
0.105208
0.107039
0.10885
0.110626
0.112349
0.114003
0.115571
0.117034
0.118378
0.119587
0.0168039
0.0327018
0.0404796
0.0457324
0.0498266
0.053256
0.0562592
0.0589682
0.0614621
0.0637905
0.0659856
0.0680695
0.0700578
0.0719627
0.0737942
0.0755614
0.0772728
0.0789368
0.0805619
0.0821565
0.0837293
0.085289
0.0868442
0.0884031
0.0899735
0.0915622
0.0931753
0.0948173
0.0964909
0.0981972
0.0999371
0.101712
0.103518
0.10535
0.107199
0.109053
0.110897
0.112716
0.11449
0.116203
0.117834
0.119366
0.120781
0.122063
0.0174042
0.0336653
0.041685
0.0471047
0.051328
0.054859
0.0579401
0.060706
0.0632391
0.065592
0.0678
0.0698873
0.0718714
0.0737659
0.0755815
0.0773278
0.0790134
0.0806468
0.0822364
0.0837908
0.0853185
0.0868285
0.0883296
0.0898307
0.0913402
0.0928663
0.0944161
0.0959955
0.0976091
0.0992594
0.10095
0.102683
0.104457
0.106269
0.108108
0.109965
0.111824
0.113669
0.11548
0.117237
0.118921
0.12051
0.121986
0.123332
0.017793
0.0342489
0.0424293
0.0479629
0.0522766
0.055881
0.0590198
0.061829
0.0643919
0.0667628
0.0689785
0.071065
0.0730411
0.074921
0.0767164
0.0784371
0.0800918
0.0816889
0.0832365
0.0847431
0.0862171
0.0876674
0.089103
0.0905332
0.0919674
0.0934145
0.0948832
0.0963811
0.0979146
0.099488
0.101108
0.102778
0.1045
0.106271
0.108082
0.109923
0.111779
0.113633
0.115466
0.117255
0.118979
0.120616
0.122145
0.123549
0.0179852
0.0344964
0.0427726
0.0483793
0.0527534
0.0564087
0.0595892
0.0624306
0.0650164
0.0674013
0.0696226
0.0717071
0.0736741
0.0755387
0.0773126
0.0790057
0.0806269
0.0821841
0.0836853
0.0851385
0.086552
0.0879343
0.0892948
0.090643
0.0919889
0.0933425
0.094714
0.0961128
0.0975473
0.0990244
0.100554
0.102142
0.103791
0.1055
0.107262
0.109068
0.110903
0.11275
0.114588
0.116394
0.118145
0.119817
0.121389
0.122844
0.0179907
0.0344429
0.0427658
0.048417
0.0528315
0.0565233
0.0597356
0.0626033
0.0652093
0.0676077
0.0698359
0.0719205
0.0738812
0.0757328
0.0774872
0.0791543
0.0807424
0.0822594
0.0837127
0.08511
0.086459
0.0877683
0.089047
0.0903048
0.0915524
0.0928008
0.0940615
0.0953459
0.0966647
0.0980279
0.0994481
0.100934
0.10249
0.104116
0.105809
0.107557
0.109349
0.111165
0.112988
0.114796
0.116556
0.118244
0.119841
0.121325
0.0178143
0.0341175
0.0424535
0.0481342
0.0525809
0.0563046
0.0595469
0.0624416
0.0650704
0.0674869
0.0697276
0.0718187
0.0737794
0.0756244
0.0773653
0.0790114
0.080571
0.0820513
0.0834594
0.0848023
0.0860874
0.0873229
0.0885176
0.0896814
0.0908254
0.0919614
0.0931021
0.0942607
0.0954502
0.0966853
0.0979799
0.0993441
0.100786
0.102308
0.103907
0.105572
0.10729
0.109046
0.11082
0.112589
0.114328
0.116012
0.117619
0.119128
0.0174494
0.0335416
0.041876
0.0475867
0.0520702
0.0558323
0.0591121
0.0620423
0.0647037
0.067149
0.0694127
0.0715206
0.0734918
0.0753404
0.0770775
0.0787122
0.0802521
0.081704
0.0830744
0.0843698
0.0855971
0.086764
0.087879
0.0889519
0.0899939
0.0910173
0.092036
0.0930646
0.0941181
0.0952157
0.0963709
0.0975951
0.0988968
0.100281
0.101746
0.103286
0.104892
0.106549
0.10824
0.109942
0.111634
0.11329
0.114889
0.116409
0.0169679
0.032714
0.0410659
0.0468281
0.0513684
0.0551869
0.0585208
0.0615017
0.0642095
0.0666961
0.0689966
0.0711359
0.0731321
0.074999
0.0767471
0.0783849
0.0799195
0.0813572
0.0827039
0.0839655
0.0851483
0.0862594
0.0873067
0.0882997
0.0892492
0.0901678
0.0910697
0.0919707
0.0928879
0.0938409
0.0948431
0.0959067
0.0970416
0.0982546
0.0995487
0.100923
0.102372
0.103886
0.105451
0.107049
0.108661
0.110263
0.111831
0.113344
0.0163255
0.0316038
0.0399963
0.0458501
0.0504847
0.0543928
0.0578107
0.0608693
0.0636488
0.0662008
0.0685606
0.070753
0.0727957
0.0747021
0.0764824
0.0781446
0.0796953
0.0811403
0.0824847
0.0837338
0.0848933
0.0859692
0.0869687
0.0879005
0.0887746
0.089603
0.0903998
0.0911812
0.0919659
0.0927693
0.0936043
0.0944836
0.0954191
0.096421
0.0974977
0.0986549
0.0998948
0.101215
0.102609
0.104063
0.10556
0.107078
0.108594
0.110081
0.015575
0.0303687
0.0388029
0.0447739
0.0495323
0.0535592
0.0570885
0.0602512
0.0631275
0.0657698
0.0682137
0.0704841
0.0725991
0.0745718
0.0764123
0.0781281
0.0797255
0.0812094
0.0825845
0.0838551
0.0850257
0.0861012
0.0870876
0.0879918
0.0888225
0.0895899
0.090307
0.0909889
0.091648
0.0922958
0.0929452
0.0936097
0.0943046
0.0950463
0.0958519
0.0967375
0.0977163
0.0987961
0.0999777
0.101254
0.102608
0.10402
0.105463
0.106909
0.0147421
0.0290839
0.037554
0.0436587
0.0485633
0.0527327
0.0563973
0.0596876
0.0626844
0.0654408
0.0679931
0.0703668
0.0725803
0.074647
0.0765767
0.0783768
0.0800528
0.0816091
0.0830493
0.0843766
0.085594
0.0867051
0.0877138
0.0886251
0.0894452
0.0901823
0.0908474
0.0914447
0.0919818
0.0924689
0.0929189
0.0933489
0.0937808
0.0942405
0.0947574
0.0953601
0.0960736
0.0969149
0.0978907
0.098996
0.100215
0.101523
0.102892
0.104288
0.0138609
0.0277963
0.036282
0.0425209
0.0475838
0.051914
0.055736
0.0591785
0.0623219
0.0652196
0.0679087
0.0704151
0.0727575
0.0749493
0.0770001
0.0789166
0.0807035
0.0823643
0.083901
0.0853153
0.0866083
0.0877812
0.0888356
0.0897738
0.0905992
0.0913176
0.0919266
0.0924241
0.092817
0.0931163
0.093339
0.0935102
0.0936631
0.0938375
0.0940761
0.0944198
0.0949022
0.095545
0.0963553
0.0973261
0.0984376
0.0996612
0.100963
0.102307
0.0129711
0.0265533
0.0350334
0.0414002
0.0466303
0.0511405
0.0551452
0.0587688
0.0620901
0.065162
0.0680216
0.0706949
0.0732002
0.0755506
0.0777547
0.0798182
0.0817444
0.0835347
0.0851893
0.0867074
0.0880876
0.0893282
0.0904278
0.0913857
0.0922027
0.0928702
0.0933762
0.0937241
0.0939229
0.09399
0.0939531
0.0938508
0.0937317
0.0936496
0.0936588
0.0938064
0.0941274
0.0946406
0.0953477
0.0962347
0.0972759
0.0984375
0.0996823
0.100973
0.0121187
0.0254116
0.0338865
0.040389
0.0458071
0.0505263
0.0547479
0.0585899
0.062128
0.065414
0.0684835
0.0713617
0.0740655
0.0766063
0.0789906
0.081222
0.0833013
0.0852274
0.0869977
0.0886085
0.0900555
0.0913339
0.0924397
0.09337
0.0941085
0.0946382
0.0949608
0.0950852
0.0950303
0.0948273
0.09452
0.0941635
0.0938201
0.0935528
0.0934187
0.0934621
0.0937104
0.0941724
0.0948398
0.0956903
0.0966919
0.0978076
0.098999
0.100229
0.011358
0.024454
0.0329785
0.039667
0.0453239
0.0503035
0.0547943
0.0589077
0.0627154
0.0662651
0.0695893
0.0727094
0.0756392
0.0783863
0.0809545
0.0833442
0.0855536
0.087579
0.0894155
0.091057
0.0924973
0.0937296
0.0947505
0.0955337
0.0960662
0.0963514
0.096401
0.0962377
0.0958971
0.0954277
0.0948894
0.0943491
0.0938743
0.0935265
0.0933547
0.0933911
0.093649
0.0941243
0.0947982
0.0956414
0.0966187
0.0976923
0.0988256
0.0999848
0.0107498
0.0238408
0.032565
0.0395681
0.0455766
0.0509199
0.0557763
0.0602475
0.0643958
0.068261
0.071869
0.075236
0.0783718
0.0812817
0.0839678
0.0864299
0.0886662
0.0906731
0.0924462
0.0939806
0.0952723
0.0963114
0.097071
0.0975511
0.09776
0.0977147
0.0974432
0.0969852
0.0963926
0.0957267
0.0950548
0.0944439
0.093955
0.0936368
0.0935224
0.0936269
0.093949
0.0944731
0.095173
0.0960164
0.0969678
0.0979921
0.0990565
0.100132
0.0103485
0.0239299
0.0332047
0.0408377
0.0474682
0.0533924
0.0587709
0.0636905
0.0682032
0.0723452
0.0761438
0.0796193
0.0827876
0.0856607
0.0882478
0.0905557
0.0925898
0.0943511
0.0958419
0.0970621
0.0979937
0.0986308
0.0989835
0.0990666
0.0989027
0.0985236
0.0979712
0.0972967
0.0965589
0.0958206
0.0951435
0.0945833
0.0941848
0.0939789
0.0939806
0.0941901
0.0945948
0.0951723
0.0958938
0.0967273
0.0976404
0.0986021
0.0995846
0.100563
0.0102522
0.0256777
0.0365326
0.0455981
0.0533436
0.0600413
0.0658914
0.0710282
0.0755516
0.0795438
0.0830719
0.0861886
0.0889349
0.0913427
0.093436
0.0952334
0.0967534
0.0979972
0.0989614
0.0996451
0.100062
0.100225
0.100152
0.0998657
0.0993984
0.0987887
0.0980829
0.0973323
0.096591
0.0959117
0.095342
0.0949204
0.0946739
0.0946163
0.0947492
0.0950627
0.0955387
0.0961524
0.0968763
0.0976812
0.0985392
0.0994242
0.100313
0.101187
0.0112176
0.033348
0.0473944
0.0584865
0.0669178
0.0733859
0.0784919
0.0826373
0.0860745
0.0889698
0.0914341
0.093542
0.0953438
0.0968735
0.0981539
0.0991987
0.10001
0.1006
0.100976
0.101146
0.10112
0.100913
0.100544
0.100039
0.0994295
0.0987521
0.0980484
0.0973614
0.0967335
0.0962032
0.0958021
0.0955533
0.0954694
0.0955532
0.0957981
0.09619
0.0967091
0.0973322
0.0980344
0.098791
0.0995784
0.100375
0.101163
0.101927
0.0195433
0.0499228
0.0650717
0.0746074
0.0809659
0.0854752
0.0888932
0.0915943
0.0937762
0.0955608
0.0970318
0.0982474
0.0992482
0.100061
0.100702
0.101182
0.101504
0.101673
0.101695
0.101575
0.101324
0.100956
0.10049
0.0999479
0.0993584
0.0987526
0.0981637
0.0976244
0.0971654
0.0968126
0.0965856
0.0964965
0.0965495
0.0967414
0.0970623
0.0974973
0.0980277
0.0986329
0.0992918
0.0999836
0.100689
0.10139
0.102074
0.102726
0.0471046
0.0535114
0.0617689
0.0701747
0.0775889
0.0835838
0.0882085
0.091709
0.0943538
0.0963643
0.0979039
0.0990874
0.0999938
0.100677
0.101173
0.101506
0.101693
0.101747
0.10168
0.101503
0.101228
0.100872
0.100454
0.0999949
0.0995191
0.0990522
0.0986204
0.0982481
0.0979571
0.0977646
0.0976825
0.0977166
0.0978666
0.0981266
0.0984862
0.0989313
0.0994454
0.100011
0.10061
0.101225
0.10184
0.102442
0.103018
0.10356
0.075911
0.0763336
0.0777188
0.0799726
0.0828529
0.0859909
0.089042
0.0917887
0.0941394
0.0960839
0.0976539
0.0988964
0.0998597
0.100587
0.101114
0.10147
0.101677
0.101756
0.101724
0.101596
0.101389
0.101121
0.100809
0.100474
0.100136
0.0998176
0.0995376
0.0993145
0.0991638
0.0990969
0.0991206
0.0992371
0.099444
0.0997346
0.100099
0.100525
0.100998
0.101503
0.102025
0.10255
0.103066
0.103561
0.104025
0.104451
0.0953695
0.0943377
0.0936892
0.0934901
0.0937567
0.0944243
0.0953712
0.0964639
0.0975873
0.098657
0.0996195
0.100447
0.10113
0.101669
0.102073
0.102352
0.102518
0.102585
0.102565
0.102472
0.102321
0.102126
0.101904
0.101671
0.101444
0.101238
0.101069
0.10095
0.100891
0.100899
0.100979
0.101129
0.101348
0.101627
0.101959
0.102333
0.102736
0.103156
0.103581
0.103999
0.1044
0.104776
0.105117
0.10542
0.110267
0.108704
0.107327
0.106176
0.105287
0.104668
0.104297
0.104133
0.104122
0.104212
0.104354
0.104513
0.104659
0.104775
0.104848
0.104874
0.10485
0.104779
0.104665
0.104515
0.104337
0.10414
0.103935
0.103733
0.103546
0.103384
0.103258
0.103176
0.103144
0.103166
0.103244
0.103376
0.103558
0.103784
0.104046
0.104334
0.10464
0.104952
0.10526
0.105555
0.105828
0.106073
0.106283
0.106454
0.122838
0.120965
0.11921
0.11759
0.11613
0.114843
0.113736
0.1128
0.112019
0.111369
0.110826
0.110364
0.109963
0.109603
0.10927
0.108953
0.108644
0.10834
0.108038
0.107738
0.107443
0.107158
0.106886
0.106634
0.106408
0.106214
0.106057
0.105942
0.105872
0.105848
0.105868
0.105932
0.106033
0.106166
0.106324
0.106499
0.106683
0.106866
0.10704
0.107197
0.107331
0.107435
0.107505
0.107538
0.133946
0.131849
0.129844
0.127939
0.126146
0.124476
0.122936
0.12153
0.120254
0.119101
0.118061
0.117122
0.116269
0.115492
0.114779
0.11412
0.113508
0.112937
0.112401
0.111899
0.11143
0.110994
0.110591
0.110224
0.109894
0.109604
0.109355
0.109149
0.108985
0.108863
0.10878
0.108733
0.108716
0.108724
0.108751
0.108788
0.108829
0.108866
0.108892
0.1089
0.108885
0.108841
0.108765
0.108655
0.143975
0.141704
0.139514
0.13741
0.135396
0.133478
0.131663
0.129955
0.128355
0.126863
0.125475
0.124186
0.12299
0.12188
0.120849
0.119891
0.118999
0.118169
0.117396
0.116677
0.116009
0.115391
0.114821
0.114298
0.113822
0.113392
0.113008
0.112668
0.112371
0.112114
0.111893
0.111703
0.111541
0.1114
0.111273
0.111155
0.111038
0.110917
0.110784
0.110634
0.110463
0.110266
0.11004
0.109783
0.153113
0.150704
0.148371
0.146116
0.143942
0.14185
0.139846
0.137931
0.136109
0.134381
0.132746
0.131203
0.129749
0.128381
0.127096
0.125889
0.124758
0.123697
0.122703
0.121774
0.120906
0.120097
0.119346
0.118649
0.118004
0.117411
0.116866
0.116367
0.115911
0.115494
0.115113
0.114761
0.114435
0.114128
0.113835
0.113549
0.113265
0.112977
0.112679
0.112367
0.112036
0.111683
0.111304
0.110899
0.161451
0.158934
0.15649
0.15412
0.151823
0.149602
0.147459
0.145395
0.143413
0.141514
0.139699
0.137967
0.136319
0.134752
0.133265
0.131856
0.130522
0.129262
0.128072
0.12695
0.125894
0.1249
0.123968
0.123093
0.122274
0.121507
0.12079
0.12012
0.119493
0.118904
0.11835
0.117826
0.117326
0.116845
0.116378
0.115919
0.115464
0.115005
0.11454
0.114063
0.113571
0.11306
0.112529
0.111976
0.169034
0.166435
0.163905
0.161446
0.159056
0.156736
0.154488
0.152313
0.150211
0.148184
0.146232
0.144357
0.142558
0.140835
0.139187
0.137612
0.136111
0.13468
0.133319
0.132025
0.130796
0.129631
0.128526
0.127479
0.126487
0.125549
0.124659
0.123815
0.123014
0.122251
0.121521
0.120821
0.120144
0.119488
0.118846
0.118213
0.117585
0.116956
0.116324
0.115684
0.115032
0.114366
0.113684
0.112984
0.175878
0.173219
0.170627
0.168102
0.165641
0.163247
0.160919
0.158657
0.156463
0.154337
0.152281
0.150293
0.148375
0.146527
0.144748
0.143038
0.141395
0.13982
0.13831
0.136864
0.135481
0.134158
0.132893
0.131685
0.13053
0.129426
0.128369
0.127356
0.126384
0.12545
0.124547
0.123674
0.122824
0.121995
0.12118
0.120377
0.11958
0.118785
0.117989
0.117189
0.116381
0.115564
0.114735
0.113893
0.181499
0.178811
0.176183
0.173618
0.171113
0.16867
0.166289
0.163969
0.161712
0.159518
0.157388
0.15532
0.153317
0.151378
0.149502
0.14769
0.145941
0.144254
0.142628
0.141061
0.139553
0.138101
0.136704
0.13536
0.134065
0.132819
0.131617
0.130457
0.129335
0.128248
0.127192
0.126164
0.12516
0.124175
0.123205
0.122248
0.121298
0.120353
0.11941
0.118465
0.117515
0.11656
0.115597
0.114625
0.186498
0.18379
0.181138
0.178544
0.176007
0.173527
0.171104
0.168738
0.16643
0.16418
0.161988
0.159855
0.157779
0.155763
0.153804
0.151904
0.150061
0.148275
0.146546
0.144871
0.143249
0.14168
0.140162
0.138692
0.137269
0.13589
0.134553
0.133255
0.131992
0.130763
0.129563
0.12839
0.12724
0.126109
0.124994
0.123892
0.1228
0.121714
0.120632
0.11955
0.118468
0.117384
0.116295
0.115201
0.191451
0.188728
0.186059
0.183441
0.180876
0.178363
0.175903
0.173495
0.171139
0.168835
0.166584
0.164386
0.16224
0.160147
0.158106
0.156118
0.154181
0.152295
0.150459
0.148674
0.146936
0.145246
0.143602
0.142001
0.140444
0.138926
0.137447
0.136004
0.134594
0.133215
0.131864
0.130539
0.129235
0.127952
0.126685
0.125431
0.124189
0.122956
0.121729
0.120505
0.119285
0.118065
0.116845
0.115625
0.196095
0.193368
0.190689
0.188057
0.185472
0.182933
0.180442
0.177997
0.175598
0.173246
0.170941
0.168682
0.16647
0.164304
0.162184
0.16011
0.158081
0.156097
0.154158
0.152262
0.150408
0.148597
0.146826
0.145094
0.143401
0.141743
0.14012
0.138529
0.13697
0.135438
0.133933
0.132452
0.130993
0.129554
0.128131
0.126724
0.125329
0.123945
0.12257
0.121202
0.11984
0.118483
0.11713
0.200107
0.197386
0.194706
0.192067
0.18947
0.186913
0.184397
0.181922
0.179488
0.177093
0.174739
0.172426
0.170152
0.167918
0.165723
0.163568
0.161452
0.159375
0.157335
0.155333
0.153368
0.151439
0.149546
0.147686
0.14586
0.144065
0.142301
0.140567
0.13886
0.137179
0.135523
0.13389
0.132278
0.130685
0.12911
0.127551
0.126006
0.124474
0.122954
0.121444
0.119943
0.118451
0.116966
0.203114
0.200401
0.197723
0.195081
0.192474
0.189903
0.187366
0.184864
0.182396
0.179963
0.177564
0.1752
0.172869
0.170571
0.168308
0.166077
0.163879
0.161714
0.159581
0.15748
0.15541
0.153371
0.151362
0.149383
0.147433
0.14551
0.143614
0.141745
0.1399
0.13808
0.136282
0.134506
0.132751
0.131015
0.129297
0.127596
0.125911
0.124242
0.122586
0.120943
0.119313
0.117695
0.116088
0.204661
0.201942
0.199254
0.196597
0.193971
0.191375
0.188809
0.186274
0.183768
0.181292
0.178845
0.176427
0.174038
0.171678
0.169347
0.167044
0.164768
0.162521
0.160302
0.158109
0.155944
0.153805
0.151692
0.149606
0.147544
0.145508
0.143495
0.141507
0.139541
0.137598
0.135677
0.133777
0.131897
0.130037
0.128196
0.126373
0.124567
0.122779
0.121006
0.11925
0.11751
0.115784
0.114074
0.204005
0.201239
0.198503
0.195796
0.193117
0.190468
0.187846
0.185253
0.182688
0.18015
0.17764
0.175157
0.1727
0.170271
0.167868
0.165491
0.163141
0.160816
0.158517
0.156243
0.153995
0.151771
0.149572
0.147397
0.145247
0.14312
0.141016
0.138936
0.136878
0.134842
0.132829
0.130836
0.128865
0.126914
0.124984
0.123073
0.121182
0.11931
0.117457
0.115622
0.113806
0.112008
0.110229
0.200249
0.197386
0.194555
0.191757
0.188991
0.186256
0.183553
0.180881
0.178239
0.175629
0.173048
0.170497
0.167976
0.165484
0.163021
0.160586
0.158179
0.155801
0.15345
0.151126
0.148828
0.146558
0.144313
0.142094
0.139901
0.137733
0.135589
0.13347
0.131375
0.129303
0.127255
0.12523
0.123227
0.121247
0.119289
0.117352
0.115437
0.113543
0.111669
0.109817
0.107985
0.106175
0.104385
0.194724
0.191771
0.188856
0.18598
0.183141
0.18034
0.177575
0.174846
0.172153
0.169496
0.166873
0.164284
0.161729
0.159208
0.156719
0.154262
0.151837
0.149443
0.147079
0.144746
0.142442
0.140167
0.137921
0.135702
0.133512
0.131348
0.129211
0.1271
0.125014
0.122954
0.120919
0.118908
0.116922
0.114959
0.113019
0.111103
0.109209
0.107338
0.105489
0.103662
0.101858
0.100075
0.098315
0.187169
0.184153
0.181183
0.178258
0.175378
0.172542
0.16975
0.166999
0.164291
0.161623
0.158996
0.156407
0.153857
0.151345
0.14887
0.146431
0.144027
0.141657
0.139322
0.137019
0.134749
0.13251
0.130302
0.128124
0.125976
0.123857
0.121766
0.119702
0.117666
0.115656
0.113673
0.111714
0.109781
0.107873
0.105989
0.104128
0.102292
0.100478
0.0986875
0.0969198
0.0951749
0.0934527
0.0917534
0.177699
0.174667
0.171689
0.168764
0.16589
0.163068
0.160296
0.157571
0.154894
0.152264
0.149678
0.147136
0.144636
0.142178
0.139761
0.137383
0.135043
0.13274
0.130474
0.128243
0.126046
0.123882
0.121751
0.119652
0.117583
0.115544
0.113535
0.111553
0.1096
0.107674
0.105774
0.1039
0.102052
0.100228
0.0984291
0.0966539
0.0949022
0.0931738
0.0914684
0.0897858
0.0881258
0.0864885
0.0848739
0.166464
0.163476
0.16055
0.157683
0.154874
0.152122
0.149425
0.146781
0.144189
0.141646
0.139152
0.136705
0.134303
0.131945
0.12963
0.127356
0.125122
0.122927
0.120769
0.118648
0.116561
0.114508
0.112489
0.110501
0.108544
0.106617
0.10472
0.10285
0.101009
0.0991936
0.0974046
0.0956412
0.0939026
0.0921882
0.0904977
0.0888304
0.0871861
0.0855643
0.0839648
0.0823874
0.080832
0.0792984
0.0777868
0.153606
0.150731
0.147923
0.145179
0.142497
0.139875
0.13731
0.134802
0.132347
0.129944
0.127591
0.125286
0.123028
0.120814
0.118643
0.116514
0.114424
0.112374
0.11036
0.108382
0.106438
0.104528
0.10265
0.100803
0.0989858
0.0971977
0.0954376
0.0937048
0.0919983
0.0903173
0.0886612
0.0870293
0.085421
0.0838356
0.0822727
0.0807319
0.0792126
0.0777147
0.0762378
0.0747817
0.0733463
0.0719316
0.0705375
0.139184
0.136494
0.133872
0.131317
0.128824
0.126392
0.124018
0.121699
0.119434
0.11722
0.115056
0.112938
0.110865
0.108836
0.106848
0.1049
0.102991
0.101118
0.0992799
0.0974761
0.0957048
0.0939648
0.0922549
0.0905739
0.0889209
0.0872949
0.0856948
0.0841199
0.0825693
0.0810423
0.0795382
0.0780562
0.076596
0.0751568
0.0737382
0.0723399
0.0709613
0.0696024
0.0682627
0.0669421
0.0656406
0.0643581
0.0630947
0.123036
0.120606
0.118242
0.115942
0.113702
0.11152
0.109393
0.107319
0.105295
0.103319
0.101389
0.0995027
0.097658
0.0958532
0.0940865
0.0923562
0.0906608
0.0889986
0.0873684
0.0857687
0.0841983
0.082656
0.0811407
0.0796512
0.0781867
0.0767462
0.0753289
0.0739338
0.0725604
0.0712079
0.0698756
0.0685631
0.0672697
0.0659951
0.0647388
0.0635004
0.0622797
0.0610763
0.0598902
0.0587212
0.0575692
0.0564343
0.0553165
0.104446
0.10236
0.100334
0.0983649
0.0964505
0.094588
0.0927746
0.0910079
0.0892854
0.0876049
0.0859643
0.0843616
0.0827949
0.0812626
0.079763
0.0782945
0.0768558
0.0754455
0.0740623
0.072705
0.0713726
0.0700639
0.068778
0.0675141
0.0662711
0.0650485
0.0638453
0.062661
0.0614949
0.0603465
0.0592152
0.0581006
0.0570022
0.0559196
0.0548526
0.0538009
0.0527641
0.0517423
0.0507351
0.0497425
0.0487645
0.0478012
0.0468526
0.0809682
0.0793597
0.0778009
0.0762892
0.0748217
0.0733955
0.0720078
0.0706564
0.0693392
0.0680543
0.0667999
0.0655745
0.0643766
0.0632049
0.0620582
0.0609351
0.0598347
0.058756
0.0576979
0.0566595
0.05564
0.0546386
0.0536545
0.0526871
0.0517357
0.0507996
0.0498784
0.0489715
0.0480785
0.0471988
0.0463321
0.0454781
0.0446363
0.0438065
0.0429884
0.0421818
0.0413865
0.0406023
0.0398291
0.0390667
0.0383152
0.0375746
0.0368448
0.0446219
0.0438367
0.0430713
0.0423262
0.0416008
0.0408945
0.0402064
0.0395354
0.0388804
0.0382404
0.0376144
0.0370015
0.0364007
0.0358112
0.0352324
0.0346635
0.0341038
0.0335529
0.03301
0.0324747
0.0319465
0.031425
0.0309098
0.0304004
0.0298965
0.0293979
0.0289041
0.028415
0.0279303
0.0274498
0.0269734
0.0265009
0.0260321
0.0255671
0.0251057
0.0246479
0.0241937
0.0237432
0.0232963
0.0228532
0.0224141
0.021979
0.0215481
)
;

boundaryField
{
    inlet
    {
        type            fixedValue;
        value           uniform 0.375;
    }
    outlet
    {
        type            zeroGradient;
    }
    upperWall
    {
        type            kqRWallFunction;
        value           nonuniform List<scalar> 
61
(
0.259302
0.173109
0.131348
0.107406
0.0921059
0.081688
0.0742354
0.0686491
0.064281
0.0607427
0.0577951
0.0552857
0.0531133
0.0512079
0.0495194
0.0480104
0.046653
0.0454298
0.0446219
0.0438367
0.0430713
0.0423262
0.0416008
0.0408945
0.0402064
0.0395354
0.0388804
0.0382404
0.0376144
0.0370015
0.0364007
0.0358112
0.0352324
0.0346635
0.0341038
0.0335529
0.03301
0.0324747
0.0319465
0.031425
0.0309098
0.0304004
0.0298965
0.0293979
0.0289041
0.028415
0.0279303
0.0274498
0.0269734
0.0265009
0.0260321
0.0255671
0.0251057
0.0246479
0.0241937
0.0237432
0.0232963
0.0228532
0.0224141
0.021979
0.0215481
)
;
    }
    lowerWall
    {
        type            kqRWallFunction;
        value           nonuniform List<scalar> 
89
(
0.24644
0.158842
0.119021