/*--------------------------------*- C++ -*----------------------------------*\
  =========                 |
  \\      /  F ield         | OpenFOAM: The Open Source CFD Toolbox
   \\    /   O peration     | Website:  https://openfoam.org
    \\  /    A nd           | Version:  6
     \\/     M anipulation  |
\*---------------------------------------------------------------------------*/
FoamFile
{
    version     2.0;
    format      ascii;
    class       volScalarField;
    location    "0.08";
    object      nut;
}
// * * * * * * * * * * * * * * * * * * * * * * * * * * * * * * * * * * * * * //

dimensions      [0 2 -1 0 0 0 0];

internalField   nonuniform List<scalar> 
3032
(
1.77723e-05
1.42682e-05
1.23508e-05
1.11629e-05
1.0361e-05
9.79068e-06
9.36502e-06
9.03165e-06
8.75964e-06
8.53082e-06
8.33409e-06
8.16238e-06
8.0109e-06
7.87633e-06
7.75627e-06
7.64926e-06
7.55805e-06
7.49106e-06
0.000144881
0.000101914
8.7898e-05
8.05417e-05
7.60922e-05
7.31201e-05
7.0828e-05
6.88348e-05
6.70143e-05
6.53398e-05
6.38041e-05
6.24002e-05
6.1121e-05
5.99604e-05
5.8915e-05
5.79663e-05
5.71452e-05
5.65186e-05
0.00032332
0.000223574
0.000189804
0.000172575
0.000162063
0.000154989
0.000149754
0.000145519
0.000141882
0.000138662
0.000135769
0.000133151
0.000130779
0.000128632
0.000126704
0.000124983
0.0001235
0.000122402
0.000493965
0.000355241
0.000299449
0.000269663
0.000251148
0.000238576
0.000229396
0.000222235
0.000216352
0.000211342
0.000206976
0.000203114
0.000199668
0.000196586
0.000193838
0.000191406
0.000189309
0.000187679
0.000624471
0.000478689
0.000407383
0.000366253
0.000339703
0.000321277
0.000307728
0.000297245
0.000288787
0.000281739
0.00027572
0.000270492
0.000265897
0.000261833
0.00025824
0.000255075
0.000252338
0.000250133
0.000713113
0.000583375
0.000506559
0.000457975
0.000424992
0.000401372
0.000383686
0.000369912
0.000358821
0.000349643
0.000341882
0.000335208
0.000329398
0.000324302
0.000319823
0.000315887
0.000312474
0.000309658
0.000769325
0.000665605
0.000592351
0.000541235
0.00050444
0.000477061
0.000456037
0.000439415
0.00042593
0.000414746
0.0004053
0.000397202
0.000390181
0.000384047
0.000378673
0.000373949
0.000369843
0.0003664
0.000803473
0.000726333
0.000662598
0.000613507
0.000575851
0.000546589
0.00052343
0.000504737
0.000489364
0.000476506
0.000465594
0.000456219
0.000448085
0.000440979
0.000434748
0.000429266
0.000424485
0.000420427
0.00082364
0.000768954
0.000717277
0.000673515
0.000637669
0.00060848
0.000584578
0.000564802
0.000548243
0.000534215
0.000522202
0.000511815
0.000502765
0.000494835
0.000487853
0.000481693
0.000476299
0.000471672
0.000835329
0.000797618
0.000757894
0.000721201
0.000689132
0.00066172
0.000638437
0.00061863
0.000601691
0.000587107
0.000574464
0.000563429
0.000553744
0.000545207
0.000537644
0.000530943
0.000525045
0.000519935
0.00084202
0.000816219
0.000786796
0.000757504
0.000730291
0.000705882
0.00068435
0.000665479
0.000648958
0.000634468
0.000621718
0.000610458
0.000600481
0.000591604
0.000583686
0.000576628
0.000570377
0.000564908
0.000845511
0.000826957
0.000804908
0.000781773
0.00075922
0.000738149
0.000718925
0.000701608
0.000686103
0.000672251
0.000659876
0.000648811
0.000638897
0.000629993
0.000621989
0.000614809
0.000608407
0.000602765
0.000847622
0.000833959
0.000817522
0.000799626
0.000781459
0.000763838
0.000747232
0.000731854
0.000717762
0.000704925
0.000693268
0.000682698
0.000673107
0.000664404
0.000656513
0.000649378
0.000642968
0.000637266
0.000848984
0.00083879
0.000826806
0.00081354
0.000799651
0.000785714
0.000772146
0.000759208
0.000747043
0.000735711
0.000725218
0.000715531
0.000706609
0.000698408
0.000690887
0.000684016
0.00067778
0.000672162
0.000849785
0.000841802
0.000832958
0.000823312
0.000813104
0.000802627
0.00079215
0.000781885
0.00077198
0.000762528
0.000753576
0.000745149
0.00073725
0.000729873
0.00072301
0.000716659
0.000710819
0.000705471
0.000850211
0.000843476
0.000836571
0.000829378
0.0008219
0.000814215
0.000806433
0.000798663
0.000791002
0.000783526
0.000776293
0.000769342
0.000762699
0.000756383
0.00075041
0.000744794
0.000739548
0.00073465
0.00085041
0.000844287
0.0008384
0.000832602
0.000826808
0.000820979
0.000815116
0.000809241
0.000803388
0.000797592
0.000791888
0.000786307
0.000780877
0.000775621
0.000770566
0.000765734
0.000761141
0.000756761
0.000850482
0.000844585
0.000839094
0.000833872
0.000828816
0.000823851
0.000818932
0.000814037
0.000809161
0.00080431
0.000799496
0.000794736
0.00079005
0.000785459
0.000780987
0.000776658
0.000772487
0.00076844
0.000850461
0.000844497
0.00083889
0.000833502
0.000828233
0.00082302
0.000817828
0.000812647
0.000807479
0.000802337
0.000797239
0.000792203
0.00078725
0.000782402
0.000777682
0.000773112
0.000768708
0.000764438
0.000850263
0.000843692
0.000837065
0.000830256
0.00082324
0.000816056
0.000808773
0.000801472
0.000794227
0.000787099
0.000780137
0.000773378
0.000766848
0.000760567
0.000754552
0.000748819
0.000743376
0.000738191
0.000849707
0.000841527
0.000832431
0.000822517
0.000812043
0.000801305
0.000790566
0.000780027
0.000769827
0.000760053
0.000750752
0.000741944
0.000733628
0.000725799
0.000718443
0.000711554
0.00070512
0.000699099
0.000848162
0.000835937
0.000821389
0.000805465
0.000789088
0.000772949
0.000757483
0.000742924
0.000729368
0.000716826
0.000705257
0.000694601
0.000684784
0.000675735
0.000667392
0.000659703
0.00065263
0.000646114
0.000844084
0.000822731
0.000797894
0.000772418
0.000748025
0.000725533
0.000705202
0.000686998
0.000670754
0.000656253
0.000643278
0.000631627
0.000621122
0.000611614
0.000602979
0.000595124
0.00058798
0.000581477
0.000833785
0.000794222
0.000753312
0.000715917
0.000683391
0.000655629
0.00063204
0.000611939
0.000594697
0.000579785
0.000566778
0.000555333
0.000545182
0.000536112
0.000527959
0.000520601
0.000513956
0.000507956
0.000809069
0.000738657
0.000678449
0.000630756
0.000593344
0.000563753
0.000540011
0.000520635
0.000504547
0.000490969
0.000479336
0.000469234
0.000460356
0.000452473
0.000445415
0.000439059
0.000433329
0.000428171
0.000753676
0.000642644
0.00056815
0.000517454
0.000481366
0.000454673
0.000434256
0.000418142
0.000405059
0.000394171
0.000384914
0.000376901
0.000369857
0.000363589
0.000357955
0.00035286
0.000348244
0.000344084
0.000641459
0.000499109
0.000426708
0.000383849
0.000355655
0.000335875
0.000321273
0.000309978
0.000300873
0.000293279
0.000286771
0.000281074
0.000276002
0.000271431
0.000267273
0.000263469
0.000259988
0.000256831
0.000448548
0.000320158
0.00027023
0.000243379
0.000226585
0.000215252
0.000207061
0.000200708
0.000195474
0.000190973
0.000186988
0.000183394
0.000180112
0.00017709
0.000174295
0.0001717
0.000169296
0.000167097
0.000203094
0.000143539
0.000122948
0.000111665
0.000104748
0.000100277
9.70643e-05
9.44471e-05
9.21301e-05
9.00046e-05
8.80315e-05
8.61936e-05
8.44807e-05
8.28846e-05
8.13971e-05
8.00104e-05
7.87188e-05
7.75237e-05
2.40294e-05
1.96337e-05
1.71023e-05
1.54654e-05
1.43218e-05
1.34878e-05
1.28581e-05
1.23652e-05
1.19657e-05
1.16322e-05
1.13469e-05
1.10984e-05
1.08787e-05
1.06824e-05
1.05055e-05
1.03448e-05
1.01982e-05
1.00644e-05
2.70984e-06
7.78925e-06
9.17446e-06
1.03637e-05
1.13054e-05
1.20334e-05
1.26632e-05
1.32295e-05
1.37516e-05
1.42422e-05
1.47098e-05
1.516e-05
1.55957e-05
1.60185e-05
1.64291e-05
1.68279e-05
1.72147e-05
1.75896e-05
1.79524e-05
1.83031e-05
1.86418e-05
1.89686e-05
1.92837e-05
1.95875e-05
1.98803e-05
2.01627e-05
2.04355e-05
2.06994e-05
2.09553e-05
2.12031e-05
2.14767e-05
2.17352e-05
2.19787e-05
2.22082e-05
2.24238e-05
2.26253e-05
2.28122e-05
2.2984e-05
2.31401e-05
2.32799e-05
2.34028e-05
2.35083e-05
2.35957e-05
2.36648e-05
4.43201e-06
3.29666e-05
5.06726e-05
6.00406e-05
6.59273e-05
7.03855e-05
7.41908e-05
7.76641e-05
8.09691e-05
8.42107e-05
8.74651e-05
9.07885e-05
9.42206e-05
9.77866e-05
0.0001015
0.000105365
0.000109378
0.000113531
0.00011781
0.0001222
0.000126683
0.000131238
0.000135843
0.000140471
0.000145093
0.000149673
0.000154168
0.000158528
0.000162693
0.000166602
0.000170102
0.000173487
0.000176818
0.000180101
0.00018333
0.000186494
0.000189577
0.000192566
0.000195445
0.0001982
0.000200815
0.000203275
0.000205567
0.000207678
5.57341e-06
4.61761e-05
7.88537e-05
9.94865e-05
0.000113233
0.00012344
0.000131914
0.000139575
0.000146889
0.000154099
0.000161341
0.000168687
0.000176173
0.000183814
0.000191605
0.000199529
0.000207563
0.00021568
0.000223849
0.00023204
0.000240223
0.000248371
0.000256453
0.000264444
0.000272313
0.000280031
0.000287568
0.000294891
0.000301969
0.000308777
0.000315312
0.000321703
0.000327994
0.00033419
0.000340281
0.000346248
0.000352066
0.00035771
0.000363151
0.000368362
0.000373315
0.000377981
0.000382335
0.000386353
6.2627e-06
5.48515e-05
9.90506e-05
0.000129805
0.000151629
0.000168169
0.000181747
0.000193741
0.000204933
0.000215753
0.00022643
0.000237078
0.000247746
0.000258447
0.00026917
0.000279891
0.000290583
0.000301215
0.000311757
0.000322185
0.000332473
0.000342604
0.000352561
0.00036233
0.0003719
0.00038126
0.000390402
0.000399317
0.000407995
0.00041643
0.000424645
0.000432713
0.000440665
0.000448506
0.000456224
0.0004638
0.000471206
0.000478414
0.000485389
0.000492097
0.000498503
0.000504571
0.000510267
0.000515561
6.72748e-06
6.06241e-05
0.000113676
0.000153023
0.000182276
0.000204966
0.00022358
0.000239742
0.000254467
0.000268362
0.000281774
0.000294891
0.000307806
0.000320554
0.000333141
0.000345554
0.000357775
0.000369782
0.000381557
0.000393085
0.000404356
0.000415366
0.000426113
0.0004366
0.000446834
0.000456821
0.00046657
0.000476087
0.000485377
0.000494442
0.000503313
0.000512052
0.00052069
0.000529234
0.00053768
0.00054601
0.0005542
0.000562221
0.000570037
0.000577612
0.000584905
0.000591876
0.000598486
0.000604697
7.06295e-06
6.444e-05
0.000124153
0.000170515
0.000206185
0.00023441
0.00025765
0.000277626
0.000295486
0.000311973
0.000327546
0.000342477
0.000356922
0.000370959
0.000384625
0.00039793
0.000410876
0.000423457
0.000435669
0.000447514
0.000458996
0.000470123
0.000480912
0.00049138
0.000501549
0.000511441
0.000521078
0.00053048
0.000539666
0.000548647
0.000557463
0.00056618
0.000574836
0.000583449
0.000592022
0.000600546
0.000609001
0.00061736
0.000625591
0.000633653
0.000641505
0.000649101
0.000656397
0.000663347
7.30741e-06
6.68731e-05
0.000131428
0.000183306
0.000224277
0.00025723
0.000284506
0.000307823
0.000328393
0.000347046
0.000364328
0.00038059
0.000396052
0.000410843
0.000425037
0.000438679
0.000451791
0.000464391
0.000476491
0.000488107
0.00049926
0.000509974
0.000520276
0.0005302
0.00053978
0.000549055
0.000558059
0.000566828
0.000575393
0.000583778
0.000592037
0.000600246
0.000608458
0.000616703
0.000624995
0.000633336
0.000641714
0.000650106
0.000658483
0.000666805
0.000675026
0.000683097
0.000690965
0.000698578
7.48242e-06
6.82805e-05
0.000136165
0.000192199
0.00023737
0.000274197
0.000304848
0.000330988
0.000353838
0.000374273
0.000392899
0.000410131
0.000426243
0.000441415
0.000455762
0.000469359
0.000482258
0.000494496
0.000506106
0.000517118
0.000527568
0.000537491
0.000546931
0.000555934
0.000564547
0.000572823
0.000580811
0.000588563
0.000596123
0.000603533
0.000610866
0.000618214
0.000625644
0.000633205
0.000640925
0.000648819
0.000656885
0.000665109
0.000673461
0.000681904
0.000690389
0.00069886
0.000707257
0.000715516
7.60117e-06
6.88943e-05
0.000138846
0.000197823
0.00024617
0.000286038
0.000319407
0.00034785
0.000372564
0.000394434
0.000414103
0.000432028
0.000448529
0.000463826
0.000478073
0.000491374
0.000503808
0.000515433
0.000526299
0.000536453
0.000545942
0.000554816
0.000563128
0.000570938
0.000578307
0.000585301
0.000591985
0.000598426
0.000604688
0.000610832
0.000616954
0.000623166
0.000629556
0.000636193
0.000643123
0.000650378
0.000657967
0.000665884
0.000674105
0.000682591
0.000691289
0.000700135
0.000709059
0.000717984
7.6719e-06
6.88737e-05
0.000139832
0.000200685
0.000251273
0.00029341
0.000328874
0.000359128
0.000385316
0.000408314
0.000428775
0.000447181
0.000463883
0.000479135
0.000493119
0.000505968
0.000517781
0.000528637
0.000538602
0.000547735
0.000556096
0.000563745
0.000570748
0.000577175
0.000583099
0.000588599
0.000593759
0.000598662
0.000603392
0.000608033
0.000612715
0.000617572
0.000622717
0.000628241
0.000634216
0.000640689
0.000647685
0.000655206
0.000663234
0.000671727
0.000680627
0.000689859
0.000699339
0.000708979
7.69987e-06
6.83328e-05
0.000139398
0.000201193
0.000253184
0.000296887
0.000333874
0.000365485
0.000392796
0.00041665
0.000437694
0.000456419
0.000473193
0.000488292
0.000501919
0.000514229
0.000525339
0.000535344
0.000544322
0.000552345
0.000559483
0.000565804
0.000571383
0.000576299
0.000580639
0.000584494
0.000587963
0.000591151
0.000594164
0.000597112
0.000600168
0.000603494
0.000607231
0.000611498
0.000616393
0.000621985
0.000628314
0.000635394
0.000643207
0.000651711
0.000660833
0.000670484
0.00068057
0.000690997
7.68827e-06
6.73578e-05
0.000137764
0.000199681
0.00025233
0.00029696
0.00033495
0.000367507
0.000395625
0.000420097
0.00044155
0.000460469
0.000477227
0.000492109
0.000505335
0.000517072
0.000527452
0.000536581
0.000544547
0.000551432
0.00055731
0.000562259
0.000566359
0.000569698
0.000572371
0.000574483
0.000576149
0.000577494
0.00057865
0.00057976
0.000581053
0.000582719
0.000584933
0.000587848
0.00059159
0.000596252
0.000601889
0.000608522
0.000616137
0.000624697
0.000634093
0.000644207
0.000654922
0.000666105
7.63848e-06
6.60138e-05
0.0001351
0.000196417
0.000249053
0.000294033
0.00033255
0.000365675
0.00039431
0.000419188
0.000440898
0.000459907
0.000476583
0.000491215
0.000504025
0.000515191
0.000524852
0.000533121
0.000540095
0.00054586
0.000550495
0.000554082
0.000556705
0.000558458
0.000559443
0.000559777
0.000559587
0.000559018
0.000558224
0.000557429
0.00055689
0.000556838
0.000557487
0.000559025
0.000561613
0.000565367
0.000570348
0.000576578
0.000584033
0.00059265
0.000602323
0.000612926
0.000624312
0.000636326
7.54788e-06
6.43297e-05
0.000131501
0.000191573
0.000243591
0.00028839
0.000326989
0.000360324
0.000389199
0.000414278
0.000436092
0.000455086
0.000471615
0.000485961
0.000498348
0.000508955
0.000517925
0.000525375
0.000531406
0.000536105
0.000539556
0.00054184
0.000543044
0.000543266
0.000542611
0.000541204
0.000539188
0.000536723
0.000533988
0.000531311
0.000528981
0.00052727
0.000526428
0.000526677
0.000528197
0.000531115
0.000535509
0.000541399
0.000548756
0.000557504
0.000567528
0.00057868
0.000590795
0.000603692
7.43842e-06
6.18922e-05
0.0001267
0.000185056
0.000235962
0.000280109
0.000318367
0.000351547
0.000380354
0.000405379
0.000427115
0.000445967
0.000462265
0.000476279
0.000488227
0.000498285
0.000506595
0.000513277
0.000518433
0.00052215
0.000524513
0.000525604
0.000525511
0.000524331
0.000522174
0.00051917
0.000515471
0.000511254
0.000506735
0.00050235
0.000498418
0.000495247
0.00049312
0.00049228
0.000492925
0.000495197
0.000499175
0.000504881
0.000512278
0.000521278
0.00053175
0.000543529
0.000556426
0.000570239
7.28936e-06
5.86486e-05
0.000120374
0.000176443
0.000225714
0.000268725
0.000306203
0.00033884
0.000367243
0.000391933
0.000413349
0.000431858
0.000447769
0.000461333
0.000472759
0.000482219
0.000489855
0.000495784
0.000500108
0.000502916
0.00050429
0.000504313
0.000503072
0.000500662
0.000497194
0.000492801
0.000487641
0.000481894
0.000475948
0.000470249
0.000465141
0.00046095
0.000457974
0.00045647
0.000456639
0.000458625
0.000462508
0.000468305
0.000475971
0.000485407
0.000496469
0.000508974
0.000522714
0.000537466
7.11471e-06
5.52007e-05
0.000113367
0.000166656
0.000213778
0.000255118
0.000291278
0.000322844
0.000350342
0.000374232
0.000394909
0.000412711
0.000427925
0.00044079
0.000451507
0.000460244
0.000467139
0.00047231
0.000475854
0.00047786
0.000478406
0.000477572
0.000475439
0.000472099
0.000467661
0.000462254
0.000456046
0.000449259
0.000442519
0.000436179
0.000430583
0.000426056
0.000422891
0.000421337
0.000421591
0.00042379
0.000428011
0.000434266
0.000442503
0.000452615
0.000464441
0.000477785
0.00049242
0.000508104
6.91898e-06
5.18683e-05
0.000106246
0.00015641
0.000200965
0.000240153
0.000274463
0.000304401
0.000330436
0.00035299
0.000372437
0.000389101
0.000403258
0.000415145
0.000424959
0.000432864
0.000438997
0.00044347
0.000446378
0.000447804
0.00044782
0.000446498
0.000443913
0.000440148
0.000435301
0.000429495
0.000422873
0.000416047
0.000409438
0.000403383
0.000398207
0.000394208
0.000391657
0.000390782
0.000391766
0.000394738
0.000399769
0.000406863
0.000415962
0.000426948
0.000439648
0.000453852
0.000469322
0.000485804
6.70887e-06
4.88135e-05
9.93156e-05
0.00014604
0.000187565
0.00022402
0.000255822
0.000283436
0.00030732
0.000327897
0.000345545
0.000360593
0.000373324
0.000383972
0.000392732
0.000399762
0.000405189
0.000409117
0.000411628
0.000412792
0.000412668
0.000411315
0.000408791
0.000405163
0.000400513
0.000394941
0.000388928
0.000383003
0.000377462
0.000372599
0.000368696
0.000366015
0.000364797
0.000365249
0.000367539
0.000371787
0.000378051
0.000386327
0.000396543
0.000408566
0.000422211
0.000437257
0.00045346
0.000470568
6.49294e-06
4.61798e-05
9.28329e-05
0.000135764
0.000173643
0.000206583
0.000235016
0.000259456
0.000280412
0.00029835
0.00031368
0.000326745
0.000337827
0.000347154
0.000354904
0.000361214
0.000366188
0.000369903
0.000372419
0.00037378
0.000374022
0.00037318
0.000371288
0.000368389
0.000364536
0.000360125
0.00035571
0.000351535
0.000347846
0.000344891
0.000342909
0.000342134
0.000342783
0.000345045
0.000349076
0.000354976
0.000362788
0.000372485
0.000383975
0.000397106
0.000411683
0.00042748
0.000444259
0.000461777
6.28229e-06
4.40961e-05
8.69284e-05
0.000125481
0.000158765
0.000187109
0.000211142
0.000231535
0.000248906
0.000263779
0.000276579
0.000287638
0.00029721
0.000305481
0.000312584
0.000318611
0.000323622
0.000327651
0.000330718
0.000332833
0.000333998
0.00033422
0.0003335
0.000331843
0.000329641
0.000327368
0.000325207
0.000323353
0.000322012
0.000321396
0.000321722
0.000323204
0.000326043
0.000330411
0.000336441
0.000344208
0.000353721
0.000364925
0.000377701
0.000391883
0.00040727
0.000423643
0.000440779
0.000458461
6.0914e-06
4.26275e-05
8.13169e-05
0.000114331
0.000141629
0.00016416
0.000182937
0.000198829
0.000212514
0.000224501
0.000235156
0.000244733
0.000253399
0.000261259
0.000268373
0.000274762
0.000280428
0.000285356
0.000289521
0.000292894
0.000295444
0.000297159
0.000297985
0.000298379
0.00029864
0.000298893
0.000299287
0.000299989
0.000301185
0.000303074
0.000305859
0.000309742
0.000314902
0.000321485
0.000329586
0.000339241
0.000350421
0.000363038
0.000376954
0.000391995
0.000407967
0.00042467
0.000441908
0.000459495
5.93768e-06
4.15777e-05
7.46919e-05
0.000100279
0.00012026
0.000136439
0.000150096
0.000162082
0.000172944
0.000183028
0.000192539
0.000201588
0.000210225
0.000218456
0.00022626
0.000233594
0.000240406
0.00024664
0.000252236
0.000257139
0.000261279
0.000264718
0.00026785
0.000270769
0.000273569
0.000276363
0.000279291
0.000282514
0.000286213
0.000290578
0.0002958
0.000302053
0.000309486
0.0003182
0.000328247
0.000339615
0.000352242
0.000366016
0.000380791
0.000396401
0.00041267
0.000429426
0.000446508
0.000463763
5.83745e-06
3.97628e-05
6.43441e-05
8.12412e-05
9.43249e-05
0.000105511
0.000115756
0.000125551
0.000135141
0.000144638
0.000154076
0.00016344
0.000172688
0.00018176
0.000190583
0.000199078
0.000207157
0.000214754
0.000221783
0.000228188
0.000234165
0.000239849
0.000245266
0.000250481
0.000255585
0.000260694
0.000265947
0.000271504
0.000277534
0.000284211
0.000291696
0.000300126
0.000309602
0.000320179
0.000331861
0.000344602
0.000358317
0.000372885
0.000388168
0.000404017
0.000420285
0.000436832
0.000453529
0.000470258
5.83518e-06
3.42575e-05
4.92342e-05
5.9887e-05
6.92171e-05
7.81729e-05
8.71511e-05
9.63098e-05
0.000105696
0.000115301
0.000125078
0.000134962
0.000144874
0.000154728
0.000164439
0.000173916
0.000183032
0.000191769
0.000200164
0.000208277
0.000216082
0.000223607
0.000230897
0.000238023
0.000245081
0.000252186
0.00025947
0.00026708
0.000275163
0.000283858
0.000293286
0.000303538
0.000314669
0.00032669
0.000339572
0.000353251
0.000367631
0.000382601
0.000398039
0.00041382
0.000429825
0.000445946
0.000462084
0.000478149
6.12142e-06
2.62461e-05
3.62519e-05
4.4881e-05
5.30059e-05
6.11486e-05
6.96379e-05
7.85714e-05
8.79409e-05
9.76886e-05
0.000107733
0.00011798
0.000128336
0.000138711
0.000149021
0.000159198
0.000169225
0.000179046
0.000188623
0.000197952
0.000207043
0.000215924
0.000224645
0.000233278
0.00024191
0.000250646
0.000259601
0.000268893
0.000278637
0.000288932
0.000299856
0.000311459
0.000323757
0.000336734
0.000350343
0.000364513
0.000379157
0.000394174
0.000409464
0.000424927
0.00044047
0.00045601
0.000471473
0.00048679
8.17919e-06
1.98857e-05
2.81817e-05
3.59931e-05
4.40385e-05
5.25918e-05
6.17035e-05
7.13105e-05
8.13093e-05
9.15993e-05
0.000102095
0.000112726
0.000123429
0.000134146
0.000144826
0.000155423
0.000165911
0.000176262
0.00018646
0.000196503
0.000206406
0.000216198
0.000225925
0.000235647
0.00024544
0.000255387
0.000265577
0.000276098
0.000287026
0.000298425
0.000310338
0.000322783
0.000335752
0.000349215
0.000363119
0.000377397
0.000391971
0.000406758
0.000421675
0.000436643
0.000451591
0.000466455
0.000481179
0.000495711
1.11201e-05
1.70313e-05
2.52703e-05
3.52166e-05
4.5973e-05
5.68733e-05
6.76215e-05
7.81733e-05
8.85876e-05
9.89392e-05
0.000109284
0.000119655
0.00013006
0.000140496
0.000150946
0.000161392
0.000171818
0.000182209
0.000192559
0.000202868
0.000213149
0.000223426
0.000233735
0.000244122
0.000254641
0.000265354
0.00027632
0.000287597
0.000299231
0.000311257
0.00032369
0.000336528
0.000349752
0.000363322
0.000377187
0.000391286
0.000405552
0.000419915
0.000434309
0.000448671
0.000462944
0.00047708
0.000491035
0.000504769
5.91e-05
6.3079e-05
6.80052e-05
7.38116e-05
8.04419e-05
8.77416e-05
9.55298e-05
0.000103669
0.000112077
0.000120714
0.000129563
0.000138614
0.000147856
0.000157277
0.000166859
0.000176582
0.000186429
0.000196384
0.000206436
0.000216582
0.000226825
0.000237178
0.000247661
0.000258301
0.000269132
0.000280189
0.000291505
0.000303112
0.000315029
0.000327269
0.000339827
0.00035269
0.000365828
0.0003792
0.000392759
0.000406448
0.000420211
0.00043399
0.000447729
0.000461379
0.000474894
0.000488236
0.000501372
0.00051427
0.000123326
0.000125125
0.000127475
0.000130304
0.000133623
0.000137456
0.00014182
0.000146716
0.000152133
0.000158049
0.000164439
0.000171277
0.000178535
0.000186187
0.000194202
0.000202552
0.000211211
0.000220153
0.000229358
0.000238811
0.000248502
0.000258426
0.000268586
0.000278988
0.000289642
0.000300559
0.000311749
0.000323219
0.000334969
0.00034699
0.000359268
0.000371777
0.000384483
0.000397346
0.000410319
0.000423355
0.000436401
0.000449411
0.000462337
0.000475139
0.000487781
0.000500231
0.000512464
0.000524454
0.000187769
0.000188481
0.000189516
0.000190834
0.000192433
0.000194336
0.000196585
0.000199231
0.000202323
0.000205899
0.000209985
0.000214593
0.000219724
0.000225371
0.000231517
0.000238142
0.000245223
0.000252736
0.000260656
0.000268961
0.000277631
0.000286651
0.000296005
0.000305685
0.000315679
0.00032598
0.000336578
0.00034746
0.000358612
0.000370011
0.000381632
0.000393442
0.000405405
0.000417479
0.00042962
0.000441785
0.000453928
0.000466006
0.000477981
0.000489817
0.000501483
0.000512954
0.000524209
0.000535226
0.000249637
0.000249717
0.000249994
0.000250457
0.000251107
0.000251962
0.000253049
0.00025441
0.000256093
0.000258148
0.000260623
0.000263556
0.000266977
0.000270905
0.000275351
0.000280315
0.000285793
0.000291771
0.000298235
0.000305166
0.000312546
0.000320352
0.000328566
0.000337168
0.000346136
0.00035545
0.000365088
0.000375026
0.000385236
0.000395689
0.000406351
0.000417187
0.000428156
0.000439218
0.00045033
0.000461451
0.000472538
0.000483555
0.000494464
0.000505236
0.000515843
0.000526264
0.000536478
0.000546468
0.000308628
0.000308231
0.000307971
0.000307849
0.000307872
0.000308055
0.000308418
0.000308992
0.000309811
0.000310917
0.000312352
0.000314156
0.000316367
0.000319017
0.000322131
0.000325727
0.000329815
0.000334399
0.000339476
0.000345038
0.000351073
0.000357565
0.000364495
0.000371843
0.000379585
0.000387697
0.000396149
0.000404914
0.000413959
0.00042325
0.000432751
0.000442422
0.000452225
0.000462118
0.00047206
0.000482012
0.000491936
0.000501794
0.000511555
0.000521191
0.000530676
0.00053999
0.000549116
0.000558038
0.000364839
0.000364008
0.000363293
0.000362696
0.000362226
0.000361896
0.000361723
0.000361729
0.000361941
0.000362389
0.000363104
0.000364121
0.000365474
0.000367192
0.000369305
0.000371835
0.000374801
0.000378216
0.000382086
0.000386413
0.000391192
0.000396416
0.000402072
0.000408141
0.000414604
0.000421438
0.000428614
0.000436105
0.000443877
0.000451896
0.000460126
0.00046853
0.000477068
0.000485701
0.000494391
0.0005031
0.000511792
0.000520433
0.000528993
0.000537445
0.000545767
0.000553939
0.000561945
0.000569769
0.000418338
0.000417086
0.000415947
0.000414921
0.000414017
0.000413245
0.000412619
0.000412156
0.000411876
0.000411801
0.000411956
0.000412367
0.000413059
0.00041406
0.000415392
0.00041708
0.00041914
0.00042159
0.00042444
0.000427696
0.000431361
0.000435432
0.000439901
0.000444757
0.000449984
0.000455562
0.000461468
0.000467676
0.000474157
0.000480879
0.000487808
0.000494911
0.000502151
0.000509491
0.000516896
0.00052433
0.000531762
0.000539159
0.000546494
0.000553741
0.000560879
0.000567891
0.00057476
0.000581472
0.000469077
0.000467417
0.000465873
0.000464447
0.000463142
0.000461967
0.000460931
0.000460049
0.000459335
0.000458805
0.000458479
0.000458376
0.000458516
0.000458919
0.000459604
0.000460591
0.000461895
0.000463532
0.000465512
0.000467843
0.00047053
0.000473574
0.000476971
0.000480713
0.00048479
0.000489185
0.000493882
0.000498857
0.000504086
0.000509541
0.000515195
0.000521014
0.000526968
0.000533025
0.000539152
0.000545317
0.000551491
0.000557646
0.000563756
0.000569798
0.000575753
0.000581603
0.000587334
0.000592932
0.000516878
0.000514838
0.00051292
0.000511122
0.000509448
0.000507902
0.000506491
0.000505225
0.000504115
0.000503173
0.000502414
0.000501851
0.000501501
0.000501378
0.000501497
0.000501873
0.000502519
0.000503448
0.000504668
0.000506187
0.00050801
0.000510139
0.000512572
0.000515305
0.00051833
0.000521635
0.000525206
0.000529025
0.000533071
0.000537323
0.000541756
0.000546343
0.000551056
0.000555869
0.000560753
0.00056568
0.000570624
0.000575561
0.000580467
0.000585322
0.000590108
0.00059481
0.000599415
0.00060391
0.000561451
0.000559082
0.000556837
0.000554713
0.000552711
0.000550833
0.000549084
0.00054747
0.000546
0.000544682
0.000543527
0.000542547
0.000541751
0.000541152
0.000540761
0.000540589
0.000540647
0.000540942
0.000541483
0.000542277
0.000543326
0.000544634
0.000546198
0.000548017
0.000550083
0.000552389
0.000554924
0.000557672
0.000560618
0.000563743
0.000567027
0.000570448
0.000573984
0.00057761
0.000581304
0.000585041
0.0005888
0.000592558
0.000596297
0.000599998
0.000603645
0.000607226
0.000610728
0.000614141
0.000599115
0.000596549
0.000594091
0.000591743
0.000589509
0.000587389
0.000585389
0.000583513
0.000581768
0.00058016
0.000578698
0.00057739
0.000576244
0.000575269
0.000574473
0.000573865
0.000573453
0.000573242
0.000573239
0.000573448
0.000573872
0.000574513
0.000575368
0.000576435
0.00057771
0.000579185
0.000580851
0.000582696
0.000584708
0.00058687
0.000589166
0.000591578
0.000594087
0.000596674
0.000599319
0.000602002
0.000604704
0.000607408
0.000610097
0.000612756
0.000615371
0.000617931
0.000620426
0.000622849
0.000633452
0.000630723
0.000628093
0.000625562
0.000623132
0.000620806
0.000618586
0.000616478
0.000614485
0.000612614
0.000610868
0.000609256
0.000607783
0.000606456
0.000605281
0.000604264
0.00060341
0.000602725
0.000602213
0.000601875
0.000601716
0.000601734
0.000601929
0.000602298
0.000602838
0.000603541
0.000604401
0.000605408
0.000606551
0.000607817
0.000609194
0.000610667
0.000612219
0.000613835
0.000615499
0.000617195
0.000618907
0.000620621
0.000622322
0.000623998
0.000625638
0.000627233
0.000628774
0.000630256
0.00066824
0.000665376
0.000662594
0.000659896
0.000657283
0.000654757
0.00065232
0.000649975
0.000647726
0.000645577
0.000643531
0.000641593
0.000639768
0.00063806
0.000636474
0.000635014
0.000633683
0.000632486
0.000631425
0.000630501
0.000629717
0.000629071
0.000628564
0.000628192
0.000627953
0.000627841
0.00062785
0.000627974
0.000628203
0.000628529
0.00062894
0.000629425
0.000629972
0.000630568
0.000631202
0.000631859
0.000632529
0.000633199
0.000633859
0.000634499
0.00063511
0.000635686
0.000636219
0.000636705
0.000701552
0.000698621
0.000695749
0.000692936
0.000690186
0.000687498
0.000684874
0.000682318
0.000679831
0.000677417
0.000675078
0.000672817
0.000670638
0.000668544
0.000666537
0.000664622
0.0006628
0.000661073
0.000659444
0.000657914
0.000656484
0.000655152
0.00065392
0.000652784
0.000651742
0.000650791
0.000649926
0.000649143
0.000648434
0.000647793
0.000647212
0.000646683
0.000646197
0.000645745
0.000645319
0.000644908
0.000644503
0.000644097
0.000643682
0.00064325
0.000642796
0.000642314
0.0006418
0.000730859
0.00072795
0.000725068
0.000722213
0.000719388
0.000716594
0.000713834
0.000711108
0.000708419
0.00070577
0.000703163
0.000700599
0.000698082
0.000695613
0.000693195
0.000690831
0.000688521
0.000686268
0.000684073
0.000681936
0.00067986
0.000677843
0.000675885
0.000673985
0.000672142
0.000670354
0.000668617
0.000666929
0.000665285
0.000663681
0.000662112
0.000660572
0.000659057
0.00065756
0.000656075
0.000654596
0.000653118
0.000651635
0.000650142
0.000648635
0.00064711
0.000645566
0.000644
0.000753168
0.000750335
0.000747492
0.000744641
0.000741783
0.000738921
0.000736057
0.000733192
0.000730329
0.000727469
0.000724614
0.000721766
0.000718928
0.000716101
0.000713287
0.000710488
0.000707706
0.000704941
0.000702196
0.000699472
0.000696768
0.000694087
0.000691427
0.000688789
0.000686173
0.000683578
0.000681002
0.000678445
0.000675903
0.000673376
0.000670859
0.000668352
0.000665851
0.000663352
0.000660853