/*--------------------------------*- C++ -*----------------------------------*\
  =========                 |
  \\      /  F ield         | OpenFOAM: The Open Source CFD Toolbox
   \\    /   O peration     | Website:  https://openfoam.org
    \\  /    A nd           | Version:  6
     \\/     M anipulation  |
\*---------------------------------------------------------------------------*/
FoamFile
{
    version     2.0;
    format      ascii;
    class       volScalarField;
    location    "0.08";
    object      p;
}
// * * * * * * * * * * * * * * * * * * * * * * * * * * * * * * * * * * * * * //

dimensions      [0 2 -2 0 0 0 0];

internalField   nonuniform List<scalar> 
3032
(
0.333674
0.0812815
0.00331444
-0.00710755
-0.0115322
-0.0160289
-0.0184877
-0.0198167
-0.0210535
-0.0223477
-0.0236312
-0.0249273
-0.0262952
-0.0277832
-0.0294763
-0.0314969
-0.0346587
-0.039338
-0.048173
-0.0179407
-0.0170134
-0.0104832
-0.0110434
-0.0149401
-0.0176478
-0.0193032
-0.0207509
-0.0221592
-0.0235115
-0.0248568
-0.0262624
-0.0277791
-0.0295067
-0.031545
-0.0344603
-0.03802
-0.085183
-0.0142077
-0.0123957
-0.00999875
-0.0107719
-0.0142663
-0.0169293
-0.018709
-0.0202755
-0.0217719
-0.023198
-0.0246073
-0.0260658
-0.0276232
-0.0293704
-0.031356
-0.0339066
-0.0363083
-0.0398123
-0.000979403
-0.00891895
-0.0101423
-0.011091
-0.0140999
-0.016557
-0.0183255
-0.0199233
-0.0214569
-0.0229255
-0.0243761
-0.0258668
-0.0274404
-0.0291642
-0.0310454
-0.0332111
-0.0350378
-0.0193897
-0.00101883
-0.00938133
-0.0108535
-0.0116566
-0.0142107
-0.0164394
-0.0181483
-0.0197282
-0.021258
-0.0227352
-0.0241981
-0.0256937
-0.0272545
-0.0289212
-0.0306738
-0.0325254
-0.0340442
-0.0170202
-0.00529066
-0.0105437
-0.0115515
-0.0122611
-0.0144351
-0.01645
-0.0180857
-0.0196254
-0.0211282
-0.0225917
-0.0240454
-0.0255248
-0.0270518
-0.0286446
-0.0302696
-0.031886
-0.0332164
-0.0168644
-0.00817877
-0.011253
-0.0121258
-0.0128441
-0.0147071
-0.0165276
-0.0180842
-0.0195716
-0.021034
-0.0224689
-0.0238977
-0.0253454
-0.0268243
-0.0283372
-0.0298465
-0.0312949
-0.032518
-0.0158448
-0.00976383
-0.0117361
-0.0126286
-0.0133813
-0.0149927
-0.01664
-0.018115
-0.0195431
-0.0209562
-0.0223516
-0.0237433
-0.0251475
-0.0265692
-0.0280021
-0.0294112
-0.0307437
-0.0319134
-0.0148137
-0.0108694
-0.0121933
-0.0130783
-0.0138565
-0.0152682
-0.0167635
-0.0181566
-0.0195212
-0.020879
-0.0222265
-0.0235717
-0.0249237
-0.0262827
-0.0276384
-0.0289624
-0.0302153
-0.0313595
-0.0141808
-0.0117502
-0.0126362
-0.0134718
-0.0142622
-0.0155167
-0.0168787
-0.0181909
-0.0194896
-0.0207876
-0.0220807
-0.0233719
-0.0246655
-0.0259586
-0.0272408
-0.0284914
-0.0296857
-0.0308134
-0.0138707
-0.0124333
-0.0130425
-0.0138119
-0.0145999
-0.015729
-0.0169733
-0.0182053
-0.019436
-0.0206708
-0.0219041
-0.0231357
-0.0243662
-0.0255914
-0.0268027
-0.0279868
-0.029131
-0.030238
-0.013762
-0.0129083
-0.0133741
-0.0140806
-0.0148523
-0.0158857
-0.0170325
-0.0181908
-0.0193572
-0.0205308
-0.0217054
-0.0228781
-0.0240474
-0.0252091
-0.0263567
-0.0274819
-0.0285797
-0.0296563
-0.0137517
-0.0132852
-0.0136546
-0.0143025
-0.0150511
-0.0160017
-0.017061
-0.0181487
-0.0192507
-0.020362
-0.0214754
-0.0225865
-0.0236925
-0.0247895
-0.025873
-0.0269388
-0.0279864
-0.0290212
-0.0138149
-0.0136154
-0.0139222
-0.0145071
-0.0152183
-0.0160852
-0.0170526
-0.01806
-0.0190867
-0.020124
-0.0211636
-0.0222002
-0.0232298
-0.0242492
-0.0252555
-0.0262475
-0.0272265
-0.0281959
-0.0139259
-0.0138805
-0.0141526
-0.0146732
-0.0153309
-0.0161131
-0.0169844
-0.0179013
-0.0188405
-0.0197903
-0.0207418
-0.0216886
-0.0226262
-0.0235518
-0.0244634
-0.0253611
-0.026246
-0.0271193
-0.0140331
-0.0140598
-0.0143089
-0.0147669
-0.0153588
-0.0160544
-0.0168266
-0.0176436
-0.0184832
-0.0193316
-0.0201792
-0.021019
-0.0218462
-0.0226576
-0.0234518
-0.0242287
-0.0249877
-0.0257282
-0.0140641
-0.0141153
-0.0143405
-0.0147389
-0.0152588
-0.0158669
-0.0165386
-0.0172493
-0.0179787
-0.0187125
-0.0194403
-0.0201546
-0.0208504
-0.0215242
-0.0221739
-0.0227988
-0.0233964
-0.0239654
-0.0139307
-0.0139835
-0.0141792
-0.0145209
-0.0149701
-0.015494
-0.0160687
-0.0166729
-0.0172874
-0.0178978
-0.0184934
-0.0190666
-0.019612
-0.0201257
-0.0206055
-0.0210501
-0.0214559
-0.0218224
-0.0135315
-0.0135724
-0.0137302
-0.0140195
-0.0144077
-0.0148597
-0.0153503
-0.015858
-0.0163633
-0.0168512
-0.017311
-0.0177352
-0.0181186
-0.0184576
-0.0187501
-0.0189952
-0.0191896
-0.0193342
-0.0129301
-0.0129347
-0.0130454
-0.0133089
-0.0136787
-0.0141072
-0.014567
-0.0150324
-0.01548
-0.0158937
-0.0162639
-0.0165842
-0.0168505
-0.0170603
-0.0172128
-0.0173081
-0.0173446
-0.0173242
-0.0123926
-0.0122959
-0.0123363
-0.0126031
-0.0129858
-0.013423
-0.0138936
-0.0143617
-0.0147954
-0.0151789
-0.0155049
-0.0157684
-0.0159665
-0.0160983
-0.0161643
-0.0161659
-0.0161031
-0.0159786
-0.0120189
-0.0116198
-0.0115383
-0.0118577
-0.0122787
-0.0127503
-0.0132707
-0.0137787
-0.0142296
-0.0146121
-0.0149231
-0.0151591
-0.0153189
-0.0154035
-0.0154151
-0.0153565
-0.0152291
-0.0150364
-0.0120454
-0.0109308
-0.0106648
-0.0110917
-0.0115482
-0.0120783
-0.0126961
-0.0132794
-0.0137723
-0.0141772
-0.0144967
-0.0147281
-0.0148723
-0.0149329
-0.014914
-0.0148197
-0.0146531
-0.0144179
-0.0124819
-0.0100822
-0.00975415
-0.0103512
-0.0107754
-0.0113926
-0.0121708
-0.0128636
-0.0134184
-0.0138655
-0.0142122
-0.014456
-0.0146008
-0.0146537
-0.0146211
-0.0145086
-0.0143207
-0.014061
-0.0126853
-0.00806892
-0.00853675
-0.00960999
-0.00992942
-0.0106908
-0.0117078
-0.0125413
-0.0131736
-0.0136783
-0.0140658
-0.0143326
-0.0144876
-0.0145428
-0.0145069
-0.014387
-0.0141891
-0.013917
-0.0143927
-0.00361745
-0.006234
-0.00856763
-0.00892436
-0.0099851
-0.0113337
-0.0123347
-0.0130569
-0.0136291
-0.0140626
-0.0143552
-0.014523
-0.0145837
-0.0145487
-0.0144265
-0.0142248
-0.0139476
-0.0313965
-0.0015733
-0.00397776
-0.00716324
-0.0077393
-0.00935345
-0.0111218
-0.0123071
-0.0131243
-0.0137613
-0.0142324
-0.0145409
-0.0147136
-0.0147743
-0.0147369
-0.0146111
-0.014406
-0.0141259
-0.0755249
-0.0148657
-0.00802268
-0.00699346
-0.00693032
-0.00915176
-0.0113155
-0.0126364
-0.0135107
-0.0141767
-0.0146506
-0.0149457
-0.0151004
-0.0151442
-0.0150922
-0.014954
-0.0147398
-0.0144549
-0.0551522
-0.0247049
-0.0179333
-0.00925047
-0.00742361
-0.00995297
-0.0122386
-0.0134746
-0.0142609
-0.0148649
-0.0152844
-0.0155287
-0.0156408
-0.0156517
-0.0155747
-0.0154168
-0.0151867
-0.0149024
0.309168
0.08947
0.0124267
-0.000565336
-0.00570979
-0.010612
-0.0133165
-0.0143576
-0.0149005
-0.0153374
-0.0156513
-0.0158262
-0.0158923
-0.0158733
-0.0157766
-0.0156034
-0.0153516
-0.0150066
-0.0743166
-0.0746616
-0.0751327
-0.0757424
-0.0765422
-0.0775601
-0.0788068
-0.080286
-0.0819932
-0.0839162
-0.0860333
-0.0883137
-0.0907172
-0.0931951
-0.095691
-0.098143
-0.100485
-0.102647
-0.104563
-0.106164
-0.107385
-0.108168
-0.108457
-0.108204
-0.107367
-0.105916
-0.103832
-0.101112
-0.0977398
-0.093664
-0.0888176
-0.0831929
-0.0768344
-0.0697799
-0.0620662
-0.0537325
-0.044823
-0.0353872
-0.0254806
-0.0151637
-0.00450181
0.00643613
0.0175785
0.0288521
-0.0719608
-0.073034
-0.0736881
-0.0738712
-0.0741236
-0.0746864
-0.0755999
-0.0768613
-0.0784585
-0.08037
-0.0825633
-0.084996
-0.0876159
-0.0903623
-0.0931678
-0.0959603
-0.0986653
-0.101208
-0.103515
-0.105517
-0.107147
-0.108344
-0.109052
-0.109221
-0.108805
-0.107762
-0.106056
-0.103647
-0.1005
-0.0966213
-0.0920608
-0.0868424
-0.0809538
-0.0743987
-0.0671946
-0.0593692
-0.0509583
-0.0420054
-0.0325603
-0.0226789
-0.0124225
-0.00185602
0.00895224
0.0199321
-0.0680058
-0.0701356
-0.072091
-0.0730666
-0.0736702
-0.0744003
-0.0754236
-0.0767787
-0.0784659
-0.0804643
-0.0827373
-0.0852368
-0.0879064
-0.0906841
-0.0935041
-0.0962992
-0.0990017
-0.101545
-0.103866
-0.105901
-0.107595
-0.108892
-0.109742
-0.110098
-0.10992
-0.109169
-0.107811
-0.105811
-0.103139
-0.0997806
-0.0957423
-0.0910302
-0.0856463
-0.0795988
-0.0729041
-0.0655863
-0.0576768
-0.0492147
-0.0402455
-0.0308212
-0.020999
-0.0108408
-0.000411399
0.0102217
-0.0652457
-0.0682929
-0.0715712
-0.0736692
-0.0750477
-0.0762976
-0.0776754
-0.0792722
-0.0811203
-0.0832201
-0.0855495
-0.0880716
-0.0907396
-0.0935003
-0.0962966
-0.0990688
-0.101757
-0.1043
-0.106639
-0.108715
-0.110475
-0.111863
-0.112831
-0.11333
-0.113316
-0.112751
-0.111598
-0.109826
-0.10741
-0.104334
-0.100591
-0.0961747
-0.0910853
-0.0853286
-0.0789178
-0.0718739
-0.0642259
-0.0560104
-0.0472712
-0.0380588
-0.0284293
-0.0184437
-0.00816653
0.00233517
-0.0652271
-0.0687554
-0.0728115
-0.0757148
-0.0777612
-0.079526
-0.0812912
-0.0831739
-0.0852281
-0.0874715
-0.0898959
-0.0924751
-0.0951716
-0.0979405
-0.100732
-0.103494
-0.106171
-0.108709
-0.111054
-0.11315
-0.114946
-0.11639
-0.117432
-0.118026
-0.118126
-0.117692
-0.116686
-0.115074
-0.112829
-0.10993
-0.10636
-0.10211
-0.0971766
-0.0915627
-0.0852796
-0.0783466
-0.0707916
-0.0626506
-0.0539675
-0.0447933
-0.0351854
-0.0252058
-0.0149208
-0.00439888
-0.0679176
-0.0715791
-0.0759592
-0.0793352
-0.0818562
-0.0840306
-0.0861279
-0.0882693
-0.0905181
-0.0929028
-0.0954253
-0.0980687
-0.100804
-0.103593
-0.106393
-0.109157
-0.111838
-0.114383
-0.116743
-0.118865
-0.1207
-0.122196
-0.123305
-0.123977
-0.124168
-0.123833
-0.122933
-0.121429
-0.119291
-0.116493
-0.113014
-0.108841
-0.103967
-0.0983915
-0.0921258
-0.0851879
-0.0776056
-0.0694159
-0.0606642
-0.0514039
-0.0416949
-0.0316028
-0.0211966
-0.0105481
-0.0727413
-0.0763188
-0.0807125
-0.0842884
-0.0870876
-0.0895366
-0.091875
-0.094216
-0.096623
-0.0991288
-0.101742
-0.104451
-0.107234
-0.11006
-0.112889
-0.11568
-0.118389
-0.120967
-0.123366
-0.125537
-0.127428
-0.128991
-0.130173
-0.130927
-0.131203
-0.130955
-0.130139
-0.128715
-0.126646
-0.123902
-0.12046
-0.116301
-0.111415
-0.105802
-0.0994696
-0.0924365
-0.0847317
-0.0763941
-0.0674723
-0.0580235
-0.0481124
-0.037809
-0.0271875
-0.0163242
-0.0790738
-0.0824281
-0.0866226
-0.0901851
-0.0930889
-0.0956813
-0.0981658
-0.100641
-0.103165
-0.105769
-0.108464
-0.111243
-0.114086
-0.116967
-0.119851
-0.122699
-0.125468
-0.128112
-0.130584
-0.132835
-0.134814
-0.13647
-0.137751
-0.138604
-0.138978
-0.138824
-0.138093
-0.13674
-0.134725
-0.132013
-0.128575
-0.124389
-0.119444
-0.113735
-0.107271
-0.10007
-0.0921644
-0.083596
-0.074418
-0.0646935
-0.0544934
-0.0438943
-0.0329769
-0.0218234
-0.0863088
-0.0893476
-0.093197
-0.0965865
-0.0994557
-0.102081
-0.104627
-0.107177
-0.109779
-0.11246
-0.11523
-0.118084
-0.121003
-0.123963
-0.12693
-0.129867
-0.132733
-0.135483
-0.13807
-0.140442
-0.142549
-0.144337
-0.145751
-0.146737
-0.147238
-0.1472
-0.146571
-0.1453
-0.14334
-0.140653
-0.137204
-0.132969
-0.12793
-0.122083
-0.115435
-0.108008
-0.0998348
-0.090964
-0.081455
-0.0713784
-0.0608135
-0.0498455
-0.038563
-0.0270558
-0.0938608
-0.0965213
-0.0999247
-0.103025
-0.105753
-0.108323
-0.110865
-0.113441
-0.116091
-0.118835
-0.121679
-0.124617
-0.12763
-0.130695
-0.133778
-0.136844
-0.139849
-0.14275
-0.145497
-0.148039
-0.150323
-0.15229
-0.153884
-0.155045
-0.155712
-0.155827
-0.155329
-0.154162
-0.152274
-0.149619
-0.146158
-0.141861
-0.136707
-0.13069
-0.123817
-0.116112
-0.107614
-0.0983779
-0.0884711
-0.0779745
-0.0669782
-0.0555779
-0.043872
-0.0319594
-0.101174
-0.103412
-0.1063
-0.109028
-0.111538
-0.113988
-0.116475
-0.119044
-0.121722
-0.124523
-0.127447
-0.130484
-0.133616
-0.136817
-0.140054
-0.14329
-0.146481
-0.149582
-0.152541
-0.155306
-0.157819
-0.160019
-0.161845
-0.163232
-0.164114
-0.164423
-0.164096
-0.163066
-0.161275
-0.15867
-0.155205
-0.150844
-0.145561
-0.139349
-0.132217
-0.12419
-0.115315
-0.105656
-0.0952911
-0.0843143
-0.0728297
-0.060946
-0.048774
-0.0364228
-0.107725
-0.109512
-0.111838
-0.114138
-0.116375
-0.118661
-0.121061
-0.123603
-0.126302
-0.129163
-0.13218
-0.13534
-0.13862
-0.141993
-0.145425
-0.148876
-0.152302
-0.155654
-0.15888
-0.161922
-0.16472
-0.167209
-0.169322
-0.170989
-0.172135
-0.172689
-0.172575
-0.17172
-0.170057
-0.167525
-0.164069
-0.159645
-0.154224
-0.147797
-0.140372
-0.131983
-0.122684
-0.112551
-0.101678
-0.0901763
-0.0781649
-0.0657656
-0.0531023
-0.040294
-0.113022
-0.114342
-0.116082
-0.117921
-0.119854
-0.121952
-0.12425
-0.126759
-0.129483
-0.132417
-0.135549
-0.138859
-0.142323
-0.145909
-0.149579
-0.153293
-0.157003
-0.160659
-0.164203
-0.167577
-0.170715
-0.173547
-0.176
-0.177997
-0.179459
-0.180302
-0.180443
-0.179799
-0.178295
-0.175856
-0.17242
-0.167934
-0.162364
-0.1557
-0.147956
-0.139171
-0.129412
-0.118769
-0.107355
-0.0952973
-0.0827329
-0.0698012
-0.0566394
-0.0433773
-0.11657
-0.117479
-0.118632
-0.119996
-0.121612
-0.123513
-0.125707
-0.128191
-0.130956
-0.133987
-0.137264
-0.140761
-0.144448
-0.148289
-0.152244
-0.156268
-0.160311
-0.164319
-0.168231
-0.171985
-0.175509
-0.17873
-0.181568
-0.183939
-0.185754
-0.186923
-0.187352
-0.186948
-0.185623
-0.183293
-0.179884
-0.175335
-0.169607
-0.162689
-0.1546
-0.145389
-0.135138
-0.123957
-0.111979
-0.0993527
-0.0862357
-0.0727849
-0.0591507
-0.0454721
-0.117966
-0.118518
-0.119104
-0.12001
-0.12132
-0.123038
-0.125148
-0.12763
-0.130465
-0.133627
-0.137088
-0.140813
-0.144768
-0.14891
-0.153195
-0.157575
-0.161995
-0.166397
-0.170718
-0.174889
-0.178837
-0.182479
-0.185733
-0.188504
-0.190699
-0.192215
-0.192948
-0.192795
-0.191655
-0.189432
-0.186039
-0.181408
-0.175499
-0.168302
-0.159841
-0.150183
-0.139426
-0.127705
-0.115175
-0.102009
-0.0883826
-0.07447
-0.0604324
-0.0464152
-0.117009
-0.117143
-0.117178
-0.117663
-0.118703
-0.120271
-0.122329
-0.124848
-0.127796
-0.131136
-0.13483
-0.138836
-0.143111
-0.147606
-0.152273
-0.157057
-0.161899
-0.166738
-0.171505
-0.176126
-0.180524
-0.184611
-0.188297
-0.191482
-0.194062
-0.195927
-0.196964
-0.197057
-0.19609
-0.193949
-0.190539
-0.185788
-0.179654
-0.172132
-0.163263
-0.15313
-0.141857
-0.129603
-0.116551
-0.102895
-0.088832
-0.0745465
-0.0602078
-0.0459629
-0.113431
-0.113088
-0.112612
-0.112744
-0.113583
-0.115062
-0.117127
-0.119739
-0.122854
-0.126425
-0.130402
-0.134734
-0.13937
-0.144255
-0.149332
-0.154543
-0.159823
-0.165105
-0.170318
-0.175382
-0.180214
-0.184723
-0.18881
-0.19237
-0.19529
-0.197451
-0.198731
-0.199
-0.198127
-0.195988
-0.192484
-0.187542
-0.181125
-0.173242
-0.16395
-0.153357
-0.141614
-0.128907
-0.115443
-0.101435
-0.087092
-0.0726051
-0.0581435
-0.0438498
-0.108072
-0.10724
-0.106332
-0.106199
-0.106911
-0.108361
-0.110481
-0.113225
-0.116536
-0.120355
-0.124624
-0.129282
-0.134269
-0.139524
-0.144984
-0.150584
-0.156256
-0.161928
-0.167524
-0.17296
-0.178149
-0.182994
-0.187391
-0.19123
-0.19439
-0.196744
-0.198162
-0.198498
-0.197608
-0.195373
-0.191693
-0.186502
-0.179777
-0.171544
-0.161884
-0.150928
-0.138852
-0.125864
-0.112185
-0.0980394
-0.0836359
-0.0691636
-0.0547837
-0.0406289
-0.10193
-0.100592
-0.0993022
-0.0989596
-0.0995803
-0.101022
-0.103208
-0.106082
-0.109578
-0.113626
-0.118157
-0.123104
-0.128399
-0.133975
-0.139762
-0.145691
-0.151688
-0.157677
-0.163577
-0.169301
-0.174756
-0.17984
-0.184446
-0.188456
-0.191746
-0.194185
-0.195621
-0.195896
-0.194878
-0.19245
-0.188523
-0.183044
-0.176008
-0.167464
-0.157517
-0.146322
-0.134073
-0.120989
-0.107297
-0.0932183
-0.0789552
-0.0646854
-0.0505574
-0.0366912
-0.0958792
-0.0939973
-0.092304
-0.0917408
-0.0922438
-0.0936382
-0.0958427
-0.0987926
-0.102413
-0.106628
-0.111359
-0.116533
-0.122074
-0.127907
-0.133957
-0.140148
-0.146401
-0.152634
-0.158761
-0.164691
-0.170326
-0.175559
-0.180279
-0.184364
-0.187685
-0.19009
-0.191417
-0.191524
-0.190285
-0.187594
-0.183377
-0.177601
-0.170286
-0.161503
-0.151381
-0.140091
-0.127836
-0.114837
-0.101316
-0.0874807
-0.073521
-0.0595985
-0.0458471
-0.0323734
-0.0905574
-0.0881018
-0.0859356
-0.0850654
-0.0853394
-0.0865637
-0.0886627
-0.0915731
-0.095217
-0.0995102
-0.104367
-0.109702
-0.115431
-0.121467
-0.127727
-0.134126
-0.140578
-0.146995
-0.153286
-0.159353
-0.165094
-0.170399
-0.175153
-0.179229
-0.182474
-0.18473
-0.185852
-0.185711
-0.18419
-0.181201
-0.17669
-0.170648
-0.16312
-0.1542
-0.144032
-0.132795
-0.120691
-0.107934
-0.0947294
-0.0812711
-0.0677294
-0.0542498
-0.0409516
-0.0279306
-0.0863563
-0.0833301
-0.0805838
-0.0791962
-0.0789929
-0.0798163
-0.081621
-0.0843523
-0.0879241
-0.0922341
-0.0971761
-0.102645
-0.108537
-0.114753
-0.121196
-0.127771
-0.134385
-0.140943
-0.147347
-0.153496
-0.159283
-0.164597
-0.169312
-0.17328
-0.176347
-0.178372
-0.179226
-0.17879
-0.176965
-0.173683
-0.168913
-0.162674
-0.155028
-0.146087
-0.136001
-0.124949
-0.113124
-0.100724
-0.0879377
-0.0749389
-0.0618808
-0.0488934
-0.036084
-0.0235393
-0.0834657
-0.0798652
-0.0762889
-0.0739231
-0.0728484
-0.0730184
-0.0743958
-0.0769029
-0.0804101
-0.0847671
-0.0898281
-0.0954579
-0.101531
-0.107931
-0.114548
-0.12128
-0.128025
-0.134685
-0.141156
-0.147338
-0.153117
-0.158367
-0.162947
-0.166715
-0.169538
-0.171287
-0.171844
-0.171105
-0.168992
-0.165459
-0.1605
-0.154151
-0.146492
-0.13764
-0.127746
-0.11698
-0.10552
-0.0935475
-0.0812325
-0.0687312
-0.0561811
-0.0436993
-0.0313827
-0.0193118
-0.0818836
-0.0775895
-0.0724928
-0.0684767
-0.0662758
-0.065791
-0.066845
-0.0692673
-0.072841
-0.077346
-0.0825934
-0.0884214
-0.0946871
-0.101263
-0.108032
-0.114886
-0.121721
-0.128436
-0.134925
-0.141076
-0.146763
-0.151856
-0.156226
-0.159748
-0.162297
-0.163755
-0.164018
-0.163003
-0.160649
-0.156934
-0.151867
-0.145501
-0.137921
-0.129246
-0.119619
-0.109199
-0.0981496
-0.0866336
-0.0748053
-0.0628053
-0.0507579
-0.0387695
-0.0269292
-0.0153125
-0.0816086
-0.0761156
-0.0683056
-0.062366
-0.0592938
-0.0584486
-0.0594267
-0.0619507
-0.0657045
-0.0704096
-0.0758534
-0.0818624
-0.088286
-0.0949918
-0.101862
-0.108787
-0.115656
-0.122359
-0.128785
-0.134817
-0.140335
-0.145221
-0.149353
-0.152611
-0.154883
-0.156063
-0.156064
-0.15482
-0.152289
-0.148462
-0.143365
-0.137056
-0.129621
-0.121177
-0.111858
-0.101809
-0.0911798
-0.0801189
-0.0687656
-0.0572478
-0.045679
-0.0341569
-0.0227641
-0.0115726
-0.081147
-0.0733377
-0.0622799
-0.0555334
-0.0523664
-0.0514984
-0.0525909
-0.0553196
-0.0592779
-0.0641634
-0.069767
-0.0759138
-0.0824477
-0.0892323
-0.0961455
-0.103073
-0.109904
-0.116525
-0.122824
-0.128691
-0.134011
-0.138669
-0.142551
-0.145547
-0.147557
-0.148488
-0.148269
-0.146848
-0.144197
-0.140319
-0.135247
-0.129041
-0.121789
-0.113599
-0.104597
-0.0949164
-0.0846948
-0.0740671
-0.0631609
-0.0520932
-0.0409686
-0.0298777
-0.0188978
-0.00809808
-0.0817158
-0.063151
-0.0511513
-0.0468446
-0.0449124
-0.044438
-0.0458643
-0.04896
-0.053247
-0.058408
-0.0642369
-0.0705557
-0.0772057
-0.0840517
-0.0909736
-0.0978588
-0.104601
-0.111093
-0.117228
-0.122898
-0.127995
-0.132411
-0.136041
-0.138784
-0.140552
-0.141265
-0.140862
-0.139305
-0.136576
-0.132684
-0.127667
-0.121587
-0.114527
-0.106591
-0.0978953
-0.0885633
-0.0787218
-0.0684944
-0.0579988
-0.047343
-0.036624
-0.0259266
-0.0153234
-0.00488141
-0.0508628
-0.0378577
-0.0325584
-0.0331696
-0.0344233
-0.0361465
-0.0391186
-0.0432409
-0.0481721
-0.0537259
-0.0597848
-0.066221
-0.0729057
-0.0797222
-0.0865632
-0.0933243
-0.0999047
-0.106204
-0.11212
-0.11755
-0.122393
-0.126547
-0.129915
-0.132407
-0.133942
-0.134452
-0.133886
-0.132213
-0.129424
-0.125533
-0.120581
-0.114627
-0.107754
-0.100058
-0.0916477
-0.0826383
-0.0731463
-0.0632863
-0.053167
-0.0428886
-0.0325418
-0.022206
-0.01195
-0.00183864
-0.0424176
-0.0375565
-0.0331603
-0.0318476
-0.031984
-0.0333316
-0.0361538
-0.0402036
-0.0450934
-0.0505924
-0.0565606
-0.0628682
-0.0693909
-0.0760167
-0.0826419
-0.0891658
-0.0954897
-0.101516
-0.107147
-0.112283
-0.116829
-0.12069
-0.123776
-0.126005
-0.127304
-0.127615
-0.126894
-0.125117
-0.122283
-0.118407
-0.113532
-0.107716
-0.101036
-0.0935839
-0.0854598
-0.07677
-0.0676225
-0.0581229
-0.0483719
-0.0384627
-0.02848
-0.0184984
-0.00858306
0.00120357
-0.0384125
-0.0362738
-0.0327364
-0.0312438
-0.0315281
-0.0329836
-0.0356035
-0.0392851
-0.0437786
-0.0488846
-0.0544632
-0.0603859
-0.0665289
-0.0727783
-0.0790286
-0.0851782
-0.0911283
-0.0967819
-0.102043
-0.106816
-0.11101
-0.114536
-0.11731
-0.119256
-0.120312
-0.120424
-0.119557
-0.117692
-0.114831
-0.110993
-0.106217
-0.100561
-0.0940967
-0.0869078
-0.0790872
-0.0707326
-0.0619431
-0.052816
-0.043444
-0.0339137
-0.024304
-0.0146848
-0.00511817
0.00433634
-0.0362262
-0.0350761
-0.0328673
-0.0318618
-0.032244
-0.0336196
-0.0359638
-0.0392472
-0.043299
-0.047944
-0.0530465
-0.058485
-0.0641423
-0.0699083
-0.0756798
-0.081357
-0.0868433
-0.0920438
-0.0968653
-0.101217
-0.105012
-0.108165
-0.110601
-0.11225
-0.113055
-0.11297
-0.111964
-0.110024
-0.107151
-0.103366
-0.0987074
-0.0932275
-0.0869927
-0.0800801
-0.0725744
-0.0645646
-0.0561412
-0.0473934
-0.0384065
-0.0292608
-0.0200293
-0.0107779
-0.0015652
0.00755206
-0.0347852
-0.0342761
-0.0332064
-0.0327701
-0.0332697
-0.034581
-0.0367008
-0.0396197
-0.0432272
-0.0473861
-0.0519764
-0.0568868
-0.0620086
-0.0672378
-0.0724752
-0.0776252
-0.0825948
-0.0872931
-0.0916313
-0.0955237
-0.0988877
-0.101646
-0.103728
-0.105071
-0.105622
-0.105342
-0.104203
-0.102195
-0.099321
-0.0956009
-0.0910694
-0.0857749
-0.0797779
-0.0731481
-0.0659621
-0.0583008
-0.0502463
-0.0418801
-0.0332804
-0.0245211
-0.0156701
-0.00678902
0.00206679
0.0108436
-0.0338184
-0.0337783
-0.0334738
-0.0335144
-0.0341826
-0.0354945
-0.0374606
-0.0400773
-0.0432782
-0.046966
-0.0510433
-0.0554136
-0.0599803
-0.0646481
-0.0693245
-0.0739195
-0.0783452
-0.0825159
-0.0863484
-0.0897622
-0.0926811
-0.0950337
-0.0967553
-0.097789
-0.098088
-0.0976165
-0.0963513
-0.0942825
-0.0914145
-0.0877652
-0.0833663
-0.0782613
-0.0725044
-0.0661584
-0.059292
-0.051978
-0.0442909
-0.0363044
-0.0280902
-0.0197161
-0.0112449
-0.00273399
0.0057644
0.0141996
-0.0331415
-0.0334219
-0.0336043
-0.034008
-0.0348459
-0.0361792
-0.0380287
-0.0403949
-0.043239
-0.0464945
-0.0500854
-0.0539317
-0.0579505
-0.0620573
-0.0661687
-0.0702021
-0.0740763
-0.077712
-0.0810323
-0.083963
-0.0864342
-0.0883806
-0.0897435
-0.0904718
-0.0905233
-0.0898661
-0.0884798
-0.0863557
-0.0834977
-0.0799222
-0.0756569
-0.0707408
-0.065222
-0.0591561
-0.0526047
-0.0456329
-0.0383077
-0.0306956
-0.0228619
-0.0148685
-0.00677357
0.00136988
0.00951267
0.0176073
-0.0326151
-0.033111
-0.0336014
-0.0342583
-0.0352256
-0.0365682
-0.0383113
-0.0404589
-0.0429875
-0.0458512
-0.0489918
-0.0523445
-0.0558395
-0.0594041
-0.0629646
-0.0664471
-0.0697785
-0.0728867
-0.0757017
-0.0781563
-0.0801869
-0.0817347
-0.0827469
-0.0831776
-0.0829892
-0.0821532
-0.0806513
-0.0784758
-0.07563
-0.072128
-0.0679943
-0.0632629
-0.0579762
-0.0521834
-0.0459388
-0.0393005
-0.0323283
-0.0250821
-0.017621
-0.0100013
-0.00227635
0.00550469
0.013296
0.021053
-0.0321447
-0.0327815
-0.0334594
-0.034274
-0.035318
-0.0366447
-0.0382784
-0.0402239
-0.042466
-0.0449724
-0.0476985
-0.0505922
-0.0535954
-0.0566467
-0.0596821
-0.0626368
-0.0654459
-0.0680454
-0.0703725
-0.0723672
-0.0739726
-0.0751361
-0.0758108
-0.0759557
-0.0755374
-0.0745306
-0.0729189
-0.0706953
-0.0678623
-0.0644319
-0.0604253
-0.0558721
-0.050809
-0.0452792
-0.0393305
-0.0330143
-0.0263837
-0.0194924
-0.0123934
-0.00513792
0.00222543
0.00965136
0.0170972
0.0245217
-0.0316642
-0.0323842
-0.0331644
-0.0340602
-0.0351298
-0.0364119
-0.037926
-0.0396762
-0.0416518
-0.0438287
-0.0461727
-0.0486415
-0.0511876
-0.053759
-0.0563014
-0.0587586
-0.0610741
-0.0631916
-0.0650559
-0.066614
-0.0678157
-0.0686146
-0.0689693
-0.0688437
-0.0682082
-0.0670405
-0.065326
-0.0630579
-0.0602383
-0.056877
-0.0529923
-0.0486093
-0.04376
-0.0384819
-0.0328168
-0.0268097
-0.0205076
-0.0139582
-0.00720908
-0.000306354
0.0067058
0.0137859
0.0208944
0.0279931
-0.0311252
-0.0318823
-0.0327035
-0.0336217
-0.0346727
-0.0358823
-0.0372642
-0.0388207
-0.0405432
-0.0424131
-0.0444031
-0.0464792
-0.0486022
-0.0507288
-0.0528129
-0.0548066
-0.0566612
-0.058328
-0.0597591
-0.0609083
-0.061732
-0.0621896
-0.0622449
-0.0618664
-0.0610283
-0.0597108
-0.0579009
-0.0555925
-0.0527868
-0.049492
-0.0457234
-0.0415025
-0.0368566
-0.0318181
-0.0264232
-0.0207112
-0.0147234
-0.008502
-0.00208925
0.00447338
0.011146
0.0178908
0.0246714
0.0314524
-0.0305518
-0.0313073
-0.0321241
-0.0330233
-0.0340259
-0.0351481
-0.0363984
-0.0377772
-0.0392766
-0.0408808
-0.0425674
-0.0443081
-0.0460702
-0.0478169
-0.0495091
-0.0511057
-0.0525648
-0.053844
-0.0549019
-0.0556982
-0.0561947
-0.0563563
-0.0561512
-0.0555519
-0.0545358
-0.0530856
-0.0511896
-0.0488425
-0.046045
-0.042804
-0.0391325
-0.0350491
-0.0305774
-0.0257454
-0.020585
-0.0151304
-0.00941824
-0.00348584
0.00262902
0.00888907
0.0152582
0.021702
0.0281867
0.0346797
-0.0299045
-0.0306338
-0.0314177
-0.0322696
-0.0332002
-0.0342186
-0.0353294
-0.0365312
-0.0378161
-0.0391706
-0.0405757
-0.0420076
-0.0434386
-0.0448378
-0.0461717
-0.0474054
-0.0485027
-0.0494276
-0.050144
-0.0506172
-0.0508144
-0.0507049
-0.0502614
-0.0494599
-0.0482808
-0.0467091
-0.0447345
-0.0423522
-0.0395627
-0.0363718
-0.0327906
-0.028835
-0.0245253
-0.0198859
-0.0149443
-0.00973072
-0.00427716
0.00138325
0.00721692
0.0131905
0.0192713
0.0254281
0.0316298
0.0378463
-0.0290328
-0.0297087
-0.0304291
-0.0312009
-0.0320277
-0.0329128
-0.0338575
-0.0348587
-0.0359089
-0.0369961
-0.0381042
-0.0392135
-0.0403013
-0.0413419
-0.0423076
-0.0431695
-0.0438975
-0.0444614
-0.044831
-0.0449772
-0.0448724
-0.0444909
-0.0438093
-0.0428077
-0.0414691
-0.0397808
-0.037734
-0.0353244
-0.0325521
-0.0294218
-0.0259425
-0.0221274
-0.0179938
-0.0135619
-0.00885529
-0.00389967
0.00127741
0.00664721
0.0121804
0.0178476
0.0236201
0.0294691
0.0353672
0.0412869
-0.0278749
-0.0284678
-0.0290921
-0.0297505
-0.0304411
-0.0311635
-0.0319164
-0.0326956
-0.0334936
-0.0342998
-0.0351009
-0.0358807
-0.0366207
-0.0373003
-0.0378972
-0.038388
-0.0387484
-0.038954
-0.0389805
-0.0388041
-0.0384023
-0.0377542
-0.0368406
-0.035645
-0.0341537
-0.0323558
-0.0302441
-0.0278148
-0.0250676
-0.0220061
-0.0186376
-0.0149725
-0.0110248
-0.0068113
-0.00235123
0.00233394
0.00722109
0.0122859
0.0175033
0.0228481
0.0282949
0.0338189
0.0393952
-0.0263641
-0.026844
-0.0273415
-0.0278553
-0.0283806
-0.0289145
-0.0294541
-0.0299945
-0.0305286
-0.0310471
-0.0315389
-0.031991
-0.0323886
-0.0327155
-0.0329543
-0.0330866
-0.0330935
-0.0329559
-0.0326547
-0.0321712
-0.0314879
-0.0305881
-0.0294567
-0.0280807
-0.026449
-0.0245529
-0.0223864
-0.0199464
-0.0172323
-0.0142468
-0.0109954
-0.00748614
-0.00373004
0.000259617
0.00446736
0.00887583
0.0134662
0.0182183
0.0231113
0.0281239
0.0332347
0.038422
0.0436646
-0.0244439
-0.0247844
-0.0251288
-0.0254727
-0.02581
-0.0261364
-0.0264485
-0.0267411
-0.0270077
-0.0272404
-0.02743
-0.0275662
-0.0276375
-0.0276314
-0.0275346
-0.0273332
-0.0270129
-0.0265591
-0.0259576
-0.0251941
-0.0242553
-0.0231286
-0.0218025
-0.020267
-0.0185135
-0.0165353
-0.0143276
-0.0118879
-0.00921549
-0.00631224
-0.00318209
0.000168797
0.00373216
0.00749777
0.0114536
0.015586
0.01988
0.0243195
0.0288875
0.0335666
0.0383389
0.0431864
0.0480909
-0.0221154
-0.0222988
-0.0224729
-0.0226313
-0.0227679
-0.0228785
-0.0229593
-0.0230056
-0.0230116
-0.0229706
-0.0228754
-0.0227178
-0.0224891
-0.0221799
-0.0217802
-0.0212798
-0.0206682
-0.0199347
-0.0190689
-0.0180604
-0.0168995
-0.0155769
-0.0140842
-0.0124141
-0.0105602
-0.00851754
-0.0062825
-0.00385301
-0.00122859
0.00158959
0.0045987
0.00779425
0.0111701
0.0147187
0.0184309
0.0222962
0.0263032
0.0304392
0.0346908
0.0390441
0.0434846
0.0479975
0.0525678
-0.0194238
-0.0194431
-0.0194424
-0.0194139
-0.0193521
-0.0192536
-0.019115
-0.0189319
-0.0186995
-0.0184125
-0.0180651
-0.0176511
-0.0171638
-0.0165963
-0.0159414
-0.0151916
-0.0143392
-0.0133767
-0.0122965
-0.0110914
-0.00975421
-0.00827849
-0.00665823
-0.00488812
-0.00296364
-0.000881182
0.00136186
0.00376703
0.00633473
0.00906417
0.0119533
0.014999
0.0181967
0.0215409
0.0250248
0.0286406
0.0323795
0.0362319
0.0401875
0.0442353
0.0483636
0.0525607
0.0568141
-0.0172653
-0.0171669
-0.0170413
-0.016881
-0.016681
-0.0164386
-0.0161507
-0.0158133
-0.0154221
-0.0149727
-0.0144601
-0.0138794
-0.0132251
-0.0124918
-0.0116737
-0.0107651
-0.00976011
-0.00865293
-0.00743787
-0.00610941
-0.0046623
-0.00309166
-0.00139305
0.000437432
0.0024031
0.00450656
0.00674969
0.00913352
0.0116582
0.0143232
0.0171266
0.020066
0.0231378
0.0263375
0.0296599
0.0330986
0.0366467
0.0402965
0.0440395
0.0478668
0.0517689
0.0557357
0.059757
-0.0158261
-0.0156539
-0.0154513
-0.0152104
-0.0149265
-0.0145975
-0.0142205
-0.0137916
-0.0133071
-0.0127629
-0.0121548
-0.0114783
-0.010729
-0.00990206
-0.00899273
-0.00799616
-0.00690752
-0.00572199
-0.0044349
-0.00304174
-0.00153824
7.95642e-05
0.00181526
0.00367201
0.00565245
0.00775866
0.00999212
0.0123536
0.0148432
0.0174603
0.0202034
0.0230703
0.026058
0.0291627
0.0323798
0.035704
0.0391293
0.0426491
0.046256
0.0499423
0.0536996
0.0575192
0.0613918
-0.0148237
-0.0146036
-0.0143508
-0.014058
-0.0137204
-0.013336
-0.0129021
-0.0124152
-0.0118717
-0.0112679
-0.0105999
-0.00986393
-0.00905575
-0.00817125
-0.00720621
-0.00615641
-0.00501763
-0.00378572
-0.00245664
-0.00102654
0.000508251
0.00215109
0.00390504
0.00577276
0.00775646
0.0098579
0.0120783
0.0144182
0.0168777
0.0194562
0.0221523
0.0249641
0.0278888
0.0309231
0.034063
0.0373037
0.0406398
0.0440654
0.047574
0.0511585
0.0548114
0.0585247
0.0622901
-0.0141688
-0.0139186
-0.0136347
-0.0133099
-0.0129392
-0.0125208
-0.0120521
-0.0115297
-0.0109503
-0.0103106
-0.00960677
-0.00883535
-0.00799256
-0.00707459
-0.00607764
-0.00499786
-0.00383145
-0.00257469
-0.00122395
0.000224217
0.00177308
0.00342566
0.00518464
0.0070524
0.00903092
0.0111217
0.0133258
0.0156438
0.0180757
0.0206209
0.0232781
0.0260455
0.0289208
0.0319008
0.0349818
0.0381594
0.0414288
0.0447845
0.0482204
0.0517301
0.0553066
0.0589423
0.0626296
-0.0137924
-0.0135248
-0.0132227
-0.0128796
-0.0124902
-0.0120525
-0.0115641
-0.0110218
-0.0104225
-0.00976286
-0.00903957
-0.00824918
-0.00738821
-0.00645309
-0.00544027
-0.00434618
-0.00316728
-0.00190011
-0.000541318
0.000912303
0.00246377
0.00411588
0.00587112
0.00773168
0.00969939
0.0117757
0.0139615
0.0162573
0.0186633
0.0211787
0.0238025
0.026533
0.0293679
0.0323044
0.035339
0.0384677
0.0416858
0.0449882
0.0483693
0.0518228