/*--------------------------------*- C++ -*----------------------------------*\
  =========                 |
  \\      /  F ield         | OpenFOAM: The Open Source CFD Toolbox
   \\    /   O peration     | Website:  https://openfoam.org
    \\  /    A nd           | Version:  6
     \\/     M anipulation  |
\*---------------------------------------------------------------------------*/
FoamFile
{
    version     2.0;
    format      ascii;
    class       surfaceScalarField;
    location    "0.08";
    object      phi;
}
// * * * * * * * * * * * * * * * * * * * * * * * * * * * * * * * * * * * * * //

dimensions      [0 3 -1 0 0 0 0];

internalField   nonuniform List<scalar> 
5945
(
3.25676e-07
-6.83529e-09
3.19448e-07
6.22766e-09
3.15894e-07
3.55407e-09
3.08885e-07
7.0088e-09
3.02028e-07
6.85715e-09
2.97161e-07
4.86718e-09
2.94012e-07
3.14879e-09
2.91873e-07
2.13895e-09
2.90304e-07
1.56957e-09
2.89108e-07
1.19588e-09
2.88191e-07
9.17025e-10
2.87499e-07
6.91794e-10
2.87008e-07
4.9119e-10
2.86714e-07
2.93432e-10
2.86637e-07
7.69531e-11
2.86773e-07
-1.35796e-10
2.8775e-07
-9.77123e-10
-2.50667e-09
2.90257e-07
3.50381e-07
-1.54912e-08
3.47835e-07
8.77361e-09
3.44122e-07
7.26673e-09
3.42328e-07
8.8026e-09
3.40237e-07
8.94897e-09
3.37861e-07
7.2431e-09
3.3566e-07
5.34925e-09
3.33837e-07
3.96191e-09
3.32393e-07
3.01393e-09
3.31264e-07
2.32511e-09
3.30387e-07
1.79324e-09
3.29719e-07
1.35998e-09
3.29232e-07
9.78809e-10
3.28913e-07
6.11901e-10
3.28796e-07
1.94473e-10
3.28973e-07
-3.12947e-10
3.29452e-07
-1.45655e-09
-3.16693e-09
3.30113e-07
3.6344e-07
-1.26792e-08
3.66583e-07
5.63071e-09
3.66778e-07
7.07148e-09
3.67003e-07
8.57731e-09
3.66709e-07
9.24327e-09
3.65821e-07
8.13117e-09
3.64666e-07
6.50365e-09
3.63521e-07
5.10692e-09
3.62517e-07
4.01806e-09
3.61689e-07
3.15352e-09
3.61033e-07
2.44906e-09
3.60538e-07
1.85451e-09
3.60196e-07
1.32091e-09
3.60006e-07
8.02634e-10
3.59976e-07
2.24461e-10
3.60147e-07
-4.83914e-10
3.60374e-07
-1.6838e-09
-3.30373e-09
3.60511e-07
3.89244e-07
-9.384e-09
3.91483e-07
3.39134e-09
3.92456e-07
6.0987e-09
3.9318e-07
7.85302e-09
3.93537e-07
8.88614e-09
3.93385e-07
8.28299e-09
3.92886e-07
7.00343e-09
3.92251e-07
5.74146e-09
3.91623e-07
4.64568e-09
3.91071e-07
3.70557e-09
3.90624e-07
2.89677e-09
3.90292e-07
2.18636e-09
3.90081e-07
1.53216e-09
3.89994e-07
8.89073e-10
3.90032e-07
1.86856e-10
3.90192e-07
-6.43925e-10
3.90328e-07
-1.81987e-09
-3.27517e-09
3.90299e-07
4.18277e-07
-6.94872e-09
4.19443e-07
2.22603e-09
4.20372e-07
5.16941e-09
4.212e-07
7.02515e-09
4.21849e-07
8.23747e-09
4.2212e-07
8.0114e-09
4.22063e-07
7.06081e-09
4.21821e-07
5.98274e-09
4.21516e-07
4.95148e-09
4.21219e-07
4.00262e-09
4.20973e-07
3.14269e-09
4.20802e-07
2.35683e-09
4.2072e-07
1.61395e-09
4.20734e-07
8.75559e-10
4.20836e-07
8.43463e-11
4.21007e-07
-8.1404e-10
4.21123e-07
-1.93637e-09
-3.21065e-09
4.21059e-07
4.49045e-07
-5.08509e-09
4.4964e-07
1.63065e-09
4.50427e-07
4.38281e-09
4.51258e-07
6.1938e-09
4.52046e-07
7.44936e-09
4.52574e-07
7.48423e-09
4.52823e-07
6.81157e-09
4.52885e-07
5.92061e-09
4.5285e-07
4.98617e-09
4.52784e-07
4.06914e-09
4.5273e-07
3.19653e-09
4.52718e-07
2.36869e-09
4.52765e-07
1.5666e-09
4.52879e-07
7.61693e-10
4.53051e-07
-8.73109e-11
4.53253e-07
-1.01573e-09
4.53391e-07
-2.07474e-09
-3.19215e-09
4.53373e-07
4.8177e-07
-3.58303e-09
4.82096e-07
1.30505e-09
4.82748e-07
3.72987e-09
4.8354e-07
5.4027e-09
4.84381e-07
6.60837e-09
4.85058e-07
6.80654e-09
4.85519e-07
6.3505e-09
4.85813e-07
5.62669e-09
4.86003e-07
4.79686e-09
4.86139e-07
3.9327e-09
4.86263e-07
3.07283e-09
4.86403e-07
2.22882e-09
4.86576e-07
1.39279e-09
4.86791e-07
5.47031e-10
4.87038e-07
-3.33898e-10
4.8729e-07
-1.26762e-09
4.87481e-07
-2.26582e-09
-3.26506e-09
4.87554e-07
5.16764e-07
-2.38865e-09
5.16943e-07
1.12529e-09
5.1748e-07
3.19333e-09
5.18209e-07
4.67368e-09
5.19051e-07
5.76668e-09
5.1981e-07
6.0475e-09
5.20414e-07
5.74646e-09
5.20882e-07
5.15893e-09
5.21252e-07
4.42666e-09
5.21562e-07
3.62253e-09
5.21845e-07
2.79008e-09
5.22125e-07
1.94828e-09
5.2242e-07
1.09843e-09
5.22734e-07
2.32914e-10
5.2306e-07
-6.60088e-10
5.23377e-07
-1.58437e-09
5.23642e-07
-2.53091e-09
-3.44958e-09
5.23826e-07
5.54226e-07
-1.48096e-09
5.54321e-07
1.03036e-09
5.54765e-07
2.74965e-09
5.55427e-07
4.01104e-09
5.56241e-07
4.95268e-09
5.57036e-07
5.25239e-09
5.57733e-07
5.05004e-09
5.58327e-07
4.56429e-09
5.5884e-07
3.91423e-09
5.59294e-07
3.16797e-09
5.59715e-07
2.36937e-09
5.60122e-07
1.54152e-09
5.60528e-07
6.92585e-10
5.60937e-07
-1.76737e-10
5.61345e-07
-1.06788e-09
5.61736e-07
-1.97536e-09
5.62087e-07
-2.8816e-09
-3.75038e-09
5.62388e-07
5.94323e-07
-8.26592e-10
5.94379e-07
9.74298e-10
5.94758e-07
2.3711e-09
5.95361e-07
3.40764e-09
5.96135e-07
4.17856e-09
5.96938e-07
4.44971e-09
5.9769e-07
4.29806e-09
5.98374e-07
3.88046e-09
5.98995e-07
3.29348e-09
5.99565e-07
2.59728e-09
6.00102e-07
1.83302e-09
6.00618e-07
1.02541e-09
6.01123e-07
1.87146e-10
6.01621e-07
-6.75045e-10
6.02109e-07
-1.55556e-09
6.02578e-07
-2.44374e-09
6.03016e-07
-3.32053e-09
-4.16175e-09
6.03428e-07
6.37239e-07
-3.84669e-10
6.3729e-07
9.23446e-10
6.37631e-07
2.02985e-09
6.38189e-07
2.85013e-09
6.38921e-07
3.44628e-09
6.39715e-07
3.65595e-09
6.40497e-07
3.51649e-09
6.4124e-07
3.13707e-09
6.4194e-07
2.5935e-09
6.426e-07
1.93672e-09
6.4323e-07
1.20354e-09
6.43837e-07
4.18359e-10
6.44428e-07
-4.03658e-10
6.45005e-07
-1.25202e-09
6.45566e-07
-2.11709e-09
6.46109e-07
-2.98621e-09
6.4663e-07
-3.84216e-09
-4.67008e-09
6.47139e-07
5.73844e-07
-1.44796e-10
5.73896e-07
8.71044e-10
5.74174e-07
1.75184e-09
5.74622e-07
2.40202e-09
5.75212e-07
2.85672e-09
5.75869e-07
2.99819e-09
5.76539e-07
2.84668e-09
5.77196e-07
2.48061e-09
5.77829e-07
1.95988e-09
5.78438e-07
1.32768e-09
5.79025e-07
6.16707e-10
5.79593e-07
-1.49956e-10
5.80146e-07
-9.56376e-10
5.80685e-07
-1.79038e-09
5.81208e-07
-2.6407e-09
5.81717e-07
-3.49455e-09
5.82212e-07
-4.33726e-09
-5.16007e-09
5.82702e-07
6.99652e-07
1.90087e-11
6.99749e-07
7.73528e-10
7.00065e-07
1.43599e-09
7.0056e-07
1.90693e-09
7.01209e-07
2.20765e-09
7.01945e-07
2.26241e-09
7.02713e-07
2.07896e-09
7.03483e-07
1.71045e-09
7.04241e-07
1.20212e-09
7.0498e-07
5.88779e-10
7.05698e-07
-1.01904e-10
7.06397e-07
-8.49052e-10
7.07078e-07
-1.63703e-09
7.07741e-07
-2.45313e-09
7.08386e-07
-3.28573e-09
7.09014e-07
-4.12294e-09
7.0963e-07
-4.95325e-09
-5.77288e-09
7.10243e-07
8.53006e-07
9.78355e-11
8.53163e-07
6.16435e-10
8.53534e-07
1.0651e-09
8.54086e-07
1.35433e-09
8.54798e-07
1.49564e-09
8.55612e-07
1.44864e-09
8.56477e-07
1.21466e-09
8.5736e-07
8.27407e-10
8.58242e-07
3.19522e-10
8.59113e-07
-2.82345e-10
8.59967e-07
-9.56022e-10
8.60802e-07
-1.68367e-09
8.61616e-07
-2.45102e-09
8.62409e-07
-3.24602e-09
8.63181e-07
-4.05779e-09
8.63934e-07
-4.87605e-09
8.64673e-07
-5.69221e-09
-6.50589e-09
8.65406e-07
1.03993e-06
9.43953e-11
1.04015e-06
3.89719e-10
1.04059e-06
6.23793e-10
1.04122e-06
7.31146e-10
1.042e-06
7.14231e-10
1.04289e-06
5.56351e-10
1.04385e-06
2.57662e-10
1.04484e-06
-1.61777e-10
1.04584e-06
-6.79703e-10
1.04683e-06
-1.27681e-09
1.04781e-06
-1.93637e-09
1.04877e-06
-2.64415e-09
1.04971e-06
-3.38812e-09
1.05062e-06
-4.15781e-09
1.05151e-06
-4.94387e-09
1.05237e-06
-5.73783e-09
1.05321e-06
-6.53333e-09
-7.33162e-09
1.05403e-06
1.26775e-06
2.41799e-11
1.26805e-06
9.08679e-11
1.26857e-06
1.05588e-10
1.26927e-06
2.89361e-11
1.27013e-06
-1.42385e-10
1.2711e-06
-4.13687e-10
1.27214e-06
-7.84238e-10
1.27322e-06
-1.24302e-09
1.27431e-06
-1.77617e-09
1.27541e-06
-2.37084e-09
1.27649e-06
-3.01542e-09
1.27754e-06
-3.69952e-09
1.27857e-06
-4.41387e-09
1.27956e-06
-5.15013e-09
1.28052e-06
-5.90076e-09
1.28144e-06
-6.65896e-09
1.28233e-06
-7.4198e-09
-8.18469e-09
1.28318e-06
1.54543e-06
-9.07694e-11
1.54579e-06
-2.69691e-10
1.54638e-06
-4.8212e-10
1.54716e-06
-7.47928e-10
1.54809e-06
-1.07085e-09
1.54913e-06
-1.45311e-09
1.55024e-06
-1.89469e-09
1.55138e-06
-2.39105e-09
1.55254e-06
-2.93552e-09
1.55369e-06
-3.52126e-09
1.55482e-06
-4.14162e-09
1.55591e-06
-4.79015e-09
1.55696e-06
-5.46059e-09
1.55795e-06
-6.14696e-09
1.5589e-06
-6.84357e-09
1.55978e-06
-7.54501e-09
1.56061e-06
-8.24722e-09
-8.95097e-09
1.56138e-06
1.8839e-06
-2.27382e-10
1.8843e-06
-6.66861e-10
1.88493e-06
-1.11588e-09
1.88576e-06
-1.578e-09
1.88674e-06
-2.05158e-09
1.88783e-06
-2.53909e-09
1.88898e-06
-3.04307e-09
1.89015e-06
-3.56469e-09
1.89132e-06
-4.10428e-09
1.89246e-06
-4.66149e-09
1.89355e-06
-5.23502e-09
1.89459e-06
-5.82272e-09
1.89555e-06
-6.42172e-09
1.89643e-06
-7.02865e-09
1.89722e-06
-7.63978e-09
1.89793e-06
-8.25116e-09
1.89854e-06
-8.85948e-09
-9.46475e-09
1.89906e-06
2.29646e-06
-3.53473e-10
2.29684e-06
-1.04924e-09
2.29748e-06
-1.75082e-09
2.29832e-06
-2.42328e-09
2.29932e-06
-3.05193e-09
2.30042e-06
-3.64039e-09
2.30157e-06
-4.19297e-09
2.30273e-06
-4.71637e-09
2.30384e-06
-5.21971e-09
2.30489e-06
-5.71109e-09
2.30585e-06
-6.19612e-09
2.30671e-06
-6.67821e-09
2.30744e-06
-7.15893e-09
2.30805e-06
-7.63834e-09
2.30853e-06
-8.11534e-09
2.30887e-06
-8.58796e-09
2.30906e-06
-9.05406e-09
-9.51358e-09
2.30911e-06
1.68109e-06
-3.69565e-10
1.68124e-06
-1.20272e-09
1.68159e-06
-2.10075e-09
1.6821e-06
-2.93756e-09
1.68274e-06
-3.68764e-09
1.68345e-06
-4.35394e-09
1.6842e-06
-4.93547e-09
1.68492e-06
-5.44374e-09
1.6856e-06
-5.89817e-09
1.68621e-06
-6.31578e-09
1.68672e-06
-6.70896e-09
1.68713e-06
-7.08657e-09
1.68742e-06
-7.45445e-09
1.6876e-06
-7.81588e-09
1.68766e-06
-8.1721e-09
1.68759e-06
-8.52287e-09
1.68741e-06
-8.86713e-09
-9.20487e-09
1.6871e-06
1.46332e-06
-2.32503e-10
1.46328e-06
-1.16722e-09
1.46349e-06
-2.30565e-09
1.46388e-06
-3.32971e-09
1.46442e-06
-4.22513e-09
1.46505e-06
-4.98491e-09
1.46571e-06
-5.59206e-09
1.46633e-06
-6.06972e-09
1.46689e-06
-6.45567e-09
1.46735e-06
-6.77955e-09
1.46771e-06
-7.06256e-09
1.46794e-06
-7.32035e-09
1.46805e-06
-7.56376e-09
1.46803e-06
-7.7994e-09
1.46789e-06
-8.03074e-09
1.46763e-06
-8.25899e-09
1.46725e-06
-8.48394e-09
-8.70559e-09
1.46675e-06
1.27359e-06
1.92813e-10
1.27334e-06
-9.15619e-10
1.27345e-06
-2.41572e-09
1.27379e-06
-3.67767e-09
1.27434e-06
-4.76777e-09
1.27499e-06
-5.64169e-09
1.27566e-06
-6.25827e-09
1.27626e-06
-6.67346e-09
1.27677e-06
-6.95732e-09
1.27714e-06
-7.15682e-09
1.27738e-06
-7.30422e-09
1.27749e-06
-7.42322e-09
1.27745e-06
-7.52965e-09
1.27729e-06
-7.63287e-09
1.27699e-06
-7.7377e-09
1.27658e-06
-7.84601e-09
1.27605e-06
-7.95768e-09
-8.0722e-09
1.27542e-06
1.10821e-06
1.07845e-09
1.10775e-06
-4.54151e-10
1.10785e-06
-2.51582e-09
1.10825e-06
-4.08265e-09
1.10891e-06
-5.42524e-09
1.10968e-06
-6.41009e-09
1.1104e-06
-6.98387e-09
1.11101e-06
-7.27625e-09
1.11145e-06
-7.40577e-09
1.11174e-06
-7.43959e-09
1.11185e-06
-7.42183e-09
1.11181e-06
-7.38373e-09
1.11163e-06
-7.34446e-09
1.11131e-06
-7.31403e-09
1.11087e-06
-7.29682e-09
1.11032e-06
-7.29382e-09
1.10966e-06
-7.30381e-09
-7.32499e-09
1.10892e-06
9.64012e-07
2.58816e-09
9.63409e-07
1.48998e-10
9.63615e-07
-2.7218e-09
9.64189e-07
-4.65698e-09
9.65055e-07
-6.29102e-09
9.65972e-07
-7.32728e-09
9.66743e-07
-7.75479e-09
9.67301e-07
-7.83408e-09
9.67638e-07
-7.74338e-09
9.67766e-07
-7.56783e-09
9.67705e-07
-7.36049e-09
9.67478e-07
-7.15632e-09
9.67107e-07
-6.9736e-09
9.66612e-07
-6.81933e-09
9.6601e-07
-6.69465e-09
9.65314e-07
-6.59771e-09
9.64535e-07
-6.52486e-09
-6.47221e-09
9.63682e-07
8.38114e-07
5.00918e-09
8.3764e-07
6.22765e-10
8.38135e-07
-3.21664e-09
8.38986e-07
-5.50781e-09
8.40102e-07
-7.40679e-09
8.41126e-07
-8.35131e-09
8.4185e-07
-8.47852e-09
8.42252e-07
-8.23645e-09
8.4237e-07
-7.86113e-09
8.42248e-07
-7.44563e-09
8.4193e-07
-7.04303e-09
8.41457e-07
-6.68366e-09
8.40862e-07
-6.37797e-09
8.40168e-07
-6.12512e-09
8.39393e-07
-5.91994e-09
8.38551e-07
-5.75602e-09
8.37653e-07
-5.62634e-09
-5.52438e-09
8.36705e-07
7.27611e-07
9.12676e-09
7.28031e-07
2.02437e-10
7.29121e-07
-4.30695e-09
7.3035e-07
-6.73607e-09
7.3168e-07
-8.73687e-09
7.32668e-07
-9.33976e-09
7.33166e-07
-8.97592e-09
7.33239e-07
-8.30951e-09
7.32989e-07
-7.6113e-09
7.32503e-07
-6.96015e-09
7.31852e-07
-6.39121e-09
7.31085e-07
-5.91697e-09
7.30239e-07
-5.53175e-09
7.29336e-07
-5.22241e-09
7.28392e-07
-4.97552e-09
7.27415e-07
-4.77944e-09
7.26413e-07
-4.62404e-09
-4.50022e-09
7.25389e-07
6.30202e-07
1.59313e-08
6.32679e-07
-2.27497e-09
6.34573e-07
-6.20065e-09
6.36227e-07
-8.38989e-09
6.37628e-07
-1.01377e-08
6.38314e-07
-1.00256e-08
6.38305e-07
-8.96768e-09
6.37813e-07
-7.81723e-09
6.37023e-07
-6.82155e-09
6.36065e-07
-6.00143e-09
6.35018e-07
-5.34499e-09
6.33933e-07
-4.8315e-09
6.32834e-07
-4.43322e-09
6.31736e-07
-4.12351e-09
6.30642e-07
-3.88155e-09
6.29554e-07
-3.69212e-09
6.28474e-07
-3.54359e-09
-3.4252e-09
6.27399e-07
5.47181e-07
2.3297e-08
5.51774e-07
-6.86778e-09
5.534e-07
-7.82737e-09
5.54998e-07
-9.98813e-09
5.55952e-07
-1.10914e-08
5.55794e-07
-9.8673e-09
5.54829e-07
-8.00233e-09
5.53456e-07
-6.44507e-09
5.51942e-07
-5.30687e-09
5.50421e-07
-4.48046e-09
5.48952e-07
-3.87605e-09
5.47553e-07
-3.43312e-09
5.46226e-07
-3.1054e-09
5.44961e-07
-2.8586e-09
5.43749e-07
-2.6699e-09
5.42582e-07
-2.52533e-09
5.41454e-07
-2.41514e-09
-2.33039e-09
5.40359e-07
4.9161e-07
1.4448e-08
4.90668e-07
-5.92616e-09
4.87177e-07
-4.33618e-09
4.86128e-07
-8.93913e-09
4.84563e-07
-9.52671e-09
4.82069e-07
-7.3728e-09
4.79235e-07
-5.16886e-09
4.76513e-07
-3.72251e-09
4.74072e-07
-2.86629e-09
4.71928e-07
-2.33625e-09
4.70039e-07
-1.9871e-09
4.68355e-07
-1.74909e-09
4.66831e-07
-1.5816e-09
4.65432e-07
-1.4591e-09
4.64129e-07
-1.36721e-09
4.62904e-07
-1.30035e-09
4.61748e-07
-1.25955e-09
-1.28941e-09
4.60707e-07
4.34716e-07
4.28789e-07
4.24453e-07
4.15514e-07
4.05987e-07
3.98615e-07
3.93446e-07
3.89723e-07
3.86857e-07
3.84521e-07
3.82534e-07
3.80785e-07
3.79203e-07
3.77744e-07
3.76377e-07
3.75076e-07
3.73817e-07
3.72527e-07
1.35895e-08
-1.35895e-08
1.47332e-08
-1.14367e-09
6.41912e-09
8.31407e-09
-7.67592e-09
1.4095e-08
-2.50175e-08
1.73415e-08
-4.42956e-08
1.92781e-08
-6.48273e-08
2.05317e-08
-8.62307e-08
2.14034e-08
-1.08255e-07
2.2024e-08
-1.30696e-07
2.24411e-08
-1.53361e-07
2.2665e-08
-1.76054e-07
2.2693e-08
-1.98575e-07
2.25217e-08
-2.20727e-07
2.21515e-08
-2.42315e-07
2.15881e-08
-2.63157e-07
2.08421e-08
-2.83085e-07
1.9928e-08
-3.01948e-07
1.88628e-08
-3.19613e-07
1.76645e-08
-3.35964e-07
1.63511e-08
-3.50903e-07
1.49397e-08
-3.64349e-07
1.34456e-08
-3.76231e-07
1.18822e-08
-3.86492e-07
1.02613e-08
-3.95085e-07
8.59253e-09
-4.01969e-07
6.88446e-09
-4.07114e-07
5.14416e-09
-4.10495e-07
3.38115e-09
-4.12117e-07
1.62267e-09
-4.12044e-07
-7.39041e-11
-4.10383e-07
-1.66026e-09
-4.07234e-07
-3.14904e-09
-4.02656e-07
-4.5783e-09
-3.96689e-07
-5.96725e-09
-3.89366e-07
-7.32304e-09
-3.80719e-07
-8.64668e-09
-3.70783e-07
-9.93578e-09
-3.59597e-07
-1.11861e-08
-3.47205e-07
-1.23923e-08
-3.33656e-07
-1.35487e-08
-3.19006e-07
-1.46497e-08
-3.03317e-07
-1.56895e-08
-2.86654e-07
-1.66629e-08
-1.75651e-08
-9.67241e-09
-3.91712e-09
-2.29737e-08
1.21576e-08
-3.75978e-08
2.29382e-08
-5.42666e-08
3.07639e-08
-7.31009e-08
3.61758e-08
-9.36148e-08
3.97921e-08
-1.15218e-07
4.21348e-08
-1.37376e-07
4.35615e-08
-1.59648e-07
4.42965e-08
-1.81682e-07
4.44743e-08
-2.03194e-07
4.41768e-08
-2.23959e-07
4.34588e-08
-2.43801e-07
4.23638e-08
-2.62582e-07
4.09322e-08
-2.80198e-07
3.92038e-08
-2.96574e-07
3.72187e-08
-3.11662e-07
3.50161e-08
-3.25433e-07
3.26334e-08
-3.37874e-07
3.01051e-08
-3.48984e-07
2.74618e-08
-3.58775e-07
2.47302e-08
-3.67262e-07
2.19329e-08
-3.74469e-07
1.90889e-08
-3.80421e-07
1.6214e-08
-3.85151e-07
1.33217e-08
-3.88691e-07
1.04244e-08
-3.91081e-07
7.53467e-09
-3.92367e-07
4.66731e-09
-3.92582e-07
1.83703e-09
-3.91702e-07
-9.53331e-10
-3.89646e-07
-3.71645e-09
-3.86337e-07
-6.45808e-09
-3.81743e-07
-9.17273e-09
-3.75856e-07
-1.1854e-08
-3.68685e-07
-1.44942e-08
-3.60247e-07
-1.7084e-08
-3.5057e-07
-1.96126e-08
-3.39688e-07
-2.20686e-08
-3.2764e-07
-2.44397e-08
-3.14475e-07
-2.67139e-08
-3.00246e-07
-2.88793e-08
-2.85011e-07
-3.09246e-08
-2.68834e-07
-3.28394e-08
-3.46143e-08
-2.06592e-08
1.6742e-08
-3.96228e-08
3.11212e-08
-5.75451e-08
4.08605e-08
-7.51373e-08
4.83561e-08
-9.29547e-08
5.39932e-08
-1.11176e-07
5.80129e-08
-1.29712e-07
6.06709e-08
-1.48355e-07
6.22044e-08
-1.6687e-07
6.28116e-08
-1.85044e-07
6.26486e-08
-2.02704e-07
6.18364e-08
-2.19716e-07
6.04709e-08
-2.35983e-07
5.86315e-08
-2.51438e-07
5.63871e-08
-2.66033e-07
5.37988e-08
-2.79736e-07
5.09215e-08
-2.92524e-07
4.78042e-08
-3.0438e-07
4.44899e-08
-3.15291e-07
4.10158e-08
-3.25243e-07
3.74133e-08
-3.34221e-07
3.37087e-08
-3.42212e-07
2.99234e-08
-3.49198e-07
2.6075e-08
-3.55162e-07
2.2178e-08
-3.60084e-07
1.82443e-08
-3.63944e-07
1.42843e-08
-3.66717e-07
1.03074e-08
-3.68372e-07
6.32181e-09
-3.68868e-07
2.33361e-09
-3.68166e-07
-1.65589e-09
-3.66236e-07
-5.64555e-09
-3.63066e-07
-9.6283e-09
-3.58647e-07
-1.35924e-08
-3.52977e-07
-1.75232e-08
-3.46067e-07
-2.14048e-08
-3.37931e-07
-2.52198e-08
-3.28594e-07
-2.89498e-08
-3.18086e-07
-3.25759e-08
-3.06447e-07
-3.60787e-08
-2.93722e-07
-3.94394e-08
-2.79962e-07
-4.26396e-08
-2.65224e-07
-4.56621e-08
-2.49572e-07
-4.84914e-08
-5.11133e-08
-2.30012e-08
3.97432e-08
-4.37239e-08
5.1844e-08
-6.27341e-08
5.98707e-08
-8.05558e-08
6.61777e-08
-9.76515e-08
7.1089e-08
-1.14327e-07
7.4688e-08
-1.30726e-07
7.70698e-08
-1.46877e-07
7.83556e-08
-1.62743e-07
7.86776e-08
-1.78259e-07
7.81648e-08
-1.93357e-07
7.69344e-08
-2.07975e-07
7.50893e-08
-2.22063e-07
7.27188e-08
-2.35576e-07
6.99004e-08
-2.48479e-07
6.67014e-08
-2.60737e-07
6.31802e-08
-2.7232e-07
5.93869e-08
-2.83194e-07
5.5364e-08
-2.93326e-07
5.11473e-08
-3.02679e-07
4.67666e-08
-3.11216e-07
4.22463e-08
-3.18899e-07
3.76062e-08
-3.25687e-07
3.28625e-08
-3.31538e-07
2.80289e-08
-3.3641e-07
2.31166e-08
-3.40262e-07
1.81358e-08
-3.4305e-07
1.3096e-08
-3.44734e-07
8.00614e-09
-3.45276e-07
2.87504e-09
-3.44643e-07
-2.2885e-09
-3.42815e-07
-7.47378e-09
-3.39777e-07
-1.26663e-08
-3.35522e-07
-1.78479e-08
-3.30048e-07
-2.29972e-08
-3.23361e-07
-2.80909e-08
-3.15477e-07
-3.3104e-08
-3.06417e-07
-3.80103e-08
-2.9621e-07
-4.27829e-08
-2.84894e-07
-4.73948e-08
-2.72513e-07
-5.18198e-08
-2.5912e-07
-5.60327e-08
-2.44772e-07
-6.001e-08
-2.29533e-07
-6.37307e-08
-6.71761e-08
-2.24351e-08
6.21783e-08
-4.29219e-08
7.23307e-08
-6.16706e-08
7.86195e-08
-7.90273e-08
8.35344e-08
-9.53249e-08
8.73867e-08
-1.10839e-07
9.02022e-08
-1.25768e-07
9.1999e-08
-1.40237e-07
9.28239e-08
-1.5431e-07
9.27504e-08
-1.68011e-07
9.18667e-08
-1.81342e-07
9.0265e-08
-1.94287e-07
8.80342e-08
-2.06824e-07
8.52557e-08
-2.18926e-07
8.20024e-08
-2.30562e-07
7.8338e-08
-2.417e-07
7.43175e-08
-2.523e-07
6.99877e-08
-2.62325e-07
6.53881e-08
-2.71729e-07
6.05515e-08
-2.80467e-07
5.55051e-08
-2.88492e-07
5.02709e-08
-2.95753e-07
4.48672e-08
-3.02199e-07
3.93092e-08
-3.0778e-07
3.36099e-08
-3.12445e-07
2.77809e-08
-3.16142e-07
2.18333e-08
-3.18825e-07
1.57785e-08
-3.20447e-07
9.62863e-09
-3.20969e-07
3.39725e-09
-3.20358e-07
-2.90016e-09
-3.18586e-07
-9.24553e-09
-3.15635e-07
-1.56173e-08
-3.11493e-07
-2.19901e-08
-3.06155e-07
-2.83352e-08
-2.99624e-07
-3.46214e-08
-2.91913e-07
-4.08152e-08
-2.83042e-07
-4.68816e-08
-2.7304e-07
-5.27851e-08
-2.61944e-07
-5.84903e-08
-2.49801e-07
-6.39626e-08
-2.36665e-07
-6.91693e-08
-2.22595e-07
-7.40803e-08
-2.07657e-07
-7.86687e-08
-8.29111e-08
-2.08926e-08
8.3071e-08
-4.01763e-08
9.16143e-08
-5.79035e-08
9.63467e-08
-7.42957e-08
9.99266e-08
-8.95823e-08
1.02673e-07
-1.03979e-07
1.04599e-07
-1.1767e-07
1.0569e-07
-1.30798e-07
1.05953e-07
-1.43468e-07
1.0542e-07
-1.55743e-07
1.04143e-07
-1.67663e-07
1.02185e-07
-1.79242e-07
9.96133e-08
-1.9048e-07
9.64934e-08
-2.01364e-07
9.2886e-08
-2.11871e-07
8.88455e-08
-2.21973e-07
8.44194e-08
-2.31634e-07
7.96485e-08
-2.40813e-07
7.4567e-08
-2.49464e-07
6.92032e-08
-2.5754e-07
6.35805e-08
-2.64987e-07
5.77182e-08
-2.71752e-07
5.16322e-08
-2.77779e-07
4.5336e-08
-2.83011e-07
3.88419e-08
-2.87392e-07
3.21617e-08
-2.90866e-07
2.53075e-08
-2.9338e-07
1.82928e-08
-2.94885e-07
1.11328e-08
-2.95333e-07
3.84603e-09
-2.94687e-07
-3.54635e-09
-2.92913e-07
-1.10195e-08
-2.89986e-07
-1.85446e-08
-2.85888e-07
-2.60883e-08
-2.80609e-07
-3.36136e-08
-2.74151e-07
-4.10798e-08
-2.66522e-07
-4.84439e-08
-2.57743e-07
-5.56609e-08
-2.47843e-07
-6.26852e-08
-2.36862e-07
-6.94715e-08
-2.24848e-07
-7.59762e-08
-2.11859e-07
-8.2158e-08
-1.9796e-07
-8.79795e-08
-1.83221e-07
-9.34076e-08
-9.84144e-08
-1.89448e-08
1.02016e-07
-3.65705e-08
1.0924e-07
-5.2858e-08
1.12634e-07
-6.79513e-08
1.1502e-07
-8.20071e-08
1.16729e-07
-9.51867e-08
1.17779e-07
-1.07643e-07
1.18146e-07
-1.19508e-07
1.17818e-07
-1.3089e-07
1.16801e-07
-1.41869e-07
1.15122e-07
-1.52501e-07
1.12817e-07
-1.62818e-07
1.09931e-07
-1.72836e-07
1.06511e-07
-1.82553e-07
1.02604e-07
-1.91958e-07
9.82505e-08
-2.01028e-07
9.34895e-08
-2.09733e-07
8.83528e-08
-2.18033e-07
8.28678e-08
-2.25887e-07
7.70569e-08
-2.33245e-07
7.09385e-08
-2.40055e-07
6.45277e-08
-2.4626e-07
5.78371e-08
-2.51801e-07
5.08779e-08
-2.5662e-07
4.36605e-08
-2.60655e-07
3.61961e-08
-2.63844e-07
2.84973e-08
-2.6613e-07
2.05788e-08
-2.67456e-07
1.24589e-08
-2.6777e-07
4.1599e-09
-2.67025e-07
-4.29153e-09
-2.65181e-07
-1.28641e-08
-2.62204e-07
-2.15212e-08
-2.58072e-07
-3.02208e-08
-2.52769e-07
-3.8916e-08
-2.46293e-07
-4.75556e-08
-2.38652e-07
-5.60848e-08
-2.29866e-07
-6.44471e-08
-2.19967e-07
-7.25849e-08
-2.08996e-07
-8.04416e-08
-1.9701e-07
-8.79628e-08
-1.8407e-07
-9.50979e-08
-1.70248e-07
-1.01801e-07
-1.55621e-07
-1.08034e-07
-1.13763e-07
-1.6809e-08
1.18825e-07
-3.25409e-08
1.24972e-07
-4.71343e-08
1.27227e-07
-6.0686e-08
1.28572e-07
-7.33056e-08
1.29349e-07
-8.51133e-08
1.29586e-07
-9.62309e-08
1.29263e-07
-1.06773e-07
1.28359e-07
-1.16838e-07
1.26867e-07
-1.26509e-07
1.24793e-07
-1.35847e-07
1.22154e-07
-1.44894e-07
1.18978e-07
-1.53675e-07
1.15292e-07
-1.622e-07
1.11129e-07
-1.70466e-07
1.06516e-07
-1.78456e-07
1.0148e-07
-1.86147e-07
9.60439e-08
-1.93506e-07
9.02264e-08
-2.00492e-07
8.40429e-08
-2.07059e-07
7.75054e-08
-2.13154e-07
7.06236e-08
-2.18723e-07
6.34056e-08
-2.23704e-07
5.58586e-08
-2.28034e-07
4.79906e-08
-2.31648e-07
3.98107e-08
-2.34481e-07
3.13305e-08
-2.36468e-07
2.25655e-08
-2.37545e-07
1.35356e-08
-2.37651e-07
4.26661e-09
-2.36733e-07
-5.20986e-09
-2.34741e-07
-1.4856e-08
-2.31635e-07
-2.46271e-08
-2.27385e-07
-3.44714e-08
-2.2197e-07
-4.43304e-08
-2.15386e-07
-5.41402e-08
-2.07638e-07
-6.38326e-08
-1.98748e-07
-7.33367e-08
-1.88752e-07
-8.25811e-08
-1.77698e-07
-9.14956e-08
-1.65647e-07
-1.00014e-07
-1.52671e-07
-1.08074e-07
-1.38851e-07
-1.15622e-07
-1.24272e-07
-1.22613e-07
-1.2901e-07
-1.45659e-08
1.33391e-07
-2.82488e-08
1.38655e-07
-4.09626e-08
1.39941e-07
-5.27753e-08
1.40384e-07
-6.37661e-08
1.40339e-07
-7.40266e-08
1.39847e-07
-8.3654e-08
1.38891e-07
-9.27443e-08
1.3745e-07
-1.01386e-07
1.35509e-07
-1.09656e-07
1.33063e-07
-1.17616e-07
1.30115e-07
-1.25313e-07
1.26675e-07
-1.32779e-07
1.22758e-07
-1.40029e-07
1.18379e-07
-1.47069e-07
1.13555e-07
-1.5389e-07
1.08301e-07
-1.60474e-07
1.02628e-07
-1.66793e-07
9.65461e-08
-1.72813e-07
9.00622e-08
-1.78488e-07
8.31811e-08
-1.8377e-07
7.59057e-08
-1.88603e-07
6.82381e-08
-1.92925e-07
6.01805e-08
-1.96671e-07
5.17365e-08
-1.99772e-07
4.29118e-08
-2.02158e-07
3.37161e-08
-2.03756e-07
2.41637e-08
-2.04496e-07
1.42755e-08
-2.04309e-07
4.07978e-09
-2.03131e-07
-6.38761e-09
-2.00905e-07
-1.70822e-08
-1.97582e-07
-2.79505e-08
-1.93123e-07
-3.89296e-08
-1.87506e-07
-4.99479e-08
-1.8072e-07
-6.09263e-08
-1.72772e-07
-7.17802e-08
-1.63687e-07
-8.24218e-08
-1.53505e-07
-9.27628e-08
-1.42284e-07
-1.02717e-07
-1.30094e-07
-1.12204e-07
-1.17018e-07
-1.2115e-07
-1.03148e-07
-1.29492e-07
-8.85825e-08
-1.37179e-07
-1.44171e-07
-1.2229e-08
1.4562e-07
-2.37275e-08
1.50153e-07
-3.43985e-08
1.50612e-07
-4.42911e-08
1.50277e-07
-5.34654e-08
1.49514e-07
-6.19934e-08
1.48375e-07
-6.99538e-08
1.46851e-07
-7.74277e-08
1.44924e-07
-8.44929e-08
1.42574e-07
-9.12199e-08
1.3979e-07
-9.76686e-08
1.36563e-07
-1.03887e-07
1.32893e-07
-1.09911e-07
1.28781e-07
-1.15762e-07
1.2423e-07
-1.2145e-07
1.19244e-07
-1.26975e-07
1.13826e-07
-1.32325e-07
1.07977e-07
-1.37476e-07
1.01698e-07
-1.424e-07
9.49853e-08
-1.47054e-07
8.7836e-08
-1.51394e-07
8.0245e-08
-1.55363e-07
7.22072e-08
-1.58901e-07
6.37183e-08
-1.6194e-07
5.47758e-08
-1.64409e-07
4.53806e-08
-1.66231e-07
3.55386e-08
-1.67329e-07
2.52617e-08
-1.67624e-07
1.45704e-08
-1.67039e-07
3.49428e-09
-1.65499e-07
-7.92718e-09
-1.62938e-07
-1.96429e-08
-1.59299e-07
-3.15901e-08
-1.54535e-07
-4.36932e-08
-1.48618e-07
-5.58649e-08
-1.41536e-07
-6.80081e-08
-1.33298e-07
-8.00186e-08
-1.23932e-07
-9.17878e-08
-1.13487e-07
-1.03207e-07
-1.02032e-07
-1.14172e-07
-8.96505e-08
-1.24585e-07
-7.64392e-08
-1.34361e-07
-6.25043e-08
-1.43427e-07
-4.7956e-08
-1.51727e-07
-1.59222e-07
-9.78023e-09
1.554e-07
-1.89501e-08
1.59323e-07
-2.7412e-08
1.59074e-07
-3.52021e-08
1.58067e-07
-4.23681e-08
1.5668e-07
-4.89681e-08
1.54975e-07
-5.50682e-08
1.52951e-07
-6.07376e-08
1.50593e-07
-6.6045e-08
1.47881e-07
-7.10549e-08
1.44799e-07
-7.58245e-08
1.41333e-07
-8.04017e-08
1.37471e-07
-8.48241e-08
1.33204e-07
-8.9118e-08
1.28524e-07
-9.32988e-08
1.23425e-07
-9.73706e-08
1.17898e-07
-1.01327e-07
1.11934e-07
-1.05152e-07
1.05523e-07
-1.0882e-07
9.86529e-08
-1.12295e-07
9.13107e-08
-1.15532e-07
8.34826e-08
-1.1848e-07
7.51551e-08
-1.21078e-07
6.63159e-08
-1.23257e-07
5.69552e-08
-1.24944e-07
4.70673e-08
-1.26058e-07
3.66526e-08
-1.26515e-07
2.5719e-08
-1.26229e-07
1.42847e-08
-1.25115e-07
2.37988e-09
-1.23089e-07
-9.95361e-09
-1.20073e-07
-2.26583e-08
-1.16002e-07
-3.56612e-08
-1.10823e-07
-4.88723e-08
-1.04502e-07
-6.2186e-08
-9.70263e-08
-7.54836e-08
-8.84083e-08
-8.86365e-08
-7.86845e-08
-1.01512e-07
-6.79157e-08
-1.13976e-07
-5.61841e-08
-1.25904e-07
-4.35899e-08
-1.3718e-07
-3.02474e-08
-1.47704e-07
-1.6278e-08
-1.57396e-07
-1.80602e-09
-1.66199e-07
-1.74075e-07
-7.18368e-09
1.62584e-07
-1.38564e-08
1.65996e-07
-1.99271e-08
1.65145e-07
-2.54206e-08
1.6356e-07
-3.03755e-08
1.61635e-07
-3.4841e-08
1.5944e-07
-3.88734e-08
1.56984e-07
-4.25335e-08
1.54253e-07
-4.58828e-08
1.51231e-07
-4.89806e-08
1.47897e-07
-5.18809e-08
1.44233e-07
-5.46309e-08
1.40221e-07
-5.72692e-08
1.35842e-07
-5.98249e-08
1.3108e-07
-6.23172e-08
1.25917e-07
-6.4755e-08
1.20336e-07
-6.71371e-08
1.14316e-07
-6.94522e-08
1.07838e-07
-7.1679e-08
1.0088e-07
-7.37865e-08
9.34182e-08
-7.57342e-08
8.54303e-08
-7.74722e-08
7.6893e-08
-7.89413e-08
6.7785e-08
-8.00739e-08
5.80878e-08
-8.07941e-08
4.77875e-08
-8.10188e-08
3.68773e-08
-8.06593e-08
2.53594e-08
-7.96229e-08
1.32483e-08
-7.78158e-08
5.72864e-10
-7.51461e-08
-1.26234e-08
-7.15275e-08
-2.62769e-08
-6.68851e-08
-4.03036e-08
-6.11606e-08
-5.45969e-08
-5.43173e-08
-6.90293e-08
-4.63447e-08
-8.34562e-08
-3.72612e-08
-9.77201e-08
-2.7115e-08
-1.11658e-07
-1.59829e-08
-1.25108e-07
-3.96606e-09
-1.37921e-07
8.8156e-09
-1.49961e-07
2.22299e-08
-1.61118e-07
3.61387e-08
-1.71305e-07
5.04052e-08
-1.80466e-07
-1.88569e-07
-4.37493e-09
1.66958e-07
-8.35582e-09
1.69977e-07
-1.18348e-08
1.68624e-07
-1.48223e-08
1.66548e-07
-1.73507e-08
1.64163e-07
-1.94628e-08
1.61552e-07
-2.1209e-08
1.5873e-07
-2.26436e-08
1.55688e-07
-2.38225e-08
1.5241e-07
-2.48005e-08
1.48875e-07
-2.56285e-08
1.45061e-07
-2.63523e-08
1.40944e-07
-2.70105e-08
1.365e-07
-2.76336e-08
1.31703e-07
-2.82432e-08
1.26527e-07
-2.88515e-08
1.20944e-07
-2.94613e-08
1.14926e-07
-3.00653e-08
1.08442e-07
-3.06465e-08
1.01461e-07
-3.11781e-08
9.39498e-08
-3.16231e-08
8.58753e-08
-3.19347e-08
7.72046e-08
-3.20561e-08
6.79064e-08
-3.19207e-08
5.79524e-08
-3.14526e-08
4.73195e-08
-3.05674e-08
3.59921e-08
-2.91733e-08
2.39653e-08
-2.71733e-08
1.12483e-08
-2.44674e-08
-2.13303e-09
-2.09565e-08
-1.61343e-08
-1.65473e-08
-3.06861e-08
-1.11594e-08
-4.56915e-08
-4.73186e-09
-6.10244e-08
2.77084e-09
-7.6532e-08
1.13531e-08
-9.20385e-08
2.09847e-08
-1.07352e-07
3.16002e-08
-1.22273e-07
4.31022e-08
-1.3661e-07
5.53664e-08
-1.50185e-07
6.82498e-08
-1.62845e-07
8.16011e-08
-1.74469e-07
9.52686e-08
-1.84972e-07
1.09108e-07
-1.94305e-07
-2.02448e-07
-1.08391e-09
1.68042e-07
-2.30531e-09
1.71198e-07
-3.00233e-09
1.69321e-07
-3.26358e-09
1.66809e-07
-3.1366e-09
1.64036e-07
-2.66574e-09
1.61082e-07
-1.89834e-09
1.57962e-07
-8.84612e-10
1.54674e-07
3.24117e-10
1.51201e-07
1.6774e-09
1.47522e-07
3.12753e-09
1.43611e-07
4.63132e-09
1.39441e-07
6.15152e-09
1.3498e-07
7.65795e-09
1.30196e-07
9.12831e-09
1.25056e-07
1.05488e-08
1.19523e-07
1.19146e-08
1.1356e-07
1.32302e-08
1.07126e-07
1.45095e-08
1.00182e-07
1.57764e-08
9.26829e-08
1.70645e-08
8.45871e-08
1.84178e-08
7.58513e-08
1.98904e-08
6.64338e-08
2.15468e-08
5.6296e-08
2.34615e-08
4.54048e-08
2.57187e-08
3.37349e-08
2.84108e-08
2.12732e-08
3.16364e-08
8.02269e-09
3.54991e-08
-5.99573e-09
4.01018e-08
-2.0737e-08
4.55409e-08
-3.61251e-08
5.18973e-08
-5.20479e-08
5.92284e-08
-6.83556e-08
6.75602e-08
-8.48638e-08
7.68808e-08
-1.01359e-07
8.71384e-08
-1.17609e-07
9.82422e-08
-1.33377e-07
1.10068e-07
-1.48436e-07
1.22465e-07
-1.62582e-07
1.35271e-07
-1.7565e-07
1.48319e-07
-1.87517e-07
1.6145e-07
-1.98104e-07
1.74523e-07
-2.07377e-07
-2.15341e-07
2.92303e-09
1.65119e-07
4.51597e-09
1.69605e-07
6.76702e-09
1.6707e-07
9.4454e-09
1.64131e-07
1.2455e-08
1.61027e-07
1.57378e-08
1.57799e-07
1.92437e-08
1.54456e-07
2.29244e-08
1.50993e-07
2.67321e-08
1.47393e-07
3.06206e-08
1.43633e-07
3.45465e-08
1.39685e-07
3.84705e-08
1.35517e-07
4.23587e-08
1.31092e-07
4.61833e-08
1.26372e-07
4.99237e-08
1.21316e-07
5.35669e-08
1.1588e-07
5.71082e-08
1.10019e-07
6.05516e-08
1.03683e-07
6.39099e-08
9.68233e-08
6.72054e-08
8.93874e-08
7.047e-08
8.13226e-08
7.37454e-08
7.25759e-08
7.70836e-08
6.30956e-08
8.05468e-08
5.28328e-08
8.42074e-08
4.17441e-08
8.81475e-08
2.97948e-08
9.24572e-08
1.69635e-08
9.72339e-08
3.24602e-09
1.0258e-07
-1.13419e-08
1.08596e-07
-2.6753e-08
1.15372e-07
-4.29009e-08
1.22977e-07
-5.9653e-08
1.31452e-07
-7.68302e-08
1.40798e-07
-9.42101e-08
1.50975e-07
-1.11536e-07
1.61897e-07
-1.28532e-07
1.7344e-07
-1.4492e-07
1.85448e-07
-1.60444e-07
1.97748e-07
-1.74882e-07
2.10162e-07
-1.88065e-07
2.22522e-07
-1.99877e-07
2.34678e-07
-2.1026e-07
2.46507e-07
-2.19206e-07
-2.26749e-07
8.10238e-09
1.57017e-07