/*--------------------------------*- C++ -*----------------------------------*\
  =========                 |
  \\      /  F ield         | OpenFOAM: The Open Source CFD Toolbox
   \\    /   O peration     | Website:  https://openfoam.org
    \\  /    A nd           | Version:  6
     \\/     M anipulation  |
\*---------------------------------------------------------------------------*/
FoamFile
{
    version     2.0;
    format      ascii;
    class       volVectorField;
    location    "0.08";
    object      U;
}
// * * * * * * * * * * * * * * * * * * * * * * * * * * * * * * * * * * * * * //

dimensions      [0 1 -1 0 0 0 0];

internalField   nonuniform List<vector> 
3032
(
(0.948757 -0.405568 0)
(1.01275 -0.190681 0)
(1.01493 -0.0514239 0)
(0.983804 -0.00519125 0)
(0.956087 0.00445597 0)
(0.938097 0.00414747 0)
(0.926399 0.00248197 0)
(0.918365 0.00135539 0)
(0.912648 0.000778127 0)
(0.908411 0.000485334 0)
(0.90516 0.0003115 0)
(0.90266 0.000184428 0)
(0.900806 7.05089e-05 0)
(0.899584 -4.9689e-05 0)
(0.898975 -0.000203519 0)
(0.899389 -0.000332426 0)
(0.899681 -0.000916656 0)
(0.908413 -0.00184858 0)
(1.03698 0.0761153 0)
(1.02004 0.0532914 0)
(1.01149 0.0193405 0)
(1.00463 0.00892129 0)
(0.998533 0.00658811 0)
(0.992126 0.00510654 0)
(0.985396 0.00380337 0)
(0.97938 0.00288957 0)
(0.974585 0.00228291 0)
(0.97087 0.00183929 0)
(0.967974 0.00148447 0)
(0.965734 0.00118193 0)
(0.96405 0.000899149 0)
(0.962884 0.000605581 0)
(0.962181 0.000245921 0)
(0.962306 -0.00018487 0)
(0.963011 -0.00148266 0)
(0.965389 -0.00340616 0)
(0.998332 0.0132036 0)
(0.995404 0.011908 0)
(1.00097 0.00631355 0)
(1.00226 0.00637393 0)
(1.00185 0.00681037 0)
(1.00029 0.00605256 0)
(0.997401 0.00491189 0)
(0.994088 0.00393989 0)
(0.991081 0.00318972 0)
(0.988576 0.00258961 0)
(0.986556 0.0020895 0)
(0.984989 0.00165208 0)
(0.983846 0.00123719 0)
(0.983121 0.000803526 0)
(0.982791 0.000270415 0)
(0.982998 -0.00044906 0)
(0.983531 -0.00190065 0)
(0.984393 -0.00424079 0)
(0.995105 -0.00696415 0)
(0.992537 0.0011889 0)
(0.998772 0.00380808 0)
(1.00119 0.0057461 0)
(1.00226 0.00675381 0)
(1.0026 0.00641303 0)
(1.00172 0.00552215 0)
(1.00013 0.00463212 0)
(0.998447 0.00385726 0)
(0.99692 0.0031818 0)
(0.995635 0.00258396 0)
(0.994635 0.00203659 0)
(0.993937 0.00150161 0)
(0.993557 0.000933641 0)
(0.993484 0.000248946 0)
(0.993759 -0.000652497 0)
(0.994185 -0.00213454 0)
(0.994524 -0.00422314 0)
(0.996672 -0.00695964 0)
(0.993878 0.000740669 0)
(0.998239 0.00358036 0)
(1.00045 0.00528031 0)
(1.00201 0.00638398 0)
(1.00321 0.00635427 0)
(1.00346 0.00573237 0)
(1.003 0.00498867 0)
(1.00229 0.00425902 0)
(1.00154 0.00356605 0)
(1.00088 0.00291282 0)
(1.00037 0.00228545 0)
(1.00006 0.00165292 0)
(0.999981 0.000972419 0)
(1.00012 0.000169156 0)
(1.00047 -0.00084346 0)
(1.00087 -0.00228141 0)
(1.00104 -0.00410336 0)
(0.997831 -0.00417596 0)
(0.995217 0.00116555 0)
(0.998065 0.00326398 0)
(0.999971 0.00471442 0)
(1.00167 0.00583725 0)
(1.00324 0.00602649 0)
(1.00411 0.00563777 0)
(1.00439 0.00505093 0)
(1.00438 0.0043996 0)
(1.00424 0.00372704 0)
(1.00409 0.00305282 0)
(1.004 0.00237459 0)
(1.00403 0.00167014 0)
(1.00421 0.00090371 0)
(1.00453 1.6092e-05 0)
(1.00496 -0.00105633 0)
(1.00539 -0.00242626 0)
(1.00557 -0.00402798 0)
(0.998455 -0.00260697 0)
(0.996277 0.00103842 0)
(0.99815 0.00278245 0)
(0.999757 0.00412512 0)
(1.00141 0.00521969 0)
(1.00307 0.0055443 0)
(1.00428 0.00533492 0)
(1.00502 0.00488698 0)
(1.00549 0.00432064 0)
(1.0058 0.00368689 0)
(1.00606 0.00301379 0)
(1.00632 0.00230713 0)
(1.00663 0.00155325 0)
(1.00703 0.000725492 0)
(1.00752 -0.000218095 0)
(1.00805 -0.00131751 0)
(1.00855 -0.00261947 0)
(1.00883 -0.00405407 0)
(0.998889 -0.00177577 0)
(0.997188 0.00081883 0)
(0.998425 0.00235291 0)
(0.999751 0.00357695 0)
(1.00125 0.0045878 0)
(1.00288 0.00497743 0)
(1.00423 0.00489272 0)
(1.00524 0.00455455 0)
(1.00603 0.00406487 0)
(1.00667 0.00347438 0)
(1.00723 0.00281379 0)
(1.00777 0.00209379 0)
(1.00831 0.00130798 0)
(1.0089 0.000438997 0)
(1.00952 -0.000539283 0)
(1.01016 -0.00164702 0)
(1.01074 -0.00289277 0)
(1.01117 -0.00421434 0)
(0.999239 -0.00117271 0)
(0.997973 0.000703817 0)
(0.998791 0.00201601 0)
(0.999875 0.00308144 0)
(1.00121 0.00396965 0)
(1.00272 0.00436899 0)
(1.00409 0.00435903 0)
(1.00525 0.00409821 0)
(1.00624 0.00366904 0)
(1.0071 0.00311728 0)
(1.00788 0.00247254 0)
(1.00861 0.0017479 0)
(1.00934 0.000942508 0)
(1.01008 4.71817e-05 0)
(1.01082 -0.000951437 0)
(1.01154 -0.00205917 0)
(1.01222 -0.00326574 0)
(1.0128 -0.0045226 0)
(0.999508 -0.000698099 0)
(0.99862 0.000659523 0)
(0.999175 0.0017417 0)
(1.00007 0.00263294 0)
(1.00123 0.00337911 0)
(1.00261 0.0037467 0)
(1.00394 0.00376862 0)
(1.00515 0.00355352 0)
(1.00624 0.00316528 0)
(1.00724 0.00264247 0)
(1.00816 0.0020114 0)
(1.00904 0.00128568 0)
(1.0099 0.000468292 0)
(1.01074 -0.000443632 0)
(1.01157 -0.00145431 0)
(1.01238 -0.00256077 0)
(1.01315 -0.0037461 0)
(1.01385 -0.00497658 0)
(0.999698 -0.000357217 0)
(0.999126 0.000631237 0)
(0.999533 0.00150078 0)
(1.00029 0.00222152 0)
(1.00131 0.00281985 0)
(1.00254 0.00312637 0)
(1.0038 0.00314533 0)
(1.005 0.00294749 0)
(1.00614 0.00258009 0)
(1.0072 0.00207382 0)
(1.00821 0.0014507 0)
(1.00918 0.000723551 0)
(1.01011 -0.000102376 0)
(1.01103 -0.0010257 0)
(1.01192 -0.00204496 0)
(1.01279 -0.00315296 0)
(1.01363 -0.00433296 0)
(1.01442 -0.00556439 0)
(0.999816 -0.000151725 0)
(0.999471 0.000596655 0)
(0.999814 0.00129307 0)
(1.00048 0.00186792 0)
(1.00139 0.00233386 0)
(1.00251 0.00256776 0)
(1.00368 0.00256033 0)
(1.00485 0.00235705 0)
(1.00597 0.00199217 0)
(1.00706 0.00148951 0)
(1.0081 0.000866944 0)
(1.0091 0.000135887 0)
(1.01008 -0.000697578 0)
(1.01103 -0.00162988 0)
(1.01195 -0.00265693 0)
(1.01285 -0.00377058 0)
(1.01372 -0.00495691 0)
(1.01458 -0.00620468 0)
(0.999896 -2.43241e-05 0)
(0.999727 0.000547169 0)
(1.00004 0.00108949 0)
(1.00065 0.00152972 0)
(1.00147 0.00187033 0)
(1.00248 0.00202404 0)
(1.00357 0.00197575 0)
(1.00468 0.00175265 0)
(1.00578 0.00137826 0)
(1.00685 0.000870213 0)
(1.00789 0.000242453 0)
(1.0089 -0.000495363 0)
(1.00989 -0.00133714 0)
(1.01085 -0.00227832 0)
(1.01178 -0.00331382 0)
(1.01269 -0.004436 0)
(1.01358 -0.00563468 0)
(1.01445 -0.00690652 0)
(0.999953 4.89249e-05 0)
(0.999925 0.000464704 0)
(1.00024 0.000855149 0)
(1.00079 0.00115594 0)
(1.00154 0.00136333 0)
(1.00245 0.00142127 0)
(1.00345 0.00131331 0)
(1.00448 0.00105296 0)
(1.00552 0.000654691 0)
(1.00655 0.00013025 0)
(1.00756 -0.000510521 0)
(1.00855 -0.00126021 0)
(1.00952 -0.0021135 0)
(1.01046 -0.00306592 0)
(1.01138 -0.00411268 0)
(1.01227 -0.00524776 0)
(1.01315 -0.00646502 0)
(1.01401 -0.00776724 0)
(0.999988 6.82609e-05 0)
(1.00006 0.000337296 0)
(1.00037 0.000576764 0)
(1.0009 0.000735982 0)
(1.00158 0.000807054 0)
(1.00239 0.000757784 0)
(1.00329 0.000573841 0)
(1.00424 0.000259738 0)
(1.0052 -0.000176936 0)
(1.00616 -0.000729442 0)
(1.00711 -0.0013918 0)
(1.00804 -0.0021591 0)
(1.00896 -0.00302744 0)
(1.00985 -0.00399335 0)
(1.01071 -0.00505323 0)
(1.01155 -0.00620316 0)
(1.01237 -0.00744039 0)
(1.01317 -0.00877147 0)
(1.00001 4.09459e-05 0)
(1.00013 0.000160838 0)
(1.00045 0.000245873 0)
(1.00094 0.000260974 0)
(1.00156 0.00019596 0)
(1.00228 3.32704e-05 0)
(1.00309 -0.000237798 0)
(1.00393 -0.000617722 0)
(1.00479 -0.00110381 0)
(1.00566 -0.00169321 0)
(1.00652 -0.00238322 0)
(1.00736 -0.00317141 0)
(1.00818 -0.00405564 0)
(1.00898 -0.00503391 0)
(1.00975 -0.00610417 0)
(1.01049 -0.00726438 0)
(1.0112 -0.00851401 0)
(1.01189 -0.00986081 0)
(1.00001 -2.06686e-05 0)
(1.00015 -6.1248e-05 0)
(1.00046 -0.000137706 0)
(1.0009 -0.000271556 0)
(1.00146 -0.000472304 0)
(1.0021 -0.000750226 0)
(1.00281 -0.00111304 0)
(1.00354 -0.00156372 0)
(1.00429 -0.00210296 0)
(1.00504 -0.00273096 0)
(1.00578 -0.00344766 0)
(1.0065 -0.00425285 0)
(1.00719 -0.00514614 0)
(1.00786 -0.006127 0)
(1.00849 -0.0071947 0)
(1.00908 -0.00834838 0)
(1.00963 -0.00958836 0)
(1.01015 -0.0109216 0)
(1.00001 -0.000102268 0)
(1.00015 -0.000316503 0)
(1.00042 -0.00056297 0)
(1.00081 -0.000852069 0)
(1.0013 -0.00118931 0)
(1.00185 -0.00158119 0)
(1.00245 -0.00203367 0)
(1.00307 -0.00255105 0)
(1.0037 -0.00313667 0)
(1.00431 -0.00379332 0)
(1.00491 -0.00452332 0)
(1.00547 -0.00532843 0)
(1.006 -0.00620984 0)
(1.00649 -0.00716824 0)
(1.00694 -0.00820379 0)
(1.00734 -0.00931617 0)
(1.00769 -0.0105056 0)
(1.00799 -0.0117773 0)
(1.00001 -0.000188949 0)
(1.00011 -0.000583551 0)
(1.00033 -0.00100793 0)
(1.00066 -0.00145762 0)
(1.00106 -0.0019308 0)
(1.00153 -0.00243092 0)
(1.00202 -0.00296233 0)
(1.00253 -0.0035302 0)
(1.00303 -0.00414041 0)
(1.0035 -0.00479858 0)
(1.00394 -0.0055095 0)
(1.00434 -0.00627694 0)
(1.00469 -0.00710372 0)
(1.00498 -0.00799169 0)
(1.00522 -0.00894177 0)
(1.0054 -0.00995405 0)
(1.00552 -0.0110285 0)
(1.00557 -0.0121682 0)
(1 -0.000237447 0)
(1.00003 -0.000765292 0)
(1.00017 -0.00134172 0)
(1.00043 -0.00192938 0)
(1.00078 -0.00251718 0)
(1.00119 -0.00310437 0)
(1.00163 -0.00369034 0)
(1.00207 -0.00427981 0)
(1.0025 -0.00488171 0)
(1.00288 -0.00550513 0)
(1.00322 -0.00615784 0)
(1.00349 -0.00684619 0)
(1.00371 -0.0075751 0)
(1.00385 -0.00834807 0)
(1.00392 -0.00916727 0)
(1.00392 -0.0100336 0)
(1.00384 -0.0109474 0)
(1.0037 -0.0119107 0)
(0.999976 -0.000208243 0)
(0.999872 -0.000815902 0)
(0.999908 -0.00153268 0)
(1.00012 -0.00224584 0)
(1.00045 -0.00294008 0)
(1.00086 -0.00360721 0)
(1.00131 -0.00423559 0)
(1.00175 -0.00483033 0)
(1.00216 -0.00540622 0)
(1.00252 -0.00597749 0)
(1.0028 -0.00655593 0)
(1.003 -0.00715138 0)
(1.00312 -0.00777163 0)
(1.00315 -0.00842231 0)
(1.0031 -0.00910714 0)
(1.00296 -0.00982822 0)
(1.00274 -0.0105865 0)
(1.00244 -0.0113835 0)
(0.999906 -5.04355e-05 0)
(0.999524 -0.000726777 0)
(0.999432 -0.00162737 0)
(0.999636 -0.00249364 0)
(1.00001 -0.00332331 0)
(1.00049 -0.00408685 0)
(1.00103 -0.00475339 0)
(1.00154 -0.00533619 0)
(1.00198 -0.0058634 0)
(1.00233 -0.00635799 0)
(1.00258 -0.00683807 0)
(1.00271 -0.00731873 0)
(1.00274 -0.00781163 0)
(1.00266 -0.008325 0)
(1.00248 -0.00886431 0)
(1.0022 -0.00943277 0)
(1.00183 -0.0100319 0)
(1.00138 -0.0106632 0)
(0.999757 0.000291225 0)
(0.998882 -0.000524233 0)
(0.998684 -0.00168128 0)
(0.998982 -0.00273706 0)
(0.999496 -0.00374718 0)
(1.00016 -0.00462254 0)
(1.00086 -0.00530754 0)
(1.00148 -0.00584401 0)
(1.00196 -0.00628584 0)
(1.00229 -0.00666904 0)
(1.00247 -0.00702057 0)
(1.00251 -0.00736225 0)
(1.0024 -0.00771001 0)
(1.00217 -0.0080744 0)
(1.00183 -0.00846202 0)
(1.00138 -0.00887664 0)
(1.00084 -0.00931984 0)
(1.00021 -0.00979257 0)
(0.999506 0.000935295 0)
(0.997845 -0.000299608 0)
(0.997676 -0.00181845 0)
(0.99824 -0.00307679 0)
(0.99903 -0.00429718 0)
(0.999983 -0.00526897 0)
(1.0009 -0.00591776 0)
(1.00161 -0.00634706 0)
(1.00207 -0.00664989 0)
(1.00231 -0.00687806 0)
(1.00234 -0.00706837 0)
(1.00219 -0.00724931 0)
(1.00187 -0.00743978 0)
(1.00142 -0.00765093 0)
(1.00085 -0.00788894 0)
(1.00018 -0.0081568 0)
(0.99941 -0.00845511 0)
(0.998566 -0.00878361 0)
(0.998976 0.00252125 0)
(0.996195 0.000128625 0)
(0.996497 -0.00208671 0)
(0.997618 -0.00360695 0)
(0.998811 -0.00503849 0)
(1.00011 -0.00603324 0)
(1.00121 -0.00654566 0)
(1.0019 -0.00678151 0)
(1.00219 -0.00688107 0)
(1.00217 -0.00691053 0)
(1.0019 -0.00691419 0)
(1.00143 -0.0069239 0)
(1.00078 -0.00695782 0)
(1.00001 -0.0070244 0)
(0.999133 -0.00712687 0)
(0.998168 -0.00726569 0)
(0.997131 -0.00743923 0)
(0.996035 -0.00764531 0)
(0.997453 0.00613563 0)
(0.993406 0.00147799 0)
(0.995223 -0.0021494 0)
(0.997403 -0.00426116 0)
(0.9991 -0.00594318 0)
(1.00069 -0.00683576 0)
(1.00177 -0.00707583 0)
(1.00215 -0.00702128 0)
(1.00199 -0.00685894 0)
(1.00146 -0.00666209 0)
(1.00067 -0.00647489 0)
(0.999688 -0.00632489 0)
(0.998577 -0.00622318 0)
(0.997376 -0.00617106 0)
(0.99611 -0.00616607 0)
(0.994796 -0.00620456 0)
(0.993442 -0.00628197 0)
(0.992061 -0.0063937 0)
(0.994436 0.00858363 0)
(0.989418 0.00227828 0)
(0.994031 -0.00199754 0)
(0.997844 -0.00488754 0)
(1.00011 -0.00684989 0)
(1.0017 -0.00747524 0)
(1.00228 -0.00729863 0)
(1.00183 -0.00687797 0)
(1.00075 -0.00643108 0)
(0.999333 -0.00602043 0)
(0.99774 -0.00567534 0)
(0.996054 -0.00540795 0)
(0.994332 -0.00521519 0)
(0.992604 -0.00508748 0)
(0.990882 -0.00501514 0)
(0.989169 -0.00499016 0)
(0.987467 -0.00500547 0)
(0.985781 -0.00505365 0)
(0.994524 -0.00666234 0)
(0.98946 -0.00856017 0)
(0.995391 -0.00534783 0)
(0.999804 -0.00630521 0)
(1.00201 -0.00773121 0)
(1.0027 -0.00772588 0)
(1.00168 -0.00698251 0)
(0.999439 -0.00617739 0)
(0.996721 -0.00549576 0)
(0.99394 -0.00494673 0)
(0.991234 -0.00452168 0)
(0.988646 -0.00420767 0)
(0.986187 -0.00398468 0)
(0.983852 -0.00383248 0)
(0.981622 -0.00373561 0)
(0.97948 -0.00368373 0)
(0.977412 -0.00366969 0)
(0.975408 -0.00368075 0)
(1.02649 -0.0702334 0)
(1.01708 -0.0624103 0)
(1.01178 -0.0292531 0)
(1.00831 -0.0149274 0)
(1.00535 -0.0104093 0)
(1.00128 -0.00794826 0)
(0.995773 -0.00610761 0)
(0.989862 -0.00486261 0)
(0.984421 -0.00406314 0)
(0.979675 -0.00352734 0)
(0.975528 -0.00315307 0)
(0.97185 -0.00289126 0)
(0.968542 -0.00271053 0)
(0.965527 -0.00258767 0)
(0.962738 -0.00250747 0)
(0.960127 -0.00246247 0)
(0.957663 -0.0024514 0)
(0.955332 -0.00249571 0)
(0.966188 0.350229 0)
(1.0269 0.194262 0)
(1.03263 0.0679029 0)
(1.00438 0.015238 0)
(0.975979 -0.00130778 0)
(0.955737 -0.00437282 0)
(0.941623 -0.00367192 0)
(0.931341 -0.00254067 0)
(0.9236 -0.00174328 0)
(0.917516 -0.00127422 0)
(0.912461 -0.00101126 0)
(0.908065 -0.000866053 0)
(0.904126 -0.000787563 0)
(0.900525 -0.000747303 0)
(0.897175 -0.000729956 0)
(0.894013 -0.000729856 0)
(0.890978 -0.000743075 0)
(0.888024 -0.000819645 0)
(0.00597013 -0.023907 -2.43887e-21)
(0.0147959 -0.0099745 2.29276e-21)
(0.0111406 0.00651601 0)
(0.000369589 0.0156946 0)
(-0.0140331 0.019597 0)
(-0.030507 0.0213485 -2.00668e-21)
(-0.0483161 0.0223229 0)
(-0.0670426 0.0230037 0)
(-0.0864324 0.0235358 0)
(-0.106296 0.023939 0)
(-0.126463 0.0241911 1.73531e-21)
(-0.14676 0.0242624 0)
(-0.167012 0.0241286 0)
(-0.18704 0.0237757 0)
(-0.206668 0.0232001 0)
(-0.225728 0.0224074 1.64365e-21)
(-0.244062 0.0214104 0)
(-0.261526 0.020227 0)
(-0.277993 0.0188774 0)
(-0.29335 0.017383 0)
(-0.307502 0.0157647 0)
(-0.320366 0.0140421 0)
(-0.331872 0.0122335 0)
(-0.341963 0.0103558 1.51693e-21)
(-0.350589 0.00842658 -1.48659e-21)
(-0.357708 0.00646589 1.45136e-21)
(-0.363295 0.00449908 1.41091e-21)
(-0.367333 0.00256362 0)
(-0.369791 0.000717479 0)
(-0.37063 -0.000981972 -1.25363e-21)
(-0.369988 -0.00251715 -1.18621e-21)
(-0.368014 -0.00392877 0)
(-0.36473 -0.00526838 0)
(-0.360175 -0.00655914 -9.41454e-22)
(-0.354379 -0.00781065 0)
(-0.34737 -0.00902598 0)
(-0.339175 -0.0102048 6.3091e-22)
(-0.329825 -0.0113448 0)
(-0.319355 -0.0124429 3.87223e-22)
(-0.307805 -0.0134955 5.09209e-22)
(-0.295223 -0.014499 0)
(-0.281657 -0.0154499 0)
(-0.267164 -0.016345 0)
(-0.251806 -0.017181 0)
(-0.00947153 -0.0189712 6.56314e-21)
(-0.0148381 0.00828409 -5.16288e-21)
(-0.0258544 0.0275432 0)
(-0.0399823 0.041043 2.55995e-21)
(-0.056081 0.0496704 0)
(-0.073757 0.0549394 1.16199e-21)
(-0.0926306 0.0580874 -2.19109e-21)
(-0.11223 0.0598828 -2.12833e-21)
(-0.132124 0.0607461 0)
(-0.151963 0.0608906 -2.05038e-21)
(-0.171466 0.0604227 -1.03477e-21)
(-0.190412 0.0594031 0)
(-0.208622 0.0578782 0)
(-0.225957 0.0558941 0)
(-0.242308 0.0535012 0)
(-0.257596 0.0507537 -1.01446e-21)
(-0.271767 0.0477078 0)
(-0.284785 0.0444189 2.01003e-21)
(-0.296631 0.0409393 0)
(-0.307298 0.0373167 0)
(-0.316791 0.0335925 -1.98747e-21)
(-0.32512 0.0298023 0)
(-0.332301 0.0259754 1.94734e-21)
(-0.338355 0.0221356 -9.50712e-22)
(-0.343306 0.018302 9.29978e-22)
(-0.347182 0.0144909 -9.0562e-22)
(-0.350014 0.010718 -8.7757e-22)
(-0.351833 0.00700437 0)
(-0.352673 0.00338323 0)
(-0.352578 -0.000102944 7.69494e-22)
(-0.351488 -0.00343637 -7.79465e-22)
(-0.349274 -0.00663453 0)
(-0.345909 -0.00971978 0)
(-0.341379 -0.0127044 5.63719e-22)
(-0.335682 -0.0155909 0)
(-0.328828 -0.0183761 0)
(-0.320837 -0.021053 -3.6926e-22)
(-0.311733 -0.0236126 0)
(-0.301548 -0.0260452 3.3622e-22)
(-0.290321 -0.0283406 -2.90454e-22)
(-0.278093 -0.0304895 0)
(-0.264916 -0.032483 0)
(-0.250841 -0.0343135 1.31776e-22)
(-0.235929 -0.0359745 4.67033e-22)
(-0.0168247 0.0130015 -1.95384e-22)
(-0.0284328 0.040016 5.63458e-21)
(-0.042861 0.0588094 0)
(-0.0585364 0.0728825 -3.87005e-21)
(-0.0744373 0.0829636 0)
(-0.0905528 0.0897388 0)
(-0.106978 0.0939098 -2.19551e-23)
(-0.123607 0.0960666 1.54986e-21)
(-0.140238 0.0966536 1.54235e-21)
(-0.156666 0.095987 1.49403e-21)
(-0.172718 0.0942908 0)
(-0.188259 0.0917323 0)
(-0.203186 0.0884466 -1.49288e-21)
(-0.217429 0.0845515 -2.98181e-21)
(-0.230936 0.0801537 2.98079e-21)
(-0.243672 0.075351 0)
(-0.255614 0.0702321 2.97946e-21)
(-0.266743 0.0648761 -1.46552e-21)
(-0.277044 0.059352 0)
(-0.286506 0.0537183 2.95531e-21)
(-0.295115 0.0480239 1.44579e-21)
(-0.302856 0.0423086 -2.91044e-21)
(-0.309716 0.0366047 -1.41394e-21)
(-0.315676 0.0309383 0)
(-0.32072 0.0253308 2.78346e-21)
(-0.324828 0.0198002 2.72293e-21)
(-0.327978 0.0143615 0)
(-0.330144 0.00902627 2.57199e-21)
(-0.331291 0.00379906 0)
(-0.331383 -0.00132979 2.37377e-21)
(-0.330384 -0.00637255 1.07825e-21)
(-0.328273 -0.0113248 0)
(-0.325037 -0.0161726 0)
(-0.320673 -0.0208995 0)
(-0.315181 -0.025489 0)
(-0.30857 -0.0299236 0)
(-0.300858 -0.0341852 0)
(-0.292066 -0.0382554 1.13569e-21)
(-0.282225 -0.0421158 -1.33068e-21)
(-0.27137 -0.0457491 0)
(-0.259543 -0.0491389 0)
(-0.246792 -0.0522708 0)
(-0.23317 -0.0551323 -1.81942e-22)
(-0.218733 -0.0577134 -3.20474e-22)
(-0.0179869 0.0535979 -1.0729e-20)
(-0.0317759 0.0778847 -7.42299e-21)
(-0.047336 0.0939513 -3.85179e-21)
(-0.0634861 0.106198 -1.69473e-21)
(-0.0791135 0.115327 0)
(-0.0941765 0.121646 2.86273e-21)
(-0.108916 0.125489 -1.42383e-21)
(-0.123442 0.127212 0)
(-0.13775 0.127159 -1.25272e-21)
(-0.15179 0.125632 0)
(-0.165498 0.122887 2.54801e-21)
(-0.178817 0.119138 0)
(-0.191696 0.114562 1.21174e-21)
(-0.204094 0.109314 2.42151e-21)
(-0.215974 0.103522 -2.4223e-21)
(-0.227307 0.097299 0)
(-0.238062 0.0907415 -2.42537e-21)
(-0.24821 0.0839303 0)
(-0.257722 0.0769329 0)
(-0.266564 0.0698048 -2.4136e-21)
(-0.274705 0.062591 0)
(-0.282107 0.0553275 -8.09327e-23)
(-0.288735 0.048043 0)
(-0.29455 0.0407604 0)
(-0.299515 0.0334985 8.40628e-23)
(-0.30359 0.0262729 -2.23934e-21)
(-0.306735 0.0190972 -2.27171e-21)
(-0.308912 0.0119838 -2.11854e-21)
(-0.310082 0.00494293 0)
(-0.310212 -0.00201749 -4.00889e-21)
(-0.309277 -0.00888854 0)
(-0.307259 -0.0156555 -1.85262e-21)
(-0.304146 -0.0222974 0)
(-0.299932 -0.02879 0)
(-0.294618 -0.0351072 1.48652e-21)
(-0.288211 -0.0412215 0)
(-0.280726 -0.0471048 -1.20184e-21)
(-0.272183 -0.052729 1.18742e-22)
(-0.262612 -0.0580667 1.65767e-21)
(-0.252047 -0.0630922 -1.44738e-21)
(-0.240531 -0.0677817 0)
(-0.228111 -0.0721141 0)
(-0.214841 -0.0760718 -3.24918e-22)
(-0.200778 -0.0796404 0)
(-0.0170885 0.0965689 6.68396e-21)
(-0.0311683 0.11699 4.58709e-21)
(-0.0466511 0.129517 3.51059e-21)
(-0.0624495 0.138988 2.98106e-21)
(-0.0774913 0.146083 0)
(-0.0916677 0.150941 -5.13252e-21)
(-0.105217 0.153692 -1.26946e-22)
(-0.118316 0.154518 0)
(-0.131055 0.15364 0)
(-0.14347 0.151288 0)
(-0.155568 0.147685 -2.20063e-21)
(-0.167343 0.143031 0)
(-0.178777 0.137504 0)
(-0.189846 0.131258 0)
(-0.200526 0.124424 0)
(-0.210788 0.117115 0)
(-0.220598 0.109423 2.29177e-21)
(-0.229923 0.10143 2.2909e-21)
(-0.238723 0.0931988 0)
(-0.246959 0.0847837 0)
(-0.254588 0.0762279 -2.27482e-21)
(-0.261565 0.0675668 4.42642e-21)
(-0.267844 0.0588293 0)
(-0.273377 0.0500392 2.22157e-21)
(-0.278119 0.0412172 -2.09408e-21)
(-0.282022 0.0323817 0)
(-0.285041 0.02355 6.23833e-21)
(-0.287132 0.0147396 -4.12314e-21)
(-0.288255 0.00596833 4.00445e-21)
(-0.288375 -0.00274461 1.82494e-21)
(-0.287463 -0.0113775 0)
(-0.285499 -0.0199042 5.15504e-21)
(-0.282464 -0.0282937 0)
(-0.278352 -0.0365117 0)
(-0.273158 -0.0445213 -1.32294e-21)
(-0.266887 -0.052284 2.61162e-21)
(-0.259554 -0.059761 3.41958e-21)
(-0.251177 -0.0669133 -3.00866e-21)
(-0.241785 -0.0737037 -7.90343e-22)
(-0.231415 -0.0800969 1.2859e-21)
(-0.220109 -0.0860608 0)
(-0.207918 -0.0915674 0)
(-0.194897 -0.0965933 -1.99625e-22)
(-0.181107 -0.10112 0)
(-0.0155857 0.137869 0)
(-0.0290804 0.154619 -4.69917e-21)
(-0.0438133 0.163756 0)
(-0.0587294 0.170393 0)
(-0.0728757 0.175199 0)
(-0.0861002 0.178247 -1.46384e-22)
(-0.0985954 0.179573 -1.43878e-22)
(-0.110538 0.179253 -2.34075e-21)
(-0.122044 0.177412 0)
(-0.133186 0.174207 0)
(-0.14401 0.169803 0)
(-0.154538 0.164366 0)
(-0.164775 0.15805 0)
(-0.174714 0.150991 -4.39392e-21)
(-0.184339 0.14331 0)
(-0.193627 0.135111 4.39308e-21)
(-0.202548 0.126479 -2.08149e-21)
(-0.211067 0.117489 -2.08503e-21)
(-0.219146 0.108202 0)
(-0.226741 0.0986662 0)
(-0.233806 0.0889237 2.08372e-21)
(-0.240294 0.0790082 -2.07656e-21)
(-0.246153 0.0689485 0)
(-0.251333 0.0587695 -2.04768e-21)
(-0.255781 0.048494 4.26778e-21)
(-0.259447 0.0381441 0)
(-0.262279 0.027742 -3.91666e-21)
(-0.264231 0.0173119 3.82814e-21)
(-0.265257 0.00688039 -3.7237e-21)
(-0.265317 -0.003523 0)
(-0.264378 -0.0138651 0)
(-0.262412 -0.0241083 -3.26928e-21)
(-0.259397 -0.0342104 0)
(-0.255319 -0.044125 0)
(-0.250172 -0.0538032 2.88212e-21)
(-0.243958 -0.063194 -5.08697e-21)
(-0.23669 -0.0722458 -2.19461e-21)
(-0.228387 -0.0809077 4.07829e-21)
(-0.21908 -0.0891305 -1.86753e-21)
(-0.208805 -0.0968685 0)
(-0.197611 -0.10408 0)
(-0.18555 -0.11073 0)
(-0.172682 -0.116789 5.15455e-22)
(-0.159072 -0.122234 0)
(-0.0139079 0.175774 0)
(-0.026378 0.189441 4.5242e-21)
(-0.0399828 0.19561 0)
(-0.0536962 0.199656 6.11568e-21)
(-0.0667041 0.20225 5.4625e-21)
(-0.0788375 0.203457 -2.69254e-21)
(-0.0902415 0.203272 -2.55836e-21)
(-0.101069 0.201717 -2.46857e-21)
(-0.111433 0.198853 -4.52762e-21)
(-0.121417 0.194775 0)
(-0.131082 0.189598 0)
(-0.140465 0.183446 4.36767e-21)
(-0.149586 0.176438 0)
(-0.158453 0.168687 8.43057e-21)
(-0.167057 0.160294 0)
(-0.175384 0.151349 -4.10169e-21)
(-0.183408 0.141926 0)
(-0.191099 0.13209 0)
(-0.198419 0.121894 4.37245e-21)
(-0.205326 0.111382 0)
(-0.211775 0.100593 4.37676e-21)
(-0.217716 0.0895559 0)
(-0.223097 0.0782994 0)
(-0.227864 0.0668485 0)
(-0.231961 0.0552274 2.35581e-22)
(-0.235333 0.0434614 0)
(-0.237924 0.0315776 0)
(-0.239682 0.0196065 0)
(-0.240556 0.00758305 0)
(-0.2405 -0.00445343 0)
(-0.239473 -0.0164588 0)
(-0.237441 -0.0283834 -3.58816e-21)
(-0.234375 -0.0401722 0)
(-0.230258 -0.0517652 3.21099e-21)
(-0.225079 -0.0630988 2.19546e-22)
(-0.218838 -0.0741074 2.55311e-21)
(-0.211546 -0.0847244 0)
(-0.203226 -0.0948845 -2.0632e-21)
(-0.193908 -0.104525 1.80024e-21)
(-0.183635 -0.113588 0)
(-0.172458 -0.122021 0)
(-0.160437 -0.129781 0)
(-0.147639 -0.136831 0)
(-0.134133 -0.143145 0)
(-0.0121971 0.209726 1.49632e-20)
(-0.0233988 0.220861 0)
(-0.0356418 0.224488 0)
(-0.0479395 0.226248 -1.22121e-20)
(-0.0596122 0.226827 -5.23857e-21)
(-0.0704942 0.226298 -3.27547e-22)
(-0.0806932 0.224647 4.57772e-21)
(-0.0903348 0.221869 -2.93088e-22)
(-0.0995202 0.217987 4.29179e-21)
(-0.10833 0.213052 0)
(-0.116829 0.207136 0)
(-0.125061 0.200322 -4.1423e-21)
(-0.133057 0.192698 0)
(-0.140831 0.184349 -4.12997e-21)
(-0.148386 0.175353 0)
(-0.155712 0.16578 0)
(-0.162792 0.155693 0)
(-0.169599 0.145144 0)
(-0.176099 0.134175 -4.19857e-21)
(-0.182254 0.122823 0)
(-0.188019 0.11112 -4.22113e-21)
(-0.193344 0.0990931 0)
(-0.198178 0.0867656 0)
(-0.202463 0.0741617 -4.45274e-21)
(-0.206141 0.0613059 -4.18138e-21)
(-0.209152 0.0482251 -4.39389e-21)
(-0.211437 0.0349501 -4.34413e-21)
(-0.212936 0.0215169 0)
(-0.213593 0.0079679 -4.19629e-21)
(-0.213353 -0.005648 -4.07619e-21)
(-0.21217 -0.0192755 -3.93555e-21)
(-0.209999 -0.0328522 3.5315e-21)
(-0.206809 -0.0463083 0)
(-0.202573 -0.0595679 -3.16524e-21)
(-0.197279 -0.0725503 2.28265e-22)
(-0.190926 -0.0851721 2.95083e-21)
(-0.183523 -0.0973488 2.70141e-21)
(-0.175094 -0.108998 0)
(-0.165677 -0.120041 -2.16068e-21)
(-0.155319 -0.130405 0)
(-0.144078 -0.140026 0)
(-0.132023 -0.148852 2.54854e-21)
(-0.119227 -0.156839 1.93418e-21)
(-0.105771 -0.16396 0)
(-0.0104983 0.239502 -1.45641e-20)
(-0.0202648 0.248553 -1.08556e-20)
(-0.0309751 0.250008 0)
(-0.0416914 0.24978 6.17065e-21)
(-0.0518575 0.248569 0)
(-0.061324 0.246464 -3.20174e-22)
(-0.0701719 0.243455 5.0211e-21)
(-0.0785038 0.239526 4.53734e-21)
(-0.0864065 0.234677 0)
(-0.0939541 0.228929 4.58889e-21)
(-0.101209 0.222322 0)
(-0.108218 0.214905 0)
(-0.115017 0.206737 0)
(-0.121627 0.197874 4.48127e-21)
(-0.128056 0.188372 0)
(-0.134303 0.178283 0)
(-0.140355 0.16765 -4.52817e-21)
(-0.146192 0.156512 0)
(-0.151784 0.1449 0)
(-0.157096 0.132842 4.60201e-21)
(-0.162086 0.12036 0)
(-0.166705 0.107474 4.63959e-21)
(-0.170901 0.0942033 0)
(-0.174616 0.0805685 9.0465e-21)
(-0.177789 0.0665921 -4.63997e-21)
(-0.180357 0.0523009 -2.59074e-22)
(-0.182254 0.0377276 -2.61477e-22)
(-0.183414 0.0229126 4.52628e-21)
(-0.183773 0.00790482 4.18979e-21)
(-0.183271 -0.00723783 8.41239e-21)
(-0.181851 -0.0224486 -2.60612e-22)
(-0.179463 -0.0376509 0)
(-0.176065 -0.0527585 0)
(-0.171629 -0.0676767 7.31691e-21)
(-0.166135 -0.0823044 -3.19826e-21)
(-0.159582 -0.0965368 -2.96508e-21)
(-0.151982 -0.110268 -2.71495e-21)
(-0.143362 -0.123394 0)
(-0.133765 -0.135818 6.90442e-21)
(-0.123247 -0.147451 -4.12994e-21)
(-0.111877 -0.158215 -3.50871e-21)
(-0.0997327 -0.168047 -2.5563e-21)
(-0.0868991 -0.1769 -1.93836e-21)
(-0.0734652 -0.184742 0)
(-0.00881312 0.264936 0)
(-0.0169994 0.272261 1.07272e-20)
(-0.0260274 0.271861 0)
(-0.0350122 0.269912 6.92173e-21)
(-0.0435093 0.267131 0)
(-0.0513936 0.263625 5.23619e-21)
(-0.0587287 0.259392 -4.92341e-21)
(-0.0655982 0.254414 4.96971e-21)
(-0.0720768 0.248679 0)
(-0.0782309 0.242187 -4.48754e-21)
(-0.0841186 0.234954 0)
(-0.0897883 0.227003 0)
(-0.0952768 0.218366 0)
(-0.10061 0.209076 -4.39551e-21)
(-0.105802 0.199165 4.63289e-21)
(-0.110856 0.188665 0)
(-0.115766 0.177603 9.15248e-21)
(-0.120517 0.166 -4.72431e-21)
(-0.125084 0.153875 0)
(-0.129436 0.141243 -4.56443e-21)
(-0.133534 0.128117 0)
(-0.137331 0.114507 -4.62249e-21)
(-0.140775 0.100426 -4.89224e-21)
(-0.143808 0.0858873 -9.56396e-21)
(-0.146366 0.0709099 9.57156e-21)
(-0.148382 0.0555181 4.64474e-21)
(-0.149787 0.0397449 1.43919e-20)
(-0.150508 0.0236329 -4.57548e-21)
(-0.150473 0.00723698 9.57197e-21)
(-0.149614 -0.00937717 -1.37477e-20)
(-0.147864 -0.0261306 4.26691e-21)
(-0.145166 -0.0429314 0)
(-0.141471 -0.0596745 8.38671e-21)
(-0.136744 -0.0762433 -7.4583e-21)
(-0.130962 -0.0925121 -7.50073e-21)
(-0.124124 -0.10835 0)
(-0.116244 -0.123626 0)
(-0.107356 -0.13821 5.84373e-21)
(-0.0975111 -0.151982 -4.82895e-21)
(-0.0867767 -0.164835 8.78686e-21)
(-0.075234 -0.176676 7.48623e-21)
(-0.0629741 -0.187432 0)
(-0.0500944 -0.197051 0)
(-0.0366947 -0.205504 0)
(-0.00712258 0.285842 1.77303e-20)
(-0.0135804 0.291731 -1.22204e-20)
(-0.0207758 0.289745 0)
(-0.0278763 0.286313 -6.90256e-21)
(-0.0345393 0.282167 0)
(-0.0406689 0.277434 -5.75242e-21)
(-0.0463172 0.27212 0)
(-0.051554 0.26621 -4.9236e-21)
(-0.0564436 0.259686 0)
(-0.0610455 0.252536 4.87142e-21)
(-0.0654142 0.244757 0)
(-0.0695965 0.236351 0)
(-0.0736306 0.227329 0)
(-0.077545 0.217702 -4.7758e-21)
(-0.081358 0.207481 -4.60396e-21)
(-0.0850784 0.196678 0)
(-0.0887049 0.185302 -4.67498e-21)
(-0.0922274 0.173358 4.71929e-21)
(-0.0956266 0.16085 0)
(-0.0988749 0.14778 0)
(-0.101936 0.134147 0)
(-0.104767 0.119953 0)
(-0.107317 0.105198 4.9422e-21)
(-0.109527 0.0898885 4.97192e-21)
(-0.111333 0.0740365 -4.99129e-21)
(-0.112664 0.0576618 0)
(-0.113446 0.0407945 -9.97777e-21)
(-0.113601 0.0234784 1.04731e-20)
(-0.113051 0.00577203 -2.01933e-20)
(-0.111717 -0.0122514 9.60545e-21)
(-0.109526 -0.0305009 0)
(-0.10641 -0.048868 0)
(-0.102314 -0.0672259 -8.65702e-21)
(-0.0971956 -0.085432 0)
(-0.0910323 -0.103331 7.7558e-21)
(-0.0838216 -0.120761 -7.70646e-21)
(-0.0755837 -0.137559 0)
(-0.0663611 -0.153564 -1.25096e-20)
(-0.0562172 -0.168631 0)
(-0.045234 -0.18263 -4.7279e-21)
(-0.0335079 -0.195453 -4.03748e-21)
(-0.0211449 -0.207018 3.62707e-21)
(-0.00825683 -0.217275 0)
(0.00504573 -0.226195 0)
(-0.00539793 0.30198 -1.75473e-20)
(-0.00996133 0.306674 1.22247e-20)
(-0.0151613 0.303338 -9.39182e-21)
(-0.0202119 0.298635 0)
(-0.0248653 0.293315 0)
(-0.0290576 0.287521 -1.97579e-22)
(-0.0328344 0.281272 0)
(-0.0362544 0.274556 0)
(-0.0393741 0.267353 0)
(-0.0422473 0.259642 1.51627e-22)
(-0.0449247 0.251407 0)
(-0.0474516 0.242637 0)
(-0.0498664 0.23332 0)
(-0.0521992 0.223451 4.78821e-21)
(-0.0544715 0.213021 9.95817e-21)
(-0.056696 0.202024 0)
(-0.0588758 0.19045 0)
(-0.0610054 0.17829 0)
(-0.0630702 0.16553 1.04466e-20)
(-0.0650466 0.152157 1.05959e-20)
(-0.0669026 0.138157 -1.07466e-20)
(-0.0685973 0.123519 -1.08939e-20)
(-0.0700818 0.108231 0)
(-0.0712988 0.0922894 0)
(-0.0721833 0.0756962 0)
(-0.0726634 0.0584638 0)
(-0.0726607 0.0406177 0)
(-0.0720924 0.0222 5.42089e-22)
(-0.0708736 0.00327146 1.07643e-20)
(-0.0689189 -0.0160886 0)
(-0.0661462 -0.0357771 0)
(-0.0624797 -0.0556675 0)
(-0.0578572 -0.075608 0)
(-0.0522333 -0.0954249 0)
(-0.0455843 -0.114928 0)
(-0.0379115 -0.133917 8.0734e-21)
(-0.0292434 -0.152189 0)
(-0.0196352 -0.16955 6.77105e-21)
(-0.00916688 -0.185825 0)
(0.00206121 -0.20086 0)
(0.0139364 -0.214531 0)
(0.0263353 -0.226751 -3.70645e-21)
(0.0391335 -0.237469 0)
(0.05221 -0.246669 0)
(-0.00359865 0.313013 0)
(-0.00606777 0.316752 0)
(-0.00909527 0.312286 9.50347e-21)
(-0.0119159 0.306506 0)
(-0.0143711 0.30019 0)
(-0.0164327 0.293497 6.04375e-21)
(-0.0181427 0.286459 0)
(-0.0195518 0.279067 5.46358e-21)
(-0.0207102 0.271302 0)
(-0.0216671 0.263139 5.2617e-21)
(-0.0224699 0.254551 0)
(-0.0231618 0.245512 0)
(-0.0237805 0.236 0)
(-0.0243568 0.225988 0)
(-0.0249143 0.215454 -1.00901e-20)
(-0.0254679 0.204372 1.04512e-20)
(-0.0260244 0.192718 0)
(-0.0265819 0.180462 0)
(-0.0271295 0.167577 -1.06568e-20)
(-0.0276476 0.154035 -1.08326e-20)
(-0.0281076 0.139806 -3.54221e-22)
(-0.0284719 0.124864 1.11919e-20)
(-0.028694 0.109184 0)
(-0.0287184 0.0927506 0)
(-0.0284807 0.0755531 0)
(-0.0279084 0.0575946 0)
(-0.0269213 0.038893 0)
(-0.0254333 0.0194867 -2.43627e-20)