/*--------------------------------*- C++ -*----------------------------------*\
  =========                 |
  \\      /  F ield         | OpenFOAM: The Open Source CFD Toolbox
   \\    /   O peration     | Website:  https://openfoam.org
    \\  /    A nd           | Version:  6
     \\/     M anipulation  |
\*---------------------------------------------------------------------------*/
FoamFile
{
    version     2.0;
    format      ascii;
    class       volScalarField;
    location    "0.1";
    object      epsilon;
}
// * * * * * * * * * * * * * * * * * * * * * * * * * * * * * * * * * * * * * //

dimensions      [0 2 -3 0 0 0 0];

internalField   nonuniform List<scalar> 
12225
(
307.554
159.147
103.219
76.2026
60.9258
51.4013
44.9764
40.3333
36.788
33.9688
31.6604
29.7298
28.0897
26.6801
25.4584
24.3948
23.4867
22.7985
71.6105
59.7623
44.4177
34.3515
27.8075
23.3613
20.2124
17.8939
16.1223
14.7237
13.5896
12.6505
11.8593
11.1836
10.5994
10.089
9.64105
9.2377
33.6138
34.4048
29.29
24.3866
20.5372
17.6125
15.3847
13.6628
12.3057
11.2141
10.3195
9.57412
8.94435
8.40569
7.93994
7.53319
7.17509
6.85736
22.4946
24.1969
22.2218
19.5415
17.0653
14.9842
13.2856
11.9065
10.7808
9.85272
9.07877
8.42604
7.86971
7.39091
6.97515
6.61112
6.29029
6.00842
18.0525
19.1654
18.2258
16.5952
14.8966
13.3501
12.0124
10.878
9.92103
9.11215
8.42481
7.83678
7.33008
6.89031
6.506
6.168
5.86944
5.60766
15.9661
16.3998
15.7666
14.6426
13.396
12.1984
11.1163
10.1658
9.34098
8.62792
8.01103
7.47567
7.00904
6.60032
6.24052
5.92231
5.64022
5.39252
14.9029
14.7891
14.1891
13.3
12.3138
11.3431
10.4417
9.62962
8.90923
8.2747
7.71709
7.22682
6.79482
6.41301
6.07439
5.77313
5.5049
5.26866
14.3403
13.8258
13.1596
12.3647
11.5227
10.6959
9.91979
9.2102
8.57119
8.00042
7.49252
7.04103
6.63941
6.28153
5.96191
5.67591
5.42012
5.194
14.0386
13.2459
12.487
11.7142
10.9455
10.2061
9.51404
8.87821
8.30104
7.78086
7.31383
6.89518
6.5199
6.1832
5.88067
5.60855
5.36415
5.14727
13.8768
12.8994
12.0521
11.2675
10.5296
9.83963
9.20137
8.61666
8.08491
7.60364
7.16927
6.77771
6.42477
6.10644
5.81903
5.5594
5.32535
5.11694
13.7906
12.6957
11.7765
10.9669
10.2362
9.57096
8.96491
8.4139
7.91414
7.46169
7.05252
6.68259
6.34801
6.04517
5.77079
5.52212
5.29732
5.09654
13.7488
12.5882
11.6205
10.7867
10.0518
9.39534
8.80529
8.27335
7.79319
7.35945
6.96739
6.61269
6.29146
6.00018
5.73577
5.49568
5.27822
5.08358
13.7254
12.5235
11.5209
10.6659
9.92282
9.26826
8.68641
8.16614
7.69909
7.27862
6.89923
6.55623
6.24553
5.96362
5.70745
5.47458
5.26342
5.07411
13.7116
12.4831
11.4547
10.581
9.82796
9.17101
8.59235
8.07888
7.62066
7.20991
6.84036
6.50684
6.20502
5.93124
5.68243
5.45615
5.25084
5.06659
13.7045
12.4608
11.416
10.5285
9.76623
9.10486
8.52589
8.01519
7.56181
7.15714
6.79427
6.46759
6.17248
5.90508
5.66223
5.44145
5.24115
5.06128
13.7012
12.4503
11.3967
10.5007
9.73181
9.06621
8.48542
7.97499
7.52351
7.12189
6.76282
6.44035
6.14963
5.88661
5.64803
5.4313
5.23478
5.0583
13.7
12.4462
11.3887
10.4886
9.71607
9.04769
8.46521
7.95416
7.50301
7.10251
6.74515
6.4248
6.13644
5.87592
5.63987
5.42565
5.23153
5.05726
13.6996
12.4449
11.3862
10.4848
9.71087
9.04131
8.45797
7.94644
7.49518
7.0949
6.73804
6.41841
6.13092
5.87138
5.63635
5.42318
5.2301
5.05677
13.6997
12.4453
11.387
10.4859
9.71232
9.04303
8.45984
7.94834
7.49699
7.09652
6.73938
6.41939
6.1315
5.8715
5.636
5.42233
5.22875
5.05493
13.701
12.4493
11.3946
10.4975
9.7274
9.06081
8.47931
7.96844
7.51677
7.11516
6.75624
6.43402
6.14356
5.88081
5.64245
5.4259
5.22948
5.05302
13.7054
12.4634
11.4201
10.5335
9.77169
9.11026
8.5309
8.01958
7.56543
7.15989
6.79609
6.46843
6.17228
5.90382
5.65986
5.43794
5.23646
5.05542
13.7204
12.5081
11.4949
10.6317
9.88416
9.22835
8.64768
8.13013
7.66661
7.24997
6.87433
6.5348
6.22719
5.94791
5.69394
5.46282
5.25302
5.06469
13.767
12.6331
11.6843
10.8597
10.1263
9.46674
8.87079
8.33166
7.84391
7.40268
7.0035
6.64217
6.31482
6.01794
5.74839
5.50358
5.28181
5.08331
13.9007
12.9463
12.1088
11.3255
10.5846
9.88989
9.24622
8.65602
8.11895
7.63266
7.1936
6.79766
6.44065
6.11853
5.82758
5.56463
5.32748
5.11626
14.2608
13.666
12.9744
12.1893
11.3724
10.5739
9.82362
9.13541
8.51314
7.95502
7.45642
7.0116
6.61464
6.25989
5.94226
5.65742
5.40222
5.17633
15.1942
15.2322
14.6353
13.6944
12.6461
11.6176
10.6668
9.81385
9.06017
8.39868
7.8192
7.31112
6.86451
6.47061
6.1219
5.81215
5.53676
5.29461
17.6338
18.6182
17.7651
16.2586
14.6632
13.1883
11.8955
10.7877
9.84578
9.04506
8.36187
7.77571
7.26959
6.82971
6.44496
6.10653
5.80784
5.54664
24.7059
26.4235
23.9022
20.7816
17.9994
15.7029
13.8499
12.3594
11.1526
10.1648
9.34612
8.65925
8.07632
7.57638
7.1436
6.76589
6.43433
6.14509
51.9671
47.7369
37.7993
30.1736
24.76
20.8765
18.0339
15.9035
14.2642
12.9693
11.922
11.0579
10.3325
9.71491
9.18269
8.71947
8.31326
7.95813
251.832
137.369
90.7951
67.1438
53.3268
44.5475
38.6004
34.3348
31.1194
28.595
26.5488
24.8489
23.4093
22.1719
21.0956
20.1502
19.3134
18.5706
0.136341
0.148083
0.215014
0.297107
0.390479
0.475217
0.556689
0.638122
0.720867
0.806028
0.894408
0.986441
1.08223
1.18163
1.28434
1.38996
1.49807
1.60824
1.72006
1.83314
1.94716
2.06182
2.17685
2.29205
2.40724
2.52229
2.63715
2.7518
2.86634
2.98099
3.0962
3.21268
3.33163
3.45496
3.57833
3.69878
3.81609
3.92991
4.03971
4.14489
4.24475
4.33861
4.42573
4.50539
4.57689
4.63957
4.69283
4.73615
4.76908
4.7913
4.80257
4.80281
4.79202
4.77036
4.73809
4.69559
4.64336
4.58201
4.51232
4.43534
4.35264
4.26692
4.18288
4.10699
4.04351
3.98314
3.9207
3.85536
3.78719
3.71648
3.64357
3.56882
3.49259
3.4152
3.33698
3.25823
3.17924
3.10028
3.02161
2.94349
2.86614
2.78979
2.71466
2.64095
2.56885
2.49855
2.43021
2.36399
2.30003
2.23845
2.17935
2.12284
2.06897
2.01779
1.96935
1.92364
1.88067
1.8404
1.8028
1.76781
1.73534
1.70533
1.67767
1.65226
1.62898
1.60773
1.58838
1.5708
1.55486
1.54037
1.52727
1.51574
1.50557
1.49659
1.48867
1.48169
1.47557
1.47021
1.46554
1.46148
1.45797
1.45495
1.45237
1.45019
1.44837
1.44686
1.44564
1.44468
1.44395
1.44343
1.4431
1.44294
1.44293
1.44306
1.44332
1.44369
1.44416
1.44473
1.44538
1.44612
1.44692
1.44779
1.44872
1.4497
1.45074
1.45182
1.45294
1.45411
1.45531
1.45654
1.4578
1.4591
1.46042
1.46176
1.46312
1.46451
1.46591
1.46732
1.46874
1.47017
1.4716
1.47303
1.47444
1.47584
1.4772
1.47852
1.47977
1.48092
1.48194
1.48277
1.48335
1.48357
1.48328
1.48224
1.48007
1.47612
1.46919
1.45684
1.4346
1.39368
0.530434
0.333993
0.347796
0.396057
0.459408
0.525786
0.589323
0.64797
0.701757
0.751531
0.798236
0.84265
0.885345
0.926725
0.96707
1.00658
1.0454
1.08363
1.12135
1.15861
1.19548
1.23197
1.26814
1.30402
1.33966
1.37511
1.41044
1.44574
1.48114
1.5168
1.55293
1.58981
1.62776
1.66716
1.7079
1.74833
1.78803
1.82678
1.86438
1.90058
1.93514
1.96779
1.99827
2.0263
2.0516
2.07393
2.09302
2.10866
2.12066
2.12885
2.13314
2.13344
2.12973
2.12205
2.11046
2.0951
2.07616
2.05389
2.02859
2.00067
1.97063
1.93914
1.9069
1.87449
1.84279
1.81104
1.77848
1.74499
1.71062
1.67552
1.63984
1.60372
1.5673
1.53073
1.49413
1.45761
1.4213
1.38529
1.34968
1.31456
1.28002
1.24615
1.21301
1.18067
1.14921
1.11867
1.08913
1.06062
1.03319
1.00687
0.981702
0.9577
0.934884
0.913261
0.892833
0.873596
0.855537
0.838637
0.822872
0.808211
0.794618
0.782055
0.770477
0.759838
0.75009
0.741184
0.733068
0.72569
0.719
0.712946
0.707504
0.702731
0.698545
0.694828
0.691526
0.688598
0.686004
0.683712
0.681692
0.679916
0.678358
0.676997
0.675812
0.674784
0.673897
0.673137
0.672491
0.671947
0.671496
0.671127
0.670832
0.670605
0.670439
0.670329
0.670268
0.670252
0.670278
0.670342
0.670439
0.670568
0.670725
0.670908
0.671115
0.671345
0.671594
0.671862
0.672146
0.672447
0.672762
0.673091
0.673432
0.673785
0.674149
0.674523
0.674906
0.675297
0.675697
0.676104
0.676517
0.676937
0.677362
0.677792
0.678225
0.678662
0.6791
0.679538
0.679975
0.680409
0.680836
0.681254
0.681659
0.682049
0.682421
0.68278
0.683148
0.683595
0.684329
0.68592
0.690106
0.702526
1.05878
0.540662
0.490196
0.50564
0.542937
0.58822
0.634323
0.677621
0.716894
0.752272
0.78442
0.81409
0.841925
0.868415
0.893911
0.918655
0.942813
0.966504
0.98982
1.01284
1.03564
1.0583
1.08091
1.10355
1.12633
1.14935
1.1727
1.1965
1.22084
1.24584
1.27157
1.29812
1.32554
1.35383
1.38274
1.41183
1.44088
1.46969
1.49808
1.52585
1.55278
1.57863
1.60317
1.62613
1.64726
1.6663
1.68303
1.69721
1.70865
1.71718
1.72266
1.725
1.72416
1.72012
1.71292
1.70267
1.68947
1.67352
1.65502
1.63422
1.61142
1.58691
1.56098
1.53397
1.5066
1.47864
1.44998
1.42068
1.39083
1.36055
1.32997
1.29923
1.26843
1.23769
1.20709
1.17674
1.14672
1.1171
1.08796
1.05935
1.03133
1.00396
0.977289
0.951361
0.926218
0.901897
0.878431
0.85585
0.834178
0.813436
0.793638
0.774797
0.756918
0.740001
0.724042
0.709033
0.694959
0.681801
0.669538
0.658142
0.647583
0.637828
0.628841
0.620586
0.613022
0.606111
0.599811
0.594083
0.588888
0.584186
0.579947
0.57615
0.57277
0.569774
0.56711
0.564742
0.562639
0.560774
0.559122
0.55766
0.556369
0.55523
0.554227
0.553346
0.552574
0.551899
0.551311
0.550801
0.55036
0.549982
0.54966
0.549388
0.549162
0.548976
0.548827
0.548711
0.548625
0.548566
0.548532
0.54852
0.548528
0.548555
0.548598
0.548657
0.54873
0.548815
0.548912
0.549019
0.549136
0.549262
0.549397
0.549539
0.549687
0.549842
0.550003
0.55017
0.550341
0.550516
0.550696
0.55088
0.551067
0.551257
0.551449
0.551643
0.551839
0.552036
0.552234
0.55243
0.552626
0.552819
0.553009
0.553196
0.553381
0.553573
0.553789
0.554079
0.55457
0.555604
0.558069
0.56444
1.51085
0.704927
0.600831
0.588944
0.604826
0.631969
0.66312
0.694417
0.724026
0.751371
0.776535
0.799865
0.821748
0.842519
0.862442
0.881713
0.900483
0.918871
0.936982
0.954916
0.972774
0.990658
1.00867
1.02693
1.04554
1.0646
1.08422
1.10449
1.12549
1.14729
1.16993
1.19345
1.21784
1.24309
1.269
1.2954
1.32209
1.34891
1.37567
1.40218
1.42821
1.4535
1.47782
1.50087
1.52238
1.54208
1.5597
1.57498
1.58771
1.59768
1.60474
1.60878
1.60972
1.60755
1.60229
1.59401
1.58283
1.56889
1.5524
1.53354
1.51257
1.4897
1.46517
1.43959
1.41318
1.38598
1.3581
1.32964
1.30073
1.27152
1.24213
1.21268
1.18328
1.15403
1.12503
1.09635
1.06807
1.04025
1.01295
0.98622
0.960108
0.934657
0.909907
0.885891
0.862642
0.840187
0.818552
0.797757
0.777822
0.758759
0.74058
0.723292
0.706896
0.691391
0.676771
0.663027
0.650144
0.638103
0.626884
0.616461
0.606806
0.597887
0.589673
0.582128
0.575216
0.568901
0.563145
0.557911
0.553163
0.548866
0.544987
0.541496
0.538367
0.535575
0.533087
0.530871
0.528899
0.527145
0.525586
0.524202
0.522974
0.521884
0.520919
0.520064
0.519307
0.518639
0.518048
0.517528
0.517069
0.516666
0.516313
0.516004
0.515735
0.515501
0.5153
0.515127
0.51498
0.514856
0.514752
0.514668
0.514601
0.514549
0.514511
0.514485
0.514471
0.514467
0.514472
0.514486
0.514507
0.514536
0.51457
0.514611
0.514656
0.514706
0.51476
0.514819
0.51488
0.514945
0.515012
0.515082
0.515155
0.515228
0.515304
0.51538
0.515458
0.515535
0.515612
0.515689
0.515764
0.515837
0.515908
0.515977
0.516045
0.516117
0.516208
0.516351
0.516629
0.517251
0.51869
0.521983
1.85844
0.827733
0.680195
0.647035
0.647144
0.661051
0.68117
0.703628
0.726362
0.74838
0.76932
0.789152
0.807988
0.825987
0.843306
0.860086
0.876451
0.892518
0.908393
0.924186
0.940005
0.955959
0.97216
0.988717
1.00574
1.02333
1.04159
1.0606
1.08043
1.10116
1.12282
1.14543
1.169
1.19349
1.21881
1.24481
1.27135
1.29825
1.32535
1.35242
1.37924
1.40552
1.43099
1.45535
1.47828
1.49948
1.51864
1.53549
1.54975
1.56121
1.56969
1.57506
1.57724
1.57619
1.57193
1.56455
1.55414
1.54088
1.52494
1.50654
1.48589
1.46324
1.43907
1.41371
1.38734
1.36011
1.33219
1.30372
1.27486
1.24576
1.21656
1.18736
1.15829
1.12944
1.10089
1.07272
1.045
1.01778
0.991111
0.965041
0.93961
0.914853
0.890802
0.867485
0.844929
0.823156
0.802186
0.782037
0.762723
0.744257
0.726646
0.709895
0.694008
0.67898
0.664807
0.651479
0.638982
0.627301
0.616413
0.606295
0.596921
0.588262
0.580285
0.572957
0.566244
0.56011
0.554519
0.549436
0.544825
0.54065
0.536881
0.533484
0.530432
0.527697
0.525253
0.523072
0.521128
0.519396
0.517854
0.516481
0.515258
0.51417
0.513202
0.51234
0.511574
0.510891
0.510283
0.509742
0.50926
0.508831
0.508449
0.508108
0.507805
0.507534
0.507294
0.50708
0.50689
0.506721
0.50657
0.506437
0.50632
0.506215
0.506124
0.506043
0.505972
0.50591
0.505855
0.505808
0.505768
0.505733
0.505703
0.505678
0.505657
0.50564
0.505626
0.505615
0.505606
0.505599
0.505595
0.505592
0.50559
0.505589
0.505589
0.505589
0.505589
0.505588
0.505587
0.505584
0.505579
0.505571
0.50556
0.505545
0.505528
0.505511
0.505505
0.505533
0.505649
0.505985
0.506805
0.508584
2.12948
0.919023
0.73573
0.685849
0.674428
0.679018
0.691377
0.707524
0.72529
0.743483
0.761483
0.779016
0.795995
0.812435
0.8284
0.843974
0.85925
0.874324
0.889296
0.904268
0.919342
0.934624
0.950219
0.966234
0.982773
0.999935
1.01782
1.03651
1.05608
1.07661
1.09813
1.12069
1.14429
1.16893
1.19452
1.22096
1.24813
1.27586
1.30398
1.33226
1.36043
1.38823
1.41532
1.44138
1.46606
1.489
1.50987
1.52835
1.54414
1.55699
1.5667
1.57313
1.57618
1.57582
1.57208
1.56503
1.55482
1.54159
1.52558
1.50698
1.48605
1.46327
1.43894
1.41331
1.3866
1.359
1.33072
1.30194
1.27282
1.24351
1.21416
1.18488
1.15579
1.12697
1.0985
1.07047
1.04292
1.0159
0.989473
0.963663
0.938507
0.914034
0.890272
0.867243
0.844969
0.82347
0.802761
0.782857
0.763773
0.745516
0.728096
0.711518
0.695782
0.680888
0.666831
0.653603
0.641192
0.629581
0.618753
0.608686
0.599353
0.590727
0.582779
0.575475
0.568782
0.562665
0.55709
0.55202
0.54742
0.543257
0.539497
0.536107
0.533058
0.530321
0.52787
0.52568
0.523725
0.521981
0.520426
0.519038
0.517801
0.516698
0.515713
0.514834
0.514049
0.513346
0.512718
0.512155
0.51165
0.511196
0.510788
0.510421
0.510089
0.50979
0.509519
0.509273
0.50905
0.508847
0.508662
0.508493
0.508337
0.508195
0.508064
0.507942
0.50783
0.507726
0.507629
0.507538
0.507453
0.507372
0.507296
0.507224
0.507155
0.507089
0.507026
0.506964
0.506905
0.506847
0.50679
0.506734
0.506679
0.506624
0.506569
0.506513
0.506457
0.5064
0.506341
0.506279
0.506215
0.506146
0.506073
0.505995
0.505912
0.505825
0.505741
0.505676
0.505666
0.505793
0.506212
0.507168
2.33374
0.986185
0.773981
0.710739
0.690604
0.688469
0.695313
0.706937
0.72108
0.736444
0.752279
0.768169
0.783904
0.799398
0.814641
0.829665
0.844526
0.859296
0.874055
0.888889
0.90389
0.919149
0.934762
0.950828
0.967443
0.984706
1.00271
1.02155
1.0413
1.06204
1.08384
1.10673
1.13075
1.15589
1.18212
1.20935
1.23746
1.26632
1.29572
1.32544
1.35521
1.38471
1.41359
1.44148
1.468
1.49274
1.51532
1.53539
1.5526
1.5667
1.57745
1.58468
1.58832
1.58833
1.58475
1.57768
1.56728
1.55372
1.53726
1.51814
1.49685
1.47366
1.44886
1.42271
1.39547
1.36736
1.33861
1.30939
1.2799
1.25029
1.22069
1.19123
1.16201
1.13313
1.10465
1.07665
1.04917
1.02226
0.99596
0.970299
0.945304
0.921
0.897407
0.874545
0.85243
0.831077
0.810502
0.790715
0.77173
0.753554
0.736196
0.719661
0.703952
0.689068
0.675006
0.66176
0.649319
0.637671
0.626797
0.616678
0.607291
0.598609
0.590604
0.583244
0.576497
0.570329
0.564706
0.559592
0.554952
0.550751
0.546957
0.543537
0.54046
0.537696
0.535217
0.533
0.531019
0.529251
0.527672
0.526262
0.525004
0.52388
0.522875
0.521976
0.521171
0.520449
0.519801
0.519217
0.518692
0.518218
0.517788
0.517399
0.517045
0.516722
0.516427
0.516157
0.515908
0.515679
0.515467
0.51527
0.515087
0.514915
0.514754
0.514602
0.514459
0.514323
0.514193
0.514069
0.51395
0.513835
0.513724
0.513617
0.513512
0.513409
0.513308
0.513209
0.513112
0.513015
0.512919
0.512823
0.512727
0.512631
0.512534
0.512437
0.512338
0.512237
0.512134
0.512028
0.511917
0.511802
0.511681
0.511553
0.511418
0.511276
0.51113
0.510991
0.510882
0.510855
0.511004
0.511478
2.47922
1.03421
0.799534
0.725644
0.698721
0.691529
0.694313
0.702617
0.714073
0.727315
0.74152
0.756198
0.771065
0.785968
0.800842
0.815676
0.830493
0.845335
0.86026
0.875334
0.89063
0.906226
0.922204
0.93865
0.955653
0.973307
0.991705
1.01094
1.0311
1.05228
1.07454
1.09796
1.12256
1.14839
1.17541
1.20356
1.23276
1.26285
1.29364
1.32489
1.35632
1.38757
1.41827
1.44801
1.47634
1.50283
1.52704
1.54857
1.56706
1.5822
1.59375
1.60154
1.60549
1.60557
1.60186
1.59447
1.58359
1.56941
1.55235
1.53271
1.51083
1.48702
1.46158
1.4348
1.40696
1.37829
1.34902
1.31936
1.28949
1.25956
1.22973
1.2001
1.17078
1.14185
1.11338
1.08543
1.05805
1.03126
1.00511
0.979612
0.954793
0.930668
0.907254
0.884563
0.862608
0.841401
0.820954
0.801276
0.782379
0.76427
0.746957
0.730446
0.714742
0.699844
0.685752
0.672461
0.659964
0.648249
0.637302
0.627104
0.617635
0.60887
0.600781
0.59334
0.586515
0.580273
0.57458
0.569401
0.564702
0.560449
0.556606
0.553143
0.550026
0.547226
0.544715
0.542466
0.540456
0.53866
0.537057
0.535624
0.534344
0.5332
0.532176
0.531259
0.530437
0.529698
0.529033
0.528433
0.527891
0.5274
0.526954
0.526548
0.526176
0.525836
0.525523
0.525234
0.524966
0.524717
0.524484
0.524266
0.524062
0.523868
0.523685
0.52351
0.523343
0.523183
0.523029
0.522879
0.522735
0.522594
0.522457
0.522322
0.522189
0.522059
0.52193
0.521802
0.521675
0.521549
0.521422
0.521296
0.521169
0.521042
0.520914
0.520784
0.520652
0.520518
0.520381
0.52024
0.520094
0.519943
0.519785
0.519618
0.519442
0.519257
0.519062
0.518866
0.518681
0.518543
0.518509
0.518688
2.57266
1.06643
0.815448
0.733311
0.701061
0.689951
0.689639
0.69543
0.704853
0.716483
0.729455
0.743232
0.757488
0.772027
0.786746
0.801599
0.816578
0.831701
0.847
0.862521
0.878318
0.894451
0.910987
0.928001
0.945571
0.963785
0.982734
1.00251
1.02322
1.04495
1.06779
1.09182
1.11711
1.1437
1.17159
1.20074
1.23106
1.26242
1.29462
1.32741
1.36048
1.39347
1.42594
1.45744
1.48748
1.51556
1.54122
1.564
1.58351
1.59942
1.61148
1.61952
1.62347
1.62333
1.6192
1.61119
1.59964
1.58482
1.56706
1.54671
1.52409
1.49955
1.47341
1.44596
1.41749
1.38827
1.35851
1.32845
1.29825
1.26808
1.23807
1.20834
1.17899
1.15009
1.12171
1.09389
1.06667
1.04008
1.01416
0.9889
0.964329
0.940454
0.917286
0.894831
0.873097
0.852094
0.831829
0.81231
0.793547
0.775547
0.758317
0.741865
0.726196
0.711312
0.697213
0.683899
0.671363
0.659596
0.648587
0.638321
0.628777
0.619934
0.611768
0.604249
0.597348
0.591033
0.585272
0.58003
0.575272
0.570965
0.567074
0.563567
0.560412
0.557578
0.555036
0.552759
0.550723
0.548904
0.547279
0.545827
0.54453
0.543369
0.54233
0.541399
0.540563
0.539812
0.539134
0.538523
0.537969
0.537466
0.537008
0.536589
0.536205
0.535852
0.535525
0.535223
0.534941
0.534678
0.534431
0.534198
0.533977
0.533767
0.533567
0.533376
0.533192
0.533014
0.532841
0.532673
0.53251
0.53235
0.532192
0.532037
0.531884
0.531733
0.531583
0.531433
0.531284
0.531136
0.530987
0.530837
0.530687
0.530536
0.530384
0.530229
0.530073
0.529913
0.52975
0.529583
0.529411
0.529232
0.529045
0.528849
0.528643
0.528424
0.528193
0.527953
0.527714
0.527496
0.527341
0.527336
2.61941
1.08522
0.82384
0.735716
0.69939
0.685236
0.682523
0.686377
0.694241
0.704644
0.716686
0.729806
0.743645
0.757982
0.772686
0.787684
0.802945
0.818461
0.834246
0.850325
0.866732
0.883512
0.900716
0.918405
0.936649
0.955527
0.975128
0.995546
1.01689
1.03925
1.06275
1.08748
1.11352
1.14094
1.16976
1.19995
1.23143
1.26406
1.29766
1.33194
1.36659
1.40118
1.43527
1.46834
1.49985
1.52926
1.55604
1.57972
1.59988
1.61619
1.62836
1.63627
1.63986
1.63915
1.63433
1.6256
1.61326
1.59763
1.57905
1.55788
1.53446
1.50916
1.4823
1.4542
1.42515
1.39543
1.36527
1.33487
1.30443
1.27411
1.24403
1.2143
1.18502
1.15625
1.12806
1.10047
1.07353
1.04725
1.02165
0.99673
0.972506
0.948977
0.926148
0.904019
0.882596
0.86188
0.841879
0.822597
0.804041
0.786219
0.769139
0.752807
0.737231
0.722413
0.708357
0.695064
0.68253
0.67075
0.659713
0.649408
0.639818
0.630923
0.6227
0.615123
0.608164
0.601793
0.595977
0.590683
0.585878
0.581528
0.577598
0.574057
0.570871
0.56801
0.565444
0.563146
0.561091
0.559255
0.557615
0.55615
0.554841
0.55367
0.552621
0.551681
0.550837
0.550078
0.549393
0.548774
0.548213
0.547703
0.547238
0.546811
0.54642
0.546058
0.545724
0.545412
0.545122
0.544849
0.544592
0.544349
0.544117
0.543897
0.543685
0.543482
0.543286
0.543095
0.54291
0.542729
0.542552
0.542378
0.542206
0.542037
0.541869
0.541702
0.541537
0.541372
0.541207
0.541042
0.540876
0.54071
0.540543
0.540375
0.540204
0.540032
0.539857
0.539679
0.539497
0.539311
0.539119
0.53892
0.538713
0.538495
0.538266
0.538023
0.537766
0.537497
0.537219
0.536949
0.536715
0.536596
2.62382
1.09235
0.826307
0.734407
0.695185
0.678755
0.674215
0.676593
0.683277
0.692764
0.704132
0.716797
0.730384
0.744652
0.759448
0.774681
0.790299
0.806278
0.822613
0.83931
0.856389
0.873879
0.891818
0.910254
0.929247
0.948869
0.969204
0.990349
1.01241
1.0355
1.05975
1.08526
1.11215
1.14049
1.17034
1.20164
1.23432
1.26824
1.30318
1.33886
1.37491
1.41089
1.44629
1.48058
1.51316
1.54341
1.57079
1.59482
1.61508
1.63127
1.64301
1.65029
1.6531
1.65156
1.64584
1.6362
1.62293
1.60638
1.58689
1.56486
1.54064
1.5146
1.48708
1.45841
1.42889
1.39877
1.36831
1.33771
1.30715
1.27679
1.24676
1.21716
1.18806
1.15955
1.13166
1.10442
1.07786
1.052
1.02683
1.00236
0.978586
0.955507
0.933118
0.911416
0.890398
0.870065
0.850418
0.83146
0.813197
0.795635
0.778781
0.762643
0.747229
0.732543
0.718592
0.705377
0.692899
0.681154
0.670136
0.659834
0.650236
0.641323
0.633076
0.62547
0.61848
0.612075
0.606226
0.600901
0.596066
0.591688
0.587734
0.58417
0.580965
0.578088
0.57551
0.573201
0.571136
0.569292
0.567645
0.566174
0.564859
0.563684
0.562632
0.56169
0.560843
0.560082
0.559395
0.558774
0.558211
0.557698
0.55723
0.556801
0.556406
0.556041
0.555702
0.555387
0.555091
0.554813
0.554551
0.554302
0.554064
0.553837
0.553619
0.553408
0.553204
0.553006
0.552812
0.552623
0.552437
0.552253
0.552073
0.551893
0.551716
0.551539
0.551363
0.551187
0.551011
0.550835
0.550658
0.550481
0.550302
0.550121
0.549939
0.549754
0.549567
0.549376
0.549181
0.548982
0.548776
0.548563
0.548342
0.54811
0.547866
0.547608
0.547334
0.547045
0.546744
0.546441
0.546161
0.545974
2.58939
1.08928
0.824164
0.730715
0.68979
0.671847
0.666026
0.667353
0.673203
0.682061
0.692991
0.705399
0.718895
0.733224
0.748219
0.763774
0.779822
0.796326
0.813264
0.830633
0.848438
0.866695
0.885432
0.904686
0.92451
0.944969
0.966142
0.988127
1.01103
1.03499
1.06012
1.08656
1.11445
1.14389
1.17492
1.20746
1.24142
1.27663
1.31283
1.34972
1.38688
1.42383
1.46004
1.49493
1.52794
1.5583
1.58545
1.60897
1.62848
1.64369
1.65443
1.66061
1.66229
1.6596
1.65273
1.64198
1.62765
1.61009
1.58969
1.56683
1.54187
1.51519
1.48714
1.45803
1.42816
1.3978
1.36719
1.33653
1.306
1.27576
1.24591
1.21656
1.18779
1.15965
1.13218
1.1054
1.07934
1.054
1.02937
1.00545
0.982229
0.959699
0.937848
0.916668
0.896151
0.876292
0.857091
0.838546
0.820661
0.803441
0.786894
0.771026
0.755847
0.741363
0.727581
0.714507
0.702143
0.690488
0.679539
0.669289
0.659726
0.650836
0.642602
0.635001
0.62801
0.6216
0.615744
0.61041
0.605566
0.60118
0.597219
0.593649
0.59044
0.58756
0.58498
0.582671
0.580608
0.578765
0.577119
0.575651
0.574339
0.573167
0.572119
0.571179
0.570336
0.569578
0.568894
0.568276
0.567715
0.567205
0.566739
0.566311
0.565917
0.565553
0.565214
0.564898
0.564602
0.564323
0.564059
0.563808
0.563568
0.563338
0.563117
0.562903
0.562695
0.562493
0.562295
0.562101
0.56191
0.561722
0.561536
0.561351
0.561168
0.560985
0.560803
0.560621
0.560438
0.560256
0.560072
0.559887
0.559701
0.559514
0.559324
0.559132
0.558936
0.558738
0.558535
0.558327
0.558113
0.557892
0.557663
0.557423
0.55717
0.556904
0.556621
0.556323
0.55601
0.555691
0.555387
0.555162
2.51837
1.07728
0.818648
0.725935
0.684564
0.665913
0.659388
0.660107
0.665482
0.674009
0.684755
0.69712
0.710708
0.725255
0.740584
0.756578
0.77316
0.79028
0.807912
0.826038
0.844658
0.863778
0.883418
0.903609
0.924397
0.945841
0.968021
0.991032
1.01499
1.04002
1.06627
1.0939
1.12305
1.15387
1.18635
1.22032
1.25566
1.29213
1.32944
1.3672
1.40496
1.44219
1.47831
1.51274
1.54486
1.5741
1.59993
1.62195
1.63982
1.65332
1.66232
1.66681
1.66686
1.66262
1.65433
1.64228
1.62679
1.60822
1.58695
1.56334
1.53778
1.51062
1.4822
1.45283
1.42281
1.3924
1.36182
1.33128
1.30095
1.27097
1.24145
1.21249
1.18416
1.15652
1.12958
1.10338
1.07791
1.05319
1.02919
1.00592
0.983339
0.961446
0.940222
0.91965
0.89972
0.88042
0.861747
0.843697
0.82627
0.809471
0.793306
0.777783
0.76291
0.748696
0.735151
0.722279
0.710088
0.698579
0.687751
0.6776
0.668119
0.659294
0.651112
0.643552
0.636593
0.630209
0.624374
0.619056
0.614227
0.609853
0.605903
0.602345
0.599147
0.596279
0.59371
0.591413
0.589361
0.58753
0.585895
0.584438
0.583137
0.581975
0.580937
0.580007
0.579173
0.578424
0.577748
0.577138
0.576584
0.57608
0.57562
0.575198
0.574809
0.574449
0.574114
0.573801
0.573508
0.573231
0.572969
0.572719
0.572481
0.572252
0.572031
0.571817
0.571609
0.571406
0.571207
0.571012
0.57082
0.57063
0.570442
0.570255
0.57007
0.569885
0.5697
0.569516
0.569331
0.569145
0.568959
0.568771
0.568582
0.568391
0.568198
0.568002
0.567803
0.567601
0.567395
0.567183
0.566966
0.566742
0.566509
0.566266
0.566011
0.565742
0.565458
0.565158
0.564843
0.564521
0.564209
0.563969
2.4156
1.05998
0.811765
0.721748
0.681139
0.662607
0.655992
0.656585
0.66188
0.67041
0.681263
0.693844
0.707758
0.722735
0.738595
0.755212
0.772504
0.790414
0.808909
0.827968
0.847583
0.867759
0.888509
0.909861
0.931859
0.954559
0.978039
1.0024
1.02775
1.05423
1.082
1.11121
1.14203
1.17458
1.2087
1.24421
1.28087
1.31837
1.35634
1.39431
1.43178
1.4682
1.50299
1.53559
1.56548
1.59217
1.61527
1.63445
1.64947
1.6602
1.66658
1.66863
1.66648
1.66029
1.6503
1.63681
1.62011
1.60057
1.57852
1.55433
1.52834
1.5009
1.47234
1.44294
1.41299
1.38273
1.35239
1.32215
1.29218
1.26262
1.23358
1.20515
1.17738
1.15033
1.12403
1.09849
1.07371
1.04969
1.0264
1.00384
0.981983
0.960801
0.940275
0.920384
0.901112
0.882444
0.86437
0.846886
0.829989
0.813681
0.797967
0.782855
0.768355
0.754475
0.741226
0.728617
0.716655
0.705345
0.69469
0.684687
0.675331
0.666614
0.658523
0.65104
0.644147
0.63782
0.632033
0.626758
0.621966
0.617627
0.613708
0.610179
0.607008
0.604166
0.601622
0.599349
0.597319
0.595509
0.593895
0.592457
0.591174
0.59003
0.589008
0.588094
0.587275
0.58654
0.585878
0.585279
0.584737
0.584244
0.583794
0.58338
0.583
0.582648
0.58232
0.582014
0.581726
0.581455
0.581198
0.580953
0.580718
0.580492
0.580275
0.580064
0.579858
0.579658
0.579461
0.579268
0.579078
0.578889
0.578703
0.578517
0.578333
0.578149
0.577965
0.577781
0.577597
0.577411
0.577225
0.577038
0.576849
0.576658
0.576465
0.57627
0.576071
0.575869
0.575663
0.575452
0.575236
0.575012
0.57478
0.574539
0.574286
0.57402
0.57374
0.573445
0.573136
0.57282
0.572513
0.572272
2.29964
1.04414
0.807014
0.720542
0.681494
0.663763
0.657628
0.658584
0.664229
0.673153
0.684476
0.697618
0.71219
0.727926
0.74464
0.762206
0.780534
0.799567
0.819264
0.839603
0.860574
0.882179
0.90443
0.927354
0.950992
0.975402
1.00066
1.02686
1.05412
1.08259
1.11242
1.14378
1.17686
1.21159
1.24766
1.28478
1.32259
1.36067
1.39852
1.43561
1.47141
1.50537
1.53699
1.56584
1.59153
1.61376
1.6323
1.64698
1.65771
1.66444
1.6672
1.66605
1.66113
1.65261
1.6407
1.62566
1.60777
1.58734
1.56467
1.54008
1.5139
1.48642
1.45795
1.42875
1.39909
1.3692
1.33929
1.30954
1.2801
1.25111
1.22267
1.19487
1.16777
1.14141
1.11583
1.09102
1.06699
1.04372
1.02121
0.999422
0.978333
0.957915
0.938141
0.918986
0.900427
0.882447
0.865031
0.84817
0.831861
0.816103
0.8009
0.786258
0.772187
0.758698
0.745802
0.733509
0.721829
0.710769
0.700333
0.690523
0.681337
0.672767
0.664805
0.657435
0.65064
0.6444
0.638689
0.633483
0.628752
0.624468
0.6206
0.617118
0.61399
0.611188
0.608682
0.606445
0.604448
0.602669
0.601085
0.599674
0.598417
0.597297
0.596298
0.595405
0.594606
0.59389
0.593245
0.592663
0.592136
0.591658
0.591221
0.59082
0.590451
0.590109
0.589792
0.589495
0.589216
0.588953
0.588703
0.588465
0.588237
0.588018
0.587806
0.5876
0.5874
0.587204
0.587012
0.586824
0.586638
0.586453
0.586271
0.586089
0.585908
0.585728
0.585548
0.585367
0.585186
0.585004
0.584821
0.584637
0.584452
0.584264
0.584074
0.583882
0.583687
0.583488
0.583286
0.583079
0.582866
0.582647
0.58242
0.582184
0.581937
0.581678
0.581407
0.581122
0.580825
0.580523
0.58023
0.579997
2.15152
1.02382
0.803523
0.722916
0.686838
0.670934
0.66611
0.668148
0.674797
0.684733
0.697126
0.711425
0.727256
0.74436
0.762552
0.781703
0.801721
0.822545
0.844131
0.866455
0.889503
0.913277
0.937788
0.963061
0.989137
1.01607
1.04394
1.07283
1.10286
1.13418
1.16692
1.20127
1.23738
1.27468
1.31275
1.35115
1.38935
1.42678
1.46287
1.49705
1.5288
1.55769
1.58342
1.60576
1.62461
1.63992
1.6517
1.65997
1.6648
1.66624
1.66436
1.65926
1.65104
1.63985
1.62584
1.6092
1.59016
1.56895
1.54582
1.52104
1.49487
1.46758
1.43943
1.41066
1.38151
1.35218
1.32287
1.29377
1.265
1.23671
1.20898
1.18192
1.15556
1.12997
1.10516
1.08114
1.05792
1.03546
1.01377
0.992797
0.972524
0.952917
0.933943
0.915572
0.897778
0.880537
0.863833
0.847653
0.831988
0.816838
0.802203
0.78809
0.774508
0.761466
0.748979
0.737056
0.725711
0.714951
0.704784
0.695213
0.68624
0.677859
0.670064
0.662843
0.656181
0.650057
0.644452
0.63934
0.634694
0.630487
0.626689
0.623271
0.620203
0.617455
0.615
0.612809
0.610856
0.609116
0.607569
0.606192
0.604967
0.603877
0.602905
0.602039
0.601264
0.600569
0.599945
0.599382
0.598873
0.598411
0.597989
0.597602
0.597246
0.596916
0.59661
0.596323
0.596054
0.595799
0.595558
0.595328
0.595107
0.594894
0.594689
0.594489
0.594294
0.594104
0.593917
0.593734
0.593552
0.593372
0.593194
0.593017
0.59284
0.592663
0.592487
0.59231
0.592133
0.591955
0.591776
0.591595
0.591413
0.591229
0.591043
0.590854
0.590663
0.590468
0.59027
0.590067
0.589859
0.589644
0.589423
0.589193
0.588954
0.588704
0.588442
0.588169
0.587887
0.5876
0.587325
0.587106
1.9909
1.00055
0.801563
0.729154
0.697668
0.684922
0.682604
0.686851
0.695599
0.707633
0.722183
0.738738
0.756942
0.776543
0.797358
0.819257
0.842142
0.865946
0.890621
0.916137
0.942479
0.969641
0.997635
1.02648
1.05621
1.08689
1.11857
1.15134
1.18532
1.22062
1.2574
1.29583
1.3353
1.37497
1.4143
1.45262
1.48925
1.52353
1.55484
1.58269
1.60675
1.62688
1.64309
1.65554
1.66448
1.6702
1.67297
1.67302
1.67051
1.66558
1.6583
1.64871
1.63687
1.62283
1.60666
1.58847
1.56839
1.54655
1.52314