/*--------------------------------*- C++ -*----------------------------------*\
  =========                 |
  \\      /  F ield         | OpenFOAM: The Open Source CFD Toolbox
   \\    /   O peration     | Website:  https://openfoam.org
    \\  /    A nd           | Version:  6
     \\/     M anipulation  |
\*---------------------------------------------------------------------------*/
FoamFile
{
    version     2.0;
    format      ascii;
    class       volScalarField;
    location    "0.1";
    object      k;
}
// * * * * * * * * * * * * * * * * * * * * * * * * * * * * * * * * * * * * * //

dimensions      [0 2 -2 0 0 0 0];

internalField   nonuniform List<scalar> 
12225
(
0.24644
0.158841
0.119015
0.0972165
0.0837447
0.0747714
0.0684022
0.0636086
0.0598231
0.056725
0.0541235
0.0518986
0.0499699
0.0482816
0.0467935
0.0454778
0.0443355
0.0434556
0.339526
0.260137
0.20827
0.175318
0.15331
0.137739
0.126086
0.116942
0.109512
0.103324
0.0980752
0.0935594
0.0896307
0.086182
0.0831355
0.0804245
0.0780312
0.0759096
0.347499
0.292342
0.248525
0.216225
0.192278
0.174119
0.159949
0.148571
0.139208
0.131354
0.124661
0.118885
0.113849
0.109421
0.105503
0.102016
0.0989174
0.0961968
0.35137
0.309038
0.2719
0.241953
0.218192
0.199259
0.183965
0.171397
0.1609
0.152005
0.144371
0.137751
0.131957
0.126848
0.122316
0.118275
0.114677
0.111514
0.353917
0.31927
0.287213
0.259852
0.23709
0.21826
0.202606
0.189471
0.178331
0.168783
0.160522
0.153312
0.146971
0.141358
0.136362
0.131898
0.127911
0.124401
0.355678
0.326035
0.297882
0.272945
0.251479
0.233196
0.217635
0.204333
0.192887
0.182967
0.174308
0.166698
0.159969
0.153985
0.148639
0.143847
0.139556
0.135769
0.356918
0.330714
0.305584
0.282791
0.262681
0.245162
0.22996
0.216755
0.205243
0.195159
0.186281
0.178423
0.171434
0.165188
0.159586
0.154548
0.150022
0.146017
0.357802
0.334031
0.311251
0.290303
0.271496
0.254827
0.240135
0.227198
0.215788
0.205697
0.196739
0.188756
0.181614
0.1752
0.169423
0.164209
0.159511
0.155338
0.358434
0.336407
0.315455
0.296063
0.278452
0.262643
0.248535
0.235971
0.22478
0.214796
0.205866
0.197856
0.190651
0.184149
0.178267
0.172939
0.168125
0.163832
0.358882
0.338109
0.318569
0.300468
0.283921
0.268934
0.255433
0.243301
0.232404
0.222609
0.213789
0.20583
0.198633
0.192109
0.186183
0.180797
0.175915
0.171545
0.359195
0.339317
0.320855
0.303805
0.288179
0.27395
0.261045
0.249367
0.238807
0.229254
0.220602
0.212754
0.205623
0.199131
0.193213
0.187815
0.182907
0.178499
0.359394
0.340094
0.322371
0.306089
0.291176
0.277563
0.265171
0.253906
0.243671
0.234369
0.225907
0.2182
0.211169
0.204746
0.198872
0.193499
0.188602
0.184189
0.359535
0.340653
0.323494
0.307827
0.293512
0.28044
0.268516
0.257643
0.24773
0.238687
0.230431
0.222884
0.215976
0.209646
0.20384
0.198516
0.193651
0.189255
0.359644
0.341086
0.32439
0.309259
0.29549
0.282937
0.27148
0.261017
0.251453
0.242703
0.234688
0.227339
0.220592
0.21439
0.208685
0.20344
0.198633
0.194275
0.35972
0.341394
0.325046
0.310339
0.297031
0.284937
0.273916
0.263849
0.254638
0.246195
0.238445
0.23132
0.224762
0.218717
0.213142
0.208003
0.203281
0.198985
0.359767
0.341589
0.325474
0.311071
0.29811
0.286382
0.275724
0.266005
0.257115
0.248964
0.241474
0.234578
0.228218
0.222344
0.216915
0.211899
0.207279
0.203062
0.359793
0.341697
0.325716
0.311497
0.298759
0.28728
0.276882
0.267421
0.258782
0.250866
0.243592
0.236892
0.230707
0.224988
0.219695
0.214796
0.210276
0.206138
0.359804
0.341741
0.325817
0.311679
0.299044
0.287685
0.277417
0.268092
0.259587
0.251801
0.244651
0.238065
0.231984
0.226359
0.221149
0.216323
0.211865
0.207777
0.359801
0.341728
0.325789
0.311628
0.298964
0.287571
0.277267
0.267904
0.25936
0.251537
0.244349
0.237728
0.231614
0.225956
0.220715
0.21586
0.211373
0.207259
0.359775
0.341621
0.325544
0.311194
0.298296
0.286638
0.276052
0.266402
0.257575
0.24948
0.242037
0.235179
0.228847
0.222991
0.217572
0.212556
0.207926
0.203686
0.359715
0.341375
0.325005
0.310274
0.296938
0.284815
0.273764
0.263665
0.25442
0.245942
0.238153
0.230987
0.224383
0.21829
0.212662
0.207465
0.20268
0.19831
0.359585
0.34085
0.323899
0.308471
0.294395
0.281544
0.269811
0.259097
0.249308
0.240359
0.232168
0.224661
0.217771
0.211438
0.205612
0.200251
0.195332
0.190859
0.359329
0.339833
0.321854
0.305301
0.290128
0.276279
0.263679
0.252233
0.241842
0.232404
0.223821
0.216006
0.208876
0.202359
0.196395
0.190932
0.185941
0.181424
0.35886
0.338007
0.318366
0.300163
0.28352
0.268444
0.254862
0.242654
0.231687
0.221824
0.212937
0.204913
0.197648
0.191053
0.185053
0.179588
0.174617
0.17014
0.35805
0.334908
0.312747
0.292295
0.27384
0.257395
0.242828
0.229943
0.218533
0.208403
0.19938
0.191312
0.184072
0.177549
0.171653
0.166311
0.161475
0.157143
0.356706
0.3298
0.303966
0.280617
0.2601
0.2423
0.226914
0.213591
0.202005
0.191876
0.18297
0.175093
0.168088
0.161826
0.156202
0.151133
0.146564
0.142486
0.354517
0.321331
0.290232
0.263349
0.240745
0.221888
0.206114
0.192815
0.181495
0.171765
0.163325
0.155942
0.149434
0.143657
0.138499
0.133871
0.129712
0.12601
0.350901
0.306594
0.267906
0.237079
0.212901
0.193829
0.178549
0.166073
0.155701
0.146938
0.139434
0.132932
0.127242
0.12222
0.117755
0.113762
0.110178
0.10699
0.342446
0.27593
0.227248
0.193502
0.169777
0.152541
0.139495
0.129228
0.120886
0.113941
0.108051
0.10298
0.098563
0.0946767
0.0912293
0.0881505
0.0853877
0.0829197
0.259302
0.173111
0.131353
0.107417
0.0921229
0.0817127
0.0742688
0.0686921
0.0643344
0.0608074
0.0578719
0.0553754
0.0532166
0.0513256
0.0496521
0.0481587
0.0468173
0.0456105
0.00199424
0.00348449
0.00442864
0.00547371
0.00655899
0.00748251
0.00831514
0.00910731
0.00987876
0.0106431
0.0114089
0.0121806
0.0129589
0.0137427
0.0145297
0.0153171
0.0161023
0.0168826
0.017656
0.0184207
0.0191752
0.0199186
0.02065
0.021369
0.0220754
0.0227691
0.0234505
0.0241201
0.0247789
0.0254286
0.0260717
0.0267121
0.0273554
0.02801
0.0286701
0.0293071
0.0299208
0.0305105
0.0310745
0.0316106
0.0321162
0.0325887
0.0330252
0.0334228
0.0337789
0.0340907
0.034356
0.0345726
0.0347386
0.0348528
0.0349141
0.0349219
0.0348764
0.0347778
0.034627
0.0344256
0.0341751
0.033878
0.0335371
0.0331562
0.0327407
0.0322999
0.0318505
0.0314219
0.0310479
0.0307216
0.0303929
0.0300496
0.02969
0.0293149
0.0289256
0.0285236
0.0281107
0.0276882
0.0272578
0.0268208
0.0263786
0.0259327
0.0254842
0.0250345
0.0245849
0.0241365
0.0236906
0.0232483
0.0228109
0.0223796
0.0219555
0.0215396
0.0211332
0.0207371
0.0203525
0.0199801
0.0196208
0.0192753
0.0189443
0.0186282
0.0183274
0.0180421
0.0177726
0.0175188
0.0172806
0.0170578
0.01685
0.016657
0.016478
0.0163127
0.0161603
0.0160202
0.0158915
0.0157733
0.0156646
0.0155665
0.0154785
0.0153994
0.015328
0.0152636
0.0152056
0.0151532
0.0151058
0.015063
0.0150243
0.0149892
0.0149573
0.0149283
0.0149019
0.0148779
0.0148558
0.0148357
0.0148171
0.0148001
0.0147843
0.0147697
0.0147561
0.0147435
0.0147316
0.0147205
0.01471
0.0147001
0.0146907
0.0146818
0.0146732
0.014665
0.0146571
0.0146494
0.014642
0.0146348
0.0146277
0.0146208
0.0146139
0.0146072
0.0146006
0.014594
0.0145874
0.0145809
0.0145743
0.0145678
0.0145612
0.0145545
0.0145477
0.0145408
0.0145338
0.0145266
0.0145191
0.0145114
0.0145032
0.0144946
0.0144854
0.0144754
0.0144643
0.0144519
0.0144377
0.0144209
0.0144007
0.0143754
0.0143427
0.0142983
0.0142346
0.0141357
0.0139725
0.0136871
0.00489136
0.0104026
0.0131423
0.0151511
0.0169718
0.0186574
0.0201951
0.0215912
0.0228742
0.0240804
0.0252428
0.0263867
0.0275295
0.0286822
0.0298508
0.031038
0.0322438
0.0334671
0.0347055
0.0359564
0.0372172
0.038485
0.0397577
0.0410329
0.0423092
0.0435848
0.0448585
0.0461292
0.0473955
0.0486563
0.04991
0.0511546
0.052388
0.0536077
0.0548034
0.0559847
0.0571518
0.0583014
0.0594291
0.0605294
0.0615965
0.0626239
0.0636048
0.0645324
0.0653995
0.0661994
0.0669253
0.0675711
0.0681312
0.0686006
0.0689753
0.0692523
0.0694294
0.0695057
0.0694814
0.0693574
0.0691362
0.0688209
0.0684157
0.0679259
0.0673577
0.0667178
0.0660135
0.065251
0.0644523
0.063623
0.062757
0.0618555
0.0609219
0.0599603
0.0589748
0.0579697
0.0569486
0.0559154
0.0548733
0.0538258
0.0527757
0.051726
0.0506795
0.0496387
0.0486061
0.0475842
0.0465754
0.0455818
0.0446058
0.0436493
0.0427144
0.0418031
0.0409172
0.0400583
0.0392281
0.038428
0.0376591
0.0369225
0.0362191
0.0355495
0.0349141
0.0343131
0.0337464
0.0332138
0.0327148
0.0322487
0.0318147
0.0314118
0.0310388
0.0306944
0.0303774
0.0300862
0.0298192
0.0295749
0.0293512
0.0291452
0.028957
0.0287874
0.0286348
0.0284975
0.0283741
0.028263
0.028163
0.0280729
0.0279916
0.0279182
0.0278518
0.0277917
0.0277371
0.0276874
0.0276421
0.0276007
0.0275627
0.0275277
0.0274954
0.0274655
0.0274376
0.0274116
0.0273872
0.0273642
0.0273425
0.0273218
0.0273021
0.0272832
0.027265
0.0272475
0.0272304
0.0272138
0.0271976
0.0271817
0.027166
0.0271506
0.0271353
0.0271201
0.027105
0.0270899
0.0270749
0.0270598
0.0270446
0.0270294
0.0270141
0.0269986
0.0269829
0.026967
0.0269508
0.0269343
0.0269173
0.0268999
0.0268819
0.0268631
0.0268434
0.0268225
0.0268
0.0267755
0.0267484
0.0267175
0.0266815
0.0266383
0.0265842
0.0265135
0.0264146
0.0262703
0.0260268
0.0257518
0.00775729
0.015724
0.0193348
0.0218495
0.0239583
0.0258669
0.0276316
0.0292728
0.0308135
0.032283
0.0337095
0.0351161
0.0365183
0.037925
0.0393399
0.0407627
0.0421912
0.043622
0.0450516
0.0464768
0.0478955
0.0493061
0.0507082
0.0521021
0.0534888
0.0548697
0.0562465
0.0576209
0.0589944
0.0603683
0.0617434
0.0631198
0.0644974
0.065875
0.0672516
0.0686271
0.0699987
0.0713621
0.0727114
0.0740398
0.0753396
0.0766025
0.0778196
0.0789817
0.0800791
0.0811026
0.0820428
0.0828911
0.0836393
0.0842805
0.0848084
0.0852183
0.0855067
0.0856716
0.0857123
0.0856296
0.0854257
0.0851041
0.0846694
0.0841272
0.083484
0.0827466
0.0819219
0.0810196
0.0800635
0.0790547
0.0779962
0.0768923
0.0757486
0.0745705
0.0733635
0.0721328
0.0708832
0.0696193
0.0683455
0.0670656
0.0657834
0.0645025
0.063226
0.0619571
0.0606988
0.059454
0.0582253
0.0570155
0.055827
0.0546624
0.0535239
0.0524139
0.0513345
0.0502875
0.049275
0.0482984
0.0473593
0.046459
0.0455984
0.0447782
0.0439991
0.0432613
0.0425647
0.0419092
0.0412941
0.0407189
0.0401825
0.0396838
0.0392214
0.038794
0.0383998
0.0380372
0.0377044
0.0373996
0.0371207
0.0368656
0.0366322
0.0364193
0.0362268
0.0360529
0.0358959
0.0357543
0.0356264
0.0355109
0.0354066
0.0353122
0.0352267
0.0351492
0.0350787
0.0350145
0.0349559
0.0349023
0.034853
0.0348077
0.0347657
0.0347268
0.0346906
0.0346567
0.0346249
0.0345949
0.0345665
0.0345395
0.0345137
0.034489
0.0344652
0.0344421
0.0344197
0.0343979
0.0343766
0.0343556
0.034335
0.0343147
0.0342945
0.0342745
0.0342546
0.0342347
0.0342149
0.034195
0.0341751
0.034155
0.0341348
0.0341145
0.0340939
0.034073
0.0340519
0.0340303
0.0340083
0.0339857
0.0339624
0.0339383
0.0339132
0.0338867
0.0338586
0.0338282
0.0337949
0.0337577
0.0337152
0.0336652
0.0336042
0.0335267
0.0334228
0.0332769
0.0330522
0.0327645
0.0098375
0.0195456
0.02395
0.0268862
0.0292155
0.0312522
0.0331253
0.0348898
0.0365756
0.0382056
0.0397982
0.0413677
0.042923
0.0444687
0.046006
0.0475337
0.0490497
0.0505517
0.0520378
0.0535071
0.0549595
0.0563962
0.0578191
0.0592307
0.0606344
0.0620335
0.0634316
0.0648321
0.0662381
0.0676522
0.0690763
0.0705116
0.0719583
0.0734155
0.0748835
0.076361
0.077845
0.0793305
0.0808111
0.0822793
0.0837263
0.0851426
0.0865175
0.0878403
0.0890993
0.0902831
0.0913805
0.0923807
0.0932734
0.0940499
0.0947022
0.095224
0.0956107
0.0958593
0.0959683
0.0959382
0.095771
0.0954701
0.0950402
0.0944872
0.0938177
0.0930388
0.0921583
0.0911962
0.0901632
0.0890651
0.0879083
0.0866993
0.0854451
0.0841522
0.0828268
0.0814749
0.080102
0.0787133
0.0773136
0.0759071
0.0744981
0.0730903
0.0716874
0.0702926
0.0689093
0.0675403
0.0661888
0.0648575
0.0635491
0.0622663
0.0610116
0.0597874
0.058596
0.0574396
0.0563202
0.0552396
0.0541994
0.0532011
0.0522458
0.0513345
0.0504677
0.0496458
0.048869
0.0481371
0.0474496
0.0468057
0.0462046
0.045645
0.0451255
0.0446447
0.0442009
0.0437921
0.0434166
0.0430723
0.0427571
0.0424691
0.042206
0.0419656
0.0417473
0.0415496
0.0413708
0.0412091
0.0410628
0.0409305
0.0408108
0.0407023
0.0406039
0.0405145
0.0404332
0.040359
0.0402912
0.0402291
0.040172
0.0401193
0.0400706
0.0400253
0.0399831
0.0399435
0.0399064
0.0398713
0.039838
0.0398064
0.0397761
0.039747
0.039719
0.0396918
0.0396655
0.0396397
0.0396145
0.0395898
0.0395655
0.0395414
0.0395176
0.0394939
0.0394704
0.0394469
0.0394234
0.0393999
0.0393763
0.0393527
0.0393288
0.0393048
0.0392805
0.039256
0.039231
0.0392057
0.0391799
0.0391535
0.0391264
0.0390984
0.0390693
0.0390389
0.0390067
0.0389723
0.0389349
0.0388937
0.0388471
0.0387933
0.0387289
0.0386493
0.0385462
0.0384071
0.0382095
0.0379625
0.0112878
0.0222355
0.0272781
0.0305948
0.0331576
0.0353398
0.0373167
0.0391732
0.0409531
0.0426806
0.0443705
0.0460316
0.0476688
0.049284
0.0508774
0.0524478
0.0539944
0.0555162
0.0570131
0.0584861
0.0599369
0.0613682
0.0627833
0.0641863
0.0655817
0.066974
0.0683679
0.0697678
0.0711778
0.0726013
0.0740411
0.0754991
0.0769761
0.0784717
0.0799867
0.0815206
0.0830705
0.0846316
0.0861976
0.0877605
0.0893109
0.0908383
0.0923311
0.0937766
0.095162
0.0964739
0.0976993
0.0988253
0.0998403
0.100733
0.101495
0.102118
0.102596
0.102925
0.103104
0.103132
0.103011
0.102745
0.102338
0.101797
0.101128
0.100339
0.0994469
0.0984644
0.0974005
0.0962632
0.095061
0.0938016
0.0924928
0.0911419
0.0897558
0.0883409
0.0869032
0.0854481
0.0839807
0.0825057
0.0810274
0.0795497
0.0780764
0.0766108
0.0751565
0.0737164
0.0722936
0.0708911
0.0695115
0.0681577
0.0668323
0.0655379
0.0642768
0.0630514
0.0618638
0.060716
0.0596098
0.0585469
0.0575284
0.0565556
0.0556292
0.0547497
0.0539173
0.0531321
0.0523936
0.0517011
0.0510539
0.0504507
0.0498902
0.0493708
0.0488908
0.0484483
0.0480415
0.0476682
0.0473263
0.0470137
0.0467283
0.0464678
0.0462303
0.0460151
0.04582
0.0456434
0.0454835
0.0453387
0.0452074
0.0450884
0.0449803
0.0448821
0.0447926
0.0447109
0.0446362
0.0445676
0.0445045
0.0444463
0.0443923
0.0443422
0.0442954
0.0442515
0.0442102
0.0441712
0.0441342
0.0440989
0.0440651
0.0440327
0.0440013
0.043971
0.0439415
0.0439127
0.0438844
0.0438567
0.0438294
0.0438024
0.0437757
0.0437491
0.0437227
0.0436963
0.0436699
0.0436436
0.0436171
0.0435905
0.0435638
0.0435368
0.0435096
0.0434821
0.0434542
0.0434259
0.043397
0.0433676
0.0433374
0.0433063
0.0432741
0.0432405
0.0432052
0.0431676
0.0431271
0.0430827
0.0430331
0.0429765
0.0429099
0.042829
0.0427271
0.0425944
0.0424169
0.0422048
0.0123516
0.0241035
0.0296244
0.0332607
0.0360497
0.0383911
0.0404818
0.0424252
0.0442771
0.0460678
0.0478134
0.0495223
0.0511987
0.0528438
0.054458
0.0560409
0.0575925
0.059113
0.0606034
0.0620657
0.0635025
0.0649172
0.066314
0.0676975
0.0690727
0.0704449
0.0718194
0.0732012
0.0745953
0.076006
0.0774368
0.0788905
0.0803688
0.0818721
0.0834019
0.0849587
0.0865405
0.0881432
0.0897608
0.0913853
0.0930071
0.0946151
0.0961966
0.097738
0.0992248
0.100642
0.101975
0.103209
0.104331
0.105328
0.106189
0.106905
0.10747
0.107879
0.108128
0.108219
0.108151
0.10793
0.107559
0.107045
0.106396
0.105627
0.104749
0.103773
0.102709
0.101567
0.100355
0.099083
0.0977582
0.0963887
0.0949818
0.0935443
0.0920824
0.0906018
0.0891076
0.0876046
0.0860972
0.0845894
0.0830849
0.0815872
0.0800997
0.0786254
0.0771674
0.0757287
0.0743119
0.0729201
0.0715557
0.0702215
0.0689199
0.0676535
0.0664244
0.0652349
0.0640869
0.0629822
0.0619222
0.0609083
0.0599414
0.0590222
0.0581511
0.0573283
0.0565534
0.055826
0.0551452
0.0545101
0.0539193
0.0533713
0.0528643
0.0523966
0.0519662
0.051571
0.0512088
0.0508776
0.050575
0.050299
0.0500472
0.0498185
0.0496111
0.0494232
0.0492528
0.0490984
0.0489583
0.0488312
0.0487157
0.0486107
0.0485149
0.0484274
0.0483474
0.0482739
0.0482062
0.0481437
0.0480857
0.0480318
0.0479814
0.0479342
0.0478897
0.0478477
0.0478077
0.0477697
0.0477332
0.0476981
0.0476642
0.0476313
0.0475994
0.0475681
0.0475375
0.0475075
0.0474778
0.0474485
0.0474195
0.0473906
0.0473619
0.0473333
0.0473046
0.047276
0.0472472
0.0472183
0.0471893
0.04716
0.0471304
0.0471006
0.0470703
0.0470396
0.0470084
0.0469765
0.0469439
0.0469104
0.0468757
0.0468396
0.0468018
0.0467618
0.0467188
0.046672
0.0466202
0.0465615
0.0464934
0.046412
0.0463117
0.0461849
0.0460229
0.0458374
0.0131191
0.02537
0.0312323
0.0351171
0.0381007
0.0405917
0.0427942
0.04482
0.0467329
0.0485688
0.0503479
0.0520808
0.053773
0.0554271
0.057044
0.0586245
0.0601691
0.0616789
0.0631555
0.0646011
0.0660188
0.067412
0.0687851
0.0701428
0.0714902
0.072833
0.0741767
0.0755269
0.0768893
0.0782688
0.0796701
0.0810969
0.0825521
0.0840371
0.0855543
0.0871057
0.0886905
0.0903058
0.0919461
0.093604
0.09527
0.0969326
0.0985784
0.100193
0.10176
0.103264
0.104688
0.106016
0.107232
0.108322
0.109274
0.110078
0.110726
0.111213
0.111534
0.11169
0.111681
0.111512
0.111188
0.110715
0.110108
0.109376
0.108531
0.107583
0.106544
0.105422
0.104229
0.102971
0.10166
0.100302
0.098905
0.097476
0.0960212
0.0945465
0.093057
0.0915574
0.0900521
0.0885451
0.0870399
0.0855401
0.0840489
0.0825693
0.0811042
0.0796567
0.0782294
0.0768252
0.0754467
0.0740967
0.0727777
0.0714923
0.0702428
0.0690317
0.0678609
0.0667324
0.065648
0.0646091
0.0636168
0.0626722
0.0617757
0.0609276
0.060128
0.0593763
0.0586721
0.0580143
0.0574017
0.056833
0.0563064
0.0558202
0.0553724
0.0549609
0.0545836
0.0542384
0.053923
0.0536352
0.0533728
0.053134
0.0529173
0.0527208
0.0525426
0.0523809
0.0522342
0.0521011
0.05198
0.0518698
0.0517693
0.0516775
0.0515934
0.0515162
0.0514451
0.0513794
0.0513184
0.0512617
0.0512087
0.0511589
0.0511121
0.0510677
0.0510256
0.0509854
0.0509468
0.0509098
0.0508739
0.0508392
0.0508054
0.0507723
0.0507399
0.0507081
0.0506767
0.0506456
0.0506148
0.0505842
0.0505537
0.0505233
0.0504929
0.0504625
0.050432
0.0504014
0.0503705
0.0503395
0.0503081
0.0502764
0.0502444
0.0502118
0.0501788
0.0501451
0.0501106
0.0500752
0.0500386
0.0500007
0.049961
0.0499191
0.0498743
0.0498259
0.0497725
0.0497125
0.0496436
0.0495625
0.0494643
0.0493432
0.0491941
0.0490293
0.0136482
0.0261808
0.032276
0.0363423
0.0394788
0.0420955
0.0443964
0.0464958
0.0484609
0.0503323
0.0521336
0.0538787
0.0555754
0.057228
0.058839
0.06041
0.0619423
0.0634374
0.064897
0.0663235
0.0677197
0.0690889
0.0704351
0.0717627
0.0730769
0.0743831
0.0756869
0.0769945
0.0783118
0.0796447
0.0809988
0.0823791
0.0837896
0.0852333
0.0867136
0.0882343
0.0897961
0.0913975
0.0930342
0.0946996
0.0963847
0.0980778
0.0997654
0.101432
0.103061
0.104634
0.106133
0.10754
0.108839
0.110013
0.111048
0.111934
0.112661
0.113223
0.113616
0.113839
0.113894
0.113784
0.113516
0.113101
0.112548
0.111867
0.111071
0.11017
0.109174
0.108094
0.10694
0.105722
0.104447
0.103125
0.101763
0.100367
0.0989447
0.0975012
0.0960418
0.094571
0.093093
0.0916118
0.0901308
0.0886533
0.0871824
0.085721
0.084272
0.0828382
0.0814223
0.080027
0.078655
0.0773091
0.0759918
0.0747058
0.0734536
0.0722375
0.07106
0.069923
0.0688286
0.0677783
0.0667736
0.0658155
0.0649049
0.0640423
0.0632277
0.0624611
0.061742
0.0610695
0.0604425
0.0598599
0.0593199
0.0588209
0.058361
0.0579382
0.0575503
0.0571952
0.0568707
0.0565746
0.0563046
0.0560587
0.0558354
0.0556328
0.055449
0.0552822
0.0551308
0.0549932
0.0548682
0.0547544
0.0546505
0.0545557
0.0544687
0.0543889
0.0543154
0.0542474
0.0541843
0.0541256
0.0540707
0.0540192
0.0539707
0.0539247
0.053881
0.0538394
0.0537994
0.0537609
0.0537237
0.0536876
0.0536525
0.0536181
0.0535845
0.0535513
0.0535186
0.0534863
0.0534543
0.0534224
0.0533907
0.0533591
0.0533274
0.0532957
0.0532639
0.053232
0.0531999
0.0531675
0.0531349
0.0531019
0.0530685
0.0530347
0.0530003
0.0529652
0.0529294
0.0528927
0.0528548
0.0528155
0.0527745
0.0527314
0.0526854
0.0526359
0.0525816
0.0525211
0.0524522
0.052372
0.0522765
0.0521613
0.0520234
0.0518755
0.0139784
0.026633
0.0328775
0.0370691
0.0403179
0.0430325
0.0454136
0.0475746
0.0495841
0.0514846
0.0533028
0.0550552
0.0567519
0.0583993
0.0600012
0.0615602
0.0630785
0.0645576
0.0659995
0.0674062
0.06878
0.0701239
0.0714414
0.0727363
0.0740133
0.0752775
0.0765346
0.0777907
0.0790523
0.0803258
0.0816178
0.0829345
0.0842815
0.0856635
0.0870853
0.0885523
0.0900671
0.09163
0.0932383
0.0948865
0.0965662
0.0982665
0.0999734
0.101671
0.103342
0.104966
0.106524
0.107996
0.109365
0.110612
0.111722
0.112683
0.113484
0.114119
0.114583
0.114875
0.114996
0.114953
0.114752
0.114403
0.113915
0.113299
0.112565
0.111726
0.11079
0.109769
0.108673
0.107512
0.106294
0.105027
0.10372
0.102378
0.101009
0.0996172
0.0982085
0.0967872
0.0953572
0.0939223
0.0924857
0.0910506
0.0896199
0.0881963
0.0867825
0.0853812
0.083995
0.0826266
0.0812785
0.0799535
0.0786542
0.0773833
0.0761434
0.074937
0.0737665
0.0726342
0.0715422
0.0704925
0.0694865
0.0685256
0.0676109
0.066743
0.0659224
0.065149
0.0644225
0.0637424
0.0631077
0.0625172
0.0619695
0.061463
0.0609958
0.0605661
0.0601716
0.0598104
0.0594802
0.0591788
0.058904
0.0586537
0.0584263
0.0582198
0.0580325
0.0578624
0.057708
0.0575677
0.0574402
0.0573241
0.0572182
0.0571213
0.0570327
0.0569512
0.0568762
0.0568068
0.0567424
0.0566825
0.0566265
0.0565739
0.0565244
0.0564774
0.0564328
0.0563902
0.0563493
0.05631
0.056272
0.0562351
0.0561991
0.0561639
0.0561295
0.0560955
0.0560621
0.0560289
0.0559961
0.0559634
0.0559309
0.0558985
0.055866
0.0558335
0.0558009
0.0557682
0.0557352
0.055702
0.0556685
0.0556347
0.0556005
0.0555658
0.0555305
0.0554946
0.0554579
0.0554203
0.0553816
0.0553416
0.0552998
0.0552559
0.0552094
0.0551593
0.0551048
0.0550444
0.0549762
0.0548976
0.0548054
0.0546963
0.0545688
0.0544353
0.0141371
0.0267944
0.0331258
0.0373994
0.040727
0.0435142
0.0459577
0.0481689
0.0502157
0.0521416
0.0539747
0.0557335
0.0574301
0.0590725
0.0606658
0.0622136
0.0637185
0.0651825
0.0666073
0.0679946
0.0693464
0.070665
0.0719531
0.0732139
0.0744515
0.0756705
0.0768763
0.0780748
0.0792728
0.0804772
0.0816955
0.082935
0.0842029
0.0855057
0.08685
0.088243
0.0896892
0.0911907
0.0927467
0.0943534
0.0960034
0.0976866
0.0993895
0.101096
0.102787
0.104442
0.10604
0.107561
0.108985
0.110293
0.111466
0.112492
0.113363
0.114065
0.114596
0.114957
0.11515
0.11518
0.115053
0.114779
0.114366
0.113825
0.113167
0.112402
0.11154
0.110593
0.109571
0.108482
0.107336
0.106141
0.104905
0.103634
0.102334
0.101012
0.0996705
0.0983154
0.0969501
0.0955781
0.0942026
0.0928263
0.091452
0.0900822
0.0887195
0.0873663
0.0860251
0.0846985
0.0833889
0.0820991
0.0808317
0.0795893
0.0783746
0.0771903
0.0760389
0.0749228
0.0738444
0.0728056
0.0718083
0.070854
0.0699441
0.0690794
0.0682605
0.0674876
0.0667608
0.0660795
0.065443
0.0648502
0.0643
0.0637907
0.0633207
0.062888
0.0624908
0.0621268
0.0617941
0.0614903
0.0612134
0.0609611
0.0607319
0.0605236
0.0603346
0.060163
0.0600073
0.0598657
0.0597371
0.0596199
0.0595131
0.0594154
0.059326
0.0592438
0.0591681
0.0590982
0.0590333
0.0589729
0.0589164
0.0588634
0.0588134
0.0587661
0.0587211
0.0586781
0.0586369
0.0585972
0.0585588
0.0585215
0.0584852
0.0584497
0.0584148
0.0583805
0.0583467
0.0583132
0.05828
0.058247
0.0582141
0.0581812
0.0581484
0.0581155
0.0580825
0.0580493
0.058016
0.0579824
0.0579485
0.0579143
0.0578796
0.0578445
0.0578088
0.0577725
0.0577354
0.0576975
0.0576584
0.057618
0.057576
0.0575319
0.0574852
0.0574353
0.0573811
0.0573214
0.0572545
0.0571782
0.0570899
0.056987
0.0568693
0.0567485
0.0141435
0.0267153
0.0330895
0.0374151
0.0407976
0.0436385
0.0461311
0.0483837
0.0504632
0.052413
0.0542617
0.0560291
0.0577283
0.0593687
0.0609564
0.0624959
0.0639901
0.0654412
0.0668509
0.0682207
0.069552
0.0708463
0.0721058
0.073333
0.074531
0.0757039
0.0768565
0.0779946
0.0791246
0.080254
0.0813909
0.0825437
0.083721
0.0849311
0.0861828
0.0874846
0.0888431
0.0902624
0.0917436
0.0932846
0.09488
0.0965205
0.0981934
0.099883
0.10157
0.103233
0.104849
0.106397
0.107857
0.109211
0.110432
0.111509
0.112434
0.113198
0.113796
0.114229
0.114497
0.114605
0.114559
0.114367
0.114038
0.113582
0.113008
0.112329
0.111553
0.110692
0.109755
0.108752
0.107691
0.106581
0.105429
0.104241
0.103024
0.101783
0.100523
0.0992471
0.0979596
0.0966637
0.0953622
0.0940578
0.0927529
0.0914499
0.090151
0.0888586
0.087575
0.0863025
0.0850437
0.083801
0.0825771
0.0813746
0.0801963
0.0790449
0.0779229
0.076833
0.0757777
0.0747591
0.0737792
0.07284
0.0719427
0.0710887
0.0702787
0.0695131
0.0687921
0.0681155
0.0674826
0.0668928
0.0663447
0.065837
0.0653682
0.0649365
0.0645399
0.0641764
0.063844
0.0635406
0.063264
0.0630121
0.062783
0.062575
0.0623861
0.0622146
0.062059
0.0619176
0.0617891
0.0616721
0.0615654
0.0614679
0.0613786
0.0612967
0.0612212
0.0611514
0.0610867
0.0610265
0.0609702
0.0609173
0.0608675
0.0608203
0.0607754
0.0607326
0.0606914
0.0606518
0.0606135
0.0605763
0.0605401
0.0605046
0.0604698
0.0604356
0.0604018
0.0603683
0.0603352
0.0603021
0.0602692
0.0602364
0.0602036
0.0601707
0.0601376
0.0601045
0.0600711
0.0600375
0.0600036
0.0599693
0.0599346
0.0598995
0.0598638
0.0598275
0.0597905
0.0597525
0.0597136
0.0596733
0.0596314
0.0595876
0.0595414
0.059492
0.0594387
0.0593803
0.0593153
0.0592418
0.0591578
0.0590613
0.058953
0.0588435
0.0140108
0.0264353
0.0328243
0.0371849
0.0406091
0.0434935
0.0460276
0.0483176
0.0504288
0.0524038
0.0542714
0.0560517
0.0577587
0.0594023
0.0609895
0.0625252
0.064013
0.0654551
0.0668531
0.0682084
0.0695219
0.0707947
0.0720281
0.0732239
0.0743845
0.0755132
0.0766141
0.0776925
0.0787546
0.0798079
0.0808608
0.0819225
0.083003
0.0841122
0.085261
0.0864592
0.0877147
0.0890336
0.0904191
0.0918711
0.0933857
0.0949556
0.0965692
0.0982124
0.0998688
0.101511
0.103115
0.104661
0.106128
0.107496
0.108746
0.109864
0.110838
0.111659
0.112322
0.112826
0.113171
0.11336
0.113399
0.113295
0.113056
0.112692
0.112212
0.111626
0.110945
0.110179
0.109337
0.108429
0.107463
0.106447
0.105389
0.104295
0.10317
0.10202
0.10085
0.0996636
0.0984636
0.0972534
0.0960358
0.0948131
0.0935875
0.0923611
0.0911361
0.0899144
0.0886983
0.08749
0.0862917
0.0851059
0.0839351
0.0827821
0.0816495
0.08054
0.0794564
0.0784013
0.0773774
0.076387
0.0754323
0.0745155
0.073638
0.0728013
0.0720065
0.0712542
0.0705447
0.0698781
0.069254
0.0686716
0.0681301
0.0676281
0.0671643
0.0667369
0.0663442
0.0659842
0.0656549
0.0653543
0.0650803
0.0648309
0.064604
0.0643979
0.0642109
0.0640411
0.063887
0.063747
0.0636198
0.0635041
0.0633986
0.0633022
0.063214
0.063133
0.0630585
0.0629896
0.0629257
0.0628663
0.0628107
0.0627586
0.0627094
0.0626629
0.0626187
0.0625764
0.0625358
0.0624967
0.0624589
0.0624222
0.0623865
0.0623515
0.0623171
0.0622833
0.0622499
0.0622168
0.062184
0.0621514
0.0621189
0.0620864
0.0620539
0.0620213
0.0619887
0.0619558
0.0619228
0.0618895
0.061856
0.061822
0.0617877
0.061753
0.0617177
0.0616817
0.0616451
0.0616076
0.0615691
0.0615293
0.0614881
0.061445
0.0613996
0.0613513
0.0612993
0.0612427
0.0611801
0.0611099
0.0610306
0.0609407
0.0608412
0.0607421
0.0137449
0.0259845
0.032376
0.0367678
0.0402317
0.0431583
0.045734
0.0480629
0.0502088
0.0522135
0.0541057
0.0559054
0.0576269
0.0592805
0.0608738
0.062412
0.063899
0.0653372
0.0667285
0.0680738
0.0693739
0.0706295
0.0718413
0.0730105
0.0741386
0.0752283
0.0762829
0.0773069
0.0783062
0.0792878
0.0802601
0.0812329
0.082217
0.083224
0.0842669
0.0853547
0.086497
0.0877013
0.0889728
0.0903131
0.0917205
0.093189
0.0947088
0.0962664
0.0978446
0.0994229
0.100979
0.102493
0.103942
0.105307
0.106568
0.107711
0.108722
0.109592
0.110315
0.110886
0.111307
0.111578
0.111704
0.11169
0.111546
0.111278
0.110896
0.11041
0.10983
0.109164
0.108424
0.107617
0.106752
0.105836
0.104878
0.103883
0.102857
0.101805
0.100731
0.0996393
0.0985332
0.0974153
0.0962881
0.0951538
0.0940144
0.0928718
0.0917278
0.0905843
0.0894431
0.0883065
0.0871764
0.0860552
0.0849453
0.0838493
0.08277
0.08171
0.0806721
0.0796592
0.0786738
0.0777185
0.0767957
0.0759077
0.0750562
0.0742428
0.0734689
0.0727352
0.0720424
0.0713906
0.0707797
0.0702091
0.0696781
0.0691855
0.0687301
0.0683103
0.0679245
0.0675707
0.0672471
0.0669517
0.0666824
0.0664374
0.0662146
0.0660122
0.0658285
0.0656618
0.0655105
0.0653732
0.0652485
0.065135
0.0650317
0.0649373
0.064851
0.0647718
0.0646989
0.0646315
0.0645691
0.0645111
0.0644568
0.0644059
0.0643579
0.0643125
0.0642693
0.064228
0.0641884
0.0641503
0.0641134
0.0640775
0.0640426
0.0640084
0.0639748
0.0639418
0.0639091
0.0638768
0.0638447
0.0638128
0.063781
0.0637492
0.0637174
0.0636855
0.0636535
0.0636214
0.063589
0.0635564
0.0635235
0.0634903
0.0634566
0.0634226
0.063388
0.0633528
0.0633169
0.0632802
0.0632425
0.0632037
0.0631634
0.0631215
0.0630773
0.0630305
0.0629803
0.0629258
0.062866
0.0627996
0.0627252
0.0626419
0.062551
0.0624616
0.0133638
0.0253744
0.031781
0.0362158
0.0397289
0.0427056
0.0453299
0.0477044
0.0498919
0.0519337
0.0538581
0.0556851
0.0574291
0.0591007
0.0607077
0.0622558
0.063749
0.0651901
0.066581
0.0679226
0.0692158
0.0704609
0.0716582
0.0728083
0.0739124
0.0749722
0.0759902
0.0769704
0.0779176
0.0788385
0.0797409
0.0806346
0.0815304
0.0824407
0.083378
0.0843523
0.0853734
0.0864499
0.0875882
0.0887919
0.0900614
0.0913935
0.0927812
0.0942139
0.0956774
0.0971547
0.0986268
0.100074
0.101474
0.102809
0.104059
0.105208
0.106242
0.107149
0.107922
0.108554
0.109045
0.109395
0.109606
0.109684
0.109633
0.109463
0.109181
0.108797
0.108319
0.107757
0.107119
0.106415
0.105653
0.10484
0.103984
0.10309
0.102165
0.101213
0.100238
0.0992444
0.098235
0.0972125
0.0961792
0.0951371
0.0940879
0.0930333
0.091975
0.0909144
0.0898534
0.0887937
0.0877373
0.0866864
0.0856432
0.0846103
0.0835902
0.0825857
0.0815996
0.0806347
0.0796938
0.0787795
0.0778943
0.0770406
0.0762205
0.0754356
0.0746875
0.0739773
0.0733057
0.072673
0.0720794
0.0715245
0.0710076
0.0705279
0.0700841
0.0696748
0.0692985
0.0689535
0.0686379
0.0683498
0.0680874
0.0678485
0.0676314
0.0674343
0.0672554
0.0670931
0.066946
0.0668124
0.0666912
0.066581
0.0664807
0.0663891
0.0663054
0.0662287
0.0661581
0.0660929
0.0660325
0.0659764
0.0659239
0.0658747
0.0658284
0.0657845
0.0657428
0.0657029
0.0656647
0.0656278
0.0655922
0.0655575
0.0655238
0.0654907
0.0654583
0.0654263
0.0653947
0.0653634
0.0653323
0.0653014
0.0652706
0.0652398
0.065209
0.0651781
0.0651471
0.0651159
0.0650845
0.0650529
0.065021
0.0649888
0.0649561