/*--------------------------------*- C++ -*----------------------------------*\
  =========                 |
  \\      /  F ield         | OpenFOAM: The Open Source CFD Toolbox
   \\    /   O peration     | Website:  https://openfoam.org
    \\  /    A nd           | Version:  6
     \\/     M anipulation  |
\*---------------------------------------------------------------------------*/
FoamFile
{
    version     2.0;
    format      ascii;
    class       volScalarField;
    location    "0.1";
    object      nut;
}
// * * * * * * * * * * * * * * * * * * * * * * * * * * * * * * * * * * * * * //

dimensions      [0 2 -1 0 0 0 0];

internalField   nonuniform List<scalar> 
12225
(
1.77723e-05
1.42682e-05
1.23505e-05
1.11623e-05
1.03599e-05
9.78901e-06
9.36262e-06
9.02838e-06
8.75535e-06
8.52533e-06
8.3272e-06
8.15383e-06
8.00041e-06
7.86353e-06
7.74073e-06
7.63033e-06
7.53226e-06
7.45465e-06
0.000144881
0.00010191
8.78902e-05
8.05281e-05
7.60713e-05
7.30904e-05
7.0788e-05
6.87828e-05
6.69483e-05
6.52572e-05
6.3702e-05
6.22746e-05
6.09671e-05
5.97716e-05
5.86861e-05
5.76996e-05
5.68401e-05
5.614e-05
0.000323318
0.000223565
0.000189786
0.000172545
0.000162016
0.000154923
0.000149664
0.000145401
0.000141731
0.000138472
0.000135533
0.000132861
0.000130423
0.000128196
0.000126169
0.000124336
0.000122733
0.000121453
0.000493962
0.000355228
0.000299422
0.000269617
0.000251078
0.000238477
0.000229261
0.000222058
0.000216125
0.000211057
0.000206622
0.000202679
0.000199136
0.000195936
0.000193042
0.000190439
0.000188158
0.000186269
0.000624468
0.000478673
0.000407348
0.000366193
0.000339612
0.000321148
0.000307553
0.000297016
0.000288495
0.000281371
0.000275265
0.000269933
0.000265215
0.000261002
0.000257226
0.000253847
0.000250876
0.000248373
0.00071311
0.000583357
0.000506518
0.000457904
0.000424884
0.000401218
0.000383477
0.000369639
0.000358473
0.000349206
0.000341342
0.000334545
0.000328591
0.000323321
0.00031863
0.000314451
0.000310772
0.000307647
0.000769322
0.000665585
0.000592307
0.000541157
0.000504319
0.000476888
0.000455803
0.000439108
0.000425538
0.000414255
0.000404692
0.000396457
0.000389275
0.000382948
0.000377337
0.000372354
0.000367964
0.000364206
0.000803469
0.000726314
0.000662554
0.000613426
0.000575724
0.000546406
0.00052318
0.000504407
0.000488941
0.000475975
0.000464936
0.000455413
0.000447105
0.000439792
0.000433313
0.000427563
0.000422491
0.000418117
0.000823637
0.000768936
0.000717234
0.000673435
0.000637542
0.000608293
0.000584321
0.000564461
0.000547804
0.000533662
0.000521515
0.000510972
0.000501739
0.000493589
0.000486359
0.000479932
0.000474249
0.000469313
0.000835326
0.000797603
0.000757856
0.000721127
0.000689011
0.000661539
0.000638184
0.00061829
0.000601251
0.00058655
0.000573769
0.000562573
0.000552699
0.000543939
0.000536135
0.000529175
0.000522998
0.000517593
0.000842018
0.000816206
0.000786763
0.000757438
0.00073018
0.000705713
0.00068411
0.000665154
0.000648532
0.000633924
0.000621036
0.000609614
0.000599445
0.000590356
0.000582209
0.000574907
0.000568393
0.000562649
0.000845509
0.000826946
0.000804879
0.000781715
0.000759121
0.000737996
0.000718704
0.000701305
0.000685702
0.000671735
0.000659224
0.000647998
0.000637899
0.000628795
0.000620577
0.000613166
0.00060652
0.000600622
0.00084762
0.00083395
0.000817498
0.000799578
0.000781374
0.000763705
0.000747037
0.000731583
0.000717399
0.000704452
0.000692665
0.00068194
0.000672181
0.000663295
0.000655208
0.000647862
0.000641231
0.000635294
0.000848982
0.000838783
0.000826788
0.000813502
0.000799583
0.000785605
0.000771983
0.000758977
0.000746728
0.000735295
0.000724681
0.000714861
0.000705794
0.000697435
0.000689746
0.000682695
0.000676265
0.00067044
0.000849784
0.000841797
0.000832945
0.000823285
0.000813053
0.000802543
0.000792022
0.0007817
0.000771723
0.000762186
0.00075314
0.000744607
0.000736593
0.000729093
0.000722096
0.000715596
0.000709596
0.000704079
0.00085021
0.000843473
0.000836563
0.00082936
0.000821866
0.000814157
0.000806342
0.000798531
0.00079082
0.000783286
0.000775989
0.000768966
0.000762243
0.000755838
0.000749766
0.000744042
0.000738679
0.000733658
0.00085041
0.000844285
0.000838395
0.000832592
0.000826789
0.000820947
0.000815067
0.000809172
0.000803293
0.000797467
0.000791729
0.000786108
0.000780632
0.000775326
0.000770215
0.000765322
0.000760664
0.000756214
0.000850482
0.000844584
0.000839093
0.00083387
0.000828812
0.000823845
0.000818923
0.000814025
0.000809145
0.000804289
0.00079947
0.000794704
0.000790012
0.000785413
0.000780933
0.000776595
0.000772413
0.000768355
0.000850461
0.000844498
0.000838893
0.000833508
0.000828244
0.000823037
0.000817856
0.000812688
0.000807538
0.000802417
0.000797343
0.000792336
0.000787415
0.000782603
0.000777921
0.000773394
0.000769034
0.000764809
0.000850264
0.000843694
0.000837071
0.000830271
0.000823267
0.000816101
0.000808842
0.000801572
0.000794365
0.000787282
0.000780372
0.000773671
0.000767206
0.000760995
0.000755056
0.000749404
0.000744047
0.000738949
0.000849708
0.000841531
0.000832443
0.000822542
0.000812089
0.00080138
0.000790678
0.000780185
0.000770039
0.000760328
0.000751098
0.000742368
0.000734138
0.000726401
0.000719144
0.000712359
0.000706033
0.000700123
0.000848163
0.000835944
0.000821408
0.000805504
0.000789156
0.000773056
0.000757638
0.000743136
0.000729647
0.000717178
0.000705693
0.000695127
0.000685407
0.000676463
0.00066823
0.000660658
0.000653705
0.000647311
0.000844086
0.00082274
0.00079792
0.00077247
0.000748114
0.000725667
0.000705391
0.000687251
0.000671079
0.000656657
0.000643769
0.000632212
0.000621809
0.000612408
0.000603887
0.000596151
0.00058913
0.000582752
0.000833788
0.000794233
0.000753344
0.000715981
0.000683495
0.00065578
0.000632248
0.000612211
0.000595039
0.000580206
0.000567283
0.000555931
0.000545878
0.000536912
0.000528868
0.000521626
0.000515099
0.000509219
0.000809072
0.000738671
0.000678487
0.000630825
0.000593451
0.000563907
0.000540217
0.0005209
0.000504877
0.000491371
0.000479816
0.000469798
0.00046101
0.000453223
0.000446265
0.000440015
0.000434394
0.000429347
0.00075368
0.000642661
0.000568188
0.00051752
0.000481466
0.000454813
0.000434441
0.000418377
0.000405351
0.000394525
0.000385336
0.000377395
0.00037043
0.000364244
0.000358698
0.000353693
0.000349172
0.000345108
0.000641462
0.000499127
0.000426742
0.000383904
0.000355736
0.000335988
0.000321422
0.000310167
0.000301107
0.000293562
0.000287108
0.000281469
0.000276459
0.000271954
0.000267865
0.000264133
0.000260727
0.000257646
0.00044855
0.00032017
0.000270253
0.000243417
0.000226641
0.000215329
0.000207163
0.000200838
0.000195635
0.000191167
0.000187219
0.000183664
0.000180423
0.000177447
0.000174697
0.000172151
0.000169797
0.000167648
0.000203095
0.000143544
0.000122959
0.000111682
0.000104774
0.000100313
9.71119e-05
9.4507e-05
9.22035e-05
9.00925e-05
8.8135e-05
8.63137e-05
8.46183e-05
8.30405e-05
8.15721e-05
8.02051e-05
7.89335e-05
7.77583e-05
2.40294e-05
1.96338e-05
1.71026e-05
1.54661e-05
1.4323e-05
1.34896e-05
1.28607e-05
1.23686e-05
1.19701e-05
1.16376e-05
1.13536e-05
1.11063e-05
1.0888e-05
1.06932e-05
1.05178e-05
1.03589e-05
1.0214e-05
1.0082e-05
2.62525e-06
7.37932e-06
8.20951e-06
9.07596e-06
9.91561e-06
1.06034e-05
1.11781e-05
1.16982e-05
1.21841e-05
1.26481e-05
1.30977e-05
1.35365e-05
1.39656e-05
1.43849e-05
1.47937e-05
1.51914e-05
1.55771e-05
1.59504e-05
1.63112e-05
1.66593e-05
1.6995e-05
1.73185e-05
1.76301e-05
1.79304e-05
1.82197e-05
1.84986e-05
1.87677e-05
1.90275e-05
1.92787e-05
1.95221e-05
1.97585e-05
1.9989e-05
2.02149e-05
2.04374e-05
2.06738e-05
2.08992e-05
2.1114e-05
2.13186e-05
2.1513e-05
2.16968e-05
2.18695e-05
2.20306e-05
2.21793e-05
2.2315e-05
2.24369e-05
2.25443e-05
2.26367e-05
2.27133e-05
2.27737e-05
2.28173e-05
2.28439e-05
2.2853e-05
2.28447e-05
2.28189e-05
2.27756e-05
2.27151e-05
2.26376e-05
2.25436e-05
2.24334e-05
2.23072e-05
2.21648e-05
2.20054e-05
2.18273e-05
2.16363e-05
2.1456e-05
2.13257e-05
2.12043e-05
2.10793e-05
2.09482e-05
2.08108e-05
2.06671e-05
2.05176e-05
2.03628e-05
2.0203e-05
2.00387e-05
1.98703e-05
1.96981e-05
1.95226e-05
1.9344e-05
1.91628e-05
1.89794e-05
1.8794e-05
1.86071e-05
1.8419e-05
1.82301e-05
1.80409e-05
1.78518e-05
1.76633e-05
1.74758e-05
1.72899e-05
1.7106e-05
1.69247e-05
1.67465e-05
1.65718e-05
1.64013e-05
1.62353e-05
1.60743e-05
1.59186e-05
1.57688e-05
1.56249e-05
1.54873e-05
1.5356e-05
1.52313e-05
1.51132e-05
1.50016e-05
1.48964e-05
1.47975e-05
1.47048e-05
1.46179e-05
1.45366e-05
1.44599e-05
1.4388e-05
1.43219e-05
1.42609e-05
1.42042e-05
1.41515e-05
1.41023e-05
1.40563e-05
1.40131e-05
1.39725e-05
1.39342e-05
1.38979e-05
1.38634e-05
1.38305e-05
1.3799e-05
1.37688e-05
1.37397e-05
1.37115e-05
1.36842e-05
1.36576e-05
1.36316e-05
1.36062e-05
1.35813e-05
1.35568e-05
1.35326e-05
1.35087e-05
1.34851e-05
1.34616e-05
1.34383e-05
1.34152e-05
1.33921e-05
1.3369e-05
1.3346e-05
1.33231e-05
1.33001e-05
1.3277e-05
1.32539e-05
1.32308e-05
1.32076e-05
1.31843e-05
1.31609e-05
1.31373e-05
1.31137e-05
1.30899e-05
1.30659e-05
1.30418e-05
1.30175e-05
1.29931e-05
1.29684e-05
1.29435e-05
1.29185e-05
1.28931e-05
1.28675e-05
1.28416e-05
1.28154e-05
1.27888e-05
1.27618e-05
1.27342e-05
1.2706e-05
1.26771e-05
1.26471e-05
1.26159e-05
1.2583e-05
1.25477e-05
1.2509e-05
1.2465e-05
1.24124e-05
1.23442e-05
1.22479e-05
1.20977e-05
4.05947e-06
2.91603e-05
4.46953e-05
5.21644e-05
5.64285e-05
5.95849e-05
6.22849e-05
6.47505e-05
6.71041e-05
6.94424e-05
7.18433e-05
7.43642e-05
7.70416e-05
7.98943e-05
8.29272e-05
8.61352e-05
8.95064e-05
9.30246e-05
9.66716e-05
0.000100429
0.000104277
0.000108199
0.00011218
0.000116204
0.000120259
0.00012433
0.000128404
0.000132466
0.000136496
0.000140473
0.000144366
0.000148139
0.000151745
0.000155139
0.000158269
0.000161346
0.00016441
0.000167461
0.000170493
0.000173496
0.000176459
0.000179367
0.000182208
0.000184967
0.000187628
0.000190177
0.000192597
0.000194876
0.000196999
0.000198954
0.000200729
0.000202316
0.000203706
0.000204894
0.000205874
0.000206644
0.000207201
0.000207542
0.000207664
0.000207558
0.00020721
0.000206594
0.000205675
0.000204425
0.000202883
0.000201161
0.000199305
0.000197337
0.00019527
0.000193116
0.000190886
0.000188589
0.000186233
0.000183826
0.000181375
0.000178888
0.000176371
0.000173829
0.000171268
0.000168695
0.000166114
0.000163531
0.000160951
0.000158379
0.000155821
0.000153283
0.000150769
0.000148286
0.000145839
0.000143435
0.000141078
0.000138774
0.000136529
0.000134348
0.000132236
0.000130197
0.000128235
0.000126354
0.000124556
0.000122844
0.000121219
0.000119682
0.000118233
0.000116871
0.000115595
0.000114403
0.000113292
0.00011226
0.000111303
0.000110416
0.000109588
0.000108789
0.000108032
0.000107342
0.000106714
0.000106143
0.000105623
0.000105149
0.000104716
0.000104319
0.000103954
0.000103617
0.000103306
0.000103017
0.000102747
0.000102495
0.000102258
0.000102034
0.000101822
0.00010162
0.000101426
0.000101239
0.000101059
0.000100884
0.000100714
0.000100547
0.000100384
0.000100223
0.000100064
9.99059e-05
9.97495e-05
9.95937e-05
9.94385e-05
9.92834e-05
9.91282e-05
9.89728e-05
9.88168e-05
9.86603e-05
9.8503e-05
9.83447e-05
9.81854e-05
9.80249e-05
9.78631e-05
9.76999e-05
9.75352e-05
9.73689e-05
9.72009e-05
9.7031e-05
9.6859e-05
9.66848e-05
9.65082e-05
9.63288e-05
9.61463e-05
9.59602e-05
9.57698e-05
9.55744e-05
9.53729e-05
9.51637e-05
9.49448e-05
9.47131e-05
9.44646e-05
9.41929e-05
9.38883e-05
9.3535e-05
9.31056e-05
9.25506e-05
9.17623e-05
9.05523e-05
8.8342e-05
8.49559e-05
5.11511e-06
4.11567e-05
6.86356e-05
8.49738e-05
9.51492e-05
0.000102375
0.000108329
0.000113811
0.000119198
0.000124685
0.000130376
0.000136327
0.000142557
0.000149062
0.000155817
0.000162786
0.000169927
0.000177195
0.000184547
0.000191944
0.000199352
0.000206744
0.000214096
0.00022139
0.000228613
0.000235753
0.000242799
0.000249742
0.000256569
0.000263268
0.000269825
0.000276222
0.000282446
0.000288482
0.00029438
0.000300228
0.000306053
0.000311855
0.000317623
0.000323341
0.000328988
0.00033454
0.000339971
0.000345256
0.000350365
0.000355269
0.000359941
0.000364352
0.000368477
0.00037229
0.000375769
0.000378895
0.000381651
0.000384024
0.000386003
0.000387579
0.000388748
0.000389505
0.000389846
0.000389766
0.00038926
0.00038832
0.00038694
0.000385127
0.000382924
0.000380397
0.000377595
0.000374553
0.000371295
0.000367844
0.000364217
0.000360431
0.000356502
0.000352445
0.000348274
0.000344001
0.000339639
0.000335198
0.000330691
0.000326127
0.000321518
0.000316875
0.000312207
0.000307527
0.000302843
0.000298169
0.000293515
0.000288894
0.000284316
0.000279795
0.000275342
0.00027097
0.000266689
0.000262512
0.00025845
0.000254513
0.00025071
0.000247049
0.000243538
0.000240182
0.000236987
0.000233954
0.000231087
0.000228385
0.000225846
0.00022347
0.000221251
0.000219186
0.000217267
0.000215489
0.000213839
0.0002123
0.000210857
0.000209509
0.000208274
0.000207144
0.000206112
0.000205169
0.000204306
0.000203516
0.000202791
0.000202125
0.000201511
0.000200945
0.000200419
0.000199931
0.000199475
0.000199047
0.000198645
0.000198264
0.000197902
0.000197558
0.000197227
0.000196909
0.000196601
0.000196302
0.00019601
0.000195725
0.000195445
0.000195169
0.000194897
0.000194626
0.000194358
0.000194091
0.000193825
0.000193559
0.000193292
0.000193025
0.000192757
0.000192488
0.000192218
0.000191945
0.000191671
0.000191395
0.000191115
0.000190834
0.000190549
0.000190261
0.000189969
0.000189674
0.000189374
0.000189069
0.000188758
0.000188441
0.000188117
0.000187783
0.000187438
0.000187078
0.000186702
0.000186302
0.000185872
0.0001854
0.000184871
0.000184259
0.00018352
0.00018258
0.000181289
0.000179376
0.000176179
0.000171171
5.76487e-06
4.87749e-05
8.59215e-05
0.000110466
0.00012701
0.000139094
0.000148926
0.000157768
0.000166292
0.00017484
0.000183573
0.000192552
0.000201783
0.000211238
0.000220873
0.000230632
0.000240459
0.000250299
0.000260105
0.000269836
0.000279458
0.000288947
0.000298286
0.000307464
0.000316476
0.000325318
0.000333992
0.000342501
0.000350847
0.000359033
0.000367063
0.000374938
0.000382659
0.000390226
0.000397696
0.00040512
0.000412519
0.000419895
0.000427238
0.00043453
0.000441749
0.000448869
0.000455859
0.000462687
0.000469318
0.000475717
0.000481848
0.000487674
0.000493161
0.000498276
0.000502989
0.000507271
0.0005111
0.000514455
0.000517319
0.000519679
0.000521528
0.000522858
0.000523666
0.000523953
0.000523718
0.000522965
0.000521704
0.000519946
0.000517732
0.00051511
0.000512119
0.000508793
0.000505161
0.000501246
0.000497071
0.000492658
0.000488026
0.000483193
0.000478178
0.000472995
0.000467662
0.000462194
0.000456604
0.000450908
0.00044512
0.000439255
0.000433326
0.000427349
0.000421339
0.000415311
0.000409281
0.000403266
0.000397282
0.000391347
0.000385477
0.000379691
0.000374004
0.000368435
0.000362998
0.000357708
0.000352582
0.00034763
0.000342865
0.000338296
0.000333931
0.000329777
0.000325837
0.000322114
0.000318608
0.000315316
0.000312237
0.000309364
0.00030669
0.000304209
0.000301908
0.000299773
0.000297791
0.000295944
0.000294239
0.000292676
0.000291244
0.000289933
0.000288732
0.000287632
0.000286624
0.000285697
0.000284844
0.000284058
0.000283331
0.000282657
0.000282029
0.000281443
0.000280893
0.000280375
0.000279886
0.00027942
0.000278977
0.000278552
0.000278142
0.000277747
0.000277363
0.000276989
0.000276623
0.000276264
0.00027591
0.000275561
0.000275215
0.000274872
0.000274531
0.00027419
0.00027385
0.00027351
0.000273169
0.000272827
0.000272483
0.000272138
0.00027179
0.00027144
0.000271087
0.00027073
0.00027037
0.000270005
0.000269637
0.000269263
0.000268884
0.000268498
0.000268106
0.000267705
0.000267294
0.000266871
0.000266435
0.00026598
0.000265503
0.000264997
0.000264453
0.000263858
0.000263192
0.000262426
0.000261511
0.000260364
0.000258837
0.000256664
0.000253325
0.000248483
6.17043e-06
5.37582e-05
9.84549e-05
0.0001302
0.0001529
0.000170034
0.000183989
0.000196281
0.000207808
0.000219069
0.000230316
0.000241654
0.000253108
0.000264656
0.000276253
0.000287843
0.000299372
0.000310788
0.000322046
0.000333111
0.000343955
0.00035456
0.000364917
0.000375021
0.000384878
0.000394493
0.000403879
0.00041305
0.00042202
0.000430805
0.000439419
0.000447876
0.000456185
0.000464353
0.000472434
0.000480478
0.000488509
0.000496533
0.000504547
0.000512539
0.000520491
0.000528377
0.000536168
0.000543831
0.00055133
0.000558626
0.000565678
0.000572444
0.000578885
0.00058496
0.000590632
0.000595865
0.000600628
0.000604894
0.00060864
0.000611846
0.000614498
0.000616587
0.000618107
0.000619056
0.000619436
0.000619253
0.000618505
0.000617219
0.000615433
0.00061318
0.000610495
0.000607407
0.000603943
0.000600128
0.000595985
0.000591538
0.000586807
0.000581814
0.000576577
0.000571114
0.000565445
0.000559585
0.000553553
0.000547365
0.000541038
0.000534588
0.000528033
0.000521391
0.000514678
0.000507915
0.000501119
0.000494311
0.000487511
0.000480738
0.000474016
0.000467363
0.000460802
0.000454352
0.000448035
0.000441868
0.000435872
0.000430061
0.000424451
0.000419056
0.000413886
0.000408952
0.000404258
0.000399811
0.000395611
0.000391659
0.000387953
0.000384488
0.000381257
0.000378253
0.000375465
0.000372881
0.000370486
0.000368266
0.000366208
0.000364318
0.000362584
0.000360994
0.000359536
0.0003582
0.000356974
0.000355849
0.000354813
0.000353859
0.000352977
0.000352161
0.000351403
0.000350696
0.000350035
0.000349414
0.000348828
0.000348274
0.000347746
0.000347242
0.000346759
0.000346294
0.000345843
0.000345405
0.000344979
0.000344561
0.000344151
0.000343747
0.000343348
0.000342953
0.000342561
0.00034217
0.00034178
0.000341391
0.000341002
0.000340612
0.00034022
0.000339827
0.000339431
0.000339033
0.000338631
0.000338226
0.000337817
0.000337403
0.000336985
0.00033656
0.00033613
0.000335693
0.000335247
0.000334792
0.000334326
0.000333847
0.000333352
0.000332837
0.000332296
0.000331723
0.000331108
0.000330437
0.000329689
0.000328832
0.000327817
0.000326565
0.000324938
0.000322709
0.000319507
0.000315213
6.44781e-06
5.68952e-05
0.000107355
0.00014517
0.000173425
0.000195354
0.000213327
0.000228954
0.00024327
0.000256901
0.000270197
0.000283334
0.00029638
0.000309344
0.0003222
0.000334907
0.00034742
0.000359696
0.000371698
0.000383397
0.000394772
0.000405812
0.000416513
0.000426879
0.00043692
0.000446653
0.000456096
0.000465272
0.000474208
0.000482927
0.000491454
0.000499812
0.00050802
0.000516093
0.000524085
0.000532055
0.000540035
0.000548044
0.000556089
0.000564167
0.000572265
0.000580367
0.000588446
0.000596473
0.00060441
0.000612219
0.000619855
0.000627273
0.000634428
0.000641271
0.000647759
0.000653848
0.000659498
0.000664674
0.000669343
0.000673479
0.00067706
0.00068007
0.000682497
0.000684335
0.000685584
0.000686223
0.000686274
0.000685763
0.00068472
0.00068317
0.000681141
0.000678657
0.000675744
0.000672426
0.000668725
0.000664664
0.000660265
0.000655549
0.000650535
0.000645243
0.000639692
0.000633901
0.000627889
0.000621673
0.000615272
0.000608704
0.000601988
0.000595144
0.000588192
0.000581151
0.000574043
0.000566891
0.000559716
0.000552542
0.000545393
0.000538291
0.000531261
0.000524327
0.000517511
0.000510835
0.000504322
0.000497991
0.00049186
0.000485945
0.000480261
0.000474819
0.000469629
0.000464698
0.000460029
0.000455625
0.000451484
0.000447605
0.00044398
0.000440604
0.000437466
0.000434555
0.000431858
0.000429361
0.000427047
0.000424916
0.000422958
0.000421162
0.000419513
0.000418001
0.000416612
0.000415337
0.000414164
0.000413084
0.000412087
0.000411164
0.000410308
0.000409511
0.000408766
0.000408069
0.000407412
0.000406791
0.000406203
0.000405642
0.000405105
0.000404588
0.00040409
0.000403608
0.000403138
0.000402679
0.00040223
0.000401788
0.000401353
0.000400922
0.000400495
0.000400071
0.000399648
0.000399227
0.000398805
0.000398383
0.00039796
0.000397535
0.000397108
0.000396679
0.000396246
0.000395809
0.000395369
0.000394924
0.000394473
0.000394017
0.000393554
0.000393083
0.000392604
0.000392115
0.000391614
0.000391099
0.000390567
0.000390013
0.000389433
0.000388819
0.000388161
0.000387445
0.000386648
0.000385742
0.000384677
0.000383381
0.000381733
0.000379551
0.000376581
0.000372846
6.63746e-06
5.87389e-05
0.000113428
0.00015616
0.000189182
0.000215394
0.000237045
0.000255744
0.000272586
0.000288282
0.000303267
0.000317791
0.000331978
0.000345878
0.000359498
0.000372819
0.000385813
0.000398449
0.000410701
0.000422547
0.000433972
0.00044497
0.000455543
0.0004657
0.000475456
0.000484833
0.000493858
0.000502561
0.000510975
0.000519134
0.000527072
0.000534823
0.000542417
0.00054988
0.00055727
0.000564657
0.00057209
0.000579603
0.000587215
0.000594936
0.000602765
0.000610694
0.000618704
0.000626769
0.000634855
0.000642923
0.000650927
0.000658817
0.000666541
0.000674046
0.000681278
0.000688184
0.000694715
0.000700824
0.000706471
0.000711619
0.000716235
0.000720298
0.000723784
0.000726681
0.000728952
0.000730614
0.000731683
0.000732177
0.000732114
0.000731516
0.000730403
0.000728796
0.000726717
0.000724188
0.00072123
0.000717864
0.000714111
0.000709993
0.000705528
0.000700737
0.000695639
0.000690254
0.000684601
0.000678698
0.000672566
0.000666223
0.00065969
0.000652987
0.000646136
0.000639158
0.000632076
0.000624913
0.000617695
0.000610445
0.000603188
0.000595951
0.00058876
0.00058164
0.000574616
0.000567713
0.000560955
0.000554364
0.000547962
0.000541766
0.000535795
0.000530061
0.000524577
0.000519353
0.000514394
0.000509704
0.000505284
0.000501134
0.000497248
0.000493622
0.000490246
0.00048711
0.000484203
0.000481511
0.000479019
0.000476717
0.000474601
0.000472656
0.00047087
0.000469231
0.000467725
0.000466341
0.000465069
0.000463897
0.000462815
0.000461815
0.000460887
0.000460025
0.00045922
0.000458467
0.000457759
0.000457091
0.000456458
0.000455857
0.000455282
0.00045473
0.000454199
0.000453685
0.000453186
0.000452699
0.000452223
0.000451756
0.000451296
0.000450842
0.000450393
0.000449946
0.000449502
0.00044906
0.000448618
0.000448176
0.000447733
0.000447288
0.000446842
0.000446393
0.00044594
0.000445484
0.000445024
0.000444559
0.000444089
0.000443613
0.00044313
0.000442639
0.00044214
0.00044163
0.000441108
0.000440571
0.000440017
0.000439442
0.000438839
0.000438201
0.000437519
0.000436778
0.000435958
0.00043503
0.000433948
0.000432648
0.000431028
0.000428943
0.000426229
0.000422986
6.76207e-06
5.96488e-05
0.000117264
0.000163811
0.000200755
0.000230624
0.000255495
0.000276918
0.000295994
0.000313482
0.000329879
0.000345495
0.00036051
0.000375021
0.000389069
0.000402663
0.000415797
0.000428454
0.000440618
0.000452276
0.00046342
0.000474048
0.000484165
0.000493784
0.000502924
0.000511612
0.000519879
0.000527761
0.000535298
0.000542534
0.000549512
0.000556278
0.000562874
0.00056934
0.000575743
0.000582167
0.000588681
0.000595334
0.000602165
0.000609199
0.00061645
0.00062392
0.0006316
0.000639471
0.000647502
0.000655655
0.000663881
0.000672127
0.000680334
0.00068844
0.00069638
0.000704092
0.000711516
0.000718591
0.000725267
0.000731496
0.000737232
0.000742454
0.000747088
0.000751128
0.00075457
0.000757414
0.000759667
0.000761336
0.000762435
0.000762975
0.000762973
0.000762445
0.00076141
0.000759887
0.000757894
0.000755451
0.000752578
0.000749295
0.00074562
0.000741575
0.000737177
0.000732447
0.000727404
0.000722068
0.000716458
0.000710594
0.000704499
0.000698192
0.000691696
0.000685034
0.00067823
0.000671307
0.000664292
0.000657211
0.000650089
0.000642954
0.000635834
0.000628756
0.000621746
0.000614832
0.000608039
0.000601391
0.000594911
0.000588621
0.00058254
0.000576684
0.000571067
0.000565701
0.000560594
0.000555753
0.000551179
0.000546874
0.000542836
0.000539059
0.000535537
0.000532261
0.000529221
0.000526403
0.000523795
0.000521382
0.000519161
0.000517118
0.00051524
0.000513514
0.000511928
0.000510471
0.00050913
0.000507895
0.000506755
0.000505701
0.000504725
0.000503817
0.000502971
0.00050218
0.000501437
0.000500737
0.000500075
0.000499446
0.000498846
0.000498271
0.000497718
0.000497184
0.000496666
0.000496162
0.00049567
0.000495187
0.000494712
0.000494244
0.00049378
0.000493321
0.000492864
0.00049241
0.000491956
0.000491502
0.000491048
0.000490592
0.000490135
0.000489675
0.000489212
0.000488745
0.000488274
0.000487799
0.000487318
0.000486831
0.000486337
0.000485836
0.000485325
0.000484805
0.000484272
0.000483724
0.000483159
0.000482572
0.000481958
0.00048131
0.000480618
0.000479868
0.000479041
0.00047811
0.000477034
0.000475757
0.000474193
0.000472231
0.000469768
0.000466941
6.83562e-06
5.98617e-05
0.000119301
0.000168647
0.000208681
0.000241556
0.000269149
0.000292914
0.000313927
0.000332959
0.000350545
0.000367041
0.000382673
0.00039758
0.000411839
0.000425487
0.000438538
0.000450994
0.00046285
0.000474102
0.000484747
0.000494787
0.000504231
0.000513093
0.000521396
0.000529167
0.000536442
0.000543261
0.000549671
0.000555723
0.000561472
0.000566972
0.000572283
0.00057746
0.000582581
0.000587751
0.000593057
0.000598571
0.000604352
0.000610444
0.000616878
0.000623672
0.000630828
0.000638333
0.000646163
0.000654279
0.00066263
0.000671157
0.000679794
0.000688467
0.0006971
0.000705619
0.000713952
0.00072202
0.000729762
0.000737137
0.000744029
0.000750417
0.00075627
0.000761565
0.000766286
0.000770426
0.000773979
0.000776947
0.000779333
0.000781145
0.000782394
0.000783091
0.000783251
0.000782889
0.000782022
0.000780667
0.000778843
0.000776567
0.000773859
0.000770737
0.00076722
0.000763328
0.000759079
0.000754495
0.000749594
0.000744399
0.000738929
0.000733207
0.000727256
0.000721098
0.00071476
0.000708265
0.000701639
0.000694911
0.000688107
0.000681255
0.000674383
0.000667521
0.000660696
0.000653937
0.00064727
0.000640723
0.000634318
0.000628081
0.00062203
0.000616186
0.000610564
0.000605178
0.000600039
0.000595154
0.000590529
0.000586165
0.000582062
0.000578218
0.000574627
0.000571281
0.000568171
0.000565287
0.000562615
0.000560142
0.000557861
0.000555761
0.000553829
0.000552052
0.000550418
0.000548916
0.000547533
0.000546259
0.000545084
0.000543998
0.000542991
0.000542056
0.000541185
0.000540371
0.000539608
0.000538889
0.000538209
0.000537564
0.00053695
0.000536362
0.000535796
0.000535251
0.000534723
0.00053421
0.000533709
0.000533218
0.000532736
0.00053226
0.000531791
0.000531325
0.000530863
0.000530403
0.000529944
0.000529486
0.000529027
0.000528567
0.000528105
0.000527641
0.000527174
0.000526704
0.000526229
0.00052575
0.000525265
0.000524774
0.000524277
0.000523772
0.000523258
0.000522734
0.000522197
0.000521646
0.000521078
0.000520489
0.000519873
0.000519224
0.000518532
0.000517784
0.000516963
0.000516043
0.00051499
0.000513752
0.000512261
0.000510433
0.000508206
0.000505728
6.86693e-06
5.95405e-05
0.000119876
0.000171104
0.000213446
0.000248693
0.000278511
0.000304238
0.000326897
0.000347249
0.000365842
0.000383061
0.000399169
0.000414337
0.000428674
0.000442243
0.00045508
0.000467204
0.000478621
0.000489335
0.000499351
0.000508673
0.000517313
0.000525286
0.000532614
0.000539328
0.000545464
0.000551066
0.000556184
0.000560877
0.000565208
0.000569245
0.00057306
0.000576728
0.000580345
0.000584037
0.000587914
0.000592072
0.000596595
0.000601549
0.000606986
0.00061294
0.000619427
0.000626444
0.000633969
0.000641965
0.000650376
0.000659138
0.000668173
0.000677398
0.000686715
0.00069604
0.000705303
0.000714378
0.000723178
0.000731646
0.000739716
0.000747339
0.000754474
0.000761088
0.000767155
0.000772658
0.000777583
0.000781924
0.000785677
0.000788846
0.000791433
0.000793449
0.000794901
0.000795804
0.00079617
0.000796014
0.000795353
0.000794203
0.000792581
0.000790507
0.000787997
0.000785071
0.000781749
0.000778049
0.000773992
0.000769599
0.000764892
0.000759893
0.000754625
0.000749112
0.000743378
0.00073745
0.000731353
0.000725117
0.000718768
0.000712335
0.000705848
0.000699335
0.000692827
0.000686352
0.000679938
0.000673614
0.000667404
0.000661334
0.000655427
0.000649702
0.000644179
0.000638871
0.000633793
0.000628954
0.00062436
0.000620016
0.000615923
0.00061208
0.000608483
0.000605127
0.000602002
0.000599101
0.000596411
0.000593919
0.000591619
0.000589498
0.000587544
0.000585747
0.000584093
0.000582571
0.000581169
0.000579878
0.000578687
0.000577586
0.000576566
0.000575619
0.000574737
0.000573913
0.00057314
0.000572413
0.000571727
0.000571076
0.000570456
0.000569864
0.000569295
0.000568746
0.000568216
0.0005677
0.000567197
0.000566705
0.000566222
0.000565746
0.000565276
0.000564811
0.000564349
0.000563889
0.000563431
0.000562973
0.000562515
0.000562056
0.000561596
0.000561133
0.000560667
0.000560198
0.000559725
0.000559247
0.000558765
0.000558276
0.000557781
0.000557278
0.000556766
0.000556244
0.00055571
0.000555162
0.000554598
0.000554013
0.000553402
0.000552759
0.000552075
0.000551339
0.000550533
0.000549635
0.000548615
0.000547429
0.000546021
0.000544329
0.000542319
0.000540136
6.86159e-06
5.88033e-05
0.000119257
0.000171553
0.000215482
0.000252505
0.000284073
0.000311396
0.000335425
0.00035689
0.000376336
0.00039416
0.000410648
0.000425995
0.000440335
0.000453756
0.000466312
0.000478035
0.000488948
0.00049906
0.000508382
0.000516923
0.000524696
0.000531715
0.000538004
0.000543592
0.000548515
0.000552819
0.000556556
0.000559789
0.00056259
0.000565038
0.000567218
0.000569225
0.00057118
0.000573233
0.000575521
0.000578168
0.000581284
0.000584961
0.000589275
0.000594278
0.0006
0.000606449
0.000613608
0.000621435
0.000629869
0.000638835
0.000648251
0.000658034
0.00066802
0.000678119
0.000688236
0.000698268
0.000708123
0.000717721
0.000726991
0.000735871
0.00074431
0.000752264
0.000759698
0.000766587
0.000772909
0.00077865
0.000783803
0.000788363
0.000792329
0.000795706
0.0007985
0.00080072
0.000802376
0.00080348
0.000804048
0.000804093
0.000803632
0.000802681
0.000801259
0.000799382
0.000797071
0.000794344
0.000791222
0.000787725
0.000783875
0.000779695
0.000775208
0.000770438
0.00076541
0.00076015
0.000754685
0.000749043
0.000743252
0.000737341
0.00073134
0.000725279
0.000719189
0.000713098
0.000707035
0.00070103
0.00069511
0.000689301
0.000683626
0.000678107
0.000672765
0.000667617
0.000662676
0.000657955
0.000653462
0.000649203
0.000645181
0.000641398
0.000637849
0.000634533
0.000631441
0.000628566
0.000625897
0.000623424
0.000621137
0.000619026
0.00061708
0.000615287
0.000613637
0.000612118
0.000610719