/*--------------------------------*- C++ -*----------------------------------*\
  =========                 |
  \\      /  F ield         | OpenFOAM: The Open Source CFD Toolbox
   \\    /   O peration     | Website:  https://openfoam.org
    \\  /    A nd           | Version:  6
     \\/     M anipulation  |
\*---------------------------------------------------------------------------*/
FoamFile
{
    version     2.0;
    format      ascii;
    class       volScalarField;
    location    "0.1";
    object      p;
}
// * * * * * * * * * * * * * * * * * * * * * * * * * * * * * * * * * * * * * //

dimensions      [0 2 -2 0 0 0 0];

internalField   nonuniform List<scalar> 
12225
(
0.325926
0.0735509
-0.00436779
-0.0147084
-0.0190198
-0.0233703
-0.0256475
-0.0267564
-0.0277301
-0.0287125
-0.0296282
-0.0304909
-0.031346
-0.032222
-0.0331766
-0.034248
-0.0360076
-0.0383223
-0.0559219
-0.0256708
-0.0246921
-0.0180784
-0.0185233
-0.0222712
-0.0247941
-0.0262256
-0.0274061
-0.0284982
-0.029478
-0.0303845
-0.0312712
-0.0321675
-0.0331341
-0.0342
-0.0357746
-0.0375192
-0.0929326
-0.021937
-0.0200703
-0.0175863
-0.0182408
-0.0215825
-0.0240564
-0.0256076
-0.0269017
-0.028076
-0.0291232
-0.0300868
-0.0310189
-0.0319481
-0.0329294
-0.0339638
-0.0353014
-0.0362808
-0.0475629
-0.00870766
-0.0165897
-0.0177237
-0.0185512
-0.0214046
-0.0236697
-0.0252065
-0.0265284
-0.0277364
-0.0288225
-0.0298245
-0.0307874
-0.0317357
-0.032709
-0.0336876
-0.0347752
-0.0354377
-0.0271434
-0.00874896
-0.0170517
-0.0184325
-0.0191128
-0.02151
-0.0235452
-0.025021
-0.026324
-0.0275277
-0.028623
-0.0296396
-0.0306136
-0.0315633
-0.0325114
-0.0334269
-0.0343283
-0.034873
-0.0247795
-0.0130264
-0.0182179
-0.0191331
-0.0197191
-0.0217357
-0.0235572
-0.0249605
-0.0262246
-0.027404
-0.0284902
-0.0295055
-0.0304768
-0.0314164
-0.032333
-0.0331937
-0.0339769
-0.034482
-0.0246329
-0.0159245
-0.0189364
-0.019716
-0.0203107
-0.0220171
-0.0236458
-0.0249726
-0.0261886
-0.0273335
-0.0284
-0.0294037
-0.0303636
-0.0312868
-0.0321732
-0.0329929
-0.0337128
-0.0342288
-0.0236266
-0.0175245
-0.0194348
-0.0202346
-0.0208649
-0.0223219
-0.0237808
-0.0250308
-0.0261942
-0.0272994
-0.0283395
-0.0293248
-0.0302679
-0.0311719
-0.0320327
-0.0328265
-0.0335239
-0.0340835
-0.0226139
-0.0186506
-0.0199142
-0.0207082
-0.0213665
-0.0226277
-0.0239399
-0.0251153
-0.0262252
-0.0272882
-0.0282981
-0.0292607
-0.0301837
-0.0310683
-0.0319092
-0.0326902
-0.0333922
-0.0340103
-0.0220056
-0.0195584
-0.0203868
-0.0211347
-0.0218094
-0.022919
-0.0241056
-0.0252101
-0.0262671
-0.0272874
-0.0282649
-0.0292022
-0.0301037
-0.0309696
-0.0317961
-0.032574
-0.033295
-0.0339727
-0.0217272
-0.0202757
-0.0208312
-0.0215174
-0.0221958
-0.0231878
-0.0242667
-0.0253039
-0.0263093
-0.0272871
-0.0282312
-0.0291417
-0.0300211
-0.0308695
-0.0316851
-0.0324649
-0.0332089
-0.033938
-0.0216552
-0.0207897
-0.0212061
-0.0218351
-0.0225043
-0.0234099
-0.0244029
-0.025381
-0.0263401
-0.0272792
-0.0281921
-0.0290775
-0.0299364
-0.0307694
-0.0315766
-0.0323588
-0.0331207
-0.033884
-0.021689
-0.0212123
-0.0215374
-0.0221144
-0.0227691
-0.0236027
-0.0245218
-0.0254461
-0.0263614
-0.0272632
-0.0281451
-0.029005
-0.029843
-0.0306603
-0.0314583
-0.0322407
-0.0330147
-0.0337985
-0.0218125
-0.0216041
-0.0218727
-0.0223955
-0.0230241
-0.0237885
-0.0246336
-0.0254996
-0.0263661
-0.0272255
-0.0280712
-0.0289003
-0.0297126
-0.0305092
-0.0312928
-0.0320684
-0.0328437
-0.0336321
-0.0220054
-0.0219526
-0.0221938
-0.0226634
-0.0232532
-0.0239517
-0.024724
-0.0255274
-0.0263399
-0.0271512
-0.0279544
-0.0287461
-0.0295252
-0.0302931
-0.0310525
-0.0318082
-0.0325667
-0.0333364
-0.022223
-0.0222441
-0.0224709
-0.0228918
-0.0234346
-0.0240704
-0.0247727
-0.0255112
-0.026265
-0.0270224
-0.0277758
-0.0285212
-0.029257
-0.0299835
-0.030703
-0.0314189
-0.0321349
-0.0328555
-0.0224003
-0.0224483
-0.0226614
-0.0230398
-0.0235338
-0.0241112
-0.0247485
-0.0254227
-0.026115
-0.0268129
-0.0275085
-0.0281968
-0.0288752
-0.0295432
-0.0302014
-0.0308514
-0.031494
-0.0321309
-0.022455
-0.0225079
-0.0227034
-0.0230454
-0.0234961
-0.0240237
-0.0246054
-0.0252211
-0.0258534
-0.0264894
-0.0271205
-0.027741
-0.0283473
-0.0289377
-0.0295114
-0.0300685
-0.0306076
-0.0311296
-0.0222856
-0.0223307
-0.0225021
-0.022815
-0.023236
-0.0237304
-0.0242736
-0.0248454
-0.0254275
-0.026006
-0.0265716
-0.0271179
-0.0276409
-0.0281379
-0.0286075
-0.029049
-0.0294599
-0.0298415
-0.0218837
-0.0218955
-0.022031
-0.0223367
-0.0227641
-0.023265
-0.0238127
-0.0243823
-0.0249508
-0.0255031
-0.02603
-0.026526
-0.0269872
-0.0274115
-0.0277981
-0.0281464
-0.0284545
-0.0287245
-0.0214834
-0.0213961
-0.0214692
-0.0217912
-0.0222481
-0.022778
-0.0233598
-0.0239583
-0.0245417
-0.0250946
-0.0256099
-0.0260828
-0.0265105
-0.0268918
-0.0272268
-0.0275159
-0.0277578
-0.0279552
-0.0212091
-0.0208213
-0.020779
-0.0211631
-0.0216704
-0.0222488
-0.0228967
-0.023553
-0.024173
-0.0247454
-0.0252673
-0.025735
-0.0261468
-0.0265035
-0.0268064
-0.0270569
-0.0272549
-0.0274032
-0.0213043
-0.0202033
-0.0199816
-0.0204799
-0.0210306
-0.0216765
-0.0224322
-0.0231751
-0.0238494
-0.0244573
-0.0250013
-0.0254782
-0.0258884
-0.0262349
-0.0265208
-0.026749
-0.0269201
-0.0270372
-0.021786
-0.0194022
-0.0191221
-0.0197945
-0.0203172
-0.0210553
-0.0219771
-0.022836
-0.0235792
-0.0242367
-0.0248157
-0.0253129
-0.0257316
-0.0260783
-0.026358
-0.0265751
-0.0267316
-0.0268301
-0.0220172
-0.017419
-0.0179366
-0.0190865
-0.0195058
-0.0203901
-0.0215532
-0.0225557
-0.0233797
-0.0240984
-0.0247217
-0.0252456
-0.0256782
-0.0260306
-0.0263104
-0.0265231
-0.0266725
-0.0267607
-0.0237401
-0.0129847
-0.0156509
-0.0180603
-0.0185165
-0.0197001
-0.0211951
-0.0223656
-0.0232801
-0.0240669
-0.024737
-0.0252874
-0.0257334
-0.0260916
-0.0263724
-0.0265828
-0.0267284
-0.026811
-0.0407512
-0.0109481
-0.0134006
-0.0166598
-0.0173335
-0.0190692
-0.0209827
-0.0223363
-0.0233445
-0.0241948
-0.0249009
-0.0254656
-0.0259147
-0.0262709
-0.0265472
-0.0267518
-0.0268919
-0.0269693
-0.084882
-0.024241
-0.0174431
-0.0164851
-0.0165174
-0.018858
-0.0211644
-0.0226508
-0.0237131
-0.0245892
-0.0252949
-0.0258426
-0.0262699
-0.0266053
-0.0268628
-0.0270509
-0.0271781
-0.0272472
-0.06451
-0.0340797
-0.02735
-0.0187348
-0.0169997
-0.0196445
-0.0220687
-0.0234659
-0.0244358
-0.0252454
-0.0258919
-0.0263838
-0.0267634
-0.0270607
-0.0272878
-0.0274508
-0.0275567
-0.0276218
0.299808
0.0800953
0.00301315
-0.0100438
-0.0152778
-0.0202931
-0.0231331
-0.0243321
-0.025055
-0.0256937
-0.0262306
-0.0266492
-0.0269786
-0.0272418
-0.0274449
-0.027588
-0.0276677
-0.0276668
-0.0729551
-0.0732852
-0.0737216
-0.0742271
-0.0748918
-0.0757824
-0.0769254
-0.0783379
-0.0800325
-0.0820153
-0.0842846
-0.0868292
-0.0896269
-0.0926451
-0.0958406
-0.0991611
-0.102548
-0.105937
-0.109261
-0.112456
-0.115455
-0.118196
-0.120622
-0.122679
-0.12432
-0.125501
-0.126183
-0.126334
-0.125926
-0.124939
-0.123363
-0.121201
-0.118431
-0.114989
-0.11081
-0.105897
-0.10028
-0.093983
-0.0870267
-0.0794355
-0.0712377
-0.0624674
-0.0531647
-0.0433761
-0.0331538
-0.0225556
-0.0116437
-0.000484253
0.010854
0.0223009
0.0337859
0.0452392
0.0565933
0.0677834
0.0787489
0.0894339
0.0997878
0.109766
0.119329
0.128444
0.137086
0.145234
0.152882
0.160042
0.166729
0.172928
0.178626
0.183828
0.188546
0.192794
0.196591
0.199955
0.202908
0.20547
0.207665
0.209515
0.211043
0.212271
0.213222
0.213917
0.21438
0.214631
0.21469
0.214577
0.214312
0.213913
0.213396
0.212779
0.212076
0.211302
0.21047
0.209592
0.20868
0.207743
0.206791
0.205831
0.20487
0.203916
0.202972
0.202044
0.201136
0.20025
0.199388
0.198554
0.197747
0.19697
0.196223
0.195507
0.194821
0.194167
0.193547
0.192956
0.192385
0.191838
0.191316
0.19082
0.190349
0.189903
0.189478
0.189076
0.188694
0.188332
0.187988
0.187661
0.18735
0.187055
0.186774
0.186506
0.186251
0.186007
0.185774
0.185551
0.185337
0.185132
0.184935
0.184745
0.184562
0.184385
0.184213
0.184047
0.183885
0.183728
0.183574
0.183424
0.183277
0.183132
0.18299
0.182851
0.182713
0.182577
0.182442
0.182309
0.182177
0.182047
0.181917
0.181789
0.181662
0.181536
0.181412
0.181289
0.18117
0.181053
0.180939
0.180831
0.180729
0.180636
0.180554
0.180486
0.180438
0.180416
0.18043
0.180493
0.180623
0.180851
0.181223
0.181814
0.182774
0.184328
0.187186
0.191487
-0.0711055
-0.0721887
-0.0727993
-0.0728172
-0.0728633
-0.0732528
-0.0740288
-0.0751917
-0.076744
-0.0786846
-0.081003
-0.0836767
-0.0866701
-0.0899355
-0.0934145
-0.0970406
-0.100743
-0.104447
-0.108082
-0.111577
-0.114867
-0.117893
-0.120598
-0.122933
-0.124854
-0.126319
-0.127292
-0.127738
-0.127625
-0.126924
-0.125602
-0.123623
-0.12096
-0.11763
-0.113676
-0.109099
-0.103877
-0.0980049
-0.0914886
-0.0843422
-0.0765877
-0.0682538
-0.059376
-0.0499968
-0.0401642
-0.0299324
-0.0193602
-0.00851047
0.00255088
0.013756
0.0250363
0.0363237
0.0475515
0.0586558
0.0695761
0.0802567
0.0906466
0.100701
0.11038
0.119652
0.128491
0.136873
0.144777
0.152169
0.159031
0.165383
0.171247
0.176631
0.181546
0.186005
0.190025
0.193621
0.196814
0.199622
0.202066
0.204168
0.205948
0.207429
0.208631
0.209575
0.210283
0.210775
0.21107
0.211188
0.211147
0.210965
0.210657
0.210241
0.209732
0.209142
0.208486
0.207774
0.207019
0.20623
0.205416
0.204586
0.203747
0.202904
0.202064
0.201232
0.200411
0.199605
0.198817
0.198048
0.197302
0.196579
0.195881
0.195208
0.194561
0.193939
0.193342
0.19277
0.192225
0.191703
0.191205
0.190729
0.190274
0.189841
0.189429
0.189036
0.188662
0.188307
0.187968
0.187646
0.187339
0.187047
0.186768
0.186503
0.186249
0.186006
0.185774
0.185551
0.185338
0.185133
0.184936
0.184746
0.184562
0.184385
0.184213
0.184046
0.183884
0.183726
0.183572
0.183421
0.183273
0.183128
0.182986
0.182845
0.182707
0.182571
0.182436
0.182302
0.18217
0.182039
0.181909
0.181781
0.181654
0.181528
0.181403
0.181281
0.181161
0.181044
0.180931
0.180823
0.180722
0.180629
0.180547
0.180481
0.180434
0.180414
0.180429
0.180494
0.180626
0.180855
0.181224
0.1818
0.182716
0.184136
0.186646
0.190197
-0.0670864
-0.0691066
-0.0708705
-0.0716777
-0.0721517
-0.0727921
-0.0737687
-0.0751301
-0.0768905
-0.0790431
-0.0815641
-0.0844153
-0.0875478
-0.0909047
-0.0944243
-0.0980426
-0.101695
-0.105319
-0.108855
-0.112246
-0.115439
-0.118383
-0.121034
-0.123349
-0.125288
-0.126814
-0.127892
-0.12849
-0.128579
-0.128128
-0.127111
-0.125496
-0.123255
-0.120379
-0.116869
-0.112724
-0.107938
-0.102508
-0.0964415
-0.0897482
-0.0824468
-0.0745622
-0.0661262
-0.0571771
-0.0477597
-0.0379245
-0.0277271
-0.0172276
-0.00648931
0.00442233
0.0154406
0.0264988
0.0375316
0.0484757
0.0592712
0.0698622
0.0801976
0.0902319
0.0999251
0.109244
0.11816
0.126652
0.134697
0.142275
0.149377
0.156004
0.162159
0.167846
0.173072
0.177849
0.182191
0.186112
0.189631
0.192765
0.195534
0.197958
0.200056
0.201851
0.203361
0.204608
0.205611
0.20639
0.206964
0.207353
0.207573
0.207641
0.207575
0.20739
0.207101
0.20672
0.206262
0.205738
0.205159
0.204536
0.203877
0.203191
0.202486
0.201768
0.201042
0.200315
0.199591
0.198874
0.198166
0.197472
0.196792
0.196129
0.195485
0.194861
0.194256
0.193673
0.193111
0.192571
0.192053
0.191556
0.191079
0.190622
0.190184
0.189765
0.189366
0.188984
0.18862
0.188272
0.187941
0.187625
0.187323
0.187035
0.186759
0.186496
0.186245
0.186004
0.185773
0.185552
0.185339
0.185135
0.184938
0.184748
0.184565
0.184387
0.184215
0.184048
0.183885
0.183727
0.183572
0.183421
0.183273
0.183128
0.182985
0.182844
0.182705
0.182569
0.182433
0.182299
0.182167
0.182036
0.181905
0.181777
0.181649
0.181523
0.181399
0.181276
0.181156
0.18104
0.180927
0.180819
0.180718
0.180626
0.180545
0.180479
0.180433
0.180414
0.180431
0.180497
0.180631
0.180859
0.181222
0.18178
0.182643
0.183916
0.186001
0.188484
-0.0638628
-0.066761
-0.069797
-0.0717134
-0.0730059
-0.0742419
-0.075667
-0.0773734
-0.0793971
-0.0817425
-0.084392
-0.0873133
-0.0904643
-0.0937966
-0.0972584
-0.100796
-0.104355
-0.107884
-0.111329
-0.114643
-0.117778
-0.120687
-0.123329
-0.125663
-0.127649
-0.129249
-0.130429
-0.131154
-0.131392
-0.131113
-0.130287
-0.128889
-0.126896
-0.124294
-0.121071
-0.117216
-0.112721
-0.107584
-0.101805
-0.0953934
-0.0883652
-0.0807423
-0.0725542
-0.0638373
-0.0546349
-0.0449963
-0.0349761
-0.024634
-0.0140328
-0.00323824
0.00768299
0.0186639
0.0296388
0.0405439
0.0513188
0.061907
0.0722567
0.0823216
0.0920608
0.101439
0.110427
0.119001
0.127145
0.134845
0.142092
0.148881
0.155209
0.16108
0.1665
0.17148
0.176031
0.180168
0.183906
0.187264
0.190259
0.19291
0.195236
0.197258
0.198994
0.200465
0.201689
0.202685
0.203473
0.204069
0.204492
0.204757
0.204882
0.20488
0.204767
0.204555
0.204259
0.203888
0.203456
0.20297
0.202442
0.201878
0.201288
0.200677
0.200052
0.199418
0.19878
0.198142
0.197508
0.19688
0.196262
0.195656
0.195063
0.194485
0.193924
0.193378
0.19285
0.192341
0.19185
0.191377
0.190922
0.190485
0.190066
0.189663
0.189278
0.188909
0.188556
0.188218
0.187895
0.187586
0.18729
0.187008
0.186737
0.186478
0.18623
0.185992
0.185764
0.185545
0.185334
0.185131
0.184935
0.184746
0.184563
0.184386
0.184214
0.184047
0.183885
0.183727
0.183572
0.183421
0.183273
0.183127
0.182984
0.182843
0.182704
0.182567
0.182432
0.182298
0.182165
0.182033
0.181903
0.181774
0.181646
0.18152
0.181395
0.181273
0.181153
0.181036
0.180922
0.180814
0.180713
0.18062
0.180539
0.180472
0.180425
0.180404
0.180419
0.180481
0.180607
0.180822
0.181163
0.181676
0.182446
0.183525
0.185142
0.186781
-0.0633665
-0.0667435
-0.0705232
-0.0732075
-0.0751529
-0.0769114
-0.078747
-0.0807706
-0.0830331
-0.08555
-0.0883125
-0.091296
-0.0944658
-0.0977816
-0.1012
-0.104674
-0.108159
-0.111609
-0.114978
-0.118224
-0.121304
-0.124176
-0.1268
-0.129139
-0.131153
-0.132807
-0.134065
-0.134892
-0.135254
-0.135119
-0.134457
-0.13324
-0.131441
-0.12904
-0.12602
-0.122365
-0.118065
-0.113112
-0.107506
-0.101255
-0.0943699
-0.0868728
-0.0787916
-0.0701624
-0.0610283
-0.051439
-0.0414504
-0.0311233
-0.0205222
-0.00971458
0.00123114
0.0122463
0.0232637
0.0342182
0.0450484
0.0556969
0.0661116
0.0762455
0.0860575
0.095512
0.104579
0.113236
0.121467
0.129258
0.136601
0.143492
0.14993
0.155918
0.161463
0.166574
0.171263
0.175544
0.179431
0.182942
0.186094
0.188905
0.191394
0.193579
0.19548
0.197114
0.198502
0.19966
0.200608
0.201361
0.201938
0.202354
0.202625
0.202765
0.202789
0.20271
0.20254
0.202291
0.201974
0.201599
0.201176
0.200711
0.200215
0.199692
0.199149
0.198593
0.198027
0.197457
0.196885
0.196316
0.195752
0.195195
0.194648
0.194112
0.193588
0.193078
0.192582
0.192101
0.191635
0.191186
0.190752
0.190335
0.189933
0.189546
0.189175
0.188818
0.188477
0.188149
0.187835
0.187534
0.187245
0.186969
0.186703
0.186449
0.186205
0.185971
0.185746
0.185529
0.18532
0.185119
0.184925
0.184738
0.184556
0.18438
0.184209
0.184043
0.183881
0.183723
0.183569
0.183418
0.18327
0.183125
0.182982
0.182841
0.182702
0.182565
0.182429
0.182295
0.182162
0.182031
0.1819
0.181771
0.181643
0.181516
0.181391
0.181268
0.181148
0.18103
0.180916
0.180808
0.180705
0.180611
0.180528
0.180459
0.180408
0.180383
0.180391
0.180443
0.180555
0.180748
0.181051
0.181499
0.182151
0.183019
0.184215
0.185236
-0.065652
-0.0691124
-0.073143
-0.076236
-0.0786091
-0.0807445
-0.0828889
-0.0851534
-0.0875947
-0.0902357
-0.0930751
-0.0960951
-0.0992681
-0.102561
-0.105935
-0.109354
-0.112776
-0.116163
-0.119474
-0.12267
-0.125713
-0.128565
-0.131187
-0.133543
-0.135595
-0.137306
-0.138641
-0.139564
-0.140038
-0.14003
-0.139507
-0.138436
-0.136789
-0.134541
-0.131669
-0.128154
-0.123981
-0.119141
-0.11363
-0.107453
-0.100622
-0.0931549
-0.0850811
-0.0764367
-0.0672662
-0.0576214
-0.0475605
-0.0371473
-0.0264494
-0.0155374
-0.00448276
0.00664314
0.0177706
0.0288329
0.039767
0.0505148
0.0610238
0.0712471
0.0811437
0.0906786
0.0998235
0.108557
0.116862
0.124728
0.132146
0.139115
0.145635
0.151709
0.157345
0.162553
0.167343
0.17173
0.175728
0.179355
0.182625
0.185559
0.188172
0.190484
0.192512
0.194276
0.195792
0.197079
0.198154
0.199034
0.199735
0.200272
0.200662
0.200918
0.201054
0.201083
0.201018
0.200869
0.200649
0.200366
0.20003
0.199649
0.199231
0.198783
0.198312
0.197822
0.197319
0.196807
0.19629
0.195772
0.195256
0.194743
0.194237
0.193739
0.19325
0.192772
0.192306
0.191852
0.191411
0.190985
0.190572
0.190173
0.189788
0.189417
0.18906
0.188716
0.188386
0.188068
0.187763
0.18747
0.187189
0.186919
0.18666
0.186411
0.186172
0.185942
0.18572
0.185507
0.185301
0.185102
0.18491
0.184725
0.184545
0.18437
0.1842
0.184035
0.183874
0.183717
0.183564
0.183413
0.183266
0.183121
0.182978
0.182837
0.182699
0.182561
0.182426
0.182292
0.182159
0.182027
0.181897
0.181767
0.181639
0.181512
0.181387
0.181263
0.181142
0.181024
0.180909
0.180799
0.180695
0.180598
0.180512
0.180439
0.180384
0.180351
0.18035
0.180388
0.18048
0.180642
0.180897
0.181269
0.181793
0.182455
0.183296
0.183852
-0.0699979
-0.0733003
-0.0772546
-0.0804726
-0.0830616
-0.0854167
-0.0877514
-0.0901664
-0.0927169
-0.0954289
-0.0983063
-0.101337
-0.1045
-0.107766
-0.111105
-0.114482
-0.117862
-0.121211
-0.124491
-0.127667
-0.130702
-0.133561
-0.136206
-0.1386
-0.140708
-0.142492
-0.143914
-0.144938
-0.145525
-0.145639
-0.145244
-0.144304
-0.142788
-0.140665
-0.137908
-0.134494
-0.130405
-0.125628
-0.120157
-0.113993
-0.107146
-0.0996365
-0.0914924
-0.0827515
-0.073461
-0.0636758
-0.0534583
-0.0428764
-0.0320024
-0.0209112
-0.00967866
0.00162034
0.0129131
0.0241303
0.0352078
0.0460864
0.0567133
0.0670419
0.0770318
0.0866501
0.0958705
0.104673
0.113043
0.12097
0.128448
0.135476
0.142056
0.148194
0.153896
0.159173
0.164037
0.168503
0.172584
0.176297
0.179659
0.182687
0.185398
0.187809
0.18994
0.191807
0.193428
0.19482
0.195999
0.196982
0.197786
0.198424
0.198913
0.199266
0.199496
0.199616
0.19964
0.199576
0.199438
0.199234
0.198973
0.198664
0.198314
0.197931
0.197521
0.19709
0.196642
0.196182
0.195714
0.195242
0.194769
0.194297
0.193828
0.193365
0.192909
0.192461
0.192023
0.191595
0.191178
0.190773
0.19038
0.19
0.189632
0.189276
0.188933
0.188603
0.188284
0.187977
0.187682
0.187398
0.187124
0.186862
0.186609
0.186365
0.186131
0.185906
0.185688
0.185478
0.185276
0.18508
0.184891
0.184707
0.184529
0.184357
0.184188
0.184025
0.183865
0.183709
0.183556
0.183406
0.18326
0.183115
0.182973
0.182833
0.182694
0.182557
0.182422
0.182288
0.182155
0.182023
0.181893
0.181763
0.181635
0.181507
0.181382
0.181258
0.181136
0.181016
0.1809
0.180788
0.180682
0.180582
0.180492
0.180415
0.180352
0.180311
0.180297
0.180318
0.180385
0.180511
0.180712
0.181002
0.181397
0.181867
0.18241
0.18261
-0.075646
-0.0786525
-0.0823244
-0.0854574
-0.0880856
-0.0905199
-0.0929359
-0.095419
-0.098018
-0.100758
-0.103645
-0.106671
-0.109818
-0.113063
-0.116378
-0.119733
-0.123096
-0.126434
-0.129713
-0.1329
-0.13596
-0.138857
-0.141556
-0.144019
-0.14621
-0.14809
-0.14962
-0.150762
-0.151476
-0.151722
-0.151461
-0.150653
-0.149262
-0.147255
-0.144599
-0.141267
-0.137236
-0.13249
-0.127019
-0.120823
-0.113911
-0.106302
-0.0980259
-0.0891228
-0.0796433
-0.0696475
-0.0592028
-0.0483831
-0.0372666
-0.0259341
-0.0144664
-0.0029429
0.00856011
0.0199706
0.0312227
0.0422564
0.0530184
0.0634633
0.0735529
0.0832569
0.0925509
0.101417
0.109841
0.117816
0.125339
0.13241
0.139032
0.145212
0.15096
0.156286
0.161202
0.165724
0.169866
0.173645
0.177076
0.180176
0.182964
0.185455
0.187668
0.189619
0.191326
0.192804
0.19407
0.195141
0.196031
0.196755
0.197328
0.197763
0.198074
0.198273
0.198372
0.198383
0.198315
0.198179
0.197984
0.197738
0.197449
0.197123
0.196768
0.196388
0.195989
0.195576
0.195153
0.194722
0.194288
0.193853
0.193419
0.192989
0.192563
0.192144
0.191732
0.191329
0.190936
0.190552
0.190179
0.189817
0.189466
0.189126
0.188797
0.188479
0.188172
0.187876
0.187591
0.187316
0.187051
0.186796
0.18655
0.186312
0.186084
0.185863
0.18565
0.185445
0.185246
0.185053
0.184867
0.184686
0.184511
0.18434
0.184174
0.184011
0.183853
0.183698
0.183547
0.183398
0.183252
0.183108
0.182967
0.182827
0.182689
0.182552
0.182417
0.182283
0.182151
0.182019
0.181888
0.181758
0.18163
0.181502
0.181376
0.181251
0.181128
0.181007
0.18089
0.180776
0.180667
0.180564
0.180469
0.180385
0.180315
0.180263
0.180234
0.180235
0.180274
0.18036
0.180503
0.180709
0.180981
0.181275
0.181569
0.181494
-0.0819249
-0.0845552
-0.0878169
-0.090718
-0.0932518
-0.0956546
-0.0980643
-0.100549
-0.103149
-0.105884
-0.108762
-0.111775
-0.114908
-0.11814
-0.121447
-0.124801
-0.128172
-0.131529
-0.13484
-0.138073
-0.141192
-0.144163
-0.14695
-0.149515
-0.151821
-0.153829
-0.155497
-0.156785
-0.157649
-0.158047
-0.157936
-0.157274
-0.156018
-0.15413
-0.151575
-0.148319
-0.144335
-0.139602
-0.134107
-0.127848
-0.120833
-0.11308
-0.104622
-0.0955027
-0.0857775
-0.0755123
-0.0647818
-0.0536672
-0.0422538
-0.0306292
-0.0188808
-0.00709307
0.00465395
0.0162846
0.0277311
0.0389335
0.0498399
0.0604065
0.070598
0.0803853
0.0897466
0.0986662
0.107134
0.115145
0.122698
0.129795
0.136443
0.142649
0.148424
0.153781
0.158732
0.163292
0.167477
0.171303
0.174786
0.177943
0.180791
0.183346
0.185626
0.187647
0.189424
0.190976
0.192316
0.19346
0.194424
0.195222
0.195868
0.196375
0.196757
0.197024
0.197191
0.197266
0.197261
0.197186
0.197049
0.196858
0.196623
0.196348
0.196042
0.195709
0.195355
0.194985
0.194602
0.19421
0.193812
0.193412
0.19301
0.19261
0.192214
0.191822
0.191436
0.191056
0.190685
0.190322
0.189969
0.189624
0.18929
0.188965
0.188651
0.188346
0.188052
0.187767
0.187492
0.187226
0.18697
0.186723
0.186484
0.186253
0.18603
0.185815
0.185607
0.185406
0.185211
0.185022
0.184839
0.184661
0.184488
0.18432
0.184156
0.183996
0.183839
0.183686
0.183536
0.183388
0.183243
0.1831
0.182959
0.18282
0.182683
0.182547
0.182412
0.182278
0.182146
0.182014
0.181883
0.181753
0.181624
0.181496
0.18137
0.181244
0.18112
0.180998
0.180878
0.180762
0.18065
0.180543
0.180443
0.180352
0.180273
0.180209
0.180163
0.180142
0.180151
0.180194
0.180278
0.180402
0.180556
0.180694
0.180779
0.180491
-0.0882346
-0.0904446
-0.0932205
-0.0957918
-0.0981362
-0.100427
-0.102765
-0.105203
-0.107769
-0.11048
-0.113338
-0.116337
-0.119464
-0.122698
-0.126017
-0.129394
-0.132802
-0.136209
-0.139586
-0.142898
-0.146113
-0.149196
-0.152109
-0.154814
-0.157273
-0.159443
-0.161283
-0.162748
-0.163793
-0.164372
-0.164437
-0.163942
-0.162839
-0.161086
-0.158641
-0.155465
-0.151526
-0.146799
-0.141266
-0.134923
-0.127775
-0.119845
-0.111165
-0.101786
-0.0917676
-0.0811849
-0.0701207
-0.0586649
-0.0469117
-0.0349569
-0.0228955
-0.0108178
0.00119149
0.0130552
0.0247049
0.036081
0.0471332
0.0578194
0.0681061
0.0779673
0.0873844
0.0963449
0.104842
0.112873
0.12044
0.127548
0.134206
0.140422
0.146209
0.15158
0.15655
0.161134
0.165347
0.169207
0.172728
0.175928
0.178823
0.181429
0.183764
0.185842
0.18768
0.189293
0.190696
0.191905
0.192934
0.193797
0.194507
0.195077
0.195521
0.19585
0.196076
0.196209
0.19626
0.196239
0.196155
0.196015
0.195828
0.1956
0.195339
0.195049
0.194736
0.194404
0.194059
0.193703
0.193339
0.19297
0.1926
0.192229
0.19186
0.191494
0.191132
0.190776
0.190426
0.190084
0.189749
0.189423
0.189105
0.188796
0.188496
0.188205
0.187923
0.187649
0.187385
0.187129
0.186882
0.186643
0.186411
0.186188
0.185971
0.185762
0.185559
0.185363
0.185172
0.184988
0.184808
0.184633
0.184463
0.184298
0.184136
0.183978
0.183823
0.183671
0.183523
0.183376
0.183232
0.183091
0.182951
0.182812
0.182676
0.18254
0.182406
0.182272
0.18214
0.182009
0.181878
0.181748
0.181619
0.18149
0.181363
0.181236
0.181111
0.180987
0.180866
0.180747
0.180631
0.18052
0.180414
0.180316
0.180227
0.180149
0.180086
0.180042
0.180018
0.180019
0.180044
0.180087
0.180133
0.180132
0.180043
0.17959
-0.0940489
-0.0958183
-0.0980685
-0.10025
-0.102342
-0.104465
-0.106689
-0.109048
-0.111561
-0.114237
-0.117076
-0.12007
-0.123204
-0.12646
-0.129815
-0.133243
-0.136717
-0.140208
-0.143684
-0.147114
-0.150462
-0.153694
-0.156771
-0.159654
-0.162303
-0.164673
-0.166721
-0.168399
-0.169658
-0.170448
-0.170718
-0.170416
-0.16949
-0.167891
-0.165571
-0.162487
-0.158598
-0.153875
-0.148297
-0.141854
-0.134555
-0.126419
-0.117486
-0.10781
-0.0974613
-0.086523
-0.0750888
-0.0632593
-0.0511395
-0.0388346
-0.0264455
-0.0140681
-0.00179094
0.0103076
0.0221581
0.0337015
0.0448889
0.055681
0.0660473
0.0759657
0.0854211
0.0944046
0.102913
0.110947
0.118511
0.125613
0.132264
0.138474
0.144258
0.14963
0.154605
0.159198
0.163427
0.167307
0.170855
0.174086
0.177018
0.179665
0.182044
0.18417
0.186059
0.187726
0.189184
0.190449
0.191535
0.192455
0.193222
0.19385
0.19435
0.194734
0.195013
0.195199
0.195302
0.19533
0.195293
0.1952
0.195057
0.194873
0.194652
0.194402
0.194127
0.193832
0.193521
0.193198
0.192867
0.192529
0.192187
0.191844
0.191501
0.19116
0.190822
0.190489
0.19016
0.189838
0.189522
0.189213
0.188912
0.188619
0.188333
0.188055
0.187786
0.187524
0.187271
0.187025
0.186787
0.186556
0.186333
0.186117
0.185907
0.185704
0.185507
0.185315
0.18513
0.184949
0.184773
0.184602
0.184435
0.184273
0.184113
0.183958
0.183805
0.183655
0.183508
0.183363
0.183221
0.18308
0.182941
0.182804
0.182668
0.182533
0.182399
0.182266
0.182134
0.182003
0.181872
0.181742
0.181613
0.181484
0.181356
0.181228
0.181102
0.180976
0.180853
0.180731
0.180611
0.180495
0.180383
0.180277
0.180177
0.180086
0.180004
0.179935
0.17988
0.179837
0.179805
0.179772
0.179719
0.179597
0.179362
0.178778
-0.0989149
-0.100241
-0.101953
-0.103714
-0.105519
-0.107442
-0.109526
-0.11179
-0.114243
-0.116886
-0.119715
-0.122719
-0.125881
-0.129182
-0.1326
-0.13611
-0.139684
-0.143292
-0.146904
-0.150486
-0.154004
-0.157421
-0.160699
-0.163796
-0.16667
-0.169275
-0.171565
-0.173488
-0.174993
-0.176025
-0.176528
-0.176445
-0.175719
-0.174294
-0.172116
-0.169134
-0.165303
-0.160585
-0.154955
-0.148403
-0.140933
-0.132571
-0.123359
-0.113361
-0.102657
-0.0913415
-0.0795192
-0.0673026
-0.0548071
-0.0421467
-0.0294298
-0.0167578
-0.00422239
0.00809583
0.0201279
0.0318165
0.0431154
0.0539887
0.06441
0.0743612
0.0838311
0.0928149
0.101313
0.109329
0.116871
0.12395
0.130576
0.136765
0.142531
0.14789
0.152857
0.157448
0.161681
0.165571
0.169134
0.172388
0.175346
0.178025
0.180441
0.182607
0.18454
0.186252
0.187759
0.189074
0.19021
0.191182
0.192
0.192679
0.19323
0.193664
0.193993
0.194227
0.194376
0.19445
0.194458
0.194407
0.194306
0.194161
0.193979
0.193765
0.193526
0.193265
0.192988
0.192696
0.192395
0.192086
0.191772
0.191456
0.191138
0.190821
0.190507
0.190195
0.189887
0.189585
0.189287
0.188996
0.188712
0.188434
0.188163
0.187899
0.187642
0.187392
0.18715
0.186915
0.186686
0.186464
0.186249
0.186041
0.185838
0.185641
0.18545
0.185264
0.185083
0.184907
0.184736
0.184568
0.184405
0.184245
0.184089
0.183935
0.183785
0.183637
0.183492
0.183349
0.183208
0.183068
0.182931
0.182794
0.182659
0.182525
0.182392
0.182259
0.182128
0.181997
0.181866
0.181736
0.181606
0.181477
0.181348
0.18122
0.181092
0.180965
0.180839
0.180714
0.18059
0.180469
0.180351
0.180236
0.180125
0.180019
0.179919
0.179826
0.179738
0.179653
0.179566
0.179462
0.17932
0.179091
0.178734
0.178046
-0.102436
-0.103353
-0.104536
-0.105868
-0.10737
-0.109081
-0.111018
-0.113185
-0.115583
-0.118205
-0.12104
-0.124075
-0.127292
-0.130668
-0.134181
-0.137805
-0.141512
-0.145272
-0.149053
-0.152822
-0.156544
-0.160179
-0.16369
-0.167032
-0.170162
-0.173032
-0.175591
-0.177786
-0.179562
-0.180859
-0.181616
-0.181772
-0.181262
-0.180025
-0.178
-0.175127
-0.171355
-0.166641
-0.160954
-0.154282
-0.146632
-0.13803
-0.128526
-0.118194
-0.107123
-0.0954214
-0.0832071
-0.0706052
-0.0577421
-0.0447412
-0.0317183
-0.0187793
-0.00601805
0.00648474
0.0186616
0.030458
0.0418314
0.0527501
0.0631922
0.0731439
0.0825985
0.0915551
0.100017
0.107993
0.115492
0.122528
0.129114
0.135266
0.140999
0.146331
0.151278
0.155856
0.160082
0.163973
0.167543
0.170809
0.173787
0.176491
0.178935
0.181135
0.183104
0.184856
0.186406
0.187765
0.188947
0.189964
0.19083
0.191555
0.192153
0.192633
0.193007
0.193286
0.193478
0.193594
0.193643
0.193632
0.193569
0.193462
0.193316
0.193137
0.192931
0.192703
0.192456
0.192195
0.191923
0.191641
0.191354
0.191064
0.190771
0.190478
0.190185
0.189895
0.189608
0.189325
0.189046
0.188772
0.188504
0.188242
0.187985
0.187735
0.187492
0.187254
0.187023
0.186798
0.18658
0.186367
0.186161
0.18596
0.185764
0.185574
0.185389
0.185209
0.185033
0.184862
0.184695
0.184531
0.184372
0.184215
0.184062
0.183911
0.183763
0.183618
0.183475
0.183333
0.183194
0.183056
0.182919
0.182784
0.18265
0.182516
0.182384
0.182252
0.182121
0.18199
0.181859
0.181729
0.181599
0.18147
0.18134
0.181211
0.181081
0.180953
0.180824
0.180696
0.180569
0.180442
0.180317
0.180193
0.180071
0.179951
0.179833
0.179715
0.179595
0.17947
0.17933
0.179161
0.178939
0.178617
0.178157
0.177386
-0.104264
-0.104861
-0.105548
-0.106466
-0.10767
-0.109173
-0.110969
-0.113052
-0.115411
-0.118032
-0.1209
-0.123995
-0.127296
-0.130781
-0.134423
-0.138195
-0.142069
-0.146013
-0.149996
-0.153982
-0.157936
-0.161817
-0.165585
-0.169196
-0.172603
-0.175756
-0.178602
-0.181085
-0.183145
-0.184719
-0.185741
-0.186143
-0.185857
-0.184813
-0.182942
-0.180178
-0.17646
-0.171741
-0.165987
-0.159184
-0.15134
-0.142487
-0.132684
-0.122013
-0.110578
-0.0985014
-0.0859145
-0.0729554
-0.0597612
-0.0464635
-0.0331838
-0.0200307
-0.00709864
0.00553316
0.0178001
0.0296517
0.0410498
0.0519675
0.0623878
0.0723013
0.0817057
0.0906038
0.0990028
0.106913
0.114348
0.121321
0.127849
0.133949
0.139636
0.144929
0.149845
0.154399
0.15861
0.162492
0.166061
0.169333
0.172322
0.175044
0.177511
0.179738
0.181739
0.183526
0.185112
0.18651
0.187733
0.188793
0.189701
0.19047
0.19111
0.191633
0.192049
0.192369
0.192602
0.192758
0.192845
0.192871
0.192845
0.192772
0.19266
0.192515
0.192341
0.192144
0.191927
0.191694
0.191449
0.191195
0.190934
0.190668
0.190399
0.190129
0.189859
0.18959
0.189323
0.189059
0.188798
0.188542
0.18829
0.188044
0.187802
0.187566
0.187335
0.18711
0.186891
0.186677
0.186468
0.186265
0.186067
0.185874
0.185687
0.185503
0.185325
0.185151
0.18498
0.184814
0.184651
0.184492
0.184336
0.184183
0.184033
0.183885
0.18374
0.183597
0.183456
0.183316
0.183179
0.183042
0.182907
0.182773
0.18264
0.182507
0.182375
0.182244
0.182113
0.181983
0.181853
0.181722
0.181592
0.181462
0.181332
0.181201
0.181071
0.18094
0.180809
0.180678
0.180547
0.180415
0.180283
0.180151