/*--------------------------------*- C++ -*----------------------------------*\
  =========                 |
  \\      /  F ield         | OpenFOAM: The Open Source CFD Toolbox
   \\    /   O peration     | Website:  https://openfoam.org
    \\  /    A nd           | Version:  6
     \\/     M anipulation  |
\*---------------------------------------------------------------------------*/
FoamFile
{
    version     2.0;
    format      ascii;
    class       surfaceScalarField;
    location    "0.1";
    object      phi;
}
// * * * * * * * * * * * * * * * * * * * * * * * * * * * * * * * * * * * * * //

dimensions      [0 3 -1 0 0 0 0];

internalField   nonuniform List<scalar> 
24170
(
3.25673e-07
-6.83259e-09
3.19432e-07
6.24083e-09
3.15854e-07
3.57867e-09
3.08808e-07
7.04588e-09
3.019e-07
6.90785e-09
2.96968e-07
4.93229e-09
2.93738e-07
3.22946e-09
2.91501e-07
2.23703e-09
2.89814e-07
1.68754e-09
2.88477e-07
1.33695e-09
2.87391e-07
1.08543e-09
2.86498e-07
8.93234e-10
2.85765e-07
7.33128e-10
2.85179e-07
5.86012e-10
2.84763e-07
4.15462e-10
2.84512e-07
2.51457e-10
2.84864e-07
-3.52397e-10
-1.17224e-09
2.86037e-07
3.50379e-07
-1.54869e-08
3.47824e-07
8.79592e-09
3.44092e-07
7.31056e-09
3.42268e-07
8.87043e-09
3.40133e-07
9.04287e-09
3.377e-07
7.3647e-09
3.35429e-07
5.5007e-09
3.3352e-07
4.14633e-09
3.31972e-07
3.2355e-09
3.30719e-07
2.58922e-09
3.29698e-07
2.10697e-09
3.28858e-07
1.73283e-09
3.28168e-07
1.42382e-09
3.27604e-07
1.14917e-09
3.27165e-07
8.546e-10
3.26886e-07
5.30691e-10
3.2677e-07
-2.36306e-10
-1.1859e-09
3.26784e-07
3.63437e-07
-1.26719e-08
3.66568e-07
5.66488e-09
3.6674e-07
7.13803e-09
3.66931e-07
8.67968e-09
3.66589e-07
9.38461e-09
3.6564e-07
8.3143e-09
3.64408e-07
6.73204e-09
3.6317e-07
5.38517e-09
3.62053e-07
4.35219e-09
3.61091e-07
3.55128e-09
3.60277e-07
2.92062e-09
3.59596e-07
2.41346e-09
3.59034e-07
1.98621e-09
3.5858e-07
1.60312e-09
3.58226e-07
1.20829e-09
3.57989e-07
7.68121e-10
3.57739e-07
1.32169e-11
-8.7457e-10
3.57428e-07
3.8924e-07
-9.3727e-09
3.91465e-07
3.43962e-09
3.92412e-07
6.19111e-09
3.93098e-07
7.99381e-09
3.93403e-07
9.07939e-09
3.93184e-07
8.5328e-09
3.92602e-07
7.31471e-09
3.91866e-07
6.12049e-09
3.91118e-07
5.10046e-09
3.90423e-07
4.24633e-09
3.89807e-07
3.53676e-09
3.89277e-07
2.94319e-09
3.88833e-07
2.43014e-09
3.88472e-07
1.96398e-09
3.88185e-07
1.49558e-09
3.87964e-07
9.89491e-10
3.87687e-07
2.90415e-10
-4.81214e-10
3.87293e-07
4.18272e-07
-6.93236e-09
4.19421e-07
2.29059e-09
4.20322e-07
5.29067e-09
4.21108e-07
7.20807e-09
4.217e-07
8.48704e-09
4.219e-07
8.33297e-09
4.21754e-07
7.4608e-09
4.21405e-07
6.46919e-09
4.20971e-07
5.53445e-09
4.20523e-07
4.69479e-09
4.20099e-07
3.9603e-09
4.19721e-07
3.32114e-09
4.19398e-07
2.75364e-09
4.1913e-07
2.2311e-09
4.1891e-07
1.71571e-09
4.18719e-07
1.18046e-09
4.18463e-07
5.46383e-10
-9.5096e-11
4.18077e-07
4.49039e-07
-5.06255e-09
4.49616e-07
1.7137e-09
4.50371e-07
4.53585e-09
4.51156e-07
6.42248e-09
4.51884e-07
7.75954e-09
4.52334e-07
7.88249e-09
4.52489e-07
7.30586e-09
4.52438e-07
6.52073e-09
4.52268e-07
5.70422e-09
4.52042e-07
4.92018e-09
4.51803e-07
4.19952e-09
4.51576e-07
3.54792e-09
4.51376e-07
2.95394e-09
4.51207e-07
2.40004e-09
4.51062e-07
1.86118e-09
4.5092e-07
1.32182e-09
4.50716e-07
7.51221e-10
2.21944e-10
4.50398e-07
4.81763e-07
-3.55316e-09
4.82067e-07
1.40887e-09
4.82686e-07
3.91764e-09
4.83427e-07
5.68068e-09
4.84204e-07
6.98328e-09
4.848e-07
7.28618e-09
4.85162e-07
6.9443e-09
4.85336e-07
6.34617e-09
4.85384e-07
5.65607e-09
4.85356e-07
4.94886e-09
4.85288e-07
4.26721e-09
4.85208e-07
3.62803e-09
4.85131e-07
3.03059e-09
4.85064e-07
2.46671e-09
4.85002e-07
1.92336e-09
4.84928e-07
1.39569e-09
4.84799e-07
8.80673e-10
4.33621e-10
4.84587e-07
5.16755e-07
-2.35031e-09
5.16912e-07
1.25219e-09
5.17411e-07
3.41877e-09
5.18087e-07
5.00441e-09
5.1886e-07
6.21024e-09
5.19533e-07
6.61285e-09
5.20033e-07
6.44445e-09
5.20377e-07
6.00268e-09
5.20601e-07
5.43199e-09
5.20741e-07
4.80851e-09
5.20829e-07
4.17979e-09
5.20887e-07
3.56982e-09
5.20931e-07
2.98619e-09
5.20969e-07
2.42894e-09
5.20997e-07
1.89487e-09
5.21006e-07
1.38726e-09
5.2097e-07
9.16551e-10
5.22227e-10
5.20881e-07
5.54217e-07
-1.4331e-09
5.54286e-07
1.18259e-09
5.54689e-07
3.01561e-09
5.55296e-07
4.39777e-09
5.56038e-07
5.46844e-09
5.56743e-07
5.90722e-09
5.57332e-07
5.85609e-09
5.57798e-07
5.53614e-09
5.58161e-07
5.06918e-09
5.58443e-07
4.52656e-09
5.58667e-07
3.95587e-09
5.58852e-07
3.3847e-09
5.59012e-07
2.82635e-09
5.59154e-07
2.28712e-09
5.59278e-07
1.77095e-09
5.59379e-07
1.28615e-09
5.59448e-07
8.47685e-10
4.81645e-10
5.59488e-07
5.94313e-07
-7.68377e-10
5.94342e-07
1.1539e-09
5.94677e-07
2.68019e-09
5.95221e-07
3.85327e-09
5.9592e-07
4.76955e-09
5.96631e-07
5.19703e-09
5.97272e-07
5.215e-09
5.97825e-07
4.98279e-09
5.98295e-07
4.59969e-09
5.98692e-07
4.12889e-09
5.99033e-07
3.6149e-09
5.99332e-07
3.08613e-09
5.99599e-07
2.55917e-09
5.99842e-07
2.04444e-09
6.00062e-07
1.55022e-09
6.00261e-07
1.08712e-09
6.00439e-07
6.69762e-10
3.13735e-10
6.00607e-07
6.37228e-07
-3.15438e-10
6.3725e-07
1.13205e-09
6.37546e-07
2.38418e-09
6.38042e-07
3.35693e-09
6.38697e-07
4.1147e-09
6.39397e-07
4.49767e-09
6.40066e-07
4.54569e-09
6.40678e-07
4.37044e-09
6.41228e-07
4.05031e-09
6.41718e-07
3.63895e-09
6.42157e-07
3.17601e-09
6.42554e-07
2.6887e-09
6.42918e-07
2.19481e-09
6.43256e-07
1.70685e-09
6.43571e-07
1.23509e-09
6.43868e-07
7.90399e-10
6.44153e-07
3.84874e-10
2.65996e-11
6.4444e-07
5.73834e-07
-6.5962e-11
5.73861e-07
1.10481e-09
5.741e-07
2.14538e-09
5.74495e-07
2.96149e-09
5.75019e-07
3.59129e-09
5.75597e-07
3.91995e-09
5.76172e-07
3.97031e-09
5.76719e-07
3.82329e-09
5.77228e-07
3.54121e-09
5.77698e-07
3.16964e-09
5.7813e-07
2.74356e-09
5.78531e-07
2.28813e-09
5.78904e-07
1.82093e-09
5.79256e-07
1.3549e-09
5.79591e-07
9.00697e-10
5.79913e-07
4.68402e-10
5.8023e-07
6.76058e-11
-2.9852e-10
5.80555e-07
6.99641e-07
1.08781e-10
6.99709e-07
1.03639e-09
6.9998e-07
1.87464e-09
7.00415e-07
2.52671e-09
7.00989e-07
3.01748e-09
7.01634e-07
3.2745e-09
7.02296e-07
3.3083e-09
7.02945e-07
3.17441e-09
7.03566e-07
2.92024e-09
7.04153e-07
2.58257e-09
7.04706e-07
2.19069e-09
7.05227e-07
1.76673e-09
7.05721e-07
1.32693e-09
7.06192e-07
8.83656e-10
7.06646e-07
4.4691e-10
7.07089e-07
2.52824e-11
7.07531e-07
-3.74478e-10
-7.52812e-10
7.07986e-07
8.52994e-07
1.99457e-10
8.53119e-07
9.11425e-10
8.5344e-07
1.55351e-09
8.53926e-07
2.04044e-09
8.54556e-07
2.38773e-09
8.55272e-07
2.55866e-09
8.56023e-07
2.55743e-09
8.56777e-07
2.42003e-09
8.57517e-07
2.18094e-09
8.58231e-07
1.86822e-09
8.58917e-07
1.50498e-09
8.59574e-07
1.10943e-09
8.60205e-07
6.95488e-10
8.60815e-07
2.73914e-10
8.61409e-07
-1.46781e-10
8.61994e-07
-5.59888e-10
8.62581e-07
-9.61166e-10
-1.35326e-09
8.63181e-07
1.03991e-06
2.08034e-10
1.04011e-06
7.17813e-10
1.0405e-06
1.16353e-09
1.04105e-06
1.48544e-09
1.04175e-06
1.69035e-09
1.04254e-06
1.76541e-09
1.04339e-06
1.71369e-09
1.04425e-06
1.55736e-09
1.04511e-06
1.32011e-09
1.04596e-06
1.02207e-09
1.04678e-06
6.80181e-10
1.04758e-06
3.08238e-10
1.04836e-06
-8.29103e-11
1.04912e-06
-4.848e-10
1.04986e-06
-8.90892e-10
1.0506e-06
-1.29635e-09
1.05134e-06
-1.69872e-09
-2.10152e-09
1.05209e-06
1.26774e-06
1.48713e-10
1.26801e-06
4.49118e-10
1.26848e-06
6.92015e-10
1.26912e-06
8.44956e-10
1.2699e-06
9.0907e-10
1.27078e-06
8.82885e-10
1.27173e-06
7.69933e-10
1.2727e-06
5.83053e-10
1.27368e-06
3.37086e-10
1.27466e-06
4.5142e-11
1.27562e-06
-2.81629e-10
1.27656e-06
-6.33948e-10
1.27749e-06
-1.00434e-09
1.27839e-06
-1.38692e-09
1.27927e-06
-1.77715e-09
1.28015e-06
-2.17175e-09
1.28102e-06
-2.56926e-09
-2.97304e-09
1.28189e-06
1.54543e-06
4.13334e-11
1.54577e-06
1.09182e-10
1.54632e-06
1.35785e-10
1.54706e-06
1.08956e-10
1.54794e-06
2.91802e-11
1.54892e-06
-1.02199e-10
1.54998e-06
-2.82698e-10
1.55106e-06
-5.06337e-10
1.55217e-06
-7.65918e-10
1.55327e-06
-1.05489e-09
1.55435e-06
-1.36756e-09
1.55542e-06
-1.69908e-09
1.55646e-06
-2.04533e-09
1.55748e-06
-2.40295e-09
1.55847e-06
-2.76922e-09
1.55944e-06
-3.14199e-09
1.56039e-06
-3.52024e-09
-3.90665e-09
1.56132e-06
1.8839e-06
-9.45806e-11
1.8843e-06
-2.87027e-10
1.88493e-06
-4.9792e-10
1.88576e-06
-7.23096e-10
1.88675e-06
-9.57234e-10
1.88785e-06
-1.19975e-09
1.88901e-06
-1.45122e-09
1.89022e-06
-1.71184e-09
1.89144e-06
-1.98188e-09
1.89264e-06
-2.26168e-09
1.89383e-06
-2.55124e-09
1.89498e-06
-2.85022e-09
1.89609e-06
-3.15799e-09
1.89716e-06
-3.4737e-09
1.89819e-06
-3.79634e-09
1.89917e-06
-4.12477e-09
1.90011e-06
-4.45829e-09
-4.79883e-09
1.901e-06
2.29647e-06
-2.3237e-10
2.29689e-06
-7.02403e-10
2.29758e-06
-1.18634e-09
2.29849e-06
-1.64272e-09
2.29959e-06
-2.05394e-09
2.30081e-06
-2.42129e-09
2.30211e-06
-2.74773e-09
2.30344e-06
-3.0395e-09
2.30476e-06
-3.30606e-09
2.30606e-06
-3.55645e-09
2.3073e-06
-3.79773e-09
2.30849e-06
-4.03508e-09
2.3096e-06
-4.27211e-09
2.31064e-06
-4.51109e-09
2.3116e-06
-4.75317e-09
2.31247e-06
-4.99861e-09
2.31326e-06
-5.24737e-09
-5.50123e-09
2.31396e-06
1.6811e-06
-2.64232e-10
1.6813e-06
-8.99874e-10
1.68172e-06
-1.60629e-09
1.68233e-06
-2.25235e-09
1.68309e-06
-2.81034e-09
1.68395e-06
-3.28153e-09
1.68486e-06
-3.6641e-09
1.68579e-06
-3.96947e-09
1.6867e-06
-4.21762e-09
1.68757e-06
-4.42659e-09
1.68839e-06
-4.61017e-09
1.68913e-06
-4.77885e-09
1.6898e-06
-4.94028e-09
1.69039e-06
-5.09963e-09
1.69089e-06
-5.26e-09
1.69132e-06
-5.42299e-09
1.69166e-06
-5.58927e-09
-5.76063e-09
1.69192e-06
1.46334e-06
-1.4493e-10
1.46335e-06
-9.13683e-10
1.46363e-06
-1.88891e-09
1.46413e-06
-2.74925e-09
1.4648e-06
-3.47921e-09
1.46559e-06
-4.07078e-09
1.46643e-06
-4.50664e-09
1.46727e-06
-4.81012e-09
1.46807e-06
-5.01968e-09
1.46881e-06
-5.16598e-09
1.46947e-06
-5.27147e-09
1.47005e-06
-5.35325e-09
1.47053e-06
-5.42369e-09
1.47092e-06
-5.49099e-09
1.47122e-06
-5.56014e-09
1.47144e-06
-5.63385e-09
1.47156e-06
-5.71332e-09
-5.80021e-09
1.4716e-06
1.27361e-06
2.62531e-10
1.2734e-06
-7.10939e-10
1.27359e-06
-2.07529e-09
1.27404e-06
-3.19955e-09
1.27471e-06
-4.1498e-09
1.27552e-06
-4.88138e-09
1.27637e-06
-5.35316e-09
1.27718e-06
-5.62148e-09
1.27792e-06
-5.75709e-09
1.27856e-06
-5.80787e-09
1.27909e-06
-5.80718e-09
1.27952e-06
-5.77992e-09
1.27984e-06
-5.74321e-09
1.28006e-06
-5.70767e-09
1.28018e-06
-5.67939e-09
1.2802e-06
-5.66139e-09
1.28014e-06
-5.65474e-09
-5.66042e-09
1.28001e-06
1.10822e-06
1.13151e-09
1.10781e-06
-2.94263e-10
1.10798e-06
-2.2451e-09
1.10848e-06
-3.69818e-09
1.10925e-06
-4.9247e-09
1.11016e-06
-5.79134e-09
1.11105e-06
-6.24502e-09
1.11185e-06
-6.41588e-09
1.11251e-06
-6.42308e-09
1.11304e-06
-6.33458e-09
1.11343e-06
-6.19537e-09
1.11369e-06
-6.03769e-09
1.11382e-06
-5.88173e-09
1.11385e-06
-5.73851e-09
1.11379e-06
-5.6134e-09
1.11364e-06
-5.50831e-09
1.1134e-06
-5.42296e-09
-5.3569e-09
1.1131e-06
9.64026e-07
2.62665e-09
9.63462e-07
2.70078e-10
9.63729e-07
-2.51192e-09
9.64386e-07
-4.35503e-09
9.65356e-07
-5.89477e-09
9.66399e-07
-6.83497e-09
9.67319e-07
-7.16506e-09
9.6805e-07
-7.14602e-09
9.68583e-07
-6.95661e-09
9.68931e-07
-6.68259e-09
9.69113e-07
-6.37772e-09
9.69153e-07
-6.07776e-09
9.69074e-07
-5.80174e-09
9.68892e-07
-5.55746e-09
9.68626e-07
-5.34682e-09
9.68286e-07
-5.16868e-09
9.67883e-07
-5.02012e-09
-4.89847e-09
9.67425e-07
8.38126e-07
5.03567e-09
8.37685e-07
7.11586e-10
8.38231e-07
-3.05848e-09
8.39153e-07
-5.27707e-09
8.4036e-07
-7.10148e-09
8.41495e-07
-7.97006e-09
8.4235e-07
-8.02041e-09
8.42905e-07
-7.70098e-09
8.43197e-07
-7.24821e-09
8.4327e-07
-6.75564e-09
8.43169e-07
-6.27686e-09
8.42934e-07
-5.84279e-09
8.42597e-07
-5.46443e-09
8.42181e-07
-5.14156e-09
8.41704e-07
-4.86957e-09
8.41178e-07
-4.64256e-09
8.40612e-07
-4.45408e-09
-4.29864e-09
8.40012e-07
7.2762e-07
9.14393e-09
7.28067e-07
2.65152e-10
7.292e-07
-4.19204e-09
7.30489e-07
-6.56604e-09
7.31898e-07
-8.50995e-09
7.32983e-07
-9.05496e-09
7.33595e-07
-8.63275e-09
7.33802e-07
-7.90781e-09
7.33705e-07
-7.1512e-09
7.33391e-07
-6.44206e-09
7.3293e-07
-5.81591e-09
7.32373e-07
-5.28559e-09
7.31754e-07
-4.84587e-09
7.31097e-07
-4.48404e-09
7.30414e-07
-4.18707e-09
7.29715e-07
-3.94369e-09
7.29006e-07
-3.74414e-09
-3.58018e-09
7.28287e-07
6.30209e-07
1.59416e-08
6.32707e-07
-2.23297e-09
6.34636e-07
-6.12143e-09
6.36341e-07
-8.27098e-09
6.37809e-07
-9.97761e-09
6.38578e-07
-9.82377e-09
6.38669e-07
-8.72412e-09
6.38293e-07
-7.53204e-09
6.37637e-07
-6.49496e-09
6.36829e-07
-5.6338e-09
6.3595e-07
-4.93688e-09
6.35048e-07
-4.38371e-09
6.34149e-07
-3.94687e-09
6.33265e-07
-3.60003e-09
6.32401e-07
-3.32264e-09
6.31557e-07
-3.09973e-09
6.30732e-07
-2.91987e-09
-2.7729e-09
6.29925e-07
5.47185e-07
2.33027e-08
5.51794e-07
-6.84165e-09
5.53449e-07
-7.77693e-09
5.5509e-07
-9.91153e-09
5.561e-07
-1.09876e-08
5.56013e-07
-9.73646e-09
5.55133e-07
-7.84471e-09
5.53862e-07
-6.26094e-09
5.52464e-07
-5.09641e-09
5.51074e-07
-4.2439e-09
5.49751e-07
-3.61371e-09
5.48512e-07
-3.14549e-09
5.47359e-07
-2.79316e-09
5.46281e-07
-2.52266e-09
5.4527e-07
-2.31138e-09
5.44316e-07
-2.14547e-09
5.43411e-07
-2.01534e-09
-1.91228e-09
5.42551e-07
4.91612e-07
1.44515e-08
4.90681e-07
-5.91073e-09
4.87212e-07
-4.30758e-09
4.86197e-07
-8.89693e-09
4.8468e-07
-9.47051e-09
4.82246e-07
-7.3028e-09
4.79487e-07
-5.08544e-09
4.76852e-07
-3.62588e-09
4.74512e-07
-2.75648e-09
4.72481e-07
-2.21332e-09
4.70719e-07
-1.85117e-09
4.69174e-07
-1.60041e-09
4.67801e-07
-1.42051e-09
4.66565e-07
-1.28608e-09
4.65436e-07
-1.18288e-09
4.64396e-07
-1.10546e-09
4.63436e-07
-1.05502e-09
-1.0766e-09
4.626e-07
4.34719e-07
4.28808e-07
4.24501e-07
4.15604e-07
4.06133e-07
3.98831e-07
3.93745e-07
3.90119e-07
3.87363e-07
3.85149e-07
3.83298e-07
3.81698e-07
3.80277e-07
3.78991e-07
3.77808e-07
3.76703e-07
3.75648e-07
3.74571e-07
1.66041e-08
-1.66041e-08
2.18057e-08
-5.20162e-09
1.65395e-08
5.26622e-09
4.20129e-09
1.23382e-08
-1.18634e-08
1.60647e-08
-2.99907e-08
1.81273e-08
-4.94943e-08
1.95035e-08
-7.00946e-08
2.06003e-08
-9.1647e-08
2.15524e-08
-1.1402e-07
2.23732e-08
-1.37055e-07
2.30345e-08
-1.60557e-07
2.3502e-08
-1.84307e-07
2.37501e-08
-2.08073e-07
2.37663e-08
-2.31624e-07
2.35511e-08
-2.5474e-07
2.31158e-08
-2.7722e-07
2.24798e-08
-2.98887e-07
2.16671e-08
-3.19591e-07
2.07043e-08
-3.39209e-07
1.96174e-08
-3.5764e-07
1.84311e-08
-3.74807e-07
1.7167e-08
-3.9065e-07
1.58432e-08
-4.05124e-07
1.4474e-08
-4.18194e-07
1.30701e-08
-4.29833e-07
1.16392e-08
-4.40019e-07
1.0186e-08
-4.48732e-07
8.71325e-09
-4.55955e-07
7.22217e-09
-4.61668e-07
5.71315e-09
-4.65854e-07
4.18638e-09
-4.685e-07
2.6457e-09
-4.69616e-07
1.11587e-09
-4.69272e-07
-3.43651e-10
-4.67572e-07
-1.70056e-09
-4.64587e-07
-2.985e-09
-4.60354e-07
-4.23262e-09
-4.54893e-07
-5.46102e-09
-4.48216e-07
-6.67684e-09
-4.40335e-07
-7.88105e-09
-4.31264e-07
-9.07143e-09
-4.2102e-07
-1.02439e-08
-4.09627e-07
-1.13931e-08
-3.97114e-07
-1.25131e-08
-3.83516e-07
-1.35977e-08
-3.68876e-07
-1.46402e-08
-3.53241e-07
-1.56345e-08
-3.36667e-07
-1.65743e-08
-3.19213e-07
-1.74542e-08
-3.00944e-07
-1.8269e-08
-2.81929e-07
-1.90144e-08
-2.62242e-07
-1.9687e-08
-2.41958e-07
-2.0284e-08
-2.21155e-07
-2.08035e-08
-1.9991e-07
-2.12446e-08
-1.78303e-07
-2.16069e-08
-1.56413e-07
-2.18906e-08
-1.34317e-07
-2.2096e-08
-1.12093e-07
-2.22236e-08
-8.98201e-08
-2.22729e-08
-6.75779e-08
-2.22422e-08
-4.54481e-08
-2.21298e-08
-2.35059e-08
-2.19423e-08
-1.76244e-09
-2.17434e-08
1.97832e-08
-2.15456e-08
4.10746e-08
-2.12914e-08
6.20516e-08
-2.0977e-08
8.26697e-08
-2.06181e-08
1.02892e-07
-2.02225e-08
1.22687e-07
-1.97951e-08
1.42027e-07
-1.93397e-08
1.60886e-07
-1.88591e-08
1.79242e-07
-1.83558e-08
1.97074e-07
-1.7832e-08
2.14363e-07
-1.72897e-08
2.31094e-07
-1.67308e-08
2.47251e-07
-1.6157e-08
2.62821e-07
-1.55699e-08
2.77792e-07
-1.4971e-08
2.92154e-07
-1.4362e-08
3.05898e-07
-1.37443e-08
3.19018e-07
-1.31196e-08
3.31508e-07
-1.24895e-08
3.43363e-07
-1.18559e-08
3.54584e-07
-1.12206e-08
3.6517e-07
-1.05856e-08
3.75123e-07
-9.95309e-09
3.84448e-07
-9.32514e-09
3.93152e-07
-8.70407e-09
4.01244e-07
-8.09222e-09
4.08736e-07
-7.49192e-09
4.15642e-07
-6.90551e-09
4.21977e-07
-6.33525e-09
4.2776e-07
-5.7833e-09
4.33012e-07
-5.25163e-09
4.37754e-07
-4.74202e-09
4.4201e-07
-4.25601e-09
4.45805e-07
-3.79484e-09
4.49164e-07
-3.3595e-09
4.52115e-07
-2.95065e-09
4.54683e-07
-2.56867e-09
4.56897e-07
-2.21363e-09
4.58782e-07
-1.88531e-09
4.60366e-07
-1.58321e-09
4.61672e-07
-1.30662e-09
4.62727e-07
-1.05453e-09
4.63552e-07
-8.25571e-10
4.64171e-07
-6.18147e-10
4.64601e-07
-4.30064e-10
4.64853e-07
-2.52379e-10
4.64925e-07
-7.17343e-11
4.64826e-07
9.88219e-11
4.64589e-07
2.36715e-10
4.64246e-07
3.43326e-10
4.63819e-07
4.27136e-10
4.63325e-07
4.94028e-10
4.62777e-07
5.47914e-10
4.62185e-07
5.91711e-10
4.61558e-07
6.27421e-10
4.60901e-07
6.56495e-10
4.60221e-07
6.79979e-10
4.59522e-07
6.98744e-10
4.58809e-07
7.13484e-10
4.58084e-07
7.24811e-10
4.57351e-07
7.33237e-10
4.56612e-07
7.39213e-10
4.55869e-07
7.43158e-10
4.55123e-07
7.45403e-10
4.54377e-07
7.46264e-10
4.53631e-07
7.4601e-10
4.52886e-07
7.44859e-10
4.52143e-07
7.43029e-10
4.51402e-07
7.40674e-10
4.50664e-07
7.37957e-10
4.49929e-07
7.35002e-10
4.49197e-07
7.31924e-10
4.48469e-07
7.28803e-10
4.47743e-07
7.25745e-10
4.4702e-07
7.228e-10
4.463e-07
7.20029e-10
4.45583e-07
7.17485e-10
4.44867e-07
7.15202e-10
4.44154e-07
7.1322e-10
4.43443e-07
7.11556e-10
4.42732e-07
7.10236e-10
4.42023e-07
7.09276e-10
4.41314e-07
7.08705e-10
4.40606e-07
7.08545e-10
4.39897e-07
7.08827e-10
4.39187e-07
7.0957e-10
4.38477e-07
7.10803e-10
4.37764e-07
7.12571e-10
4.37049e-07
7.14916e-10
4.36331e-07
7.17885e-10
4.3561e-07
7.21556e-10
4.34884e-07
7.26012e-10
4.34152e-07
7.31379e-10
4.33414e-07
7.37796e-10
4.32669e-07
7.45463e-10
4.31914e-07
7.54631e-10
4.31149e-07
7.65648e-10
4.3037e-07
7.78951e-10
4.29575e-07
7.95142e-10
4.2876e-07
8.15004e-10
4.2792e-07
8.39614e-10
4.2705e-07
8.70423e-10
4.2614e-07
9.09415e-10
4.25181e-07
9.59384e-10
4.24157e-07
1.02428e-09
4.23047e-07
1.10984e-09
4.21822e-07
1.22468e-09
4.2044e-07
1.3821e-09
4.18836e-07
1.60388e-09
4.16909e-07
1.92711e-09
4.14486e-07
2.42244e-09
4.11263e-07
3.22299e-09
4.06599e-07
4.66428e-09
3.99289e-07
7.3097e-09
3.85694e-07
1.35958e-08
2.37803e-08
3.61913e-07
-6.93259e-09
-9.67148e-09
-1.98432e-08
7.70895e-09
-3.41502e-08
1.95733e-08
-5.02676e-08
2.84556e-08
-6.89096e-08
3.47067e-08
-8.97419e-08
3.89596e-08
-1.12113e-07
4.18746e-08
-1.35406e-07
4.3893e-08
-1.59108e-07
4.52548e-08
-1.82807e-07
4.60726e-08
-2.06169e-07
4.6396e-08
-2.28921e-07
4.62538e-08
-2.50845e-07
4.56746e-08
-2.71774e-07
4.4695e-08
-2.91583e-07
4.33601e-08
-3.10188e-07
4.17207e-08
-3.27538e-07
3.983e-08
-3.43611e-07
3.77398e-08
-3.58404e-07
3.5498e-08
-3.71934e-07
3.31466e-08
-3.84223e-07
3.07206e-08
-3.95304e-07
2.8248e-08
-4.05211e-07
2.57499e-08
-4.13978e-07
2.32416e-08
-4.21641e-07
2.07331e-08
-4.28233e-07
1.82305e-08
-4.33784e-07
1.57371e-08
-4.38325e-07
1.32544e-08
-4.41886e-07
1.07833e-08
-4.44498e-07
8.32473e-09
-4.46193e-07
5.88205e-09
-4.47009e-07
3.46174e-09
-4.46963e-07
1.06958e-09
-4.46003e-07
-1.30388e-09
-4.44026e-07
-3.67774e-09
-4.40952e-07
-6.05831e-09
-4.36742e-07
-8.44255e-09
-4.31377e-07
-1.08265e-08
-4.24849e-07
-1.32047e-08
-4.1716e-07
-1.55698e-08
-4.08319e-07
-1.79126e-08
-3.9834e-07
-2.02226e-08
-3.87245e-07
-2.24882e-08
-3.75062e-07
-2.46968e-08
-3.61823e-07
-2.68358e-08
-3.47572e-07
-2.88921e-08
-3.32353e-07
-3.08531e-08
-3.1622e-07
-3.27069e-08
-2.99232e-07
-3.44423e-08
-2.81452e-07
-3.60495e-08
-2.62946e-07
-3.75202e-08
-2.43786e-07
-3.88473e-08
-2.24044e-07
-4.00259e-08
-2.03795e-07
-4.10524e-08
-1.83114e-07
-4.19253e-08
-1.62077e-07
-4.26444e-08
-1.40756e-07
-4.3211e-08
-1.19225e-07
-4.36277e-08
-9.75502e-08
-4.38981e-08
-7.57971e-08
-4.40261e-08
-5.4023e-08
-4.40163e-08
-3.22776e-08
-4.38751e-08
-1.06043e-08
-4.36156e-08
1.09135e-08
-4.32612e-08
3.21889e-08
-4.28209e-08
5.31884e-08
-4.2291e-08
7.38877e-08
-4.16762e-08
9.42551e-08
-4.09855e-08
1.1426e-07
-4.02269e-08
1.33872e-07
-3.94073e-08
1.53065e-07
-3.85326e-08
1.71814e-07
-3.76084e-08
1.90098e-07
-3.66394e-08
2.07896e-07
-3.56301e-08
2.25191e-07
-3.45846e-08
2.41966e-07
-3.35063e-08
2.58208e-07
-3.23989e-08
2.73903e-07
-3.12652e-08
2.89041e-07
-3.01085e-08
3.0361e-07
-2.89317e-08
3.17604e-07
-2.77376e-08
3.31014e-07
-2.65293e-08
3.43834e-07
-2.53099e-08
3.56061e-07
-2.40825e-08
3.67691e-07
-2.28507e-08
3.78723e-07
-2.16179e-08
3.89158e-07
-2.0388e-08
3.98998e-07
-1.91649e-08
4.08246e-07
-1.79528e-08
4.1691e-07
-1.6756e-08
4.24997e-07
-1.55786e-08
4.32516e-07
-1.44251e-08
4.39481e-07
-1.32997e-08
4.45904e-07
-1.22064e-08
4.51801e-07
-1.1149e-08
4.57191e-07
-1.01311e-08
4.6209e-07
-9.15582e-09
4.66521e-07
-8.22576e-09
4.70505e-07
-7.34311e-09
4.74064e-07
-6.50957e-09
4.77221e-07
-5.72623e-09
4.80001e-07
-4.9937e-09
4.82428e-07
-4.31199e-09
4.84526e-07
-3.68065e-09
4.86318e-07
-3.09872e-09
4.87828e-07
-2.56477e-09
4.89079e-07
-2.07688e-09
4.90094e-07
-1.63279e-09
4.90894e-07
-1.22977e-09
4.91505e-07
-8.63492e-10
4.91963e-07
-5.29622e-10
4.92287e-07
-2.25504e-10
4.92477e-07
4.68452e-11
4.92536e-07
2.84275e-10
4.92474e-07
4.88453e-10
4.92305e-07
6.63083e-10
4.92041e-07
8.11865e-10
4.91695e-07
9.38248e-10
4.91277e-07
1.0453e-09
4.90798e-07
1.13561e-09
4.90266e-07
1.21141e-09
4.89691e-07
1.27462e-09
4.89077e-07
1.32691e-09
4.88432e-07
1.36975e-09
4.87761e-07
1.40443e-09
4.87068e-07
1.43209e-09
4.86358e-07
1.45375e-09
4.85633e-07
1.47031e-09
4.84896e-07
1.48257e-09
4.84151e-07
1.49121e-09
4.83399e-07
1.49686e-09
4.82642e-07
1.50005e-09
4.81882e-07
1.50125e-09
4.81119e-07
1.50089e-09
4.80354e-07
1.49931e-09
4.79589e-07
1.49681e-09
4.78825e-07
1.49369e-09
4.7806e-07
1.49016e-09
4.77297e-07
1.48642e-09
4.76534e-07
1.48266e-09
4.75772e-07
1.47902e-09
4.75012e-07
1.4756e-09
4.74253e-07
1.47254e-09
4.73494e-07
1.46991e-09
4.72737e-07
1.46779e-09
4.7198e-07
1.46625e-09
4.71223e-07
1.46535e-09
4.70466e-07
1.46516e-09
4.6971e-07
1.46574e-09
4.68952e-07
1.46715e-09
4.68193e-07
1.46945e-09
4.67433e-07
1.47272e-09
4.66671e-07
1.47704e-09
4.65906e-07
1.48252e-09
4.65139e-07
1.48927e-09
4.64367e-07
1.49747e-09
4.63591e-07
1.50731e-09
4.6281e-07
1.51905e-09
4.62023e-07
1.53303e-09
4.61227e-07
1.5497e-09
4.60423e-07
1.56965e-09
4.59609e-07
1.59361e-09
4.58781e-07
1.62263e-09
4.57938e-07
1.65805e-09
4.57076e-07
1.70167e-09
4.56191e-07
1.75595e-09
4.55276e-07
1.82424e-09
4.54324e-07
1.91117e-09
4.53325e-07
2.02324e-09
4.52265e-07
2.16984e-09
4.51125e-07
2.36471e-09
4.49878e-07
2.62874e-09
4.48487e-07
2.99509e-09
4.46896e-07
3.51815e-09
4.45022e-07
4.29656e-09
4.4274e-07
5.50489e-09
4.3985e-07
7.55439e-09
4.36056e-07
1.11038e-08
4.30895e-07
1.87569e-08
3.29065e-08
4.21769e-07
-2.09354e-08
1.12639e-08
-4.04155e-08
2.71891e-08
-5.88994e-08
3.80571e-08
-7.70428e-08
4.6599e-08
-9.55299e-08
5.31939e-08
-1.14636e-07
5.80655e-08
-1.34254e-07
6.14926e-08
-1.54102e-07
6.37409e-08
-1.73868e-07
6.50208e-08
-1.93281e-07
6.54857e-08
-2.12133e-07
6.52483e-08
-2.30279e-07
6.43998e-08
-2.47626e-07
6.30218e-08
-2.64124e-07
6.11925e-08
-2.79751e-07
5.89869e-08
-2.94506e-07
5.6476e-08
-3.08401e-07
5.37248e-08
-3.21451e-07
5.07906e-08
-3.33675e-07
4.7722e-08
-3.45088e-07
4.45589e-08
-3.557e-07
4.13325e-08
-3.65518e-07
3.8066e-08
-3.74544e-07
3.47758e-08
-3.82774e-07
3.14725e-08
-3.90203e-07
2.81621e-08
-3.9682e-07
2.48473e-08
-4.02612e-07
2.15283e-08
-4.07561e-07
1.82038e-08
-4.11649e-07
1.48718e-08
-4.14855e-07
1.15301e-08
-4.17149e-07
8.17667e-09
-4.18497e-07
4.80933e-09
-4.18851e-07
1.42388e-09
-4.18168e-07
-1.9875e-09
-4.16415e-07
-5.42998e-09
-4.13572e-07
-8.90134e-09
-4.0962e-07
-1.23948e-08
-4.04546e-07
-1.59006e-08
-3.98344e-07
-1.9407e-08
-3.91013e-07
-2.29005e-08
-3.8256e-07
-2.63655e-08
-3.72998e-07
-2.97851e-08
-3.62345e-07
-3.31408e-08
-3.50628e-07
-3.64136e-08
-3.3788e-07
-3.95838e-08
-3.24141e-07
-4.26318e-08
-3.09455e-07
-4.55385e-08
-2.93876e-07
-4.8286e-08
-2.77461e-07
-5.08578e-08
-2.60271e-07
-5.3239e-08
-2.42374e-07
-5.54174e-08
-2.23838e-07
-5.73829e-08
-2.04736e-07
-5.91281e-08
-1.8514e-07
-6.06483e-08
-1.65124e-07
-6.19414e-08
-1.4476e-07
-6.30077e-08
-1.24121e-07
-6.38501e-08
-1.03276e-07
-6.44734e-08
-8.22897e-08
-6.48842e-08
-6.12249e-08
-6.50908e-08
-4.01382e-08
-6.5103e-08
-1.90808e-08
-6.49325e-08
1.89533e-09
-6.45917e-08
2.27284e-08
-6.40943e-08
4.3362e-08
-6.34545e-08
6.37547e-08
-6.26837e-08
8.3871e-08
-6.17926e-08
1.03678e-07
-6.07921e-08
1.23143e-07
-5.96926e-08
1.4224e-07
-5.85037e-08
1.60941e-07
-5.72342e-08
1.79225e-07
-5.5892e-08
1.9707e-07
-5.44844e-08
2.14458e-07
-5.30179e-08
2.31372e-07
-5.14985e-08
2.47797e-07
-4.99316e-08
2.6372e-07
-4.8322e-08
2.79129e-07
-4.66744e-08
2.94014e-07
-4.49932e-08
3.08365e-07
-4.32825e-08
3.22174e-07
-4.15465e-08
3.35434e-07
-3.97894e-08
3.48139e-07
-3.80154e-08
3.60286e-07
-3.62291e-08
3.7187e-07
-3.4435e-08
3.8289e-07
-3.26382e-08
3.93346e-07
-3.08438e-08
4.03239e-07
-2.90574e-08
4.1257e-07
-2.72845e-08
4.21346e-07
-2.55312e-08
4.2957e-07
-2.38033e-08
4.37252e-07
-2.2107e-08
4.44401e-07
-2.04482e-08
4.51027e-07
-1.88328e-08
4.57144e-07
-1.72661e-08
4.62766e-07
-1.57535e-08
4.6791e-07
-1.42994e-08
4.72592e-07
-1.29081e-08
4.76832e-07
-1.1583e-08
4.8065e-07
-1.03269e-08
4.84065e-07
-9.14176e-09
4.871e-07
-8.02892e-09
4.89777e-07
-6.98891e-09
4.92118e-07
-6.02154e-09
4.94145e-07
-5.12593e-09
4.95881e-07
-4.30052e-09
4.97348e-07
-3.54318e-09
4.98566e-07
-2.85126e-09
4.99558e-07
-2.22164e-09
5.00345e-07
-1.65076e-09
5.0095e-07
-1.13466e-09
5.01394e-07
-6.68919e-10
5.01691e-07
-2.50626e-10
5.01854e-07
1.21347e-10
5.01893e-07
4.48964e-10
5.01821e-07
7.35408e-10
5.01649e-07
9.84358e-10
5.01387e-07
1.19962e-09
5.01048e-07
1.38487e-09
5.0064e-07
1.54352e-09
5.00173e-07
1.67867e-09
4.99654e-07
1.79316e-09
4.99091e-07
1.88949e-09
4.98491e-07
1.96996e-09
4.97859e-07
2.03659e-09
4.972e-07
2.09122e-09
4.96518e-07
2.13548e-09
4.95818e-07
2.17084e-09
4.95102e-07
2.19859e-09
4.94373e-07
2.21989e-09
4.93634e-07
2.23575e-09
4.92887e-07
2.24708e-09
4.92134e-07
2.25467e-09
4.91375e-07
2.25921e-09
4.90613e-07
2.26131e-09
4.89849e-07
2.2615e-09
4.89082e-07
2.26026e-09
4.88314e-07
2.25798e-09
4.87546e-07
2.255e-09
4.86777e-07
2.25163e-09
4.86008e-07
2.24813e-09
4.85238e-07
2.24473e-09
4.84469e-07
2.2416e-09
4.837e-07
2.23891e-09
4.82931e-07
2.23682e-09
4.82162e-07
2.23544e-09
4.81393e-07
2.23489e-09
4.80623e-07
2.23528e-09
4.79852e-07
2.23672e-09
4.79079e-07
2.2393e-09
4.78306e-07
2.24313e-09
4.7753e-07
2.24831e-09
4.76752e-07
2.255e-09
4.75971e-07
2.26333e-09
4.75187e-07
2.2735e-09
4.74399e-07
2.28573e-09
4.73606e-07
2.30031e-09
4.72807e-07
2.31764e-09
4.72002e-07
2.33818e-09
4.71189e-07
2.36259e-09
4.70367e-07
2.39168e-09
4.69534e-07
2.42654e-09
4.68688e-07
2.46863e-09
4.67826e-07
2.51985e-09
4.66945e-07
2.58277e-09
4.6604e-07
2.66084e-09
4.65106e-07
2.75877e-09
4.64134e-07
2.88306e-09
4.63115e-07
3.04277e-09
4.62034e-07
3.25084e-09
4.60872e-07
3.52613e-09
4.59604e-07
3.89686e-09
4.58192e-07
4.40691e-09
4.56584e-07
5.12678e-09
4.54702e-07
6.17836e-09
4.52435e-07
7.77138e-09
4.49644e-07
1.03452e-08
4.46135e-07
1.46137e-08
4.42198e-07
2.26939e-08
3.68278e-08
4.38276e-07
-2.42653e-08
3.55292e-08
-4.59506e-08
4.88744e-08
-6.58074e-08
5.79139e-08
-8.44004e-08
6.5192e-08
-1.02235e-07
7.10288e-08
-1.19649e-07
7.54792e-08
-1.36783e-07
7.86261e-08
-1.53636e-07
8.05945e-08
-1.70142e-07
8.15268e-08
-1.86219e-07
8.15626e-08
-2.018e-07
8.08293e-08
-2.16842e-07
7.94414e-08
-2.31322e-07
7.75023e-08
-2.45235e-07
7.51052e-08
-2.58582e-07
7.23338e-08
-2.71368e-07
6.92621e-08
-2.83597e-07
6.59537e-08
-2.95268e-07
6.24621e-08
-3.06377e-07
5.8831e-08
-3.16913e-07
5.50948e-08
-3.2686e-07
5.12794e-08
-3.36198e-07
4.74036e-08
-3.44902e-07
4.34798e-08
-3.52945e-07
3.95155e-08
-3.60297e-07
3.55141e-08
-3.66926e-07
3.14763e-08
-3.72798e-07
2.74003e-08
-3.77878e-07
2.32834e-08
-3.82128e-07
1.9122e-08
-3.8551e-07
1.49126e-08
-3.87985e-07
1.06519e-08
-3.89513e-07
6.33695e-09
-3.90055e-07
1.96542e-09
-3.89578e-07
-2.46421e-09
-3.88058e-07
-6.9501e-09
-3.85473e-07
-1.14861e-08
-3.81806e-07
-1.60618e-08
-3.77043e-07
-2.06633e-08
-3.71177e-07
-2.52738e-08
-3.64203e-07
-2.98738e-08
-3.56127e-07
-3.44415e-08
-3.46959e-07
-3.89531e-08
-3.36717e-07
-4.33832e-08
-3.25425e-07
-4.77053e-08
-3.13116e-07
-5.18925e-08
-2.9983e-07
-5.59181e-08
-2.85612e-07
-5.97563e-08
-2.70516e-07
-6.33827e-08
-2.54598e-07
-6.67751e-08
-2.37923e-07
-6.9914e-08
-2.20558e-07
-7.27831e-08
-2.02571e-07
-7.53693e-08
-1.84036e-07
-7.76633e-08
-1.65025e-07
-7.96594e-08
-1.45611e-07
-8.13554e-08
-1.25866e-07
-8.27527e-08
-1.0586e-07
-8.38558e-08
-8.56616e-08
-8.46721e-08
-6.53345e-08
-8.52114e-08
-4.49396e-08
-8.54857e-08
-2.45336e-08
-8.5509e-08
-4.16986e-09
-8.52962e-08
1.61005e-08
-8.4862e-08
3.62291e-08
-8.4223e-08
5.61711e-08
-8.33965e-08
7.58856e-08
-8.23982e-08
9.53365e-08
-8.12434e-08
1.14491e-07
-7.99466e-08
1.3332e-07
-7.85213e-08
1.51796e-07
-7.69802e-08
1.69897e-07
-7.53348e-08
1.876e-07
-7.35956e-08
2.04888e-07
-7.17721e-08
2.21743e-07
-6.98729e-08
2.3815e-07
-6.79056e-08
2.54096e-07
-6.58773e-08
2.69568e-07
-6.37943e-08
2.84556e-07
-6.16625e-08
2.9905e-07
-5.94874e-08
3.13042e-07
-5.72742e-08
3.26524e-07
-5.50283e-08
3.39489e-07
-5.27547e-08
3.51932e-07
-5.04587e-08
3.63849e-07
-4.81459e-08
3.75236e-07
-4.58221e-08
3.86091e-07
-4.34932e-08
3.96413e-07
-4.11657e-08
4.06202e-07
-3.88464e-08
4.1546e-07
-3.65423e-08
4.2419e-07
-3.42608e-08
4.32396e-07
-3.20092e-08
4.40084e-07
-2.97952e-08
4.47262e-07
-2.76264e-08
4.53939e-07
-2.551e-08
4.60126e-07
-2.34533e-08
4.65836e-07
-2.14628e-08
4.71081e-07
-1.95447e-08
4.75878e-07
-1.77046e-08
4.80242e-07
-1.59472e-08
4.84191e-07
-1.42764e-08
4.87745e-07
-1.26953e-08
4.90922e-07
-1.12059e-08
4.93742e-07
-9.80946e-09
4.96227e-07
-8.50624e-09
4.98397e-07
-7.2956e-09
5.00272e-07
-6.17608e-09
5.01875e-07
-5.14546e-09
5.03224e-07
-4.20089e-09
5.04341e-07
-3.33892e-09
5.05246e-07
-2.55573e-09
5.05959e-07
-1.84697e-09
5.06497e-07
-1.20762e-09
5.0688e-07
-6.33014e-10
5.07121e-07
-1.19452e-10
5.07233e-07
3.36633e-10
5.07229e-07
7.39186e-10
5.07121e-07
1.09246e-09
5.0692e-07
1.40086e-09
5.06636e-07
1.66874e-09
5.06279e-07
1.90023e-09
5.05859e-07
2.09925e-09
5.05382e-07
2.26944e-09
5.04858e-07
2.41409e-09
5.04292e-07
2.53627e-09
5.03689e-07
2.63872e-09
5.03057e-07
2.72395e-09
5.02398e-07
2.79421e-09