/*--------------------------------*- C++ -*----------------------------------*\
  =========                 |
  \\      /  F ield         | OpenFOAM: The Open Source CFD Toolbox
   \\    /   O peration     | Website:  https://openfoam.org
    \\  /    A nd           | Version:  6
     \\/     M anipulation  |
\*---------------------------------------------------------------------------*/
FoamFile
{
    version     2.0;
    format      ascii;
    class       volVectorField;
    location    "0.1";
    object      U;
}
// * * * * * * * * * * * * * * * * * * * * * * * * * * * * * * * * * * * * * //

dimensions      [0 1 -1 0 0 0 0];

internalField   nonuniform List<vector> 
12225
(
(0.948756 -0.405568 0)
(1.01273 -0.190676 0)
(1.01485 -0.0514114 0)
(0.98363 -0.0051712 0)
(0.955776 0.00448384 0)
(0.937605 0.00418431 0)
(0.92568 0.00252948 0)
(0.917367 0.00141561 0)
(0.911314 0.000853428 0)
(0.906674 0.000578667 0)
(0.902941 0.000426762 0)
(0.899866 0.000326883 0)
(0.897323 0.000247182 0)
(0.895271 0.000172539 0)
(0.893633 6.88428e-05 0)
(0.892885 -2.74572e-05 0)
(0.891784 -0.000422653 0)
(0.89799 -0.00117389 0)
(1.03698 0.0761178 0)
(1.02003 0.0533027 0)
(1.01143 0.0193639 0)
(1.00451 0.00895995 0)
(0.998302 0.0066445 0)
(0.99175 0.00518274 0)
(0.984835 0.00390205 0)
(0.978591 0.00301446 0)
(0.97352 0.00243898 0)
(0.969474 0.00203298 0)
(0.966188 0.00172421 0)
(0.963488 0.00147899 0)
(0.961261 0.00126889 0)
(0.959446 0.00107079 0)
(0.957953 0.000829101 0)
(0.956968 0.000564941 0)
(0.956128 -0.000330522 0)
(0.956643 -0.00120602 0)
(0.998332 0.0132074 0)
(0.995387 0.0119273 0)
(1.00091 0.00635187 0)
(1.00212 0.00643488 0)
(1.0016 0.00689791 0)
(0.999887 0.00617066 0)
(0.996814 0.00506525 0)
(0.993269 0.00413451 0)
(0.989983 0.00343322 0)
(0.987144 0.00289173 0)
(0.984728 0.0024629 0)
(0.982695 0.00211362 0)
(0.981002 0.00181013 0)
(0.979623 0.00152264 0)
(0.978509 0.00119289 0)
(0.977731 0.000782864 0)
(0.977045 -0.000107001 0)
(0.976553 -0.00139174 0)
(0.995105 -0.00695836 0)
(0.992516 0.00121578 0)
(0.998701 0.00386228 0)
(1.00104 0.00583263 0)
(1.00199 0.00687792 0)
(1.00218 0.00658037 0)
(1.00111 0.00573948 0)
(0.999294 0.00490786 0)
(0.997329 0.00420207 0)
(0.995468 0.00360915 0)
(0.99379 0.00311129 0)
(0.992326 0.002687 0)
(0.991084 0.00230688 0)
(0.990062 0.00194054 0)
(0.989234 0.00153271 0)
(0.988612 0.00103498 0)
(0.988011 0.000191159 0)
(0.987289 -0.00089498 0)
(0.996672 -0.00695103 0)
(0.993854 0.000777558 0)
(0.998162 0.00365337 0)
(1.00029 0.00539569 0)
(1.00174 0.00654848 0)
(1.00278 0.00657544 0)
(1.00284 0.00601922 0)
(1.00215 0.00535231 0)
(1.00116 0.00471327 0)
(1.00009 0.0041283 0)
(0.999034 0.00360536 0)
(0.998072 0.0031375 0)
(0.997233 0.00270415 0)
(0.996532 0.00227936 0)
(0.995954 0.00181768 0)
(0.995489 0.0012784 0)
(0.994999 0.000519361 0)
(0.994296 -0.000353393 0)
(0.99783 -0.00416378 0)
(0.995191 0.00121394 0)
(0.997983 0.00335784 0)
(0.999803 0.00486126 0)
(1.00139 0.00604535 0)
(1.0028 0.00630533 0)
(1.00349 0.0059987 0)
(1.00354 0.00550781 0)
(1.00325 0.00496953 0)
(1.00279 0.00443135 0)
(1.00225 0.00391852 0)
(1.00173 0.00343659 0)
(1.00125 0.00297482 0)
(1.00084 0.00251468 0)
(1.00049 0.002024 0)
(1.00019 0.00147645 0)
(0.999843 0.000807146 0)
(0.999282 0.000109729 0)
(0.998454 -0.0025905 0)
(0.996248 0.00109976 0)
(0.998064 0.00289914 0)
(0.999584 0.00430594 0)
(1.00112 0.00547448 0)
(1.00263 0.00588449 0)
(1.00365 0.00577422 0)
(1.00417 0.00544204 0)
(1.00437 0.00501183 0)
(1.00437 0.00453937 0)
(1.00426 0.00405902 0)
(1.00409 0.00358507 0)
(1.00392 0.00311557 0)
(1.00377 0.00264038 0)
(1.00364 0.00214071 0)
(1.00352 0.00160493 0)
(1.00333 0.00101534 0)
(1.00297 0.000450258 0)
(0.998887 -0.00175428 0)
(0.997157 0.000894624 0)
(0.998336 0.00249444 0)
(0.999574 0.00379426 0)
(1.00096 0.00489228 0)
(1.00244 0.00538248 0)
(1.0036 0.00541439 0)
(1.0044 0.00521225 0)
(1.00493 0.00488216 0)
(1.00527 0.00448004 0)
(1.00548 0.00404329 0)
(1.00561 0.0035913 0)
(1.0057 0.00312908 0)
(1.00578 0.00265416 0)
(1.00584 0.00215934 0)
(1.00589 0.00164482 0)
(1.00588 0.00111841 0)
(1.00574 0.000641852 0)
(0.999237 -0.0011455 0)
(0.997941 0.000795599 0)
(0.998699 0.00218441 0)
(0.999696 0.00333766 0)
(1.00091 0.00432664 0)
(1.00228 0.00484206 0)
(1.00348 0.00496657 0)
(1.00442 0.00486228 0)
(1.00516 0.0046162 0)
(1.00573 0.0042796 0)
(1.00618 0.00388894 0)
(1.00654 0.00346584 0)
(1.00685 0.00302007 0)
(1.00712 0.00255533 0)
(1.00736 0.00207304 0)
(1.00756 0.00158133 0)
(1.00772 0.0010989 0)
(1.0078 0.000671 0)
(0.999505 -0.000664595 0)
(0.998587 0.000768697 0)
(0.999083 0.00193883 0)
(0.99989 0.00293027 0)
(1.00094 0.00379103 0)
(1.00218 0.00429042 0)
(1.00334 0.00446471 0)
(1.00435 0.00442654 0)
(1.00521 0.00424452 0)
(1.00593 0.00396286 0)
(1.00654 0.00361464 0)
(1.00708 0.00322156 0)
(1.00755 0.00279613 0)
(1.00798 0.00234618 0)
(1.00837 0.00187864 0)
(1.00872 0.00140566 0)
(1.00904 0.000948012 0)
(1.00931 0.000536058 0)
(0.999696 -0.000316883 0)
(0.999093 0.000759108 0)
(0.999442 0.00172838 0)
(1.00011 0.00256193 0)
(1.00103 0.0032888 0)
(1.00212 0.00374281 0)
(1.00322 0.00393187 0)
(1.00424 0.00393093 0)
(1.00515 0.00379209 0)
(1.00596 0.00355166 0)
(1.00669 0.00323812 0)
(1.00734 0.00287174 0)
(1.00793 0.00246596 0)
(1.00848 0.00203081 0)
(1.00899 0.00157589 0)
(1.00947 0.0011142 0)
(1.00993 0.000663924 0)
(1.01036 0.000243241 0)
(0.999813 -0.000104955 0)
(0.999439 0.000742301 0)
(0.999726 0.00154958 0)
(1.00031 0.0022489 0)
(1.00112 0.00285608 0)
(1.00211 0.00325157 0)
(1.00314 0.00342998 0)
(1.00412 0.0034411 0)
(1.00504 0.00332408 0)
(1.0059 0.00310814 0)
(1.00668 0.00281726 0)
(1.0074 0.00246949 0)
(1.00808 0.00207791 0)
(1.00871 0.001653 0)
(1.0093 0.0012048 0)
(1.00987 0.000745159 0)
(1.01043 0.000288311 0)
(1.01097 -0.00015607 0)
(0.999893 2.91642e-05 0)
(0.999697 0.000711029 0)
(0.99996 0.00137535 0)
(1.00049 0.00195162 0)
(1.00122 0.00244586 0)
(1.00211 0.00277473 0)
(1.00306 0.00292724 0)
(1.00401 0.00293496 0)
(1.00492 0.00282619 0)
(1.00578 0.00262372 0)
(1.0066 0.00234709 0)
(1.00736 0.00201177 0)
(1.00809 0.00162966 0)
(1.00878 0.00121068 0)
(1.00944 0.000764147 0)
(1.01007 0.000299889 0)
(1.0107 -0.000172129 0)
(1.01134 -0.000649178 0)
(0.999951 0.000109689 0)
(0.999898 0.00064898 0)
(1.00016 0.00117399 0)
(1.00065 0.00162367 0)
(1.00131 0.00199824 0)
(1.00212 0.00224589 0)
(1.00299 0.00235447 0)
(1.00388 0.00234184 0)
(1.00476 0.00222707 0)
(1.00561 0.00202668 0)
(1.00643 0.00175542 0)
(1.00722 0.00142555 0)
(1.00798 0.00104697 0)
(1.0087 0.000627992 0)
(1.00941 0.00017613 0)
(1.0101 -0.000301572 0)
(1.01078 -0.000799533 0)
(1.01147 -0.00132031 0)
(0.999986 0.000136658 0)
(1.00004 0.000543471 0)
(1.00031 0.000931007 0)
(1.00078 0.0012528 0)
(1.00139 0.00150517 0)
(1.00211 0.00166041 0)
(1.00291 0.00170854 0)
(1.00374 0.00165835 0)
(1.00457 0.0015217 0)
(1.00539 0.00130954 0)
(1.0062 0.00103197 0)
(1.00698 0.000697691 0)
(1.00774 0.000313894 0)
(1.00848 -0.000113444 0)
(1.0092 -0.000579313 0)
(1.00991 -0.00107968 0)
(1.01061 -0.00161267 0)
(1.01133 -0.00218419 0)
(1 0.000116647 0)
(1.00011 0.000388386 0)
(1.0004 0.000634768 0)
(1.00085 0.000825727 0)
(1.00141 0.000955402 0)
(1.00208 0.00101073 0)
(1.0028 0.000985306 0)
(1.00356 0.000882671 0)
(1.00434 0.000709327 0)
(1.00512 0.000471654 0)
(1.00588 0.000175555 0)
(1.00663 -0.000173811 0)
(1.00737 -0.000572225 0)
(1.00809 -0.00101638 0)
(1.00879 -0.00150389 0)
(1.00949 -0.00203333 0)
(1.01017 -0.00260538 0)
(1.01086 -0.00322742 0)
(1.00001 6.09313e-05 0)
(1.00015 0.000183734 0)
(1.00043 0.000279434 0)
(1.00085 0.000332008 0)
(1.00138 0.000336147 0)
(1.00199 0.000285858 0)
(1.00266 0.000177402 0)
(1.00335 1.14082e-05 0)
(1.00407 -0.000209647 0)
(1.00478 -0.000483195 0)
(1.00549 -0.000806938 0)
(1.00619 -0.00117897 0)
(1.00687 -0.00159789 0)
(1.00754 -0.00206288 0)
(1.00819 -0.00257368 0)
(1.00882 -0.00313072 0)
(1.00944 -0.00373591 0)
(1.01005 -0.00439656 0)
(1.00001 -1.7995e-05 0)
(1.00015 -6.35324e-05 0)
(1.00042 -0.000133195 0)
(1.00081 -0.000231835 0)
(1.0013 -0.000361159 0)
(1.00186 -0.000523835 0)
(1.00246 -0.00072238 0)
(1.0031 -0.000958154 0)
(1.00374 -0.00123203 0)
(1.00439 -0.0015449 0)
(1.00502 -0.00189772 0)
(1.00565 -0.0022915 0)
(1.00625 -0.00272731 0)
(1.00683 -0.00320632 0)
(1.00738 -0.00372981 0)
(1.00792 -0.00429918 0)
(1.00843 -0.00491664 0)
(1.00892 -0.00558856 0)
(1.00001 -0.000107921 0)
(1.00012 -0.000340253 0)
(1.00036 -0.000594936 0)
(1.00071 -0.000862401 0)
(1.00116 -0.0011377 0)
(1.00167 -0.00142113 0)
(1.00222 -0.00171434 0)
(1.0028 -0.00202029 0)
(1.00338 -0.00234321 0)
(1.00395 -0.0026876 0)
(1.00451 -0.00305768 0)
(1.00504 -0.0034572 0)
(1.00554 -0.00388947 0)
(1.00601 -0.00435732 0)
(1.00644 -0.00486315 0)
(1.00684 -0.00540891 0)
(1.0072 -0.00599673 0)
(1.00753 -0.00663175 0)
(1 -0.000165464 0)
(1.00005 -0.000549411 0)
(1.00023 -0.000975105 0)
(1.00053 -0.00140097 0)
(1.00095 -0.0018133 0)
(1.00144 -0.00220885 0)
(1.00197 -0.00258496 0)
(1.00253 -0.0029448 0)
(1.00308 -0.00329624 0)
(1.00361 -0.00364784 0)
(1.00411 -0.00400723 0)
(1.00458 -0.00438111 0)
(1.005 -0.00477515 0)
(1.00538 -0.005194 0)
(1.0057 -0.00564127 0)
(1.00598 -0.00611968 0)
(1.00621 -0.00663154 0)
(1.00639 -0.00718123 0)
(0.999978 -0.000146943 0)
(0.999896 -0.000631535 0)
(0.999975 -0.00121828 0)
(1.00025 -0.00179118 0)
(1.00066 -0.00233294 0)
(1.00117 -0.00283348 0)
(1.00173 -0.00327967 0)
(1.00232 -0.00367556 0)
(1.00288 -0.0040353 0)
(1.00341 -0.00437288 0)
(1.0039 -0.00470022 0)
(1.00432 -0.00502765 0)
(1.00468 -0.00536377 0)
(1.00498 -0.00571531 0)
(1.00522 -0.00608738 0)
(1.00539 -0.00648367 0)
(1.00551 -0.00690692 0)
(1.00556 -0.00736122 0)
(0.999908 -4.99325e-07 0)
(0.999551 -0.000575344 0)
(0.999508 -0.0013669 0)
(0.999782 -0.00211448 0)
(1.00024 -0.00281453 0)
(1.00084 -0.00343627 0)
(1.00151 -0.00394783 0)
(1.00217 -0.00436178 0)
(1.00278 -0.00470595 0)
(1.00333 -0.00500323 0)
(1.00379 -0.00527199 0)
(1.00417 -0.0055278 0)
(1.00447 -0.00578312 0)
(1.00468 -0.00604718 0)
(1.00481 -0.00632664 0)
(1.00486 -0.00662609 0)
(1.00485 -0.00694869 0)
(1.00478 -0.00729819 0)
(0.99976 0.000330153 0)
(0.998912 -0.000404081 0)
(0.998765 -0.00147161 0)
(0.999136 -0.0024288 0)
(0.999746 -0.00333074 0)
(1.00053 -0.0040876 0)
(1.00137 -0.00464319 0)
(1.00214 -0.00503894 0)
(1.00281 -0.00532855 0)
(1.00335 -0.00554807 0)
(1.00376 -0.00572472 0)
(1.00405 -0.00588079 0)
(1.00423 -0.00603289 0)
(1.0043 -0.00619242 0)
(1.00428 -0.00636698 0)
(1.00418 -0.00656149 0)
(1.00401 -0.00677889 0)
(1.00377 -0.00702223 0)
(0.999509 0.00096425 0)
(0.997874 -0.000207284 0)
(0.997756 -0.00165393 0)
(0.998394 -0.00283188 0)
(0.999281 -0.0039637 0)
(1.00035 -0.00483842 0)
(1.00141 -0.00538133 0)
(1.00229 -0.00569571 0)
(1.00294 -0.00587449 0)
(1.00339 -0.00596954 0)
(1.00366 -0.00601791 0)
(1.00377 -0.00604846 0)
(1.00375 -0.00608068 0)
(1.00361 -0.00612639 0)
(1.00338 -0.00619258 0)
(1.00306 -0.00628316 0)
(1.00267 -0.00639984 0)
(1.00223 -0.00654424 0)
(0.998978 0.00254171 0)
(0.996222 0.000197367 0)
(0.996574 -0.00196094 0)
(0.997768 -0.00341708 0)
(0.999057 -0.0047778 0)
(1.00048 -0.00569493 0)
(1.00172 -0.00612281 0)
(1.00257 -0.0062671 0)
(1.00306 -0.00626801 0)
(1.00327 -0.00619181 0)
(1.00324 -0.00608298 0)
(1.00303 -0.00597368 0)
(1.00268 -0.00588251 0)
(1.00223 -0.00581844 0)
(1.0017 -0.00578533 0)
(1.0011 -0.00578432 0)
(1.00044 -0.00581469 0)
(0.999754 -0.00587587 0)
(0.997454 0.00614927 0)
(0.99343 0.0015274 0)
(0.995294 -0.00205626 0)
(0.997546 -0.00411846 0)
(0.999337 -0.00574556 0)
(1.00105 -0.006578 0)
(1.00227 -0.0067527 0)
(1.00282 -0.00662752 0)
(1.00286 -0.00638926 0)
(1.00255 -0.00611124 0)
(1.002 -0.00583774 0)
(1.0013 -0.00559651 0)
(1.00048 -0.00539896 0)
(0.999606 -0.00524679 0)
(0.998687 -0.005138 0)
(0.997741 -0.00506943 0)
(0.996776 -0.00503717 0)
(0.995805 -0.00503799 0)
(0.994437 0.00859218 0)
(0.989439 0.0023122 0)
(0.994096 -0.00193158 0)
(0.997977 -0.00478492 0)
(1.00033 -0.00670647 0)
(1.00205 -0.00728726 0)
(1.00276 -0.00706242 0)
(1.00249 -0.00658984 0)
(1.0016 -0.00608729 0)
(1.00041 -0.00561721 0)
(0.999062 -0.00520897 0)
(0.997652 -0.00487486 0)
(0.99623 -0.004612 0)
(0.994827 -0.00441111 0)
(0.993454 -0.00426283 0)
(0.992112 -0.00415951 0)
(0.990802 -0.00409445 0)
(0.989528 -0.00406128 0)
(0.994525 -0.00665718 0)
(0.989477 -0.00853693 0)
(0.995447 -0.00530256 0)
(0.999924 -0.00623494 0)
(1.00222 -0.00763297 0)
(1.00303 -0.00759709 0)
(1.00214 -0.00682083 0)
(1.00007 -0.00598041 0)
(0.997549 -0.00526097 0)
(0.994991 -0.00467158 0)
(0.992534 -0.00420364 0)
(0.990221 -0.00384428 0)
(0.988064 -0.00357364 0)
(0.986055 -0.00337169 0)
(0.984175 -0.00322321 0)
(0.982406 -0.00311809 0)
(0.980731 -0.00304938 0)
(0.979141 -0.003005 0)
(1.02649 -0.0702302 0)
(1.01709 -0.062397 0)
(1.01182 -0.0292263 0)
(1.00841 -0.0148842 0)
(1.00553 -0.0103475 0)
(1.00157 -0.0078668 0)
(0.996209 -0.00600553 0)
(0.990465 -0.00473883 0)
(0.985219 -0.00391634 0)
(0.980695 -0.00335603 0)
(0.976797 -0.00295574 0)
(0.973393 -0.00266645 0)
(0.970386 -0.00245688 0)
(0.967695 -0.002304 0)
(0.965256 -0.00219276 0)
(0.963017 -0.00211586 0)
(0.960947 -0.00207227 0)
(0.95903 -0.00208413 0)
(0.966188 0.350229 0)
(1.02692 0.194268 0)
(1.0327 0.0679169 0)
(1.00454 0.0152604 0)
(0.97625 -0.001277 0)
(0.956158 -0.00433333 0)
(0.942226 -0.00362305 0)
(0.932159 -0.00248166 0)
(0.924663 -0.0016734 0)
(0.918855 -0.00119284 0)
(0.914108 -0.000917807 0)
(0.91005 -0.000760017 0)
(0.90648 -0.000668504 0)
(0.903276 -0.000614854 0)
(0.900352 -0.000583838 0)
(0.897641 -0.000569872 0)
(0.895082 -0.00056921 0)
(0.892625 -0.000631869 0)
(0.00725978 -0.0313078 -2.38616e-21)
(0.0191363 -0.0204881 2.23516e-21)
(0.0193275 -0.000965557 0)
(0.0105517 0.0121532 0)
(-0.00282873 0.0174855 0)
(-0.0182652 0.019366 -2.06325e-21)
(-0.0350891 0.0203302 0)
(-0.0529749 0.0211774 0)
(-0.0717754 0.0220663 0)
(-0.0913856 0.022957 0)
(-0.111681 0.0237648 1.77661e-21)
(-0.132503 0.0244106 0)
(-0.153666 0.0248354 0)
(-0.174966 0.0250034 0)
(-0.196195 0.0249011 0)
(-0.217149 0.0245328 1.70344e-21)
(-0.237639 0.0239164 0)
(-0.257497 0.0230785 0)
(-0.276575 0.0220501 0)
(-0.294751 0.0208635 0)
(-0.311925 0.0195489 0)
(-0.328017 0.0181335 0)
(-0.342965 0.0166402 0)
(-0.35672 0.0150873 1.69813e-21)
(-0.369248 0.0134889 -1.69023e-21)
(-0.380518 0.0118555 1.67905e-21)
(-0.390508 0.0101953 1.66426e-21)
(-0.399195 0.00851548 0)
(-0.406561 0.00682371 0)
(-0.412589 0.005132 -1.59527e-21)
(-0.417267 0.0034588 -1.56328e-21)
(-0.420589 0.00183345 0)
(-0.422529 0.000304734 0)
(-0.42304 -0.00107968 -1.43538e-21)
(-0.422318 -0.00232543 0)
(-0.420437 -0.00348361 0)
(-0.417417 -0.00459631 1.24933e-21)
(-0.413278 -0.00568244 0)
(-0.408032 -0.00674968 1.093e-21)
(-0.401688 -0.00780018 2.00961e-21)
(-0.394254 -0.00883308 0)
(-0.385743 -0.00984586 0)
(-0.376171 -0.010835 0)
(-0.365561 -0.0117966 0)
(-0.353939 -0.0127263 0)
(-0.341338 -0.0136198 6.68204e-22)
(-0.327799 -0.0144731 3.98758e-22)
(-0.313365 -0.0152823 1.1701e-22)
(-0.298087 -0.016044 0)
(-0.28202 -0.0167552 4.81491e-22)
(-0.265224 -0.0174136 0)
(-0.247762 -0.0180173 -1.12296e-21)
(-0.2297 -0.0185649 -1.45824e-21)
(-0.211107 -0.0190557 0)
(-0.192053 -0.0194889 0)
(-0.172608 -0.0198639 0)
(-0.152844 -0.0201793 -2.88041e-21)
(-0.132832 -0.0204329 0)
(-0.112643 -0.0206197 0)
(-0.0923478 -0.0207308 0)
(-0.0720199 -0.0207507 0)
(-0.0517327 -0.0206555 0)
(-0.0315554 -0.0204143 0)
(-0.0115299 -0.0199995 0)
(0.00834021 -0.0194422 0)
(0.0280382 -0.0188232 5.66405e-21)
(0.0475091 -0.018187 0)
(0.0666995 -0.0175457 0)
(0.0855707 -0.016904 -5.6756e-21)
(0.104091 -0.0162647 -5.65683e-21)
(0.122232 -0.0156296 0)
(0.139968 -0.0149997 5.59393e-21)
(0.157278 -0.0143758 -5.55217e-21)
(0.17414 -0.0137585 0)
(0.190536 -0.0131486 5.45315e-21)
(0.206449 -0.0125463 0)
(0.221862 -0.0119522 0)
(0.236763 -0.0113666 -5.27828e-21)
(0.251139 -0.01079 0)
(0.264978 -0.0102228 5.15196e-21)
(0.278271 -0.00966536 0)
(0.291009 -0.00911831 -5.02275e-21)
(0.303185 -0.00858218 -4.95808e-21)
(0.314795 -0.00805759 -4.89384e-21)
(0.325833 -0.00754525 -9.66059e-21)
(0.3363 -0.00704591 9.53543e-21)
(0.346194 -0.00656039 0)
(0.355517 -0.00608953 0)
(0.364274 -0.00563423 0)
(0.37247 -0.00519534 9.0614e-21)
(0.380115 -0.00477374 8.95089e-21)
(0.387218 -0.00437023 -8.84391e-21)
(0.393793 -0.00398555 0)
(0.399855 -0.00362036 8.64085e-21)
(0.405421 -0.00327517 8.54481e-21)
(0.410508 -0.00295035 8.45242e-21)
(0.415139 -0.0026461 0)
(0.419333 -0.00236249 0)
(0.423115 -0.00209938 0)
(0.426509 -0.00185648 8.11773e-21)
(0.429537 -0.00163334 0)
(0.432225 -0.00142936 0)
(0.434598 -0.00124383 -7.90018e-21)
(0.43668 -0.0010759 0)
(0.438495 -0.000924643 0)
(0.440065 -0.000789029 -7.7072e-21)
(0.441414 -0.000667824 0)
(0.442561 -0.000559916 0)
(0.443525 -0.00046446 7.53503e-21)
(0.444326 -0.000375748 7.48179e-21)
(0.444966 -0.000281794 0)
(0.445424 -0.000186459 -7.38068e-21)
(0.445743 -0.00010751 0)
(0.445953 -5.05822e-05 7.28551e-21)
(0.446077 -1.10117e-05 0)
(0.446133 1.66044e-05 7.1958e-21)
(0.446135 3.60124e-05 7.15273e-21)
(0.446095 4.97479e-05 0)
(0.446021 5.94656e-05 0)
(0.44592 6.62052e-05 0)
(0.445798 7.0642e-05 0)
(0.445659 7.32465e-05 0)
(0.445507 7.43684e-05 0)
(0.445347 7.42824e-05 0)
(0.445182 7.32138e-05 6.84126e-21)
(0.445013 7.13528e-05 -6.80562e-21)
(0.444843 6.88611e-05 0)
(0.444674 6.5877e-05 0)
(0.444508 6.25185e-05 0)
(0.444345 5.8885e-05 0)
(0.444188 5.50609e-05 -1.32707e-20)
(0.444035 5.11162e-05 0)
(0.443889 4.71096e-05 1.31407e-20)
(0.44375 4.309e-05 -1.30768e-20)
(0.443618 3.9098e-05 0)
(0.443493 3.5167e-05 0)
(0.443375 3.13247e-05 0)
(0.443265 2.75936e-05 1.28275e-20)
(0.443162 2.39919e-05 1.27666e-20)
(0.443066 2.05334e-05 0)
(0.442978 1.72285e-05 1.26463e-20)
(0.442897 1.40845e-05 1.25868e-20)
(0.442823 1.11057e-05 -1.25277e-20)
(0.442755 8.29462e-06 0)
(0.442693 5.65256e-06 0)
(0.442638 3.18116e-06 -1.23528e-20)
(0.442588 8.82973e-07 0)
(0.442543 -1.2381e-06 0)
(0.442504 -3.17701e-06 0)
(0.442469 -4.92768e-06 0)
(0.442439 -6.48237e-06 1.2068e-20)
(0.442412 -7.83087e-06 1.2012e-20)
(0.442388 -8.96038e-06 0)
(0.442367 -9.85442e-06 1.19009e-20)
(0.442348 -1.04913e-05 0)
(0.442331 -1.08422e-05 0)
(0.442314 -1.08694e-05 1.17365e-20)
(0.442296 -1.05233e-05 0)
(0.442277 -9.73895e-06 1.16286e-20)
(0.442255 -8.43036e-06 0)
(0.442229 -6.48423e-06 0)
(0.442196 -3.75086e-06 1.14697e-20)
(0.442154 -3.19064e-08 0)
(0.442099 4.93703e-06 1.13665e-20)
(0.442028 1.15107e-05 0)
(0.441934 2.0169e-05 0)
(0.44181 3.15679e-05 0)
(0.441646 4.66182e-05 -1.1171e-20)
(0.44143 6.66058e-05 0)
(0.441141 9.3387e-05 1.10828e-20)
(0.440756 0.000129724 0)
(0.440236 0.000179857 0)
(0.439528 0.000250682 0)
(0.438545 0.000353717 0)
(0.437155 0.00051113 0)
(0.435092 0.000761854 0)
(0.432012 0.00121448 0)
(0.426542 0.00200636 -2.21186e-20)
(0.418751 0.00402611 0)
(0.395729 0.00678133 0)
(-0.00820069 -0.0289276 6.50182e-21)
(-0.0123123 0.000375185 -5.29789e-21)
(-0.0229124 0.0215013 0)
(-0.0364905 0.0368225 2.68574e-21)
(-0.0523181 0.0466933 0)
(-0.0700722 0.0527448 1.22559e-21)
(-0.0894396 0.0565903 -2.3147e-21)
(-0.109898 0.0591907 -2.24904e-21)
(-0.130946 0.0609885 0)
(-0.152175 0.0621388 -2.16902e-21)
(-0.173257 0.0626751 -1.09284e-21)
(-0.193923 0.0626003 0)
(-0.213957 0.0619257 0)
(-0.233186 0.0606833 0)
(-0.25148 0.0589258 0)
(-0.268747 0.0567204 -1.09455e-21)
(-0.284927 0.0541426 0)
(-0.299987 0.0512691 2.21171e-21)
(-0.313916 0.0481731 0)
(-0.326721 0.0449205 0)
(-0.338418 0.0415676 -2.25573e-21)
(-0.349033 0.0381605 0)
(-0.358593 0.0347351 2.26851e-21)
(-0.367129 0.0313176 -1.13089e-21)
(-0.374671 0.0279259 1.12666e-21)
(-0.381247 0.0245714 -1.11943e-21)
(-0.386885 0.0212596 -1.10901e-21)
(-0.391611 0.0179927 0)
(-0.39545 0.0147703 0)
(-0.398429 0.0115916 1.05741e-21)
(-0.400574 0.0084588 -1.06431e-21)
(-0.401908 0.00538246 0)
(-0.402458 0.00238723 0)
(-0.402263 -0.00049432 9.3729e-22)
(-0.401199 -0.00325942 0)
(-0.399157 -0.00593668 0)
(-0.396102 -0.00854917 -8.02413e-22)
(-0.392008 -0.0111089 0)
(-0.386864 -0.0136187 7.66146e-22)
(-0.380663 -0.0160755 -1.26545e-21)
(-0.373411 -0.0184729 0)
(-0.365114 -0.0208019 0)
(-0.355787 -0.0230523 -1.92123e-21)
(-0.345451 -0.0252131 -1.63847e-21)
(-0.334131 -0.0272729 -1.34364e-21)
(-0.32186 -0.0292207 6.36266e-22)
(-0.308675 -0.031046 -2.37383e-22)
(-0.294621 -0.032739 -4.64144e-22)
(-0.279746 -0.0342916 6.06672e-23)
(-0.264103 -0.0356966 -2.78939e-22)
(-0.24775 -0.0369489 0)
(-0.230749 -0.0380448 6.38431e-22)
(-0.213165 -0.0389826 -5.20572e-22)
(-0.195061 -0.0397622 0)
(-0.176507 -0.0403854 0)
(-0.15757 -0.0408552 0)
(-0.138316 -0.0411761 1.56043e-21)
(-0.118812 -0.041353 0)
(-0.0991204 -0.0413919 -3.53209e-21)
(-0.0793018 -0.041298 0)
(-0.059411 -0.0410759 -4.26046e-21)
(-0.0394967 -0.0407284 0)
(-0.0196024 -0.0402548 4.97992e-21)
(0.000215066 -0.0396508 0)
(0.0198787 -0.0389241 -5.44108e-21)
(0.0393322 -0.0381031 2.65672e-21)
(0.0585471 -0.0372133 0)
(0.0774994 -0.0362705 5.89334e-21)
(0.0961604 -0.0352851 3.13708e-21)
(0.114501 -0.0342648 3.18343e-21)
(0.132496 -0.0332155 0)
(0.15012 -0.0321425 3.02703e-21)
(0.167352 -0.0310504 3.28333e-21)
(0.184171 -0.029943 0)
(0.20056 -0.0288239 -3.32207e-21)
(0.216502 -0.0276964 6.48258e-21)
(0.231983 -0.0265633 0)
(0.246988 -0.0254273 3.34732e-21)
(0.261507 -0.0242911 0)
(0.275527 -0.0231569 -9.89366e-21)
(0.28904 -0.0220272 0)
(0.302038 -0.0209043 9.87913e-21)
(0.314512 -0.0197907 3.3276e-21)
(0.326458 -0.0186887 -3.20479e-21)
(0.33787 -0.017601 -6.40192e-21)
(0.348747 -0.0165301 6.39118e-21)
(0.359086 -0.0154787 0)
(0.368887 -0.0144496 0)
(0.378152 -0.0134455 0)
(0.386884 -0.0124693 -1.92572e-20)
(0.39509 -0.0115235 -6.43365e-21)
(0.402775 -0.0106109 6.40078e-21)
(0.40995 -0.00973385 0)
(0.416624 -0.00889455 6.23616e-21)
(0.422811 -0.00809492 -6.30099e-21)
(0.428526 -0.00733657 -6.26778e-21)
(0.433783 -0.00662074 0)
(0.438601 -0.00594825 0)
(0.442998 -0.00531957 0)
(0.446995 -0.00473473 -6.13732e-21)
(0.450611 -0.00419337 0)
(0.453869 -0.00369476 1.21063e-20)
(0.45679 -0.00323782 1.80918e-20)
(0.459396 -0.00282114 -1.19917e-20)
(0.461709 -0.00244303 0)
(0.463752 -0.00210152 -5.92649e-21)
(0.465545 -0.00179436 0)
(0.467109 -0.0015191 -1.17667e-20)
(0.468465 -0.00127275 5.84721e-21)
(0.469633 -0.0010489 5.82093e-21)
(0.47064 -0.000840419 0)
(0.471528 -0.00065117 1.73287e-20)
(0.472292 -0.000490272 -1.14945e-20)
(0.472932 -0.000358335 -5.72429e-21)
(0.473456 -0.000250677 0)
(0.473876 -0.000162809 -5.66955e-21)
(0.474203 -9.12494e-05 -1.69233e-20)
(0.47445 -3.31582e-05 0)
(0.474627 1.37352e-05 -1.11771e-20)
(0.474746 5.12217e-05 -1.11263e-20)
(0.474814 8.07533e-05 -1.1076e-20)
(0.47484 0.000103539 0)
(0.474832 0.000120603 0)
(0.474794 0.000132821 0)
(0.474732 0.000140952 5.43979e-21)
(0.474652 0.000145652 5.41666e-21)
(0.474558 0.000147494 0)
(0.474452 0.000146975 1.07388e-20)
(0.474338 0.000144524 1.06924e-20)
(0.474218 0.000140511 0)
(0.474095 0.000135258 1.06009e-20)
(0.473971 0.000129036 2.11112e-20)
(0.473848 0.000122081 -1.05106e-20)
(0.473726 0.000114592 -1.04661e-20)
(0.473607 0.00010674 0)
(0.473491 9.86673e-05 0)
(0.47338 9.04962e-05 0)
(0.473274 8.23282e-05 -1.029e-20)
(0.473173 7.42481e-05 1.02467e-20)
(0.473079 6.63251e-05 2.04069e-20)
(0.47299 5.86153e-05 -1.01604e-20)
(0.472907 5.11637e-05 1.01175e-20)
(0.47283 4.40055e-05 1.00748e-20)
(0.472759 3.71686e-05 0)
(0.472695 3.06754e-05 0)
(0.472636 2.45455e-05 -9.94725e-21)
(0.472583 1.87965e-05 0)
(0.472536 1.34456e-05 0)
(0.472493 8.50985e-06 1.9642e-20)
(0.472456 4.00686e-06 0)
(0.472424 -4.38843e-08 9.73706e-21)
(0.472395 -3.61933e-06 -9.69583e-21)
(0.472371 -6.69132e-06 0)
(0.47235 -9.22442e-06 9.61215e-21)
(0.472332 -1.11728e-05 0)
(0.472317 -1.24764e-05 0)
(0.472303 -1.30565e-05 -9.48888e-21)
(0.47229 -1.28096e-05 1.88951e-20)
(0.472278 -1.16e-05 -9.407e-21)
(0.472264 -9.24901e-06 0)
(0.472249 -5.52086e-06 0)
(0.472229 -1.04445e-07 9.28499e-21)
(0.472204 7.4122e-06 0)
(0.472171 1.75775e-05 9.20568e-21)
(0.472126 3.11263e-05 0)
(0.472066 4.90506e-05 0)
(0.471985 7.27044e-05 0)
(0.471876 0.00010396 9.05473e-21)
(0.471731 0.000145454 0)
(0.471537 0.000200969 -8.98586e-21)
(0.471276 0.000276102 0)
(0.470925 0.000379379 0)
(0.470451 0.000524486 1.78048e-20)
(0.469805 0.000734118 -1.77685e-20)
(0.468918 0.00105049 0)
(0.467662 0.00154903 0)
(0.465938 0.00241752 0)
(0.463204 0.00394161 5.37125e-20)
(0.460093 0.00740886 0)
(0.453447 0.0133784 -3.67702e-20)
(-0.0174603 0.00283473 -2.1371e-22)
(-0.0288803 0.032197 5.82018e-21)
(-0.043765 0.0530112 0)
(-0.0599296 0.0690096 -4.10656e-21)
(-0.0763685 0.0807945 0)
(-0.0931785 0.0890253 0)
(-0.110494 0.0945022 -1.91541e-23)
(-0.128161 0.0979034 1.68091e-21)
(-0.145903 0.0996996 1.67698e-21)
(-0.163453 0.100186 1.62774e-21)
(-0.180596 0.0995518 0)
(-0.197177 0.0979366 0)
(-0.213093 0.0954669 -1.65025e-21)
(-0.228281 0.0922681 -3.31322e-21)
(-0.242711 0.088467 3.33092e-21)
(-0.256375 0.0841882 0)
(-0.269278 0.0795493 3.37294e-21)
(-0.281433 0.0746558 -1.66954e-21)
(-0.292856 0.0695992 0)
(-0.303559 0.0644548 3.42823e-21)
(-0.313555 0.0592821 1.69836e-21)
(-0.32285 0.0541261 -3.44594e-21)
(-0.331447 0.0490185 -1.70394e-21)
(-0.339345 0.0439806 0)
(-0.346537 0.0390248 3.42716e-21)
(-0.353016 0.0341574 3.40634e-21)
(-0.358769 0.0293806 0)
(-0.363782 0.0246938 3.34e-21)
(-0.368038 0.0200954 0)
(-0.371518 0.0155835 3.23816e-21)
(-0.374199 0.0111556 1.55767e-21)
(-0.376049 0.00680738 0)
(-0.377029 0.00252778 0)
(-0.377098 -0.00170594 0)
(-0.376219 -0.00591117 0)
(-0.374364 -0.0100852 0)
(-0.371515 -0.014218 0)
(-0.367655 -0.018298 2.39426e-21)
(-0.362776 -0.0223124 -3.30043e-21)
(-0.356872 -0.0262468 0)
(-0.349943 -0.0300853 0)
(-0.341997 -0.0338105 0)
(-0.333046 -0.037404 -1.44688e-22)
(-0.323109 -0.0408468 1.17074e-21)
(-0.31221 -0.0441202 2.07023e-21)
(-0.30038 -0.0472059 -1.63463e-21)
(-0.287657 -0.0500868 -6.78122e-22)
(-0.274083 -0.0527474 2.77926e-22)
(-0.259707 -0.0551743 1.78968e-22)
(-0.244581 -0.0573565 -1.2783e-23)
(-0.228761 -0.0592858 0)
(-0.21231 -0.0609569 -4.893e-22)
(-0.195289 -0.0623672 1.94694e-22)
(-0.177763 -0.0635174 0)
(-0.159799 -0.0644106 0)
(-0.141461 -0.0650526 1.45431e-21)
(-0.122815 -0.0654516 0)
(-0.103925 -0.0656176 0)
(-0.0848523 -0.0655624 -1.96246e-21)
(-0.065654 -0.0652989 -4.80771e-21)
(-0.0463843 -0.0648414 2.84412e-21)
(-0.0270918 -0.0642059 0)
(-0.00782291 -0.0634098 -3.28039e-21)
(0.011371 -0.0624731 0)
(0.0304344 -0.0614135 -3.19811e-21)
(0.0493209 -0.0602428 -3.72721e-21)
(0.0679963 -0.0589717 7.33245e-21)
(0.0864295 -0.0576123 3.60786e-21)
(0.104591 -0.0561765 0)
(0.122452 -0.0546752 -8.00084e-21)
(0.139988 -0.053118 0)
(0.157175 -0.0515138 -1.2692e-20)
(0.173994 -0.0498705 -8.51431e-21)
(0.190426 -0.0481951 -8.65502e-21)
(0.206453 -0.0464938 8.78198e-21)
(0.222061 -0.0447724 -1.34722e-20)
(0.237235 -0.0430359 0)
(0.251964 -0.0412891 0)
(0.266236 -0.0395362 9.16991e-21)
(0.280041 -0.0377814 1.39656e-20)
(0.29337 -0.0360286 0)
(0.306216 -0.0342817 -4.77167e-21)
(0.31857 -0.0325446 0)
(0.330429 -0.0308212 1.42512e-20)
(0.341786 -0.0291155 1.53132e-22)
(0.352639 -0.0274316 -1.43149e-22)
(0.362985 -0.0257737 -9.53484e-21)
(0.372824 -0.024146 0)
(0.382157 -0.022553 9.57085e-21)
(0.390984 -0.0209988 1.06873e-22)
(0.399311 -0.0194879 0)
(0.407142 -0.0180244 0)
(0.414484 -0.0166122 0)
(0.421345 -0.015255 -9.67906e-21)
(0.427737 -0.013956 0)
(0.43367 -0.0127182 0)
(0.439157 -0.0115437 0)
(0.444215 -0.0104346 0)
(0.448858 -0.0093919 0)
(0.453105 -0.00841632 -9.56005e-21)
(0.456972 -0.00750786 0)
(0.46048 -0.00666596 -9.56573e-21)
(0.463648 -0.0058895 -9.5448e-21)
(0.466495 -0.00517683 9.52255e-21)
(0.469044 -0.00452582 0)
(0.471314 -0.00393394 9.47433e-21)
(0.473325 -0.00339823 0)
(0.475097 -0.00291546 9.42161e-21)
(0.47665 -0.00248212 -9.39375e-21)
(0.478005 -0.00209453 -2.8068e-20)
(0.479181 -0.00174889 0)
(0.4802 -0.00144102 -2.78966e-20)
(0.481079 -0.00116839 -9.25695e-21)
(0.48183 -0.000930304 0)
(0.482463 -0.000725149 -1.84039e-20)
(0.482988 -0.000550171 -1.83381e-20)
(0.483416 -0.000402147 2.74122e-20)
(0.483759 -0.000277815 0)
(0.484026 -0.00017413 9.07191e-21)
(0.484228 -8.83675e-05 9.03733e-21)
(0.484373 -1.81249e-05 2.7003e-20)
(0.48447 3.87064e-05 0)
(0.484525 8.39768e-05 0)
(0.484545 0.000119311 0)
(0.484536 0.000146137 8.86189e-21)
(0.484504 0.000165711 0)
(0.484451 0.000179136 0)
(0.484384 0.000187378 -8.7609e-21)
(0.484304 0.000191285 -8.72662e-21)
(0.484215 0.000191594 0)
(0.48412 0.000188946 0)
(0.48402 0.000183898 -1.72485e-20)
(0.483918 0.000176931 0)
(0.483815 0.000168459 1.71129e-20)
(0.483713 0.000158837 1.70452e-20)
(0.483612 0.000148371 0)
(0.483514 0.000137319 0)
(0.483419 0.000125902 -1.68431e-20)
(0.483329 0.000114305 6.93948e-26)
(0.483242 0.000102683 6.93758e-26)
(0.483161 9.11657e-05 0)
(0.483084 7.98606e-05 -3.31493e-20)
(0.483013 6.88555e-05 0)
(0.482947 5.82236e-05 0)
(0.482886 4.80254e-05 0)
(0.482831 3.83123e-05 1.63069e-20)
(0.48278 2.91285e-05 0)
(0.482735 2.05138e-05 -3.23462e-20)
(0.482694 1.25051e-05 -1.61063e-20)
(0.482658 5.13828e-06 0)
(0.482627 -1.5499e-06 -1.59726e-20)
(0.482599 -7.51927e-06 0)
(0.482575 -1.27228e-05 0)
(0.482554 -1.71034e-05 -4.73155e-20)
(0.482536 -2.05897e-05 3.14098e-20)
(0.48252 -2.30899e-05 0)
(0.482506 -2.4485e-05 3.11428e-20)
(0.482493 -2.462e-05 -1.55051e-20)
(0.482479 -2.32923e-05 0)
(0.482465 -2.02363e-05 0)
(0.482448 -1.51034e-05 0)
(0.482428 -7.43417e-06 -4.5721e-20)
(0.482401 3.37833e-06 0)
(0.482366 1.814e-05 -1.51105e-20)
(0.48232 3.79271e-05 0)
(0.482258 6.41884e-05 0)
(0.482176 9.88927e-05 0)
(0.482066 0.000144748 0)
(0.481918 0.000205537 0)
(0.481721 0.000286645 0)
(0.481458 0.000395932 -2.93904e-20)
(0.481104 0.000545195 0)
(0.480628 0.000752908 -1.46093e-20)
(0.479983 0.00104896 4.37354e-20)
(0.479102 0.00148609 0)
(0.477878 0.00215608 0)
(0.476212 0.00326116 -2.91905e-20)
(0.473782 0.00513066 -2.93851e-20)
(0.470963 0.00885078 2.96236e-20)
(0.467079 0.0156433 3.01977e-20)
(-0.0192078 0.0446265 -1.07619e-20)
(-0.0333856 0.0713742 -7.61878e-21)
(-0.0496575 0.0894977 -4.0215e-21)
(-0.0665431 0.103694 -1.78185e-21)
(-0.0828483 0.114638 0)
(-0.0985708 0.122588 3.09301e-21)
(-0.113973 0.127872 -1.54299e-21)
(-0.129149 0.130872 0)