/*--------------------------------*- C++ -*----------------------------------*\
  =========                 |
  \\      /  F ield         | OpenFOAM: The Open Source CFD Toolbox
   \\    /   O peration     | Website:  https://openfoam.org
    \\  /    A nd           | Version:  6
     \\/     M anipulation  |
\*---------------------------------------------------------------------------*/
FoamFile
{
    version     2.0;
    format      ascii;
    class       volScalarField;
    location    "0.07";
    object      epsilon;
}
// * * * * * * * * * * * * * * * * * * * * * * * * * * * * * * * * * * * * * //

dimensions      [0 2 -3 0 0 0 0];

internalField   nonuniform List<scalar> 
3080
(
2.33861
2.34071
2.34283
2.34498
2.34714
2.34933
2.35153
2.35375
2.35597
2.35821
2.36044
2.36268
2.36489
2.36708
2.36923
2.37132
2.37331
2.37517
2.37685
2.37827
2.37933
2.37988
2.37969
2.37841
2.37547
2.36985
2.35966
2.3409
2.30595
2.2397
1.13274
1.13332
1.13392
1.13452
1.13513
1.13575
1.13637
1.13701
1.13764
1.13829
1.13894
1.13959
1.14025
1.14091
1.14157
1.14222
1.14287
1.1435
1.14412
1.14471
1.14527
1.14577
1.14621
1.14657
1.14684
1.14704
1.14733
1.14823
1.1517
1.16485
0.953483
0.953713
0.953948
0.954187
0.954432
0.95468
0.954932
0.955188
0.955446
0.955708
0.955973
0.95624
0.956508
0.956777
0.957046
0.957313
0.957577
0.957835
0.958085
0.958321
0.958541
0.958737
0.958904
0.959038
0.959141
0.959243
0.959446
0.960093
0.962214
0.969078
0.909619
0.909676
0.909736
0.909799
0.909864
0.909931
0.91
0.910071
0.910144
0.910218
0.910293
0.910368
0.910444
0.91052
0.910594
0.910665
0.910734
0.910796
0.910851
0.910895
0.910926
0.910937
0.910926
0.910888
0.910826
0.910756
0.910746
0.910999
0.912055
0.915319
0.904267
0.904213
0.904162
0.904111
0.904062
0.904014
0.903966
0.903919
0.903873
0.903826
0.90378
0.903732
0.903684
0.903635
0.903583
0.903527
0.903468
0.903402
0.903328
0.903243
0.903143
0.903025
0.902884
0.902717
0.90252
0.902305
0.902109
0.902054
0.90243
0.903893
0.913666
0.913535
0.913405
0.913276
0.913147
0.913018
0.912889
0.912759
0.912629
0.912498
0.912366
0.912232
0.912097
0.911959
0.911818
0.911673
0.911522
0.911364
0.911197
0.911019
0.910824
0.910611
0.910373
0.910105
0.909805
0.909473
0.90913
0.908847
0.908783
0.909288
0.929228
0.929043
0.928857
0.928671
0.928485
0.928298
0.92811
0.927921
0.927731
0.927539
0.927346
0.92715
0.926952
0.92675
0.926545
0.926335
0.926118
0.925893
0.925659
0.925412
0.925148
0.924864
0.924554
0.924211
0.923832
0.923412
0.922961
0.922517
0.922172
0.922147
0.947144
0.946921
0.946696
0.94647
0.946244
0.946016
0.945786
0.945556
0.945323
0.945088
0.944851
0.944612
0.944369
0.944122
0.943871
0.943614
0.943351
0.943079
0.942796
0.9425
0.942186
0.941852
0.94149
0.941095
0.940659
0.940179
0.939653
0.939104
0.938588
0.938267
0.965519
0.96527
0.96502
0.964767
0.964514
0.964258
0.964001
0.963742
0.963481
0.963217
0.962951
0.962681
0.962408
0.962131
0.961849
0.961561
0.961266
0.960961
0.960646
0.960317
0.959971
0.959602
0.959207
0.958777
0.958306
0.957788
0.957218
0.956609
0.955998
0.95552
0.983352
0.983089
0.982822
0.982554
0.982284
0.982012
0.981738
0.981462
0.981184
0.980902
0.980618
0.980331
0.98004
0.979744
0.979443
0.979136
0.978821
0.978497
0.978162
0.977814
0.977448
0.97706
0.976646
0.976198
0.975709
0.975173
0.974584
0.973949
0.973298
0.972747
1.00011
0.99984
0.999567
0.999292
0.999014
0.998734
0.998453
0.998169
0.997882
0.997593
0.9973
0.997004
0.996704
0.9964
0.99609
0.995774
0.99545
0.995117
0.994774
0.994416
0.994042
0.993647
0.993226
0.992773
0.992282
0.991745
0.991157
0.990523
0.989868
0.989298
1.01525
1.01498
1.0147
1.01442
1.01414
1.01386
1.01358
1.01329
1.013
1.01271
1.01241
1.01211
1.0118
1.01149
1.01118
1.01085
1.01052
1.01018
1.00982
1.00945
1.00905
1.00864
1.00819
1.00771
1.00718
1.00661
1.006
1.00537
1.00481
1.0292
1.02893
1.02866
1.02839
1.02812
1.02784
1.02756
1.02728
1.027
1.02671
1.02642
1.02612
1.02582
1.02552
1.02521
1.02489
1.02456
1.02423
1.02388
1.02351
1.02313
1.02273
1.02229
1.02183
1.02133
1.02079
1.02021
1.01961
1.01909
1.04166
1.04141
1.04115
1.04089
1.04062
1.04036
1.04009
1.03982
1.03954
1.03927
1.03899
1.0387
1.03841
1.03812
1.03782
1.03751
1.0372
1.03688
1.03654
1.03619
1.03583
1.03544
1.03503
1.03459
1.03412
1.03361
1.03308
1.03253
1.03206
1.05268
1.05243
1.05219
1.05194
1.05169
1.05144
1.05119
1.05093
1.05067
1.05041
1.05014
1.04987
1.0496
1.04932
1.04903
1.04874
1.04844
1.04814
1.04782
1.04749
1.04715
1.04679
1.0464
1.04599
1.04556
1.0451
1.04461
1.04412
1.0437
1.0624
1.06217
1.06194
1.06171
1.06147
1.06123
1.06099
1.06075
1.0605
1.06025
1.06
1.05975
1.05949
1.05922
1.05895
1.05868
1.0584
1.05811
1.05781
1.0575
1.05718
1.05684
1.05648
1.0561
1.0557
1.05528
1.05485
1.05441
1.05404
1.07073
1.07052
1.07031
1.07009
1.06988
1.06966
1.06943
1.06921
1.06898
1.06875
1.06852
1.06828
1.06804
1.0678
1.06755
1.0673
1.06704
1.06677
1.0665
1.06621
1.06592
1.06561
1.06528
1.06494
1.06458
1.06421
1.06383
1.06345
1.06314
1.07765
1.07747
1.07728
1.07709
1.0769
1.07671
1.07651
1.07631
1.07611
1.07591
1.0757
1.07549
1.07528
1.07507
1.07485
1.07463
1.0744
1.07416
1.07392
1.07367
1.07341
1.07314
1.07286
1.07256
1.07225
1.07194
1.07161
1.07131
1.07106
1.08338
1.08323
1.08307
1.08291
1.08275
1.08258
1.08242
1.08225
1.08208
1.0819
1.08173
1.08155
1.08137
1.08119
1.08101
1.08082
1.08062
1.08042
1.08022
1.08001
1.07979
1.07956
1.07932
1.07908
1.07882
1.07856
1.07831
1.07807
1.07789
1.0881
1.08798
1.08785
1.08772
1.08758
1.08745
1.08731
1.08717
1.08703
1.08689
1.08675
1.0866
1.08646
1.08631
1.08616
1.086
1.08585
1.08569
1.08552
1.08535
1.08517
1.08498
1.08479
1.0846
1.0844
1.08419
1.084
1.08383
1.08371
1.09196
1.09186
1.09176
1.09165
1.09155
1.09144
1.09133
1.09122
1.09111
1.091
1.09089
1.09077
1.09066
1.09054
1.09043
1.09031
1.09018
1.09006
1.08993
1.08979
1.08965
1.08951
1.08936
1.08921
1.08906
1.08891
1.08878
1.08867
1.08861
1.09506
1.09499
1.09491
1.09483
1.09475
1.09467
1.09459
1.0945
1.09442
1.09434
1.09425
1.09417
1.09408
1.094
1.09391
1.09382
1.09373
1.09363
1.09354
1.09344
1.09333
1.09323
1.09312
1.09301
1.09291
1.09281
1.09273
1.09267
1.09266
1.09752
1.09747
1.09741
1.09735
1.0973
1.09724
1.09718
1.09712
1.09706
1.097
1.09694
1.09688
1.09682
1.09676
1.09669
1.09663
1.09657
1.0965
1.09643
1.09636
1.09629
1.09622
1.09615
1.09608
1.09601
1.09595
1.09591
1.0959
1.09594
1.0994
1.09937
1.09933
1.09929
1.09925
1.09921
1.09917
1.09913
1.09909
1.09905
1.09901
1.09897
1.09893
1.09889
1.09885
1.09881
1.09877
1.09873
1.09868
1.09864
1.09859
1.09855
1.0985
1.09846
1.09843
1.09841
1.09841
1.09843
1.09851
1.10077
1.10075
1.10073
1.1007
1.10068
1.10065
1.10062
1.1006
1.10057
1.10055
1.10053
1.1005
1.10048
1.10046
1.10043
1.10041
1.10039
1.10036
1.10034
1.10031
1.10029
1.10026
1.10024
1.10023
1.10022
1.10022
1.10025
1.10031
1.10041
1.10167
1.10166
1.10165
1.10163
1.10162
1.1016
1.10159
1.10157
1.10156
1.10155
1.10153
1.10152
1.10151
1.1015
1.10149
1.10148
1.10147
1.10145
1.10144
1.10143
1.10142
1.10141
1.10141
1.10141
1.10141
1.10144
1.10149
1.10157
1.10169
1.10214
1.10214
1.10213
1.10212
1.10211
1.1021
1.10209
1.10208
1.10208
1.10207
1.10206
1.10206
1.10205
1.10205
1.10204
1.10204
1.10204
1.10203
1.10203
1.10202
1.10202
1.10202
1.10202
1.10203
1.10205
1.10209
1.10214
1.10224
1.10237
1.10222
1.10221
1.10221
1.1022
1.10219
1.10218
1.10217
1.10216
1.10216
1.10215
1.10215
1.10214
1.10214
1.10213
1.10213
1.10213
1.10212
1.10212
1.10211
1.10211
1.10211
1.10211
1.10211
1.10213
1.10215
1.10218
1.10224
1.10234
1.10248
1.10175
1.10174
1.10173
1.10172
1.1017
1.10168
1.10167
1.10165
1.10164
1.10163
1.10161
1.1016
1.10159
1.10157
1.10156
1.10155
1.10153
1.10152
1.10151
1.1015
1.10148
1.10147
1.10147
1.10147
1.10148
1.1015
1.10155
1.10163
1.10176
1.10073
1.10071
1.10068
1.10065
1.10062
1.10059
1.10056
1.10053
1.1005
1.10047
1.10044
1.1004
1.10037
1.10034
1.10031
1.10028
1.10025
1.10021
1.10018
1.10015
1.10011
1.10008
1.10005
1.10003
1.10001
1.10001
1.10003
1.10009
1.1002
1.09912
1.09908
1.09903
1.09897
1.09892
1.09886
1.09881
1.09875
1.0987
1.09864
1.09858
1.09852
1.09847
1.09841
1.09835
1.09828
1.09822
1.09816
1.09809
1.09803
1.09796
1.09789
1.09783
1.09777
1.09771
1.09767
1.09765
1.09767
1.09773
1.09688
1.0968
1.09672
1.09664
1.09655
1.09646
1.09637
1.09628
1.09619
1.09609
1.096
1.09591
1.09581
1.09571
1.09561
1.09551
1.0954
1.0953
1.09519
1.09508
1.09497
1.09485
1.09474
1.09462
1.09452
1.09442
1.09434
1.09429
1.09431
1.09395
1.09383
1.0937
1.09358
1.09345
1.09331
1.09318
1.09304
1.09291
1.09277
1.09262
1.09248
1.09233
1.09218
1.09203
1.09188
1.09172
1.09156
1.09139
1.09122
1.09105
1.09088
1.0907
1.09052
1.09034
1.09017
1.09001
1.08989
1.08983
1.09024
1.09007
1.0899
1.08972
1.08953
1.08935
1.08916
1.08896
1.08877
1.08857
1.08837
1.08816
1.08795
1.08774
1.08752
1.0873
1.08708
1.08685
1.08661
1.08637
1.08612
1.08587
1.08561
1.08534
1.08508
1.08482
1.08456
1.08434
1.0842
1.08568
1.08545
1.08521
1.08497
1.08472
1.08446
1.08421
1.08394
1.08368
1.08341
1.08313
1.08285
1.08257
1.08228
1.08198
1.08168
1.08137
1.08106
1.08073
1.0804
1.08006
1.07972
1.07936
1.07899
1.07862
1.07825
1.07788
1.07754
1.07729
1.08017
1.07986
1.07954
1.07922
1.07889
1.07856
1.07822
1.07788
1.07753
1.07717
1.07681
1.07644
1.07606
1.07568
1.07529
1.07489
1.07448
1.07407
1.07364
1.07321
1.07276
1.0723
1.07182
1.07134
1.07084
1.07033
1.06983
1.06935
1.06897
1.07358
1.07318
1.07277
1.07236
1.07194
1.07152
1.07108
1.07064
1.07019
1.06973
1.06927
1.06879
1.06831
1.06782
1.06732
1.06681
1.06629
1.06575
1.06521
1.06465
1.06407
1.06348
1.06287
1.06224
1.0616
1.06094
1.06028
1.05964
1.05911
1.06578
1.06528
1.06478
1.06426
1.06373
1.0632
1.06265
1.0621
1.06154
1.06096
1.06038
1.05979
1.05918
1.05857
1.05794
1.0573
1.05665
1.05598
1.05529
1.05459
1.05387
1.05313
1.05237
1.05159
1.05078
1.04995
1.04911
1.04829
1.0476
1.05677
1.05616
1.05553
1.05489
1.05424
1.05358
1.05291
1.05223
1.05153
1.05083
1.05011
1.04938
1.04863
1.04787
1.0471
1.04631
1.0455
1.04468
1.04384
1.04298
1.04209
1.04118
1.04025
1.03928
1.03829
1.03727
1.03623
1.03522
1.03435
1.04639
1.04564
1.04488
1.04411
1.04332
1.04252
1.04171
1.04088
1.04004
1.03918
1.03831
1.03743
1.03652
1.0356
1.03467
1.03371
1.03274
1.03175
1.03073
1.02969
1.02863
1.02753
1.02641
1.02525
1.02405
1.02283
1.02159
1.02037
1.01931
1.03417
1.03328
1.03238
1.03147
1.03054
1.0296
1.02864
1.02766
1.02667
1.02566
1.02464
1.0236
1.02254
1.02146
1.02036
1.01924
1.0181
1.01694
1.01575
1.01454
1.0133
1.01202
1.01071
1.00937
1.00798
1.00656
1.00513
1.00373
1.00252
1.01978
1.01877
1.01774
1.01669
1.01563
1.01455
1.01345
1.01234
1.01121
1.01006
1.00889
1.00771
1.0065
1.00528
1.00403
1.00277
1.00148
1.00016
0.998826
0.997459
0.996062
0.994632
0.993167
0.991663
0.990123
0.988552
0.986978
0.985449
0.984156
1.00342
1.0023
1.00117
1.00002
0.998858
0.997677
0.996479
0.995264
0.994032
0.992783
0.991516
0.990231
0.988928
0.987605
0.986263
0.984901
0.983517
0.98211
0.980678
0.97922
0.977732
0.976214
0.974661
0.973073
0.971453
0.969811
0.968187
0.966642
0.965408
0.985539
0.984389
0.983224
0.982044
0.980849
0.97964
0.978416
0.977177
0.975924
0.974655
0.973372
0.972074
0.97076
0.96943
0.968084
0.96672
0.965339
0.963939
0.962517
0.961074
0.959605
0.95811
0.956587
0.955035
0.95346
0.951878
0.950346
0.948945
0.947977
0.966183
0.965094
0.963994
0.962882
0.96176
0.960627
0.959484
0.95833
0.957166
0.955992
0.954808
0.953614
0.952409
0.951194
0.949968
0.948731
0.947482
0.94622
0.944944
0.943652
0.942342
0.941013
0.939664
0.938295
0.936916
0.935548
0.934274
0.933206
0.932752
0.945583
0.944687
0.943785
0.942877
0.941963
0.941045
0.940121
0.939194
0.938262
0.937326
0.936386
0.935443
0.934496
0.933545
0.932591
0.931632
0.930668
0.929699
0.928723
0.927738
0.926744
0.925738
0.92472
0.923692
0.922666
0.921672
0.920821
0.920271
0.920602
0.927315
0.926685
0.926054
0.925422
0.924789
0.924157
0.923524
0.922893
0.922262
0.921633
0.921006
0.92038
0.919755
0.919133
0.918512
0.917893
0.917274
0.916655
0.916035
0.915412
0.914784
0.91415
0.91351
0.912864
0.912231
0.911646
0.911253
0.911283
0.912574
0.914499
0.914133
0.91377
0.91341
0.913054
0.912703
0.912356
0.912015
0.91168
0.911351
0.911028
0.910711
0.910402
0.910099
0.909803
0.909513
0.909228
0.908949
0.908673
0.9084
0.908126
0.90785
0.907571
0.907292
0.907031
0.90683
0.906872
0.907482
0.909887
0.90793
0.907855
0.907788
0.907729
0.907678
0.907637
0.907606
0.907584
0.907573
0.907573
0.907584
0.907606
0.907639
0.907684
0.907739
0.907805
0.907879
0.907962
0.908049
0.90814
0.908232
0.908322
0.908412
0.908522
0.908699
0.909162
0.91036
0.914083
0.910293
0.910526
0.91077
0.911026
0.911295
0.911578
0.911874
0.912184
0.912509
0.912849
0.913205
0.913576
0.913962
0.914364
0.91478
0.915211
0.915654
0.916108
0.91657
0.917037
0.917505
0.917971
0.918433
0.91891
0.919451
0.920307
0.922079
0.927359
0.924486
0.92505
0.925629
0.926224
0.926836
0.927465
0.928112
0.928778
0.929462
0.930166
0.93089
0.931633
0.932396
0.933178
0.933979
0.934797
0.935631
0.936478
0.937334
0.938195
0.939055
0.939908
0.940748
0.94159
0.942476
0.943688
0.94599
0.953117
0.955909
0.95684
0.957791
0.958763
0.959756
0.96077
0.961808
0.962868
0.963952
0.96506
0.966193
0.967349
0.968529
0.969732
0.970958
0.972204
0.973468
0.974747
0.976034
0.977324
0.978607
0.979872
0.981107
0.982318
0.983531
0.985048
0.98779
0.997132
1.01468
1.01605
1.01744
1.01886
1.02031
1.02178
1.02328
1.02481
1.02637
1.02796
1.02958
1.03122
1.0329
1.0346
1.03633
1.03808
1.03986
1.04164
1.04343
1.04522
1.04699
1.04873
1.0504
1.052
1.05352
1.05527
1.05828
1.07031
1.12292
1.12487
1.12685
1.12886
1.13091
1.13299
1.13511
1.13726
1.13945
1.14168
1.14394
1.14625
1.14858
1.15095
1.15335
1.15577
1.15822
1.16068
1.16313
1.16557
1.16797
1.17029
1.1725
1.17455
1.17635
1.17822
1.18115
1.19644
1.34112
1.344
1.34692
1.34989
1.3529
1.35596
1.35907
1.36223
1.36544
1.3687
1.372
1.37535
1.37875
1.38219
1.38566
1.38917
1.39269
1.39621
1.39972
1.40318
1.40655
1.40977
1.41274
1.41538
1.41743
1.41914
1.42108
1.43978
1.91359
1.91858
1.92363
1.92877
1.93397
1.93926
1.94462
1.95007
1.95559
1.96118
1.96686
1.9726
1.97841
1.98427
1.99019
1.99613
2.00208
2.008
2.01384
2.01955
2.02502
2.03011
2.03459
2.03819
2.04021
2.04032
2.03762
2.05187
4.93572
4.95059
4.96566
4.98095
4.99645
5.01217
5.0281
5.04424
5.06059
5.07713
5.09386
5.11074
5.12776
5.14488
5.16203
5.17913
5.19609
5.21272
5.22883
5.24407
5.25801
5.26978
5.27859
5.28135
5.27713
5.24952
5.19044
4.97518
2.38726
2.45618
2.52483
2.58508
2.63211
2.67272
2.71222
2.75172
2.79131
2.83134
2.87282
2.91687
2.96411
3.01547
3.07191
3.13415
3.20317
3.27908
3.36423
3.45583
3.5657
3.67105
3.83387
3.93193
4.31284
1.16578
1.17109
1.18129
1.19509
1.20976
1.22388
1.23742
1.25062
1.26359
1.27643
1.28953
1.30323
1.3176
1.33293
1.3495
1.36764
1.38756
1.40962
1.43383
1.46112
1.49131
1.52594
1.56542
1.61364
1.67959
0.969757
0.972094
0.976422
0.982908
0.990654
0.998692
1.00661
1.01433
1.02183
1.02912
1.03635
1.04374
1.05137
1.05942
1.06807
1.07751
1.08789
1.0994
1.11206
1.12636
1.14212
1.16045
1.18058
1.20684
1.23548
0.91699
0.919056
0.921838
0.925789
0.930663
0.935929
0.941246
0.946464
0.951509
0.956353
0.961056
0.965742
0.970507
0.975476
0.980793
0.986601
0.993015
1.00017
1.0081
1.01709
1.02708
1.03877
1.05156
1.06862
1.0857
0.905938
0.908034
0.910243
0.91301
0.916351
0.920004
0.923741
0.927425
0.93097
0.93433
0.937524
0.940626
0.943717
0.946898
0.950285
0.953997
0.958132
0.962792
0.968027
0.974025
0.980759
0.988743
0.997523
1.0095
1.02107
0.911373
0.91348
0.915423
0.917557
0.919989
0.922611
0.925289
0.927921
0.930428
0.932764
0.934926
0.936957
0.938922
0.940905
0.943003
0.945317
0.947933
0.950937
0.954378
0.958396
0.962982
0.968542
0.974703
0.983415
0.991685
0.924117
0.926169
0.927947
0.929705
0.931565
0.933501
0.935442
0.937322
0.939078
0.940668
0.942081
0.943341
0.9445
0.945626
0.946803
0.948117
0.949644
0.951462
0.953613
0.956214
0.959258
0.963092
0.967377
0.973793
0.979798
0.940056
0.941995
0.943638
0.945148
0.946633
0.948101
0.949523
0.950859
0.952065
0.953104
0.953963
0.954656
0.955223
0.955721
0.95622
0.956796
0.957517
0.958452
0.95964
0.961184
0.963069
0.965616
0.968486
0.973199
0.977509
0.957105
0.958895
0.960405
0.961734
0.962961
0.964106
0.965163
0.966108
0.966912
0.967546
0.967998
0.968276
0.968408
0.968444
0.968443
0.968472
0.968589
0.968859
0.969315
0.970054
0.97105
0.972612
0.974382
0.97779
0.980763
0.974128
0.975749
0.977125
0.978308
0.97935
0.980271
0.981071
0.98174
0.982257
0.982602
0.982761
0.98274
0.982561
0.982264
0.981899
0.981524
0.981192
0.980962
0.980862
0.980985
0.981294
0.982094
0.982997
0.985383
0.987267
0.990487
0.991932
0.993174
0.994232
0.995136
0.995899
0.996523
0.997002
0.997322
0.997466
0.997425
0.997199
0.996806
0.996278
0.995657
0.994994
0.994335
0.993734
0.993216
0.992871
0.99265
0.99286
0.993076
0.994652
0.995633
1.00582
1.0071
1.00821
1.00916
1.00995
1.0106
1.01111
1.01146
1.01166
1.01167
1.0115
1.01115
1.01062
1.00994
1.00915
1.00829
1.0074
1.00654
1.00571
1.00502
1.00439
1.00415
1.00382
1.00475
1.00498
1.01995
1.02106
1.02205
1.0229
1.02361
1.02418
1.02461
1.02489
1.025
1.02495
1.02471
1.02429
1.02369
1.02293
1.02204
1.02106
1.02002
1.01897
1.01793
1.01698
1.01606
1.01547
1.01472
1.01514
1.01472
1.03279
1.03375
1.03462
1.03538
1.03602
1.03654
1.03692
1.03716
1.03724
1.03716
1.03689
1.03645
1.03583
1.03504
1.03411
1.03307
1.03195
1.03079
1.0296
1.02848
1.02734
1.02649
1.02541
1.02542
1.02448
1.04431
1.04514
1.04591
1.04659
1.04718
1.04766
1.04801
1.04824
1.04832
1.04823
1.04798
1.04755
1.04695
1.04617
1.04525
1.0442
1.04304
1.04182
1.04055
1.03932
1.03803
1.037
1.03567
1.03537
1.03397
1.05455
1.05527
1.05594
1.05656
1.0571
1.05755
1.0579
1.05813
1.05822
1.05817
1.05796
1.05757
1.05701
1.05628
1.0554
1.05437
1.05322
1.05199
1.05069
1.04939
1.04801
1.04686
1.04534
1.04479
1.04302
1.06357
1.06418
1.06478
1.06534
1.06584
1.06628
1.06663
1.06688
1.067
1.06699
1.06684
1.06652
1.06602
1.06536
1.06454
1.06356
1.06246
1.06125
1.05994
1.05863
1.05719
1.05597
1.05432
1.05359
1.05151
1.07143
1.07196
1.07248
1.07299
1.07347
1.0739
1.07426
1.07453
1.0747
1.07475
1.07466
1.07441
1.074
1.07343
1.07268
1.07178
1.07073
1.06958
1.0683
1.06699
1.06554
1.06427
1.06254
1.06167
1.05934
1.07821
1.07867
1.07914
1.07961
1.08006
1.08049
1.08086
1.08117
1.08138
1.08149
1.08147
1.08131
1.08099
1.08051
1.07986
1.07904
1.07807
1.07697
1.07574
1.07447
1.07303
1.07175
1.06996
1.06899
1.06646
1.08399
1.0844
1.08482
1.08526
1.0857
1.08612
1.08651
1.08685
1.08711
1.08729
1.08734
1.08727
1.08704
1.08666
1.0861
1.08537
1.08449
1.08346
1.08229
1.08107
1.07965
1.07838
1.07656
1.07553
1.07282
1.08886
1.08922
1.08961
1.09002
1.09045
1.09087
1.09128
1.09165
1.09197
1.0922
1.09233
1.09234
1.0922
1.09191
1.09145
1.09082
1.09001
1.08907
1.08796
1.08679
1.08541
1.08417
1.08234
1.08126
1.07842
1.0929
1.09322
1.09357
1.09397
1.09439
1.09482
1.09524
1.09565
1.096
1.09629
1.09649
1.09658
1.09653
1.09632
1.09595
1.09541
1.09469
1.09381
1.09278
1.09166
1.09033
1.08911
1.08729
1.08617
1.08324
1.09616
1.09645
1.09679
1.09717
1.09758
1.09802
1.09846
1.09889
1.09929
1.09963
1.09989
1.10004
1.10007
1.09994
1.09965
1.09918
1.09854
1.09773
1.09676
1.0957
1.09441
1.09322
1.09141
1.09028
1.08727
1.09872
1.09899
1.0993
1.09967
1.10008
1.10052
1.10098
1.10144
1.10187
1.10225
1.10256
1.10277
1.10286
1.1028
1.10258
1.10218
1.10159
1.10085
1.09993
1.09892
1.09767
1.09652
1.09471
1.09357
1.09051
1.10061
1.10087
1.10117
1.10154
1.10194
1.10239
1.10286
1.10334
1.1038
1.10421
1.10456
1.10482
1.10495
1.10494
1.10477
1.10442
1.10389
1.1032
1.10232
1.10135
1.10013
1.099
1.09721
1.09605
1.09297
1.10189
1.10213
1.10243
1.10279
1.1032
1.10365
1.10413
1.10462
1.1051
1.10554
1.10592
1.1062
1.10637
1.1064
1.10626
1.10594
1.10545
1.10478
1.10393
1.10299
1.10179
1.10068
1.09891
1.09773
1.09465
1.10257
1.10281
1.10311
1.10347
1.10388
1.10434
1.10482
1.10532
1.10581
1.10626
1.10665
1.10695
1.10714
1.10718
1.10706
1.10676
1.10627
1.10563
1.10479
1.10386
1.10268
1.10157
1.09981
1.09861
1.09554
1.10268
1.10293
1.10323
1.10359
1.10401
1.10447
1.10496
1.10546
1.10595
1.1064
1.10679
1.10709
1.10727
1.10731
1.10719
1.10689
1.1064
1.10575
1.10491
1.10398
1.1028
1.10168
1.09994
1.0987
1.09568
1.10197
1.10223
1.10255
1.10292
1.10334
1.10381
1.1043
1.10479
1.10527
1.10571
1.10608
1.10635
1.10651
1.10651
1.10636
1.10602
1.10551
1.10483
1.10397
1.10301
1.10182
1.10067
1.09894
1.09766
1.0947
1.10042
1.1007
1.10104
1.10142
1.10186
1.10232
1.1028
1.10329
1.10374
1.10415
1.10448
1.10471
1.10481
1.10476
1.10454
1.10415
1.10358
1.10284
1.10194
1.10094
1.09972
1.09854
1.09679
1.0955
1.09259
1.09798
1.09829
1.09865
1.09906
1.09951
1.09997
1.10045
1.10091
1.10133
1.10168
1.10196
1.10212
1.10214
1.10201
1.10171
1.10123
1.10058
1.09978
1.09881
1.09775
1.09648
1.09526
1.0935
1.09219
1.08935
1.09458
1.09494
1.09534
1.09577
1.09623
1.0967
1.09716
1.09759
1.09796
1.09826
1.09846
1.09853
1.09845
1.09822
1.09781
1.09723
1.09648
1.09559
1.09454
1.09341
1.09209
1.09083
1.08905
1.08775
1.08499
1.09014
1.09056
1.091
1.09147
1.09195
1.09242
1.09287
1.09326
1.09358
1.0938
1.0939
1.09387
1.09368
1.09332
1.09279
1.09209
1.09123
1.09024
1.0891
1.0879
1.08652
1.08523
1.08344
1.08215
1.07951
1.08455
1.08504
1.08555
1.08606
1.08657
1.08704
1.08746
1.08782
1.08807
1.08821
1.08821
1.08806
1.08774
1.08725
1.08658
1.08576
1.08478
1.08368
1.08246
1.08119
1.07976
1.07844
1.07665
1.07541
1.07291
1.0777
1.07828
1.07886
1.07943
1.07996
1.08044
1.08085
1.08115
1.08134
1.08138
1.08127
1.081
1.08054
1.07991
1.07911
1.07815
1.07706
1.07587
1.07457
1.07324
1.07178
1.07045
1.06869
1.06752
1.06523
1.06945
1.07014
1.07081
1.07144
1.07202
1.0725
1.07289
1.07315
1.07326
1.07322
1.073
1.07259
1.072
1.07124
1.0703
1.06923
1.06804
1.06676
1.0654
1.06404
1.06257
1.06127
1.05957
1.05853
1.0565
1.05969
1.06051
1.06128
1.06199
1.0626
1.06311
1.06348
1.06369
1.06374
1.06361
1.06328
1.06276
1.06205
1.06115
1.06011
1.05893
1.05766
1.05633
1.05495
1.0536
1.05216
1.05093
1.04935
1.04849
1.04678
1.04829
1.04926
1.05015
1.05094
1.05161
1.05213
1.05249
1.05268
1.05267
1.05246
1.05205
1.05142
1.05061
1.04962
1.04848
1.04725
1.04594
1.0446
1.04324
1.04194
1.04059
1.03949
1.03809
1.0375
1.0362
1.03517
1.03631
1.03733
1.03822
1.03894
1.03949
1.03986
1.04002
1.03998
1.03972
1.03925
1.03856
1.03767
1.03662
1.03545
1.03419
1.0329
1.03161
1.03034
1.02916
1.02798
1.02709
1.02596
1.02573
1.02494
1.02028
1.02161
1.02277
1.02375
1.02455
1.02514
1.02553
1.02571
1.02566
1.02539
1.0249
1.02419
1.02329
1.02223
1.02108
1.01988
1.01867
1.01752
1.01641
1.01545
1.01452
1.01394
1.01319
1.01345
1.01329
1.00366
1.00519
1.00649
1.00758
1.00846
1.00911
1.00956
1.00979
1.0098
1.00958
1.00913
1.00846
1.00761
1.00664
1.00559
1.00452
1.0035
1.00257
1.00174
1.00111
1.00055
1.00042
1.00018
1.00109
1.00169
0.985498
0.987212
0.988657
0.989862
0.990839
0.991602
0.992162
0.992513
0.992646
0.99255
0.992226
0.991695
0.990998
0.990196
0.989355
0.988547
0.987827
0.987256
0.986835
0.986673
0.98664
0.987128
0.987549
0.989322
0.990838
0.967007
0.968905
0.970479
0.971806
0.972919
0.973845
0.974594
0.975155
0.975509
0.975641
0.975549
0.97526
0.974825
0.974313
0.973803
0.973377
0.973094
0.973022
0.973159
0.973625
0.974278
0.975561
0.976822
0.979681
0.982272
0.94987
0.951923
0.953612
0.955082
0.956383
0.957545
0.958572
0.95944
0.960114
0.960572
0.960812
0.960866
0.960795
0.96068
0.960611
0.960681
0.960953
0.961503
0.962324
0.963554
0.965031
0.967259
0.96951
0.973635
0.977437
0.934978
0.937151
0.938948
0.940598
0.942159
0.943651
0.945057
0.946332
0.947427
0.948309
0.948977
0.94947
0.949862
0.950246
0.950724
0.9514
0.952342
0.953634
0.955266
0.957393
0.959835
0.963159
0.96656
0.972128
0.977313
0.923199
0.92545
0.927359
0.929253
0.931173
0.933105
0.935002
0.936792
0.938408
0.93981
0.941
0.942028
0.94298
0.943963
0.945095
0.946489
0.948221
0.950381
0.952957
0.956122
0.959682
0.964267
0.969
0.976211
0.983001
0.915517
0.917802
0.919848
0.922081
0.924488
0.92699
0.929501
0.931917
0.934156
0.936176
0.937984
0.939644
0.941256
0.942946
0.944845
0.947078
0.949728
0.952894
0.956563
0.960928
0.965782
0.971819
0.978099
0.987193
0.995885
0.913115
0.915401
0.917647
0.92036
0.923413
0.926637
0.929893
0.933054
0.936026
0.938767
0.941297
0.943695
0.94608
0.948596
0.95139
0.954602
0.95832
0.962656
0.967597
0.973358
0.979718
0.987447
0.995539
1.00682
1.01783
0.917533
0.919826
0.922393
0.925785
0.929685
0.933803
0.937956
0.941996
0.945823
0.949405
0.952777
0.956042
0.959334
0.962821
0.966668
0.971032
0.976009
0.981723
0.988162
0.995573
1.00372
1.01345
1.02371
1.0376
1.05149
0.930972
0.933355
0.936448
0.940793
0.945792
0.951013
0.956241
0.96132
0.966157
0.970732
0.975104
0.9794
0.983776
0.988427
0.993538
0.999285
1.00578
1.01315
1.0214
1.03081
1.04112
1.0533
1.06621
1.08329
1.10092
0.956872
0.959552
0.963504
0.969187
0.975611
0.982198
0.988733
0.995067
1.00112
1.0069
1.0125
1.01806
1.02378
1.02986
1.03654
1.04401
1.05238
1.06183
1.07234
1.08426
1.0973
1.11259
1.12888
1.15002
1.17274
1.00112
1.00452
1.00987
1.01745
1.02575
1.03406
1.04224
1.05015
1.05775
1.06506
1.07223
1.07942
1.08686
1.09482
1.10354
1.11324
1.12408
1.13625
1.14975
1.16499
1.18165
1.20107
1.22192
1.24849
1.27854
1.07496
1.0799
1.08755
1.09788
1.10873
1.11935
1.1297
1.13973
1.14942
1.15883
1.16816
1.17761
1.18746
1.19802
1.20959
1.22244
1.23674
1.25275
1.27047
1.29042
1.31227
1.3376
1.36512
1.39951
1.44095
1.20311
1.21121
1.2229
1.23752
1.2521
1.26607
1.27965
1.29283
1.30567
1.31829
1.33095
1.3439
1.35748
1.37209
1.38809
1.40585
1.42558
1.44763
1.47202
1.49945
1.52961
1.56434
1.60281
1.64952
1.71102
1.45335
1.46844
1.48835
1.51059
1.53147
1.55123
1.57047
1.58931
1.60786
1.62635
1.64515
1.66456
1.68505
1.70717
1.73144
1.75835
1.78826
1.82165
1.85867
1.90025
1.94643
1.99892
2.05921
2.12869
2.23296
2.09806
2.13344
2.1773
2.21778
2.25309
2.28686
2.32014
2.35313
2.38615
2.41967
2.45418
2.49021
2.52854
2.57009
2.61577
2.66646
2.72294
2.78596
2.85638
2.93496
3.0245
3.12287
3.24512
3.36977
3.60419
5.43896
5.61011
5.81021
5.93594
6.03696
6.14069
6.24426
6.34828
6.4544
6.56312
6.67618
6.79538
6.92325
7.06249
7.21666
7.38764
7.58048
7.79271
8.03806
8.29709
8.62225
8.9227
9.40848
9.70656
10.7672
)
;

boundaryField
{
    inlet
    {
        type            fixedValue;
        value           nonuniform 0();
    }
    outlet
    {
        type            zeroGradient;
    }
    upperWall
    {
        Cmu             0.09;
        kappa           0.41;
        E               9.8;
        type            epsilonWallFunction;
        value           nonuniform List<scalar> 
53
(
4.93572
4.95059
4.96566
4.98095
4.99645
5.01217
5.0281
5.04424
5.06059
5.07713
5.09386
5.11074
5.12776
5.14488
5.16203
5.17913
5.19609
5.21272
5.22883
5.24407
5.25801
5.26978
5.27859
5.28135
5.27713
5.24952
5.19044
4.97518
5.43896
5.61011
5.81021
5.93594
6.03696
6.14069
6.24426
6.34828
6.4544
6.56312
6.67618
6.79538
6.92325
7.06249
7.21666
7.38764
7.58048
7.79271
8.03806
8.29709
8.62225
8.9227
9.40848
9.70656
10.7672
)
;
    }
    lowerWall
    {
        Cmu             0.09;
        kappa           0.41;
        E               9.8;
        type            epsilonWallFunction;
        value           nonuniform List<scalar> 
55
(
2.33861
2.34071
2.34283
2.34498
2.34714
2.34933
2.35153
2.35375
2.35597
2.35821
2.36044
2.36268
2.36489
2.36708
2.36923
2.37132
2.37331
2.37517
2.37685
2.37827
2.37933
2.37988
2.37969
2.37841
2.37547
2.36985
2.35966
2.3409
2.30595
2.2397
2.38726
2.45618
2.52483
2.58508
2.63211
2.67272
2.71222
2.75172
2.79131
2.83134
2.87282
2.91687
2.96411
3.01547
3.07191
3.13415
3.20317
3.27908
3.36423
3.45583
3.5657
3.67105
3.83387
3.93193
4.31284
)
;
    }
    frontAndBack
    {
        type            empty;
    }
    procBoundary0to1
    {
        type            processor;
        value           nonuniform List<scalar> 
59
(
2.33654
1.13216
0.953258
0.909566
0.904322
0.913797
0.929413
0.947367
0.965766
0.983613
1.00038
1.01552
1.01552
1.02946
1.04191
1.05291
1.06262
1.07093
1.07783
1.08353
1.08822
1.09205
1.09513
1.09756
1.09942
1.10078
1.10167
1.10214
1.10221
1.10175
1.10075
1.09916
1.09695
1.09406
1.09041
1.08591
1.08047
1.07396
1.06626
1.05737
1.04712
1.03503
1.02078
1.00451
0.986674
0.967261
0.946473
0.927942
0.914865
0.90801
0.90801
0.91007
0.923936
0.954996
1.01334
1.121
1.33829
1.90868
4.92106
)
;
    }
}


// ************************************************************************* //
