/*--------------------------------*- C++ -*----------------------------------*\
  =========                 |
  \\      /  F ield         | OpenFOAM: The Open Source CFD Toolbox
   \\    /   O peration     | Website:  https://openfoam.org
    \\  /    A nd           | Version:  6
     \\/     M anipulation  |
\*---------------------------------------------------------------------------*/
FoamFile
{
    version     2.0;
    format      ascii;
    class       volScalarField;
    location    "0.07";
    object      k;
}
// * * * * * * * * * * * * * * * * * * * * * * * * * * * * * * * * * * * * * //

dimensions      [0 2 -2 0 0 0 0];

internalField   nonuniform List<scalar> 
3080
(
0.0198959
0.0198871
0.0198783
0.0198693
0.0198603
0.0198512
0.0198419
0.0198326
0.019823
0.0198133
0.0198034
0.0197933
0.0197828
0.019772
0.0197607
0.0197488
0.0197362
0.0197226
0.0197078
0.0196913
0.0196725
0.0196507
0.0196246
0.0195923
0.0195506
0.0194939
0.019412
0.0192828
0.0190643
0.0186719
0.0382955
0.0382744
0.0382532
0.0382319
0.0382104
0.0381887
0.0381667
0.0381445
0.038122
0.0380991
0.0380759
0.0380523
0.0380281
0.0380033
0.0379777
0.0379511
0.0379234
0.0378941
0.0378629
0.037829
0.0377915
0.0377493
0.0377002
0.0376414
0.0375678
0.0374708
0.0373332
0.037127
0.0367714
0.0363057
0.0485737
0.048546
0.0485182
0.0484902
0.048462
0.0484335
0.0484048
0.0483757
0.0483462
0.0483164
0.0482861
0.0482553
0.0482239
0.0481918
0.0481588
0.0481247
0.0480892
0.0480521
0.0480128
0.0479706
0.0479246
0.0478735
0.0478152
0.0477467
0.047663
0.0475561
0.0474109
0.0472024
0.0468748
0.0464299
0.0560323
0.0559999
0.0559672
0.0559344
0.0559012
0.0558678
0.0558341
0.0558
0.0557655
0.0557306
0.0556952
0.0556592
0.0556225
0.0555851
0.0555467
0.0555072
0.0554663
0.0554237
0.0553787
0.0553309
0.0552791
0.0552222
0.0551581
0.0550839
0.054995
0.0548841
0.0547385
0.0545381
0.0542469
0.0538682
0.0620714
0.0620353
0.061999
0.0619625
0.0619257
0.0618885
0.061851
0.0618131
0.0617748
0.061736
0.0616967
0.0616568
0.0616161
0.0615747
0.0615323
0.0614887
0.0614437
0.0613969
0.0613477
0.0612956
0.0612397
0.0611785
0.0611102
0.0610321
0.0609399
0.0608271
0.0606828
0.0604912
0.060229
0.0599045
0.0671895
0.0671508
0.0671119
0.0670726
0.0670331
0.0669932
0.0669529
0.0669122
0.0668711
0.0668295
0.0667873
0.0667445
0.066701
0.0666566
0.0666112
0.0665646
0.0665166
0.0664667
0.0664145
0.0663594
0.0663004
0.0662363
0.0661653
0.0660847
0.0659908
0.0658775
0.065736
0.0655536
0.0653153
0.0650331
0.0716237
0.0715832
0.0715424
0.0715013
0.0714599
0.0714182
0.071376
0.0713335
0.0712904
0.0712469
0.0712027
0.071158
0.0711124
0.0710661
0.0710187
0.0709701
0.07092
0.0708681
0.0708139
0.0707568
0.0706959
0.07063
0.0705575
0.0704758
0.0703815
0.0702693
0.0701318
0.0699592
0.0697419
0.0694938
0.0755086
0.0754671
0.0754252
0.0753831
0.0753407
0.0752979
0.0752546
0.075211
0.0751668
0.0751222
0.0750769
0.075031
0.0749843
0.0749368
0.0748882
0.0748385
0.0747873
0.0747343
0.074679
0.0746209
0.0745591
0.0744925
0.0744196
0.074338
0.0742446
0.0741349
0.0740026
0.0738403
0.0736421
0.0734224
0.0789313
0.0788895
0.0788473
0.0788048
0.078762
0.0787189
0.0786753
0.0786312
0.0785867
0.0785416
0.078496
0.0784497
0.0784026
0.0783547
0.0783058
0.0782556
0.0782041
0.0781508
0.0780953
0.0780371
0.0779754
0.077909
0.0778366
0.0777562
0.0776649
0.0775588
0.0774329
0.0772813
0.0771008
0.0769057
0.0819537
0.0819121
0.0818702
0.081828
0.0817855
0.0817425
0.0816992
0.0816554
0.0816112
0.0815663
0.081521
0.0814749
0.0814281
0.0813805
0.0813319
0.0812821
0.0812309
0.0811781
0.0811232
0.0810656
0.0810047
0.0809394
0.0808686
0.0807902
0.080702
0.0806005
0.0804817
0.0803411
0.0801773
0.0800038
0.0846228
0.084582
0.0845409
0.0844995
0.0844578
0.0844157
0.0843731
0.0843302
0.0842867
0.0842427
0.0841982
0.084153
0.0841071
0.0840603
0.0840126
0.0839638
0.0839136
0.0838619
0.0838081
0.0837519
0.0836925
0.0836291
0.0835605
0.0834851
0.0834008
0.0833047
0.0831935
0.0830641
0.0829161
0.082762
0.0869371
0.0868973
0.0868572
0.0868167
0.0867759
0.0867347
0.086693
0.0866508
0.0866082
0.0865649
0.0865211
0.0864765
0.0864312
0.0863849
0.0863376
0.086289
0.0862389
0.0861869
0.0861326
0.0860754
0.0860145
0.0859488
0.0858769
0.0857971
0.085707
0.0856039
0.0854856
0.0853525
0.0852159
0.0890094
0.0889713
0.0889328
0.088894
0.0888549
0.0888153
0.0887753
0.0887349
0.088694
0.0886525
0.0886104
0.0885677
0.0885242
0.0884798
0.0884344
0.0883878
0.0883398
0.08829
0.0882382
0.0881836
0.0881256
0.0880634
0.0879957
0.0879209
0.0878372
0.0877424
0.087635
0.0875159
0.0873952
0.0908265
0.0907903
0.0907539
0.0907171
0.0906799
0.0906424
0.0906045
0.0905661
0.0905272
0.0904879
0.0904479
0.0904073
0.090366
0.0903239
0.0902808
0.0902366
0.0901911
0.090144
0.0900949
0.0900434
0.0899888
0.0899304
0.0898672
0.0897978
0.0897207
0.0896343
0.0895375
0.0894316
0.0893255
0.0924128
0.0923789
0.0923447
0.0923102
0.0922753
0.0922401
0.0922045
0.0921684
0.0921319
0.0920949
0.0920574
0.0920192
0.0919804
0.0919408
0.0919003
0.0918588
0.0918161
0.091772
0.091726
0.0916779
0.091627
0.0915728
0.0915143
0.0914504
0.0913801
0.091302
0.0912155
0.0911219
0.091029
0.0938033
0.0937715
0.0937394
0.093707
0.0936742
0.0936411
0.0936076
0.0935737
0.0935394
0.0935046
0.0934692
0.0934333
0.0933968
0.0933595
0.0933215
0.0932824
0.0932423
0.0932008
0.0931578
0.0931127
0.0930653
0.0930149
0.0929608
0.0929022
0.0928381
0.0927675
0.0926902
0.0926075
0.0925263
0.0949908
0.0949616
0.0949321
0.0949024
0.0948723
0.0948419
0.0948111
0.09478
0.0947484
0.0947164
0.0946839
0.0946509
0.0946172
0.0945829
0.0945479
0.094512
0.0944751
0.094437
0.0943975
0.0943562
0.0943129
0.0942669
0.0942179
0.0941649
0.0941075
0.0940448
0.0939767
0.0939047
0.0938347
0.0959774
0.0959518
0.0959259
0.0958997
0.0958733
0.0958466
0.0958195
0.0957921
0.0957644
0.0957362
0.0957076
0.0956785
0.0956489
0.0956187
0.0955878
0.0955562
0.0955237
0.0954902
0.0954554
0.0954191
0.095381
0.0953407
0.0952978
0.0952518
0.095202
0.095148
0.09509
0.0950291
0.0949705
0.0967953
0.0967737
0.0967518
0.0967297
0.0967074
0.0966848
0.0966619
0.0966388
0.0966153
0.0965915
0.0965673
0.0965426
0.0965176
0.096492
0.0964658
0.096439
0.0964115
0.096383
0.0963535
0.0963228
0.0962905
0.0962564
0.0962202
0.0961814
0.0961397
0.0960947
0.0960466
0.0959968
0.0959494
0.0974703
0.0974527
0.097435
0.097417
0.0973988
0.0973805
0.0973619
0.0973431
0.097324
0.0973046
0.0972849
0.0972649
0.0972445
0.0972236
0.0972023
0.0971805
0.097158
0.0971348
0.0971107
0.0970855
0.0970592
0.0970313
0.0970018
0.0969702
0.0969363
0.0969001
0.0968616
0.0968222
0.0967853
0.0980231
0.0980094
0.0979955
0.0979815
0.0979674
0.0979531
0.0979387
0.097924
0.0979091
0.097894
0.0978787
0.0978631
0.0978471
0.0978309
0.0978142
0.0977971
0.0977795
0.0977613
0.0977424
0.0977227
0.097702
0.0976801
0.0976569
0.0976321
0.0976057
0.0975775
0.0975479
0.097518
0.0974907
0.0984702
0.09846
0.0984498
0.0984395
0.098429
0.0984184
0.0984078
0.0983969
0.0983859
0.0983748
0.0983634
0.0983519
0.0983401
0.098328
0.0983156
0.0983029
0.0982898
0.0982762
0.0982621
0.0982473
0.0982317
0.0982153
0.0981978
0.0981792
0.0981594
0.0981385
0.0981169
0.0980954
0.0980764
0.0988249
0.0988179
0.0988108
0.0988037
0.0987964
0.0987892
0.0987818
0.0987743
0.0987667
0.098759
0.0987512
0.0987432
0.098735
0.0987267
0.0987181
0.0987092
0.0987
0.0986905
0.0986805
0.0986701
0.098659
0.0986473
0.0986349
0.0986217
0.0986077
0.0985931
0.0985782
0.0985639
0.0985521
0.0990978
0.0990934
0.099089
0.0990845
0.09908
0.0990754
0.0990709
0.0990662
0.0990615
0.0990567
0.0990518
0.0990468
0.0990416
0.0990363
0.0990309
0.0990252
0.0990194
0.0990132
0.0990067
0.0989999
0.0989926
0.0989849
0.0989766
0.0989679
0.0989587
0.0989493
0.09894
0.0989316
0.0989256
0.0992972
0.0992948
0.0992925
0.0992901
0.0992877
0.0992853
0.0992829
0.0992805
0.099278
0.0992754
0.0992728
0.0992701
0.0992674
0.0992645
0.0992615
0.0992584
0.0992551
0.0992516
0.0992479
0.0992438
0.0992395
0.0992349
0.0992299
0.0992246
0.0992192
0.0992138
0.0992088
0.099205
0.0992036
0.0994294
0.0994285
0.0994276
0.0994267
0.0994259
0.099425
0.0994241
0.0994232
0.0994223
0.0994213
0.0994203
0.0994193
0.0994181
0.099417
0.0994157
0.0994143
0.0994128
0.0994112
0.0994094
0.0994073
0.0994051
0.0994026
0.0993999
0.0993971
0.0993942
0.0993916
0.0993897
0.0993891
0.0993909
0.0994994
0.0994993
0.0994992
0.0994991
0.0994991
0.099499
0.0994989
0.0994989
0.0994988
0.0994987
0.0994986
0.0994984
0.0994982
0.0994979
0.0994976
0.0994971
0.0994966
0.099496
0.0994952
0.0994942
0.0994931
0.0994918
0.0994903
0.0994888
0.0994874
0.0994863
0.0994861
0.0994873
0.0994909
0.0995116
0.0995116
0.0995116
0.0995116
0.0995117
0.0995117
0.0995117
0.0995117
0.0995117
0.0995117
0.0995116
0.0995116
0.0995114
0.0995112
0.099511
0.0995106
0.0995102
0.0995096
0.0995089
0.0995081
0.0995071
0.0995059
0.0995046
0.0995032
0.099502
0.0995012
0.0995013
0.0995028
0.0995069
0.0994461
0.0994451
0.099444
0.099443
0.0994419
0.0994408
0.0994397
0.0994386
0.0994374
0.0994362
0.0994349
0.0994336
0.0994321
0.0994307
0.0994291
0.0994274
0.0994256
0.0994236
0.0994214
0.0994191
0.0994165
0.0994138
0.0994108
0.0994077
0.0994047
0.099402
0.0994001
0.0993997
0.099402
0.0992994
0.0992963
0.0992931
0.0992898
0.0992864
0.099283
0.0992795
0.099276
0.0992723
0.0992686
0.0992648
0.0992608
0.0992568
0.0992526
0.0992483
0.0992438
0.0992391
0.0992342
0.0992291
0.0992236
0.0992179
0.0992118
0.0992053
0.0991986
0.0991918
0.099185
0.0991789
0.0991742
0.0991726
0.0990675
0.099061
0.0990544
0.0990477
0.0990408
0.0990338
0.0990267
0.0990195
0.0990121
0.0990045
0.0989968
0.0989889
0.0989808
0.0989725
0.098964
0.0989552
0.0989461
0.0989367
0.0989269
0.0989167
0.098906
0.0988948
0.0988831
0.0988708
0.098858
0.098845
0.0988323
0.0988209
0.0988129
0.0987443
0.0987333
0.098722
0.0987106
0.0986989
0.098687
0.0986749
0.0986626
0.09865
0.0986372
0.0986242
0.0986109
0.0985972
0.0985833
0.098569
0.0985544
0.0985393
0.0985237
0.0985076
0.0984909
0.0984735
0.0984553
0.0984362
0.0984163
0.0983954
0.0983738
0.098352
0.0983312
0.0983145
0.098322
0.098305
0.0982878
0.0982703
0.0982524
0.0982342
0.0982157
0.0981969
0.0981777
0.0981581
0.0981382
0.0981179
0.0980971
0.0980759
0.0980542
0.0980319
0.0980091
0.0979856
0.0979613
0.0979362
0.0979101
0.0978828
0.0978543
0.0978244
0.097793
0.0977603
0.0977267
0.0976939
0.0976656
0.0977907
0.0977664
0.0977418
0.0977166
0.0976911
0.0976651
0.0976386
0.0976116
0.0975841
0.0975562
0.0975277
0.0974986
0.0974689
0.0974387
0.0974077
0.097376
0.0973435
0.0973101
0.0972756
0.09724
0.097203
0.0971645
0.0971242
0.0970819
0.0970374
0.0969908
0.0969425
0.0968945
0.0968516
0.0971384
0.0971053
0.0970715
0.0970372
0.0970023
0.0969668
0.0969306
0.0968937
0.0968562
0.096818
0.0967791
0.0967394
0.0966989
0.0966576
0.0966154
0.0965721
0.0965278
0.0964823
0.0964355
0.0963871
0.0963369
0.0962847
0.0962301
0.0961727
0.0961124
0.0960489
0.0959827
0.095916
0.0958552
0.0963507
0.096307
0.0962625
0.0962172
0.0961711
0.0961242
0.0960764
0.0960278
0.0959783
0.0959278
0.0958764
0.0958241
0.0957706
0.0957161
0.0956604
0.0956034
0.095545
0.0954851
0.0954234
0.0953598
0.0952938
0.0952252
0.0951536
0.0950783
0.094999
0.0949154
0.0948278
0.0947388
0.0946563
0.0954107
0.0953545
0.0952974
0.0952391
0.0951799
0.0951195
0.0950581
0.0949956
0.094932
0.0948671
0.0948011
0.0947337
0.0946651
0.094595
0.0945234
0.0944502
0.0943752
0.0942983
0.0942191
0.0941375
0.0940531
0.0939653
0.0938736
0.0937774
0.0936759
0.0935686
0.0934559
0.0933405
0.0932322
0.0942986
0.0942279
0.0941559
0.0940827
0.0940081
0.0939322
0.0938549
0.0937762
0.0936961
0.0936145
0.0935314
0.0934466
0.0933602
0.093272
0.093182
0.0930899
0.0929956
0.0928989
0.0927995
0.0926971
0.0925911
0.0924811
0.0923662
0.0922457
0.0921185
0.091984
0.0918422
0.091696
0.0915574
0.0930095
0.0929217
0.0928323
0.0927413
0.0926486
0.0925543
0.0924582
0.0923604
0.0922608
0.0921594
0.092056
0.0919507
0.0918433
0.0917336
0.0916217
0.0915073
0.0913901
0.0912701
0.0911467
0.0910196
0.0908883
0.090752
0.0906099
0.0904609
0.0903037
0.0901372
0.0899612
0.0897787
0.0896041
0.0915145
0.0914068
0.0912972
0.0911856
0.091072
0.0909563
0.0908385
0.0907186
0.0905965
0.090472
0.0903453
0.090216
0.0900842
0.0899498
0.0898125
0.0896721
0.0895285
0.0893814
0.0892303
0.0890747
0.0889141
0.0887475
0.088574
0.0883922
0.0882006
0.0879975
0.0877823
0.0875579
0.087341
0.0897337
0.0896045
0.0894729
0.0893389
0.0892026
0.0890637
0.0889223
0.0887784
0.0886318
0.0884824
0.0883302
0.0881751
0.088017
0.0878557
0.0876909
0.0875226
0.0873505
0.0871741
0.0869931
0.0868069
0.0866148
0.0864158
0.0862087
0.0859919
0.0857634
0.0855212
0.085264
0.0849943
0.084731
0.0875991
0.087447
0.0872922
0.0871347
0.0869743
0.0868111
0.0866449
0.0864757
0.0863034
0.0861279
0.0859491
0.085767
0.0855812
0.0853918
0.0851985
0.085001
0.0847991
0.0845924
0.0843803
0.0841624
0.0839376
0.0837051
0.0834633
0.0832105
0.0829442
0.0826617
0.0823612
0.0820441
0.0817315
0.0850958
0.0849223
0.0847457
0.084566
0.0843832
0.0841971
0.0840078
0.0838151
0.0836189
0.0834192
0.0832158
0.0830086
0.0827975
0.0825822
0.0823626
0.0821383
0.0819092
0.0816746
0.0814343
0.0811873
0.0809329
0.0806699
0.0803967
0.0801112
0.0798106
0.0794915
0.0791512
0.0787896
0.07843
0.0822367
0.0820474
0.0818548
0.081659
0.0814599
0.0812575
0.0810515
0.080842
0.0806289
0.080412
0.0801912
0.0799665
0.0797376
0.0795043
0.0792665
0.0790239
0.078776
0.0785225
0.0782629
0.0779963
0.0777219
0.0774384
0.0771441
0.0768366
0.0765128
0.0761684
0.0758001
0.0754054
0.0750098
0.078922
0.0787265
0.0785278
0.0783259
0.0781208
0.0779123
0.0777005
0.0774852
0.0772664
0.0770439
0.0768176
0.0765875
0.0763532
0.0761147
0.0758717
0.075624
0.0753712
0.0751128
0.0748483
0.0745769
0.0742977
0.0740093
0.0737099
0.0733969
0.073067
0.072715
0.0723368
0.071927
0.0715134
0.074982
0.0747952
0.0746057
0.0744134
0.0742182
0.0740201
0.073819
0.0736148
0.0734076
0.0731971
0.0729833
0.0727661
0.0725452
0.0723206
0.072092
0.0718592
0.0716218
0.0713793
0.0711313
0.0708769
0.0706152
0.0703448
0.0700637
0.0697693
0.069458
0.0691237
0.0687617
0.0683628
0.0679574
0.070715
0.0705463
0.0703752
0.0702017
0.0700258
0.0698475
0.0696666
0.0694832
0.0692972
0.0691084
0.0689169
0.0687224
0.0685249
0.0683242
0.0681201
0.0679123
0.0677005
0.0674843
0.0672631
0.0670362
0.0668026
0.0665608
0.066309
0.0660441
0.0657625
0.0654573
0.065123
0.0647463
0.0643604
0.0665879
0.0664337
0.0662774
0.0661192
0.0659588
0.0657962
0.0656315
0.0654646
0.0652953
0.0651237
0.0649496
0.064773
0.0645937
0.0644116
0.0642264
0.0640379
0.0638459
0.0636498
0.0634492
0.0632432
0.063031
0.0628109
0.0625812
0.0623387
0.0620794
0.0617958
0.0614815
0.0611185
0.0607429
0.0622874
0.0621468
0.0620044
0.0618602
0.0617141
0.0615661
0.0614161
0.0612642
0.0611101
0.060954
0.0607956
0.0606348
0.0604715
0.0603055
0.0601366
0.0599645
0.0597886
0.0596086
0.0594236
0.0592327
0.0590344
0.0588267
0.0586065
0.0583695
0.0581076
0.0578133
0.0574636
0.0570967
0.0581077
0.0579828
0.0578563
0.0577283
0.0575986
0.0574673
0.0573343
0.0571995
0.057063
0.0569245
0.0567841
0.0566417
0.056497
0.0563499
0.0562001
0.0560475
0.0558914
0.0557316
0.0555671
0.055397
0.0552198
0.0550336
0.0548351
0.0546199
0.0543791
0.0541045
0.053767
0.0534061
0.0538735
0.053764
0.0536532
0.0535409
0.0534273
0.0533122
0.0531957
0.0530777
0.0529581
0.0528368
0.0527139
0.0525891
0.0524623
0.0523334
0.0522021
0.0520682
0.0519312
0.0517907
0.0516458
0.0514957
0.0513388
0.0511732
0.0509955
0.0508013
0.0505811
0.0503253
0.0499986
0.0496394
0.0495366
0.0494419
0.049346
0.049249
0.0491508
0.0490513
0.0489506
0.0488486
0.0487452
0.0486403
0.048534
0.0484261
0.0483164
0.0482048
0.0480912
0.0479751
0.0478562
0.047734
0.0476078
0.0474767
0.0473391
0.0471931
0.0470354
0.0468612
0.0466607
0.0464229
0.0461055
0.0457425
0.0450051
0.0449245
0.044843
0.0447605
0.0446769
0.0445923
0.0445067
0.0444199
0.0443319
0.0442427
0.0441522
0.0440603
0.0439668
0.0438717
0.0437747
0.0436756
0.0435739
0.0434691
0.0433607
0.0432476
0.0431284
0.0430011
0.0428624
0.0427074
0.0425262
0.0423057
0.0419962
0.0416227
0.040104
0.0400371
0.0399693
0.0399007
0.0398313
0.0397609
0.0396897
0.0396175
0.0395443
0.0394701
0.0393947
0.0393182
0.0392403
0.0391609
0.0390799
0.038997
0.0389117
0.0388237
0.0387323
0.0386365
0.038535
0.0384259
0.0383057
0.0381697
0.0380076
0.0378044
0.0375025
0.0371122
0.034459
0.0344055
0.0343514
0.0342966
0.0342411
0.0341848
0.0341279
0.0340701
0.0340116
0.0339522
0.0338918
0.0338305
0.033768
0.0337043
0.0336391
0.0335723
0.0335034
0.0334321
0.0333577
0.0332793
0.0331957
0.033105
0.033004
0.0328876
0.0327464
0.0325622
0.0322705
0.0318635
0.0270581
0.0270195
0.0269804
0.0269408
0.0269007
0.02686
0.0268188
0.0267771
0.0267347
0.0266916
0.0266479
0.0266034
0.026558
0.0265116
0.0264641
0.0264152
0.0263647
0.0263122
0.0262571
0.0261986
0.0261357
0.0260665
0.0259886
0.0258967
0.0257832
0.0256274
0.0253645
0.0249838
0.0147477
0.0147327
0.0147175
0.0147021
0.0146864
0.0146705
0.0146544
0.014638
0.0146213
0.0146042
0.0145869
0.014569
0.0145508
0.0145319
0.0145123
0.0144919
0.0144704
0.0144476
0.014423
0.014396
0.0143658
0.0143309
0.0142898
0.0142372
0.0141712
0.0140629
0.0138978
0.0134522
0.0193448
0.019603
0.0198478
0.0200369
0.0201468
0.0202141
0.0202659
0.0203076
0.0203394
0.0203623
0.0203795
0.0203962
0.0204136
0.0204344
0.0204616
0.0204965
0.0205412
0.0205938
0.0206609
0.0207279
0.0208372
0.020896
0.021132
0.0210882
0.0219784
0.0371935
0.037625
0.037866
0.0380368
0.0381401
0.0381885
0.0382008
0.0381863
0.0381479
0.0380877
0.0380073
0.0379139
0.0378134
0.0377099
0.0376066
0.0375043
0.0374043
0.0373027
0.0372056
0.0370935
0.0370091
0.0368613
0.0368559
0.0366067
0.0372637
0.0470582
0.0475061
0.0477853
0.04798
0.0481041
0.0481679
0.0481851
0.0481647
0.0481111
0.0480277
0.0479177
0.0477865
0.0476416
0.0474885
0.0473316
0.0471731
0.0470144
0.046852
0.0466908
0.0465144
0.046356
0.0461456
0.0460436
0.0457703
0.0462706
0.0543277
0.054728
0.0549931
0.055179
0.0553
0.055363
0.0553773
0.0553495
0.0552839
0.055184
0.0550533
0.0548968
0.0547216
0.0545338
0.0543386
0.0541388
0.0539362
0.0537285
0.0535188
0.0532952
0.0530814
0.0528279
0.0526529
0.0523725
0.0527352
0.0602596
0.0606111
0.060852
0.0610205
0.0611294
0.0611843
0.061191
0.0611543
0.0610778
0.0609644
0.0608176
0.0606418
0.0604435
0.0602291
0.0600039
0.0597713
0.0595333
0.0592885
0.059039
0.058776
0.0585166
0.0582263
0.0579921
0.0576985
0.0579448
0.0653168
0.0656249
0.0658411
0.065991
0.0660858
0.06613
0.0661277
0.0660823
0.0659963
0.0658722
0.0657131
0.0655228
0.0653073
0.0650727
0.0648242
0.0645657
0.0642993
0.0640242
0.0637419
0.0634461
0.0631489
0.0628267
0.0625434
0.0622326
0.0623787
0.0697244
0.0699939
0.0701864
0.0703189
0.0704
0.0704336
0.0704227
0.0703696
0.0702761
0.0701442
0.0699763
0.0697759
0.0695483
0.069299
0.0690333
0.068755
0.0684663
0.0681672
0.0678586
0.0675359
0.0672076
0.0668585
0.0665345
0.0662052
0.0662636
0.0736113
0.073846
0.0740164
0.0741327
0.0742015
0.0742257
0.0742074
0.0741483
0.0740496
0.0739127
0.0737395
0.0735329
0.0732976
0.0730388
0.0727612
0.0724687
0.0721636
0.0718461
0.071517
0.0711731
0.07082
0.0704487
0.0700912
0.0697439
0.0697247
0.0770606
0.0772639
0.0774134
0.077515
0.0775729
0.0775891
0.0775651
0.0775019
0.0774002
0.0772609
0.0770856
0.0768766
0.0766378
0.0763739
0.0760893
0.0757877
0.0754713
0.0751408
0.0747966
0.0744367
0.0740644
0.0736757
0.0732909
0.0729273
0.0728391
0.0801306
0.0803054
0.0804355
0.0805236
0.0805719
0.0805817
0.0805537
0.0804882
0.0803857
0.0802467
0.0800721
0.0798639
0.0796253
0.0793603
0.0790731
0.078767
0.0784441
0.0781054
0.077751
0.07738
0.0769936
0.0765919
0.0761854
0.0758069
0.0756581
0.0828652
0.0830143
0.0831265
0.0832023
0.0832423
0.083247
0.0832165
0.0831506
0.0830493
0.0829127
0.0827415
0.0825369
0.0823017
0.0820393
0.0817532
0.0814466
0.0811215
0.080779
0.0804188
0.0800411
0.0796451
0.0792346
0.0788113
0.0784201
0.0782181
0.0852994
0.0854255
0.0855213
0.0855859
0.0856188
0.0856197
0.085588
0.0855231
0.0854248
0.0852927
0.085127
0.0849285
0.0846995
0.0844426
0.0841611
0.0838576
0.083534
0.0831914
0.0828295
0.0824489
0.0820475
0.0816318
0.0811963
0.0807947
0.080546
0.0874621
0.087568
0.087649
0.0877035
0.0877303
0.0877284
0.0876967
0.0876343
0.0875403
0.0874143
0.0872559
0.0870657
0.0868451
0.0865965
0.0863223
0.0860249
0.085706
0.0853666
0.0850063
0.0846263
0.0842232
0.0838054
0.0833616
0.0829522
0.0826626
0.0893786
0.0894665
0.0895344
0.0895801
0.0896018
0.0895979
0.0895672
0.0895082
0.0894198
0.0893011
0.0891516
0.0889713
0.088761
0.0885226
0.088258
0.0879693
0.0876577
0.0873244
0.0869687
0.0865922
0.0861904
0.0857734
0.0853247
0.0849097
0.0845848
0.0910707
0.0911432
0.0911995
0.0912374
0.0912549
0.09125
0.0912209
0.0911662
0.0910843
0.0909739
0.0908344
0.0906651
0.0904666
0.09024
0.0899869
0.0897088
0.0894067
0.0890817
0.0887329
0.0883624
0.0879644
0.0875507
0.0871
0.0866815
0.0863262
0.0925583
0.0926174
0.0926638
0.0926951
0.0927092
0.0927038
0.0926771
0.0926272
0.0925523
0.092451
0.0923221
0.0921648
0.091979
0.0917654
0.091525
0.091259
0.090968
0.0906532
0.0903132
0.0899504
0.0895584
0.0891498
0.0886995
0.0882796
0.0878982
0.0938591
0.0939071
0.093945
0.0939708
0.0939822
0.0939769
0.093953
0.0939083
0.0938408
0.0937489
0.0936311
0.0934861
0.0933136
0.0931137
0.0928869
0.0926339
0.0923552
0.0920517
0.0917219
0.0913684
0.0909838
0.0905818
0.0901339
0.089714
0.0893107
0.0949895
0.0950282
0.0950591
0.0950803
0.0950897
0.0950851
0.0950642
0.0950248
0.0949649
0.0948825
0.0947758
0.0946434
0.0944843
0.0942983
0.0940854
0.093846
0.0935802
0.0932888
0.09297
0.0926267
0.0922506
0.0918564
0.0914122
0.0909937
0.0905721
0.0959644
0.0959955
0.0960207
0.0960382
0.0960462
0.0960425
0.0960248
0.0959908
0.0959383
0.0958652
0.0957694
0.0956493
0.0955035
0.0953312
0.0951322
0.0949065
0.0946538
0.0943747
0.0940674
0.0937347
0.0933678
0.0929819
0.0925425
0.0921263
0.0916896
0.0967975
0.0968223
0.0968428
0.0968576
0.0968647
0.0968621
0.0968476
0.0968189
0.0967735
0.0967093
0.0966239
0.0965155
0.0963824
0.0962234
0.0960379
0.0958254
0.0955855
0.0953186
0.0950227
0.0947007
0.0943432
0.0939658
0.0935318
0.0931185
0.0926695
0.0975008
0.0975206
0.0975375
0.09755
0.0975567
0.0975554
0.097544
0.0975202
0.0974815
0.0974255
0.0973499
0.0972524
0.0971311
0.0969846
0.0968116
0.0966117
0.0963839
0.0961287
0.0958437
0.0955319
0.0951837
0.0948146
0.0943863
0.0939763
0.0935174
0.0980851
0.098101
0.098115
0.098126
0.0981324
0.0981325
0.0981241
0.0981048
0.0980722
0.0980237
0.0979568
0.0978692
0.0977585
0.0976232
0.0974617
0.0972732
0.0970565
0.096812
0.0965371
0.0962349
0.0958952
0.095534
0.0951113
0.0947045
0.094238
0.0985598
0.0985727
0.0985845
0.0985944
0.0986009
0.0986023
0.0985965
0.0985812
0.0985539
0.0985119
0.0984527
0.0983736
0.0982723
0.0981467
0.0979952
0.0978166
0.0976097
0.0973746
0.0971087
0.0968149
0.096483
0.0961288
0.0957112
0.0953076
0.0948353
0.0989327
0.0989434
0.0989537
0.0989629
0.0989696
0.0989723
0.0989688
0.0989569
0.098934
0.0988975
0.0988445
0.0987725
0.0986789
0.0985614
0.0984181
0.0982478
0.098049
0.0978217
0.0975633
0.0972767
0.0969513
0.096603
0.0961901
0.0957889
0.0953125
0.0992104
0.0992195
0.0992289
0.0992377
0.0992448
0.0992485
0.0992469
0.0992377
0.0992183
0.099186
0.0991379
0.0990714
0.0989836
0.0988723
0.0987354
0.0985714
0.0983788
0.0981576
0.097905
0.0976239
0.0973038
0.0969601
0.0965508
0.0961514
0.0956726
0.0993976
0.0994059
0.0994148
0.0994235
0.099431
0.0994357
0.0994356
0.0994283
0.0994114
0.0993819
0.0993372
0.0992743
0.0991905
0.0990833
0.0989506
0.0987909
0.0986026
0.0983854
0.0981368
0.0978595
0.097543
0.0972023
0.0967959
0.0963972
0.0959174
0.0994978
0.0995059
0.0995148
0.0995238
0.0995318
0.0995371
0.0995379
0.0995318
0.0995163
0.0994884
0.0994454
0.0993844
0.0993025
0.0991973
0.0990666
0.0989089
0.0987226
0.0985074
0.0982608
0.0979854
0.0976709
0.0973315
0.096927
0.0965278
0.0960487
0.0995144
0.099523
0.0995324
0.0995419
0.0995505
0.0995564
0.0995576
0.099552
0.0995367
0.0995091
0.0994661
0.099405
0.0993229
0.0992175
0.0990865
0.0989285
0.0987419
0.0985266
0.09828
0.0980044
0.0976902
0.0973505
0.0969468
0.0965458
0.0960687
0.0994104
0.0994205
0.0994312
0.0994418
0.099451
0.0994571
0.0994582
0.0994518
0.0994353
0.0994058
0.0993605
0.0992966
0.0992113
0.0991023
0.0989677
0.098806
0.098616
0.0983973
0.0981477
0.0978693
0.0975528
0.0972104
0.0968055
0.0964017
0.0959275
0.0991821
0.0991947
0.0992074
0.0992194
0.0992294
0.0992355
0.0992356
0.0992273
0.0992079
0.0991746
0.0991245
0.0990551
0.0989635
0.0988479
0.0987065
0.0985379
0.0983412
0.0981162
0.0978607
0.0975768
0.0972554
0.0969084
0.0965002
0.096093
0.0956221
0.098824
0.0988401
0.0988557
0.0988697
0.0988805
0.0988863
0.0988848
0.0988734
0.0988496
0.0988104
0.0987533
0.0986757
0.0985751
0.0984498
0.0982985
0.0981201
0.0979138
0.0976797
0.0974157
0.0971238
0.0967953
0.0964416
0.0960284
0.0956172
0.0951505
0.0983276
0.0983485
0.0983679
0.0983843
0.0983963
0.0984015
0.0983976
0.0983821
0.0983523
0.0983055
0.0982392
0.0981509
0.0980387
0.097901
0.097737
0.0975461
0.0973276
0.097082
0.0968072
0.0965053
0.0961676
0.0958059
0.0953862
0.0949707
0.0945094
0.0976814
0.0977084
0.0977326
0.0977523
0.0977656
0.09777
0.0977633
0.0977427
0.0977055
0.0976494
0.0975718
0.0974707
0.0973445
0.0971921
0.0970131
0.0968073
0.0965746
0.0963154
0.096028
0.0957145
0.0953662
0.0949951
0.0945679
0.094148
0.0936941
0.0968708
0.0969057
0.096936
0.0969597
0.0969746
0.0969782
0.096968
0.0969414
0.0968957
0.0968287
0.0967382
0.0966225
0.0964803
0.0963112
0.0961153
0.095893
0.0956444
0.0953703
0.095069
0.0947427
0.0943829
0.0940018
0.0935668
0.0931428
0.0926985
0.0958788
0.0959234
0.0959611
0.0959897
0.0960067
0.0960095
0.0959954
0.095962
0.0959068
0.0958276
0.0957228
0.095591
0.0954314
0.0952442
0.0950301
0.0947901
0.0945247
0.0942349
0.0939191
0.0935796
0.0932079
0.0928167
0.092374
0.0919468
0.091515
0.0946854
0.0947419
0.0947887
0.0948231
0.0948426
0.0948445
0.0948262
0.0947853
0.0947198
0.0946276
0.0945075
0.0943586
0.0941806
0.0939745
0.0937416
0.0934835
0.0932011
0.0928955
0.0925653
0.0922129
0.0918297
0.091429
0.0909794
0.0905505
0.0901343
0.0932683
0.093339
0.0933963
0.0934376
0.09346
0.093461
0.0934382
0.0933896
0.0933131
0.0932074
0.0930715
0.092905
0.0927083
0.0924832
0.0922317
0.0919557
0.0916568
0.0913362
0.0909925
0.0906282
0.0902346
0.0898257
0.0893706
0.0889421
0.0885456
0.0916023
0.0916896
0.0917591
0.091808
0.0918337
0.0918339
0.0918064
0.0917497
0.0916622
0.0915429
0.0913911
0.0912072
0.0909923
0.0907488
0.0904795
0.0901869
0.0898728
0.0895388
0.0891833
0.0888089
0.0884068
0.0879918
0.0875334
0.0871083
0.0867357
0.0896592
0.0897656
0.0898486
0.0899059
0.0899352
0.0899344
0.0899024
0.0898376
0.0897393
0.0896066
0.0894397
0.0892392
0.0890072
0.0887468
0.0884614
0.0881542
0.0878273
0.0874823
0.0871176
0.0867358
0.0863279
0.0859097
0.0854509
0.0850328
0.084689
0.0874077
0.0875351
0.0876328
0.0876989
0.0877317
0.0877302
0.0876935
0.0876212
0.0875126
0.0873676
0.0871868
0.0869714
0.0867243
0.0864493
0.0861505
0.0858317
0.085495
0.0851425
0.0847719
0.0843864
0.0839762
0.0835586
0.0831029
0.0826963
0.0823865
0.0848111
0.0849614
0.0850745
0.0851494
0.0851857
0.0851834
0.0851425
0.0850633
0.0849457
0.08479
0.0845973
0.0843695
0.0841102
0.0838239
0.0835153
0.0831888
0.0828465
0.0824906
0.0821185
0.0817337
0.0813255
0.0809133
0.0804648
0.0800752
0.0798047
0.0818265
0.082001
0.0821296
0.0822132
0.0822527
0.0822496
0.0822052
0.0821203
0.0819955
0.0818315
0.0816298
0.081393
0.0811253
0.0808319
0.0805181
0.0801886
0.0798458
0.0794916
0.0791232
0.0787445
0.0783435
0.0779424
0.0775057
0.0771397
0.0769136
0.0785465
0.0787462
0.0788896
0.0789808
0.0790229
0.0790194
0.0789727
0.0788842
0.0787549
0.078586
0.0783793
0.0781378
0.0778666
0.0775715
0.077258
0.0769313
0.0765935
0.0762469
0.0758878
0.0755208
0.0751324
0.0747482
0.0743278
0.0739915
0.0738132
0.0751533
0.075378
0.0755351
0.075633
0.0756779
0.0756748
0.0756275
0.075538
0.0754075
0.0752374
0.0750298
0.0747883
0.0745186
0.0742267
0.0739186
0.0735997
0.073272
0.0729377
0.0725926
0.0722418
0.0718703
0.0715071
0.0711067
0.0708026
0.0706727
0.0716918
0.0719413
0.0721109
0.072215
0.0722627
0.0722612
0.0722152
0.072127
0.0719982
0.0718303
0.0716256
0.0713881
0.0711239
0.0708395
0.0705411
0.0702341
0.0699205
0.0696024
0.0692748
0.0689436
0.0685925
0.068253
0.0678757
0.0676046
0.0675236
0.068184
0.0684582
0.0686392
0.0687488
0.0687998
0.068801
0.0687579
0.0686732
0.0685485
0.0683856
0.0681868
0.0679566
0.0677014
0.067428
0.0671427
0.0668509
0.0665544
0.0662553
0.0659481
0.0656388
0.0653108
0.0649968
0.064645
0.0644066
0.0643745
0.0646452
0.0649432
0.0651343
0.0652491
0.0653037
0.0653085
0.0652695
0.0651899
0.0650714
0.0649157
0.0647253
0.0645051
0.0642616
0.0640019
0.0637322
0.0634581
0.0631811
0.062903
0.0626181
0.0623325
0.0620293
0.0617417
0.0614175
0.0612103
0.061227
0.0610837
0.0614026
0.0616021
0.0617216
0.06178
0.0617889
0.0617551
0.0616818
0.0615708
0.061424
0.061244
0.0610358
0.0608061
0.0605621
0.0603101
0.0600554
0.0597994
0.0595436
0.0592823
0.0590213
0.0587442
0.0584832
0.0581881
0.05801
0.058075
0.0574962
0.0578326
0.0580389
0.0581626
0.0582245
0.0582378
0.0582096
0.0581433
0.058041
0.0579043
0.057736
0.0575413
0.057327
0.0571002
0.0568672
0.0566332
0.0563992
0.0561666
0.0559296
0.0556936
0.0554433
0.0552087
0.0549436
0.054792
0.0549048
0.0538678
0.0542179
0.0544294
0.0545565
0.0546215
0.0546389
0.0546163
0.0545574
0.0544642
0.0543385
0.0541829
0.0540028
0.053805
0.0535966
0.0533836
0.0531709
0.0529596
0.0527505
0.0525383
0.0523272
0.0521041
0.051895
0.0516609
0.0515327
0.0516925
0.0501685
0.0505283
0.0507432
0.0508726
0.0509394
0.05096
0.0509428
0.0508913
0.0508076
0.0506933
0.0505511
0.0503866
0.0502062
0.0500168
0.0498245
0.0496337
0.0494453
0.0492598
0.0490724
0.0488861
0.0486903
0.0485057
0.0483033
0.0481951
0.0484014
0.0463469
0.0467106
0.046927
0.0470567
0.0471233
0.047146
0.0471334
0.0470891
0.047015
0.0469126
0.0467844
0.0466361
0.0464738
0.0463042
0.046133
0.0459644
0.0457992
0.0456373
0.0454747
0.0453127
0.0451444
0.0449832
0.0448134
0.044721
0.0449736
0.0423143
0.0426733
0.0428878
0.0430149
0.0430784
0.0431015
0.0430928
0.0430554
0.042991
0.0429009
0.0427873