/*--------------------------------*- C++ -*----------------------------------*\
  =========                 |
  \\      /  F ield         | OpenFOAM: The Open Source CFD Toolbox
   \\    /   O peration     | Website:  https://openfoam.org
    \\  /    A nd           | Version:  6
     \\/     M anipulation  |
\*---------------------------------------------------------------------------*/
FoamFile
{
    version     2.0;
    format      ascii;
    class       volScalarField;
    location    "0.07";
    object      nut;
}
// * * * * * * * * * * * * * * * * * * * * * * * * * * * * * * * * * * * * * //

dimensions      [0 2 -1 0 0 0 0];

internalField   nonuniform List<scalar> 
3080
(
1.5234e-05
1.52068e-05
1.51795e-05
1.5152e-05
1.51243e-05
1.50963e-05
1.50681e-05
1.50397e-05
1.50111e-05
1.49822e-05
1.4953e-05
1.49236e-05
1.48939e-05
1.48638e-05
1.48333e-05
1.48025e-05
1.47712e-05
1.47393e-05
1.47067e-05
1.46733e-05
1.46389e-05
1.46031e-05
1.45655e-05
1.45253e-05
1.44814e-05
1.44318e-05
1.43725e-05
1.42955e-05
1.41851e-05
1.40097e-05
0.000116522
0.000116334
0.000116144
0.000115953
0.00011576
0.000115566
0.000115369
0.000115171
0.000114971
0.000114768
0.000114563
0.000114355
0.000114144
0.000113929
0.00011371
0.000113486
0.000113256
0.000113018
0.000112771
0.000112511
0.000112234
0.000111934
0.0001116
0.000111217
0.000110757
0.000110166
0.000109331
0.000108042
0.000105663
0.000101841
0.000222706
0.000222399
0.00022209
0.000221778
0.000221463
0.000221145
0.000220824
0.0002205
0.000220172
0.00021984
0.000219504
0.000219162
0.000218816
0.000218463
0.000218102
0.000217733
0.000217352
0.000216959
0.000216547
0.000216114
0.00021565
0.000215146
0.000214585
0.00021394
0.000213169
0.000212191
0.000210852
0.000208861
0.000205518
0.000200207
0.000310641
0.000310263
0.000309881
0.000309496
0.000309107
0.000308715
0.000308319
0.000307918
0.000307513
0.000307103
0.000306688
0.000306266
0.000305837
0.0003054
0.000304954
0.000304497
0.000304025
0.000303537
0.000303027
0.000302489
0.000301913
0.000301288
0.000300592
0.000299796
0.00029885
0.000297669
0.000296095
0.000293849
0.000290383
0.000285321
0.000383468
0.000383045
0.000382619
0.000382189
0.000381756
0.000381318
0.000380876
0.000380429
0.000379978
0.00037952
0.000379056
0.000378586
0.000378107
0.000377619
0.000377121
0.00037661
0.000376084
0.000375538
0.000374968
0.000374367
0.000373724
0.000373027
0.000372253
0.000371371
0.000370331
0.000369048
0.000367379
0.000365085
0.000361776
0.000357309
0.000444691
0.000444242
0.00044379
0.000443334
0.000442874
0.000442409
0.00044194
0.000441466
0.000440987
0.000440501
0.000440009
0.000439509
0.000439001
0.000438483
0.000437954
0.000437412
0.000436853
0.000436273
0.000435669
0.000435031
0.00043435
0.000433613
0.000432796
0.00043187
0.000430785
0.000429464
0.000427782
0.000425544
0.000422486
0.000418611
0.000496859
0.000496396
0.00049593
0.00049546
0.000494986
0.000494507
0.000494024
0.000493535
0.000493041
0.000492541
0.000492033
0.000491518
0.000490994
0.000490461
0.000489915
0.000489356
0.00048878
0.000488183
0.000487561
0.000486905
0.000486206
0.000485449
0.000484615
0.000483672
0.000482577
0.000481259
0.000479612
0.000477483
0.000474698
0.00047134
0.000541775
0.000541307
0.000540836
0.000540361
0.000539882
0.000539398
0.00053891
0.000538416
0.000537917
0.000537411
0.000536898
0.000536377
0.000535848
0.000535309
0.000534758
0.000534193
0.000533611
0.000533009
0.00053238
0.000531719
0.000531016
0.000530256
0.000529421
0.000528482
0.000527399
0.000526111
0.000524529
0.000522535
0.000520019
0.000517098
0.000580738
0.000580272
0.000579803
0.00057933
0.000578853
0.000578371
0.000577885
0.000577394
0.000576896
0.000576392
0.000575882
0.000575363
0.000574836
0.000574299
0.00057375
0.000573188
0.000572609
0.00057201
0.000571386
0.000570729
0.000570032
0.000569281
0.000568458
0.000567538
0.000566484
0.000565244
0.000563744
0.000561897
0.000559633
0.000557082
0.00061471
0.000614251
0.000613789
0.000613324
0.000612855
0.000612381
0.000611903
0.000611419
0.00061093
0.000610434
0.000609931
0.000609421
0.000608902
0.000608374
0.000607834
0.000607281
0.000606711
0.000606123
0.00060551
0.000604866
0.000604184
0.00060345
0.00060265
0.000601759
0.000600746
0.000599566
0.000598159
0.00059646
0.000594429
0.000592194
0.000644419
0.000643973
0.000643523
0.000643071
0.000642614
0.000642153
0.000641687
0.000641216
0.00064074
0.000640257
0.000639767
0.00063927
0.000638765
0.00063825
0.000637724
0.000637186
0.000636632
0.000636059
0.000635464
0.000634839
0.000634178
0.000633469
0.000632699
0.000631845
0.000630881
0.00062977
0.000628462
0.000626909
0.000625091
0.000623128
0.000670007
0.000669574
0.000669138
0.000668697
0.000668253
0.000667804
0.000667349
0.00066689
0.000666424
0.000665952
0.000665472
0.000664984
0.000664488
0.00066398
0.000663461
0.000662927
0.000662375
0.000661802
0.000661202
0.000660567
0.000659889
0.000659154
0.000658344
0.000657436
0.000656397
0.000655191
0.000653779
0.000652155
0.000650429
0.000692811
0.000692397
0.000691979
0.000691559
0.000691134
0.000690704
0.00069027
0.000689831
0.000689385
0.000688934
0.000688475
0.000688009
0.000687534
0.000687049
0.000686552
0.000686042
0.000685515
0.000684968
0.000684396
0.000683793
0.00068315
0.000682455
0.000681694
0.000680845
0.000679882
0.000678777
0.0006775
0.000676054
0.000674536
0.000712755
0.000712362
0.000711967
0.000711568
0.000711166
0.000710759
0.000710348
0.000709931
0.000709509
0.000709081
0.000708647
0.000708205
0.000707754
0.000707295
0.000706824
0.000706341
0.000705842
0.000705325
0.000704785
0.000704217
0.000703612
0.000702961
0.000702251
0.000701464
0.000700579
0.000699572
0.000698424
0.00069714
0.000695806
0.00073015
0.000729781
0.00072941
0.000729036
0.000728658
0.000728277
0.000727891
0.0007275
0.000727104
0.000726702
0.000726294
0.000725878
0.000725455
0.000725024
0.000724582
0.000724128
0.00072366
0.000723176
0.00072267
0.000722139
0.000721575
0.000720971
0.000720314
0.00071959
0.000718782
0.000717872
0.000716845
0.000715709
0.000714541
0.000745404
0.000745058
0.000744708
0.000744357
0.000744002
0.000743643
0.00074328
0.000742912
0.00074254
0.000742161
0.000741777
0.000741386
0.000740987
0.000740581
0.000740165
0.000739738
0.000739298
0.000738842
0.000738368
0.000737871
0.000737345
0.000736783
0.000736174
0.000735509
0.000734772
0.000733948
0.000733029
0.000732023
0.000730996
0.00075845
0.000758131
0.00075781
0.000757487
0.000757161
0.000756831
0.000756498
0.00075616
0.000755817
0.000755468
0.000755114
0.000754754
0.000754387
0.000754012
0.000753629
0.000753235
0.00075283
0.000752411
0.000751975
0.000751519
0.000751037
0.000750524
0.000749971
0.000749369
0.000748706
0.000747971
0.000747158
0.000746277
0.000745383
0.000769312
0.000769031
0.000768749
0.000768465
0.000768179
0.000767889
0.000767596
0.000767298
0.000766997
0.00076669
0.000766378
0.00076606
0.000765737
0.000765406
0.000765068
0.000764721
0.000764363
0.000763993
0.000763609
0.000763206
0.000762782
0.00076233
0.000761845
0.000761318
0.000760741
0.000760105
0.000759405
0.000758652
0.000757892
0.000778339
0.000778102
0.000777863
0.000777624
0.000777382
0.000777137
0.00077689
0.000776639
0.000776384
0.000776124
0.00077586
0.000775591
0.000775317
0.000775037
0.000774749
0.000774454
0.000774151
0.000773836
0.000773509
0.000773167
0.000772806
0.000772422
0.00077201
0.000771564
0.000771076
0.00077054
0.000769953
0.000769325
0.000768695
0.000785809
0.000785616
0.000785422
0.000785228
0.000785032
0.000784835
0.000784634
0.000784431
0.000784224
0.000784013
0.000783798
0.000783579
0.000783356
0.000783127
0.000782893
0.000782652
0.000782404
0.000782146
0.000781878
0.000781598
0.000781301
0.000780986
0.000780647
0.000780281
0.00077988
0.000779442
0.000778963
0.000778454
0.000777945
0.000791943
0.000791792
0.000791642
0.000791492
0.000791341
0.000791188
0.000791033
0.000790876
0.000790715
0.000790552
0.000790385
0.000790215
0.00079004
0.000789862
0.000789679
0.00078949
0.000789295
0.000789093
0.000788882
0.000788661
0.000788427
0.000788177
0.000787909
0.000787617
0.000787299
0.000786951
0.000786573
0.000786171
0.000785772
0.000796916
0.000796805
0.000796695
0.000796586
0.000796476
0.000796365
0.000796252
0.000796137
0.00079602
0.0007959
0.000795777
0.000795652
0.000795523
0.000795391
0.000795255
0.000795115
0.000794969
0.000794818
0.00079466
0.000794493
0.000794316
0.000794126
0.000793922
0.000793699
0.000793456
0.000793189
0.0007929
0.000792594
0.000792292
0.000800872
0.000800796
0.000800721
0.000800648
0.000800574
0.0008005
0.000800424
0.000800347
0.000800268
0.000800186
0.000800103
0.000800017
0.000799928
0.000799837
0.000799743
0.000799645
0.000799543
0.000799437
0.000799325
0.000799206
0.00079908
0.000798943
0.000798794
0.000798632
0.000798453
0.000798258
0.000798045
0.000797821
0.000797601
0.000803923
0.000803875
0.000803831
0.000803787
0.000803745
0.000803701
0.000803657
0.000803611
0.000803563
0.000803514
0.000803463
0.000803411
0.000803356
0.000803299
0.00080324
0.000803178
0.000803113
0.000803044
0.000802971
0.000802893
0.000802808
0.000802716
0.000802614
0.000802502
0.000802377
0.00080224
0.00080209
0.000801934
0.000801781
0.000806157
0.000806133
0.000806111
0.000806092
0.000806073
0.000806054
0.000806033
0.000806012
0.00080599
0.000805966
0.000805941
0.000805914
0.000805886
0.000805856
0.000805824
0.000805791
0.000805754
0.000805715
0.000805673
0.000805626
0.000805574
0.000805516
0.000805451
0.000805378
0.000805296
0.000805204
0.000805103
0.000804999
0.000804899
0.000807643
0.000807636
0.000807631
0.000807628
0.000807625
0.000807623
0.00080762
0.000807616
0.000807611
0.000807605
0.000807598
0.000807589
0.000807579
0.000807568
0.000807556
0.000807542
0.000807526
0.000807507
0.000807486
0.000807462
0.000807433
0.000807399
0.00080736
0.000807314
0.000807261
0.0008072
0.000807135
0.000807067
0.000807004
0.000808435
0.000808436
0.00080844
0.000808446
0.000808452
0.000808459
0.000808465
0.00080847
0.000808474
0.000808478
0.00080848
0.000808481
0.000808481
0.00080848
0.000808478
0.000808475
0.000808469
0.000808462
0.000808453
0.00080844
0.000808423
0.000808403
0.000808377
0.000808346
0.000808309
0.000808266
0.000808219
0.000808171
0.000808129
0.00080858
0.000808583
0.000808588
0.000808594
0.000808601
0.000808608
0.000808614
0.00080862
0.000808625
0.000808629
0.000808632
0.000808634
0.000808635
0.000808635
0.000808634
0.000808631
0.000808627
0.00080862
0.000808611
0.0008086
0.000808585
0.000808565
0.000808541
0.000808511
0.000808476
0.000808436
0.000808391
0.000808348
0.00080831
0.000807856
0.000807846
0.000807839
0.000807833
0.000807827
0.000807821
0.000807814
0.000807807
0.000807798
0.000807788
0.000807777
0.000807765
0.000807751
0.000807736
0.00080772
0.000807702
0.000807682
0.00080766
0.000807634
0.000807606
0.000807573
0.000807535
0.000807492
0.000807443
0.000807386
0.000807324
0.000807257
0.00080719
0.000807132
0.000806222
0.000806188
0.000806156
0.000806124
0.000806092
0.000806059
0.000806026
0.000805991
0.000805954
0.000805916
0.000805876
0.000805835
0.000805792
0.000805746
0.000805699
0.00080565
0.000805597
0.000805542
0.000805483
0.000805419
0.00080535
0.000805275
0.000805192
0.000805101
0.000805001
0.000804892
0.000804776
0.000804659
0.000804554
0.000803635
0.000803564
0.000803493
0.000803422
0.000803351
0.000803278
0.000803203
0.000803126
0.000803047
0.000802966
0.000802883
0.000802797
0.000802708
0.000802617
0.000802523
0.000802425
0.000802323
0.000802218
0.000802107
0.00080199
0.000801865
0.000801732
0.000801589
0.000801435
0.000801267
0.000801087
0.000800895
0.0008007
0.000800521
0.000800031
0.00079991
0.000799787
0.000799664
0.000799538
0.00079941
0.00079928
0.000799147
0.00079901
0.000798871
0.000798728
0.000798581
0.000798431
0.000798277
0.000798118
0.000797955
0.000797787
0.000797612
0.000797431
0.000797241
0.000797041
0.00079683
0.000796604
0.000796363
0.000796103
0.000795825
0.00079553
0.000795228
0.000794945
0.000795331
0.000795144
0.000794955
0.000794764
0.00079457
0.000794372
0.00079417
0.000793964
0.000793754
0.000793539
0.00079332
0.000793095
0.000792866
0.000792631
0.000792391
0.000792143
0.000791889
0.000791626
0.000791354
0.00079107
0.000790773
0.000790461
0.00079013
0.000789777
0.000789399
0.000788995
0.000788566
0.000788125
0.000787708
0.000789431
0.000789163
0.000788892
0.000788617
0.000788337
0.000788053
0.000787762
0.000787467
0.000787165
0.000786858
0.000786544
0.000786223
0.000785896
0.000785561
0.000785218
0.000784867
0.000784505
0.000784133
0.000783748
0.000783348
0.000782931
0.000782494
0.000782032
0.000781541
0.000781016
0.000780455
0.000779859
0.000779244
0.000778657
0.000782205
0.00078184
0.000781469
0.000781093
0.00078071
0.00078032
0.000779924
0.000779519
0.000779107
0.000778687
0.000778259
0.000777822
0.000777375
0.000776919
0.000776453
0.000775975
0.000775484
0.000774979
0.000774457
0.000773917
0.000773354
0.000772765
0.000772144
0.000771486
0.000770784
0.000770033
0.000769234
0.000768407
0.000767612
0.000773502
0.000773021
0.000772532
0.000772035
0.00077153
0.000771015
0.000770492
0.000769958
0.000769415
0.000768861
0.000768296
0.00076772
0.000767132
0.000766531
0.000765917
0.000765288
0.000764643
0.00076398
0.000763296
0.000762588
0.000761852
0.000761083
0.000760274
0.000759417
0.000758503
0.000757526
0.000756485
0.000755403
0.000754356
0.00076314
0.000762523
0.000761896
0.000761258
0.000760608
0.000759947
0.000759274
0.000758589
0.000757891
0.00075718
0.000756454
0.000755715
0.00075496
0.00075419
0.000753402
0.000752596
0.000751769
0.00075092
0.000750045
0.00074914
0.000748201
0.00074722
0.00074619
0.0007451
0.000743939
0.000742697
0.000741371
0.000739986
0.000738639
0.000750906
0.000750131
0.000749342
0.000748539
0.000747722
0.000746891
0.000746045
0.000745183
0.000744304
0.00074341
0.000742498
0.000741568
0.000740619
0.000739651
0.000738661
0.000737648
0.00073661
0.000735544
0.000734447
0.000733313
0.000732137
0.000730911
0.000729625
0.000728266
0.000726819
0.000725269
0.000723612
0.000721872
0.000720168
0.000736744
0.000735781
0.000734802
0.000733804
0.00073279
0.000731756
0.000730704
0.000729633
0.000728541
0.000727429
0.000726295
0.000725139
0.00072396
0.000722756
0.000721526
0.000720267
0.000718978
0.000717654
0.000716293
0.000714887
0.000713431
0.000711914
0.000710325
0.000708648
0.000706864
0.000704952
0.000702903
0.000700741
0.000698606
0.000720325
0.000719145
0.000717943
0.000716719
0.000715473
0.000714205
0.000712913
0.000711597
0.000710257
0.000708891
0.000707499
0.000706079
0.00070463
0.000703151
0.00070164
0.000700095
0.000698512
0.000696888
0.000695218
0.000693495
0.000691712
0.000689858
0.000687917
0.000685871
0.000683696
0.000681366
0.000678862
0.000676204
0.000673557
0.000700751
0.000699331
0.000697885
0.000696413
0.000694914
0.000693387
0.000691833
0.000690249
0.000688635
0.000686991
0.000685315
0.000683606
0.000681862
0.000680082
0.000678263
0.000676403
0.000674499
0.000672546
0.000670539
0.00066847
0.000666331
0.000664108
0.000661785
0.000659339
0.000656741
0.000653956
0.000650954
0.000647746
0.000644518
0.000677225
0.000675547
0.000673839
0.0006721
0.00067033
0.000668527
0.000666691
0.00066482
0.000662915
0.000660973
0.000658993
0.000656975
0.000654916
0.000652814
0.000650667
0.000648472
0.000646226
0.000643923
0.000641557
0.000639121
0.000636604
0.000633992
0.000631265
0.000628397
0.000625353
0.000622088
0.000618558
0.000614757
0.000610883
0.000649498
0.000647571
0.000645609
0.000643613
0.00064158
0.00063951
0.000637403
0.000635256
0.00063307
0.000630842
0.000628571
0.000626257
0.000623896
0.000621487
0.000619027
0.000616512
0.00061394
0.000611304
0.000608598
0.000605813
0.000602938
0.000599958
0.000596851
0.000593586
0.000590123
0.000586404
0.00058237
0.000577983
0.00057345
0.000617589
0.000615467
0.000613308
0.000611111
0.000608876
0.0006066
0.000604284
0.000601926
0.000599525
0.00059708
0.00059459
0.000592051
0.000589463
0.000586824
0.00058413
0.000581377
0.000578563
0.000575681
0.000572724
0.000569684
0.000566549
0.0005633
0.000559917
0.000556365
0.000552597
0.000548544
0.000544127
0.00053927
0.000534172
0.000580202
0.000577982
0.000575725
0.00057343
0.000571096
0.000568722
0.000566308
0.000563852
0.000561354
0.000558811
0.000556222
0.000553586
0.000550901
0.000548164
0.000545373
0.000542524
0.000539613
0.000536634
0.000533581
0.000530444
0.000527211
0.000523865
0.000520381
0.000516724
0.000512843
0.000508657
0.000504065
0.000498941
0.000493459
0.000535126
0.000532969
0.000530779
0.000528554
0.000526295
0.000524
0.000521668
0.0005193
0.000516893
0.000514446
0.000511958
0.000509428
0.000506854
0.000504233
0.000501564
0.000498842
0.000496064
0.000493225
0.000490318
0.000487334
0.00048426
0.000481081
0.00047777
0.000474291
0.000470589
0.000466574
0.000462126
0.000457053
0.000451486
0.000485332
0.000483346
0.000481332
0.000479289
0.000477217
0.000475114
0.000472981
0.000470816
0.000468618
0.000466387
0.000464121
0.00046182
0.000459481
0.000457102
0.000454682
0.000452218
0.000449705
0.000447139
0.000444513
0.000441819
0.000439046
0.000436176
0.000433185
0.000430036
0.000426672
0.000422993
0.000418863
0.000414017
0.000408519
0.000436364
0.00043452
0.000432651
0.000430756
0.000428836
0.000426889
0.000424916
0.000422915
0.000420886
0.000418827
0.000416739
0.000414619
0.000412467
0.000410281
0.000408058
0.000405796
0.000403492
0.000401141
0.000398737
0.000396272
0.000393735
0.00039111
0.000388374
0.000385488
0.000382398
0.000378996
0.000375133
0.000370467
0.000364961
0.000384584
0.000382881
0.000381157
0.00037941
0.000377641
0.000375849
0.000374033
0.000372193
0.000370329
0.000368439
0.000366522
0.000364577
0.000362603
0.000360597
0.000358558
0.000356482
0.000354366
0.000352203
0.000349987
0.000347707
0.000345348
0.000342888
0.000340291
0.000337504
0.000334416
0.000330869
0.000326448
0.000320981
0.000333832
0.000332314
0.000330777
0.000329222
0.000327648
0.000326055
0.000324442
0.000322808
0.000321155
0.000319479
0.000317781
0.00031606
0.000314315
0.000312543
0.000310742
0.000308911
0.000307045
0.000305139
0.000303188
0.000301181
0.000299105
0.000296941
0.000294654
0.000292194
0.000289453
0.00028627
0.000282166
0.000276806
0.000282548
0.000281229
0.000279896
0.000278547
0.000277183
0.000275803
0.000274407
0.000272995
0.000271566
0.000270119
0.000268654
0.00026717
0.000265666
0.000264141
0.000262592
0.000261018
0.000259415
0.000257779
0.000256105
0.000254385
0.000252606
0.000250751
0.000248791
0.000246678
0.000244314
0.000241539
0.000237833
0.000232675
0.000231035
0.000229929
0.000228811
0.000227681
0.000226539
0.000225385
0.000224218
0.000223038
0.000221845
0.000220638
0.000219417
0.000218182
0.00021693
0.000215661
0.000214374
0.000213067
0.000211737
0.000210381
0.000208994
0.00020757
0.000206099
0.000204565
0.000202944
0.000201195
0.000199231
0.000196902
0.00019368
0.000188855
0.000179654
0.00017877
0.000177878
0.000176977
0.000176067
0.000175148
0.00017422
0.000173282
0.000172334
0.000171376
0.000170408
0.000169428
0.000168436
0.000167432
0.000166415
0.000165382
0.000164332
0.000163262
0.00016217
0.000161048
0.000159891
0.000158686
0.000157413
0.000156039
0.000154494
0.000152642
0.00014999
0.000145678
0.000128905
0.000128253
0.000127594
0.00012693
0.000126259
0.000125583
0.000124899
0.00012421
0.000123513
0.00012281
0.000122099
0.000121381
0.000120655
0.00011992
0.000119176
0.000118422
0.000117656
0.000116876
0.000116081
0.000115266
0.000114426
0.000113552
0.000112631
0.000111637
0.000110522
0.000109169
0.000107166
0.000103606
7.96855e-05
7.92684e-05
7.88478e-05
7.84236e-05
7.79958e-05
7.75643e-05
7.71292e-05
7.66902e-05
7.62472e-05
7.58003e-05
7.53491e-05
7.48936e-05
7.44334e-05
7.39683e-05
7.34978e-05
7.30214e-05
7.25382e-05
7.20474e-05
7.15474e-05
7.1036e-05
7.05103e-05
6.99649e-05
6.93923e-05
6.87753e-05
6.80876e-05
6.72427e-05
6.5953e-05
6.34651e-05
3.44339e-05
3.42465e-05
3.40577e-05
3.38675e-05
3.36758e-05
3.34826e-05
3.32879e-05
3.30917e-05
3.28939e-05
3.26945e-05
3.24935e-05
3.22907e-05
3.20862e-05
3.18797e-05
3.16711e-05
3.14603e-05
3.1247e-05
3.10308e-05
3.08112e-05
3.05875e-05
3.03586e-05
3.01224e-05
2.98765e-05
2.96133e-05
2.93254e-05
2.89703e-05
2.84167e-05
2.73784e-05
3.96587e-06
3.94593e-06
3.92584e-06
3.90559e-06
3.88519e-06
3.86463e-06
3.84392e-06
3.82304e-06
3.802e-06
3.78079e-06
3.75941e-06
3.73784e-06
3.71608e-06
3.69412e-06
3.67195e-06
3.64953e-06
3.62685e-06
3.60387e-06
3.58053e-06
3.55677e-06
3.53249e-06
3.50749e-06
3.4816e-06
3.45417e-06
3.425e-06
3.39055e-06
3.34911e-06
3.27358e-06
1.41082e-05
1.40808e-05
1.40422e-05
1.39775e-05
1.38788e-05
1.37593e-05
1.36285e-05
1.34883e-05
1.33385e-05
1.31796e-05
1.30114e-05
1.28358e-05
1.26527e-05
1.24627e-05
1.22663e-05
1.20637e-05
1.18554e-05
1.16403e-05
1.14197e-05
1.11892e-05
1.09592e-05
1.07048e-05
1.0483e-05
1.01793e-05
1.00802e-05
0.000106797
0.000108794
0.000109241
0.000108955
0.00010822
0.000107243
0.000106138
0.000104938
0.000103652
0.000102285
0.000100819
9.92702e-05
9.76674e-05
9.6017e-05
9.43184e-05
9.2562e-05
9.07473e-05
8.88425e-05
8.68888e-05
8.47526e-05
8.26593e-05
8.01396e-05
7.80953e-05
7.47404e-05
7.44064e-05
0.000205518
0.000208946
0.000210471
0.00021079
0.000210226
0.000209087
0.00020759
0.000205835
0.000203871
0.000201725
0.0001994
0.000196907
0.000194294
0.00019158
0.000188775
0.00018587
0.00018286
0.000179698
0.000176431
0.000172879
0.000169333
0.000165149
0.000161616
0.000156229
0.000155961
0.000289681
0.000293305
0.000295259
0.000295991
0.000295733
0.00029474
0.000293226
0.000291317
0.000289086
0.000286583
0.000283831
0.000280851
0.000277691
0.000274383
0.000270945
0.000267373
0.000263662
0.000259765
0.000255713
0.000251338
0.000246901
0.000241797
0.000237275
0.000231009
0.000230533
0.000360741
0.00036412
0.00036613
0.000367044
0.000367013
0.000366212
0.00036481
0.000362926
0.00036064
0.00035801
0.000355073
0.000351859
0.000348418
0.000344788
0.000340995
0.00033704
0.000332918
0.000328588
0.000324066
0.000319208
0.000314224
0.000308602
0.000303429
0.000296801
0.000295948
0.000421304
0.000424308
0.000426201
0.000427149
0.000427244
0.0004266
0.000425336
0.000423547
0.000421307
0.000418674
0.00041569
0.00041239
0.000408824
0.000405037
0.000401056
0.000396889
0.000392534
0.000387953
0.000383153
0.000378014
0.000372697
0.000366786
0.000361188
0.000354439
0.000353136
0.000473462
0.000476072
0.000477777
0.000478675
0.000478822
0.000478286
0.000477146
0.000475471
0.000473322
0.000470749
0.000467796
0.000464499
0.000460907
0.000457064
0.000453002
0.000448734
0.000444258
0.000439544
0.00043459
0.000429296
0.000423784
0.000417722
0.000411851
0.000405098
0.000403326
0.000518774
0.000521012
0.000522508
0.000523314
0.000523463
0.000522994
0.000521954
0.00052039
0.000518348
0.00051587
0.000512993
0.000509752
0.000506195
0.000502364
0.000498293
0.000493996
0.000489476
0.000484706
0.000479681
0.000474316
0.000468702
0.000462577
0.000456537
0.000449836
0.000447605
0.000558403
0.000560305
0.000561591
0.000562288
0.000562411
0.000561978
0.000561016
0.000559554
0.000557622
0.000555253
0.000552478
0.000549328
0.000545846
0.000542073
0.000538041
0.000533768
0.000529257
0.000524486
0.000519447
0.000514069
0.000508417
0.000502286
0.00049615
0.000489527
0.000486864
0.00059323
0.000594831
0.00059592
0.000596504
0.000596585
0.000596169
0.000595268
0.000593897
0.000592073
0.00058982
0.000587161
0.000584124
0.000580744
0.00057706
0.000573104
0.000568892
0.000564429
0.000559697
0.000554686
0.000549336
0.000543691
0.000537594
0.000531415
0.000524874
0.000521818
0.000623933
0.000625268
0.000626176
0.00062665
0.000626684
0.000626274
0.000625423
0.000624133
0.000622413
0.000620278
0.000617744
0.000614833
0.000611574
0.000608003
0.000604147
0.000600024
0.000595638
0.000590975
0.000586023
0.000580732
0.000575128
0.000569094
0.000562908
0.00055645
0.000553042
0.000651046
0.000652148
0.000652892
0.000653264
0.00065325
0.000652842
0.000652033
0.000650818
0.000649199
0.000647182
0.000644777
0.000642001
0.000638876
0.000635433
0.000631697
0.000627684
0.000623398
0.000618827
0.000613958
0.000608749
0.000603211
0.000597259
0.000591096
0.000584721
0.000580996
0.000674999
0.000675897
0.000676496
0.000676775
0.000676718
0.00067631
0.000675538
0.000674394
0.000672873
0.000670973
0.0006687
0.000666063
0.000663081
0.000659779
0.000656177
0.000652289
0.00064812
0.000643659
0.000638891
0.000633781
0.00062833
0.000622472
0.000616355
0.000610063
0.000606057
0.000696144
0.000696866
0.000697337
0.000697534
0.000697439
0.000697031
0.000696296
0.00069522
0.000693793
0.00069201
0.000689869
0.000687375
0.000684542
0.000681387
0.000677929
0.000674179
0.00067014
0.000665801
0.000661149
0.000656152
0.0006508
0.000645049
0.000638992
0.000632782
0.000628529
0.000714776
0.000715346
0.000715706
0.000715833
0.000715705
0.000715301
0.000714603
0.000713593
0.000712258
0.000710589
0.000708579
0.00070623
0.000703548
0.000700546
0.000697239
0.000693634
0.000689733
0.000685528
0.000681001
0.000676126
0.000670883
0.000665245
0.000659261
0.000653133
0.000648663
0.000731146
0.000731586
0.000731852
0.00073192
0.000731765
0.000731368
0.000730706
0.000729761
0.000728517
0.000726959
0.000725079
0.000722873
0.000720342
0.000717496
0.000714342
0.000710888
0.000707131
0.000703064
0.000698669
0.000693922
0.000688796
0.000683275
0.000677372
0.000671325
0.000666666
0.000745468
0.0007458
0.000745987
0.000746005
0.000745831
0.000745443
0.000744819
0.000743938
0.000742781
0.000741332
0.000739579
0.000737513
0.000735132
0.000732439
0.00072944
0.000726137
0.000722527
0.000718602
0.000714341
0.000709725
0.00070472
0.000699318
0.0006935
0.000687532
0.000682712
0.000757933
0.000758176
0.000758297
0.000758275
0.000758087
0.000757712
0.000757125
0.000756306
0.000755234
0.00075389
0.000752259
0.000750329
0.000748093
0.000745551
0.000742703
0.00073955
0.000736086
0.000732301
0.000728176
0.000723691
0.000718806
0.000713522
0.000707793
0.000701901
0.000696943
0.000768707
0.000768876
0.000768944
0.000768891
0.000768695
0.000768334
0.000767785
0.000767025
0.000766034
0.000764789
0.000763274
0.000761473
0.000759377
0.000756979
0.000754278
0.00075127
0.000747948
0.000744301
0.000740307
0.00073595
0.000731183
0.000726014
0.000720372
0.000714554
0.000709479
0.000777937
0.000778047
0.000778072
0.000777995
0.000777794
0.00077745
0.000776938
0.000776235
0.000775319
0.000774168
0.000772761
0.000771081
0.000769115
0.000766854
0.000764291
0.00076142
0.000758233
0.000754716
0.000750849
0.000746613
0.00074196
0.0007369
0.000731343
0.000725594
0.000720423
0.000785751
0.000785814
0.000785806
0.000785711
0.00078551
0.000785182
0.000784705
0.000784056
0.000783209
0.000782143
0.000780836
0.000779267
0.00077742
0.000775284
0.000772849
0.000770106
0.000767043
0.000763649
0.000759899
0.000755776
0.000751229
0.00074627
0.000740793
0.000735107
0.000729857
0.000792263
0.000792288
0.000792255
0.000792147
0.000791949
0.000791638
0.000791194
0.000790592
0.000789809
0.000788819
0.0007876
0.00078613
0.00078439
0.000782366
0.000780045
0.000777416
0.000774466
0.000771181
0.000767537
0.000763517
0.000759066
0.000754198
0.000748794
0.000743165
0.000737852
0.000797568
0.000797565
0.000797512
0.000797397
0.000797202
0.000796908
0.000796493
0.000795934
0.000795205
0.000794282
0.000793139
0.000791755
0.000790107
0.00078818
0.000785957
0.000783427
0.000780575
0.000777386
0.000773833
0.000769902
0.000765535
0.000760746
0.000755407
0.000749826
0.000744464
0.000801747
0.000801723
0.000801657
0.000801537
0.000801348
0.000801069
0.00080068
0.000800156
0.000799473
0.000798604
0.000797525
0.000796211
0.000794639
0.000792791
0.00079065
0.000788202
0.00078543
0.000782319
0.000778843
0.000774985
0.000770688
0.000765966
0.000760681
0.00075514
0.000749741
0.000804865
0.000804827
0.000804753
0.000804632
0.000804448
0.000804182
0.000803814
0.000803318
0.000802671
0.000801846
0.000800815
0.000799555
0.000798041
0.000796253
0.000794174
0.000791788
0.000789078
0.000786028
0.00078261
0.00077881
0.000774567
0.000769895
0.000764653
0.000759142
0.000753718
0.000806971
0.000806925
0.000806848
0.000806728
0.00080655
0.000806295
0.000805942
0.000805468
0.000804846
0.00080405
0.000803053
0.000801829
0.000800354
0.000798607
0.000796569
0.000794225
0.000791556
0.000788546
0.00078517
0.000781408
0.000777203
0.000772566
0.000767353
0.000761861
0.000756422
0.0008081
0.000808053
0.000807976
0.00080786
0.000807687
0.00080744
0.000807098
0.000806636
0.000806029
0.000805249
0.000804269
0.000803063
0.000801607
0.00079988
0.000797862
0.000795537
0.000792889
0.0007899
0.000786543
0.000782802
0.000778616
0.000773997
0.000768801
0.000763316
0.000757872
0.000808287
0.000808245
0.000808174
0.000808064
0.000807897
0.000807656
0.000807319
0.000806862
0.000806258
0.00080548
0.000804501
0.000803295
0.000801838
0.000800108
0.000798088
0.000795761
0.00079311
0.00079012
0.000786764
0.000783023
0.000778839
0.00077422
0.000769027
0.000763538
0.000758096
0.000807116
0.000807089
0.000807031
0.00080693
0.000806769
0.000806531
0.000806191
0.000805727
0.00080511
0.000804314
0.000803313
0.000802079
0.000800591
0.000798827
0.000796772
0.00079441
0.000791727
0.000788705
0.000785319
0.00078155
0.000777341
0.000772698
0.000767486
0.000761979
0.000756546
0.000804547
0.000804544
0.000804505
0.000804417
0.000804263
0.000804022
0.000803672
0.000803188
0.000802542
0.000801708
0.00080066
0.000799372
0.000797823
0.000795996
0.000793874
0.000791447
0.000788699
0.000785615
0.000782171
0.000778347
0.000774087
0.000769395
0.000764143
0.000758603
0.000753188
0.000800525
0.000800556
0.000800544
0.000800473
0.000800325
0.000800078
0.00079971
0.000799193
0.000798502
0.00079761
0.000796492
0.000795125
0.000793488
0.000791567
0.00078935
0.000786827
0.000783986
0.000780813
0.000777283
0.000773378
0.000769043
0.000764281
0.000758968
0.000753382
0.000747993
0.000794963
0.00079504
0.000795062
0.000795013
0.000794872
0.000794616
0.000794221
0.000793661
0.00079291
0.000791941
0.000790732
0.00078926
0.000787509
0.000785468
0.000783129
0.000780484
0.000777523
0.000774235
0.000770596
0.000766586
0.000762153
0.0007573
0.000751908
0.000746266
0.000740913
0.000787742
0.000787878
0.000787945
0.000787923
0.00078779
0.000787523
0.000787095
0.000786481
0.000785655
0.000784592
0.000783271
0.000781674