/*--------------------------------*- C++ -*----------------------------------*\
  =========                 |
  \\      /  F ield         | OpenFOAM: The Open Source CFD Toolbox
   \\    /   O peration     | Website:  https://openfoam.org
    \\  /    A nd           | Version:  6
     \\/     M anipulation  |
\*---------------------------------------------------------------------------*/
FoamFile
{
    version     2.0;
    format      ascii;
    class       volScalarField;
    location    "0.07";
    object      p;
}
// * * * * * * * * * * * * * * * * * * * * * * * * * * * * * * * * * * * * * //

dimensions      [0 2 -2 0 0 0 0];

internalField   nonuniform List<scalar> 
3080
(
0.184268
0.184126
0.183985
0.183843
0.183702
0.183562
0.183422
0.183282
0.183144
0.183007
0.182871
0.182738
0.182608
0.182483
0.182363
0.182251
0.182149
0.182062
0.181993
0.181949
0.18194
0.181978
0.182081
0.18228
0.182619
0.183174
0.184098
0.185626
0.188523
0.192996
0.184254
0.184112
0.183971
0.18383
0.183689
0.183548
0.183408
0.183269
0.183131
0.182994
0.182859
0.182726
0.182597
0.182472
0.182353
0.182242
0.182142
0.182056
0.181989
0.181947
0.181941
0.181982
0.18209
0.182293
0.182634
0.183182
0.184073
0.18548
0.188042
0.191729
0.184244
0.184102
0.183961
0.18382
0.183679
0.183539
0.183399
0.18326
0.183122
0.182985
0.18285
0.182718
0.182589
0.182465
0.182347
0.182237
0.182137
0.182053
0.181988
0.181949
0.181945
0.181989
0.1821
0.182305
0.182645
0.183182
0.184031
0.185304
0.187449
0.190028
0.184237
0.184095
0.183954
0.183813
0.183672
0.183532
0.183392
0.183253
0.183115
0.182979
0.182844
0.182711
0.182583
0.182458
0.18234
0.18223
0.18213
0.182045
0.18198
0.18194
0.181934
0.181975
0.182081
0.182276
0.182596
0.183093
0.183853
0.184937
0.186605
0.188311
0.184231
0.184089
0.183948
0.183807
0.183666
0.183526
0.183386
0.183247
0.183109
0.182972
0.182837
0.182704
0.182575
0.18245
0.182331
0.18222
0.182119
0.182032
0.181963
0.181919
0.181907
0.18194
0.182033
0.182206
0.182491
0.182925
0.18357
0.184443
0.185679
0.186746
0.184225
0.184084
0.183942
0.183801
0.183661
0.18352
0.18338
0.183241
0.183103
0.182965
0.18283
0.182696
0.182566
0.18244
0.18232
0.182206
0.182103
0.182012
0.181939
0.181888
0.181867
0.181887
0.18196
0.182104
0.182343
0.182703
0.18322
0.183886
0.184757
0.185346
0.184219
0.184078
0.183937
0.183796
0.183655
0.183515
0.183375
0.183235
0.183096
0.182958
0.182822
0.182688
0.182556
0.182429
0.182306
0.18219
0.182083
0.181988
0.181908
0.181849
0.181816
0.181819
0.181868
0.181977
0.182163
0.182441
0.182831
0.183303
0.183867
0.184089
0.184214
0.184073
0.183932
0.183791
0.18365
0.183509
0.183369
0.183229
0.18309
0.182951
0.182814
0.182679
0.182546
0.182416
0.182291
0.182171
0.18206
0.181959
0.181871
0.181802
0.181755
0.181738
0.18176
0.18183
0.181958
0.182153
0.182418
0.182714
0.183021
0.182962
0.184209
0.184067
0.183926
0.183786
0.183645
0.183504
0.183363
0.183223
0.183083
0.182944
0.182805
0.182669
0.182534
0.182402
0.182274
0.182151
0.182034
0.181926
0.18183
0.181748
0.181686
0.181647
0.181639
0.181667
0.181737
0.181849
0.181997
0.182134
0.182227
0.18195
0.184203
0.184062
0.183921
0.18378
0.183639
0.183498
0.183357
0.183217
0.183076
0.182936
0.182796
0.182658
0.182521
0.182387
0.182255
0.182128
0.182006
0.181891
0.181784
0.18169
0.18161
0.181549
0.181509
0.181495
0.181506
0.181538
0.181577
0.181574
0.181488
0.181041
0.184198
0.184057
0.183916
0.183775
0.183634
0.183493
0.183352
0.18321
0.183069
0.182928
0.182787
0.182647
0.182508
0.182371
0.182236
0.182104
0.181975
0.181852
0.181736
0.181628
0.18153
0.181445
0.181373
0.181316
0.18127
0.181226
0.181166
0.181039
0.180804
0.180223
0.184052
0.183911
0.18377
0.183629
0.183488
0.183346
0.183204
0.183062
0.18292
0.182778
0.182636
0.182495
0.182355
0.182216
0.182078
0.181944
0.181812
0.181685
0.181563
0.181447
0.181337
0.181234
0.181135
0.181034
0.180919
0.180769
0.180534
0.180175
0.179487
0.184047
0.183906
0.183765
0.183624
0.183482
0.18334
0.183198
0.183055
0.182912
0.182768
0.182625
0.182481
0.182338
0.182195
0.182052
0.181911
0.181771
0.181633
0.181496
0.181362
0.181228
0.181093
0.180954
0.180801
0.180621
0.180389
0.180061
0.179597
0.178824
0.184042
0.183901
0.18376
0.183619
0.183477
0.183334
0.183191
0.183048
0.182903
0.182758
0.182613
0.182467
0.18232
0.182173
0.182026
0.181878
0.181729
0.18158
0.181429
0.181276
0.181119
0.180955
0.180776
0.180575
0.180335
0.180031
0.179621
0.179069
0.178227
0.184036
0.183896
0.183755
0.183614
0.183472
0.183329
0.183185
0.18304
0.182895
0.182749
0.182601
0.182453
0.182303
0.182152
0.182
0.181845
0.181688
0.181528
0.181363
0.181192
0.181013
0.180819
0.180605
0.180359
0.180064
0.179696
0.179216
0.178589
0.17769
0.184031
0.183891
0.18375
0.183609
0.183466
0.183323
0.183179
0.183033
0.182887
0.182739
0.18259
0.182439
0.182286
0.182131
0.181974
0.181812
0.181647
0.181476
0.181298
0.18111
0.180909
0.180688
0.18044
0.180153
0.179809
0.179385
0.178843
0.178153
0.177209
0.184026
0.183886
0.183745
0.183603
0.183461
0.183317
0.183172
0.183026
0.182879
0.18273
0.182579
0.182426
0.18227
0.182111
0.181948
0.181781
0.181608
0.181427
0.181236
0.181032
0.18081
0.180564
0.180286
0.179961
0.179573
0.179099
0.178505
0.177761
0.176779
0.18402
0.183881
0.18374
0.183598
0.183456
0.183312
0.183167
0.18302
0.182871
0.182721
0.182568
0.182413
0.182254
0.182092
0.181925
0.181751
0.181571
0.18138
0.181178
0.180959
0.180718
0.180449
0.180143
0.179785
0.179358
0.17884
0.1782
0.177411
0.176397
0.184015
0.183876
0.183735
0.183594
0.183451
0.183307
0.183161
0.183014
0.182864
0.182713
0.182559
0.182401
0.18224
0.182074
0.181903
0.181724
0.181537
0.181338
0.181124
0.180891
0.180634
0.180344
0.180012
0.179625
0.179164
0.178608
0.177929
0.177101
0.17606
0.18401
0.183871
0.183731
0.183589
0.183446
0.183302
0.183156
0.183008
0.182858
0.182705
0.18255
0.182391
0.182227
0.182058
0.181883
0.181699
0.181505
0.181299
0.181075
0.18083
0.180558
0.18025
0.179895
0.179482
0.178991
0.178403
0.17769
0.176829
0.175766
0.184006
0.183867
0.183726
0.183585
0.183442
0.183297
0.183151
0.183003
0.182852
0.182698
0.182542
0.182381
0.182215
0.182044
0.181865
0.181677
0.181478
0.181264
0.181031
0.180776
0.18049
0.180166
0.179792
0.179356
0.178839
0.178223
0.177482
0.176593
0.175513
0.184001
0.183862
0.183722
0.183581
0.183438
0.183293
0.183147
0.182998
0.182847
0.182692
0.182534
0.182372
0.182205
0.182031
0.181849
0.181657
0.181453
0.181233
0.180993
0.180728
0.180431
0.180093
0.179702
0.179247
0.178709
0.17807
0.177305
0.176393
0.175298
0.183996
0.183858
0.183718
0.183577
0.183434
0.183289
0.183143
0.182994
0.182842
0.182687
0.182528
0.182365
0.182196
0.18202
0.181835
0.18164
0.181432
0.181207
0.180961
0.180688
0.180381
0.180031
0.179627
0.179156
0.1786
0.177941
0.177157
0.176227
0.17512
0.183992
0.183854
0.183714
0.183573
0.18343
0.183286
0.183139
0.18299
0.182837
0.182682
0.182522
0.182358
0.182188
0.18201
0.181824
0.181626
0.181415
0.181185
0.180934
0.180655
0.18034
0.179981
0.179566
0.179082
0.178512
0.177838
0.177039
0.176094
0.174978
0.183988
0.18385
0.183711
0.18357
0.183427
0.183282
0.183135
0.182986
0.182834
0.182678
0.182518
0.182353
0.182182
0.182003
0.181815
0.181615
0.181401
0.181169
0.180913
0.180629
0.180308
0.179942
0.179519
0.179025
0.178445
0.17776
0.17695
0.175994
0.174871
0.183984
0.183846
0.183707
0.183566
0.183424
0.183279
0.183132
0.182983
0.182831
0.182674
0.182514
0.182348
0.182177
0.181997
0.181808
0.181607
0.181391
0.181156
0.180898
0.180611
0.180286
0.179915
0.179486
0.178986
0.178399
0.177706
0.176889
0.175926
0.174798
0.183979
0.183842
0.183704
0.183563
0.183421
0.183276
0.18313
0.18298
0.182828
0.182672
0.182511
0.182345
0.182173
0.181993
0.181803
0.181601
0.181385
0.181149
0.180889
0.1806
0.180273
0.179899
0.179467
0.178964
0.178373
0.177677
0.176855
0.175889
0.174759
0.183975
0.183838
0.1837
0.18356
0.183418
0.183274
0.183127
0.182978
0.182825
0.182669
0.182509
0.182343
0.182171
0.181991
0.181801
0.181599
0.181382
0.181145
0.180886
0.180596
0.180269
0.179895
0.179463
0.178959
0.178368
0.177671
0.17685
0.175884
0.174753
0.18397
0.183834
0.183696
0.183556
0.183415
0.183271
0.183124
0.182975
0.182823
0.182667
0.182507
0.182342
0.18217
0.18199
0.181801
0.1816
0.181383
0.181148
0.18089
0.180602
0.180277
0.179906
0.179477
0.178977
0.178391
0.1777
0.176883
0.175922
0.174794
0.183965
0.18383
0.183692
0.183553
0.183412
0.183268
0.183122
0.182974
0.182822
0.182667
0.182507
0.182342
0.182171
0.181992
0.181804
0.181604
0.18139
0.181158
0.180902
0.180618
0.180298
0.179933
0.179512
0.17902
0.178443
0.177762
0.176957
0.176006
0.174884
0.183961
0.183825
0.183688
0.18355
0.183409
0.183266
0.18312
0.182972
0.182821
0.182667
0.182508
0.182344
0.182174
0.181997
0.181811
0.181613
0.181402
0.181173
0.180923
0.180645
0.180332
0.179976
0.179566
0.179088
0.178525
0.17786
0.17707
0.176136
0.175024
0.183956
0.183821
0.183685
0.183547
0.183406
0.183264
0.183119
0.182972
0.182821
0.182667
0.18251
0.182347
0.182179
0.182003
0.18182
0.181626
0.181419
0.181195
0.180951
0.180681
0.180379
0.180035
0.17964
0.179179
0.178636
0.177992
0.177225
0.176312
0.175213
0.183951
0.183817
0.183681
0.183544
0.183404
0.183262
0.183118
0.182971
0.182822
0.182669
0.182512
0.182351
0.182185
0.182012
0.181832
0.181642
0.18144
0.181223
0.180987
0.180727
0.180438
0.18011
0.179732
0.179293
0.178776
0.178159
0.17742
0.176536
0.175455
0.183947
0.183813
0.183678
0.183541
0.183402
0.183261
0.183117
0.182972
0.182823
0.182671
0.182516
0.182357
0.182193
0.182023
0.181847
0.181661
0.181465
0.181256
0.18103
0.180782
0.180508
0.180198
0.179844
0.179431
0.178944
0.178362
0.177658
0.17681
0.175751
0.183942
0.18381
0.183675
0.183538
0.1834
0.18326
0.183117
0.182972
0.182825
0.182675
0.182521
0.182364
0.182203
0.182036
0.181864
0.181684
0.181494
0.181294
0.181079
0.180845
0.180588
0.1803
0.179972
0.179591
0.17914
0.178599
0.177938
0.177134
0.176104
0.183938
0.183806
0.183672
0.183536
0.183398
0.183259
0.183117
0.182973
0.182827
0.182678
0.182527
0.182372
0.182213
0.182051
0.181883
0.181709
0.181527
0.181336
0.181134
0.180916
0.180678
0.180415
0.180117
0.179772
0.179364
0.178872
0.178262
0.177512
0.176517
0.183934
0.183802
0.183669
0.183534
0.183397
0.183258
0.183117
0.182975
0.18283
0.182683
0.182533
0.182381
0.182225
0.182066
0.181904
0.181736
0.181563
0.181382
0.181193
0.180993
0.180777
0.180541
0.180276
0.179973
0.179614
0.179179
0.178631
0.177946
0.176994
0.18393
0.183799
0.183666
0.183532
0.183395
0.183258
0.183118
0.182976
0.182833
0.182687
0.18254
0.18239
0.182238
0.182083
0.181926
0.181765
0.181601
0.181431
0.181257
0.181074
0.180882
0.180676
0.180449
0.180192
0.179889
0.17952
0.179044
0.178439
0.177541
0.183926
0.183796
0.183664
0.18353
0.183394
0.183257
0.183119
0.182978
0.182836
0.182692
0.182547
0.1824
0.182251
0.182101
0.181949
0.181795
0.18164
0.181482
0.181322
0.18116
0.180992
0.180818
0.180631
0.180426
0.180186
0.179893
0.179502
0.178993
0.178162
0.183922
0.183793
0.183661
0.183528
0.183394
0.183257
0.18312
0.18298
0.18284
0.182698
0.182554
0.18241
0.182265
0.182119
0.181972
0.181826
0.181679
0.181534
0.18139
0.181247
0.181105
0.180964
0.180821
0.180671
0.180501
0.180295
0.180004
0.179614
0.178865
0.183919
0.18379
0.183659
0.183527
0.183393
0.183258
0.183121
0.182983
0.182843
0.182703
0.182562
0.18242
0.182279
0.182137
0.181996
0.181857
0.18172
0.181586
0.181457
0.181335
0.18122
0.181114
0.181017
0.180926
0.180833
0.180726
0.18055
0.180305
0.17966
0.183915
0.183787
0.183657
0.183525
0.183392
0.183258
0.183122
0.182985
0.182847
0.182709
0.18257
0.182431
0.182292
0.182155
0.18202
0.181887
0.181759
0.181638
0.181524
0.181422
0.181334
0.181263
0.181213
0.181186
0.181175
0.18118
0.181136
0.181074
0.180553
0.183913
0.183785
0.183656
0.183525
0.183392
0.183259
0.183124
0.182988
0.182851
0.182715
0.182578
0.182441
0.182306
0.182172
0.182042
0.181916
0.181796
0.181685
0.181586
0.181503
0.181439
0.181403
0.181398
0.181434
0.181507
0.181631
0.181729
0.18189
0.181508
0.18391
0.183783
0.183655
0.183524
0.183393
0.18326
0.183126
0.182991
0.182855
0.18272
0.182585
0.18245
0.182317
0.182187
0.182061
0.181941
0.181828
0.181727
0.18164
0.181573
0.181531
0.181524
0.18156
0.181654
0.181805
0.182049
0.182288
0.182704
0.182468
0.183909
0.183782
0.183654
0.183524
0.183393
0.183261
0.183128
0.182994
0.182859
0.182725
0.182591
0.182459
0.182328
0.182201
0.182078
0.181963
0.181856
0.181762
0.181685
0.181632
0.181609
0.181627
0.181698
0.181843
0.182065
0.182426
0.182801
0.1835
0.183418
0.183908
0.183782
0.183654
0.183525
0.183394
0.183262
0.18313
0.182996
0.182863
0.182729
0.182597
0.182466
0.182337
0.182212
0.182093
0.181981
0.181879
0.181791
0.181723
0.18168
0.181672
0.181712
0.181812
0.182002
0.182284
0.182757
0.183258
0.184268
0.184345
0.183907
0.183781
0.183654
0.183525
0.183394
0.183263
0.183131
0.182998
0.182865
0.182732
0.182601
0.182471
0.182343
0.18222
0.182103
0.181993
0.181895
0.181812
0.18175
0.181715
0.181719
0.181774
0.181897
0.182125
0.182458
0.183033
0.183646
0.184987
0.185227
0.183907
0.183781
0.183654
0.183525
0.183395
0.183264
0.183132
0.182999
0.182867
0.182734
0.182603
0.182474
0.182347
0.182225
0.182109
0.182002
0.181906
0.181826
0.181768
0.181739
0.18175
0.181817
0.181957
0.182213
0.182584
0.183249
0.183958
0.185637
0.186051
0.183781
0.183654
0.183525
0.183395
0.183264
0.183133
0.183
0.182868
0.182736
0.182605
0.182476
0.18235
0.182228
0.182113
0.182007
0.181912
0.181834
0.181779
0.181754
0.181769
0.181845
0.181995
0.182272
0.182671
0.183411
0.184199
0.186207
0.186815
0.183782
0.183655
0.183526
0.183396
0.183265
0.183133
0.183001
0.182869
0.182737
0.182606
0.182477
0.182351
0.18223
0.182115
0.182009
0.181915
0.181838
0.181784
0.181761
0.181779
0.181859
0.182015
0.182306
0.182723
0.18352
0.184372
0.186685
0.187515
0.183783
0.183655
0.183527
0.183397
0.183266
0.183134
0.183001
0.182869
0.182737
0.182606
0.182478
0.182352
0.18223
0.182116
0.18201
0.181916
0.181839
0.181785
0.181762
0.181781
0.181862
0.182021
0.182319
0.182746
0.183582
0.184483
0.187062
0.188149
0.183783
0.183656
0.183527
0.183397
0.183266
0.183134
0.183002
0.182869
0.182737
0.182606
0.182477
0.182351
0.18223
0.182115
0.182008
0.181914
0.181837
0.181782
0.181758
0.181777
0.181857
0.182016
0.182315
0.182745
0.183603
0.184539
0.187332
0.188717
0.183784
0.183657
0.183528
0.183398
0.183266
0.183134
0.183002
0.182869
0.182737
0.182606
0.182476
0.18235
0.182228
0.182113
0.182006
0.181911
0.181833
0.181776
0.181751
0.181768
0.181846
0.182001
0.182297
0.182725
0.183587
0.184547
0.18749
0.189218
0.183785
0.183657
0.183528
0.183398
0.183266
0.183134
0.183001
0.182869
0.182736
0.182605
0.182475
0.182348
0.182226
0.18211
0.182002
0.181906
0.181826
0.181769
0.181741
0.181755
0.181829
0.18198
0.182269
0.182689
0.18354
0.184512
0.187529
0.18965
0.183785
0.183658
0.183529
0.183398
0.183267
0.183134
0.183001
0.182868
0.182735
0.182604
0.182474
0.182346
0.182223
0.182106
0.181998
0.181901
0.181819
0.18176
0.18173
0.18174
0.181809
0.181953
0.182232
0.182643
0.183468
0.184441
0.187444
0.19001
0.183788
0.18366
0.183531
0.1834
0.183269
0.183136
0.183003
0.18287
0.182737
0.182605
0.182474
0.182347
0.182223
0.182105
0.181996
0.181897
0.181814
0.181753
0.18172
0.181726
0.181791
0.181928
0.182196
0.182596
0.183391
0.184357
0.187273
0.190293
0.183792
0.183664
0.183535
0.183404
0.183272
0.18314
0.183006
0.182873
0.18274
0.182607
0.182477
0.182349
0.182225
0.182107
0.181997
0.181898
0.181814
0.181751
0.181716
0.181721
0.181782
0.181916
0.182177
0.18257
0.183347
0.184308
0.187156
0.190475
0.20351
0.194465
0.185342
0.181162
0.177942
0.17395
0.16974
0.165629
0.161442
0.157034
0.152369
0.147405
0.142086
0.136355
0.130156
0.123409
0.116059
0.107945
0.0991267
0.0890442
0.0785703
0.0649964
0.0539162
0.0309409
0.0276144
0.197981
0.191166
0.183767
0.180008
0.176872
0.173008
0.168923
0.164884
0.160735
0.156352
0.151704
0.146752
0.141439
0.135706
0.129499
0.122738
0.115371
0.107234
0.0983952
0.0882811
0.0777925
0.0641587
0.0530953
0.0299382
0.0268202
0.193488
0.188626
0.18263
0.179004
0.175815
0.172054
0.168089
0.164111
0.159992
0.155632
0.150999
0.146055
0.140743
0.135004
0.128784
0.122003
0.114614
0.106445
0.0975852
0.087417
0.0769387
0.0631701
0.052257
0.0286582
0.0262009
0.190311
0.186588
0.181618
0.178115
0.1749
0.171232
0.167366
0.163437
0.159343
0.155002
0.150382
0.145442
0.14013
0.134384
0.128153
0.121353
0.113944
0.105745
0.096868
0.0866404
0.0761862
0.0622585
0.0515549
0.0274415
0.0258845
0.187857
0.184796
0.180614
0.177281
0.174087
0.170513
0.166734
0.16285
0.158781
0.154459
0.14985
0.144916
0.139602
0.133851
0.12761
0.120795
0.11337
0.105142
0.0962527
0.0859686
0.0755447
0.0614611
0.0509805
0.0263866
0.0257737
0.185838
0.183204
0.179629
0.17648
0.173336
0.169854
0.166158
0.16232
0.158277
0.153974
0.149378
0.144448
0.139135
0.133379
0.12713
0.120301
0.112862
0.104609
0.0957104
0.0853735
0.074983
0.0607523
0.0504954
0.0254696
0.0257799
0.184145
0.181806
0.178687
0.175709
0.172633
0.169242
0.165624
0.161831
0.157817
0.153534
0.148951
0.144027
0.138714
0.132955
0.126698
0.119857
0.112407
0.10413
0.0952247
0.0848382
0.0744833
0.0601137
0.0500792
0.0246607
0.0258623
0.182709
0.180579
0.177797
0.174973
0.171973
0.168668
0.165124
0.161377
0.157393
0.153132
0.148562
0.143645
0.138333
0.132571
0.126309
0.119457
0.111996
0.103698
0.0947874
0.0843545
0.0740365
0.0595364
0.0497212
0.0239433
0.0259996
0.181475
0.179495
0.176964
0.174274
0.171353
0.16813
0.164655
0.160954
0.157001
0.152762
0.148206
0.143296
0.137987
0.132223
0.125956
0.119094
0.111624
0.103307
0.0943927
0.0839164
0.0736361
0.059014
0.0494131
0.023306
0.026175
0.180402
0.178531
0.176189
0.173615
0.170771
0.167625
0.164215
0.160559
0.156637
0.15242
0.147879
0.142977
0.137671
0.131906
0.125634
0.118765
0.111287
0.102952
0.0940354
0.0835189
0.0732763
0.0585408
0.0491473
0.022739
0.0263752
0.17946
0.177671
0.175471
0.172996
0.170226
0.167152
0.163801
0.160189
0.156298
0.152104
0.147578
0.142684
0.137382
0.131616
0.125342
0.118465
0.110981
0.10263
0.0937113
0.0831575
0.0729521
0.0581117
0.0489173
0.0222339
0.0265896
0.178628
0.176901
0.174809
0.172419
0.169717
0.166708
0.163414
0.159843
0.155983
0.151811
0.1473
0.142416
0.137117
0.131352
0.125075
0.118192
0.110702
0.102336
0.0934169
0.0828288
0.0726597
0.0577228
0.048718
0.0217837
0.0268105
0.177888
0.176211
0.174201
0.171882
0.169243
0.166294
0.163051
0.15952
0.15569
0.15154
0.147044
0.142169
0.136875
0.131111
0.124832
0.117943
0.110448
0.102069
0.0931496
0.0825299
0.0723957
0.0573707
0.0485451
0.0213825
0.0270318
0.177229
0.175591
0.173645
0.171387
0.168804
0.165909
0.162714
0.15922
0.155419
0.15129
0.146809
0.141943
0.136654
0.130891
0.124611
0.117717
0.110218
0.101826
0.092907
0.0822587
0.0721576
0.0570525
0.0483947
0.0210255
0.027249
0.176641
0.175034
0.173139
0.170932
0.168399
0.165553
0.162401
0.158942
0.155168
0.15106
0.146593
0.141736
0.136453
0.130691
0.12441
0.117512
0.110008
0.101606
0.0926873
0.082013
0.0719431
0.0567657
0.048264
0.0207085
0.0274582
0.176117
0.174536
0.17268
0.170516
0.168028
0.165225
0.162112
0.158686
0.154938
0.150849
0.146396
0.141548
0.13627
0.130509
0.124228
0.117326
0.109819
0.101407
0.0924889
0.0817913
0.0717502
0.0565083
0.0481501
0.0204283
0.0276567
0.175651
0.174091
0.172267
0.170139
0.167689
0.164926
0.161848
0.158452
0.154727
0.150656
0.146216
0.141378
0.136104
0.130346
0.124064
0.117159
0.109649
0.101229
0.0923104
0.0815922
0.0715774
0.0562785
0.048051
0.0201818
0.0278422
0.175238
0.173696
0.171896
0.169799
0.167383
0.164654
0.161608
0.158239
0.154536
0.150482
0.146055
0.141224
0.135955
0.130199
0.123917
0.117009
0.109497
0.101069
0.0921507
0.0814144
0.0714232
0.0560748
0.0479645
0.0199667
0.0280128
0.174874
0.173347
0.171568
0.169495
0.167109
0.16441
0.161392
0.158047
0.154364
0.150325
0.14591
0.141087
0.135823
0.130068
0.123786
0.116876
0.109361
0.100927
0.0920089
0.0812571
0.0712865
0.0558957
0.0478891
0.019781
0.0281672
0.174556
0.173042
0.171279
0.169227
0.166867
0.164193
0.1612
0.157876
0.154211
0.150187
0.145781
0.140965
0.135705
0.129953
0.123671
0.116759
0.109242
0.100802
0.0918839
0.0811192
0.0711662
0.0557403
0.0478234
0.0196231
0.0283041
0.174282
0.172778
0.171028
0.168994
0.166655
0.164004
0.161031
0.157727
0.154077
0.150065
0.145669
0.140859
0.135603
0.129853
0.123571
0.116657
0.109139
0.100693
0.0917752
0.081
0.0710613
0.0556074
0.0477659
0.0194914
0.0284227
0.174049
0.172555
0.170815
0.168795
0.166474
0.163841
0.160887
0.157598
0.153962
0.149961
0.145573
0.140769
0.135516
0.129767
0.123485
0.11657
0.10905
0.100601
0.0916821
0.0808989
0.0709711
0.0554962
0.0477157
0.019385
0.0285221
0.173857
0.17237
0.170638
0.16863
0.166323
0.163705
0.160765
0.15749
0.153865
0.149873
0.145492
0.140693
0.135443
0.129695
0.123414
0.116498
0.108976
0.100524
0.0916041
0.0808153
0.070895
0.0554062
0.0476718
0.0193029
0.0286019
0.173704
0.172223
0.170497
0.168497
0.166201
0.163596
0.160668
0.157403
0.153787
0.149803
0.145427
0.140631
0.135384
0.129637
0.123356
0.11644
0.108916
0.100462
0.0915407
0.0807488
0.0708326
0.0553363
0.0476342
0.0192433
0.0286632
0.173589
0.172111
0.17039
0.168397
0.166109
0.163513
0.160594
0.157337
0.153728
0.149749
0.145377
0.140584
0.135339
0.129593
0.123312
0.116395
0.10887
0.100415
0.0914917
0.0806988
0.0707836
0.0552856
0.047603
0.0192043
0.0287078
0.17351
0.172036
0.170318
0.168328
0.166046
0.163456
0.160542
0.157291
0.153687
0.149711
0.145342
0.140551
0.135307
0.129562
0.12328
0.116364
0.108837
0.100383
0.0914564
0.0806655
0.0707466
0.0552559
0.0475737
0.0191922
0.0287261
0.173469
0.171996
0.170279
0.168292
0.166013
0.163425
0.160515
0.157266
0.153664
0.14969
0.145322
0.140533
0.135289
0.129544
0.123262
0.116346
0.108818
0.100365
0.0914333
0.0806517
0.0707159
0.0552574
0.0475267
0.0192404
0.0286725
0.173465
0.171992
0.170275
0.168288
0.166009
0.163421
0.160511
0.157262
0.15366
0.149686
0.145318
0.140528
0.135285
0.12954
0.123257
0.116342
0.108811
0.100364
0.0914214
0.0806597
0.0706871
0.0552991
0.0474462
0.0193767
0.0285113
0.173513
0.172036
0.170317
0.168328
0.166045
0.163453
0.160538
0.157286
0.15368
0.149704
0.145334
0.140543
0.135298
0.129553
0.12327
0.116355
0.108823
0.100379
0.091432
0.0806824
0.0706898
0.05534
0.0474211
0.0194595
0.0284354
0.173613
0.172132
0.170408
0.168413
0.166123
0.163523
0.1606
0.157339
0.153727
0.149746
0.145372
0.140578
0.135331
0.129586
0.123302
0.116388
0.108856
0.100414
0.0914655
0.0807223
0.070722
0.0553874
0.0474407
0.0195089
0.028417
0.173768
0.17228
0.170549
0.168545
0.166243
0.16363
0.160694
0.157423
0.153801
0.149811
0.145432
0.140634
0.135384
0.129637
0.123353
0.11644
0.108908
0.100469
0.091521
0.0807831
0.0707786
0.0554527
0.0474852
0.0195608
0.0284086
0.173978
0.172481
0.17074
0.168724
0.166406
0.163775
0.160823
0.157536
0.153901
0.149901
0.145513
0.14071
0.135457
0.129709
0.123424
0.116511
0.108981
0.100545
0.0915985
0.0808656
0.070859
0.0555385
0.0475517
0.019622
0.0284027
0.174246
0.172736
0.170982
0.168951
0.166612
0.163959
0.160985
0.157679
0.154028
0.150015
0.145618
0.140808
0.135551
0.1298
0.123515
0.116603
0.109076
0.100642
0.0916989
0.0809702
0.0709643
0.055645
0.0476423
0.0196918
0.0284036
0.174575
0.173049
0.171277
0.169226
0.166861
0.16418
0.161181
0.157852
0.154181
0.150153
0.145745
0.140927
0.135665
0.129912
0.123627
0.116717
0.109191
0.100762
0.0918228
0.0810979
0.0710956
0.0557728
0.0477592
0.0197701
0.0284148
0.174967
0.173422
0.171628
0.169552
0.167155
0.164441
0.16141
0.158054
0.154362
0.150316
0.145895
0.141068
0.135801
0.130046
0.123761
0.116852
0.10933
0.100904
0.0919715
0.0812495
0.0712542
0.0559233
0.0479044
0.0198582
0.0284394
0.175428
0.173859
0.172036
0.169929
0.167494
0.16474
0.161674
0.158287
0.154569
0.150504
0.146068
0.141232
0.13596
0.130202
0.123917
0.117009
0.109492
0.10107
0.092146
0.0814265
0.0714418
0.0560979
0.0480805
0.0199574
0.0284809
0.175964
0.174364
0.172504
0.170359
0.167879
0.165079
0.161972
0.158551
0.154804
0.150717
0.146266
0.14142
0.136142
0.130381
0.124097
0.117192
0.10968
0.101262
0.092348
0.0816301
0.0716603
0.0562984
0.0482906
0.0200695
0.0285438
0.176581
0.174942
0.173034
0.170845
0.168311
0.165458
0.162305
0.158845
0.155067
0.150957
0.14649
0.141633
0.136348
0.130585
0.124302
0.117399
0.109894
0.101481
0.0925792
0.0818622
0.0719119
0.0565267
0.0485384
0.0201965
0.0286336
0.177292
0.175602
0.173631
0.171388
0.168791
0.165876
0.162672
0.159169
0.155359
0.151224
0.146739
0.141871
0.136581
0.130816
0.124534
0.117634
0.110136
0.101729
0.0928418
0.0821249
0.0721994
0.0567853
0.0488279
0.0203416
0.0287564
0.178109
0.17635
0.174298
0.17199
0.169319
0.166334
0.163073
0.159526
0.15568
0.151519
0.147017
0.142137
0.136842
0.131074
0.124795
0.117899
0.11041
0.102008
0.0931382
0.0824207
0.0725258
0.0570776
0.0491639
0.0205094
0.0289188
0.179053
0.177197
0.175037
0.172655
0.169897
0.166833
0.163511
0.159914
0.156031
0.151844
0.147324
0.142433
0.137132
0.131364
0.125087
0.118196
0.110717
0.102321
0.093472
0.0827527
0.0728957
0.0574066
0.049554
0.020702
0.0291347
0.180156
0.178153
0.175853
0.173386
0.170525
0.167372
0.163985
0.160336
0.156415
0.152201
0.147663
0.142762
0.137456
0.131687
0.125414
0.118528
0.111061
0.102672
0.0938482
0.0831231
0.0733175
0.0577702
0.0500183
0.0209045
0.0294467
0.181411
0.179179
0.176707
0.174152
0.171175
0.167927
0.164474
0.160774
0.156815
0.152575
0.148021
0.14311
0.1378
0.132031
0.125764
0.118883
0.111431
0.103046
0.0942542
0.083515
0.0737816
0.0581443
0.0505614
0.0210799
0.0298978
0.182775
0.180215
0.177547
0.174908
0.171807
0.168466
0.164951
0.161203
0.15721
0.152947
0.148378
0.143459
0.138147
0.132378
0.126117
0.119241
0.111805
0.103424
0.0946657
0.0839111
0.0742542
0.0585238
0.0511253
0.0212687
0.0304042
0.184249
0.181246
0.178358
0.175645
0.172415
0.168984
0.165412
0.16162
0.157596
0.153313
0.148731
0.143805
0.138491
0.132724
0.126469
0.119599
0.112178
0.103803
0.095076
0.0843099
0.0747235
0.0589148
0.0516826
0.0215016
0.030917
0.185844
0.182259
0.179132
0.176357
0.172996
0.169479
0.165856
0.162024
0.157972
0.153671
0.149078
0.144147
0.138832
0.133066
0.126817
0.119954
0.112548
0.104179
0.095482
0.0847095
0.0751845
0.0593168
0.0522239
0.0217831
0.0314231
0.187571
0.183245
0.179864
0.177042
0.173551
0.169952
0.166283
0.162414
0.158337
0.154021
0.149419
0.144483
0.139167
0.133404
0.127161
0.120304
0.112913
0.104552
0.0958813
0.0851077
0.0756345
0.0597267
0.0527454
0.0221089
0.0319207
0.189433
0.184198
0.180548
0.177696
0.174079
0.170402
0.166692
0.162791
0.158692
0.154363
0.149752
0.144812
0.139496
0.133735
0.127498
0.120649
0.113271
0.10492
0.0962722
0.0855024
0.0760713
0.0601413
0.0532449
0.0224727
0.0324089
0.191426
0.185115
0.181181
0.178319
0.174582
0.170832
0.167085
0.163155
0.159037
0.154695
0.150077
0.145134
0.139818
0.134059
0.127828
0.120986
0.113621
0.10528
0.0966529
0.0858914
0.0764935
0.0605568
0.053721
0.0228675
0.032887
0.193536
0.185996
0.181763
0.178911
0.175062
0.171242
0.167461
0.163506
0.15937
0.155017
0.150394
0.145447
0.140131
0.134374
0.128149
0.121315
0.113961
0.105632
0.0970221
0.0862725
0.0768996
0.0609698
0.0541727
0.0232853
0.0333546
0.195744
0.186846
0.182295
0.179471
0.17552
0.171633
0.167822
0.163844
0.159692
0.15533
0.1507
0.14575
0.140434
0.13468
0.12846
0.121633
0.11429
0.105973
0.0973783
0.0866434
0.0772883
0.061376
0.0545992
0.023718
0.0338109
0.198022
0.187667
0.182778
0.18
0.175959
0.172006
0.168167
0.164168
0.160001
0.15563
0.150995
0.146043
0.140726
0.134974
0.128759
0.12194
0.114606
0.106302
0.0977194
0.0870013
0.0776579
0.0617714
0.0549997
0.0241566
0.034254
0.200335
0.188463
0.183218
0.180498
0.176378
0.172359
0.168495
0.164477
0.160297
0.155918
0.151278
0.146323
0.141006
0.135256
0.129045
0.122233
0.114908
0.106616
0.0980437
0.0873438
0.0780068
0.0621522
0.0553729
0.0245935
0.0346815
0.202667
0.189237
0.183626
0.18097
0.17678
0.172697
0.168808
0.164773
0.16058
0.156194
0.151549
0.146591
0.141273
0.135525
0.129317
0.122512
0.115195
0.106915
0.0983512
0.08767
0.0783351
0.0625164
0.0557193
0.0250229
0.0350933
0.205085
0.190002
0.184013
0.181419
0.177167
0.173018
0.169105
0.165055
0.16085
0.156457
0.151808
0.146847
0.141528
0.13578
0.129576
0.122778
0.115468
0.107199
0.0986413
0.087978
0.0786427
0.0628595
0.0560416
0.0254316
0.0354934
0.207638
0.190754
0.18436
0.181814
0.177512
0.173302
0.169367
0.165304
0.16109
0.156691
0.152037
0.147074
0.141754
0.136007
0.129806
0.123012
0.115708
0.107448
0.0988962
0.0882463
0.0789128
0.0631536
0.0563282
0.0257731
0.0358674
0.209812
0.19139
0.184596
0.182064
0.17774
0.173493
0.169542
0.165471
0.16125
0.156847
0.152191
0.147226
0.141905
0.136159
0.129959
0.123168
0.115867
0.107612
0.0990656
0.0884203
0.0790942
0.0633379
0.0565296
0.0259712
0.0361409
)
;

boundaryField
{
    inlet
    {
        type            zeroGradient;
    }
    outlet
    {
        type            fixedValue;
        value           uniform 0;
    }
    upperWall
    {
        type            zeroGradient;
    }
    lowerWall
    {
        type            zeroGradient;
    }
    frontAndBack
    {
        type            empty;
    }
    procBoundary0to1
    {
        type            processor;
        value           nonuniform List<scalar> 
59
(
0.18441
0.184396
0.184386
0.184379
0.184373
0.184367
0.184361
0.184355
0.18435
0.184344
0.184339
0.184193
0.184193
0.184187
0.184182
0.184176
0.184171
0.184165
0.184159
0.184154
0.184149
0.184144
0.184139
0.184134
0.184129
0.184124
0.18412
0.184115
0.18411
0.184105
0.1841
0.184094
0.184089
0.184084
0.184079
0.184074
0.184069
0.184064
0.184059
0.184054
0.18405
0.184046
0.184042
0.184039
0.184036
0.184034
0.184032
0.184031
0.184031
0.183907
0.183907
0.183907
0.183908
0.183909
0.18391
0.18391
0.183911
0.183914
0.183918
)
;
    }
}


// ************************************************************************* //
