/*--------------------------------*- C++ -*----------------------------------*\
  =========                 |
  \\      /  F ield         | OpenFOAM: The Open Source CFD Toolbox
   \\    /   O peration     | Website:  https://openfoam.org
    \\  /    A nd           | Version:  6
     \\/     M anipulation  |
\*---------------------------------------------------------------------------*/
FoamFile
{
    version     2.0;
    format      ascii;
    class       surfaceScalarField;
    location    "0.07";
    object      phi;
}
// * * * * * * * * * * * * * * * * * * * * * * * * * * * * * * * * * * * * * //

dimensions      [0 3 -1 0 0 0 0];

internalField   nonuniform List<scalar> 
6048
(
4.41841e-07
6.63623e-10
4.41172e-07
6.69059e-10
4.40497e-07
6.74852e-10
4.39816e-07
6.81049e-10
4.39128e-07
6.87728e-10
4.38433e-07
6.94971e-10
4.37731e-07
7.02892e-10
4.37019e-07
7.1162e-10
4.36298e-07
7.21337e-10
4.35565e-07
7.32272e-10
4.34821e-07
7.44743e-10
4.34061e-07
7.59154e-10
4.33285e-07
7.7606e-10
4.32489e-07
7.96185e-10
4.31669e-07
8.20529e-10
4.30818e-07
8.50434e-10
4.2993e-07
8.87741e-10
4.28995e-07
9.35038e-10
4.27999e-07
9.95987e-10
4.26924e-07
1.07591e-09
4.25741e-07
1.18279e-09
4.24412e-07
1.329e-09
4.22877e-07
1.53484e-09
4.21042e-07
1.83509e-09
4.18745e-07
2.29662e-09
4.15698e-07
3.04744e-09
4.11282e-07
4.41612e-09
4.04302e-07
6.98006e-09
3.91092e-07
1.32095e-08
2.37794e-08
3.67313e-07
4.701e-07
1.36497e-09
4.69393e-07
1.37595e-09
4.6868e-07
1.38754e-09
4.67961e-07
1.39988e-09
4.67236e-07
1.41307e-09
4.66504e-07
1.4273e-09
4.65764e-07
1.44273e-09
4.65016e-07
1.45963e-09
4.64259e-07
1.47831e-09
4.63492e-07
1.49918e-09
4.62714e-07
1.52279e-09
4.61923e-07
1.54985e-09
4.61118e-07
1.58133e-09
4.60295e-07
1.61849e-09
4.59453e-07
1.66304e-09
4.58586e-07
1.71732e-09
4.57689e-07
1.78449e-09
4.56755e-07
1.86896e-09
4.55774e-07
1.9769e-09
4.54733e-07
2.11722e-09
4.53613e-07
2.30303e-09
4.52388e-07
2.55423e-09
4.5102e-07
2.90261e-09
4.49454e-07
3.40056e-09
4.47607e-07
4.14376e-09
4.4535e-07
5.30433e-09
4.42476e-07
7.29089e-09
4.38671e-07
1.07849e-08
4.33433e-07
1.84474e-08
3.2843e-08
4.24369e-07
4.79736e-07
2.08128e-09
4.79014e-07
2.098e-09
4.78286e-07
2.1156e-09
4.77552e-07
2.13425e-09
4.76811e-07
2.15412e-09
4.76063e-07
2.17547e-09
4.75307e-07
2.19856e-09
4.74543e-07
2.22375e-09
4.73769e-07
2.25152e-09
4.72986e-07
2.28245e-09
4.72192e-07
2.31733e-09
4.71384e-07
2.35719e-09
4.70562e-07
2.4034e-09
4.69723e-07
2.45778e-09
4.68863e-07
2.52277e-09
4.67979e-07
2.60168e-09
4.67064e-07
2.69902e-09
4.66112e-07
2.821e-09
4.65113e-07
2.97632e-09
4.64053e-07
3.17741e-09
4.62913e-07
3.44241e-09
4.61669e-07
3.79855e-09
4.60283e-07
4.28834e-09
4.58703e-07
4.98048e-09
4.56852e-07
5.99456e-09
4.54618e-07
7.53921e-09
4.51853e-07
1.0055e-08
4.4836e-07
1.42788e-08
4.44406e-07
2.24007e-08
3.67376e-08
4.40512e-07
4.85341e-07
2.80773e-09
4.84608e-07
2.83033e-09
4.8387e-07
2.85405e-09
4.83125e-07
2.87909e-09
4.82373e-07
2.90571e-09
4.81615e-07
2.93422e-09
4.80848e-07
2.96498e-09
4.80074e-07
2.99847e-09
4.7929e-07
3.03531e-09
4.78496e-07
3.07625e-09
4.77691e-07
3.12231e-09
4.76873e-07
3.17486e-09
4.76041e-07
3.23564e-09
4.75192e-07
3.30702e-09
4.74322e-07
3.39214e-09
4.73429e-07
3.49527e-09
4.72506e-07
3.62217e-09
4.71546e-07
3.78079e-09
4.7054e-07
3.98221e-09
4.69475e-07
4.24213e-09
4.68334e-07
4.58326e-09
4.67094e-07
5.0393e-09
4.6572e-07
5.6619e-09
4.64168e-07
6.53264e-09
4.62375e-07
7.78785e-09
4.60257e-07
9.65698e-09
4.57732e-07
1.25795e-08
4.54746e-07
1.72649e-08
4.51729e-07
2.54176e-08
3.87719e-08
4.49695e-07
4.89276e-07
3.54236e-09
4.88536e-07
3.57091e-09
4.87789e-07
3.60079e-09
4.87036e-07
3.63228e-09
4.86276e-07
3.66566e-09
4.85509e-07
3.70132e-09
4.84734e-07
3.73972e-09
4.83951e-07
3.78144e-09
4.83159e-07
3.82722e-09
4.82357e-07
3.87802e-09
4.81545e-07
3.93507e-09
4.80719e-07
4.00002e-09
4.7988e-07
4.07501e-09
4.79024e-07
4.16291e-09
4.78149e-07
4.26752e-09
4.7725e-07
4.39398e-09
4.76323e-07
4.54927e-09
4.75361e-07
4.7429e-09
4.74355e-07
4.98808e-09
4.73294e-07
5.30343e-09
4.72161e-07
5.71557e-09
4.70937e-07
6.26355e-09
4.69593e-07
7.00607e-09
4.68092e-07
8.03373e-09
4.66388e-07
9.49225e-09
4.64427e-07
1.16173e-08
4.62182e-07
1.4825e-08
4.59693e-07
1.97537e-08
4.57406e-07
2.77041e-08
3.98789e-08
4.56299e-07
4.92287e-07
4.28414e-09
4.91539e-07
4.3187e-09
4.90785e-07
4.35478e-09
4.90024e-07
4.39269e-09
4.89257e-07
4.43281e-09
4.88483e-07
4.47558e-09
4.87701e-07
4.52152e-09
4.86911e-07
4.57134e-09
4.86113e-07
4.6259e-09
4.85304e-07
4.68632e-09
4.84485e-07
4.75405e-09
4.83654e-07
4.83099e-09
4.8281e-07
4.91966e-09
4.81949e-07
5.02338e-09
4.8107e-07
5.14658e-09
4.80169e-07
5.29519e-09
4.79241e-07
5.47722e-09
4.7828e-07
5.70361e-09
4.77279e-07
5.98943e-09
4.76227e-07
6.3557e-09
4.7511e-07
6.8323e-09
4.73911e-07
7.4623e-09
4.72608e-07
8.30938e-09
4.71172e-07
9.46936e-09
4.69574e-07
1.10909e-08
4.67786e-07
1.34051e-08
4.65819e-07
1.67917e-08
4.63771e-07
2.18022e-08
4.62058e-07
2.94168e-08
4.04269e-08
4.6151e-07
4.94699e-07
5.0325e-09
4.93944e-07
5.07308e-09
4.93184e-07
5.11536e-09
4.92417e-07
5.15969e-09
4.91643e-07
5.20648e-09
4.90862e-07
5.25626e-09
4.90074e-07
5.30963e-09
4.89278e-07
5.36737e-09
4.88474e-07
5.43047e-09
4.8766e-07
5.5002e-09
4.86836e-07
5.57821e-09
4.86e-07
5.66664e-09
4.85151e-07
5.76833e-09
4.84288e-07
5.88703e-09
4.83407e-07
6.02767e-09
4.82505e-07
6.19692e-09
4.81578e-07
6.40369e-09
4.80622e-07
6.66013e-09
4.79629e-07
6.98281e-09
4.7859e-07
7.39473e-09
4.77494e-07
7.92817e-09
4.76327e-07
8.62906e-09
4.75072e-07
9.56393e-09
4.73711e-07
1.08306e-08
4.72226e-07
1.25756e-08
4.70614e-07
1.50179e-08
4.6891e-07
1.84953e-08
4.67241e-07
2.34713e-08
4.65981e-07
3.06769e-08
4.06093e-08
4.65798e-07
4.96689e-07
5.78714e-09
4.95928e-07
5.83374e-09
4.95161e-07
5.88219e-09
4.94388e-07
5.93287e-09
4.93608e-07
5.98627e-09
4.92821e-07
6.04293e-09
4.92027e-07
6.10356e-09
4.91226e-07
6.169e-09
4.90416e-07
6.24036e-09
4.89597e-07
6.31904e-09
4.88768e-07
6.40685e-09
4.87929e-07
6.50618e-09
4.87077e-07
6.62011e-09
4.86211e-07
6.75276e-09
4.8533e-07
6.90954e-09
4.84429e-07
7.09769e-09
4.83506e-07
7.32691e-09
4.82555e-07
7.61026e-09
4.81573e-07
7.96556e-09
4.8055e-07
8.41724e-09
4.79479e-07
8.99921e-09
4.78349e-07
9.75908e-09
4.77149e-07
1.07645e-08
4.75867e-07
1.21124e-08
4.74499e-07
1.39437e-08
4.73056e-07
1.64606e-08
4.71593e-07
1.99578e-08
4.70247e-07
2.48174e-08
4.69344e-07
3.158e-08
4.05414e-08
4.69412e-07
4.98362e-07
6.54791e-09
4.97595e-07
6.6005e-09
4.96822e-07
6.65506e-09
4.96043e-07
6.71203e-09
4.95257e-07
6.77192e-09
4.94465e-07
6.83532e-09
4.93665e-07
6.90301e-09
4.92859e-07
6.97591e-09
4.92044e-07
7.0552e-09
4.9122e-07
7.14241e-09
4.90388e-07
7.2395e-09
4.89545e-07
7.34902e-09
4.88691e-07
7.47432e-09
4.87824e-07
7.61978e-09
4.86942e-07
7.79122e-09
4.86043e-07
7.99634e-09
4.85125e-07
8.24544e-09
4.84183e-07
8.5523e-09
4.83213e-07
8.93561e-09
4.82209e-07
9.42074e-09
4.81166e-07
1.00425e-08
4.80076e-07
1.08492e-08
4.78932e-07
1.1908e-08
4.77732e-07
1.33129e-08
4.76479e-07
1.51966e-08
4.75197e-07
1.77423e-08
4.73952e-07
2.12034e-08
4.72879e-07
2.58904e-08
4.72258e-07
3.22004e-08
4.02956e-08
4.72504e-07
4.99788e-07
7.31475e-09
4.99016e-07
7.37329e-09
4.98237e-07
7.43391e-09
4.97452e-07
7.49706e-09
4.9666e-07
7.56331e-09
4.95862e-07
7.6333e-09
4.95058e-07
7.70782e-09
4.94246e-07
7.78789e-09
4.93426e-07
7.87474e-09
4.92598e-07
7.97002e-09
4.91762e-07
8.0758e-09
4.90916e-07
8.19476e-09
4.9006e-07
8.33046e-09
4.89192e-07
8.48751e-09
4.88312e-07
8.672e-09
4.87416e-07
8.892e-09
4.86503e-07
9.15822e-09
4.85571e-07
9.48498e-09
4.84615e-07
9.89143e-09
4.83632e-07
1.04035e-08
4.82618e-07
1.10562e-08
4.8157e-07
1.18976e-08
4.80485e-07
1.2993e-08
4.79365e-07
1.44324e-08
4.78224e-07
1.63382e-08
4.77092e-07
1.88743e-08
4.76039e-07
2.2256e-08
4.75197e-07
2.6733e-08
4.74801e-07
3.25957e-08
3.99196e-08
4.75177e-07
5.01017e-07
5.00238e-07
8.1521e-09
4.99453e-07
8.21869e-09
4.98663e-07
8.28793e-09
4.97866e-07
8.36039e-09
4.97062e-07
8.43676e-09
4.96252e-07
8.51788e-09
4.95435e-07
8.6048e-09
4.94611e-07
8.69884e-09
4.93779e-07
8.80169e-09
4.9294e-07
8.91551e-09
4.92091e-07
9.04313e-09
4.91234e-07
9.18819e-09
4.90366e-07
9.35549e-09
4.89486e-07
9.55135e-09
4.88594e-07
9.78403e-09
4.87688e-07
1.00645e-08
4.86765e-07
1.04074e-08
4.85825e-07
1.0832e-08
4.84864e-07
1.13643e-08
4.83881e-07
1.20392e-08
4.82875e-07
1.29034e-08
4.81849e-07
1.40198e-08
4.80808e-07
1.54728e-08
4.79772e-07
1.73743e-08
4.78777e-07
1.9869e-08
4.77895e-07
2.31383e-08
4.77246e-07
2.73817e-08
4.77032e-07
3.28103e-08
3.94453e-08
4.77506e-07
5.01298e-07
8.93696e-09
5.00508e-07
9.00942e-09
4.99711e-07
9.08462e-09
4.98908e-07
9.16313e-09
4.98099e-07
9.24568e-09
4.97284e-07
9.33314e-09
4.96462e-07
9.42659e-09
4.95634e-07
9.5274e-09
4.94798e-07
9.63728e-09
4.93955e-07
9.75849e-09
4.93104e-07
9.89391e-09
4.92245e-07
1.00473e-08
4.91377e-07
1.02235e-08
4.905e-07
1.04289e-08
4.89612e-07
1.0672e-08
4.88713e-07
1.09638e-08
4.87801e-07
1.13189e-08
4.86876e-07
1.17567e-08
4.85938e-07
1.23027e-08
4.84986e-07
1.29911e-08
4.84023e-07
1.38668e-08
4.83053e-07
1.49895e-08
4.82088e-07
1.64375e-08
4.81151e-07
1.83118e-08
4.80281e-07
2.07391e-08
4.79548e-07
2.38714e-08
4.79062e-07
2.78669e-08
4.78994e-07
3.28788e-08
3.88953e-08
4.79544e-07
5.02223e-07
9.72788e-09
5.01426e-07
9.80612e-09
5.00623e-07
9.88713e-09
4.99815e-07
9.97153e-09
4.99001e-07
1.006e-08
4.9818e-07
1.01536e-08
4.97354e-07
1.02532e-08
4.96521e-07
1.03603e-08
4.95681e-07
1.04767e-08
4.94835e-07
1.06046e-08
4.93982e-07
1.0747e-08
4.93122e-07
1.09075e-08
4.92254e-07
1.10912e-08
4.91378e-07
1.13044e-08
4.90495e-07
1.15556e-08
4.89603e-07
1.18557e-08
4.88702e-07
1.22193e-08
4.87794e-07
1.26653e-08
4.86878e-07
1.32186e-08
4.85957e-07
1.39121e-08
4.85035e-07
1.47887e-08
4.8412e-07
1.59043e-08
4.83227e-07
1.73306e-08
4.82381e-07
1.91582e-08
4.81623e-07
2.1497e-08
4.8102e-07
2.4474e-08
4.80673e-07
2.82141e-08
4.80724e-07
3.28281e-08
3.82857e-08
4.81333e-07
5.03031e-07
1.05249e-08
5.02228e-07
1.06088e-08
5.0142e-07
1.06955e-08
5.00606e-07
1.07856e-08
4.99786e-07
1.08798e-08
4.98961e-07
1.09791e-08
4.98129e-07
1.10846e-08
4.97292e-07
1.11976e-08
4.96449e-07
1.132e-08
4.956e-07
1.14539e-08
4.94744e-07
1.16023e-08
4.93883e-07
1.17689e-08
4.93016e-07
1.19586e-08
4.92142e-07
1.21779e-08
4.91263e-07
1.24348e-08
4.90378e-07
1.27403e-08
4.89489e-07
1.31086e-08
4.88596e-07
1.35579e-08
4.87703e-07
1.41123e-08
4.86812e-07
1.48031e-08
4.8593e-07
1.56708e-08
4.85067e-07
1.67669e-08
4.84241e-07
1.81569e-08
4.83478e-07
1.99212e-08
4.8282e-07
2.21547e-08
4.82331e-07
2.49629e-08
4.82101e-07
2.84445e-08
4.82249e-07
3.26796e-08
3.7628e-08
4.82907e-07
5.03739e-07
1.13279e-08
5.02931e-07
1.14173e-08
5.02117e-07
1.15095e-08
5.01297e-07
1.16052e-08
5.00472e-07
1.17049e-08
4.99641e-07
1.18098e-08
4.98805e-07
1.19207e-08
4.97964e-07
1.20392e-08
4.97117e-07
1.21669e-08
4.96264e-07
1.23062e-08
4.95407e-07
1.24597e-08
4.94544e-07
1.26313e-08
4.93677e-07
1.28257e-08
4.92806e-07
1.30491e-08
4.91931e-07
1.33096e-08
4.91054e-07
1.36177e-08
4.90176e-07
1.39869e-08
4.89299e-07
1.44349e-08
4.88426e-07
1.49846e-08
4.87564e-07
1.56654e-08
4.8672e-07
1.65148e-08
4.85906e-07
1.75806e-08
4.85142e-07
1.89214e-08
4.84455e-07
2.06085e-08
4.83886e-07
2.27232e-08
4.83496e-07
2.53532e-08
4.83364e-07
2.85762e-08
4.83594e-07
3.24501e-08
3.69312e-08
4.8429e-07
5.13845e-07
1.24393e-08
5.12726e-07
1.25365e-08
5.11599e-07
1.26365e-08
5.10464e-07
1.27398e-08
5.09322e-07
1.28473e-08
5.08172e-07
1.29597e-08
5.07014e-07
1.30782e-08
5.05849e-07
1.32041e-08
5.04677e-07
1.33391e-08
5.03498e-07
1.34854e-08
5.02312e-07
1.36458e-08
5.01119e-07
1.38238e-08
4.99921e-07
1.4024e-08
4.98718e-07
1.42524e-08
4.97511e-07
1.45167e-08
4.96301e-07
1.48271e-08
4.95092e-07
1.51963e-08
4.93886e-07
1.56412e-08
4.92687e-07
1.61832e-08
4.91502e-07
1.68498e-08
4.90342e-07
1.76755e-08
4.89219e-07
1.87037e-08
4.88153e-07
1.99871e-08
4.87174e-07
2.15879e-08
4.86321e-07
2.35761e-08
4.8565e-07
2.60243e-08
4.85232e-07
2.89941e-08
4.85154e-07
3.25274e-08
3.65808e-08
4.85505e-07
4.97928e-07
1.30316e-08
4.97333e-07
1.31324e-08
4.96733e-07
1.32359e-08
4.9613e-07
1.33427e-08
4.95524e-07
1.34535e-08
4.94915e-07
1.35691e-08
4.94302e-07
1.36907e-08
4.93687e-07
1.38194e-08
4.93069e-07
1.3957e-08
4.92449e-07
1.41054e-08
4.91827e-07
1.42674e-08
4.91205e-07
1.44464e-08
4.90582e-07
1.46468e-08
4.8996e-07
1.48741e-08
4.89341e-07
1.51359e-08
4.88727e-07
1.54414e-08
4.8812e-07
1.58029e-08
4.87525e-07
1.62361e-08
4.86948e-07
1.67608e-08
4.86395e-07
1.74024e-08
4.85878e-07
1.81923e-08
4.85412e-07
1.91697e-08
4.85018e-07
2.03813e-08
4.84725e-07
2.18814e-08
4.84571e-07
2.37296e-08
4.84609e-07
2.5986e-08
4.84904e-07
2.86992e-08
4.85532e-07
3.18997e-08
3.5546e-08
4.86567e-07
4.83603e-07
1.3157e-08
4.83478e-07
1.32578e-08
4.83353e-07
1.33611e-08
4.83228e-07
1.34675e-08
4.83104e-07
1.35778e-08
4.8298e-07
1.36927e-08
4.82857e-07
1.38133e-08
4.82736e-07
1.39407e-08
4.82616e-07
1.40766e-08
4.82499e-07
1.42228e-08
4.82385e-07
1.43819e-08
4.82274e-07
1.45571e-08
4.82168e-07
1.47524e-08
4.82069e-07
1.49733e-08
4.81978e-07
1.52266e-08
4.81899e-07
1.5521e-08
4.81834e-07
1.58678e-08
4.81789e-07
1.62815e-08
4.81769e-07
1.67802e-08
4.81784e-07
1.73871e-08
4.81846e-07
1.81306e-08
4.81971e-07
1.90453e-08
4.82179e-07
2.01726e-08
4.82501e-07
2.15594e-08
4.82974e-07
2.32563e-08
4.83648e-07
2.53125e-08
4.84581e-07
2.77666e-08
4.8584e-07
3.06404e-08
3.38957e-08
4.8749e-07
4.70716e-07
1.28629e-08
4.71013e-07
1.29603e-08
4.71314e-07
1.30601e-08
4.71619e-07
1.31629e-08
4.71927e-07
1.32692e-08
4.7224e-07
1.33799e-08
4.72557e-07
1.34959e-08
4.7288e-07
1.36184e-08
4.73208e-07
1.37487e-08
4.73542e-07
1.38888e-08
4.73883e-07
1.40409e-08
4.74232e-07
1.42079e-08
4.7459e-07
1.43938e-08
4.7496e-07
1.46033e-08
4.75344e-07
1.48428e-08
4.75745e-07
1.51204e-08
4.76166e-07
1.54462e-08
4.76614e-07
1.58334e-08
4.77096e-07
1.62985e-08
4.77621e-07
1.68621e-08
4.78202e-07
1.75495e-08
4.78856e-07
1.83913e-08
4.79605e-07
1.94235e-08
4.80479e-07
2.06861e-08
4.81513e-07
2.22217e-08
4.82755e-07
2.40709e-08
4.84258e-07
2.62635e-08
4.86083e-07
2.88156e-08
3.16926e-08
4.88286e-07
4.59124e-07
1.2192e-08
4.59801e-07
1.22832e-08
4.60485e-07
1.23765e-08
4.61175e-07
1.24725e-08
4.61872e-07
1.25719e-08
4.62577e-07
1.26753e-08
4.63289e-07
1.27835e-08
4.6401e-07
1.28977e-08
4.6474e-07
1.30192e-08
4.65479e-07
1.31496e-08
4.66229e-07
1.3291e-08
4.6699e-07
1.34461e-08
4.67766e-07
1.36184e-08
4.68557e-07
1.38123e-08
4.69366e-07
1.40334e-08
4.70198e-07
1.42889e-08
4.71056e-07
1.45882e-08
4.71946e-07
1.49427e-08
4.72878e-07
1.53672e-08
4.7386e-07
1.58799e-08
4.74906e-07
1.65029e-08
4.76035e-07
1.72628e-08
4.77268e-07
1.81902e-08
4.78635e-07
1.93194e-08
4.80171e-07
2.06855e-08
4.81921e-07
2.23215e-08
4.83933e-07
2.42509e-08
4.86264e-07
2.64849e-08
2.89932e-08
4.88963e-07
4.48698e-07
1.11829e-08
4.49716e-07
1.12651e-08
4.50743e-07
1.13493e-08
4.5178e-07
1.1436e-08
4.52826e-07
1.15256e-08
4.53883e-07
1.16189e-08
4.5495e-07
1.17166e-08
4.56028e-07
1.18196e-08
4.57118e-07
1.19292e-08
4.5822e-07
1.20468e-08
4.59337e-07
1.21743e-08
4.60469e-07
1.23141e-08
4.61618e-07
1.24692e-08
4.62787e-07
1.26436e-08
4.63978e-07
1.28421e-08
4.65196e-07
1.30712e-08
4.66445e-07
1.33389e-08
4.67733e-07
1.36553e-08
4.69067e-07
1.40332e-08
4.70458e-07
1.44883e-08
4.71922e-07
1.50396e-08
4.73475e-07
1.57095e-08
4.75141e-07
1.65241e-08
4.76949e-07
1.75117e-08
4.78933e-07
1.87012e-08
4.81135e-07
2.01191e-08
4.83603e-07
2.17833e-08
4.86386e-07
2.3702e-08
2.5849e-08
4.8953e-07
4.39321e-07
9.87006e-09
4.40645e-07
9.94112e-09
4.41981e-07
1.00139e-08
4.43328e-07
1.00887e-08
4.44687e-07
1.01662e-08
4.46059e-07
1.02469e-08
4.47444e-07
1.03315e-08
4.48843e-07
1.04209e-08
4.50256e-07
1.05159e-08
4.51685e-07
1.0618e-08
4.53131e-07
1.07288e-08
4.54595e-07
1.08502e-08
4.56079e-07
1.0985e-08
4.57586e-07
1.11364e-08
4.59119e-07
1.13087e-08
4.60683e-07
1.15074e-08
4.62283e-07
1.17392e-08
4.63925e-07
1.20127e-08
4.6562e-07
1.23388e-08
4.67378e-07
1.27304e-08
4.69214e-07
1.32036e-08
4.71146e-07
1.37769e-08
4.73199e-07
1.44717e-08
4.754e-07
1.53109e-08
4.77783e-07
1.63178e-08
4.80389e-07
1.75131e-08
4.83262e-07
1.89105e-08
4.86449e-07
2.05155e-08
2.23065e-08
4.89991e-07
4.30886e-07
8.28489e-09
4.32484e-07
8.34269e-09
4.34096e-07
8.40188e-09
4.35722e-07
8.46287e-09
4.37362e-07
8.52608e-09
4.39017e-07
8.59203e-09
4.40687e-07
8.6613e-09
4.42373e-07
8.73459e-09
4.44077e-07
8.81277e-09
4.45798e-07
8.89692e-09
4.47538e-07
8.98837e-09
4.49299e-07
9.08883e-09
4.51084e-07
9.20046e-09
4.52894e-07
9.326e-09
4.54734e-07
9.46894e-09
4.56608e-07
9.6337e-09
4.58521e-07
9.82587e-09
4.60481e-07
1.00524e-08
4.62498e-07
1.03221e-08
4.64583e-07
1.06454e-08
4.66752e-07
1.1035e-08
4.69023e-07
1.15059e-08
4.71419e-07
1.20749e-08
4.7397e-07
1.276e-08
4.76709e-07
1.35792e-08
4.79674e-07
1.45481e-08
4.82907e-07
1.5677e-08
4.86453e-07
1.69693e-08
1.8408e-08
4.90352e-07
4.23295e-07
6.45547e-09
4.25139e-07
6.49817e-09
4.26999e-07
6.54196e-09
4.28875e-07
6.58717e-09
4.30767e-07
6.63419e-09
4.32675e-07
6.68344e-09
4.34601e-07
6.7354e-09
4.36545e-07
6.79064e-09
4.38508e-07
6.84987e-09
4.40491e-07
6.91393e-09
4.42496e-07
6.98388e-09
4.44523e-07
7.06105e-09
4.46577e-07
7.14711e-09
4.48658e-07
7.2442e-09
4.50772e-07
7.35501e-09
4.52923e-07
7.48295e-09
4.55117e-07
7.63228e-09
4.57361e-07
7.80834e-09
4.59665e-07
8.01774e-09
4.62042e-07
8.26848e-09
4.64507e-07
8.57016e-09
4.67079e-07
8.93391e-09
4.69782e-07
9.37224e-09
4.72643e-07
9.89844e-09
4.75697e-07
1.05256e-08
4.7898e-07
1.1265e-08
4.82533e-07
1.21235e-08
4.86399e-07
1.31034e-08
1.41919e-08
4.90615e-07
4.16461e-07
4.40713e-09
4.18526e-07
4.4331e-09
4.20608e-07
4.45982e-09
4.22707e-07
4.48758e-09
4.24825e-07
4.51671e-09
4.26961e-07
4.54754e-09
4.29116e-07
4.58045e-09
4.3129e-07
4.61587e-09
4.33486e-07
4.65432e-09
4.35704e-07
4.69642e-09
4.37944e-07
4.74294e-09
4.40211e-07
4.79481e-09
4.42505e-07
4.85322e-09
4.44829e-07
4.91966e-09
4.47188e-07
4.99601e-09
4.49586e-07
5.08462e-09
4.5203e-07
5.18843e-09
4.54528e-07
5.3111e-09
4.57088e-07
5.45711e-09
4.59725e-07
5.63191e-09
4.62453e-07
5.84195e-09
4.65292e-07
6.09467e-09
4.68266e-07
6.39837e-09
4.71403e-07
6.7618e-09
4.74735e-07
7.19341e-09
4.78299e-07
7.7004e-09
4.82136e-07
8.28699e-09
4.86285e-07
8.95403e-09
9.69318e-09
4.90784e-07
4.10304e-07
2.16268e-09
4.12567e-07
2.17045e-09
4.14848e-07
2.17863e-09
4.17148e-07
2.18747e-09
4.19468e-07
2.19721e-09
4.21807e-07
2.2081e-09
4.24167e-07
2.22042e-09
4.26549e-07
2.23445e-09
4.28952e-07
2.25053e-09
4.3138e-07
2.26904e-09
4.33832e-07
2.29045e-09
4.36312e-07
2.3153e-09
4.38821e-07
2.34428e-09
4.41362e-07
2.37822e-09
4.4394e-07
2.41816e-09
4.46559e-07
2.46539e-09
4.49226e-07
2.52149e-09
4.51949e-07
2.58843e-09
4.54737e-07
2.66858e-09
4.57604e-07
2.76476e-09
4.60566e-07
2.88031e-09
4.63642e-07
3.01902e-09
4.66855e-07
3.18504e-09
4.70234e-07
3.38266e-09
4.73812e-07
3.61594e-09
4.77624e-07
3.88815e-09
4.8171e-07
4.20098e-09
4.8611e-07
4.55418e-09
4.94368e-09
4.90859e-07
4.04754e-07
-2.57334e-10
4.07194e-07
-2.69058e-10
4.09653e-07
-2.8072e-10
4.12132e-07
-2.92128e-10
4.14633e-07
-3.03107e-10
4.17154e-07
-3.13492e-10
4.19698e-07
-3.23123e-10
4.22264e-07
-3.31852e-10
4.24854e-07
-3.39529e-10
4.27469e-07
-3.46008e-10
4.30111e-07
-3.51138e-10
4.32781e-07
-3.54762e-10
4.35482e-07
-3.56714e-10
4.38217e-07
-3.56813e-10
4.4099e-07
-3.54864e-10
4.43806e-07
-3.50654e-10
4.46672e-07
-3.43956e-10
4.49594e-07
-3.34529e-10
4.52585e-07
-3.22129e-10
4.55656e-07
-3.06525e-10
4.58824e-07
-2.87515e-10
4.62108e-07
-2.6496e-10
4.65532e-07
-2.38821e-10
4.69124e-07
-2.09207e-10
4.72916e-07
-1.76422e-10
4.76946e-07
-1.41004e-10
4.8125e-07
-1.03745e-10
4.8587e-07
-6.59342e-11
-2.7513e-11
4.90842e-07
4.70584e-07
-3.64058e-09
4.73994e-07
-3.67926e-09
4.77432e-07
-3.71831e-09
4.80898e-07
-3.75762e-09
4.84392e-07
-3.79709e-09
4.87915e-07
-3.83665e-09
4.91468e-07
-3.87629e-09
4.95052e-07
-3.91601e-09
4.98668e-07
-3.95591e-09
5.02318e-07
-3.99611e-09
5.06004e-07
-4.03683e-09
5.09728e-07
-4.07839e-09
5.13492e-07
-4.12124e-09
5.17302e-07
-4.16599e-09
5.2116e-07
-4.21345e-09
5.25074e-07
-4.2647e-09
5.29051e-07
-4.32115e-09
5.33101e-07
-4.38463e-09
5.37237e-07
-4.45744e-09
5.41473e-07
-4.54251e-09
5.45829e-07
-4.64339e-09
5.50328e-07
-4.76438e-09
5.55e-07
-4.91043e-09
5.59877e-07
-5.087e-09
5.65001e-07
-5.29973e-09
5.70414e-07
-5.5539e-09
5.76163e-07
-5.85345e-09
5.82298e-07
-6.20106e-09
-6.5921e-09
5.88863e-07
4.735e-07
-6.92419e-09
4.7681e-07
-6.98903e-09
4.80146e-07
-7.05467e-09
4.8351e-07
-7.12106e-09
4.86901e-07
-7.18818e-09
4.9032e-07
-7.25608e-09
4.93769e-07
-7.32485e-09
4.97247e-07
-7.3947e-09
5.00757e-07
-7.46591e-09
5.043e-07
-7.5389e-09
5.07878e-07
-7.61426e-09
5.11492e-07
-7.69278e-09
5.15146e-07
-7.77549e-09
5.18844e-07
-7.86379e-09
5.2259e-07
-7.9595e-09
5.2639e-07
-8.06496e-09
5.30252e-07
-8.1832e-09
5.34186e-07
-8.31809e-09
5.38203e-07
-8.47447e-09
5.42319e-07
-8.65839e-09
5.46552e-07
-8.87719e-09
5.50928e-07
-9.13957e-09
5.55473e-07
-9.45552e-09
5.60222e-07
-9.83596e-09
5.65214e-07
-1.0292e-08
5.70494e-07
-1.08339e-08
5.76109e-07
-1.14689e-08
5.8211e-07
-1.22013e-08
-1.30219e-08
5.88539e-07
4.76574e-07
-1.01007e-08
4.79776e-07
-1.01909e-08
4.83004e-07
-1.02822e-08
4.86257e-07
-1.03748e-08
4.89538e-07
-1.04687e-08
4.92846e-07
-1.0564e-08
4.96182e-07
-1.06609e-08
4.99547e-07
-1.07599e-08
5.02943e-07
-1.08614e-08
5.0637e-07
-1.09661e-08
5.0983e-07
-1.1075e-08
5.13327e-07
-1.11892e-08
5.16862e-07
-1.13105e-08
5.20439e-07
-1.1441e-08
5.24063e-07
-1.15834e-08
5.27739e-07
-1.17414e-08
5.31476e-07
-1.19195e-08
5.35281e-07
-1.21236e-08
5.39168e-07
-1.23611e-08
5.4315e-07
-1.26411e-08
5.47248e-07
-1.29747e-08
5.51483e-07
-1.33751e-08
5.55885e-07
-1.38574e-08
5.60488e-07
-1.44382e-08
5.6533e-07
-1.51344e-08
5.70458e-07
-1.59616e-08
5.7592e-07
-1.6931e-08
5.81768e-07
-1.80491e-08
-1.93016e-08
5.88047e-07
4.79818e-07
-1.31623e-08
4.82904e-07
-1.32768e-08
4.86014e-07
-1.33929e-08
4.8915e-07
-1.35107e-08
4.92312e-07
-1.36303e-08
4.955e-07
-1.3752e-08
4.98715e-07
-1.38761e-08
5.01958e-07
-1.40031e-08
5.05231e-07
-1.41337e-08
5.08533e-07
-1.42689e-08
5.11868e-07
-1.441e-08
5.15238e-07
-1.45586e-08
5.18644e-07
-1.47169e-08
5.22091e-07
-1.48878e-08
5.25583e-07
-1.5075e-08
5.29124e-07
-1.52832e-08
5.32724e-07
-1.55187e-08
5.36389e-07
-1.57892e-08
5.40133e-07
-1.61045e-08
5.43968e-07
-1.64768e-08
5.47915e-07
-1.6921e-08
5.51995e-07
-1.74548e-08
5.56236e-07
-1.80986e-08
5.60673e-07
-1.8875e-08
5.65345e-07
-1.98072e-08
5.70301e-07
-2.09169e-08
5.7559e-07
-2.222e-08
5.81266e-07
-2.37257e-08
-2.5415e-08
5.8738e-07
4.83242e-07
-1.61003e-08
4.86203e-07
-1.62382e-08
4.89189e-07
-1.63781e-08
4.92198e-07
-1.652e-08
4.95232e-07
-1.66643e-08
4.98291e-07
-1.68112e-08
5.01376e-07
-1.69613e-08
5.04488e-07
-1.71151e-08
5.07628e-07
-1.72736e-08
5.10797e-07
-1.74379e-08
5.13997e-07
-1.76097e-08
5.17229e-07
-1.7791e-08
5.20497e-07
-1.79845e-08
5.23803e-07
-1.81938e-08
5.27151e-07
-1.84234e-08
5.30547e-07
-1.86794e-08
5.33998e-07
-1.89691e-08
5.37511e-07
-1.93024e-08
5.41098e-07
-1.96914e-08
5.44772e-07
-2.01512e-08
5.48552e-07
-2.07006e-08
5.52459e-07
-2.13618e-08
5.56521e-07
-2.21609e-08
5.60773e-07
-2.31267e-08
5.65255e-07
-2.42896e-08
5.70017e-07
-2.56783e-08
5.75111e-07
-2.73143e-08
5.80597e-07
-2.92113e-08
-3.13448e-08
5.86526e-07
4.86858e-07
-1.89058e-08
4.89686e-07
-1.9066e-08
4.92536e-07
-1.92285e-08
4.95409e-07
-1.93935e-08
4.98306e-07
-1.95612e-08
5.01227e-07
-1.97322e-08
5.04173e-07
-1.99069e-08
5.07144e-07
-2.00862e-08
5.10141e-07
-2.0271e-08
5.13167e-07
-2.04629e-08
5.16221e-07
-2.06637e-08
5.19306e-07
-2.08759e-08
5.22424e-07
-2.11025e-08
5.25578e-07
-2.13479e-08
5.28772e-07
-2.16173e-08
5.3201e-07
-2.19178e-08
5.35299e-07
-2.22582e-08
5.38647e-07
-2.265e-08
5.42063e-07
-2.31076e-08
5.45561e-07
-2.36492e-08
5.49157e-07
-2.42972e-08
5.52874e-07
-2.50785e-08
5.56738e-07
-2.6025e-08
5.60784e-07
-2.71725e-08
5.65054e-07
-2.85593e-08
5.69598e-07
-3.02225e-08
5.74475e-07
-3.21909e-08
5.79748e-07
-3.44842e-08
-3.70727e-08
5.85476e-07
4.90677e-07
-2.1569e-08
4.93361e-07
-2.17503e-08
4.96067e-07
-2.19342e-08
4.98794e-07
-2.2121e-08
5.01544e-07
-2.2311e-08
5.04316e-07
-2.25046e-08
5.07112e-07
-2.27026e-08
5.09932e-07
-2.29058e-08
5.12776e-07
-2.31155e-08
5.15647e-07
-2.33332e-08
5.18544e-07
-2.35612e-08
5.2147e-07
-2.38021e-08
5.24427e-07
-2.40595e-08
5.27418e-07
-2.43383e-08
5.30445e-07
-2.46444e-08
5.33513e-07
-2.49858e-08
5.36627e-07
-2.53726e-08
5.39795e-07
-2.5818e-08
5.43026e-07
-2.63385e-08
5.46332e-07
-2.6955e-08
5.49728e-07
-2.76936e-08
5.53236e-07
-2.85862e-08
5.56882e-07
-2.96706e-08
5.60699e-07
-3.09903e-08
5.64733e-07
-3.25926e-08
5.69035e-07
-3.45247e-08
5.73669e-07
-3.68247e-08
5.78706e-07
-3.95211e-08
-4.25786e-08
5.84211e-07
4.9471e-07
-2.40795e-08
4.9724e-07
-2.42807e-08
4.99791e-07
-2.44847e-08
5.02362e-07
-2.46919e-08
5.04953e-07
-2.49027e-08
5.07566e-07
-2.51175e-08
5.10201e-07
-2.53372e-08
5.12858e-07
-2.55628e-08
5.15538e-07
-2.57955e-08
5.18242e-07
-2.60372e-08
5.20971e-07
-2.62902e-08
5.23726e-07
-2.65575e-08
5.2651e-07
-2.68432e-08
5.29324e-07
-2.71523e-08
5.32171e-07
-2.74917e-08
5.35056e-07
-2.787e-08
5.37981e-07
-2.82985e-08
5.40955e-07
-2.87918e-08
5.43985e-07
-2.93684e-08
5.47082e-07
-3.00519e-08
5.5026e-07
-3.0872e-08
5.53539e-07
-3.18654e-08
5.56945e-07
-3.30763e-08
5.60512e-07
-3.45567e-08
5.64283e-07
-3.63638e-08
5.68316e-07
-3.85576e-08
5.72679e-07
-4.11878e-08
5.77453e-07
-4.42957e-08
-4.78408e-08
5.82716e-07
4.98969e-07
-2.64262e-08
5.01334e-07
-2.66458e-08
5.03717e-07
-2.68685e-08
5.0612e-07
-2.70947e-08
5.08542e-07
-2.73247e-08
5.10984e-07
-2.75591e-08
5.13445e-07
-2.77988e-08
5.15928e-07
-2.80449e-08
5.18431e-07
-2.82988e-08
5.20956e-07
-2.85624e-08
5.23504e-07
-2.88381e-08
5.26076e-07
-2.91294e-08
5.28673e-07
-2.94403e-08
5.31297e-07
-2.97765e-08
5.33951e-07
-3.01453e-08
5.36637e-07
-3.0556e-08
5.39359e-07
-3.10209e-08
5.42123e-07
-3.15557e-08
5.44936e-07
-3.21809e-08
5.47806e-07
-3.29224e-08
5.50748e-07
-3.38135e-08
5.53778e-07
-3.48956e-08
5.56921e-07
-3.62196e-08
5.60211e-07
-3.78465e-08
5.63692e-07
-3.98454e-08
5.67426e-07
-4.22913e-08
5.71488e-07
-4.52492e-08
5.75971e-07
-4.8779e-08
-5.28349e-08
5.80965e-07
5.03463e-07
-2.8597e-08
5.05651e-07
-2.88335e-08
5.07855e-07
-2.90734e-08
5.10078e-07
-2.93168e-08
5.12317e-07
-2.95644e-08
5.14575e-07
-2.98167e-08
5.16851e-07
-3.00746e-08
5.19145e-07
-3.03393e-08
5.21458e-07
-3.06122e-08
5.23791e-07
-3.08953e-08
5.26145e-07
-3.11914e-08
5.28519e-07
-3.15037e-08
5.30915e-07
-3.18368e-08
5.33335e-07
-3.21966e-08
5.35781e-07
-3.25906e-08
5.38253e-07
-3.30288e-08
5.40757e-07
-3.35242e-08
5.43295e-07
-3.40936e-08
5.45873e-07
-3.47589e-08
5.48498e-07
-3.55484e-08
5.51183e-07
-3.64984e-08
5.53943e-07
-3.76552e-08
5.568e-07
-3.90764e-08
5.59786e-07
-4.0833e-08
5.62948e-07
-4.30073e-08
5.6635e-07
-4.56929e-08
5.70075e-07
-4.89742e-08
5.74234e-07
-5.29379e-08
-5.75336e-08
5.78932e-07
5.08202e-07
-3.0579e-08
5.102e-07
-3.08308e-08
5.12212e-07
-3.10861e-08
5.1424e-07
-3.13451e-08
5.16284e-07
-3.16084e-08
5.18344e-07
-3.18766e-08
5.2042e-07
-3.21507e-08
5.22513e-07
-3.24318e-08
5.24622e-07
-3.27214e-08
5.26749e-07
-3.30217e-08
5.28893e-07
-3.33353e-08
5.31055e-07
-3.36658e-08
5.33235e-07
-3.40176e-08
5.35436e-07
-3.4397e-08
5.37657e-07
-3.48118e-08
5.399e-07
-3.52721e-08
5.42168e-07
-3.57917e-08
5.44462e-07
-3.63881e-08
5.46788e-07
-3.70843e-08
5.4915e-07
-3.79107e-08
5.51558e-07
-3.89062e-08
5.54025e-07
-4.01218e-08
5.5657e-07
-4.16218e-08
5.59225e-07
-4.34878e-08
5.62035e-07
-4.58171e-08
5.65068e-07
-4.8726e-08
5.68416e-07
-5.23228e-08
5.72213e-07
-5.67344e-08
-6.19054e-08
5.76585e-07
4.98849e-07
-3.28179e-08
5.01105e-07
-3.30865e-08
5.03378e-07
-3.33588e-08
5.05668e-07
-3.36349e-08
5.07975e-07
-3.39154e-08
5.10299e-07
-3.4201e-08
5.12641e-07
-3.44926e-08
5.15e-07
-3.47914e-08
5.17378e-07
-3.50989e-08
5.19773e-07
-3.54172e-08
5.22187e-07
-3.57491e-08
5.2462e-07
-3.60981e-08
5.27071e-07
-3.64688e-08
5.29541e-07
-3.68674e-08
5.32031e-07
-3.73018e-08
5.34541e-07
-3.77824e-08
5.37073e-07
-3.83232e-08
5.39627e-07
-3.89421e-08
5.42206e-07
-3.96632e-08
5.44813e-07
-4.05181e-08
5.47455e-07
-4.15482e-08
5.50142e-07
-4.28084e-08
5.5289e-07
-4.43698e-08
5.55727e-07
-4.63249e-08
5.58697e-07
-4.87875e-08
5.61873e-07
-5.19017e-08
5.65356e-07
-5.58057e-08
5.69307e-07
-6.06854e-08
-6.64804e-08
5.73882e-07
5.14202e-07
-3.45158e-08
5.15913e-07
-3.47969e-08
5.17636e-07
-3.50816e-08
5.19371e-07
-3.53703e-08
5.21119e-07
-3.56634e-08
5.2288e-07
-3.59617e-08
5.24653e-07
-3.62659e-08
5.26439e-07
-3.65773e-08
5.28238e-07
-3.68975e-08
5.30049e-07
-3.72285e-08
5.31873e-07
-3.7573e-08
5.33709e-07
-3.79345e-08
5.35558e-07
-3.83176e-08
5.37419e-07
-3.87283e-08
5.39292e-07
-3.91746e-08
5.41176e-07
-3.96669e-08
5.43072e-07
-4.0219e-08
5.44979e-07
-4.08492e-08
5.46898e-07
-4.15819e-08
5.48829e-07
-4.24494e-08
5.50776e-07
-4.34951e-08
5.52745e-07
-4.47771e-08
5.54748e-07
-4.63727e-08
5.56808e-07
-4.83857e-08
5.58968e-07
-5.09469e-08
5.613e-07
-5.42342e-08
5.63916e-07
-5.84209e-08
5.6701e-07
-6.37803e-08
-7.02433e-08
5.70773e-07
5.3288e-07
-3.55578e-08
5.33929e-07
-3.58461e-08
5.34986e-07
-3.6138e-08
5.36049e-07
-3.64338e-08
5.3712e-07
-3.67339e-08
5.38197e-07
-3.70391e-08
5.39282e-07
-3.73502e-08
5.40373e-07
-3.76683e-08
5.4147e-07
-3.7995e-08
5.42574e-07
-3.83323e-08
5.43684e-07
-3.86827e-08
5.44799e-07
-3.90497e-08
5.45919e-07
-3.94377e-08
5.47043e-07
-3.98525e-08
5.48171e-07
-4.0302e-08
5.493e-07
-4.07962e-08
5.5043e-07
-4.13487e-08
5.51558e-07
-4.19776e-08
5.52683e-07
-4.27071e-08
5.53804e-07
-4.35699e-08
5.54919e-07
-4.46101e-08
5.5603e-07
-4.58886e-08
5.57145e-07
-4.74873e-08
5.5828e-07
-4.95211e-08
5.59471e-07
-5.21382e-08
5.60794e-07
-5.55567e-08
5.62362e-07
-5.99889e-08
5.64421e-07
-6.58392e-08
-7.30166e-08
5.67194e-07
5.55566e-07
-3.58053e-08
5.55815e-07
-3.60945e-08
5.56064e-07
-3.63871e-08
5.56313e-07
-3.66834e-08
5.56563e-07
-3.69839e-08
5.56814e-07
-3.72893e-08
5.57064e-07
-3.76003e-08
5.57314e-07
-3.79181e-08
5.57563e-07
-3.82441e-08
5.57811e-07
-3.85801e-08
5.58056e-07
-3.89287e-08
5.583e-07
-3.9293e-08
5.58539e-07
-3.96773e-08
5.58774e-07
-4.00871e-08
5.59002e-07