/*--------------------------------*- C++ -*----------------------------------*\
  =========                 |
  \\      /  F ield         | OpenFOAM: The Open Source CFD Toolbox
   \\    /   O peration     | Website:  https://openfoam.org
    \\  /    A nd           | Version:  6
     \\/     M anipulation  |
\*---------------------------------------------------------------------------*/
FoamFile
{
    version     2.0;
    format      ascii;
    class       volVectorField;
    location    "0.07";
    object      U;
}
// * * * * * * * * * * * * * * * * * * * * * * * * * * * * * * * * * * * * * //

dimensions      [0 1 -1 0 0 0 0];

internalField   nonuniform List<vector> 
3080
(
(0.445808 -2.6949e-05 1.19992e-20)
(0.445832 -2.68922e-05 1.19425e-20)
(0.445856 -2.67089e-05 0)
(0.445879 -2.63811e-05 1.183e-20)
(0.445902 -2.58861e-05 0)
(0.445923 -2.51948e-05 0)
(0.445942 -2.42708e-05 1.16633e-20)
(0.445959 -2.30676e-05 0)
(0.445971 -2.15246e-05 1.15537e-20)
(0.44598 -1.95612e-05 0)
(0.445982 -1.7071e-05 0)
(0.445976 -1.39127e-05 1.13922e-20)
(0.44596 -9.8986e-06 0)
(0.445932 -4.77841e-06 1.1287e-20)
(0.445886 1.78376e-06 0)
(0.445819 1.02417e-05 0)
(0.445724 2.12155e-05 0)
(0.445591 3.55647e-05 -1.1087e-20)
(0.445408 5.45023e-05 0)
(0.44516 7.97788e-05 1.0996e-20)
(0.444821 0.000114 0)
(0.444358 0.00016117 0)
(0.44372 0.000227818 0)
(0.442827 0.0003249 0)
(0.441557 0.000473694 0)
(0.439658 0.000712109 0)
(0.436801 0.00114739 0)
(0.431636 0.00192489 -2.18998e-20)
(0.424218 0.00393888 0)
(0.401505 0.0068862 0)
(0.474318 -4.87512e-05 9.42412e-21)
(0.474348 -4.86283e-05 -9.3846e-21)
(0.474379 -4.82459e-05 0)
(0.474409 -4.75618e-05 9.30208e-21)
(0.474439 -4.65243e-05 0)
(0.474469 -4.50696e-05 0)
(0.474497 -4.31189e-05 -9.18175e-21)
(0.474523 -4.05725e-05 1.82817e-20)
(0.474547 -3.73015e-05 -9.1012e-21)
(0.474567 -3.31365e-05 0)
(0.474583 -2.78552e-05 0)
(0.474593 -2.11636e-05 8.98056e-21)
(0.474596 -1.26722e-05 0)
(0.474588 -1.86215e-06 8.90221e-21)
(0.474569 1.19615e-05 0)
(0.474533 2.97369e-05 0)
(0.474475 5.27437e-05 0)
(0.47439 8.27511e-05 8.75252e-21)
(0.474268 0.000122248 0)
(0.474097 0.000174812 -8.68355e-21)
(0.473861 0.000245733 0)
(0.473537 0.000343094 0)
(0.473092 0.000479909 1.71975e-20)
(0.472476 0.000677887 -1.71592e-20)
(0.471623 0.000977743 0)
(0.470402 0.00145345 0)
(0.468706 0.00229141 0)
(0.465987 0.00378825 5.18315e-20)
(0.462835 0.00726299 0)
(0.456021 0.0134003 -3.55243e-20)
(0.484041 -8.37466e-05 -1.5229e-20)
(0.484072 -8.35557e-05 0)
(0.484102 -8.29873e-05 0)
(0.484133 -8.19732e-05 -4.51041e-20)
(0.484162 -8.04319e-05 2.99395e-20)
(0.484191 -7.82649e-05 0)
(0.484219 -7.53509e-05 2.96805e-20)
(0.484245 -7.15372e-05 -1.47762e-20)
(0.484269 -6.66276e-05 0)
(0.484289 -6.03677e-05 0)
(0.484304 -5.24244e-05 0)
(0.484314 -4.23591e-05 -4.35539e-20)
(0.484316 -2.95925e-05 0)
(0.484309 -1.33545e-05 -1.43911e-20)
(0.484289 7.38378e-06 0)
(0.484252 3.40073e-05 0)
(0.484194 6.83982e-05 0)
(0.484108 0.000113146 0)
(0.483985 0.000171868 0)
(0.483813 0.000249722 0)
(0.483576 0.000354241 -2.7962e-20)
(0.48325 0.000496766 0)
(0.482804 0.000695114 -1.38934e-20)
(0.482192 0.000978296 4.15838e-20)
(0.481347 0.00139783 0)
(0.480162 0.00204479 0)
(0.478532 0.00312128 -2.7736e-20)
(0.476129 0.00496799 -2.79112e-20)
(0.473322 0.00870424 2.8148e-20)
(0.469376 0.0156015 2.87034e-20)
(0.489697 -0.000117662 -2.6131e-20)
(0.489726 -0.000117372 0)
(0.489755 -0.000116589 0)
(0.489784 -0.000115218 2.57967e-20)
(0.489812 -0.000113144 -8.90763e-25)
(0.489839 -0.000110233 0)
(0.489866 -0.000106316 -2.54595e-20)
(0.48989 -0.000101183 -2.5346e-20)
(0.489912 -9.45653e-05 0)
(0.489931 -8.61162e-05 0)
(0.489945 -7.53826e-05 2.50082e-20)
(0.489954 -6.17702e-05 9.28813e-25)
(0.489956 -4.44954e-05 0)
(0.489948 -2.25191e-05 2.4673e-20)
(0.489927 5.54398e-06 0)
(0.489891 4.15546e-05 0)
(0.489834 8.8034e-05 0)
(0.489749 0.000148438 -2.42413e-20)
(0.489629 0.000227572 0)
(0.489462 0.000332239 0)
(0.489232 0.00047229 2.3951e-20)
(0.488918 0.000662369 0)
(0.48849 0.000925056 0)
(0.487908 0.00129632 -4.74604e-20)
(0.487116 0.00183729 0)
(0.48603 0.00265253 0)
(0.484577 0.00395073 2.37268e-20)
(0.482581 0.00607594 4.7549e-20)
(0.480387 0.0099288 -2.40482e-20)
(0.477938 0.0164716 0)
(0.493669 -0.000148804 2.33832e-20)
(0.493696 -0.000148392 -2.32816e-20)
(0.493723 -0.000147383 0)
(0.493749 -0.000145654 2.30791e-20)
(0.493776 -0.000143061 -2.29781e-20)
(0.493801 -0.00013943 0)
(0.493825 -0.000134546 -2.27733e-20)
(0.493848 -0.000128144 4.53426e-20)
(0.493868 -0.000119884 0)
(0.493885 -0.000109326 4.4932e-20)
(0.493898 -9.59019e-05 -2.23644e-20)
(0.493906 -7.88649e-05 2.22621e-20)
(0.493907 -5.72335e-05 0)
(0.493899 -2.97095e-05 -2.20587e-20)
(0.493879 5.43485e-06 0)
(0.493844 5.05138e-05 0)
(0.493789 0.000108654 0)
(0.493708 0.000184124 2.16634e-20)
(0.493594 0.000282828 0)
(0.493436 0.000413069 0)
(0.493219 0.00058675 0)
(0.492925 0.000821349 0)
(0.492528 0.00114331 0)
(0.491994 0.00159376 2.11846e-20)
(0.491278 0.00223991 0)
(0.490323 0.00319221 4.22027e-20)
(0.489089 0.0046525 0)
(0.487505 0.00693702 -4.23918e-20)
(0.485914 0.0107366 -4.24265e-20)
(0.484483 0.0167049 0)
(0.496707 -0.000177784 0)
(0.496732 -0.000177239 2.13943e-20)
(0.496756 -0.000176006 0)
(0.49678 -0.000173937 -6.3617e-20)
(0.496804 -0.000170855 0)
(0.496827 -0.000166551 4.2032e-20)
(0.496849 -0.000160767 2.09215e-20)
(0.49687 -0.000153183 -2.08262e-20)
(0.496888 -0.00014339 0)
(0.496903 -0.000130864 -4.12702e-20)
(0.496915 -0.000114924 0)
(0.496922 -9.46821e-05 -4.08861e-20)
(0.496922 -6.89718e-05 0)
(0.496914 -3.62536e-05 0)
(0.496895 5.51607e-06 0)
(0.496862 5.90668e-05 0)
(0.496811 0.000128074 0)
(0.496736 0.000217532 3.976e-20)
(0.49663 0.000334313 3.95813e-20)
(0.496484 0.000488001 0)
(0.496285 0.000692203 0)
(0.496017 0.000966619 0)
(0.49566 0.00134049 0)
(0.495184 0.00185818 -3.88148e-20)
(0.494561 0.00258952 0)
(0.493751 0.00364456 -7.73215e-20)
(0.492749 0.00520955 3.8597e-20)
(0.491549 0.0075599 3.85959e-20)
(0.490485 0.0112132 3.88287e-20)
(0.489795 0.0165956 3.85617e-20)
(0.499143 -0.000204664 0)
(0.499164 -0.000203992 0)
(0.499186 -0.000202554 0)
(0.499207 -0.000200175 1.15167e-24)
(0.499228 -0.000196652 3.94921e-20)
(0.499249 -0.000191742 -3.93137e-20)
(0.499268 -0.000185144 3.91324e-20)
(0.499286 -0.000176489 0)
(0.499302 -0.000165304 -3.87706e-20)
(0.499316 -0.000150985 0)
(0.499326 -0.00013275 3.84077e-20)
(0.499332 -0.00010958 3.8228e-20)
(0.499332 -8.01398e-05 0)
(0.499324 -4.26727e-05 0)
(0.499307 5.14822e-06 3.76835e-20)
(0.499277 6.64214e-05 3.75044e-20)
(0.49923 0.000145302 3.73269e-20)
(0.499163 0.000247412 -5.43934e-24)
(0.499067 0.000380433 -3.69868e-20)
(0.498936 0.000554994 0)
(0.498759 0.000786021 0)
(0.498523 0.00109481 0)
(0.49821 0.00151236 3.63516e-20)
(0.497802 0.00208455 3.62473e-20)
(0.497279 0.00288096 0)
(0.496621 0.00400692 7.20737e-20)
(0.495846 0.00562882 -7.89131e-23)
(0.494993 0.00797862 -1.14945e-22)
(0.494374 0.0114392 -3.58497e-20)
(0.494236 0.016276 -7.16141e-20)
(0.501152 -0.000229272 -3.80924e-20)
(0.50117 -0.000228489 0)
(0.501189 -0.000226876 0)
(0.501207 -0.000224234 1.06024e-24)
(0.501225 -0.000220332 -7.48244e-20)
(0.501243 -0.000214896 -3.72397e-20)
(0.501259 -0.00020759 -3.70682e-20)
(0.501275 -0.000197995 3.68939e-20)
(0.501289 -0.000185583 7.3442e-20)
(0.5013 -0.000169678 -3.65463e-20)
(0.501309 -0.000149407 -1.65631e-24)
(0.501314 -0.000123633 0)
(0.501314 -9.08742e-05 0)
(0.501307 -4.91812e-05 0)
(0.501291 4.01839e-06 -3.56786e-20)
(0.501265 7.21387e-05 -3.55065e-20)
(0.501224 0.00015974 -3.53358e-20)
(0.501164 0.000272957 -5.9375e-24)
(0.501081 0.000420122 0)
(0.500968 0.000612658 0)
(0.500815 0.000866426 0)
(0.500614 0.00120372 0)
(0.500352 0.00165637 -3.43919e-20)
(0.500015 0.00227027 0)
(0.499595 0.00311274 0)
(0.499089 0.00428159 -3.40505e-20)
(0.49853 0.0059221 -3.39738e-20)
(0.497984 0.00822513 -3.3912e-20)
(0.497737 0.0114709 3.38622e-20)
(0.498014 0.0158145 3.36959e-20)
(0.502842 -0.000251396 7.287e-20)
(0.502857 -0.000250534 -3.62714e-20)
(0.502872 -0.000248787 0)
(0.502887 -0.000245938 3.59439e-20)
(0.502901 -0.000241732 3.57785e-20)
(0.502916 -0.000235866 3.56124e-20)
(0.502929 -0.000227971 3.54446e-20)
(0.502942 -0.000217588 -3.52784e-20)
(0.502954 -0.000204139 -3.51106e-20)
(0.502963 -0.000186883 3.49425e-20)
(0.50297 -0.000164868 -6.95463e-20)
(0.502974 -0.00013686 0)
(0.502974 -0.000101248 0)
(0.502968 -5.59213e-05 -3.42653e-20)
(0.502955 1.89675e-06 3.40966e-20)
(0.502932 7.58786e-05 0)
(0.502898 0.000170908 6.75223e-20)
(0.502848 0.00029352 -3.36014e-20)
(0.502778 0.000452525 0)
(0.502684 0.000659896 0)
(0.502558 0.00093206 0)
(0.502394 0.00129177 6.5913e-20)
(0.502185 0.00177086 6.56151e-20)
(0.501923 0.00241415 0)
(0.501607 0.0032852 0)
(0.501248 0.00447284 0)
(0.500889 0.00610176 6.456e-20)
(0.500611 0.00832623 6.4312e-20)
(0.500672 0.0113494 -6.40429e-20)
(0.501265 0.0152528 0)
(0.504284 -0.000270834 -1.01294e-24)
(0.504295 -0.00026993 6.98913e-20)
(0.504306 -0.000268102 0)
(0.504317 -0.000265113 0)
(0.504328 -0.000260689 0)
(0.504339 -0.000254501 0)
(0.504349 -0.000246153 -3.41425e-20)
(0.504359 -0.000235151 0)
(0.504368 -0.000220872 0)
(0.504375 -0.000202525 0)
(0.50438 -0.000179093 1.00462e-19)
(0.504383 -0.000149257 6.66442e-20)
(0.504383 -0.000111303 0)
(0.504378 -6.29941e-05 3.29949e-20)
(0.504367 -1.39075e-06 -3.28305e-20)
(0.504349 7.73774e-05 -6.53249e-20)
(0.504322 0.000178434 -6.5007e-20)
(0.504282 0.000308597 -6.46699e-20)
(0.504227 0.00047699 -6.43456e-20)
(0.504153 0.0006959 6.40248e-20)
(0.504056 0.000981985 0)
(0.503931 0.00135798 -3.54167e-23)
(0.503776 0.00185506 -1.26233e-19)
(0.503588 0.00251612 0)
(0.503375 0.00340008 0)
(0.503154 0.00458623 0)
(0.502978 0.00618012 -1.41989e-22)
(0.502934 0.00830478 -1.86174e-22)
(0.50325 0.0111061 6.15552e-20)
(0.504085 0.0146183 0)
(0.505525 -0.000287385 -3.40184e-20)
(0.505532 -0.000286489 -3.38637e-20)
(0.505539 -0.000284641 0)
(0.505546 -0.00028159 6.71018e-20)
(0.505553 -0.000277043 0)
(0.505561 -0.000270653 0)
(0.505568 -0.000262 0)
(0.505574 -0.00025056 0)
(0.50558 -0.000235679 6.55161e-20)
(0.505585 -0.000216522 0)
(0.505589 -0.000192021 -6.48765e-20)
(0.505591 -0.000160795 -3.91858e-24)
(0.50559 -0.000121052 -6.42268e-20)
(0.505586 -7.04572e-05 0)
(0.505578 -5.95832e-06 0)
(0.505565 7.64529e-05 6.32629e-20)
(0.505544 0.000182057 6.29304e-20)
(0.505515 0.000317839 6.26209e-20)
(0.505475 0.000493079 1.7046e-23)
(0.505423 0.000720159 -6.19877e-20)
(0.505355 0.00101567 0)
(0.50527 0.00140192 -6.13704e-20)
(0.505169 0.00190895 1.22094e-19)
(0.505054 0.0025771 0)
(0.504939 0.00346017 0)
(0.504849 0.00462799 6.0105e-20)
(0.504838 0.00616899 -1.19716e-19)
(0.504996 0.00818022 -1.70962e-22)
(0.505522 0.0107655 0)
(0.506548 0.0139296 0)
(0.506606 -0.000300033 0)
(0.506608 -0.000298234 0)
(0.506611 -0.000295206 -1.30652e-19)
(0.506614 -0.000290642 6.50169e-20)
(0.506617 -0.000284179 6.47068e-20)
(0.506621 -0.000275377 0)
(0.506624 -0.000263695 -6.40824e-20)
(0.506627 -0.000248451 -6.37706e-20)
(0.506629 -0.000228782 0)
(0.506631 -0.000203582 0)
(0.506632 -0.000171427 -3.91235e-24)
(0.506631 -0.000130474 6.25044e-20)
(0.506628 -7.83266e-05 0)
(0.506623 -1.18625e-05 6.18602e-20)
(0.506614 7.30026e-05 0)
(0.506601 0.000181624 -6.123e-20)
(0.506583 0.000321046 0)
(0.506559 0.000500556 1.21174e-19)
(0.506527 0.000732437 0)
(0.506489 0.00103296 5.99396e-20)
(0.506444 0.00142367 0)
(0.506396 0.00193309 -5.93498e-20)
(0.506353 0.00259866 0)
(0.506331 0.0034689 0)
(0.50636 0.00460465 -5.84363e-20)
(0.506498 0.00607935 5.81223e-20)
(0.506829 0.00796894 -1.56293e-22)
(0.507529 0.0103465 -5.72124e-20)
(0.508706 0.0131994 0)
(0.507542 -0.000310405 0)
(0.50754 -0.000308732 0)
(0.507538 -0.000305818 6.38464e-20)
(0.507537 -0.000301347 -1.78327e-24)
(0.507536 -0.000294947 -6.32373e-20)
(0.507536 -0.000286164 0)
(0.507535 -0.000274443 6.26221e-20)
(0.507535 -0.000259086 0)
(0.507535 -0.000239213 0)
(0.507534 -0.000213698 0)
(0.507534 -0.000181092 -6.13765e-20)
(0.507532 -0.000139528 0)
(0.507531 -8.65822e-05 -6.07418e-20)
(0.507528 -1.91076e-05 -6.0432e-20)
(0.507524 6.69969e-05 0)
(0.507518 0.000177084 5.97888e-20)
(0.507511 0.000318152 -5.94696e-20)
(0.507503 0.000499367 -1.70794e-23)
(0.507493 0.000732736 -5.88293e-20)
(0.507483 0.00103399 -2.74606e-23)
(0.507478 0.00142369 0)
(0.507481 0.00192855 5.78613e-20)
(0.507506 0.0025829 0)
(0.507571 0.00343008 0)
(0.507709 0.00452263 0)
(0.507979 0.00592116 -5.64903e-20)
(0.50846 0.00768466 -1.42324e-22)
(0.509305 0.00986404 1.11473e-19)
(0.510603 0.0124369 0)
(0.508361 -0.000317474 6.31984e-20)
(0.508355 -0.000316006 6.29017e-20)
(0.508348 -0.000313303 -6.26032e-20)
(0.508343 -0.000309042 -1.74743e-24)
(0.508337 -0.000302844 0)
(0.508333 -0.000294251 0)
(0.508328 -0.0002827 6.13928e-20)
(0.508325 -0.000267488 0)
(0.508322 -0.000247727 -6.07784e-20)
(0.508319 -0.000222288 0)
(0.508317 -0.000189719 0)
(0.508315 -0.000148152 5.98464e-20)
(0.508315 -9.51723e-05 1.19072e-19)
(0.508314 -2.76509e-05 0)
(0.508315 5.84732e-05 0)
(0.508317 0.000168476 -1.17181e-19)
(0.508321 0.000309219 5.82802e-20)
(0.508327 0.000489624 -5.79636e-20)
(0.508338 0.000721279 5.76462e-20)
(0.508357 0.0010192 -5.73279e-20)
(0.508389 0.00140276 -5.69742e-20)
(0.508442 0.00189672 -1.13329e-19)
(0.50853 0.00253226 0)
(0.508676 0.00334771 0)
(0.508913 0.00438814 0)
(0.509299 0.00570335 5.53215e-20)
(0.509909 0.00733886 -5.49261e-20)
(0.510876 0.00932968 -5.44849e-20)
(0.512271 0.0116487 0)
(0.50908 -0.000321138 -6.23026e-20)
(0.509068 -0.000319959 -6.20042e-20)
(0.509057 -0.000317566 6.17039e-20)
(0.509046 -0.000313635 -1.71735e-24)
(0.509037 -0.000307783 0)
(0.509028 -0.000299553 0)
(0.50902 -0.000288383 -1.2097e-19)
(0.509013 -0.000273573 0)
(0.509006 -0.000254243 1.19732e-19)
(0.509002 -0.000229273 5.95529e-20)
(0.508998 -0.000197229 0)
(0.508996 -0.000156269 -5.89287e-20)
(0.508996 -0.000104017 -5.8613e-20)
(0.508998 -3.74059e-05 0)
(0.509003 4.75319e-05 0)
(0.509012 0.000155929 1.15305e-19)
(0.509026 0.000294424 -5.73233e-20)
(0.509048 0.000471591 -5.6997e-20)
(0.509079 0.000698477 0)
(0.509125 0.000989253 0)
(0.509193 0.00136196 5.60307e-20)
(0.509293 0.00183932 5.56959e-20)
(0.50944 0.00244938 -5.53033e-20)
(0.509659 0.00322583 0)
(0.509986 0.00420707 0)
(0.510475 0.00543386 0)
(0.511195 0.00694119 0)
(0.512262 0.00875275 0)
(0.513739 0.0108399 0)
(0.509714 -0.000321327 0)
(0.509697 -0.000320527 0)
(0.509681 -0.000318549 -6.0331e-20)
(0.509666 -0.000315069 -1.20106e-19)
(0.509652 -0.000309711 0)
(0.509638 -0.00030202 0)
(0.509626 -0.000291445 2.03765e-24)
(0.509615 -0.000277298 -5.8917e-20)
(0.509606 -0.000258719 -2.60814e-24)
(0.509598 -0.000234612 -3.04627e-24)
(0.509593 -0.00020358 -5.80458e-20)
(0.50959 -0.000163833 -5.77516e-20)
(0.50959 -0.000113065 5.74553e-20)
(0.509595 -4.83104e-05 0)
(0.509604 3.42558e-05 0)
(0.509619 0.00013956 -5.65632e-20)
(0.509643 0.000273942 5.62597e-20)
(0.509679 0.00044554 1.11892e-19)
(0.509729 0.000664755 -5.56249e-20)
(0.509801 0.000944806 0)
(0.509903 0.00130233 0)
(0.510045 0.00175795 -1.09302e-19)
(0.510247 0.00233671 1.62974e-19)
(0.510533 0.00306801 -1.07904e-19)
(0.51094 0.00398443 -1.07152e-19)
(0.511518 0.00511923 0)
(0.512332 0.00649924 1.05466e-19)
(0.513485 0.00814021 0)
(0.515027 0.010014 0)
(0.510263 -0.000317957 6.04801e-20)
(0.510241 -0.000317622 0)
(0.51022 -0.000316159 1.19789e-19)
(0.5102 -0.000313251 1.19198e-19)
(0.510182 -0.000308528 0)
(0.510164 -0.000301548 0)
(0.510148 -0.000291775 5.87049e-20)
(0.510134 -0.000278546 5.84038e-20)
(0.510121 -0.000261027 -5.81014e-20)
(0.510111 -0.000238166 -2.86201e-24)
(0.510104 -0.000208619 3.39548e-24)
(0.510101 -0.00017067 4.08592e-24)
(0.510101 -0.000122116 -4.97248e-24)
(0.510107 -6.01255e-05 0)
(0.510121 1.89365e-05 0)
(0.510142 0.000119736 0)
(0.510176 0.00024825 0)
(0.510225 0.000412103 -5.53094e-20)
(0.510293 0.000620975 5.49876e-20)
(0.510389 0.000887056 0)
(0.510522 0.00122552 0)
(0.510705 0.00165494 1.07981e-19)
(0.510956 0.00219748 -1.07282e-19)
(0.511303 0.00287863 1.09005e-22)
(0.51178 0.00372593 1.05791e-19)
(0.512436 0.00476646 0)
(0.513332 0.00602071 -1.04086e-19)
(0.514556 0.00749892 -1.02891e-19)
(0.516153 0.00917454 0)
(0.510724 -0.000311404 -1.19474e-19)
(0.510698 -0.000311592 0)
(0.510673 -0.000310716 -5.91481e-20)
(0.510649 -0.000308466 -5.88519e-20)
(0.510627 -0.000304485 0)
(0.510606 -0.000298349 0)
(0.510586 -0.000289545 0)
(0.510569 -0.000277439 0)
(0.510554 -0.000261239 5.73554e-20)
(0.510542 -0.000239947 -1.1411e-19)
(0.510534 -0.00021229 5.67538e-20)
(0.51053 -0.000176648 1.12897e-19)
(0.510532 -0.000130943 -5.61458e-20)
(0.51054 -7.25141e-05 -5.58342e-20)
(0.510557 2.04617e-06 0)
(0.510585 9.70965e-05 0)
(0.510628 0.000218194 0)
(0.510689 0.000372392 0)
(0.510775 0.000568586 0)
(0.510893 0.000817884 0)
(0.511055 0.00113398 0)
(0.511274 0.00153342 0)
(0.511571 0.00203567 0)
(0.511971 0.00266268 2.10208e-19)
(0.512511 0.00343759 0)
(0.513236 0.00438234 0)
(0.514202 0.00551254 -1.02505e-19)
(0.515487 0.00683457 1.01688e-19)
(0.517133 0.00832399 0)
(0.51111 -0.000302021 5.90627e-20)
(0.51108 -0.000302773 5.87683e-20)
(0.511052 -0.000302534 5.8475e-20)
(0.511025 -0.000301008 -5.8181e-20)
(0.510999 -0.000297853 0)
(0.510975 -0.000292667 0)
(0.510953 -0.000284967 0)
(0.510933 -0.000274158 0)
(0.510916 -0.000259497 -5.6705e-20)
(0.510903 -0.000240051 2.42175e-24)
(0.510893 -0.000214637 -5.61072e-20)
(0.510889 -0.000181746 -5.58114e-20)
(0.510892 -0.00013945 0)
(0.510902 -8.52884e-05 5.1175e-24)
(0.510923 -1.61144e-05 -5.49024e-20)
(0.510957 7.20811e-05 5.45967e-20)
(0.511008 0.00018439 5.42882e-20)
(0.511081 0.000327243 0)
(0.511183 0.000508701 0)
(0.511322 0.000738757 0)
(0.51151 0.00102961 0)
(0.511762 0.00139586 -1.05331e-19)
(0.512099 0.00185441 0)
(0.512547 0.00242401 -1.03968e-19)
(0.513142 0.00312397 0)
(0.513927 0.00397201 0)
(0.514953 0.0049799 1.0148e-19)
(0.51629 0.00615141 0)
(0.517976 0.0074645 0)
(0.511429 -0.000290135 5.84506e-20)
(0.511397 -0.000291476 -5.81634e-20)
(0.511366 -0.00029191 -5.78743e-20)
(0.511336 -0.000291155 5.75849e-20)
(0.511307 -0.000288889 0)
(0.51128 -0.000284738 0)
(0.511256 -0.000278252 0)
(0.511234 -0.000268881 5.6423e-20)
(0.511215 -0.000255943 -5.6132e-20)
(0.5112 -0.00023858 5.58426e-20)
(0.51119 -0.000215709 5.55508e-20)
(0.511186 -0.000185952 0)
(0.511189 -0.000147554 0)
(0.511202 -9.82746e-05 5.46702e-20)
(0.511226 -3.52617e-05 5.67183e-24)
(0.511265 4.51095e-05 -1.08145e-19)
(0.511324 0.000147425 -5.37751e-20)
(0.511408 0.000277454 0)
(0.511524 0.000442382 0)
(0.511681 0.000651065 5.28309e-20)
(0.511892 0.000914222 0)
(0.512174 0.00124454 1.04387e-19)
(0.512546 0.00165654 5.18168e-20)
(0.513037 0.00216607 0)
(0.513679 0.0027891 -1.02113e-19)
(0.514515 0.00353985 0)
(0.515592 0.00442712 1.00359e-19)
(0.516973 0.00545292 9.93603e-20)
(0.518694 0.00659776 9.81261e-20)
(0.51169 -0.000276064 -5.79024e-20)
(0.511655 -0.000278009 0)
(0.511621 -0.000279137 -5.73356e-20)
(0.511588 -0.000279185 0)
(0.511557 -0.000277854 0)
(0.511528 -0.000274801 0)
(0.511502 -0.000269614 0)
(0.511478 -0.000261795 -5.59205e-20)
(0.511458 -0.000250729 1.72666e-24)
(0.511441 -0.000235645 -5.53503e-20)
(0.511431 -0.00021557 0)
(0.511426 -0.000189274 0)
(0.51143 -0.000155188 0)
(0.511444 -0.00011132 -5.42036e-20)
(0.511472 -5.51356e-05 5.39183e-20)
(0.511516 1.65748e-05 1.07247e-19)
(0.511581 0.000107859 0)
(0.511674 0.000223787 -5.30244e-20)
(0.511802 0.000370646 -5.2719e-20)
(0.511976 0.000556132 -1.47844e-23)
(0.512207 0.000789498 -5.20854e-20)
(0.512514 0.00108159 5.17526e-20)
(0.512918 0.00144469 -5.14328e-20)
(0.513444 0.001892 0)
(0.514127 0.00243657 1.5203e-19)
(0.515006 0.0030897 5.02318e-20)
(0.516127 0.00385789 -9.96633e-20)
(0.517543 0.004742 -1.47966e-19)
(0.519294 0.0057252 -9.74714e-20)
(0.511896 -0.000260115 5.74093e-20)
(0.511859 -0.000262667 0)
(0.511823 -0.000264499 5.68606e-20)
(0.511788 -0.000265368 0)
(0.511755 -0.000265002 0)
(0.511724 -0.000263091 0)
(0.511695 -0.000259267 0)
(0.51167 -0.000253089 0)
(0.511648 -0.000244013 5.52067e-20)
(0.511631 -0.000231365 1.75983e-24)
(0.511619 -0.000214295 0)
(0.511615 -0.000191728 0)
(0.511619 -0.000162302 0)
(0.511635 -0.000124289 5.38157e-20)
(0.511664 -7.54958e-05 0)
(0.511712 -1.31533e-05 -5.35607e-24)
(0.511784 6.62206e-05 0)
(0.511884 0.00016697 5.2669e-20)
(0.512023 0.00029446 5.23718e-20)
(0.51221 0.00045522 -1.04123e-19)
(0.512459 0.000657051 1.56392e-23)
(0.512787 0.000909021 -5.14301e-20)
(0.513217 0.00122129 0)
(0.513774 0.00160466 5.07052e-20)
(0.51449 0.0020696 -3.37066e-23)
(0.515405 0.00262495 -4.9943e-20)
(0.516561 0.00327544 0)
(0.518008 0.00402119 4.90104e-20)
(0.519783 0.00484805 0)
(0.512052 -0.000242581 -5.69747e-20)
(0.512013 -0.000245735 2.83536e-20)
(0.511975 -0.000248272 0)
(0.511938 -0.000249969 0)
(0.511903 -0.000250584 0)
(0.51187 -0.000249843 0)
(0.51184 -0.000247426 5.5373e-20)
(0.511813 -0.000242952 -5.51055e-20)
(0.51179 -0.000235958 5.48375e-20)
(0.511771 -0.000225868 5.45705e-20)
(0.511759 -0.000211966 -5.42997e-20)
(0.511754 -0.000193344 0)
(0.511759 -0.000168859 -5.37579e-20)
(0.511775 -0.000137062 0)
(0.511807 -9.61213e-05 5.32091e-20)
(0.511858 -4.37273e-05 -5.29353e-20)
(0.511934 2.3013e-05 0)
(0.512041 0.000107698 -5.2362e-20)
(0.512188 0.000214751 0)
(0.512386 0.000349532 5.1779e-20)
(0.51265 0.000518406 5.1471e-20)
(0.512996 0.000728719 0)
(0.513446 0.000988631 5.07963e-20)
(0.514028 0.00130671 -2.3254e-23)
(0.514772 0.00169114 -1.00139e-19)
(0.515716 0.00214865 0)
(0.516901 0.00268261 4.91961e-20)
(0.518371 0.0032927 0)
(0.520165 0.00396741 4.81093e-20)
(0.512161 -0.000223744 2.82954e-20)
(0.51212 -0.00022749 -2.81677e-20)
(0.51208 -0.000230723 2.80385e-20)
(0.512042 -0.000233246 2.79098e-20)
(0.512005 -0.000234846 0)
(0.511971 -0.000235289 0)
(0.511939 -0.000234306 -5.50466e-20)
(0.51191 -0.000231579 8.21813e-20)
(0.511886 -0.000226729 -5.45287e-20)
(0.511866 -0.000219288 0)
(0.511853 -0.000208675 8.10114e-20)
(0.511848 -0.000194163 2.68723e-20)
(0.511852 -0.000174836 5.34831e-20)
(0.511869 -0.000149537 0)
(0.511902 -0.000116809 -7.94248e-20)
(0.511956 -7.48218e-05 0)
(0.512035 -2.12866e-05 0)
(0.512147 4.66309e-05 5.21277e-20)
(0.5123 0.000132403 0)
(0.512507 0.000240216 0)
(0.512782 0.000375016 0)
(0.513141 0.000542474 -5.09192e-20)
(0.513608 0.000748837 -5.06007e-20)
(0.514209 0.0010006 -5.02501e-20)
(0.514975 0.00130387 4.98752e-20)
(0.515941 0.00166357 0)
(0.517147 0.00208196 -4.90313e-20)
(0.518635 0.00255849 0)
(0.520444 0.0030843 -9.5887e-20)
(0.512225 -0.000203873 -5.62607e-20)
(0.512183 -0.000208194 -2.80065e-20)
(0.512141 -0.00021211 -2.78834e-20)
(0.512101 -0.000215449 -5.15607e-25)
(0.512063 -0.00021803 0)
(0.512027 -0.000219659 0)
(0.511994 -0.000220119 0)
(0.511964 -0.000219163 -2.72614e-20)
(0.511938 -0.000216495 0)
(0.511917 -0.00021176 0)
(0.511903 -0.000204521 -2.68844e-20)
(0.511897 -0.000194234 -5.35146e-20)
(0.511901 -0.00018022 0)
(0.511918 -0.000161624 2.65005e-20)
(0.511952 -0.000137374 1.15908e-24)
(0.512006 -0.000106131 0)
(0.512087 -6.62259e-05 2.61048e-20)
(0.512202 -1.55984e-05 -2.59683e-20)
(0.512361 4.82629e-05 0)
(0.512574 0.000128372 0)
(0.512856 0.000228268 0)
(0.513226 0.000351985 5.07678e-20)
(0.513704 0.000503929 0)
(0.514319 0.000688631 0)
(0.5151 0.0009103 0)
(0.516082 0.00117223 0)
(0.517304 0.0014758 0)
(0.518804 0.00182036 0)
(0.520623 0.00219964 7.17278e-20)
(0.512246 -0.000183204 2.79902e-20)
(0.512202 -0.000188081 2.78717e-20)
(0.512159 -0.000192663 1.38762e-20)
(0.512118 -0.000196802 -2.76338e-20)
(0.512078 -0.000200351 0)
(0.512041 -0.000203159 0)
(0.512006 -0.000205063 0)
(0.511974 -0.000205883 0)
(0.511947 -0.000205415 -1.35165e-20)
(0.511925 -0.000203417 0)
(0.51191 -0.0001996 0)
(0.511902 -0.000193607 4.0001e-20)
(0.511906 -0.000185002 0)
(0.511922 -0.00017324 -2.64191e-20)
(0.511956 -0.000157643 2.6293e-20)
(0.512011 -0.000137369 0)
(0.512093 -0.000111377 -2.60351e-20)
(0.512209 -7.83907e-05 2.59023e-20)
(0.51237 -3.6865e-05 1.28822e-20)
(0.512587 1.50415e-05 1.28118e-20)
(0.512874 7.94734e-05 0)
(0.513249 0.000158852 -1.26623e-20)
(0.513735 0.000255794 0)
(0.514358 0.000372951 -1.2496e-20)
(0.515148 0.000512733 0)
(0.51614 0.00067695 0)
(0.517371 0.000866226 0)
(0.518879 0.0010799 -1.20781e-20)
(0.520703 0.00131424 -2.38741e-20)
(0.512225 -0.000162043 0)
(0.512179 -0.000167454 0)
(0.512135 -0.000172677 -1.41946e-20)
(0.512092 -0.000177594 0)
(0.512051 -0.00018209 0)
(0.512012 -0.000186057 0)
(0.511976 -0.000189387 0)
(0.511943 -0.000191972 0)
(0.511914 -0.000193697 1.3845e-20)
(0.511891 -0.000194438 0)
(0.511874 -0.000194053 0)
(0.511865 -0.00019238 -1.36658e-20)
(0.511867 -0.000189225 0)
(0.511883 -0.000184356 0)
(0.511915 -0.000177495 0)
(0.51197 -0.000168302 0)
(0.512051 -0.000156371 0)
(0.512168 -0.000141212 0)
(0.512329 -0.000122249 -1.32204e-20)
(0.512546 -9.88142e-05 -1.31504e-20)
(0.512835 -7.01507e-05 0)
(0.513212 -3.54334e-05 1.30013e-20)
(0.513701 6.19231e-06 0)
(0.514327 5.55433e-05 1.28348e-20)
(0.51512 0.000113292 0)
(0.516116 0.000179842 0)
(0.51735 0.000255124 0)
(0.518861 0.000338496 1.24136e-20)
(0.520685 0.000428757 0)
(0.512157 -0.000138689 0)
(0.51211 -0.000144647 0)
(0.512064 -0.000150535 0)
(0.512019 -0.000156264 -1.39064e-20)
(0.511976 -0.000161757 0)
(0.511936 -0.000166952 -1.3781e-20)
(0.511898 -0.000171804 1.37179e-20)
(0.511863 -0.000176282 0)
(0.511833 -0.00018037 1.35906e-20)
(0.511807 -0.000184071 0)
(0.511789 -0.00018741 1.34616e-20)
(0.511778 -0.000190435 0)
(0.511778 -0.00019322 -1.33304e-20)
(0.511792 -0.000195881 0)
(0.511822 -0.000198576 0)
(0.511875 -0.000201521 -1.3128e-20)
(0.511954 -0.000205006 -1.30583e-20)
(0.512069 -0.00020941 0)
(0.512228 -0.000215222 -2.58281e-20)
(0.512443 -0.000223066 0)
(0.51273 -0.00023371 2.55212e-20)
(0.513105 -0.000248083 0)
(0.513591 -0.000267265 0)
(0.514215 -0.000292452 0)
(0.515006 -0.000324876 0)
(0.515999 -0.000365683 0)
(0.51723 -0.00041571 0)
(0.518737 -0.000475583 0)
(0.520557 -0.000543847 -2.38153e-20)
(0.512025 -0.000113093 0)
(0.511976 -0.000119616 0)
(0.511928 -0.000126196 -2.85397e-20)
(0.511882 -0.000132774 1.42079e-20)
(0.511837 -0.000139313 0)
(0.511794 -0.000145806 1.40823e-20)
(0.511754 -0.000152271 -1.4019e-20)
(0.511717 -0.000158761 0)
(0.511684 -0.000165369 -1.38911e-20)
(0.511657 -0.000172237 0)
(0.511635 -0.000179567 1.37614e-20)
(0.511622 -0.000187634 -2.73917e-20)
(0.51162 -0.000196807 1.36296e-20)
(0.51163 -0.000207572 2.71252e-20)
(0.511657 -0.000220562 2.69894e-20)
(0.511706 -0.000236595 1.34255e-20)
(0.511781 -0.000256716 -1.33558e-20)
(0.511891 -0.000282244 2.65674e-20)
(0.512045 -0.00031483 -1.22525e-24)
(0.512254 -0.000356499 0)
(0.512533 -0.000409689 -2.61078e-20)
(0.5129 -0.000477248 0)
(0.513377 -0.000562385 0)
(0.513991 -0.000668522 -5.1173e-20)
(0.51477 -0.000799019 5.07778e-20)
(0.515751 -0.000956778 0)
(0.516969 -0.00114355 4.98882e-20)
(0.518465 -0.00136001 0)
(0.520274 -0.00160187 -2.43849e-20)
(0.511831 -8.72502e-05 5.76721e-20)
(0.51178 -9.43375e-05 0)
(0.51173 -0.000101603 2.85872e-20)
(0.511682 -0.000109021 0)
(0.511635 -0.000116594 0)
(0.51159 -0.000124365 0)
(0.511547 -0.000132418 5.61602e-20)
(0.511508 -0.000140887 0)
(0.511472 -0.000149974 0)
(0.511442 -0.000159954 5.53857e-20)
(0.511418 -0.000171203 2.75621e-20)
(0.511401 -0.000184222 8.22903e-20)
(0.511395 -0.000199664 0)
(0.511401 -0.000218382 2.7163e-20)
(0.511424 -0.000241474 -2.70256e-20)
(0.511467 -0.00027035 0)
(0.511536 -0.000306798 8.02406e-20)
(0.511639 -0.000353069 -2.66018e-20)
(0.511784 -0.000411962 -2.64586e-20)
(0.511983 -0.000486904 0)
(0.51225 -0.000582001 0)
(0.512604 -0.000702046 0)
(0.513065 -0.000852419 0)
(0.51366 -0.00103885 5.12344e-20)
(0.51442 -0.00126693 -5.08377e-20)
(0.515379 -0.00154148 0)
(0.516576 -0.00186531 -4.99443e-20)
(0.518052 -0.00223929 0)
(0.519842 -0.00265624 -3.1992e-23)
(0.511571 -6.15972e-05 -5.78222e-20)
(0.511518 -6.92419e-05 0)
(0.511466 -7.71817e-05 0)
(0.511415 -8.54203e-05 -5.70641e-20)
(0.511366 -9.40015e-05 0)
(0.511319 -0.000103016 0)
(0.511274 -0.00011261 -4.92803e-25)
(0.511232 -0.000122999 0)
(0.511193 -0.000134485 0)
(0.51116 -0.000147476 -5.55185e-20)
(0.511132 -0.000162517 4.03312e-25)
(0.511111 -0.000180321 -5.49904e-20)
(0.5111 -0.00020182 0)
(0.511102 -0.000228219 1.6773e-24)
(0.511118 -0.000261068 0)
(0.511154 -0.000302351 5.39051e-20)
(0.511215 -0.000354581 -5.36197e-20)
(0.511308 -0.000420923 0)
(0.511442 -0.000505308 1.06079e-19)
(0.511627 -0.000612558 0)
(0.511877 -0.000748459 5.24268e-20)
(0.512211 -0.000919782 0)
(0.512649 -0.00113416 0)
(0.513218 -0.00139976 1.02784e-19)
(0.513949 -0.00172462 0)
(0.514878 -0.00211573 1.01163e-19)
(0.516044 -0.00257724 -1.00248e-19)
(0.517492 -0.00311047 -9.92448e-20)
(0.519256 -0.00370526 1.46928e-19)
(0.511242 -3.65105e-05 5.80225e-20)
(0.511186 -4.47036e-05 -5.77696e-20)
(0.511132 -5.33007e-05 5.75157e-20)
(0.511079 -6.23354e-05 9.29492e-25)
(0.511027 -7.18886e-05 0)
(0.510977 -8.20977e-05 0)
(0.510929 -9.31687e-05 -5.64902e-20)
(0.510884 -0.000105393 -5.62307e-20)
(0.510842 -0.000119169 1.1194e-19)
(0.510805 -0.000135029 0)
(0.510773 -0.000153676 5.54458e-20)
(0.510748 -0.000176028 1.1036e-19)
(0.510731 -0.000203278 0)
(0.510726 -0.00023697 -5.46406e-20)
(0.510736 -0.000279082 1.08741e-19)
(0.510763 -0.000332147 -5.40899e-20)
(0.510814 -0.00039938 1.07628e-19)
(0.510894 -0.00048483 0)
(0.511013 -0.000593543 -5.32265e-20)
(0.51118 -0.00073172 -1.05871e-19)
(0.511409 -0.000906841 -5.26097e-20)
(0.511718 -0.00112771 1.04604e-19)
(0.512126 -0.00140431 -1.03925e-19)
(0.512661 -0.00174746 -1.03147e-19)
(0.513353 -0.00216793 0)
(0.514241 -0.00267525 -1.01524e-19)
(0.515366 -0.00327535 1.00606e-19)
(0.516778 -0.00397039 9.95998e-20)
(0.518507 -0.00474712 1.21168e-22)
(0.510838 -1.23892e-05 -5.82833e-20)
(0.51078 -2.11169e-05 1.74084e-19)
(0.510723 -3.03483e-05 5.77715e-20)
(0.510667 -4.01451e-05 1.7255e-19)
(0.510612 -5.06229e-05 0)
(0.510559 -6.19629e-05 -1.14004e-19)
(0.510508 -7.44265e-05 1.13486e-19)
(0.510459 -8.83754e-05 -5.64833e-20)
(0.510414 -0.000104297 -2.24889e-19)
(0.510372 -0.00012284 1.11921e-19)
(0.510335 -0.000144852 -1.11392e-19)
(0.510305 -0.000171444 -1.1086e-19)