
961
(
(0.311701 -0.000107282 -9.46814e-06)
(0.420067 -0.000166231 -0.000129743)
(0.612188 -5.40455e-05 -0.000366939)
(0.434876 -3.05354e-05 -0.000141064)
(0.485047 -0.00018144 -0.000328797)
(0.695717 -4.68862e-05 -0.000664648)
(0.530203 -0.000112951 -0.00044173)
(0.750299 1.06535e-05 -0.000822178)
(0.563818 -1.0166e-05 -0.000469522)
(0.791176 8.19225e-05 -0.000863828)
(0.589272 9.10603e-05 -0.000441479)
(0.823137 0.000146592 -0.000828485)
(0.609124 0.000173281 -0.000385943)
(0.848882 0.000196103 -0.00075095)
(0.625033 0.000230199 -0.000321378)
(0.870043 0.00022767 -0.000655834)
(0.638004 0.00026074 -0.000258365)
(0.887614 0.000240962 -0.000558795)
(0.648638 0.000266936 -0.000202302)
(0.902208 0.000237354 -0.000468987)
(0.657298 0.000252286 -0.000155461)
(0.9142 0.000219134 -0.000391236)
(0.664199 0.000220754 -0.00011836)
(0.923822 0.000188934 -0.000327665)
(0.669474 0.000176236 -9.06292e-05)
(0.931211 0.000149405 -0.000278831)
(0.6732 0.000122351 -7.15587e-05)
(0.936449 0.000103072 -0.000244504)
(0.675423 6.24092e-05 -6.04403e-05)
(0.939581 5.23004e-05 -0.000224187)
(0.676165 -5.36566e-07 -5.67823e-05)
(0.940628 -6.88293e-07 -0.000217465)
(0.675434 -6.35094e-05 -6.04132e-05)
(0.939596 -5.37048e-05 -0.000224181)
(0.673221 -0.000123529 -7.15055e-05)
(0.936478 -0.000104556 -0.000244489)
(0.669504 -0.000177535 -9.05525e-05)
(0.931252 -0.000151012 -0.000278808)
(0.664237 -0.000222207 -0.000118263)
(0.923873 -0.000190694 -0.000327633)
(0.657341 -0.000253909 -0.000155352)
(0.914258 -0.000221058 -0.000391198)
(0.648684 -0.000268721 -0.00020219)
(0.902269 -0.000239429 -0.000468951)
(0.638049 -0.000262659 -0.000258266)
(0.887675 -0.000243149 -0.000558777)
(0.625075 -0.000232194 -0.000321313)
(0.870099 -0.000229903 -0.000655858)
(0.609159 -0.000175269 -0.000385938)
(0.848929 -0.000198293 -0.00075105)
(0.589298 -9.29415e-05 -0.00044156)
(0.823172 -0.000148628 -0.000828697)
(0.563835 8.50636e-06 -0.00046971)
(0.791198 -8.36902e-05 -0.000864183)
(0.530211 0.000111595 -0.000442034)
(0.75031 -1.20868e-05 -0.000822692)
(0.485049 0.000180431 -0.000329208)
(0.695719 4.58038e-05 -0.000665315)
(0.420066 0.000165614 -0.000130208)
(0.612186 5.33801e-05 -0.000367698)
(0.311701 0.000106949 -9.85211e-06)
(0.434874 3.02047e-05 -0.000141667)
(0.718996 0.000158887 -0.000899554)
(0.51533 0.000102305 -0.000542387)
(0.803265 0.000203007 -0.00120117)
(0.8528 0.000221219 -0.00133722)
(0.889516 0.000213277 -0.0013638)
(0.919258 0.000190436 -0.00131806)
(0.944222 0.000162155 -0.00122858)
(0.965469 0.000133847 -0.0011173)
(0.983596 0.000107921 -0.00100004)
(0.998964 8.51817e-05 -0.00088754)
(1.01179 6.56321e-05 -0.000786672)
(1.0222 4.89051e-05 -0.000701525)
(1.03026 3.44791e-05 -0.000634294)
(1.03602 2.17827e-05 -0.000585992)
(1.03947 1.0233e-05 -0.000556976)
(1.04062 -7.52833e-07 -0.000547316)
(1.03948 -1.17538e-05 -0.000557013)
(1.03604 -2.33455e-05 -0.000586062)
(1.0303 -3.61047e-05 -0.000634389)
(1.02225 -5.06022e-05 -0.000701635)
(1.01185 -6.73949e-05 -0.00078679)
(0.999024 -8.69871e-05 -0.000887662)
(0.983655 -0.000109729 -0.00100017)
(0.965523 -0.000135599 -0.00111746)
(0.944267 -0.000163785 -0.0012288)
(0.919291 -0.00019187 -0.00131836)
(0.889536 -0.000214453 -0.00136422)
(0.852808 -0.000222131 -0.00133778)
(0.803262 -0.0002037 -0.00120187)
(0.718989 -0.000159305 -0.000900343)
(0.515324 -0.000102492 -0.000543011)
(0.785679 0.000201595 -0.00148315)
(0.564077 0.000127223 -0.00101635)
(0.873957 0.000253295 -0.00172184)
(0.922673 0.000259099 -0.00179638)
(0.957434 0.000229527 -0.0017826)
(0.985343 0.000181508 -0.00171433)
(1.00893 0.000128536 -0.00161313)
(1.02928 7.92446e-05 -0.00149504)
(1.0469 3.82804e-05 -0.00137232)
(1.06203 7.60028e-06 -0.00125406)
(1.07482 -1.25517e-05 -0.00114679)
(1.0853 -2.29765e-05 -0.00105497)
(1.09347 -2.51055e-05 -0.000981487)
(1.09934 -2.07559e-05 -0.000928079)
(1.10287 -1.19777e-05 -0.000895732)
(1.10405 -9.55234e-07 -0.000884924)
(1.10288 1.00627e-05 -0.000895794)
(1.09936 1.883e-05 -0.000928196)
(1.09351 2.31681e-05 -0.000981647)
(1.08534 2.10377e-05 -0.00105516)
(1.07487 1.06333e-05 -0.00114699)
(1.06208 -9.46308e-06 -0.00125426)
(1.04694 -4.00409e-05 -0.00137251)
(1.02932 -8.0848e-05 -0.00149522)
(1.00896 -0.000129927 -0.00161331)
(0.985364 -0.000182636 -0.00171453)
(0.957443 -0.000230364 -0.00178284)
(0.922671 -0.000259679 -0.00179666)
(0.873947 -0.000253706 -0.00172217)
(0.785666 -0.000201822 -0.00148347)
(0.564068 -0.000127303 -0.00101659)
(0.83555 0.000167086 -0.00189241)
(0.599505 0.000104764 -0.001346)
(0.92934 0.000205928 -0.00208952)
(0.979443 0.000199227 -0.00211769)
(1.01403 0.000160981 -0.00207138)
(1.04128 0.000107292 -0.00198428)
(1.06417 5.0827e-05 -0.00187415)
(1.08394 1.46093e-08 -0.00175311)
(1.10115 -4.02206e-05 -0.00163039)
(1.11604 -6.75231e-05 -0.00151314)
(1.12869 -8.13638e-05 -0.00140681)
(1.13913 -8.24963e-05 -0.00131544)
(1.14731 -7.25724e-05 -0.00124191)
(1.1532 -5.3874e-05 -0.00118819)
(1.15675 -2.91059e-05 -0.00115551)
(1.15794 -1.23467e-06 -0.00114457)
(1.15676 2.66426e-05 -0.00115557)
(1.15321 5.14311e-05 -0.0011883)
(1.14733 7.01694e-05 -0.00124207)
(1.13915 8.01617e-05 -0.00131562)
(1.12872 7.91357e-05 -0.00140699)
(1.11607 6.54495e-05 -0.0015133)
(1.10118 3.83557e-05 -0.00163051)
(1.08396 -1.61615e-06 -0.00175317)
(1.06418 -5.21192e-05 -0.00187414)
(1.04128 -0.000108244 -0.00198418)
(1.01402 -0.000161593 -0.00207119)
(0.97943 -0.00019957 -0.00211741)
(0.929323 -0.000206132 -0.00208915)
(0.835535 -0.000167178 -0.00189194)
(0.599496 -0.000104775 -0.00134559)
(0.875266 0.000113684 -0.00210418)
(0.627186 7.25014e-05 -0.00151447)
(0.974969 0.000128894 -0.0022844)
(1.02773 0.000103274 -0.00229126)
(1.06345 5.44369e-05 -0.00222919)
(1.09114 -3.38735e-06 -0.00213313)
(1.11418 -5.9218e-05 -0.00201964)
(1.13401 -0.000105907 -0.00189899)
(1.15127 -0.000139294 -0.0017787)
(1.16623 -0.000157425 -0.00166459)
(1.17899 -0.000160007 -0.00156126)
(1.18954 -0.000148004 -0.00147233)
(1.19783 -0.000123326 -0.00140055)
(1.20382 -8.85753e-05 -0.00134794)
(1.20743 -4.68393e-05 -0.00131585)
(1.20864 -1.52029e-06 -0.00130508)
(1.20744 4.38157e-05 -0.00131588)
(1.20382 8.56044e-05 -0.00134798)
(1.19784 0.000120447 -0.0014006)
(1.18955 0.000145263 -0.00147238)
(1.179 0.000157456 -0.00156128)
(1.16624 0.000155123 -0.00166455)
(1.15127 0.000137299 -0.00177857)
(1.13401 0.000104274 -0.00189874)
(1.11417 5.79844e-05 -0.00201922)
(1.09112 2.56632e-06 -0.00213252)
(1.06343 -5.48706e-05 -0.00222835)
(1.02771 -0.000103424 -0.0022902)
(0.974951 -0.000128932 -0.00228313)
(0.875255 -0.000113672 -0.00210276)
(0.627181 -7.24616e-05 -0.00151332)
(0.906831 6.31732e-05 -0.00212155)
(0.648757 4.34071e-05 -0.00152975)
(1.0125 5.23611e-05 -0.00229903)
(1.06877 4.94731e-06 -0.00230587)
(1.10661 -5.7805e-05 -0.00224537)
(1.13564 -0.000122662 -0.00215239)
(1.15962 -0.000179732 -0.00204318)
(1.18017 -0.000222944 -0.00192747)
(1.19802 -0.000249036 -0.00181214)
(1.2135 -0.000256779 -0.00170252)
(1.22672 -0.000246472 -0.00160292)
(1.23766 -0.000219577 -0.00151684)
(1.24627 -0.000178436 -0.00144707)
(1.25249 -0.000126052 -0.00139575)
(1.25625 -6.58994e-05 -0.00136436)
(1.25751 -1.76278e-06 -0.00135379)
(1.25625 6.24011e-05 -0.00136433)
(1.25249 0.000122637 -0.00139567)
(1.24627 0.000175161 -0.00144695)
(1.23765 0.000216503 -0.00151665)
(1.22671 0.000243663 -0.00160266)
(1.2135 0.000254299 -0.00170215)
(1.19801 0.000246947 -0.00181162)
(1.18015 0.000221298 -0.00192675)
(1.1596 0.000178558 -0.00204221)
(1.13561 0.00012196 -0.00215112)
(1.10658 5.75267e-05 -0.00224377)
(1.06875 -4.93423e-06 -0.00230394)
(1.01249 -5.22626e-05 -0.00229681)
(0.906828 -6.30829e-05 -0.00211917)
(0.648759 -4.33326e-05 -0.00152788)
(0.931011 2.50202e-05 -0.00198978)
(0.664968 2.25779e-05 -0.00143406)
(1.04229 -8.75565e-06 -0.00216156)
(1.10251 -7.69482e-05 -0.00217696)
(1.14318 -0.00015521 -0.00212834)
(1.17431 -0.000229995 -0.00204731)
(1.19992 -0.000291522 -0.00194898)
(1.22182 -0.000334155 -0.00184262)
(1.24082 -0.000355239 -0.00173495)
(1.25729 -0.000354218 -0.00163127)
(1.27135 -0.000332057 -0.00153603)
(1.283 -0.000290847 -0.00145297)
(1.29217 -0.000233507 -0.00138515)
(1.2988 -0.000163562 -0.00133499)
(1.30281 -8.49596e-05 -0.00130418)
(1.30415 -1.93016e-06 -0.00129376)
(1.3028 8.11351e-05 -0.00130407)
(1.29879 0.000159845 -0.00133477)
(1.29216 0.000229969 -0.00138482)
(1.28298 0.00028756 -0.00145251)
(1.27133 0.000329092 -0.00153544)
(1.25727 0.000351644 -0.0016305)
(1.2408 0.000353117 -0.00173396)
(1.22179 0.000332533 -0.00184137)
(1.19989 0.000290422 -0.0019474)
(1.17428 0.000229405 -0.00204535)
(1.14316 0.000155064 -0.00212599)
(1.1025 7.70896e-05 -0.00217422)
(1.04229 8.95231e-06 -0.00215851)
(0.931021 -2.48828e-05 -0.00198658)
(0.664979 -2.24895e-05 -0.00143158)
(0.948556 6.31969e-07 -0.00176299)
(0.676557 1.02517e-05 -0.0012717)
(1.0646 -5.03687e-05 -0.00191729)
(1.12871 -0.000135189 -0.00193888)
(1.17256 -0.000227756 -0.00190391)
(1.20628 -0.000313377 -0.00183801)
(1.23407 -0.000381639 -0.00175378)
(1.25784 -0.000426663 -0.00165944)
(1.27849 -0.000445877 -0.0015613)
(1.29639 -0.000439066 -0.00146472)
(1.31168 -0.000407712 -0.00137441)
(1.32436 -0.000354521 -0.00129454)
(1.33435 -0.000283051 -0.00122863)
(1.34156 -0.000197436 -0.00117951)
(1.34592 -0.000102179 -0.0011492)
(1.34738 -2.01007e-06 -0.00113891)
(1.34591 9.82009e-05 -0.00114903)
(1.34155 0.000193582 -0.00117916)
(1.33433 0.000279403 -0.00122809)
(1.32434 0.000351155 -0.00129381)
(1.31166 0.000404704 -0.00137348)
(1.29637 0.000436485 -0.00146356)
(1.27846 0.000443784 -0.00155987)
(1.25782 0.000425101 -0.00165768)
(1.23405 0.000380624 -0.00175165)
(1.20626 0.000312887 -0.00183547)
(1.17254 0.000227711 -0.00190097)
(1.12871 0.000135415 -0.00193555)
(1.06461 5.0618e-05 -0.00191364)
(0.948578 -4.82978e-07 -0.00175923)
(0.676576 -1.01711e-05 -0.00126881)
(0.960536 -1.30107e-05 -0.00149138)
(0.684417 4.09417e-06 -0.00107962)
(1.08015 -7.49648e-05 -0.00161717)
(1.14759 -0.000170481 -0.00163766)
(1.19447 -0.000273578 -0.00161213)
(1.2309 -0.000368512 -0.00155938)
(1.26112 -0.000443966 -0.00148871)
(1.28708 -0.000493297 -0.00140655)
(1.30971 -0.00051345 -0.00131836)
(1.3294 -0.00050408 -0.00122925)
(1.34626 -0.00046687 -0.0011441)
(1.36024 -0.000404994 -0.00106751)
(1.37126 -0.000322636 -0.00100356)
(1.37921 -0.000224595 -0.000955534)
(1.38401 -0.000115978 -0.000925773)
(1.38562 -2.00992e-06 -0.000915632)
(1.38401 0.000112003 -0.000925547)
(1.3792 0.000220755 -0.000955079)
(1.37124 0.000319014 -0.00100287)
(1.36022 0.00040167 -0.00106658)
(1.34624 0.000463919 -0.00114291)
(1.32938 0.000501569 -0.00122778)
(1.30969 0.000511438 -0.00131659)
(1.28706 0.000491823 -0.00140444)
(1.2611 0.000443041 -0.00148623)
(1.23089 0.000368104 -0.00155651)
(1.19447 0.000273598 -0.00160887)
(1.1476 0.000170746 -0.00163405)
(1.08018 7.52235e-05 -0.00161327)
(0.960568 1.31434e-05 -0.00148742)
(0.684443 -4.03538e-06 -0.00107658)
(0.968234 -2.01357e-05 -0.00120945)
(0.68948 1.26484e-06 -0.000880502)
(1.09023 -8.76533e-05 -0.00130284)
(1.16011 -0.000187806 -0.00131692)
(1.20943 -0.00029635 -0.00129592)
(1.24823 -0.000397187 -0.00125271)
(1.28072 -0.000478347 -0.00119336)
(1.30885 -0.000532298 -0.0011223)
(1.33354 -0.000555166 -0.00104377)
(1.35514 -0.000546022 -0.000962259)
(1.37373 -0.000506318 -0.00088258)
(1.38919 -0.000439383 -0.000809631)
(1.40139 -0.000349901 -0.000748001)
(1.41018 -0.000243345 -0.000701446)
(1.41548 -0.000125468 -0.000672542)
(1.41725 -1.94949e-06 -0.000662684)
(1.41547 0.000121616 -0.000672292)
(1.41017 0.000239632 -0.000700939)
(1.40138 0.000346412 -0.000747229)
(1.38918 0.000436198 -0.000808586)
(1.37371 0.000503506 -0.000881254)
(1.35513 0.000543647 -0.000960642)
(1.33352 0.000553281 -0.00104184)
(1.30884 0.000530937 -0.00112005)
(1.28071 0.000477515 -0.00119078)
(1.24823 0.000396845 -0.0012498)
(1.20944 0.000296401 -0.00129268)
(1.16013 0.000188069 -0.00131339)
(1.09026 8.78906e-05 -0.00129906)
(0.968274 2.02389e-05 -0.00120562)
(0.689511 -1.23106e-06 -0.000877579)
(0.9729 -2.36137e-05 -0.000935978)
(0.692576 8.16532e-09 -0.000685743)
(1.09631 -9.27748e-05 -0.001)
(1.16774 -0.000192823 -0.0010069)
(1.21874 -0.000302124 -0.000988361)
(1.25928 -0.000404865 -0.000952725)
(1.29353 -0.000488939 -0.000903555)
(1.32344 -0.000546247 -0.000843547)
(1.3499 -0.000572157 -0.000775642)
(1.37323 -0.000564991 -0.000703414)
(1.39344 -0.000525632 -0.000631171)
(1.41036 -0.000457165 -0.000563765)
(1.42374 -0.000364437 -0.000506079)
(1.43339 -0.000253444 -0.000462244)
(1.43919 -0.00013055 -0.000435017)
(1.44112 -1.84682e-06 -0.00042574)
(1.43918 0.000126906 -0.00043477)
(1.43338 0.000249942 -0.000461743)
(1.42373 0.000361164 -0.000505313)
(1.41035 0.000454195 -0.000562728)
(1.39343 0.000523029 -0.000629863)
(1.37322 0.000562809 -0.000701839)
(1.34989 0.00057044 -0.000773797)
(1.32344 0.000545021 -0.000841431)
(1.29353 0.000488203 -0.000901165)
(1.25929 0.000404576 -0.000950066)
(1.21876 0.000302186 -0.000985447)
(1.16777 0.000193064 -0.00100375)
(1.09635 9.29807e-05 -0.000996651)
(0.972944 2.36908e-05 -0.000932598)
(0.69261 7.56581e-09 -0.000683165)
(0.975563 -2.47952e-05 -0.000678877)
(0.694363 -3.57015e-07 -0.000500248)
(1.09973 -9.31534e-05 -0.000719666)
(1.17205 -0.000190296 -0.000721557)
(1.22405 -0.000297245 -0.000706028)
(1.26567 -0.000398739 -0.000678172)
(1.30106 -0.000482917 -0.000639898)
(1.33217 -0.000541529 -0.00059266)
(1.35987 -0.000569525 -0.000538272)
(1.38447 -0.00056467 -0.000479253)
(1.40594 -0.000527275 -0.000418987)
(1.42403 -0.000459966 -0.000361665)
(1.43842 -0.000367399 -0.000311853)
(1.44881 -0.000255724 -0.000273654)
(1.45505 -0.000131693 -0.000249855)
(1.45713 -1.71493e-06 -0.000241747)
(1.45505 0.000128314 -0.000249639)
(1.4488 0.000252493 -0.000273215)
(1.43841 0.000364399 -0.000311182)
(1.42402 0.000457264 -0.000360761)
(1.40593 0.000524923 -0.000417858)
(1.38447 0.000562713 -0.000477907)
(1.35987 0.000567995 -0.000536716)
(1.33217 0.000540446 -0.000590898)
(1.30107 0.000482276 -0.000637933)
(1.26568 0.000398496 -0.000676007)
(1.22407 0.000297311 -0.000703672)
(1.17208 0.000190514 -0.000719021)
(1.09978 9.33324e-05 -0.000716974)
(0.975609 2.4854e-05 -0.000676165)
(0.694398 3.61765e-07 -0.000498181)
(0.976977 -2.45236e-05 -0.000439402)
(0.695323 -1.60835e-07 -0.000325218)
(1.10153 -9.09648e-05 -0.000462963)
(1.17429 -0.000184319 -0.000462577)
(1.22682 -0.000287766 -0.000451406)
(1.26902 -0.00038655 -0.000432309)
(1.30505 -0.000469161 -0.000406213)
(1.33683 -0.000527438 -0.000373816)
(1.36525 -0.000556213 -0.000336115)
(1.3906 -0.000552995 -0.000294652)
(1.41285 -0.000517752 -0.000251666)
(1.4317 -0.000452744 -0.000210131)
(1.44676 -0.000362317 -0.000173511)
(1.45768 -0.000252479 -0.000145116)
(1.46425 -0.000130048 -0.000127312)
(1.46644 -1.57652e-06 -0.000121233)
(1.46425 0.000126947 -0.000127152)
(1.45767 0.000249527 -0.000144789)
(1.44675 0.000359594 -0.000173013)
(1.43169 0.000450309 -0.000209464)
(1.41285 0.000515644 -0.00025084)
(1.39061 0.000551248 -0.000293676)
(1.36525 0.000554854 -0.000334997)
(1.33684 0.000526482 -0.000372559)
(1.30506 0.000468601 -0.00040482)
(1.26904 0.000386346 -0.000430783)
(1.22685 0.000287836 -0.000449751)
(1.17433 0.000184522 -0.000460797)
(1.10158 9.11255e-05 -0.000461074)
(0.977024 2.45696e-05 -0.000437499)
(0.695358 1.57819e-07 -0.000323767)
(0.977642 -2.37787e-05 -0.00021455)
(0.695777 2.05529e-07 -0.000159247)
(1.10237 -8.84468e-05 -0.000225167)
(1.17533 -0.000178774 -0.000224486)
(1.2281 -0.00027931 -0.000218692)
(1.27057 -0.000375642 -0.000209047)
(1.30689 -0.000456524 -0.000195915)
(1.33899 -0.000513925 -0.00017957)
(1.36774 -0.000542695 -0.000160448)
(1.39346 -0.000540275 -0.00013927)
(1.41608 -0.000506501 -0.000117131)
(1.43531 -0.000443454 -9.5539e-05)
(1.45073 -0.000355264 -7.63187e-05)
(1.46193 -0.000247752 -6.12883e-05)
(1.46869 -0.000127639 -5.18081e-05)
(1.47094 -1.46839e-06 -4.85611e-05)
(1.46869 0.000124754 -5.17203e-05)
(1.46193 0.000245016 -6.111e-05)
(1.45072 0.000352751 -7.60478e-05)
(1.43531 0.000441216 -9.51778e-05)
(1.41608 0.000504571 -0.000116685)
(1.39346 0.000538679 -0.000138744)
(1.36775 0.000541456 -0.000159847)
(1.339 0.000513055 -0.000178896)
(1.30691 0.000456018 -0.00019517)
(1.27059 0.000375464 -0.000208232)
(1.22813 0.000279384 -0.000217809)
(1.17537 0.000178969 -0.000223537)
(1.10241 8.85977e-05 -0.00022416)
(0.977689 2.38184e-05 -0.000213532)
(0.695812 -2.121e-07 -0.000158471)
(0.977834 -2.3443e-05 2.34542e-06)
(0.695909 3.63853e-07 1.76273e-06)
(1.1026 -8.74197e-05 2.39769e-06)
(1.17563 -0.000176613 2.33075e-06)
(1.22846 -0.000276043 2.23546e-06)
(1.27101 -0.000371415 2.13011e-06)
(1.30742 -0.000451582 2.0183e-06)
(1.3396 -0.000508568 1.9002e-06)
(1.36845 -0.000537243 1.77582e-06)
(1.39427 -0.000535041 1.64625e-06)
(1.417 -0.000501771 1.5144e-06)
(1.43634 -0.000439461 1.38562e-06)
(1.45186 -0.000352174 1.2682e-06)
(1.46315 -0.000245654 1.17291e-06)
(1.46997 -0.000126565 1.11092e-06)
(1.47224 -1.42337e-06 1.09062e-06)
(1.46996 0.00012377 1.11531e-06)
(1.46315 0.000243007 1.18236e-06)
(1.45186 0.000349747 1.28377e-06)
(1.43634 0.000437303 1.40851e-06)
(1.417 0.000499911 1.54576e-06)
(1.39428 0.000533504 1.68705e-06)
(1.36846 0.00053605 1.82655e-06)
(1.33962 0.00050773 1.96059e-06)
(1.30743 0.000451095 2.08722e-06)
(1.27104 0.000371244 2.20584e-06)
(1.22849 0.000276116 2.31648e-06)
(1.17567 0.000176802 2.41675e-06)
(1.10265 8.75661e-05 2.49002e-06)
(0.977881 2.34802e-05 2.44246e-06)
(0.695944 -3.71615e-07 1.83886e-06)
(0.977642 -2.38254e-05 0.000219275)
(0.695777 1.83502e-07 0.0001628)
(1.10237 -8.8531e-05 0.000229995)
(1.17533 -0.000178895 0.000229175)
(1.2281 -0.000279464 0.000223186)
(1.27057 -0.000375827 0.000213324)
(1.30689 -0.000456736 0.000199962)
(1.33899 -0.000514162 0.000183372)
(1.36774 -0.000542951 0.00016399)
(1.39346 -0.00054054 0.00014254)
(1.41608 -0.000506764 0.000120123)
(1.43531 -0.000443697 9.82586e-05)
(1.45073 -0.000355469 7.87885e-05)
(1.46193 -0.000247898 6.35549e-05)
(1.46869 -0.00012771 5.3942e-05)
(1.47094 -1.45449e-06 5.06508e-05)
(1.46868 0.000124853 5.38613e-05)
(1.46193 0.00024519 6.33923e-05)
(1.45072 0.000352983 7.85445e-05)
(1.43531 0.000441484 9.79382e-05)
(1.41608 0.000504855 0.000119735)
(1.39346 0.000538961 0.000142092)
(1.36775 0.000541722 0.000163486)
(1.339 0.000513296 0.000182815)
(1.30691 0.000456228 0.00019935)
(1.27059 0.000375641 0.000212657)
(1.22813 0.000279528 0.000222461)
(1.17537 0.00017908 0.000228395)
(1.10241 8.86758e-05 0.000229168)
(0.977689 2.38625e-05 0.000218447)
(0.695813 -1.91044e-07 0.000162172)
(0.976978 -2.46152e-05 0.000444226)
(0.695324 -2.03776e-07 0.000328849)
(1.10153 -9.11294e-05 0.00046788)
(1.17429 -0.000184554 0.000467342)
(1.22682 -0.000288064 0.000455958)
(1.26902 -0.000386907 0.000436625)
(1.30505 -0.000469572 0.000410276)
(1.33683 -0.000527894 0.000377608)
(1.36525 -0.000556704 0.000339617)
(1.39061 -0.000553502 0.000297847)
(1.41285 -0.000518251 0.000254545)
(1.4317 -0.000453205 0.000212698)
(1.44676 -0.000362703 0.000175791)
(1.45768 -0.000252754 0.000147163)
(1.46425 -0.000130181 0.000129206)
(1.46644 -1.55149e-06 0.000123074)
(1.46425 0.00012713 0.000129047)
(1.45767 0.000249852 0.000146841)
(1.44675 0.000360029 0.000175306)
(1.4317 0.000450814 0.000212055)
(1.41285 0.000516181 0.000253759)
(1.39061 0.000551783 0.000296931)
(1.36526 0.00055536 0.00033858)
(1.33684 0.000526941 0.000376453)
(1.30507 0.000469002 0.000409003)
(1.26905 0.000386683 0.000435232)
(1.22685 0.000288109 0.000454446)
(1.17433 0.000184733 0.000465714)
(1.10158 9.12742e-05 0.000466156)
(0.977025 2.46537e-05 0.000442497)
(0.695359 1.97521e-07 0.000327536)
(0.975565 -2.49261e-05 0.000683839)
(0.694365 -4.17834e-07 0.000503992)
(1.09974 -9.33876e-05 0.000724702)
(1.17205 -0.000190626 0.000726412)
(1.22405 -0.000297662 0.000710639)
(1.26567 -0.000399235 0.000682512)
(1.30107 -0.000483485 0.000643948)
(1.33217 -0.000542156 0.000596397)
(1.35987 -0.000570195 0.000541673)
(1.38447 -0.000565356 0.000482299)
(1.40594 -0.000527943 0.000421668)
(1.42403 -0.000460576 0.000363989)
(1.43841 -0.000367906 0.000313854)
(1.4488 -0.000256083 0.000275395)
(1.45505 -0.000131866 0.000251425)
(1.45712 -1.68415e-06 0.000243255)
(1.45504 0.000128549 0.000251201)
(1.44879 0.000252912 0.000274941)
(1.43841 0.000364963 0.000313167)
(1.42403 0.000457926 0.000363075)
(1.40594 0.000525633 0.000420541)
(1.38447 0.000563426 0.000480974)
(1.35987 0.000568675 0.00054016)
(1.33218 0.000541065 0.0005947)
(1.30108 0.000482817 0.000642066)
(1.26569 0.000398952 0.000680446)
(1.22408 0.000297679 0.000708391)
(1.17209 0.000190798 0.000723991)
(1.09978 9.35347e-05 0.000722135)
(0.975612 2.49686e-05 0.000681264)
(0.6944 4.14793e-07 0.000502035)
(0.972906 -2.37715e-05 0.00094107)
(0.69258 -6.32926e-08 0.0006896)
(1.09631 -9.30569e-05 0.00100513)
(1.16775 -0.000193215 0.0010118)
(1.21875 -0.000302613 0.000992971)
(1.25929 -0.00040544 0.000957015)
(1.29354 -0.00048959 0.000907504)
(1.32345 -0.000546957 0.00084713)
(1.34991 -0.000572903 0.000778838)
(1.37324 -0.000565742 0.000706208)
(1.39345 -0.000526351 0.000633561)
(1.41036 -0.00045781 0.000565772)
(1.42374 -0.000364965 0.000507747)
(1.43338 -0.000253813 0.000463644)
(1.43918 -0.000130729 0.000436242)
(1.44111 -1.81756e-06 0.000426897)
(1.43917 0.000127142 0.000435971)
(1.43337 0.000250367 0.000463098)
(1.42373 0.000361743 0.000506922)
(1.41035 0.000454883 0.000564671)
(1.39344 0.000523779 0.000632194)
(1.37323 0.000563574 0.000704585)
(1.3499 0.000571179 0.000776964)
(1.32345 0.000545703 0.000845006)
(1.29355 0.000488804 0.000905126)
(1.2593 0.000405083 0.000954384)
(1.21877 0.000302597 0.000990094)
(1.16778 0.000193383 0.00100869)
(1.09636 9.321e-05 0.00100183)
(0.972951 2.38199e-05 0.000937755)
(0.692614 6.45593e-08 0.000687079)
(0.968245 -2.03036e-05 0.00121459)
(0.689489 1.19178e-06 0.000884424)
(1.09024 -8.79518e-05 0.00130796)
(1.16012 -0.000188209 0.00132176)
(1.20945 -0.000296841 0.0013004)
(1.24825 -0.000397755 0.00125681)
(1.28074 -0.000478978 0.00119706)
(1.30887 -0.000532972 0.00112558)
(1.33355 -0.000555859 0.00104661)
(1.35515 -0.000546704 0.000964673)
(1.37373 -0.000506957 0.000884574)
(1.3892 -0.000439946 0.00081124)
(1.40139 -0.000350353 0.000749279)
(1.41017 -0.000243659 0.000702466)
(1.41547 -0.000125622 0.000673394)
(1.41724 -1.93133e-06 0.000663464)
(1.41546 0.000121806 0.0006731)
(1.41016 0.000239979 0.000701877)
(1.40137 0.000346892 0.000748392)
(1.38918 0.000436779 0.000810058)
(1.37372 0.000504152 0.0008831)
(1.35514 0.00054432 0.000962909)
(1.33354 0.000553945 0.00104455)
(1.30886 0.000531561 0.00112321)
(1.28073 0.000478072 0.00119438)
(1.24825 0.000397321 0.00125381)
(1.20946 0.000296789 0.00129708)
(1.16015 0.000188374 0.00131814)
(1.09028 8.81166e-05 0.00130411)
(0.968287 2.03652e-05 0.00121071)
(0.689521 -1.18017e-06 0.00088147)
(0.960554 -1.31667e-05 0.00149643)
(0.684431 4.03046e-06 0.0010835)
(1.08017 -7.52381e-05 0.00162211)
(1.14762 -0.000170832 0.00164224)
(1.19449 -0.000273992 0.00161628)
(1.23093 -0.000368978 0.0015631)
(1.26114 -0.000444473 0.00149198)
(1.28711 -0.000493828 0.00140935)
(1.30973 -0.000513986 0.00132071)
(1.32942 -0.000504599 0.00123115)
(1.34627 -0.00046735 0.00114559)
(1.36025 -0.000405412 0.00106863)
(1.37126 -0.000322973 0.00100437)
(1.37921 -0.000224833 0.000956109)
(1.38401 -0.000116103 0.000926189)
(1.38561 -2.01688e-06 0.000915972)
(1.384 0.000112114 0.0009259)
(1.3792 0.000220977 0.000955531)
(1.37125 0.000319333 0.00100351)
(1.36023 0.000402066 0.00106748)
(1.34625 0.00046437 0.00114415)
(1.3294 0.00050205 0.00122942)
(1.30972 0.000511923 0.00131867)
(1.28709 0.000492288 0.00140698)
(1.26113 0.000443465 0.00148923)
(1.23092 0.000368471 0.00155998)
(1.1945 0.000273901 0.00161279)
(1.14763 0.00017099 0.00163839)
(1.0802 7.54148e-05 0.00161797)
(0.96059 1.32494e-05 0.00149225)
(0.684459 -4.00016e-06 0.00108031)
(0.948584 5.18514e-07 0.00176771)
(0.676578 1.02132e-05 0.00127537)
(1.06463 -5.05653e-05 0.00192181)
(1.12875 -0.00013542 0.00194297)
(1.17259 -0.000228016 0.00190754)
(1.20632 -0.000313664 0.00184115)
(1.23411 -0.00038195 0.00175644)
(1.25787 -0.000426991 0.00166162)
(1.27851 -0.000446212 0.00156303)
(1.29641 -0.000439396 0.00146602)
(1.3117 -0.000408024 0.00137533)
(1.32437 -0.000354802 0.00129511)
(1.33436 -0.000283289 0.00122892)
(1.34157 -0.000197619 0.00117959)
(1.34592 -0.000102299 0.00114913)
(1.34738 -2.06034e-06 0.00113876)
(1.34592 9.82209e-05 0.00114888)
(1.34156 0.000193669 0.00117908)
(1.33434 0.00027955 0.00122816)
(1.32436 0.000351352 0.0012941)
(1.31168 0.000404938 0.00137407)
(1.29639 0.000436741 0.0014645)
(1.27849 0.000444047 0.00156121)
(1.25785 0.000425356 0.00165947)
(1.23409 0.000380857 0.00175391)
(1.2063 0.000313088 0.00183821)
(1.17258 0.000227877 0.00190418)
(1.12875 0.000135553 0.00193922)
(1.06465 5.07405e-05 0.00191773)
(0.948611 -4.18782e-07 0.00176355)
(0.6766 -1.01632e-05 0.00127219)
(0.931049 2.49854e-05 0.00199392)
(0.664996 2.25845e-05 0.00143733)
(1.04233 -8.82336e-06 0.00216542)
(1.10255 -7.70019e-05 0.00218036)
(1.14322 -0.000155263 0.00213126)
(1.17435 -0.000230061 0.00204975)
(1.19996 -0.000291612 0.00195094)
(1.22186 -0.000334273 0.00184414)
(1.24085 -0.000355385 0.00173603)
(1.25732 -0.000354388 0.00163196)
(1.27138 -0.000332242 0.00153637)
(1.28302 -0.000291037 0.001453)
(1.29219 -0.000233692 0.00138494)
(1.29882 -0.00016373 0.00133458)
(1.30282 -8.51025e-05 0.00130364)
(1.30416 -2.04094e-06 0.00129315)
(1.30282 8.10599e-05 0.00130345)
(1.29881 0.000159805 0.00133419)
(1.29218 0.000229962 0.00138436)
(1.283 0.00028758 0.00145223)
(1.27136 0.000329131 0.00153539)
(1.2573 0.000351693 0.00163076)
(1.24083 0.000353167 0.00173457)
(1.22183 0.000332575 0.00184238)
(1.19994 0.000290449 0.00194883)
(1.17433 0.000229413 0.00204724)
(1.14321 0.000155058 0.00212835)
(1.10255 7.70836e-05 0.00217704)
(1.04234 8.96966e-06 0.00216176)
(0.931064 -2.48866e-05 0.00199014)
(0.665011 -2.25234e-05 0.00143442)
(0.906876 6.32462e-05 0.00212486)
(0.648792 4.34757e-05 0.0015324)
(1.01255 5.24559e-05 0.00230202)
(1.06882 5.096e-06 0.00230843)
(1.10665 -5.76406e-05 0.0022475)
(1.13569 -0.000122514 0.00215408)
(1.15966 -0.000179624 0.00204445)
(1.18021 -0.000222891 0.00192833)
(1.19806 -0.000249042 0.00181263)
(1.21354 -0.000256843 0.00170266)
(1.22675 -0.000246585 0.00160275)
(1.23768 -0.000219728 0.00151641)
(1.24629 -0.000178613 0.00144644)
(1.25251 -0.000126241 0.00139495)
(1.25627 -6.60894e-05 0.00136344)
(1.25753 -1.94465e-06 0.00135281)
(1.25627 6.22332e-05 0.00136332)
(1.25251 0.000122486 0.00139471)
(1.24629 0.000175025 0.00144607)
(1.23767 0.000216379 0.00151592)
(1.22674 0.000243545 0.00160212)
(1.21353 0.000254181 0.00170185)
(1.19804 0.000246821 0.00181162)
(1.18019 0.000221157 0.00192708)
(1.15964 0.000178398 0.0020429)
(1.13566 0.000121783 0.0021522)
(1.10663 5.7342e-05 0.00224525)
(1.0688 -5.1032e-06 0.00230582)
(1.01254 -5.23775e-05 0.00229909)
(0.906879 -6.31779e-05 0.00212177)
(0.648798 -4.34211e-05 0.00152999)
(0.875315 0.000113865 0.00210646)
(0.627223 7.26341e-05 0.00151632)
(0.975019 0.00012914 0.00228642)
(1.02778 0.000103594 0.00229296)
(1.0635 5.47702e-05 0.00223054)
(1.09119 -3.08684e-06 0.00213414)
(1.11423 -5.8983e-05 0.00202029)
(1.13405 -0.000105756 0.00189931)
(1.15131 -0.000139232 0.0017787)
(1.16627 -0.000157449 0.00166431)
(1.17902 -0.000160106 0.00156073)
(1.18957 -0.000148164 0.00147159)
(1.19786 -0.000123532 0.00139964)
(1.20384 -8.88106e-05 0.00134689)
(1.20745 -4.70904e-05 0.00131471)
(1.20866 -1.7761e-06 0.00130389)
(1.20745 4.3563e-05 0.00131467)
(1.20384 8.53592e-05 0.00134681)
(1.19786 0.00012021 0.0013995)
(1.18957 0.000145032 0.00147138)
(1.17902 0.000157227 0.00156043)
(1.16627 0.000154888 0.00166389)
(1.1513 0.000137052 0.00177814)
(1.13404 0.000104008 0.00189856)
(1.11421 5.76934e-05 0.00201933)
(1.09117 2.25261e-06 0.00213293)
(1.06348 -5.5195e-05 0.00222906)
(1.02776 -0.000103731 0.0022912)
(0.975003 -0.00012917 0.0022844)
(0.875308 -0.000113857 0.00210428)
(0.627221 -7.26032e-05 0.00151459)
(0.835596 0.000167326 0.00189362)
(0.59954 0.000104932 0.00134697)
(0.929386 0.000206245 0.00209061)
(0.979491 0.000199612 0.0021186)
(1.01408 0.000161365 0.00207207)
(1.04133 0.000107625 0.00198473)
(1.06421 5.10743e-05 0.00187434)
(1.08398 1.59918e-07 0.00175304)
(1.10119 -4.01802e-05 0.00163008)
(1.11607 -6.75807e-05 0.00151261)
(1.12872 -8.15066e-05 0.00140609)
(1.13915 -8.27079e-05 0.00131456)
(1.14733 -7.28356e-05 0.00124091)
(1.15322 -5.41721e-05 0.00118709)
(1.15677 -2.94244e-05 0.00115436)
(1.15796 -1.5614e-06 0.00114338)
(1.15677 2.63166e-05 0.00115438)
(1.15323 5.11118e-05 0.00118713)
(1.14734 6.98595e-05 0.00124095)
(1.13917 7.98613e-05 0.00131458)
(1.12874 7.88421e-05 0.00140606)
(1.11609 6.51575e-05 0.0015125)
(1.1012 3.80584e-05 0.00162988)
(1.08399 -1.92691e-06 0.00175272)
(1.06421 -5.245e-05 0.00187388)
(1.04132 -0.000108597 0.00198413)
(1.01406 -0.000161958 0.00207132)
(0.979472 -0.00019992 0.00211771)
(0.929367 -0.000206417 0.00208957)
(0.83558 -0.000167401 0.00189246)
(0.59953 -0.000104936 0.00134603)
(0.785715 0.000201795 0.00148346)
(0.564104 0.000127365 0.00101657)
(0.873993 0.000253547 0.0017222)
(0.922711 0.000259391 0.00179671)
(0.957474 0.000229803 0.00178283)
(0.985382 0.000181726 0.00171442)
(1.00897 0.00012867 0.00161303)
(1.02931 7.92813e-05 0.00149477)
(1.04693 3.82208e-05 0.00137187)
(1.06206 7.45239e-06 0.00125346)
(1.07484 -1.27751e-05 0.00114606)
(1.08532 -2.32608e-05 0.00105414)
(1.09349 -2.54357e-05 0.000980581)
(1.09935 -2.11178e-05 0.000927124)
(1.10288 -1.23587e-05 0.000894747)
(1.10406 -1.34413e-06 0.000883927)
(1.10289 9.67511e-06 0.0008948)
(1.09937 1.84512e-05 0.000927219)
(1.09352 2.28036e-05 0.000980701)
(1.08535 2.06911e-05 0.00105426)
(1.07488 1.0306e-05 0.00114616)
(1.0621 -9.77225e-06 0.00125351)
(1.04696 -4.03357e-05 0.00137186)
(1.02934 -8.11341e-05 0.00149469)
(1.00899 -0.000130211 0.0016129)
(0.985389 -0.000182921 0.00171425)
(0.95747 -0.000230647 0.00178267)
(0.922698 -0.000259943 0.00179655)
(0.873974 -0.000253919 0.00172205)
(0.785693 -0.000201987 0.0014833)
(0.564089 -0.00012742 0.00101643)
(0.719015 0.000158951 0.000899412)
(0.515345 0.000102355 0.000542221)