/*--------------------------------*- C++ -*----------------------------------*\
  =========                 |
  \\      /  F ield         | OpenFOAM: The Open Source CFD Toolbox
   \\    /   O peration     | Website:  https://openfoam.org
    \\  /    A nd           | Version:  6
     \\/     M anipulation  |
\*---------------------------------------------------------------------------*/
FoamFile
{
    version     2.0;
    format      ascii;
    class       volScalarField;
    location    "0.06";
    object      epsilon;
}
// * * * * * * * * * * * * * * * * * * * * * * * * * * * * * * * * * * * * * //

dimensions      [0 2 -3 0 0 0 0];

internalField   nonuniform List<scalar> 
3081
(
2.87954
2.8682
2.85789
2.84854
2.84007
2.83241
2.82551
2.8193
2.81372
2.80873
2.80425
2.80021
2.79681
2.79396
2.79157
2.78957
2.78791
2.78657
2.78552
2.78471
2.78415
2.78379
2.78364
2.78366
2.78385
2.78419
2.78467
2.78529
2.78603
2.78689
2.78785
2.78891
2.79007
2.79132
2.79266
2.79408
2.79557
2.79714
2.79877
2.80048
2.80224
2.80407
2.80595
2.80789
2.80988
2.81193
2.81402
2.81616
2.81834
2.82056
2.82283
2.82513
2.82747
2.82985
2.83226
2.8347
2.83717
1.43693
1.4321
1.4277
1.42368
1.42002
1.41669
1.41367
1.41093
1.40844
1.40619
1.40416
1.40234
1.40079
1.39947
1.39833
1.39734
1.3965
1.39577
1.39515
1.39463
1.3942
1.39385
1.39358
1.39337
1.39323
1.39314
1.3931
1.39312
1.39318
1.39328
1.39342
1.3936
1.39381
1.39406
1.39434
1.39465
1.39498
1.39535
1.39573
1.39614
1.39658
1.39703
1.39751
1.398
1.39852
1.39905
1.3996
1.40017
1.40075
1.40134
1.40195
1.40257
1.40321
1.40385
1.40451
1.40518
1.40586
1.23371
1.22991
1.22644
1.22327
1.22037
1.21772
1.2153
1.2131
1.21109
1.20925
1.20759
1.20608
1.20472
1.20352
1.20246
1.20152
1.20068
1.19994
1.19929
1.19871
1.1982
1.19774
1.19735
1.197
1.1967
1.19644
1.19623
1.19604
1.19589
1.19577
1.19568
1.19561
1.19557
1.19556
1.19556
1.19558
1.19562
1.19568
1.19576
1.19585
1.19596
1.19608
1.19621
1.19636
1.19652
1.19669
1.19687
1.19706
1.19726
1.19747
1.19769
1.19791
1.19814
1.19838
1.19862
1.19887
1.19913
1.19029
1.18678
1.18358
1.18065
1.17798
1.17553
1.17329
1.17125
1.16937
1.16766
1.1661
1.16467
1.16337
1.16219
1.16113
1.16018
1.15931
1.15853
1.15783
1.15719
1.15661
1.15609
1.15561
1.15518
1.15478
1.15443
1.1541
1.15381
1.15355
1.15331
1.15309
1.1529
1.15272
1.15257
1.15243
1.15231
1.1522
1.15211
1.15203
1.15196
1.15191
1.15186
1.15182
1.1518
1.15178
1.15177
1.15177
1.15178
1.15179
1.15181
1.15183
1.15186
1.15189
1.15193
1.15197
1.15202
1.15207
1.1911
1.18768
1.18456
1.18171
1.1791
1.17672
1.17454
1.17254
1.17071
1.16904
1.1675
1.1661
1.16481
1.16363
1.16256
1.16158
1.16069
1.15987
1.15913
1.15844
1.15781
1.15723
1.1567
1.15621
1.15575
1.15532
1.15493
1.15456
1.15422
1.1539
1.15361
1.15333
1.15307
1.15283
1.1526
1.15238
1.15218
1.15199
1.15181
1.15164
1.15149
1.15133
1.15119
1.15106
1.15093
1.15081
1.15069
1.15058
1.15048
1.15037
1.15028
1.15018
1.15009
1.15
1.14992
1.14983
1.14975
1.20783
1.20442
1.20131
1.19847
1.19587
1.19351
1.19134
1.18936
1.18754
1.18588
1.18435
1.18295
1.18166
1.18048
1.1794
1.1784
1.17749
1.17665
1.17587
1.17515
1.17449
1.17387
1.17329
1.17276
1.17226
1.17179
1.17134
1.17093
1.17053
1.17016
1.16981
1.16948
1.16916
1.16885
1.16856
1.16829
1.16802
1.16777
1.16752
1.16728
1.16705
1.16683
1.16662
1.16641
1.16621
1.16601
1.16581
1.16562
1.16544
1.16525
1.16507
1.1649
1.16472
1.16455
1.16437
1.1642
1.16403
1.22688
1.22375
1.22091
1.21831
1.21594
1.21377
1.21179
1.20998
1.20832
1.2068
1.2054
1.20412
1.20293
1.20184
1.20084
1.19992
1.19906
1.19827
1.19753
1.19684
1.1962
1.1956
1.19504
1.1945
1.194
1.19353
1.19308
1.19266
1.19225
1.19186
1.19149
1.19113
1.19079
1.19046
1.19014
1.18983
1.18953
1.18924
1.18896
1.18868
1.18841
1.18815
1.18789
1.18764
1.18739
1.18714
1.1869
1.18666
1.18642
1.18618
1.18595
1.18572
1.18548
1.18525
1.18502
1.18479
1.25068
1.24753
1.24467
1.24206
1.23969
1.23753
1.23555
1.23375
1.2321
1.23058
1.22919
1.22791
1.22674
1.22565
1.22465
1.22372
1.22286
1.22206
1.22132
1.22062
1.21997
1.21936
1.21878
1.21823
1.21772
1.21723
1.21676
1.21632
1.21589
1.21548
1.21509
1.21471
1.21434
1.21399
1.21364
1.21331
1.21298
1.21266
1.21235
1.21205
1.21175
1.21145
1.21116
1.21088
1.21059
1.21031
1.21004
1.20976
1.20949
1.20921
1.20894
1.20867
1.2084
1.20813
1.20785
1.20758
1.27056
1.26769
1.26508
1.26271
1.26056
1.25859
1.2568
1.25516
1.25367
1.25229
1.25103
1.24986
1.24879
1.2478
1.24688
1.24603
1.24523
1.24449
1.2438
1.24315
1.24253
1.24196
1.24141
1.24089
1.24039
1.23992
1.23947
1.23903
1.23862
1.23821
1.23783
1.23745
1.23708
1.23673
1.23638
1.23604
1.23571
1.23538
1.23506
1.23474
1.23443
1.23412
1.23382
1.23352
1.23322
1.23292
1.23262
1.23233
1.23203
1.23174
1.23145
1.23115
1.23086
1.23056
1.23027
1.29182
1.28896
1.28637
1.28401
1.28187
1.27993
1.27816
1.27654
1.27507
1.27372
1.27247
1.27133
1.27028
1.26931
1.26841
1.26757
1.26679
1.26607
1.26538
1.26474
1.26414
1.26357
1.26303
1.26251
1.26202
1.26155
1.26111
1.26067
1.26026
1.25986
1.25947
1.25909
1.25872
1.25837
1.25802
1.25767
1.25734
1.25701
1.25668
1.25636
1.25604
1.25573
1.25542
1.25511
1.2548
1.2545
1.25419
1.25389
1.25358
1.25328
1.25298
1.25267
1.25237
1.25206
1.25176
1.3109
1.30805
1.30548
1.30315
1.30103
1.29912
1.29738
1.29579
1.29435
1.29302
1.29181
1.2907
1.28968
1.28873
1.28786
1.28705
1.28629
1.28558
1.28492
1.2843
1.28371
1.28316
1.28263
1.28213
1.28165
1.2812
1.28076
1.28034
1.27993
1.27954
1.27916
1.27879
1.27843
1.27808
1.27774
1.2774
1.27707
1.27674
1.27642
1.2761
1.27579
1.27548
1.27517
1.27486
1.27456
1.27425
1.27395
1.27365
1.27334
1.27304
1.27274
1.27243
1.27212
1.27182
1.27151
1.32764
1.32482
1.32227
1.31997
1.3179
1.31602
1.31431
1.31276
1.31135
1.31007
1.3089
1.30782
1.30683
1.30592
1.30508
1.30429
1.30357
1.30289
1.30225
1.30165
1.30109
1.30056
1.30005
1.29957
1.29911
1.29868
1.29826
1.29785
1.29746
1.29709
1.29672
1.29637
1.29602
1.29568
1.29535
1.29503
1.29471
1.29439
1.29408
1.29377
1.29347
1.29317
1.29287
1.29257
1.29227
1.29198
1.29168
1.29139
1.29109
1.2908
1.2905
1.2902
1.2899
1.2896
1.2893
1.28901
1.34208
1.33929
1.33678
1.33452
1.33248
1.33065
1.32898
1.32748
1.32611
1.32487
1.32374
1.3227
1.32175
1.32088
1.32007
1.31933
1.31863
1.31798
1.31738
1.31681
1.31627
1.31577
1.31529
1.31484
1.3144
1.31399
1.31359
1.31321
1.31284
1.31248
1.31214
1.3118
1.31148
1.31116
1.31084
1.31053
1.31023
1.30993
1.30964
1.30935
1.30906
1.30877
1.30848
1.3082
1.30792
1.30763
1.30735
1.30707
1.30679
1.30651
1.30622
1.30594
1.30565
1.30536
1.30508
1.30479
1.35159
1.34912
1.34691
1.34492
1.34313
1.34152
1.34006
1.33874
1.33754
1.33645
1.33546
1.33456
1.33372
1.33296
1.33225
1.33159
1.33097
1.3304
1.32987
1.32936
1.32889
1.32844
1.32802
1.32761
1.32722
1.32685
1.32649
1.32615
1.32582
1.3255
1.32518
1.32488
1.32458
1.32428
1.324
1.32371
1.32344
1.32316
1.32289
1.32262
1.32235
1.32208
1.32182
1.32155
1.32129
1.32102
1.32076
1.32049
1.32023
1.31996
1.31969
1.31942
1.31915
1.31888
1.31861
1.36186
1.35945
1.3573
1.35537
1.35363
1.35207
1.35067
1.3494
1.34825
1.34721
1.34626
1.3454
1.34461
1.34388
1.34321
1.34259
1.34202
1.34148
1.34098
1.34051
1.34007
1.33965
1.33926
1.33888
1.33853
1.33818
1.33785
1.33753
1.33723
1.33693
1.33664
1.33636
1.33609
1.33582
1.33555
1.33529
1.33503
1.33478
1.33453
1.33428
1.33403
1.33379
1.33354
1.3333
1.33305
1.33281
1.33256
1.33232
1.33207
1.33183
1.33158
1.33133
1.33108
1.33083
1.33058
1.37051
1.36817
1.36608
1.36421
1.36253
1.36102
1.35967
1.35845
1.35735
1.35636
1.35546
1.35464
1.3539
1.35321
1.35258
1.352
1.35146
1.35096
1.3505
1.35006
1.34965
1.34927
1.3489
1.34856
1.34823
1.34791
1.34761
1.34732
1.34704
1.34677
1.3465
1.34624
1.34599
1.34575
1.3455
1.34526
1.34503
1.3448
1.34457
1.34434
1.34411
1.34389
1.34366
1.34344
1.34321
1.34299
1.34276
1.34254
1.34231
1.34208
1.34186
1.34163
1.3414
1.34116
1.34093
1.37737
1.3751
1.37307
1.37126
1.36964
1.36819
1.36689
1.36572
1.36468
1.36373
1.36288
1.3621
1.3614
1.36076
1.36017
1.35963
1.35913
1.35867
1.35824
1.35784
1.35747
1.35712
1.35678
1.35647
1.35617
1.35588
1.35561
1.35535
1.3551
1.35485
1.35461
1.35438
1.35416
1.35393
1.35372
1.3535
1.35329
1.35308
1.35288
1.35267
1.35247
1.35227
1.35207
1.35186
1.35166
1.35146
1.35126
1.35106
1.35085
1.35065
1.35045
1.35024
1.35003
1.34982
1.34962
1.38031
1.37832
1.37657
1.375
1.37361
1.37236
1.37125
1.37025
1.36935
1.36854
1.36782
1.36716
1.36656
1.36601
1.36551
1.36505
1.36463
1.36424
1.36388
1.36354
1.36322
1.36292
1.36264
1.36238
1.36212
1.36188
1.36165
1.36143
1.36121
1.361
1.3608
1.36061
1.36041
1.36022
1.36004
1.35986
1.35967
1.3595
1.35932
1.35914
1.35897
1.35879
1.35862
1.35845
1.35827
1.3581
1.35792
1.35775
1.35757
1.3574
1.35722
1.35704
1.35686
1.35668
1.38225
1.38055
1.37904
1.3777
1.3765
1.37544
1.37449
1.37364
1.37287
1.37219
1.37157
1.37101
1.37051
1.37005
1.36963
1.36924
1.36889
1.36856
1.36826
1.36798
1.36771
1.36747
1.36723
1.36701
1.3668
1.3666
1.36641
1.36622
1.36604
1.36587
1.3657
1.36554
1.36538
1.36522
1.36507
1.36491
1.36476
1.36461
1.36447
1.36432
1.36417
1.36403
1.36388
1.36374
1.36359
1.36345
1.3633
1.36316
1.36301
1.36286
1.36271
1.36257
1.36242
1.38512
1.3835
1.38205
1.38077
1.37962
1.3786
1.3777
1.37689
1.37617
1.37553
1.37495
1.37443
1.37396
1.37354
1.37316
1.37281
1.37249
1.3722
1.37193
1.37168
1.37144
1.37123
1.37102
1.37083
1.37065
1.37048
1.37031
1.37016
1.37
1.36986
1.36972
1.36958
1.36945
1.36932
1.36919
1.36907
1.36894
1.36882
1.3687
1.36858
1.36846
1.36835
1.36823
1.36811
1.36799
1.36788
1.36776
1.36764
1.36752
1.3674
1.36728
1.36717
1.36705
1.38723
1.38567
1.38428
1.38305
1.38195
1.38098
1.38011
1.37935
1.37867
1.37806
1.37752
1.37704
1.3766
1.37622
1.37587
1.37555
1.37526
1.375
1.37476
1.37454
1.37433
1.37414
1.37397
1.3738
1.37365
1.3735
1.37336
1.37323
1.37311
1.37299
1.37287
1.37276
1.37265
1.37255
1.37244
1.37234
1.37224
1.37215
1.37205
1.37196
1.37186
1.37177
1.37168
1.37159
1.37149
1.3714
1.37131
1.37122
1.37113
1.37104
1.37095
1.37086
1.37077
1.38873
1.38724
1.3859
1.38471
1.38366
1.38273
1.3819
1.38117
1.38053
1.37995
1.37945
1.379
1.3786
1.37824
1.37792
1.37763
1.37737
1.37714
1.37692
1.37673
1.37655
1.37639
1.37624
1.37609
1.37596
1.37584
1.37573
1.37562
1.37551
1.37542
1.37532
1.37523
1.37515
1.37506
1.37498
1.3749
1.37483
1.37475
1.37468
1.37461
1.37453
1.37446
1.37439
1.37432
1.37425
1.37418
1.37412
1.37405
1.37398
1.37391
1.37384
1.37378
1.37372
1.38976
1.38831
1.38703
1.38588
1.38487
1.38397
1.38318
1.38248
1.38187
1.38133
1.38086
1.38044
1.38007
1.37974
1.37944
1.37918
1.37895
1.37874
1.37855
1.37838
1.37822
1.37808
1.37795
1.37783
1.37772
1.37762
1.37752
1.37743
1.37735
1.37727
1.3772
1.37713
1.37706
1.37699
1.37693
1.37687
1.37681
1.37676
1.3767
1.37665
1.37659
1.37654
1.37649
1.37644
1.37639
1.37634
1.37629
1.37624
1.37619
1.37615
1.3761
1.37606
1.37602
1.39039
1.38899
1.38775
1.38664
1.38566
1.3848
1.38404
1.38338
1.3828
1.38229
1.38184
1.38145
1.3811
1.3808
1.38053
1.38029
1.38008
1.37989
1.37972
1.37957
1.37944
1.37932
1.3792
1.3791
1.37901
1.37893
1.37885
1.37878
1.37871
1.37865
1.37859
1.37853
1.37848
1.37843
1.37839
1.37834
1.3783
1.37826
1.37822
1.37818
1.37814
1.3781
1.37807
1.37803
1.378
1.37797
1.37793
1.3779
1.37787
1.37784
1.37781
1.37778
1.37776
1.39068
1.38933
1.38812
1.38705
1.38611
1.38528
1.38455
1.38392
1.38336
1.38288
1.38246
1.3821
1.38178
1.38149
1.38125
1.38103
1.38084
1.38067
1.38052
1.38039
1.38027
1.38017
1.38007
1.37999
1.37991
1.37984
1.37977
1.37972
1.37966
1.37961
1.37957
1.37953
1.37949
1.37945
1.37942
1.37938
1.37935
1.37932
1.3793
1.37927
1.37924
1.37922
1.3792
1.37917
1.37915
1.37913
1.37911
1.37909
1.37907
1.37905
1.37903
1.37902
1.37901
1.39067
1.38936
1.3882
1.38717
1.38626
1.38546
1.38476
1.38415
1.38363
1.38317
1.38278
1.38243
1.38214
1.38188
1.38165
1.38145
1.38128
1.38113
1.381
1.38088
1.38077
1.38068
1.3806
1.38053
1.38046
1.38041
1.38035
1.38031
1.38026
1.38023
1.38019
1.38016
1.38013
1.3801
1.38008
1.38005
1.38003
1.38001
1.37999
1.37998
1.37996
1.37994
1.37993
1.37992
1.3799
1.37989
1.37988
1.37987
1.37985
1.37984
1.37984
1.37983
1.37983
1.3904
1.38913
1.38801
1.38701
1.38613
1.38537
1.3847
1.38412
1.38362
1.38319
1.38282
1.3825
1.38222
1.38198
1.38177
1.38159
1.38144
1.3813
1.38118
1.38108
1.38098
1.3809
1.38083
1.38077
1.38072
1.38067
1.38063
1.38059
1.38055
1.38052
1.38049
1.38047
1.38045
1.38043
1.38041
1.38039
1.38038
1.38036
1.38035
1.38034
1.38033
1.38032
1.38031
1.3803
1.38029
1.38028
1.38027
1.38027
1.38026
1.38026
1.38025
1.38025
1.38026
1.38985
1.38863
1.38755
1.38659
1.38575
1.38502
1.38439
1.38384
1.38336
1.38296
1.38261
1.38231
1.38205
1.38183
1.38164
1.38147
1.38133
1.38121
1.3811
1.38101
1.38093
1.38086
1.3808
1.38075
1.3807
1.38066
1.38062
1.38059
1.38056
1.38053
1.38051
1.38049
1.38047
1.38046
1.38044
1.38043
1.38042
1.3804
1.38039
1.38038
1.38037
1.38037
1.38036
1.38035
1.38035
1.38034
1.38033
1.38033
1.38032
1.38032
1.38032
1.38032
1.38032
1.38899
1.38782
1.38678
1.38587
1.38507
1.38438
1.38377
1.38325
1.38281
1.38243
1.3821
1.38182
1.38158
1.38138
1.3812
1.38105
1.38092
1.38081
1.38071
1.38063
1.38056
1.38049
1.38044
1.38039
1.38035
1.38031
1.38028
1.38025
1.38022
1.38019
1.38017
1.38015
1.38013
1.38011
1.3801
1.38008
1.38007
1.38005
1.38004
1.38003
1.38002
1.38
1.37999
1.37998
1.37997
1.37996
1.37995
1.37994
1.37993
1.37992
1.37991
1.37991
1.3799
1.38782
1.3867
1.38571
1.38485
1.38409
1.38343
1.38286
1.38237
1.38195
1.38159
1.38129
1.38103
1.3808
1.38061
1.38045
1.38031
1.38019
1.38009
1.38
1.37992
1.37985
1.37979
1.37974
1.37969
1.37965
1.37961
1.37957
1.37954
1.37951
1.37948
1.37946
1.37943
1.37941
1.37938
1.37936
1.37934
1.37932
1.37929
1.37927
1.37925
1.37923
1.37921
1.37919
1.37916
1.37914
1.37912
1.3791
1.37908
1.37905
1.37903
1.37901
1.37899
1.37898
1.38633
1.38526
1.38432
1.3835
1.38278
1.38216
1.38162
1.38116
1.38077
1.38043
1.38015
1.3799
1.3797
1.37952
1.37936
1.37923
1.37912
1.37902
1.37893
1.37886
1.37879
1.37873
1.37867
1.37862
1.37857
1.37853
1.37849
1.37845
1.37841
1.37837
1.37834
1.3783
1.37826
1.37823
1.37819
1.37816
1.37812
1.37809
1.37805
1.37802
1.37798
1.37794
1.3779
1.37786
1.37782
1.37779
1.37774
1.3777
1.37766
1.37762
1.37758
1.37754
1.3775
1.38449
1.38348
1.38258
1.3818
1.38113
1.38054
1.38004
1.3796
1.37923
1.37892
1.37865
1.37842
1.37822
1.37805
1.3779
1.37778
1.37767
1.37757
1.37748
1.3774
1.37733
1.37726
1.3772
1.37714
1.37708
1.37703
1.37698
1.37692
1.37687
1.37682
1.37677
1.37672
1.37666
1.37661
1.37656
1.3765
1.37645
1.37639
1.37633
1.37628
1.37622
1.37616
1.37609
1.37603
1.37597
1.3759
1.37584
1.37577
1.3757
1.37563
1.37556
1.37549
1.37543
1.38227
1.3813
1.38046
1.37972
1.37908
1.37853
1.37805
1.37765
1.3773
1.377
1.37674
1.37653
1.37634
1.37617
1.37603
1.3759
1.37579
1.37569
1.37559
1.3755
1.37542
1.37535
1.37527
1.3752
1.37513
1.37506
1.37499
1.37492
1.37484
1.37477
1.3747
1.37462
1.37455
1.37447
1.37439
1.37431
1.37423
1.37415
1.37406
1.37397
1.37388
1.37379
1.3737
1.3736
1.37351
1.37341
1.37331
1.3732
1.3731
1.37299
1.37289
1.37278
1.37267
1.37962
1.3787
1.3779
1.3772
1.3766
1.37608
1.37563
1.37525
1.37491
1.37463
1.37438
1.37417
1.37399
1.37382
1.37368
1.37355
1.37342
1.37331
1.37321
1.37311
1.37301
1.37292
1.37283
1.37273
1.37264
1.37255
1.37245
1.37236
1.37226
1.37216
1.37206
1.37195
1.37185
1.37174
1.37162
1.37151
1.37139
1.37127
1.37115
1.37102
1.37089
1.37076
1.37063
1.37049
1.37035
1.37021
1.37006
1.36992
1.36977
1.36961
1.36946
1.3693
1.36914
1.37647
1.3756
1.37484
1.37419
1.37362
1.37312
1.3727
1.37233
1.37201
1.37174
1.3715
1.37129
1.3711
1.37093
1.37078
1.37064
1.3705
1.37038
1.37025
1.37014
1.37002
1.3699
1.36978
1.36966
1.36954
1.36942
1.36929
1.36916
1.36903
1.36889
1.36875
1.36861
1.36846
1.36831
1.36816
1.368
1.36784
1.36767
1.3675
1.36733
1.36715
1.36697
1.36679
1.3666
1.3664
1.36621
1.36601
1.3658
1.36559
1.36538
1.36516
1.36494
1.36472
1.37276
1.37193
1.37121
1.37059
1.37005
1.36958
1.36917
1.36882
1.36851
1.36824
1.368
1.36779
1.36759
1.36741
1.36724
1.36709
1.36693
1.36678
1.36664
1.36649
1.36634
1.36619
1.36604
1.36589
1.36573
1.36557
1.3654
1.36523
1.36505
1.36487
1.36468
1.36449
1.3643
1.36409
1.36389
1.36368
1.36346
1.36324
1.36301
1.36278
1.36254
1.3623
1.36205
1.36179
1.36153
1.36127
1.361
1.36073
1.36045
1.36016
1.35987
1.35958
1.35928
1.36839
1.3676
1.36691
1.36632
1.3658
1.36535
1.36496
1.36461
1.36431
1.36403
1.36379
1.36356
1.36335
1.36315
1.36296
1.36278
1.3626
1.36242
1.36224
1.36206
1.36187
1.36168
1.36149
1.36129
1.36108
1.36087
1.36065
1.36043
1.3602
1.35996
1.35972
1.35947
1.35921
1.35895
1.35868
1.3584
1.35811
1.35782
1.35753
1.35722
1.35691
1.35659
1.35627
1.35594
1.3556
1.35525
1.3549
1.35454
1.35417
1.3538
1.35342
1.35304
1.35264
1.36323
1.36248
1.36182
1.36125
1.36075
1.36031
1.35992
1.35958
1.35927
1.35899
1.35872
1.35848
1.35825
1.35802
1.3578
1.35758
1.35737
1.35715
1.35692
1.35669
1.35646
1.35622
1.35597
1.35572
1.35546
1.35518
1.35491
1.35462
1.35432
1.35402
1.35371
1.35338
1.35305
1.35271
1.35237
1.35201
1.35165
1.35127
1.35089
1.3505
1.3501
1.3497
1.34928
1.34886
1.34842
1.34798
1.34753
1.34707
1.3466
1.34612
1.34564
1.34514
1.34464
1.35739
1.35666
1.35602
1.35547
1.35497
1.35454
1.35414
1.35379
1.35346
1.35316
1.35287
1.3526
1.35233
1.35207
1.35181
1.35154
1.35127
1.351
1.35072
1.35044
1.35014
1.34984
1.34953
1.3492
1.34887
1.34853
1.34817
1.34781
1.34743
1.34705
1.34665
1.34624
1.34582
1.34539
1.34495
1.3445
1.34404
1.34357
1.34309
1.3426
1.34209
1.34158
1.34106
1.34052
1.33997
1.33942
1.33885
1.33827
1.33768
1.33708
1.33647
1.33584
1.33521
1.35064
1.34993
1.34931
1.34875
1.34826
1.34781
1.34741
1.34703
1.34668
1.34634
1.34602
1.3457
1.34539
1.34508
1.34476
1.34444
1.34411
1.34378
1.34343
1.34307
1.34271
1.34233
1.34193
1.34153
1.34111
1.34068
1.34024
1.33978
1.33931
1.33883
1.33833
1.33782
1.3373
1.33677
1.33622
1.33566
1.33509
1.3345
1.3339
1.33329
1.33266
1.33202
1.33137
1.33071
1.33003
1.32934
1.32863
1.32792
1.32718
1.32644
1.32568
1.32491
1.32412
1.34217
1.34148
1.34086
1.34031
1.33981
1.33935
1.33892
1.33852
1.33814
1.33776
1.33739
1.33703
1.33666
1.33629
1.33591
1.33552
1.33512
1.33471
1.33429
1.33385
1.3334
1.33293
1.33245
1.33195
1.33144
1.33091
1.33036
1.3298
1.32923
1.32864
1.32803
1.32741
1.32677
1.32612
1.32545
1.32477
1.32407
1.32335
1.32263
1.32188
1.32112
1.32035
1.31956
1.31875
1.31793
1.31709
1.31624
1.31537
1.31448
1.31358
1.31266
1.31173
1.31078
1.33134
1.33067
1.33006
1.32951
1.329
1.32852
1.32807
1.32763
1.3272
1.32678
1.32636
1.32594
1.32551
1.32507
1.32462
1.32416
1.32368
1.32319
1.32267
1.32215
1.3216
1.32104
1.32046
1.31986
1.31924
1.3186
1.31795
1.31727
1.31658
1.31587
1.31515
1.3144
1.31364
1.31286
1.31207
1.31125
1.31042
1.30957
1.30871
1.30783
1.30692
1.30601
1.30507
1.30412
1.30315
1.30216
1.30115
1.30012
1.29908
1.29802
1.29694
1.29584
1.29472
1.31746
1.31681
1.31621
1.31566
1.31514
1.31464
1.31416
1.31369
1.31323
1.31276
1.31229
1.31181
1.31132
1.31081
1.31029
1.30975
1.30919
1.30861
1.30802
1.3074
1.30676
1.30611
1.30543
1.30473
1.30401
1.30327
1.30251
1.30173
1.30093
1.30011
1.29927
1.29841
1.29753
1.29663
1.29572
1.29478
1.29383
1.29285
1.29186
1.29085
1.28982
1.28878
1.28771
1.28662
1.28552
1.28439
1.28325
1.28209
1.28091
1.27971
1.27849
1.27725
1.27599
1.2996
1.29899
1.29842
1.29788
1.29736
1.29687
1.29638
1.29589
1.2954
1.2949
1.29439
1.29387
1.29333
1.29278
1.2922
1.2916
1.29099
1.29035
1.28969
1.289
1.2883
1.28757
1.28682
1.28604
1.28525
1.28443
1.2836
1.28274
1.28186
1.28096
1.28004
1.2791
1.27814
1.27716
1.27616
1.27514
1.27411
1.27305
1.27198
1.27089
1.26977
1.26864
1.2675
1.26633
1.26514
1.26394
1.26272
1.26148
1.26022
1.25894
1.25764
1.25633
1.25499
1.27616
1.27562
1.2751
1.27461
1.27414
1.27367
1.2732
1.27273
1.27225
1.27176
1.27125
1.27072
1.27018
1.26961
1.26902
1.26841
1.26778
1.26712
1.26644
1.26574
1.26501
1.26427
1.26349
1.2627
1.26188
1.26105
1.26019
1.25931
1.25841
1.2575
1.25656
1.2556
1.25463
1.25364
1.25263
1.2516
1.25055
1.24949
1.24841
1.24732
1.2462
1.24507
1.24393
1.24277
1.24159
1.2404
1.23919
1.23796
1.23672
1.23547
1.2342
1.23291
1.23161
1.24492
1.24451
1.24412
1.24375
1.24338
1.24301
1.24263
1.24224
1.24184
1.24143
1.241
1.24054
1.24007
1.23957
1.23905
1.23851
1.23795
1.23736
1.23675
1.23611
1.23546
1.23478
1.23409
1.23337
1.23263
1.23187
1.2311
1.2303
1.22949
1.22867
1.22782
1.22696
1.22609
1.2252
1.22429
1.22337
1.22244
1.2215
1.22054
1.21957
1.21858
1.21759
1.21658
1.21556
1.21453
1.21349
1.21244
1.21137
1.2103
1.20922
1.20813
1.20702
1.20591
1.21083
1.21063
1.21043
1.21024
1.21005
1.20986
1.20965
1.20943
1.20919
1.20893
1.20866
1.20836
1.20804
1.2077
1.20733
1.20695
1.20654
1.20611
1.20565
1.20518
1.20469
1.20418
1.20365
1.2031
1.20253
1.20195
1.20135
1.20074
1.20011
1.19947
1.19882
1.19815
1.19747
1.19679
1.19609
1.19538
1.19466
1.19393
1.19319
1.19245
1.19169
1.19093
1.19016
1.18939
1.18861
1.18782
1.18703
1.18623
1.18543
1.18462
1.18381
1.18299
1.18217
1.18213
1.18213
1.18214
1.18214
1.18214
1.18213
1.1821
1.18206
1.18199
1.18191
1.18181
1.18168
1.18154
1.18137
1.18118
1.18096
1.18073
1.18048
1.1802
1.17991
1.1796
1.17927
1.17892
1.17856
1.17819
1.1778
1.1774
1.17698
1.17656
1.17612
1.17568
1.17522
1.17476
1.17429
1.17381
1.17332
1.17283
1.17233
1.17183
1.17133
1.17082
1.1703
1.16979
1.16927
1.16875
1.16822
1.1677
1.16717
1.16665
1.16613
1.1656
1.16508
1.16456
1.15881
1.15905
1.15928
1.15951
1.15973
1.15993
1.16012
1.16029
1.16044
1.16056
1.16067
1.16075
1.16081
1.16085
1.16087
1.16087
1.16085
1.16081
1.16075
1.16067
1.16058
1.16047
1.16035
1.16021
1.16006
1.15991
1.15974
1.15956
1.15937
1.15917
1.15897
1.15876
1.15855
1.15833
1.15811
1.15789
1.15766
1.15743
1.1572
1.15697
1.15674
1.15651
1.15628
1.15605
1.15582
1.1556
1.15538
1.15516
1.15495
1.15474
1.15454
1.15434
1.15415
1.15397
1.14385
1.14436
1.14485
1.14534
1.14581
1.14626
1.1467
1.14711
1.1475
1.14787
1.14822
1.14854
1.14885
1.14913
1.14939
1.14963
1.14985
1.15006
1.15025
1.15042
1.15058
1.15072
1.15085
1.15098
1.15109
1.15119
1.15128
1.15137
1.15145
1.15153
1.1516
1.15167
1.15174
1.15181
1.15187
1.15194
1.152
1.15207
1.15214
1.15222
1.15229
1.15238
1.15246
1.15255
1.15265
1.15276
1.15287
1.15299
1.15312
1.15325
1.1534
1.15356
1.15373
1.15391
1.14118
1.14199
1.14278
1.14356
1.14432
1.14506
1.14578
1.14647
1.14714
1.14779
1.14841
1.14901
1.14959
1.15015
1.15069
1.15121
1.15171
1.1522
1.15266
1.15312
1.15356
1.15399
1.15441
1.15482
1.15522
1.15562
1.15601
1.15639
1.15677
1.15715
1.15753
1.15791
1.15829
1.15867
1.15906
1.15945
1.15984
1.16023
1.16064
1.16105
1.16146
1.16189
1.16232
1.16276
1.16321
1.16368
1.16415
1.16464
1.16514
1.16566
1.16618
1.16673
1.16729
1.16786
1.15675
1.15791
1.15905
1.16017
1.16127
1.16234
1.16339
1.16441
1.16541
1.16638
1.16733
1.16825
1.16915
1.17003
1.17089
1.17173
1.17255
1.17336
1.17415
1.17493
1.1757
1.17645
1.1772
1.17794
1.17867
1.1794
1.18013
1.18085
1.18157
1.1823
1.18302
1.18375
1.18448
1.18522
1.18596
1.18671
1.18747
1.18824
1.18901
1.1898
1.19059
1.1914
1.19223
1.19306
1.19391
1.19478
1.19566
1.19656
1.19747
1.19841
1.19936
1.20034
1.20133
1.20235
1.2012
1.20279
1.20436
1.2059
1.20741
1.2089
1.21035
1.21178
1.21317
1.21454
1.21588
1.2172
1.21849
1.21976
1.22101
1.22224
1.22345
1.22465
1.22583
1.22699
1.22815
1.2293
1.23044
1.23157
1.2327
1.23383
1.23496
1.23608
1.23721
1.23835
1.23948
1.24063
1.24178
1.24294
1.2441
1.24528
1.24647
1.24768
1.2489
1.25013
1.25138
1.25264
1.25393
1.25523
1.25655
1.25789
1.25925
1.26064
1.26205
1.26348
1.26494
1.26642
1.26793
1.26947
1.29726
1.29943
1.30157
1.30368
1.30575
1.30779
1.30979
1.31176
1.31369
1.3156
1.31747
1.31931
1.32113
1.32292
1.32469
1.32643
1.32816
1.32987
1.33157
1.33325
1.33493
1.33659
1.33825
1.3399
1.34156
1.34321
1.34486
1.34652
1.34818
1.34985
1.35153
1.35322
1.35492
1.35663
1.35836
1.3601
1.36186
1.36364
1.36544
1.36726
1.3691
1.37096
1.37285
1.37476
1.3767
1.37866
1.38066
1.38268
1.38474
1.38683
1.38895
1.3911
1.39329
1.39552
1.5065
1.5096
1.51265
1.51566
1.51863
1.52155
1.52442
1.52725
1.53005
1.5328
1.53551
1.53819
1.54084
1.54346
1.54605
1.54862
1.55116
1.55369
1.5562
1.5587
1.56119
1.56367
1.56615
1.56862
1.5711
1.57357
1.57606
1.57855
1.58105
1.58356
1.58609
1.58864
1.5912
1.59378
1.59639
1.59901
1.60167
1.60435
1.60706
1.6098
1.61257
1.61537
1.61821
1.62108
1.62399
1.62694
1.62994
1.63297
1.63604
1.63917
1.64233
1.64555
1.64881
1.65212
2.07699
2.08214
2.08722
2.09223
2.09717
2.10205
2.10687
2.11163
2.11633
2.12097
2.12556
2.1301
2.1346
2.13905
2.14348
2.14787
2.15223
2.15657
2.16089
2.1652
2.16949
2.17378
2.17807
2.18236
2.18666
2.19097
2.19529
2.19963
2.20399
2.20837
2.21278
2.21723
2.2217
2.22621
2.23076
2.23536
2.23999
2.24468
2.24941
2.25419
2.25903
2.26393
2.26888
2.27389
2.27897
2.28411
2.28932
2.2946
2.29995
2.30538
2.31088
2.31646
2.32213
2.32787
5.16144
5.1768
5.19195
5.20688
5.2216
5.23612
5.25045
5.26459
5.27856
5.29237
5.30602
5.31953
5.33292
5.3462
5.35937
5.37245
5.38546
5.39841
5.4113
5.42416
5.437
5.44982
5.46264
5.47548
5.48833
5.50122
5.51416
5.52715
5.5402
5.55333
5.56654
5.57984
5.59325
5.60676
5.62039
5.63414
5.64802
5.66204
5.67621
5.69052
5.705
5.71963
5.73444
5.74942
5.76459
5.77994
5.79549
5.81124
5.8272
5.84337
5.85976
5.87638
5.89323
5.91031
)
;

boundaryField
{
    inlet
    {
        type            fixedValue;
        value           nonuniform 0();
    }
    outlet
    {
        type            zeroGradient;
    }
    upperWall
    {
        Cmu             0.09;
        kappa           0.41;
        E               9.8;
        type            epsilonWallFunction;
        value           nonuniform List<scalar> 
54
(
5.16144
5.1768
5.19195
5.20688
5.2216
5.23612
5.25045
5.26459
5.27856
5.29237
5.30602
5.31953
5.33292
5.3462
5.35937
5.37245
5.38546
5.39841
5.4113
5.42416
5.437
5.44982
5.46264
5.47548
5.48833
5.50122
5.51416
5.52715
5.5402
5.55333
5.56654
5.57984
5.59325
5.60676
5.62039
5.63414
5.64802
5.66204
5.67621
5.69052
5.705
5.71963
5.73444
5.74942
5.76459
5.77994
5.79549
5.81124
5.8272
5.84337
5.85976
5.87638
5.89323
5.91031
)
;
    }
    lowerWall
    {
        Cmu             0.09;
        kappa           0.41;
        E               9.8;
        type            epsilonWallFunction;
        value           nonuniform List<scalar> 
57
(
2.87954
2.8682
2.85789
2.84854
2.84007
2.83241
2.82551
2.8193
2.81372
2.80873
2.80425
2.80021
2.79681
2.79396
2.79157
2.78957
2.78791
2.78657
2.78552
2.78471
2.78415
2.78379
2.78364
2.78366
2.78385
2.78419
2.78467
2.78529
2.78603
2.78689
2.78785
2.78891
2.79007
2.79132
2.79266
2.79408
2.79557
2.79714
2.79877
2.80048
2.80224
2.80407
2.80595
2.80789
2.80988
2.81193
2.81402
2.81616
2.81834
2.82056
2.82283
2.82513
2.82747
2.82985
2.83226
2.8347
2.83717
)
;
    }
    frontAndBack
    {
        type            empty;
    }
    procBoundary1to0
    {
        type            processor;
        value           nonuniform List<scalar> 
59
(
2.83967
1.40655
1.19939
1.15212
1.14967
1.16386
1.18455
1.20731
1.22997
1.25145
1.27121
1.27121
1.2887
1.3045
1.31834
1.33033
1.3407
1.34941
1.35651
1.36227
1.36694
1.37068
1.37366
1.37598
1.37774
1.37901
1.37984
1.38027
1.38033
1.3799
1.37896
1.37747
1.37536
1.37256
1.36898
1.3645
1.35897
1.35225
1.34413
1.33456
1.32332
1.30981
1.29359
1.27471
1.25364
1.2303
1.20479
1.18135
1.16404
1.16404
1.15379
1.1541
1.16846
1.20339
1.27104
1.39778
1.65549
2.3337
5.92763
)
;
    }
    procBoundary1to3
    {
        type            processor;
        value           nonuniform List<scalar> 
62
(
2.89199
1.44221
1.23787
1.19412
1.19484
1.21157
1.23031
1.23031
1.25412
1.27371
1.27371
1.29497
1.31404
1.33075
1.34515
1.35431
1.35431
1.36452
1.3731
1.37986
1.38244
1.38244
1.38411
1.38411
1.38688
1.38891
1.39034
1.3913
1.39186
1.39208
1.39201
1.39168
1.39109
1.39018
1.38897
1.38743
1.38555
1.38328
1.38059
1.3774
1.37365
1.36924
1.36405
1.35818
1.35141
1.34292
1.33208
1.31817
1.30027
1.27675
1.24536
1.21105
1.18213
1.15857
1.14334
1.14036
1.15558
1.19959
1.29506
1.50336
2.07178
5.14585
)
;
    }
}


// ************************************************************************* //
