/*--------------------------------*- C++ -*----------------------------------*\
  =========                 |
  \\      /  F ield         | OpenFOAM: The Open Source CFD Toolbox
   \\    /   O peration     | Website:  https://openfoam.org
    \\  /    A nd           | Version:  6
     \\/     M anipulation  |
\*---------------------------------------------------------------------------*/
FoamFile
{
    version     2.0;
    format      ascii;
    class       volScalarField;
    location    "0.06";
    object      k;
}
// * * * * * * * * * * * * * * * * * * * * * * * * * * * * * * * * * * * * * //

dimensions      [0 2 -2 0 0 0 0];

internalField   nonuniform List<scalar> 
3081
(
0.0240106
0.0239266
0.0238488
0.0237766
0.0237096
0.0236475
0.0235899
0.0235363
0.0234865
0.0234401
0.0233967
0.023356
0.0233187
0.0232846
0.0232533
0.0232241
0.023197
0.0231715
0.0231477
0.0231253
0.0231042
0.0230841
0.0230652
0.0230471
0.0230299
0.0230135
0.0229977
0.0229826
0.0229681
0.022954
0.0229405
0.0229274
0.0229146
0.0229022
0.0228902
0.0228784
0.0228669
0.0228556
0.0228446
0.0228338
0.0228231
0.0228126
0.0228022
0.0227919
0.0227818
0.0227717
0.0227618
0.0227518
0.0227419
0.0227321
0.0227223
0.0227124
0.0227026
0.0226927
0.0226828
0.0226729
0.0226629
0.0471978
0.0470163
0.0468481
0.0466922
0.0465476
0.0464134
0.0462889
0.0461731
0.0460655
0.0459653
0.0458719
0.0457844
0.0457013
0.0456235
0.0455512
0.045484
0.0454212
0.0453625
0.0453075
0.0452558
0.045207
0.0451608
0.0451171
0.0450755
0.0450358
0.0449979
0.0449616
0.0449267
0.0448931
0.0448607
0.0448293
0.0447989
0.0447694
0.0447407
0.0447127
0.0446853
0.0446585
0.0446322
0.0446064
0.044581
0.044556
0.0445313
0.0445068
0.0444826
0.0444586
0.0444348
0.0444111
0.0443875
0.0443639
0.0443404
0.044317
0.0442934
0.0442699
0.0442463
0.0442226
0.0441988
0.0441748
0.059879
0.0596559
0.0594492
0.0592576
0.0590799
0.0589149
0.0587618
0.0586194
0.058487
0.0583637
0.0582487
0.0581411
0.0580402
0.0579451
0.0578562
0.057773
0.0576951
0.0576219
0.057553
0.0574881
0.0574266
0.0573684
0.057313
0.0572603
0.05721
0.0571618
0.0571155
0.057071
0.0570281
0.0569866
0.0569465
0.0569075
0.0568696
0.0568326
0.0567966
0.0567613
0.0567267
0.0566927
0.0566593
0.0566263
0.0565938
0.0565617
0.0565299
0.0564984
0.0564672
0.0564361
0.0564051
0.0563743
0.0563436
0.0563128
0.0562821
0.0562514
0.0562205
0.0561896
0.0561586
0.0561274
0.0560961
0.0689825
0.0687341
0.068504
0.0682908
0.0680931
0.0679097
0.0677394
0.0675811
0.0674339
0.0672967
0.0671688
0.0670492
0.0669372
0.0668319
0.0667332
0.0666406
0.0665537
0.0664719
0.0663947
0.0663217
0.0662526
0.0661869
0.0661243
0.0660647
0.0660076
0.0659528
0.0659002
0.0658495
0.0658005
0.0657532
0.0657072
0.0656626
0.0656191
0.0655767
0.0655352
0.0654945
0.0654546
0.0654154
0.0653768
0.0653387
0.065301
0.0652638
0.0652269
0.0651903
0.0651539
0.0651178
0.0650817
0.0650458
0.06501
0.0649741
0.0649383
0.0649023
0.0648663
0.0648302
0.064794
0.0647575
0.0647209
0.0762558
0.0759903
0.0757445
0.0755168
0.0753059
0.0751103
0.0749288
0.0747601
0.0746032
0.0744571
0.0743209
0.0741936
0.0740745
0.0739626
0.0738576
0.0737589
0.0736662
0.0735788
0.0734962
0.073418
0.0733439
0.0732733
0.073206
0.0731417
0.0730801
0.073021
0.0729641
0.0729092
0.0728561
0.0728047
0.0727548
0.0727063
0.072659
0.0726127
0.0725675
0.0725231
0.0724795
0.0724366
0.0723943
0.0723525
0.0723113
0.0722704
0.0722299
0.0721896
0.0721496
0.0721098
0.0720701
0.0720305
0.0719909
0.0719514
0.0719118
0.0718721
0.0718324
0.0717925
0.0717524
0.0717121
0.0716716
0.082317
0.0820399
0.0817836
0.0815465
0.081327
0.0811236
0.0809349
0.0807597
0.0805968
0.0804452
0.0803039
0.0801719
0.0800485
0.0799327
0.0798239
0.0797216
0.0796254
0.0795347
0.0794488
0.0793675
0.0792902
0.0792166
0.0791464
0.0790792
0.0790148
0.078953
0.0788934
0.0788358
0.0787802
0.0787262
0.0786738
0.0786227
0.0785729
0.0785242
0.0784765
0.0784296
0.0783836
0.0783383
0.0782936
0.0782494
0.0782057
0.0781624
0.0781194
0.0780767
0.0780342
0.0779919
0.0779498
0.0779077
0.0778656
0.0778235
0.0777814
0.0777391
0.0776968
0.0776543
0.0776116
0.0775687
0.0775255
0.0871787
0.0869161
0.0866734
0.0864489
0.0862411
0.0860485
0.0858698
0.0857039
0.0855495
0.0854057
0.0852714
0.0851459
0.0850283
0.0849178
0.0848139
0.0847161
0.0846238
0.0845364
0.0844536
0.0843748
0.0842998
0.0842281
0.0841595
0.0840937
0.0840305
0.0839695
0.0839106
0.0838536
0.0837983
0.0837445
0.0836921
0.0836409
0.0835909
0.0835418
0.0834937
0.0834463
0.0833996
0.0833535
0.083308
0.0832629
0.0832182
0.0831738
0.0831297
0.0830858
0.0830421
0.0829984
0.0829548
0.0829113
0.0828677
0.082824
0.0827803
0.0827364
0.0826923
0.082648
0.0826035
0.0825587
0.0915791
0.0913136
0.0910685
0.0908421
0.0906327
0.0904389
0.0902593
0.0900927
0.0899378
0.0897936
0.0896592
0.0895336
0.0894159
0.0893055
0.0892016
0.0891038
0.0890114
0.088924
0.0888411
0.0887622
0.088687
0.0886152
0.0885464
0.0884804
0.0884169
0.0883557
0.0882965
0.0882392
0.0881836
0.0881295
0.0880768
0.0880253
0.0879749
0.0879255
0.087877
0.0878292
0.0877821
0.0877356
0.0876896
0.087644
0.0875988
0.0875539
0.0875093
0.0874649
0.0874206
0.0873764
0.0873322
0.0872881
0.0872439
0.0871996
0.0871552
0.0871106
0.0870659
0.0870209
0.0869757
0.0869302
0.095091
0.0948462
0.0946204
0.094412
0.0942193
0.0940409
0.0938756
0.0937221
0.0935794
0.0934465
0.0933224
0.0932062
0.0930973
0.0929949
0.0928984
0.0928073
0.0927211
0.0926392
0.0925614
0.0924872
0.0924163
0.0923484
0.0922832
0.0922205
0.09216
0.0921015
0.0920449
0.0919899
0.0919364
0.0918842
0.0918333
0.0917834
0.0917344
0.0916863
0.0916389
0.0915922
0.0915461
0.0915005
0.0914552
0.0914103
0.0913658
0.0913214
0.0912772
0.0912331
0.0911892
0.0911452
0.0911012
0.0910572
0.0910131
0.0909688
0.0909244
0.0908798
0.090835
0.0907899
0.0907445
0.0983332
0.0980911
0.0978681
0.0976625
0.0974728
0.0972975
0.0971352
0.0969848
0.0968451
0.0967151
0.0965939
0.0964806
0.0963744
0.0962746
0.0961806
0.0960919
0.0960079
0.0959282
0.0958524
0.0957801
0.0957111
0.0956449
0.0955815
0.0955204
0.0954614
0.0954045
0.0953493
0.0952957
0.0952435
0.0951926
0.0951429
0.0950942
0.0950465
0.0949995
0.0949533
0.0949077
0.0948626
0.094818
0.0947737
0.0947298
0.0946862
0.0946428
0.0945995
0.0945564
0.0945133
0.0944702
0.0944271
0.0943839
0.0943407
0.0942973
0.0942537
0.0942099
0.0941658
0.0941216
0.094077
0.101108
0.10087
0.100652
0.100451
0.100266
0.100095
0.0999371
0.099791
0.0996556
0.0995297
0.0994126
0.0993031
0.0992007
0.0991046
0.099014
0.0989285
0.0988476
0.0987709
0.098698
0.0986284
0.098562
0.0984984
0.0984373
0.0983786
0.0983219
0.0982671
0.098214
0.0981625
0.0981123
0.0980634
0.0980155
0.0979687
0.0979227
0.0978775
0.0978329
0.097789
0.0977456
0.0977025
0.0976599
0.0976176
0.0975755
0.0975336
0.0974918
0.0974501
0.0974085
0.0973668
0.0973252
0.0972834
0.0972416
0.0971996
0.0971574
0.097115
0.0970724
0.0970295
0.0969863
0.103471
0.103239
0.103027
0.102832
0.102653
0.102488
0.102336
0.102195
0.102065
0.101944
0.101832
0.101727
0.101629
0.101538
0.101451
0.10137
0.101293
0.10122
0.10115
0.101084
0.101021
0.10096
0.100902
0.100847
0.100793
0.100741
0.10069
0.100641
0.100594
0.100547
0.100502
0.100457
0.100413
0.10037
0.100328
0.100286
0.100245
0.100204
0.100163
0.100123
0.100083
0.100043
0.100003
0.0999635
0.0999238
0.0998841
0.0998443
0.0998045
0.0997645
0.0997244
0.0996841
0.0996436
0.0996028
0.0995618
0.0995205
0.0994789
0.105471
0.105247
0.105042
0.104854
0.104682
0.104523
0.104378
0.104244
0.10412
0.104005
0.103898
0.103799
0.103706
0.103619
0.103538
0.103461
0.103388
0.103319
0.103254
0.103192
0.103132
0.103076
0.103021
0.102969
0.102918
0.102869
0.102822
0.102776
0.102731
0.102687
0.102645
0.102603
0.102562
0.102521
0.102482
0.102442
0.102403
0.102365
0.102327
0.102289
0.102251
0.102214
0.102176
0.102139
0.102101
0.102064
0.102026
0.101989
0.101951
0.101913
0.101875
0.101837
0.101798
0.10176
0.101721
0.101681
0.106936
0.106739
0.106559
0.106394
0.106244
0.106105
0.105978
0.10586
0.105752
0.105652
0.105558
0.105472
0.10539
0.105314
0.105242
0.105174
0.10511
0.105049
0.104991
0.104936
0.104883
0.104832
0.104783
0.104736
0.104691
0.104647
0.104604
0.104563
0.104522
0.104483
0.104444
0.104406
0.104368
0.104331
0.104295
0.104259
0.104223
0.104188
0.104152
0.104117
0.104082
0.104047
0.104012
0.103978
0.103943
0.103908
0.103873
0.103838
0.103802
0.103767
0.103731
0.103695
0.103659
0.103623
0.103586
0.108343
0.108155
0.107984
0.107828
0.107685
0.107554
0.107435
0.107324
0.107223
0.107129
0.107042
0.106961
0.106886
0.106815
0.106748
0.106685
0.106626
0.10657
0.106516
0.106465
0.106417
0.10637
0.106325
0.106282
0.106241
0.1062
0.106161
0.106123
0.106086
0.106049
0.106014
0.105979
0.105945
0.105911
0.105877
0.105844
0.105811
0.105779
0.105746
0.105714
0.105682
0.10565
0.105618
0.105586
0.105554
0.105521
0.105489
0.105457
0.105424
0.105392
0.105359
0.105325
0.105292
0.105258
0.105224
0.109528
0.10935
0.109188
0.10904
0.108906
0.108784
0.108671
0.108569
0.108474
0.108387
0.108307
0.108232
0.108162
0.108097
0.108035
0.107978
0.107923
0.107872
0.107823
0.107776
0.107732
0.107689
0.107649
0.107609
0.107571
0.107534
0.107499
0.107464
0.10743
0.107397
0.107364
0.107333
0.107301
0.10727
0.10724
0.107209
0.107179
0.10715
0.10712
0.10709
0.107061
0.107031
0.107002
0.106973
0.106943
0.106913
0.106884
0.106854
0.106824
0.106794
0.106763
0.106733
0.106702
0.106671
0.106639
0.110469
0.110301
0.110148
0.11001
0.109884
0.10977
0.109666
0.10957
0.109483
0.109403
0.109329
0.109261
0.109197
0.109138
0.109082
0.10903
0.108981
0.108934
0.10889
0.108848
0.108808
0.10877
0.108733
0.108698
0.108664
0.108631
0.108599
0.108568
0.108538
0.108508
0.108479
0.108451
0.108423
0.108395
0.108368
0.10834
0.108314
0.108287
0.10826
0.108234
0.108207
0.108181
0.108155
0.108128
0.108102
0.108075
0.108048
0.108022
0.107995
0.107967
0.10794
0.107913
0.107885
0.107857
0.107828
0.111014
0.11087
0.110741
0.110624
0.110518
0.110422
0.110334
0.110255
0.110181
0.110114
0.110052
0.109995
0.109941
0.109891
0.109845
0.109801
0.10976
0.109721
0.109684
0.109649
0.109615
0.109583
0.109552
0.109522
0.109494
0.109466
0.109439
0.109413
0.109387
0.109362
0.109337
0.109313
0.109289
0.109265
0.109242
0.109219
0.109196
0.109173
0.10915
0.109127
0.109104
0.109082
0.109059
0.109036
0.109013
0.10899
0.108967
0.108944
0.10892
0.108896
0.108873
0.108849
0.108824
0.1088
0.111413
0.111292
0.111184
0.111086
0.110997
0.110917
0.110844
0.110778
0.110717
0.110661
0.11061
0.110562
0.110518
0.110477
0.110438
0.110402
0.110368
0.110336
0.110306
0.110277
0.110249
0.110223
0.110197
0.110173
0.110149
0.110126
0.110104
0.110083
0.110061
0.110041
0.11002
0.11
0.10998
0.109961
0.109941
0.109922
0.109903
0.109884
0.109865
0.109846
0.109827
0.109808
0.109789
0.10977
0.109751
0.109731
0.109712
0.109693
0.109673
0.109653
0.109633
0.109613
0.109593
0.111817
0.111705
0.111604
0.111514
0.111432
0.111359
0.111293
0.111233
0.111178
0.111128
0.111083
0.111041
0.111002
0.110966
0.110932
0.110901
0.110872
0.110845
0.110819
0.110794
0.110771
0.110749
0.110728
0.110707
0.110688
0.110669
0.11065
0.110632
0.110615
0.110598
0.110581
0.110565
0.110549
0.110533
0.110517
0.110502
0.110486
0.110471
0.110456
0.11044
0.110425
0.11041
0.110394
0.110379
0.110364
0.110348
0.110333
0.110317
0.110301
0.110285
0.110269
0.110253
0.110237
0.112114
0.11201
0.111917
0.111833
0.111759
0.111692
0.111632
0.111578
0.111529
0.111485
0.111444
0.111407
0.111373
0.111342
0.111313
0.111287
0.111262
0.111239
0.111217
0.111197
0.111177
0.111159
0.111142
0.111125
0.111109
0.111094
0.111079
0.111065
0.111051
0.111038
0.111024
0.111011
0.110999
0.110986
0.110974
0.110962
0.11095
0.110938
0.110926
0.110914
0.110902
0.11089
0.110878
0.110867
0.110855
0.110843
0.110831
0.110819
0.110807
0.110794
0.110782
0.11077
0.110757
0.112328
0.11223
0.112144
0.112067
0.111999
0.111938
0.111883
0.111835
0.111791
0.111752
0.111717
0.111684
0.111655
0.111628
0.111604
0.111581
0.111561
0.111541
0.111523
0.111507
0.111491
0.111476
0.111462
0.111449
0.111436
0.111424
0.111413
0.111402
0.111391
0.111381
0.111371
0.111361
0.111351
0.111342
0.111333
0.111323
0.111314
0.111306
0.111297
0.111288
0.111279
0.11127
0.111262
0.111253
0.111244
0.111235
0.111226
0.111218
0.111209
0.1112
0.111191
0.111181
0.111172
0.112474
0.112383
0.112303
0.112232
0.112169
0.112114
0.112065
0.112021
0.111982
0.111948
0.111917
0.111889
0.111864
0.111841
0.111821
0.111802
0.111785
0.111769
0.111754
0.111741
0.111728
0.111717
0.111706
0.111696
0.111686
0.111677
0.111668
0.11166
0.111652
0.111644
0.111637
0.11163
0.111623
0.111616
0.111609
0.111603
0.111597
0.11159
0.111584
0.111578
0.111572
0.111566
0.111559
0.111553
0.111547
0.111541
0.111535
0.111529
0.111523
0.111517
0.111511
0.111504
0.111498
0.112565
0.112481
0.112407
0.112341
0.112284
0.112233
0.112189
0.11215
0.112116
0.112085
0.112058
0.112034
0.112013
0.111994
0.111976
0.111961
0.111947
0.111934
0.111923
0.111912
0.111902
0.111893
0.111885
0.111877
0.11187
0.111864
0.111857
0.111852
0.111846
0.111841
0.111836
0.111831
0.111826
0.111821
0.111817
0.111813
0.111809
0.111804
0.1118
0.111796
0.111792
0.111789
0.111785
0.111781
0.111777
0.111773
0.111769
0.111766
0.111762
0.111758
0.111754
0.11175
0.111746
0.112612
0.112533
0.112465
0.112404
0.112352
0.112306
0.112266
0.112231
0.1122
0.112174
0.11215
0.11213
0.112111
0.112095
0.112081
0.112069
0.112057
0.112047
0.112038
0.11203
0.112023
0.112016
0.11201
0.112005
0.112
0.111995
0.111991
0.111987
0.111983
0.11198
0.111976
0.111973
0.111971
0.111968
0.111965
0.111963
0.11196
0.111958
0.111956
0.111953
0.111951
0.111949
0.111947
0.111945
0.111943
0.11194
0.111938
0.111936
0.111934
0.111932
0.11193
0.111928
0.111926
0.112621
0.112548
0.112484
0.112428
0.11238
0.112338
0.112302
0.112271
0.112244
0.11222
0.1122
0.112183
0.112167
0.112154
0.112142
0.112132
0.112123
0.112115
0.112109
0.112103
0.112097
0.112092
0.112088
0.112084
0.112081
0.112078
0.112075
0.112073
0.112071
0.112069
0.112067
0.112065
0.112064
0.112062
0.112061
0.11206
0.112059
0.112058
0.112057
0.112056
0.112055
0.112054
0.112053
0.112052
0.112051
0.11205
0.112049
0.112048
0.112048
0.112047
0.112046
0.112045
0.112045
0.112599
0.11253
0.112471
0.112419
0.112375
0.112337
0.112304
0.112276
0.112252
0.112232
0.112214
0.112199
0.112186
0.112175
0.112166
0.112158
0.112151
0.112145
0.112139
0.112135
0.112131
0.112128
0.112125
0.112122
0.11212
0.112119
0.112117
0.112116
0.112115
0.112114
0.112113
0.112112
0.112111
0.112111
0.11211
0.11211
0.11211
0.112109
0.112109
0.112109
0.112109
0.112108
0.112108
0.112108
0.112108
0.112108
0.112108
0.112107
0.112107
0.112107
0.112107
0.112107
0.112107
0.112545
0.112481
0.112426
0.112379
0.112338
0.112304
0.112274
0.112249
0.112228
0.11221
0.112195
0.112182
0.112171
0.112162
0.112155
0.112148
0.112143
0.112138
0.112134
0.112131
0.112129
0.112126
0.112125
0.112123
0.112122
0.112121
0.11212
0.112119
0.112119
0.112118
0.112118
0.112118
0.112118
0.112118
0.112117
0.112117
0.112117
0.112117
0.112117
0.112117
0.112117
0.112117
0.112117
0.112117
0.112117
0.112118
0.112118
0.112118
0.112118
0.112118
0.112118
0.112118
0.112118
0.112455
0.112396
0.112345
0.112301
0.112264
0.112233
0.112206
0.112184
0.112165
0.112149
0.112136
0.112125
0.112116
0.112109
0.112102
0.112097
0.112093
0.112089
0.112086
0.112084
0.112082
0.11208
0.112079
0.112077
0.112076
0.112076
0.112075
0.112074
0.112074
0.112073
0.112073
0.112072
0.112072
0.112072
0.112071
0.112071
0.11207
0.11207
0.112069
0.112069
0.112068
0.112067
0.112067
0.112066
0.112065
0.112065
0.112064
0.112063
0.112063
0.112062
0.112061
0.11206
0.112059
0.112326
0.112271
0.112224
0.112184
0.11215
0.112122
0.112098
0.112078
0.112061
0.112047
0.112036
0.112026
0.112019
0.112012
0.112007
0.112002
0.111998
0.111995
0.111992
0.11199
0.111988
0.111986
0.111985
0.111983
0.111982
0.11198
0.111979
0.111978
0.111976
0.111975
0.111974
0.111972
0.111971
0.11197
0.111968
0.111966
0.111965
0.111963
0.111961
0.111959
0.111957
0.111955
0.111953
0.111951
0.111948
0.111946
0.111944
0.111941
0.111939
0.111936
0.111933
0.111931
0.111928
0.112156
0.112105
0.112062
0.112025
0.111994
0.111968
0.111947
0.111928
0.111913
0.111901
0.111891
0.111882
0.111875
0.111869
0.111864
0.111859
0.111855
0.111852
0.111849
0.111846
0.111843
0.111841
0.111838
0.111836
0.111834
0.111831
0.111828
0.111826
0.111823
0.11182
0.111817
0.111814
0.111811
0.111808
0.111804
0.111801
0.111797
0.111793
0.111789
0.111785
0.11178
0.111776
0.111771
0.111767
0.111762
0.111757
0.111752
0.111747
0.111741
0.111736
0.111731
0.111725
0.111719
0.11194
0.111893
0.111853
0.111819
0.111791
0.111767
0.111747
0.11173
0.111717
0.111705
0.111695
0.111687
0.11168
0.111674
0.111669
0.111664
0.111659
0.111655
0.111651
0.111647
0.111643
0.111639
0.111635
0.111631
0.111627
0.111623
0.111618
0.111613
0.111608
0.111603
0.111598
0.111592
0.111586
0.11158
0.111574
0.111567
0.111561
0.111554
0.111547
0.111539
0.111532
0.111524
0.111516
0.111508
0.1115
0.111491
0.111482
0.111473
0.111464
0.111455
0.111445
0.111436
0.111426
0.111672
0.111628
0.111592
0.11156
0.111534
0.111512
0.111494
0.111478
0.111465
0.111454
0.111444
0.111436
0.111429
0.111422
0.111416
0.11141
0.111404
0.111398
0.111393
0.111387
0.111381
0.111375
0.111369
0.111362
0.111355
0.111348
0.111341
0.111333
0.111325
0.111316
0.111308
0.111299
0.111289
0.11128
0.11127
0.111259
0.111249
0.111238
0.111227
0.111215
0.111203
0.111191
0.111179
0.111166
0.111153
0.11114
0.111126
0.111112
0.111098
0.111083
0.111069
0.111054
0.111038
0.111346
0.111305
0.111271
0.111242
0.111218
0.111197
0.11118
0.111165
0.111152
0.11114
0.11113
0.111121
0.111113
0.111105
0.111097
0.111089
0.111081
0.111073
0.111065
0.111057
0.111048
0.111039
0.11103
0.11102
0.11101
0.110999
0.110988
0.110976
0.110964
0.110952
0.110939
0.110925
0.110911
0.110897
0.110882
0.110867
0.110851
0.110835
0.110819
0.110802
0.110785
0.110767
0.110749
0.11073
0.110711
0.110692
0.110672
0.110652
0.110631
0.11061
0.110589
0.110567
0.110545
0.110952
0.110915
0.110883
0.110856
0.110832
0.110813
0.110795
0.11078
0.110767
0.110755
0.110744
0.110733
0.110723
0.110713
0.110703
0.110692
0.110682
0.110671
0.11066
0.110648
0.110635
0.110622
0.110609
0.110595
0.11058
0.110565
0.110549
0.110532
0.110515
0.110498
0.110479
0.11046
0.110441
0.110421
0.1104
0.110379
0.110357
0.110334
0.110311
0.110288
0.110264
0.110239
0.110214
0.110188
0.110162
0.110135
0.110107
0.110079
0.110051
0.110022
0.109992
0.109962
0.109931
0.110481
0.110446
0.110416
0.11039
0.110368
0.110348
0.110331
0.110315
0.1103
0.110287
0.110274
0.110261
0.110248
0.110235
0.110222
0.110208
0.110194
0.110179
0.110163
0.110147
0.11013
0.110112
0.110093
0.110074
0.110054
0.110033
0.110011
0.109988
0.109965
0.109941
0.109916
0.10989
0.109863
0.109836
0.109808
0.109779
0.10975
0.10972
0.109689
0.109657
0.109625
0.109591
0.109558
0.109523
0.109488
0.109452
0.109415
0.109378
0.109339
0.1093
0.109261
0.10922
0.109179
0.10992
0.109887
0.109858
0.109833
0.10981
0.10979
0.109772
0.109754
0.109738
0.109722
0.109706
0.10969
0.109673
0.109657
0.109639
0.109621
0.109602
0.109582
0.109561
0.109539
0.109516
0.109492
0.109467
0.109441
0.109414
0.109386
0.109357
0.109327
0.109296
0.109264
0.109231
0.109197
0.109162
0.109126
0.10909
0.109052
0.109013
0.108974
0.108933
0.108892
0.108849
0.108806
0.108762
0.108717
0.108671
0.108624
0.108576
0.108527
0.108477
0.108426
0.108374
0.108322
0.108268
0.109253
0.109221
0.109193
0.109167
0.109144
0.109122
0.109102
0.109082
0.109063
0.109043
0.109024
0.109003
0.108982
0.108961
0.108938
0.108914
0.108889
0.108863
0.108835
0.108806
0.108776
0.108745
0.108712
0.108678
0.108643
0.108607
0.108569
0.10853
0.10849
0.108449
0.108406
0.108362
0.108317
0.108271
0.108224
0.108176
0.108126
0.108075
0.108023
0.10797
0.107916
0.10786
0.107804
0.107746
0.107687
0.107627
0.107566
0.107504
0.10744
0.107375
0.107309
0.107242
0.107173
0.108493
0.108461
0.108431
0.108405
0.108379
0.108355
0.108331
0.108308
0.108284
0.10826
0.108235
0.108209
0.108182
0.108154
0.108124
0.108093
0.108061
0.108027
0.107991
0.107954
0.107915
0.107875
0.107833
0.107789
0.107744
0.107697
0.107649
0.107599
0.107548
0.107496
0.107441
0.107386
0.107329
0.10727
0.107211
0.107149
0.107086
0.107022
0.106957
0.10689
0.106821
0.106751
0.10668
0.106607
0.106533
0.106457
0.10638
0.106301
0.106221
0.106139
0.106056
0.105971
0.105884
0.10761
0.107577
0.107546
0.107517
0.107488
0.10746
0.107432
0.107403
0.107374
0.107343
0.107312
0.107279
0.107244
0.107208
0.10717
0.10713
0.107089
0.107045
0.106999
0.106952
0.106903
0.106851
0.106798
0.106743
0.106686
0.106627
0.106567
0.106504
0.10644
0.106374
0.106306
0.106237
0.106166
0.106093
0.106018
0.105941
0.105863
0.105783
0.105701
0.105618
0.105533
0.105446
0.105357
0.105266
0.105174
0.10508
0.104984
0.104886
0.104786
0.104684
0.104581
0.104475
0.104368
0.106497
0.106462
0.106429
0.106396
0.106363
0.10633
0.106296
0.106261
0.106225
0.106188
0.106148
0.106107
0.106063
0.106018
0.10597
0.10592
0.105868
0.105813
0.105756
0.105697
0.105636
0.105572
0.105506
0.105438
0.105367
0.105295
0.10522
0.105143
0.105064
0.104983
0.104899
0.104814
0.104727
0.104637
0.104545
0.104452
0.104356
0.104258
0.104159
0.104057
0.103952
0.103846
0.103738
0.103628
0.103515
0.1034
0.103283
0.103164
0.103042
0.102918
0.102792
0.102663
0.102532
0.105067
0.105029
0.104992
0.104955
0.104917
0.104878
0.104838
0.104795
0.104751
0.104705
0.104656
0.104605
0.104552
0.104495
0.104436
0.104375
0.10431
0.104243
0.104173
0.104101
0.104026
0.103948
0.103867
0.103784
0.103699
0.103611
0.10352
0.103427
0.103331
0.103233
0.103133
0.10303
0.102924
0.102817
0.102706
0.102594
0.102479
0.102362
0.102242
0.102119
0.101995
0.101867
0.101738
0.101605
0.101471
0.101333
0.101193
0.101051
0.100905
0.100757
0.100606
0.100453
0.100296
0.103217
0.103177
0.103136
0.103094
0.10305
0.103005
0.102957
0.102907
0.102855
0.102799
0.102741
0.10268
0.102615
0.102547
0.102477
0.102403
0.102326
0.102245
0.102162
0.102076
0.101986
0.101894
0.101798
0.1017
0.101599
0.101495
0.101388
0.101278
0.101166
0.10105
0.100932
0.100812
0.100688
0.100562
0.100433
0.100301
0.100167
0.10003
0.0998901
0.0997475
0.0996022
0.099454
0.099303
0.0991492
0.0989925
0.0988328
0.0986702
0.0985046
0.098336
0.0981642
0.0979893
0.0978113
0.09763
0.100807
0.100765
0.100722
0.100676
0.100628
0.100577
0.100523
0.100466
0.100406
0.100342
0.100275
0.100204
0.10013
0.100052
0.0999709
0.099886
0.0997976
0.0997057
0.0996104
0.0995118
0.0994097
0.0993044
0.0991959
0.0990842
0.0989693
0.0988513
0.0987303
0.0986062
0.0984791
0.0983491
0.0982161
0.0980801
0.0979412
0.0977995
0.0976548
0.0975072
0.0973566
0.0972032
0.0970468
0.0968875
0.0967252
0.0965599
0.0963916
0.0962202
0.0960457
0.0958682
0.0956875
0.0955035
0.0953164
0.0951259
0.0949321
0.094735
0.0945344
0.0975741
0.0975322
0.0974877
0.0974402
0.0973895
0.0973354
0.0972777
0.0972162
0.097151
0.0970818
0.0970088
0.0969318
0.0968509
0.0967662
0.0966775
0.0965851
0.0964889
0.096389
0.0962855
0.0961784
0.0960678
0.0959538
0.0958364
0.0957157
0.0955917
0.0954646
0.0953342
0.0952008
0.0950643
0.0949248
0.0947822
0.0946367
0.0944882
0.0943367
0.0941823
0.094025
0.0938648
0.0937015
0.0935354
0.0933663
0.0931942
0.0930191
0.092841
0.0926599
0.0924757
0.0922884
0.092098
0.0919043
0.0917075
0.0915075
0.0913041
0.0910974
0.0908872
0.0930797
0.0930423
0.0930015
0.0929571
0.0929088
0.0928565
0.0928002
0.0927397
0.0926751
0.0926064
0.0925334
0.0924564
0.0923753
0.0922901
0.0922011
0.0921081
0.0920114
0.0919109
0.0918068
0.0916992
0.0915881
0.0914736
0.0913559
0.0912349
0.0911107
0.0909835
0.0908532
0.09072
0.0905838
0.0904448
0.0903029
0.0901582
0.0900107
0.0898604
0.0897075
0.0895518
0.0893933
0.0892322
0.0890684
0.0889018
0.0887326
0.0885606
0.0883859
0.0882084
0.0880281
0.0878451
0.0876592
0.0874704
0.0872788
0.0870843
0.0868869
0.0866864
0.086483
0.0877245
0.0876963
0.0876642
0.0876279
0.0875873
0.0875424
0.0874932
0.0874397
0.0873819
0.0873198
0.0872535
0.087183
0.0871084
0.0870299
0.0869474
0.0868612
0.0867713
0.0866777
0.0865807
0.0864803
0.0863766
0.0862697
0.0861597
0.0860466
0.0859306
0.0858117
0.0856901
0.0855656
0.0854385
0.0853088
0.0851765
0.0850417
0.0849044
0.0847646
0.0846223
0.0844777
0.0843306
0.0841812
0.0840293
0.0838751
0.0837186
0.0835596
0.0833983
0.0832346
0.0830685
0.0828999
0.082729
0.0825556
0.0823798
0.0822015
0.0820206
0.0818373
0.0816514
0.0825496
0.0825286
0.0825033
0.0824736
0.0824395
0.0824009
0.0823578
0.0823103
0.0822585
0.0822024
0.0821421
0.0820777
0.0820092
0.0819369
0.0818607
0.0817809
0.0816975
0.0816106
0.0815203
0.0814269
0.0813302
0.0812306
0.081128
0.0810225
0.0809143
0.0808034
0.0806898
0.0805738
0.0804552
0.0803342
0.0802109
0.0800852
0.0799573
0.0798271
0.0796946
0.07956
0.0794232
0.0792843
0.0791432
0.079
0.0788547
0.0787073
0.0785577
0.078406
0.0782522
0.0780963
0.0779382
0.077778
0.0776156
0.077451
0.0772842
0.0771152
0.076944
0.0772281
0.0772145
0.0771964
0.0771737
0.0771466
0.0771149
0.0770788
0.0770384
0.0769936
0.0769446
0.0768915
0.0768345
0.0767735
0.0767088
0.0766404
0.0765685
0.0764932
0.0764145
0.0763327
0.0762479
0.07616
0.0760693
0.0759759
0.0758798
0.0757811
0.07568
0.0755764
0.0754704
0.0753622
0.0752518
0.0751392
0.0750245
0.0749077
0.0747889
0.0746681
0.0745453
0.0744206
0.074294
0.0741654
0.0740349
0.0739026
0.0737683
0.0736322
0.0734942
0.0733544
0.0732126
0.073069
0.0729235
0.0727761
0.0726267
0.0724755
0.0723223
0.0721671
0.07201
0.0718057
0.0717992
0.0717882
0.0717726
0.0717526
0.0717282
0.0716995
0.0716664
0.0716293
0.071588
0.0715428
0.0714938
0.071441
0.0713847
0.0713249
0.0712618
0.0711954
0.071126
0.0710535
0.0709782
0.0709001
0.0708194
0.0707361
0.0706504
0.0705622
0.0704718
0.0703792
0.0702844
0.0701876
0.0700887
0.0699879
0.0698851
0.0697805
0.0696741
0.0695658
0.0694558
0.0693441
0.0692306
0.0691155
0.0689986
0.0688801
0.06876
0.0686381
0.0685147
0.0683895
0.0682628
0.0681343
0.0680042
0.0678725
0.0677391
0.067604
0.0674672
0.0673288
0.0671886
0.066294
0.0662941
0.0662899
0.0662812
0.0662681
0.0662508
0.0662293
0.0662038
0.0661742
0.0661408
0.0661036
0.0660628
0.0660185
0.0659709
0.06592
0.0658659
0.0658088
0.0657489
0.0656862
0.0656208
0.0655528
0.0654825
0.0654097
0.0653347
0.0652575
0.0651783
0.065097
0.0650138
0.0649287
0.0648417
0.064753
0.0646626
0.0645705
0.0644768
0.0643815
0.0642846
0.0641862
0.0640862
0.0639847
0.0638818
0.0637774
0.0636715
0.0635642
0.0634554
0.0633452
0.0632336
0.0631205
0.0630059
0.06289
0.0627725
0.0626537
0.0625333
0.0624115
0.0622882
0.0606633
0.0606694
0.0606711
0.0606687
0.0606621
0.0606515
0.0606369
0.0606184
0.0605962
0.0605704
0.060541
0.0605083
0.0604723
0.0604331
0.060391
0.0603459
0.060298
0.0602475
0.0601945
0.060139
0.0600811
0.060021
0.0599588
0.0598945
0.0598283
0.0597601
0.0596901
0.0596184
0.059545
0.05947
0.0593934
0.0593152
0.0592356
0.0591545
0.059072
0.0589881
0.0589029
0.0588163
0.0587284
0.0586392
0.0585487
0.058457
0.0583639
0.0582697
0.0581741
0.0580773
0.0579793
0.0578801
0.0577796
0.0576778
0.0575748
0.0574705
0.057365
0.0572582
0.0548248
0.0548358
0.0548428
0.0548458
0.0548449
0.0548402
0.0548318
0.0548199
0.0548044
0.0547856
0.0547636
0.0547384
0.0547102
0.0546792
0.0546454
0.0546089
0.0545699
0.0545285
0.0544847
0.0544387
0.0543907
0.0543406
0.0542886
0.0542347
0.054179
0.0541217
0.0540628
0.0540023
0.0539403
0.0538768
0.053812
0.0537458
0.0536783
0.0536095
0.0535395
0.0534683
0.0533959
0.0533223
0.0532476
0.0531718
0.0530948
0.0530168
0.0529376
0.0528574
0.0527761
0.0526938
0.0526104
0.0525259
0.0524403
0.0523537
0.0522661
0.0521773
0.0520875
0.0519966
0.0485851
0.0485998
0.0486107
0.048618
0.0486218
0.0486221
0.048619
0.0486126
0.0486031
0.0485906
0.0485751
0.0485568
0.0485359
0.0485123
0.0484862
0.0484578
0.0484271
0.0483943
0.0483594
0.0483225
0.0482838
0.0482432
0.048201
0.0481571
0.0481117
0.0480648
0.0480165
0.0479668
0.0479158
0.0478635
0.0478101
0.0477555
0.0476997
0.0476429
0.047585
0.0475261
0.0474661
0.0474052
0.0473433
0.0472804
0.0472166
0.0471518
0.0470862
0.0470196
0.0469521
0.0468837
0.0468145
0.0467443
0.0466732
0.0466013
0.0465285
0.0464547
0.0463801
0.0463046
0.0415078
0.0415243
0.0415375
0.0415475
0.0415544
0.0415583
0.0415593
0.0415574
0.0415528
0.0415455
0.0415357
0.0415235
0.0415089
0.0414921
0.0414732
0.0414522
0.0414293
0.0414045
0.0413779
0.0413497
0.0413199
0.0412886
0.0412558
0.0412216
0.0411861
0.0411494
0.0411114
0.0410724
0.0410322
0.040991
0.0409488
0.0409056
0.0408614
0.0408164
0.0407705
0.0407237
0.0406761
0.0406277
0.0405785
0.0405285
0.0404777
0.0404261
0.0403739
0.0403208
0.0402671
0.0402126
0.0401574
0.0401014
0.0400447
0.0399874
0.0399293
0.0398705
0.0398109
0.0397507
0.0323768
0.0323918
0.0324042
0.0324142
0.0324218
0.0324271
0.03243
0.0324308
0.0324295
0.0324261
0.0324208
0.0324136
0.0324046
0.0323939
0.0323815
0.0323676
0.0323522
0.0323353
0.0323171
0.0322977
0.032277
0.0322551
0.0322321
0.0322081
0.0321831
0.0321571
0.0321302
0.0321025
0.0320739
0.0320445
0.0320144
0.0319835
0.031952
0.0319198
0.0318869
0.0318534
0.0318192
0.0317845
0.0317491
0.0317132
0.0316767
0.0316396
0.031602
0.0315638
0.0315251
0.0314859
0.0314461
0.0314058
0.031365
0.0313236
0.0312817
0.0312393
0.0311964
0.0311529
0.0171347
0.0171412
0.0171468
0.0171515
0.0171553
0.0171582
0.0171603
0.0171615
0.017162
0.0171616
0.0171604
0.0171586
0.017156
0.0171527
0.0171487
0.0171442
0.017139
0.0171332
0.0171269
0.01712
0.0171127
0.0171048
0.0170965
0.0170877
0.0170786
0.017069
0.017059
0.0170487
0.017038
0.017027
0.0170156
0.017004
0.016992
0.0169798
0.0169672
0.0169544
0.0169414
0.016928
0.0169145
0.0169006
0.0168866
0.0168723
0.0168577
0.0168429
0.0168279
0.0168127
0.0167972
0.0167816
0.0167657
0.0167495
0.0167332
0.0167166
0.0166998
0.0166828
)
;

boundaryField
{
    inlet
    {
        type            fixedValue;
        value           nonuniform 0();
    }
    outlet
    {
        type            zeroGradient;
    }
    upperWall
    {
        type            kqRWallFunction;
        value           nonuniform List<scalar> 
54
(
0.0171347
0.0171412
0.0171468
0.0171515
0.0171553
0.0171582
0.0171603
0.0171615
0.017162
0.0171616
0.0171604
0.0171586
0.017156
0.0171527
0.0171487
0.0171442
0.017139
0.0171332
0.0171269
0.01712
0.0171127
0.0171048