/*--------------------------------*- C++ -*----------------------------------*\
  =========                 |
  \\      /  F ield         | OpenFOAM: The Open Source CFD Toolbox
   \\    /   O peration     | Website:  https://openfoam.org
    \\  /    A nd           | Version:  6
     \\/     M anipulation  |
\*---------------------------------------------------------------------------*/
FoamFile
{
    version     2.0;
    format      ascii;
    class       volScalarField;
    location    "0.06";
    object      nut;
}
// * * * * * * * * * * * * * * * * * * * * * * * * * * * * * * * * * * * * * //

dimensions      [0 2 -1 0 0 0 0];

internalField   nonuniform List<scalar> 
3081
(
1.80188e-05
1.79637e-05
1.79114e-05
1.78615e-05
1.78141e-05
1.77688e-05
1.77254e-05
1.76839e-05
1.7644e-05
1.76056e-05
1.75686e-05
1.75327e-05
1.7498e-05
1.74647e-05
1.74326e-05
1.74014e-05
1.7371e-05
1.73413e-05
1.73122e-05
1.72837e-05
1.72556e-05
1.72279e-05
1.72006e-05
1.71736e-05
1.71468e-05
1.71202e-05
1.70938e-05
1.70676e-05
1.70414e-05
1.70154e-05
1.69894e-05
1.69635e-05
1.69376e-05
1.69117e-05
1.68858e-05
1.68599e-05
1.6834e-05
1.6808e-05
1.67819e-05
1.67558e-05
1.67296e-05
1.67033e-05
1.66769e-05
1.66504e-05
1.66238e-05
1.6597e-05
1.65702e-05
1.65431e-05
1.6516e-05
1.64887e-05
1.64612e-05
1.64335e-05
1.64057e-05
1.63777e-05
1.63495e-05
1.63211e-05
1.62925e-05
0.000139525
0.00013892
0.000138354
0.000137822
0.000137323
0.000136853
0.00013641
0.000135993
0.000135599
0.000135225
0.000134871
0.000134532
0.000134192
0.000133862
0.000133547
0.000133247
0.00013296
0.000132685
0.000132422
0.000132169
0.000131925
0.000131689
0.00013146
0.000131237
0.00013102
0.000130808
0.0001306
0.000130396
0.000130195
0.000129998
0.000129803
0.00012961
0.00012942
0.000129231
0.000129043
0.000128857
0.000128671
0.000128487
0.000128303
0.000128119
0.000127935
0.000127752
0.000127568
0.000127384
0.0001272
0.000127015
0.00012683
0.000126644
0.000126457
0.00012627
0.000126081
0.000125891
0.000125701
0.000125509
0.000125316
0.000125121
0.000124925
0.000261563
0.00026042
0.000259351
0.000258351
0.000257414
0.000256535
0.000255711
0.000254936
0.000254207
0.000253519
0.000252869
0.000252252
0.00025166
0.000251085
0.000250537
0.000250013
0.000249512
0.000249033
0.000248574
0.000248133
0.000247709
0.0002473
0.000246905
0.000246522
0.00024615
0.000245788
0.000245435
0.000245091
0.000244753
0.000244422
0.000244096
0.000243776
0.000243459
0.000243147
0.000242838
0.000242531
0.000242227
0.000241925
0.000241624
0.000241325
0.000241026
0.000240729
0.000240431
0.000240134
0.000239836
0.000239538
0.000239239
0.00023894
0.00023864
0.000238338
0.000238035
0.00023773
0.000237424
0.000237116
0.000236806
0.000236494
0.000236179
0.000359806
0.000358274
0.000356842
0.000355504
0.000354252
0.000353079
0.000351981
0.00035095
0.000349982
0.00034907
0.000348211
0.000347398
0.000346626
0.000345886
0.000345179
0.000344506
0.000343864
0.000343249
0.000342661
0.000342097
0.000341555
0.000341033
0.000340529
0.000340042
0.00033957
0.000339111
0.000338665
0.00033823
0.000337805
0.000337389
0.000336981
0.00033658
0.000336185
0.000335796
0.000335411
0.00033503
0.000334653
0.000334279
0.000333908
0.000333538
0.00033317
0.000332803
0.000332437
0.000332072
0.000331706
0.000331341
0.000330974
0.000330608
0.00033024
0.00032987
0.0003295
0.000329127
0.000328752
0.000328376
0.000327997
0.000327615
0.000327231
0.00043938
0.000437581
0.000435901
0.000434331
0.000432863
0.000431489
0.000430203
0.000428997
0.000427866
0.000426802
0.0004258
0.000424855
0.00042396
0.000423108
0.000422296
0.000421524
0.000420788
0.000420085
0.000419413
0.000418768
0.000418149
0.000417554
0.00041698
0.000416426
0.000415889
0.000415369
0.000414863
0.000414371
0.00041389
0.00041342
0.00041296
0.000412509
0.000412065
0.000411627
0.000411196
0.000410769
0.000410348
0.000409929
0.000409514
0.000409102
0.000408692
0.000408283
0.000407876
0.000407469
0.000407063
0.000406657
0.00040625
0.000405843
0.000405435
0.000405025
0.000404614
0.000404201
0.000403786
0.000403368
0.000402948
0.000402525
0.0004021
0.000504911
0.000502939
0.000501096
0.000499375
0.000497767
0.000496263
0.000494856
0.000493537
0.000492299
0.000491137
0.000490044
0.000489013
0.000488039
0.000487116
0.000486237
0.000485402
0.000484607
0.000483849
0.000483123
0.000482429
0.000481763
0.000481122
0.000480505
0.000479909
0.000479333
0.000478775
0.000478233
0.000477705
0.000477191
0.000476689
0.000476198
0.000475716
0.000475242
0.000474776
0.000474317
0.000473864
0.000473416
0.000472972
0.000472531
0.000472094
0.000471659
0.000471227
0.000470795
0.000470365
0.000469935
0.000469506
0.000469076
0.000468645
0.000468214
0.000467782
0.000467348
0.000466912
0.000466473
0.000466033
0.00046559
0.000465143
0.000464694
0.00055752
0.000555582
0.000553773
0.000552083
0.000550503
0.000549024
0.000547639
0.000546341
0.000545122
0.000543976
0.000542897
0.000541878
0.000540913
0.000539997
0.000539128
0.0005383
0.000537511
0.000536757
0.000536035
0.000535343
0.000534677
0.000534037
0.000533419
0.000532822
0.000532243
0.000531682
0.000531136
0.000530604
0.000530085
0.000529577
0.00052908
0.000528591
0.000528111
0.000527638
0.000527171
0.000526709
0.000526252
0.000525799
0.00052535
0.000524903
0.000524459
0.000524016
0.000523574
0.000523133
0.000522692
0.000522251
0.00052181
0.000521368
0.000520924
0.000520479
0.000520032
0.000519583
0.000519131
0.000518677
0.00051822
0.000517759
0.000603518
0.000601538
0.000599688
0.000597961
0.000596347
0.000594837
0.000593424
0.0005921
0.000590857
0.000589689
0.000588589
0.000587552
0.000586572
0.000585642
0.000584759
0.000583919
0.000583119
0.000582354
0.000581623
0.000580922
0.000580248
0.0005796
0.000578974
0.00057837
0.000577785
0.000577218
0.000576666
0.000576129
0.000575605
0.000575092
0.00057459
0.000574098
0.000573613
0.000573137
0.000572666
0.000572201
0.000571741
0.000571286
0.000570833
0.000570384
0.000569937
0.000569492
0.000569048
0.000568604
0.000568161
0.000567718
0.000567275
0.00056683
0.000566385
0.000565938
0.000565489
0.000565038
0.000564584
0.000564128
0.000563668
0.000563205
0.000640512
0.000638662
0.000636934
0.000635319
0.00063381
0.000632398
0.000631075
0.000629834
0.000628668
0.000627572
0.000626538
0.000625562
0.000624636
0.000623758
0.000622923
0.000622127
0.000621367
0.000620641
0.000619944
0.000619275
0.000618631
0.00061801
0.00061741
0.00061683
0.000616267
0.000615719
0.000615187
0.000614667
0.000614159
0.000613661
0.000613173
0.000612694
0.000612221
0.000611756
0.000611296
0.00061084
0.000610389
0.000609942
0.000609497
0.000609055
0.000608615
0.000608175
0.000607737
0.000607299
0.000606861
0.000606422
0.000605983
0.000605542
0.0006051
0.000604656
0.00060421
0.000603761
0.00060331
0.000602855
0.000602397
0.000673659
0.000671834
0.000670132
0.000668543
0.000667059
0.000665671
0.000664372
0.000663154
0.000662011
0.000660935
0.000659922
0.000658966
0.000658061
0.000657201
0.000656384
0.000655606
0.000654863
0.000654152
0.000653471
0.000652817
0.000652187
0.00065158
0.000650994
0.000650427
0.000649877
0.000649343
0.000648822
0.000648315
0.000647819
0.000647333
0.000646857
0.000646388
0.000645928
0.000645473
0.000645024
0.00064458
0.00064414
0.000643703
0.00064327
0.000642838
0.000642408
0.00064198
0.000641552
0.000641125
0.000640697
0.000640269
0.00063984
0.000639411
0.000638979
0.000638546
0.00063811
0.000637672
0.000637232
0.000636788
0.00063634
0.000701846
0.000700072
0.000698419
0.000696877
0.000695438
0.000694093
0.000692835
0.000691656
0.000690551
0.000689512
0.000688533
0.00068761
0.000686737
0.000685909
0.000685121
0.00068437
0.000683653
0.000682968
0.000682311
0.000681681
0.000681074
0.000680489
0.000679924
0.000679378
0.000678848
0.000678333
0.000677831
0.000677343
0.000676865
0.000676397
0.000675938
0.000675487
0.000675043
0.000674605
0.000674173
0.000673745
0.000673321
0.0006729
0.000672482
0.000672066
0.000671652
0.000671239
0.000670827
0.000670415
0.000670003
0.00066959
0.000669177
0.000668762
0.000668346
0.000667928
0.000667508
0.000667085
0.00066666
0.000666231
0.000665798
0.000725768
0.000724063
0.000722477
0.000720998
0.00071962
0.000718333
0.00071713
0.000716004
0.000714949
0.000713958
0.000713026
0.000712146
0.000711315
0.000710526
0.000709776
0.000709062
0.00070838
0.000707727
0.000707102
0.000706502
0.000705925
0.000705369
0.000704831
0.000704311
0.000703807
0.000703317
0.00070284
0.000702375
0.00070192
0.000701475
0.000701038
0.000700609
0.000700187
0.00069977
0.000699358
0.000698951
0.000698547
0.000698147
0.000697749
0.000697353
0.000696958
0.000696565
0.000696172
0.000695779
0.000695386
0.000694993
0.000694598
0.000694203
0.000693806
0.000693407
0.000693006
0.000692602
0.000692196
0.000691787
0.000691374
0.000690954
0.000745987
0.000744369
0.000742862
0.00074146
0.000740155
0.000738937
0.000737801
0.000736738
0.000735743
0.000734809
0.000733931
0.000733103
0.000732322
0.00073158
0.000730875
0.000730203
0.000729562
0.000728949
0.000728362
0.000727798
0.000727255
0.000726733
0.000726227
0.000725739
0.000725265
0.000724804
0.000724356
0.000723919
0.000723491
0.000723073
0.000722662
0.000722258
0.000721861
0.000721469
0.000721081
0.000720698
0.000720318
0.000719941
0.000719566
0.000719193
0.000718821
0.000718451
0.00071808
0.00071771
0.000717339
0.000716968
0.000716596
0.000716223
0.000715848
0.000715471
0.000715093
0.000714712
0.000714328
0.000713941
0.000713551
0.000713155
0.000761455
0.000760042
0.000758727
0.000757503
0.000756363
0.0007553
0.000754308
0.00075338
0.000752511
0.000751694
0.000750925
0.000750198
0.000749509
0.000748854
0.00074823
0.000747635
0.000747066
0.000746521
0.000745997
0.000745494
0.000745008
0.00074454
0.000744086
0.000743646
0.000743218
0.000742802
0.000742396
0.000741999
0.00074161
0.000741228
0.000740853
0.000740483
0.000740119
0.000739759
0.000739402
0.000739048
0.000738697
0.000738348
0.000738001
0.000737655
0.000737309
0.000736964
0.000736618
0.000736273
0.000735926
0.000735579
0.00073523
0.00073488
0.000734528
0.000734174
0.000733818
0.000733459
0.000733098
0.000732732
0.000732363
0.000775738
0.000774417
0.000773192
0.000772055
0.000770998
0.000770016
0.0007691
0.000768245
0.000767445
0.000766694
0.000765988
0.000765321
0.000764688
0.000764087
0.000763515
0.00076297
0.000762448
0.000761948
0.000761468
0.000761007
0.000760562
0.000760132
0.000759716
0.000759313
0.00075892
0.000758539
0.000758166
0.000757802
0.000757445
0.000757094
0.00075675
0.000756411
0.000756076
0.000755744
0.000755417
0.000755091
0.000754768
0.000754447
0.000754127
0.000753808
0.00075349
0.000753171
0.000752853
0.000752534
0.000752214
0.000751893
0.000751571
0.000751248
0.000750923
0.000750595
0.000750266
0.000749934
0.000749599
0.000749261
0.000748918
0.000787797
0.000786574
0.000785444
0.000784399
0.000783431
0.000782533
0.000781698
0.000780919
0.000780192
0.00077951
0.000778869
0.000778263
0.000777689
0.000777144
0.000776625
0.00077613
0.000775656
0.000775203
0.000774767
0.000774348
0.000773944
0.000773553
0.000773175
0.000772808
0.000772451
0.000772104
0.000771764
0.000771432
0.000771106
0.000770786
0.000770472
0.000770161
0.000769855
0.000769552
0.000769252
0.000768953
0.000768657
0.000768362
0.000768068
0.000767775
0.000767482
0.000767189
0.000766896
0.000766602
0.000766307
0.000766011
0.000765714
0.000765415
0.000765114
0.000764811
0.000764507
0.000764199
0.000763889
0.000763576
0.000763258
0.000797393
0.000796277
0.000795246
0.000794298
0.000793423
0.000792613
0.000791862
0.000791164
0.000790512
0.000789902
0.000789329
0.000788788
0.000788275
0.000787789
0.000787327
0.000786886
0.000786464
0.00078606
0.000785672
0.000785299
0.000784939
0.000784592
0.000784255
0.000783928
0.00078361
0.0007833
0.000782997
0.000782701
0.00078241
0.000782125
0.000781844
0.000781566
0.000781292
0.000781021
0.000780752
0.000780485
0.000780219
0.000779955
0.000779691
0.000779428
0.000779164
0.000778901
0.000778637
0.000778372
0.000778107
0.00077784
0.000777572
0.000777302
0.000777031
0.000776757
0.000776482
0.000776204
0.000775923
0.000775639
0.000775351
0.000803563
0.000802646
0.000801794
0.000801011
0.00080029
0.000799623
0.000799005
0.00079843
0.000797893
0.000797389
0.000796914
0.000796466
0.000796041
0.000795637
0.000795253
0.000794886
0.000794535
0.000794198
0.000793874
0.000793562
0.000793261
0.00079297
0.000792687
0.000792412
0.000792144
0.000791882
0.000791626
0.000791376
0.000791129
0.000790887
0.000790647
0.000790411
0.000790177
0.000789945
0.000789715
0.000789486
0.000789257
0.00078903
0.000788802
0.000788575
0.000788347
0.000788119
0.000787891
0.000787661
0.00078743
0.000787198
0.000786965
0.00078673
0.000786493
0.000786255
0.000786014
0.00078577
0.000785524
0.000785273
0.000808216
0.000807461
0.000806767
0.00080613
0.000805544
0.000805003
0.000804502
0.000804036
0.0008036
0.00080319
0.000802804
0.00080244
0.000802094
0.000801766
0.000801454
0.000801155
0.00080087
0.000800595
0.000800331
0.000800077
0.000799831
0.000799593
0.000799362
0.000799137
0.000798917
0.000798703
0.000798493
0.000798287
0.000798084
0.000797884
0.000797687
0.000797492
0.000797298
0.000797106
0.000796915
0.000796725
0.000796535
0.000796346
0.000796156
0.000795967
0.000795777
0.000795586
0.000795395
0.000795203
0.000795009
0.000794815
0.000794619
0.000794422
0.000794223
0.000794022
0.000793819
0.000793612
0.000793402
0.000812403
0.000811724
0.000811108
0.000810549
0.000810038
0.00080957
0.00080914
0.000808741
0.00080837
0.000808023
0.000807696
0.00080739
0.0008071
0.000806825
0.000806565
0.000806317
0.00080608
0.000805853
0.000805635
0.000805426
0.000805224
0.000805029
0.00080484
0.000804656
0.000804477
0.000804303
0.000804133
0.000803966
0.000803802
0.00080364
0.000803481
0.000803323
0.000803168
0.000803013
0.000802859
0.000802706
0.000802554
0.000802402
0.00080225
0.000802097
0.000801945
0.000801792
0.000801638
0.000801484
0.000801329
0.000801173
0.000801016
0.000800858
0.000800698
0.000800537
0.000800373
0.000800207
0.000800037
0.000815489
0.000814884
0.000814341
0.000813854
0.000813414
0.000813014
0.000812649
0.000812314
0.000812004
0.000811715
0.000811444
0.000811191
0.000810953
0.000810729
0.000810517
0.000810316
0.000810125
0.000809942
0.000809768
0.0008096
0.000809439
0.000809284
0.000809135
0.00080899
0.000808849
0.000808712
0.000808579
0.000808448
0.00080832
0.000808195
0.000808071
0.000807949
0.000807828
0.000807708
0.00080759
0.000807472
0.000807354
0.000807237
0.000807119
0.000807002
0.000806885
0.000806767
0.000806649
0.000806531
0.000806411
0.000806291
0.000806171
0.000806049
0.000805926
0.000805802
0.000805676
0.000805548
0.000805415
0.000817705
0.00081717
0.000816697
0.000816277
0.000815902
0.000815566
0.000815261
0.000814984
0.00081473
0.000814495
0.000814277
0.000814073
0.000813883
0.000813705
0.000813537
0.000813379
0.000813229
0.000813087
0.000812952
0.000812823
0.000812699
0.000812581
0.000812467
0.000812357
0.000812251
0.000812148
0.000812048
0.00081195
0.000811855
0.000811762
0.00081167
0.00081158
0.000811491
0.000811403
0.000811316
0.000811229
0.000811143
0.000811057
0.000810972
0.000810886
0.0008108
0.000810714
0.000810628
0.000810542
0.000810455
0.000810367
0.000810279
0.00081019
0.000810101
0.00081001
0.000809918
0.000809824
0.000809725
0.000819227
0.000818759
0.00081835
0.000817993
0.000817679
0.0008174
0.000817151
0.000816927
0.000816724
0.000816538
0.000816367
0.000816208
0.000816061
0.000815924
0.000815797
0.000815677
0.000815565
0.000815459
0.000815359
0.000815264
0.000815174
0.000815088
0.000815006
0.000814927
0.000814851
0.000814778
0.000814708
0.000814639
0.000814573
0.000814508
0.000814445
0.000814383
0.000814321
0.000814261
0.000814201
0.000814142
0.000814083
0.000814025
0.000813966
0.000813908
0.00081385
0.000813792
0.000813733
0.000813674
0.000813615
0.000813556
0.000813497
0.000813436
0.000813376
0.000813314
0.000813251
0.000813186
0.000813117
0.000820191
0.000819785
0.000819437
0.000819137
0.000818878
0.000818652
0.000818453
0.000818277
0.000818119
0.000817976
0.000817847
0.000817729
0.00081762
0.00081752
0.000817428
0.000817342
0.000817263
0.000817189
0.000817119
0.000817054
0.000816993
0.000816935
0.000816881
0.000816829
0.00081678
0.000816732
0.000816687
0.000816644
0.000816602
0.000816561
0.000816522
0.000816483
0.000816445
0.000816408
0.000816372
0.000816335
0.0008163
0.000816264
0.000816229
0.000816193
0.000816158
0.000816122
0.000816087
0.000816051
0.000816016
0.00081598
0.000815944
0.000815907
0.00081587
0.000815833
0.000815794
0.000815753
0.000815708
0.000820703
0.000820354
0.00082006
0.000819813
0.000819604
0.000819425
0.00081927
0.000819136
0.000819018
0.000818913
0.00081882
0.000818737
0.000818662
0.000818594
0.000818533
0.000818477
0.000818426
0.000818378
0.000818335
0.000818295
0.000818259
0.000818225
0.000818193
0.000818163
0.000818136
0.00081811
0.000818086
0.000818062
0.00081804
0.000818019
0.000817999
0.00081798
0.000817961
0.000817942
0.000817924
0.000817907
0.000817889
0.000817871
0.000817854
0.000817837
0.000817819
0.000817802
0.000817785
0.000817767
0.00081775
0.000817732
0.000817714
0.000817696
0.000817678
0.000817659
0.000817639
0.000817618
0.000817591
0.000820843
0.000820545
0.000820301
0.0008201
0.000819934
0.000819796
0.000819681
0.000819583
0.000819499
0.000819427
0.000819366
0.000819312
0.000819265
0.000819225
0.000819189
0.000819157
0.00081913
0.000819105
0.000819084
0.000819064
0.000819047
0.000819032
0.000819019
0.000819007
0.000818997
0.000818987
0.000818979
0.000818972
0.000818965
0.000818959
0.000818953
0.000818948
0.000818943
0.000818939
0.000818934
0.00081893
0.000818926
0.000818921
0.000818917
0.000818913
0.000818908
0.000818904
0.0008189
0.000818895
0.00081889
0.000818886
0.000818881
0.000818876
0.00081887
0.000818865
0.000818858
0.000818849
0.000818837
0.000820674
0.000820422
0.00082022
0.000820059
0.000819931
0.000819828
0.000819745
0.000819678
0.000819623
0.000819579
0.000819543
0.000819514
0.00081949
0.000819471
0.000819456
0.000819444
0.000819435
0.000819428
0.000819423
0.00081942
0.000819418
0.000819417
0.000819417
0.000819419
0.00081942
0.000819423
0.000819426
0.000819429
0.000819433
0.000819437
0.000819441
0.000819445
0.000819449
0.000819454
0.000819458
0.000819462
0.000819466
0.000819469
0.000819473
0.000819476
0.00081948
0.000819483
0.000819486
0.000819488
0.000819491
0.000819494
0.000819496
0.000819498
0.0008195
0.000819502
0.000819502
0.000819501
0.000819496
0.000820218
0.000820006
0.000819842
0.000819716
0.00081962
0.000819548
0.000819493
0.000819453
0.000819423
0.000819402
0.000819388
0.000819379
0.000819374
0.000819373
0.000819375
0.000819378
0.000819384
0.00081939
0.000819397
0.000819406
0.000819414
0.000819424
0.000819433
0.000819443
0.000819452
0.000819462
0.000819472
0.000819482
0.000819491
0.0008195
0.000819509
0.000819518
0.000819527
0.000819535
0.000819542
0.00081955
0.000819557
0.000819563
0.000819569
0.000819575
0.000819581
0.000819586
0.00081959
0.000819595
0.000819599
0.000819603
0.000819607
0.00081961
0.000819613
0.000819616
0.000819618
0.000819618
0.000819615
0.000819409
0.000819234
0.000819103
0.000819007
0.000818939
0.000818892
0.000818861
0.000818842
0.000818832
0.000818829
0.000818831
0.000818838
0.000818847
0.000818858
0.00081887
0.000818883
0.000818897
0.000818911
0.000818924
0.000818938
0.000818951
0.000818964
0.000818976
0.000818988
0.000818998
0.000819009
0.000819018
0.000819027
0.000819035
0.000819042
0.000819049
0.000819055
0.00081906
0.000819064
0.000819067
0.00081907
0.000819071
0.000819072
0.000819073
0.000819072
0.000819071
0.00081907
0.000819067
0.000819065
0.000819061
0.000819057
0.000819053
0.000819048
0.000819043
0.000819037
0.000819029
0.000819021
0.000819008
0.000818224
0.000818081
0.000817979
0.000817909
0.000817864
0.000817837
0.000817824
0.000817822
0.000817826
0.000817836
0.000817849
0.000817864
0.000817881
0.000817898
0.000817915
0.000817932
0.000817947
0.000817962
0.000817976
0.000817988
0.000817999
0.000818008
0.000818016
0.000818023
0.000818028
0.000818031
0.000818033
0.000818034
0.000818033
0.000818031
0.000818027
0.000818022
0.000818016
0.000818008
0.000817999
0.000817988
0.000817977
0.000817964
0.00081795
0.000817934
0.000817918
0.000817901
0.000817882
0.000817863
0.000817842
0.000817821
0.000817799
0.000817776
0.000817752
0.000817727
0.000817701
0.000817673
0.000817641
0.000816623
0.00081651
0.000816432
0.000816383
0.000816356
0.000816345
0.000816345
0.000816353
0.000816367
0.000816383
0.000816401
0.00081642
0.000816438
0.000816456
0.000816471
0.000816485
0.000816497
0.000816506
0.000816513
0.000816518
0.000816519
0.000816519
0.000816516
0.00081651
0.000816502
0.000816491
0.000816478
0.000816463
0.000816446
0.000816426
0.000816404
0.00081638
0.000816354
0.000816326
0.000816296
0.000816265
0.000816231
0.000816195
0.000816158
0.000816119
0.000816078
0.000816035
0.000815991
0.000815946
0.000815899
0.00081585
0.0008158
0.000815749
0.000815696
0.000815642
0.000815586
0.000815527
0.000815465
0.000814558
0.00081447
0.000814413
0.00081438
0.000814367
0.000814366
0.000814375
0.000814388
0.000814405
0.000814423
0.000814441
0.000814457
0.000814471
0.000814482
0.00081449
0.000814495
0.000814496
0.000814493
0.000814486
0.000814476
0.000814462
0.000814444
0.000814422
0.000814397
0.000814368
0.000814336
0.0008143
0.000814261
0.000814219
0.000814174
0.000814126
0.000814075
0.000814021
0.000813964
0.000813904
0.000813842
0.000813777
0.000813709
0.000813639
0.000813566
0.000813491
0.000813414
0.000813334
0.000813252
0.000813168
0.000813082
0.000812993
0.000812903
0.00081281
0.000812715
0.000812617
0.000812517
0.000812412
0.000811967
0.000811901
0.000811861
0.000811841
0.000811836
0.000811842
0.000811853
0.000811867
0.000811881
0.000811895
0.000811906
0.000811913
0.000811916
0.000811915
0.000811909
0.000811898
0.000811881
0.000811859
0.000811832
0.000811799
0.000811761
0.000811718
0.00081167
0.000811617
0.00081156
0.000811498
0.000811431
0.00081136
0.000811285
0.000811205
0.000811121
0.000811034
0.000810943
0.000810847
0.000810748
0.000810646
0.00081054
0.00081043
0.000810317
0.0008102
0.00081008
0.000809957
0.000809831
0.000809701
0.000809569
0.000809433
0.000809294
0.000809153
0.000809008
0.00080886
0.000808708
0.000808553
0.000808393
0.00080878
0.000808731
0.000808704
0.000808692
0.000808692
0.000808697
0.000808706
0.000808714
0.000808721
0.000808723
0.000808721
0.000808713
0.000808699
0.000808679
0.000808651
0.000808616
0.000808574
0.000808525
0.00080847
0.000808407
0.000808337
0.000808261
0.000808178
0.000808089
0.000807994
0.000807893
0.000807786
0.000807673
0.000807555
0.000807432
0.000807303
0.000807169
0.00080703
0.000806886
0.000806737
0.000806584
0.000806425
0.000806262
0.000806095
0.000805923
0.000805747
0.000805566
0.000805381
0.000805191
0.000804997
0.0008048
0.000804597
0.000804391
0.00080418
0.000803965
0.000803746
0.000803521
0.000803291
0.000804908
0.000804873
0.000804854
0.000804846
0.000804844
0.000804844
0.000804844
0.000804841
0.000804832
0.000804818
0.000804795
0.000804765
0.000804726
0.000804678
0.000804621
0.000804555
0.00080448
0.000804396
0.000804303
0.000804201
0.00080409
0.000803971
0.000803845
0.00080371
0.000803567
0.000803417
0.00080326
0.000803096
0.000802924
0.000802746
0.000802561
0.00080237
0.000802172
0.000801967
0.000801757
0.00080154
0.000801318
0.000801089
0.000800855
0.000800614
0.000800368
0.000800116
0.000799859
0.000799595
0.000799326
0.000799052
0.000798772
0.000798486
0.000798194
0.000797897
0.000797593
0.000797283
0.000796966
0.000800248
0.000800222
0.000800205
0.000800194
0.000800185
0.000800174
0.000800158
0.000800136
0.000800106
0.000800066
0.000800016
0.000799955
0.000799883
0.000799799
0.000799704
0.000799598
0.00079948
0.000799351
0.000799211
0.00079906
0.000798899
0.000798728
0.000798546
0.000798355
0.000798154
0.000797944
0.000797725
0.000797497
0.000797261
0.000797016
0.000796762
0.000796501
0.000796231
0.000795954
0.000795669
0.000795375
0.000795075
0.000794767
0.000794451
0.000794128
0.000793797
0.000793459
0.000793114
0.000792761
0.000792401
0.000792033
0.000791659
0.000791276
0.000790887
0.000790489
0.000790084
0.000789671
0.000789248
0.000794672
0.000794649
0.000794629
0.000794608
0.000794585
0.000794555
0.000794517
0.000794468
0.000794407
0.000794334
0.000794247
0.000794146
0.000794032
0.000793903
0.00079376
0.000793603
0.000793432
0.000793248
0.00079305
0.000792839
0.000792616
0.00079238
0.000792132
0.000791872
0.000791601
0.000791319
0.000791025
0.000790721
0.000790406
0.000790081
0.000789745
0.0007894
0.000789044
0.000788679
0.000788304
0.000787919
0.000787525
0.000787122
0.000786709
0.000786287
0.000785855
0.000785414
0.000784964
0.000784504
0.000784035
0.000783557
0.000783069
0.000782571
0.000782064
0.000781548
0.000781021
0.000780484
0.000779935
0.000788028
0.000788
0.000787969
0.000787931
0.000787885
0.000787828
0.000787758
0.000787674
0.000787573
0.000787456
0.000787323
0.000787172
0.000787004
0.000786819
0.000786617
0.000786398
0.000786162
0.000785911
0.000785643
0.00078536
0.000785062
0.000784748
0.000784421
0.000784079
0.000783723
0.000783354
0.000782972
0.000782577
0.000782169
0.000781748
0.000781315
0.00078087
0.000780412
0.000779943
0.000779462
0.000778969
0.000778464
0.000777948
0.00077742
0.00077688
0.000776329
0.000775767
0.000775192
0.000774606
0.000774008
0.000773398
0.000772777
0.000772143
0.000771497
0.000770839
0.000770168
0.000769485
0.000768787
0.000780441
0.000780397
0.000780343
0.000780277
0.000780197
0.0007801
0.000779986
0.000779852
0.000779699
0.000779526
0.000779332
0.000779118
0.000778883
0.000778627
0.000778352
0.000778056
0.000777741
0.000777407
0.000777054
0.000776683
0.000776293
0.000775886
0.000775463
0.000775022
0.000774565
0.000774091
0.000773602
0.000773098
0.000772578
0.000772043
0.000771493
0.000770928
0.000770349
0.000769756
0.000769147
0.000768525
0.000767888
0.000767237
0.000766572
0.000765892
0.000765198
0.00076449
0.000763767
0.000763029
0.000762277
0.000761511
0.000760729
0.000759932
0.00075912
0.000758293
0.00075745
0.00075659
0.000755714
0.000771635
0.000771563
0.000771474
0.000771367
0.000771239
0.00077109
0.000770919
0.000770723
0.000770504
0.00077026
0.000769992
0.000769699
0.000769382
0.000769041
0.000768677
0.000768289
0.000767878
0.000767445
0.00076699
0.000766513
0.000766016
0.000765498
0.00076496
0.000764402
0.000763825
0.000763228
0.000762613
0.00076198
0.000761328
0.000760658
0.000759971
0.000759266
0.000758543
0.000757803
0.000757045
0.000756271
0.000755478
0.000754669
0.000753842
0.000752998
0.000752136
0.000751256
0.000750359
0.000749444
0.00074851
0.000747559
0.000746589
0.0007456
0.000744593
0.000743566
0.00074252
0.000741454
0.000740366
0.000760526
0.000760418
0.000760285
0.000760127
0.000759943
0.000759731
0.000759491
0.000759222
0.000758925
0.000758599
0.000758243
0.00075786
0.000757448
0.000757008
0.00075654
0.000756046
0.000755525
0.000754978
0.000754406
0.000753809
0.000753188
0.000752543
0.000751874
0.000751183
0.000750468
0.000749732
0.000748974
0.000748194
0.000747393
0.000746571
0.000745727
0.000744863
0.000743978
0.000743073
0.000742147
0.0007412
0.000740233
0.000739245
0.000738236
0.000737206
0.000736156
0.000735084
0.000733991
0.000732876
0.000731739
0.000730581
0.0007294
0.000728196
0.00072697
0.00072572
0.000724447
0.000723149
0.000721827
0.000746246
0.000746092
0.000745906
0.000745686
0.000745434
0.000745148
0.000744828
0.000744474
0.000744086
0.000743664
0.000743209
0.00074272
0.000742199
0.000741646
0.000741061
0.000740446
0.0007398
0.000739124
0.000738419
0.000737686
0.000736925
0.000736136
0.000735321
0.000734479
0.000733612
0.000732718
0.0007318
0.000730857
0.000729889
0.000728896
0.00072788
0.000726839
0.000725774
0.000724685
0.000723572
0.000722435
0.000721274
0.000720088
0.000718879
0.000717645
0.000716386
0.000715102
0.000713794
0.000712459
0.0007111
0.000709714
0.000708302
0.000706863
0.000705397
0.000703904
0.000702382
0.000700832
0.000699252
0.00072779
0.000727584
0.000727338
0.000727052
0.000726726
0.000726359
0.000725953
0.000725507
0.000725022
0.000724497
0.000723935
0.000723335
0.000722698
0.000722024
0.000721315
0.000720572
0.000719794
0.000718983
0.000718139
0.000717263
0.000716356
0.000715418
0.00071445
0.000713453
0.000712426
0.000711371
0.000710287
0.000709175
0.000708035
0.000706868
0.000705674
0.000704452
0.000703203
0.000701927
0.000700624
0.000699293
0.000697936
0.000696551
0.000695138
0.000693698
0.000692229
0.000690733
0.000689207
0.000687653
0.00068607
0.000684457
0.000682814
0.000681141
0.000679437
0.000677701
0.000675933
0.000674132
0.000672298
0.000703748
0.000703494
0.000703193
0.000702844
0.000702449
0.000702008
0.000701522
0.00070099
0.000700415
0.000699796
0.000699135
0.000698431
0.000697688
0.000696904
0.000696081
0.00069522
0.000694322
0.000693388
0.000692418
0.000691413
0.000690374
0.000689302
0.000688198
0.000687061
0.000685892
0.000684693
0.000683463
0.000682202
0.000680912
0.000679592
0.000678242
0.000676862
0.000675454
0.000674016
0.000672549
0.000671052
0.000669526
0.000667971
0.000666385
0.00066477
0.000663125
0.000661449
0.000659742
0.000658004
0.000656235
0.000654433
0.000652599
0.000650733
0.000648832
0.000646898
0.00064493
0.000642926
0.000640886
0.000671438
0.000671149
0.000670806
0.000670411
0.000669963
0.000669465
0.000668917
0.00066832
0.000667675
0.000666983
0.000666246
0.000665464
0.000664639
0.000663772
0.000662863
0.000661914
0.000660926
0.0006599
0.000658837
0.000657738
0.000656603
0.000655433
0.00065423
0.000652993
0.000651724
0.000650422
0.000649089
0.000647724
0.000646329
0.000644903
0.000643447
0.000641961
0.000640445
0.000638899
0.000637323
0.000635717
0.000634082
0.000632416
0.00063072
0.000628993
0.000627236
0.000625448
0.000623629
0.000621779
0.000619896
0.000617982
0.000616034
0.000614054
0.000612039
0.000609991
0.000607908
0.000605789
0.000603635
0.000626339
0.000626043
0.00062569
0.000625281
0.000624818
0.000624301
0.000623733
0.000623114
0.000622446
0.00062173
0.000620968
0.000620161
0.00061931
0.000618417
0.000617482
0.000616507
0.000615494
0.000614442
0.000613354
0.00061223
0.000611072
0.000609879
0.000608654
0.000607396
0.000606106
0.000604786
0.000603435
0.000602055
0.000600644
0.000599205
0.000597737