/*--------------------------------*- C++ -*----------------------------------*\
  =========                 |
  \\      /  F ield         | OpenFOAM: The Open Source CFD Toolbox
   \\    /   O peration     | Website:  https://openfoam.org
    \\  /    A nd           | Version:  6
     \\/     M anipulation  |
\*---------------------------------------------------------------------------*/
FoamFile
{
    version     2.0;
    format      ascii;
    class       volScalarField;
    location    "0.06";
    object      p;
}
// * * * * * * * * * * * * * * * * * * * * * * * * * * * * * * * * * * * * * //

dimensions      [0 2 -2 0 0 0 0];

internalField   nonuniform List<scalar> 
3081
(
0.200401
0.1998
0.19922
0.198661
0.198123
0.197604
0.197105
0.196625
0.196165
0.195722
0.195297
0.194892
0.194503
0.194128
0.193765
0.193416
0.193081
0.192758
0.192449
0.192152
0.191866
0.191592
0.191328
0.191073
0.190828
0.190591
0.190362
0.190141
0.189927
0.189719
0.189517
0.189321
0.189131
0.188945
0.188763
0.188585
0.188411
0.188241
0.188073
0.187908
0.187746
0.187586
0.187428
0.187271
0.187116
0.186962
0.186809
0.186657
0.186506
0.186355
0.186205
0.186055
0.185906
0.185757
0.185608
0.185459
0.185311
0.199975
0.199413
0.198868
0.19834
0.197831
0.197338
0.196863
0.196405
0.195964
0.195539
0.19513
0.194736
0.194356
0.193992
0.193643
0.193306
0.192981
0.192668
0.192368
0.192078
0.191799
0.19153
0.191271
0.191021
0.19078
0.190546
0.190321
0.190103
0.189891
0.189685
0.189486
0.189292
0.189103
0.188918
0.188738
0.188561
0.188388
0.188219
0.188052
0.187888
0.187726
0.187566
0.187409
0.187252
0.187097
0.186944
0.186791
0.186639
0.186488
0.186338
0.186188
0.186038
0.185889
0.18574
0.185592
0.185443
0.185295
0.199506
0.198985
0.198478
0.197985
0.197507
0.197043
0.196594
0.19616
0.195741
0.195336
0.194944
0.194567
0.194203
0.193852
0.193515
0.193189
0.192875
0.192572
0.19228
0.191998
0.191726
0.191463
0.19121
0.190965
0.190729
0.1905
0.190278
0.190063
0.189855
0.189652
0.189455
0.189263
0.189076
0.188893
0.188714
0.188539
0.188368
0.188199
0.188034
0.18787
0.187709
0.18755
0.187393
0.187237
0.187083
0.18693
0.186777
0.186626
0.186475
0.186325
0.186175
0.186026
0.185877
0.185728
0.185579
0.185431
0.185283
0.199059
0.198575
0.198103
0.197641
0.197192
0.196755
0.196331
0.19592
0.195521
0.195134
0.19476
0.194398
0.194049
0.193711
0.193385
0.19307
0.192766
0.192473
0.192189
0.191915
0.19165
0.191395
0.191147
0.190908
0.190676
0.190452
0.190234
0.190023
0.189818
0.189618
0.189424
0.189235
0.18905
0.188869
0.188692
0.188519
0.188349
0.188181
0.188017
0.187855
0.187695
0.187537
0.18738
0.187225
0.187071
0.186918
0.186767
0.186616
0.186465
0.186315
0.186166
0.186017
0.185868
0.185719
0.185571
0.185423
0.185274
0.198642
0.198192
0.197749
0.197316
0.196893
0.196481
0.196078
0.195687
0.195307
0.194938
0.19458
0.194233
0.193897
0.193572
0.193257
0.192953
0.192658
0.192374
0.192098
0.191832
0.191574
0.191325
0.191083
0.19085
0.190623
0.190403
0.19019
0.189982
0.18978
0.189584
0.189392
0.189205
0.189023
0.188844
0.188669
0.188498
0.188329
0.188163
0.188
0.187839
0.18768
0.187523
0.187367
0.187213
0.18706
0.186908
0.186756
0.186606
0.186456
0.186306
0.186157
0.186008
0.18586
0.185711
0.185563
0.185415
0.185267
0.198243
0.197822
0.197407
0.197
0.196601
0.196211
0.195829
0.195458
0.195095
0.194743
0.1944
0.194067
0.193744
0.193431
0.193127
0.192833
0.192548
0.192272
0.192005
0.191746
0.191496
0.191253
0.191017
0.190789
0.190567
0.190352
0.190143
0.189939
0.189741
0.189548
0.189359
0.189175
0.188995
0.188818
0.188645
0.188476
0.188309
0.188145
0.187983
0.187823
0.187665
0.187509
0.187354
0.187201
0.187049
0.186897
0.186746
0.186596
0.186447
0.186298
0.186149
0.186
0.185852
0.185704
0.185556
0.185408
0.18526
0.197459
0.197071
0.196688
0.196312
0.195942
0.195581
0.195227
0.194882
0.194546
0.194218
0.193899
0.193589
0.193287
0.192995
0.192711
0.192435
0.192168
0.191909
0.191658
0.191414
0.191178
0.190948
0.190726
0.190509
0.190298
0.190094
0.189894
0.189699
0.189509
0.189324
0.189143
0.188965
0.188791
0.18862
0.188453
0.188288
0.188125
0.187965
0.187807
0.18765
0.187495
0.187341
0.187189
0.187037
0.186886
0.186736
0.186587
0.186438
0.186289
0.186141
0.185993
0.185845
0.185697
0.18555
0.185402
0.185254
0.197102
0.196737
0.196378
0.196023
0.195674
0.195331
0.194995
0.194667
0.194346
0.194032
0.193727
0.193429
0.19314
0.192858
0.192585
0.192319
0.192061
0.19181
0.191566
0.19133
0.1911
0.190877
0.190659
0.190448
0.190242
0.190042
0.189847
0.189656
0.189469
0.189287
0.189109
0.188934
0.188763
0.188594
0.188429
0.188266
0.188105
0.187946
0.187789
0.187634
0.18748
0.187328
0.187176
0.187026
0.186876
0.186726
0.186578
0.186429
0.186281
0.186133
0.185986
0.185838
0.185691
0.185543
0.185396
0.185248
0.196405
0.196067
0.195733
0.195403
0.195079
0.19476
0.194448
0.194142
0.193843
0.193551
0.193266
0.192988
0.192718
0.192454
0.192198
0.191949
0.191706
0.191471
0.191241
0.191018
0.190801
0.19059
0.190384
0.190184
0.189988
0.189797
0.18961
0.189427
0.189249
0.189073
0.188902
0.188733
0.188567
0.188403
0.188242
0.188084
0.187927
0.187771
0.187618
0.187465
0.187314
0.187163
0.187014
0.186865
0.186716
0.186568
0.18642
0.186273
0.186126
0.185978
0.185831
0.185684
0.185537
0.18539
0.185243
0.196072
0.195755
0.195441
0.19513
0.194824
0.194522
0.194225
0.193935
0.19365
0.193371
0.193098
0.192832
0.192573
0.19232
0.192073
0.191833
0.191599
0.191372
0.19115
0.190934
0.190723
0.190518
0.190318
0.190122
0.189931
0.189745
0.189562
0.189383
0.189208
0.189036
0.188867
0.188701
0.188538
0.188377
0.188218
0.188061
0.187906
0.187753
0.1876
0.187449
0.187299
0.18715
0.187001
0.186853
0.186706
0.186558
0.186411
0.186264
0.186118
0.185971
0.185824
0.185678
0.185531
0.185384
0.185237
0.195738
0.195441
0.195146
0.194854
0.194565
0.194279
0.193999
0.193723
0.193452
0.193186
0.192926
0.192672
0.192424
0.192181
0.191944
0.191713
0.191488
0.191269
0.191054
0.190845
0.190642
0.190442
0.190248
0.190058
0.189872
0.18969
0.189512
0.189337
0.189165
0.188997
0.188831
0.188668
0.188508
0.188349
0.188193
0.188038
0.187885
0.187733
0.187582
0.187433
0.187284
0.187136
0.186988
0.186841
0.186695
0.186548
0.186402
0.186256
0.18611
0.185964
0.185818
0.185671
0.185525
0.185379
0.185232
0.195401
0.195124
0.194848
0.194573
0.194301
0.194033
0.193767
0.193506
0.193249
0.192997
0.19275
0.192507
0.19227
0.192038
0.191811
0.19159
0.191373
0.191162
0.190956
0.190754
0.190557
0.190364
0.190175
0.189991
0.18981
0.189633
0.189459
0.189289
0.189121
0.188956
0.188794
0.188634
0.188476
0.18832
0.188166
0.188014
0.187862
0.187712
0.187564
0.187415
0.187268
0.187121
0.186975
0.186829
0.186684
0.186538
0.186393
0.186247
0.186102
0.185956
0.185811
0.185665
0.185519
0.185373
0.185226
0.18508
0.195061
0.194803
0.194546
0.194289
0.194034
0.193781
0.193532
0.193285
0.193042
0.192803
0.192568
0.192338
0.192112
0.191891
0.191674
0.191462
0.191255
0.191052
0.190853
0.190659
0.190469
0.190283
0.1901
0.189921
0.189746
0.189574
0.189405
0.189238
0.189075
0.188914
0.188755
0.188598
0.188443
0.18829
0.188138
0.187988
0.187839
0.187691
0.187544
0.187398
0.187252
0.187106
0.186961
0.186817
0.186672
0.186528
0.186383
0.186238
0.186094
0.185949
0.185804
0.185659
0.185513
0.185367
0.185221
0.185075
0.194479
0.194239
0.194
0.193762
0.193526
0.193291
0.193059
0.19283
0.192605
0.192383
0.192164
0.19195
0.191739
0.191533
0.191331
0.191132
0.190938
0.190748
0.190561
0.190378
0.190198
0.190022
0.189849
0.189679
0.189512
0.189348
0.189186
0.189027
0.188869
0.188714
0.188561
0.188409
0.188258
0.188109
0.187962
0.187815
0.187669
0.187524
0.187379
0.187235
0.187091
0.186947
0.186804
0.18666
0.186517
0.186373
0.186229
0.186085
0.185941
0.185797
0.185652
0.185507
0.185362
0.185216
0.18507
0.19415
0.193929
0.193707
0.193486
0.193265
0.193046
0.192829
0.192614
0.192402
0.192193
0.191986
0.191784
0.191584
0.191388
0.191195
0.191006
0.190821
0.190639
0.19046
0.190284
0.190111
0.189942
0.189775
0.18961
0.189449
0.189289
0.189132
0.188977
0.188823
0.188672
0.188522
0.188373
0.188226
0.18808
0.187934
0.18779
0.187646
0.187503
0.18736
0.187217
0.187075
0.186933
0.18679
0.186648
0.186505
0.186363
0.18622
0.186077
0.185934
0.18579
0.185646
0.185501
0.185356
0.185211
0.185064
0.193809
0.193607
0.193403
0.193198
0.192994
0.192791
0.192589
0.192389
0.19219
0.191994
0.191801
0.19161
0.191422
0.191236
0.191054
0.190875
0.190698
0.190525
0.190354
0.190186
0.19002
0.189857
0.189696
0.189538
0.189382
0.189227
0.189075
0.188924
0.188775
0.188627
0.188481
0.188336
0.188191
0.188048
0.187905
0.187763
0.187622
0.187481
0.18734
0.187199
0.187058
0.186917
0.186776
0.186635
0.186494
0.186352
0.18621
0.186068
0.185925
0.185782
0.185639
0.185495
0.18535
0.185205
0.185059
0.193469
0.193285
0.193098
0.192911
0.192723
0.192535
0.192348
0.192162
0.191978
0.191795
0.191614
0.191434
0.191258
0.191083
0.190911
0.190741
0.190574
0.190409
0.190246
0.190086
0.189928
0.189771
0.189617
0.189465
0.189314
0.189165
0.189017
0.188871
0.188726
0.188582
0.188439
0.188298
0.188156
0.188016
0.187876
0.187736
0.187597
0.187458
0.187319
0.18718
0.187041
0.186901
0.186762
0.186622
0.186482
0.186341
0.1862
0.186059
0.185917
0.185775
0.185632
0.185489
0.185344
0.1852
0.185054
0.192981
0.192811
0.192639
0.192466
0.192293
0.19212
0.191947
0.191776
0.191605
0.191435
0.191267
0.191101
0.190937
0.190774
0.190614
0.190455
0.190298
0.190143
0.18999
0.189838
0.189689
0.18954
0.189394
0.189248
0.189104
0.188961
0.188819
0.188678
0.188538
0.188399
0.18826
0.188122
0.187985
0.187847
0.18771
0.187573
0.187436
0.187299
0.187161
0.187024
0.186886
0.186748
0.186609
0.18647
0.186331
0.186191
0.18605
0.185909
0.185767
0.185625
0.185482
0.185339
0.185194
0.185049
0.19254
0.192383
0.192224
0.192064
0.191904
0.191744
0.191584
0.191424
0.191266
0.191108
0.190952
0.190797
0.190644
0.190492
0.190341
0.190192
0.190044
0.189898
0.189753
0.189609
0.189466
0.189325
0.189185
0.189045
0.188907
0.188769
0.188632
0.188496
0.18836
0.188224
0.188089
0.187954
0.187819
0.187684
0.187549
0.187414
0.187279
0.187143
0.187007
0.186871
0.186734
0.186597
0.186459
0.18632
0.186181
0.186041
0.185901
0.18576
0.185619
0.185476
0.185333
0.185189
0.185044
0.192284
0.19214
0.191994
0.191847
0.191698
0.19155
0.191401
0.191252
0.191104
0.190957
0.19081
0.190664
0.190519
0.190375
0.190232
0.19009
0.189949
0.189809
0.18967
0.189532
0.189395
0.189259
0.189124
0.188989
0.188854
0.188721
0.188587
0.188454
0.188322
0.188189
0.188057
0.187924
0.187792
0.187659
0.187526
0.187393
0.187259
0.187125
0.186991
0.186856
0.18672
0.186584
0.186447
0.18631
0.186172
0.186033
0.185893
0.185753
0.185612
0.18547
0.185328
0.185184
0.185039
0.192041
0.19191
0.191776
0.19164
0.191504
0.191366
0.191228
0.191089
0.19095
0.190812
0.190674
0.190536
0.190399
0.190263
0.190127
0.189992
0.189858
0.189724
0.189591
0.189459
0.189327
0.189195
0.189064
0.188934
0.188804
0.188674
0.188544
0.188414
0.188285
0.188155
0.188025
0.187895
0.187765
0.187634
0.187504
0.187372
0.18724
0.187108
0.186975
0.186841
0.186707
0.186572
0.186436
0.1863
0.186162
0.186025
0.185886
0.185746
0.185606
0.185464
0.185322
0.185179
0.185035
0.191811
0.191692
0.191569
0.191445
0.191318
0.191191
0.191062
0.190933
0.190804
0.190674
0.190544
0.190414
0.190285
0.190156
0.190027
0.189899
0.18977
0.189643
0.189515
0.189388
0.189261
0.189134
0.189007
0.188881
0.188755
0.188628
0.188502
0.188375
0.188249
0.188122
0.187995
0.187867
0.187739
0.187611
0.187482
0.187352
0.187222
0.187091
0.186959
0.186827
0.186694
0.18656
0.186425
0.18629
0.186153
0.186016
0.185878
0.185739
0.185599
0.185459
0.185317
0.185174
0.18503
0.191594
0.191485
0.191373
0.191258
0.191142
0.191024
0.190905
0.190785
0.190664
0.190542
0.19042
0.190298
0.190176
0.190053
0.189931
0.189809
0.189686
0.189564
0.189442
0.189319
0.189197
0.189075
0.188952
0.18883
0.188707
0.188584
0.188461
0.188338
0.188214
0.188089
0.187965
0.187839
0.187714
0.187587
0.18746
0.187332
0.187204
0.187074
0.186944
0.186813
0.186681
0.186548
0.186414
0.18628
0.186144
0.186008
0.185871
0.185733
0.185593
0.185453
0.185312
0.185169
0.185026
0.191387
0.191288
0.191186
0.191081
0.190974
0.190865
0.190755
0.190643
0.19053
0.190416
0.190301
0.190186
0.190071
0.189955
0.189839
0.189722
0.189605
0.189488
0.189371
0.189254
0.189136
0.189018
0.188899
0.18878
0.188661
0.188542
0.188422
0.188301
0.18818
0.188058
0.187936
0.187813
0.187689
0.187564
0.187439
0.187313
0.187186
0.187058
0.186929
0.186799
0.186668
0.186537
0.186404
0.18627
0.186136
0.186
0.185863
0.185726
0.185587
0.185447
0.185307
0.185165
0.185021
0.19119
0.191101
0.191008
0.190912
0.190814
0.190714
0.190611
0.190507
0.190402
0.190295
0.190188
0.190079
0.18997
0.18986
0.18975
0.189639
0.189528
0.189416
0.189303
0.18919
0.189077
0.188963
0.188848
0.188733
0.188617
0.1885
0.188383
0.188265
0.188147
0.188028
0.187908
0.187787
0.187665
0.187542
0.187418
0.187294
0.187168
0.187042
0.186914
0.186785
0.186656
0.186525
0.186394
0.186261
0.186127
0.185992
0.185856
0.185719
0.185581
0.185442
0.185302
0.18516
0.185017
0.191003
0.190923
0.190839
0.190752
0.190662
0.190569
0.190474
0.190378
0.190279
0.19018
0.190079
0.189977
0.189874
0.18977
0.189665
0.189559
0.189453
0.189346
0.189238
0.189129
0.18902
0.188909
0.188798
0.188686
0.188574
0.18846
0.188346
0.188231
0.188115
0.187998
0.18788
0.187761
0.187641
0.18752
0.187398
0.187275
0.187151
0.187026
0.1869
0.186772
0.186644
0.186514
0.186383
0.186252
0.186119
0.185984
0.185849
0.185713
0.185575
0.185437
0.185297
0.185156
0.185013
0.190825
0.190753
0.190677
0.190598
0.190516
0.190431
0.190343
0.190253
0.190162
0.190069
0.189974
0.189878
0.189781
0.189683
0.189583
0.189482
0.189381
0.189278
0.189174
0.18907
0.188964
0.188858
0.18875
0.188642
0.188532
0.188422
0.18831
0.188197
0.188084
0.187969
0.187853
0.187736
0.187618
0.187499
0.187379
0.187257
0.187135
0.187011
0.186886
0.186759
0.186632
0.186503
0.186373
0.186242
0.18611
0.185977
0.185842
0.185707
0.18557
0.185431
0.185292
0.185151
0.185009
0.190643
0.19058
0.190512
0.190441
0.190366
0.190289
0.190208
0.190126
0.190041
0.189955
0.189866
0.189776
0.189685
0.189592
0.189498
0.189402
0.189306
0.189208
0.189108
0.189008
0.188906
0.188804
0.1887
0.188594
0.188488
0.188381
0.188272
0.188162
0.188051
0.187938
0.187825
0.18771
0.187594
0.187477
0.187358
0.187238
0.187117
0.186994
0.18687
0.186745
0.186619
0.186491
0.186363
0.186233
0.186101
0.185969
0.185835
0.1857
0.185563
0.185426
0.185287
0.185146
0.185005
0.190453
0.190398
0.190338
0.190275
0.190209
0.190139
0.190066
0.189991
0.189913
0.189834
0.189752
0.189669
0.189583
0.189496
0.189408
0.189318
0.189226
0.189133
0.189038
0.188942
0.188845
0.188746
0.188646
0.188544
0.188441
0.188337
0.188231
0.188124
0.188016
0.187906
0.187794
0.187682
0.187568
0.187452
0.187335
0.187217
0.187098
0.186977
0.186854
0.18673
0.186605
0.186479
0.186351
0.186222
0.186092
0.18596
0.185827
0.185692
0.185557
0.18542
0.185281
0.185141
0.185
0.190257
0.190211
0.19016
0.190106
0.190047
0.189986
0.189921
0.189853
0.189783
0.18971
0.189636
0.189559
0.18948
0.189399
0.189316
0.189231
0.189145
0.189057
0.188967
0.188875
0.188782
0.188687
0.188591
0.188493
0.188394
0.188293
0.18819
0.188086
0.18798
0.187873
0.187764
0.187653
0.187541
0.187428
0.187313
0.187196
0.187078
0.186959
0.186838
0.186715
0.186591
0.186466
0.186339
0.186211
0.186082
0.185951
0.185819
0.185685
0.18555
0.185413
0.185276
0.185136
0.184995
0.190057
0.19002
0.189979
0.189933
0.189883
0.189829
0.189773
0.189713
0.18965
0.189585
0.189517
0.189447
0.189374
0.189299
0.189222
0.189143
0.189062
0.188979
0.188894
0.188807
0.188719
0.188628
0.188536
0.188441
0.188345
0.188248
0.188148
0.188047
0.187944
0.187839
0.187733
0.187624
0.187515
0.187403
0.18729
0.187175
0.187059
0.186941
0.186821
0.1867
0.186577
0.186453
0.186328
0.186201
0.186072
0.185942
0.18581
0.185677
0.185543
0.185407
0.18527
0.185131
0.184991
0.189852
0.189825
0.189793
0.189756
0.189715
0.18967
0.189622
0.18957
0.189515
0.189457
0.189396
0.189333
0.189267
0.189198
0.189127
0.189054
0.188978
0.188901
0.188821
0.188739
0.188654
0.188568
0.18848
0.188389
0.188297
0.188202
0.188106
0.188008
0.187907
0.187805
0.187701
0.187595
0.187488
0.187378
0.187267
0.187154
0.187039
0.186923
0.186805
0.186685
0.186563
0.18644
0.186316
0.18619
0.186062
0.185933
0.185802
0.18567
0.185536
0.185401
0.185264
0.185126
0.184986
0.189643
0.189626
0.189603
0.189576
0.189544
0.189507
0.189467
0.189424
0.189377
0.189326
0.189273
0.189217
0.189157
0.189095
0.189031
0.188963
0.188893
0.188821
0.188746
0.188669
0.188589
0.188507
0.188423
0.188336
0.188247
0.188156
0.188063
0.187968
0.18787
0.187771
0.18767
0.187566
0.187461
0.187353
0.187244
0.187133
0.18702
0.186905
0.186788
0.18667
0.186549
0.186428
0.186304
0.186179
0.186052
0.185924
0.185794
0.185663
0.18553
0.185395
0.185259
0.185121
0.184982
0.189429
0.189422
0.189409
0.189391
0.189369
0.189342
0.189311
0.189275
0.189236
0.189194
0.189148
0.189099
0.189047
0.188991
0.188933
0.188871
0.188807
0.18874
0.18867
0.188598
0.188523
0.188445
0.188365
0.188283
0.188197
0.18811
0.18802
0.187928
0.187833
0.187737
0.187638
0.187537
0.187433
0.187328
0.187221
0.187111
0.187
0.186887
0.186771
0.186654
0.186535
0.186415
0.186292
0.186168
0.186042
0.185915
0.185786
0.185655
0.185523
0.185389
0.185253
0.185116
0.184977
0.189211
0.189214
0.189212
0.189204
0.189191
0.189173
0.189151
0.189124
0.189094
0.189059
0.189021
0.188979
0.188934
0.188885
0.188833
0.188778
0.18872
0.188658
0.188594
0.188527
0.188456
0.188383
0.188307
0.188229
0.188147
0.188063
0.187977
0.187888
0.187796
0.187702
0.187606
0.187507
0.187406
0.187303
0.187197
0.18709
0.18698
0.186868
0.186755
0.186639
0.186521
0.186402
0.186281
0.186157
0.186033
0.185906
0.185778
0.185648
0.185516
0.185383
0.185248
0.185111
0.184973
0.188988
0.189002
0.18901
0.189012
0.189009
0.189001
0.188988
0.18897
0.188949
0.188922
0.188892
0.188858
0.18882
0.188778
0.188733
0.188684
0.188632
0.188576
0.188517
0.188454
0.188389
0.18832
0.188249
0.188174
0.188097
0.188016
0.187933
0.187847
0.187759
0.187667
0.187574
0.187477
0.187379
0.187278
0.187174
0.187068
0.18696
0.18685
0.186738
0.186624
0.186507
0.186389
0.186269
0.186147
0.186023
0.185897
0.18577
0.18564
0.18551
0.185377
0.185243
0.185107
0.184969
0.188759
0.188785
0.188804
0.188817
0.188824
0.188826
0.188823
0.188814
0.188801
0.188784
0.188762
0.188735
0.188705
0.18867
0.188631
0.188589
0.188542
0.188492
0.188439
0.188382
0.188321
0.188257
0.18819
0.18812
0.188046
0.187969
0.187889
0.187807
0.187721
0.187633
0.187542
0.187448
0.187351
0.187252
0.187151
0.187047
0.186941
0.186832
0.186721
0.186609
0.186493
0.186376
0.186257
0.186136
0.186013
0.185888
0.185762
0.185633
0.185503
0.185371
0.185237
0.185102
0.184965
0.188527
0.188564
0.188594
0.188618
0.188636
0.188648
0.188655
0.188656
0.188652
0.188643
0.188629
0.188611
0.188588
0.18856
0.188529
0.188493
0.188453
0.188409
0.188361
0.188309
0.188253
0.188194
0.188131
0.188065
0.187995
0.187922
0.187846
0.187766
0.187684
0.187598
0.18751
0.187418
0.187324
0.187227
0.187128
0.187026
0.186921
0.186814
0.186705
0.186594
0.18648
0.186364
0.186246
0.186126
0.186004
0.18588
0.185754
0.185626
0.185497
0.185365
0.185232
0.185097
0.184961
0.188299
0.188348
0.188389
0.188424
0.188452
0.188474
0.188491
0.188501
0.188506
0.188506
0.1885
0.18849
0.188474
0.188454
0.188429
0.188399
0.188365
0.188327
0.188284
0.188238
0.188187
0.188132
0.188074
0.188012
0.187946
0.187876
0.187803
0.187727
0.187648
0.187565
0.187479
0.18739
0.187298
0.187203
0.187106
0.187005
0.186903
0.186797
0.186689
0.186579
0.186467
0.186352
0.186235
0.186116
0.185995
0.185872
0.185746
0.185619
0.185491
0.18536
0.185227
0.185093
0.184957
0.18807
0.18813
0.188183
0.188229
0.188268
0.1883
0.188326
0.188346
0.18836
0.188369
0.188371
0.188369
0.188361
0.188347
0.188329
0.188306
0.188278
0.188246
0.188209
0.188167
0.188122
0.188072
0.188017
0.187959
0.187897
0.187831
0.187762
0.187689
0.187612
0.187532
0.187448
0.187362
0.187272
0.18718
0.187084
0.186985
0.186884
0.18678
0.186674
0.186565
0.186454
0.18634
0.186224
0.186106
0.185986
0.185864
0.185739
0.185613
0.185485
0.185355
0.185223
0.185089
0.184954
0.18782
0.187894
0.187959
0.188018
0.188068
0.188112
0.188149
0.18818
0.188204
0.188222
0.188234
0.18824
0.18824
0.188235
0.188224
0.188208
0.188187
0.18816
0.188129
0.188093
0.188053
0.188008
0.187958
0.187905
0.187847
0.187785
0.187719
0.187649
0.187575
0.187498
0.187417
0.187333
0.187246
0.187155
0.187062
0.186965
0.186866
0.186764
0.186659
0.186551
0.186441
0.186329
0.186214
0.186097
0.185977
0.185856
0.185732
0.185607
0.185479
0.18535
0.185218
0.185085
0.184951
0.187547
0.187636
0.187716
0.187788
0.187852
0.187909
0.187958
0.188
0.188036
0.188064
0.188086
0.188102
0.188111
0.188114
0.188112
0.188103
0.188089
0.18807
0.188045
0.188016
0.187981
0.187941
0.187897
0.187847
0.187794
0.187736
0.187674
0.187607
0.187537
0.187463
0.187385
0.187304
0.187219
0.187131
0.187039
0.186945
0.186847
0.186746
0.186643
0.186537
0.186428
0.186317
0.186203
0.186087
0.185969
0.185848
0.185725
0.185601
0.185474
0.185345
0.185214
0.185082
0.184948
0.187252
0.187358
0.187454
0.187542
0.187621
0.187692
0.187755
0.18781
0.187857
0.187898
0.187931
0.187957
0.187976
0.187988
0.187995
0.187995
0.187988
0.187976
0.187959
0.187935
0.187907
0.187873
0.187834
0.187789
0.18774
0.187687
0.187629
0.187566
0.187499
0.187428
0.187353
0.187275
0.187193
0.187107
0.187017
0.186925
0.186829
0.18673
0.186628
0.186523
0.186416
0.186306
0.186193
0.186078
0.185961
0.185841
0.185719
0.185595
0.185469
0.185341
0.185211
0.185079
0.184945
0.186936
0.187061
0.187175
0.18728
0.187376
0.187463
0.18754
0.18761
0.187671
0.187724
0.187769
0.187806
0.187836
0.187859
0.187874
0.187883
0.187885
0.187881
0.187871
0.187854
0.187832
0.187804
0.18777
0.187731
0.187687
0.187638
0.187584
0.187525
0.187462
0.187394
0.187323
0.187247
0.187167
0.187083
0.186996
0.186906
0.186812
0.186714
0.186614
0.186511
0.186405
0.186296
0.186184
0.18607
0.185954
0.185835
0.185714
0.18559
0.185465
0.185337
0.185208
0.185076
0.184943
0.186595
0.186741
0.186876
0.187
0.187115
0.187219
0.187313
0.187398
0.187474
0.187541
0.187599
0.187649
0.18769
0.187724
0.18775
0.187768
0.187779
0.187784
0.187781
0.187772
0.187756
0.187734
0.187707
0.187673
0.187634
0.18759
0.18754
0.187485
0.187425
0.187361
0.187293
0.18722
0.187142
0.187061
0.186976
0.186888
0.186796
0.1867
0.186601
0.186499
0.186395
0.186287
0.186176
0.186063
0.185948
0.18583
0.185709
0.185586
0.185461
0.185335
0.185206
0.185075
0.184942
0.186225
0.186395
0.186553
0.1867
0.186835
0.186959
0.187072
0.187174
0.187266
0.187349
0.187421
0.187484
0.187539
0.187584
0.187621
0.18765
0.187671
0.187684
0.187689
0.187688
0.18768
0.187665
0.187643
0.187615
0.187581
0.187542
0.187496
0.187446
0.18739
0.187329
0.187264
0.187194
0.187119
0.18704
0.186958
0.186871
0.186781
0.186687
0.18659
0.186489
0.186386
0.186279
0.18617
0.186057
0.185942
0.185825
0.185705
0.185583
0.185459
0.185332
0.185204
0.185073
0.184941
0.185891
0.186085
0.186265
0.186432
0.186586
0.186728
0.186859
0.186977
0.187084
0.187181
0.187266
0.187342
0.187407
0.187463
0.18751
0.187548
0.187578
0.187599
0.187612
0.187617
0.187615
0.187606
0.18759
0.187567
0.187537
0.187502
0.18746
0.187413
0.187361
0.187303
0.18724
0.187172
0.1871
0.187023
0.186942
0.186857
0.186769
0.186676
0.18658
0.186481
0.186378
0.186272
0.186164
0.186052
0.185938
0.185821
0.185702
0.18558
0.185457
0.18533
0.185202
0.185072
0.18494
0.185637
0.185848
0.186046
0.186229
0.186398
0.186554
0.186698
0.186829
0.186947
0.187055
0.18715
0.187235
0.18731
0.187374
0.187428
0.187473
0.187509
0.187536
0.187555
0.187565
0.187568
0.187563
0.187551
0.187532
0.187506
0.187473
0.187435
0.18739
0.18734
0.187284
0.187223
0.187157
0.187087
0.187011
0.186932
0.186848
0.18676
0.186669
0.186574
0.186475
0.186373
0.186268
0.18616
0.186049
0.185936
0.185819
0.1857
0.185579
0.185455
0.18533
0.185202
0.185072
0.18494
0.185423
0.185651
0.185863
0.18606
0.186243
0.186411
0.186566
0.186707
0.186836
0.186952
0.187057
0.187149
0.187231
0.187302
0.187363
0.187414
0.187455
0.187487
0.18751
0.187525
0.187531
0.18753
0.187521
0.187505
0.187482
0.187452
0.187415
0.187373
0.187325
0.187271
0.187211
0.187147
0.187077
0.187003
0.186925
0.186842
0.186755
0.186664
0.18657
0.186472
0.18637
0.186266
0.186158
0.186048
0.185934
0.185818
0.185699
0.185578
0.185455
0.185329
0.185201
0.185072
0.18494
0.184806
0.185243
0.185485
0.18571
0.185919
0.186113
0.186292
0.186456
0.186607
0.186744
0.186868
0.18698
0.187079
0.187167
0.187244
0.18731
0.187366
0.187412
0.187448
0.187475
0.187493
0.187503
0.187504
0.187498
0.187484
0.187463
0.187435
0.187401
0.18736
0.187313
0.187261
0.187202
0.187139
0.187071
0.186997
0.18692
0.186837
0.186751
0.186661
0.186567
0.18647
0.186369
0.186264
0.186157
0.186047
0.185934
0.185818
0.185699
0.185578
0.185455
0.185329
0.185202
0.185072
0.18494
0.184807
0.18509
0.185344
0.18558
0.1858
0.186004
0.186192
0.186365
0.186523
0.186668
0.186799
0.186917
0.187022
0.187116
0.187197
0.187268
0.187328
0.187377
0.187417
0.187447
0.187468
0.18748
0.187484
0.18748
0.187469
0.187449
0.187423
0.18739
0.187351
0.187305
0.187253
0.187196
0.187134
0.187066
0.186994
0.186916
0.186835
0.186749
0.186659
0.186566
0.186468
0.186368
0.186264
0.186157
0.186046
0.185933
0.185818
0.185699
0.185578
0.185455
0.18533
0.185202
0.185072
0.18494
0.184807
0.184958
0.185223
0.18547
0.185699
0.185911
0.186108
0.186288
0.186454
0.186605
0.186741
0.186865
0.186975
0.187073
0.187159
0.187234
0.187297
0.18735
0.187392
0.187425
0.187449
0.187463
0.187469
0.187467
0.187457
0.187439
0.187414
0.187382
0.187344
0.187299
0.187249
0.187192
0.18713
0.187063
0.186991
0.186915
0.186833
0.186748
0.186658
0.186565
0.186468
0.186368
0.186264
0.186157
0.186047
0.185934
0.185818
0.1857
0.185579
0.185456
0.18533
0.185202
0.185073
0.184941
0.184807
0.184844
0.185119
0.185374
0.185612
0.185832
0.186036
0.186223
0.186395
0.186551
0.186693
0.186822
0.186936
0.187038
0.187128
0.187206
0.187272
0.187328
0.187373
0.187408
0.187433
0.18745
0.187458
0.187457
0.187448
0.187432
0.187408
0.187377
0.187339
0.187295
0.187245
0.187189
0.187128
0.187062
0.18699
0.186914
0.186833
0.186748
0.186658
0.186565
0.186468
0.186368
0.186264
0.186157
0.186047
0.185934
0.185819
0.1857
0.18558
0.185456
0.185331
0.185203
0.185073
0.184941
0.184808
0.184744
0.185028
0.185292
0.185537
0.185764
0.185974
0.186167
0.186344
0.186506
0.186653
0.186785
0.186904
0.187009
0.187102
0.187183
0.187252
0.18731
0.187357
0.187394
0.187421
0.18744
0.187449
0.187449
0.187442
0.187426
0.187403
0.187373
0.187336
0.187293
0.187243
0.187188
0.187127
0.187061
0.186989
0.186913
0.186833
0.186748
0.186658
0.186565
0.186469
0.186368
0.186265
0.186158
0.186048
0.185935
0.185819
0.185701
0.18558
0.185457
0.185331
0.185203
0.185073
0.184941
0.184808
0.184657
0.184948
0.18522
0.185472
0.185706
0.185921
0.18612
0.186302
0.186468
0.186619
0.186755
0.186877
0.186986
0.187081
0.187164
0.187236
0.187296
0.187345
0.187384
0.187413
0.187432
0.187442
0.187444
0.187437
0.187422
0.1874
0.187371
0.187334
0.187292
0.187242
0.187187
0.187127
0.187061
0.18699
0.186914
0.186833
0.186748
0.186659
0.186566
0.18647
0.186369
0.186266
0.186159
0.186049
0.185936
0.18582
0.185702
0.185581
0.185457
0.185332
0.185204
0.185074
0.184942
0.184808
0.184589
0.184887
0.185165
0.185423
0.185662
0.185882
0.186085
0.186271
0.186441
0.186595
0.186734
0.186859
0.18697
0.187068
0.187153
0.187226
0.187288
0.187339
0.187379
0.187409
0.187429
0.18744
0.187443
0.187437
0.187422
0.187401
0.187372
0.187336
0.187293
0.187245
0.18719
0.187129
0.187063
0.186993
0.186917
0.186836
0.186751
0.186662
0.18657
0.186473
0.186373
0.186269
0.186162
0.186052
0.185939
0.185823
0.185705
0.185584
0.18546
0.185334
0.185206
0.185076
0.184944
0.18481
0.184551
0.184854
0.185135
0.185397
0.185639
0.185862
0.186068
0.186256
0.186428
0.186584
0.186725
0.186852
0.186964
0.187063
0.18715
0.187224
0.187287
0.187338
0.187379
0.18741
0.187431
0.187442
0.187445
0.187439
0.187426
0.187404
0.187376
0.18734
0.187298
0.187249
0.187194
0.187134
0.187068
0.186997
0.186921
0.186841
0.186756
0.186667
0.186574
0.186478
0.186377
0.186274
0.186167
0.186057
0.185944
0.185828
0.185709
0.185588
0.185465
0.185339
0.185211
0.185081
0.184948
0.184814
)
;

boundaryField
{
    inlet
    {
        type            zeroGradient;
    }
    outlet
    {
        type            fixedValue;
        value           nonuniform 0();
    }
    upperWall
    {
        type            zeroGradient;
    }
    lowerWall
    {
        type            zeroGradient;
    }
    frontAndBack
    {
        type            empty;
    }
    procBoundary1to0
    {
        type            processor;
        value           nonuniform List<scalar> 
59
(
0.185162
0.185146
0.185134
0.185126
0.185119
0.185113
0.185107
0.185101
0.185095
0.18509
0.185085
0.185085
0.184933
0.184928
0.184923
0.184918
0.184913
0.184908
0.184903
0.184898
0.184894
0.184889
0.184885
0.184881
0.184877
0.184873
0.184869
0.184865
0.184861
0.184857
0.184853
0.184849
0.184845
0.184841
0.184837
0.184833
0.18483
0.184826
0.184823
0.18482
0.184817
0.184814
0.184812
0.18481
0.184808
0.184807
0.184807
0.184806
0.184806
0.184806
0.184671
0.184671
0.184672
0.184672
0.184672
0.184672
0.184672
0.184675
0.184679
)
;
    }
    procBoundary1to3
    {
        type            processor;
        value           nonuniform List<scalar> 
62
(
0.201022
0.200555
0.200041
0.199553
0.199101
0.198669
0.197853
0.197853
0.197469
0.196746
0.196746
0.196392
0.196036
0.195678
0.195318
0.194718
0.194718
0.19437
0.19401
0.193651
0.193149
0.193149
0.192695
0.192695
0.192425
0.19217
0.191928
0.191699
0.191482
0.191275
0.191079
0.190892
0.190702
0.190503
0.190298
0.190088
0.189874
0.189655
0.189431
0.189201
0.188967
0.188727
0.188482
0.188243
0.188001
0.187738
0.18745
0.187137
0.186801
0.186438
0.186042
0.185684
0.18541
0.18518
0.184985
0.184818
0.184675
0.18455
0.18444
0.184344
0.184269
0.184227
)
;
    }
}


// ************************************************************************* //
