/*--------------------------------*- C++ -*----------------------------------*\
  =========                 |
  \\      /  F ield         | OpenFOAM: The Open Source CFD Toolbox
   \\    /   O peration     | Website:  https://openfoam.org
    \\  /    A nd           | Version:  6
     \\/     M anipulation  |
\*---------------------------------------------------------------------------*/
FoamFile
{
    version     2.0;
    format      ascii;
    class       surfaceScalarField;
    location    "0.06";
    object      phi;
}
// * * * * * * * * * * * * * * * * * * * * * * * * * * * * * * * * * * * * * //

dimensions      [0 3 -1 0 0 0 0];

internalField   nonuniform List<scalar> 
6046
(
4.61084e-07
-1.0654e-09
4.62011e-07
-9.27092e-10
4.62811e-07
-7.99863e-10
4.63494e-07
-6.82912e-10
4.64069e-07
-5.75463e-10
4.64546e-07
-4.76801e-10
4.64932e-07
-3.86216e-10
4.65235e-07
-3.03035e-10
4.65462e-07
-2.26458e-10
4.65617e-07
-1.5559e-10
4.65706e-07
-8.87162e-11
4.65726e-07
-2.03213e-11
4.65677e-07
4.89776e-11
4.65566e-07
1.11051e-10
4.65403e-07
1.63328e-10
4.65195e-07
2.07407e-10
4.6495e-07
2.45149e-10
4.64672e-07
2.77871e-10
4.64366e-07
3.0658e-10
4.64034e-07
3.32066e-10
4.63679e-07
3.54912e-10
4.63303e-07
3.75534e-10
4.62909e-07
3.94244e-10
4.62498e-07
4.11274e-10
4.62071e-07
4.26851e-10
4.6163e-07
4.41117e-10
4.61176e-07
4.54248e-10
4.60709e-07
4.66351e-10
4.60232e-07
4.77556e-10
4.59744e-07
4.87949e-10
4.59246e-07
4.97631e-10
4.58739e-07
5.06669e-10
4.58224e-07
5.15126e-10
4.57701e-07
5.23084e-10
4.57171e-07
5.30577e-10
4.56633e-07
5.37663e-10
4.56089e-07
5.44391e-10
4.55538e-07
5.50787e-10
4.54981e-07
5.56905e-10
4.54418e-07
5.62759e-10
4.5385e-07
5.68395e-10
4.53276e-07
5.73836e-10
4.52697e-07
5.79116e-10
4.52113e-07
5.84246e-10
4.51523e-07
5.89276e-10
4.50929e-07
5.94212e-10
4.5033e-07
5.99085e-10
4.49726e-07
6.03922e-10
4.49117e-07
6.08746e-10
4.48504e-07
6.1359e-10
4.47885e-07
6.18467e-10
4.47262e-07
6.23409e-10
4.46633e-07
6.28436e-10
4.46e-07
6.3358e-10
4.45361e-07
6.3887e-10
4.44717e-07
6.44338e-10
6.50011e-10
4.86484e-07
-2.37224e-09
4.87634e-07
-2.07718e-09
4.88639e-07
-1.80517e-09
4.89511e-07
-1.5546e-09
4.9026e-07
-1.32395e-09
4.90894e-07
-1.11176e-09
4.91425e-07
-9.16645e-10
4.91859e-07
-7.37245e-10
4.92205e-07
-5.72238e-10
4.9247e-07
-4.20306e-10
4.92661e-07
-2.80117e-10
4.92791e-07
-1.50097e-10
4.92868e-07
-2.80841e-11
4.92893e-07
8.62084e-11
4.92865e-07
1.91052e-10
4.92787e-07
2.85866e-10
4.9266e-07
3.71233e-10
4.9249e-07
4.48013e-10
4.9228e-07
5.17133e-10
4.92032e-07
5.79488e-10
4.91751e-07
6.35907e-10
4.9144e-07
6.87071e-10
4.911e-07
7.33606e-10
4.90736e-07
7.76022e-10
4.90348e-07
8.14768e-10
4.89939e-07
8.50249e-10
4.8951e-07
8.82817e-10
4.89064e-07
9.12777e-10
4.88601e-07
9.40412e-10
4.88123e-07
9.65962e-10
4.87631e-07
9.89652e-10
4.87126e-07
1.01168e-09
4.86609e-07
1.03222e-09
4.8608e-07
1.05142e-09
4.85541e-07
1.06942e-09
4.84993e-07
1.08636e-09
4.84435e-07
1.10234e-09
4.83868e-07
1.11746e-09
4.83293e-07
1.13182e-09
4.8271e-07
1.14549e-09
4.8212e-07
1.15856e-09
4.81523e-07
1.17109e-09
4.80919e-07
1.18315e-09
4.80308e-07
1.19482e-09
4.79692e-07
1.20614e-09
4.79069e-07
1.21717e-09
4.7844e-07
1.22798e-09
4.77805e-07
1.23862e-09
4.77165e-07
1.24912e-09
4.76519e-07
1.25957e-09
4.75867e-07
1.27e-09
4.7521e-07
1.28048e-09
4.74547e-07
1.29106e-09
4.73879e-07
1.3018e-09
4.73205e-07
1.31275e-09
4.72526e-07
1.32398e-09
1.33556e-09
4.95163e-07
-3.79308e-09
4.9642e-07
-3.33342e-09
4.97523e-07
-2.90907e-09
4.98487e-07
-2.51764e-09
4.99319e-07
-2.15687e-09
5.00032e-07
-1.82457e-09
5.00634e-07
-1.51867e-09
5.01134e-07
-1.2372e-09
5.0154e-07
-9.7827e-10
5.0186e-07
-7.40096e-10
5.02101e-07
-5.21014e-10
5.0227e-07
-3.1943e-10
5.02375e-07
-1.33275e-10
5.02423e-07
3.91614e-11
5.02415e-07
1.98292e-10
5.02357e-07
3.44256e-10
5.02251e-07
4.77596e-10
5.02099e-07
5.99121e-10
5.01907e-07
7.09728e-10
5.01676e-07
8.10368e-10
5.0141e-07
9.02e-10
5.01111e-07
9.85505e-10
5.00783e-07
1.06169e-09
5.00428e-07
1.1313e-09
5.00048e-07
1.19499e-09
4.99645e-07
1.25337e-09
4.99221e-07
1.30697e-09
4.98777e-07
1.35628e-09
4.98316e-07
1.40175e-09
4.97838e-07
1.44375e-09
4.97345e-07
1.48267e-09
4.96838e-07
1.51879e-09
4.96318e-07
1.55243e-09
4.95785e-07
1.58384e-09
4.95241e-07
1.61323e-09
4.94687e-07
1.64082e-09
4.94122e-07
1.66681e-09
4.93549e-07
1.69134e-09
4.92966e-07
1.71459e-09
4.92375e-07
1.73668e-09
4.91775e-07
1.75774e-09
4.91169e-07
1.77788e-09
4.90555e-07
1.79723e-09
4.89933e-07
1.81588e-09
4.89306e-07
1.83393e-09
4.88671e-07
1.85147e-09
4.88031e-07
1.86859e-09
4.87384e-07
1.88537e-09
4.86731e-07
1.90191e-09
4.86073e-07
1.91828e-09
4.85408e-07
1.93457e-09
4.84738e-07
1.95087e-09
4.84061e-07
1.96726e-09
4.83379e-07
1.98382e-09
4.82691e-07
2.00067e-09
4.81998e-07
2.01788e-09
2.03555e-09
5.00191e-07
-5.2805e-09
5.0151e-07
-4.65225e-09
5.02672e-07
-4.0716e-09
5.0369e-07
-3.53544e-09
5.04574e-07
-3.04077e-09
5.05334e-07
-2.58471e-09
5.0598e-07
-2.16453e-09
5.06521e-07
-1.77762e-09
5.06964e-07
-1.42153e-09
5.07318e-07
-1.09394e-09
5.07589e-07
-7.9269e-10
5.07786e-07
-5.1573e-10
5.07913e-07
-2.60859e-10
5.07978e-07
-2.59316e-11
5.07986e-07
1.9052e-10
5.07941e-07
3.89545e-10
5.07846e-07
5.72141e-10
5.07706e-07
7.39374e-10
5.07523e-07
8.92358e-10
5.07301e-07
1.0322e-09
5.07043e-07
1.16001e-09
5.06752e-07
1.27685e-09
5.0643e-07
1.38373e-09
5.0608e-07
1.48156e-09
5.05704e-07
1.57122e-09
5.05303e-07
1.65349e-09
5.04881e-07
1.72908e-09
5.04439e-07
1.79865e-09
5.03978e-07
1.86281e-09
5.035e-07
1.92207e-09
5.03005e-07
1.97695e-09
5.02496e-07
2.02788e-09
5.01973e-07
2.07526e-09
5.01438e-07
2.11946e-09
5.0089e-07
2.16079e-09
5.00331e-07
2.19956e-09
4.99762e-07
2.23602e-09
4.99183e-07
2.27041e-09
4.98595e-07
2.30295e-09
4.97998e-07
2.33383e-09
4.97392e-07
2.36324e-09
4.96779e-07
2.39133e-09
4.96158e-07
2.41828e-09
4.95529e-07
2.4442e-09
4.94894e-07
2.46925e-09
4.94252e-07
2.49355e-09
4.93603e-07
2.51724e-09
4.92948e-07
2.5404e-09
4.92287e-07
2.56318e-09
4.9162e-07
2.58569e-09
4.90946e-07
2.60803e-09
4.90267e-07
2.63033e-09
4.89581e-07
2.6527e-09
4.8889e-07
2.67525e-09
4.88192e-07
2.69812e-09
4.87489e-07
2.72142e-09
2.74529e-09
5.03815e-07
-6.80328e-09
5.05168e-07
-6.00492e-09
5.06362e-07
-5.26639e-09
5.07411e-07
-4.58383e-09
5.08324e-07
-3.95355e-09
5.09111e-07
-3.372e-09
5.09782e-07
-2.83579e-09
5.10346e-07
-2.34171e-09
5.10811e-07
-1.88671e-09
5.11185e-07
-1.46795e-09
5.11475e-07
-1.08272e-09
5.11688e-07
-7.2848e-10
5.1183e-07
-4.0269e-10
5.11907e-07
-1.02891e-10
5.11925e-07
1.72997e-10
5.11887e-07
4.26703e-10
5.118e-07
6.59762e-10
5.11665e-07
8.73643e-10
5.11488e-07
1.06975e-09
5.11271e-07
1.24946e-09
5.11017e-07
1.41409e-09
5.10729e-07
1.56491e-09
5.10409e-07
1.7031e-09
5.10061e-07
1.82981e-09
5.09686e-07
1.94607e-09
5.09287e-07
2.05285e-09
5.08865e-07
2.15103e-09
5.08422e-07
2.24145e-09
5.0796e-07
2.32484e-09
5.0748e-07
2.4019e-09
5.06984e-07
2.47325e-09
5.06472e-07
2.53944e-09
5.05947e-07
2.60101e-09
5.05408e-07
2.6584e-09
5.04856e-07
2.71206e-09
5.04294e-07
2.76234e-09
5.0372e-07
2.8096e-09
5.03136e-07
2.85414e-09
5.02543e-07
2.89626e-09
5.01941e-07
2.9362e-09
5.0133e-07
2.9742e-09
5.00711e-07
3.01047e-09
5.00084e-07
3.04521e-09
4.99449e-07
3.07863e-09
4.98808e-07
3.11088e-09
4.98159e-07
3.14213e-09
4.97504e-07
3.17254e-09
4.96842e-07
3.20226e-09
4.96174e-07
3.23144e-09
4.95499e-07
3.26023e-09
4.94818e-07
3.28876e-09
4.94131e-07
3.31719e-09
4.93438e-07
3.34566e-09
4.92739e-07
3.3743e-09
4.92034e-07
3.40329e-09
4.91323e-07
3.43277e-09
3.4629e-09
5.06752e-07
5.08115e-07
-7.36743e-09
5.0932e-07
-6.47137e-09
5.10378e-07
-5.64256e-09
5.11301e-07
-4.87665e-09
5.12099e-07
-4.16944e-09
5.1278e-07
-3.51691e-09
5.13354e-07
-2.91527e-09
5.13828e-07
-2.36089e-09
5.1421e-07
-1.85037e-09
5.14508e-07
-1.3805e-09
5.14728e-07
-9.48226e-10
5.14876e-07
-5.5063e-10
5.14958e-07
-1.84893e-10
5.14979e-07
1.51519e-10
5.14945e-07
4.6086e-10
5.1486e-07
7.45155e-10
5.14727e-07
1.00629e-09
5.14551e-07
1.24601e-09
5.14334e-07
1.46598e-09
5.1408e-07
1.66779e-09
5.13792e-07
1.85292e-09
5.13473e-07
2.02279e-09
5.13124e-07
2.17871e-09
5.12748e-07
2.32191e-09
5.12347e-07
2.45355e-09
5.11924e-07
2.57468e-09
5.11479e-07
2.68628e-09
5.11014e-07
2.78925e-09
5.10532e-07
2.88441e-09
5.10033e-07
2.97253e-09
5.09518e-07
3.05429e-09
5.08988e-07
3.13031e-09
5.08446e-07
3.20117e-09
5.0789e-07
3.26738e-09
5.07323e-07
3.32942e-09
5.06745e-07
3.38769e-09
5.06157e-07
3.44259e-09
5.05559e-07
3.49447e-09
5.04951e-07
3.54364e-09
5.04335e-07
3.5904e-09
5.0371e-07
3.63501e-09
5.03078e-07
3.67772e-09
5.02438e-07
3.71876e-09
5.0179e-07
3.75834e-09
5.01136e-07
3.79666e-09
5.00474e-07
3.83393e-09
4.99806e-07
3.87032e-09
4.99132e-07
3.90602e-09
4.98451e-07
3.94119e-09
4.97763e-07
3.97602e-09
4.9707e-07
4.01066e-09
4.9637e-07
4.0453e-09
4.95665e-07
4.08012e-09
4.94953e-07
4.11529e-09
4.94234e-07
4.15099e-09
4.18742e-09
5.10674e-07
-8.71789e-09
5.11869e-07
-7.6664e-09
5.1292e-07
-6.69312e-09
5.13836e-07
-5.79308e-09
5.14628e-07
-4.96145e-09
5.15305e-07
-4.19363e-09
5.15875e-07
-3.48525e-09
5.16346e-07
-2.83213e-09
5.16726e-07
-2.23034e-09
5.17022e-07
-1.67616e-09
5.1724e-07
-1.16608e-09
5.17386e-07
-6.96742e-10
5.17466e-07
-2.64966e-10
5.17485e-07
1.32188e-10
5.17449e-07
4.97408e-10
5.17361e-07
8.33161e-10
5.17225e-07
1.14171e-09
5.17046e-07
1.42515e-09
5.16827e-07
1.68548e-09
5.1657e-07
1.92453e-09
5.16279e-07
2.14404e-09
5.15956e-07
2.34564e-09
5.15604e-07
2.53085e-09
5.15225e-07
2.7011e-09
5.14821e-07
2.8577e-09
5.14393e-07
3.0019e-09
5.13945e-07
3.13481e-09
5.13477e-07
3.25749e-09
5.1299e-07
3.37091e-09
5.12487e-07
3.47595e-09
5.11968e-07
3.57341e-09
5.11434e-07
3.66403e-09
5.10887e-07
3.74849e-09
5.10327e-07
3.8274e-09
5.09755e-07
3.9013e-09
5.09172e-07
3.97072e-09
5.08578e-07
4.03609e-09
5.07975e-07
4.09785e-09
5.07362e-07
4.15635e-09
5.0674e-07
4.21198e-09
5.0611e-07
4.26502e-09
5.05472e-07
4.31578e-09
5.04827e-07
4.36454e-09
5.04173e-07
4.41154e-09
5.03513e-07
4.45703e-09
5.02846e-07
4.50124e-09
5.02172e-07
4.54438e-09
5.01491e-07
4.58666e-09
5.00804e-07
4.6283e-09
5.0011e-07
4.66947e-09
4.99411e-07
4.7104e-09
4.98705e-07
4.75128e-09
4.97993e-07
4.7923e-09
4.97274e-07
4.83368e-09
4.9655e-07
4.87563e-09
4.91837e-09
5.13021e-07
5.14188e-07
-8.83256e-09
5.15213e-07
-7.71811e-09
5.16106e-07
-6.68684e-09
5.16878e-07
-5.73334e-09
5.17537e-07
-4.85248e-09
5.18091e-07
-4.0393e-09
5.18548e-07
-3.28914e-09
5.18915e-07
-2.59754e-09
5.19199e-07
-1.96032e-09
5.19407e-07
-1.37349e-09
5.19543e-07
-8.33296e-10
5.19615e-07
-3.36179e-10
5.19626e-07
1.21183e-10
5.19581e-07
5.41867e-10
5.19486e-07
9.28711e-10
5.19343e-07
1.28436e-09
5.19157e-07
1.61125e-09
5.18931e-07
1.91165e-09
5.18668e-07
2.18768e-09
5.1837e-07
2.44135e-09
5.18041e-07
2.67448e-09
5.17683e-07
2.88881e-09
5.17299e-07
3.08597e-09
5.16889e-07
3.26743e-09
5.16456e-07
3.4346e-09
5.16002e-07
3.58878e-09
5.15529e-07
3.73114e-09
5.15037e-07
3.86279e-09
5.14528e-07
3.98474e-09
5.14003e-07
4.09791e-09
5.13464e-07
4.20315e-09
5.12911e-07
4.30123e-09
5.12346e-07
4.39286e-09
5.11769e-07
4.47868e-09
5.1118e-07
4.55927e-09
5.10581e-07
4.63516e-09
5.09972e-07
4.70683e-09
5.09354e-07
4.77473e-09
5.08726e-07
4.83925e-09
5.08091e-07
4.90078e-09
5.07447e-07
4.95964e-09
5.06795e-07
5.01616e-09
5.06136e-07
5.07063e-09
5.0547e-07
5.12333e-09
5.04796e-07
5.17453e-09
5.04116e-07
5.22446e-09
5.0343e-07
5.27338e-09
5.02736e-07
5.32151e-09
5.02037e-07
5.36908e-09
5.01331e-07
5.41633e-09
5.00619e-07
5.46346e-09
4.999e-07
5.51071e-09
4.99176e-07
5.55833e-09
4.98445e-07
5.60651e-09
5.65554e-09
5.16379e-07
-9.95204e-09
5.17362e-07
-8.70109e-09
5.18218e-07
-7.54278e-09
5.18956e-07
-6.47119e-09
5.19584e-07
-5.48063e-09
5.2011e-07
-4.56567e-09
5.20542e-07
-3.72114e-09
5.20887e-07
-2.94211e-09
5.21151e-07
-2.22394e-09
5.21339e-07
-1.56222e-09
5.21459e-07
-9.52802e-10
5.21514e-07
-3.91748e-10
5.21511e-07
1.24622e-10
5.21453e-07
5.99734e-10
5.21345e-07
1.03679e-09
5.21191e-07
1.43874e-09
5.20994e-07
1.80836e-09
5.20757e-07
2.14819e-09
5.20484e-07
2.46064e-09
5.20178e-07
2.74793e-09
5.1984e-07
3.01213e-09
5.19474e-07
3.25517e-09
5.19081e-07
3.47885e-09
5.18663e-07
3.68486e-09
5.18223e-07
3.87474e-09
5.17762e-07
4.04994e-09
5.17281e-07
4.21178e-09
5.16783e-07
4.36149e-09
5.16267e-07
4.50022e-09
5.15736e-07
4.62898e-09
5.1519e-07
4.74874e-09
5.14631e-07
4.86037e-09
5.14059e-07
4.96466e-09
5.13476e-07
5.06234e-09
5.12881e-07
5.15406e-09
5.12276e-07
5.24043e-09
5.11661e-07
5.322e-09
5.11036e-07
5.39926e-09
5.10403e-07
5.47269e-09
5.09761e-07
5.54269e-09
5.09111e-07
5.60965e-09
5.08453e-07
5.67394e-09
5.07788e-07
5.7359e-09
5.07115e-07
5.79582e-09
5.06436e-07
5.85401e-09
5.05749e-07
5.91075e-09
5.05056e-07
5.96632e-09
5.04357e-07
6.02096e-09
5.03651e-07
6.07494e-09
5.02939e-07
6.12851e-09
5.02221e-07
6.18191e-09
5.01496e-07
6.23539e-09
5.00765e-07
6.28921e-09
5.00028e-07
6.34363e-09
6.39891e-09
5.18511e-07
-1.10081e-08
5.19436e-07
-9.62658e-09
5.2024e-07
-8.34663e-09
5.20931e-07
-7.16183e-09
5.21516e-07
-6.06599e-09
5.22004e-07
-5.05322e-09
5.224e-07
-4.1179e-09
5.22713e-07
-3.25466e-09
5.22947e-07
-2.45843e-09
5.2311e-07
-1.72441e-09
5.23205e-07
-1.04807e-09
5.23238e-07
-4.25119e-10
5.23214e-07
1.48444e-10
5.23138e-07
6.764e-10
5.23012e-07
1.16225e-09
5.22842e-07
1.60927e-09
5.2263e-07
2.02049e-09
5.22379e-07
2.39877e-09
5.22093e-07
2.74672e-09
5.21774e-07
3.06682e-09
5.21425e-07
3.36135e-09
5.21048e-07
3.63245e-09
5.20644e-07
3.88209e-09
5.20217e-07
4.11212e-09
5.19768e-07
4.32425e-09
5.19297e-07
4.52006e-09
5.18808e-07
4.70102e-09
5.18301e-07
4.86849e-09
5.17778e-07
5.02371e-09
5.17239e-07
5.16783e-09
5.16686e-07
5.30191e-09
5.16119e-07
5.42691e-09
5.1554e-07
5.5437e-09
5.14949e-07
5.6531e-09
5.14348e-07
5.75585e-09
5.13735e-07
5.8526e-09
5.13113e-07
5.94399e-09
5.12482e-07
6.03055e-09
5.11842e-07
6.11282e-09
5.11193e-07
6.19124e-09
5.10537e-07
6.26627e-09
5.09872e-07
6.3383e-09
5.09201e-07
6.4077e-09
5.08522e-07
6.47483e-09
5.07836e-07
6.54e-09
5.07143e-07
6.60354e-09
5.06443e-07
6.66574e-09
5.05738e-07
6.72689e-09
5.05025e-07
6.78727e-09
5.04307e-07
6.84714e-09
5.03582e-07
6.90679e-09
5.02851e-07
6.96648e-09
5.02113e-07
7.02649e-09
5.0137e-07
7.08709e-09
7.14858e-09
5.20625e-07
-1.19851e-08
5.21478e-07
-1.04801e-08
5.22217e-07
-9.08506e-09
5.22848e-07
-7.79295e-09
5.23379e-07
-6.59721e-09
5.23817e-07
-5.49151e-09
5.24169e-07
-4.46981e-09
5.24441e-07
-3.52635e-09
5.24638e-07
-2.65567e-09
5.24766e-07
-1.85261e-09
5.2483e-07
-1.11228e-09
5.24835e-07
-4.30072e-10
5.24786e-07
1.98343e-10
5.24685e-07
7.77038e-10
5.24537e-07
1.30981e-09
5.24346e-07
1.80021e-09
5.24115e-07
2.25154e-09
5.23847e-07
2.66691e-09
5.23545e-07
3.04916e-09
5.23211e-07
3.40098e-09
5.22847e-07
3.72486e-09
5.22456e-07
4.02313e-09
5.22041e-07
4.29793e-09
5.21601e-07
4.55127e-09
5.21141e-07
4.78501e-09
5.2066e-07
5.00087e-09
5.2016e-07
5.20046e-09
5.19644e-07
5.38523e-09
5.19111e-07
5.55656e-09
5.18563e-07
5.71569e-09
5.18001e-07
5.86377e-09
5.17426e-07
6.00186e-09
5.16839e-07
6.13092e-09
5.1624e-07
6.25185e-09
5.15631e-07
6.36543e-09
5.15011e-07
6.47241e-09
5.14381e-07
6.57346e-09
5.13743e-07
6.6692e-09
5.13095e-07
6.7602e-09
5.1244e-07
6.84696e-09
5.11776e-07
6.92997e-09
5.11105e-07
7.00967e-09
5.10426e-07
7.08647e-09
5.0974e-07
7.16074e-09
5.09047e-07
7.23286e-09
5.08347e-07
7.30316e-09
5.07641e-07
7.37196e-09
5.06928e-07
7.43958e-09
5.06209e-07
7.50633e-09
5.05484e-07
7.57248e-09
5.04753e-07
7.63834e-09
5.04015e-07
7.7042e-09
5.03271e-07
7.77034e-09
5.02521e-07
7.83707e-09
7.90471e-09
5.22746e-07
-1.28687e-08
5.23515e-07
-1.12485e-08
5.24176e-07
-9.74579e-09
5.24736e-07
-8.35321e-09
5.25202e-07
-7.0638e-09
5.25582e-07
-5.87085e-09
5.2588e-07
-4.76795e-09
5.26103e-07
-3.74898e-09
5.26255e-07
-2.80813e-09
5.26342e-07
-1.93989e-09
5.26369e-07
-1.13908e-09
5.2634e-07
-4.00773e-10
5.26259e-07
2.79645e-10
5.26129e-07
9.06518e-10
5.25955e-07
1.48391e-09
5.2574e-07
2.01562e-09
5.25486e-07
2.50521e-09
5.25197e-07
2.95598e-09
5.24875e-07
3.37102e-09
5.24523e-07
3.7532e-09
5.24142e-07
4.10522e-09
5.23736e-07
4.42954e-09
5.23305e-07
4.72851e-09
5.22852e-07
5.00427e-09
5.22379e-07
5.25882e-09
5.21885e-07
5.49402e-09
5.21374e-07
5.71158e-09
5.20846e-07
5.91309e-09
5.20303e-07
6.10001e-09
5.19745e-07
6.2737e-09
5.19173e-07
6.43538e-09
5.18589e-07
6.58621e-09
5.17993e-07
6.72722e-09
5.17385e-07
6.85938e-09
5.16767e-07
6.98355e-09
5.16139e-07
7.10054e-09
5.15501e-07
7.21108e-09
5.14855e-07
7.31582e-09
5.14199e-07
7.4154e-09
5.13536e-07
7.51037e-09
5.12865e-07
7.60125e-09
5.12186e-07
7.68853e-09
5.115e-07
7.77262e-09
5.10807e-07
7.85398e-09
5.10106e-07
7.93297e-09
5.094e-07
8.00997e-09
5.08686e-07
8.08531e-09
5.07966e-07
8.15936e-09
5.0724e-07
8.23241e-09
5.06508e-07
8.30479e-09
5.0577e-07
8.37682e-09
5.05025e-07
8.44879e-09
5.04274e-07
8.52101e-09
5.03518e-07
8.59381e-09
5.02755e-07
8.6675e-09
8.74243e-09
5.2489e-07
5.25561e-07
-1.19197e-08
5.26133e-07
-1.03177e-08
5.26612e-07
-8.83232e-09
5.27005e-07
-7.45626e-09
5.27316e-07
-6.18247e-09
5.27553e-07
-5.00422e-09
5.27719e-07
-3.91507e-09
5.2782e-07
-2.90891e-09
5.2786e-07
-1.97993e-09
5.27843e-07
-1.12264e-09
5.27774e-07
-3.31874e-10
5.27657e-07
3.97252e-10
5.27494e-07
1.06933e-09
5.27289e-07
1.68865e-09
5.27045e-07
2.25926e-09
5.26766e-07
2.7849e-09
5.26453e-07
3.26911e-09
5.26108e-07
3.71515e-09
5.25736e-07
4.1261e-09
5.25336e-07
4.50478e-09
5.24912e-07
4.85387e-09
5.24464e-07
5.17582e-09
5.23996e-07
5.47295e-09
5.23507e-07
5.74735e-09
5.23e-07
6.00103e-09
5.22476e-07
6.23579e-09
5.21936e-07
6.45334e-09
5.2138e-07
6.65525e-09
5.20811e-07
6.84293e-09
5.20229e-07
7.01773e-09
5.19634e-07
7.18086e-09
5.19028e-07
7.33343e-09
5.18411e-07
7.47648e-09
5.17783e-07
7.61093e-09
5.17146e-07
7.73766e-09
5.165e-07
7.85743e-09
5.15845e-07
7.97098e-09
5.15181e-07
8.07895e-09
5.1451e-07
8.18196e-09
5.1383e-07
8.28057e-09
5.13144e-07
8.37528e-09
5.1245e-07
8.46657e-09
5.11749e-07
8.55489e-09
5.11041e-07
8.64067e-09
5.10327e-07
8.72428e-09
5.09606e-07
8.80611e-09
5.08879e-07
8.8865e-09
5.08145e-07
8.96581e-09
5.07406e-07
9.04436e-09
5.0666e-07
9.12248e-09
5.05908e-07
9.20049e-09
5.05151e-07
9.27872e-09
5.04387e-07
9.3575e-09
5.03617e-07
9.43716e-09
9.51807e-09
5.27623e-07
-1.24832e-08
5.28096e-07
-1.0791e-08
5.28485e-07
-9.22117e-09
5.28795e-07
-7.76613e-09
5.29031e-07
-6.41855e-09
5.29198e-07
-5.1714e-09
5.29301e-07
-4.01796e-09
5.29344e-07
-2.95186e-09
5.29331e-07
-1.96704e-09
5.29266e-07
-1.05775e-09
5.29153e-07
-2.18588e-10
5.28995e-07
5.5556e-10
5.28794e-07
1.2695e-09
5.28555e-07
1.92773e-09
5.2828e-07
2.53448e-09
5.27971e-07
3.09371e-09
5.27631e-07
3.60911e-09
5.27262e-07
4.08413e-09
5.26866e-07
4.522e-09
5.26445e-07
4.92571e-09
5.26001e-07
5.29806e-09
5.25535e-07
5.64166e-09
5.25049e-07
5.95892e-09
5.24545e-07
6.25209e-09
5.24022e-07
6.52325e-09
5.23484e-07
6.77434e-09
5.2293e-07
7.00714e-09
5.22362e-07
7.2233e-09
5.21781e-07
7.42435e-09
5.21187e-07
7.61169e-09
5.20581e-07
7.7866e-09
5.19964e-07
7.95029e-09
5.19337e-07
8.10382e-09
5.187e-07
8.2482e-09
5.18053e-07
8.38433e-09
5.17397e-07
8.51306e-09
5.16733e-07
8.63515e-09
5.16061e-07
8.7513e-09
5.15381e-07
8.86215e-09
5.14693e-07
8.9683e-09
5.13998e-07
9.07029e-09
5.13296e-07
9.16865e-09
5.12587e-07
9.26382e-09
5.11871e-07
9.35627e-09
5.11149e-07
9.4464e-09
5.10421e-07
9.53461e-09
5.09686e-07
9.62127e-09
5.08945e-07
9.70675e-09
5.08198e-07
9.79139e-09
5.07445e-07
9.87554e-09
5.06686e-07
9.95952e-09
5.05921e-07
1.00437e-08
5.0515e-07
1.01283e-08
5.04373e-07
1.02139e-08
1.03006e-08
5.29697e-07
-1.29298e-08
5.30064e-07
-1.11572e-08
5.30354e-07
-9.51189e-09
5.30574e-07
-7.98613e-09
5.30728e-07
-6.57233e-09
5.3082e-07
-5.26322e-09
5.30854e-07
-4.05187e-09
5.30834e-07
-2.93167e-09
5.30763e-07
-1.89632e-09
5.30645e-07
-9.39887e-10
5.30483e-07
-5.67513e-11
5.3028e-07
7.58389e-10
5.30039e-07
1.51052e-09
5.29763e-07
2.20434e-09
5.29453e-07
2.84423e-09
5.29112e-07
3.4343e-09
5.28743e-07
3.97842e-09
5.28347e-07
4.48018e-09
5.27926e-07
4.94295e-09
5.27482e-07
5.36985e-09
5.27016e-07
5.7638e-09
5.2653e-07
6.12754e-09
5.26026e-07
6.46359e-09
5.25504e-07
6.77429e-09
5.24965e-07
7.06184e-09
5.24411e-07
7.32826e-09
5.23843e-07
7.57541e-09
5.23261e-07
7.80504e-09
5.22667e-07
8.01873e-09
5.2206e-07
8.21797e-09
5.21443e-07
8.4041e-09
5.20815e-07
8.57837e-09
5.20177e-07
8.74193e-09
5.19529e-07
8.89581e-09
5.18872e-07
9.04101e-09
5.18207e-07
9.17836e-09
5.17533e-07
9.3087e-09
5.16852e-07
9.43278e-09
5.16163e-07
9.55124e-09
5.15466e-07
9.66474e-09
5.14763e-07
9.77385e-09
5.14052e-07
9.8791e-09
5.13335e-07
9.98098e-09
5.12612e-07
1.008e-08
5.11881e-07
1.01765e-08
5.11145e-07
1.0271e-08
5.10402e-07
1.03639e-08
5.09654e-07
1.04554e-08
5.08899e-07
1.05461e-08
5.08139e-07
1.06361e-08
5.07372e-07
1.0726e-08
5.066e-07
1.0816e-08
5.05822e-07
1.09065e-08
5.05038e-07
1.09978e-08
1.10903e-08
5.54532e-07
-1.30904e-08
5.54618e-07
-1.1243e-08
5.54633e-07
-9.52732e-09
5.54582e-07
-7.93537e-09
5.54469e-07
-6.45936e-09
5.54298e-07
-5.09181e-09
5.54072e-07
-3.82561e-09
5.53794e-07
-2.65394e-09
5.53468e-07
-1.57033e-09
5.53097e-07
-5.68651e-10
5.52683e-07
3.56889e-10
5.5223e-07
1.21176e-09
5.51739e-07
2.00111e-09
5.51214e-07
2.72979e-09
5.50656e-07
3.40232e-09
5.50067e-07
4.02298e-09
5.4945e-07
4.59575e-09
5.48805e-07
5.12436e-09
5.48136e-07
5.6123e-09
5.47443e-07
6.06281e-09
5.46728e-07
6.47894e-09
5.45992e-07
6.86351e-09
5.45236e-07
7.21915e-09
5.44462e-07
7.54832e-09
5.43671e-07
7.85327e-09
5.42863e-07
8.13612e-09
5.4204e-07
8.39882e-09
5.41202e-07
8.64318e-09
5.40349e-07
8.87086e-09
5.39484e-07
9.08339e-09
5.38606e-07
9.28221e-09
5.37716e-07
9.4686e-09
5.36814e-07
9.64376e-09
5.35901e-07
9.8088e-09
5.34977e-07
9.96472e-09
5.34043e-07
1.01124e-08
5.33099e-07
1.02528e-08
5.32145e-07
1.03866e-08
5.31182e-07
1.05145e-08
5.30209e-07
1.06372e-08
5.29228e-07
1.07554e-08
5.28237e-07
1.08694e-08
5.27238e-07
1.098e-08
5.26231e-07
1.10876e-08
5.25215e-07
1.11925e-08
5.24191e-07
1.12953e-08
5.23158e-07
1.13964e-08
5.22117e-07
1.14961e-08
5.21068e-07
1.15949e-08
5.20012e-07
1.1693e-08
5.18947e-07
1.17909e-08
5.17874e-07
1.18889e-08
5.16793e-07
1.19873e-08
5.15704e-07
1.20865e-08
1.21869e-08
5.17143e-07
5.17396e-07
-1.1496e-08
5.17596e-07
-9.72759e-09
5.17747e-07
-8.08592e-09
5.17851e-07
-6.56315e-09
5.17911e-07
-5.15165e-09
5.17929e-07
-3.84416e-09
5.17909e-07
-2.63375e-09
5.17852e-07
-1.51381e-09
5.17762e-07
-4.78085e-10
5.17639e-07
4.79339e-10
5.17487e-07
1.36405e-09
5.17307e-07
2.18132e-09
5.17101e-07
2.93608e-09
5.1687e-07
3.63299e-09
5.16617e-07
4.27641e-09
5.16342e-07
4.87043e-09
5.16047e-07
5.41887e-09
5.15734e-07
5.92531e-09
5.15404e-07
6.39309e-09
5.15058e-07
6.82532e-09
5.14696e-07
7.22492e-09
5.14321e-07
7.5946e-09
5.13932e-07
7.93687e-09
5.13531e-07
8.25408e-09
5.13119e-07
8.54839e-09
5.12696e-07
8.82182e-09
5.12263e-07
9.07623e-09
5.11821e-07
9.31335e-09
5.11369e-07
9.53475e-09
5.1091e-07
9.74191e-09
5.10442e-07
9.93618e-09
5.09967e-07
1.01188e-08
5.09485e-07
1.02909e-08
5.08996e-07
1.04535e-08
5.08501e-07
1.06075e-08
5.08e-07
1.0754e-08
5.07493e-07
1.08936e-08
5.0698e-07
1.10271e-08
5.06463e-07
1.11551e-08
5.0594e-07
1.12784e-08
5.05411e-07
1.13975e-08
5.04879e-07
1.15129e-08
5.04341e-07
1.16251e-08
5.03799e-07
1.17347e-08
5.03252e-07
1.18419e-08
5.02701e-07
1.19474e-08
5.02146e-07
1.20514e-08
5.01587e-07
1.21544e-08
5.01023e-07
1.22566e-08
5.00455e-07
1.23586e-08
4.99884e-07
1.24605e-08
4.99308e-07
1.25629e-08
4.98728e-07
1.2666e-08
1.27703e-08
4.83825e-07
4.84201e-07
-1.01036e-08
4.84541e-07
-8.42602e-09
4.84848e-07
-6.86949e-09
4.85122e-07
-5.42627e-09
4.85367e-07
-4.08899e-09
4.85584e-07
-2.85063e-09
4.85775e-07
-1.70452e-09
4.85941e-07
-6.44306e-10
4.86084e-07
3.36002e-10
4.86206e-07
1.24207e-09
4.86308e-07
2.07924e-09
4.86392e-07
2.85252e-09
4.86458e-07
3.56666e-09
4.86509e-07
4.22606e-09
4.86544e-07
4.83489e-09
4.86566e-07
5.39704e-09
4.86575e-07
5.91616e-09
4.86573e-07
6.39564e-09
4.86559e-07
6.83866e-09
4.86536e-07
7.2482e-09
4.86504e-07
7.62702e-09
4.86463e-07
7.97769e-09
4.86414e-07
8.3026e-09
4.86359e-07
8.60398e-09
4.86297e-07
8.88388e-09
4.86229e-07
9.1442e-09
4.86155e-07
9.38672e-09
4.86077e-07
9.61306e-09
4.85994e-07
9.82472e-09
4.85907e-07
1.00231e-08
4.85817e-07
1.02094e-08
4.85723e-07
1.03849e-08
4.85626e-07
1.05506e-08
4.85526e-07
1.07074e-08
4.85423e-07
1.08564e-08
4.85318e-07
1.09983e-08
4.85212e-07
1.11339e-08
4.85103e-07
1.12639e-08
4.84992e-07
1.13889e-08
4.8488e-07
1.15095e-08
4.84767e-07
1.16263e-08
4.84652e-07
1.17399e-08
4.84536e-07
1.18506e-08
4.84419e-07
1.19589e-08
4.84301e-07
1.20652e-08
4.84183e-07
1.21701e-08
4.84063e-07
1.22738e-08
4.83943e-07
1.23767e-08
4.83823e-07
1.24792e-08
4.83702e-07
1.25816e-08
4.8358e-07
1.26844e-08
4.83458e-07
1.27878e-08
1.28922e-08
4.54101e-07
-1.06462e-08
4.5462e-07
-8.9443e-09
4.55115e-07
-7.36491e-09
4.55589e-07
-5.90023e-09
4.56043e-07
-4.54283e-09
4.56478e-07
-3.28566e-09
4.56895e-07
-2.12198e-09
4.57296e-07
-1.04541e-09
4.57682e-07
-4.98862e-11
4.58054e-07
8.70284e-10
4.58413e-07
1.72049e-09
4.5876e-07
2.5058e-09
4.59095e-07
3.23098e-09
4.59421e-07
3.90051e-09
4.59737e-07
4.51858e-09
4.60045e-07
5.08913e-09
4.60345e-07
5.61585e-09
4.60639e-07
6.10218e-09
4.60926e-07
6.55135e-09
4.61208e-07
6.96637e-09
4.61485e-07
7.35003e-09
4.61758e-07
7.70496e-09
4.62027e-07
8.03357e-09
4.62293e-07
8.33813e-09
4.62556e-07
8.62073e-09
4.62817e-07
8.88331e-09
4.63076e-07
9.12766e-09
4.63333e-07
9.35544e-09
4.6359e-07
9.56818e-09
4.63846e-07
9.76729e-09
4.64101e-07
9.95406e-09
4.64356e-07
1.01297e-08
4.64611e-07
1.02952e-08
4.64867e-07
1.04518e-08
4.65123e-07
1.06001e-08
4.6538e-07
1.07413e-08
4.65639e-07
1.08758e-08
4.65898e-07
1.10047e-08
4.66158e-07
1.11283e-08
4.6642e-07
1.12475e-08
4.66684e-07
1.13627e-08
4.6695e-07
1.14744e-08
4.67217e-07
1.15832e-08
4.67486e-07
1.16895e-08
4.67758e-07
1.17937e-08
4.68032e-07
1.18963e-08
4.68308e-07
1.19976e-08
4.68586e-07
1.20981e-08
4.68868e-07
1.2198e-08
4.69151e-07
1.22978e-08
4.69438e-07
1.23977e-08
4.69728e-07
1.24982e-08
1.25996e-08
4.26982e-07
-1.13461e-08
4.27667e-07
-9.62954e-09
4.28339e-07
-8.03639e-09
4.28997e-07
-6.55884e-09
4.29644e-07
-5.18947e-09
4.30279e-07
-3.92116e-09
4.30905e-07
-2.74719e-09
4.3152e-07
-1.66113e-09
4.32127e-07
-6.56921e-10
4.32726e-07
2.71169e-10
4.33318e-07
1.12855e-09
4.33904e-07
1.9203e-09
4.34484e-07
2.65123e-09
4.35058e-07
3.32582e-09
4.35629e-07
3.94831e-09
4.36195e-07
4.52265e-09
4.36758e-07
5.05257e-09
4.37319e-07
5.54153e-09
4.37878e-07
5.99278e-09
4.38435e-07
6.40937e-09
4.38991e-07
6.79411e-09
4.39546e-07
7.14965e-09
4.40101e-07
7.47845e-09
4.40656e-07
7.78277e-09
4.41212e-07
8.06475e-09
4.41769e-07
8.32635e-09
4.42328e-07
8.56937e-09
4.42887e-07
8.7955e-09
4.43449e-07
9.00629e-09
4.44014e-07
9.20317e-09
4.4458e-07
9.38745e-09
4.45149e-07
9.56033e-09
4.45722e-07
9.72293e-09
4.46297e-07
9.87627e-09
4.46876e-07
1.00213e-08
4.47459e-07
1.01588e-08
4.48045e-07
1.02897e-08
4.48635e-07
1.04146e-08
4.49229e-07
1.05342e-08
4.49827e-07
1.06491e-08
4.5043e-07
1.07599e-08
4.51037e-07
1.08672e-08
4.51649e-07
1.09714e-08
4.52266e-07
1.10729e-08
4.52887e-07
1.11723e-08
4.53513e-07
1.12699e-08
4.54145e-07
1.13661e-08
4.54782e-07
1.14613e-08
4.55424e-07
1.15559e-08
4.56071e-07
1.16502e-08
4.56725e-07
1.17445e-08
4.57384e-07
1.18392e-08
1.19347e-08
4.02557e-07
-1.21938e-08
4.03398e-07
-1.04706e-08
4.04233e-07
-8.87125e-09
4.05062e-07
-7.38804e-09
4.05886e-07
-6.01349e-09
4.06706e-07
-4.74053e-09
4.07521e-07
-3.56239e-09
4.08332e-07
-2.47268e-09
4.09141e-07
-1.46532e-09
4.09947e-07
-5.34584e-10
4.1075e-07
3.24945e-10
4.11552e-07
1.11836e-09
4.12353e-07
1.85047e-09
4.13153e-07
2.52577e-09
4.13953e-07
3.14851e-09
4.14753e-07
3.72265e-09
4.15553e-07
4.25193e-09
4.16355e-07
4.73984e-09
4.17158e-07
5.18963e-09
4.17963e-07
5.60437e-09
4.1877e-07
5.98689e-09
4.1958e-07
6.33985e-09
4.20393e-07
6.66572e-09
4.21209e-07
6.9668e-09
4.22028e-07
7.24522e-09
4.22852e-07
7.50297e-09
4.23679e-07
7.74187e-09
4.24511e-07
7.96361e-09
4.25348e-07
8.16977e-09
4.26189e-07
8.36177e-09
4.27036e-07
8.54096e-09
4.27887e-07
8.70854e-09
4.28745e-07
8.86564e-09
4.29608e-07
9.01329e-09
4.30477e-07
9.15244e-09
4.31351e-07
9.28394e-09
4.32233e-07
9.4086e-09
4.3312e-07
9.52716e-09
4.34014e-07
9.64027e-09
4.34914e-07
9.74857e-09
4.35822e-07
9.85263e-09
4.36736e-07
9.95298e-09
4.37657e-07
1.00501e-08
4.38586e-07
1.01445e-08
4.39521e-07
1.02366e-08
4.40464e-07
1.03268e-08
4.41415e-07
1.04154e-08
4.42374e-07
1.05029e-08
4.4334e-07
1.05896e-08
4.44314e-07
1.06759e-08
4.45296e-07
1.07621e-08
4.46287e-07
1.08486e-08
1.09356e-08
3.80568e-07
-1.31796e-08
3.81554e-07
-1.14564e-08
3.8254e-07
-9.8572e-09
3.83526e-07
-8.37432e-09
3.84513e-07
-7.00033e-09
3.855e-07
-5.72814e-09
3.86489e-07
-4.55103e-09
3.87479e-07
-3.4626e-09
3.8847e-07
-2.4568e-09
3.89464e-07
-1.5279e-09
3.90459e-07
-6.70508e-10
3.91457e-07
1.20473e-10
3.92458e-07
8.49835e-10
3.93461e-07
1.52209e-09
3.94468e-07
2.14146e-09
3.95479e-07
2.71194e-09
3.96494e-07
3.23726e-09
3.97513e-07
3.7209e-09
3.98536e-07
4.16613e-09
3.99565e-07
4.57602e-09
4.00598e-07
4.95342e-09
4.01637e-07
5.30099e-09
4.02681e-07
5.62121e-09
4.03732e-07
5.91638e-09
4.04788e-07
6.18866e-09
4.05851e-07
6.44002e-09
4.06921e-07
6.67231e-09
4.07997e-07
6.88724e-09
4.09081e-07
7.08637e-09
4.10171e-07
7.27116e-09
4.11269e-07
7.44293e-09
4.12375e-07
7.60293e-09
4.13488e-07
7.75227e-09
4.1461e-07
7.892e-09
4.15739e-07
8.02307e-09
4.16877e-07
8.14634e-09
4.18023e-07
8.26263e-09
4.19177e-07
8.37266e-09
4.2034e-07
8.47711e-09
4.21512e-07
8.57661e-09
4.22693e-07
8.67174e-09
4.23883e-07
8.76302e-09
4.25082e-07
8.85096e-09
4.26291e-07
8.93601e-09
4.27509e-07
9.01862e-09
4.28736e-07
9.09918e-09
4.29973e-07
9.17809e-09
4.31221e-07
9.25571e-09
4.32478e-07
9.3324e-09
4.33745e-07
9.40849e-09
4.35023e-07
9.48431e-09
4.36312e-07
9.5602e-09
9.63647e-09
3.60778e-07
-1.42938e-08
3.61898e-07
-1.25761e-08
3.63023e-07
-1.09823e-08
3.64154e-07
-9.50482e-09
3.65289e-07
-8.13617e-09
3.66431e-07
-6.86933e-09
3.67577e-07
-5.69762e-09
3.68729e-07
-4.61466e-09
3.69887e-07
-3.61442e-09
3.7105e-07
-2.6912e-09
3.72219e-07
-1.83962e-09
3.73394e-07
-1.0546e-09
3.74576e-07
-3.3136e-10
3.75763e-07
3.34594e-10
3.76957e-07
9.47489e-10
3.78158e-07
1.5113e-09
3.79365e-07
2.02974e-09
3.8058e-07
2.50631e-09
3.81802e-07