/*--------------------------------*- C++ -*----------------------------------*\
  =========                 |
  \\      /  F ield         | OpenFOAM: The Open Source CFD Toolbox
   \\    /   O peration     | Website:  https://openfoam.org
    \\  /    A nd           | Version:  6
     \\/     M anipulation  |
\*---------------------------------------------------------------------------*/
FoamFile
{
    version     2.0;
    format      ascii;
    class       volVectorField;
    location    "0.06";
    object      U;
}
// * * * * * * * * * * * * * * * * * * * * * * * * * * * * * * * * * * * * * //

dimensions      [0 1 -1 0 0 0 0];

internalField   nonuniform List<vector> 
3081
(
(0.433329 -0.000878168 7.43214e-21)
(0.43467 -0.000795491 7.37664e-21)
(0.435892 -0.000720296 7.32266e-21)
(0.437005 -0.00065197 0)
(0.438018 -0.000589933 0)
(0.438938 -0.000533642 0)
(0.439774 -0.000482586 7.12056e-21)
(0.440533 -0.000436285 0)
(0.441222 -0.000394203 0)
(0.441845 -0.000355807 -6.98173e-21)
(0.442408 -0.000320335 0)
(0.442917 -0.000284045 0)
(0.443357 -0.000245021 -6.85224e-21)
(0.443739 -0.000207805 0)
(0.444072 -0.000176625 0)
(0.444364 -0.000152002 6.73053e-21)
(0.444621 -0.000132693 6.69153e-21)
(0.44485 -0.000117353 0)
(0.445053 -0.000104924 -6.61559e-21)
(0.445234 -9.46255e-05 0)
(0.445397 -8.59162e-05 6.54216e-21)
(0.445543 -7.84389e-05 0)
(0.445674 -7.19587e-05 6.47095e-21)
(0.445793 -6.63116e-05 6.4361e-21)
(0.4459 -6.1376e-05 0)
(0.445997 -5.70564e-05 0)
(0.446084 -5.32744e-05 0)
(0.446164 -4.99643e-05 0)
(0.446237 -4.70701e-05 0)
(0.446304 -4.4544e-05 0)
(0.446366 -4.2345e-05 0)
(0.446422 -4.0438e-05 6.17216e-21)
(0.446475 -3.87921e-05 -6.1407e-21)
(0.446524 -3.738e-05 0)
(0.44657 -3.61775e-05 0)
(0.446613 -3.51627e-05 0)
(0.446654 -3.43162e-05 0)
(0.446693 -3.362e-05 -1.19747e-20)
(0.446731 -3.30581e-05 0)
(0.446767 -3.26155e-05 1.18552e-20)
(0.446803 -3.22784e-05 -1.17961e-20)
(0.446837 -3.20336e-05 0)
(0.446871 -3.18691e-05 0)
(0.446905 -3.17729e-05 0)
(0.446939 -3.17335e-05 1.15631e-20)
(0.446972 -3.17398e-05 1.15057e-20)
(0.447006 -3.17808e-05 0)
(0.44704 -3.18454e-05 1.13917e-20)
(0.447074 -3.19228e-05 1.13351e-20)
(0.447108 -3.20023e-05 -1.12789e-20)
(0.447142 -3.20736e-05 0)
(0.447177 -3.21268e-05 0)
(0.447212 -3.21515e-05 -1.11117e-20)
(0.447247 -3.21372e-05 0)
(0.447282 -3.20735e-05 0)
(0.447317 -3.19497e-05 0)
(0.447352 -3.17555e-05 0)
(0.457116 -0.00219826 5.53979e-21)
(0.458699 -0.00199039 -5.53567e-21)
(0.460145 -0.00180104 -5.50709e-21)
(0.461467 -0.00162874 0)
(0.462674 -0.00147208 0)
(0.463774 -0.00132977 0)
(0.464778 -0.00120056 -5.39688e-21)
(0.465692 -0.0010833 0)
(0.466523 -0.000976782 1.06768e-20)
(0.46728 -0.000879826 1.59448e-20)
(0.467969 -0.000790873 -1.05766e-20)
(0.468596 -0.000706827 0)
(0.469178 -0.000626826 -5.23535e-21)
(0.469715 -0.000553979 0)
(0.470207 -0.000490267 -1.03824e-20)
(0.470654 -0.000435183 5.16452e-21)
(0.471058 -0.000387459 5.14143e-21)
(0.471423 -0.000345993 0)
(0.471753 -0.000309861 1.52968e-20)
(0.47205 -0.000278266 -1.01511e-20)
(0.472319 -0.00025055 -5.05502e-21)
(0.472561 -0.000226184 0)
(0.47278 -0.000204733 -5.01057e-21)
(0.472978 -0.000185837 -1.49632e-20)
(0.473157 -0.000169189 0)
(0.473319 -0.000154522 -9.88851e-21)
(0.473467 -0.000141607 -9.84598e-21)
(0.473601 -0.000130242 -9.80375e-21)
(0.473723 -0.000120251 0)
(0.473835 -0.000111479 0)
(0.473937 -0.00010379 0)
(0.474031 -9.70635e-05 4.81791e-21)
(0.474117 -9.1194e-05 4.79881e-21)
(0.474197 -8.60875e-05 0)
(0.474271 -8.16609e-05 9.51461e-21)
(0.47434 -7.78405e-05 9.47402e-21)
(0.474404 -7.45607e-05 0)
(0.474465 -7.17628e-05 9.39429e-21)
(0.474522 -6.93941e-05 1.87061e-20)
(0.474576 -6.74067e-05 -9.31387e-21)
(0.474628 -6.57572e-05 -9.27199e-21)
(0.474677 -6.44053e-05 0)
(0.474725 -6.33142e-05 0)
(0.474772 -6.24493e-05 0)
(0.474817 -6.17778e-05 -9.11432e-21)
(0.474861 -6.12689e-05 9.07306e-21)
(0.474905 -6.08931e-05 1.80684e-20)
(0.474948 -6.06223e-05 -8.99534e-21)
(0.47499 -6.0429e-05 8.95431e-21)
(0.475033 -6.02867e-05 8.91624e-21)
(0.475075 -6.01695e-05 0)
(0.475117 -6.0052e-05 0)
(0.47516 -5.99086e-05 -8.79655e-21)
(0.475202 -5.97134e-05 0)
(0.475244 -5.94407e-05 0)
(0.475286 -5.9064e-05 1.73587e-20)
(0.475329 -5.85586e-05 0)
(0.46523 -0.00388471 -8.79745e-21)
(0.466924 -0.00352291 0)
(0.468475 -0.00319269 0)
(0.469894 -0.00289159 0)
(0.471192 -0.00261733 0)
(0.472377 -0.00236773 0)
(0.473459 -0.00214077 -8.5893e-21)
(0.474447 -0.00193453 0)
(0.475347 -0.00174719 -8.53536e-21)
(0.476168 -0.00157704 -8.50271e-21)
(0.476915 -0.00142251 8.47018e-21)
(0.477596 -0.0012822 0)
(0.478218 -0.00115422 8.40569e-21)
(0.478787 -0.00103702 0)
(0.479308 -0.000930441 8.3407e-21)
(0.479784 -0.000834434 -8.30834e-21)
(0.480217 -0.000748558 -2.48193e-20)
(0.480611 -0.000672089 0)
(0.480968 -0.000604179 -2.46296e-20)
(0.481292 -0.000543943 -8.17385e-21)
(0.481586 -0.000490536 0)
(0.481852 -0.000443192 -1.62303e-20)
(0.482093 -0.000401229 -1.61685e-20)
(0.482312 -0.000364043 2.41628e-20)
(0.48251 -0.000331103 0)
(0.48269 -0.000301938 7.99418e-21)
(0.482853 -0.000276132 7.96348e-21)
(0.483002 -0.000253316 2.37953e-20)
(0.483138 -0.000233161 0)
(0.483261 -0.000215375 0)
(0.483375 -0.000199701 0)
(0.483478 -0.000185907 7.8087e-21)
(0.483574 -0.000173789 0)
(0.483662 -0.000163167 0)
(0.483743 -0.00015388 -7.72006e-21)
(0.483819 -0.000145784 -7.68975e-21)
(0.483889 -0.000138752 0)
(0.483955 -0.00013267 0)
(0.484017 -0.000127435 -1.51975e-20)
(0.484076 -0.000122955 0)
(0.484132 -0.000119147 1.5076e-20)
(0.484185 -0.000115934 1.5014e-20)
(0.484236 -0.000113246 0)
(0.484285 -0.000111018 0)
(0.484332 -0.000109189 -1.48311e-20)
(0.484379 -0.000107704 -9.98819e-25)
(0.484424 -0.000106509 -9.64088e-25)
(0.484469 -0.000105553 0)
(0.484513 -0.000104787 -2.91727e-20)
(0.484557 -0.000104165 0)
(0.4846 -0.00010364 0)
(0.484643 -0.000103168 0)
(0.484686 -0.000102703 1.43399e-20)
(0.484729 -0.000102202 0)
(0.484771 -0.00010162 -2.84303e-20)
(0.484814 -0.000100913 -1.41538e-20)
(0.484856 -0.000100036 0)
(0.46993 -0.00566528 -1.49503e-20)
(0.471689 -0.00514256 1.49106e-20)
(0.473301 -0.00466486 1.48695e-20)
(0.474779 -0.00422876 -1.48273e-20)
(0.476131 -0.00383105 -1.4784e-20)
(0.477368 -0.0034687 0)
(0.478498 -0.00313887 -7.33776e-21)
(0.47953 -0.0028389 0)
(0.480472 -0.00256629 0)
(0.481332 -0.00231872 -1.45564e-20)
(0.482115 -0.00209405 0)
(0.482829 -0.00189032 0)
(0.48348 -0.00170534 -1.44146e-20)
(0.484074 -0.00153708 0)
(0.484616 -0.0013843 0)
(0.48511 -0.00124616 0)
(0.485561 -0.00112176 2.84435e-20)
(0.485972 -0.0010101 0)
(0.486345 -0.000910126 2.82439e-20)
(0.486684 -0.000820795 1.40752e-20)
(0.486992 -0.000741087 1.40196e-20)
(0.487271 -0.000670044 5.06032e-24)
(0.487525 -0.000606784 1.39251e-20)
(0.487755 -0.000550504 -2.77462e-20)
(0.487963 -0.000500476 -1.38215e-20)
(0.488153 -0.000456044 0)
(0.488325 -0.000416617 -1.37223e-20)
(0.488482 -0.000381665 -2.73482e-20)
(0.488625 -0.000350711 0)
(0.488755 -0.000323329 0)
(0.488874 -0.000299137 0)
(0.488983 -0.000277794 -2.05272e-24)
(0.489083 -0.000258994 0)
(0.489175 -0.000242467 0)
(0.48926 -0.00022797 0)
(0.489338 -0.000215287 0)
(0.489412 -0.000204225 2.64442e-20)
(0.48948 -0.000194612 0)
(0.489544 -0.000186292 -2.62413e-20)
(0.489604 -0.000179125 0)
(0.489661 -0.000172985 -2.60372e-20)
(0.489715 -0.000167758 -1.29683e-20)
(0.489767 -0.000163336 2.58318e-20)
(0.489816 -0.000159624 -2.57285e-20)
(0.489864 -0.000156531 -1.28117e-20)
(0.489911 -0.000153974 1.27598e-20)
(0.489956 -0.000151875 -1.27091e-20)
(0.49 -0.000150158 0)
(0.490044 -0.000148752 -1.26029e-20)
(0.490087 -0.00014759 0)
(0.49013 -0.000146605 0)
(0.490172 -0.000145731 0)
(0.490214 -0.000144905 -2.47838e-20)
(0.490255 -0.000144064 0)
(0.490297 -0.000143144 1.075e-24)
(0.490338 -0.000142081 0)
(0.490379 -0.000140813 0)
(0.473323 -0.00750292 2.67033e-20)
(0.475118 -0.00681575 -1.33348e-20)
(0.476765 -0.00618711 -2.65822e-20)
(0.478275 -0.00561264 1.32694e-20)
(0.479659 -0.00508824 1.32349e-20)
(0.480925 -0.00461001 0)
(0.482084 -0.00417433 1.68319e-23)
(0.483143 -0.00377777 0)
(0.48411 -0.00341715 -1.30735e-20)
(0.484993 -0.0030895 1.30492e-20)
(0.485799 -0.00279209 0)
(0.486533 -0.00252235 0)
(0.487203 -0.00227772 1.29308e-20)
(0.487813 -0.00205578 -1.28812e-20)
(0.488369 -0.00185457 0)
(0.488876 -0.00167251 0)
(0.489338 -0.00150814 -1.27633e-20)
(0.489758 -0.00136009 0)
(0.490141 -0.00122701 -1.2678e-20)
(0.490489 -0.00110763 0)
(0.490805 -0.00100071 -1.25924e-20)
(0.491092 -0.000905091 1.25495e-20)
(0.491353 -0.000819679 -2.50045e-20)
(0.49159 -0.000743478 1.24634e-20)
(0.491804 -0.00067557 1.24203e-20)
(0.491999 -0.000615118 0)
(0.492177 -0.000561363 1.23337e-20)
(0.492338 -0.000513614 1.22903e-20)
(0.492484 -0.000471248 0)
(0.492618 -0.000433704 0)
(0.49274 -0.000400475 2.43142e-20)
(0.492851 -0.000371107 -1.21152e-20)
(0.492954 -0.000345193 2.41387e-20)
(0.493047 -0.000322367 0)
(0.493134 -0.000302303 0)
(0.493213 -0.00028471 0)
(0.493287 -0.000269326 -4.75698e-20)
(0.493356 -0.000255916 0)
(0.49342 -0.00024427 2.3606e-20)
(0.493481 -0.000234198 0)
(0.493538 -0.00022553 2.34243e-20)
(0.493591 -0.000218107 0)
(0.493643 -0.000211789 -2.32409e-20)
(0.493692 -0.000206444 2.31487e-20)
(0.493739 -0.000201952 2.3056e-20)
(0.493784 -0.0001982 -2.29629e-20)
(0.493828 -0.000195084 0)
(0.493872 -0.000192504 0)
(0.493914 -0.000190367 1.11342e-24)
(0.493955 -0.000188582 0)
(0.493996 -0.000187062 0)
(0.494037 -0.000185722 0)
(0.494077 -0.000184479 2.23e-20)
(0.494117 -0.000183251 0)
(0.494156 -0.000181956 2.21073e-20)
(0.494196 -0.000180511 0)
(0.494235 -0.000178835 2.19125e-20)
(0.476082 -0.00936219 -1.22679e-20)
(0.477888 -0.00851015 0)
(0.479547 -0.00772998 1.22191e-20)
(0.48107 -0.00701643 0)
(0.482466 -0.00636451 -1.21465e-20)
(0.483745 -0.00576952 0)
(0.484916 -0.00522705 1.53703e-23)
(0.485987 -0.00473293 0)
(0.486966 -0.00428329 1.20422e-20)
(0.48786 -0.00387452 0)
(0.488676 -0.00350326 0)
(0.489421 -0.00316638 0)
(0.490099 -0.00286086 0)
(0.490718 -0.00258389 1.18729e-20)
(0.491281 -0.00233295 0)
(0.491794 -0.00210585 0)
(0.492262 -0.00190065 2.35082e-20)
(0.492688 -0.00171554 0)
(0.493075 -0.00154883 0)
(0.493427 -0.00139895 0)
(0.493747 -0.00126441 2.32077e-20)
(0.494037 -0.00114381 0)
(0.494301 -0.00103586 2.30636e-20)
(0.494541 -0.000939356 0)
(0.494758 -0.000853193 -2.29017e-20)
(0.494955 -0.000776355 2.28244e-20)
(0.495135 -0.000707915 0)
(0.495297 -0.000647028 -2.26686e-20)
(0.495445 -0.000592927 0)
(0.49558 -0.000544915 0)
(0.495703 -0.000502364 -4.48682e-20)
(0.495815 -0.000464707 2.23525e-20)
(0.495917 -0.000431433 -2.22759e-20)
(0.496011 -0.000402083 0)
(0.496098 -0.000376247 0)
(0.496177 -0.000353555 0)
(0.49625 -0.000333676 4.3899e-20)
(0.496318 -0.000316312 0)
(0.496382 -0.000301197 -2.17836e-20)
(0.496441 -0.000288089 0)
(0.496497 -0.00027677 0)
(0.496549 -0.000267043 0)
(0.496599 -0.000258726 0)
(0.496647 -0.000251654 -2.1364e-20)
(0.496692 -0.000245675 0)
(0.496736 -0.000240648 2.11929e-20)
(0.496778 -0.000236441 -2.11067e-20)
(0.496819 -0.000232931 -2.102e-20)
(0.49686 -0.000229999 2.09339e-20)
(0.496899 -0.000227535 0)
(0.496938 -0.00022543 0)
(0.496976 -0.00022358 0)
(0.497014 -0.000221884 0)
(0.497051 -0.000220239 0)
(0.497089 -0.000218547 0)
(0.497126 -0.000216708 0)
(0.497162 -0.000214621 -2.02221e-20)
(0.480304 -0.0102057 0)
(0.481955 -0.00927506 -2.28319e-20)
(0.483471 -0.00842327 0)
(0.484863 -0.00764448 1.13895e-20)
(0.486139 -0.00693319 0)
(0.487307 -0.00628422 -1.13097e-20)
(0.488377 -0.0056927 0)
(0.489355 -0.00515409 2.25424e-20)
(0.490249 -0.00466413 2.24867e-20)
(0.491066 -0.00421887 -2.24295e-20)
(0.491811 -0.00381461 0)
(0.49249 -0.00344785 0)
(0.493109 -0.00311536 2.22496e-20)
(0.493673 -0.00281413 0)
(0.494187 -0.00254151 2.21177e-20)
(0.494654 -0.00229505 -1.31598e-23)
(0.49508 -0.00207255 -2.1982e-20)
(0.495467 -0.00187196 0)
(0.495819 -0.00169137 0)
(0.496139 -0.00152904 -2.17845e-20)
(0.496429 -0.00138331 0)
(0.496693 -0.00125267 0)
(0.496932 -0.0011357 -2.15642e-20)
(0.497149 -0.00103113 2.14999e-20)
(0.497346 -0.00093774 -4.28495e-20)
(0.497524 -0.000854451 0)
(0.497686 -0.000780263 2.12826e-20)
(0.497833 -0.000714264 0)
(0.497967 -0.000655628 0)
(0.498089 -0.000603605 4.21199e-20)
(0.4982 -0.000557516 -2.09876e-20)
(0.498301 -0.000516749 0)
(0.498393 -0.000480751 0)
(0.498478 -0.000449027 0)
(0.498556 -0.000421129 0)
(0.498628 -0.000396657 -2.06093e-20)
(0.498694 -0.000375249 2.05301e-20)
(0.498755 -0.000356582 2.04549e-20)
(0.498813 -0.000340361 0)
(0.498866 -0.000326322 0)
(0.498917 -0.000314224 0)
(0.498964 -0.000303848 2.0139e-20)
(0.499009 -0.000294994 4.012e-20)
(0.499052 -0.000287477 0)
(0.499094 -0.000281127 -5.96968e-20)
(0.499133 -0.000275785 1.98185e-20)
(0.499172 -0.000271303 1.97368e-20)
(0.49921 -0.000267541 0)
(0.499246 -0.000264364 -3.91426e-20)
(0.499282 -0.000261646 0)
(0.499318 -0.000259263 0)
(0.499353 -0.000257093 0)
(0.499387 -0.00025502 0)
(0.499422 -0.000252926 -3.8305e-20)
(0.499456 -0.000250695 0)
(0.49949 -0.000248208 0)
(0.482528 -0.0118835 0)
(0.484153 -0.0108052 2.16877e-20)
(0.485646 -0.00981746 0)
(0.487017 -0.00891379 2.15761e-20)
(0.488274 -0.0080879 0)
(0.489427 -0.00733388 2.1518e-20)
(0.490483 -0.00664619 0)
(0.491449 -0.00601962 -2.14195e-20)
(0.492332 -0.00544932 -4.27129e-20)
(0.493139 -0.00493074 2.1314e-20)
(0.493876 -0.00445964 0)
(0.494548 -0.00403206 -2.11853e-20)
(0.495161 -0.00364429 -2.11456e-20)
(0.495719 -0.00329293 0)
(0.496227 -0.00297485 -2.10214e-20)
(0.496689 -0.0026872 -2.09574e-20)
(0.49711 -0.00242737 2.0893e-20)
(0.497492 -0.00219296 -2.08171e-20)
(0.49784 -0.00198175 2.07526e-20)
(0.498156 -0.00179169 2.06877e-20)
(0.498442 -0.0016209 0)
(0.498702 -0.00146763 0)
(0.498938 -0.00133025 7.27949e-24)
(0.499152 -0.00120729 0)
(0.499345 -0.00109736 2.03623e-20)
(0.499521 -0.000999225 2.02885e-20)
(0.49968 -0.000911719 0)
(0.499825 -0.000833799 0)
(0.499955 -0.000764508 2.00827e-20)
(0.500074 -0.000702976 -2.00172e-20)
(0.500182 -0.000648416 0)
(0.500281 -0.000600115 0)
(0.50037 -0.000557428 0)
(0.500452 -0.000519775 1.97305e-20)
(0.500527 -0.000486632 1.96586e-20)
(0.500596 -0.00045753 0)
(0.500659 -0.000432043 -1.95155e-20)
(0.500718 -0.000409789 0)
(0.500772 -0.000390424 0)
(0.500823 -0.000373634 0)
(0.50087 -0.000359138 0)
(0.500915 -0.000346676 -1.9143e-20)
(0.500957 -0.000336014 -1.9067e-20)
(0.500997 -0.000326935 -3.79787e-20)
(0.501035 -0.00031924 3.78272e-20)
(0.501071 -0.000312742 3.76703e-20)
(0.501107 -0.00030727 3.75147e-20)
(0.501141 -0.00030266 0)
(0.501175 -0.000298757 7.4403e-20)
(0.501207 -0.000295415 0)
(0.501239 -0.00029249 0)
(0.501271 -0.000289845 0)
(0.501302 -0.000287344 0)
(0.501333 -0.000284856 3.64014e-20)
(0.501364 -0.000282248 0)
(0.501394 -0.000279384 0)
(0.486239 -0.0123039 2.07323e-20)
(0.487693 -0.011184 0)
(0.489028 -0.0101587 -2.06965e-20)
(0.490254 -0.0092211 0)
(0.491378 -0.00836458 2.05883e-20)
(0.492408 -0.00758294 0)
(0.493351 -0.00687037 2.05017e-20)
(0.494214 -0.00622141 2.04772e-20)
(0.495002 -0.00563099 -2.04077e-20)
(0.495722 -0.00509433 0)
(0.496379 -0.00460701 4.0632e-20)
(0.496978 -0.00416489 0)
(0.497524 -0.00376414 0)
(0.498021 -0.00340123 0)
(0.498473 -0.00307292 0)
(0.498884 -0.00277622 0)
(0.499257 -0.00250841 1.99717e-20)
(0.499597 -0.00226695 -1.99098e-20)
(0.499905 -0.00204953 -1.98475e-20)
(0.500184 -0.00185399 0)
(0.500437 -0.00167836 0)
(0.500667 -0.00152081 7.29948e-24)
(0.500874 -0.00137967 0)
(0.501062 -0.00125339 1.9523e-20)
(0.501233 -0.00114055 -3.89227e-20)
(0.501387 -0.00103985 0)
(0.501526 -0.000950116 3.86562e-20)
(0.501653 -0.000870255 -5.77909e-20)
(0.501767 -0.000799286 0)
(0.501871 -0.000736312 -3.82578e-20)
(0.501965 -0.000680523 0)
(0.50205 -0.000631185 0)
(0.502128 -0.000587633 -1.89281e-20)
(0.502199 -0.000549271 -1.88589e-20)
(0.502264 -0.000515557 3.75739e-20)
(0.502323 -0.000486006 3.74341e-20)
(0.502378 -0.000460179 0)
(0.502428 -0.000437678 0)
(0.502475 -0.000418146 0)
(0.502519 -0.000401256 0)
(0.502559 -0.000386713 0)
(0.502597 -0.000374245 0)
(0.502633 -0.000363606 7.28565e-20)
(0.502668 -0.000354565 0)
(0.502701 -0.000346913 -2.01046e-24)
(0.502732 -0.000340451 -3.59823e-20)
(0.502763 -0.000334994 3.58296e-20)
(0.502792 -0.000330367 -3.56794e-20)
(0.502821 -0.000326404 0)
(0.502849 -0.000322944 0)
(0.502877 -0.000319833 0)
(0.502904 -0.000316921 0)
(0.502931 -0.000314058 3.49057e-20)
(0.502958 -0.000311098 0)
(0.502985 -0.000307891 3.45912e-20)
(0.488277 -0.0137558 -3.40577e-23)
(0.489675 -0.0125087 -1.99731e-20)
(0.490961 -0.0113662 0)
(0.492142 -0.0103209 0)
(0.493225 -0.00936545 -3.9767e-20)
(0.494219 -0.00849304 0)
(0.495129 -0.00769728 -2.29101e-23)
(0.495961 -0.00697218 0)
(0.496723 -0.00631212 1.97221e-20)
(0.497418 -0.00571186 0)
(0.498052 -0.00516653 -1.96252e-20)
(0.498631 -0.00467155 0)
(0.499158 -0.00422271 0)
(0.499638 -0.0038161 -1.94497e-20)
(0.500075 -0.00344811 0)
(0.500471 -0.00311542 0)
(0.500832 -0.00281497 0)
(0.501159 -0.00254395 1.92193e-20)
(0.501455 -0.00229977 1.91604e-20)
(0.501724 -0.00208004 0)
(0.501968 -0.00188254 3.80818e-20)
(0.502188 -0.00170526 1.89878e-20)
(0.502387 -0.00154633 -3.78388e-20)
(0.502568 -0.00140403 -1.88641e-20)
(0.50273 -0.00127679 -1.87901e-20)
(0.502877 -0.00116317 3.74667e-20)
(0.50301 -0.00106185 -9.68362e-24)
(0.50313 -0.000971618 3.72226e-20)
(0.503238 -0.000891384 3.70857e-20)
(0.503336 -0.000820147 7.39208e-20)
(0.503425 -0.000757001 -3.68266e-20)
(0.503505 -0.000701123 0)
(0.503577 -0.000651771 -3.65634e-20)
(0.503643 -0.000608274 -3.64303e-20)
(0.503703 -0.000570024 -3.6301e-20)
(0.503757 -0.000536473 -4.39014e-24)
(0.503807 -0.000507129 0)
(0.503852 -0.000481542 0)
(0.503894 -0.00045931 0)
(0.503933 -0.000440064 0)
(0.503969 -0.000423471 0)
(0.504003 -0.000409226 0)
(0.504034 -0.000397051 -7.03738e-20)
(0.504064 -0.000386689 0)
(0.504093 -0.000377901 -6.97977e-20)
(0.50412 -0.000370468 0)
(0.504145 -0.000364182 -6.92138e-20)
(0.504171 -0.000358849 0)
(0.504195 -0.000354283 3.43105e-20)
(0.504219 -0.000350309 0)
(0.504242 -0.000346755 -3.40113e-20)
(0.504265 -0.000343456 0)
(0.504288 -0.00034025 -6.74186e-20)
(0.50431 -0.000336974 0)
(0.504333 -0.000333467 -3.34039e-20)
(0.490305 -0.0151464 -1.94449e-20)
(0.491634 -0.0137782 1.94168e-20)
(0.492857 -0.0125243 0)
(0.49398 -0.0113762 0)
(0.495012 -0.0103263 1.9316e-20)
(0.495959 -0.00936717 0)
(0.496826 -0.00849184 -3.84522e-20)
(0.49762 -0.00769383 0)
(0.498346 -0.00696704 0)
(0.499009 -0.00630578 0)
(0.499614 -0.00570473 -1.90422e-20)
(0.500166 -0.00515893 0)
(0.500669 -0.00466381 0)
(0.501126 -0.00421508 5.66853e-20)
(0.501543 -0.00380881 0)
(0.501921 -0.00344137 0)
(0.502264 -0.0031094 0)
(0.502575 -0.00280981 -5.60156e-20)
(0.502857 -0.00253976 -1.8621e-20)
(0.503112 -0.00229661 0)
(0.503343 -0.00207795 -3.70083e-20)
(0.503552 -0.00188157 -3.68752e-20)
(0.50374 -0.00170541 7.35279e-20)
(0.50391 -0.0015476 -3.6638e-20)
(0.504063 -0.0014064 3.65295e-20)
(0.504201 -0.00128025 -1.07047e-23)
(0.504325 -0.00116769 -3.62844e-20)
(0.504437 -0.0010674 0)
(0.504538 -0.000978167 -3.60353e-20)
(0.504628 -0.000898904 -3.59094e-20)
(0.50471 -0.00082861 3.57824e-20)
(0.504783 -0.000766378 0)
(0.504849 -0.000711388 5.83247e-24)
(0.504908 -0.000662898 7.07857e-20)
(0.504962 -0.000620238 0)
(0.505011 -0.000582799 -3.51325e-20)
(0.505055 -0.000550035 0)
(0.505095 -0.000521449 0)
(0.505131 -0.000496593 0)
(0.505164 -0.000475059 0)
(0.505195 -0.000456477 0)
(0.505223 -0.000440509 0)
(0.50525 -0.000426846 3.41801e-20)
(0.505274 -0.000415203 0)
(0.505297 -0.000405319 3.38989e-20)
(0.505319 -0.000396951 -3.3755e-20)
(0.50534 -0.000389869 3.36138e-20)
(0.50536 -0.000383862 0)
(0.50538 -0.000378727 -3.33249e-20)
(0.505399 -0.00037427 0)
(0.505417 -0.000370307 1.21014e-24)
(0.505435 -0.000366659 0)
(0.505453 -0.00036315 1.05064e-24)
(0.505471 -0.000359605 0)
(0.505488 -0.00035585 0)
(0.492347 -0.0164624 1.89295e-20)
(0.493594 -0.0149804 0)
(0.494742 -0.0136215 0)
(0.495797 -0.0123767 -1.88483e-20)
(0.496767 -0.0112377 0)
(0.497656 -0.0101966 0)
(0.498472 -0.00924612 1.87671e-20)
(0.499219 -0.00837913 1.87058e-20)
(0.499902 -0.00758914 0)
(0.500526 -0.00687003 0)
(0.501096 -0.0062161 1.8597e-20)
(0.501615 -0.00562202 -3.70697e-20)
(0.502088 -0.00508287 0)
(0.502519 -0.00459404 -3.68938e-20)
(0.50291 -0.00415129 0)
(0.503265 -0.00375069 0)
(0.503587 -0.00338862 -3.65447e-20)
(0.503879 -0.00306173 3.64559e-20)
(0.504143 -0.00276693 3.63247e-20)
(0.504382 -0.00250139 0)
(0.504597 -0.00226249 0)
(0.504792 -0.00204781 3.60015e-20)
(0.504967 -0.00185516 -3.58855e-20)
(0.505124 -0.00168248 3.57684e-20)
(0.505266 -0.00152791 -3.56385e-20)
(0.505393 -0.00138974 -3.55313e-20)
(0.505507 -0.00126639 -3.54013e-20)
(0.505609 -0.00115645 -3.52811e-20)
(0.505701 -0.00105859 0)
(0.505783 -0.00097162 3.50375e-20)
(0.505856 -0.000894461 3.49142e-20)
(0.505921 -0.000826127 0)
(0.50598 -0.000765722 3.46702e-20)
(0.506032 -0.000712438 -5.43714e-24)
(0.506078 -0.000665542 3.441e-20)
(0.50612 -0.000624371 0)
(0.506158 -0.000588325 0)
(0.506191 -0.000556862 0)
(0.506221 -0.000529491 0)
(0.506248 -0.000505765 0)
(0.506273 -0.000485279 0)
(0.506295 -0.000467664 -3.34867e-20)
(0.506316 -0.000452582 0)
(0.506335 -0.000439722 -3.32135e-20)
(0.506352 -0.000428798 0)
(0.506368 -0.000419546 3.2938e-20)
(0.506383 -0.000411717 0)
(0.506398 -0.000405082 0)
(0.506412 -0.000399421 -3.2513e-20)
(0.506425 -0.000394526 0)
(0.506438 -0.0003902 6.44536e-20)
(0.506451 -0.000386249 0)
(0.506463 -0.000382488 3.1937e-20)
(0.506476 -0.000378729 0)
(0.506488 -0.000374788 0)
(0.5065 -0.000370471 0)
(0.494415 -0.0176915 -3.24984e-23)
(0.495568 -0.016104 0)
(0.49663 -0.0146475 0)
(0.497607 -0.0133128 1.84833e-20)
(0.498505 -0.0120909 0)
(0.49933 -0.0109735 0)
(0.500086 -0.0099528 3.67145e-20)
(0.500778 -0.00902137 1.8299e-20)
(0.501412 -0.00817227 0)
(0.50199 -0.00739902 0)
(0.502519 -0.00669553 0)
(0.503 -0.00605616 3.63436e-20)
(0.503439 -0.00547566 0)
(0.503837 -0.00494912 0)
(0.504199 -0.00447203 0)
(0.504528 -0.00404019 0)
(0.504825 -0.00364973 7.16199e-20)
(0.505095 -0.00329707 -3.56919e-20)
(0.505338 -0.00297891 -1.93939e-23)
(0.505557 -0.0026922 3.5475e-20)
(0.505755 -0.00243416 0)
(0.505933 -0.00220218 -3.52536e-20)
(0.506093 -0.00199391 0)
(0.506236 -0.00180716 3.50278e-20)
(0.506364 -0.00163992 3.49253e-20)
(0.506479 -0.00149037 0)
(0.506581 -0.00135681 3.46912e-20)
(0.506672 -0.00123771 6.91358e-20)
(0.506753 -0.00113167 0)
(0.506825 -0.00103739 -3.43323e-20)
(0.506889 -0.000953726 -6.84141e-20)
(0.506945 -0.000879604 0)
(0.506995 -0.000814065 0)
(0.507039 -0.000756236 -6.76734e-20)
(0.507078 -0.000705325 -5.07144e-24)
(0.507112 -0.000660618 0)
(0.507142 -0.000621465 0)
(0.507168 -0.000587281 0)
(0.507191 -0.000557533 -3.31964e-20)
(0.507212 -0.000531738 0)
(0.507229 -0.000509459 0)
(0.507245 -0.000490296 6.56046e-20)
(0.507259 -0.000473883 3.26671e-20)
(0.507272 -0.000459885 3.25343e-20)
(0.507283 -0.000447994 0)
(0.507293 -0.000437924 0)
(0.507302 -0.000429411 -3.21213e-20)
(0.50731 -0.000422205 0)
(0.507318 -0.000416074 -3.18411e-20)
(0.507326 -0.000410796 0)
(0.507333 -0.000406161 -3.15612e-20)
(0.50734 -0.000401965 0)
(0.507346 -0.00039801 -6.25482e-20)
(0.507353 -0.000394101 -6.22597e-20)
(0.50736 -0.000390042 6.19696e-20)
(0.507367 -0.000385633 0)
(0.497561 -0.0171389 3.63648e-20)
(0.498528 -0.0155932 0)
(0.499418 -0.014176 0)
(0.500237 -0.012878 -3.62041e-20)
(0.500988 -0.0116905 0)
(0.501677 -0.0106052 -3.61187e-20)
(0.502308 -0.00961448 -3.60446e-20)
(0.502886 -0.0087109 0)
(0.503414 -0.00788766 -3.5849e-20)
(0.503895 -0.00713838 0)
(0.504334 -0.00645711 0)
(0.504733 -0.0058383 3.55866e-20)
(0.505096 -0.0052768 0)
(0.505426 -0.00476782 0)
(0.505724 -0.00430695 0)
(0.505994 -0.00389008 -2.28552e-23)
(0.506237 -0.00351342 3.50975e-20)
(0.506457 -0.00317349 -3.49902e-20)
(0.506655 -0.00286705 -3.48819e-20)
(0.506832 -0.00259114 0)
(0.506992 -0.00234302 6.93087e-20)
(0.507134 -0.00212016 -3.45363e-20)
(0.507261 -0.00192026 -3.44382e-20)
(0.507375 -0.00174119 3.43125e-20)
(0.507475 -0.00158099 0)
(0.507565 -0.00143787 -3.40842e-20)
(0.507643 -0.00131022 -3.3978e-20)
(0.507713 -0.00119651 -3.38515e-20)
(0.507774 -0.00109541 0)
(0.507827 -0.00100565 3.36218e-20)
(0.507874 -0.000926117 0)
(0.507914 -0.000855776 0)
(0.507949 -0.000793698 6.65066e-20)
(0.507979 -0.000739037 -3.31321e-20)
(0.508005 -0.000691028 0)
(0.508027 -0.000648978 0)
(0.508045 -0.000612258 0)
(0.508061 -0.000580299 3.26255e-20)
(0.508074 -0.000552584 0)
(0.508084 -0.000528644 0)
(0.508093 -0.00050805 -3.22345e-20)
(0.5081 -0.000490412 -3.21021e-20)
(0.508106 -0.000475372 -6.39329e-20)
(0.50811 -0.000462601 6.36644e-20)
(0.508114 -0.000451794 -6.33939e-20)
(0.508116 -0.000442669 3.15624e-20)
(0.508118 -0.000434962 0)
(0.50812 -0.000428427 6.25736e-20)
(0.508121 -0.000422831 0)
(0.508121 -0.00041795 0)
(0.508122 -0.000413572 0)
(0.508123 -0.00040949 6.14494e-20)
(0.508123 -0.000405501 1.22326e-19)
(0.508124 -0.0004014 -6.08773e-20)
(0.508125 -0.000396979 -6.05872e-20)
(0.499571 -0.0180763 -3.60204e-20)
(0.500435 -0.0164503 0)
(0.50123 -0.0149587 0)
(0.501961 -0.0135921 3.58565e-20)
(0.502633 -0.0123412 0)
(0.503249 -0.0111976 0)
(0.503813 -0.0101531 3.56087e-20)
(0.50433 -0.00920007 0)
(0.504802 -0.00833143 3.54972e-20)
(0.505232 -0.0075405 3.53799e-20)
(0.505624 -0.00682106 0)
(0.50598 -0.00616732 -3.52302e-20)
(0.506304 -0.0055739 0)
(0.506597 -0.00503578 0)
(0.506862 -0.00454833 0)
(0.507102 -0.00410727 -6.96193e-20)
(0.507317 -0.00370861 -3.46945e-20)
(0.507511 -0.00334869 0)
(0.507685 -0.00302413 0)
(0.507841 -0.0027318 0)
(0.50798 -0.00246882 -1.5925e-23)
(0.508103 -0.00223254 6.83322e-20)
(0.508213 -0.00202054 -3.4048e-20)
(0.50831 -0.00183056 -3.39487e-20)
(0.508395 -0.00166056 -3.38232e-20)
(0.50847 -0.00150864 6.74286e-20)
(0.508536 -0.0013731 3.35936e-20)
(0.508592 -0.00125234 3.34861e-20)
(0.508642 -0.00114493 0)
(0.508684 -0.00104957 0)
(0.50872 -0.000965049 0)
(0.50875 -0.000890288 0)
(0.508775 -0.000824301 -6.57602e-20)
(0.508796 -0.000766193 -3.27537e-20)
(0.508813 -0.000715152 -3.26291e-20)
(0.508826 -0.000670444 0)
(0.508836 -0.000631403 0)
(0.508844 -0.000597424 0)
(0.508849 -0.000567959 0)
(0.508852 -0.00054251 0)
(0.508853 -0.000520622 0)
(0.508853 -0.000501883 0)
(0.508851 -0.000485911 6.31881e-20)
(0.508849 -0.000472359 -6.29185e-20)
(0.508845 -0.000460906 6.26468e-20)
(0.508841 -0.000451254 0)
(0.508836 -0.000443126 0)
(0.508831 -0.000436262 0)
(0.508825 -0.000430418 6.15377e-20)
(0.508819 -0.000425363 0)
(0.508814 -0.000420874 0)
(0.508808 -0.000416738 0)
(0.508802 -0.000412743 -6.0404e-20)
(0.508797 -0.000408681 0)
(0.508791 -0.000404337 1.19649e-19)
(0.501633 -0.0189265 0)
(0.502383 -0.0172281 3.45565e-20)
(0.503074 -0.0156694 -3.45187e-20)
(0.50371 -0.0142406 0)
(0.504294 -0.0129324 0)
(0.504831 -0.0117358 -3.43776e-20)
(0.505322 -0.0106424 -4.40435e-23)
(0.505771 -0.00964443 0)
(0.506182 -0.00873443 -3.42017e-20)
(0.506556 -0.00790551 -3.4173e-20)
(0.506896 -0.00715121 3.40629e-20)
(0.507205 -0.00646553 0)
(0.507485 -0.00584286 -3.38971e-20)
(0.507739 -0.00527803 0)
(0.507967 -0.00476619 -3.37256e-20)
(0.508173 -0.00430289 3.36618e-20)
(0.508358 -0.003884 3.3571e-20)
(0.508523 -0.00350569 0)
(0.508671 -0.00316443 0)
(0.508802 -0.00285697 0)
(0.508919 -0.00258029 -3.31959e-20)
(0.509022 -0.00233164 -6.61833e-20)
(0.509112 -0.00210847 6.59888e-20)
(0.509191 -0.00190843 0)
(0.50926 -0.00172938 3.28022e-20)
(0.509319 -0.00156934 -6.53908e-20)
(0.50937 -0.00142652 -1.01147e-23)
(0.509413 -0.00129925 3.24854e-20)
(0.509449 -0.00118604 -3.23813e-20)
(0.509479 -0.00108551 3.22759e-20)
(0.509504 -0.000996399 0)
(0.509523 -0.000917572 0)
(0.509538 -0.000847992 3.19585e-20)
(0.509548 -0.000786719 3.18478e-20)
(0.509556 -0.000732901 3.17358e-20)
(0.50956 -0.000685763 0)
(0.509561 -0.000644604 0)
(0.50956 -0.000608787 0)
(0.509557 -0.000577736 0)
(0.509551 -0.000550925 0)
(0.509545 -0.000527877 0)
(0.509537 -0.000508155 6.18333e-20)
(0.509527 -0.000491361 -6.15913e-20)
(0.509517 -0.00047713 -6.13469e-20)
(0.509506 -0.000465123 6.11004e-20)
(0.509495 -0.00045503 0)
(0.509483 -0.000446561 0)
(0.50947 -0.000439445 0)
(0.509458 -0.00043343 -6.0095e-20)
(0.509445 -0.000428274 -5.98351e-20)
(0.509432 -0.000423749 0)
(0.50942 -0.000419634 5.93146e-20)
(0.509407 -0.000415713 0)
(0.509395 -0.000411773 0)
(0.509383 -0.000407595 -1.17041e-19)
(0.503657 -0.0196466 0)
(0.50429 -0.0178875 -3.52782e-20)
(0.504874 -0.0162724 7.03868e-20)
(0.505411 -0.0147913 -3.51067e-20)
(0.505906 -0.0134347 -3.50423e-20)
(0.506359 -0.0121932 3.50188e-20)
(0.506774 -0.0110585 -3.49436e-20)
(0.507154 -0.0100223 0)
(0.507501 -0.00907704 3.74992e-23)
(0.507816 -0.0082157 3.46632e-20)
(0.508103 -0.0074316 -3.46007e-20)
(0.508363 -0.00671855 3.44675e-20)
(0.508598 -0.0060708 3.43947e-20)
(0.50881 -0.00548299 3.4263e-20)
(0.509001 -0.00495015 2.49957e-23)
(0.509172 -0.00446767 0)
(0.509325 -0.0040313 0)
(0.509461 -0.00363707 3.38395e-20)
(0.509581 -0.00328135 0)
(0.509688 -0.00296077 -3.36209e-20)
(0.509781 -0.0026722 3.351e-20)
(0.509863 -0.0024128 3.34127e-20)
(0.509933 -0.00217991 -1.36912e-23)
(0.509994 -0.00197112 0)
(0.510046 -0.0017842 0)
(0.510089 -0.00161709 3.29499e-20)
(0.510125 -0.00146793 -9.8854e-24)
(0.510154 -0.001335 -3.27124e-20)
(0.510177 -0.00121674 3.25922e-20)
(0.510195 -0.00111171 -3.24711e-20)
(0.510208 -0.00101861 0)
(0.510216 -0.000936245 0)
(0.51022 -0.000863548 0)
(0.510221 -0.000799534 0)
(0.510219 -0.000743314 0)
(0.510213 -0.000694079 0)
(0.510206 -0.000651099 0)
(0.510196 -0.000613709 0)
(0.510185 -0.000581306 0)
(0.510171 -0.000553343 0)
(0.510157 -0.000529319 -6.21414e-20)
(0.510141 -0.000508781 -6.18815e-20)
(0.510124 -0.000491314 1.23224e-19)
(0.510107 -0.000476536 1.22686e-19)
(0.510089 -0.000464096 -6.10741e-20)
(0.51007 -0.000453672 -6.0798e-20)
(0.510051 -0.000444964 0)
(0.510032 -0.000437693 0)
(0.510012 -0.000431595 0)
(0.509993 -0.000426426 1.19387e-19)
(0.509973 -0.000421949 0)
(0.509954 -0.00041794 -5.91322e-20)
(0.509935 -0.00041418 0)
(0.509916 -0.000410451 0)
(0.509898 -0.000406535 5.82776e-20)
(0.506041 -0.0184047 -3.54108e-20)
(0.506523 -0.016746 -3.53924e-20)
(0.506966 -0.0152243 7.05819e-20)