
961
(
0.788878
0.737969
1.04375
1.30484
0.770228
0.778243
0.927653
0.797221
1.0627
0.846621
1.17248
0.896383
1.26138
0.940905
1.33415
0.979609
1.39421
1.01282
1.44373
1.04089
1.48408
1.06413
1.51617
1.08277
1.54058
1.09703
1.55775
1.10708
1.56796
1.11306
1.57137
1.11506
1.56804
1.11311
1.55792
1.10718
1.54082
1.09717
1.51647
1.08296
1.48444
1.06435
1.44411
1.04113
1.39459
1.01307
1.33451
0.979863
1.26169
0.941143
1.17272
0.896592
1.06286
0.846791
0.927738
0.797345
0.77026
0.778319
0.737973
1.04377
0.788874
1.30483
1.47775
2.0492
0.790638
0.638186
0.587183
0.567292
0.559697
0.557571
0.557901
0.559199
0.560704
0.562049
0.563088
0.563795
0.564196
0.564324
0.564193
0.56379
0.563085
0.562053
0.560722
0.559237
0.557966
0.557667
0.559827
0.567452
0.587363
0.638364
0.790774
1.47779
2.04918
1.71825
2.45949
0.819226
0.608602
0.532993
0.498624
0.480313
0.469189
0.461567
0.455776
0.451065
0.44714
0.443949
0.441556
0.440059
0.43954
0.440029
0.4415
0.443875
0.447058
0.450989
0.455721
0.461547
0.469218
0.480397
0.498763
0.533176
0.608799
0.819379
1.7183
2.45947
1.9301
2.7963
0.871618
0.613556
0.519058
0.475527
0.451894
0.437066
0.426447
0.418015
0.410918
0.404883
0.399927
0.396197
0.393863
0.393056
0.393823
0.396122
0.399827
0.404772
0.410814
0.417936
0.42641
0.437085
0.451977
0.47567
0.519245
0.613748
0.871756
1.93015
2.79631
2.11571
3.08126
0.927418
0.626647
0.514075
0.461579
0.432917
0.4149
0.401982
0.391697
0.383007
0.375587
0.369475
0.364864
0.361978
0.360983
0.361942
0.364796
0.369386
0.375492
0.382924
0.391644
0.401975
0.41495
0.433026
0.461737
0.514258
0.626812
0.927515
2.11577
3.08132
2.27398
3.31682
0.981225
0.641249
0.510405
0.447985
0.413252
0.391116
0.375133
0.362394
0.351655
0.342516
0.335013
0.32937
0.325847
0.324639
0.325821
0.329324
0.334957
0.342463
0.35162
0.362393
0.375177
0.39121
0.413391
0.448151
0.510569
0.64137
0.981271
2.27406
3.31696
2.40492
3.50462
1.03194
0.657001
0.507822
0.434306
0.392058
0.364346
0.343929
0.327507
0.313659
0.30193
0.292359
0.285203
0.280758
0.279245
0.280746
0.285184
0.29234
0.301922
0.313674
0.327555
0.344016
0.364471
0.39221
0.434461
0.507949
0.657068
1.03194
2.40503
3.50487
2.50931
3.64837
1.07848
0.674657
0.508353
0.423256
0.372381
0.337749
0.311506
0.290067
0.271907
0.256567
0.244125
0.234885
0.229178
0.227246
0.229177
0.234887
0.244135
0.256592
0.271955
0.290143
0.311612
0.337878
0.372518
0.423377
0.508431
0.674675
1.07846
2.50948
3.64873
2.58854
3.7536
1.11859
0.693509
0.513156
0.41748
0.357969
0.31589
0.283028
0.255674
0.232319
0.21259
0.196667
0.184922
0.177714
0.175285
0.17772
0.184935
0.19669
0.212627
0.232374
0.25575
0.283123
0.315996
0.358071
0.417556
0.513186
0.693493
1.11857
2.58877
3.75407
2.64509
3.82693
1.1501
0.711291
0.521139
0.417351
0.350622
0.30186
0.26271
0.229483
0.200808
0.17651
0.156953
0.142621
0.133889
0.130959
0.133895
0.142634
0.156974
0.17654
0.20085
0.229539
0.262777
0.301931
0.350683
0.417385
0.521136
0.711262
1.1501
2.64539
3.82748
2.68282
3.87528
1.17246
0.725753
0.529778
0.420823
0.349158
0.295519
0.251513
0.213521
0.180344
0.152058
0.129281
0.112661
0.102599
0.0992389
0.102603
0.112669
0.129292
0.152073
0.180365
0.21355
0.25155
0.295557
0.349186
0.420829
0.529758
0.725724
1.17248
2.68315
3.87589
2.70625
3.9052
1.18684
0.735957
0.536939
0.425189
0.350722
0.294181
0.247146
0.206043
0.169792
0.138667
0.113519
0.0951845
0.0841247
0.0804428
0.0841259
0.0951857
0.113519
0.138667
0.169795
0.206051
0.24716
0.294196
0.350732
0.425182
0.536915
0.735934
1.18688
2.70661
3.90584
2.71965
3.92233
1.19523
0.742263
0.54179
0.428698
0.352859
0.294859
0.246261
0.203503
0.165559
0.132803
0.106237
0.0868386
0.0751446
0.0712556
0.0751433
0.0868345
0.106229
0.132793
0.165549
0.203498
0.246262
0.294863
0.35286
0.428687
0.541767
0.742247
1.19528
2.72003
3.92298
2.72635
3.93089
1.19946
0.745551
0.544448
0.430783
0.354356
0.295727
0.24645
0.202966
0.164265
0.130761
0.10352
0.0835964
0.0715791
0.0675825
0.0715763
0.0835892
0.103507
0.130744
0.164248
0.202954
0.246445
0.295726
0.354354
0.430771
0.544428
0.74554
1.19952
2.72673
3.93154
2.72835
3.93345
1.20073
0.746557
0.545279
0.431457
0.354869
0.296068
0.246607
0.202924
0.164016
0.130305
0.102874
0.0827996
0.0706873
0.0666586
0.0706839
0.0827913
0.10286
0.130286
0.163997
0.20291
0.2466
0.296066
0.354866
0.431445
0.54526
0.746548
1.20079
2.72874
3.93411
2.72635
3.93089
1.19946
0.745554
0.54445
0.430784
0.354357
0.295726
0.246449
0.202964
0.164261
0.130757
0.103516
0.0835929
0.071576
0.0675794
0.0715729
0.0835854
0.103503
0.13074
0.164244
0.202951
0.246443
0.295725
0.354354
0.430773
0.544431
0.745544
1.19952
2.72673
3.93154
2.71966
3.92234
1.19524
0.74227
0.541795
0.428701
0.35286
0.294856
0.246256
0.203495
0.165549
0.132793
0.106227
0.0868295
0.0751365
0.0712477
0.0751347
0.0868246
0.106218
0.13278
0.165537
0.203487
0.246254
0.294858
0.352859
0.42869
0.541774
0.742257
1.19529
2.72004
3.92299
2.70627
3.90524
1.18686
0.735972
0.536949
0.425193
0.35072
0.294172
0.247132
0.206024
0.169771
0.138644
0.113498
0.0951656
0.0841077
0.0804262
0.084108
0.095165
0.113496
0.13864
0.169768
0.206026
0.24714
0.294182
0.350725
0.425185
0.536926
0.735953
1.1869
2.70664
3.90588
2.68288
3.87536
1.1725
0.725782
0.529794
0.420827
0.349149
0.295499
0.251483
0.213484
0.180303
0.152017
0.129242
0.112625
0.102566
0.0992065
0.102569
0.11263
0.129249
0.152026
0.180317
0.213503
0.251509
0.295526
0.349168
0.420828
0.529774
0.725758
1.17253
2.68323
3.87597
2.64522
3.8271
1.15018
0.711338
0.521162
0.417351
0.350602
0.301822
0.262659
0.229423
0.200743
0.176444
0.15689
0.142561
0.133831
0.130902
0.133836
0.142571
0.156905
0.176467
0.200775
0.229465
0.262709
0.301875
0.350646
0.417373
0.521154
0.711313
1.15019
2.64553
3.82767
2.58875
3.75388
1.11871
0.693574
0.513183
0.417475
0.357935
0.315834
0.282955
0.25559
0.232229
0.212499
0.196578
0.184835
0.17763
0.175202
0.177635
0.184847
0.196598
0.212531
0.232276
0.255652
0.283032
0.315917
0.358013
0.41753
0.513202
0.69356
1.11871
2.58901
3.75438
2.50961
3.64879
1.07863
0.674741
0.508386
0.423248
0.372338
0.33768
0.311418
0.289968
0.271802
0.256461
0.244021
0.234784
0.22908
0.227151
0.229083
0.234791
0.244037
0.256491
0.271851
0.290039
0.311511
0.337789
0.372449
0.423341
0.508443
0.674755
1.07863
2.50982
3.6492
2.40532
3.50517
1.03213
0.657103
0.507866
0.434303
0.392017
0.364278
0.343843
0.327411
0.31356
0.301832
0.292265
0.285115
0.280675
0.279166
0.28067
0.285109
0.292264
0.301843
0.313591
0.32747
0.343932
0.364393
0.392148
0.434429
0.507966
0.657158
1.03214
2.40547
3.50548
2.27444
3.31747
0.981437
0.641371
0.510466
0.447998
0.41323
0.39107
0.375072
0.362327
0.351588
0.342453
0.334957
0.329322
0.325806
0.324604
0.32579
0.329294
0.334926
0.34243
0.351583
0.362353
0.375135
0.39117
0.413362
0.448145
0.510605
0.641475
0.981488
2.27455
3.31767
2.1162
3.08195
0.92765
0.626791
0.514163
0.461624
0.432933
0.414897
0.40197
0.391683
0.382995
0.375582
0.369477
0.364875
0.361996
0.361006
0.361968
0.364824
0.369414
0.375518
0.382947
0.391665
0.401993
0.414968
0.43305
0.461777
0.51433
0.626941
0.927744
2.11627
3.08204
1.93056
2.79694
0.871856
0.613722
0.519181
0.475618
0.451965
0.437126
0.426503
0.418071
0.410977
0.404946
0.399996
0.39627
0.39394
0.393134
0.393904
0.396203
0.399909
0.404854
0.410896
0.418019
0.426494
0.437171
0.452067
0.475771
0.519367
0.613908
0.871985
1.93059
2.79692
1.71862
2.45997
0.819453
0.608787
0.533154
0.49877
0.480451
0.469324
0.461701
0.455911
0.4512
0.447274
0.444082
0.441686
0.440187
0.439666
0.440154
0.441625
0.444002
0.447189
0.451125
0.455863
0.461695
0.469372
0.480557
0.498931
0.533353
0.608988
0.819591
1.71861
2.45985
1.47798
2.04946
0.79083
0.638371
0.58737
0.567483
0.559892
0.557769
0.5581
0.559397
0.560897
0.562235
0.563267
0.563967
0.564361
0.564484
0.564351
0.563949
0.563248
0.562223
0.5609
0.559425
0.558162
0.557871
0.560034
0.567659
0.587564
0.638549
0.790936
1.47793
2.0493
1.04382
1.30491
0.778346
0.797345
0.846767
0.896549
0.941089
0.979809
1.01303
1.04111
1.06436
1.083
1.09726
1.10731
1.11329
1.11529
1.11334
1.10741
1.0974
1.08318
1.06457
1.04135
1.01327
0.980048
0.941308
0.896733
0.846905
0.79743
0.778373
1.04377
1.3048
0.737971
0.788861
0.770265
0.927722
1.0628
1.17261
1.26153
1.33433
1.39441
1.44395
1.48433
1.51642
1.54085
1.55803
1.56825
1.57166
1.56834
1.5582
1.5411
1.51674
1.48468
1.44433
1.39478
1.33467
1.2618
1.17279
1.06289
0.927739
0.770241
0.737929
0.788813
)
