
961
(
0.00575579
0.00634073
0.00783016
0.00707571
0.00747832
0.00913306
0.00849111
0.010088
0.00930857
0.0107941
0.00994255
0.0113198
0.0104376
0.0117218
0.0108313
0.0120371
0.0111489
0.0122875
0.0114059
0.0124864
0.0116123
0.0126425
0.0117744
0.0127621
0.0118967
0.01285
0.0119822
0.01291
0.0120328
0.012945
0.0120497
0.0129567
0.0120332
0.0129456
0.011983
0.0129112
0.0118979
0.0128516
0.011776
0.0127642
0.0116141
0.0126451
0.0114079
0.0124893
0.0111509
0.0122905
0.0108333
0.0120401
0.0104393
0.0117247
0.00994401
0.0113222
0.00930962
0.010796
0.00849175
0.0100893
0.00747863
0.0091337
0.00634084
0.00783037
0.00575582
0.00707576
0.00983381
0.00907305
0.0111446
0.0120898
0.0127678
0.0132555
0.0136099
0.0138682
0.0140548
0.0141866
0.0142763
0.0143344
0.0143696
0.0143892
0.0143988
0.0144019
0.0143995
0.0143906
0.0143716
0.0143371
0.0142796
0.0141905
0.014059
0.0138725
0.0136141
0.0132593
0.0127708
0.0120918
0.0111457
0.00983416
0.00907312
0.0107451
0.0102512
0.0117582
0.0127164
0.0134954
0.0140885
0.0145234
0.0148311
0.0150391
0.0151706
0.0152457
0.0152817
0.0152931
0.0152922
0.0152879
0.0152861
0.0152886
0.0152935
0.0152951
0.0152843
0.015249
0.0151745
0.0150434
0.0148357
0.0145279
0.0140926
0.0134987
0.0127186
0.0117594
0.0107454
0.0102513
0.0114647
0.0111578
0.0121985
0.0130412
0.0138064
0.0144296
0.0149068
0.0152526
0.0154877
0.0156338
0.0157127
0.0157447
0.0157481
0.0157385
0.0157279
0.0157237
0.0157285
0.0157398
0.01575
0.0157472
0.0157158
0.0156375
0.0154917
0.0152569
0.0149111
0.0144335
0.0138095
0.0130433
0.0121996
0.011465
0.0111579
0.0120459
0.0118919
0.0125022
0.0131527
0.0138171
0.0143934
0.0148522
0.0151924
0.0154251
0.0155673
0.015639
0.0156612
0.0156536
0.0156342
0.0156167
0.01561
0.0156173
0.0156354
0.0156554
0.0156635
0.015642
0.0155707
0.0154289
0.0151964
0.0148562
0.0143969
0.0138198
0.0131544
0.0125029
0.012046
0.011892
0.0125104
0.0124793
0.012701
0.0131083
0.0136036
0.0140632
0.0144392
0.0147173
0.0149001
0.0149994
0.0150327
0.0150205
0.0149837
0.0149416
0.0149098
0.0148982
0.0149104
0.0149429
0.0149855
0.0150229
0.0150356
0.0150026
0.0149036
0.0147209
0.0144425
0.014066
0.0136056
0.0131094
0.0127012
0.0125104
0.0124796
0.0128808
0.0129364
0.0128406
0.0129837
0.0132623
0.013547
0.0137793
0.0139362
0.0140135
0.0140196
0.0139705
0.013887
0.0137915
0.0137055
0.0136463
0.0136255
0.013647
0.0137068
0.0137934
0.0138894
0.0139733
0.0140226
0.0140166
0.0139391
0.0137819
0.013549
0.0132635
0.012984
0.0128404
0.0128808
0.0129368
0.0131756
0.0132797
0.0129616
0.012858
0.0129048
0.0129797
0.0130225
0.0130067
0.0129257
0.0127871
0.0126077
0.0124108
0.012222
0.0120662
0.0119639
0.0119285
0.0119646
0.0120676
0.0122239
0.012413
0.0126102
0.0127897
0.0129282
0.0130089
0.0130243
0.0129809
0.0129053
0.0128579
0.0129612
0.0131757
0.0132803
0.013406
0.0135277
0.0130829
0.012785
0.012624
0.0124899
0.0123271
0.012111
0.0118366
0.0115141
0.0111647
0.0108173
0.0105037
0.0102545
0.0100944
0.0100394
0.0100951
0.0102558
0.0105055
0.0108193
0.0111668
0.0115161
0.0118384
0.0121125
0.0123282
0.0124905
0.012624
0.0127847
0.0130825
0.0134062
0.0135286
0.0135787
0.0136989
0.0132015
0.0127759
0.0124601
0.0121542
0.011808
0.0114008
0.0109313
0.0104145
0.00987888
0.00936217
0.00890607
0.00854954
0.00832316
0.00824582
0.00832382
0.00855075
0.00890762
0.00936386
0.00988054
0.010416
0.0109325
0.0114017
0.0118086
0.0121543
0.0124599
0.0127755
0.0132013
0.0135791
0.0136999
0.0137004
0.013811
0.013305
0.0128091
0.0123977
0.0119755
0.0114959
0.0109405
0.0103111
0.00962698
0.00892338
0.00824812
0.00765482
0.00719358
0.00690235
0.00680318
0.00690298
0.00719469
0.00765618
0.00824952
0.00892466
0.00962805
0.0103119
0.0109411
0.0114961
0.0119754
0.0123974
0.0128088
0.0133049
0.013701
0.0138121
0.01378
0.0138798
0.0133839
0.0128558
0.0123945
0.0119067
0.0113472
0.0106984
0.00996343
0.00916361
0.00833849
0.00754327
0.00684208
0.00629622
0.00595186
0.00583471
0.00595245
0.00629723
0.00684327
0.00754442
0.00833946
0.00916437
0.00996396
0.0106987
0.0113472
0.0119066
0.0123942
0.0128556
0.013384
0.0137807
0.013881
0.0138275
0.013919
0.0134364
0.012896
0.0124123
0.0118929
0.0112929
0.0105953
0.00980334
0.00893911
0.00804388
0.00717662
0.00640787
0.00580702
0.00542723
0.00529795
0.00542778
0.00580795
0.00640892
0.00717758
0.00804466
0.00893968
0.00980371
0.0105955
0.0112929
0.0118928
0.0124121
0.0128959
0.0134366
0.0138283
0.0139201
0.013852
0.0139384
0.0134654
0.0129213
0.012429
0.0118965
0.0112792
0.0105603
0.00974301
0.00884979
0.00792241
0.00702123
0.00621961
0.00559108
0.00519294
0.00505727
0.00519346
0.00559194
0.00622057
0.00702208
0.00792308
0.00885027
0.00974331
0.0105604
0.0112792
0.0118964
0.0124288
0.0129212
0.0134656
0.0138529
0.0139396
0.0138595
0.0139442
0.0134745
0.0129297
0.0124353
0.0118993
0.0112774
0.0105527
0.00972853
0.00882737
0.00789114
0.00698051
0.0061696
0.00553308
0.00512955
0.00499198
0.00513006
0.00553392
0.00617052
0.00698133
0.00789177
0.00882782
0.00972881
0.0105528
0.0112774
0.0118992
0.0124351
0.0129296
0.0134748
0.0138603
0.0139454
0.0138521
0.0139384
0.0134654
0.0129213
0.012429
0.0118965
0.0112792
0.0105603
0.00974301
0.00884979
0.00792242
0.00702125
0.00621967
0.00559118
0.00519307
0.00505741
0.00519359
0.00559204
0.00622062
0.0070221
0.00792308
0.00885026
0.00974331
0.0105604
0.0112792
0.0118964
0.0124289
0.0129212
0.0134656
0.0138529
0.0139396
0.0138276
0.013919
0.0134365
0.0128961
0.0124124
0.011893
0.011293
0.0105954
0.00980339
0.00893916
0.00804396
0.00717676
0.00640811
0.00580736
0.00542766
0.00529841
0.00542821
0.00580828
0.00640915
0.00717771
0.00804473
0.00893972
0.00980375
0.0105956
0.011293
0.0118929
0.0124123
0.0128961
0.0134367
0.0138284
0.0139202
0.0137801
0.0138799
0.0133842
0.0128561
0.0123948
0.011907
0.0113474
0.0106986
0.00996363
0.00916385
0.00833881
0.00754374
0.00684274
0.00629708
0.00595287
0.00583578
0.00595345
0.00629807
0.00684391
0.00754486
0.00833976
0.00916457
0.00996413
0.0106989
0.0113475
0.0119068
0.0123946
0.012856
0.0133843
0.0137809
0.0138811
0.0137007
0.0138112
0.0133055
0.0128097
0.0123983
0.011976
0.0114964
0.0109411
0.0103117
0.00962762
0.00892419
0.00824915
0.00765613
0.00719516
0.00690413
0.00680502
0.00690473
0.00719622
0.00765743
0.00825048
0.00892538
0.0096286
0.0103124
0.0109415
0.0114966
0.011976
0.012398
0.0128095
0.0133055
0.0137014
0.0138123
0.0135793
0.0136993
0.0132024
0.0127769
0.0124611
0.0121552
0.0118091
0.0114018
0.0109324
0.0104157
0.0098803
0.00936385
0.00890802
0.00855175
0.00832553
0.00824824
0.00832615
0.00855287
0.00890945
0.00936539
0.00988179
0.0104171
0.0109334
0.0114026
0.0118095
0.0121553
0.012461
0.0127766
0.0132024
0.0135799
0.0137004
0.0134069
0.0135284
0.0130843
0.0127866
0.0126256
0.0124916
0.0123288
0.0121126
0.0118383
0.0115159
0.0111667
0.0108194
0.0105061
0.010257
0.010097
0.0100421
0.0100977
0.0102582
0.0105076
0.0108212
0.0111685
0.0115176
0.0118399
0.0121139
0.0123297
0.012492
0.0126257
0.0127864
0.0130841
0.0134074
0.0135293
0.013177
0.0132807
0.0129636
0.0128602
0.0129071
0.0129821
0.0130249
0.013009
0.0129281
0.0127894
0.0126101
0.0124132
0.0122246
0.0120689
0.0119666
0.0119311
0.0119672
0.0120701
0.0122263
0.0124153
0.0126123
0.0127917
0.0129302
0.0130108
0.0130263
0.012983
0.0129076
0.0128602
0.0129634
0.0131772
0.0132814
0.0128826
0.0129376
0.0128432
0.0129865
0.0132653
0.01355
0.0137824
0.0139391
0.0140164
0.0140225
0.0139733
0.0138898
0.0137944
0.0137083
0.0136491
0.0136283
0.0136498
0.0137096
0.0137961
0.013892
0.0139758
0.0140251
0.0140191
0.0139416
0.0137846
0.0135517
0.0132663
0.012987
0.0128432
0.0128828
0.0129382
0.0125125
0.0124809
0.012704
0.0131117
0.0136072
0.0140669
0.0144428
0.0147209
0.0149036
0.0150028
0.015036
0.0150238
0.014987
0.0149449
0.0149131
0.0149015
0.0149137
0.0149462
0.0149888
0.0150261
0.0150387
0.0150058
0.0149067
0.0147241
0.0144457
0.0140693
0.013609
0.0131127
0.0127043
0.0125127
0.0124813
0.0120482
0.0118935
0.0125055
0.0131565
0.0138211
0.0143976
0.0148564
0.0151965
0.0154291
0.0155713
0.015643
0.0156651
0.0156575
0.0156381
0.0156206
0.0156139
0.0156212
0.0156392
0.0156593
0.0156674
0.0156458
0.0155745
0.0154327
0.0152003
0.01486
0.0144008
0.0138237
0.0131581
0.0125063
0.0120484
0.0118938
0.011467
0.0111594
0.0122019
0.0130451
0.0138106
0.014434
0.0149112
0.015257
0.0154921
0.0156382
0.0157171
0.0157491
0.0157524
0.0157428
0.0157321
0.0157279
0.0157327
0.015744
0.0157542
0.0157514
0.0157201
0.0156418
0.015496
0.0152612
0.0149153
0.0144377
0.0138136
0.0130471
0.0122029
0.0114673
0.0111594
0.0107471
0.0102526
0.0117613
0.01272
0.0134993
0.0140926
0.0145276
0.0148354
0.0150434
0.0151749
0.01525
0.0152859
0.0152973
0.0152963
0.015292
0.0152902
0.0152927
0.0152976
0.0152992
0.0152884
0.0152532
0.0151787
0.0150476
0.0148398
0.014532
0.0140965
0.0135023
0.0127219
0.0117621
0.0107472
0.0102524
0.00983524
0.0090739
0.0111469
0.0120924
0.0127707
0.0132586
0.0136131
0.0138715
0.0140582
0.01419
0.0142797
0.0143377
0.0143729
0.0143925
0.014402
0.014405
0.0144027
0.0143938
0.0143748
0.0143403
0.0142829
0.0141938
0.0140623
0.0138757
0.0136171
0.0132621
0.0127733
0.0120939
0.0111473
0.00983508
0.00907357
0.00783075
0.00707598
0.00913411
0.0100893
0.0107955
0.0113214
0.0117235
0.0120389
0.0122894
0.0124883
0.0126445
0.0127641
0.012852
0.012912
0.012947
0.0129586
0.0129475
0.0129131
0.0128536
0.0127662
0.012647
0.0124912
0.0122923
0.0120418
0.0117262
0.0113235
0.0107969
0.01009
0.00913419
0.00783054
0.00707571
0.00634084
0.00575578
0.00747865
0.00849161
0.00930921
0.0099433
0.0104384
0.0108323
0.0111499
0.011407
0.0116134
0.0117756
0.011898
0.0119835
0.0120341
0.012051
0.0120345
0.0119843
0.0118992
0.0117772
0.0116152
0.0114089
0.0111519
0.0108341
0.01044
0.00994447
0.0093099
0.00849187
0.00747861
0.00634068
0.00575559
)
