/*--------------------------------*- C++ -*----------------------------------*\
  =========                 |
  \\      /  F ield         | OpenFOAM: The Open Source CFD Toolbox
   \\    /   O peration     | Website:  https://openfoam.org
    \\  /    A nd           | Version:  6
     \\/     M anipulation  |
\*---------------------------------------------------------------------------*/
FoamFile
{
    version     2.0;
    format      ascii;
    class       volScalarField;
    location    "0.05";
    object      epsilon;
}
// * * * * * * * * * * * * * * * * * * * * * * * * * * * * * * * * * * * * * //

dimensions      [0 2 -3 0 0 0 0];

internalField   nonuniform List<scalar> 
3032
(
5.86027
5.82
5.77163
5.71589
5.65363
5.58574
5.51311
5.43665
5.35721
5.27561
5.19263
5.109
5.02536
4.94232
4.8604
4.78007
4.70171
4.62567
4.5522
4.48154
4.41382
4.34918
4.28766
4.22931
4.17413
4.12207
4.07308
4.02708
3.98399
3.94369
3.90608
3.87103
3.83842
3.80812
3.78
3.75395
3.72984
3.70755
3.68697
3.66799
3.65051
3.63442
3.61963
3.60605
3.59361
3.58222
3.57181
3.56231
3.55366
2.8511
2.82756
2.80105
2.77189
2.74045
2.70709
2.67219
2.63608
2.59913
2.56164
2.52393
2.48628
2.44893
2.4121
2.37601
2.34082
2.30667
2.27368
2.24194
2.21153
2.1825
2.15487
2.12866
2.10386
2.08047
2.05846
2.03779
2.01841
2.0003
1.98338
1.96761
1.95293
1.93928
1.92661
1.91486
1.90397
1.89389
1.88457
1.87595
1.868
1.86066
1.8539
1.84766
1.84193
1.83665
1.8318
1.82735
1.82327
1.81952
2.46027
2.4384
2.41412
2.38774
2.35956
2.3299
2.29906
2.26735
2.23505
2.20244
2.16976
2.13726
2.10513
2.07356
2.04273
2.01275
1.98376
1.95585
1.92909
1.90352
1.8792
1.85613
1.83433
1.81377
1.79445
1.77633
1.75938
1.74356
1.72881
1.71509
1.70235
1.69052
1.67957
1.66943
1.66006
1.6514
1.6434
1.63602
1.62922
1.62295
1.61717
1.61185
1.60695
1.60243
1.59828
1.59446
1.59095
1.58772
1.58476
2.40331
2.38073
2.35584
2.32894
2.30033
2.27033
2.23924
2.20736
2.17495
2.1423
2.10964
2.07721
2.04519
2.01379
1.98316
1.95343
1.92472
1.89712
1.8707
1.84552
1.8216
1.79897
1.77762
1.75755
1.73873
1.72113
1.70472
1.68944
1.67524
1.66208
1.6499
1.63863
1.62823
1.61864
1.60979
1.60165
1.59416
1.58726
1.58093
1.5751
1.56974
1.56482
1.56029
1.55613
1.55231
1.5488
1.54557
1.5426
1.53987
2.43838
2.41413
2.38759
2.35905
2.32885
2.2973
2.26468
2.23132
2.19747
2.16342
2.12941
2.09566
2.0624
2.02979
1.998
1.96718
1.93743
1.90886
1.88154
1.85552
1.83084
1.80751
1.78553
1.76491
1.7456
1.72758
1.71081
1.69523
1.68079
1.66744
1.65511
1.64375
1.63328
1.62366
1.61482
1.6067
1.59926
1.59243
1.58617
1.58043
1.57517
1.57034
1.56592
1.56186
1.55814
1.55473
1.55159
1.54871
1.54607
2.50646
2.47995
2.45117
2.42044
2.38809
2.35442
2.31975
2.28437
2.24856
2.2126
2.17673
2.14118
2.10616
2.07186
2.03845
2.00607
1.97484
1.94485
1.91619
1.88891
1.86305
1.83863
1.81565
1.7941
1.77395
1.75517
1.73771
1.72153
1.70656
1.69274
1.68002
1.66831
1.65756
1.6477
1.63866
1.63039
1.62282
1.6159
1.60957
1.60379
1.5985
1.59367
1.58925
1.58521
1.5815
1.57811
1.57501
1.57216
1.56955
2.58573
2.55658
2.52523
2.492
2.45721
2.42119
2.38423
2.34663
2.30868
2.27063
2.23274
2.19523
2.15833
2.1222
2.08703
2.05296
2.02011
1.98858
1.95845
1.92978
1.90262
1.87697
1.85286
1.83026
1.80915
1.78949
1.77124
1.75435
1.73874
1.72436
1.71114
1.699
1.68788
1.6777
1.6684
1.6599
1.65215
1.64508
1.63863
1.63276
1.6274
1.62252
1.61806
1.614
1.61029
1.6069
1.6038
1.60097
1.59837
1.59599
2.66601
2.63402
2.59993
2.56408
2.52678
2.48834
2.44907
2.40925
2.36915
2.32904
2.28916
2.24974
2.21098
2.17307
2.13617
2.10044
2.066
2.03295
2.00137
1.97133
1.94287
1.91601
1.89075
1.8671
1.84501
1.82446
1.8054
1.78778
1.77151
1.75655
1.74281
1.73022
1.71871
1.70819
1.6986
1.68986
1.68191
1.67468
1.6681
1.66212
1.65668
1.65174
1.64724
1.64315
1.63943
1.63603
1.63294
1.63011
1.62753
1.62518
2.74171
2.70683
2.67001
2.63157
2.59183
2.55108
2.50962
2.46772
2.42564
2.38363
2.34193
2.30075
2.2603
2.22075
2.18228
2.14503
2.10912
2.07467
2.04175
2.01042
1.98075
1.95274
1.92641
1.90175
1.87874
1.85734
1.8375
1.81916
1.80226
1.78673
1.77249
1.75946
1.74757
1.73672
1.72685
1.71788
1.70973
1.70233
1.69563
1.68954
1.68403
1.67903
1.6745
1.67039
1.66665
1.66326
1.66017
1.65737
1.65481
1.65247
1.65035
2.80925
2.77158
2.73218
2.69136
2.6494
2.60659
2.56321
2.5195
2.47572
2.4321
2.38885
2.34619
2.30431
2.26338
2.22356
2.18501
2.14784
2.11216
2.07806
2.0456
2.01484
1.98581
1.95851
1.93294
1.90908
1.88689
1.86633
1.84734
1.82986
1.8138
1.79909
1.78565
1.7734
1.76224
1.75211
1.74292
1.73459
1.72705
1.72023
1.71406
1.70848
1.70343
1.69887
1.69475
1.69101
1.68762
1.68456
1.68177
1.67924
1.67694
1.67485
2.86599
2.82582
2.78417
2.74131
2.69751
2.65304
2.60814
2.56304
2.51795
2.4731
2.42869
2.38491
2.34194
2.29994
2.25909
2.21951
2.18134
2.14467
2.10961
2.07621
2.04455
2.01464
1.98651
1.96015
1.93555
1.91267
1.89148
1.8719
1.85389
1.83736
1.82223
1.80842
1.79584
1.78441
1.77405
1.76466
1.75617
1.7485
1.74158
1.73533
1.7297
1.72462
1.72004
1.71591
1.71218
1.70882
1.70577
1.70302
1.70052
1.69826
1.69621
2.90986
2.86764
2.82422
2.77984
2.73474
2.68914
2.64325
2.59726
2.55138
2.5058
2.46069
2.41623
2.37259
2.32993
2.2884
2.24814
2.20927
2.1719
2.13613
2.10203
2.06966
2.03906
2.01026
1.98326
1.95805
1.9346
1.91287
1.8928
1.87433
1.85738
1.84189
1.82775
1.8149
1.80323
1.79266
1.78311
1.77448
1.7667
1.7597
1.7534
1.74773
1.74263
1.73804
1.73391
1.7302
1.72686
1.72384
1.72113
1.71867
1.71646
1.71446
2.93917
2.89555
2.85103
2.8058
2.76006
2.71398
2.66774
2.6215
2.57542
2.52967
2.4844
2.43977
2.39594
2.35306
2.31127
2.27071
2.23149
2.19375
2.15756
2.12302
2.09019
2.05912
2.02984
2.00236
1.97669
1.95278
1.93062
1.91016
1.89132
1.87404
1.85824
1.84384
1.83075
1.81888
1.80815
1.79845
1.78972
1.78185
1.77479
1.76844
1.76275
1.75764
1.75305
1.74894
1.74526
1.74194
1.73897
1.73629
1.73389
1.73172
1.72978
2.95274
2.90854
2.86372
2.81845
2.77284
2.72705
2.68118
2.63537
2.58976
2.54446
2.49963
2.45539
2.41189
2.36927
2.32767
2.28722
2.24804
2.21026
2.17398
2.13928
2.10625
2.07493
2.04538
2.01762
1.99163
1.96743
1.94497
1.92421
1.9051
1.88756
1.87153
1.85693
1.84366
1.83164
1.82077
1.81097
1.80215
1.79423
1.78712
1.78075
1.77504
1.76994
1.76537
1.76128
1.75763
1.75435
1.75142
1.74879
1.74644
1.74433
1.74243
1.74074
2.94998
2.90615
2.86198
2.81754
2.77293
2.72822
2.6835
2.63886
2.59439
2.5502
2.50641
2.46313
2.4205
2.37864
2.33769
2.29778
2.25903
2.22158
2.18553
2.15098
2.11801
2.0867
2.0571
2.02924
2.00313
1.97877
1.95614
1.93521
1.91593
1.89823
1.88205
1.8673
1.85391
1.84178
1.83083
1.82096
1.81209
1.80413
1.797
1.79062
1.78492
1.77983
1.77529
1.77124
1.76762
1.76439
1.76151
1.75893
1.75663
1.75457
1.75274
1.75109
2.93079
2.88839
2.84585
2.8032
2.76047
2.71769
2.67491
2.63218
2.58956
2.54715
2.50502
2.46328
2.42206
2.38147
2.34164
2.30271
2.26481
2.22806
2.19258
2.15849
2.12587
2.09482
2.06539
2.03764
2.01158
1.98723
1.96458
1.94361
1.92426
1.90649
1.89024
1.87542
1.86197
1.84979
1.83879
1.82889
1.82
1.81203
1.80491
1.79854
1.79287
1.78781
1.7833
1.77929
1.77572
1.77254
1.76972
1.7672
1.76495
1.76295
1.76117
1.75959
2.89559
2.85571
2.81581
2.77587
2.73587
2.69582
2.65571
2.61558
2.57546
2.53541
2.49551
2.45585
2.41654
2.37768
2.33942
2.30188
2.2652
2.2295
2.19493
2.1616
2.12962
2.09908
2.07006
2.04263
2.01681
1.99264
1.97012
1.94923
1.92994
1.91221
1.89597
1.88117
1.86772
1.85554
1.84455
1.83466
1.82579
1.81785
1.81075
1.80442
1.79878
1.79377
1.78931
1.78535
1.78184
1.77872
1.77595
1.77349
1.77131
1.76937
1.76765
1.76613
2.85165
2.81484
2.77806
2.74125
2.70435
2.66733
2.63018
2.5929
2.55552
2.51807
2.48062
2.44324
2.40604
2.36913
2.33263
2.29668
2.26141
2.22697
2.19349
2.1611
2.12992
2.10006
2.07161
2.04465
2.01921
1.99535
1.97308
1.95238
1.93324
1.91563
1.89949
1.88477
1.87138
1.85926
1.84833
1.83849
1.82966
1.82177
1.81472
1.80845
1.80286
1.79791
1.79351
1.78961
1.78616
1.7831
1.78039
1.77799
1.77586
1.77398
1.77232
1.77086
1.76959
2.80375
2.7702
2.73667
2.70307
2.66932
2.63539
2.60123
2.56684
2.53221
2.49739
2.46243
2.42739
2.39236
2.35745
2.3228
2.28852
2.25476
2.22166
2.18937
2.15803
2.12777
2.09869
2.07091
2.04451
2.01956
1.9961
1.97415
1.95373
1.93482
1.91739
1.90141
1.88681
1.87354
1.86152
1.85067
1.84091
1.83216
1.82433
1.81735
1.81114
1.80562
1.80073
1.7964
1.79256
1.78917
1.78617
1.78353
1.78119
1.77912
1.7773
1.77569
1.77428
1.77306
1.772
2.75543
2.72503
2.69461
2.66407
2.63333
2.60232
2.571
2.53936
2.50738
2.47508
2.44252
2.40974
2.37684
2.34391
2.31108
2.27847
2.24623
2.21451
2.18345
2.1532
2.1239
2.09566
2.06861
2.04284
2.01842
1.99542
1.97386
1.95376
1.93513
1.91794
1.90215
1.88772
1.87459
1.8627
1.85196
1.8423
1.83364
1.8259
1.819
1.81287
1.80742
1.8026
1.79833
1.79456
1.79124
1.7883
1.78571
1.78343
1.78143
1.77966
1.7781
1.77675
1.77557
1.77455
2.70902
2.68146
2.65385
2.62607
2.59803
2.56968
2.54095
2.51182
2.48228
2.45233
2.422
2.39135
2.36045
2.3294
2.29832
2.26733
2.23657
2.2062
2.17636
2.1472
2.11887
2.09149
2.0652
2.04008
2.01624
1.99372
1.97258
1.95285
1.93452
1.91759
1.90203
1.8878
1.87484
1.86309
1.85248
1.84294
1.83439
1.82674
1.81993
1.81388
1.80851
1.80376
1.79957
1.79586
1.7926
1.78973
1.7872
1.78498
1.78302
1.78131
1.77981
1.7785
1.77737
1.7764
2.66584
2.64072
2.61552
2.59012
2.56445
2.53843
2.51199
2.4851
2.45773
2.42989
2.4016
2.37289
2.34385
2.31455
2.2851
2.25564
2.22629
2.19721
2.16855
2.14046
2.11308
2.08656
2.06102
2.03657
2.0133
1.99129
1.97059
1.95124
1.93324
1.9166
1.90128
1.88726
1.87449
1.8629
1.85244
1.84302
1.83458
1.82704
1.82032
1.81436
1.80907
1.8044
1.80027
1.79664
1.79344
1.79063
1.78816
1.78599
1.78409
1.78242
1.78097
1.77971
1.77863
1.77771
2.62646
2.60335
2.58015
2.55677
2.5331
2.50906
2.48459
2.45965
2.43421
2.40824
2.38176
2.35482
2.32745
2.29975
2.27182
2.24377
2.21575
2.18789
2.16034
2.13327
2.10681
2.08112
2.05632
2.03253
2.00984
1.98834
1.96809
1.94913
1.93147
1.91512
1.90006
1.88626
1.87368
1.86227
1.85195
1.84267
1.83435
1.82692
1.8203
1.81443
1.80923
1.80463
1.80058
1.79701
1.79388
1.79112
1.78871
1.78659
1.78474
1.78313
1.78172
1.7805
1.77947
1.77861
2.59098
2.56947
2.5479
2.52615
2.50414
2.48178
2.45899
2.43573
2.41194
2.38762
2.36275
2.33737
2.31151
2.28526
2.25871
2.23197
2.20516
2.17844
2.15195
2.12584
2.10026
2.07537
2.05128
2.02813
2.00601
1.98502
1.96521
1.94664
1.92932
1.91327
1.89848
1.88491
1.87253
1.86129
1.85114
1.84199
1.8338
1.82648
1.81996
1.81418
1.80906
1.80455
1.80057
1.79707
1.79399
1.7913
1.78894
1.78688
1.78507
1.7835
1.78214
1.78097
1.77998
1.77917
2.55919
2.53892
2.51864
2.49822
2.47756
2.45659
2.43522
2.41338
2.39103
2.36813
2.34467
2.32068
2.29617
2.27122
2.24592
2.22037
2.19469
2.16902
2.14351
2.1183
2.09356
2.06942
2.04602
2.02349
2.00193
1.98142
1.96205
1.94387
1.92689
1.91114
1.89661
1.88327
1.8711
1.86004
1.85005
1.84105
1.83298
1.82577
1.81936
1.81367
1.80864
1.8042
1.80029
1.79686
1.79385
1.79121
1.78891
1.78689
1.78514
1.78361
1.78229
1.78116
1.78021
1.77945
2.53075
2.51143
2.49214
2.47277
2.45322
2.43339
2.4132
2.39257
2.37145
2.34978
2.32756
2.30478
2.28148
2.2577
2.23353
2.20906
2.1844
2.15971
2.13511
2.11075
2.08679
2.06337
2.04062
2.01868
1.99765
1.97763
1.95868
1.94087
1.92424
1.90878
1.89451
1.88141
1.86944
1.85857
1.84873
1.83988
1.83194
1.82485
1.81854
1.81295
1.808
1.80364
1.79981
1.79644
1.79349
1.79091
1.78866
1.78669
1.78498
1.7835
1.78222
1.78113
1.78022
1.7795
2.50527
2.48666
2.46813
2.44959
2.43092
2.41203
2.39282
2.37321
2.35314
2.33254
2.3114
2.2897
2.26746
2.24472
2.22157
2.19808
2.17437
2.15057
2.12681
2.10324
2.08001
2.05727
2.03514
2.01376
1.99324
1.97368
1.95515
1.93771
1.9214
1.90624
1.89223
1.87936
1.8676
1.8569
1.84723
1.83852
1.83071
1.82374
1.81753
1.81203
1.80718
1.80289
1.79913
1.79583
1.79294
1.79042
1.78822
1.7863
1.78464
1.7832
1.78196
1.7809
1.78003
1.77934
2.4819
2.46378
2.44583
2.42793
2.40998
2.39186
2.37348
2.35474
2.33557
2.31591
2.29571
2.27498
2.2537
2.23192
2.2097
2.18712
2.16429
2.14133
2.11837
2.09556
2.07304
2.05094
2.02942
2.00859
1.98858
1.96947
1.95135
1.93428
1.9183
1.90344
1.88969
1.87705
1.8655
1.855
1.84549
1.83693
1.82925
1.8224
1.81631
1.81091
1.80614
1.80194
1.79825
1.79502
1.79219
1.78973
1.78758
1.78571
1.7841
1.7827
1.7815
1.78048
1.77964
1.77898
2.45922
2.44147
2.42396
2.40659
2.38924
2.37178
2.35413
2.33617
2.31783
2.29903
2.27972
2.25989
2.23953
2.21867
2.19736
2.17567
2.15371
2.13158
2.10942
2.08735
2.06554
2.04411
2.0232
2.00294
1.98344
1.9648
1.94711
1.93043
1.9148
1.90025
1.88678
1.87439
1.86306
1.85276
1.84343
1.83503
1.8275
1.82078
1.8148
1.80951
1.80483
1.80072
1.79711
1.79395
1.7912
1.78879
1.78671
1.78489
1.78332
1.78197
1.78081
1.77983
1.77902
1.77839
2.43655
2.41905
2.40191
2.38498
2.36816
2.35131
2.33432
2.3171
2.29954
2.28157
2.26312
2.24418
2.22472
2.20477
2.18436
2.16356
2.14247
2.12118
2.09983
2.07854
2.05745
2.0367
2.01643
1.99675
1.9778
1.95965
1.94241
1.92614
1.91088
1.89666
1.88349
1.87137
1.86028
1.85019
1.84105
1.83283
1.82545
1.81887
1.81302
1.80784
1.80327
1.79925
1.79573
1.79265
1.78996
1.78762
1.7856
1.78384
1.78232
1.78101
1.77989
1.77895
1.77818
1.77757
2.41395
2.39662
2.37975
2.36319
2.34681
2.3305
2.31412
2.29758
2.28075
2.26357
2.24595
2.22787
2.20929
2.19023
2.17071
2.1508
2.13058
2.11015
2.08961
2.0691
2.04876
2.02871
2.00909
1.99003
1.97163
1.95401
1.93724
1.92139
1.90652
1.89265
1.8798
1.86797
1.85713
1.84727
1.83834
1.8303
1.82309
1.81666
1.81094
1.80588
1.80142
1.79751
1.79407
1.79108
1.78847
1.7862
1.78423
1.78253
1.78106
1.7798
1.77873
1.77782
1.77708
1.7765
2.39149
2.37423
2.35753
2.34125
2.32526
2.30941
2.29358
2.27765
2.26151
2.24506
2.22824
2.21098
2.19325
2.17507
2.15643
2.13741
2.11806
2.09847
2.07876
2.05905
2.03946
2.02013
2.00118
1.98274
1.96493
1.94784
1.93157
1.91617
1.9017
1.88821
1.87569
1.86416
1.8536
1.84398
1.83527
1.82742
1.82039
1.81412
1.80855
1.80362
1.79928
1.79547
1.79213
1.78922
1.78669
1.78449
1.78259
1.78095
1.77953
1.77832
1.77729
1.77642
1.77571
1.77515
2.36919
2.35192
2.33531
2.31923
2.30352
2.28806
2.27271
2.25734
2.24183
2.22608
2.21
2.19353
2.17663
2.1593
2.14153
2.12337
2.10488
2.08615
2.06727
2.04835
2.02953
2.01093
1.99267
1.97488
1.95766
1.94113
1.92537
1.91044
1.8964
1.88329
1.87113
1.85992
1.84964
1.84028
1.83181
1.82417
1.81733
1.81123
1.80581
1.80102
1.7968
1.7931
1.78986
1.78704
1.78459
1.78247
1.78063
1.77905
1.77769
1.77653
1.77554
1.7747
1.77402
1.77348
2.34706
2.32969
2.31309
2.29712
2.28164
2.26649
2.25155
2.23667
2.22173
2.20662
2.19124
2.17553
2.15942
2.14291
2.12599
2.10868
2.09105
2.07316
2.0551
2.03699
2.01895
2.00108
1.98352
1.96639
1.9498
1.93384
1.9186
1.90416
1.89057
1.87787
1.86608
1.8552
1.84523
1.83614
1.82791
1.8205
1.81386
1.80793
1.80267
1.79803
1.79394
1.79035
1.78722
1.7845
1.78213
1.78008
1.77832
1.77679
1.77549
1.77437
1.77342
1.77263
1.77197
1.77145
2.32507
2.30752
2.29085
2.27492
2.25958
2.24469
2.23008
2.21563
2.20121
2.18668
2.17196
2.15695
2.14161
2.12589
2.10978
2.09331
2.07651
2.05946
2.04223
2.02493
2.00766
1.99054
1.9737
1.95724
1.94127
1.9259
1.91122
1.89728
1.88416
1.87188
1.86047
1.84995
1.8403
1.8315
1.82353
1.81635
1.80991
1.80418
1.79909
1.79459
1.79064
1.78718
1.78415
1.78152
1.77925
1.77727
1.77558
1.77412
1.77286
1.77179
1.77088
1.77012
1.76949
1.76899
2.30314
2.28535
2.26855
2.25259
2.23732
2.2226
2.20828
2.1942
2.18023
2.16624
2.15212
2.13778
2.12315
2.10818
2.09287
2.07721
2.06123
2.045
2.02859
2.01209
1.9956
1.97924
1.96311
1.94734
1.93202
1.91726
1.90314
1.88973
1.87708
1.86525
1.85425
1.84409
1.83477
1.82628
1.81858
1.81164
1.80543
1.79989
1.79498
1.79064
1.78683
1.78349
1.78058
1.77805
1.77586
1.77397
1.77234
1.77093
1.76973
1.76871
1.76784
1.7671
1.7665
1.76601
2.28116
2.26308
2.24608
2.23003
2.21478
2.20018
2.18607
2.1723
2.15872
2.14521
2.13165
2.11793
2.10398
2.08974
2.07518
2.06031
2.04514
2.02972
2.01411
1.99841
1.9827
1.96709
1.95169
1.93661
1.92196
1.90781
1.89427
1.8814
1.86925
1.85788
1.8473
1.83752
1.82855
1.82038
1.81296
1.80629
1.8003
1.79497
1.79024
1.78607
1.7824
1.77919
1.7764
1.77397
1.77187
1.77005
1.76849
1.76715
1.766
1.76501
1.76418
1.76347
1.76288
1.7624
2.25898
2.24056
2.22333
2.20714
2.19185
2.17731
2.16335
2.14984
2.13661
2.12353
2.11047
2.09733
2.08401
2.07046
2.05663
2.04251
2.02812
2.01349
1.99868
1.98377
1.96884
1.95399
1.93932
1.92494
1.91095
1.89744
1.88449
1.87217
1.86055
1.84965
1.8395
1.83013
1.82152
1.81368
1.80656
1.80015
1.79441
1.78929
1.78475
1.78075
1.77724
1.77416
1.77148
1.76915
1.76714
1.7654
1.76391
1.76262
1.76152
1.76057
1.75977
1.75908
1.75851
1.75803
2.23754
2.21877
2.20126
2.1849
2.16953
2.15499
2.14115
2.12782
2.11488
2.10216
2.08953
2.07689
2.06414
2.0512
2.03803
2.0246
2.01093
1.99703
1.98296
1.96879
1.95459
1.94046
1.92649
1.91278
1.89944
1.88654
1.87417
1.86239
1.85127
1.84083
1.83112
1.82214
1.8139
1.80637
1.79955
1.79341
1.7879
1.783
1.77865
1.77481
1.77144
1.76849
1.76592
1.76369
1.76176
1.7601
1.75866
1.75742
1.75636
1.75544
1.75466
1.75398
1.75341
1.75293
2.21614
2.19699
2.17919
2.16263
2.14714
2.13258
2.11879
2.10562
2.0929
2.08049
2.06824
2.05605
2.0438
2.03142
2.01886
2.00607
1.99307
1.97987
1.9665
1.95303
1.93954
1.9261
1.91281
1.89976
1.88705
1.87476
1.86296
1.85172
1.8411
1.83113
1.82185
1.81327
1.80539
1.7982
1.79167
1.7858
1.78053
1.77584
1.77167
1.768
1.76478
1.76196
1.7595
1.75736
1.7555
1.7539
1.75251
1.75132
1.75028
1.74939
1.74862
1.74795
1.74738
1.74688
2.19187
2.17231
2.1542
2.1374
2.12178
2.10718
2.09344
2.0804
2.0679
2.05579
2.04392
2.03218
2.02045
2.00865
1.99671
1.9846
1.9723
1.95983
1.94721
1.9345
1.92176
1.90907
1.89652
1.8842
1.87218
1.86055
1.84938
1.83874
1.82869
1.81925
1.81045
1.80231
1.79484
1.78802
1.78183
1.77626
1.77126
1.76681
1.76286
1.75937
1.75631
1.75362
1.75128
1.74924
1.74747
1.74594
1.74461
1.74346
1.74245
1.74158
1.74082
1.74015
1.73956
1.73905
2.18536
2.16379
2.14385
2.12542
2.1084
2.09263
2.07797
2.06425
2.05133
2.03904
2.02722
2.01573
2.00444
1.99324
1.98203
1.97073
1.95932
1.94775
1.93605
1.92422
1.91232
1.90039
1.88851
1.87676
1.86522
1.85396
1.84307
1.83261
1.82263
1.8132
1.80435
1.7961
1.78847
1.78146
1.77506
1.76925
1.76402
1.75933
1.75514
1.75143
1.74816
1.74528
1.74275
1.74054
1.73862
1.73694
1.73548
1.73421
1.73309
1.73212
1.73127
1.73051
1.72984
1.72923
1.72869
2.15293
2.13087
2.11053
2.09179
2.07452
2.0586
2.04387
2.03018
2.01738
2.00528
1.99375
1.98264
1.9718
1.96112
1.9505
1.93987
1.92917
1.91837
1.90747
1.89647
1.88542
1.87436
1.86335
1.85246
1.84177
1.83135
1.82126
1.81157
1.80234
1.79361
1.78541
1.77778
1.77072
1.76423
1.7583
1.75293
1.74809
1.74375
1.73988
1.73644
1.7334
1.73073
1.72838
1.72633
1.72453
1.72295
1.72158
1.72037
1.71931
1.71837
1.71753
1.71678
1.7161
1.71548
1.71491
2.11385
2.09136
2.07065
2.05162
2.03414
2.01809
2.00331
1.98966
1.97697
1.96508
1.95384
1.9431
1.93272
1.92257
1.91256
1.9026
1.89262
1.88261
1.87253
1.86241
1.85225
1.84211
1.83203
1.82207
1.8123
1.80279
1.79359
1.78476
1.77635
1.7684
1.76095
1.75401
1.74759
1.74169
1.73632
1.73144
1.72705
1.72311
1.7196
1.71648
1.71373
1.7113
1.70916
1.70728
1.70563
1.70419
1.70292
1.70179
1.70079
1.6999
1.6991
1.69837
1.69769
1.69706
1.69647
2.06511
2.04227
2.02128
2.00203
1.98441
1.96828
1.95351
1.93993
1.92739
1.91574
1.9048
1.89445
1.88453
1.87492
1.86551
1.85623
1.847
1.83779
1.82858
1.81935
1.81014
1.80097
1.79188
1.78293
1.77416
1.76564
1.75742
1.74955
1.74206
1.735
1.72838
1.72223
1.71655
1.71135
1.7066
1.70231
1.69844
1.69498
1.6919
1.68916
1.68674
1.68461
1.68273
1.68108
1.67962
1.67834
1.67721
1.6762
1.6753
1.67449
1.67375
1.67306
1.67242
1.67182
1.67123
2.00187
1.97886
1.95776
1.93846
1.92083
1.90476
1.8901
1.8767
1.86439
1.85303
1.84245
1.83252
1.82309
1.81403
1.80526
1.79667
1.7882
1.77982
1.77149
1.76321
1.755
1.74686
1.73884
1.73098
1.72331
1.7159
1.70877
1.70196
1.69552
1.68947
1.68381
1.67858
1.67376
1.66936
1.66537
1.66176
1.65853
1.65564
1.65308
1.65082
1.64882
1.64706
1.64553
1.64418
1.64299
1.64195
1.64102
1.6402
1.63946
1.63879
1.63818
1.6376
1.63706
1.63654
1.63604
1.92792
1.90507
1.88418
1.86512
1.84778
1.83203
1.81772
1.80471
1.79282
1.78192
1.77185
1.76245
1.75361
1.7452
1.73713
1.7293
1.72165
1.71415
1.70676
1.69947
1.69229
1.68523
1.67833
1.6716
1.66509
1.65883
1.65285
1.64718
1.64184
1.63685
1.63222
1.62796
1.62407
1.62054
1.61735
1.61451
1.61197
1.60973
1.60776
1.60604
1.60454
1.60324
1.60212
1.60115
1.60031
1.59958
1.59895
1.59839
1.5979
1.59746
1.59706
1.59669
1.59633
1.59599
1.59565
1.86298
1.84048
1.81995
1.80127
1.78432
1.76897
1.75506
1.74245
1.73099
1.72051
1.71088
1.70196
1.69362
1.68574
1.67823
1.67101
1.66403
1.65723
1.65059
1.6441
1.63776
1.63158
1.62558
1.61978
1.61421
1.60889
1.60385
1.5991
1.59467
1.59056
1.58678
1.58333
1.58021
1.5774
1.57491
1.5727
1.57076
1.56908
1.56763
1.56638
1.56532
1.56443
1.56368
1.56306
1.56255
1.56212
1.56177
1.56148
1.56124
1.56103
1.56086
1.5607
1.56055
1.5604
1.56026
1.80348
1.78148
1.76144
1.74326
1.72679
1.7119
1.69845
1.68629
1.67527
1.66524
1.65607
1.64761
1.63975
1.63238
1.62541
1.61877
1.61241
1.60627
1.60033
1.59458
1.58902
1.58365
1.57849
1.57355
1.56884
1.5644
1.56022
1.55633
1.55274
1.54944
1.54645
1.54376
1.54136
1.53924
1.5374
1.5358
1.53444
1.5333
1.53235
1.53158
1.53096
1.53049
1.53013
1.52988
1.52971
1.52961
1.52957
1.52958
1.52962
1.52969
1.52977
1.52987
1.52997
1.53006
1.53016
1.75319
1.73175
1.71226
1.6946
1.67863
1.66423
1.65124
1.63954
1.62896
1.61937
1.61064
1.60264
1.59526
1.58839
1.58196
1.57589
1.57013
1.56464
1.55939
1.55436
1.54955
1.54497
1.54061
1.53648
1.5326
1.52899
1.52563
1.52256
1.51976
1.51724
1.515
1.51303
1.51133
1.50987
1.50866
1.50766
1.50687
1.50626
1.50582
1.50554
1.50538
1.50534
1.50539
1.50553
1.50574
1.506
1.50631
1.50665
1.50701
1.50739
1.50778
1.50817
1.50856
1.50895
1.50932
1.7173
1.69636
1.67736
1.66015
1.64463
1.63065
1.61807
1.60677
1.5966
1.58742
1.57911
1.57155
1.56464
1.55827
1.55237
1.54688
1.54173
1.53689
1.53233
1.52802
1.52397
1.52016
1.51659
1.51328
1.51021
1.5074
1.50486
1.50258
1.50056
1.4988
1.4973
1.49604
1.49502
1.49423
1.49365
1.49325
1.49304
1.49299
1.49308
1.49329
1.49362
1.49404
1.49454
1.49511
1.49573
1.49639
1.49709
1.49781
1.49854
1.49928
1.50002
1.50076
1.50149
1.50221
1.50291
1.7037
1.68306
1.66433
1.64739
1.63213
1.61841
1.60611
1.59509
1.58522
1.57637
1.56842
1.56126
1.55479
1.54891
1.54355
1.53864
1.53412
1.52995
1.52609
1.52253
1.51924
1.51623
1.51347
1.51097
1.50872
1.50674
1.505
1.50352
1.50229
1.50131
1.50056
1.50003
1.49972
1.49961
1.49968
1.49993
1.50033
1.50087
1.50153
1.50229
1.50315
1.50409
1.50509
1.50614
1.50723
1.50835
1.50949
1.51064
1.51181
1.51297
1.51412
1.51527
1.5164
1.51751
1.51861
1.72635
1.70553
1.68665
1.66958
1.65422
1.64045
1.62813
1.61715
1.60738
1.5987
1.59099
1.58413
1.57804
1.5726
1.56775
1.56342
1.55953
1.55605
1.55293
1.55013
1.54765
1.54546
1.54355
1.5419
1.54052
1.53939
1.53851
1.53788
1.53748
1.53731
1.53736
1.53762
1.53807
1.53871
1.53951
1.54046
1.54155
1.54276
1.54407
1.54547
1.54694
1.54848
1.55007
1.5517
1.55335
1.55502
1.5567
1.55839
1.56007
1.56174
1.56341
1.56505
1.56668
1.56828
1.56986
1.81476
1.79284
1.77292
1.75493
1.73875
1.72427
1.71137
1.69994
1.68985
1.68098
1.67321
1.66644
1.66054
1.65543
1.65101
1.6472
1.64393
1.64113
1.63877
1.63678
1.63516
1.63385
1.63285
1.63214
1.6317
1.63152
1.6316
1.63192
1.63246
1.63323
1.63421
1.63538
1.63673
1.63825
1.63993
1.64173
1.64366
1.6457
1.64782
1.65002
1.65228
1.65459
1.65693
1.65931
1.66169
1.66409
1.66648
1.66887
1.67124
1.6736
1.67594
1.67825
1.68054
1.68279
1.68502
2.04864
2.02338
2.00039
1.97959
1.96089
1.94418
1.92936
1.91629
1.90487
1.89495
1.88641
1.87913
1.87297
1.86782
1.86356
1.86009
1.85732
1.85517
1.85356
1.85244
1.85175
1.85146
1.85153
1.85193
1.85263
1.85363
1.8549
1.85642
1.85818
1.86017
1.86237
1.86477
1.86735
1.87009
1.87298
1.876
1.87913
1.88236
1.88567
1.88904
1.89247
1.89594
1.89943
1.90293
1.90644
1.90995
1.91344
1.91691
1.92036
1.92379
1.92718
1.93053
1.93385
1.93713
1.94038
2.74149
2.70586
2.67336
2.64393
2.61747
2.59386
2.573
2.55474
2.53892
2.52537
2.51392
2.50439
2.49659
2.49036
2.48551
2.4819
2.47937
2.47779
2.47704
2.47703
2.47766
2.47887
2.48058
2.48275
2.48534
2.48831
2.49163
2.49527
2.49921
2.50342
2.50789
2.5126
2.51751
2.52261
2.52788
2.5333
2.53884
2.54449
2.55022
2.55602
2.56187
2.56775
2.57364
2.57955
2.58544
2.59131
2.59716
2.60297
2.60874
2.61447
2.62014
2.62576
2.63133
2.63684
2.64229
6.24144
6.1672
6.10151
6.04406
5.99448
5.95236
5.91724
5.88865
5.86607
5.84898
5.83684
5.82911
5.82529
5.82488
5.82741
5.83245
5.83963
5.8486
5.85906
5.87077
5.8835
5.89709
5.9114
5.92631
5.94173
5.95761
5.97388
5.99051
6.00745
6.02467
6.04215
6.05985
6.07775
6.09582
6.11403
6.13234
6.15074
6.16918
6.18764
6.20608
6.22448
6.24282
6.26107
6.27921
6.29722
6.31508
6.33279
6.35032
6.36768
6.38486
6.40185
6.41866
6.43528
6.45172
6.46797
)
;

boundaryField
{
    inlet
    {
        type            fixedValue;
        value           nonuniform 0();
    }
    outlet
    {
        type            zeroGradient;
    }
    upperWall
    {
        Cmu             0.09;
        kappa           0.41;
        E               9.8;
        type            epsilonWallFunction;
        value           nonuniform List<scalar> 
55
(
6.24144
6.1672
6.10151
6.04406
5.99448
5.95236
5.91724
5.88865
5.86607
5.84898
5.83684
5.82911
5.82529
5.82488
5.82741
5.83245
5.83963
5.8486
5.85906
5.87077
5.8835
5.89709
5.9114
5.92631
5.94173
5.95761
5.97388
5.99051
6.00745
6.02467
6.04215
6.05985
6.07775
6.09582
6.11403
6.13234
6.15074
6.16918
6.18764
6.20608
6.22448
6.24282
6.26107
6.27921
6.29722
6.31508
6.33279
6.35032
6.36768
6.38486
6.40185
6.41866
6.43528
6.45172
6.46797
)
;
    }
    lowerWall
    {
        Cmu             0.09;
        kappa           0.41;
        E               9.8;
        type            epsilonWallFunction;
        value           nonuniform List<scalar> 
49
(
5.86027
5.82
5.77163
5.71589
5.65363
5.58574
5.51311
5.43665
5.35721
5.27561
5.19263
5.109
5.02536
4.94232
4.8604
4.78007
4.70171
4.62567
4.5522
4.48154
4.41382
4.34918
4.28766
4.22931
4.17413
4.12207
4.07308
4.02708
3.98399
3.94369
3.90608
3.87103
3.83842
3.80812
3.78
3.75395
3.72984
3.70755
3.68697
3.66799
3.65051
3.63442
3.61963
3.60605
3.59361
3.58222
3.57181
3.56231
3.55366
)
;
    }
    frontAndBack
    {
        type            empty;
    }
    procBoundary3to1
    {
        type            processor;
        value           nonuniform List<scalar> 
62
(
3.5458
1.8161
1.58203
1.53736
1.54364
1.56715
1.56715
1.59381
1.62302
1.62302
1.6484
1.67294
1.69435
1.71264
1.72802
1.72802
1.73919
1.74962
1.75818
1.76479
1.76479
1.76846
1.76846
1.77101
1.77364
1.77554
1.7769
1.77784
1.77845
1.77877
1.77886
1.77873
1.77841
1.77784
1.77705
1.776
1.77467
1.77302
1.771
1.76855
1.76558
1.76198
1.75761
1.75251
1.74644
1.73858
1.72819
1.71437
1.6959
1.67067
1.63554
1.59532
1.56011
1.53024
1.50968
1.5036
1.51969
1.57142
1.68722
1.94358
2.64769
6.48406
)
;
    }
    procBoundary3to2
    {
        type            processor;
        value           nonuniform List<scalar> 
58
(
5.89199
2.87139
2.47945
2.42328
2.46002
2.53036
2.6123
2.69552
2.77426
2.84479
2.9043
2.95052
2.98158
2.99607
2.99327
2.97292
2.93539
2.88844
2.83728
2.78577
2.73646
2.69079
2.64937
2.61226
2.57922
2.54985
2.52372
2.49991
2.47697
2.45415
2.43152
2.40913
2.387
2.36512
2.34344
2.32188
2.30031
2.27858
2.25759
2.23664
2.21289
2.21289
2.20859
2.17673
2.13817
2.08985
2.02685
1.95279
1.88753
1.82753
1.77667
1.74025
1.72636
1.74919
1.8388
2.07626
2.7803
6.3245
)
;
    }
}


// ************************************************************************* //
