/*--------------------------------*- C++ -*----------------------------------*\
  =========                 |
  \\      /  F ield         | OpenFOAM: The Open Source CFD Toolbox
   \\    /   O peration     | Website:  https://openfoam.org
    \\  /    A nd           | Version:  6
     \\/     M anipulation  |
\*---------------------------------------------------------------------------*/
FoamFile
{
    version     2.0;
    format      ascii;
    class       volScalarField;
    location    "0.05";
    object      k;
}
// * * * * * * * * * * * * * * * * * * * * * * * * * * * * * * * * * * * * * //

dimensions      [0 2 -2 0 0 0 0];

internalField   nonuniform List<scalar> 
3032
(
0.0399902
0.0398043
0.03958
0.0393194
0.0390256
0.0387023
0.0383533
0.0379825
0.0375937
0.0371906
0.0367769
0.0363561
0.0359312
0.0355054
0.0350814
0.0346617
0.0342486
0.0338439
0.0334493
0.0330663
0.0326961
0.0323395
0.0319973
0.0316699
0.0313576
0.0310605
0.0307787
0.0305119
0.0302598
0.0300222
0.0297985
0.0295883
0.0293911
0.0292061
0.029033
0.028871
0.0287195
0.028578
0.0284459
0.0283225
0.0282074
0.0281001
0.0279999
0.0279064
0.0278192
0.0277378
0.0276618
0.0275909
0.0275247
0.084132
0.0835544
0.0828974
0.0821687
0.0813764
0.080529
0.079635
0.0787026
0.0777401
0.0767555
0.0757563
0.0747497
0.0737422
0.0727401
0.071749
0.0707738
0.0698189
0.0688882
0.0679849
0.0671117
0.0662706
0.0654633
0.064691
0.0639542
0.0632534
0.0625884
0.0619589
0.0613643
0.0608038
0.0602763
0.0597807
0.0593157
0.0588799
0.058472
0.0580906
0.0577341
0.0574012
0.0570905
0.0568006
0.0565303
0.0562781
0.056043
0.0558237
0.0556193
0.0554286
0.0552506
0.0550845
0.0549295
0.0547846
0.105733
0.105027
0.104223
0.103329
0.102357
0.101315
0.100215
0.0990672
0.097881
0.0966665
0.095433
0.0941895
0.0929442
0.0917049
0.0904784
0.0892712
0.0880888
0.0869361
0.0858171
0.0847354
0.0836936
0.0826938
0.0817375
0.0808257
0.0799588
0.0791367
0.078359
0.077625
0.0769336
0.0762835
0.0756733
0.0751013
0.0745658
0.074065
0.0735972
0.0731604
0.072753
0.0723731
0.0720189
0.0716888
0.0713813
0.0710947
0.0708276
0.0705787
0.0703466
0.0701301
0.0699281
0.0697396
0.0695634
0.120543
0.119765
0.118875
0.117886
0.116808
0.115651
0.114428
0.11315
0.111828
0.110473
0.109095
0.107704
0.10631
0.104921
0.103546
0.102191
0.100863
0.0995678
0.0983098
0.0970932
0.0959213
0.0947965
0.0937208
0.0926952
0.0917204
0.0907964
0.0899228
0.0890988
0.0883232
0.0875946
0.0869113
0.0862715
0.0856732
0.0851144
0.0845929
0.0841067
0.0836535
0.0832315
0.0828386
0.0824729
0.0821324
0.0818155
0.0815204
0.0812456
0.0809896
0.080751
0.0805286
0.080321
0.0801271
0.131896
0.13107
0.130125
0.129073
0.127925
0.126693
0.125388
0.124023
0.122609
0.121158
0.119681
0.118189
0.116691
0.115198
0.113717
0.112257
0.110825
0.109426
0.108068
0.106753
0.105486
0.104269
0.103106
0.101996
0.100942
0.0999428
0.0989987
0.0981087
0.0972716
0.0964859
0.0957497
0.0950611
0.0944178
0.0938178
0.0932585
0.0927378
0.0922531
0.0918024
0.0913833
0.0909937
0.0906315
0.0902947
0.0899816
0.0896904
0.0894193
0.089167
0.0889319
0.0887126
0.0885081
0.140935
0.140077
0.139095
0.138001
0.136807
0.135524
0.134164
0.132741
0.131265
0.129748
0.128203
0.12664
0.125069
0.123501
0.121945
0.120409
0.1189
0.117426
0.115992
0.114604
0.113265
0.11198
0.11075
0.109577
0.108462
0.107406
0.106409
0.105469
0.104585
0.103756
0.102981
0.102256
0.10158
0.10095
0.100363
0.0998182
0.0993115
0.098841
0.0984041
0.0979986
0.0976222
0.0972728
0.0969484
0.0966471
0.096367
0.0961066
0.0958642
0.0956385
0.0954281
0.148193
0.147315
0.146311
0.145192
0.143971
0.142658
0.141266
0.139807
0.138292
0.136735
0.135146
0.133536
0.131917
0.130298
0.128689
0.1271
0.125537
0.124008
0.12252
0.121078
0.119687
0.11835
0.11707
0.115849
0.114689
0.11359
0.112552
0.111575
0.110656
0.109796
0.108991
0.10824
0.10754
0.106888
0.106283
0.105721
0.105199
0.104716
0.104268
0.103852
0.103468
0.103111
0.10278
0.102474
0.102189
0.101925
0.10168
0.101452
0.101239
0.101041
0.153967
0.153084
0.152074
0.150948
0.149718
0.148394
0.14699
0.145516
0.143984
0.142407
0.140795
0.139161
0.137514
0.135865
0.134225
0.132601
0.131003
0.129438
0.127913
0.126434
0.125005
0.123632
0.122316
0.121061
0.119867
0.118737
0.11767
0.116665
0.115721
0.114838
0.114012
0.113242
0.112526
0.11186
0.111242
0.110669
0.110139
0.109648
0.109194
0.108773
0.108385
0.108025
0.107693
0.107385
0.1071
0.106836
0.10659
0.106363
0.106151
0.105954
0.158452
0.157579
0.15658
0.155466
0.154246
0.152932
0.151535
0.150066
0.148538
0.146961
0.145348
0.143708
0.142053
0.140394
0.13874
0.1371
0.135484
0.133899
0.132352
0.13085
0.129398
0.128001
0.126661
0.125383
0.124167
0.123015
0.121928
0.120904
0.119943
0.119044
0.118205
0.117423
0.116696
0.116021
0.115396
0.114818
0.114283
0.113789
0.113333
0.112912
0.112523
0.112165
0.111833
0.111527
0.111245
0.110983
0.110741
0.110516
0.110308
0.110115
0.109935
0.161782
0.16094
0.159973
0.15889
0.157701
0.156417
0.155048
0.153606
0.152102
0.150546
0.14895
0.147324
0.14568
0.144028
0.142378
0.140739
0.13912
0.13753
0.135975
0.134464
0.133001
0.131591
0.130239
0.128947
0.127718
0.126553
0.125453
0.124418
0.123447
0.122539
0.121692
0.120903
0.120171
0.119492
0.118865
0.118285
0.117749
0.117256
0.116801
0.116382
0.115997
0.115642
0.115314
0.115013
0.114735
0.114478
0.114241
0.114022
0.113819
0.11363
0.113456
0.164063
0.163274
0.162361
0.161332
0.160197
0.158965
0.157647
0.156252
0.154792
0.153278
0.151719
0.150126
0.148511
0.146883
0.145253
0.14363
0.142024
0.140443
0.138894
0.137385
0.135922
0.134511
0.133155
0.131859
0.130626
0.129456
0.12835
0.12731
0.126335
0.125423
0.124572
0.123782
0.123049
0.12237
0.121743
0.121165
0.120632
0.120142
0.119692
0.119278
0.118897
0.118548
0.118227
0.117931
0.11766
0.11741
0.117179
0.116967
0.116771
0.116589
0.116421
0.16538
0.16467
0.163837
0.162887
0.161829
0.160673
0.159427
0.158102
0.156708
0.155254
0.153752
0.152211
0.150642
0.149056
0.147462
0.145871
0.144291
0.142731
0.1412
0.139706
0.138254
0.136851
0.135501
0.134209
0.132978
0.13181
0.130706
0.129667
0.128692
0.127781
0.126932
0.126143
0.125412
0.124737
0.124114
0.12354
0.123012
0.122528
0.122084
0.121676
0.121303
0.120961
0.120647
0.12036
0.120096
0.119854
0.119632
0.119427
0.119238
0.119065
0.118904
0.165815
0.165212
0.164484
0.163639
0.162683
0.161626
0.160476
0.159242
0.157934
0.156561
0.155134
0.153663
0.152158
0.150629
0.149086
0.14754
0.146
0.144475
0.142974
0.141505
0.140074
0.138688
0.137353
0.136073
0.134852
0.133691
0.132594
0.131561
0.130591
0.129685
0.128842
0.128058
0.127333
0.126663
0.126046
0.125479
0.124959
0.124482
0.124045
0.123646
0.123281
0.122948
0.122643
0.122364
0.122109
0.121876
0.121663
0.121467
0.121287
0.121121
0.120968
0.165451
0.164983
0.164388
0.163672
0.162842
0.161907
0.160874
0.159751
0.158549
0.157276
0.155942
0.154557
0.153131
0.151675
0.150198
0.148711
0.147223
0.145745
0.144284
0.14285
0.14145
0.14009
0.138778
0.137517
0.136311
0.135165
0.13408
0.133057
0.132098
0.131201
0.130365
0.12959
0.128873
0.128211
0.127603
0.127044
0.126532
0.126064
0.125637
0.125247
0.124891
0.124567
0.124272
0.124003
0.123758
0.123534
0.12333
0.123143
0.122972
0.122815
0.122671
0.122538
0.164384
0.164076
0.163637
0.163074
0.162391
0.161598
0.1607
0.159708
0.158628
0.157471
0.156246
0.154962
0.153629
0.152259
0.15086
0.149444
0.148021
0.1466
0.14519
0.143801
0.14244
0.141114
0.139832
0.138596
0.137414
0.136287
0.135219
0.134212
0.133266
0.132381
0.131558
0.130793
0.130087
0.129435
0.128837
0.128288
0.127787
0.127329
0.126911
0.126532
0.126186
0.125872
0.125587
0.125328
0.125092
0.124878
0.124684
0.124506
0.124344
0.124196
0.124061
0.123937
0.162695
0.162571
0.16231
0.161918
0.161402
0.160769
0.160025
0.159179
0.158238
0.157212
0.15611
0.154942
0.153717
0.152446
0.151138
0.149806
0.148458
0.147105
0.145756
0.144421
0.143109
0.141826
0.140581
0.139379
0.138225
0.137124
0.136079
0.135092
0.134164
0.133295
0.132487
0.131736
0.131043
0.130404
0.129818
0.129281
0.12879
0.128344
0.127938
0.127569
0.127234
0.126931
0.126656
0.126408
0.126183
0.125978
0.125793
0.125625
0.125473
0.125334
0.125207
0.125092
0.160524
0.160594
0.160521
0.160311
0.159971
0.159506
0.158923
0.158232
0.157438
0.156552
0.155581
0.154537
0.153427
0.152264
0.151056
0.149815
0.14855
0.147273
0.145993
0.14472
0.143463
0.14223
0.141028
0.139865
0.138746
0.137675
0.136657
0.135693
0.134787
0.133938
0.133147
0.132413
0.131735
0.13111
0.130537
0.130013
0.129536
0.129101
0.128707
0.128349
0.128026
0.127734
0.12747
0.127232
0.127017
0.126823
0.126647
0.126489
0.126345
0.126215
0.126097
0.12599
0.158256
0.158501
0.158598
0.158553
0.158372
0.158062
0.157628
0.157079
0.156423
0.155667
0.154821
0.153893
0.152895
0.151835
0.150723
0.149571
0.148389
0.147187
0.145976
0.144766
0.143565
0.142382
0.141226
0.140103
0.13902
0.137982
0.136992
0.136055
0.135171
0.134343
0.133571
0.132854
0.132192
0.131583
0.131024
0.130513
0.130048
0.129626
0.129243
0.128897
0.128585
0.128303
0.128049
0.127821
0.127616
0.127432
0.127266
0.127116
0.126981
0.12686
0.12675
0.12665
0.12656
0.156058
0.156449
0.15669
0.156786
0.156742
0.156565
0.156262
0.155839
0.155305
0.154667
0.153933
0.153113
0.152217
0.151253
0.150232
0.149164
0.148061
0.146932
0.145787
0.144637
0.143492
0.14236
0.141249
0.140167
0.139121
0.138115
0.137155
0.136244
0.135385
0.134579
0.133826
0.133128
0.132482
0.131887
0.131343
0.130846
0.130393
0.129983
0.129611
0.129276
0.128975
0.128703
0.12846
0.128241
0.128045
0.127869
0.127712
0.127571
0.127444
0.12733
0.127228
0.127136
0.127053
0.126978
0.154028
0.154533
0.154887
0.155096
0.155164
0.155098
0.154904
0.154589
0.15416
0.153624
0.15299
0.152265
0.15146
0.150584
0.149646
0.148656
0.147626
0.146565
0.145484
0.144392
0.1433
0.142216
0.14115
0.140108
0.139099
0.138126
0.137196
0.136312
0.135476
0.134692
0.133959
0.133279
0.13265
0.132071
0.13154
0.131056
0.130616
0.130218
0.129858
0.129533
0.129242
0.12898
0.128746
0.128536
0.128349
0.128181
0.128032
0.127898
0.127779
0.127672
0.127577
0.127491
0.127415
0.127346
0.152213
0.152799
0.153236
0.15353
0.153684
0.153706
0.153601
0.153374
0.153033
0.152584
0.152035
0.151394
0.15067
0.149871
0.149008
0.148089
0.147126
0.146128
0.145105
0.144068
0.143027
0.14199
0.140966
0.139964
0.138989
0.138049
0.137148
0.13629
0.135479
0.134716
0.134003
0.133341
0.132728
0.132165
0.131648
0.131178
0.13075
0.130363
0.130013
0.129699
0.129417
0.129165
0.128939
0.128738
0.128559
0.128399
0.128257
0.12813
0.128018
0.127918
0.127829
0.127749
0.127678
0.127615
0.150623
0.15126
0.151753
0.152106
0.152325
0.152413
0.152377
0.152221
0.151951
0.151575
0.151098
0.150529
0.149874
0.149144
0.148347
0.147492
0.146589
0.145649
0.14468
0.143694
0.1427
0.141707
0.140724
0.139758
0.138818
0.137909
0.137036
0.136204
0.135417
0.134675
0.133982
0.133337
0.132741
0.132192
0.13169
0.131232
0.130816
0.13044
0.130101
0.129797
0.129524
0.12928
0.129063
0.12887
0.128698
0.128545
0.12841
0.12829
0.128184
0.12809
0.128007
0.127933
0.127867
0.127809
0.149246
0.149909
0.150434
0.150826
0.151088
0.151225
0.151241
0.15114
0.150928
0.15061
0.150194
0.149685
0.149091
0.14842
0.147681
0.146883
0.146035
0.145146
0.144228
0.143288
0.142338
0.141386
0.140441
0.139511
0.138603
0.137724
0.136878
0.136071
0.135306
0.134586
0.133912
0.133285
0.132704
0.13217
0.131681
0.131236
0.130831
0.130466
0.130137
0.129842
0.129578
0.129343
0.129134
0.128948
0.128783
0.128637
0.128508
0.128394
0.128294
0.128205
0.128127
0.128058
0.127997
0.127944
0.14806
0.148729
0.149268
0.149681
0.149971
0.15014
0.150193
0.150134
0.149968
0.149698
0.149331
0.148873
0.14833
0.147711
0.147023
0.146274
0.145475
0.144634
0.14376
0.142864
0.141954
0.14104
0.140131
0.139234
0.138357
0.137506
0.136686
0.135904
0.135161
0.13446
0.133805
0.133194
0.13263
0.13211
0.131634
0.1312
0.130807
0.130452
0.130133
0.129847
0.129592
0.129364
0.129162
0.128983
0.128825
0.128686
0.128563
0.128455
0.128359
0.128276
0.128202
0.128138
0.128082
0.128033
0.147038
0.147698
0.148237
0.148657
0.148961
0.149151
0.149231
0.149202
0.14907
0.148838
0.148511
0.148096
0.147597
0.147022
0.146378
0.145674
0.144918
0.144119
0.143286
0.142429
0.141557
0.140678
0.139802
0.138936
0.138088
0.137264
0.13647
0.13571
0.134988
0.134307
0.133669
0.133075
0.132526
0.13202
0.131556
0.131135
0.130752
0.130408
0.130098
0.12982
0.129573
0.129353
0.129158
0.128986
0.128834
0.1287
0.128583
0.12848
0.128389
0.12831
0.128242
0.128181
0.128129
0.128084
0.146154
0.146794
0.147322
0.14774
0.148048
0.148249
0.148345
0.148338
0.148232
0.14803
0.147736
0.147355
0.146893
0.146356
0.145751
0.145086
0.144369
0.143608
0.142812
0.141991
0.141153
0.140307
0.139462
0.138625
0.137804
0.137006
0.136235
0.135497
0.134795
0.134133
0.133512
0.132934
0.132399
0.131906
0.131455
0.131045
0.130673
0.130338
0.130037
0.129768
0.129528
0.129315
0.129127
0.128961
0.128815
0.128686
0.128574
0.128476
0.12839
0.128316
0.128251
0.128194
0.128146
0.128104
0.145385
0.145997
0.146507
0.146914
0.147219
0.147423
0.147528
0.147536
0.147449
0.14727
0.147003
0.146651
0.14622
0.145716
0.145144
0.144513
0.14383
0.143103
0.142341
0.141553
0.140746
0.13993
0.139114
0.138305
0.137509
0.136735
0.135986
0.135269
0.134587
0.133942
0.133338
0.132775
0.132254
0.131774
0.131335
0.130935
0.130573
0.130247
0.129955
0.129694
0.129461
0.129255
0.129073
0.128913
0.128773
0.12865
0.128542
0.128448
0.128367
0.128296
0.128235
0.128182
0.128137
0.128098
0.144694
0.145274
0.145758
0.146148
0.146444
0.146645
0.146754
0.14677
0.146696
0.146535
0.146289
0.145961
0.145557
0.145081
0.144539
0.143939
0.143287
0.142591
0.14186
0.141102
0.140325
0.139538
0.138749
0.137965
0.137195
0.136444
0.135717
0.13502
0.134357
0.13373
0.133142
0.132594
0.132086
0.131619
0.131192
0.130803
0.130451
0.130134
0.12985
0.129597
0.129372
0.129173
0.128997
0.128843
0.128708
0.12859
0.128487
0.128397
0.12832
0.128253
0.128195
0.128146
0.128103
0.128067
0.144035
0.144575
0.145028
0.145396
0.145676
0.145869
0.145976
0.145997
0.145932
0.145784
0.145555
0.145249
0.144868
0.144418
0.143904
0.143333
0.142711
0.142045
0.141344
0.140616
0.139868
0.13911
0.138348
0.137591
0.136845
0.136118
0.135413
0.134737
0.134093
0.133485
0.132913
0.132381
0.131888
0.131434
0.131019
0.130641
0.1303
0.129993
0.129717
0.129472
0.129255
0.129062
0.128893
0.128745
0.128615
0.128502
0.128404
0.128319
0.128245
0.128182
0.128128
0.128081
0.128042
0.128008
0.143384
0.143877
0.144293
0.144632
0.144893
0.145073
0.145174
0.145195
0.145136
0.144999
0.144785
0.144498
0.144139
0.143714
0.143227
0.142684
0.142091
0.141456
0.140785
0.140087
0.139369
0.138639
0.137906
0.137176
0.136456
0.135753
0.135072
0.134417
0.133794
0.133204
0.13265
0.132134
0.131656
0.131216
0.130814
0.130448
0.130117
0.12982
0.129554
0.129317
0.129107
0.128922
0.12876
0.128617
0.128493
0.128385
0.128291
0.128211
0.128141
0.128081
0.12803
0.127987
0.12795
0.127919
0.142737
0.143177
0.143551
0.143856
0.144091
0.144255
0.144345
0.144362
0.144306
0.144177
0.143976
0.143705
0.143367
0.142965
0.142504
0.141988
0.141424
0.140819
0.140178
0.13951
0.138823
0.138123
0.137418
0.136716
0.136023
0.135345
0.134688
0.134056
0.133453
0.132884
0.132348
0.131849
0.131387
0.130962
0.130573
0.130219
0.1299
0.129613
0.129357
0.129129
0.128927
0.128749
0.128593
0.128457
0.128338
0.128235
0.128146
0.12807
0.128004
0.127948
0.1279
0.127859
0.127825
0.127796
0.142092
0.142474
0.142799
0.143064
0.143269
0.14341
0.143486
0.143496
0.143439
0.143314
0.143123
0.142867
0.142547
0.142167
0.14173
0.141241
0.140706
0.14013
0.139519
0.138882
0.138225
0.137555
0.13688
0.136206
0.13554
0.134889
0.134256
0.133648
0.133068
0.132519
0.132003
0.131522
0.131076
0.130666
0.130292
0.129951
0.129644
0.129368
0.129122
0.128903
0.128709
0.128539
0.12839
0.12826
0.128147
0.128049
0.127965
0.127892
0.12783
0.127777
0.127732
0.127694
0.127662
0.127635
0.141443
0.14176
0.142031
0.142252
0.142421
0.142535
0.142592
0.142591
0.142529
0.142406
0.142222
0.141978
0.141674
0.141314
0.140901
0.140438
0.13993
0.139383
0.138803
0.138196
0.13757
0.13693
0.136285
0.135641
0.135003
0.134379
0.133773
0.133189
0.132632
0.132105
0.131609
0.131147
0.130718
0.130325
0.129965
0.129638
0.129343
0.129079
0.128843
0.128633
0.128448
0.128286
0.128144
0.12802
0.127913
0.12782
0.12774
0.127672
0.127614
0.127564
0.127522
0.127486
0.127456
0.127431
0.140782
0.141029
0.14124
0.141412
0.141541
0.141624
0.141658
0.141641
0.141571
0.141447
0.141267
0.141032
0.140743
0.140401
0.140009
0.139571
0.13909
0.138572
0.138022
0.137446
0.13685
0.136242
0.135628
0.135013
0.134405
0.133809
0.133229
0.132671
0.132138
0.131633
0.131159
0.130716
0.130307
0.12993
0.129585
0.129273
0.128991
0.128739
0.128513
0.128314
0.128138
0.127983
0.127849
0.127731
0.12763
0.127542
0.127467
0.127403
0.127348
0.127301
0.127262
0.127228
0.1272
0.127176
0.140098
0.140271
0.140419
0.140536
0.14062
0.140668
0.140675
0.140639
0.140557
0.140428
0.140249
0.140022
0.139745
0.13942
0.139048
0.138633
0.138179
0.137689
0.137168
0.136623
0.136059
0.135482
0.134899
0.134315
0.133737
0.133169
0.132618
0.132086
0.131578
0.131097
0.130645
0.130223
0.129832
0.129473
0.129145
0.128848
0.12858
0.12834
0.128126
0.127936
0.127769
0.127623
0.127496
0.127385
0.127289
0.127207
0.127136
0.127076
0.127024
0.12698
0.126943
0.126911
0.126884
0.126861
0.139378
0.139473
0.139553
0.139613
0.139648
0.139656
0.139632
0.139573
0.139477
0.13934
0.13916
0.138937
0.13867
0.13836
0.138007
0.137615
0.137186
0.136723
0.136232
0.135717
0.135185
0.13464
0.134088
0.133536
0.132988
0.132451
0.131928
0.131424
0.130942
0.130485
0.130056
0.129656
0.129285
0.128945
0.128634
0.128352
0.128098
0.127871
0.127669
0.12749
0.127333
0.127195
0.127075
0.126971
0.126881
0.126803
0.126737
0.12668
0.126631
0.12659
0.126554
0.126524
0.126498
0.126476
0.138605
0.13862
0.138628
0.138627
0.13861
0.138575
0.138517
0.138433
0.138318
0.13817
0.137987
0.137766
0.137507
0.13721
0.136875
0.136504
0.136099
0.135663
0.135201
0.134717
0.134216
0.133703
0.133184
0.132663
0.132147
0.13164
0.131147
0.130671
0.130217
0.129786
0.129381
0.129003
0.128653
0.128332
0.128039
0.127773
0.127534
0.12732
0.12713
0.126962
0.126814
0.126685
0.126573
0.126475
0.126391
0.126318
0.126256
0.126202
0.126156
0.126117
0.126083
0.126053
0.126028
0.126005
0.137757
0.13769
0.137626
0.13756
0.137489
0.137409
0.137314
0.137201
0.137065
0.136904
0.136714
0.136494
0.136241
0.135955
0.135636
0.135285
0.134903
0.134494
0.13406
0.133607
0.133137
0.132657
0.13217
0.131682
0.131199
0.130723
0.130261
0.129814
0.129388
0.128983
0.128603
0.128248
0.12792
0.127619
0.127344
0.127096
0.126872
0.126672
0.126494
0.126337
0.126199
0.126078
0.125973
0.125882
0.125803
0.125735
0.125676
0.125625
0.125582
0.125544
0.12551
0.125481
0.125455
0.125432
0.136861
0.136714
0.13658
0.136452
0.136327
0.136201
0.136069
0.135926
0.135769
0.135593
0.135395
0.135173
0.134923
0.134646
0.134341
0.134007
0.133647
0.133262
0.132856
0.13243
0.131991
0.131541
0.131086
0.130629
0.130177
0.129732
0.129299
0.128881
0.128481
0.128103
0.127747
0.127415
0.127108
0.126826
0.126569
0.126337
0.126128
0.125941
0.125775
0.125628
0.125499
0.125386
0.125288
0.125202
0.125128
0.125063
0.125007
0.124959
0.124916
0.124878
0.124845
0.124815
0.124787
0.124762
0.13588
0.135656
0.135452
0.135262
0.135084
0.134912
0.134741
0.134567
0.134386
0.134194
0.133986
0.13376
0.133512
0.133242
0.132949
0.132631
0.13229
0.131928
0.131547
0.131149
0.130738
0.130318
0.129893
0.129468
0.129046
0.128631
0.128227
0.127838
0.127465
0.127112
0.126781
0.126471
0.126185
0.125923
0.125684
0.125467
0.125272
0.125098
0.124943
0.124807
0.124686
0.12458
0.124488
0.124407
0.124337
0.124275
0.124221
0.124173
0.124131
0.124092
0.124058
0.124026
0.123995
0.123967
0.134647
0.13434
0.13406
0.133804
0.133567
0.133344
0.133132
0.132924
0.132716
0.132505
0.132285
0.132054
0.131808
0.131545
0.131263
0.130963
0.130643
0.130306
0.129952
0.129584
0.129205
0.128818
0.128427
0.128035
0.127647
0.127266
0.126895
0.126537
0.126195
0.125871
0.125567
0.125283
0.12502
0.12478
0.12456
0.124361
0.124183
0.124023
0.12388
0.123755
0.123643
0.123545
0.123459
0.123384
0.123317
0.123258
0.123205
0.123158
0.123115
0.123076
0.123039
0.123004
0.122971
0.122938
0.133486
0.133052
0.132657
0.132298
0.131971
0.131672
0.131395
0.131137
0.130892
0.130655
0.130423
0.13019
0.129953
0.129707
0.129452
0.129183
0.128901
0.128604
0.128293
0.127969
0.127634
0.127289
0.126939
0.126585
0.126232
0.125882
0.125538
0.125203
0.124881
0.124573
0.124282
0.124008
0.123752
0.123517
0.1233
0.123103
0.122924
0.122763
0.122619
0.122491
0.122377
0.122276
0.122186
0.122107
0.122036
0.121973
0.121917
0.121866
0.121819
0.121775
0.121733
0.121694
0.121655
0.121616
0.121578
0.131471
0.13094
0.130455
0.130015
0.129615
0.129251
0.128919
0.128614
0.12833
0.128064
0.12781
0.127564
0.12732
0.127077
0.126829
0.126574
0.126312
0.12604
0.125758
0.125467
0.125168
0.124862
0.124552
0.12424
0.123929
0.123621
0.123319
0.123025
0.122743
0.122473
0.122218
0.121978
0.121755
0.121548
0.121359
0.121187
0.12103
0.12089
0.120763
0.12065
0.120549
0.120459
0.120379
0.120307
0.120243
0.120184
0.12013
0.12008
0.120032
0.119987
0.119943
0.1199
0.119857
0.119813
0.119768
0.128699
0.128073
0.127502
0.126983
0.126512
0.126086
0.1257
0.12535
0.12503
0.124735
0.124462
0.124203
0.123956
0.123716
0.123478
0.123241
0.123001
0.122757
0.122508
0.122254
0.121995
0.121732
0.121466
0.1212
0.120936
0.120675
0.120419
0.120171
0.119933
0.119706
0.119492
0.11929
0.119103
0.11893
0.118772
0.118627
0.118497
0.118378
0.118272
0.118177
0.118091
0.118014
0.117944
0.117881
0.117823
0.11777
0.117719
0.117671
0.117624
0.117578
0.117532
0.117486
0.117438
0.11739
0.117339
0.12477
0.124059
0.123411
0.122821
0.122287
0.121806
0.121373
0.120983
0.120632
0.120315
0.120026
0.11976
0.119513
0.119281
0.119058
0.118841
0.118628
0.118416
0.118204
0.117991
0.117777
0.117561
0.117346
0.117131
0.116918
0.116709
0.116505
0.116309
0.11612
0.11594
0.115771
0.115613
0.115466
0.115331
0.115207
0.115094
0.114992
0.1149
0.114817
0.114741
0.114673
0.114612
0.114555
0.114503
0.114453
0.114407
0.114361
0.114317
0.114272
0.114227
0.114181
0.114133
0.114083
0.11403
0.113975
0.11902
0.118244
0.117537
0.116894
0.116314
0.115793
0.115327
0.114912
0.114542
0.114213
0.113919
0.113656
0.113417
0.1132
0.112998
0.112809
0.112629
0.112455
0.112285
0.112118
0.111954
0.111791
0.11163
0.111471
0.111315
0.111164
0.111017
0.110876
0.110741
0.110614
0.110495
0.110384
0.110282
0.110189
0.110104
0.110027
0.109957
0.109895
0.109838
0.109787
0.10974
0.109697
0.109657
0.109618
0.109581
0.109545
0.109508
0.109471
0.109432
0.109392
0.109349
0.109303
0.109255
0.109204
0.109149
0.111547
0.11075
0.110025
0.10937
0.108781
0.108256
0.107791
0.107381
0.107022
0.106708
0.106434
0.106195
0.105986
0.105802
0.105638
0.105492
0.105358
0.105234
0.105117
0.105006
0.104899
0.104796
0.104696
0.104598
0.104504
0.104413
0.104326
0.104243
0.104165
0.104093
0.104026
0.103965
0.103909
0.10386
0.103815
0.103776
0.103741
0.10371
0.103683
0.103658
0.103636
0.103614
0.103594
0.103574
0.103553
0.103531
0.103508
0.103482
0.103454
0.103423
0.10339
0.103352
0.103312
0.103267
0.103219
0.104311
0.103522
0.102807
0.102163
0.101589
0.101079
0.100632
0.100241
0.0999033
0.0996129
0.099365
0.0991545
0.0989761
0.0988251
0.0986969
0.0985874
0.0984928
0.09841
0.0983364
0.0982697
0.0982084
0.0981513
0.0980977
0.0980471
0.0979992
0.0979542
0.0979121
0.0978732
0.0978376
0.0978055
0.0977771
0.0977523
0.0977311
0.0977133
0.0976988
0.097687
0.0976777
0.0976703
0.0976643
0.0976593
0.0976545
0.0976496
0.097644
0.0976371
0.0976285
0.0976178
0.0976045
0.0975884
0.097569
0.0975462
0.0975197
0.0974894
0.097455
0.0974166
0.0973741
0.0968185
0.0960599
0.095375
0.0947617
0.0942172
0.0937381
0.0933208
0.0929609
0.0926539
0.092395
0.092179
0.092001
0.091856
0.0917392
0.0916461
0.0915726
0.0915149
0.0914698
0.0914345
0.0914069
0.091385
0.0913675
0.0913534
0.091342
0.091333
0.091326
0.0913209
0.0913179
0.0913168
0.0913177
0.0913206
0.0913255
0.0913322
0.0913406
0.0913504
0.0913612
0.0913729
0.0913848
0.0913967
0.0914081
0.0914186
0.0914276
0.0914348
0.0914399
0.0914423
0.0914418
0.0914382
0.091431
0.0914202
0.0914055
0.0913868
0.091364
0.091337
0.0913057
0.0912702
0.0891823
0.0884698
0.0878296
0.0872593
0.0867564
0.0863176
0.0859392
0.085617
0.0853468
0.0851237
0.0849428
0.0847995
0.0846887
0.0846058
0.0845465
0.0845068
0.0844829
0.0844716
0.0844701
0.0844762
0.084488
0.0845039
0.0845228
0.0845439
0.0845666
0.0845906
0.0846157
0.0846415
0.0846682
0.0846956
0.0847237
0.0847524
0.0847814
0.0848107
0.0848401
0.0848692
0.0848978
0.0849256
0.0849521
0.0849771
0.0850002
0.0850211
0.0850394
0.0850548
0.0850671
0.0850759
0.0850811
0.0850826
0.08508
0.0850733
0.0850625
0.0850474
0.0850281
0.0850044
0.0849765
0.0814649
0.0808098
0.080224
0.0797056
0.0792517
0.0788594
0.0785251
0.0782448
0.0780142
0.077829
0.0776844
0.0775758
0.0774985
0.0774481
0.0774204
0.0774115
0.0774177
0.0774361
0.0774638
0.0774985
0.0775383
0.0775818
0.0776277
0.0776751
0.0777234
0.0777722
0.077821
0.0778698
0.0779183
0.0779665
0.0780142
0.0780615
0.078108
0.0781537
0.0781985
0.078242
0.078284
0.0783243
0.0783626
0.0783986
0.0784321
0.0784627
0.0784903
0.0785146
0.0785353
0.0785524
0.0785656
0.0785748
0.0785799
0.0785809
0.0785776
0.0785701
0.0785584
0.0785424
0.0785222
0.073676
0.0730857
0.0725609
0.0720995
0.0716991
0.0713568
0.071069
0.0708321
0.0706422
0.0704948
0.0703857
0.0703104
0.0702646
0.070244
0.0702446
0.0702628
0.0702951
0.0703384
0.0703903
0.0704484
0.0705109
0.0705763
0.0706434
0.0707113
0.0707793
0.070847
0.070914
0.07098
0.0710451
0.0711089
0.0711714
0.0712325
0.0712922
0.0713502
0.0714064
0.0714608
0.0715129
0.0715628
0.0716101
0.0716546
0.0716962
0.0717345
0.0717696
0.0718011
0.0718289
0.0718528
0.0718729
0.0718889
0.0719008
0.0719087
0.0719124
0.0719119
0.0719073
0.0718987
0.071886
0.0657559
0.0652355
0.0647756
0.0643744
0.0640295
0.0637382
0.0634974
0.0633036
0.063153
0.0630416
0.0629656
0.0629206
0.0629027
0.0629079
0.0629325
0.062973
0.0630262
0.0630893
0.0631597
0.0632355
0.0633148
0.0633963
0.0634787
0.0635612
0.0636432
0.0637241
0.0638038
0.0638818
0.0639581
0.0640326
0.0641052
0.0641758
0.0642443
0.0643106
0.0643747
0.0644363
0.0644954
0.0645518
0.0646053
0.0646557
0.064703
0.064747
0.0647875
0.0648243
0.0648575
0.0648869
0.0649124
0.0649339
0.0649515
0.0649652
0.0649748
0.0649806
0.0649824
0.0649803
0.0649745
0.0575359
0.0570888
0.0566961
0.0563562
0.056067
0.0558259
0.0556302
0.0554768
0.0553622
0.0552829
0.0552353
0.0552155
0.0552199
0.055245
0.0552872
0.0553435
0.0554109
0.0554868
0.0555691
0.0556556
0.0557449
0.0558355
0.0559265
0.0560171
0.0561066
0.0561946
0.0562808
0.056365
0.0564471
0.0565269
0.0566045
0.0566797
0.0567525
0.0568229
0.0568907
0.0569558
0.0570182
0.0570778
0.0571343
0.0571878
0.0572381
0.057285
0.0573286
0.0573686
0.0574051
0.0574379
0.057467
0.0574925
0.0575142
0.0575322
0.0575465
0.0575572
0.0575642
0.0575677
0.0575677
0.0486213
0.0482496
0.0479246
0.0476448
0.0474085
0.0472135
0.0470576
0.0469381
0.046852
0.0467964
0.0467682
0.046764
0.0467808
0.0468153
0.0468647
0.0469261
0.0469971
0.0470753
0.0471587
0.0472457
0.0473349
0.0474249
0.047515
0.0476045
0.0476926
0.0477792
0.0478639
0.0479465
0.048027
0.0481051
0.048181
0.0482545
0.0483255
0.0483942
0.0484603
0.0485238
0.0485847
0.0486428
0.0486981
0.0487506
0.0488
0.0488464
0.0488896
0.0489296
0.0489664
0.0489999
0.0490301
0.0490569
0.0490804
0.0491007
0.0491176
0.0491314
0.0491419
0.0491493
0.0491537
0.0379753
0.0376751
0.0374102
0.0371799
0.036983
0.0368181
0.0366838
0.0365781
0.036499
0.0364442
0.0364116
0.0363986
0.0364028
0.0364218
0.0364534
0.0364953
0.0365455
0.0366022
0.0366638
0.036729
0.0367965
0.0368653
0.0369347
0.0370041
0.0370729
0.0371409
0.0372077
0.0372732
0.0373373
0.0373998
0.0374606
0.0375198
0.0375772
0.0376328
0.0376865
0.0377383
0.037788
0.0378357
0.0378812
0.0379245
0.0379654
0.038004
0.0380402
0.0380739
0.038105
0.0381336
0.0381597
0.0381831
0.038204
0.0382223
0.0382381
0.0382514
0.0382622
0.0382706
0.0382766
0.0210279
0.0208161
0.0206239
0.0204509
0.0202964
0.0201598
0.0200403
0.0199369
0.0198486
0.0197742
0.0197125
0.0196623
0.0196225
0.0195916
0.0195687
0.0195525
0.0195421
0.0195366
0.019535
0.0195368
0.0195412
0.0195478
0.0195561
0.0195658
0.0195765
0.0195881
0.0196004
0.0196133
0.0196265
0.0196401
0.0196539
0.0196679
0.019682
0.0196961
0.0197102
0.0197241
0.0197379
0.0197514
0.0197645
0.0197773
0.0197896
0.0198014
0.0198126
0.0198231
0.019833
0.0198422
0.0198507
0.0198584
0.0198652
0.0198713
0.0198766
0.019881
0.0198846
0.0198874
0.0198894
)
;

boundaryField
{
    inlet
    {
        type            fixedValue;
        value           nonuniform 0();
    }
    outlet
    {
        type            zeroGradient;
    }
    upperWall
    {
        type            kqRWallFunction;
        value           nonuniform List<scalar> 
55
(
0.0210279
0.0208161
0.0206239
0.0204509
0.0202964
0.0201598
0.0200403
0.0199369
0.0198486
0.0197742
0.0197125
0.0196623
0.0196225
0.0195916
0.0195687
0.0195525
0.0195421
0.0195366
0.019535
0.0195368
0.0195412
0.0195478
0.0195561
0.0195658
0.0195765
0.0195881
0.0196004
0.0196133
0.0196265
0.0196401
0.0196539
0.0196679
0.019682
0.0196961
0.0197102
0.0197241
0.0197379
0.0197514
0.0197645
0.0197773
0.0197896
0.0198014
0.0198126
0.0198231
0.019833
0.0198422
0.0198507
0.0198584
0.0198652
0.0198713
0.0198766
0.019881
0.0198846
0.0198874
0.0198894
)
;
    }
    lowerWall
    {
        type            kqRWallFunction;
        value           nonuniform List<scalar> 
49
(
0.0399902
0.0398043
0.03958
0.0393194
0.0390256
0.0387023
0.0383533
0.0379825
0.0375937
0.0371906
0.0367769
0.0363561
0.0359312
0.0355054
0.0350814
0.0346617
0.0342486
0.0338439
0.0334493
0.0330663
0.0326961
0.0323395
0.0319973
0.0316699
0.0313576
0.0310605
0.0307787
0.0305119
0.0302598
0.0300222
0.0297985
0.0295883
0.0293911
0.0292061
0.029033
0.028871
0.0287195
0.028578
0.0284459
0.0283225
0.0282074
0.0281001
0.0279999
0.0279064
0.0278192
0.0277378
0.0276618
0.0275909
0.0275247
)
;
    }
    frontAndBack
    {
        type            empty;
    }
    procBoundary3to1
    {
        type            processor;