/*--------------------------------*- C++ -*----------------------------------*\
  =========                 |
  \\      /  F ield         | OpenFOAM: The Open Source CFD Toolbox
   \\    /   O peration     | Website:  https://openfoam.org
    \\  /    A nd           | Version:  6
     \\/     M anipulation  |
\*---------------------------------------------------------------------------*/
FoamFile
{
    version     2.0;
    format      ascii;
    class       volScalarField;
    location    "0.05";
    object      nut;
}
// * * * * * * * * * * * * * * * * * * * * * * * * * * * * * * * * * * * * * //

dimensions      [0 2 -1 0 0 0 0];

internalField   nonuniform List<scalar> 
3032
(
2.45602e-05
2.45008e-05
2.44285e-05
2.43429e-05
2.42446e-05
2.41344e-05
2.40133e-05
2.38824e-05
2.37429e-05
2.35959e-05
2.34426e-05
2.32841e-05
2.31216e-05
2.29562e-05
2.2789e-05
2.26208e-05
2.24528e-05
2.22858e-05
2.21205e-05
2.19578e-05
2.17982e-05
2.16423e-05
2.14906e-05
2.13435e-05
2.12013e-05
2.10642e-05
2.09324e-05
2.08061e-05
2.06851e-05
2.05695e-05
2.04593e-05
2.03543e-05
2.02545e-05
2.01595e-05
2.00694e-05
1.99837e-05
1.99024e-05
1.98253e-05
1.9752e-05
1.96824e-05
1.96163e-05
1.95534e-05
1.94935e-05
1.94365e-05
1.93821e-05
1.93301e-05
1.92804e-05
1.92328e-05
1.91872e-05
0.000223435
0.000222213
0.000220802
0.000219219
0.000217479
0.000215598
0.000213591
0.000211476
0.000209269
0.000206987
0.000204645
0.000202261
0.000199848
0.000197422
0.000194996
0.000192584
0.000190197
0.000187847
0.000185542
0.000183293
0.000181105
0.000178986
0.000176939
0.00017497
0.00017308
0.000171273
0.000169548
0.000167905
0.000166345
0.000164866
0.000163465
0.000162142
0.000160893
0.000159715
0.000158605
0.000157561
0.000156578
0.000155654
0.000154784
0.000153967
0.000153198
0.000152475
0.000151795
0.000151154
0.000150551
0.000149982
0.000149445
0.000148937
0.000148457
0.000408958
0.000407138
0.000404957
0.000402441
0.000399616
0.000396511
0.000393151
0.000389568
0.000385791
0.000381848
0.00037777
0.000373586
0.000369325
0.000365014
0.00036068
0.000356348
0.000352042
0.000347782
0.000343589
0.000339479
0.00033547
0.000331573
0.0003278
0.00032416
0.000320659
0.000317303
0.000314095
0.000311035
0.000308125
0.000305363
0.000302747
0.000300272
0.000297936
0.000295733
0.000293658
0.000291705
0.000289868
0.000288142
0.00028652
0.000284997
0.000283567
0.000282223
0.000280961
0.000279775
0.00027866
0.000277611
0.000276623
0.000275693
0.000274816
0.000544144
0.000542236
0.00053986
0.000537044
0.000533819
0.000530216
0.000526269
0.000522011
0.00051748
0.000512711
0.000507741
0.000502607
0.000497345
0.00049199
0.000486578
0.00048114
0.000475708
0.000470312
0.000464977
0.000459729
0.000454589
0.000449577
0.000444708
0.000439996
0.000435453
0.000431087
0.000426903
0.000422906
0.000419096
0.000415475
0.000412039
0.000408786
0.000405711
0.000402809
0.000400074
0.000397498
0.000395075
0.000392798
0.000390658
0.000388649
0.000386762
0.00038499
0.000383326
0.000381764
0.000380296
0.000378917
0.000377619
0.000376398
0.000375248
0.000642101
0.000640455
0.000638275
0.00063559
0.000632429
0.000628823
0.000624808
0.000620418
0.000615693
0.00061067
0.00060539
0.000599894
0.000594221
0.000588411
0.000582503
0.000576535
0.000570544
0.000564563
0.000558624
0.000552758
0.00054699
0.000541345
0.000535844
0.000530504
0.00052534
0.000520365
0.000515586
0.00051101
0.000506642
0.000502481
0.000498529
0.000494781
0.000491235
0.000487885
0.000484725
0.000481748
0.000478946
0.000476311
0.000473835
0.000471509
0.000469326
0.000467276
0.000465351
0.000463544
0.000461847
0.000460252
0.000458753
0.000457343
0.000456016
0.000713218
0.000712087
0.000710383
0.000708129
0.000705353
0.000702083
0.000698354
0.0006942
0.000689659
0.00068477
0.000679574
0.000674112
0.000668426
0.000662559
0.000656552
0.000650446
0.000644279
0.000638092
0.000631918
0.000625791
0.000619743
0.000613801
0.000607989
0.00060233
0.000596841
0.000591538
0.000586433
0.000581534
0.000576847
0.000572376
0.000568123
0.000564085
0.000560259
0.000556643
0.000553228
0.00055001
0.000546979
0.000544129
0.00054145
0.000538933
0.00053657
0.000534352
0.00053227
0.000530315
0.00052848
0.000526757
0.000525137
0.000523614
0.00052218
0.000764389
0.000763968
0.000762948
0.000761346
0.000759186
0.000756495
0.000753302
0.000749642
0.000745549
0.000741062
0.000736222
0.000731069
0.000725647
0.000719998
0.000714166
0.000708192
0.00070212
0.000695988
0.000689836
0.000683701
0.000677615
0.000671612
0.000665717
0.000659957
0.000654354
0.000648924
0.000643683
0.000638643
0.000633812
0.000629195
0.000624796
0.000620615
0.000616651
0.000612899
0.000609355
0.000606012
0.000602864
0.000599902
0.000597118
0.000594503
0.000592048
0.000589744
0.000587581
0.000585552
0.000583647
0.000581859
0.000580179
0.0005786
0.000577115
0.000575715
0.000800275
0.000800722
0.000800549
0.000799769
0.000798399
0.000796464
0.00079399
0.000791008
0.000787551
0.000783658
0.000779366
0.000774716
0.000769752
0.000764515
0.000759051
0.000753402
0.000747612
0.000741723
0.000735777
0.000729811
0.000723863
0.000717966
0.000712153
0.00070645
0.000700882
0.000695471
0.000690234
0.000685186
0.000680336
0.000675694
0.000671265
0.000667049
0.000663047
0.000659258
0.000655676
0.000652297
0.000649113
0.000646118
0.000643303
0.000640659
0.000638177
0.000635848
0.000633664
0.000631615
0.000629692
0.000627888
0.000626194
0.000624603
0.000623106
0.000621697
0.00082417
0.00082562
0.000826428
0.000826602
0.000826157
0.000825112
0.000823491
0.000821323
0.000818639
0.000815474
0.000811867
0.000807858
0.000803488
0.000798801
0.000793841
0.000788652
0.000783279
0.000777766
0.000772154
0.000766486
0.0007608
0.000755133
0.000749518
0.000743986
0.000738565
0.000733279
0.000728147
0.000723188
0.000718414
0.000713835
0.000709459
0.000705289
0.000701327
0.000697572
0.000694021
0.00069067
0.000687513
0.000684542
0.000681751
0.00067913
0.000676671
0.000674364
0.000672202
0.000670175
0.000668275
0.000666493
0.00066482
0.00066325
0.000661774
0.000660386
0.000659077
0.000838525
0.000841095
0.000842996
0.000844234
0.000844818
0.000844766
0.000844098
0.000842841
0.000841026
0.000838686
0.000835859
0.000832584
0.000828903
0.000824859
0.000820497
0.000815862
0.000810999
0.000805953
0.000800768
0.000795487
0.000790151
0.0007848
0.000779468
0.00077419
0.000768995
0.00076391
0.000758958
0.000754158
0.000749527
0.000745077
0.000740816
0.000736751
0.000732884
0.000729217
0.000725748
0.000722474
0.000719388
0.000716486
0.000713759
0.000711201
0.000708802
0.000706553
0.000704447
0.000702474
0.000700625
0.000698893
0.000697269
0.000695745
0.000694315
0.000692969
0.000691703
0.000845256
0.000849049
0.000852139
0.000854527
0.000856222
0.000857237
0.000857594
0.000857317
0.000856435
0.000854984
0.000852999
0.000850519
0.000847588
0.000844247
0.000840544
0.000836522
0.00083223
0.000827712
0.000823014
0.000818181
0.000813255
0.000808278
0.000803287
0.000798319
0.000793406
0.000788576
0.000783856
0.000779267
0.000774827
0.000770551
0.000766451
0.000762533
0.000758803
0.000755263
0.000751912
0.000748749
0.000745769
0.000742966
0.000740335
0.000737867
0.000735555
0.00073339
0.000731364
0.000729468
0.000727694
0.000726033
0.000724477
0.000723019
0.000721652
0.000720367
0.000719158
0.000845934
0.000851038
0.000855393
0.000858999
0.000861863
0.000863998
0.000865425
0.00086617
0.000866261
0.000865733
0.000864624
0.000862973
0.000860824
0.00085822
0.000855208
0.000851834
0.000848146
0.000844191
0.000840016
0.000835666
0.000831188
0.000826622
0.000822009
0.000817388
0.000812793
0.000808254
0.000803801
0.000799456
0.000795241
0.000791172
0.000787262
0.000783521
0.000779955
0.000776569
0.000773362
0.000770335
0.000767483
0.000764803
0.000762288
0.000759931
0.000757725
0.000755662
0.000753734
0.000751931
0.000750247
0.000748672
0.000747199
0.000745821
0.000744529
0.000743317
0.000742177
0.000841905
0.000848386
0.00085406
0.000858927
0.000862995
0.000866278
0.000868797
0.000870579
0.000871657
0.000872064
0.00087184
0.000871027
0.000869669
0.000867811
0.0008655
0.000862785
0.000859714
0.000856336
0.000852699
0.000848851
0.000844837
0.000840701
0.000836487
0.000832233
0.000827977
0.000823751
0.000819585
0.000815506
0.000811536
0.000807693
0.000803994
0.000800448
0.000797065
0.00079385
0.000790804
0.000787929
0.000785221
0.000782677
0.000780292
0.00077806
0.000775972
0.000774023
0.000772203
0.000770506
0.000768921
0.000767443
0.000766062
0.000764772
0.000763566
0.000762434
0.000761371
0.000834365
0.000842259
0.000849276
0.000855419
0.000860697
0.000865126
0.000868733
0.000871545
0.000873596
0.000874926
0.000875575
0.000875586
0.000875006
0.000873883
0.000872264
0.000870201
0.000867742
0.000864938
0.000861838
0.000858491
0.000854945
0.000851245
0.000847435
0.000843557
0.000839648
0.000835744
0.000831876
0.000828073
0.000824359
0.000820754
0.000817275
0.000813936
0.000810746
0.000807712
0.000804837
0.000802122
0.000799567
0.000797168
0.000794921
0.00079282
0.000790859
0.00078903
0.000787326
0.000785739
0.000784261
0.000782885
0.000781602
0.000780406
0.000779289
0.000778244
0.000777264
0.000776342
0.000824411
0.000833712
0.000842057
0.000849452
0.000855911
0.000861455
0.000866113
0.000869918
0.000872907
0.000875123
0.000876608
0.00087741
0.000877578
0.00087716
0.000876207
0.000874771
0.000872904
0.000870656
0.000868079
0.000865223
0.000862136
0.000858865
0.000855455
0.00085195
0.000848388
0.000844807
0.000841239
0.000837715
0.00083426
0.000830897
0.000827644
0.000824515
0.000821523
0.000818674
0.000815973
0.000813424
0.000811025
0.000808775
0.000806669
0.000804704
0.000802872
0.000801166
0.000799581
0.000798107
0.000796738
0.000795466
0.000794284
0.000793183
0.000792158
0.000791202
0.000790306
0.000789465
0.000812845
0.000823515
0.000833144
0.000841744
0.000849336
0.000855945
0.000861606
0.000866356
0.000870237
0.000873294
0.000875576
0.000877131
0.000878011
0.000878268
0.000877954
0.000877123
0.000875827
0.000874119
0.000872051
0.000869674
0.000867038
0.000864191
0.000861179
0.000858045
0.000854831
0.000851574
0.00084831
0.000845068
0.000841877
0.00083876
0.000835737
0.000832824
0.000830034
0.000827375
0.000824854
0.000822473
0.000820235
0.000818137
0.000816176
0.000814348
0.000812648
0.000811068
0.000809603
0.000808245
0.000806986
0.00080582
0.000804738
0.000803735
0.000802803
0.000801935
0.000801124
0.000800363
0.000800917
0.000812808
0.000823578
0.000833245
0.000841837
0.000849385
0.000855928
0.000861511
0.000866178
0.00086998
0.000872967
0.000875192
0.000876708
0.000877569
0.00087783
0.000877545
0.000876768
0.000875553
0.000873953
0.00087202
0.000869803
0.000867351
0.000864712
0.00086193
0.000859046
0.000856098
0.000853124
0.000850154
0.000847218
0.000844339
0.000841539
0.000838835
0.000836241
0.000833767
0.000831421
0.000829205
0.000827123
0.000825173
0.000823353
0.000821659
0.000820087
0.00081863
0.000817282
0.000816035
0.000814884
0.000813821
0.000812838
0.00081193
0.000811088
0.000810307
0.000809579
0.000808895
0.000790437
0.000803253
0.000814887
0.000825364
0.000834717
0.000842983
0.000850206
0.000856432
0.000861713
0.000866098
0.000869643
0.000872401
0.000874428
0.000875779
0.00087651
0.000876676
0.000876331
0.000875529
0.000874324
0.000872768
0.000870911
0.000868802
0.000866487
0.000864013
0.000861419
0.000858747
0.000856031
0.000853305
0.000850598
0.000847935
0.000845337
0.000842824
0.00084041
0.000838105
0.000835918
0.000833854
0.000831914
0.000830101
0.00082841
0.00082684
0.000825386
0.000824041
0.000822801
0.000821658
0.000820606
0.000819638
0.000818747
0.000817926
0.000817169
0.000816469
0.000815819
0.000815212
0.000814636
0.000781762
0.000795204
0.000807427
0.000818463
0.000828347
0.000837121
0.000844831
0.000851527
0.00085726
0.000862083
0.000866052
0.000869221
0.000871647
0.000873385
0.000874492
0.000875023
0.000875031
0.000874572
0.000873698
0.000872461
0.000870911
0.000869096
0.000867063
0.000864857
0.00086252
0.000860091
0.000857606
0.000855098
0.000852597
0.000850128
0.000847715
0.000845375
0.000843124
0.000840974
0.000838933
0.000837006
0.000835198
0.000833509
0.000831937
0.000830479
0.000829133
0.000827891
0.00082675
0.000825701
0.000824739
0.000823858
0.00082305
0.00082231
0.000821629
0.000821004
0.000820426
0.000819888
0.000819383
0.000818905
0.000774914
0.000788705
0.000801269
0.000812636
0.000822847
0.000831943
0.000839972
0.000846984
0.000853029
0.000858162
0.000862438
0.000865913
0.000868641
0.000870678
0.000872081
0.000872903
0.000873198
0.00087302
0.000872421
0.000871453
0.000870163
0.000868601
0.000866813
0.000864842
0.00086273
0.000860517
0.000858237
0.000855925
0.00085361
0.000851317
0.000849071
0.000846889
0.000844787
0.000842778
0.00084087
0.00083907
0.000837382
0.000835806
0.000834343
0.000832988
0.00083174
0.000830592
0.00082954
0.000828577
0.000827698
0.000826895
0.000826163
0.000825495
0.000824885
0.000824326
0.000823813
0.000823337
0.000822893
0.000822474
0.000769722
0.00078363
0.000796322
0.000807831
0.000818197
0.000827459
0.000835666
0.000842864
0.000849105
0.000854442
0.000858928
0.000862619
0.000865568
0.000867831
0.000869461
0.000870513
0.000871039
0.000871091
0.00087072
0.000869977
0.000868909
0.000867564
0.000865988
0.000864223
0.00086231
0.000860288
0.000858193
0.000856057
0.00085391
0.000851777
0.000849682
0.000847644
0.000845679
0.000843799
0.000842014
0.000840331
0.000838753
0.000837282
0.000835917
0.000834657
0.000833498
0.000832436
0.000831466
0.000830581
0.000829776
0.000829045
0.000828381
0.000827779
0.000827232
0.000826734
0.000826278
0.000825859
0.000825467
0.000825097
0.000765931
0.000779769
0.000792423
0.000803923
0.000814306
0.000823611
0.000831881
0.000839163
0.000845506
0.000850961
0.000855579
0.000859414
0.000862518
0.000864945
0.000866748
0.000867978
0.000868687
0.000868926
0.000868744
0.00086819
0.000867312
0.000866154
0.000864762
0.000863178
0.000861441
0.00085959
0.00085766
0.000855683
0.000853688
0.000851702
0.000849746
0.00084784
0.000846
0.00084424
0.000842568
0.000840991
0.000839514
0.000838139
0.000836866
0.000835693
0.000834616
0.000833633
0.000832737
0.000831923
0.000831187
0.00083052
0.000829919
0.000829375
0.000828885
0.000828441
0.000828038
0.000827668
0.000827323
0.000826996
0.000763265
0.000776896
0.000789386
0.000800764
0.00081106
0.000820312
0.00082856
0.000835846
0.000842217
0.000847722
0.000852409
0.000856331
0.000859538
0.000862081
0.000864011
0.000865378
0.000866232
0.000866622
0.000866596
0.000866201
0.000865483
0.000864487
0.000863256
0.000861831
0.000860251
0.000858553
0.000856772
0.000854939
0.000853083
0.00085123
0.000849401
0.000847617
0.000845893
0.000844242
0.000842675
0.000841197
0.000839814
0.000838528
0.000837339
0.000836245
0.000835245
0.000834333
0.000833506
0.000832757
0.000832082
0.000831475
0.00083093
0.00083044
0.000830001
0.000829606
0.00082925
0.000828924
0.00082862
0.000828329
0.000761469
0.000774797
0.000787035
0.000798209
0.000808344
0.000817474
0.000825634
0.000832864
0.000839208
0.000844711
0.00084942
0.000853384
0.000856652
0.000859272
0.000861292
0.000862762
0.00086373
0.000864242
0.000864344
0.000864083
0.000863503
0.000862647
0.000861557
0.000860273
0.000858832
0.000857272
0.000855625
0.000853923
0.000852193
0.000850462
0.000848751
0.000847079
0.000845462
0.000843913
0.000842442
0.000841056
0.00083976
0.000838556
0.000837444
0.000836425
0.000835494
0.000834648
0.000833884
0.000833195
0.000832577
0.000832023
0.000831529
0.000831088
0.000830695
0.000830345
0.00083003
0.000829743
0.000829475
0.000829217
0.000760325
0.000773287
0.000785216
0.000796131
0.000806053
0.000815012
0.000823039
0.00083017
0.000836446
0.000841909
0.000846603
0.000850575
0.000853871
0.000856536
0.000858619
0.000860165
0.00086122
0.000861829
0.000862038
0.00086189
0.000861427
0.000860693
0.000859726
0.000858566
0.000857251
0.000855814
0.000854289
0.000852706
0.000851092
0.000849473
0.000847869
0.000846301
0.000844783
0.000843328
0.000841947
0.000840646
0.00083943
0.000838303
0.000837263
0.000836312
0.000835446
0.000834661
0.000833954
0.00083332
0.000832753
0.000832248
0.0008318
0.000831404
0.000831053
0.000830741
0.000830464
0.000830212
0.000829977
0.000829746
0.000759655
0.000772217
0.000783802
0.000794423
0.0008041
0.000812855
0.000820717
0.000827719
0.000833898
0.000839292
0.000843945
0.000847898
0.000851197
0.000853885
0.000856006
0.000857606
0.000858728
0.000859415
0.00085971
0.000859657
0.000859295
0.000858666
0.000857808
0.000856759
0.000855555
0.00085423
0.000852815
0.000851341
0.000849833
0.000848317
0.000846813
0.00084534
0.000843914
0.000842546
0.000841248
0.000840026
0.000838885
0.000837828
0.000836856
0.000835967
0.00083516
0.000834432
0.000833777
0.000833193
0.000832673
0.000832213
0.000831807
0.00083145
0.000831136
0.000830861
0.000830616
0.000830396
0.000830189
0.000829984
0.000759321
0.000771467
0.00078269
0.000793
0.000802411
0.000810943
0.00081862
0.000825472
0.000831533
0.000836839
0.00084143
0.000845346
0.000848628
0.00085132
0.000853462
0.000855098
0.000856269
0.000857017
0.000857384
0.000857409
0.000857134
0.000856596
0.000855834
0.000854884
0.00085378
0.000852555
0.000851241
0.000849866
0.000848455
0.000847034
0.000845622
0.000844237
0.000842896
0.000841609
0.000840388
0.000839239
0.000838168
0.000837176
0.000836265
0.000835435
0.000834683
0.000834006
0.0008334
0.000832861
0.000832384
0.000831964
0.000831595
0.000831274
0.000830994
0.000830749
0.000830534
0.000830341
0.00083016
0.000829978
0.00075921
0.000770928
0.000781775
0.000791757
0.000800885
0.000809175
0.000816649
0.000823333
0.000829258
0.000834457
0.000838968
0.000842829
0.000846079
0.000848757
0.000850904
0.000852561
0.000853767
0.000854563
0.000854988
0.000855081
0.000854881
0.000854424
0.000853748
0.000852888
0.000851876
0.000850745
0.000849524
0.000848242
0.000846924
0.000845592
0.000844267
0.000842968
0.000841707
0.000840499
0.000839352
0.000838273
0.000837268
0.000836339
0.000835488
0.000834713
0.000834013
0.000833385
0.000832825
0.000832329
0.000831892
0.00083151
0.000831177
0.000830889
0.00083064
0.000830424
0.000830236
0.000830069
0.000829911
0.000829752
0.000759245
0.000770506
0.000780948
0.000790574
0.000799391
0.000807413
0.000814659
0.000821152
0.000826919
0.000831992
0.000836405
0.000840193
0.000843393
0.000846044
0.000848183
0.000849848
0.000851079
0.000851913
0.000852388
0.000852541
0.000852409
0.000852029
0.000851435
0.00085066
0.000849737
0.000848697
0.000847569
0.000846379
0.000845152
0.00084391
0.000842672
0.000841457
0.000840278
0.000839147
0.000838074
0.000837066
0.000836128
0.000835262
0.000834469
0.000833749
0.000833101
0.000832521
0.000832006
0.000831552
0.000831155
0.000830808
0.000830509
0.000830252
0.000830032
0.000829843
0.000829681
0.000829536
0.000829401
0.000829263
0.000759393
0.000770154
0.00078015
0.000789382
0.000797855
0.000805578
0.000812567
0.000818842
0.000824428
0.000829354
0.00083365
0.00083735
0.000840487
0.000843098
0.000845218
0.000846883
0.00084813
0.000848996
0.000849516
0.000849726
0.00084966
0.000849354
0.00084884
0.000848151
0.000847318
0.00084637
0.000845335
0.000844238
0.000843104
0.000841953
0.000840805
0.000839676
0.00083858
0.000837528
0.000836531
0.000835594
0.000834723
0.00083392
0.000833187
0.000832523
0.000831926
0.000831394
0.000830923
0.00083051
0.00083015
0.000829839
0.000829572
0.000829344
0.000829151
0.000828987
0.000828847
0.000828723
0.000828608
0.00082849
0.000759606
0.000769825
0.000779337
0.000788138
0.000796231
0.000803623
0.000810327
0.000816358
0.00082174
0.000826497
0.000830658
0.000834252
0.000837312
0.00083987
0.000841961
0.000843617
0.000844874
0.000845766
0.000846326
0.000846589
0.000846588
0.000846354
0.000845921
0.000845318
0.000844575
0.00084372
0.00084278
0.000841779
0.000840739
0.000839681
0.000838624
0.000837584
0.000836573
0.000835603
0.000834683
0.000833819
0.000833017
0.000832278
0.000831605
0.000830997
0.000830452
0.000829968
0.000829541
0.000829168
0.000828845
0.000828568
0.000828331
0.000828131
0.000827963
0.000827821
0.000827702
0.000827597
0.000827499
0.000827398
0.000759827
0.000769465
0.000778453
0.000786788
0.000794467
0.000801496
0.000807885
0.000813646
0.000818799
0.000823367
0.000827373
0.000830845
0.000833813
0.000836306
0.000838357
0.000839996
0.000841256
0.000842168
0.000842765
0.000843078
0.000843139
0.000842977
0.000842624
0.000842108
0.000841456
0.000840696
0.000839853
0.000838949
0.000838007
0.000837046
0.000836083
0.000835133
0.00083421
0.000833324
0.000832483
0.000831695
0.000830963
0.000830291
0.000829679
0.000829127
0.000828634
0.000828198
0.000827815
0.000827482
0.000827196
0.000826951
0.000826743
0.000826569
0.000826424
0.000826304
0.000826203
0.000826114
0.000826031
0.000825945
0.000759987
0.000769004
0.000777432
0.000785264
0.000792497
0.000799132
0.000805177
0.000810642
0.000815543
0.000819898
0.000823731
0.000827065
0.000829926
0.000832343
0.000834343
0.000835956
0.000837212
0.000838139
0.000838769
0.00083913
0.000839251
0.000839161
0.000838888
0.00083846
0.000837902
0.000837239
0.000836495
0.000835692
0.000834851
0.000833988
0.000833122
0.000832267
0.000831434
0.000830635
0.000829877
0.000829166
0.000828507
0.000827902
0.000827353
0.000826859
0.000826419
0.000826031
0.000825692
0.000825399
0.000825148
0.000824935
0.000824755
0.000824606
0.000824482
0.00082438
0.000824295
0.000824221
0.00082415
0.000824076
0.000759997
0.000768357
0.000776191
0.000783487
0.000790242
0.000796454
0.000802127
0.00080727
0.000811895
0.000816018
0.000819658
0.000822837
0.000825577
0.000827905
0.000829845
0.000831424
0.000832669
0.000833607
0.000834266
0.000834672
0.000834853
0.000834835
0.000834644
0.000834305
0.000833842
0.000833279
0.000832638
0.000831939
0.000831201
0.000830442
0.000829676
0.000828918
0.00082818
0.00082747
0.000826797
0.000826166
0.000825582
0.000825046
0.000824561
0.000824127
0.00082374
0.000823401
0.000823106
0.000822852
0.000822636
0.000822453
0.000822301
0.000822174
0.00082207
0.000821984
0.000821913
0.000821849
0.000821788
0.000821722
0.000759751
0.000767424
0.000774631
0.000781361
0.000787608
0.000793369
0.000798644
0.00080344
0.000807767
0.000811637
0.000815067
0.000818075
0.000820681
0.000822908
0.000824778
0.000826315
0.000827544
0.000828488
0.000829173
0.000829623
0.000829863
0.000829917
0.000829808
0.00082956
0.000829195
0.000828735
0.0008282
0.000827608
0.000826978
0.000826325
0.000825664
0.000825007
0.000824366
0.000823749
0.000823164
0.000822615
0.000822108
0.000821644
0.000821225
0.00082085
0.000820518
0.000820228
0.000819977
0.000819762
0.000819579
0.000819426
0.000819298
0.000819193
0.000819106
0.000819033
0.000818972
0.000818916
0.000818861
0.000818799
0.000759122
0.000766079
0.000772633
0.00077877
0.000784483
0.000789767
0.00079462
0.000799047
0.000803055
0.000806653
0.000809855
0.000812677
0.000815136
0.000817251
0.000819042
0.00082053
0.000821736
0.000822683
0.000823391
0.000823884
0.000824182
0.000824309
0.000824284
0.00082413
0.000823866
0.000823512
0.000823085
0.000822605
0.000822086
0.000821543
0.00082099
0.000820438
0.000819897
0.000819376
0.000818882
0.000818418
0.00081799
0.000817599
0.000817247
0.000816933
0.000816656
0.000816414
0.000816206
0.000816029
0.000815879
0.000815753
0.000815648
0.000815561
0.000815488
0.000815425
0.00081537
0.000815318
0.000815264
0.000815202
0.000757955
0.000764175
0.000770053
0.000775575
0.000780732
0.000785517
0.000789927
0.000793964
0.000797633
0.000800942
0.000803901
0.000806523
0.000808823
0.000810816
0.00081252
0.000813952
0.000815131
0.000816077
0.000816807
0.000817341
0.000817698
0.000817898
0.00081796
0.000817901
0.00081774
0.000817495
0.000817181
0.000816815
0.000816411
0.000815982
0.00081554
0.000815096
0.000814659
0.000814237
0.000813835
0.000813459
0.000813111
0.000812794
0.000812509
0.000812256
0.000812034
0.00081184
0.000811674
0.000811533
0.000811413
0.000811312
0.000811227
0.000811154
0.000811091
0.000811035
0.000810982
0.000810929
0.00081087
0.000810801
0.000756067
0.000761535
0.000766721
0.00077161
0.000776192
0.00078046
0.000784409
0.000788039
0.000791354
0.000794358
0.000797061
0.000799471
0.000801601
0.000803463
0.000805073
0.000806444
0.000807592
0.000808533
0.000809283
0.000809858
0.000810275
0.000810549
0.000810699
0.000810738
0.000810683
0.00081055
0.000810352
0.000810104
0.000809817
0.000809505
0.000809178
0.000808844
0.000808513
0.000808191
0.000807884
0.000807596
0.000807329
0.000807087
0.000806869
0.000806676
0.000806507
0.00080636
0.000806234
0.000806125
0.000806033
0.000805953
0.000805883
0.000805821
0.000805763
0.000805708
0.000805651
0.00080559
0.00080552
0.000805438
0.00075341
0.000758158
0.000762679
0.000766957
0.000770982
0.000774745
0.000778242
0.000781472
0.000784436
0.000787138
0.000789584
0.000791782
0.000793741
0.000795471
0.000796983
0.00079829
0.000799403
0.000800336
0.000801101
0.000801713
0.000802185
0.00080253
0.000802761
0.000802894
0.000802941
0.000802914
0.000802826
0.00080269
0.000802516
0.000802315
0.000802096
0.000801867
0.000801636
0.000801409
0.00080119
0.000800983
0.000800792
0.000800617
0.00080046
0.00080032
0.000800197
0.000800089
0.000799995
0.000799912
0.000799838
0.000799771
0.000799709
0.000799648
0.000799587
0.000799522
0.000799452
0.000799373
0.000799282
0.000799176
0.000749824
0.000753867
0.000757731
0.000761404
0.000764873
0.000768132
0.000771176
0.000774003
0.000776613
0.000779009
0.000781194
0.000783175
0.000784958
0.00078655
0.000787961
0.000789198
0.000790273
0.000791193
0.000791971
0.000792616
0.000793139
0.000793551
0.000793862
0.000794085
0.000794229
0.000794306
0.000794326
0.000794299
0.000794234
0.00079414
0.000794026
0.000793898
0.000793762
0.000793625
0.00079349
0.00079336
0.000793238
0.000793125
0.000793022
0.00079293
0.000792846
0.00079277
0.0007927
0.000792635
0.000792573
0.00079251
0.000792446
0.000792378
0.000792303
0.00079222
0.000792126
0.000792019
0.000791895
0.000791754
0.000744428
0.000747707
0.000750856
0.000753866
0.000756727
0.000759433
0.00076198
0.000764365
0.000766587
0.000768647
0.000770548
0.000772292
0.000773883
0.000775327
0.000776629
0.000777794
0.00077883
0.000779742
0.000780537
0.000781222
0.000781806
0.000782296
0.000782699
0.000783025
0.000783281
0.000783475
0.000783616
0.000783711
0.000783769
0.000783795
0.000783797
0.000783781
0.000783752
0.000783713
0.00078367
0.000783624
0.000783577
0.000783531
0.000783487
0.000783443
0.0007834
0.000783357
0.000783311
0.000783262
0.000783208
0.000783147
0.000783076
0.000782994
0.0007829
0.000782791
0.000782666
0.000782522
0.000782358
0.00078217
0.000733822
0.000736329
0.000738775
0.00074115
0.000743444
0.000745649
0.000747758
0.000749768
0.000751675
0.000753479
0.000755177
0.000756771
0.000758261
0.000759648
0.000760935
0.000762123
0.000763215
0.000764214
0.000765122
0.000765942
0.000766678
0.000767334
0.000767914
0.000768423
0.000768866
0.000769247
0.000769574
0.00076985
0.000770082
0.000770275
0.000770434
0.000770565
0.000770671
0.000770757
0.000770827
0.000770882
0.000770926
0.00077096
0.000770985
0.000771
0.000771008
0.000771005
0.000770993
0.00077097
0.000770933
0.000770883
0.000770817
0.000770734
0.000770632
0.00077051
0.000770367
0.0007702
0.00077001
0.000769793
0.000769549
0.000722557
0.000724147
0.000725731
0.000727299
0.000728845
0.000730364
0.00073185
0.000733299
0.000734708
0.000736075
0.000737398
0.000738675
0.000739905
0.000741086
0.000742216
0.000743295
0.00074432
0.000745291
0.000746205
0.000747063
0.000747864
0.000748607
0.000749294
0.000749925
0.000750501
0.000751025
0.0007515
0.000751927
0.00075231
0.000752653
0.000752958
0.000753229
0.000753468
0.00075368
0.000753865
0.000754027
0.000754167
0.000754286
0.000754385
0.000754464
0.000754523
0.000754563
0.000754581
0.000754578
0.000754552
0.000754502
0.000754428
0.000754327
0.0007542
0.000754044
0.00075386
0.000753645
0.000753399
0.000753122
0.000752812
0.000705205
0.000705876
0.000706595
0.000707355
0.000708153
0.000708985
0.000709848
0.000710739
0.000711655
0.000712592
0.000713548
0.000714519
0.0007155
0.000716488
0.000717478
0.000718463
0.000719439
0.000720401
0.000721342
0.000722258
0.000723144
0.000723995
0.000724808
0.00072558
0.000726309
0.000726993
0.000727632
0.000728226
0.000728776
0.000729282
0.000729745
0.000730168
0.000730552
0.000730898
0.000731208
0.000731484
0.000731727
0.000731937
0.000732115
0.000732262
0.000732377
0.000732461
0.000732513
0.000732532
0.000732519
0.000732472
0.00073239
0.000732274
0.000732121
0.000731933
0.000731708
0.000731446
0.000731146
0.000730808
0.000730432
0.000678454
0.000678249
0.000678143
0.000678135
0.000678224
0.000678408
0.000678686
0.000679055
0.000679512
0.000680054
0.000680677
0.000681375
0.000682141
0.000682967
0.000683846
0.000684768
0.000685724
0.000686703
0.000687696
0.000688693
0.000689685
0.000690664
0.000691621
0.000692551
0.000693446
0.000694304
0.000695119
0.000695889
0.000696613
0.000697289
0.000697917
0.000698497
0.000699028
0.000699513
0.000699952
0.000700344
0.000700693
0.000700997
0.000701257
0.000701475
0.000701649
0.000701781
0.000701871
0.000701917
0.000701921
0.000701881
0.000701798
0.000701671
0.000701501
0.000701287
0.00070103
0.000700729
0.000700384
0.000699996
0.000699565
0.000636861
0.000635897
0.00063508
0.000634414
0.000633898
0.000633533
0.00063332
0.000633256
0.000633339
0.000633565
0.000633927
0.000634419
0.00063503
0.000635751
0.000636569
0.00063747
0.000638443
0.000639471
0.000640542
0.00064164
0.000642754
0.00064387
0.000644978
0.000646066
0.000647127
0.000648153
0.000649137
0.000650076
0.000650964
0.000651799
0.00065258
0.000653306
0.000653975
0.000654589
0.000655146
0.000655648
0.000656096
0.00065649
0.00065683
0.000657118
0.000657353
0.000657537
0.000657669
0.00065775
0.000657781
0.000657761
0.00065769
0.00065757
0.000657401
0.000657183
0.000656916
0.000656601
0.000656238
0.000655829
0.000655373
0.000580858
0.000579452
0.000578233
0.000577204
0.000576368
0.000575728
0.000575283
0.000575033
0.000574974
0.000575101
0.000575405
0.000575878
0.000576505
0.000577274
0.000578169
0.000579173
0.000580269
0.000581438
0.000582662
0.000583926
0.000585211
0.000586504
0.00058779
0.000589056
0.000590293
0.000591491
0.000592643
0.000593742
0.000594785
0.000595768
0.000596688
0.000597546
0.000598339
0.000599068
0.000599733
0.000600336
0.000600876