/*--------------------------------*- C++ -*----------------------------------*\
  =========                 |
  \\      /  F ield         | OpenFOAM: The Open Source CFD Toolbox
   \\    /   O peration     | Website:  https://openfoam.org
    \\  /    A nd           | Version:  6
     \\/     M anipulation  |
\*---------------------------------------------------------------------------*/
FoamFile
{
    version     2.0;
    format      ascii;
    class       volScalarField;
    location    "0.05";
    object      p;
}
// * * * * * * * * * * * * * * * * * * * * * * * * * * * * * * * * * * * * * //

dimensions      [0 2 -2 0 0 0 0];

internalField   nonuniform List<scalar> 
3032
(
0.156717
0.163537
0.169891
0.175772
0.18118
0.186119
0.190598
0.19463
0.19823
0.201417
0.204212
0.206639
0.208719
0.210477
0.211939
0.213128
0.214067
0.214781
0.215292
0.21562
0.215787
0.21581
0.215708
0.215496
0.21519
0.214804
0.214349
0.213838
0.21328
0.212683
0.212058
0.211409
0.210744
0.210069
0.209387
0.208703
0.208021
0.207344
0.206674
0.206013
0.205364
0.204727
0.204104
0.203496
0.202903
0.202326
0.201764
0.201219
0.200691
0.148171
0.155087
0.161571
0.167615
0.173215
0.178372
0.183091
0.187381
0.191255
0.194728
0.197817
0.200542
0.202924
0.204984
0.206745
0.208227
0.209455
0.210449
0.211231
0.21182
0.212237
0.212499
0.212625
0.212629
0.212527
0.212333
0.212059
0.211717
0.211318
0.21087
0.210382
0.209863
0.209317
0.208753
0.208174
0.207586
0.206992
0.206397
0.205802
0.205211
0.204626
0.204049
0.20348
0.202922
0.202376
0.201841
0.201319
0.20081
0.200315
0.138245
0.145359
0.152073
0.158375
0.164257
0.169716
0.174755
0.179378
0.183594
0.187415
0.190856
0.193934
0.196665
0.19907
0.201169
0.202982
0.20453
0.205833
0.206912
0.207785
0.208473
0.208993
0.209362
0.209597
0.209712
0.209722
0.20964
0.209477
0.209244
0.208952
0.20861
0.208225
0.207805
0.207357
0.206887
0.206398
0.205897
0.205387
0.204872
0.204354
0.203837
0.203322
0.202811
0.202306
0.201809
0.201319
0.200839
0.200369
0.199909
0.131237
0.138464
0.14531
0.151762
0.157811
0.163451
0.168683
0.17351
0.17794
0.181981
0.185647
0.188953
0.191914
0.194548
0.196875
0.198913
0.200682
0.202201
0.203489
0.204566
0.205449
0.206157
0.206706
0.207113
0.207391
0.207556
0.20762
0.207595
0.207493
0.207323
0.207096
0.206819
0.2065
0.206146
0.205763
0.205357
0.204933
0.204494
0.204045
0.203589
0.203129
0.202667
0.202206
0.201747
0.201292
0.200842
0.200398
0.199962
0.199533
0.125991
0.133317
0.140269
0.146835
0.153005
0.158773
0.16414
0.169107
0.173682
0.177873
0.181693
0.185154
0.188273
0.191066
0.193551
0.195746
0.19767
0.199341
0.200779
0.202002
0.203028
0.203873
0.204555
0.205088
0.205489
0.20577
0.205945
0.206027
0.206025
0.205951
0.205813
0.205621
0.205382
0.205104
0.204792
0.204452
0.20409
0.20371
0.203316
0.202911
0.202499
0.202082
0.201662
0.201242
0.200823
0.200407
0.199995
0.199588
0.199187
0.121715
0.129145
0.136202
0.142872
0.149147
0.155022
0.160498
0.165576
0.170263
0.174568
0.178503
0.182082
0.185318
0.18823
0.190833
0.193146
0.195187
0.196974
0.198525
0.19986
0.200994
0.201945
0.20273
0.203363
0.203859
0.204233
0.204496
0.204662
0.204742
0.204745
0.204681
0.204558
0.204386
0.20417
0.203917
0.203634
0.203325
0.202994
0.202647
0.202286
0.201915
0.201537
0.201154
0.200769
0.200382
0.199996
0.199613
0.199232
0.198855
0.11812
0.125663
0.132826
0.139596
0.145968
0.151937
0.157504
0.162673
0.16745
0.171846
0.175871
0.17954
0.182867
0.185869
0.188563
0.190966
0.193096
0.194972
0.196611
0.198032
0.19925
0.200285
0.20115
0.201862
0.202434
0.202882
0.203217
0.203452
0.203597
0.203664
0.203661
0.203597
0.20348
0.203317
0.203115
0.202879
0.202615
0.202328
0.202021
0.201699
0.201365
0.201022
0.200672
0.200317
0.19996
0.199601
0.199243
0.198887
0.198533
0.198183
0.115028
0.122691
0.129962
0.136832
0.143294
0.149349
0.154996
0.160243
0.165095
0.169564
0.173661
0.177401
0.180799
0.183871
0.186635
0.189107
0.191307
0.193252
0.194959
0.196447
0.197733
0.198832
0.199762
0.200536
0.201171
0.201678
0.202071
0.202362
0.202562
0.202682
0.202729
0.202714
0.202644
0.202526
0.202368
0.202173
0.201949
0.2017
0.201429
0.201142
0.20084
0.200528
0.200207
0.19988
0.19955
0.199216
0.198882
0.198548
0.198216
0.197886
0.112328
0.120115
0.127495
0.134461
0.141009
0.147142
0.152861
0.158174
0.163089
0.167618
0.171774
0.17557
0.179024
0.182152
0.18497
0.187497
0.189751
0.19175
0.193511
0.195053
0.196391
0.197542
0.198523
0.199349
0.200033
0.200589
0.20103
0.201368
0.201613
0.201777
0.201867
0.201894
0.201864
0.201786
0.201664
0.201506
0.201317
0.201101
0.200863
0.200606
0.200334
0.20005
0.199756
0.199455
0.199149
0.198839
0.198527
0.198214
0.197902
0.197591
0.197283
0.109963
0.117871
0.125356
0.132412
0.13904
0.145241
0.151023
0.156392
0.161359
0.165937
0.170139
0.173981
0.177479
0.18065
0.183511
0.186081
0.188378
0.190419
0.192223
0.193806
0.195187
0.19638
0.197403
0.19827
0.198995
0.199591
0.200072
0.200449
0.200732
0.200933
0.201061
0.201123
0.201128
0.201083
0.200995
0.200869
0.200711
0.200525
0.200315
0.200086
0.199841
0.199583
0.199314
0.199037
0.198753
0.198465
0.198174
0.197881
0.197588
0.197296
0.197005
0.107912
0.115932
0.12351
0.130646
0.137341
0.1436
0.149432
0.154846
0.159854
0.16447
0.168708
0.172584
0.176116
0.17932
0.182214
0.184817
0.187147
0.189222
0.191059
0.192676
0.194091
0.195318
0.196375
0.197275
0.198034
0.198664
0.199178
0.199588
0.199904
0.200137
0.200296
0.20039
0.200426
0.200411
0.200352
0.200255
0.200124
0.199965
0.199782
0.199579
0.199359
0.199124
0.198879
0.198624
0.198362
0.198094
0.197823
0.197549
0.197275
0.197
0.196726
0.106181
0.114293
0.121946
0.129142
0.135887
0.142189
0.148056
0.153501
0.158538
0.163179
0.167442
0.171342
0.174898
0.178126
0.181045
0.183673
0.186028
0.188128
0.189992
0.191636
0.193078
0.194333
0.195417
0.196346
0.197133
0.197791
0.198334
0.198772
0.199117
0.199378
0.199565
0.199686
0.199749
0.199761
0.199728
0.199657
0.199552
0.199418
0.199259
0.19908
0.198883
0.198671
0.198447
0.198213
0.197972
0.197724
0.197472
0.197216
0.196959
0.196701
0.196444
0.104791
0.112965
0.120665
0.127897
0.13467
0.140993
0.146877
0.152337
0.157386
0.162041
0.166316
0.170229
0.173799
0.177042
0.179977
0.182622
0.184996
0.187115
0.188999
0.190665
0.192128
0.193406
0.194514
0.195466
0.196277
0.19696
0.197527
0.19799
0.198359
0.198645
0.198857
0.199003
0.199091
0.199127
0.199119
0.199071
0.19899
0.198879
0.198743
0.198586
0.198411
0.19822
0.198017
0.197803
0.197581
0.197353
0.197119
0.196881
0.196641
0.1964
0.196158
0.103771
0.111966
0.119677
0.126913
0.133685
0.140004
0.145884
0.151338
0.156384
0.161035
0.16531
0.169225
0.172798
0.176047
0.17899
0.181646
0.184031
0.186164
0.188063
0.189745
0.191226
0.192522
0.193649
0.194621
0.195453
0.196157
0.196746
0.197231
0.197622
0.197931
0.198165
0.198334
0.198445
0.198504
0.198518
0.198493
0.198433
0.198344
0.19823
0.198094
0.19794
0.19777
0.197586
0.197392
0.197189
0.196979
0.196763
0.196543
0.19632
0.196095
0.195869
0.195642
0.103119
0.111289
0.118971
0.126175
0.132914
0.139202
0.145053
0.150483
0.155507
0.160141
0.164402
0.168307
0.171874
0.17512
0.178064
0.180723
0.183115
0.185257
0.187166
0.18886
0.190355
0.191667
0.19281
0.1938
0.194649
0.195372
0.195981
0.196486
0.196898
0.197228
0.197483
0.197673
0.197805
0.197886
0.197921
0.197917
0.197879
0.197811
0.197718
0.197602
0.197468
0.197318
0.197154
0.196979
0.196794
0.196602
0.196404
0.196201
0.195994
0.195785
0.195575
0.195364
0.102895
0.110982
0.118582
0.12571
0.132377
0.138601
0.144394
0.149772
0.154752
0.159349
0.16358
0.167461
0.171009
0.174243
0.177178
0.179832
0.182224
0.184368
0.186284
0.187986
0.189491
0.190814
0.191971
0.192976
0.193842
0.194583
0.195209
0.195733
0.196165
0.196514
0.19679
0.197001
0.197153
0.197255
0.197312
0.197329
0.197312
0.197265
0.197192
0.197097
0.196983
0.196852
0.196708
0.196552
0.196386
0.196212
0.196032
0.195847
0.195657
0.195465
0.195271
0.195075
0.103187
0.111124
0.118585
0.125586
0.132139
0.13826
0.143962
0.149262
0.154173
0.158712
0.162894
0.166736
0.170252
0.17346
0.176376
0.179017
0.1814
0.183541
0.185455
0.18716
0.18867
0.190002
0.191169
0.192185
0.193064
0.193819
0.194461
0.195002
0.195451
0.195819
0.196113
0.196343
0.196515
0.196636
0.196712
0.196749
0.196752
0.196725
0.196672
0.196597
0.196502
0.196391
0.196266
0.196128
0.195981
0.195825
0.195662
0.195494
0.195321
0.195145
0.194966
0.194786
0.103777
0.111531
0.118826
0.125677
0.132097
0.138099
0.143697
0.148906
0.153739
0.15821
0.162336
0.166129
0.169607
0.172784
0.175676
0.178299
0.180668
0.1828
0.184711
0.186414
0.187927
0.189263
0.190436
0.191462
0.192351
0.193118
0.193773
0.194328
0.194792
0.195175
0.195486
0.195733
0.195922
0.19606
0.196154
0.196209
0.19623
0.196221
0.196186
0.196129
0.196052
0.195958
0.19585
0.19573
0.195599
0.19546
0.195313
0.19516
0.195003
0.194842
0.194678
0.194512
0.194343
0.104558
0.112113
0.119229
0.125919
0.132195
0.13807
0.143557
0.148668
0.153416
0.157816
0.161879
0.165621
0.169056
0.172197
0.175061
0.177662
0.180015
0.182136
0.184038
0.185738
0.18725
0.188587
0.189765
0.190797
0.191695
0.192471
0.193137
0.193704
0.194181
0.194578
0.194903
0.195164
0.195369
0.195523
0.195633
0.195704
0.195742
0.195749
0.19573
0.195689
0.195629
0.195551
0.195459
0.195354
0.195239
0.195115
0.194983
0.194846
0.194703
0.194555
0.194405
0.194251
0.194096
0.193938
0.105448
0.112799
0.119732
0.126258
0.132389
0.138135
0.143508
0.148519
0.153181
0.157506
0.161505
0.165193
0.168582
0.171687
0.17452
0.177097
0.179431
0.181537
0.18343
0.185123
0.186631
0.187969
0.189149
0.190185
0.191088
0.191872
0.192548
0.193125
0.193613
0.194022
0.19436
0.194634
0.194853
0.195021
0.195145
0.195231
0.195283
0.195306
0.195302
0.195276
0.19523
0.195167
0.19509
0.195
0.194899
0.194789
0.194672
0.194548
0.194418
0.194284
0.194146
0.194004
0.193861
0.193715
0.106384
0.113535
0.120289
0.126655
0.132643
0.138262
0.143523
0.148436
0.153013
0.157263
0.161198
0.164831
0.168174
0.17124
0.174042
0.176592
0.178906
0.180996
0.182877
0.184562
0.186066
0.187401
0.188582
0.18962
0.190528
0.191318
0.192001
0.192586
0.193084
0.193504
0.193853
0.194139
0.194369
0.194551
0.194688
0.194787
0.194853
0.194889
0.194899
0.194887
0.194855
0.194806
0.194742
0.194665
0.194578
0.194481
0.194377
0.194265
0.194148
0.194026
0.1939
0.19377
0.193637
0.193502
0.107326
0.114286
0.120869
0.127083
0.132934
0.138431
0.143584
0.148403
0.152895
0.157073
0.160945
0.164524
0.167821
0.170848
0.173617
0.176142
0.178434
0.180507
0.182375
0.184051
0.185548
0.18688
0.188059
0.189098
0.19001
0.190804
0.191493
0.192085
0.192591
0.19302
0.193379
0.193675
0.193917
0.194109
0.194259
0.19437
0.194448
0.194496
0.194519
0.19452
0.1945
0.194464
0.194413
0.194349
0.194274
0.194189
0.194097
0.193997
0.193892
0.193781
0.193665
0.193546
0.193424
0.193298
0.108249
0.115029
0.121452
0.127522
0.133244
0.138626
0.143677
0.148404
0.152817
0.156925
0.160736
0.164263
0.167515
0.170503
0.17324
0.175737
0.178008
0.180063
0.181917
0.183583
0.185073
0.1864
0.187577
0.188616
0.189529
0.190326
0.19102
0.191618
0.192131
0.192567
0.192935
0.193241
0.193492
0.193695
0.193855
0.193977
0.194066
0.194126
0.194161
0.194173
0.194165
0.19414
0.194101
0.194048
0.193985
0.193912
0.193831
0.193742
0.193647
0.193547
0.193442
0.193333
0.19322
0.193104
0.109136
0.11575
0.122023
0.127959
0.13356
0.138834
0.143789
0.148431
0.152768
0.156809
0.160563
0.164039
0.167247
0.170198
0.172903
0.175374
0.177622
0.179659
0.181499
0.183153
0.184635
0.185956
0.18713
0.188168
0.189081
0.189881
0.190578
0.191181
0.1917
0.192143
0.192518
0.192832
0.193092
0.193304
0.193474
0.193606
0.193706
0.193776
0.193821
0.193844
0.193847
0.193833
0.193805
0.193763
0.19371
0.193648
0.193577
0.193499
0.193415
0.193324
0.193229
0.193129
0.193026
0.192919
0.109977
0.116438
0.122574
0.128385
0.133875
0.139048
0.143912
0.148474
0.15274
0.156718
0.160417
0.163844
0.16701
0.169925
0.1726
0.175044
0.17727
0.17929
0.181115
0.182757
0.18423
0.185546
0.186715
0.187751
0.188664
0.189465
0.190165
0.190772
0.191295
0.191744
0.192126
0.192447
0.192715
0.192935
0.193114
0.193255
0.193364
0.193444
0.193499
0.193532
0.193545
0.193541
0.193522
0.193491
0.193449
0.193396
0.193335
0.193267
0.193192
0.193111
0.193025
0.192934
0.192839
0.19274
0.110768
0.117087
0.123097
0.128794
0.134179
0.139259
0.14404
0.148527
0.152726
0.156645
0.160291
0.163672
0.166799
0.169679
0.172323
0.174742
0.176946
0.178948
0.180758
0.182389
0.183853
0.185162
0.186327
0.18736
0.188272
0.189074
0.189775
0.190385
0.190913
0.191366
0.191753
0.192081
0.192356
0.192584
0.192771
0.192921
0.193038
0.193127
0.193191
0.193233
0.193255
0.193261
0.193252
0.19323
0.193197
0.193154
0.193103
0.193044
0.192978
0.192906
0.192828
0.192745
0.192659
0.192568
0.111505
0.117695
0.123589
0.12918
0.13447
0.139463
0.144166
0.148583
0.15272
0.156583
0.16018
0.163518
0.166606
0.169453
0.172068
0.174463
0.176646
0.17863
0.180426
0.182045
0.1835
0.184801
0.185961
0.186991
0.187902
0.188703
0.189406
0.190018
0.190549
0.191007
0.1914
0.191733
0.192015
0.19225
0.192444
0.192601
0.192727
0.192824
0.192896
0.192947
0.192978
0.192993
0.192993
0.19298
0.192956
0.192922
0.192879
0.192829
0.192771
0.192708
0.192638
0.192564
0.192485
0.192402
0.112213
0.118284
0.124068
0.12956
0.134759
0.139671
0.144299
0.148649
0.152726
0.156535
0.160084
0.16338
0.16643
0.169244
0.171831
0.174201
0.176363
0.178329
0.180109
0.181716
0.18316
0.184454
0.185608
0.186634
0.187542
0.188343
0.189046
0.18966
0.190194
0.190655
0.191052
0.191391
0.191678
0.191919
0.19212
0.192285
0.192418
0.192523
0.192603
0.192662
0.192702
0.192725
0.192734
0.19273
0.192714
0.192689
0.192655
0.192613
0.192564
0.192508
0.192447
0.192381
0.19231
0.192235
0.11294
0.118892
0.124567
0.12996
0.135068
0.139897
0.14445
0.148732
0.152748
0.156503
0.160002
0.163254
0.166266
0.169046
0.171602
0.173945
0.176085
0.178031
0.179795
0.181388
0.182821
0.184106
0.185253
0.186274
0.187179
0.187978
0.188681
0.189296
0.189832
0.190296
0.190697
0.191041
0.191333
0.191581
0.191788
0.19196
0.1921
0.192213
0.192302
0.192369
0.192417
0.192449
0.192466
0.192471
0.192464
0.192448
0.192423
0.192389
0.192349
0.192302
0.192249
0.192191
0.192128
0.192061
0.113711
0.11954
0.125102
0.130392
0.135407
0.14015
0.144625
0.148837
0.152789
0.156486
0.159934
0.16314
0.16611
0.168854
0.171378
0.173693
0.175808
0.177734
0.17948
0.181058
0.182479
0.183754
0.184893
0.185909
0.18681
0.187607
0.188309
0.188924
0.189462
0.18993
0.190334
0.190683
0.190981
0.191234
0.191448
0.191627
0.191776
0.191897
0.191993
0.192069
0.192126
0.192167
0.192193
0.192207
0.19221
0.192202
0.192186
0.192162
0.19213
0.192092
0.192048
0.191998
0.191943
0.191884
0.114524
0.120228
0.125674
0.130857
0.135775
0.140429
0.144824
0.148962
0.152848
0.156485
0.159879
0.163036
0.165964
0.168668
0.171159
0.173444
0.175533
0.177436
0.179163
0.180725
0.182132
0.183396
0.184528
0.185537
0.186433
0.187228
0.187928
0.188544
0.189084
0.189554
0.189963
0.190316
0.190619
0.190879
0.1911
0.191287
0.191443
0.191572
0.191677
0.191762
0.191828
0.191878
0.191914
0.191937
0.191949
0.191951
0.191944
0.191929
0.191906
0.191877
0.191842
0.191801
0.191754
0.191704
0.115379
0.120953
0.12628
0.131354
0.136171
0.140734
0.145045
0.149107
0.152924
0.156498
0.159836
0.162943
0.165824
0.168489
0.170943
0.173197
0.175258
0.177137
0.178843
0.180388
0.181781
0.183033
0.184155
0.185157
0.186049
0.18684
0.187539
0.188155
0.188696
0.189169
0.189581
0.189939
0.190248
0.190515
0.190743
0.190937
0.191101
0.191239
0.191353
0.191447
0.191523
0.191582
0.191628
0.19166
0.191682
0.191694
0.191696
0.191691
0.191678
0.191658
0.191632
0.1916
0.191562
0.19152
0.116273
0.121715
0.126918
0.13188
0.136594
0.141062
0.145287
0.149271
0.153016
0.156525
0.159804
0.162858
0.165692
0.168314
0.170731
0.17295
0.174982
0.176836
0.17852
0.180046
0.181423
0.182663
0.183775
0.184769
0.185655
0.186442
0.18714
0.187756
0.188298
0.188773
0.189189
0.189552
0.189867
0.19014
0.190376
0.190578
0.19075
0.190897
0.191021
0.191124
0.19121
0.191279
0.191335
0.191377
0.191409
0.191431
0.191444
0.191448
0.191445
0.191434
0.191418
0.191395
0.191366
0.191333
0.117204
0.122511
0.127589
0.132435
0.137043
0.141414
0.14555
0.149452
0.153123
0.156565
0.159783
0.162781
0.165566
0.168143
0.17052
0.172704
0.174705
0.176531
0.178193
0.179698
0.181059
0.182285
0.183386
0.184372
0.185252
0.186035
0.18673
0.187346
0.187889
0.188367
0.188787
0.189154
0.189476
0.189755
0.189998
0.190209
0.19039
0.190546
0.190679
0.190793
0.190888
0.190968
0.191034
0.191088
0.19113
0.191162
0.191185
0.1912
0.191207
0.191206
0.191199
0.191186
0.191167
0.191143
0.118173
0.123341
0.128291
0.133018
0.137518
0.141789
0.145834
0.149652
0.153246
0.156618
0.159772
0.162713
0.165446
0.167976
0.170311
0.172458
0.174426
0.176224
0.17786
0.179345
0.180688
0.181899
0.182988
0.183964
0.184838
0.185617
0.186309
0.186924
0.187468
0.187949
0.188373
0.188745
0.189073
0.189359
0.18961
0.189829
0.19002
0.190186
0.190329
0.190453
0.190559
0.19065
0.190727
0.190791
0.190844
0.190887
0.190921
0.190947
0.190964
0.190974
0.190977
0.190974
0.190964
0.19095
0.119177
0.124205
0.129023
0.133629
0.138018
0.142187
0.146137
0.149869
0.153384
0.156684
0.159772
0.162653
0.165331
0.167812
0.170104
0.172212
0.174145
0.175912
0.177522
0.178984
0.180308
0.181504
0.18258
0.183547
0.184413
0.185187
0.185877
0.186491
0.187036
0.187519
0.187946
0.188324
0.188658
0.188952
0.189211
0.189439
0.18964
0.189816
0.18997
0.190104
0.190222
0.190324
0.190412
0.190488
0.190552
0.190607
0.190652
0.190688
0.190716
0.190737
0.19075
0.190757
0.190758
0.190754
0.120212
0.125098
0.129784
0.134267
0.138541
0.142606
0.14646
0.150103
0.153536
0.156761
0.159781
0.1626
0.165221
0.167652
0.169897
0.171964
0.173861
0.175597
0.177179
0.178617
0.179921
0.1811
0.182163
0.183119
0.183977
0.184745
0.185432
0.186045
0.186591
0.187076
0.187508
0.187891
0.188231
0.188533
0.188801
0.189039
0.189249
0.189436
0.189601
0.189747
0.189876
0.18999
0.19009
0.190178
0.190254
0.19032
0.190377
0.190425
0.190464
0.190496
0.19052
0.190538
0.190549
0.190555
0.121273
0.126015
0.130567
0.134925
0.139085
0.143042
0.146797
0.150349
0.153699
0.156847
0.159797
0.162551
0.165114
0.167491
0.169688
0.171713
0.173572
0.175274
0.176826
0.17824
0.179522
0.180683
0.181732
0.182677
0.183527
0.184289
0.184973
0.185584
0.186131
0.186619
0.187055
0.187444
0.187791
0.188101
0.188378
0.188626
0.188847
0.189045
0.189221
0.18938
0.189521
0.189647
0.18976
0.18986
0.189949
0.190027
0.190096
0.190156
0.190207
0.19025
0.190286
0.190314
0.190336
0.190352
0.122286
0.126893
0.131318
0.135559
0.139608
0.143464
0.147124
0.150589
0.153857
0.156931
0.159812
0.162504
0.165009
0.167335
0.169485
0.171468
0.173289
0.174958
0.176482
0.17787
0.179132
0.180275
0.18131
0.182243
0.183085
0.183842
0.184521
0.185132
0.185679
0.18617
0.18661
0.187004
0.187359
0.187677
0.187963
0.18822
0.188452
0.188661
0.188849
0.189019
0.189173
0.189311
0.189436
0.189549
0.18965
0.18974
0.189821
0.189893
0.189955
0.19001
0.190057
0.190096
0.190129
0.190155
0.123311
0.127783
0.132082
0.136204
0.140144
0.143897
0.147461
0.150837
0.154023
0.157021
0.159832
0.162459
0.164907
0.167179
0.169281
0.17122
0.173003
0.174637
0.176132
0.177494
0.178734
0.179859
0.180879
0.181801
0.182633
0.183384
0.18406
0.184669
0.185218
0.185711
0.186156
0.186556
0.186918
0.187245
0.187541
0.187808
0.188051
0.188272
0.188472
0.188654
0.18882
0.188972
0.189109
0.189234
0.189348
0.189451
0.189544
0.189628
0.189702
0.189768
0.189826
0.189877
0.18992
0.189957
0.124466
0.128788
0.132947
0.136936
0.140752
0.144389
0.147846
0.151121
0.154214
0.157126
0.159857
0.162411
0.164791
0.167002
0.16905
0.170939
0.172678
0.174274
0.175734
0.177068
0.178283
0.179388
0.180391
0.1813
0.182123
0.182867
0.18354
0.184149
0.184698
0.185196
0.185646
0.186055
0.186426
0.186763
0.18707
0.18735
0.187606
0.18784
0.188055
0.188251
0.188432
0.188598
0.18875
0.18889
0.189018
0.189135
0.189242
0.189339
0.189427
0.189506
0.189577
0.18964
0.189696
0.189744
0.121449
0.125756
0.129912
0.133914
0.137756
0.141433
0.14494
0.148275
0.151437
0.154424
0.157238
0.159879
0.16235
0.164654
0.166796
0.16878
0.170613
0.172302
0.173854
0.175276
0.176576
0.177764
0.178846
0.17983
0.180725
0.181538
0.182276
0.182947
0.183555
0.184108
0.184611
0.185069
0.185488
0.18587
0.18622
0.186541
0.186836
0.187108
0.187358
0.187589
0.187803
0.188
0.188183
0.188352
0.188509
0.188653
0.188787
0.18891
0.189023
0.189126
0.18922
0.189306
0.189383
0.189452
0.189514
0.123051
0.127165
0.131139
0.134969
0.138648
0.14217
0.145533
0.148733
0.151767
0.154636
0.15734
0.159879
0.162256
0.164474
0.166537
0.168451
0.170221
0.171853
0.173355
0.174735
0.175999
0.177156
0.178213
0.179178
0.180059
0.180862
0.181595
0.182264
0.182874
0.183433
0.183944
0.184413
0.184844
0.185241
0.185607
0.185945
0.186259
0.186549
0.186819
0.18707
0.187304
0.187521
0.187724
0.187913
0.18809
0.188254
0.188406
0.188547
0.188678
0.188799
0.18891
0.189012
0.189105
0.189189
0.189266
0.124753
0.128658
0.132435
0.136077
0.139578
0.142932
0.146135
0.149185
0.15208
0.154817
0.157398
0.159823
0.162095
0.164217
0.166193
0.168028
0.169727
0.171297
0.172745
0.174078
0.175304
0.176428
0.17746
0.178406
0.179274
0.180069
0.180799
0.181469
0.182086
0.182653
0.183177
0.183661
0.184109
0.184525
0.184912
0.185272
0.185608
0.185922
0.186216
0.186491
0.186748
0.18699
0.187217
0.187429
0.187628
0.187815
0.187989
0.188152
0.188303
0.188444
0.188574
0.188695
0.188806
0.188908
0.189001
0.126498
0.130181
0.133746
0.137185
0.140493
0.143664
0.146693
0.149579
0.152318
0.15491
0.157355
0.159655
0.16181
0.163826
0.165706
0.167454
0.169077
0.17058
0.17197
0.173254
0.174439
0.175532
0.17654
0.177469
0.178326
0.179118
0.179849
0.180526
0.181154
0.181737
0.182279
0.182784
0.183256
0.183697
0.184111
0.184499
0.184864
0.185207
0.18553
0.185835
0.186122
0.186393
0.186648
0.186888
0.187115
0.187328
0.187528
0.187715
0.187891
0.188055
0.188208
0.18835
0.188481
0.188603
0.188715
0.128102
0.131557
0.134902
0.13813
0.141234
0.144211
0.147056
0.149765
0.152339
0.154775
0.157074
0.159238
0.16127
0.163172
0.16495
0.166608
0.168152
0.169587
0.170921
0.172159
0.173308
0.174374
0.175364
0.176284
0.17714
0.177936
0.178679
0.179373
0.180022
0.180631
0.181201
0.181738
0.182244
0.18272
0.183171
0.183596
0.183998
0.18438
0.18474
0.185082
0.185406
0.185713
0.186003
0.186277
0.186537
0.186781
0.187012
0.187229
0.187433
0.187624
0.187803
0.18797
0.188125
0.188269
0.188403
0.129016
0.132285
0.135449
0.138502
0.141438
0.144253
0.146943
0.149505
0.151939
0.154244
0.156421
0.158473
0.160403
0.162214
0.163911
0.165499
0.166984
0.168371
0.169667
0.170878
0.172009
0.173066
0.174056
0.174983
0.175852
0.176669
0.177437
0.17816
0.178843
0.179487
0.180097
0.180675
0.181222
0.181741
0.182234
0.182703
0.183148
0.183571
0.183972
0.184354
0.184717
0.185062
0.185388
0.185698
0.185991
0.186268
0.186529
0.186776
0.187008
0.187226
0.18743
0.187621
0.187799
0.187965
0.188119
0.12923
0.132371
0.135411
0.138345
0.141166
0.143871
0.146456
0.148919
0.151261
0.153481
0.15558
0.157562
0.15943
0.161188
0.162839
0.164391
0.165847
0.167214
0.168497
0.169702
0.170835
0.1719
0.172903
0.173849
0.174742
0.175585
0.176383
0.177139
0.177857
0.178538
0.179185
0.179801
0.180386
0.180944
0.181475
0.181981
0.182462
0.182921
0.183358
0.183774
0.184169
0.184545
0.184901
0.18524
0.18556
0.185863
0.18615
0.18642
0.186675
0.186914
0.187139
0.187349
0.187546
0.187729
0.187899
0.12899
0.132034
0.13498
0.137822
0.140556
0.143178
0.145685
0.148076
0.150352
0.152512
0.154559
0.156495
0.158324
0.16005
0.161679
0.163214
0.164661
0.166025
0.167312
0.168527
0.169675
0.17076
0.171787
0.172761
0.173684
0.174561
0.175395
0.176188
0.176944
0.177664
0.17835
0.179004
0.179628
0.180224
0.180792
0.181334
0.181851
0.182344
0.182814
0.183261
0.183687
0.184091
0.184476
0.18484
0.185186
0.185513
0.185822
0.186113
0.186388
0.186647
0.18689
0.187117
0.18733
0.187528
0.187712
0.128373
0.131342
0.134217
0.136992
0.139663
0.142226
0.144679
0.147022
0.149254
0.151377
0.153394
0.155306
0.157117
0.158833
0.160456
0.161993
0.163447
0.164824
0.166129
0.167366
0.168539
0.169654
0.170714
0.171722
0.172682
0.173598
0.174471
0.175304
0.176099
0.176858
0.177584
0.178277
0.17894
0.179572
0.180176
0.180753
0.181303
0.181828
0.182329
0.182805
0.183259
0.18369
0.1841
0.184489
0.184857
0.185205
0.185535
0.185846
0.186139
0.186415
0.186674
0.186917
0.187144
0.187355
0.187552
0.127452
0.130367
0.13319
0.135918
0.138545
0.14107
0.143489
0.145803
0.148013
0.150119
0.152123
0.15403
0.155842
0.157563
0.159197
0.16075
0.162224
0.163626
0.164959
0.166228
0.167436
0.168588
0.169686
0.170734
0.171735
0.172691
0.173606
0.17448
0.175316
0.176115
0.17688
0.177612
0.178311
0.178979
0.179618
0.180227
0.180809
0.181364
0.181894
0.182398
0.182877
0.183333
0.183766
0.184177
0.184566
0.184934
0.185282
0.185611
0.18592
0.186212
0.186485
0.186742
0.186982
0.187206
0.187414
0.126291
0.129168
0.131957
0.134653
0.137254
0.139757
0.14216
0.144463
0.146667
0.148772
0.150782
0.152698
0.154525
0.156265
0.157923
0.159503
0.161009
0.162445
0.163815
0.165123
0.166371
0.167565
0.168706
0.169797
0.170841
0.17184
0.172796
0.173712
0.174589
0.175428
0.176231
0.176999
0.177734
0.178437
0.179108
0.179749
0.180361
0.180944
0.1815
0.18203
0.182533
0.183012
0.183466
0.183897
0.184306
0.184692
0.185057
0.185402
0.185727
0.186032
0.186319
0.186588
0.18684
0.187075
0.187293
0.124947
0.127799
0.130567
0.133248
0.135837
0.138334
0.140735
0.143041
0.145253
0.147372
0.149399
0.151338
0.153191
0.154961
0.156653
0.15827
0.159815
0.161292
0.162704
0.164056
0.165349
0.166587
0.167773
0.168909
0.169997
0.17104
0.172039
0.172996
0.173912
0.17479
0.17563
0.176435
0.177204
0.177939
0.178641
0.179311
0.179951
0.180561
0.181142
0.181695
0.182221
0.182721
0.183196
0.183645
0.184071
0.184474
0.184855
0.185215
0.185553
0.185872
0.186171
0.186451
0.186714
0.186958
0.187186
0.123464
0.126303
0.129064
0.131741
0.134331
0.136833
0.139245
0.141567
0.143799
0.145941
0.147997
0.149968
0.151856
0.153665
0.155398
0.157057
0.158647
0.16017
0.161629
0.163028
0.164368
0.165653
0.166886
0.168067
0.1692
0.170285
0.171326
0.172324
0.173279
0.174195
0.175071
0.175909
0.176711
0.177477
0.178209
0.178907
0.179573
0.180208
0.180813
0.181388
0.181935
0.182455
0.182948
0.183415
0.183858
0.184276
0.184672
0.185045
0.185396
0.185727
0.186037
0.186328
0.1866
0.186854
0.187091
0.121888
0.124725
0.127488
0.130172
0.132774
0.135293
0.137725
0.140072
0.142332
0.144508
0.1466
0.14861
0.15054
0.152393
0.154172
0.155879
0.157517
0.159088
0.160596
0.162044
0.163433
0.164765
0.166044
0.167271
0.168447
0.169576
0.170658
0.171694
0.172688
0.173639
0.17455
0.175421
0.176253
0.177049
0.177808
0.178533
0.179224
0.179882
0.180509
0.181106
0.181672
0.18221
0.182721
0.183204
0.183662
0.184095
0.184504
0.18489
0.185253
0.185595
0.185916
0.186217
0.186498
0.18676
0.187005
0.1204
0.123245
0.12602
0.12872
0.131342
0.133883
0.136342
0.138719
0.141012
0.143224
0.145354
0.147404
0.149377
0.151273
0.153096
0.154849
0.156532
0.158149
0.159703
0.161195
0.162627
0.164003
0.165323
0.16659
0.167806
0.168972
0.17009
0.171161
0.172187
0.173169
0.174109
0.175009
0.175868
0.176688
0.177472
0.178219
0.178931
0.17961
0.180256
0.18087
0.181453
0.182007
0.182532
0.18303
0.183501
0.183946
0.184367
0.184763
0.185137
0.185488
0.185818
0.186127
0.186416
0.186685
0.186936
0.119371
0.122226
0.125013
0.127728
0.130367
0.132928
0.135409
0.13781
0.140129
0.142368
0.144526
0.146607
0.14861
0.150538
0.152393
0.154177
0.155892
0.157541
0.159126
0.160648
0.162111
0.163515
0.164864
0.166158
0.167399
0.16859
0.169731
0.170825
0.171872
0.172875
0.173834
0.174752
0.175628
0.176465
0.177263
0.178025
0.178751
0.179442
0.1801
0.180725
0.18132
0.181883
0.182418
0.182924
0.183404
0.183857
0.184285
0.184688
0.185068
0.185425
0.18576
0.186075
0.186368
0.186642
0.186897
)
;

boundaryField
{
    inlet
    {
        type            zeroGradient;
    }
    outlet
    {
        type            fixedValue;
        value           nonuniform 0();
    }
    upperWall
    {
        type            zeroGradient;
    }
    lowerWall
    {
        type            zeroGradient;
    }
    frontAndBack
    {
        type            empty;
    }
    procBoundary3to1
    {
        type            processor;
        value           nonuniform List<scalar> 
62
(
0.200179
0.199833
0.19946
0.199113
0.198792
0.198484
0.198484
0.197838
0.19756
0.19756
0.196977
0.196716
0.196453
0.196187
0.195917
0.195917
0.195416
0.195152
0.194878
0.194604
0.194604
0.194173
0.194173
0.19378
0.193567
0.193364
0.193171
0.192986
0.192809
0.192639
0.192475
0.192316
0.192156
0.19199
0.191821
0.191649
0.191474
0.191296
0.191115
0.190931
0.190745
0.190555
0.190363
0.190176
0.189988
0.189787
0.189569
0.189335
0.189086
0.188818
0.188526
0.188261
0.188057
0.187884
0.187735
0.187608
0.187496
0.187398
0.18731
0.187232
0.187169
0.187134
)
;
    }
    procBoundary3to2
    {
        type            processor;
        value           nonuniform List<scalar> 
58
(
0.149447
0.140838
0.130751
0.12365
0.118313
0.11393
0.110214
0.106988
0.104147
0.10164
0.0994562
0.0976119
0.0961422
0.0950859
0.0944509
0.0943087
0.0947603
0.0955477
0.0965486
0.097663
0.0988204
0.0999743
0.101095
0.102166
0.103177
0.104123
0.105002
0.105842
0.106699
0.107602
0.108552
0.109547
0.110584
0.111663
0.112781
0.113936
0.115125
0.116341
0.1175
0.118669
0.119983
0.119983
0.116999
0.118805
0.120726
0.122703
0.124545
0.125651
0.125996
0.125857
0.125315
0.124452
0.123333
0.122017
0.120551
0.11898
0.117488
0.116452
)
;
    }
}


// ************************************************************************* //
