/*--------------------------------*- C++ -*----------------------------------*\
  =========                 |
  \\      /  F ield         | OpenFOAM: The Open Source CFD Toolbox
   \\    /   O peration     | Website:  https://openfoam.org
    \\  /    A nd           | Version:  6
     \\/     M anipulation  |
\*---------------------------------------------------------------------------*/
FoamFile
{
    version     2.0;
    format      ascii;
    class       surfaceScalarField;
    location    "0.05";
    object      phi;
}
// * * * * * * * * * * * * * * * * * * * * * * * * * * * * * * * * * * * * * //

dimensions      [0 3 -1 0 0 0 0];

internalField   nonuniform List<scalar> 
5952
(
5.0692e-08
-1.92261e-08
6.98444e-08
-1.91524e-08
8.88468e-08
-1.90024e-08
1.07629e-07
-1.87823e-08
1.26127e-07
-1.84981e-08
1.44283e-07
-1.81555e-08
1.62043e-07
-1.77601e-08
1.79361e-07
-1.73178e-08
1.96195e-07
-1.68341e-08
2.12509e-07
-1.63147e-08
2.28275e-07
-1.57653e-08
2.43466e-07
-1.51913e-08
2.58064e-07
-1.4598e-08
2.72055e-07
-1.39904e-08
2.85428e-07
-1.33735e-08
2.9818e-07
-1.27516e-08
3.10309e-07
-1.21291e-08
3.21818e-07
-1.15097e-08
3.32716e-07
-1.08971e-08
3.4301e-07
-1.02944e-08
3.52714e-07
-9.70421e-09
3.61843e-07
-9.12906e-09
3.70414e-07
-8.57091e-09
3.78445e-07
-8.03141e-09
3.85957e-07
-7.51187e-09
3.92971e-07
-7.01327e-09
3.99507e-07
-6.53632e-09
4.05588e-07
-6.08141e-09
4.11237e-07
-5.64872e-09
4.16475e-07
-5.23823e-09
4.21325e-07
-4.8497e-09
4.25808e-07
-4.48275e-09
4.29945e-07
-4.13688e-09
4.33756e-07
-3.81146e-09
4.37262e-07
-3.50578e-09
4.40481e-07
-3.2191e-09
4.43432e-07
-2.95058e-09
4.46131e-07
-2.6994e-09
4.48596e-07
-2.46471e-09
4.50841e-07
-2.24564e-09
4.52883e-07
-2.04134e-09
4.54734e-07
-1.85098e-09
4.56407e-07
-1.67375e-09
4.57916e-07
-1.50883e-09
4.59272e-07
-1.35548e-09
4.60485e-07
-1.21297e-09
4.61565e-07
-1.08058e-09
4.62523e-07
-9.57686e-10
-8.4367e-10
5.85102e-08
-3.8321e-08
7.7567e-08
-3.82092e-08
9.65171e-08
-3.79525e-08
1.15295e-07
-3.75602e-08
1.33839e-07
-3.70421e-08
1.52092e-07
-3.64086e-08
1.70002e-07
-3.567e-08
1.87521e-07
-3.4837e-08
2.04607e-07
-3.39203e-08
2.21223e-07
-3.29307e-08
2.37337e-07
-3.18786e-08
2.5292e-07
-3.07745e-08
2.6795e-07
-2.96286e-08
2.8241e-07
-2.84504e-08
2.96286e-07
-2.72495e-08
3.09569e-07
-2.60345e-08
3.22254e-07
-2.48139e-08
3.34339e-07
-2.35951e-08
3.45828e-07
-2.23854e-08
3.56724e-07
-2.1191e-08
3.67038e-07
-2.00175e-08
3.76779e-07
-1.88701e-08
3.85961e-07
-1.77529e-08
3.94599e-07
-1.66695e-08
4.0271e-07
-1.56228e-08
4.10312e-07
-1.46153e-08
4.17424e-07
-1.36485e-08
4.24066e-07
-1.27237e-08
4.30259e-07
-1.18415e-08
4.36023e-07
-1.10022e-08
4.41379e-07
-1.02057e-08
4.46348e-07
-9.45147e-09
4.50949e-07
-8.73875e-09
4.55205e-07
-8.06654e-09
4.59132e-07
-7.43366e-09
4.62752e-07
-6.83873e-09
4.66082e-07
-6.28032e-09
4.69139e-07
-5.75687e-09
4.71941e-07
-5.2668e-09
4.74504e-07
-4.80847e-09
4.76843e-07
-4.38027e-09
4.78973e-07
-3.98057e-09
4.80907e-07
-3.60781e-09
4.82658e-07
-3.26041e-09
4.8424e-07
-2.93689e-09
4.85663e-07
-2.63579e-09
4.86938e-07
-2.35575e-09
4.88076e-07
-2.09546e-09
-1.85368e-09
6.45998e-08
-5.70659e-08
8.33247e-08
-5.69341e-08
1.01963e-07
-5.65908e-08
1.20452e-07
-5.60489e-08
1.38732e-07
-5.53222e-08
1.56748e-07
-5.44251e-08
1.74451e-07
-5.33725e-08
1.91793e-07
-5.21796e-08
2.08734e-07
-5.08615e-08
2.25237e-07
-4.94335e-08
2.41269e-07
-4.79107e-08
2.56803e-07
-4.63081e-08
2.71814e-07
-4.464e-08
2.86285e-07
-4.29207e-08
3.00199e-07
-4.11636e-08
3.13546e-07
-3.93815e-08
3.26318e-07
-3.75865e-08
3.38513e-07
-3.579e-08
3.5013e-07
-3.40024e-08
3.61172e-07
-3.22331e-08
3.71646e-07
-3.04908e-08
3.81559e-07
-2.87831e-08
3.90922e-07
-2.71164e-08
3.99749e-07
-2.54966e-08
4.08055e-07
-2.39282e-08
4.15854e-07
-2.24151e-08
4.23166e-07
-2.09601e-08
4.30008e-07
-1.95654e-08
4.36399e-07
-1.82324e-08
4.42358e-07
-1.69618e-08
4.47906e-07
-1.57536e-08
4.53062e-07
-1.46076e-08
4.57846e-07
-1.35227e-08
4.62278e-07
-1.24978e-08
4.66375e-07
-1.15313e-08
4.70158e-07
-1.06215e-08
4.73644e-07
-9.76616e-09
4.7685e-07
-8.9633e-09
4.79794e-07
-8.21062e-09
4.82491e-07
-7.50579e-09
4.84958e-07
-6.84649e-09
4.87207e-07
-6.23035e-09
4.89255e-07
-5.65507e-09
4.91113e-07
-5.11837e-09
4.92794e-07
-4.61805e-09
4.9431e-07
-4.15199e-09
4.95672e-07
-3.71811e-09
4.96891e-07
-3.31446e-09
-2.93918e-09
7.17937e-08
-7.54886e-08
9.01946e-08
-7.5335e-08
1.0851e-07
-7.49065e-08
1.26681e-07
-7.42197e-08
1.44651e-07
-7.32924e-08
1.62369e-07
-7.21429e-08
1.79787e-07
-7.07902e-08
1.96861e-07
-6.92537e-08
2.13552e-07
-6.75526e-08
2.29825e-07
-6.57065e-08
2.45649e-07
-6.37345e-08
2.60996e-07
-6.16556e-08
2.75845e-07
-5.94883e-08
2.90175e-07
-5.72507e-08
3.03971e-07
-5.49601e-08
3.17223e-07
-5.26329e-08
3.29921e-07
-5.02849e-08
3.42062e-07
-4.79309e-08
3.53644e-07
-4.55843e-08
3.64669e-07
-4.32578e-08
3.7514e-07
-4.09626e-08
3.85066e-07
-3.8709e-08
3.94456e-07
-3.65058e-08
4.0332e-07
-3.43608e-08
4.11672e-07
-3.22803e-08
4.19527e-07
-3.02698e-08
4.269e-07
-2.83335e-08
4.33809e-07
-2.64744e-08
4.40271e-07
-2.46948e-08
4.46305e-07
-2.29959e-08
4.5193e-07
-2.13782e-08
4.57164e-07
-1.98415e-08
4.62026e-07
-1.8385e-08
4.66536e-07
-1.70072e-08
4.70711e-07
-1.57063e-08
4.74569e-07
-1.44802e-08
4.78129e-07
-1.33263e-08
4.81408e-07
-1.2242e-08
4.84422e-07
-1.12244e-08
4.87187e-07
-1.02705e-08
4.89718e-07
-9.37741e-09
4.92029e-07
-8.54204e-09
4.94135e-07
-7.76136e-09
4.9605e-07
-7.03245e-09
4.97784e-07
-6.35239e-09
4.9935e-07
-5.7184e-09
5.0076e-07
-5.12776e-09
5.02023e-07
-4.57788e-09
-4.06625e-09
8.0855e-08
-9.36156e-08
9.89419e-08
-9.34219e-08
1.1693e-07
-9.28942e-08
1.34763e-07
-9.20529e-08
1.5239e-07
-9.09195e-08
1.69763e-07
-8.95164e-08
1.86839e-07
-8.78662e-08
2.03578e-07
-8.59921e-08
2.19943e-07
-8.39174e-08
2.35901e-07
-8.1665e-08
2.51425e-07
-7.92581e-08
2.66488e-07
-7.67192e-08
2.81071e-07
-7.40705e-08
2.95153e-07
-7.13334e-08
3.08722e-07
-6.85288e-08
3.21765e-07
-6.56765e-08
3.34276e-07
-6.27954e-08
3.46248e-07
-5.99034e-08
3.57681e-07
-5.7017e-08
3.68575e-07
-5.41516e-08
3.78933e-07
-5.13211e-08
3.88763e-07
-4.85381e-08
3.9807e-07
-4.58137e-08
4.06867e-07
-4.31576e-08
4.15165e-07
-4.0578e-08
4.22977e-07
-3.80818e-08
4.30318e-07
-3.56745e-08
4.37204e-07
-3.33603e-08
4.43651e-07
-3.11423e-08
4.49678e-07
-2.90223e-08
4.55301e-07
-2.70013e-08
4.60539e-07
-2.50793e-08
4.65409e-07
-2.32556e-08
4.69931e-07
-2.15286e-08
4.74121e-07
-1.98963e-08
4.77997e-07
-1.83564e-08
4.81577e-07
-1.69058e-08
4.84876e-07
-1.55415e-08
4.87912e-07
-1.426e-08
4.90699e-07
-1.30578e-08
4.93253e-07
-1.19312e-08
4.95587e-07
-1.08767e-08
4.97717e-07
-9.8905e-09
4.99653e-07
-8.96904e-09
5.01409e-07
-8.10875e-09
5.02997e-07
-7.3062e-09
5.04428e-07
-6.55804e-09
5.05711e-07
-5.86106e-09
-5.21217e-09
9.2249e-08
-1.11446e-07
1.10007e-07
-1.1118e-07
1.2764e-07
-1.10527e-07
1.45097e-07
-1.0951e-07
1.62332e-07
-1.08155e-07
1.79303e-07
-1.06487e-07
1.9597e-07
-1.04534e-07
2.12299e-07
-1.02321e-07
2.28257e-07
-9.98751e-08
2.43815e-07
-9.7223e-08
2.58947e-07
-9.43909e-08
2.73633e-07
-9.14045e-08
2.87851e-07
-8.82891e-08
3.01587e-07
-8.50693e-08
3.14827e-07
-8.17688e-08
3.27561e-07
-7.84105e-08
3.39782e-07
-7.50161e-08
3.51485e-07
-7.16062e-08
3.62668e-07
-6.82001e-08
3.73332e-07
-6.48157e-08
3.8348e-07
-6.14692e-08
3.93118e-07
-5.81754e-08
4.02252e-07
-5.49477e-08
4.10891e-07
-5.17974e-08
4.19048e-07
-4.87346e-08
4.26734e-07
-4.57677e-08
4.33963e-07
-4.29033e-08
4.40749e-07
-4.01468e-08
4.47109e-07
-3.75021e-08
4.53058e-07
-3.49717e-08
4.58614e-07
-3.25571e-08
4.63793e-07
-3.02585e-08
4.68613e-07
-2.80754e-08
4.73091e-07
-2.60063e-08
4.77244e-07
-2.4049e-08
4.81088e-07
-2.22009e-08
4.84641e-07
-2.04586e-08
4.87918e-07
-1.88186e-08
4.90935e-07
-1.7277e-08
4.93707e-07
-1.58298e-08
4.96248e-07
-1.44728e-08
4.98573e-07
-1.32016e-08
5.00695e-07
-1.2012e-08
5.02626e-07
-1.08998e-08
5.04378e-07
-9.86088e-09
5.05963e-07
-8.89107e-09
5.07391e-07
-7.98646e-09
5.08673e-07
-7.14324e-09
-6.35775e-09
1.06373e-07
-1.28943e-07
1.23755e-07
-1.28562e-07
1.40974e-07
-1.27747e-07
1.57989e-07
-1.26524e-07
1.74758e-07
-1.24924e-07
1.91246e-07
-1.22975e-07
2.07419e-07
-1.20707e-07
2.23247e-07
-1.18149e-07
2.38704e-07
-1.15332e-07
2.53765e-07
-1.12284e-07
2.68408e-07
-1.09034e-07
2.82615e-07
-1.05611e-07
2.96369e-07
-1.02043e-07
3.09657e-07
-9.83571e-08
3.22467e-07
-9.45791e-08
3.34792e-07
-9.07346e-08
3.46623e-07
-8.68479e-08
3.57959e-07
-8.29417e-08
3.68797e-07
-7.90379e-08
3.79137e-07
-7.51563e-08
3.88984e-07
-7.13155e-08
3.9834e-07
-6.75324e-08
4.07215e-07
-6.38219e-08
4.15615e-07
-6.01975e-08
4.23551e-07
-5.66706e-08
4.31034e-07
-5.3251e-08
4.38077e-07
-4.99466e-08
4.44694e-07
-4.67638e-08
4.509e-07
-4.37074e-08
4.56709e-07
-4.07806e-08
4.62137e-07
-3.79853e-08
4.67201e-07
-3.53222e-08
4.71916e-07
-3.27908e-08
4.76299e-07
-3.03897e-08
4.80367e-07
-2.81167e-08
4.84135e-07
-2.59688e-08
4.87619e-07
-2.39426e-08
4.90834e-07
-2.2034e-08
4.93796e-07
-2.02387e-08
4.96519e-07
-1.85523e-08
4.99016e-07
-1.697e-08
5.01301e-07
-1.54869e-08
5.03387e-07
-1.40982e-08
5.05286e-07
-1.27991e-08
5.0701e-07
-1.15848e-08
5.0857e-07
-1.04508e-08
5.09976e-07
-9.39242e-09
5.11238e-07
-8.40536e-09
5.12366e-07
-7.48538e-09
-6.62843e-09
1.23586e-07
-1.46028e-07
1.40505e-07
-1.45481e-07
1.57218e-07
-1.4446e-07
1.73691e-07
-1.42997e-07
1.89891e-07
-1.41124e-07
2.05789e-07
-1.38873e-07
2.21359e-07
-1.36277e-07
2.36578e-07
-1.33368e-07
2.51424e-07
-1.30177e-07
2.65877e-07
-1.26737e-07
2.7992e-07
-1.23078e-07
2.9354e-07
-1.19231e-07
3.06722e-07
-1.15225e-07
3.19456e-07
-1.11091e-07
3.31732e-07
-1.06856e-07
3.43545e-07
-1.02547e-07
3.54888e-07
-9.81912e-08
3.65759e-07
-9.3813e-08
3.76157e-07
-8.9436e-08
3.86083e-07
-8.50822e-08
3.9554e-07
-8.0772e-08
4.04531e-07
-7.65238e-08
4.13064e-07
-7.23546e-08
4.21146e-07
-6.82792e-08
4.28786e-07
-6.43105e-08
4.35994e-07
-6.04595e-08
4.42783e-07
-5.67356e-08
4.49165e-07
-5.31459e-08
4.55154e-07
-4.9696e-08
4.60763e-07
-4.639e-08
4.66008e-07
-4.32301e-08
4.70903e-07
-4.02175e-08
4.75464e-07
-3.73518e-08
4.79706e-07
-3.46317e-08
4.83644e-07
-3.2055e-08
4.87294e-07
-2.96186e-08
4.9067e-07
-2.73187e-08
4.93787e-07
-2.5151e-08
4.96659e-07
-2.31108e-08
4.993e-07
-2.11932e-08
5.01723e-07
-1.93929e-08
5.03941e-07
-1.77046e-08
5.05966e-07
-1.6123e-08
5.07809e-07
-1.46426e-08
5.09483e-07
-1.32581e-08
5.10996e-07
-1.19645e-08
5.1236e-07
-1.07566e-08
5.13585e-07
-9.62949e-09
5.14678e-07
-8.57847e-09
-7.59897e-09
1.44209e-07
-1.62575e-07
1.60535e-07
-1.61806e-07
1.7661e-07
-1.60534e-07
1.92407e-07
-1.58794e-07
2.07904e-07
-1.56621e-07
2.23079e-07
-1.54049e-07
2.37915e-07
-1.51113e-07
2.52393e-07
-1.47847e-07
2.665e-07
-1.44284e-07
2.80221e-07
-1.40458e-07
2.93544e-07
-1.36401e-07
3.06457e-07
-1.32144e-07
3.18952e-07
-1.2772e-07
3.31021e-07
-1.23159e-07
3.42656e-07
-1.18491e-07
3.53853e-07
-1.13744e-07
3.64607e-07
-1.08946e-07
3.74918e-07
-1.04123e-07
3.84784e-07
-9.93018e-08
3.94206e-07
-9.45043e-08
4.03187e-07
-8.97529e-08
4.11731e-07
-8.50678e-08
4.19843e-07
-8.04672e-08
4.27531e-07
-7.59674e-08
4.34803e-07
-7.15826e-08
4.41669e-07
-6.73252e-08
4.48139e-07
-6.32053e-08
4.54224e-07
-5.92312e-08
4.59937e-07
-5.54094e-08
4.65292e-07
-5.17443e-08
4.70301e-07
-4.82389e-08
4.74978e-07
-4.48947e-08
4.79338e-07
-4.17115e-08
4.83394e-07
-3.86883e-08
4.87162e-07
-3.58226e-08
4.90654e-07
-3.31113e-08
4.93886e-07
-3.05504e-08
4.9687e-07
-2.81354e-08
4.99621e-07
-2.58612e-08
5.0215e-07
-2.37225e-08
5.04471e-07
-2.17136e-08
5.06595e-07
-1.98287e-08
5.08534e-07
-1.8062e-08
5.10299e-07
-1.64076e-08
5.119e-07
-1.48596e-08
5.13348e-07
-1.34125e-08
5.14652e-07
-1.20607e-08
5.15822e-07
-1.07987e-08
5.16864e-07
-9.62128e-09
5.17789e-07
-8.5235e-09
-7.50051e-09
1.685e-07
-1.78413e-07
1.8406e-07
-1.77367e-07
1.99325e-07
-1.75799e-07
2.14279e-07
-1.73748e-07
2.28909e-07
-1.7125e-07
2.43203e-07
-1.68342e-07
2.5715e-07
-1.6506e-07
2.7074e-07
-1.61437e-07
2.83965e-07
-1.57509e-07
2.96816e-07
-1.53309e-07
3.09286e-07
-1.48871e-07
3.21368e-07
-1.44226e-07
3.33056e-07
-1.39408e-07
3.44344e-07
-1.34448e-07
3.55228e-07
-1.29375e-07
3.65704e-07
-1.2422e-07
3.7577e-07
-1.19012e-07
3.85425e-07
-1.13778e-07
3.94667e-07
-1.08544e-07
4.03498e-07
-1.03336e-07
4.11921e-07
-9.81755e-08
4.19938e-07
-9.30854e-08
4.27556e-07
-8.80846e-08
4.34779e-07
-8.31908e-08
4.41616e-07
-7.84193e-08
4.48074e-07
-7.37835e-08
4.54164e-07
-6.92947e-08
4.59895e-07
-6.49621e-08
4.65278e-07
-6.07927e-08
4.70325e-07
-5.67919e-08
4.7505e-07
-5.2963e-08
4.79463e-07
-4.93078e-08
4.83578e-07
-4.58266e-08
4.87408e-07
-4.25184e-08
4.90966e-07
-3.93808e-08
4.94265e-07
-3.64106e-08
4.97319e-07
-3.36036e-08
5.00138e-07
-3.09552e-08
5.02737e-07
-2.846e-08
5.05127e-07
-2.61122e-08
5.07319e-07
-2.39058e-08
5.09325e-07
-2.18347e-08
5.11156e-07
-1.98924e-08
5.12821e-07
-1.80728e-08
5.14331e-07
-1.63695e-08
5.15694e-07
-1.47764e-08
5.16921e-07
-1.32875e-08
5.1802e-07
-1.18969e-08
5.18997e-07
-1.0599e-08
5.19862e-07
-9.38825e-09
-8.25951e-09
1.96625e-07
-1.93321e-07
2.11207e-07
-1.91948e-07
2.25456e-07
-1.90048e-07
2.39369e-07
-1.87661e-07
2.52942e-07
-1.84824e-07
2.66174e-07
-1.81574e-07
2.7906e-07
-1.77946e-07
2.91599e-07
-1.73976e-07
3.03789e-07
-1.69698e-07
3.15625e-07
-1.65145e-07
3.27104e-07
-1.60351e-07
3.38225e-07
-1.55347e-07
3.48982e-07
-1.50166e-07
3.59374e-07
-1.44839e-07
3.69397e-07
-1.39398e-07
3.79049e-07
-1.33872e-07
3.88328e-07
-1.28291e-07
3.97233e-07
-1.22683e-07
4.05763e-07
-1.17075e-07
4.13921e-07
-1.11493e-07
4.21706e-07
-1.05961e-07
4.29123e-07
-1.00502e-07
4.36175e-07
-9.51364e-08
4.42867e-07
-8.98826e-08
4.49205e-07
-8.47573e-08
4.55196e-07
-7.97748e-08
4.60848e-07
-7.49474e-08
4.66171e-07
-7.0285e-08
4.71174e-07
-6.57955e-08
4.75867e-07
-6.14849e-08
4.80261e-07
-5.73571e-08
4.84368e-07
-5.34143e-08
4.88198e-07
-4.9657e-08
4.91764e-07
-4.60844e-08
4.95078e-07
-4.26942e-08
4.9815e-07
-3.94832e-08
5.00994e-07
-3.64472e-08
5.0362e-07
-3.35812e-08
5.0604e-07
-3.08796e-08
5.08264e-07
-2.83365e-08
5.10304e-07
-2.59454e-08
5.12169e-07
-2.36999e-08
5.13869e-07
-2.15931e-08
5.15415e-07
-1.96185e-08
5.16815e-07
-1.77693e-08
5.18078e-07
-1.6039e-08
5.19211e-07
-1.44211e-08
5.20224e-07
-1.29093e-08
5.21122e-07
-1.14977e-08
5.21914e-07
-1.01804e-08
-8.95165e-09
2.28628e-07
-2.07038e-07
2.41983e-07
-2.05302e-07
2.54981e-07
-2.03047e-07
2.67632e-07
-2.00312e-07
2.79941e-07
-1.97133e-07
2.91915e-07
-1.93548e-07
3.0356e-07
-1.8959e-07
3.14877e-07
-1.85294e-07
3.25872e-07
-1.80692e-07
3.36544e-07
-1.75817e-07
3.46895e-07
-1.70701e-07
3.56924e-07
-1.65376e-07
3.6663e-07
-1.59872e-07
3.76012e-07
-1.54221e-07
3.85067e-07
-1.48453e-07
3.93795e-07
-1.426e-07
4.02194e-07
-1.36689e-07
4.10261e-07
-1.3075e-07
4.17998e-07
-1.24811e-07
4.25404e-07
-1.18898e-07
4.32479e-07
-1.13036e-07
4.39226e-07
-1.07249e-07
4.45646e-07
-1.01557e-07
4.51745e-07
-9.59814e-08
4.57527e-07
-9.05386e-08
4.62996e-07
-8.52443e-08
4.6816e-07
-8.01116e-08
4.73027e-07
-7.51512e-08
4.77603e-07
-7.03719e-08
4.81898e-07
-6.57802e-08
4.85922e-07
-6.13807e-08
4.89683e-07
-5.71758e-08
4.93193e-07
-5.31666e-08
4.96461e-07
-4.93523e-08
4.99497e-07
-4.57309e-08
5.02313e-07
-4.22991e-08
5.04919e-07
-3.90528e-08
5.07324e-07
-3.59867e-08
5.0954e-07
-3.30952e-08
5.11575e-07
-3.0372e-08
5.13441e-07
-2.78105e-08
5.15144e-07
-2.54039e-08
5.16696e-07
-2.31449e-08
5.18105e-07
-2.10268e-08
5.19377e-07
-1.90423e-08
5.20523e-07
-1.71845e-08
5.21549e-07
-1.54467e-08
5.22462e-07
-1.38223e-08
5.23269e-07
-1.23048e-08
5.23976e-07
-1.0888e-08
-9.56592e-09
2.64392e-07
-2.19274e-07
2.76248e-07
-2.17159e-07
2.87745e-07
-2.14544e-07
2.989e-07
-2.11467e-07
3.0973e-07
-2.07963e-07
3.20249e-07
-2.04066e-07
3.30467e-07
-1.99809e-07
3.40395e-07
-1.95222e-07
3.50039e-07
-1.90336e-07
3.59404e-07
-1.85182e-07
3.68493e-07
-1.7979e-07
3.77307e-07
-1.7419e-07
3.85848e-07
-1.68412e-07
3.94114e-07
-1.62487e-07
4.02103e-07
-1.56443e-07
4.09815e-07
-1.50312e-07
4.17247e-07
-1.44121e-07
4.24398e-07
-1.37901e-07
4.31266e-07
-1.31679e-07
4.37849e-07
-1.25482e-07
4.44148e-07
-1.19335e-07
4.50163e-07
-1.13264e-07
4.55894e-07
-1.07289e-07
4.61345e-07
-1.01432e-07
4.66518e-07
-9.57117e-08
4.71417e-07
-9.01434e-08
4.76047e-07
-8.47415e-08
4.80414e-07
-7.95176e-08
4.84523e-07
-7.44812e-08
4.88382e-07
-6.96395e-08
4.91999e-07
-6.49975e-08
4.95382e-07
-6.05583e-08
4.98538e-07
-5.63232e-08
5.01478e-07
-5.22919e-08
5.04209e-07
-4.84624e-08
5.06742e-07
-4.48316e-08
5.09084e-07
-4.13952e-08
5.11246e-07
-3.81482e-08
5.13235e-07
-3.50846e-08
5.15061e-07
-3.2198e-08
5.16732e-07
-2.94816e-08
5.18256e-07
-2.69283e-08
5.19642e-07
-2.45307e-08
5.20897e-07
-2.22815e-08
5.22028e-07
-2.01734e-08
5.23043e-07
-1.8199e-08
5.23947e-07
-1.63514e-08
5.24748e-07
-1.46235e-08
5.25452e-07
-1.30087e-08
5.26065e-07
-1.15004e-08
-1.00923e-08
3.0361e-07
-2.29723e-07
3.13691e-07
-2.2724e-07
3.23433e-07
-2.24286e-07
3.32864e-07
-2.20898e-07
3.42007e-07
-2.17106e-07
3.50881e-07
-2.1294e-07
3.59502e-07
-2.0843e-07
3.67883e-07
-2.03603e-07
3.76034e-07
-1.98487e-07
3.83961e-07
-1.93109e-07
3.91669e-07
-1.87498e-07
3.99159e-07
-1.81681e-07
4.06433e-07
-1.75686e-07
4.1349e-07
-1.69544e-07
4.20328e-07
-1.63281e-07
4.26944e-07
-1.56928e-07
4.33335e-07
-1.50513e-07
4.39499e-07
-1.44065e-07
4.45433e-07
-1.37613e-07
4.51134e-07
-1.31182e-07
4.566e-07
-1.24801e-07
4.61829e-07
-1.18493e-07
4.66821e-07
-1.12282e-07
4.71577e-07
-1.06188e-07
4.76098e-07
-1.00232e-07
4.80385e-07
-9.44303e-08
4.84441e-07
-8.87978e-08
4.8827e-07
-8.33472e-08
4.91878e-07
-7.80885e-08
4.95268e-07
-7.30297e-08
4.98447e-07
-6.81765e-08
5.01421e-07
-6.35325e-08
5.04197e-07
-5.90995e-08
5.06783e-07
-5.48773e-08
5.09185e-07
-5.08643e-08
5.11411e-07
-4.70576e-08
5.13468e-07
-4.34529e-08
5.15366e-07
-4.00453e-08
5.1711e-07
-3.68286e-08
5.18708e-07
-3.37964e-08
5.20168e-07
-3.09418e-08
5.21497e-07
-2.82573e-08
5.22702e-07
-2.57354e-08
5.23789e-07
-2.33687e-08
5.24765e-07
-2.11495e-08
5.25636e-07
-1.90702e-08
5.26409e-07
-1.71235e-08
5.27087e-07
-1.53023e-08
5.27678e-07
-1.35994e-08
5.28186e-07
-1.20082e-08
5.28616e-07
-1.05222e-08
-9.13505e-09
3.4577e-07
-2.38095e-07
3.53815e-07
-2.35285e-07
3.61571e-07
-2.32043e-07
3.69071e-07
-2.28398e-07
3.76343e-07
-2.24377e-07
3.83407e-07
-2.20005e-07
3.90284e-07
-2.15307e-07
3.96986e-07
-2.10305e-07
4.03524e-07
-2.05025e-07
4.09906e-07
-1.99491e-07
4.16134e-07
-1.93726e-07
4.22211e-07
-1.87758e-07
4.28137e-07
-1.81612e-07
4.3391e-07
-1.75316e-07
4.39526e-07
-1.68897e-07
4.44982e-07
-1.62384e-07
4.50274e-07
-1.55804e-07
4.55395e-07
-1.49187e-07
4.60343e-07
-1.4256e-07
4.65112e-07
-1.35952e-07
4.69699e-07
-1.29388e-07
4.741e-07
-1.22894e-07
4.78313e-07
-1.16494e-07
4.82335e-07
-1.10211e-07
4.86167e-07
-1.04064e-07
4.89808e-07
-9.8071e-08
4.93258e-07
-9.22485e-08
4.96521e-07
-8.66095e-08
4.99597e-07
-8.11651e-08
5.02491e-07
-7.59239e-08
5.05207e-07
-7.08923e-08
5.07749e-07
-6.60744e-08
5.10122e-07
-6.14725e-08
5.12332e-07
-5.7087e-08
5.14384e-07
-5.29164e-08
5.16285e-07
-4.89581e-08
5.1804e-07
-4.5208e-08
5.19655e-07
-4.1661e-08
5.21138e-07
-3.83113e-08
5.22494e-07
-3.51523e-08
5.23729e-07
-3.21768e-08
5.24849e-07
-2.93775e-08
5.25861e-07
-2.67467e-08
5.26769e-07
-2.42767e-08
5.27579e-07
-2.19595e-08
5.28296e-07
-1.97877e-08
5.28926e-07
-1.77534e-08
5.29473e-07
-1.58494e-08
5.29942e-07
-1.40684e-08
5.30337e-07
-1.24034e-08
5.30663e-07
-1.08479e-08
-9.39523e-09
4.13364e-07
-2.44324e-07
4.19328e-07
-2.41249e-07
4.2507e-07
-2.37785e-07
4.30626e-07
-2.33954e-07
4.36025e-07
-2.29776e-07
4.41291e-07
-2.25271e-07
4.46443e-07
-2.20458e-07
4.51494e-07
-2.15356e-07
4.56453e-07
-2.09984e-07
4.61326e-07
-2.04364e-07
4.66116e-07
-1.98516e-07
4.70822e-07
-1.92465e-07
4.75443e-07
-1.86233e-07
4.79974e-07
-1.79847e-07
4.84409e-07
-1.73333e-07
4.88743e-07
-1.66718e-07
4.92969e-07
-1.6003e-07
4.9708e-07
-1.53297e-07
5.01067e-07
-1.46548e-07
5.04926e-07
-1.3981e-07
5.08648e-07
-1.3311e-07
5.12229e-07
-1.26475e-07
5.15664e-07
-1.19929e-07
5.18948e-07
-1.13495e-07
5.22078e-07
-1.07194e-07
5.25053e-07
-1.01045e-07
5.2787e-07
-9.50658e-08
5.3053e-07
-8.92694e-08
5.33033e-07
-8.36682e-08
5.35381e-07
-7.82717e-08
5.37575e-07
-7.30869e-08
5.3962e-07
-6.81188e-08
5.41517e-07
-6.33701e-08
5.43272e-07
-5.88415e-08
5.44888e-07
-5.45323e-08
5.4637e-07
-5.044e-08
5.47722e-07
-4.65607e-08
5.48951e-07
-4.28896e-08
5.5006e-07
-3.94208e-08
5.51056e-07
-3.61478e-08
5.51943e-07
-3.30634e-08
5.52725e-07
-3.01603e-08
5.53409e-07
-2.74306e-08
5.53999e-07
-2.48664e-08
5.54499e-07
-2.24598e-08
5.54914e-07
-2.0203e-08
5.55249e-07
-1.80882e-08
5.55508e-07
-1.61078e-08
5.55694e-07
-1.42544e-08
5.55811e-07
-1.2521e-08
5.55864e-07
-1.09006e-08
-9.38663e-09
4.19531e-07
-2.4768e-07
4.22755e-07
-2.44473e-07
4.25882e-07
-2.40912e-07
4.28944e-07
-2.37015e-07
4.31961e-07
-2.32794e-07
4.34954e-07
-2.28264e-07
4.37936e-07
-2.23439e-07
4.40914e-07
-2.18335e-07
4.43896e-07
-2.12966e-07
4.46883e-07
-2.07351e-07
4.49875e-07
-2.01508e-07
4.52868e-07
-1.95458e-07
4.55859e-07
-1.89224e-07
4.58841e-07
-1.82829e-07
4.61807e-07
-1.76299e-07
4.64748e-07
-1.6966e-07
4.67657e-07
-1.62939e-07
4.70524e-07
-1.56165e-07
4.73342e-07
-1.49365e-07
4.761e-07
-1.42569e-07
4.78793e-07
-1.35802e-07
4.81411e-07
-1.29093e-07
4.83949e-07
-1.22467e-07
4.864e-07
-1.15946e-07
4.88761e-07
-1.09554e-07
4.91025e-07
-1.0331e-07
4.93191e-07
-9.72318e-08
4.95256e-07
-9.13344e-08
4.97219e-07
-8.56307e-08
4.99078e-07
-8.01309e-08
5.00834e-07
-7.48429e-08
5.02487e-07
-6.97722e-08
5.04039e-07
-6.49223e-08
5.05492e-07
-6.02943e-08
5.06848e-07
-5.58878e-08
5.08108e-07
-5.17008e-08
5.09277e-07
-4.77296e-08
5.10357e-07
-4.39696e-08
5.11352e-07
-4.04152e-08
5.12264e-07
-3.70598e-08
5.13097e-07
-3.38965e-08
5.13854e-07
-3.09177e-08
5.14539e-07
-2.81157e-08
5.15155e-07
-2.54825e-08
5.15706e-07
-2.30102e-08
5.16194e-07
-2.06908e-08
5.16622e-07
-1.85165e-08
5.16994e-07
-1.64795e-08
5.17312e-07
-1.45725e-08
5.17579e-07
-1.27882e-08
5.17798e-07
-1.11195e-08
-9.55987e-09
4.18128e-07
-2.48842e-07
4.19272e-07
-2.45617e-07
4.20425e-07
-2.42065e-07
4.21609e-07
-2.38198e-07
4.22839e-07
-2.34025e-07
4.24128e-07
-2.29554e-07
4.25485e-07
-2.24796e-07
4.26913e-07
-2.19763e-07
4.28415e-07
-2.14467e-07
4.29989e-07
-2.08925e-07
4.31632e-07
-2.03151e-07
4.33339e-07
-1.97166e-07
4.35104e-07
-1.90989e-07
4.36919e-07
-1.84644e-07
4.38776e-07
-1.78155e-07
4.40664e-07
-1.71548e-07
4.42576e-07
-1.6485e-07
4.445e-07
-1.58089e-07
4.46428e-07
-1.51293e-07
4.48351e-07
-1.44491e-07
4.50259e-07
-1.3771e-07
4.52144e-07
-1.30978e-07
4.53998e-07
-1.24321e-07
4.55816e-07
-1.17763e-07
4.57589e-07
-1.11328e-07
4.59314e-07
-1.05035e-07
4.60985e-07
-9.8903e-08
4.62599e-07
-9.29485e-08
4.64153e-07
-8.71846e-08
4.65645e-07
-8.16225e-08
4.67073e-07
-7.62707e-08
4.68436e-07
-7.11353e-08
4.69734e-07
-6.62203e-08
4.70967e-07
-6.15275e-08
4.72136e-07
-5.70568e-08
4.73242e-07
-5.28066e-08
4.74286e-07
-4.87735e-08
4.7527e-07
-4.49532e-08
4.76194e-07
-4.13401e-08
4.77063e-07
-3.7928e-08
4.77876e-07
-3.47099e-08
4.78637e-07
-3.16785e-08
4.79347e-07
-2.88259e-08
4.80009e-07
-2.61443e-08
4.80624e-07
-2.36256e-08
4.81195e-07
-2.1262e-08
4.81724e-07
-1.90454e-08
4.82213e-07
-1.69683e-08
4.82664e-07
-1.50231e-08
4.83078e-07
-1.32024e-08
4.83458e-07
-1.14993e-08
4.83805e-07
-9.90703e-09
-8.419e-09
4.10643e-07
-2.4842e-07
4.10291e-07
-2.45265e-07
4.10028e-07
-2.41802e-07
4.09866e-07
-2.38037e-07
4.09817e-07
-2.33975e-07
4.09887e-07
-2.29623e-07
4.10078e-07
-2.24988e-07
4.10393e-07
-2.20078e-07
4.1083e-07
-2.14904e-07
4.11384e-07
-2.09479e-07
4.12052e-07
-2.03819e-07
4.12826e-07
-1.9794e-07
4.13699e-07
-1.91862e-07
4.14663e-07
-1.85607e-07
4.15707e-07
-1.792e-07
4.16823e-07
-1.72664e-07
4.18e-07
-1.66028e-07
4.19229e-07
-1.59318e-07
4.205e-07
-1.52564e-07
4.21804e-07
-1.45794e-07
4.2313e-07
-1.39037e-07
4.24471e-07
-1.32319e-07
4.25818e-07
-1.25669e-07
4.27165e-07
-1.1911e-07
4.28503e-07
-1.12666e-07
4.29828e-07
-1.0636e-07
4.31134e-07
-1.00209e-07
4.32416e-07
-9.42306e-08
4.3367e-07
-8.84393e-08
4.34894e-07
-8.28465e-08
4.36085e-07
-7.74614e-08
4.37241e-07
-7.22909e-08
4.3836e-07
-6.73393e-08
4.39441e-07
-6.26089e-08
4.40484e-07
-5.81001e-08
4.41489e-07
-5.38116e-08
4.42456e-07
-4.97405e-08
4.43386e-07
-4.58826e-08
4.44278e-07
-4.22325e-08
4.45134e-07
-3.87843e-08
4.45955e-07
-3.5531e-08
4.46742e-07
-3.24654e-08
4.47496e-07
-2.95798e-08
4.48218e-07
-2.68664e-08
4.4891e-07
-2.43172e-08
4.49572e-07
-2.19243e-08
4.50207e-07
-1.96798e-08
4.50814e-07
-1.75759e-08
4.51396e-07
-1.56052e-08
4.51954e-07
-1.37602e-08
4.52489e-07
-1.20341e-08
4.53002e-07
-1.04199e-08
4.53494e-07
-8.91115e-09
-7.50163e-09
3.98601e-07
-2.46926e-07
3.97239e-07
-2.43902e-07
3.96018e-07
-2.40582e-07
3.94948e-07
-2.36966e-07
3.94031e-07
-2.33059e-07
3.93272e-07
-2.28864e-07
3.92669e-07
-2.24385e-07
3.92222e-07
-2.1963e-07
3.91926e-07
-2.14608e-07
3.91776e-07
-2.0933e-07
3.91767e-07
-2.03809e-07
3.9189e-07
-1.98063e-07
3.92138e-07
-1.9211e-07
3.92502e-07
-1.85971e-07
3.92972e-07
-1.7967e-07
3.9354e-07
-1.73231e-07
3.94194e-07
-1.66682e-07
3.94926e-07
-1.6005e-07
3.95725e-07
-1.53364e-07
3.96584e-07
-1.46653e-07
3.97491e-07
-1.39945e-07
3.9844e-07
-1.33268e-07
3.99422e-07
-1.2665e-07
4.00429e-07
-1.20117e-07
4.01454e-07
-1.13692e-07
4.02492e-07
-1.07397e-07
4.03536e-07
-1.01253e-07
4.04582e-07
-9.52765e-08
4.05625e-07
-8.94824e-08
4.06662e-07
-8.3883e-08
4.07688e-07
-7.84883e-08
4.08703e-07
-7.33053e-08
4.09703e-07
-6.83391e-08
4.10686e-07
-6.35924e-08
4.11652e-07
-5.90661e-08
4.126e-07
-5.4759e-08
4.13528e-07
-5.06686e-08
4.14436e-07
-4.67911e-08
4.15325e-07
-4.31213e-08
4.16194e-07
-3.96533e-08
4.17043e-07
-3.63804e-08
4.17874e-07
-3.32956e-08
4.18685e-07
-3.03912e-08
4.19478e-07
-2.76595e-08
4.20253e-07
-2.50926e-08
4.21012e-07
-2.26826e-08
4.21753e-07
-2.04216e-08
4.22479e-07
-1.83019e-08
4.2319e-07
-1.63161e-08
4.23887e-07
-1.44568e-08
4.2457e-07
-1.27169e-08
4.2524e-07
-1.10898e-08
4.25897e-07
-9.5688e-09
-8.14775e-09
3.83393e-07
-2.44768e-07
3.81404e-07
-2.41913e-07
3.79587e-07
-2.38765e-07
3.77948e-07
-2.35327e-07
3.76486e-07
-2.31597e-07
3.75202e-07
-2.27579e-07
3.74093e-07
-2.23276e-07
3.73155e-07
-2.18693e-07
3.72385e-07
-2.13838e-07
3.71776e-07
-2.0872e-07
3.71321e-07
-2.03354e-07
3.71013e-07
-1.97755e-07
3.70843e-07
-1.9194e-07
3.70803e-07
-1.85932e-07
3.70885e-07
-1.79751e-07
3.71079e-07
-1.73425e-07
3.71375e-07
-1.66978e-07
3.71765e-07
-1.6044e-07
3.7224e-07
-1.53839e-07
3.7279e-07
-1.47203e-07
3.73407e-07
-1.40562e-07
3.74083e-07
-1.33944e-07
3.74811e-07
-1.27378e-07
3.75582e-07
-1.20888e-07
3.76391e-07
-1.145e-07
3.7723e-07
-1.08237e-07
3.78095e-07
-1.02118e-07
3.78981e-07
-9.61616e-08
3.79881e-07
-9.03832e-08
3.80794e-07
-8.47954e-08
3.81714e-07
-7.94087e-08
3.8264e-07
-7.42307e-08
3.83567e-07
-6.92668e-08
3.84495e-07
-6.45203e-08
3.85421e-07
-5.99922e-08
3.86344e-07
-5.56819e-08
3.87263e-07
-5.15871e-08
3.88176e-07
-4.77041e-08
3.89082e-07
-4.40281e-08
3.89983e-07
-4.05534e-08
3.90876e-07
-3.72735e-08
3.91761e-07
-3.41813e-08
3.9264e-07
-3.12695e-08
3.9351e-07
-2.85303e-08
3.94374e-07
-2.5956e-08
3.9523e-07
-2.35386e-08
3.96079e-07
-2.12706e-08
3.96921e-07
-1.9144e-08
3.97757e-07
-1.71516e-08
3.98586e-07
-1.52861e-08
3.99409e-07
-1.35403e-08
4.00227e-07
-1.19076e-08
4.0104e-07
-1.03814e-08
-8.95545e-09
3.662e-07
-2.42253e-07
3.63871e-07
-2.39584e-07
3.6173e-07
-2.36624e-07
3.59777e-07
-2.33374e-07
3.58011e-07
-2.29832e-07
3.5643e-07
-2.25999e-07
3.55031e-07
-2.21877e-07
3.53809e-07
-2.17471e-07
3.52759e-07
-2.12787e-07
3.51875e-07
-2.07836e-07
3.5115e-07
-2.02629e-07
3.50576e-07
-1.97181e-07
3.50147e-07
-1.91511e-07
3.49854e-07
-1.85638e-07
3.49688e-07
-1.79586e-07
3.49643e-07
-1.73379e-07
3.49708e-07
-1.67044e-07
3.49875e-07
-1.60608e-07
3.50137e-07
-1.541e-07
3.50485e-07
-1.47551e-07
3.50911e-07
-1.40988e-07
3.51407e-07
-1.34441e-07
3.51967e-07
-1.27937e-07
3.52583e-07
-1.21505e-07
3.5325e-07
-1.15167e-07
3.53961e-07
-1.08948e-07
3.5471e-07
-1.02867e-07
3.55493e-07
-9.69447e-08
3.56305e-07
-9.11953e-08
3.57142e-07
-8.56326e-08
3.58001e-07
-8.02671e-08
3.58877e-07
-7.51072e-08
3.59769e-07
-7.01585e-08
3.60673e-07
-6.54247e-08
3.61588e-07
-6.09071e-08
3.62512e-07
-5.66054e-08
3.63442e-07
-5.25176e-08
3.64378e-07
-4.86402e-08
3.65319e-07
-4.49688e-08
3.66263e-07
-4.14976e-08
3.67211e-07
-3.82205e-08
3.6816e-07
-3.51305e-08
3.69111e-07
-3.22203e-08
3.70063e-07
-2.94823e-08
3.71016e-07
-2.69089e-08
3.71969e-07
-2.44923e-08
3.72923e-07
-2.22247e-08
3.73878e-07
-2.00986e-08
3.74833e-07
-1.81066e-08
3.75788e-07
-1.62414e-08
3.76744e-07
-1.44961e-08
3.777e-07
-1.28638e-08
3.78657e-07
-1.13382e-08
-9.91298e-09
3.47961e-07
-2.39604e-07
3.45502e-07
-2.37124e-07
3.43233e-07
-2.34355e-07
3.41152e-07
-2.31293e-07
3.39259e-07
-2.27938e-07
3.37548e-07
-2.24288e-07
3.36017e-07
-2.20346e-07
3.3466e-07
-2.16115e-07
3.33473e-07
-2.11601e-07
3.3245e-07
-2.06813e-07
3.31584e-07
-2.01763e-07
3.30869e-07
-1.96466e-07
3.30298e-07
-1.9094e-07
3.29863e-07
-1.85203e-07
3.29556e-07
-1.7928e-07
3.29372e-07
-1.73194e-07
3.29301e-07
-1.66973e-07
3.29336e-07
-1.60643e-07
3.29471e-07
-1.54234e-07
3.29696e-07
-1.47776e-07
3.30006e-07
-1.41298e-07
3.30394e-07
-1.34828e-07
3.30852e-07
-1.28396e-07
3.31375e-07
-1.22027e-07
3.31956e-07
-1.15748e-07
3.32591e-07
-1.09582e-07
3.33273e-07
-1.0355e-07
3.33999e-07
-9.76703e-08
3.34763e-07
-9.19597e-08
3.35562e-07
-8.64316e-08
3.36392e-07
-8.10973e-08
3.3725e-07
-7.59651e-08
3.38133e-07
-7.10413e-08
3.39038e-07
-6.63296e-08
3.39962e-07
-6.18318e-08
3.40905e-07
-5.75478e-08
3.41863e-07
-5.34759e-08
3.42836e-07
-4.96128e-08
3.43821e-07
-4.59542e-08
3.44818e-07
-4.24948e-08
3.45826e-07
-3.92282e-08
3.46843e-07
-3.61478e-08
3.47869e-07
-3.32465e-08
3.48904e-07
-3.05167e-08
3.49946e-07
-2.79509e-08
3.50995e-07
-2.55414e-08
3.52051e-07
-2.32805e-08
3.53113e-07
-2.11608e-08
3.54181e-07
-1.91748e-08
3.55255e-07
-1.73154e-08
3.56335e-07
-1.55757e-08
3.5742e-07
-1.39489e-08
3.5851e-07
-1.24287e-08
-1.10088e-08
3.29397e-07
-2.36975e-07
3.26953e-07
-2.34681e-07
3.24693e-07
-2.32095e-07
3.22616e-07
-2.29216e-07
3.20717e-07
-2.26039e-07
3.18994e-07
-2.22565e-07
3.17443e-07
-2.18795e-07
3.16059e-07
-2.14731e-07
3.14838e-07
-2.10379e-07
3.13773e-07
-2.05749e-07
3.12861e-07
-2.0085e-07
3.12093e-07
-1.95699e-07
3.11465e-07
-1.90312e-07
3.1097e-07