/*--------------------------------*- C++ -*----------------------------------*\
  =========                 |
  \\      /  F ield         | OpenFOAM: The Open Source CFD Toolbox
   \\    /   O peration     | Website:  https://openfoam.org
    \\  /    A nd           | Version:  6
     \\/     M anipulation  |
\*---------------------------------------------------------------------------*/
FoamFile
{
    version     2.0;
    format      ascii;
    class       volVectorField;
    location    "0.05";
    object      U;
}
// * * * * * * * * * * * * * * * * * * * * * * * * * * * * * * * * * * * * * //

dimensions      [0 1 -1 0 0 0 0];

internalField   nonuniform List<vector> 
3032
(
(0.037263 -0.0190862 0)
(0.054701 -0.0186877 -4.99226e-21)
(0.0720594 -0.0182352 -5.05783e-21)
(0.0892715 -0.0177366 -5.10838e-21)
(0.106276 -0.0171988 0)
(0.123017 -0.0166283 5.16995e-21)
(0.139444 -0.0160311 0)
(0.155511 -0.015413 -5.18746e-21)
(0.171176 -0.0147792 -5.18268e-21)
(0.186405 -0.014135 0)
(0.201166 -0.0134852 0)
(0.215435 -0.012834 0)
(0.229189 -0.0121857 -5.09726e-21)
(0.242414 -0.011544 0)
(0.255097 -0.0109123 0)
(0.267231 -0.0102934 0)
(0.278813 -0.00969002 0)
(0.289842 -0.00910438 0)
(0.300323 -0.00853833 0)
(0.310262 -0.00799337 0)
(0.319669 -0.00747066 0)
(0.328555 -0.00697107 4.71658e-21)
(0.336934 -0.00649516 0)
(0.344823 -0.0060432 0)
(0.352236 -0.00561525 -4.5763e-21)
(0.359194 -0.00521115 -4.53029e-21)
(0.365713 -0.00483054 0)
(0.371815 -0.00447291 4.44019e-21)
(0.377518 -0.00413763 -4.39629e-21)
(0.382843 -0.00382393 0)
(0.387808 -0.003531 4.31109e-21)
(0.392434 -0.00325794 0)
(0.396739 -0.0030038 0)
(0.400743 -0.00276763 -4.19035e-21)
(0.404463 -0.00254846 0)
(0.407916 -0.00234531 4.11474e-21)
(0.41112 -0.00215723 0)
(0.41409 -0.00198327 -4.043e-21)
(0.416841 -0.00182254 -4.00854e-21)
(0.419389 -0.00167415 -3.97501e-21)
(0.421746 -0.00153726 -7.88473e-21)
(0.423927 -0.00141107 7.82118e-21)
(0.425942 -0.00129483 0)
(0.427804 -0.00118781 0)
(0.429523 -0.00108933 0)
(0.43111 -0.000998773 7.58327e-21)
(0.432574 -0.00091553 7.52756e-21)
(0.433924 -0.000839056 -7.47325e-21)
(0.435168 -0.00076885 0)
(0.0444082 -0.0401433 4.55352e-21)
(0.0617497 -0.0396753 -2.22428e-21)
(0.0790468 -0.039063 2.59076e-21)
(0.0962385 -0.0383208 7.72123e-21)
(0.113267 -0.0374626 -5.19896e-21)
(0.130078 -0.0365022 -2.78937e-21)
(0.146622 -0.0354529 0)
(0.162853 -0.0343277 2.88977e-21)
(0.17873 -0.0331394 -2.71094e-21)
(0.194215 -0.0319003 0)
(0.209278 -0.0306221 0)
(0.223889 -0.029316 0)
(0.238026 -0.0279926 3.04645e-21)
(0.251669 -0.0266617 0)
(0.264802 -0.0253323 -5.99812e-21)
(0.277416 -0.0240129 0)
(0.289503 -0.0227108 -6.0529e-21)
(0.301059 -0.0214327 0)
(0.312083 -0.0201846 6.08321e-21)
(0.322579 -0.0189713 0)
(0.332551 -0.017797 -6.09309e-21)
(0.342008 -0.0166653 2.9965e-21)
(0.35096 -0.0155788 0)
(0.359419 -0.0145394 6.07751e-21)
(0.367399 -0.0135485 3.07226e-21)
(0.374916 -0.0126069 3.06218e-21)
(0.381985 -0.0117147 0)
(0.388624 -0.0108717 2.97692e-21)
(0.394851 -0.0100773 3.0266e-21)
(0.400684 -0.00933049 0)
(0.406141 -0.00862998 -2.9997e-21)
(0.411241 -0.00797425 5.92609e-21)
(0.416002 -0.00736162 0)
(0.420443 -0.00679027 2.9566e-21)
(0.42458 -0.00625829 0)
(0.428432 -0.00576371 -8.74832e-21)
(0.432015 -0.00530452 0)
(0.435346 -0.00487875 8.6636e-21)
(0.438439 -0.00448441 2.88207e-21)
(0.44131 -0.00411958 -2.84406e-21)
(0.443973 -0.00378238 -5.66232e-21)
(0.446442 -0.00347102 5.63644e-21)
(0.448728 -0.00318375 0)
(0.450846 -0.00291892 0)
(0.452804 -0.00267496 0)
(0.454616 -0.0024504 -1.6655e-20)
(0.456291 -0.00224383 -5.53305e-21)
(0.457838 -0.00205396 5.50556e-21)
(0.459267 -0.00187959 0)
(0.0500815 -0.0642409 -5.9e-21)
(0.0671176 -0.0636294 6.18007e-21)
(0.084126 -0.0627873 3.13685e-21)
(0.101048 -0.0617343 -3.43111e-21)
(0.117828 -0.0604906 1.61869e-22)
(0.134414 -0.0590767 -3.49711e-21)
(0.150759 -0.0575128 0)
(0.166818 -0.0558189 -3.70113e-21)
(0.182551 -0.0540148 1.39683e-22)
(0.197921 -0.0521196 0)
(0.212898 -0.0501516 0)
(0.227452 -0.0481284 4.02728e-21)
(0.24156 -0.0460668 0)
(0.255201 -0.0439826 0)
(0.26836 -0.0418904 -4.1024e-21)
(0.281024 -0.0398037 -8.51075e-21)
(0.293183 -0.037735 4.39197e-21)
(0.304832 -0.0356954 0)
(0.315968 -0.0336949 -4.45399e-21)
(0.326593 -0.031742 0)
(0.336709 -0.0298444 -4.3541e-21)
(0.346322 -0.0280082 -4.51632e-21)
(0.35544 -0.0262385 8.93288e-21)
(0.364074 -0.0245392 4.42183e-21)
(0.372234 -0.0229135 0)
(0.379936 -0.0213631 -9.00297e-21)
(0.387192 -0.0198893 0)
(0.39402 -0.0184922 -1.35782e-20)
(0.400435 -0.0171716 -9.02521e-21)
(0.406454 -0.0159263 -9.02399e-21)
(0.412095 -0.0147549 9.0191e-21)
(0.417376 -0.0136554 -1.35494e-20)
(0.422313 -0.0126255 0)
(0.426925 -0.0116626 0)
(0.431229 -0.0107639 8.96967e-21)
(0.435241 -0.00992644 1.34513e-20)
(0.438978 -0.00914729 0)
(0.442457 -0.00842334 -4.47539e-21)
(0.445691 -0.00775154 0)
(0.448697 -0.00712886 1.33103e-20)
(0.451489 -0.00655233 3.25127e-23)
(0.454079 -0.00601906 -2.99825e-23)
(0.456482 -0.00552628 -8.78271e-21)
(0.458708 -0.00507132 0)
(0.460771 -0.00465162 8.72649e-21)
(0.46268 -0.00426476 2.16108e-23)
(0.464446 -0.00390847 0)
(0.46608 -0.00358058 0)
(0.46759 -0.00327907 0)
(0.0567474 -0.0893861 2.28605e-21)
(0.0734942 -0.088566 -2.40343e-21)
(0.0902127 -0.0874307 -2.51543e-21)
(0.106847 -0.0860069 0)
(0.123345 -0.0843219 2.72304e-21)
(0.139658 -0.082403 2.81862e-21)
(0.15574 -0.0802776 -5.6377e-21)
(0.17155 -0.0779726 2.99352e-21)
(0.187049 -0.0755142 3.07299e-21)
(0.202204 -0.0729282 0)
(0.216983 -0.0702393 0)
(0.23136 -0.0674712 -3.28083e-21)
(0.245311 -0.0646463 0)
(0.258817 -0.0617861 0)
(0.27186 -0.0589104 6.89157e-21)
(0.284429 -0.0560377 6.98395e-21)
(0.296513 -0.0531849 0)
(0.308106 -0.0503675 0)
(0.319204 -0.0475991 0)
(0.329807 -0.0448919 0)
(0.339917 -0.0422566 7.32942e-21)
(0.349538 -0.0397019 -7.2867e-21)
(0.358677 -0.0372354 -7.41984e-21)
(0.367342 -0.0348629 -1.48318e-20)
(0.375544 -0.0325889 0)
(0.383295 -0.0304166 7.11556e-23)
(0.390608 -0.028348 0)
(0.397498 -0.0263839 7.55107e-21)
(0.40398 -0.0245242 5.84302e-23)
(0.41007 -0.0227679 7.57271e-21)
(0.415784 -0.0211133 -7.5782e-21)
(0.421139 -0.0195579 4.75586e-23)
(0.426152 -0.0180988 0)
(0.43084 -0.0167328 -7.53543e-21)
(0.435219 -0.0154562 -7.57112e-21)
(0.439306 -0.0142652 -1.5091e-20)
(0.443116 -0.0131556 0)
(0.446666 -0.0121235 7.51142e-21)
(0.449971 -0.0111646 0)
(0.453044 -0.0102749 -1.50034e-20)
(0.455901 -0.00945025 7.49943e-21)
(0.458555 -0.00868673 -7.4828e-21)
(0.461018 -0.00798049 7.46521e-21)
(0.463302 -0.00732784 1.48543e-20)
(0.46542 -0.00672525 -7.42763e-21)
(0.467382 -0.00616934 7.40782e-21)
(0.469198 -0.00565693 0)
(0.470879 -0.00518498 -1.47045e-20)
(0.472434 -0.00475064 0)
(0.0650976 -0.114142 3.65827e-21)
(0.0815722 -0.113108 3.87106e-21)
(0.0980036 -0.111679 4.07498e-21)
(0.11434 -0.109888 0)
(0.130533 -0.107769 -4.45586e-21)
(0.146537 -0.105358 0)
(0.162311 -0.102687 9.72251e-21)
(0.177816 -0.0997891 0)
(0.193017 -0.0966979 -5.11017e-21)
(0.207883 -0.0934447 0)
(0.222385 -0.0900598 5.3853e-21)
(0.236499 -0.0865728 0)
(0.250202 -0.0830113 0)
(0.263476 -0.0794017 0)
(0.276305 -0.0757689 0)
(0.288677 -0.0721357 0)
(0.300583 -0.0685235 0)
(0.312016 -0.0649514 0)
(0.322971 -0.061437 6.17506e-21)
(0.333449 -0.0579956 0)
(0.34345 -0.0546409 0)
(0.352977 -0.0513844 6.42572e-21)
(0.362036 -0.0482357 0)
(0.370636 -0.0452028 6.51372e-21)
(0.378784 -0.0422918 6.49411e-21)
(0.386493 -0.039507 6.58188e-21)
(0.393774 -0.0368516 0)
(0.400641 -0.0343269 0)
(0.407109 -0.0319332 6.65167e-21)
(0.413191 -0.0296697 -1.32515e-20)
(0.418903 -0.0275346 0)
(0.424262 -0.0255252 1.99932e-20)
(0.429284 -0.023638 0)
(0.433983 -0.0218692 6.69886e-21)
(0.438378 -0.0202144 0)
(0.442482 -0.0186689 6.69918e-21)
(0.446313 -0.0172277 1.33398e-20)
(0.449884 -0.0158858 -6.69142e-21)
(0.453212 -0.0146379 0)
(0.456309 -0.013479 6.67704e-21)
(0.45919 -0.012404 -1.32956e-20)
(0.461868 -0.0114078 0)
(0.464355 -0.0104856 0)
(0.466663 -0.00963275 -1.32663e-20)
(0.468805 -0.00884472 0)
(0.47079 -0.00811722 1.31832e-20)
(0.47263 -0.00744616 0)
(0.474333 -0.00682767 1.31502e-20)
(0.475909 -0.00625806 0)
(0.0755656 -0.138473 -3.3345e-21)
(0.091762 -0.137195 -3.52825e-21)
(0.107888 -0.135449 -3.71392e-21)
(0.123898 -0.133275 -3.7942e-21)
(0.139746 -0.130714 4.06077e-21)
(0.155394 -0.127807 0)
(0.170803 -0.124592 -4.37504e-21)
(0.185941 -0.12111 0)
(0.200774 -0.117398 8.43818e-23)
(0.215277 -0.113494 0)
(0.229422 -0.109432 -9.73856e-21)
(0.243189 -0.105248 0)
(0.256558 -0.100974 5.05689e-21)
(0.269511 -0.0966409 0)
(0.282035 -0.0922773 0)
(0.294119 -0.0879105 1.06926e-20)
(0.305754 -0.0835656 0)
(0.316934 -0.0792654 0)
(0.327655 -0.0750306 -5.63775e-21)
(0.337916 -0.0708799 0)
(0.347718 -0.0668294 0)
(0.357064 -0.0628932 1.15204e-20)
(0.365958 -0.0590832 0)
(0.374409 -0.0554092 -1.17109e-20)
(0.382423 -0.0518788 -5.94034e-21)
(0.390012 -0.0484978 0)
(0.397186 -0.0452701 1.19283e-20)
(0.403958 -0.042198 0)
(0.410342 -0.0392822 -1.2033e-20)
(0.41635 -0.0365221 2.42166e-20)
(0.421999 -0.0339158 0)
(0.427302 -0.0314604 -1.21985e-20)
(0.432275 -0.0291523 0)
(0.436934 -0.0269869 0)
(0.441293 -0.0249591 -1.21921e-20)
(0.445369 -0.0230637 0)
(0.449174 -0.0212947 -1.2249e-20)
(0.452725 -0.0196462 1.22051e-20)
(0.456036 -0.0181121 0)
(0.45912 -0.0166862 0)
(0.461991 -0.0153626 1.22208e-20)
(0.464661 -0.0141352 -1.21748e-20)
(0.467142 -0.0129982 -1.21606e-20)
(0.469447 -0.011946 -1.21443e-20)
(0.471587 -0.0109732 0)
(0.473571 -0.0100745 -1.21303e-20)
(0.475411 -0.00924498 -1.20842e-20)
(0.477115 -0.00848001 0)
(0.478694 -0.00777507 0)
(0.088527 -0.162419 0)
(0.104408 -0.160848 3.12853e-21)
(0.120183 -0.158746 -3.30691e-21)
(0.13581 -0.156158 3.55321e-21)
(0.151252 -0.153131 -7.27911e-21)
(0.166474 -0.149712 0)
(0.181445 -0.145946 7.88147e-21)
(0.196135 -0.141877 -8.15979e-21)
(0.210518 -0.137548 -4.14621e-21)
(0.224571 -0.133001 0)
(0.238272 -0.128277 4.51552e-21)
(0.251603 -0.123413 0)
(0.264546 -0.118447 -4.72682e-21)
(0.277087 -0.113412 0)
(0.289215 -0.108342 0)
(0.30092 -0.103267 -9.99286e-21)
(0.312193 -0.0982162 0)
(0.323031 -0.0932145 1.01961e-20)
(0.33343 -0.088286 0)
(0.343388 -0.083452 0)
(0.352907 -0.0787311 0)
(0.361989 -0.0741398 -2.14552e-20)
(0.370639 -0.0696918 -1.07842e-20)
(0.378863 -0.0653988 1.09498e-20)
(0.386669 -0.0612698 1.09542e-20)
(0.394066 -0.057312 0)
(0.401064 -0.0535301 -1.11579e-20)
(0.407676 -0.0499272 0)
(0.413913 -0.0465046 1.12593e-20)
(0.419788 -0.0432618 -5.70827e-23)
(0.425315 -0.040197 0)
(0.430509 -0.0373073 0)
(0.435383 -0.0345885 1.13383e-20)
(0.439952 -0.0320359 0)
(0.444231 -0.0296438 1.14192e-20)
(0.448234 -0.0274059 0)
(0.451975 -0.0253159 -1.13957e-20)
(0.455467 -0.0233669 -1.14364e-20)
(0.458726 -0.0215518 0)
(0.461764 -0.0198638 0)
(0.464593 -0.0182958 0)
(0.467226 -0.0168408 1.1414e-20)
(0.469675 -0.0154923 1.14021e-20)
(0.471951 -0.0142435 1.13881e-20)
(0.474065 -0.0130883 0)
(0.476026 -0.0120206 0)
(0.477846 -0.0110345 1.13355e-20)
(0.479533 -0.0101246 1.12955e-20)
(0.481095 -0.00928566 0)
(0.482542 -0.00851273 0)
(0.104327 -0.185919 0)
(0.119819 -0.183995 -8.82436e-21)
(0.135161 -0.181485 9.33594e-21)
(0.15032 -0.178442 0)
(0.165264 -0.174918 1.18923e-22)
(0.179967 -0.170966 0)
(0.194403 -0.166635 -7.50552e-21)
(0.208548 -0.161974 7.76762e-21)
(0.222383 -0.15703 8.01566e-21)
(0.235887 -0.151849 0)
(0.249044 -0.146475 0)
(0.261839 -0.140948 0)
(0.274258 -0.13531 -8.78161e-21)
(0.286291 -0.129599 0)
(0.297927 -0.123849 9.14327e-21)
(0.309159 -0.118094 0)
(0.319981 -0.112365 0)
(0.330387 -0.106692 -9.68311e-21)
(0.340377 -0.101099 0)
(0.349948 -0.0956113 0)
(0.359102 -0.090249 0)
(0.367841 -0.0850306 2.02219e-20)
(0.376171 -0.0799718 1.02389e-20)
(0.384095 -0.0750857 0)
(0.391622 -0.0703829 -6.18884e-23)
(0.39876 -0.0658715 0)
(0.405519 -0.0615575 1.04749e-20)
(0.411908 -0.0574444 -1.05323e-20)
(0.41794 -0.053534 1.05831e-20)
(0.423626 -0.0498262 -1.06773e-20)
(0.428979 -0.0463194 0)
(0.434013 -0.0430104 1.06994e-20)
(0.438741 -0.039895 -4.28357e-23)
(0.443176 -0.0369679 0)
(0.447331 -0.034223 0)
(0.451222 -0.0316534 1.07826e-20)
(0.45486 -0.029252 1.08276e-20)
(0.45826 -0.0270112 1.07995e-20)
(0.461433 -0.0249232 1.08027e-20)
(0.464394 -0.0229802 -1.0803e-20)
(0.467152 -0.0211742 0)
(0.469722 -0.0194976 0)
(0.472113 -0.0179428 0)
(0.474336 -0.0165022 0)
(0.476402 -0.0151689 -2.15328e-20)
(0.478321 -0.0139358 0)
(0.480102 -0.0127966 0)
(0.481753 -0.0117448 -3.21822e-20)
(0.483284 -0.0107745 0)
(0.484702 -0.00988016 2.13686e-20)
(0.123274 -0.208848 -5.18199e-21)
(0.138263 -0.2065 1.11764e-20)
(0.153055 -0.203526 -5.97214e-21)
(0.167627 -0.199984 -6.18182e-21)
(0.181954 -0.195931 1.3063e-20)
(0.196018 -0.191423 0)
(0.209799 -0.186514 0)
(0.223282 -0.181257 0)
(0.236451 -0.175701 0)
(0.249293 -0.169896 -7.76115e-21)
(0.261795 -0.163887 0)
(0.273947 -0.157719 0)
(0.285738 -0.151435 8.44685e-21)
(0.29716 -0.145073 0)
(0.308206 -0.138674 -1.75056e-20)
(0.318869 -0.132271 0)
(0.329145 -0.125898 9.02029e-21)
(0.339032 -0.119587 0)
(0.348526 -0.113364 0)
(0.357627 -0.107256 0)
(0.366337 -0.101286 0)
(0.374658 -0.0954732 -9.67493e-21)
(0.382593 -0.0898351 0)
(0.390148 -0.0843863 -9.79354e-21)
(0.39733 -0.0791385 -5.38305e-23)
(0.404144 -0.0741011 0)
(0.410602 -0.0692808 -1.00552e-20)
(0.416711 -0.064682 1.01102e-20)
(0.422482 -0.0603069 -1.0159e-20)
(0.427927 -0.0561556 0)
(0.433057 -0.0522268 0)
(0.437884 -0.0485172 -2.05011e-20)
(0.442421 -0.0450224 -1.02976e-20)
(0.44668 -0.0417367 0)
(0.450673 -0.0386536 0)
(0.454414 -0.0357658 -3.09875e-20)
(0.457915 -0.0330654 0)
(0.461189 -0.0305443 -3.10438e-20)
(0.464246 -0.0281937 -1.03715e-20)
(0.4671 -0.0260052 1.03719e-20)
(0.469762 -0.0239701 2.06877e-20)
(0.472242 -0.0220797 0)
(0.474552 -0.0203257 0)
(0.476701 -0.0186999 0)
(0.478699 -0.0171944 4.12865e-23)
(0.480555 -0.0158014 -2.06115e-20)
(0.482279 -0.0145138 0)
(0.483879 -0.0133245 3.45987e-23)
(0.485362 -0.0122269 0)
(0.486736 -0.0112147 -2.052e-20)
(0.488009 -0.0102819 -2.04527e-20)
(0.145623 -0.231016 1.00515e-22)
(0.159954 -0.228174 -9.48696e-23)
(0.174044 -0.224679 5.62928e-21)
(0.187876 -0.220594 6.0243e-21)
(0.201437 -0.215981 -1.2544e-20)
(0.214716 -0.2109 0)
(0.227702 -0.205405 0)
(0.240386 -0.199553 0)
(0.252759 -0.193396 -7.24894e-21)
(0.264812 -0.186983 7.11685e-23)
(0.276538 -0.180362 0)
(0.28793 -0.17358 0)
(0.298982 -0.166679 0)
(0.309687 -0.159703 0)
(0.32004 -0.15269 6.32168e-23)
(0.330038 -0.145677 0)
(0.339677 -0.1387 -1.74253e-20)
(0.348954 -0.13179 0)
(0.357868 -0.124977 0)
(0.366419 -0.118288 0)
(0.374608 -0.111748 0)
(0.382437 -0.105378 0)
(0.389908 -0.099197 9.34865e-21)
(0.397027 -0.0932203 1.8913e-20)
(0.403799 -0.0874609 -9.55565e-21)
(0.410231 -0.0819293 0)
(0.41633 -0.0766329 -1.92788e-20)
(0.422104 -0.0715767 1.93912e-20)
(0.427564 -0.0667636 0)
(0.432719 -0.062194 -1.95805e-20)
(0.437579 -0.0578665 1.96585e-20)
(0.442156 -0.0537782 2.96264e-20)
(0.44646 -0.0499243 0)
(0.450504 -0.046299 0)
(0.454299 -0.0428953 0)
(0.457856 -0.0397055 1.99688e-20)
(0.461187 -0.0367212 1.9932e-20)
(0.464304 -0.0339334 3.99573e-20)
(0.467217 -0.0313331 0)
(0.469938 -0.0289107 -1.99686e-20)
(0.472478 -0.0266571 -4.87785e-23)
(0.474845 -0.0245628 -1.99653e-20)
(0.477051 -0.0226187 -1.99566e-20)
(0.479105 -0.0208159 0)
(0.481016 -0.0191456 3.98934e-20)
(0.482792 -0.0175996 3.98508e-20)
(0.484442 -0.0161699 0)
(0.485974 -0.0148487 1.98902e-20)
(0.487396 -0.0136289 0)
(0.488713 -0.0125034 0)
(0.489934 -0.0114659 1.97903e-20)
(0.171547 -0.252171 4.87635e-21)
(0.185025 -0.248767 -7.9753e-23)
(0.198222 -0.244701 -5.52707e-21)
(0.211133 -0.24004 5.75411e-21)
(0.223754 -0.234847 6.96887e-23)
(0.236082 -0.229183 0)
(0.248115 -0.223106 0)
(0.25985 -0.216671 6.80448e-21)
(0.271283 -0.209931 7.09306e-21)
(0.282413 -0.202936 7.3049e-21)
(0.293235 -0.195736 7.44463e-21)
(0.303747 -0.188375 0)
(0.313945 -0.180899 0)
(0.323825 -0.17335 0)
(0.333384 -0.165768 8.18955e-21)
(0.34262 -0.158191 0)
(0.351529 -0.150654 5.30167e-23)
(0.360111 -0.143192 8.54653e-21)
(0.368363 -0.135834 -8.66614e-21)
(0.376286 -0.12861 0)
(0.38388 -0.121544 1.77615e-20)
(0.391146 -0.11466 -1.79528e-20)
(0.398088 -0.107977 -2.72399e-20)
(0.404708 -0.101512 -2.7482e-20)
(0.411012 -0.0952788 0)
(0.417004 -0.0892888 0)
(0.422692 -0.0835504 1.878e-20)
(0.428081 -0.0780692 -1.88881e-20)
(0.433182 -0.0728484 0)
(0.438001 -0.067889 1.90702e-20)
(0.442549 -0.0631898 -1.91453e-20)
(0.446836 -0.0587477 -1.92105e-20)
(0.45087 -0.0545581 0)
(0.454663 -0.0506148 0)
(0.458226 -0.0469108 -1.92914e-20)
(0.461567 -0.0434377 0)
(0.464699 -0.0401867 -1.94077e-20)
(0.467631 -0.0371485 -1.94252e-20)
(0.470374 -0.0343131 -1.93852e-20)
(0.472937 -0.0316707 1.9442e-20)
(0.475331 -0.0292111 -1.94424e-20)
(0.477564 -0.0269245 1.9438e-20)
(0.479646 -0.0248009 3.88159e-20)
(0.481586 -0.0228308 0)
(0.483392 -0.0210048 -1.93996e-20)
(0.485071 -0.0193139 -1.93795e-20)
(0.486632 -0.0177495 0)
(0.488083 -0.0163033 0)
(0.489429 -0.0149674 0)
(0.490677 -0.0137345 1.92415e-20)
(0.491834 -0.0125973 0)
(0.201099 -0.271997 0)
(0.213497 -0.267978 -6.53097e-23)
(0.225585 -0.263307 0)
(0.237369 -0.25805 -1.129e-20)
(0.248857 -0.252272 5.95325e-21)
(0.260053 -0.246034 0)
(0.270963 -0.239391 0)
(0.28159 -0.2324 -6.69567e-21)
(0.291936 -0.225111 6.86141e-21)
(0.302003 -0.217575 0)
(0.311792 -0.209838 -7.31566e-21)
(0.321303 -0.201948 -7.44694e-21)
(0.330533 -0.193947 0)
(0.339482 -0.185877 0)
(0.348148 -0.17778 0)
(0.356528 -0.169692 0)
(0.364621 -0.16165 8.25597e-21)
(0.372425 -0.153689 -8.37967e-21)
(0.379938 -0.145839 8.49502e-21)
(0.38716 -0.138131 -1.71146e-20)
(0.394091 -0.130589 -3.47197e-20)
(0.400731 -0.123238 1.75884e-20)
(0.407082 -0.1161 1.77586e-20)
(0.413146 -0.10919 1.79151e-20)
(0.418926 -0.102526 0)
(0.424428 -0.0961176 0)
(0.429655 -0.0899753 0)
(0.434614 -0.0841049 0)
(0.439312 -0.0785104 -1.84385e-20)
(0.443756 -0.073193 0)
(0.447953 -0.0681518 0)
(0.451913 -0.0633839 0)
(0.455643 -0.0588846 1.87292e-20)
(0.459153 -0.0546477 0)
(0.462453 -0.0506659 5.81924e-23)
(0.46555 -0.0469306 0)
(0.468456 -0.0434325 1.88832e-20)
(0.471178 -0.0401618 0)
(0.473726 -0.0371081 1.89685e-20)
(0.476109 -0.034261 0)
(0.478336 -0.0316098 0)
(0.480416 -0.029144 0)
(0.482356 -0.0268531 -1.89677e-20)
(0.484164 -0.0247268 0)
(0.485848 -0.0227553 0)
(0.487416 -0.0209289 -1.8888e-20)
(0.488874 -0.0192384 -1.88685e-20)
(0.490229 -0.0176751 -1.8846e-20)
(0.491487 -0.0162305 0)
(0.492655 -0.0148966 -2.86749e-23)
(0.493738 -0.0136659 0)
(0.234187 -0.290125 0)
(0.245251 -0.285464 -5.07732e-23)
(0.255995 -0.280176 5.21922e-21)
(0.266436 -0.274329 5.55935e-21)
(0.276589 -0.267984 0)
(0.286467 -0.261199 6.04357e-21)
(0.296082 -0.254029 0)
(0.305442 -0.246526 0)
(0.314555 -0.238739 -6.77519e-21)
(0.323425 -0.230716 1.38616e-20)
(0.332056 -0.222502 0)
(0.34045 -0.214142 7.34445e-21)
(0.348606 -0.205678 0)
(0.356525 -0.197152 0)
(0.364205 -0.188602 0)
(0.371643 -0.180067 0)
(0.378839 -0.171582 0)
(0.38579 -0.163183 0)
(0.392494 -0.1549 -1.65479e-20)
(0.398949 -0.146764 1.68422e-20)
(0.405155 -0.138802 1.7037e-20)
(0.41111 -0.131039 1.7137e-20)
(0.416815 -0.123496 -1.73054e-20)
(0.422271 -0.116191 0)
(0.42748 -0.109141 0)
(0.432445 -0.102359 0)
(0.43717 -0.0958546 0)
(0.441658 -0.0896345 1.79597e-20)
(0.445915 -0.0837033 1.81245e-20)
(0.449947 -0.0780627 -1.81429e-20)
(0.453759 -0.0727122 1.82196e-20)
(0.45736 -0.067649 0)
(0.460756 -0.0628686 -3.67514e-20)
(0.463954 -0.0583648 0)
(0.466964 -0.05413 1.84945e-20)
(0.469792 -0.0501555 1.84735e-20)
(0.472447 -0.0464317 -3.70556e-20)
(0.474937 -0.0429485 0)
(0.47727 -0.039695 0)
(0.479453 -0.0366603 -1.85499e-20)
(0.481495 -0.0338332 1.85551e-20)
(0.483403 -0.0312028 -1.85557e-20)
(0.485184 -0.0287579 1.85519e-20)
(0.486845 -0.0264879 0)
(0.488394 -0.0243822 0)
(0.489836 -0.0224308 3.49918e-23)
(0.491178 -0.020624 1.85327e-20)
(0.492426 -0.0189524 3.16398e-23)
(0.493586 -0.0174071 0)
(0.494663 -0.0159797 -2.84815e-23)
(0.495661 -0.0146622 -1.84006e-20)
(0.270538 -0.306154 0)
(0.280007 -0.300855 -4.88065e-21)
(0.289169 -0.294973 -5.18588e-21)
(0.298049 -0.28857 0)
(0.306671 -0.281702 0)
(0.315052 -0.274425 -5.99429e-21)
(0.32321 -0.266788 0)
(0.331156 -0.258839 0)
(0.338901 -0.250624 0)
(0.346451 -0.242186 -1.37238e-20)
(0.353812 -0.233569 0)
(0.360985 -0.224814 0)
(0.367972 -0.215962 -1.4687e-20)
(0.374773 -0.207052 0)
(0.381386 -0.198123 -1.52815e-20)
(0.387808 -0.189212 0)
(0.394037 -0.180355 0)
(0.40007 -0.171585 0)
(0.405904 -0.162935 1.63414e-20)
(0.411535 -0.154436 1.64681e-20)
(0.416962 -0.146114 -1.666e-20)
(0.422183 -0.137996 -7.62397e-23)
(0.427195 -0.130104 1.70781e-20)
(0.432 -0.122457 0)
(0.436596 -0.115073 0)
(0.440985 -0.107964 0)
(0.445169 -0.101142 0)
(0.449152 -0.0946147 -1.77144e-20)
(0.452935 -0.0883866 -1.77427e-20)
(0.456523 -0.0824603 1.78925e-20)
(0.459922 -0.0768356 -1.7967e-20)
(0.463136 -0.07151 -1.79721e-20)
(0.466172 -0.0664792 1.80892e-20)
(0.469034 -0.0617371 0)
(0.471731 -0.0572761 0)
(0.474268 -0.0530873 -5.28668e-23)
(0.476652 -0.049161 5.09752e-23)
(0.47889 -0.0454866 -1.82115e-20)
(0.480989 -0.0420532 1.82283e-20)
(0.482955 -0.0388493 4.53426e-23)
(0.484796 -0.0358635 -1.82895e-20)
(0.486517 -0.0330842 3.65369e-20)
(0.488125 -0.0305 -1.82849e-20)
(0.489627 -0.0280997 0)
(0.491027 -0.0258723 -1.8228e-20)
(0.492332 -0.0238074 1.8249e-20)
(0.493547 -0.0218946 0)
(0.494678 -0.0201244 1.82093e-20)
(0.495729 -0.0184873 0)
(0.496705 -0.0169746 1.81024e-20)
(0.497611 -0.0155778 -1.8077e-20)
(0.498451 -0.014289 0)
(0.30968 -0.319688 9.00211e-21)
(0.317305 -0.313799 0)
(0.324664 -0.307381 1.0241e-20)
(0.331787 -0.30049 0)
(0.338702 -0.293176 0)
(0.34543 -0.285488 1.18221e-20)
(0.351991 -0.277468 0)
(0.358397 -0.269159 1.27215e-20)
(0.36466 -0.260603 -1.31311e-20)
(0.370788 -0.251839 0)
(0.376786 -0.242906 -1.38782e-20)
(0.382655 -0.233843 -1.42186e-20)
(0.388396 -0.224688 1.46134e-20)
(0.394008 -0.215479 0)
(0.399488 -0.206252 3.03189e-20)
(0.404834 -0.197044 0)
(0.41004 -0.18789 0)
(0.415103 -0.178824 -1.58669e-20)
(0.420018 -0.169878 0)
(0.42478 -0.161083 -7.50746e-23)
(0.429386 -0.152467 1.65506e-20)
(0.433831 -0.144056 -7.3414e-23)
(0.438113 -0.135874 0)
(0.442229 -0.127941 0)
(0.446179 -0.120275 0)
(0.44996 -0.112891 0)
(0.453574 -0.105799 -1.73475e-20)
(0.457022 -0.0990093 0)
(0.460305 -0.0925267 1.7613e-20)
(0.463425 -0.0863542 0)
(0.466385 -0.0804924 0)
(0.46919 -0.0749392 1.78379e-20)
(0.471844 -0.0696906 1.78378e-20)
(0.47435 -0.0647405 0)
(0.476715 -0.0600815 0)
(0.478942 -0.0557047 -1.80215e-20)
(0.481039 -0.0516004 3.60486e-20)
(0.483009 -0.0477577 4.86813e-23)
(0.484859 -0.0441654 -1.80875e-20)
(0.486594 -0.040812 1.80982e-20)
(0.48822 -0.0376856 -1.80606e-20)
(0.489742 -0.0347742 -1.8105e-20)
(0.491165 -0.0320662 -1.80619e-20)
(0.492495 -0.0295499 0)
(0.493736 -0.0272141 5.41784e-20)
(0.494894 -0.0250478 3.60696e-20)
(0.495973 -0.0230404 0)
(0.496978 -0.0211819 0)
(0.497912 -0.0194626 0)
(0.49878 -0.0178732 -7.18809e-20)
(0.499586 -0.0164052 3.59146e-20)
(0.500334 -0.0150502 -3.58046e-20)
(0.352111 -0.330619 -1.72924e-20)
(0.357621 -0.324222 0)
(0.362934 -0.317358 -9.82693e-21)
(0.368085 -0.310075 0)
(0.3731 -0.302414 0)
(0.378002 -0.294413 -1.13356e-20)
(0.382809 -0.286111 0)
(0.387535 -0.277544 -1.21944e-20)
(0.392189 -0.268745 2.51151e-20)
(0.396778 -0.259752 0)
(0.401305 -0.250598 2.65358e-20)
(0.405771 -0.241318 1.36251e-20)
(0.410175 -0.231949 0)
(0.414513 -0.222526 0)
(0.418782 -0.213084 -1.44894e-20)
(0.422977 -0.203659 0)
(0.427091 -0.194284 0)
(0.431118 -0.184994 1.5205e-20)
(0.435052 -0.175821 -1.53411e-20)
(0.438887 -0.166796 -1.56096e-20)
(0.442616 -0.157948 -1.57195e-20)
(0.446234 -0.149304 -3.18518e-20)
(0.449737 -0.140889 -1.60485e-20)
(0.453119 -0.132722 0)
(0.456378 -0.124825 0)
(0.459511 -0.117211 0)
(0.462515 -0.109893 1.66391e-20)
(0.465391 -0.102882 -1.66777e-20)
(0.468139 -0.0961832 0)
(0.470757 -0.0898007 0)
(0.473249 -0.0837354 0)
(0.475616 -0.0779859 0)
(0.47786 -0.0725486 -5.77928e-23)
(0.479984 -0.0674177 0)
(0.481992 -0.0625859 0)
(0.483888 -0.0580446 0)
(0.485675 -0.0537839 -3.45446e-20)
(0.487358 -0.0497931 4.91534e-23)
(0.48894 -0.0460607 0)
(0.490426 -0.042575 3.46321e-20)
(0.49182 -0.0393239 1.7373e-20)
(0.493127 -0.0362953 0)
(0.494351 -0.0334771 5.20673e-20)
(0.495496 -0.0308574 0)
(0.496566 -0.0284248 -3.47546e-20)
(0.497565 -0.0261678 -3.47393e-20)
(0.498496 -0.0240756 3.46504e-20)
(0.499364 -0.0221379 0)
(0.500172 -0.0203447 0)
(0.500923 -0.0186864 3.46232e-20)
(0.50162 -0.0171542 0)
(0.502268 -0.0157394 3.45383e-20)
(0.395074 -0.337946 9.13462e-21)
(0.398359 -0.331204 9.78319e-21)
(0.401543 -0.324055 0)
(0.404655 -0.316536 0)
(0.407721 -0.308679 0)
(0.410761 -0.300513 0)
(0.413788 -0.292071 0)
(0.416815 -0.283379 0)
(0.419847 -0.27447 -2.62343e-20)
(0.422888 -0.265373 -1.34619e-20)
(0.425939 -0.256118 -2.76653e-20)
(0.428999 -0.246739 0)
(0.432063 -0.237268 0)
(0.435127 -0.227738 0)
(0.438184 -0.218184 0)
(0.441227 -0.208639 -1.52442e-20)
(0.444248 -0.199138 0)
(0.447239 -0.189715 -1.57035e-20)
(0.45019 -0.180402 1.59788e-20)
(0.453095 -0.17123 0)
(0.455945 -0.16223 6.74608e-23)
(0.458733 -0.153428 3.29758e-20)
(0.461452 -0.144851 3.32872e-20)
(0.464096 -0.13652 0)
(0.46666 -0.128455 1.68872e-20)
(0.469139 -0.120674 0)
(0.471529 -0.113189 0)
(0.473829 -0.106012 1.72835e-20)
(0.476035 -0.099149 -1.73128e-20)
(0.478147 -0.0926055 0)
(0.480165 -0.0863829 0)
(0.482088 -0.0804804 0)
(0.483917 -0.0748949 -5.50944e-23)
(0.485655 -0.0696212 0)
(0.487302 -0.0646522 0)
(0.48886 -0.0599796 -1.7712e-20)
(0.490333 -0.0555934 1.77883e-20)
(0.491723 -0.0514832 5.33302e-20)
(0.493033 -0.0476375 0)
(0.494266 -0.0440443 -7.12364e-20)
(0.495425 -0.0406917 3.55853e-20)
(0.496513 -0.0375672 0)
(0.497534 -0.0346587 -3.56579e-20)
(0.49849 -0.031954 0)
(0.499384 -0.0294415 0)
(0.50022 -0.0271096 0)
(0.501001 -0.0249471 -6.51458e-23)
(0.501729 -0.0229436 0)
(0.502407 -0.0210888 0)
(0.503038 -0.019373 -3.53424e-20)
(0.503624 -0.017787 0)
(0.504169 -0.0163221 0)
(0.434348 -0.341615 9.61688e-21)
(0.435579 -0.334724 4.55706e-23)
(0.436807 -0.327471 1.07873e-20)
(0.438057 -0.319884 -1.13158e-20)
(0.439349 -0.311986 1.18109e-20)
(0.440699 -0.303802 0)
(0.442115 -0.295355 0)
(0.443605 -0.28667 0)
(0.445172 -0.277771 1.35382e-20)
(0.446816 -0.268685 3.91236e-23)
(0.448535 -0.25944 1.42511e-20)
(0.450325 -0.250066 0)
(0.452179 -0.240593 0)
(0.45409 -0.231054 1.51085e-20)
(0.45605 -0.221481 1.5373e-20)
(0.458048 -0.211908 5.92852e-23)
(0.460077 -0.202369 0)
(0.462124 -0.192897 3.22015e-20)
(0.464182 -0.183525 1.62724e-20)
(0.466238 -0.174286 0)
(0.468285 -0.16521 1.66991e-20)
(0.470313 -0.156325 -3.36602e-20)
(0.472314 -0.147657 -1.70112e-20)
(0.47428 -0.13923 -1.7087e-20)
(0.476205 -0.131065 -1.7275e-20)
(0.478081 -0.12318 0)
(0.479905 -0.115589 1.74344e-20)
(0.481672 -0.108303 0)
(0.483379 -0.101332 1.76714e-20)
(0.485022 -0.0946795 0)
(0.4866 -0.0883494 -1.77555e-20)
(0.488111 -0.0823411 -1.7813e-20)
(0.489556 -0.076652 -5.22013e-23)
(0.490933 -0.0712774 0)
(0.492244 -0.0662107 -1.79373e-20)
(0.493488 -0.0614436 1.80119e-20)
(0.494668 -0.0569668 0)
(0.495785 -0.0527697 -8.94752e-23)
(0.496841 -0.0488409 3.60127e-20)
(0.497837 -0.0451687 3.61014e-20)
(0.498775 -0.0417409 -3.60937e-20)
(0.499658 -0.0385452 0)
(0.500488 -0.0355692 -3.59772e-20)
(0.501266 -0.0328008 0)
(0.501996 -0.0302282 0)
(0.50268 -0.0278396 -3.58644e-20)
(0.503318 -0.0256238 -3.58759e-20)
(0.503915 -0.0235702 0)
(0.504471 -0.0216684 3.56958e-20)
(0.504988 -0.0199085 7.13128e-20)
(0.50547 -0.0182811 0)
(0.505917 -0.0167776 0)
(0.506331 -0.0153893 0)
(0.469575 -0.342474 -1.99729e-20)
(0.468979 -0.335592 -1.05628e-20)
(0.468474 -0.328379 -1.11369e-20)
(0.468078 -0.320855 2.33723e-20)
(0.467805 -0.313039 -1.21732e-20)
(0.467664 -0.304946 0)
(0.467659 -0.296598 0)
(0.467794 -0.288013 -1.34739e-20)
(0.468068 -0.279214 0)
(0.468478 -0.270224 2.84443e-20)
(0.469018 -0.261069 1.45396e-20)
(0.469682 -0.251776 0)
(0.470462 -0.242375 0)
(0.471348 -0.232896 -3.0892e-20)
(0.472329 -0.223373 -1.57312e-20)
(0.473395 -0.213837 1.59747e-20)
(0.474535 -0.204324 0)
(0.475737 -0.194866 -1.64138e-20)
(0.47699 -0.185497 -1.66107e-20)
(0.478283 -0.17625 0)
(0.479605 -0.167155 0)
(0.480945 -0.158242 1.71184e-20)
(0.482295 -0.149539 -1.72034e-20)
(0.483646 -0.141069 1.7393e-20)
(0.484989 -0.132854 0)
(0.486317 -0.124914 0)
(0.487624 -0.117263 -5.60039e-23)
(0.488904 -0.109915 0)
(0.490152 -0.102878 1.78289e-20)
(0.491365 -0.096159 -1.78975e-20)
(0.492539 -0.0897608 1.80088e-20)
(0.493672 -0.083684 5.06362e-23)
(0.494762 -0.0779267 -3.61495e-20)
(0.495808 -0.0724847 0)
(0.496808 -0.0673518 1.81582e-20)
(0.497763 -0.0625202 0)
(0.498672 -0.0579806 0)
(0.499536 -0.0537227 -3.63883e-20)
(0.500356 -0.0497355 -3.63878e-20)
(0.501132 -0.0460072 0)
(0.501866 -0.0425257 -3.62791e-20)
(0.502558 -0.0392787 3.62515e-20)
(0.503211 -0.036254 3.62856e-20)
(0.503824 -0.0334393 0)
(0.504401 -0.0308226 0)
(0.504942 -0.0283924 7.21851e-20)
(0.505448 -0.0261373 0)
(0.505921 -0.0240465 0)
(0.506363 -0.0221096 -3.59069e-20)
(0.506775 -0.0203167 -3.58249e-20)
(0.507158 -0.0186583 0)
(0.507514 -0.0171255 -3.56025e-20)
(0.507844 -0.0157099 -3.55117e-20)
(0.50815 -0.0144034 -4.18548e-23)
(0.500737 -0.34126 -8.95505e-23)
(0.498568 -0.334506 0)
(0.496571 -0.32744 0)
(0.494757 -0.320075 -2.40079e-20)
(0.493135 -0.312424 -1.24975e-20)
(0.491707 -0.304502 -1.29435e-20)
(0.490474 -0.296323 0)
(0.489436 -0.287905 1.37649e-20)
(0.488588 -0.279267 0)
(0.487924 -0.27043 -1.44939e-20)
(0.487437 -0.261419 -1.48243e-20)
(0.487117 -0.25226 0)
(0.486955 -0.24298 0)
(0.48694 -0.233611 1.56943e-20)
(0.487059 -0.224184 0)
(0.487301 -0.214733 0)
(0.487654 -0.20529 0)
(0.488105 -0.195891 0)
(0.488641 -0.186569 1.67448e-20)
(0.489252 -0.177356 -1.69197e-20)
(0.489924 -0.168286 1.70814e-20)
(0.490648 -0.159387 0)
(0.491413 -0.150688 5.4299e-23)
(0.492208 -0.142214 0)
(0.493026 -0.133989 1.76051e-20)
(0.493857 -0.126031 -1.77075e-20)
(0.494695 -0.118357 -1.78517e-20)
(0.495533 -0.110981 0)
(0.496364 -0.103912 -1.80033e-20)
(0.497185 -0.0971578 1.80646e-20)
(0.497991 -0.0907223 0)
(0.498778 -0.0846064 4.76846e-23)
(0.499543 -0.0788089 4.6515e-23)
(0.500285 -0.073326 0)