/*--------------------------------*- C++ -*----------------------------------*\
  =========                 |
  \\      /  F ield         | OpenFOAM: The Open Source CFD Toolbox
   \\    /   O peration     | Website:  https://openfoam.org
    \\  /    A nd           | Version:  6
     \\/     M anipulation  |
\*---------------------------------------------------------------------------*/
FoamFile
{
    version     2.0;
    format      ascii;
    class       volScalarField;
    location    "0.08";
    object      epsilon;
}
// * * * * * * * * * * * * * * * * * * * * * * * * * * * * * * * * * * * * * //

dimensions      [0 2 -3 0 0 0 0];

internalField   nonuniform List<scalar> 
3080
(
1.96294
1.9647
1.96649
1.96831
1.97014
1.97199
1.97386
1.97574
1.97763
1.97952
1.98142
1.98331
1.98518
1.98703
1.98885
1.9906
1.99227
1.99383
1.99522
1.99638
1.99723
1.99762
1.99736
1.99616
1.99351
1.98855
1.97969
1.96357
1.93394
1.87842
0.934602
0.935094
0.935595
0.936106
0.936625
0.937151
0.937685
0.938225
0.938771
0.939323
0.93988
0.940441
0.941005
0.94157
0.942136
0.942699
0.943258
0.943808
0.944345
0.944863
0.945354
0.94581
0.946219
0.946576
0.946885
0.94719
0.947675
0.948889
0.952726
0.965715
0.778007
0.778205
0.778409
0.778617
0.77883
0.779048
0.779269
0.779494
0.779723
0.779954
0.780188
0.780425
0.780663
0.780902
0.781142
0.781381
0.781618
0.781852
0.782079
0.782299
0.782507
0.7827
0.782877
0.783036
0.78319
0.783376
0.783711
0.784544
0.78686
0.793607
0.737472
0.737527
0.737585
0.737647
0.737711
0.737778
0.737848
0.737919
0.737993
0.738067
0.738144
0.738221
0.738299
0.738376
0.738454
0.738529
0.738603
0.738673
0.738738
0.738796
0.738845
0.738882
0.738906
0.738917
0.738922
0.738948
0.739068
0.739496
0.74075
0.744086
0.730302
0.730264
0.73023
0.730197
0.730166
0.730136
0.730108
0.730081
0.730054
0.730028
0.730003
0.729977
0.729951
0.729924
0.729895
0.729865
0.729831
0.729793
0.729749
0.729698
0.729637
0.729564
0.729476
0.729374
0.72926
0.729152
0.729094
0.729218
0.729807
0.731444
0.736209
0.736106
0.736005
0.735906
0.735807
0.735708
0.735611
0.735513
0.735415
0.735318
0.735219
0.73512
0.73502
0.734918
0.734813
0.734706
0.734594
0.734478
0.734355
0.734223
0.73408
0.733924
0.733752
0.733561
0.733353
0.733136
0.732938
0.732836
0.732993
0.733714
0.747838
0.747688
0.747539
0.74739
0.747241
0.747092
0.746943
0.746794
0.746644
0.746493
0.746341
0.746188
0.746033
0.745875
0.745714
0.74555
0.745381
0.745206
0.745024
0.744831
0.744627
0.744408
0.744171
0.743912
0.743631
0.743329
0.743023
0.742759
0.742632
0.742833
0.761901
0.761716
0.761532
0.761347
0.761162
0.760976
0.760789
0.760602
0.760413
0.760223
0.760032
0.759839
0.759643
0.759445
0.759243
0.759036
0.758825
0.758607
0.75838
0.758143
0.757893
0.757627
0.757342
0.757032
0.756696
0.756332
0.755949
0.755573
0.755263
0.75516
0.776733
0.776525
0.776316
0.776105
0.775893
0.775681
0.775467
0.775253
0.775037
0.77482
0.7746
0.774379
0.774154
0.773927
0.773695
0.773459
0.773217
0.772968
0.77271
0.772441
0.772158
0.771859
0.771539
0.771195
0.77082
0.770415
0.769979
0.769531
0.76911
0.768832
0.791435
0.791211
0.790984
0.790756
0.790527
0.790297
0.790065
0.789833
0.789599
0.789363
0.789125
0.788884
0.78864
0.788393
0.788142
0.787886
0.787623
0.787353
0.787075
0.786785
0.786481
0.78616
0.785819
0.785451
0.785054
0.784623
0.784159
0.78367
0.783188
0.782814
0.805504
0.805267
0.80503
0.804792
0.804552
0.804312
0.80407
0.803827
0.803582
0.803335
0.803086
0.802834
0.80258
0.802321
0.802058
0.80179
0.801516
0.801234
0.800943
0.800641
0.800326
0.799994
0.799641
0.799263
0.798855
0.798414
0.797937
0.797433
0.796926
0.796508
0.818413
0.818171
0.817928
0.817685
0.81744
0.817194
0.816947
0.816698
0.816447
0.816193
0.815937
0.815677
0.815414
0.815147
0.814874
0.814595
0.814309
0.814014
0.813707
0.813388
0.813053
0.812697
0.812318
0.81191
0.811471
0.810998
0.810496
0.809989
0.80956
0.830495
0.830256
0.830016
0.829775
0.829532
0.829287
0.829041
0.828793
0.828543
0.82829
0.828035
0.827777
0.827514
0.827248
0.826976
0.826699
0.826414
0.82612
0.825817
0.8255
0.825168
0.824818
0.824445
0.824047
0.823619
0.82316
0.822675
0.822186
0.821769
0.841457
0.841226
0.840993
0.840758
0.840521
0.840282
0.840041
0.839799
0.839554
0.839307
0.839057
0.838804
0.838547
0.838287
0.838021
0.83775
0.837471
0.837185
0.836889
0.836581
0.836259
0.835919
0.83556
0.835177
0.834768
0.834332
0.833874
0.833415
0.833023
0.851291
0.851071
0.850848
0.850622
0.850394
0.850164
0.849933
0.849699
0.849463
0.849225
0.848984
0.848741
0.848494
0.848243
0.847987
0.847726
0.847458
0.847183
0.846899
0.846603
0.846295
0.845972
0.84563
0.845268
0.844884
0.844477
0.844054
0.843632
0.843274
0.860105
0.859895
0.859681
0.859465
0.859246
0.859025
0.858803
0.858578
0.858351
0.858123
0.857891
0.857657
0.85742
0.857179
0.856933
0.856682
0.856426
0.856162
0.85589
0.855608
0.855315
0.855008
0.854685
0.854345
0.853986
0.853609
0.85322
0.852837
0.852515
0.867771
0.867576
0.867376
0.867174
0.866968
0.866761
0.866552
0.866342
0.866129
0.865915
0.865698
0.865478
0.865256
0.86503
0.8648
0.864565
0.864325
0.864079
0.863825
0.863562
0.863289
0.863004
0.862706
0.862394
0.862066
0.861726
0.861378
0.861039
0.860759
0.874238
0.874063
0.873884
0.873702
0.873518
0.873332
0.873144
0.872955
0.872764
0.872572
0.872377
0.872181
0.871982
0.871779
0.871573
0.871364
0.871149
0.870928
0.870702
0.870467
0.870224
0.869971
0.869707
0.869432
0.869146
0.86885
0.868552
0.868268
0.868039
0.879666
0.879516
0.879361
0.879203
0.879043
0.878882
0.878719
0.878555
0.87839
0.878224
0.878057
0.877888
0.877716
0.877542
0.877365
0.877185
0.877
0.876811
0.876616
0.876415
0.876207
0.87599
0.875766
0.875533
0.875292
0.875047
0.874804
0.874576
0.874403
0.884192
0.884068
0.883938
0.883806
0.883671
0.883536
0.883399
0.883262
0.883125
0.882987
0.882848
0.882707
0.882565
0.882421
0.882274
0.882125
0.881973
0.881816
0.881655
0.881489
0.881318
0.88114
0.880956
0.880767
0.880573
0.880379
0.88019
0.880021
0.879903
0.887931
0.887832
0.887727
0.887619
0.88751
0.887399
0.887289
0.887178
0.887068
0.886957
0.886846
0.886734
0.88662
0.886506
0.88639
0.886271
0.88615
0.886026
0.885898
0.885767
0.885631
0.885491
0.885347
0.8852
0.885052
0.884907
0.88477
0.884656
0.884591
0.890977
0.890901
0.890819
0.890734
0.890647
0.890561
0.890474
0.890388
0.890303
0.890218
0.890133
0.890047
0.889961
0.889874
0.889786
0.889696
0.889604
0.889511
0.889414
0.889315
0.889213
0.889108
0.889001
0.888893
0.888787
0.888687
0.888598
0.888534
0.888517
0.893408
0.893351
0.89329
0.893225
0.893159
0.893093
0.893028
0.892964
0.892901
0.892839
0.892777
0.892715
0.892653
0.892591
0.892528
0.892464
0.892398
0.892331
0.892263
0.892192
0.89212
0.892046
0.891972
0.891899
0.89183
0.891769
0.891723
0.891703
0.891728
0.895284
0.895245
0.8952
0.895153
0.895104
0.895057
0.89501
0.894965
0.894921
0.894878
0.894835
0.894794
0.894752
0.894711
0.894669
0.894626
0.894583
0.894539
0.894494
0.894448
0.894401
0.894353
0.894307
0.894263
0.894225
0.894198
0.894187
0.894204
0.894264
0.896657
0.896632
0.8966
0.896567
0.896532
0.896499
0.896467
0.896436
0.896407
0.89638
0.896353
0.896328
0.896302
0.896277
0.896252
0.896227
0.896201
0.896175
0.896149
0.896122
0.896095
0.896068
0.896044
0.896023
0.89601
0.896009
0.896026
0.896072
0.896159
0.897566
0.897549
0.897528
0.897504
0.89748
0.897457
0.897436
0.897416
0.897398
0.897382
0.897366
0.897352
0.897338
0.897325
0.897312
0.897299
0.897285
0.897272
0.897259
0.897246
0.897233
0.897221
0.897212
0.897208
0.897213
0.89723
0.897268
0.897334
0.897442
0.898039
0.898028
0.898013
0.897996
0.897978
0.897962
0.897947
0.897933
0.897921
0.897911
0.897902
0.897894
0.897886
0.897879
0.897873
0.897866
0.89786
0.897854
0.897848
0.897842
0.897837
0.897834
0.897834
0.897839
0.897854
0.897882
0.897931
0.898009
0.898128
0.898106
0.898097
0.898084
0.898069
0.898054
0.898039
0.898026
0.898014
0.898003
0.897994
0.897986
0.897978
0.897972
0.897966
0.89796
0.897955
0.897949
0.897944
0.897939
0.897935
0.897931
0.897929
0.897931
0.897938
0.897954
0.897984
0.898035
0.898117
0.89824
0.897635
0.89762
0.897602
0.897581
0.89756
0.897539
0.897518
0.897499
0.897481
0.897465
0.897449
0.897433
0.897418
0.897404
0.897389
0.897375
0.89736
0.897346
0.897331
0.897317
0.897303
0.897291
0.897282
0.897278
0.897283
0.897302
0.897341
0.897411
0.897524
0.896607
0.896579
0.896546
0.896512
0.896476
0.89644
0.896405
0.89637
0.896336
0.896303
0.89627
0.896237
0.896205
0.896172
0.896139
0.896106
0.896072
0.896038
0.896004
0.895969
0.895934
0.8959
0.895868
0.895841
0.895821
0.895814
0.895827
0.89587
0.89596
0.894998
0.894948
0.894893
0.894836
0.894778
0.894719
0.89466
0.894601
0.894542
0.894483
0.894424
0.894365
0.894305
0.894244
0.894183
0.894121
0.894058
0.893994
0.893928
0.893862
0.893794
0.893727
0.89366
0.893596
0.893539
0.893493
0.893465
0.893467
0.89352
0.892773
0.892692
0.892607
0.892519
0.892429
0.892338
0.892246
0.892154
0.892061
0.891967
0.891872
0.891777
0.89168
0.891582
0.891482
0.891381
0.891278
0.891173
0.891065
0.890955
0.890844
0.89073
0.890616
0.890503
0.890395
0.890294
0.89021
0.890156
0.890158
0.889886
0.889766
0.889642
0.889514
0.889384
0.889251
0.889117
0.888982
0.888845
0.888707
0.888567
0.888425
0.888281
0.888134
0.887986
0.887834
0.88768
0.887522
0.887361
0.887196
0.887028
0.886856
0.886682
0.886506
0.886331
0.886162
0.886007
0.885881
0.885817
0.886283
0.886115
0.885942
0.885765
0.885585
0.885401
0.885215
0.885027
0.884836
0.884643
0.884447
0.884248
0.884046
0.88384
0.883631
0.883418
0.883201
0.882979
0.882752
0.882519
0.882282
0.882038
0.881789
0.881536
0.881281
0.881028
0.880786
0.880571
0.880426
0.881899
0.881674
0.881443
0.881207
0.880966
0.880721
0.880473
0.880222
0.879966
0.879707
0.879444
0.879177
0.878905
0.878629
0.878348
0.878061
0.877769
0.87747
0.877164
0.876851
0.876531
0.876202
0.875865
0.87552
0.875169
0.874816
0.87447
0.874151
0.87391
0.87666
0.876368
0.876068
0.875763
0.875452
0.875136
0.874815
0.874489
0.874158
0.873822
0.873481
0.873134
0.872781
0.872422
0.872057
0.871684
0.871304
0.870915
0.870518
0.870112
0.869694
0.869266
0.868827
0.868376
0.867914
0.867446
0.866981
0.866541
0.86619
0.870484
0.870115
0.869737
0.869352
0.868961
0.868562
0.868158
0.867747
0.867329
0.866905
0.866474
0.866036
0.86559
0.865137
0.864675
0.864204
0.863724
0.863233
0.862732
0.862218
0.861691
0.86115
0.860595
0.860023
0.859437
0.85884
0.858241
0.857666
0.857192
0.863284
0.862827
0.862362
0.861887
0.861404
0.860914
0.860415
0.859908
0.859394
0.858871
0.858339
0.857798
0.857249
0.856689
0.856119
0.855539
0.854947
0.854342
0.853724
0.853092
0.852444
0.851778
0.851093
0.85039
0.849667
0.848928
0.848185
0.847464
0.846857
0.855083
0.854528
0.853961
0.853385
0.852799
0.852203
0.851598
0.850982
0.850357
0.849722
0.849077
0.84842
0.847753
0.847074
0.846383
0.845678
0.844961
0.844228
0.84348
0.842714
0.841929
0.841125
0.840297
0.839447
0.838574
0.837681
0.83678
0.835903
0.835156
0.845771
0.845106
0.84443
0.843741
0.843042
0.842331
0.841608
0.840875
0.840129
0.839372
0.838602
0.83782
0.837025
0.836216
0.835393
0.834555
0.833702
0.832831
0.831943
0.831034
0.830104
0.829151
0.828173
0.827169
0.826138
0.825085
0.824025
0.822992
0.822109
0.834971
0.834197
0.833411
0.832611
0.831799
0.830974
0.830136
0.829285
0.828421
0.827544
0.826653
0.825748
0.824829
0.823895
0.822945
0.821979
0.820996
0.819994
0.818972
0.817929
0.816863
0.815772
0.814654
0.813508
0.812335
0.81114
0.809943
0.808782
0.807799
0.822467
0.821593
0.820706
0.819805
0.81889
0.817962
0.81702
0.816065
0.815096
0.814112
0.813115
0.812103
0.811076
0.810033
0.808975
0.807899
0.806806
0.805695
0.804563
0.803409
0.802232
0.80103
0.799801
0.798545
0.797264
0.795967
0.79468
0.793449
0.79244
0.808475
0.807531
0.806574
0.805603
0.804619
0.803621
0.802611
0.801587
0.800551
0.799501
0.798437
0.79736
0.796268
0.795162
0.794041
0.792905
0.791752
0.790582
0.789394
0.788185
0.786956
0.785703
0.784426
0.783125
0.781806
0.780481
0.779189
0.777989
0.777081
0.793461
0.792504
0.791536
0.790556
0.789565
0.788563
0.787549
0.786525
0.785489
0.784443
0.783386
0.782317
0.781237
0.780146
0.779043
0.777927
0.776799
0.775657
0.7745
0.773327
0.772137
0.770929
0.769703
0.768459
0.767207
0.765964
0.764788
0.763755
0.763127
0.777513
0.776627
0.775731
0.774828
0.773916
0.772996
0.772069
0.771135
0.770194
0.769246
0.768291
0.767329
0.76636
0.765385
0.764402
0.763413
0.762415
0.76141
0.760395
0.75937
0.758335
0.757287
0.756229
0.755162
0.754099
0.753065
0.752138
0.751428
0.751291
0.760933
0.760224
0.75951
0.758792
0.75807
0.757345
0.756618
0.755888
0.755155
0.754421
0.753686
0.752948
0.75221
0.75147
0.750728
0.749985
0.749241
0.748493
0.747743
0.746989
0.746231
0.745467
0.7447
0.743933
0.743181
0.742477
0.741929
0.74169
0.742267
0.746737
0.74626
0.745781
0.745302
0.744823
0.744345
0.743868
0.743393
0.74292
0.74245
0.741982
0.741516
0.741054
0.740594
0.740138
0.739684
0.739233
0.738784
0.738336
0.737889
0.737441
0.736993
0.736546
0.736104
0.735687
0.735334
0.735186
0.735463
0.736902
0.737343
0.737089
0.736839
0.736592
0.736349
0.73611
0.735877
0.735648
0.735426
0.73521
0.735
0.734797
0.7346
0.734411
0.734229
0.734053
0.733884
0.733721
0.733564
0.733411
0.733261
0.733114
0.732972
0.732838
0.732737
0.732713
0.732943
0.733739
0.736183
0.733464
0.733454
0.733453
0.733459
0.733472
0.733495
0.733526
0.733566
0.733616
0.733676
0.733746
0.733827
0.733918
0.73402
0.734133
0.734255
0.734387
0.734528
0.734675
0.73483
0.734989
0.735154
0.735329
0.735538
0.735834
0.736429
0.737752
0.741389
0.737199
0.737447
0.737704
0.737972
0.738251
0.738542
0.738845
0.739161
0.73949
0.739832
0.740188
0.740557
0.740941
0.741339
0.74175
0.742174
0.742611
0.743059
0.743517
0.743982
0.744452
0.744928
0.745412
0.745927
0.746529
0.747464
0.749306
0.754365
0.751019
0.751541
0.752076
0.752625
0.753187
0.753765
0.754359
0.754968
0.755594
0.756237
0.756897
0.757574
0.758268
0.75898
0.759708
0.760453
0.761212
0.761984
0.762766
0.763556
0.76435
0.765145
0.765941
0.766758
0.76765
0.768894
0.771225
0.777994
0.779478
0.780305
0.781148
0.782008
0.782886
0.783783
0.7847
0.785636
0.786592
0.787569
0.788566
0.789585
0.790624
0.791684
0.792764
0.793862
0.794976
0.796105
0.797244
0.798388
0.799531
0.800667
0.801788
0.802911
0.804076
0.80559
0.808344
0.817202
0.831173
0.832363
0.833574
0.834806
0.836061
0.837339
0.838641
0.839967
0.841318
0.842694
0.844095
0.845522
0.846973
0.848449
0.849947
0.851466
0.853003
0.854553
0.856112
0.85767
0.859217
0.860741
0.862225
0.863672
0.865094
0.866822
0.869873
0.881341
0.92498
0.926657
0.92836
0.930091
0.931851
0.93364
0.935459
0.937309
0.939191
0.941103
0.943047
0.945021
0.947026
0.949059
0.951119
0.953202
0.955302
0.957415
0.959529
0.961631
0.963702
0.965721
0.967648
0.96947
0.971131
0.972986
0.976059
0.99085
1.11271
1.11517
1.11767
1.12021
1.12279
1.12541
1.12808
1.13078
1.13352
1.13631
1.13913
1.142
1.14491
1.14785
1.15082
1.15382
1.15683
1.15985
1.16285
1.16582
1.16871
1.17148
1.17406
1.17638
1.17824
1.17999
1.18237
1.20109
1.60394
1.60821
1.61255
1.61695
1.62142
1.62595
1.63055
1.63521
1.63994
1.64474
1.6496
1.65452
1.65949
1.66452
1.66958
1.67467
1.67976
1.68483
1.68983
1.69471
1.69939
1.70375
1.7076
1.71071
1.71252
1.71295
1.71159
1.72847
4.18602
4.19883
4.21181
4.22497
4.23831
4.25183
4.26554
4.27942
4.29347
4.30769
4.32206
4.33657
4.35118
4.36587
4.38058
4.39524
4.40974
4.42395
4.43768
4.45061
4.46237
4.47219
4.47934
4.48114
4.47669
4.45177
4.39931
4.21376
2.00215
2.06116
2.1205
2.17329
2.21519
2.25176
2.28758
2.32371
2.36029
2.39774
2.43638
2.47701
2.52026
2.56673
2.61727
2.67269
2.73405
2.80172
2.87784
2.96023
3.05876
3.15454
3.30015
3.39087
3.72443
0.965877
0.969464
0.977182
0.988359
1.00072
1.01296
1.02495
1.03686
1.04878
1.06078
1.07293
1.0856
1.09891
1.11298
1.12804
1.14437
1.16223
1.18197
1.20366
1.22817
1.25521
1.28654
1.32177
1.36579
1.42244
0.794083
0.795724
0.798906
0.804002
0.810378
0.817219
0.824155
0.8311
0.838023
0.84491
0.851786
0.858781
0.866017
0.873578
0.881599
0.890252
0.899688
0.910111
0.921573
0.934515
0.94875
0.965387
0.983466
1.00732
1.03184
0.745511
0.747118
0.749223
0.75233
0.756326
0.760794
0.765454
0.77018
0.7749
0.779569
0.784181
0.788791
0.793486
0.798334
0.803438
0.808922
0.814904
0.821525
0.828847
0.837131
0.846296
0.857041
0.868682
0.884249
0.898964
0.733214
0.73493
0.736678
0.738895
0.741659
0.744782
0.74809
0.751476
0.754866
0.758205
0.761472
0.764689
0.767911
0.771196
0.774625
0.778297
0.782311
0.786778
0.791759
0.797434
0.803769
0.811259
0.819404
0.830465
0.840545
0.735529
0.737299
0.738898
0.740657
0.742707
0.744986
0.7474
0.749877
0.752354
0.754779
0.757125
0.759396
0.761627
0.763865
0.766176
0.768642
0.771347
0.774385
0.777813
0.78177
0.786242
0.791613
0.797486
0.805669
0.812983
0.744557
0.746309
0.747816
0.749309
0.750918
0.752642
0.75444
0.756271
0.758086
0.759844
0.761517
0.7631
0.764614
0.766098
0.767604
0.769203
0.770968
0.772978
0.775288
0.778013
0.781143
0.785006
0.789248
0.795413
0.800826
0.756735
0.758411
0.759836
0.761154
0.762475
0.763824
0.765189
0.766551
0.76788
0.76914
0.770308
0.771376
0.772356
0.773277
0.774184
0.775137
0.776197
0.777438
0.778906
0.780705
0.78282
0.785551
0.788555
0.79322
0.797204
0.770237
0.771801
0.773134
0.774322
0.775445
0.776534
0.777593
0.778616
0.779584
0.780473
0.781262
0.781942
0.78252
0.783018
0.783473
0.783937
0.784462
0.785115
0.785935
0.78702
0.788347
0.790202
0.792235
0.795742
0.798589
0.784049
0.785479
0.786711
0.787791
0.78877
0.789675
0.790517
0.791296
0.792002
0.792616
0.793124
0.793514
0.793792
0.793974
0.79409
0.794184
0.794303
0.794504
0.794823
0.795351
0.796059
0.797225
0.798481
0.801072
0.802983
0.79758
0.798868
0.799994
0.800975
0.801844
0.802617
0.803306
0.803912
0.80443
0.804847
0.80515
0.805331
0.80539
0.805341
0.805208
0.805027
0.804839
0.804696
0.804628
0.804723
0.804941
0.805563
0.806191
0.808044
0.809169
0.810483
0.811629
0.812647
0.813538
0.814318
0.814994
0.815575
0.816061
0.81645
0.81673
0.816892
0.816926
0.816833
0.816622
0.816311
0.815933
0.815519
0.815119
0.814755
0.814515
0.814348
0.814538
0.814659
0.815913
0.816369
0.822557
0.823567
0.824479
0.825286
0.825991
0.826596
0.827102
0.827508
0.827812
0.828003
0.828073
0.828013
0.827821
0.827504
0.827075
0.826561
0.825988
0.825401
0.824816
0.824322
0.823856
0.823706
0.823415
0.824181
0.824065
0.833693
0.834576
0.835388
0.836117
0.836759
0.837309
0.837763
0.83812
0.838372
0.838512
0.83853
0.838418
0.838171
0.837793
0.837294
0.836695
0.836017
0.8353
0.834557
0.833873
0.833178
0.832762
0.832141
0.83251
0.831904
0.843842
0.844609
0.845328
0.845986
0.846574
0.847082
0.847503
0.847831
0.848059
0.848176
0.848173
0.84804
0.847773
0.847371
0.84684
0.846197
0.845458
0.84466
0.843808
0.842989
0.842121
0.841503
0.840618
0.840664
0.839638
0.852993
0.853657
0.854293
0.854887
0.855428
0.855904
0.856305
0.856621
0.856842
0.856958
0.856957
0.85683
0.856569
0.856171
0.85564
0.854986
0.854221
0.853378
0.852459
0.851548
0.850556
0.849785
0.848692
0.848477
0.847093
0.861163
0.861737
0.862299
0.862837
0.863339
0.86379
0.86418
0.864495
0.864723
0.864854
0.864873
0.864771
0.864536
0.864164
0.863654
0.863014
0.862251
0.861394
0.860439
0.859472
0.858395
0.857512
0.856258
0.855833
0.854145
0.868385
0.868882
0.86938
0.86987
0.870338
0.870771
0.871156
0.871478
0.871723
0.871879
0.871931
0.871865
0.871672
0.871341
0.870871
0.870263
0.869522
0.868673
0.867708
0.866713
0.86558
0.864619
0.863241
0.862651
0.860705
0.874703
0.875135
0.875579
0.876027
0.876468
0.876888
0.877272
0.877606
0.877875
0.878062
0.878153
0.878134
0.87799
0.877712
0.877291
0.876729
0.876025
0.8752
0.874244
0.873241
0.872077
0.871064
0.869594
0.868872
0.866712
0.880167
0.880543
0.880942
0.881355
0.881774
0.882184
0.882572
0.882921
0.883216
0.883439
0.883574
0.883604
0.883516
0.883294
0.88293
0.882421
0.881762
0.880972
0.880038
0.879042
0.877865
0.87682
0.875284
0.874459
0.87212
0.884826
0.885157
0.885518
0.885903
0.886304
0.886708
0.887101
0.887467
0.887789
0.888048
0.888227
0.888309
0.888276
0.888113
0.887807
0.887354
0.886744
0.885996
0.885091
0.884112
0.882934
0.881873
0.880289
0.879386
0.8769
0.88873
0.889025
0.889355
0.889717
0.890104
0.890504
0.890904
0.891287
0.891634
0.891929
0.89215
0.892281
0.892301
0.892194
0.891946
0.891547
0.890987
0.890281
0.88941
0.888453
0.887283
0.886214
0.884598
0.883634
0.881032
0.891924
0.89219
0.892496
0.89284
0.893217
0.893616
0.894022
0.894421
0.894793
0.895119
0.895379
0.895553
0.895622
0.895566
0.895369
0.89502
0.894507
0.893842
0.893003
0.89207
0.890912
0.889842
0.888205
0.887194
0.884502
0.894448
0.894692
0.89498
0.895311
0.895681
0.896079
0.896493
0.896905
0.897298
0.897651
0.897944
0.898157
0.898266
0.898254
0.898101
0.897795
0.897321
0.896691
0.895881
0.89497
0.893825
0.892758
0.891108
0.89006
0.887301
0.896335
0.896564
0.89684
0.897162
0.897528
0.897927
0.898347
0.898771
0.899181
0.899556
0.899875
0.900117
0.900259
0.90028
0.900161
0.899888
0.899445
0.898843
0.898056
0.897162
0.896029
0.894963
0.893308
0.892228
0.889426
0.897613
0.897832
0.898101
0.89842
0.898784
0.899185
0.89961
0.900043
0.900465
0.900856
0.901193
0.901454
0.901618
0.901662
0.901566
0.901314
0.900892
0.900307
0.899536
0.898653
0.897529
0.896462
0.894806
0.893695
0.890876
0.898299
0.898516
0.898783
0.899101
0.899466
0.89987
0.9003
0.900739
0.901168
0.901567
0.901914
0.902185
0.902359
0.902414
0.902327
0.902085
0.901671
0.901092
0.900327
0.899448
0.898329
0.897255
0.895604
0.894461
0.891653
0.898415
0.898635
0.898906
0.899228
0.899598
0.900006
0.900439
0.900881
0.901313
0.901713
0.90206
0.902332
0.902504
0.902555
0.902465
0.902218
0.901799
0.901215
0.900447
0.899561
0.898442
0.897357
0.895715
0.894536
0.891763
0.897709
0.897942
0.898226
0.898558
0.898936
0.899349
0.899785
0.900226
0.900653
0.901045
0.901379
0.901634
0.901787
0.901817
0.901703
0.901432
0.900989
0.900383
0.899596
0.898693
0.897565
0.896465
0.894832
0.893628
0.890907
0.89616
0.896416
0.896719
0.897069
0.897459
0.897879
0.898315
0.898751
0.899165
0.899538
0.899847
0.90007
0.900187
0.900177
0.900021
0.899707
0.899223
0.89858
0.897761
0.896831
0.895686
0.894571
0.892943
0.891735
0.889076
0.89374
0.894028
0.89436
0.894733
0.895139
0.895568
0.896004
0.896429
0.896824
0.897168
0.897439
0.897617
0.897682
0.897615
0.897399
0.897027
0.896487
0.895793
0.894931
0.893967
0.8928
0.891672
0.890051
0.888857
0.886276
0.890405
0.890737
0.891106
0.891509
0.891937
0.892375
0.89281
0.893221
0.89359
0.893896
0.894119
0.894239
0.894239
0.8941
0.893812
0.893366
0.892759
0.892005
0.891093
0.890091
0.8889
0.887764
0.886155
0.884994
0.882515
0.886099
0.886486
0.886903
0.887344
0.887797
0.888248
0.888681
0.889075
0.889413
0.889674
0.88984
0.889892
0.889815
0.889595
0.889222
0.888695
0.888012
0.887192
0.886228
0.885189
0.88398
0.882844
0.881261
0.880155
0.87781
0.880752
0.881208
0.881684
0.882171
0.882656
0.883122
0.883552
0.883928
0.884231
0.884442
0.884545
0.884523
0.884363
0.884054
0.883592
0.88298
0.882219
0.881335
0.880322
0.879254
0.878035
0.876914
0.875378
0.874354
0.872179
0.874291
0.874831
0.875378
0.87592
0.876441
0.876925
0.877355
0.877711
0.877977
0.878137
0.878174
0.878076
0.877831
0.877434
0.876883
0.876187
0.875355
0.874414
0.873364
0.87228
0.871071
0.869988
0.868524
0.867618
0.865658
0.866639
0.867278
0.867908
0.868514
0.869078
0.869584
0.870014
0.870353
0.870585
0.870694
0.870669
0.870498
0.870173
0.869693
0.869061
0.868293
0.867402
0.866421
0.865353
0.864278
0.863105
0.862091
0.860737
0.859991
0.8583
0.857723
0.858479
0.859204
0.859882
0.860496
0.861027
0.861462
0.861788
0.86199
0.862058
0.861979
0.861745
0.861353
0.860804
0.860108
0.859287
0.85836
0.857365
0.85631
0.855277
0.854178
0.853275
0.852076
0.851547
0.850185
0.847488
0.848377
0.849208
0.849966
0.850633
0.851195
0.851642
0.851963
0.852148
0.852187
0.852071
0.851794
0.851355
0.850762
0.85003
0.849186
0.848256
0.847286
0.846285
0.84534
0.844364
0.843625
0.842642
0.842397
0.841436
0.835903
0.836939
0.837885
0.838728
0.839455
0.840055
0.840523
0.840854
0.84104
0.841074
0.840948
0.840658
0.840206
0.839603
0.838873
0.838049
0.837164
0.836268
0.835376
0.834578
0.833788
0.833284
0.832589
0.832714
0.832238
0.822987
0.824179
0.825244
0.826177
0.826968
0.827616
0.828122
0.828487
0.828704
0.828768
0.82867
0.828409
0.827988
0.827426
0.826751
0.826004
0.825224
0.824469
0.823756
0.823181
0.822657
0.822475
0.822158
0.822758
0.822863
0.808829
0.810182
0.811365
0.812388
0.813252
0.813964
0.814536
0.81497
0.815262
0.815405
0.81539
0.815216
0.814889
0.814432
0.813881
0.813284
0.812688
0.812158
0.811713
0.811456
0.811297
0.811547
0.811718
0.812929
0.813727
0.793639
0.795148
0.796445
0.79756
0.79851
0.799315
0.799994
0.800552
0.800983
0.801274
0.801416
0.801405
0.801252
0.800985
0.800646
0.800293
0.799981
0.799782
0.799717
0.7999
0.800231
0.801053
0.801847
0.803845
0.805465
0.778502
0.780157
0.781553
0.782762
0.78382
0.784761
0.785608
0.786362
0.78701
0.787535
0.787921
0.788163
0.788275
0.788293
0.788266
0.788262
0.788343
0.78859
0.789027
0.789777
0.79073
0.792273
0.79383
0.7968
0.799365
0.764801
0.766577
0.768054
0.769367
0.770571
0.771705
0.77279
0.773818
0.774765
0.775604
0.776314
0.776891
0.777352
0.77774
0.778113
0.778548
0.779117
0.77991
0.78095
0.782377
0.784063
0.786448
0.788888
0.792978
0.796592
0.75325
0.755113
0.75666
0.758101
0.759504
0.760904
0.762309
0.763695
0.765023
0.766258
0.767373
0.768363
0.769252
0.770092
0.770949
0.771914
0.773063
0.7745
0.776246
0.778458
0.780994
0.784344
0.787798
0.793156
0.797956
0.744539
0.746453
0.748062
0.749677
0.751356
0.753113
0.754931
0.756765
0.75856
0.760271
0.76187
0.763353
0.764751
0.766125
0.767554
0.769139
0.770967
0.77315
0.775714
0.77883
0.782342
0.786796
0.791415
0.798211
0.804381
0.739463
0.741382
0.743066
0.744926
0.746985
0.749206
0.751541
0.753919
0.75627
0.758543
0.760707
0.762765
0.764758
0.766756
0.76885
0.771156
0.773771
0.776818
0.780325
0.784482
0.78912
0.794844
0.800811
0.809255
0.817044
0.738985
0.740873
0.742672
0.744887
0.747457
0.750271
0.753239
0.756267
0.759271
0.762198
0.765019
0.767745
0.770429
0.773153
0.776023
0.779169
0.782699
0.786752
0.791355
0.796724
0.802672
0.809876
0.817424
0.82779
0.837542
0.744377
0.74623
0.748229
0.750959
0.75421
0.757769
0.761504
0.765301
0.769072
0.772761
0.776349
0.779858
0.783352
0.78693
0.790714
0.79485
0.79946
0.804699
0.810599
0.817403
0.824906
0.833871
0.843309
0.855972
0.868185
0.757485
0.759353
0.761709
0.765179
0.769329
0.773817
0.778482
0.783198
0.787876
0.79247
0.79697
0.801412
0.805877
0.810481
0.815365
0.820696
0.826612
0.833288
0.84076
0.849309
0.858708
0.869835
0.8816
0.897094
0.912511
0.781213
0.783248
0.78622
0.790753
0.79609
0.801747
0.807553
0.813388
0.819171
0.824869
0.830488
0.836083
0.841752
0.847631
0.853887
0.860712
0.868263
0.876743
0.886194
0.896951
0.908752
0.922634
0.937386
0.956512
0.976306
0.820571
0.823097
0.827115
0.833186
0.840109
0.847268
0.854523
0.861776
0.868966
0.876078
0.88314
0.890232
0.89747
0.905019
0.913074
0.921863
0.93157
0.942437
0.954511
0.968208
0.983222
1.0008
1.01961
1.04365
1.06979
0.88515
0.888806
0.894612
0.902973
0.912095
0.921279
0.930484
0.939657
0.948766
0.957826
0.966892
0.976077
0.985514
0.995412
1.00601
1.01758
1.03034
1.0446
1.06043
1.07834
1.09799
1.12091
1.1457
1.17687
1.21298
0.996123
1.00222
1.01126
1.02326
1.03565
1.04782
1.05993
1.072
1.08403
1.09609
1.10827
1.12071
1.13359
1.14718
1.16178
1.17774
1.19535
1.21501
1.23681
1.26146
1.28861
1.32012
1.35482
1.39738
1.45124
1.21163
1.22329
1.23914
1.25779
1.27581
1.2932
1.31048
1.32776
1.34512
1.3627
1.38066
1.39919
1.41852
1.43905
1.46119
1.48544
1.51223
1.54214
1.57538
1.61294
1.65468
1.70263
1.75727
1.82115
1.91342
1.76524
1.79386
1.8304
1.86543
1.89656
1.9267
1.95687
1.9873
2.01826
2.05003
2.08297
2.11728
2.15346
2.19213
2.23405
2.2801
2.33114
2.38811
2.45191
2.5236
2.60525
2.69609
2.80807
2.9242
3.13532
4.61254
4.76412
4.94144
5.05497
5.14602
5.23986
5.33468
5.43106
5.53076
5.63425
5.74226
5.85598
5.97698
6.10702
6.24904
6.40501
6.58008
6.77295
6.99665
7.23425
7.53349
7.8116
8.26188
8.53666
9.51061
)
;

boundaryField
{
    inlet
    {
        type            fixedValue;
        value           nonuniform 0();
    }
    outlet
    {
        type            zeroGradient;
    }
    upperWall
    {
        Cmu             0.09;
        kappa           0.41;
        E               9.8;
        type            epsilonWallFunction;
        value           nonuniform List<scalar> 
53
(
4.18602
4.19883
4.21181
4.22497
4.23831
4.25183
4.26554
4.27942
4.29347
4.30769
4.32206
4.33657
4.35118
4.36587
4.38058
4.39524
4.40974
4.42395
4.43768
4.45061
4.46237
4.47219
4.47934
4.48114
4.47669
4.45177
4.39931
4.21376
4.61254
4.76412
4.94144
5.05497
5.14602
5.23986
5.33468
5.43106
5.53076
5.63425
5.74226
5.85598
5.97698
6.10702
6.24904
6.40501
6.58008
6.77295
6.99665
7.23425
7.53349
7.8116
8.26188
8.53666
9.51061
)
;
    }
    lowerWall
    {
        Cmu             0.09;
        kappa           0.41;
        E               9.8;
        type            epsilonWallFunction;
        value           nonuniform List<scalar> 
55
(
1.96294
1.9647
1.96649
1.96831
1.97014
1.97199
1.97386
1.97574
1.97763
1.97952
1.98142
1.98331
1.98518
1.98703
1.98885
1.9906
1.99227
1.99383
1.99522
1.99638
1.99723
1.99762
1.99736
1.99616
1.99351
1.98855
1.97969
1.96357
1.93394
1.87842
2.00215
2.06116
2.1205
2.17329
2.21519
2.25176
2.28758
2.32371
2.36029
2.39774
2.43638
2.47701
2.52026
2.56673
2.61727
2.67269
2.73405
2.80172
2.87784
2.96023
3.05876
3.15454
3.30015
3.39087
3.72443
)
;
    }
    frontAndBack
    {
        type            empty;
    }
    procBoundary0to1
    {
        type            processor;
        value           nonuniform List<scalar> 
59
(
1.9612
0.934118
0.777815
0.737422
0.730341
0.736312
0.747988
0.762084
0.776939
0.791653
0.805723
0.818647
0.818647
0.830721
0.841677
0.851501
0.860304
0.867955
0.874398
0.879799
0.884298
0.888009
0.891029
0.893437
0.895294
0.896652
0.89755
0.898018
0.898087
0.897624
0.896613
0.895028
0.892834
0.889987
0.886433
0.882107
0.876935
0.870837
0.863723
0.855621
0.846417
0.835726
0.823323
0.809403
0.794403
0.77839
0.761637
0.747212
0.737592
0.733476
0.733476
0.736957
0.750507
0.778665
0.830002
0.923329
1.11028
1.59972
4.17339
)
;
    }