/*--------------------------------*- C++ -*----------------------------------*\
  =========                 |
  \\      /  F ield         | OpenFOAM: The Open Source CFD Toolbox
   \\    /   O peration     | Website:  https://openfoam.org
    \\  /    A nd           | Version:  6
     \\/     M anipulation  |
\*---------------------------------------------------------------------------*/
FoamFile
{
    version     2.0;
    format      ascii;
    class       volScalarField;
    location    "0.08";
    object      k;
}
// * * * * * * * * * * * * * * * * * * * * * * * * * * * * * * * * * * * * * //

dimensions      [0 2 -2 0 0 0 0];

internalField   nonuniform List<scalar> 
3080
(
0.0177443
0.0177365
0.0177286
0.0177207
0.0177127
0.0177047
0.0176966
0.0176883
0.0176799
0.0176714
0.0176627
0.0176537
0.0176445
0.0176349
0.0176249
0.0176143
0.017603
0.0175909
0.0175775
0.0175627
0.0175457
0.0175259
0.017502
0.0174724
0.0174342
0.0173823
0.0173075
0.0171902
0.0169937
0.0166443
0.0337324
0.0337138
0.0336952
0.0336764
0.0336575
0.0336384
0.0336192
0.0335997
0.0335799
0.0335599
0.0335395
0.0335187
0.0334974
0.0334756
0.033453
0.0334296
0.033405
0.0333791
0.0333513
0.0333211
0.0332877
0.0332499
0.033206
0.0331532
0.0330872
0.0330005
0.032878
0.0326963
0.0323854
0.031997
0.0427362
0.0427118
0.0426873
0.0426626
0.0426378
0.0426127
0.0425874
0.0425619
0.042536
0.0425098
0.0424832
0.0424561
0.0424284
0.0424001
0.0423709
0.0423408
0.0423095
0.0422766
0.0422417
0.0422042
0.0421632
0.0421175
0.0420654
0.0420041
0.0419293
0.0418339
0.041705
0.0415213
0.0412349
0.0408537
0.0492844
0.0492557
0.0492268
0.0491977
0.0491685
0.049139
0.0491093
0.0490792
0.0490488
0.0490181
0.0489869
0.0489551
0.0489228
0.0488897
0.0488558
0.0488209
0.0487847
0.0487468
0.0487069
0.0486644
0.0486183
0.0485675
0.0485102
0.048444
0.0483647
0.048266
0.048137
0.0479609
0.0477072
0.0473817
0.0546027
0.0545706
0.0545383
0.0545059
0.0544733
0.0544404
0.0544072
0.0543737
0.0543398
0.0543055
0.0542707
0.0542354
0.0541994
0.0541627
0.0541251
0.0540865
0.0540465
0.0540048
0.0539611
0.0539147
0.0538647
0.0538101
0.0537491
0.0536793
0.0535971
0.0534966
0.0533689
0.0532005
0.052972
0.0526927
0.0591294
0.0590948
0.05906
0.059025
0.0589897
0.0589542
0.0589184
0.0588823
0.0588457
0.0588087
0.0587713
0.0587332
0.0586945
0.058655
0.0586146
0.0585731
0.0585303
0.0584858
0.0584392
0.0583899
0.0583371
0.0582797
0.0582161
0.0581439
0.0580599
0.057959
0.0578334
0.0576727
0.0574645
0.0572209
0.0630723
0.0630358
0.0629991
0.0629623
0.0629252
0.0628878
0.0628501
0.062812
0.0627736
0.0627347
0.0626952
0.0626552
0.0626145
0.062573
0.0625306
0.0624871
0.0624422
0.0623957
0.0623471
0.0622958
0.0622411
0.0621819
0.0621166
0.0620432
0.0619586
0.0618582
0.0617358
0.0615831
0.0613924
0.0611772
0.0665483
0.0665106
0.0664728
0.0664347
0.0663964
0.0663579
0.0663189
0.0662796
0.0662399
0.0661998
0.0661591
0.0661178
0.0660758
0.066033
0.0659893
0.0659445
0.0658983
0.0658505
0.0658007
0.0657482
0.0656924
0.0656322
0.0655663
0.0654926
0.0654084
0.0653099
0.0651916
0.0650472
0.0648723
0.0646807
0.0696322
0.069594
0.0695556
0.0695169
0.069478
0.0694388
0.0693993
0.0693593
0.069319
0.0692782
0.0692368
0.0691949
0.0691523
0.0691089
0.0690645
0.0690191
0.0689723
0.068924
0.0688736
0.0688207
0.0687646
0.0687043
0.0686385
0.0685654
0.0684827
0.0683868
0.0682735
0.0681378
0.0679775
0.0678061
0.0723763
0.072338
0.0722996
0.0722608
0.0722219
0.0721826
0.072143
0.072103
0.0720626
0.0720217
0.0719802
0.0719382
0.0718955
0.071852
0.0718076
0.0717622
0.0717154
0.0716671
0.0716169
0.0715642
0.0715085
0.0714488
0.071384
0.0713124
0.0712319
0.0711396
0.0710319
0.0709053
0.0707587
0.0706052
0.0748198
0.0747819
0.0747439
0.0747056
0.074667
0.0746281
0.0745889
0.0745494
0.0745093
0.0744689
0.0744279
0.0743863
0.074344
0.074301
0.0742571
0.0742122
0.074166
0.0741183
0.0740688
0.074017
0.0739622
0.0739038
0.0738406
0.0737712
0.0736937
0.0736057
0.0735042
0.0733867
0.0732532
0.0731157
0.0769568
0.0769195
0.0768821
0.0768444
0.0768063
0.076768
0.0767292
0.0766901
0.0766505
0.0766103
0.0765696
0.0765283
0.0764862
0.0764433
0.0763993
0.0763542
0.0763077
0.0762594
0.0762089
0.0761557
0.0760991
0.0760381
0.0759715
0.0758976
0.0758144
0.0757196
0.0756113
0.0754902
0.0753672
0.0788883
0.0788523
0.078816
0.0787795
0.0787427
0.0787056
0.0786681
0.0786302
0.0785918
0.0785529
0.0785135
0.0784735
0.0784327
0.0783912
0.0783487
0.078305
0.07826
0.0782134
0.0781648
0.0781136
0.0780593
0.0780011
0.0779377
0.0778679
0.0777899
0.077702
0.0776028
0.0774935
0.0773838
0.0805985
0.080564
0.0805293
0.0804943
0.0804591
0.0804235
0.0803876
0.0803512
0.0803145
0.0802772
0.0802394
0.080201
0.080162
0.0801222
0.0800814
0.0800396
0.0799966
0.079952
0.0799056
0.0798569
0.0798053
0.0797502
0.0796905
0.0796251
0.0795527
0.0794718
0.0793816
0.0792834
0.0791859
0.0821066
0.082074
0.0820411
0.0820079
0.0819745
0.0819408
0.0819067
0.0818722
0.0818373
0.081802
0.0817661
0.0817297
0.0816927
0.0816549
0.0816162
0.0815766
0.0815358
0.0814937
0.0814498
0.0814038
0.0813553
0.0813036
0.0812478
0.0811872
0.0811205
0.0810466
0.0809651
0.0808775
0.0807914
0.0834424
0.0834115
0.0833803
0.0833488
0.0833171
0.083285
0.0832527
0.0832199
0.0831868
0.0831532
0.0831191
0.0830845
0.0830493
0.0830133
0.0829766
0.082939
0.0829003
0.0828603
0.0828188
0.0827754
0.0827297
0.0826812
0.0826291
0.0825728
0.0825114
0.0824441
0.0823705
0.0822923
0.0822161
0.0845954
0.0845667
0.0845378
0.0845086
0.0844792
0.0844495
0.0844194
0.084389
0.0843582
0.084327
0.0842953
0.0842632
0.0842304
0.084197
0.0841629
0.0841279
0.084092
0.0840549
0.0840164
0.0839762
0.083934
0.0838893
0.0838417
0.0837904
0.0837347
0.0836742
0.0836088
0.0835399
0.0834733
0.0855634
0.0855379
0.0855123
0.0854864
0.0854602
0.0854339
0.0854072
0.0853802
0.0853528
0.0853251
0.0852969
0.0852683
0.0852392
0.0852095
0.0851791
0.085148
0.085116
0.085083
0.0850488
0.0850131
0.0849757
0.0849361
0.084894
0.0848488
0.0848001
0.0847475
0.0846911
0.0846322
0.0845758
0.0863738
0.0863521
0.0863302
0.0863081
0.0862858
0.0862633
0.0862405
0.0862175
0.0861941
0.0861704
0.0861464
0.0861219
0.086097
0.0860716
0.0860457
0.0860191
0.0859917
0.0859634
0.0859341
0.0859036
0.0858715
0.0858377
0.0858018
0.0857634
0.0857221
0.0856777
0.0856305
0.0855817
0.0855356
0.0870489
0.0870311
0.0870131
0.086995
0.0869767
0.0869583
0.0869396
0.0869207
0.0869015
0.0868821
0.0868623
0.0868423
0.0868218
0.0868009
0.0867796
0.0867577
0.0867351
0.0867118
0.0866877
0.0866625
0.086636
0.0866081
0.0865785
0.0865469
0.086513
0.0864769
0.0864387
0.0863996
0.0863632
0.0876065
0.0875925
0.0875784
0.0875641
0.0875498
0.0875353
0.0875206
0.0875058
0.0874908
0.0874755
0.08746
0.0874442
0.0874281
0.0874117
0.0873949
0.0873776
0.0873598
0.0873414
0.0873222
0.0873023
0.0872813
0.0872591
0.0872356
0.0872106
0.0871838
0.0871554
0.0871256
0.0870956
0.0870682
0.088061
0.0880506
0.08804
0.0880294
0.0880187
0.0880079
0.087997
0.087986
0.0879748
0.0879634
0.0879519
0.0879401
0.0879281
0.0879158
0.0879033
0.0878903
0.0878769
0.0878631
0.0878486
0.0878335
0.0878176
0.0878008
0.0877829
0.0877639
0.0877437
0.0877223
0.0877002
0.0876783
0.0876589
0.088424
0.0884168
0.0884094
0.088402
0.0883946
0.0883871
0.0883796
0.0883719
0.0883642
0.0883563
0.0883483
0.0883401
0.0883317
0.0883231
0.0883143
0.0883052
0.0882958
0.088286
0.0882758
0.088265
0.0882536
0.0882415
0.0882286
0.088215
0.0882005
0.0881853
0.0881698
0.088155
0.0881426
0.0887049
0.0887003
0.0886957
0.0886911
0.0886864
0.0886817
0.088677
0.0886722
0.0886674
0.0886624
0.0886574
0.0886523
0.088647
0.0886416
0.088636
0.0886301
0.0886241
0.0886177
0.088611
0.0886039
0.0885963
0.0885882
0.0885796
0.0885704
0.0885607
0.0885507
0.0885408
0.0885318
0.0885252
0.0889111
0.0889087
0.0889062
0.0889037
0.0889013
0.0888988
0.0888963
0.0888938
0.0888912
0.0888886
0.088886
0.0888832
0.0888804
0.0888774
0.0888744
0.0888711
0.0888677
0.088864
0.0888601
0.0888559
0.0888514
0.0888464
0.0888411
0.0888355
0.0888296
0.0888237
0.0888181
0.0888137
0.0888116
0.0890484
0.0890475
0.0890465
0.0890456
0.0890447
0.0890438
0.0890429
0.089042
0.0890411
0.0890401
0.0890391
0.089038
0.0890369
0.0890357
0.0890344
0.089033
0.0890315
0.0890297
0.0890278
0.0890256
0.0890232
0.0890205
0.0890175
0.0890144
0.0890112
0.0890081
0.0890056
0.0890045
0.0890056
0.0891213
0.0891212
0.0891211
0.089121
0.089121
0.0891209
0.0891209
0.0891209
0.0891208
0.0891208
0.0891207
0.0891205
0.0891203
0.0891201
0.0891198
0.0891193
0.0891188
0.0891181
0.0891172
0.0891161
0.0891149
0.0891134
0.0891117
0.08911
0.0891082
0.0891068
0.089106
0.0891067
0.0891097
0.0891341
0.0891342
0.0891342
0.0891343
0.0891343
0.0891344
0.0891344
0.0891345
0.0891345
0.0891346
0.0891345
0.0891345
0.0891344
0.0891342
0.089134
0.0891337
0.0891332
0.0891326
0.0891318
0.0891309
0.0891298
0.0891284
0.0891269
0.0891253
0.0891238
0.0891226
0.0891222
0.0891232
0.0891267
0.0890662
0.0890652
0.0890642
0.0890632
0.0890621
0.089061
0.0890599
0.0890587
0.0890576
0.0890563
0.0890551
0.0890537
0.0890523
0.0890508
0.0890492
0.0890474
0.0890455
0.0890435
0.0890412
0.0890387
0.089036
0.089033
0.0890298
0.0890265
0.0890231
0.0890199
0.0890175
0.0890165
0.0890183
0.0889144
0.0889111
0.0889078
0.0889045
0.0889011
0.0888976
0.088894
0.0888904
0.0888867
0.0888829
0.0888789
0.0888749
0.0888708
0.0888665
0.088862
0.0888574
0.0888526
0.0888475
0.0888421
0.0888364
0.0888304
0.0888241
0.0888173
0.0888102
0.0888029
0.0887957
0.0887889
0.0887836
0.0887813
0.0886749
0.0886683
0.0886615
0.0886546
0.0886476
0.0886405
0.0886332
0.0886257
0.0886182
0.0886104
0.0886025
0.0885944
0.0885861
0.0885776
0.0885689
0.0885598
0.0885505
0.0885408
0.0885308
0.0885202
0.0885092
0.0884976
0.0884855
0.0884727
0.0884594
0.0884459
0.0884325
0.0884204
0.0884118
0.0883428
0.0883316
0.0883201
0.0883085
0.0882966
0.0882845
0.0882721
0.0882596
0.0882468
0.0882337
0.0882204
0.0882068
0.0881929
0.0881787
0.0881641
0.0881491
0.0881337
0.0881179
0.0881014
0.0880843
0.0880665
0.0880479
0.0880284
0.0880079
0.0879865
0.0879644
0.087942
0.0879207
0.0879034
0.0879117
0.0878946
0.0878772
0.0878594
0.0878413
0.0878229
0.0878041
0.087785
0.0877656
0.0877458
0.0877256
0.087705
0.0876839
0.0876624
0.0876405
0.0876179
0.0875948
0.087571
0.0875464
0.0875209
0.0874945
0.0874669
0.0874381
0.0874078
0.0873761
0.087343
0.0873091
0.0872759
0.0872474
0.0873736
0.0873492
0.0873244
0.0872991
0.0872734
0.0872473
0.0872206
0.0871935
0.0871659
0.0871378
0.0871092
0.08708
0.0870502
0.0870198
0.0869887
0.0869569
0.0869242
0.0868907
0.0868562
0.0868204
0.0867834
0.0867448
0.0867045
0.0866622
0.0866178
0.0865712
0.0865232
0.0864754
0.0864328
0.0867185
0.0866855
0.0866519
0.0866177
0.0865829
0.0865475
0.0865114
0.0864747
0.0864373
0.0863993
0.0863605
0.0863211
0.0862808
0.0862397
0.0861977
0.0861548
0.0861108
0.0860656
0.0860191
0.0859711
0.0859214
0.0858696
0.0858156
0.0857589
0.0856993
0.0856367
0.0855717
0.0855062
0.0854468
0.085935
0.0858918
0.0858479
0.0858031
0.0857576
0.0857113
0.0856642
0.0856162
0.0855674
0.0855176
0.085467
0.0854154
0.0853628
0.0853092
0.0852544
0.0851984
0.085141
0.0850821
0.0850216
0.0849592
0.0848945
0.0848274
0.0847573
0.0846838
0.0846064
0.0845249
0.0844399
0.0843536
0.084274
0.0850092
0.0849543
0.0848983
0.0848414
0.0847835
0.0847246
0.0846646
0.0846036
0.0845414
0.0844782
0.0844138
0.0843482
0.0842813
0.0842131
0.0841434
0.0840723
0.0839994
0.0839247
0.0838479
0.0837688
0.0836869
0.0836019
0.0835132
0.0834203
0.0833224
0.0832192
0.083111
0.0830005
0.0828974
0.0839252
0.0838568
0.0837871
0.0837163
0.0836441
0.0835707
0.0834961
0.0834201
0.0833427
0.083264
0.0831838
0.0831021
0.0830189
0.082934
0.0828473
0.0827588
0.0826682
0.0825753
0.0824799
0.0823817
0.0822802
0.0821748
0.082065
0.0819499
0.0818287
0.0817007
0.081566
0.0814278
0.0812975
0.082682
0.0825978
0.0825122
0.082425
0.0823363
0.0822461
0.0821542
0.0820607
0.0819656
0.0818688
0.0817702
0.0816697
0.0815673
0.0814629
0.0813564
0.0812476
0.0811363
0.0810222
0.0809051
0.0807846
0.0806601
0.0805311
0.0803967
0.0802559
0.0801077
0.079951
0.0797858
0.0796152
0.0794528
0.0812549
0.0811528
0.0810488
0.0809431
0.0808354
0.0807259
0.0806145
0.080501
0.0803856
0.080268
0.0801484
0.0800264
0.0799022
0.0797755
0.0796462
0.0795142
0.0793792
0.0792409
0.079099
0.078953
0.0788024
0.0786464
0.0784841
0.0783142
0.0781354
0.0779462
0.0777464
0.0775388
0.0773394
0.0795728
0.0794514
0.0793279
0.0792023
0.0790744
0.0789443
0.0788119
0.0786772
0.07854
0.0784004
0.0782583
0.0781135
0.0779659
0.0778155
0.077662
0.0775053
0.0773451
0.0771812
0.077013
0.0768401
0.0766618
0.0764773
0.0762855
0.076085
0.075874
0.0756507
0.0754142
0.0751672
0.0749277
0.0775774
0.0774361
0.0772923
0.0771461
0.0769973
0.0768459
0.0766918
0.0765351
0.0763756
0.0762132
0.0760479
0.0758796
0.0757081
0.0755333
0.075355
0.075173
0.074987
0.0747967
0.0746017
0.0744013
0.0741949
0.0739814
0.0737597
0.073528
0.0732844
0.0730265
0.0727529
0.0724653
0.0721838
0.0752618
0.0751021
0.0749398
0.0747746
0.0746067
0.0744358
0.0742621
0.0740853
0.0739055
0.0737225
0.0735362
0.0733466
0.0731535
0.0729567
0.0727561
0.0725514
0.0723423
0.0721284
0.0719093
0.0716844
0.0714529
0.0712136
0.0709653
0.070706
0.0704334
0.0701445
0.0698373
0.0695122
0.0691915
0.0726427
0.0724702
0.0722948
0.0721165
0.0719352
0.071751
0.0715637
0.0713732
0.0711796
0.0709826
0.0707822
0.0705783
0.0703708
0.0701594
0.069944
0.0697243
0.0695
0.0692707
0.069036
0.0687951
0.0685473
0.0682914
0.0680259
0.0677487
0.0674572
0.0671477
0.0668176
0.0664655
0.0661156
0.0696339
0.0694572
0.0692778
0.0690955
0.0689103
0.0687223
0.0685312
0.0683371
0.0681398
0.0679394
0.0677356
0.0675284
0.0673176
0.0671031
0.0668846
0.066662
0.0664348
0.0662028
0.0659653
0.0657218
0.0654713
0.0652127
0.0649443
0.0646639
0.0643687
0.0640543
0.0637174
0.0633542
0.0629912
0.0660878
0.0659205
0.0657507
0.0655784
0.0654036
0.0652262
0.0650462
0.0648635
0.064678
0.0644898
0.0642986
0.0641044
0.063907
0.0637063
0.0635021
0.0632942
0.0630822
0.0628658
0.0626444
0.0624175
0.062184
0.0619428
0.0616922
0.0614298
0.0611525
0.0608554
0.0605346
0.060183
0.0598301
0.0622777
0.0621275
0.0619752
0.0618207
0.0616642
0.0615054
0.0613445
0.0611813
0.0610158
0.0608479
0.0606775
0.0605046
0.060329
0.0601505
0.0599691
0.0597844
0.0595962
0.0594041
0.0592076
0.059006
0.0587985
0.0585837
0.0583599
0.0581248
0.0578748
0.0576045
0.0573094
0.056979
0.0566458
0.0586133
0.0584767
0.0583383
0.058198
0.0580559
0.0579119
0.0577659
0.057618
0.0574681
0.057316
0.0571619
0.0570054
0.0568466
0.0566853
0.0565214
0.0563545
0.0561845
0.0560109
0.0558332
0.0556508
0.0554628
0.055268
0.0550644
0.0548496
0.0546201
0.0543695
0.0540929
0.0537756
0.0534536
0.0548119
0.0546877
0.054562
0.0544346
0.0543056
0.0541749
0.0540424
0.0539082
0.0537722
0.0536343
0.0534944
0.0533525
0.0532083
0.0530617
0.0529126
0.0527605
0.0526052
0.0524462
0.0522828
0.0521141
0.0519388
0.0517551
0.0515603
0.0513509
0.0511198
0.0508612
0.0505563
0.0502439
0.0511291
0.0510191
0.0509077
0.0507949
0.0506807
0.050565
0.0504478
0.050329
0.0502087
0.0500867
0.049963
0.0498374
0.0497099
0.0495802
0.0494482
0.0493136
0.0491761
0.0490351
0.0488899
0.0487398
0.0485834
0.0484189
0.0482435
0.0480534
0.0478411
0.0475999
0.047306
0.0470004
0.0474067
0.0473104
0.0472129
0.0471142
0.0470142
0.046913
0.0468105
0.0467066
0.0466013
0.0464946
0.0463864
0.0462765
0.0461649
0.0460514
0.0459358
0.0458179
0.0456972
0.0455733
0.0454456
0.0453132
0.0451747
0.0450284
0.0448714
0.0446998
0.0445055
0.0442809
0.0439963
0.0436936
0.0435992
0.043516
0.0434318
0.0433465
0.0432601
0.0431727
0.0430841
0.0429943
0.0429034
0.0428112
0.0427176
0.0426226
0.0425261
0.0424279
0.0423279
0.0422256
0.0421209
0.0420132
0.041902
0.0417863
0.0416648
0.0415358
0.0413962
0.0412422
0.0410651
0.040856
0.040579
0.0402738
0.0396236
0.0395528
0.0394812
0.0394086
0.0393351
0.0392607
0.0391854
0.039109
0.0390316
0.0389531
0.0388735
0.0387926
0.0387104
0.0386266
0.0385412
0.0384538
0.0383642
0.0382718
0.0381761
0.0380762
0.0379709
0.0378582
0.0377354
0.0375981
0.0374376
0.0372432
0.0369722
0.0366585
0.0353242
0.0352654
0.0352058
0.0351454
0.0350843
0.0350224
0.0349597
0.0348961
0.0348317
0.0347663
0.0347
0.0346325
0.0345639
0.034494
0.0344226
0.0343494
0.0342742
0.0341965
0.0341157
0.034031
0.0339411
0.0338443
0.0337377
0.0336168
0.0334728
0.0332931
0.0330271
0.0326991
0.030372
0.0303249
0.0302773
0.030229
0.0301801
0.0301305
0.0300803
0.0300294
0.0299778
0.0299254
0.0298722
0.0298181
0.029763
0.0297068
0.0296492
0.0295902
0.0295293
0.0294663
0.0294004
0.0293309
0.0292567
0.029176
0.0290861
0.0289823
0.0288564
0.0286928
0.0284338
0.0280923
0.0238887
0.0238546
0.0238202
0.0237853
0.0237499
0.0237141
0.0236777
0.0236409
0.0236035
0.0235655
0.0235269
0.0234876
0.0234475
0.0234066
0.0233646
0.0233213
0.0232766
0.0232301
0.0231812
0.0231292
0.0230732
0.0230116
0.022942
0.0228599
0.0227582
0.0226194
0.0223846
0.0220725
0.0132426
0.0132295
0.0132163
0.0132028
0.0131892
0.0131753
0.0131612
0.0131468
0.0131322
0.0131173
0.013102
0.0130864
0.0130703
0.0130537
0.0130364
0.0130183
0.0129993
0.0129789
0.0129569
0.0129327
0.0129054
0.0128737
0.0128363
0.0127879
0.0127271
0.012627
0.0124744
0.0120687
0.0172437
0.0174805
0.0177081
0.0178886
0.0179992
0.0180717
0.0181311
0.0181826
0.0182267
0.018265
0.0182984
0.0183294
0.0183605
0.0183931
0.0184297
0.0184724
0.018524
0.0185839
0.0186588
0.0187358
0.0188525
0.0189271
0.0191626
0.0191465
0.0199723
0.0328074
0.0331895
0.033399
0.033552
0.0336509
0.0337047
0.0337299
0.0337348
0.0337216
0.0336918
0.0336466
0.0335866
0.0335172
0.0334416
0.0333632
0.033284
0.0332068
0.0331297
0.0330589
0.0329775
0.0329223
0.0328132
0.0328308
0.0326319
0.0332316
0.041429
0.0418312
0.0420811
0.0422593
0.0423795
0.0424503
0.0424835
0.0424872
0.042465
0.0424192
0.0423518
0.0422643
0.0421608
0.0420458
0.0419235
0.0417971
0.0416699
0.0415409
0.0414152
0.0412789
0.0411606
0.040998
0.0409324
0.0407132
0.0411722
0.0478038
0.0481648
0.0484044
0.0485766
0.0486954
0.0487671
0.0487996
0.048799
0.0487686
0.0487107
0.0486274
0.0485205
0.0483936
0.0482513
0.048098
0.0479376
0.0477737
0.0476061
0.0474389
0.0472622
0.0470962
0.0468971
0.0467681
0.0465454
0.0468821
0.0530206
0.0533393
0.0535592
0.0537172
0.0538262
0.0538914
0.053918
0.0539105
0.0538715
0.0538028
0.0537063
0.053584
0.0534387
0.0532749
0.0530972
0.0529096
0.0527158
0.0525164
0.0523147
0.0521037
0.0518979
0.0516668
0.0514857
0.0512527
0.0514862
0.0574847
0.0577659
0.0579653
0.058108
0.0582051
0.0582612
0.0582801
0.058265
0.0582178
0.0581398
0.0580326
0.0578979
0.0577383
0.0575577
0.0573607
0.0571513
0.056933
0.0567073
0.0564767
0.0562364
0.0559969
0.0557372
0.0555121
0.0552641
0.0554085
0.0613933
0.0616412
0.061821
0.061949
0.0620345
0.0620813
0.0620924
0.0620701
0.0620158
0.0619304
0.0618149
0.0616708
0.0615004
0.0613072
0.0610954
0.0608689
0.0606312
0.060384
0.0601296
0.0598647
0.0595966
0.059312
0.0590495
0.0587843
0.05885
0.0648592
0.0650769
0.0652379
0.0653524
0.0654271
0.0654655
0.0654696
0.0654413
0.0653813
0.0652903
0.065169
0.0650185
0.0648406
0.0646385
0.064416
0.0641767
0.0639241
0.06366
0.0633864
0.0631013
0.0628095
0.0625035
0.0622092
0.0619264
0.0619218
0.0679539
0.0681442
0.0682874
0.0683892
0.0684543
0.0684852
0.0684836
0.0684505
0.0683866
0.068292
0.0681672
0.0680129
0.0678307
0.0676231
0.0673936
0.0671456
0.0668822
0.0666054
0.0663168
0.0660156
0.0657046
0.0653807
0.0650597
0.0647599
0.0646921
0.0707274
0.0708926
0.0710188
0.0711087
0.0711652
0.0711899
0.0711837
0.0711474
0.0710811
0.0709849
0.0708588
0.0707033
0.0705194
0.0703094
0.0700763
0.0698231
0.0695527
0.0692671
0.0689675
0.0686541
0.0683278
0.0679895
0.067646
0.0673302
0.0672059
0.0732163
0.0733587
0.0734689
0.0735478
0.0735966
0.073616
0.0736065
0.0735683
0.0735013
0.0734051
0.0732797
0.0731251
0.0729421
0.0727325
0.0724988
0.0722436
0.0719695
0.0716786
0.0713716
0.0710494
0.0707116
0.0703621
0.0700002
0.0696696
0.0694949
0.0754495
0.0755713
0.0756667
0.0757353
0.0757771
0.0757922
0.0757804
0.0757415
0.0756752
0.0755807
0.0754577
0.0753061
0.0751262
0.0749193
0.0746876
0.0744332
0.0741585
0.0738652
0.073554
0.0732263
0.0728803
0.0725224
0.0721456
0.0718019
0.0715823
0.0774506
0.0775539
0.0776358
0.0776949
0.0777305
0.077742
0.0777289
0.0776904
0.0776258
0.0775344
0.0774153
0.0772683
0.0770933
0.0768913
0.0766637
0.0764127
0.0761398
0.075847
0.0755343
0.0752039
0.0748526
0.074489
0.0741005
0.0737456
0.073486
0.0792397
0.0793266
0.0793961
0.0794465
0.0794767
0.0794854
0.0794716
0.0794344
0.0793726
0.0792853
0.0791714
0.0790304
0.0788618
0.0786663
0.0784448
0.078199
0.0779302
0.07764
0.0773284
0.0769976
0.0766436
0.0762767
0.0758793
0.075515
0.0752199
0.0808341
0.0809065
0.080965
0.0810077
0.0810331
0.0810395
0.0810258
0.0809905
0.0809323
0.0808499
0.0807422
0.0806082
0.0804473
0.0802595
0.0800456
0.0798067
0.0795438
0.0792582
0.0789495
0.0786204
0.0782658
0.0778975
0.0774937
0.0771218
0.0767955
0.0822493
0.0823091
0.0823579
0.0823938
0.082415
0.0824198
0.0824065
0.0823736
0.0823196
0.0822428
0.082142
0.0820158
0.0818633
0.0816843
0.0814791
0.0812483
0.0809926
0.080713
0.0804089
0.0800832
0.0797298
0.0793618
0.0789537
0.0785758
0.0782222
0.0834991
0.0835481
0.0835885
0.0836185
0.0836361
0.0836397
0.0836274
0.0835973
0.0835477
0.083477
0.0833833
0.0832654
0.083122
0.0829525
0.0827566
0.0825348
0.0822872
0.0820148
0.0817165
0.0813954
0.0810447
0.0806783
0.0802677
0.0798852
0.0795079
0.084596
0.0846359
0.0846691
0.084694
0.0847088
0.0847116
0.0847004
0.0846734
0.0846285
0.0845639
0.0844777
0.0843683
0.0842342
0.0840743
0.0838883
0.0836759
0.0834371
0.0831725
0.0828809
0.0825653
0.0822183
0.0818546
0.0814428
0.0810571
0.0806594
0.0855516
0.0855837
0.0856109
0.0856316
0.085644
0.0856464
0.0856366
0.0856127
0.0855726
0.0855141
0.0854353
0.0853344
0.0852094
0.0850593
0.0848831
0.0846803
0.0844505
0.0841941
0.0839096
0.0836
0.0832575
0.0828972
0.0824854
0.0820975
0.0816823
0.086376
0.0864019
0.086424
0.0864412
0.0864518
0.0864539
0.0864457
0.0864249
0.0863894
0.0863369
0.0862653
0.0861724
0.0860565
0.0859157
0.085749
0.0855557
0.0853348
0.0850866
0.0848093
0.0845061
0.0841683
0.0838118
0.0834009
0.0830115
0.0825816
0.0870787
0.0870993
0.0871174
0.0871317
0.0871409
0.0871431
0.0871364
0.0871187
0.0870875
0.0870406
0.0869757
0.0868905
0.0867829
0.086651
0.0864933
0.0863089
0.0860965
0.0858562
0.085586
0.0852889
0.0849561
0.0846036
0.084194
0.0838038
0.0833617
0.0876678
0.0876841
0.0876989
0.087711
0.0877192
0.0877216
0.0877165
0.0877015
0.0876743
0.0876326
0.0875738
0.0874955
0.0873955
0.0872716
0.0871222
0.0869459
0.0867412
0.0865083
0.0862446
0.0859534
0.0856253
0.0852766
0.0848687
0.0844782
0.0840262
0.0881502
0.0881633
0.0881754
0.0881859
0.0881933
0.0881962
0.0881925
0.08818
0.0881564
0.0881192
0.0880657
0.0879935
0.0879001
0.0877833
0.087641
0.0874718
0.087274
0.0870474
0.0867896
0.0865036
0.0861799
0.0858348
0.0854286
0.085038
0.0845781
0.088532
0.0885426
0.0885528
0.0885621
0.0885691
0.0885724
0.08857
0.0885598
0.0885392
0.0885057
0.0884567
0.0883895
0.0883016
0.0881906
0.0880542
0.0878909
0.0876988
0.0874776
0.0872247
0.086943
0.086623
0.0862809
0.0858765
0.0854857
0.08502
0.088818
0.0888268
0.0888358
0.0888443
0.0888512
0.088855
0.0888537
0.0888452
0.088827
0.0887965
0.088751
0.0886877
0.088604
0.0884974
0.0883656
0.0882068
0.0880191
0.0878019
0.0875527
0.0872745
0.0869574
0.0866176
0.0862147
0.0858236
0.085354
0.0890118
0.0890196
0.0890279
0.0890361
0.0890431
0.0890473
0.089047
0.0890399
0.0890234
0.088995
0.0889519
0.0888913
0.0888105
0.0887068
0.088578
0.0884221
0.0882372
0.0880228
0.0877761
0.0875001
0.0871851
0.0868467
0.086445
0.0860532
0.0855818
0.089116
0.0891235
0.0891317
0.08914
0.0891473
0.0891521
0.0891524
0.0891462
0.0891308
0.0891035
0.0890617
0.0890024
0.088923
0.0888208
0.0886933
0.0885388
0.0883551
0.0881419
0.0878964
0.0876213
0.0873074
0.0869695
0.0865688
0.0861757
0.0857043
0.0891336
0.0891415
0.0891503
0.0891591
0.089167
0.0891723
0.0891732
0.0891674
0.0891523
0.0891254
0.0890837
0.0890244
0.0889449
0.0888424
0.0887146
0.0885597
0.0883756
0.088162
0.0879162
0.0876408
0.0873269
0.0869884
0.0865884
0.0861935
0.085724
0.0890261
0.0890357
0.0890459
0.089056
0.0890648
0.0890707
0.0890718
0.0890657
0.0890501
0.089022
0.0889787
0.0889176
0.0888357
0.0887306
0.0886
0.0884422
0.0882553
0.088039
0.0877908
0.0875132
0.0871978
0.0868575
0.0864572
0.0860603
0.0855943
0.0887905
0.0888028
0.0888153
0.0888272
0.0888372
0.0888438
0.0888447
0.0888378
0.0888204
0.0887898
0.0887433
0.0886783
0.0885919
0.0884819
0.0883462
0.0881831
0.0879911
0.0877699
0.0875174
0.0872359
0.0869174
0.0865743
0.0861725
0.0857741
0.0853127
0.0884228
0.0884389
0.0884546
0.088469
0.0884806
0.0884877
0.0884882
0.0884796
0.0884595
0.0884251
0.0883738
0.088303
0.0882101
0.088093
0.0879498
0.0877793
0.0875801
0.0873521
0.0870934
0.0868065
0.0864834
0.0861366
0.0857326
0.085333
0.0848775
0.0879166
0.0879378
0.0879578
0.0879753
0.0879889
0.0879966
0.0879963
0.0879854
0.0879616
0.0879221
0.0878644
0.0877861
0.0876849
0.0875587
0.0874061
0.087226
0.0870177
0.0867812
0.0865149
0.0862213
0.0858926
0.0855412
0.0851344
0.0847341
0.0842865
0.0872634
0.0872911
0.0873164
0.0873378
0.0873538
0.0873622
0.0873607
0.087347
0.0873186
0.0872728
0.0872074
0.0871201
0.0870088
0.0868718
0.086708
0.0865169
0.086298
0.0860516
0.0857764
0.0854751
0.08514
0.0847837
0.084374
0.0839735
0.083536
0.0864525
0.0864882
0.08652
0.0865462
0.086565
0.0865741
0.0865713
0.0865541
0.0865203
0.0864673
0.086393
0.0862954
0.0861727
0.0860235
0.0858472
0.0856438
0.0854131
0.0851559
0.0848711
0.0845615
0.0842197
0.0838584
0.0834459
0.0830462
0.0826214
0.085471
0.0855164
0.085556
0.0855878
0.0856099
0.0856198
0.0856154
0.0855944
0.0855544
0.0854934
0.0854094
0.0853005
0.0851653
0.085003
0.0848134
0.0845968
0.0843537
0.0840853
0.0837906
0.0834728
0.0831243
0.0827583
0.0823437
0.081946
0.0815369
0.0843039
0.084361
0.0844097
0.0844481
0.0844738
0.0844846
0.0844785
0.0844531
0.0844066
0.084337
0.0842425
0.0841218
0.0839736
0.0837977
0.0835943
0.0833644
0.0831088
0.0828293
0.0825251
0.0821994
0.0818449
0.0814751
0.0810595
0.0806655
0.0802752
0.0829343
0.083005
0.0830643
0.0831099
0.0831398
0.0831516
0.0831435
0.0831136
0.0830602
0.0829817
0.0828765
0.0827437
0.0825824
0.0823929
0.0821759
0.081933
0.0816656
0.0813757
0.0810628
0.0807304
0.0803711
0.0799989
0.0795838
0.0791955
0.0788279
0.0813429
0.0814293
0.0815005
0.0815542
0.0815883
0.0816011
0.0815909
0.0815564
0.0814961
0.0814086
0.0812929
0.0811483
0.0809744
0.0807718
0.080542
0.0802872
0.0800091
0.0797102
0.0793903
0.0790529
0.0786905
0.0783178
0.0779053
0.0775256
0.0771845
0.0795083
0.0796124
0.0796965
0.0797587
0.0797973
0.079811
0.0797987
0.0797595
0.0796924
0.0795964
0.0794708
0.0793152
0.0791297
0.0789153
0.0786742
0.0784091
0.0781223
0.0778165
0.0774917
0.0771517
0.0767887
0.0764182
0.0760107
0.0756426
0.0753323
0.077406
0.0775294
0.0776272
0.0776981
0.0777411
0.0777555
0.077741
0.0776974
0.0776241
0.0775204
0.077386
0.0772208
0.0770253
0.0768011
0.0765509
0.0762779
0.0759849
0.0756752
0.0753483
0.0750088
0.0746481
0.074283
0.0738835
0.0735311
0.073256
0.0750073
0.0751513
0.0752632
0.0753426
0.0753895
0.0754045
0.075388
0.0753405
0.0752619
0.0751519
0.0750103
0.0748375
0.0746343
0.074403
0.0741466
0.0738689
0.0735732
0.0732629
0.0729377
0.0726023
0.0722476
0.0718919
0.0715037
0.0711714
0.0709359
0.0722776
0.0724431
0.0725689
0.0726563
0.0727067
0.072722
0.0727038
0.0726533
0.0725707
0.0724562
0.0723098
0.0721321
0.0719243
0.0716892
0.0714303
0.0711519
0.0708574
0.0705508
0.0702316
0.0699048
0.0695602
0.0692185
0.0688454
0.0685386
0.0683468
0.0693056
0.0694933
0.069632
0.0697261
0.0697791
0.0697946
0.0697754
0.0697232
0.0696387
0.0695223
0.0693741
0.0691948
0.0689862
0.0687514
0.0684943
0.0682196
0.067931
0.0676328
0.0673239
0.0670102
0.06668
0.0663568
0.066002
0.0657252
0.0655792
0.0662549
0.0664645
0.0666148
0.0667145
0.0667698
0.0667859
0.0667669
0.0667148
0.0666307
0.0665151
0.0663681
0.0661908
0.0659849
0.0657542
0.0655028
0.0652358
0.064957
0.0646708
0.0643758
0.0640785
0.0637657
0.0634637
0.0631295
0.0628843
0.0627835
0.0631628
0.0633937
0.0635544
0.0636589
0.0637164
0.0637339
0.0637162
0.063666
0.0635844
0.0634719
0.0633289
0.0631563
0.0629563
0.0627329
0.0624905
0.0622343
0.0619683
0.061697
0.0614187
0.0611401
0.0608471
0.060568
0.0602563
0.0600424
0.0599865
0.0600456
0.0602978
0.0604676
0.0605762
0.060636
0.0606555
0.0606404
0.0605935
0.060516
0.0604087
0.0602717
0.0601063
0.0599147
0.0597011
0.0594701
0.0592273
0.0589764
0.0587222
0.0584625
0.0582043
0.0579328
0.0576776
0.0573898
0.057206
0.0571945
0.0569141
0.0571865
0.0573641
0.0574764
0.0575386
0.0575608
0.0575491
0.0575065
0.0574346
0.0573339
0.0572047
0.0570482
0.0568668
0.056665
0.0564475
0.0562198
0.0559858
0.0557501
0.0555104
0.0552736
0.0550248
0.0547936
0.0545309
0.0543753
0.0544075
0.0537728
0.0540627
0.0542464
0.0543619
0.0544266
0.0544519
0.0544441
0.0544068
0.0543413
0.0542483
0.054128
0.0539817
0.053812
0.0536235
0.0534208
0.0532095
0.0529936
0.0527774
0.0525586
0.0523436
0.0521181
0.0519106
0.0516739
0.051544
0.0516192
0.0506164
0.0509207
0.051109
0.0512271
0.0512942
0.0513225
0.0513191
0.0512873
0.0512288
0.0511441
0.0510336
0.0508984
0.0507414
0.0505671
0.0503802
0.0501863
0.0499891
0.049793
0.0495954
0.0494024
0.0492004
0.0490159
0.0488057
0.0486988
0.0488161
0.0474295
0.0477448
0.0479363
0.0480565
0.0481254
0.0481564
0.0481571
0.048131
0.0480796
0.0480036
0.0479034
0.04778
0.0476363
0.0474769
0.0473064
0.0471304
0.0469524
0.0467764
0.0466003
0.046429
0.0462507
0.0460881
0.0459049
0.0458176
0.0459763
0.044184
0.0445066
0.0446998
0.044821
0.0448906
0.0449237
0.044928
0.0449073
0.0448631
0.0447959
0.0447062
0.0445949
0.0444651
0.044321
0.0441674
0.0440096
0.043851
0.0436952
0.0435404
0.0433903
0.0432355
0.0430937
0.0429379
0.0428668
0.0430664
0.0408329
0.0411578
0.041351
0.0414717
0.0415402
0.041574
0.0415813
0.0415655
0.0415282
0.04147
0.0413909
0.0412919
0.0411763
0.0410481
0.0409117
0.0407722
0.0406332
0.0404975
0.040364
0.0402346
0.0401033
0.0399811
0.0398532
0.0397941
0.0400348
0.0372973
0.0376167
0.037807
0.0379246
0.0379894
0.0380223
0.0380316
0.0380202
0.0379897