/*--------------------------------*- C++ -*----------------------------------*\
  =========                 |
  \\      /  F ield         | OpenFOAM: The Open Source CFD Toolbox
   \\    /   O peration     | Website:  https://openfoam.org
    \\  /    A nd           | Version:  6
     \\/     M anipulation  |
\*---------------------------------------------------------------------------*/
FoamFile
{
    version     2.0;
    format      ascii;
    class       volScalarField;
    location    "0.08";
    object      nut;
}
// * * * * * * * * * * * * * * * * * * * * * * * * * * * * * * * * * * * * * //

dimensions      [0 2 -1 0 0 0 0];

internalField   nonuniform List<scalar> 
3080
(
1.44363e-05
1.44105e-05
1.43847e-05
1.43586e-05
1.43323e-05
1.43059e-05
1.42792e-05
1.42523e-05
1.42252e-05
1.41979e-05
1.41703e-05
1.41425e-05
1.41143e-05
1.40858e-05
1.4057e-05
1.40278e-05
1.39981e-05
1.39679e-05
1.3937e-05
1.39053e-05
1.38725e-05
1.38385e-05
1.38027e-05
1.37643e-05
1.37224e-05
1.36749e-05
1.36181e-05
1.35443e-05
1.34392e-05
1.32734e-05
0.000109575
0.000109396
0.000109217
0.000109036
0.000108853
0.000108669
0.000108482
0.000108294
0.000108104
0.000107912
0.000107717
0.000107519
0.000107318
0.000107114
0.000106905
0.000106692
0.000106472
0.000106245
0.000106008
0.000105758
0.000105491
0.000105201
0.000104878
0.000104505
0.000104056
0.000103477
0.000102658
0.000101397
9.9077e-05
9.54139e-05
0.000211277
0.000210982
0.000210684
0.000210384
0.000210082
0.000209776
0.000209468
0.000209156
0.000208841
0.000208522
0.000208198
0.00020787
0.000207535
0.000207195
0.000206847
0.00020649
0.000206121
0.00020574
0.00020534
0.000204918
0.000204466
0.000203973
0.000203423
0.000202789
0.000202028
0.000201062
0.000199738
0.000197773
0.00019448
0.000189278
0.000296426
0.000296058
0.000295688
0.000295314
0.000294937
0.000294557
0.000294173
0.000293785
0.000293392
0.000292994
0.000292591
0.000292181
0.000291765
0.00029134
0.000290906
0.00029046
0.00029
0.000289523
0.000289024
0.000288496
0.000287931
0.000287315
0.000286629
0.000285842
0.000284905
0.000283734
0.000282174
0.000279951
0.000276527
0.000271544
0.000367425
0.000367012
0.000366595
0.000366176
0.000365753
0.000365326
0.000364895
0.000364459
0.000364018
0.000363572
0.000363119
0.000362659
0.000362191
0.000361714
0.000361227
0.000360726
0.000360209
0.000359673
0.000359112
0.00035852
0.000357886
0.000357196
0.00035643
0.000355555
0.000354521
0.000353246
0.000351589
0.000349315
0.00034604
0.000341634
0.000427415
0.000426973
0.000426529
0.000426081
0.00042563
0.000425174
0.000424714
0.000424249
0.000423779
0.000423303
0.00042282
0.00042233
0.000421831
0.000421322
0.000420802
0.000420268
0.000419717
0.000419145
0.000418548
0.000417917
0.000417243
0.00041651
0.000415699
0.000414777
0.000413697
0.000412382
0.000410708
0.000408485
0.000405455
0.000401629
0.000478753
0.000478295
0.000477835
0.000477371
0.000476904
0.000476432
0.000475956
0.000475475
0.000474988
0.000474495
0.000473995
0.000473488
0.000472971
0.000472444
0.000471906
0.000471353
0.000470783
0.000470192
0.000469575
0.000468924
0.000468229
0.000467475
0.000466643
0.000465703
0.000464609
0.000463294
0.000461652
0.000459534
0.000456771
0.000453452
0.00052314
0.000522674
0.000522206
0.000521736
0.000521261
0.000520783
0.0005203
0.000519811
0.000519317
0.000518817
0.00051831
0.000517794
0.00051727
0.000516736
0.000516189
0.000515629
0.000515051
0.000514452
0.000513827
0.000513168
0.000512466
0.000511707
0.000510872
0.000509933
0.000508849
0.00050756
0.000505979
0.000503992
0.00050149
0.0004986
0.000561812
0.000561346
0.000560877
0.000560406
0.000559932
0.000559453
0.00055897
0.000558482
0.000557988
0.000557487
0.00055698
0.000556464
0.00055594
0.000555405
0.000554859
0.000554298
0.000553721
0.000553123
0.000552499
0.000551843
0.000551144
0.000550391
0.000549566
0.000548642
0.000547584
0.00054634
0.000544838
0.000542991
0.000540735
0.000538207
0.00059569
0.000595228
0.000594766
0.0005943
0.000593831
0.000593359
0.000592881
0.000592398
0.00059191
0.000591415
0.000590913
0.000590403
0.000589885
0.000589356
0.000588816
0.000588262
0.000587692
0.000587101
0.000586486
0.00058584
0.000585153
0.000584415
0.000583608
0.000582711
0.00058169
0.000580502
0.00057909
0.000577386
0.000575356
0.000573135
0.000625472
0.000625023
0.000624571
0.000624116
0.000623657
0.000623194
0.000622727
0.000622254
0.000621776
0.000621291
0.0006208
0.000620301
0.000619793
0.000619275
0.000618747
0.000618205
0.000617647
0.00061707
0.000616469
0.000615839
0.000615171
0.000614454
0.000613674
0.000612811
0.000611836
0.000610713
0.000609394
0.000607831
0.000606008
0.000604051
0.000651273
0.000650837
0.000650396
0.000649951
0.000649502
0.000649049
0.00064859
0.000648126
0.000647656
0.000647179
0.000646695
0.000646202
0.0006457
0.000645187
0.000644661
0.00064412
0.000643561
0.00064298
0.000642371
0.000641726
0.000641037
0.00064029
0.000639467
0.000638544
0.00063749
0.000636267
0.00063484
0.000633205
0.000631477
0.00067442
0.000673998
0.000673573
0.000673145
0.000672713
0.000672277
0.000671836
0.00067139
0.000670937
0.000670478
0.000670012
0.000669538
0.000669055
0.000668561
0.000668056
0.000667536
0.000666999
0.000666441
0.000665857
0.000665241
0.000664584
0.000663874
0.000663095
0.000662228
0.000661246
0.00066012
0.000658823
0.00065736
0.000655832
0.000694807
0.000694403
0.000693997
0.000693589
0.000693177
0.000692761
0.00069234
0.000691914
0.000691483
0.000691045
0.0006906
0.000690148
0.000689687
0.000689216
0.000688734
0.000688238
0.000687726
0.000687195
0.000686641
0.000686056
0.000685434
0.000684765
0.000684034
0.000683226
0.000682317
0.000681286
0.000680113
0.000678806
0.000677457
0.000712723
0.00071234
0.000711956
0.00071157
0.00071118
0.000710787
0.00071039
0.000709987
0.000709579
0.000709165
0.000708745
0.000708317
0.000707881
0.000707435
0.000706979
0.00070651
0.000706027
0.000705526
0.000705003
0.000704453
0.00070387
0.000703244
0.000702564
0.000701815
0.000700981
0.000700042
0.000698986
0.000697823
0.000696633
0.000728559
0.000728197
0.000727833
0.000727467
0.000727098
0.000726726
0.000726349
0.000725968
0.000725581
0.000725189
0.00072479
0.000724384
0.00072397
0.000723547
0.000723115
0.00072267
0.000722212
0.000721738
0.000721244
0.000720726
0.000720177
0.000719591
0.000718957
0.000718264
0.000717497
0.000716642
0.00071569
0.000714652
0.000713598
0.000742217
0.000741881
0.000741544
0.000741206
0.000740865
0.00074052
0.000740172
0.000739818
0.00073946
0.000739096
0.000738726
0.000738349
0.000737965
0.000737572
0.000737171
0.000736758
0.000736333
0.000735894
0.000735436
0.000734956
0.00073445
0.000733911
0.00073333
0.000732698
0.000732003
0.000731235
0.000730387
0.00072947
0.000728545
0.000753683
0.000753385
0.000753087
0.000752788
0.000752487
0.000752182
0.000751874
0.000751562
0.000751244
0.000750922
0.000750593
0.000750259
0.000749918
0.000749569
0.000749212
0.000748845
0.000748467
0.000748076
0.000747669
0.000747243
0.000746793
0.000746315
0.000745802
0.000745244
0.000744634
0.000743963
0.000743227
0.000742438
0.000741645
0.000763289
0.000763036
0.000762783
0.000762529
0.000762274
0.000762016
0.000761755
0.00076149
0.00076122
0.000760946
0.000760666
0.000760381
0.00076009
0.000759792
0.000759487
0.000759173
0.00075885
0.000758515
0.000758166
0.000757801
0.000757416
0.000757006
0.000756567
0.00075609
0.00075557
0.000755
0.000754378
0.000753714
0.00075305
0.000771299
0.000771092
0.000770886
0.00077068
0.000770474
0.000770265
0.000770053
0.000769837
0.000769618
0.000769394
0.000769165
0.000768932
0.000768694
0.00076845
0.000768199
0.000767941
0.000767675
0.000767399
0.000767111
0.000766809
0.000766491
0.000766152
0.000765787
0.000765393
0.000764963
0.000764492
0.00076398
0.000763436
0.000762895
0.000777922
0.00077776
0.000777601
0.000777443
0.000777284
0.000777123
0.000776959
0.000776793
0.000776623
0.000776449
0.000776271
0.000776089
0.000775902
0.000775711
0.000775514
0.000775311
0.000775101
0.000774883
0.000774655
0.000774416
0.000774162
0.000773891
0.0007736
0.000773284
0.000772939
0.000772563
0.000772154
0.000771721
0.000771292
0.000783327
0.000783208
0.000783093
0.000782979
0.000782865
0.000782749
0.000782631
0.00078251
0.000782386
0.000782259
0.000782128
0.000781994
0.000781856
0.000781715
0.000781568
0.000781417
0.000781259
0.000781095
0.000780923
0.000780742
0.000780549
0.000780342
0.000780118
0.000779875
0.000779608
0.000779317
0.000779001
0.000778668
0.000778339
0.00078765
0.00078757
0.000787494
0.00078742
0.000787346
0.00078727
0.000787193
0.000787113
0.00078703
0.000786945
0.000786856
0.000786765
0.000786671
0.000786573
0.000786472
0.000786366
0.000786256
0.000786141
0.000786018
0.000785888
0.000785749
0.000785599
0.000785435
0.000785256
0.000785059
0.000784842
0.000784608
0.000784361
0.000784118
0.000791001
0.000790954
0.000790911
0.00079087
0.00079083
0.000790789
0.000790745
0.0007907
0.000790653
0.000790603
0.00079055
0.000790495
0.000790438
0.000790378
0.000790315
0.000790248
0.000790178
0.000790104
0.000790024
0.000789938
0.000789844
0.000789742
0.000789629
0.000789503
0.000789364
0.000789211
0.000789043
0.000788868
0.000788698
0.000793466
0.000793445
0.000793428
0.000793414
0.0007934
0.000793386
0.00079337
0.000793352
0.000793332
0.00079331
0.000793286
0.00079326
0.000793232
0.000793201
0.000793168
0.000793133
0.000793094
0.000793052
0.000793006
0.000792954
0.000792897
0.000792832
0.000792759
0.000792677
0.000792583
0.000792479
0.000792365
0.000792245
0.000792131
0.000795113
0.00079511
0.000795113
0.000795117
0.000795122
0.000795126
0.000795129
0.00079513
0.000795129
0.000795127
0.000795123
0.000795117
0.000795109
0.0007951
0.000795088
0.000795074
0.000795058
0.000795039
0.000795016
0.000794989
0.000794957
0.000794919
0.000794874
0.000794821
0.00079476
0.00079469
0.000794613
0.000794533
0.000794458
0.000795995
0.000796003
0.000796015
0.000796029
0.000796043
0.000796057
0.00079607
0.000796081
0.000796091
0.000796099
0.000796105
0.00079611
0.000796113
0.000796115
0.000796115
0.000796113
0.000796108
0.000796101
0.000796091
0.000796077
0.000796059
0.000796035
0.000796006
0.000795969
0.000795925
0.000795875
0.000795818
0.000795761
0.000795708
0.000796165
0.000796174
0.000796186
0.0007962
0.000796214
0.000796229
0.000796242
0.000796253
0.000796263
0.000796272
0.000796279
0.000796285
0.000796289
0.000796291
0.000796292
0.00079629
0.000796287
0.000796281
0.000796272
0.000796259
0.000796242
0.00079622
0.000796192
0.000796157
0.000796115
0.000796067
0.000796014
0.00079596
0.000795913
0.00079537
0.000795365
0.000795363
0.000795362
0.000795362
0.000795361
0.000795359
0.000795356
0.000795351
0.000795344
0.000795335
0.000795325
0.000795312
0.000795298
0.000795282
0.000795264
0.000795243
0.000795219
0.000795191
0.00079516
0.000795123
0.000795081
0.000795032
0.000794975
0.00079491
0.000794838
0.000794759
0.000794681
0.000794611
0.000793568
0.000793536
0.000793506
0.000793476
0.000793447
0.000793416
0.000793384
0.00079335
0.000793313
0.000793275
0.000793234
0.000793191
0.000793146
0.000793098
0.000793048
0.000792995
0.000792938
0.000792878
0.000792813
0.000792742
0.000792666
0.000792582
0.00079249
0.000792388
0.000792275
0.000792151
0.00079202
0.000791887
0.000791766
0.000790718
0.000790645
0.000790572
0.0007905
0.000790426
0.000790351
0.000790273
0.000790193
0.00079011
0.000790024
0.000789935
0.000789843
0.000789748
0.000789649
0.000789547
0.000789441
0.00078933
0.000789215
0.000789093
0.000788964
0.000788827
0.000788681
0.000788522
0.000788351
0.000788165
0.000787964
0.000787751
0.000787534
0.000787334
0.000786764
0.000786635
0.000786505
0.000786375
0.000786242
0.000786107
0.000785968
0.000785826
0.00078568
0.00078553
0.000785377
0.000785219
0.000785056
0.000784889
0.000784718
0.00078454
0.000784357
0.000784167
0.000783969
0.000783761
0.000783542
0.000783311
0.000783064
0.000782799
0.000782515
0.000782209
0.000781885
0.000781554
0.000781244
0.000781631
0.000781432
0.000781231
0.000781027
0.00078082
0.000780609
0.000780393
0.000780172
0.000779947
0.000779716
0.00077948
0.000779238
0.000778991
0.000778737
0.000778477
0.00077821
0.000777934
0.000777649
0.000777354
0.000777046
0.000776724
0.000776385
0.000776025
0.000775642
0.000775232
0.000774792
0.000774327
0.000773849
0.000773398
0.000775229
0.000774944
0.000774655
0.000774362
0.000774064
0.00077376
0.00077345
0.000773134
0.000772811
0.000772481
0.000772144
0.000771801
0.000771449
0.000771089
0.000770721
0.000770343
0.000769954
0.000769554
0.000769139
0.000768709
0.00076826
0.000767789
0.000767292
0.000766764
0.0007662
0.000765597
0.000764957
0.000764299
0.000763672
0.000767445
0.000767057
0.000766663
0.000766263
0.000765857
0.000765442
0.00076502
0.00076459
0.000764151
0.000763703
0.000763247
0.000762781
0.000762305
0.000761818
0.00076132
0.00076081
0.000760287
0.000759748
0.000759192
0.000758615
0.000758015
0.000757387
0.000756725
0.000756023
0.000755276
0.000754477
0.000753629
0.000752752
0.000751912
0.000758143
0.000757634
0.000757118
0.000756593
0.000756059
0.000755515
0.000754961
0.000754397
0.000753822
0.000753236
0.000752638
0.000752028
0.000751406
0.000750771
0.000750121
0.000749456
0.000748773
0.000748072
0.000747349
0.0007466
0.000745822
0.000745009
0.000744155
0.00074325
0.000742287
0.000741258
0.000740164
0.000739028
0.000737933
0.00074716
0.000746511
0.000745852
0.000745182
0.000744501
0.000743807
0.0007431
0.000742381
0.000741648
0.000740901
0.00074014
0.000739363
0.000738571
0.000737763
0.000736937
0.000736091
0.000735225
0.000734334
0.000733417
0.00073247
0.000731486
0.000730459
0.000729381
0.000728242
0.000727029
0.000725733
0.000724352
0.000722912
0.000721517
0.0007343
0.000733491
0.000732669
0.000731833
0.000730982
0.000730115
0.000729233
0.000728335
0.000727421
0.000726489
0.000725539
0.000724572
0.000723584
0.000722577
0.000721548
0.000720495
0.000719416
0.000718309
0.000717169
0.000715992
0.000714771
0.000713499
0.000712166
0.000710757
0.000709259
0.000707657
0.000705945
0.000704153
0.000702404
0.000719541
0.000718544
0.00071753
0.000716499
0.000715449
0.00071438
0.000713293
0.000712185
0.000711057
0.000709908
0.000708737
0.000707544
0.000706327
0.000705085
0.000703816
0.000702519
0.00070119
0.000699827
0.000698425
0.000696979
0.00069548
0.00069392
0.000692287
0.000690563
0.000688731
0.000686771
0.000684672
0.000682462
0.00068029
0.000702568
0.000701355
0.00070012
0.000698864
0.000697585
0.000696283
0.000694958
0.000693608
0.000692234
0.000690834
0.000689407
0.000687953
0.00068647
0.000684956
0.000683411
0.000681831
0.000680213
0.000678553
0.000676848
0.000675089
0.00067327
0.000671377
0.000669398
0.000667313
0.000665098
0.000662726
0.00066018
0.000657484
0.00065481
0.000682496
0.000681047
0.000679572
0.000678072
0.000676544
0.000674989
0.000673406
0.000671794
0.000670152
0.00066848
0.000666775
0.000665038
0.000663267
0.000661459
0.000659613
0.000657726
0.000655795
0.000653815
0.00065178
0.000649684
0.000647518
0.000645267
0.000642915
0.00064044
0.000637813
0.000634998
0.000631968
0.000628736
0.000625496
0.000658558
0.000656859
0.00065513
0.000653371
0.00065158
0.000649756
0.0006479
0.00064601
0.000644085
0.000642124
0.000640126
0.000638089
0.000636013
0.000633894
0.00063173
0.000629519
0.000627257
0.000624939
0.000622558
0.000620107
0.000617576
0.000614949
0.000612207
0.000609325
0.000606267
0.000602988
0.000599447
0.00059564
0.000591774
0.000630558
0.00062862
0.000626648
0.000624641
0.000622598
0.000620519
0.000618403
0.000616249
0.000614055
0.00061182
0.000609544
0.000607224
0.000604858
0.000602445
0.000599982
0.000597466
0.000594891
0.000592255
0.000589548
0.000586764
0.000583891
0.000580912
0.000577807
0.000574545
0.000571085
0.000567372
0.000563346
0.000558974
0.000554474
0.000598551
0.00059643
0.000594272
0.000592078
0.000589845
0.000587573
0.000585261
0.000582909
0.000580514
0.000578076
0.000575593
0.000573063
0.000570485
0.000567856
0.000565173
0.000562434
0.000559633
0.000556765
0.000553824
0.000550801
0.000547682
0.000544452
0.000541088
0.000537556
0.000533809
0.000529781
0.000525392
0.000520571
0.000515529
0.000561275
0.000559068
0.000556825
0.000554545
0.000552227
0.00054987
0.000547473
0.000545036
0.000542556
0.000540033
0.000537466
0.000534852
0.00053219
0.000529478
0.000526712
0.000523889
0.000521006
0.000518056
0.000515032
0.000511926
0.000508726
0.000505412
0.000501963
0.000498341
0.000494497
0.00049035
0.000485804
0.000480735
0.000475329
0.000516582
0.000514449
0.000512283
0.000510084
0.000507851
0.000505584
0.00050328
0.00050094
0.000498563
0.000496147
0.000493691
0.000491193
0.000488653
0.000486067
0.000483433
0.000480748
0.000478008
0.000475208
0.00047234
0.000469397
0.000466366
0.000463229
0.000459962
0.000456528
0.000452873
0.000448908
0.000444516
0.000439509
0.000434032
0.000467456
0.000465501
0.000463518
0.000461508
0.000459468
0.000457399
0.0004553
0.00045317
0.000451008
0.000448814
0.000446585
0.000444322
0.000442023
0.000439685
0.000437306
0.000434883
0.000432413
0.000429891
0.000427311
0.000424663
0.000421936
0.000419114
0.000416171
0.000413072
0.000409759
0.000406136
0.000402066
0.000397293
0.000391894
0.000419339
0.000417531
0.000415697
0.00041384
0.000411957
0.000410048
0.000408114
0.000406152
0.000404163
0.000402146
0.000400099
0.000398023
0.000395914
0.000393772
0.000391595
0.000389379
0.000387122
0.000384819
0.000382464
0.000380048
0.000377562
0.000374988
0.000372304
0.000369472
0.000366437
0.000363095
0.000359296
0.000354709
0.00034931
0.000368649
0.000366986
0.000365301
0.000363594
0.000361866
0.000360115
0.000358341
0.000356544
0.000354723
0.000352877
0.000351005
0.000349106
0.000347179
0.000345221
0.00034323
0.000341204
0.000339137
0.000337025
0.000334861
0.000332633
0.000330328
0.000327922
0.000325381
0.000322651
0.000319624
0.000316144
0.000311805
0.000306452
0.000319149
0.000317671
0.000316175
0.000314661
0.000313129
0.000311578
0.000310008
0.000308419
0.000306809
0.000305179
0.000303527
0.000301853
0.000300154
0.00029843
0.000296679
0.000294897
0.000293082
0.000291228
0.000289328
0.000287374
0.000285352
0.000283242
0.000281011
0.000278608
0.000275929
0.000272813
0.000268792
0.000263551
0.000269321
0.000268042
0.000266749
0.000265441
0.000264118
0.00026278
0.000261427
0.000260058
0.000258673
0.00025727
0.000255851
0.000254413
0.000252955
0.000251477
0.000249976
0.000248451
0.000246897
0.000245312
0.000243688
0.000242019
0.000240293
0.000238491
0.000236585
0.000234529
0.000232224
0.000229514
0.000225888
0.000220852
0.000219481
0.000218412
0.000217332
0.000216241
0.000215139
0.000214025
0.000212898
0.00021176
0.000210609
0.000209444
0.000208266
0.000207073
0.000205866
0.000204642
0.0002034
0.000202139
0.000200856
0.000199547
0.000198208
0.000196832
0.00019541
0.000193926
0.000192356
0.00019066
0.000188752
0.000186483
0.000183336
0.000178632
0.000170004
0.000169155
0.000168298
0.000167432
0.000166558
0.000165675
0.000164784
0.000163883
0.000162973
0.000162053
0.000161123
0.000160183
0.000159231
0.000158267
0.00015729
0.000156298
0.00015529
0.000154263
0.000153213
0.000152135
0.000151022
0.000149862
0.000148634
0.000147308
0.000145812
0.000144015
0.000141428
0.000137229
0.00012141
0.000120787
0.000120158
0.000119524
0.000118884
0.000118238
0.000117585
0.000116927
0.000116262
0.000115591
0.000114913
0.000114227
0.000113534
0.000112833
0.000112123
0.000111403
0.000110672
0.000109927
0.000109168
0.000108389
0.000107585
0.000106749
0.000105866
0.000104911
0.000103836
0.000102528
0.000100579
9.71193e-05
7.4612e-05
7.42165e-05
7.38177e-05
7.34156e-05
7.30101e-05
7.26012e-05
7.21888e-05
7.17728e-05
7.13531e-05
7.09296e-05
7.05022e-05
7.00707e-05
6.96348e-05
6.91941e-05
6.87484e-05
6.8297e-05
6.78392e-05
6.73739e-05
6.68998e-05
6.64147e-05
6.59155e-05
6.53971e-05
6.4852e-05
6.42633e-05
6.36051e-05
6.27924e-05
6.15398e-05
5.91346e-05
3.20212e-05
3.18452e-05
3.16679e-05
3.14892e-05
3.13091e-05
3.11277e-05
3.09449e-05
3.07607e-05
3.0575e-05
3.03879e-05
3.01992e-05
3.00089e-05
2.98169e-05
2.96231e-05
2.94273e-05
2.92295e-05
2.90292e-05
2.88262e-05
2.862e-05
2.84098e-05
2.81946e-05
2.79724e-05
2.77407e-05
2.74924e-05
2.72197e-05
2.68819e-05
2.63477e-05
2.53679e-05
3.77037e-06
3.75147e-06
3.73242e-06
3.71323e-06
3.69389e-06
3.6744e-06
3.65476e-06
3.63496e-06
3.615e-06
3.59488e-06
3.5746e-06
3.55414e-06
3.5335e-06
3.51266e-06
3.49161e-06
3.47033e-06
3.44879e-06
3.42696e-06
3.40479e-06
3.38219e-06
3.35908e-06
3.33527e-06
3.31059e-06
3.28438e-06
3.25645e-06
3.22336e-06
3.18343e-06
3.11094e-06
1.33662e-05
1.33425e-05
1.33092e-05
1.32518e-05
1.31625e-05
1.30533e-05
1.29334e-05
1.28048e-05
1.26676e-05
1.25221e-05
1.23686e-05
1.2207e-05
1.20383e-05
1.18624e-05
1.16797e-05
1.14906e-05
1.12956e-05
1.10941e-05
1.08878e-05
1.06724e-05
1.04577e-05
1.02206e-05
1.00142e-05
9.72997e-06
9.63917e-06
0.000100292
0.000102261
0.000102739
0.00010251
0.000101841
0.000100933
9.99016e-05
9.87822e-05
9.75825e-05
9.63086e-05
9.49626e-05
9.35203e-05
9.20056e-05
9.04335e-05
8.88084e-05
8.71258e-05
8.53898e-05
8.35738e-05
8.17176e-05
7.96931e-05
7.77152e-05
7.5321e-05
7.33922e-05
7.01689e-05
6.98733e-05
0.00019453
0.000197916
0.00019949
0.000199907
0.000199465
0.000198456
0.000197095
0.000195482
0.000193664
0.000191672
0.000189521
0.000187201
0.000184729
0.000182132
0.000179426
0.000176613
0.000173699
0.000170647
0.000167507
0.000164102
0.000160714
0.000156699
0.000153326
0.000148097
0.000147856
0.000275876
0.000279455
0.000281449
0.000282285
0.000282169
0.000281339
0.000279999
0.000278274
0.000276234
0.000273928
0.000271386
0.000268616
0.000265632
0.000262467
0.000259146
0.000255675
0.000252066
0.000248283
0.000244365
0.000240146
0.000235881
0.000230958
0.000226611
0.000220506
0.000220046
0.000345065
0.00034841
0.000350455
0.000351468
0.000351581
0.000350955
0.000349749
0.000348076
0.000346012
0.00034361
0.00034091
0.00033793
0.00033469
0.000331225
0.000327563
0.000323718
0.000319701
0.000315486
0.000311098
0.000306397
0.000301586
0.000296146
0.00029115
0.000284678
0.000283834
0.00040434
0.000407325
0.000409255
0.000410296
0.000410532
0.000410066
0.000409006
0.000407444
0.000405444
0.000403061
0.000400331
0.000397283
0.000393938
0.000390331
0.000386494
0.000382446
0.0003782
0.000373735
0.000369068
0.000364081
0.000358933
0.000353199
0.000347772
0.000341171
0.000339871
0.000455603
0.000458212
0.000459959
0.000460946
0.000461229
0.000460867
0.000459933
0.000458491
0.000456592
0.000454282
0.000451595
0.00044856
0.000445201
0.000441552
0.000437645
0.000433503
0.00042914
0.000424541
0.000419716
0.000414569
0.000409218
0.000403324
0.000397614
0.000390996
0.000389221
0.000500312
0.000502565
0.000504107
0.000505002
0.000505281
0.00050498
0.000504143
0.000502811
0.000501021
0.000498809
0.000496204
0.00049323
0.000489913
0.000486284
0.000482375
0.000478211
0.000473805
0.000469149
0.000464247
0.00045902
0.000453556
0.000447586
0.000441693
0.000435112
0.000432873
0.000539569
0.000541496
0.000542836
0.00054362
0.000543867
0.000543596
0.00054283
0.000541593
0.00053991
0.000537804
0.000535299
0.000532416
0.000529175
0.000525607
0.000521741
0.000517602
0.000513205
0.000508544
0.00050362
0.000498368
0.000492852
0.00048686
0.000480853
0.000474333
0.000471652
0.000574215
0.00057585
0.000576997
0.000577667
0.000577867
0.000577605
0.00057689
0.000575734
0.00057415
0.000572152
0.000569756
0.000566978
0.000563836
0.000560355
0.000556564
0.000552484
0.000548131
0.000543501
0.000538593
0.000533355
0.000527828
0.000521849
0.000515777
0.00050932
0.000506234
0.0006049
0.000606276
0.000607244
0.000607803
0.00060795
0.000607685
0.000607007
0.00060592
0.000604427
0.000602534
0.000600251
0.000597587
0.000594557
0.000591181
0.000587484
0.000583487
0.000579203
0.000574631
0.000569768
0.00056457
0.000559062
0.000553122
0.000547019
0.000540622
0.000537167
0.000632137
0.000633284
0.000634089
0.000634543
0.000634636
0.000634361
0.000633713
0.000632686
0.000631277
0.000629485
0.000627314
0.000624769
0.000621859
0.000618599
0.000615012
0.000611114
0.000606918
0.000602423
0.000597624
0.000592486
0.000587019
0.000581133
0.000575025
0.000568684
0.000564895
0.000656336
0.000657281
0.000657941
0.000658298
0.000658339
0.000658053
0.000657428
0.000656455
0.000655124
0.00065343
0.00065137
0.000648945
0.000646159
0.000643023
0.000639555
0.000635768
0.000631673
0.000627269
0.00062255
0.000617485
0.000612075
0.000606255
0.000600159
0.000593871
0.000589779
0.000677831
0.0006786
0.00067913
0.0006794
0.000679394
0.000679096
0.000678492
0.000677568
0.000676311
0.000674711
0.000672761
0.000670456
0.000667795
0.000664788
0.000661444
0.000657776
0.000653792
0.000649488
0.000644859
0.000639878
0.000634536
0.000628789
0.000622719
0.00061648
0.000612118
0.0006969
0.000697516
0.000697931
0.000698124
0.000698075
0.000697768
0.000697184
0.000696307
0.00069512
0.000693611
0.000691766
0.00068958
0.000687046
0.000684167
0.000680952
0.000677408
0.000673539
0.000669343
0.00066481
0.00065992
0.000654654
0.000648984
0.00064295
0.000636758
0.000632153
0.000713775
0.000714258
0.000714573
0.000714699
0.000714614
0.000714299
0.000713735
0.000712903
0.000711784
0.000710361
0.00070862
0.000706549
0.000704139
0.00070139
0.000698303
0.000694884
0.000691134
0.00068705
0.000682618
0.000677823
0.000672637
0.000667047
0.000661055
0.000654908
0.000650088
0.000728653
0.000729022
0.000729252
0.00072932
0.000729204
0.000728885
0.000728342
0.000727553
0.000726498
0.000725159
0.000723517
0.000721558
0.000719269
0.000716646
0.000713687
0.000710393
0.000706762
0.000702789
0.000698461
0.000693762
0.000688659
0.00068315
0.000677204
0.000671099
0.000666089
0.000741703
0.000741977
0.000742135
0.000742153
0.000742013
0.000741692
0.00074117
0.000740423
0.00073943
0.00073817
0.000736623
0.000734771
0.000732599
0.000730098
0.000727262
0.00072409
0.000720576
0.000716714
0.000712488
0.000707884
0.000702865
0.000697435
0.000691538
0.000685472
0.000680296
0.000753074
0.000753269
0.000753366
0.000753344
0.000753184
0.000752864
0.000752362
0.000751656
0.000750722
0.000749536
0.000748078
0.000746327
0.000744266
0.000741881
0.000739164
0.000736108
0.000732707
0.000728952
0.000724825
0.000720314
0.000715376
0.000710022
0.000704174
0.000698146
0.000692825
0.000762894
0.000763023
0.00076307
0.000763015
0.00076284
0.000762523
0.000762042
0.000761374
0.000760495
0.00075938
0.000758005
0.000756348
0.000754389
0.000752112
0.000749505
0.000746559
0.000743264
0.00073961
0.000735577
0.000731154
0.000726294
0.000721012
0.000715213
0.000709218
0.000703774
0.000771274
0.00077135
0.000771355
0.000771274
0.000771088
0.000770776
0.000770316
0.000769684
0.000768855
0.000767803
0.000766504
0.000764933
0.000763068
0.00076089
0.000758384
0.000755539
0.000752341
0.00074878
0.000744834
0.000740492
0.000735704
0.000730489
0.000724735
0.000718772
0.000713224
0.00077831
0.000778342
0.000778315
0.000778214
0.00077802
0.000777714
0.000777274
0.000776675
0.000775891
0.000774896
0.000773665
0.00077217
0.000770388
0.000768297
0.000765882
0.000763126
0.000760015
0.000756538
0.00075267
0.000748401
0.000743678
0.000738523
0.000732811
0.000726875
0.000721241
0.000784082
0.00078408
0.000784028
0.000783911
0.000783713
0.000783414
0.000782992
0.000782422
0.000781678
0.000780733
0.00077956
0.00077813
0.00077642
0.000774405
0.000772066
0.000769388
0.000766352
0.000762946
0.000759146
0.00075494
0.000750273
0.000745171
0.000739496
0.000733583
0.00072788
0.000788658
0.00078863
0.000788559
0.000788432
0.000788232
0.00078794
0.000787534
0.000786989
0.000786279
0.000785375
0.00078425
0.000782874
0.000781222
0.000779269
0.000776994
0.000774378
0.000771404
0.000768057
0.000764312
0.000760158
0.000755538
0.000750479
0.000744835
0.000738942
0.000733186
0.000792089
0.000792044
0.000791961
0.000791827
0.000791628
0.000791343
0.000790951
0.000790426
0.000789743
0.000788871
0.000787783
0.000786449
0.000784842
0.000782936
0.000780709
0.000778141
0.000775213
0.00077191
0.000768208
0.000764093
0.00075951
0.000754484
0.000748865
0.000742986
0.000737192
0.000794418
0.000794362
0.000794273
0.000794137
0.00079394
0.000793662
0.000793281
0.000792772
0.000792108
0.000791259
0.000790197
0.000788891
0.000787314
0.00078544
0.000783244
0.000780707
0.00077781
0.000774537
0.000770862
0.000766774
0.000762217
0.000757212
0.000751612
0.000745741
0.000739925
0.00079567
0.000795612
0.000795522
0.000795389
0.000795196
0.000794924
0.000794551
0.000794052
0.000793399
0.000792564
0.000791516
0.000790225
0.000788663
0.000786803
0.000784622
0.0007821
0.000779217
0.000775957
0.000772296
0.000768221
0.000763676
0.000758683
0.000753094
0.000747225
0.0007414
0.000795881
0.000795828
0.000795745
0.000795617
0.000795431
0.000795165
0.000794798
0.000794305
0.000793656
0.000792824
0.000791778
0.000790487
0.000788924
0.000787063
0.000784879
0.000782354
0.000779467
0.000776205
0.000772542
0.000768465
0.000763921
0.000758928
0.000753342
0.000747469
0.000741648
0.000794588
0.000794552
0.000794484
0.000794369
0.000794192
0.000793932
0.000793568
0.000793072
0.000792416
0.000791573
0.00079051
0.0007892
0.000787614
0.000785726
0.000783514
0.00078096
0.000778045
0.000774756
0.000771069
0.000766971
0.000762409
0.000757398
0.000751802
0.000745919
0.000740116
0.000791754
0.000791747
0.000791702
0.000791606
0.00079144
0.000791186
0.000790818
0.000790312
0.000789638
0.000788768
0.000787672
0.000786322
0.00078469
0.000782751
0.000780487
0.000777879
0.000774912
0.000771573
0.00076784
0.0007637
0.000759102
0.000754059
0.000748439
0.000742539
0.000736767
0.000787335
0.000787368
0.000787356
0.000787284
0.000787134
0.000786883
0.000786508
0.000785983
0.00078528
0.000784369
0.000783222
0.000781811
0.000780112
0.0007781
0.000775759
0.000773074
0.000770032
0.000766622
0.000762823
0.000758622
0.00075397
0.00074888
0.000743224
0.000737301
0.000731576
0.000781262
0.000781347
0.000781378
0.000781337
0.000781204
0.000780956
0.00078057
0.000780019
0.000779274
0.000778308
0.000777094
0.000775605
0.000773817
0.000771711
0.000769271
0.000766488
0.00076335
0.000759849
0.000755965
0.000751687
0.000746966
0.000741815
0.00073611
0.000730161
0.000724497
0.000773437
0.000773589
0.000773673
0.00077367
0.000773557
0.000773313
0.000772911
0.000772325
0.000771529
0.000770495
0.000769198
0.000767612
0.000765718
0.000763498