/*--------------------------------*- C++ -*----------------------------------*\
  =========                 |
  \\      /  F ield         | OpenFOAM: The Open Source CFD Toolbox
   \\    /   O peration     | Website:  https://openfoam.org
    \\  /    A nd           | Version:  6
     \\/     M anipulation  |
\*---------------------------------------------------------------------------*/
FoamFile
{
    version     2.0;
    format      ascii;
    class       volScalarField;
    location    "0.08";
    object      p;
}
// * * * * * * * * * * * * * * * * * * * * * * * * * * * * * * * * * * * * * //

dimensions      [0 2 -2 0 0 0 0];

internalField   nonuniform List<scalar> 
3080
(
0.183506
0.183369
0.183233
0.183097
0.182962
0.182827
0.182693
0.18256
0.182428
0.182297
0.182169
0.182043
0.18192
0.181802
0.18169
0.181586
0.181493
0.181413
0.181353
0.181319
0.181319
0.181367
0.181482
0.181693
0.182045
0.182615
0.183553
0.185093
0.187977
0.192388
0.183494
0.183357
0.183221
0.183085
0.18295
0.182815
0.182681
0.182548
0.182416
0.182286
0.182158
0.182032
0.18191
0.181792
0.181681
0.181578
0.181485
0.181408
0.181349
0.181317
0.181319
0.181371
0.181489
0.181702
0.182055
0.182614
0.183516
0.18493
0.187474
0.191113
0.183487
0.18335
0.183213
0.183077
0.182942
0.182807
0.182673
0.18254
0.182409
0.182279
0.18215
0.182025
0.181903
0.181786
0.181675
0.181573
0.181482
0.181405
0.181348
0.181317
0.181322
0.181376
0.181497
0.181711
0.182061
0.182607
0.183463
0.184738
0.186862
0.189407
0.183481
0.183344
0.183208
0.183072
0.182936
0.182802
0.182668
0.182535
0.182403
0.182273
0.182145
0.182019
0.181897
0.18178
0.181669
0.181566
0.181475
0.181398
0.18134
0.181308
0.181311
0.181361
0.181476
0.181679
0.182009
0.182513
0.183278
0.184362
0.186012
0.187695
0.183476
0.183339
0.183202
0.183067
0.182931
0.182796
0.182662
0.182529
0.182397
0.182267
0.182138
0.182012
0.18189
0.181772
0.18166
0.181556
0.181463
0.181384
0.181323
0.181287
0.181284
0.181325
0.181426
0.181608
0.181901
0.182342
0.182991
0.183863
0.185086
0.186138
0.183471
0.183334
0.183197
0.183061
0.182926
0.182791
0.182657
0.182524
0.182391
0.182261
0.182132
0.182005
0.181882
0.181763
0.181649
0.181543
0.181447
0.181364
0.181299
0.181256
0.181244
0.181271
0.181352
0.181505
0.181751
0.182116
0.182638
0.183304
0.184165
0.184743
0.183465
0.183329
0.183192
0.183056
0.182921
0.182786
0.182652
0.182518
0.182385
0.182254
0.182124
0.181997
0.181872
0.181751
0.181636
0.181527
0.181428
0.18134
0.181268
0.181216
0.181192
0.181202
0.181259
0.181376
0.181569
0.181853
0.182246
0.182719
0.183277
0.183492
0.18346
0.183324
0.183187
0.183051
0.182916
0.182781
0.182646
0.182512
0.182379
0.182247
0.182116
0.181987
0.181861
0.181739
0.181621
0.181509
0.181404
0.181311
0.181231
0.181169
0.18113
0.181121
0.18115
0.181227
0.181363
0.181563
0.181832
0.182129
0.182433
0.182369
0.183455
0.183318
0.183182
0.183046
0.182911
0.182776
0.182641
0.182506
0.182372
0.182239
0.182108
0.181978
0.18185
0.181725
0.181604
0.181488
0.181378
0.181278
0.181189
0.181115
0.18106
0.181029
0.181029
0.181064
0.18114
0.181258
0.18141
0.181548
0.18164
0.18136
0.183449
0.183313
0.183177
0.183041
0.182906
0.18277
0.182635
0.1825
0.182365
0.182232
0.182099
0.181967
0.181837
0.18171
0.181585
0.181465
0.18135
0.181242
0.181143
0.181056
0.180984
0.18093
0.180898
0.18089
0.180908
0.180945
0.180988
0.180987
0.180902
0.180454
0.183443
0.183307
0.183172
0.183036
0.1829
0.182765
0.182629
0.182494
0.182358
0.182224
0.182089
0.181956
0.181824
0.181694
0.181565
0.18144
0.181319
0.181203
0.181094
0.180994
0.180903
0.180825
0.180761
0.18071
0.180671
0.180632
0.180576
0.180452
0.180219
0.179638
0.183302
0.183166
0.18303
0.182895
0.182759
0.182623
0.182487
0.182351
0.182215
0.18208
0.181945
0.18181
0.181677
0.181545
0.181415
0.181287
0.181163
0.181043
0.180928
0.180819
0.180717
0.18062
0.180528
0.180433
0.180324
0.180178
0.179947
0.17959
0.178903
0.183296
0.183161
0.183025
0.182889
0.182753
0.182617
0.18248
0.182344
0.182207
0.18207
0.181933
0.181796
0.18166
0.181524
0.181388
0.181254
0.181121
0.18099
0.180861
0.180733
0.180607
0.180479
0.180346
0.1802
0.180025
0.179798
0.179473
0.179012
0.178241
0.18329
0.183155
0.183019
0.182883
0.182747
0.182611
0.182474
0.182336
0.182198
0.18206
0.181921
0.181782
0.181642
0.181502
0.181362
0.181221
0.181079
0.180937
0.180794
0.180648
0.180497
0.180339
0.180168
0.179973
0.179738
0.179439
0.179033
0.178484
0.177645
0.183284
0.183149
0.183014
0.182878
0.182741
0.182604
0.182467
0.182329
0.18219
0.18205
0.181909
0.181768
0.181625
0.181481
0.181335
0.181187
0.181037
0.180884
0.180727
0.180563
0.18039
0.180203
0.179995
0.179755
0.179466
0.179103
0.178627
0.178004
0.177108
0.183278
0.183143
0.183008
0.182872
0.182735
0.182598
0.18246
0.182321
0.182181
0.18204
0.181897
0.181753
0.181607
0.181459
0.181309
0.181154
0.180996
0.180832
0.180661
0.18048
0.180285
0.180071
0.17983
0.179549
0.17921
0.178791
0.178254
0.177568
0.176627
0.183271
0.183137
0.183002
0.182866
0.182729
0.182592
0.182453
0.182314
0.182173
0.18203
0.181886
0.181739
0.181591
0.181439
0.181283
0.181123
0.180956
0.180782
0.180598
0.180401
0.180186
0.179947
0.179674
0.179356
0.178973
0.178504
0.177914
0.177175
0.176197
0.183265
0.183131
0.182996
0.18286
0.182724
0.182586
0.182447
0.182307
0.182165
0.182021
0.181875
0.181726
0.181575
0.181419
0.181259
0.181093
0.180919
0.180735
0.18054
0.180327
0.180093
0.179831
0.17953
0.179178
0.178757
0.178245
0.177609
0.176825
0.175814
0.183258
0.183125
0.18299
0.182855
0.182718
0.18258
0.182441
0.1823
0.182157
0.182012
0.181865
0.181714
0.18156
0.181401
0.181237
0.181065
0.180884
0.180692
0.180485
0.180259
0.180009
0.179725
0.179399
0.179018
0.178562
0.178012
0.177337
0.176514
0.175477
0.183252
0.183119
0.182985
0.182849
0.182713
0.182575
0.182435
0.182294
0.18215
0.182004
0.181855
0.181703
0.181547
0.181385
0.181216
0.18104
0.180853
0.180653
0.180436
0.180198
0.179932
0.17963
0.179282
0.178874
0.178389
0.177806
0.177097
0.176241
0.175183
0.183246
0.183113
0.182979
0.182844
0.182707
0.182569
0.18243
0.182288
0.182144
0.181997
0.181847
0.181693
0.181534
0.18137
0.181198
0.181017
0.180824
0.180617
0.180392
0.180143
0.179863
0.179545
0.179178
0.178747
0.178236
0.177625
0.176889
0.176005
0.174929
0.18324
0.183108
0.182974
0.182839
0.182702
0.182564
0.182424
0.182282
0.182138
0.18199
0.181839
0.181684
0.181523
0.181357
0.181182
0.180997
0.1808
0.180586
0.180353
0.180095
0.179804
0.179472
0.179088
0.178638
0.178106
0.177471
0.176711
0.175804
0.174713
0.183234
0.183102
0.182969
0.182834
0.182698
0.18256
0.18242
0.182277
0.182132
0.181984
0.181832
0.181676
0.181514
0.181345
0.181168
0.18098
0.180778
0.18056
0.18032
0.180054
0.179753
0.17941
0.179012
0.178546
0.177996
0.177343
0.176563
0.175638
0.174535
0.183229
0.183097
0.182964
0.182829
0.182693
0.182555
0.182415
0.182273
0.182127
0.181979
0.181826
0.181669
0.181506
0.181335
0.181156
0.180965
0.180761
0.180538
0.180293
0.180021
0.179712
0.179359
0.17895
0.178472
0.177908
0.177239
0.176445
0.175504
0.174393
0.183223
0.183092
0.182959
0.182825
0.182689
0.182551
0.182411
0.182269
0.182123
0.181974
0.181821
0.181663
0.181499
0.181327
0.181146
0.180954
0.180747
0.180521
0.180272
0.179995
0.17968
0.17932
0.178903
0.178415
0.17784
0.177161
0.176355
0.175404
0.174286
0.183218
0.183087
0.182955
0.182821
0.182685
0.182547
0.182407
0.182265
0.182119
0.18197
0.181817
0.181659
0.181494
0.181321
0.181139
0.180945
0.180736
0.180509
0.180257
0.179976
0.179658
0.179293
0.17887
0.178376
0.177794
0.177107
0.176294
0.175336
0.174213
0.183212
0.183082
0.18295
0.182817
0.182681
0.182544
0.182404
0.182262
0.182116
0.181967
0.181814
0.181655
0.18149
0.181317
0.181135
0.18094
0.18073
0.180501
0.180248
0.179965
0.179645
0.179277
0.178852
0.178354
0.177768
0.177077
0.176261
0.175299
0.174174
0.183207
0.183077
0.182945
0.182812
0.182677
0.18254
0.182401
0.182258
0.182113
0.181964
0.181811
0.181652
0.181487
0.181314
0.181132
0.180937
0.180727
0.180498
0.180244
0.179961
0.179641
0.179273
0.178847
0.178349
0.177764
0.177072
0.176256
0.175295
0.174169
0.1832
0.183071
0.18294
0.182808
0.182673
0.182536
0.182397
0.182255
0.182111
0.181962
0.181809
0.181651
0.181486
0.181314
0.181132
0.180938
0.180728
0.1805
0.180249
0.179968
0.179649
0.179284
0.178862
0.178368
0.177787
0.177101
0.17629
0.175334
0.174211
0.183194
0.183066
0.182935
0.182803
0.182669
0.182533
0.182394
0.182253
0.182109
0.181961
0.181808
0.181651
0.181487
0.181316
0.181135
0.180942
0.180735
0.18051
0.180261
0.179984
0.179671
0.179312
0.178897
0.178412
0.17784
0.177165
0.176364
0.175419
0.174302
0.183188
0.18306
0.18293
0.182799
0.182665
0.18253
0.182392
0.182251
0.182108
0.18196
0.181809
0.181652
0.18149
0.18132
0.181141
0.180951
0.180747
0.180526
0.180282
0.180011
0.179706
0.179356
0.178952
0.17848
0.177923
0.177263
0.176479
0.17555
0.174443
0.183182
0.183055
0.182926
0.182795
0.182662
0.182527
0.18239
0.18225
0.182107
0.181961
0.18181
0.181655
0.181494
0.181327
0.18115
0.180964
0.180764
0.180548
0.180311
0.180048
0.179753
0.179416
0.179027
0.178572
0.178035
0.177397
0.176635
0.175728
0.174634
0.183176
0.183049
0.182921
0.182791
0.182659
0.182525
0.182388
0.182249
0.182107
0.181962
0.181813
0.181659
0.181501
0.181336
0.181163
0.18098
0.180785
0.180576
0.180347
0.180095
0.179812
0.179491
0.17912
0.178688
0.178176
0.177566
0.176832
0.175953
0.174877
0.18317
0.183044
0.182917
0.182787
0.182656
0.182523
0.182387
0.182249
0.182108
0.181964
0.181817
0.181665
0.181509
0.181346
0.181177
0.180999
0.180811
0.180609
0.18039
0.18015
0.179883
0.17958
0.179232
0.178827
0.178346
0.17777
0.177071
0.176229
0.175175
0.183165
0.183039
0.182913
0.182784
0.182653
0.182521
0.182386
0.182249
0.182109
0.181967
0.181821
0.181672
0.181518
0.181359
0.181194
0.181022
0.180841
0.180648
0.18044
0.180214
0.179964
0.179683
0.179362
0.178988
0.178544
0.178009
0.177354
0.176555
0.17553
0.183159
0.183035
0.182909
0.182781
0.182651
0.182519
0.182385
0.18225
0.182111
0.18197
0.181826
0.18168
0.181529
0.181374
0.181214
0.181047
0.180874
0.18069
0.180495
0.180285
0.180055
0.179799
0.179508
0.179171
0.178769
0.178283
0.17768
0.176935
0.175945
0.183154
0.18303
0.182905
0.182778
0.182649
0.182518
0.182385
0.182251
0.182114
0.181974
0.181833
0.181688
0.181541
0.18139
0.181235
0.181075
0.18091
0.180737
0.180556
0.180363
0.180155
0.179926
0.179669
0.179373
0.179021
0.178592
0.17805
0.177371
0.176424
0.183149
0.183026
0.182901
0.182775
0.182647
0.182517
0.182385
0.182252
0.182116
0.181979
0.181839
0.181698
0.181553
0.181407
0.181257
0.181104
0.180948
0.180787
0.18062
0.180445
0.180261
0.180062
0.179843
0.179594
0.179298
0.178935
0.178465
0.177865
0.176973
0.183144
0.183022
0.182898
0.182773
0.182645
0.182517
0.182386
0.182254
0.18212
0.181984
0.181846
0.181707
0.181567
0.181424
0.18128
0.181135
0.180987
0.180838
0.180686
0.180531
0.180372
0.180206
0.180027
0.179829
0.179596
0.17931
0.178925
0.178421
0.177596
0.183139
0.183018
0.182895
0.182771
0.182644
0.182516
0.182387
0.182255
0.182123
0.181989
0.181854
0.181718
0.18158
0.181442
0.181304
0.181166
0.181028
0.18089
0.180754
0.180619
0.180486
0.180353
0.180219
0.180076
0.179914
0.179714
0.179429
0.179043
0.178301
0.183135
0.183015
0.182893
0.182769
0.182643
0.182516
0.182388
0.182258
0.182127
0.181995
0.181862
0.181728
0.181594
0.181461
0.181328
0.181197
0.181068
0.180943
0.180823
0.180708
0.180602
0.180504
0.180415
0.180333
0.180248
0.180147
0.179977
0.179736
0.179098
0.183131
0.183012
0.18289
0.182767
0.182642
0.182516
0.182389
0.18226
0.182131
0.182
0.181869
0.181739
0.181608
0.181479
0.181352
0.181228
0.181108
0.180995
0.18089
0.180796
0.180717
0.180655
0.180613
0.180595
0.180592
0.180604
0.180566
0.180505
0.179994
0.183128
0.183009
0.182888
0.182766
0.182642
0.182517
0.18239
0.182263
0.182135
0.182006
0.181877
0.181749
0.181622
0.181497
0.181374
0.181257
0.181146
0.181043
0.180953
0.180878
0.180824
0.180796
0.1808
0.180845
0.180926
0.181057
0.181163
0.181322
0.180952
0.183125
0.183007
0.182887
0.182765
0.182642
0.182518
0.182392
0.182266
0.182139
0.182011
0.181884
0.181758
0.181634
0.181512
0.181394
0.181282
0.181179
0.181086
0.181007
0.180949
0.180917
0.180919
0.180964
0.181066
0.181227
0.181478
0.181725
0.182136
0.181916
0.183123
0.183006
0.182886
0.182765
0.182643
0.182519
0.182394
0.182268
0.182142
0.182016
0.181891
0.181767
0.181644
0.181526
0.181412
0.181304
0.181207
0.181121
0.181054
0.181009
0.180995
0.181023
0.181103
0.181258
0.181489
0.181857
0.182242
0.182932
0.182871
0.183122
0.183005
0.182886
0.182766
0.182644
0.18252
0.182396
0.182271
0.182146
0.182021
0.181897
0.181774
0.181654
0.181537
0.181426
0.181323
0.18123
0.181151
0.181092
0.181058
0.18106
0.181109
0.181219
0.181418
0.181712
0.182191
0.182705
0.1837
0.183805
0.183121
0.183005
0.182886
0.182766
0.182644
0.182521
0.182397
0.182273
0.182148
0.182024
0.181901
0.181779
0.18166
0.181545
0.181437
0.181336
0.181247
0.181173
0.181119
0.181094
0.181107
0.181173
0.181306
0.181543
0.181888
0.18247
0.183098
0.18442
0.184696
0.183121
0.183005
0.182886
0.182766
0.182645
0.182522
0.182399
0.182275
0.18215
0.182026
0.181904
0.181783
0.181665
0.181551
0.181443
0.181345
0.181258
0.181187
0.181138
0.181119
0.18114
0.181217
0.181367
0.181633
0.182018
0.182689
0.183417
0.185069
0.185531
0.183005
0.182887
0.182767
0.182646
0.182523
0.1824
0.182276
0.182152
0.182028
0.181906
0.181785
0.181668
0.181554
0.181448
0.18135
0.181265
0.181196
0.181149
0.181134
0.18116
0.181246
0.181407
0.181694
0.182107
0.182853
0.183664
0.185641
0.186308
0.183006
0.182888
0.182768
0.182647
0.182524
0.182401
0.182277
0.182153
0.182029
0.181907
0.181787
0.181669
0.181556
0.18145
0.181353
0.181268
0.1812
0.181155
0.181142
0.181171
0.181261
0.181429
0.18173
0.182162
0.182966
0.183845
0.186122
0.187022
0.183007
0.182889
0.182769
0.182648
0.182525
0.182402
0.182278
0.182154
0.18203
0.181908
0.181787
0.18167
0.181557
0.181451
0.181354
0.181269
0.181201
0.181157
0.181144
0.181173
0.181265
0.181436
0.181745
0.182188
0.183031
0.183963
0.186503
0.187671
0.183009
0.18289
0.18277
0.182649
0.182526
0.182402
0.182278
0.182154
0.182031
0.181908
0.181787
0.18167
0.181557
0.18145
0.181353
0.181268
0.1812
0.181155
0.181141
0.18117
0.181262
0.181432
0.181743
0.182191
0.183056
0.184026
0.186779
0.188255
0.18301
0.182891
0.182771
0.182649
0.182527
0.182403
0.182279
0.182154
0.182031
0.181908
0.181787
0.181669
0.181556
0.181449
0.181351
0.181265
0.181196
0.18115
0.181135
0.181162
0.181251
0.181419
0.181728
0.182174
0.183044
0.184041
0.186946
0.188772
0.183011
0.182892
0.182772
0.18265
0.182527
0.182403
0.182279
0.182154
0.18203
0.181907
0.181786
0.181668
0.181554
0.181446
0.181348
0.181261
0.18119
0.181143
0.181126
0.18115
0.181236
0.181399
0.181701
0.182141
0.183002
0.184013
0.186997
0.189222
0.183012
0.182893
0.182773
0.182651
0.182528
0.182404
0.182279
0.182154
0.18203
0.181907
0.181785
0.181666
0.181552
0.181444
0.181344
0.181256
0.181184
0.181134
0.181115
0.181136
0.181217
0.181375
0.181667
0.182098
0.182936
0.18395
0.18693
0.189601
0.183015
0.182896
0.182776
0.182654
0.18253
0.182406
0.182281
0.182156
0.182032
0.181908
0.181786
0.181667
0.181552
0.181443
0.181342
0.181253
0.18118
0.181128
0.181106
0.181124
0.1812
0.181352
0.181634
0.182054
0.182865
0.183874
0.18678
0.189905
0.18302
0.182901
0.18278
0.182658
0.182534
0.18241
0.182285
0.18216
0.182035
0.181911
0.181789
0.181669
0.181554
0.181444
0.181343
0.181253
0.181179
0.181126
0.181103
0.181118
0.181192
0.18134
0.181616
0.18203
0.182824
0.18383
0.186676
0.190099
0.20261
0.19364
0.184571
0.180405
0.177226
0.173276
0.169093
0.165005
0.160844
0.156459
0.151815
0.146876
0.141578
0.135862
0.129673
0.122934
0.11559
0.107485
0.0986724
0.0886177
0.0781367
0.0646492
0.05347
0.0308005
0.0269923
0.197181
0.190416
0.183041
0.179288
0.176188
0.172362
0.1683
0.164283
0.160157
0.155796
0.151168
0.146236
0.140944
0.135228
0.129035
0.122285
0.114927
0.106803
0.0979711
0.0878863
0.07739
0.0638443
0.05268
0.0298337
0.0262426
0.192767
0.187953
0.181968
0.178336
0.175174
0.171441
0.167494
0.163534
0.159436
0.155095
0.15048
0.145555
0.140263
0.134543
0.12834
0.121575
0.114199
0.106047
0.0971961
0.0870598
0.0765723
0.0628966
0.0518766
0.0286028
0.0256682
0.189634
0.18595
0.180987
0.177478
0.174283
0.170639
0.166789
0.162875
0.1588
0.154477
0.149873
0.144951
0.139658
0.133933
0.127721
0.120941
0.113549
0.105368
0.0965019
0.086309
0.0758439
0.0620141
0.051197
0.027421
0.0253766
0.187207
0.184174
0.179998
0.176663
0.173486
0.169932
0.166168
0.162298
0.158246
0.15394
0.149347
0.14443
0.139135
0.133405
0.127185
0.120391
0.112984
0.104778
0.0959005
0.0856532
0.0752169
0.0612353
0.0506359
0.0263869
0.0252781
0.185208
0.182594
0.179024
0.175875
0.172747
0.169283
0.1656
0.161775
0.157748
0.153461
0.14888
0.143966
0.138671
0.132937
0.126709
0.119903
0.112484
0.104254
0.0953679
0.0850695
0.0746653
0.0605398
0.0501598
0.0254834
0.0252918
0.18353
0.181206
0.178091
0.175116
0.172053
0.168677
0.165072
0.161292
0.157292
0.153024
0.148456
0.143548
0.138254
0.132515
0.126281
0.119464
0.112034
0.103782
0.0948894
0.0845431
0.0741734
0.0599117
0.0497505
0.0246846
0.0253795
0.182106
0.179986
0.177209
0.174389
0.1714
0.168109
0.164577
0.160842
0.156872
0.152625
0.148069
0.143168
0.137875
0.132134
0.125894
0.119066
0.111627
0.103355
0.0944578
0.0840665
0.0737327
0.059343
0.0493979
0.0239749
0.0255202
0.180881
0.178908
0.176382
0.173697
0.170786
0.167576
0.164112
0.160423
0.156483
0.152257
0.147715
0.142821
0.13753
0.131787
0.125542
0.118706
0.111258
0.102968
0.0940674
0.083634
0.073337
0.0588275
0.0490939
0.0233434
0.025698
0.179815
0.177949
0.175611
0.173043
0.170208
0.167074
0.163674
0.16003
0.156121
0.151917
0.147389
0.142503
0.137215
0.131471
0.125223
0.118378
0.110923
0.102616
0.0937133
0.0832409
0.0729809
0.0583599
0.0488312
0.0227809
0.0258997
0.178877
0.177093
0.174896
0.172428
0.169667
0.166603
0.163263
0.159662
0.155783
0.151601
0.147089
0.142211
0.136927
0.131182
0.124931
0.118079
0.110618
0.102296
0.0933916
0.0828831
0.0726596
0.0579355
0.0486037
0.0222792
0.0261151
0.178048
0.176325
0.174237
0.171853
0.16916
0.166161
0.162877
0.159317
0.155469
0.151309
0.146812
0.141943
0.136663
0.130918
0.124664
0.117807
0.11034
0.102004
0.0930989
0.0825571
0.0723694
0.0575503
0.0484063
0.0218316
0.0263367
0.17731
0.175637
0.173631
0.171319
0.168688
0.165748
0.162515
0.158995
0.155176
0.151038
0.146556
0.141696
0.13642
0.130677
0.124421
0.117558
0.110086
0.101737
0.0928327
0.0822604
0.0721071
0.0572012
0.0482348
0.0214323
0.0265585
0.176653
0.175018
0.173077
0.170825
0.16825
0.165364
0.162178
0.158694
0.154904
0.150787
0.14632
0.141469
0.136199
0.130456
0.124199
0.117331
0.109855
0.101495
0.0925907
0.0819907
0.0718702
0.0568854
0.0480855
0.0210767
0.0267759
0.176066
0.174462
0.172571
0.170371
0.167845
0.165008
0.161864
0.158416
0.154653
0.150556
0.146103
0.141262
0.135996
0.130255
0.123997
0.117125
0.109646
0.101275
0.0923713
0.0817461
0.0716566
0.0566006
0.0479556
0.0207606
0.0269854
0.175542
0.173964
0.172113
0.169955
0.167474
0.164679
0.161575
0.158159
0.154421
0.150344
0.145905
0.141072
0.135812
0.130072
0.123814
0.116938
0.109456
0.101076
0.0921728
0.0815251
0.0714643
0.0563447
0.0478424
0.0204809
0.0271842
0.175076
0.173519
0.171699
0.169577
0.167135
0.164379
0.16131
0.157923
0.154209
0.15015
0.145724
0.1409
0.135645
0.129907
0.123648
0.11677
0.109285
0.100896
0.0919941
0.0813264
0.0712919
0.0561161
0.0477437
0.0202348
0.0273699
0.174662
0.173123
0.171328
0.169237
0.166828
0.164107
0.161069
0.157709
0.154017
0.149974
0.14556
0.140745
0.135494
0.129759
0.1235
0.116619
0.109131
0.100736
0.091834
0.0811489
0.0711379
0.0559132
0.0476576
0.0200198
0.0275409
0.174297
0.172773
0.170999
0.168933
0.166554
0.163862
0.160852
0.157516
0.153843
0.149816
0.145414
0.140606
0.13536
0.129626
0.123367
0.116484
0.108994
0.100593
0.0916917
0.0809916
0.0710013
0.0557348
0.0475825
0.019834
0.0276957
0.173978
0.172468
0.17071
0.168664
0.16631
0.163644
0.160658
0.157344
0.153689
0.149676
0.145284
0.140483
0.135241
0.129509
0.123251
0.116366
0.108874
0.100467
0.0915663
0.0808537
0.0708811
0.0555798
0.047517
0.0196758
0.0278332
0.173703
0.172204
0.170459
0.16843
0.166097
0.163453
0.160489
0.157193
0.153554
0.149553
0.14517
0.140376
0.135138
0.129408
0.123149
0.116263
0.108769
0.100358
0.0914572
0.0807345
0.0707763
0.0554473
0.0474599
0.0195438
0.0279524
0.17347
0.17198
0.170245
0.168231
0.165915
0.16329
0.160343
0.157063
0.153437
0.149447
0.145072
0.140284
0.135049
0.129321
0.123062
0.116175
0.10868
0.100265
0.0913638
0.0806334
0.0706864
0.0553366
0.04741
0.0194371
0.0280525
0.173277
0.171795
0.170068
0.168065
0.165764
0.163153
0.160221
0.156955
0.15334
0.149359
0.14499
0.140207
0.134975
0.129248
0.12299
0.116102
0.108605
0.100188
0.0912857
0.08055
0.0706106
0.0552469
0.0473666
0.0193547
0.0281332
0.173124
0.171647
0.169926
0.167932
0.165642
0.163043
0.160123
0.156867
0.153261
0.149287
0.144924
0.140144
0.134915
0.129189
0.122931
0.116043
0.108545
0.100126
0.0912224
0.0804838
0.0705486
0.0551775
0.0473295
0.0192949
0.0281955
0.173008
0.171535
0.169819
0.167831
0.16555
0.16296
0.160048
0.1568
0.153201
0.149233
0.144874
0.140097
0.134869
0.129145
0.122887
0.115998
0.108499
0.100079
0.0911738
0.0804343
0.0705003
0.0551274
0.047299
0.0192558
0.028241
0.17293
0.17146
0.169747
0.167763
0.165487
0.162903
0.159997
0.156754
0.15316
0.149195
0.144839
0.140064
0.134838
0.129114
0.122856
0.115967
0.108467
0.100047
0.0911392
0.0804018
0.0704641
0.0550984
0.0472706
0.0192436
0.0282605
0.172889
0.17142
0.169708
0.167727
0.165453
0.162873
0.15997
0.156729
0.153137
0.149174
0.14482
0.140046
0.13482
0.129096
0.122838
0.11595
0.108448
0.100031
0.0911173
0.0803888
0.0704347
0.0551004
0.0472252
0.019291
0.0282093
0.172886
0.171417
0.169705
0.167723
0.16545
0.162869
0.159966
0.156726
0.153134
0.149171
0.144816
0.140042
0.134816
0.129093
0.122834
0.115947
0.108443
0.10003
0.0911071
0.080398
0.0704081
0.0551423
0.0471476
0.0194252
0.0280529
0.172934
0.171462
0.169748
0.167764
0.165488
0.162903
0.159995
0.156752
0.153156
0.149191
0.144834
0.140058
0.134832
0.129108
0.122849
0.115962
0.108457
0.100048
0.0911198
0.0804225
0.0704128
0.0551845
0.0471245
0.019508
0.0279797
0.173036
0.171559
0.16984
0.167851
0.165567
0.162974
0.160058
0.156807
0.153205
0.149234
0.144874
0.140095
0.134867
0.129143
0.122883
0.115997
0.108492
0.100086
0.0911558
0.0804649
0.0704471
0.055234
0.0471454
0.0195589
0.0279625
0.173192
0.171709
0.169983
0.167985
0.165689
0.163083
0.160155
0.156893
0.153281
0.149303
0.144936
0.140154
0.134923
0.129197
0.122937
0.116052
0.108548
0.100144
0.0912142
0.0805285
0.0705058
0.0553019
0.0471911
0.019613
0.0279549
0.173405
0.171911
0.170175
0.168166
0.165854
0.163231
0.160286
0.157009
0.153384
0.149395
0.145021
0.140233
0.134999
0.129272
0.123012
0.116128
0.108625
0.100223
0.091295
0.0806142
0.0705886
0.0553906
0.0472586
0.0196771
0.0279496
0.173675
0.172169
0.17042
0.168395
0.166063
0.163417
0.160451
0.157155
0.153514
0.149513
0.145129
0.140334
0.135096
0.129367
0.123107
0.116224
0.108723
0.100324
0.0913988
0.0807223
0.0706961
0.0555003
0.04735
0.0197502
0.0279506
0.174005
0.172484
0.170717
0.168673
0.166315
0.163641
0.16065
0.157331
0.153671
0.149654
0.145259
0.140457
0.135214
0.129483
0.123223
0.116341
0.108843
0.100448
0.0915263
0.0808536
0.0708297
0.0556316
0.0474674
0.0198325
0.0279614
0.1744
0.172859
0.17107
0.169
0.166611
0.163905
0.160883
0.157537
0.153855
0.149821
0.145413
0.140602
0.135354
0.129621
0.12336
0.11648
0.108986
0.100594
0.0916786
0.081009
0.0709904
0.0557857
0.0476127
0.019925
0.027985
0.174862
0.173297
0.17148
0.16938
0.166952
0.164207
0.16115
0.157773
0.154066
0.150013
0.145591
0.140771
0.135517
0.129781
0.123521
0.116643
0.109152
0.100765
0.0918566
0.0811896
0.0711798
0.055964
0.0477884
0.0200293
0.0280247
0.175399
0.173804
0.171949
0.169812
0.167339
0.164548
0.161451
0.15804
0.154305
0.15023
0.145793
0.140962
0.135703
0.129964
0.123705
0.116829
0.109344
0.100961
0.0920618
0.0813968
0.0713996
0.0561681
0.0479973
0.0201468
0.028085
0.176018
0.174384
0.172481
0.170298
0.167773
0.164929
0.161785
0.158336
0.154571
0.150473
0.14602
0.141178
0.135913
0.130172
0.123914
0.117041
0.109562
0.101184
0.0922959
0.0816321
0.0716521
0.0564
0.0482433
0.0202798
0.0281713
0.176729
0.175045
0.173078
0.170842
0.168254
0.165348
0.162154
0.158664
0.154865
0.150743
0.146272
0.14142
0.136149
0.130406
0.12415
0.11728
0.109808
0.101435
0.0925608
0.0818976
0.0719397
0.056662
0.0485302
0.0204312
0.0282896
0.177545
0.175794
0.173744
0.171444
0.168782
0.165807
0.162557
0.159022
0.155188
0.151041
0.146552
0.141689
0.136412
0.130668
0.124414
0.117548
0.110085
0.101718
0.092859
0.0821958
0.0722655
0.0569573
0.0488625
0.0206054
0.0284465
0.178486
0.176641
0.174483
0.172107
0.16936
0.166306
0.162995
0.159411
0.155541
0.151367
0.146861
0.141987
0.136705
0.13096
0.124709
0.117848
0.110394
0.102033
0.0931937
0.0825296
0.0726339
0.0572889
0.0492479
0.0208048
0.0286558
0.179585
0.177596
0.175296
0.172835
0.169987
0.166844
0.163468
0.159834
0.155925
0.151725
0.147202
0.142317
0.137031
0.131285
0.125039
0.118183
0.110741
0.102386
0.0935698
0.082901
0.0730529
0.0576547
0.0497058
0.0210147
0.0289589
0.180833
0.178621
0.176145
0.173596
0.170633
0.167396
0.163956
0.160271
0.156325
0.1521
0.147561
0.142667
0.137377
0.131632
0.12539
0.11854
0.111112
0.102761
0.0939746
0.0832933
0.0735127
0.058031
0.0502402
0.0211987
0.0293982
0.182186
0.179657
0.176978
0.174345
0.171262
0.167931
0.16443
0.160698
0.156719
0.152472
0.147918
0.143016
0.137724
0.13198
0.125745
0.118899
0.111486
0.103139
0.0943839
0.0836888
0.0739801
0.058412
0.0507946
0.0213953
0.0298916
0.183647
0.180687
0.17778
0.175075
0.171865
0.168444
0.164887
0.161112
0.157103
0.152836
0.148271
0.143363
0.138069
0.132327
0.126097
0.119258
0.111859
0.103517
0.0947911
0.084086
0.0744435
0.0588032
0.0513422
0.0216343
0.0303914
0.185226
0.1817
0.178544
0.175779
0.172441
0.168934
0.165327
0.161513
0.157477
0.153193
0.148617
0.143705
0.138411
0.13267
0.126447
0.119613
0.112227
0.103892
0.0951932
0.0844829
0.0748982
0.059204
0.0518737
0.0219199
0.0308847
0.186932
0.182687
0.179263
0.176453
0.17299
0.1694
0.165748
0.161899
0.15784
0.153541
0.148957
0.14404
0.138746
0.133008
0.126791
0.119963
0.11259
0.104262
0.095588
0.0848773
0.0753413
0.0596114
0.0523855
0.0222477
0.0313693
0.188769
0.183641
0.179932
0.177097
0.173511
0.169843
0.166151
0.162271
0.158191
0.15388
0.149289
0.144369
0.139075
0.13334
0.127128
0.120307
0.112946
0.104626
0.0959735
0.0852672
0.0757708
0.060022
0.0528752
0.0226112
0.0318442
0.190734
0.184558
0.18055
0.177709
0.174006
0.170265
0.166538
0.16263
0.158531
0.15421
0.149612
0.14469
0.139397
0.133664
0.127457
0.120643
0.113293
0.104983
0.0963481
0.0856502
0.0761851
0.0604322
0.0533413
0.0230035
0.0323086
0.192812
0.185437
0.181115
0.178288
0.174478
0.170667
0.166907
0.162976
0.15886
0.154529
0.149926
0.145002
0.13971
0.133979
0.127777
0.120969
0.113629
0.105329
0.0967104
0.0860243
0.0765827
0.0608384
0.0537828
0.0234168
0.0327618
0.194987
0.186283
0.181628
0.178834
0.174928
0.171049
0.167261
0.163307
0.159177
0.154837
0.15023
0.145304
0.140012
0.134284
0.128087
0.121285
0.113953
0.105664
0.0970587
0.0863871
0.0769622
0.0612366
0.0541988
0.0238425
0.0332029
0.197229
0.187097
0.182091
0.179347
0.175357
0.171412
0.167597
0.163624
0.15948
0.155133
0.150522
0.145595
0.140303
0.134577
0.128384
0.121588
0.114264
0.105985
0.0973913
0.0867359
0.0773221
0.0616226
0.0545885
0.0242722
0.03363
0.199505
0.18788
0.182511
0.179829
0.175765
0.171756
0.167916
0.163926
0.15977
0.155416
0.150802
0.145873
0.140582
0.134857
0.128667
0.121877
0.11456
0.106291
0.0977063
0.0870681
0.0776605
0.0619927
0.0549505
0.0246981
0.0340406
0.201796
0.188633
0.182897
0.180284
0.176156
0.172082
0.168219
0.164214
0.160045
0.155685
0.151068
0.146138
0.140846
0.135124
0.128936
0.122151
0.114839
0.106581
0.0980031
0.0873827
0.0779772
0.0623445
0.055285
0.0251136
0.0344338
0.204167
0.189366
0.183259
0.180714
0.176529
0.172391
0.168505
0.164485
0.160306
0.15594
0.15132
0.146388
0.141097
0.135375
0.12919
0.122408
0.115102
0.106853
0.0982807
0.087677
0.0782715
0.0626729
0.0555936
0.0255051
0.0348127
0.206663
0.19008
0.183582
0.18109
0.17686
0.172663
0.168755
0.164724
0.160536
0.156165
0.151542
0.146609
0.141317
0.135596
0.129412
0.122634
0.115332
0.10709
0.098523
0.0879316
0.0785282
0.0629523
0.0558666
0.0258294
0.0351649
0.208796
0.190701
0.183807
0.181329
0.17708
0.172847
0.168923
0.164884
0.16069
0.156316
0.151691
0.146757
0.141465
0.135744
0.129561
0.122785
0.115486
0.107248
0.098685
0.0880978
0.0787018
0.0631286
0.05606
0.0260184
0.0354252
)
;

boundaryField
{
    inlet
    {
        type            zeroGradient;
    }
    outlet
    {
        type            fixedValue;
        value           uniform 0;
    }
    upperWall
    {
        type            zeroGradient;
    }
    lowerWall
    {
        type            zeroGradient;
    }
    frontAndBack
    {
        type            empty;
    }
    procBoundary0to1
    {
        type            processor;
        value           nonuniform List<scalar> 
59
(
0.183643
0.183632
0.183624
0.183619
0.183613
0.183608
0.183603
0.183597
0.183592
0.183586
0.18358
0.183438
0.183438
0.183431
0.183425
0.183419
0.183412
0.183405
0.183398
0.183391
0.183385
0.183378
0.183372
0.183366
0.183359
0.183353
0.183347
0.183341
0.183335
0.183328
0.183321
0.183314
0.183308
0.183301
0.183294
0.183288
0.183281
0.183275
0.183269
0.183264
0.183259
0.183254
0.183249
0.183245
0.183242
0.183239
0.183238
0.183236
0.183236
0.183122
0.183122
0.183123
0.183124
0.183125
0.183127
0.183128
0.183129
0.183133
0.183137
)
;
    }
}


// ************************************************************************* //
