/*--------------------------------*- C++ -*----------------------------------*\
  =========                 |
  \\      /  F ield         | OpenFOAM: The Open Source CFD Toolbox
   \\    /   O peration     | Website:  https://openfoam.org
    \\  /    A nd           | Version:  6
     \\/     M anipulation  |
\*---------------------------------------------------------------------------*/
FoamFile
{
    version     2.0;
    format      ascii;
    class       surfaceScalarField;
    location    "0.08";
    object      phi;
}
// * * * * * * * * * * * * * * * * * * * * * * * * * * * * * * * * * * * * * //

dimensions      [0 3 -1 0 0 0 0];

internalField   nonuniform List<scalar> 
6048
(
4.40524e-07
6.74848e-10
4.39844e-07
6.79356e-10
4.3916e-07
6.84266e-10
4.3847e-07
6.89629e-10
4.37775e-07
6.95528e-10
4.37073e-07
7.0205e-10
4.36364e-07
7.0932e-10
4.35646e-07
7.17472e-10
4.34919e-07
7.26697e-10
4.34182e-07
7.37235e-10
4.33433e-07
7.49415e-10
4.32669e-07
7.63652e-10
4.31889e-07
7.80519e-10
4.31088e-07
8.0076e-10
4.30262e-07
8.254e-10
4.29407e-07
8.55822e-10
4.28513e-07
8.93916e-10
4.2757e-07
9.42345e-10
4.26565e-07
1.00487e-09
4.25478e-07
1.08698e-09
4.24282e-07
1.19687e-09
4.22934e-07
1.34726e-09
4.21375e-07
1.559e-09
4.19508e-07
1.8677e-09
4.17166e-07
2.34164e-09
4.14055e-07
3.11072e-09
4.09549e-07
4.50611e-09
4.02449e-07
7.10009e-09
3.89099e-07
1.335e-08
2.37787e-08
3.6532e-07
4.69276e-07
1.38992e-09
4.68556e-07
1.399e-09
4.67831e-07
1.40877e-09
4.67102e-07
1.41938e-09
4.66366e-07
1.43093e-09
4.65625e-07
1.44361e-09
4.64876e-07
1.45762e-09
4.64121e-07
1.47322e-09
4.63357e-07
1.49074e-09
4.62583e-07
1.51061e-09
4.61799e-07
1.5334e-09
4.61003e-07
1.55983e-09
4.60193e-07
1.59089e-09
4.59366e-07
1.62789e-09
4.58518e-07
1.67256e-09
4.57647e-07
1.72727e-09
4.56746e-07
1.79526e-09
4.55807e-07
1.88102e-09
4.54821e-07
1.99084e-09
4.53774e-07
2.13381e-09
4.52648e-07
2.32327e-09
4.51416e-07
2.5795e-09
4.5004e-07
2.93479e-09
4.48465e-07
3.44229e-09
4.46608e-07
4.19881e-09
4.44341e-07
5.3774e-09
4.4146e-07
7.38769e-09
4.37657e-07
1.09027e-08
4.32446e-07
1.85615e-08
3.28675e-08
4.23357e-07
4.79086e-07
2.12013e-09
4.7835e-07
2.13405e-09
4.7761e-07
2.14896e-09
4.76865e-07
2.16503e-09
4.76113e-07
2.18246e-09
4.75355e-07
2.20149e-09
4.7459e-07
2.22243e-09
4.73818e-07
2.24564e-09
4.73037e-07
2.27162e-09
4.72247e-07
2.30099e-09
4.71446e-07
2.33454e-09
4.70632e-07
2.37333e-09
4.69804e-07
2.41878e-09
4.68959e-07
2.47272e-09
4.68094e-07
2.53765e-09
4.67205e-07
2.61692e-09
4.66285e-07
2.71512e-09
4.65327e-07
2.83856e-09
4.64322e-07
2.99607e-09
4.63256e-07
3.20028e-09
4.62109e-07
3.46959e-09
4.60857e-07
3.83162e-09
4.59462e-07
4.32939e-09
4.57872e-07
5.03228e-09
4.5601e-07
6.06078e-09
4.53764e-07
7.62395e-09
4.5099e-07
1.01619e-08
4.4749e-07
1.44028e-08
4.43542e-07
2.25093e-08
3.67722e-08
4.39637e-07
4.848e-07
2.86054e-09
4.84054e-07
2.87948e-09
4.83304e-07
2.89969e-09
4.82547e-07
2.92137e-09
4.81785e-07
2.94478e-09
4.81016e-07
2.97026e-09
4.80241e-07
2.99819e-09
4.79457e-07
3.02906e-09
4.78665e-07
3.06351e-09
4.77864e-07
3.10234e-09
4.77052e-07
3.1466e-09
4.76228e-07
3.19767e-09
4.75389e-07
3.25733e-09
4.74534e-07
3.32801e-09
4.73658e-07
3.41288e-09
4.72759e-07
3.51627e-09
4.7183e-07
3.64404e-09
4.70864e-07
3.80424e-09
4.69852e-07
4.00811e-09
4.68781e-07
4.27153e-09
4.67633e-07
4.61751e-09
4.66385e-07
5.08013e-09
4.65003e-07
5.71151e-09
4.63441e-07
6.59385e-09
4.61638e-07
7.86411e-09
4.5951e-07
9.75177e-09
4.56977e-07
1.26948e-08
4.53986e-07
1.73944e-08
4.50966e-07
2.55289e-08
3.88185e-08
4.4892e-07
4.88828e-07
3.60911e-09
4.88074e-07
3.63322e-09
4.87315e-07
3.65882e-09
4.8655e-07
3.6862e-09
4.8578e-07
3.71567e-09
4.85002e-07
3.74761e-09
4.84218e-07
3.78254e-09
4.83426e-07
3.82103e-09
4.82626e-07
3.86387e-09
4.81816e-07
3.91205e-09
4.80996e-07
3.96683e-09
4.80163e-07
4.0299e-09
4.79317e-07
4.10343e-09
4.78455e-07
4.19035e-09
4.77573e-07
4.29451e-09
4.76668e-07
4.42112e-09
4.75735e-07
4.57725e-09
4.74767e-07
4.77251e-09
4.73755e-07
5.0203e-09
4.72687e-07
5.33943e-09
4.71548e-07
5.7568e-09
4.70316e-07
6.31182e-09
4.68964e-07
7.06365e-09
4.67454e-07
8.10335e-09
4.65741e-07
9.57704e-09
4.63773e-07
1.17201e-08
4.61521e-07
1.49463e-08
4.59029e-07
1.98864e-08
4.56739e-07
2.78194e-08
3.99383e-08
4.55619e-07
4.91925e-07
4.36477e-09
4.91164e-07
4.39414e-09
4.90398e-07
4.42522e-09
4.89626e-07
4.45834e-09
4.88847e-07
4.49387e-09
4.88063e-07
4.5323e-09
4.87271e-07
4.57416e-09
4.86472e-07
4.62018e-09
4.85664e-07
4.67128e-09
4.84848e-07
4.72858e-09
4.84021e-07
4.7936e-09
4.83183e-07
4.86827e-09
4.82331e-07
4.95515e-09
4.81464e-07
5.05761e-09
4.80578e-07
5.18014e-09
4.79671e-07
5.32875e-09
4.78736e-07
5.51155e-09
4.77769e-07
5.73959e-09
4.76761e-07
6.02809e-09
4.75703e-07
6.39831e-09
4.74579e-07
6.88036e-09
4.73373e-07
7.51767e-09
4.72062e-07
8.37429e-09
4.70619e-07
9.54639e-09
4.69014e-07
1.11828e-08
4.6722e-07
1.3514e-08
4.65249e-07
1.69172e-08
4.63199e-07
2.19367e-08
4.61483e-07
2.95354e-08
4.0498e-08
4.60923e-07
4.94421e-07
5.12688e-09
4.93654e-07
5.16158e-09
4.92881e-07
5.19819e-09
4.92102e-07
5.23707e-09
4.91317e-07
5.27866e-09
4.90526e-07
5.3235e-09
4.89728e-07
5.37222e-09
4.88923e-07
5.42564e-09
4.88109e-07
5.48477e-09
4.87287e-07
5.55093e-09
4.86455e-07
5.62581e-09
4.85611e-07
5.71159e-09
4.84755e-07
5.81115e-09
4.83885e-07
5.92831e-09
4.82997e-07
6.06806e-09
4.82088e-07
6.23714e-09
4.81155e-07
6.44456e-09
4.80192e-07
6.70259e-09
4.79192e-07
7.02796e-09
4.78147e-07
7.44388e-09
4.77044e-07
7.98285e-09
4.75871e-07
8.69112e-09
4.7461e-07
9.63552e-09
4.73242e-07
1.09141e-08
4.71751e-07
1.26734e-08
4.70134e-07
1.51315e-08
4.68428e-07
1.86235e-08
4.66758e-07
2.36066e-08
4.65495e-07
3.07981e-08
4.06904e-08
4.65303e-07
4.96493e-07
5.89506e-09
4.95719e-07
5.93512e-09
4.9494e-07
5.97727e-09
4.94155e-07
6.02191e-09
4.93364e-07
6.06952e-09
4.92567e-07
6.1207e-09
4.91763e-07
6.17615e-09
4.90952e-07
6.23677e-09
4.90133e-07
6.3037e-09
4.89306e-07
6.37837e-09
4.88469e-07
6.46265e-09
4.87622e-07
6.55896e-09
4.86762e-07
6.67044e-09
4.85889e-07
6.80127e-09
4.85001e-07
6.95691e-09
4.84093e-07
7.1447e-09
4.83163e-07
7.37441e-09
4.82206e-07
7.65925e-09
4.81217e-07
8.01717e-09
4.80188e-07
8.47279e-09
4.79111e-07
9.06025e-09
4.77975e-07
9.8274e-09
4.76768e-07
1.08421e-08
4.75481e-07
1.22016e-08
4.74108e-07
1.40463e-08
4.72661e-07
1.65777e-08
4.71197e-07
2.00876e-08
4.69851e-07
2.49528e-08
4.68946e-07
3.17031e-08
4.06306e-08
4.69006e-07
4.98245e-07
6.66903e-09
4.97466e-07
6.71449e-09
4.96681e-07
6.76218e-09
4.9589e-07
6.81255e-09
4.95093e-07
6.86612e-09
4.94291e-07
6.92352e-09
4.93481e-07
6.98555e-09
4.92665e-07
7.05316e-09
4.91841e-07
7.12759e-09
4.91009e-07
7.21038e-09
4.90168e-07
7.30356e-09
4.89317e-07
7.40971e-09
4.88455e-07
7.53225e-09
4.87581e-07
7.6756e-09
4.86692e-07
7.84566e-09
4.85787e-07
8.0502e-09
4.84862e-07
8.2996e-09
4.83913e-07
8.60779e-09
4.82937e-07
8.99357e-09
4.81927e-07
9.4825e-09
4.80878e-07
1.01096e-08
4.79782e-07
1.09233e-08
4.78633e-07
1.1991e-08
4.77428e-07
1.34069e-08
4.76171e-07
1.5303e-08
4.74887e-07
1.78618e-08
4.7364e-07
2.1334e-08
4.72568e-07
2.60253e-08
4.71946e-07
3.23247e-08
4.03913e-08
4.72185e-07
4.99747e-07
7.44864e-09
4.98962e-07
7.49951e-09
4.98171e-07
7.55272e-09
4.97375e-07
7.60876e-09
4.96573e-07
7.66821e-09
4.95765e-07
7.73172e-09
4.9495e-07
7.80013e-09
4.94129e-07
7.87449e-09
4.933e-07
7.95607e-09
4.92464e-07
8.04656e-09
4.9162e-07
8.14806e-09
4.90766e-07
8.26333e-09
4.89902e-07
8.39595e-09
4.89027e-07
8.55061e-09
4.8814e-07
8.73346e-09
4.87237e-07
8.95265e-09
4.86318e-07
9.21897e-09
4.85379e-07
9.54684e-09
4.84417e-07
9.95556e-09
4.83428e-07
1.04712e-08
4.82409e-07
1.1129e-08
4.81355e-07
1.1977e-08
4.80265e-07
1.30809e-08
4.79141e-07
1.45304e-08
4.77997e-07
1.64477e-08
4.76863e-07
1.89954e-08
4.7581e-07
2.23868e-08
4.74969e-07
2.68672e-08
4.74573e-07
3.27206e-08
4.00201e-08
4.74944e-07
5.01046e-07
5.00256e-07
8.29004e-09
4.9946e-07
8.34874e-09
4.98658e-07
8.4104e-09
4.9785e-07
8.47561e-09
4.97037e-07
8.54508e-09
4.96218e-07
8.61968e-09
4.95392e-07
8.7005e-09
4.94559e-07
8.78889e-09
4.93719e-07
8.88659e-09
4.92871e-07
8.99581e-09
4.92015e-07
9.11942e-09
4.9115e-07
9.26111e-09
4.90275e-07
9.42575e-09
4.89388e-07
9.61969e-09
4.8849e-07
9.8513e-09
4.87577e-07
1.01316e-08
4.86648e-07
1.04754e-08
4.85702e-07
1.0902e-08
4.84736e-07
1.14376e-08
4.83747e-07
1.21172e-08
4.82737e-07
1.29876e-08
4.81706e-07
1.41119e-08
4.80662e-07
1.55742e-08
4.79623e-07
1.74861e-08
4.78628e-07
1.99911e-08
4.77746e-07
2.32687e-08
4.77098e-07
2.75147e-08
4.76884e-07
3.29352e-08
3.95493e-08
4.77354e-07
5.01382e-07
9.08598e-09
5.0058e-07
9.15012e-09
4.99773e-07
9.21732e-09
4.98961e-07
9.28817e-09
4.98142e-07
9.36344e-09
4.97318e-07
9.444e-09
4.96487e-07
9.531e-09
4.95651e-07
9.62582e-09
4.94807e-07
9.73024e-09
4.93956e-07
9.84653e-09
4.93098e-07
9.97764e-09
4.92232e-07
1.01273e-08
4.91357e-07
1.03006e-08
4.90473e-07
1.05039e-08
4.89578e-07
1.07456e-08
4.88673e-07
1.1037e-08
4.87756e-07
1.13927e-08
4.86825e-07
1.18322e-08
4.85882e-07
1.23812e-08
4.84925e-07
1.30739e-08
4.83957e-07
1.39553e-08
4.82984e-07
1.50852e-08
4.82017e-07
1.65417e-08
4.81078e-07
1.84253e-08
4.80207e-07
2.08616e-08
4.79475e-07
2.40009e-08
4.78991e-07
2.79983e-08
4.78923e-07
3.30032e-08
3.90016e-08
4.79471e-07
5.02366e-07
9.88722e-09
5.01559e-07
9.95675e-09
5.00747e-07
1.00294e-08
4.99929e-07
1.01058e-08
4.99106e-07
1.01867e-08
4.98277e-07
1.0273e-08
4.97442e-07
1.03658e-08
4.96601e-07
1.04667e-08
4.95754e-07
1.05773e-08
4.94901e-07
1.07e-08
4.94041e-07
1.08378e-08
4.93174e-07
1.09944e-08
4.923e-07
1.11749e-08
4.91418e-07
1.13857e-08
4.90528e-07
1.16352e-08
4.8963e-07
1.19347e-08
4.88725e-07
1.22986e-08
4.87811e-07
1.27459e-08
4.8689e-07
1.33018e-08
4.85965e-07
1.39992e-08
4.85039e-07
1.4881e-08
4.84122e-07
1.6003e-08
4.83227e-07
1.74368e-08
4.82379e-07
1.92727e-08
4.81621e-07
2.16194e-08
4.8102e-07
2.46022e-08
4.80675e-07
2.83436e-08
4.80727e-07
3.29515e-08
3.83933e-08
4.81335e-07
5.03227e-07
1.06936e-08
5.02416e-07
1.07685e-08
5.01599e-07
1.08465e-08
5.00776e-07
1.09282e-08
4.99948e-07
1.10146e-08
4.99115e-07
1.11064e-08
4.98276e-07
1.12048e-08
4.97431e-07
1.13112e-08
4.96581e-07
1.14276e-08
4.95725e-07
1.1556e-08
4.94863e-07
1.16996e-08
4.93996e-07
1.1862e-08
4.93122e-07
1.20483e-08
4.92243e-07
1.22648e-08
4.91358e-07
1.25199e-08
4.90468e-07
1.28245e-08
4.89574e-07
1.31927e-08
4.88677e-07
1.36431e-08
4.87779e-07
1.41997e-08
4.86885e-07
1.48939e-08
4.86e-07
1.5766e-08
4.85135e-07
1.68679e-08
4.84307e-07
1.82645e-08
4.83544e-07
2.0036e-08
4.82887e-07
2.22763e-08
4.82399e-07
2.50894e-08
4.82171e-07
2.85719e-08
4.82321e-07
3.28014e-08
3.7736e-08
4.82978e-07
5.03982e-07
1.1505e-08
5.03166e-07
1.15851e-08
5.02344e-07
1.16684e-08
5.01517e-07
1.17554e-08
5.00684e-07
1.1847e-08
4.99846e-07
1.19441e-08
4.99004e-07
1.20477e-08
4.98155e-07
1.21594e-08
4.97302e-07
1.22809e-08
4.96444e-07
1.24144e-08
4.9558e-07
1.25629e-08
4.94712e-07
1.27301e-08
4.9384e-07
1.29208e-08
4.92963e-07
1.31413e-08
4.92084e-07
1.33997e-08
4.91202e-07
1.37065e-08
4.90319e-07
1.40753e-08
4.89438e-07
1.4524e-08
4.88562e-07
1.50755e-08
4.87697e-07
1.57591e-08
4.86851e-07
1.66125e-08
4.86035e-07
1.76832e-08
4.8527e-07
1.90299e-08
4.84583e-07
2.0723e-08
4.84016e-07
2.28435e-08
4.83628e-07
2.54775e-08
4.83498e-07
2.8701e-08
4.8373e-07
3.257e-08
3.70389e-08
4.84427e-07
5.14133e-07
1.26241e-08
5.13007e-07
1.27117e-08
5.11873e-07
1.28024e-08
5.10731e-07
1.28969e-08
5.09582e-07
1.29959e-08
5.08426e-07
1.31004e-08
5.07262e-07
1.32114e-08
5.06092e-07
1.33303e-08
5.04914e-07
1.34588e-08
5.03729e-07
1.35993e-08
5.02537e-07
1.37543e-08
5.0134e-07
1.39277e-08
5.00137e-07
1.4124e-08
4.98929e-07
1.43492e-08
4.97717e-07
1.46112e-08
4.96504e-07
1.492e-08
4.9529e-07
1.52886e-08
4.9408e-07
1.57338e-08
4.92879e-07
1.62771e-08
4.91692e-07
1.6946e-08
4.90529e-07
1.77751e-08
4.89405e-07
1.88075e-08
4.88339e-07
2.00957e-08
4.8736e-07
2.17018e-08
4.86509e-07
2.36948e-08
4.8584e-07
2.61462e-08
4.85425e-07
2.91161e-08
4.8535e-07
3.2645e-08
3.66877e-08
4.85702e-07
4.9824e-07
1.32222e-08
4.97639e-07
1.33132e-08
4.97034e-07
1.34073e-08
4.96426e-07
1.35051e-08
4.95814e-07
1.36073e-08
4.952e-07
1.37148e-08
4.94583e-07
1.38286e-08
4.93963e-07
1.39502e-08
4.9334e-07
1.40812e-08
4.92716e-07
1.42236e-08
4.9209e-07
1.43801e-08
4.91464e-07
1.45543e-08
4.90837e-07
1.47506e-08
4.90212e-07
1.49745e-08
4.89589e-07
1.52337e-08
4.88972e-07
1.55374e-08
4.88363e-07
1.5898e-08
4.87765e-07
1.63311e-08
4.87186e-07
1.68567e-08
4.86632e-07
1.75e-08
4.86114e-07
1.82927e-08
4.85648e-07
1.92736e-08
4.85255e-07
2.04893e-08
4.84963e-07
2.19937e-08
4.84812e-07
2.38459e-08
4.84853e-07
2.61048e-08
4.85151e-07
2.88179e-08
4.85782e-07
3.20143e-08
3.56511e-08
4.86819e-07
4.8393e-07
1.33518e-08
4.83801e-07
1.34426e-08
4.83672e-07
1.35363e-08
4.83544e-07
1.36336e-08
4.83416e-07
1.37352e-08
4.83289e-07
1.38419e-08
4.83163e-07
1.39546e-08
4.83038e-07
1.40748e-08
4.82915e-07
1.42039e-08
4.82795e-07
1.43439e-08
4.82678e-07
1.44974e-08
4.82564e-07
1.46677e-08
4.82456e-07
1.48588e-08
4.82354e-07
1.50761e-08
4.82262e-07
1.53265e-08
4.8218e-07
1.56188e-08
4.82114e-07
1.59644e-08
4.82067e-07
1.63776e-08
4.82047e-07
1.68769e-08
4.82062e-07
1.7485e-08
4.82124e-07
1.82306e-08
4.82249e-07
1.91482e-08
4.8246e-07
2.02789e-08
4.82784e-07
2.16692e-08
4.83261e-07
2.33692e-08
4.83938e-07
2.54274e-08
4.84875e-07
2.7881e-08
4.86138e-07
3.07512e-08
3.39981e-08
4.87791e-07
4.71051e-07
1.30602e-08
4.71347e-07
1.31475e-08
4.71645e-07
1.32377e-08
4.71948e-07
1.33312e-08
4.72254e-07
1.34287e-08
4.72565e-07
1.35311e-08
4.7288e-07
1.36392e-08
4.73201e-07
1.37543e-08
4.73527e-07
1.38778e-08
4.73859e-07
1.40115e-08
4.74199e-07
1.41579e-08
4.74547e-07
1.43199e-08
4.74904e-07
1.45014e-08
4.75273e-07
1.47071e-08
4.75656e-07
1.49436e-08
4.76056e-07
1.52188e-08
4.76477e-07
1.55431e-08
4.76925e-07
1.59296e-08
4.77408e-07
1.63947e-08
4.77933e-07
1.69591e-08
4.78516e-07
1.7648e-08
4.79172e-07
1.84921e-08
4.79924e-07
1.95268e-08
4.80801e-07
2.07923e-08
4.8184e-07
2.23303e-08
4.83087e-07
2.41808e-08
4.84595e-07
2.63729e-08
4.86424e-07
2.89216e-08
3.17912e-08
4.88631e-07
4.59463e-07
1.23902e-08
4.60139e-07
1.24712e-08
4.60822e-07
1.25548e-08
4.61512e-07
1.26416e-08
4.62209e-07
1.2732e-08
4.62913e-07
1.2827e-08
4.63624e-07
1.29273e-08
4.64345e-07
1.30341e-08
4.65074e-07
1.31486e-08
4.65813e-07
1.32726e-08
4.66562e-07
1.34083e-08
4.67324e-07
1.35582e-08
4.681e-07
1.37259e-08
4.68891e-07
1.39159e-08
4.69701e-07
1.41337e-08
4.70533e-07
1.43867e-08
4.71392e-07
1.46841e-08
4.72284e-07
1.50376e-08
4.73217e-07
1.54617e-08
4.74201e-07
1.59747e-08
4.7525e-07
1.65987e-08
4.76382e-07
1.73601e-08
4.7762e-07
1.82895e-08
4.78991e-07
1.94207e-08
4.80533e-07
2.07886e-08
4.82288e-07
2.24255e-08
4.84307e-07
2.43541e-08
4.86643e-07
2.65851e-08
2.9087e-08
4.89348e-07
4.49037e-07
1.13806e-08
4.50056e-07
1.14527e-08
4.51083e-07
1.15271e-08
4.52121e-07
1.16044e-08
4.53167e-07
1.16851e-08
4.54225e-07
1.17699e-08
4.55292e-07
1.18596e-08
4.56371e-07
1.19551e-08
4.57462e-07
1.20577e-08
4.58566e-07
1.21689e-08
4.59683e-07
1.22905e-08
4.60817e-07
1.2425e-08
4.61967e-07
1.25754e-08
4.63137e-07
1.27457e-08
4.6433e-07
1.29408e-08
4.6555e-07
1.31671e-08
4.66801e-07
1.34327e-08
4.68091e-07
1.37477e-08
4.69428e-07
1.41248e-08
4.70823e-07
1.45798e-08
4.7229e-07
1.51315e-08
4.73848e-07
1.58024e-08
4.75519e-07
1.66183e-08
4.77333e-07
1.76073e-08
4.79324e-07
1.87979e-08
4.81533e-07
2.02162e-08
4.84008e-07
2.18795e-08
4.86797e-07
2.37953e-08
2.59368e-08
4.89947e-07
4.39656e-07
1.00662e-08
4.40982e-07
1.0127e-08
4.42319e-07
1.01899e-08
4.43668e-07
1.02554e-08
4.45029e-07
1.03239e-08
4.46403e-07
1.03961e-08
4.4779e-07
1.04726e-08
4.49191e-07
1.05544e-08
4.50606e-07
1.06424e-08
4.52037e-07
1.0738e-08
4.53485e-07
1.08427e-08
4.54951e-07
1.09588e-08
4.56438e-07
1.10887e-08
4.57948e-07
1.12359e-08
4.59484e-07
1.14046e-08
4.61051e-07
1.16002e-08
4.62654e-07
1.18297e-08
4.643e-07
1.21014e-08
4.65999e-07
1.24263e-08
4.67761e-07
1.28174e-08
4.69602e-07
1.32904e-08
4.7154e-07
1.38641e-08
4.73599e-07
1.45595e-08
4.75807e-07
1.53995e-08
4.78198e-07
1.64069e-08
4.80812e-07
1.76022e-08
4.83693e-07
1.89985e-08
4.86887e-07
2.0601e-08
2.23873e-08
4.90437e-07
4.31214e-07
8.47824e-09
4.32816e-07
8.52577e-09
4.3443e-07
8.5751e-09
4.36059e-07
8.62663e-09
4.37702e-07
8.68083e-09
4.3936e-07
8.73822e-09
4.41033e-07
8.79939e-09
4.42723e-07
8.86507e-09
4.44429e-07
8.93615e-09
4.46153e-07
9.01371e-09
4.47897e-07
9.0991e-09
4.49662e-07
9.19405e-09
4.5145e-07
9.30073e-09
4.53264e-07
9.42188e-09
4.55107e-07
9.56099e-09
4.56985e-07
9.72251e-09
4.58903e-07
9.912e-09
4.60868e-07
1.01364e-08
4.62889e-07
1.04045e-08
4.6498e-07
1.07267e-08
4.67155e-07
1.11158e-08
4.69432e-07
1.15865e-08
4.71836e-07
1.21555e-08
4.74395e-07
1.28407e-08
4.77142e-07
1.36599e-08
4.80116e-07
1.46284e-08
4.83358e-07
1.5756e-08
4.86913e-07
1.70461e-08
1.84808e-08
4.9082e-07
4.23615e-07
6.64513e-09
4.25463e-07
6.67753e-09
4.27327e-07
6.71141e-09
4.29206e-07
6.74714e-09
4.31102e-07
6.78511e-09
4.33014e-07
6.82576e-09
4.34944e-07
6.86958e-09
4.36892e-07
6.91717e-09
4.38859e-07
6.96924e-09
4.40846e-07
7.02664e-09
4.42855e-07
7.09044e-09
4.44887e-07
7.16199e-09
4.46945e-07
7.24297e-09
4.49031e-07
7.33551e-09
4.5115e-07
7.4423e-09
4.53305e-07
7.56674e-09
4.55504e-07
7.7131e-09
4.57754e-07
7.88671e-09
4.60064e-07
8.09412e-09
4.62448e-07
8.34334e-09
4.6492e-07
8.64389e-09
4.67499e-07
9.00685e-09
4.7021e-07
9.44462e-09
4.73081e-07
9.97036e-09
4.76144e-07
1.0597e-08
4.79436e-07
1.13355e-08
4.83e-07
1.21928e-08
4.86875e-07
1.31706e-08
1.42558e-08
4.911e-07
4.16771e-07
4.59232e-09
4.1884e-07
4.60794e-09
4.20927e-07
4.62472e-09
4.23031e-07
4.64298e-09
4.25153e-07
4.66302e-09
4.27294e-07
4.68522e-09
4.29453e-07
4.70995e-09
4.31633e-07
4.73767e-09
4.33833e-07
4.76891e-09
4.36055e-07
4.80428e-09
4.38301e-07
4.84456e-09
4.40573e-07
4.8907e-09
4.42872e-07
4.9439e-09
4.45202e-07
5.00562e-09
4.47566e-07
5.07775e-09
4.4997e-07
5.16263e-09
4.5242e-07
5.26318e-09
4.54924e-07
5.38304e-09
4.57491e-07
5.52668e-09
4.60135e-07
5.69949e-09
4.62871e-07
5.90789e-09
4.65719e-07
6.15925e-09
4.68702e-07
6.46181e-09
4.71848e-07
6.82419e-09
4.7519e-07
7.25475e-09
4.78765e-07
7.76055e-09
4.82612e-07
8.34563e-09
4.86772e-07
9.01079e-09
9.74741e-09
4.9128e-07
4.10603e-07
2.34276e-09
4.1287e-07
2.34015e-09
4.15157e-07
2.33837e-09
4.17462e-07
2.33766e-09
4.19787e-07
2.33829e-09
4.22132e-07
2.34051e-09
4.24497e-07
2.34462e-09
4.26884e-07
2.3509e-09
4.29293e-07
2.35971e-09
4.31726e-07
2.37142e-09
4.34184e-07
2.38651e-09
4.36669e-07
2.40553e-09
4.39184e-07
2.42915e-09
4.41731e-07
2.45821e-09
4.44315e-07
2.49373e-09
4.46941e-07
2.53698e-09
4.49614e-07
2.58954e-09
4.52344e-07
2.65333e-09
4.5514e-07
2.7307e-09
4.58015e-07
2.82444e-09
4.60985e-07
2.93784e-09
4.6407e-07
3.07463e-09
4.67293e-07
3.23892e-09
4.70682e-07
3.43492e-09
4.7427e-07
3.66663e-09
4.78093e-07
3.93726e-09
4.82191e-07
4.24842e-09
4.86602e-07
4.59989e-09
4.98751e-09
4.91361e-07
4.0504e-07
-8.28588e-11
4.07485e-07
-1.04991e-10
4.0995e-07
-1.26648e-10
4.12435e-07
-1.47627e-10
4.14941e-07
-1.67744e-10
4.17469e-07
-1.86822e-10
4.20018e-07
-2.04698e-10
4.2259e-07
-2.21215e-10
4.25186e-07
-2.3622e-10
4.27807e-07
-2.49563e-10
4.30455e-07
-2.61094e-10
4.33131e-07
-2.70659e-10
4.35838e-07
-2.78099e-10
4.38579e-07
-2.83244e-10
4.41359e-07
-2.85916e-10
4.44182e-07
-2.85922e-10
4.47055e-07
-2.83061e-10
4.49985e-07
-2.77123e-10
4.52984e-07
-2.67898e-10
4.56063e-07
-2.55194e-10
4.5924e-07
-2.38848e-10
4.62533e-07
-2.18764e-10
4.65967e-07
-1.94941e-10
4.6957e-07
-1.6752e-10
4.73373e-07
-1.36826e-10
4.77414e-07
-1.0339e-10
4.8173e-07
-6.79776e-11
4.86362e-07
-3.17955e-11
5.35024e-12
4.91344e-07
4.70904e-07
-3.47338e-09
4.74321e-07
-3.5225e-09
4.77766e-07
-3.57159e-09
4.81239e-07
-3.6205e-09
4.8474e-07
-3.66914e-09
4.88271e-07
-3.71743e-09
4.91832e-07
-3.76535e-09
4.95423e-07
-3.81292e-09
4.99047e-07
-3.86021e-09
5.02705e-07
-3.90735e-09
5.06399e-07
-3.95458e-09
5.1013e-07
-4.00221e-09
5.13903e-07
-4.05071e-09
5.1772e-07
-4.1007e-09
5.21587e-07
-4.15302e-09
5.2551e-07
-4.20877e-09
5.29496e-07
-4.26941e-09
5.33556e-07
-4.33678e-09
5.37701e-07
-4.41325e-09
5.41948e-07
-4.50176e-09
5.46315e-07
-4.60593e-09
5.50826e-07
-4.73006e-09
5.55511e-07
-4.87913e-09
5.60402e-07
-5.05861e-09
5.65539e-07
-5.27408e-09
5.70966e-07
-5.53075e-09
5.76731e-07
-5.83241e-09
5.82881e-07
-6.18159e-09
-6.57328e-09
5.89459e-07
4.73805e-07
-6.76446e-09
4.77122e-07
-6.83975e-09
4.80466e-07
-6.91544e-09
4.83837e-07
-6.99144e-09
4.87235e-07
-7.06774e-09
4.90662e-07
-7.14438e-09
4.94118e-07
-7.22147e-09
4.97605e-07
-7.29918e-09
5.01122e-07
-7.37783e-09
5.04673e-07
-7.45783e-09
5.08258e-07
-7.53978e-09
5.1188e-07
-7.62446e-09
5.15542e-07
-7.71296e-09
5.19248e-07
-7.80668e-09
5.23003e-07
-7.90746e-09
5.26812e-07
-8.0177e-09
5.30683e-07
-8.14045e-09
5.34626e-07
-8.27961e-09
5.38653e-07
-8.44011e-09
5.42779e-07
-8.62801e-09
5.47024e-07
-8.85068e-09
5.5141e-07
-9.11687e-09
5.55968e-07
-9.43655e-09
5.6073e-07
-9.8206e-09
5.65736e-07
-1.02801e-08
5.7103e-07
-1.0825e-08
5.7666e-07
-1.14624e-08
5.82675e-07
-1.21964e-08
-1.30171e-08
5.89119e-07
4.76862e-07
-9.94849e-09
4.80071e-07
-1.00491e-08
4.83306e-07
-1.01505e-08
4.86567e-07
-1.02526e-08
4.89855e-07
-1.03557e-08
4.93171e-07
-1.04597e-08
4.96514e-07
-1.05649e-08
4.99887e-07
-1.06718e-08
5.0329e-07
-1.07808e-08
5.06724e-07
-1.08925e-08
5.10192e-07
-1.1008e-08
5.13697e-07
-1.11285e-08
5.17239e-07
-1.12557e-08
5.20824e-07
-1.13917e-08
5.24456e-07
-1.15394e-08
5.28141e-07
-1.17024e-08
5.31886e-07
-1.18853e-08
5.357e-07
-1.2094e-08
5.39596e-07
-1.23361e-08
5.43589e-07
-1.26205e-08
5.47696e-07
-1.29586e-08
5.51943e-07
-1.33634e-08
5.56357e-07
-1.38502e-08
5.60971e-07
-1.44353e-08
5.65827e-07
-1.51356e-08
5.70968e-07
-1.59665e-08
5.76445e-07
-1.69387e-08
5.82307e-07
-1.80583e-08
-1.93105e-08
5.886e-07
4.80086e-07
-1.30174e-08
4.83179e-07
-1.31423e-08
4.86297e-07
-1.32684e-08
4.8944e-07
-1.33958e-08
4.92609e-07
-1.35245e-08
4.95804e-07
-1.36548e-08
4.99026e-07
-1.37872e-08
5.02276e-07
-1.3922e-08
5.05556e-07
-1.40601e-08
5.08866e-07
-1.42023e-08
5.12208e-07
-1.43501e-08
5.15584e-07
-1.4505e-08
5.18998e-07
-1.46692e-08
5.22452e-07
-1.48458e-08
5.25951e-07
-1.50384e-08
5.295e-07
-1.52519e-08
5.33107e-07
-1.54924e-08
5.36781e-07
-1.57678e-08
5.40533e-07
-1.60881e-08
5.44378e-07
-1.64653e-08
5.48334e-07
-1.69145e-08
5.52424e-07
-1.74534e-08
5.56676e-07
-1.81023e-08
5.61124e-07
-1.88838e-08
5.65809e-07
-1.98208e-08
5.70778e-07
-2.09348e-08
5.7608e-07
-2.2241e-08
5.8177e-07
-2.37484e-08
-2.5437e-08
5.87897e-07
4.83487e-07
-1.59626e-08
4.86456e-07
-1.61108e-08
4.89448e-07
-1.62605e-08
4.92464e-07
-1.64119e-08
4.95505e-07
-1.65653e-08
4.98571e-07
-1.67208e-08
5.01663e-07
-1.6879e-08
5.04781e-07
-1.70406e-08
5.07927e-07
-1.72064e-08
5.11103e-07
-1.73777e-08
5.14309e-07
-1.75561e-08
5.17548e-07
-1.77437e-08
5.20822e-07
-1.79432e-08
5.24134e-07
-1.81583e-08
5.27489e-07
-1.83934e-08
5.30892e-07
-1.86547e-08
5.34349e-07
-1.89497e-08
5.3787e-07
-1.92883e-08
5.41464e-07
-1.96825e-08
5.45147e-07
-2.01477e-08
5.48935e-07
-2.07026e-08
5.52851e-07
-2.13696e-08
5.56923e-07
-2.21744e-08
5.61185e-07
-2.31461e-08
5.65679e-07
-2.43145e-08
5.70452e-07
-2.57081e-08
5.75559e-07
-2.73478e-08
5.81057e-07
-2.92467e-08
-3.13793e-08
5.87e-07
4.87078e-07
-1.87748e-08
4.89913e-07
-1.89452e-08
4.92769e-07
-1.91174e-08
4.95649e-07
-1.92917e-08
4.98552e-07
-1.94684e-08
5.01479e-07
-1.96478e-08
5.04431e-07
-1.98306e-08
5.07408e-07
-2.00175e-08
5.10411e-07
-2.02096e-08
5.13442e-07
-2.04084e-08
5.16501e-07
-2.06158e-08
5.19592e-07
-2.08341e-08
5.22715e-07
-2.10668e-08
5.25875e-07
-2.13179e-08
5.29074e-07
-2.15929e-08
5.32318e-07
-2.18988e-08
5.35613e-07
-2.22446e-08
5.38967e-07
-2.26419e-08
5.42389e-07
-2.31051e-08
5.45894e-07
-2.36525e-08
5.49498e-07
-2.43065e-08
5.53223e-07
-2.50941e-08
5.57095e-07
-2.6047e-08
5.6115e-07
-2.72012e-08
5.6543e-07
-2.85943e-08
5.69985e-07
-3.02632e-08
5.74873e-07
-3.22359e-08
5.80158e-07
-3.45313e-08
-3.71187e-08
5.85897e-07
4.9087e-07
-2.14442e-08
4.9356e-07
-2.16355e-08
4.96272e-07
-2.1829e-08
4.99005e-07
-2.2025e-08
5.0176e-07
-2.22236e-08
5.04538e-07
-2.24255e-08
5.07339e-07
-2.26314e-08
5.10163e-07
-2.28421e-08
5.13013e-07
-2.30589e-08
5.15888e-07
-2.32834e-08
5.1879e-07
-2.35178e-08
5.2172e-07
-2.37648e-08
5.24682e-07
-2.40282e-08
5.27677e-07
-2.43126e-08
5.30708e-07
-2.46243e-08
5.3378e-07
-2.49712e-08
5.36899e-07
-2.53636e-08
5.40072e-07
-2.58146e-08
5.43308e-07
-2.6341e-08
5.46619e-07
-2.69636e-08
5.50021e-07
-2.77087e-08
5.53535e-07
-2.86082e-08
5.57188e-07
-2.96997e-08
5.61014e-07
-3.10269e-08
5.65056e-07
-3.26363e-08
5.69368e-07
-3.45749e-08
5.74012e-07
-3.68799e-08
5.79059e-07
-3.95787e-08
-4.26352e-08
5.84576e-07
4.94873e-07
-2.39604e-08
4.97409e-07
-2.41714e-08
4.99964e-07
-2.43847e-08
5.0254e-07
-2.46008e-08
5.05137e-07
-2.48201e-08
5.07754e-07
-2.5043e-08
5.10393e-07
-2.52703e-08
5.13054e-07
-2.55031e-08
5.15738e-07
-2.57428e-08
5.18446e-07
-2.5991e-08
5.21178e-07
-2.62503e-08
5.23937e-07
-2.65236e-08
5.26724e-07
-2.68151e-08
5.29541e-07
-2.71298e-08
5.32391e-07
-2.74747e-08
5.35279e-07
-2.78585e-08
5.38208e-07
-2.82927e-08
5.41185e-07
-2.87917e-08
5.44218e-07
-2.93743e-08
5.47319e-07
-3.00643e-08
5.50502e-07
-3.08913e-08
5.53786e-07
-3.18921e-08
5.57197e-07
-3.3111e-08
5.60769e-07
-3.45995e-08
5.64548e-07
-3.64148e-08
5.68589e-07
-3.8616e-08
5.72961e-07
-4.1252e-08
5.77745e-07
-4.43628e-08
-4.7907e-08
5.83017e-07
4.99099e-07
-2.63121e-08
5.01469e-07
-2.65412e-08
5.03858e-07
-2.6773e-08
5.06264e-07
-2.70078e-08
5.0869e-07
-2.7246e-08
5.11136e-07
-2.74882e-08
5.13601e-07
-2.77353e-08
5.16086e-07
-2.79884e-08
5.18592e-07
-2.82489e-08
5.2112e-07
-2.85188e-08
5.2367e-07
-2.88006e-08
5.26244e-07
-2.90977e-08
5.28843e-07
-2.94143e-08
5.31469e-07
-2.9756e-08
5.34125e-07
-3.01302e-08
5.36813e-07
-3.05464e-08
5.39537e-07
-3.10168e-08
5.42303e-07
-3.15575e-08
5.45117e-07
-3.21889e-08
5.4799e-07
-3.29371e-08
5.50934e-07
-3.38355e-08
5.53968e-07
-3.49255e-08
5.57115e-07
-3.62581e-08
5.60409e-07
-3.7894e-08
5.63896e-07
-3.99021e-08
5.67637e-07
-4.23565e-08
5.71706e-07
-4.53212e-08
5.76198e-07
-4.88544e-08
-5.29097e-08
5.812e-07
5.0356e-07
-2.84873e-08
5.05751e-07
-2.8733e-08
5.0796e-07
-2.89815e-08
5.10185e-07
-2.92333e-08
5.12428e-07
-2.94888e-08
5.14689e-07
-2.97485e-08
5.16967e-07
-3.00135e-08
5.19263e-07
-3.02849e-08
5.21579e-07
-3.05641e-08
5.23913e-07
-3.08534e-08
5.26268e-07
-3.11552e-08
5.28643e-07
-3.14731e-08
5.31041e-07
-3.18117e-08
5.33461e-07
-3.21767e-08
5.35907e-07
-3.2576e-08
5.3838e-07
-3.30196e-08
5.40884e-07
-3.35205e-08
5.43422e-07
-3.40958e-08
5.46001e-07
-3.47674e-08
5.48628e-07
-3.55638e-08
5.51314e-07
-3.65215e-08
5.54075e-07
-3.76867e-08
5.56934e-07
-3.91172e-08
5.59924e-07
-4.08837e-08
5.6309e-07
-4.30683e-08
5.66497e-07
-4.57636e-08
5.70229e-07
-4.90528e-08
5.74395e-07
-5.30205e-08
-5.76162e-08
5.79101e-07
5.08263e-07
-3.0473e-08
5.10264e-07
-3.07336e-08
5.1228e-07
-3.09972e-08
5.14311e-07
-3.12642e-08
5.16357e-07
-3.1535e-08
5.18419e-07
-3.18104e-08
5.20496e-07
-3.20912e-08
5.2259e-07
-3.23786e-08
5.247e-07
-3.26744e-08
5.26827e-07
-3.29804e-08
5.28972e-07
-3.32995e-08
5.31134e-07
-3.36353e-08
5.33314e-07
-3.39924e-08
5.35515e-07
-3.43768e-08
5.37735e-07
-3.47967e-08
5.39978e-07
-3.52623e-08
5.42245e-07
-3.57873e-08
5.44538e-07
-3.63895e-08
5.46863e-07
-3.70921e-08
5.49225e-07
-3.79255e-08
5.51632e-07
-3.8929e-08
5.54099e-07
-4.01535e-08
5.56645e-07
-4.16635e-08
5.59302e-07
-4.35404e-08
5.62115e-07
-4.58811e-08
5.65152e-07
-4.8801e-08
5.68507e-07
-5.24072e-08
5.72309e-07
-5.68234e-08
-6.19951e-08
5.76688e-07
4.98873e-07
-3.2715e-08
5.01132e-07
-3.29921e-08
5.03407e-07
-3.32723e-08
5.05699e-07
-3.3556e-08
5.08007e-07
-3.38436e-08
5.10333e-07
-3.4136e-08
5.12676e-07
-3.4434e-08
5.15036e-07
-3.47388e-08
5.17414e-07
-3.5052e-08
5.19809e-07
-3.53758e-08
5.22222e-07
-3.57129e-08
5.24654e-07
-3.60669e-08
5.27104e-07
-3.64426e-08
5.29573e-07
-3.6846e-08
5.32062e-07
-3.72852e-08
5.34571e-07
-3.7771e-08
5.371e-07
-3.8317e-08
5.39653e-07
-3.89418e-08
5.4223e-07
-3.96692e-08
5.44835e-07
-4.05312e-08
5.47476e-07
-4.15695e-08
5.50161e-07
-4.2839e-08
5.52909e-07
-4.4411e-08
5.55747e-07
-4.6378e-08
5.58719e-07
-4.88534e-08
5.61898e-07
-5.19801e-08
5.65386e-07
-5.5895e-08
5.69342e-07
-6.07801e-08
-6.65769e-08
5.73924e-07
5.14191e-07
-3.44157e-08
5.15904e-07
-3.47049e-08
5.17628e-07
-3.49971e-08
5.19365e-07
-3.5293e-08
5.21115e-07
-3.55928e-08
5.22876e-07
-3.58974e-08
5.2465e-07
-3.62076e-08
5.26436e-07
-3.65247e-08
5.28234e-07
-3.68503e-08
5.30044e-07
-3.71864e-08
5.31867e-07
-3.75357e-08
5.33702e-07
-3.7902e-08
5.35549e-07
-3.82897e-08
5.37408e-07
-3.8705e-08
5.39279e-07
-3.91559e-08
5.41161e-07
-3.96531e-08
5.43054e-07
-4.02104e-08
5.44959e-07
-4.08462e-08
5.46875e-07
-4.15852e-08
5.48804e-07
-4.24599e-08
5.50748e-07
-4.35139e-08
5.52715e-07
-4.48057e-08
5.54716e-07
-4.64125e-08
5.56777e-07
-4.84382e-08
5.58937e-07
-5.10137e-08
5.61272e-07
-5.43151e-08
5.63892e-07
-5.85148e-08
5.66992e-07
-6.38804e-08
-7.03466e-08
5.70762e-07
5.32831e-07
-3.54605e-08
5.33883e-07
-3.57564e-08
5.34941e-07
-3.60553e-08
5.36006e-07
-3.63578e-08
5.37077e-07
-3.66643e-08
5.38155e-07
-3.69754e-08
5.3924e-07
-3.72921e-08
5.40331e-07
-3.76155e-08
5.41427e-07
-3.79472e-08
5.4253e-07
-3.82892e-08
5.43639e-07
-3.86442e-08
5.44752e-07
-3.90156e-08
5.45871e-07
-3.94079e-08
5.46993e-07
-3.98271e-08
5.48118e-07
-4.02809e-08
5.49244e-07
-4.07798e-08
5.50371e-07
-4.13373e-08
5.51497e-07
-4.19717e-08
5.52619e-07
-4.27074e-08
5.53736e-07
-4.35773e-08
5.54848e-07
-4.4626e-08
5.55957e-07
-4.59144e-08
5.5707e-07
-4.75249e-08
5.58204e-07
-4.95725e-08
5.59395e-07
-5.22052e-08
5.6072e-07
-5.56397e-08
5.62293e-07
-6.00875e-08
5.64357e-07
-6.59446e-08
-7.31272e-08
5.67137e-07
5.55479e-07
-3.57112e-08
5.5573e-07
-3.60074e-08
5.55981e-07
-3.63065e-08
5.56232e-07
-3.66091e-08
5.56484e-07
-3.69155e-08
5.56735e-07
-3.72264e-08
5.56985e-07
-3.75426e-08
5.57235e-07
-3.78653e-08
5.57484e-07
-3.81959e-08
5.57731e-07
-3.85363e-08
5.57976e-07
-3.88891e-08
5.58218e-07
-3.92575e-08
5.58456e-07
-3.96459e-08
5.58688e-07
-4.00597e-08
5.58914e-07
-4.05065e-08
5.5913e-07