/*--------------------------------*- C++ -*----------------------------------*\
  =========                 |
  \\      /  F ield         | OpenFOAM: The Open Source CFD Toolbox
   \\    /   O peration     | Website:  https://openfoam.org
    \\  /    A nd           | Version:  6
     \\/     M anipulation  |
\*---------------------------------------------------------------------------*/
FoamFile
{
    version     2.0;
    format      ascii;
    class       volVectorField;
    location    "0.08";
    object      U;
}
// * * * * * * * * * * * * * * * * * * * * * * * * * * * * * * * * * * * * * //

dimensions      [0 1 -1 0 0 0 0];

internalField   nonuniform List<vector> 
3080
(
(0.444485 -2.14075e-05 1.20211e-20)
(0.444496 -2.17248e-05 1.19648e-20)
(0.444508 -2.18951e-05 0)
(0.44452 -2.18988e-05 1.18529e-20)
(0.444532 -2.17114e-05 0)
(0.444544 -2.13018e-05 0)
(0.444554 -2.06311e-05 1.16873e-20)
(0.444562 -1.96506e-05 0)
(0.444566 -1.82973e-05 1.15784e-20)
(0.444567 -1.64883e-05 0)
(0.444562 -1.41146e-05 0)
(0.444549 -1.10323e-05 1.14181e-20)
(0.444526 -7.05031e-06 0)
(0.444491 -1.91377e-06 1.13138e-20)
(0.444438 4.71948e-06 0)
(0.444363 1.33122e-05 0)
(0.444259 2.44973e-05 0)
(0.444116 3.91526e-05 -1.11156e-20)
(0.443923 5.85179e-05 0)
(0.443661 8.43825e-05 1.10258e-20)
(0.443306 0.000119409 0)
(0.442824 0.00016769 0)
(0.442161 0.000235887 0)
(0.441237 0.000335164 0)
(0.439924 0.000487128 0)
(0.437966 0.000730066 0)
(0.435028 0.00117173 0)
(0.429752 0.0019545 -2.19774e-20)
(0.422198 0.00397026 0)
(0.399375 0.00684522 0)
(0.473494 -3.65674e-05 9.53625e-21)
(0.473509 -3.73638e-05 -9.49623e-21)
(0.473526 -3.78511e-05 0)
(0.473544 -3.79852e-05 9.41335e-21)
(0.473562 -3.77114e-05 0)
(0.47358 -3.69623e-05 0)
(0.473598 -3.56547e-05 -9.29216e-21)
(0.473614 -3.36838e-05 1.85023e-20)
(0.473629 -3.09151e-05 -9.21122e-21)
(0.473641 -2.71737e-05 0)
(0.473649 -2.22308e-05 0)
(0.473651 -1.57855e-05 9.0902e-21)
(0.473647 -7.44004e-06 0)
(0.473633 3.33476e-06 9.01159e-21)
(0.473607 1.72478e-05 0)
(0.473564 3.52561e-05 0)
(0.4735 5.86661e-05 0)
(0.473408 8.92847e-05 8.86165e-21)
(0.47328 0.000129654 0)
(0.473102 0.00018343 -8.79281e-21)
(0.472858 0.000256014 0)
(0.472525 0.000355656 0)
(0.472069 0.00049562 1.74174e-20)
(0.471443 0.000697983 -1.73799e-20)
(0.470577 0.00100402 0)
(0.469343 0.00148827 0)
(0.467636 0.00233764 0)
(0.464909 0.00384474 5.25156e-20)
(0.46177 0.00731649 0)
(0.455017 0.0133931 -3.5979e-20)
(0.483392 -6.33932e-05 -1.54926e-20)
(0.483408 -6.47026e-05 0)
(0.483425 -6.55591e-05 0)
(0.483442 -6.58922e-05 -4.5889e-20)
(0.48346 -6.5617e-05 3.04616e-20)
(0.483477 -6.46299e-05 0)
(0.483494 -6.28032e-05 3.02001e-20)
(0.48351 -5.99768e-05 -1.50353e-20)
(0.483524 -5.59466e-05 0)
(0.483536 -5.04495e-05 0)
(0.483543 -4.31435e-05 0)
(0.483545 -3.35801e-05 -4.43254e-20)
(0.48354 -2.1169e-05 0)
(0.483525 -5.12694e-06 -1.46474e-20)
(0.483498 1.55917e-05 0)
(0.483454 4.23947e-05 0)
(0.483389 7.71954e-05 0)
(0.483296 0.000122626 0)
(0.483166 0.000182367 0)
(0.482986 0.00026166 0)
(0.48274 0.000368162 -2.84722e-20)
(0.482406 0.000513387 0)
(0.48195 0.000715401 -1.41493e-20)
(0.481325 0.00100355 4.23533e-20)
(0.480468 0.00142981 0)
(0.479268 0.00208555 0)
(0.477625 0.00317293 -2.82571e-20)
(0.475211 0.00502837 -2.84398e-20)
(0.472399 0.00875868 2.86777e-20)
(0.468476 0.0156179 2.92405e-20)
(0.489158 -8.88372e-05 -2.66282e-20)
(0.489173 -9.06098e-05 0)
(0.489188 -9.17889e-05 0)
(0.489204 -9.22763e-05 2.629e-20)
(0.48922 -9.19542e-05 -7.68055e-25)
(0.489236 -9.06802e-05 0)
(0.489252 -8.82791e-05 -2.59494e-20)
(0.489266 -8.45311e-05 -2.58349e-20)
(0.489278 -7.91576e-05 0)
(0.489288 -7.18001e-05 0)
(0.489294 -6.19944e-05 2.54942e-20)
(0.489294 -4.91338e-05 8.69865e-25)
(0.489288 -3.24209e-05 0)
(0.489273 -1.08008e-05 2.51565e-20)
(0.489245 1.71319e-05 0)
(0.489201 5.3264e-05 0)
(0.489137 0.000100152 0)
(0.489045 0.000161302 -2.47223e-20)
(0.488918 0.000241585 0)
(0.488743 0.0003479 0)
(0.488504 0.000490225 2.44316e-20)
(0.488181 0.000683383 0)
(0.487744 0.000950193 0)
(0.487151 0.00132692 -4.84257e-20)
(0.486347 0.00187504 0)
(0.485248 0.0026992 0)
(0.483783 0.00400753 2.4217e-20)
(0.481779 0.00613995 4.85335e-20)
(0.47958 0.00998439 -2.45468e-20)
(0.477131 0.0164945 0)
(0.493224 -0.000111569 2.38349e-20)
(0.493236 -0.000113755 -2.37323e-20)
(0.49325 -0.000115219 0)
(0.493263 -0.000115837 2.35277e-20)
(0.493277 -0.000115458 -2.34256e-20)
(0.493291 -0.000113901 0)
(0.493305 -0.000110944 -2.32189e-20)
(0.493317 -0.000106309 4.62319e-20)
(0.493327 -9.96429e-05 0)
(0.493335 -9.04955e-05 4.58177e-20)
(0.493339 -7.8283e-05 -2.28064e-20)
(0.493339 -6.22447e-05 2.27033e-20)
(0.493332 -4.13833e-05 0)
(0.493316 -1.43818e-05 -2.24984e-20)
(0.493288 2.05098e-05 0)
(0.493246 6.56349e-05 0)
(0.493183 0.000124159 0)
(0.493095 0.000200402 2.21009e-20)
(0.492974 0.000300342 0)
(0.492807 0.000432376 0)
(0.492582 0.000608538 0)
(0.492279 0.000846477 0)
(0.491873 0.00117285 0)
(0.491329 0.00162903 2.16231e-20)
(0.490603 0.00228245 0)
(0.489637 0.00324344 4.30839e-20)
(0.488395 0.00471287 0)
(0.486805 0.00700307 -4.32851e-20)
(0.48521 0.0107937 -4.33199e-20)
(0.483773 0.0167334 0)
(0.49635 -0.000132321 0)
(0.49636 -0.000134879 2.18034e-20)
(0.496371 -0.000136602 0)
(0.496382 -0.000137339 -6.48388e-20)
(0.496394 -0.000136908 0)
(0.496405 -0.000135091 4.2843e-20)
(0.496416 -0.000131621 2.13261e-20)
(0.496426 -0.000126165 -2.123e-20)
(0.496435 -0.000118301 0)
(0.496441 -0.000107489 -4.20747e-20)
(0.496443 -9.30349e-05 0)
(0.496441 -7.40325e-05 -4.16877e-20)
(0.496433 -4.9298e-05 0)
(0.496417 -1.72713e-05 0)
(0.496391 2.41153e-05 0)
(0.49635 7.76229e-05 0)
(0.496291 0.000146967 0)
(0.496209 0.000237198 4.05546e-20)
(0.496096 0.000355259 4.03753e-20)
(0.495942 0.000510831 0)
(0.495735 0.000717645 0)
(0.495459 0.000995561 0)
(0.495092 0.001374 0)
(0.494608 0.00189752 -3.96095e-20)
(0.493976 0.00263604 0)
(0.493158 0.00369934 -7.89194e-20)
(0.492148 0.00527247 3.93975e-20)
(0.490945 0.00762723 3.93989e-20)
(0.489879 0.011272 3.96378e-20)
(0.489182 0.0166298 3.93651e-20)
(0.49887 -0.000151181 0)
(0.498877 -0.000154087 0)
(0.498886 -0.000156059 0)
(0.498894 -0.00015692 1.10866e-24)
(0.498903 -0.000156459 4.02339e-20)
(0.498912 -0.000154425 -4.00539e-20)
(0.498921 -0.000150508 3.98711e-20)
(0.498928 -0.000144322 0)
(0.498934 -0.000135383 -3.95065e-20)
(0.498939 -0.00012307 0)
(0.49894 -0.000106583 3.91408e-20)
(0.498937 -8.48872e-05 3.89598e-20)
(0.498928 -5.66271e-05 0)
(0.498913 -2.00236e-05 0)
(0.498887 2.72757e-05 3.84119e-20)
(0.49885 8.84017e-05 3.82317e-20)
(0.498796 0.000167552 3.80534e-20)
(0.49872 0.000270401 -5.59493e-24)
(0.498617 0.000404704 -3.77119e-20)
(0.498479 0.000581183 0)
(0.498294 0.000814879 0)
(0.49805 0.00112723 0)
(0.497729 0.00154938 3.70759e-20)
(0.497313 0.00212733 3.69731e-20)
(0.496782 0.00293067 0)
(0.496118 0.00406432 7.35291e-20)
(0.495338 0.00569338 -8.11651e-23)
(0.494482 0.00804656 -1.1794e-22)
(0.493863 0.0114995 -3.65795e-20)
(0.493717 0.0163154 -7.30725e-20)
(0.500961 -0.00016801 -3.87783e-20)
(0.500966 -0.000171252 0)
(0.500971 -0.000173476 0)
(0.500977 -0.00017448 1.05555e-24)
(0.500983 -0.000174027 -7.61854e-20)
(0.500989 -0.000171834 -3.79189e-20)
(0.500995 -0.000167553 -3.77461e-20)
(0.501 -0.000160752 3.75706e-20)
(0.501004 -0.000150887 7.47928e-20)
(0.501007 -0.000137265 -3.72205e-20)
(0.501006 -0.000118996 -1.66873e-24)
(0.501002 -9.49241e-05 0)
(0.500994 -6.35467e-05 0)
(0.500979 -2.28921e-05 0)
(0.500955 2.9639e-05 -3.63475e-20)
(0.500921 9.74935e-05 -3.61745e-20)
(0.500873 0.000185273 -3.6003e-20)
(0.500806 0.000299168 -6.11163e-24)
(0.500715 0.000447576 0)
(0.500594 0.000642009 0)
(0.500435 0.00089843 0)
(0.500226 0.00123926 0)
(0.499956 0.00169642 -3.50573e-20)
(0.499613 0.0023159 0)
(0.499187 0.00316492 0)
(0.498675 0.00434081 -3.4718e-20)
(0.498112 0.00598754 -3.46424e-20)
(0.497565 0.00829311 -3.45814e-20)
(0.497318 0.0115322 3.45315e-20)
(0.497588 0.0158581 3.43622e-20)
(0.502731 -0.000182642 7.4133e-20)
(0.502733 -0.000186222 -3.69017e-20)
(0.502735 -0.000188711 0)
(0.502737 -0.00018989 3.65719e-20)
(0.502741 -0.000189495 3.64053e-20)
(0.502744 -0.000187216 3.62381e-20)
(0.502747 -0.000182671 3.60692e-20)
(0.502749 -0.000175386 -3.59019e-20)
(0.502751 -0.000164768 -3.57331e-20)
(0.502751 -0.000150059 3.55639e-20)
(0.502749 -0.00013029 -7.07871e-20)
(0.502745 -0.000104205 0)
(0.502736 -7.01734e-05 0)
(0.502722 -2.60619e-05 -3.48829e-20)
(0.502701 3.09335e-05 3.47134e-20)
(0.502671 0.000104518 0)
(0.502629 0.000199615 6.87527e-20)
(0.502571 0.000322813 -3.42162e-20)
(0.502495 0.000482983 0)
(0.502393 0.00069218 0)
(0.502261 0.00096692 0)
(0.50209 0.00133005 6.71387e-20)
(0.501874 0.00181349 6.68405e-20)
(0.501606 0.00246207 0)
(0.501285 0.0033392 0)
(0.500921 0.0045332 0)
(0.50056 0.00616747 6.5786e-20)
(0.500282 0.00839382 6.55372e-20)
(0.500344 0.0114111 -6.52656e-20)
(0.50093 0.0152995 0)
(0.504248 -0.000194922 -1.09599e-24)
(0.504246 -0.000198848 7.10548e-20)
(0.504245 -0.000201629 0)
(0.504245 -0.000203023 0)
(0.504244 -0.000202748 0)
(0.504244 -0.000200468 0)
(0.504245 -0.000195773 -3.47195e-20)
(0.504244 -0.000188154 0)
(0.504244 -0.000176975 0)
(0.504242 -0.000161426 0)
(0.504239 -0.00014047 1.02182e-19)
(0.504233 -0.000112771 6.77895e-20)
(0.504224 -7.65946e-05 0)
(0.504212 -2.96781e-05 3.35661e-20)
(0.504193 3.09426e-05 -3.3401e-20)
(0.504168 0.00010917 -6.64643e-20)
(0.504133 0.000210166 -6.61454e-20)
(0.504086 0.000340797 -6.58068e-20)
(0.504024 0.000510244 -6.54815e-20)
(0.503943 0.000730864 6.51598e-20)
(0.50384 0.00101939 0)
(0.503709 0.00139863 -3.64492e-23)
(0.503548 0.00189982 -1.28501e-19)
(0.503355 0.00256582 0)
(0.503137 0.00345534 0)
(0.502914 0.00464714 0)
(0.502737 0.0062456 -1.45413e-22)
(0.502692 0.0083716 -1.90368e-22)
(0.503009 0.0111677 6.26866e-20)
(0.50384 0.0146671 0)
(0.505561 -0.000204702 -3.45568e-20)
(0.505555 -0.000208994 -3.44014e-20)
(0.505551 -0.0002121 0)
(0.505547 -0.00021376 6.81737e-20)
(0.505543 -0.000213677 0)
(0.50554 -0.000211492 0)
(0.505537 -0.000206773 0)
(0.505534 -0.000198984 0)
(0.505531 -0.000187453 6.65805e-20)
(0.505527 -0.000171329 0)
(0.505522 -0.000149526 -6.59382e-20)
(0.505516 -0.000120642 -4.04639e-24)
(0.505508 -8.28671e-05 -6.52858e-20)
(0.505496 -3.38429e-05 0)
(0.505481 2.95091e-05 0)
(0.50546 0.000111227 6.43186e-20)
(0.505433 0.000216626 6.39848e-20)
(0.505397 0.000352737 6.36747e-20)
(0.505351 0.00052889 1.75437e-23)
(0.505292 0.000757528 -6.30401e-20)
(0.505218 0.0010553 0)
(0.505128 0.00144458 -6.24217e-20)
(0.505021 0.00195541 1.24195e-19)
(0.504903 0.00262808 0)
(0.504784 0.00351617 0)
(0.504691 0.00468897 6.11528e-20)
(0.50468 0.00623382 -1.21812e-19)
(0.504839 0.00824597 -1.74679e-22)
(0.505366 0.0108266 0)
(0.506388 0.0139797 0)
(0.506695 -0.000216536 0)
(0.506687 -0.000220007 0)
(0.506679 -0.000221992 -1.32635e-19)
(0.506672 -0.000222179 6.60066e-20)
(0.506666 -0.000220195 6.56954e-20)
(0.50666 -0.000215589 0)
(0.506654 -0.000207804 -6.50686e-20)
(0.506648 -0.000196144 -6.47559e-20)
(0.506642 -0.000179729 0)
(0.506636 -0.000157435 0)
(0.506629 -0.000127819 -4.05784e-24)
(0.50662 -8.90194e-05 6.34855e-20)
(0.50661 -3.86178e-05 0)
(0.506598 2.65327e-05 6.28393e-20)
(0.506583 0.000110544 0)
(0.506563 0.000218805 -6.22077e-20)
(0.506539 0.000358397 0)
(0.506508 0.000538654 1.23126e-19)
(0.506472 0.000771908 0)
(0.506428 0.00107447 6.09141e-20)
(0.506378 0.00146795 0)
(0.506326 0.00198083 -6.03242e-20)
(0.506279 0.00265048 0)
(0.506254 0.00352518 0)
(0.506282 0.00466525 -5.94094e-20)
(0.50642 0.00614317 5.90943e-20)
(0.506753 0.00803333 -1.59583e-22)
(0.507455 0.0104068 -5.81752e-20)
(0.508629 0.0132501 0)
(0.507692 -0.000221369 0)
(0.50768 -0.000225253 0)
(0.507668 -0.000227629 6.47622e-20)
(0.507658 -0.000228172 -1.9849e-24)
(0.507648 -0.000226501 -6.41513e-20)
(0.507638 -0.000222152 0)
(0.50763 -0.000214554 6.35344e-20)
(0.507621 -0.000202997 0)
(0.507613 -0.000186583 0)
(0.507605 -0.000164169 0)
(0.507597 -0.000134289 -6.22857e-20)
(0.507589 -9.50562e-05 0)
(0.507581 -4.4028e-05 -6.16495e-20)
(0.507572 2.1966e-05 -6.13392e-20)
(0.507561 0.000107052 0)
(0.50755 0.000216612 6.06945e-20)
(0.507537 0.000357678 -6.03748e-20)
(0.507523 0.000539454 -1.75594e-23)
(0.507508 0.000773988 -5.97334e-20)
(0.507494 0.00107705 -2.81961e-23)
(0.507484 0.0014692 0)
(0.507484 0.00197715 5.87637e-20)
(0.507506 0.00263514 0)
(0.507569 0.00348623 0)
(0.507707 0.00458247 0)
(0.507978 0.00598365 -5.7388e-20)
(0.508461 0.00774743 -1.45231e-22)
(0.509309 0.00992316 1.13258e-19)
(0.510604 0.0124876 0)
(0.508564 -0.000223417 6.40443e-20)
(0.508549 -0.000227766 6.3747e-20)
(0.508534 -0.0002306 -6.3448e-20)
(0.508519 -0.000231591 -1.97581e-24)
(0.508506 -0.000230349 0)
(0.508493 -0.000226405 0)
(0.508482 -0.000219183 6.22355e-20)
(0.508471 -0.000207967 0)
(0.50846 -0.000191853 -6.16201e-20)
(0.508451 -0.000169696 0)
(0.508442 -0.000140027 0)
(0.508434 -0.000100962 6.06867e-20)
(0.508427 -5.00661e-05 1.20752e-19)
(0.508421 1.58094e-05 0)
(0.508416 0.000100748 0)
(0.508413 0.000210052 -1.18859e-19)
(0.508411 0.00035061 5.9119e-20)
(0.508413 0.000531376 -5.88021e-20)
(0.50842 0.000763969 5.84844e-20)
(0.508435 0.00106343 -5.81658e-20)
(0.508464 0.00144913 -5.7811e-20)
(0.508514 0.0019458 -1.15003e-19)
(0.5086 0.0025845 0)
(0.508745 0.00340332 0)
(0.508983 0.00444688 0)
(0.50937 0.00576421 5.61552e-20)
(0.509982 0.00739975 -5.57575e-20)
(0.510952 0.00938728 -5.53128e-20)
(0.512347 0.0116989 0)
(0.509329 -0.000222627 -6.30826e-20)
(0.50931 -0.000227496 -6.2784e-20)
(0.509291 -0.000230862 6.24835e-20)
(0.509273 -0.000232393 -1.96837e-24)
(0.509256 -0.000231698 0)
(0.50924 -0.00022831 0)
(0.509225 -0.000221653 -1.22527e-19)
(0.509212 -0.000211017 0)
(0.509199 -0.000195504 1.21288e-19)
(0.509188 -0.000173982 6.03304e-20)
(0.509179 -0.000145 0)
(0.509171 -0.000106701 -5.97061e-20)
(0.509166 -5.66928e-05 -5.93902e-20)
(0.509163 8.11099e-06 0)
(0.509163 9.16971e-05 0)
(0.509167 0.00019922 1.16858e-19)
(0.509177 0.000337341 -5.80995e-20)
(0.509195 0.00051466 -5.77729e-20)
(0.509222 0.000742245 0)
(0.509265 0.00103428 0)
(0.509331 0.0014088 5.68065e-20)
(0.509428 0.00188848 5.64713e-20)
(0.509575 0.00250124 -5.6077e-20)
(0.509794 0.00328054 0)
(0.510122 0.00426438 0)
(0.510612 0.00549284 0)
(0.511336 0.00699998 0)
(0.512407 0.00880854 0)
(0.513883 0.0108891 0)
(0.510004 -0.000218943 0)
(0.50998 -0.000224396 0)
(0.509958 -0.000228372 -6.10374e-20)
(0.509936 -0.000230542 -1.2152e-19)
(0.509916 -0.000230519 0)
(0.509896 -0.000227841 0)
(0.509878 -0.000221944 2.24506e-24)
(0.509862 -0.000212129 -5.96253e-20)
(0.509847 -0.000197522 -2.79378e-24)
(0.509835 -0.000177014 -3.22796e-24)
(0.509824 -0.000149195 -5.87554e-20)
(0.509816 -0.000112258 -5.84616e-20)
(0.509812 -6.38853e-05 5.81658e-20)
(0.509812 -1.09433e-06 0)
(0.509817 7.99558e-05 0)
(0.509829 0.00018421 -5.72752e-20)
(0.509849 0.000318026 5.69722e-20)
(0.509881 0.000489559 1.13317e-19)
(0.509929 0.000709227 -5.63377e-20)
(0.509999 0.000990252 0)
(0.510098 0.00134925 0)
(0.51024 0.0018068 -1.10729e-19)
(0.510441 0.00238782 1.65114e-19)
(0.510728 0.00312148 -1.09329e-19)
(0.511136 0.00404 -1.08575e-19)
(0.511717 0.00517606 0)
(0.512535 0.0065557 1.06882e-19)
(0.513691 0.00819392 0)
(0.515234 0.0100619 0)
(0.510585 -0.000212399 6.11424e-20)
(0.510558 -0.000218489 0)
(0.510532 -0.000223145 1.21115e-19)
(0.510507 -0.000226044 1.20524e-19)
(0.510483 -0.000226808 0)
(0.510461 -0.000224985 0)
(0.51044 -0.00022003 5.93681e-20)
(0.510421 -0.000211268 5.90671e-20)
(0.510404 -0.000197855 -5.87647e-20)
(0.51039 -0.000178725 -3.04651e-24)
(0.510379 -0.000152523 3.57885e-24)
(0.510371 -0.00011752 4.27352e-24)
(0.510368 -7.15002e-05 -5.17037e-24)
(0.510371 -1.16205e-05 0)
(0.510381 6.57683e-05 0)
(0.5104 0.000165346 0)
(0.510431 0.000293103 0)
(0.510477 0.000456678 -5.59736e-20)
(0.510544 0.000665757 5.56517e-20)
(0.510638 0.000932527 0)
(0.51077 0.00127214 0)
(0.510952 0.0017031 1.09308e-19)
(0.511205 0.00224747 -1.08608e-19)
(0.511553 0.00293053 1.11253e-22)
(0.512032 0.00377948 1.07114e-19)
(0.512692 0.0048209 0)
(0.513592 0.00607464 -1.05401e-19)
(0.51482 0.00755033 -1.04196e-19)
(0.516419 0.00922071 0)
(0.511071 -0.000203438 -1.20715e-19)
(0.511041 -0.000210188 0)
(0.511012 -0.000215562 -5.97686e-20)
(0.510985 -0.000219244 -5.94722e-20)
(0.510958 -0.00022087 0)
(0.510934 -0.000220006 0)
(0.510911 -0.000216132 0)
(0.51089 -0.000208604 0)
(0.510872 -0.000196619 5.79746e-20)
(0.510857 -0.000179168 -1.15348e-19)
(0.510846 -0.000154969 5.73729e-20)
(0.510839 -0.00012239 1.14135e-19)
(0.510838 -7.93434e-05 -5.67646e-20)
(0.510843 -2.31587e-05 -5.64527e-20)
(0.510858 4.95828e-05 0)
(0.510884 0.00014325 0)
(0.510925 0.000263408 0)
(0.510985 0.00041712 0)
(0.51107 0.000613281 0)
(0.511188 0.000862992 0)
(0.511349 0.00117992 0)
(0.511569 0.00158055 0)
(0.511868 0.00208422 0)
(0.51227 0.00271271 2.12663e-19)
(0.512813 0.00348885 0)
(0.513543 0.00443419 0)
(0.514513 0.00556375 -1.03719e-19)
(0.515803 0.00688345 1.02898e-19)
(0.517451 0.00836818 0)
(0.511476 -0.000192359 5.96446e-20)
(0.511443 -0.000199781 5.93496e-20)
(0.511412 -0.000205895 5.90559e-20)
(0.511383 -0.000210398 -5.87616e-20)
(0.511354 -0.000212943 0)
(0.511328 -0.000213121 0)
(0.511303 -0.00021044 0)
(0.511281 -0.000204296 0)
(0.511262 -0.000193938 -5.72839e-20)
(0.511247 -0.000178425 2.60515e-24)
(0.511235 -0.000156564 -5.66852e-20)
(0.511229 -0.000126837 -5.63892e-20)
(0.51123 -8.731e-05 0)
(0.511239 -3.55127e-05 5.30964e-24)
(0.511259 3.17079e-05 -5.5479e-20)
(0.511292 0.000118368 5.51729e-20)
(0.511342 0.000229564 5.48639e-20)
(0.511415 0.00037173 0)
(0.511516 0.000552924 0)
(0.511656 0.000783126 0)
(0.511845 0.00107451 0)
(0.512098 0.0014416 -1.06475e-19)
(0.512438 0.0019012 0)
(0.51289 0.00247189 -1.05108e-19)
(0.513488 0.00317271 0)
(0.514278 0.00402105 0)
(0.515309 0.00502821 1.02607e-19)
(0.516651 0.00619756 0)
(0.518341 0.00750646 0)
(0.511808 -0.000179442 5.8997e-20)
(0.511774 -0.000187535 -5.87098e-20)
(0.511741 -0.0001944 -5.84202e-20)
(0.51171 -0.000199748 5.81302e-20)
(0.51168 -0.000203254 0)
(0.511652 -0.000204535 0)
(0.511626 -0.000203136 0)
(0.511603 -0.0001985 5.69657e-20)
(0.511583 -0.000189935 -5.6674e-20)
(0.511568 -0.000176579 5.63843e-20)
(0.511557 -0.000157341 5.60919e-20)
(0.511552 -0.000130835 0)
(0.511554 -9.5302e-05 0)
(0.511566 -4.84962e-05 5.52096e-20)
(0.51159 1.24392e-05 5.86417e-24)
(0.51163 9.11321e-05 -1.09221e-19)
(0.511689 0.000192171 -5.43126e-20)
(0.511773 0.000321321 0)
(0.51189 0.000485765 0)
(0.512048 0.000694337 5.33657e-20)
(0.512262 0.000957727 0)
(0.512546 0.00128856 1.05453e-19)
(0.512922 0.00170126 5.23478e-20)
(0.513416 0.00221152 0)
(0.514063 0.00283509 -1.03167e-19)
(0.514905 0.00358589 0)
(0.515988 0.00447234 1.01402e-19)
(0.517374 0.00549614 1.00396e-19)
(0.5191 0.00663728 9.91515e-20)
(0.512076 -0.000164952 -5.84183e-20)
(0.512041 -0.00017371 0)
(0.512007 -0.000181325 -5.78498e-20)
(0.511974 -0.000187531 0)
(0.511943 -0.000192023 0)
(0.511914 -0.000194453 0)
(0.511887 -0.000194404 0)
(0.511863 -0.000191372 -5.6431e-20)
(0.511843 -0.000184734 1.91662e-24)
(0.511827 -0.000173716 -5.5859e-20)
(0.511816 -0.00015734 0)
(0.511812 -0.00013437 0)
(0.511816 -0.000103234 0)
(0.511831 -6.19378e-05 -5.47093e-20)
(0.511859 -7.94523e-06 5.44234e-20)
(0.511904 6.19536e-05 1.08256e-19)
(0.511971 0.000151805 0)
(0.512065 0.000266673 -5.35267e-20)
(0.512195 0.000412835 -5.32202e-20)
(0.512371 0.000597968 -1.51088e-23)
(0.512606 0.000831289 -5.25841e-20)
(0.512916 0.00112359 5.22499e-20)
(0.513324 0.00148706 -5.1929e-20)
(0.513855 0.00193477 0)
(0.514544 0.00247958 1.53505e-19)
(0.515429 0.00313255 5.07203e-20)
(0.516556 0.00389986 -1.00636e-19)
(0.517979 0.00478214 -1.49412e-19)
(0.519735 0.00576207 -9.84262e-20)
(0.512286 -0.000149143 5.7898e-20)
(0.51225 -0.00015855 0)
(0.512214 -0.000166909 5.7348e-20)
(0.51218 -0.000173973 0)
(0.512148 -0.000179466 0)
(0.512118 -0.000183072 0)
(0.512091 -0.000184422 0)
(0.512066 -0.000183068 0)
(0.512045 -0.000178463 5.56882e-20)
(0.512029 -0.000169928 1.93311e-24)
(0.512019 -0.00015661 0)
(0.512015 -0.000137433 0)
(0.512021 -0.000111032 0)
(0.512038 -7.56788e-05 5.42924e-20)
(0.51207 -2.91825e-05 0)
(0.51212 3.1224e-05 -5.52503e-24)
(0.512193 0.000109018 0)
(0.512296 0.000208535 5.31416e-20)
(0.512438 0.000335126 5.28431e-20)
(0.512628 0.000495301 -1.05062e-19)
(0.512881 0.000696824 1.59559e-23)
(0.513214 0.000948715 -5.1897e-20)
(0.513648 0.00126106 0)
(0.514211 0.00164452 5.11677e-20)
(0.514934 0.00210944 -3.42758e-23)
(0.515856 0.00266444 -5.04007e-20)
(0.517019 0.003314 0)
(0.518472 0.00405807 4.94609e-20)
(0.520253 0.00488208 0)
(0.512442 -0.000132255 -5.74416e-20)
(0.512404 -0.000142291 2.85863e-20)
(0.512368 -0.000151379 0)
(0.512333 -0.000159294 0)
(0.5123 -0.000165789 0)
(0.512269 -0.000170587 0)
(0.512241 -0.000173367 5.5833e-20)
(0.512216 -0.000173743 -5.55643e-20)
(0.512195 -0.000171249 5.52952e-20)
(0.512178 -0.000165309 5.50273e-20)
(0.512168 -0.000155202 -5.47552e-20)
(0.512165 -0.000140023 0)
(0.512172 -0.000118629 -5.42111e-20)
(0.512191 -8.95716e-05 0)
(0.512226 -5.10239e-05 5.36601e-20)
(0.512279 -6.82292e-07 -5.33852e-20)
(0.512358 6.43389e-05 0)
(0.512469 0.000147627 -5.28091e-20)
(0.512619 0.000253589 0)
(0.512822 0.000387564 5.22234e-20)
(0.51309 0.000555883 5.19137e-20)
(0.513441 0.000765844 0)
(0.513897 0.00102554 5.12348e-20)
(0.514485 0.00134344 -2.36453e-23)
(0.515237 0.0017276 -1.01006e-19)
(0.516188 0.0021846 0)
(0.51738 0.0027176 4.96229e-20)
(0.518858 0.00332616 0)
(0.520659 0.00399844 4.85269e-20)
(0.512547 -0.000114516 2.85198e-20)
(0.512509 -0.000125157 -2.83917e-20)
(0.512472 -0.000134953 2.82617e-20)
(0.512436 -0.000143704 2.81324e-20)
(0.512403 -0.000151194 0)
(0.512371 -0.000157187 0)
(0.512342 -0.000161412 -5.54882e-20)
(0.512316 -0.00016355 8.28416e-20)
(0.512294 -0.00016322 -5.49677e-20)
(0.512278 -0.000159954 0)
(0.512267 -0.000153172 8.1666e-20)
(0.512265 -0.000142148 2.70898e-20)
(0.512273 -0.000125967 5.3917e-20)
(0.512293 -0.00010348 0)
(0.512329 -7.32347e-05 -8.00715e-20)
(0.512386 -3.34081e-05 0)
(0.512469 1.82768e-05 0)
(0.512585 8.46413e-05 5.25546e-20)
(0.512743 0.00016914 0)
(0.512955 0.000275937 0)
(0.513235 0.000409946 0)
(0.5136 0.000576795 -5.13387e-20)
(0.514074 0.000782674 -5.10182e-20)
(0.514681 0.001034 -5.06651e-20)
(0.515455 0.00133678 5.02874e-20)
(0.516429 0.00169581 0)
(0.517644 0.00211322 -4.94366e-20)
(0.51914 0.00258838 0)
(0.520956 0.00311216 -9.66789e-20)
(0.512605 -9.61409e-05 -5.66966e-20)
(0.512566 -0.00010736 -2.82238e-20)
(0.512528 -0.00011784 -2.81002e-20)
(0.512492 -0.000127405 -6.69276e-25)
(0.512457 -0.000135875 0)
(0.512425 -0.000143054 0)
(0.512395 -0.000148726 0)
(0.512368 -0.00015264 -2.74746e-20)
(0.512346 -0.000154504 0)
(0.512329 -0.000153962 0)
(0.512318 -0.000150579 -2.70954e-20)
(0.512316 -0.000143817 -5.39351e-20)
(0.512324 -0.000132999 0)
(0.512345 -0.000117278 2.67093e-20)
(0.512382 -9.5593e-05 1.21423e-24)
(0.512441 -6.66126e-05 0)
(0.512527 -2.86812e-05 2.63114e-20)
(0.512647 2.0245e-05 -2.61741e-20)
(0.51281 8.26586e-05 0)
(0.513028 0.00016155 0)
(0.513317 0.00026043 0)
(0.513693 0.000383294 5.11716e-20)
(0.514179 0.000534501 0)
(0.514801 0.000718523 0)
(0.51559 0.000939496 0)
(0.51658 0.00120063 0)
(0.517811 0.00150321 0)
(0.51932 0.00184654 0)
(0.521147 0.00222418 7.22966e-20)
(0.512617 -7.73274e-05 2.8204e-20)
(0.512577 -8.90951e-05 2.80849e-20)
(0.512538 -0.000100231 1.39823e-20)
(0.512501 -0.000110586 -2.78455e-20)
(0.512466 -0.000120013 0)
(0.512432 -0.000128361 0)
(0.512402 -0.000135468 0)
(0.512375 -0.000141156 0)
(0.512351 -0.000145222 -1.36204e-20)
(0.512334 -0.000147426 0)
(0.512322 -0.000147483 0)
(0.512319 -0.000145044 4.03093e-20)
(0.512327 -0.000139678 0)
(0.512348 -0.000130849 -2.66231e-20)
(0.512386 -0.000117891 2.64962e-20)
(0.512446 -9.99735e-05 0)
(0.512533 -7.60722e-05 -2.62366e-20)
(0.512655 -4.49284e-05 2.6103e-20)
(0.512821 -5.017e-06 1.29821e-20)
(0.513044 4.54798e-05 1.29112e-20)
(0.513337 0.000108679 0)
(0.513719 0.000186971 -1.27606e-20)
(0.514213 0.000282936 0)
(0.514844 0.000399181 -1.25929e-20)
(0.515643 0.00053807 0)
(0.516643 0.000701364 0)
(0.517884 0.000889636 0)
(0.519401 0.00110221 -1.21713e-20)
(0.521233 0.0013353 -2.4058e-20)
(0.512584 -5.82966e-05 0)
(0.512544 -7.05815e-05 0)
(0.512504 -8.23415e-05 -1.43017e-20)
(0.512466 -9.34558e-05 0)
(0.51243 -0.000103812 0)
(0.512395 -0.000113302 0)
(0.512364 -0.000121822 0)
(0.512336 -0.000129265 0)
(0.512312 -0.00013552 1.39495e-20)
(0.512293 -0.000140466 0)
(0.512281 -0.000143968 0)
(0.512277 -0.000145872 -1.37691e-20)
(0.512284 -0.000145991 0)
(0.512304 -0.000144107 0)
(0.512341 -0.000139954 0)
(0.512401 -0.000133207 0)
(0.512488 -0.000123477 0)
(0.51261 -0.000110295 0)
(0.512777 -9.31077e-05 -1.33204e-20)
(0.513001 -7.12684e-05 -1.32499e-20)
(0.513296 -4.40463e-05 0)
(0.513681 -1.06425e-05 1.30996e-20)
(0.514177 2.9771e-05 0)
(0.514811 7.79853e-05 1.29316e-20)
(0.515614 0.00013465 0)
(0.516619 0.000200153 0)
(0.517862 0.000274417 0)
(0.519382 0.000356821 1.25065e-20)
(0.521216 0.000446183 0)
(0.512502 -3.75509e-05 0)
(0.51246 -5.03558e-05 0)
(0.512419 -6.27521e-05 0)
(0.51238 -7.46495e-05 -1.40038e-20)
(0.512342 -8.59739e-05 0)
(0.512307 -9.66667e-05 -1.38774e-20)
(0.512274 -0.000106685 1.38137e-20)
(0.512244 -0.000116001 0)
(0.512219 -0.000124607 1.36853e-20)
(0.512199 -0.00013251 0)
(0.512185 -0.000139743 1.35552e-20)
(0.51218 -0.000146362 0)
(0.512185 -0.000152455 -1.3423e-20)
(0.512204 -0.00015815 0)
(0.512239 -0.000163622 0)
(0.512297 -0.000169103 -1.32189e-20)
(0.512382 -0.000174905 -1.31487e-20)
(0.512503 -0.000181428 0)
(0.512668 -0.000189185 -2.60065e-20)
(0.51289 -0.000198821 0)
(0.513183 -0.00021113 2.5697e-20)
(0.513566 -0.00022706 0)
(0.51406 -0.000247707 0)
(0.514692 -0.000274275 0)
(0.515492 -0.000307993 0)
(0.516495 -0.000349988 0)
(0.517735 -0.000401058 0)
(0.519252 -0.000461774 0)
(0.521081 -0.000530565 -2.39756e-20)
(0.512351 -1.50678e-05 0)
(0.512308 -2.83987e-05 0)
(0.512266 -4.1445e-05 -2.87386e-20)
(0.512225 -5.41496e-05 1.43069e-20)
(0.512186 -6.64801e-05 0)
(0.512149 -7.84312e-05 1.41802e-20)
(0.512114 -9.0027e-05 -1.41164e-20)
(0.512082 -0.000101326 0)
(0.512055 -0.00011243 -1.39875e-20)
(0.512032 -0.000123487 0)
(0.512016 -0.000134708 1.38566e-20)
(0.512008 -0.000146381 -2.75812e-20)
(0.512011 -0.00015889 1.37239e-20)
(0.512026 -0.000172734 2.73127e-20)
(0.512059 -0.000188568 2.71758e-20)
(0.512113 -0.000207228 1.35182e-20)
(0.512194 -0.000229782 -1.34479e-20)
(0.512309 -0.000257576 2.67505e-20)
(0.512469 -0.000292284 -1.25589e-24)
(0.512685 -0.000335955 0)
(0.512971 -0.000391047 -2.62871e-20)
(0.513346 -0.000460424 0)
(0.513831 -0.0005473 0)
(0.514453 -0.000655086 -5.15226e-20)
(0.515241 -0.000787112 5.11239e-20)
(0.516231 -0.000946223 0)
(0.517459 -0.00113409 5.02261e-20)
(0.518965 -0.00135127 0)
(0.520782 -0.00159329 -2.4549e-20)
(0.512137 7.37289e-06 5.80824e-20)
(0.512092 -6.4657e-06 0)
(0.512048 -2.01404e-05 2.87907e-20)
(0.512005 -3.36271e-05 0)
(0.511964 -4.69348e-05 0)
(0.511924 -6.01104e-05 0)
(0.511887 -7.32443e-05 5.65593e-20)
(0.511853 -8.64799e-05 0)
(0.511823 -0.000100025 0)
(0.511797 -0.000114167 5.57792e-20)
(0.511778 -0.000129293 2.77578e-20)
(0.511767 -0.000145917 8.28749e-20)
(0.511766 -0.000164709 0)
(0.511777 -0.000186541 2.73559e-20)
(0.511805 -0.000212531 -2.72175e-20)
(0.511853 -0.000244114 0)
(0.511928 -0.000283102 8.08103e-20)
(0.512036 -0.000331775 -2.67906e-20)
(0.512187 -0.000392959 -2.66464e-20)
(0.512393 -0.000470103 0)
(0.512667 -0.000567335 0)
(0.513027 -0.000689457 0)
(0.513496 -0.000841844 0)
(0.514099 -0.0010302 5.15961e-20)
(0.514868 -0.00126006 -5.1196e-20)
(0.515836 -0.00153614 0)
(0.517043 -0.00186113 -5.02946e-20)
(0.518528 -0.00223576 0)
(0.520327 -0.00265254 -3.26641e-23)
(0.511854 2.94349e-05 -5.82477e-20)
(0.511807 1.51112e-05 0)
(0.51176 8.35894e-07 0)
(0.511715 -1.33991e-05 -5.74843e-20)
(0.511672 -2.76432e-05 0)
(0.51163 -4.19939e-05 0)
(0.51159 -5.66059e-05 -7.06994e-25)
(0.511553 -7.1704e-05 0)
(0.51152 -8.76e-05 0)
(0.511491 -0.000104714 -5.59287e-20)
(0.511468 -0.000123604 3.02699e-25)
(0.511452 -0.000145 -5.53972e-20)
(0.511446 -0.000169852 0)
(0.511452 -0.000199386 1.65732e-24)
(0.511474 -0.000235178 0)
(0.511515 -0.000279235 5.43048e-20)
(0.511581 -0.000334102 -5.40174e-20)
(0.511679 -0.000402972 0)
(0.511818 -0.000489808 1.06866e-19)
(0.512009 -0.000599455 0)
(0.512266 -0.000737721 5.28164e-20)
(0.512606 -0.000911382 0)
(0.513052 -0.00112806 0)
(0.513628 -0.00139587 1.03547e-19)
(0.514367 -0.00172277 0)
(0.515305 -0.00211563 1.01913e-19)
(0.51648 -0.00257841 -1.00989e-19)
(0.517938 -0.00311223 -9.99776e-20)
(0.51971 -0.00370658 1.4801e-19)
(0.511498 5.07944e-05 5.84682e-20)
(0.511449 3.60125e-05 -5.8214e-20)
(0.5114 2.11705e-05 5.79587e-20)
(0.511353 6.22934e-06 1.24207e-24)
(0.511306 -8.89911e-06 0)
(0.511261 -2.43606e-05 0)
(0.511218 -4.0371e-05 -5.69277e-20)
(0.511178 -5.72322e-05 -5.66665e-20)
(0.511141 -7.53544e-05 1.12809e-19)
(0.511108 -9.52837e-05 0)
(0.51108 -0.000117738 5.58771e-20)
(0.51106 -0.000143655 1.1122e-19)
(0.511048 -0.000174249 0)
(0.511047 -0.000211084 -5.50676e-20)
(0.511061 -0.000256169 1.09592e-19)
(0.511093 -0.000312066 -5.45138e-20)
(0.511148 -0.00038202 1.08472e-19)
(0.511233 -0.000470115 0)
(0.511356 -0.000581429 -5.36451e-20)
(0.511529 -0.000722193 -1.06705e-19)
(0.511763 -0.000899906 -5.30243e-20)
(0.512078 -0.00112337 1.05429e-19)
(0.512492 -0.00140257 -1.04746e-19)
(0.513034 -0.00174824 -1.03961e-19)
(0.513734 -0.00217104 0)
(0.514631 -0.00268036 -1.02325e-19)
(0.515764 -0.00328187 1.01399e-19)
(0.517185 -0.0039775 1.00384e-19)
(0.518922 -0.00475358 1.23458e-22)
(0.511066 7.11189e-05 -5.87559e-20)
(0.511014 5.59115e-05 1.75498e-19)
(0.510962 4.05443e-05 5.82411e-20)
(0.510912 2.49488e-05 1.73957e-19)
(0.510862 9.00053e-06 0)
(0.510814 -7.49136e-06 -1.14937e-19)
(0.510767 -2.47994e-05 1.14417e-19)
(0.510723 -4.32974e-05 -5.69472e-20)
(0.510681 -6.34869e-05 -2.26741e-19)
(0.510644 -8.60305e-05 1.12844e-19)
(0.510611 -0.000111796 -1.12313e-19)
(0.510584 -0.000141911 -1.11779e-19)
(0.510565 -0.000177837 0)