
961
(
(0.1 0 0)
(0.1 0.000333333 0)
(0.1 0.000333333 0.000666667)
(0.1 0 0.000666667)
(0.1 0.000666667 0)
(0.1 0.000666667 0.000666667)
(0.1 0.001 0)
(0.1 0.001 0.000666667)
(0.1 0.00133333 0)
(0.1 0.00133333 0.000666667)
(0.1 0.00166667 0)
(0.1 0.00166667 0.000666667)
(0.1 0.002 0)
(0.1 0.002 0.000666667)
(0.1 0.00233333 0)
(0.1 0.00233333 0.000666667)
(0.1 0.00266667 0)
(0.1 0.00266667 0.000666667)
(0.1 0.003 0)
(0.1 0.003 0.000666667)
(0.1 0.00333333 0)
(0.1 0.00333333 0.000666667)
(0.1 0.00366667 0)
(0.1 0.00366667 0.000666667)
(0.1 0.004 0)
(0.1 0.004 0.000666667)
(0.1 0.00433333 0)
(0.1 0.00433333 0.000666667)
(0.1 0.00466667 0)
(0.1 0.00466667 0.000666667)
(0.1 0.005 0)
(0.1 0.005 0.000666667)
(0.1 0.00533333 0)
(0.1 0.00533333 0.000666667)
(0.1 0.00566667 0)
(0.1 0.00566667 0.000666667)
(0.1 0.006 0)
(0.1 0.006 0.000666667)
(0.1 0.00633333 0)
(0.1 0.00633333 0.000666667)
(0.1 0.00666667 0)
(0.1 0.00666667 0.000666667)
(0.1 0.007 0)
(0.1 0.007 0.000666667)
(0.1 0.00733333 0)
(0.1 0.00733333 0.000666667)
(0.1 0.00766667 0)
(0.1 0.00766667 0.000666667)
(0.1 0.008 0)
(0.1 0.008 0.000666667)
(0.1 0.00833333 0)
(0.1 0.00833333 0.000666667)
(0.1 0.00866667 0)
(0.1 0.00866667 0.000666667)
(0.1 0.009 0)
(0.1 0.009 0.000666667)
(0.1 0.00933333 0)
(0.1 0.00933333 0.000666667)
(0.1 0.00966667 0)
(0.1 0.00966667 0.000666667)
(0.1 0.01 0)
(0.1 0.01 0.000666667)
(0.1 0.000333333 0.00133333)
(0.1 0 0.00133333)
(0.1 0.000666667 0.00133333)
(0.1 0.001 0.00133333)
(0.1 0.00133333 0.00133333)
(0.1 0.00166667 0.00133333)
(0.1 0.002 0.00133333)
(0.1 0.00233333 0.00133333)
(0.1 0.00266667 0.00133333)
(0.1 0.003 0.00133333)
(0.1 0.00333333 0.00133333)
(0.1 0.00366667 0.00133333)
(0.1 0.004 0.00133333)
(0.1 0.00433333 0.00133333)
(0.1 0.00466667 0.00133333)
(0.1 0.005 0.00133333)
(0.1 0.00533333 0.00133333)
(0.1 0.00566667 0.00133333)
(0.1 0.006 0.00133333)
(0.1 0.00633333 0.00133333)
(0.1 0.00666667 0.00133333)
(0.1 0.007 0.00133333)
(0.1 0.00733333 0.00133333)
(0.1 0.00766667 0.00133333)
(0.1 0.008 0.00133333)
(0.1 0.00833333 0.00133333)
(0.1 0.00866667 0.00133333)
(0.1 0.009 0.00133333)
(0.1 0.00933333 0.00133333)
(0.1 0.00966667 0.00133333)
(0.1 0.01 0.00133333)
(0.1 0.000333333 0.002)
(0.1 0 0.002)
(0.1 0.000666667 0.002)
(0.1 0.001 0.002)
(0.1 0.00133333 0.002)
(0.1 0.00166667 0.002)
(0.1 0.002 0.002)
(0.1 0.00233333 0.002)
(0.1 0.00266667 0.002)
(0.1 0.003 0.002)
(0.1 0.00333333 0.002)
(0.1 0.00366667 0.002)
(0.1 0.004 0.002)
(0.1 0.00433333 0.002)
(0.1 0.00466667 0.002)
(0.1 0.005 0.002)
(0.1 0.00533333 0.002)
(0.1 0.00566667 0.002)
(0.1 0.006 0.002)
(0.1 0.00633333 0.002)
(0.1 0.00666667 0.002)
(0.1 0.007 0.002)
(0.1 0.00733333 0.002)
(0.1 0.00766667 0.002)
(0.1 0.008 0.002)
(0.1 0.00833333 0.002)
(0.1 0.00866667 0.002)
(0.1 0.009 0.002)
(0.1 0.00933333 0.002)
(0.1 0.00966667 0.002)
(0.1 0.01 0.002)
(0.1 0.000333333 0.00266667)
(0.1 0 0.00266667)
(0.1 0.000666667 0.00266667)
(0.1 0.001 0.00266667)
(0.1 0.00133333 0.00266667)
(0.1 0.00166667 0.00266667)
(0.1 0.002 0.00266667)
(0.1 0.00233333 0.00266667)
(0.1 0.00266667 0.00266667)
(0.1 0.003 0.00266667)
(0.1 0.00333333 0.00266667)
(0.1 0.00366667 0.00266667)
(0.1 0.004 0.00266667)
(0.1 0.00433333 0.00266667)
(0.1 0.00466667 0.00266667)
(0.1 0.005 0.00266667)
(0.1 0.00533333 0.00266667)
(0.1 0.00566667 0.00266667)
(0.1 0.006 0.00266667)
(0.1 0.00633333 0.00266667)
(0.1 0.00666667 0.00266667)
(0.1 0.007 0.00266667)
(0.1 0.00733333 0.00266667)
(0.1 0.00766667 0.00266667)
(0.1 0.008 0.00266667)
(0.1 0.00833333 0.00266667)
(0.1 0.00866667 0.00266667)
(0.1 0.009 0.00266667)
(0.1 0.00933333 0.00266667)
(0.1 0.00966667 0.00266667)
(0.1 0.01 0.00266667)
(0.1 0.000333333 0.00333333)
(0.1 0 0.00333333)
(0.1 0.000666667 0.00333333)
(0.1 0.001 0.00333333)
(0.1 0.00133333 0.00333333)
(0.1 0.00166667 0.00333333)
(0.1 0.002 0.00333333)
(0.1 0.00233333 0.00333333)
(0.1 0.00266667 0.00333333)
(0.1 0.003 0.00333333)
(0.1 0.00333333 0.00333333)
(0.1 0.00366667 0.00333333)
(0.1 0.004 0.00333333)
(0.1 0.00433333 0.00333333)
(0.1 0.00466667 0.00333333)
(0.1 0.005 0.00333333)
(0.1 0.00533333 0.00333333)
(0.1 0.00566667 0.00333333)
(0.1 0.006 0.00333333)
(0.1 0.00633333 0.00333333)
(0.1 0.00666667 0.00333333)
(0.1 0.007 0.00333333)
(0.1 0.00733333 0.00333333)
(0.1 0.00766667 0.00333333)
(0.1 0.008 0.00333333)
(0.1 0.00833333 0.00333333)
(0.1 0.00866667 0.00333333)
(0.1 0.009 0.00333333)
(0.1 0.00933333 0.00333333)
(0.1 0.00966667 0.00333333)
(0.1 0.01 0.00333333)
(0.1 0.000333333 0.004)
(0.1 0 0.004)
(0.1 0.000666667 0.004)
(0.1 0.001 0.004)
(0.1 0.00133333 0.004)
(0.1 0.00166667 0.004)
(0.1 0.002 0.004)
(0.1 0.00233333 0.004)
(0.1 0.00266667 0.004)
(0.1 0.003 0.004)
(0.1 0.00333333 0.004)
(0.1 0.00366667 0.004)
(0.1 0.004 0.004)
(0.1 0.00433333 0.004)
(0.1 0.00466667 0.004)
(0.1 0.005 0.004)
(0.1 0.00533333 0.004)
(0.1 0.00566667 0.004)
(0.1 0.006 0.004)
(0.1 0.00633333 0.004)
(0.1 0.00666667 0.004)
(0.1 0.007 0.004)
(0.1 0.00733333 0.004)
(0.1 0.00766667 0.004)
(0.1 0.008 0.004)
(0.1 0.00833333 0.004)
(0.1 0.00866667 0.004)
(0.1 0.009 0.004)
(0.1 0.00933333 0.004)
(0.1 0.00966667 0.004)
(0.1 0.01 0.004)
(0.1 0.000333333 0.00466667)
(0.1 0 0.00466667)
(0.1 0.000666667 0.00466667)
(0.1 0.001 0.00466667)
(0.1 0.00133333 0.00466667)
(0.1 0.00166667 0.00466667)
(0.1 0.002 0.00466667)
(0.1 0.00233333 0.00466667)
(0.1 0.00266667 0.00466667)
(0.1 0.003 0.00466667)
(0.1 0.00333333 0.00466667)
(0.1 0.00366667 0.00466667)
(0.1 0.004 0.00466667)
(0.1 0.00433333 0.00466667)
(0.1 0.00466667 0.00466667)
(0.1 0.005 0.00466667)
(0.1 0.00533333 0.00466667)
(0.1 0.00566667 0.00466667)
(0.1 0.006 0.00466667)
(0.1 0.00633333 0.00466667)
(0.1 0.00666667 0.00466667)
(0.1 0.007 0.00466667)
(0.1 0.00733333 0.00466667)
(0.1 0.00766667 0.00466667)
(0.1 0.008 0.00466667)
(0.1 0.00833333 0.00466667)
(0.1 0.00866667 0.00466667)
(0.1 0.009 0.00466667)
(0.1 0.00933333 0.00466667)
(0.1 0.00966667 0.00466667)
(0.1 0.01 0.00466667)
(0.1 0.000333333 0.00533333)
(0.1 0 0.00533333)
(0.1 0.000666667 0.00533333)
(0.1 0.001 0.00533333)
(0.1 0.00133333 0.00533333)
(0.1 0.00166667 0.00533333)
(0.1 0.002 0.00533333)
(0.1 0.00233333 0.00533333)
(0.1 0.00266667 0.00533333)
(0.1 0.003 0.00533333)
(0.1 0.00333333 0.00533333)
(0.1 0.00366667 0.00533333)
(0.1 0.004 0.00533333)
(0.1 0.00433333 0.00533333)
(0.1 0.00466667 0.00533333)
(0.1 0.005 0.00533333)
(0.1 0.00533333 0.00533333)
(0.1 0.00566667 0.00533333)
(0.1 0.006 0.00533333)
(0.1 0.00633333 0.00533333)
(0.1 0.00666667 0.00533333)
(0.1 0.007 0.00533333)
(0.1 0.00733333 0.00533333)
(0.1 0.00766667 0.00533333)
(0.1 0.008 0.00533333)
(0.1 0.00833333 0.00533333)
(0.1 0.00866667 0.00533333)
(0.1 0.009 0.00533333)
(0.1 0.00933333 0.00533333)
(0.1 0.00966667 0.00533333)
(0.1 0.01 0.00533333)
(0.1 0.000333333 0.006)
(0.1 0 0.006)
(0.1 0.000666667 0.006)
(0.1 0.001 0.006)
(0.1 0.00133333 0.006)
(0.1 0.00166667 0.006)
(0.1 0.002 0.006)
(0.1 0.00233333 0.006)
(0.1 0.00266667 0.006)
(0.1 0.003 0.006)
(0.1 0.00333333 0.006)
(0.1 0.00366667 0.006)
(0.1 0.004 0.006)
(0.1 0.00433333 0.006)
(0.1 0.00466667 0.006)
(0.1 0.005 0.006)
(0.1 0.00533333 0.006)
(0.1 0.00566667 0.006)
(0.1 0.006 0.006)
(0.1 0.00633333 0.006)
(0.1 0.00666667 0.006)
(0.1 0.007 0.006)
(0.1 0.00733333 0.006)
(0.1 0.00766667 0.006)
(0.1 0.008 0.006)
(0.1 0.00833333 0.006)
(0.1 0.00866667 0.006)
(0.1 0.009 0.006)
(0.1 0.00933333 0.006)
(0.1 0.00966667 0.006)
(0.1 0.01 0.006)
(0.1 0.000333333 0.00666667)
(0.1 0 0.00666667)
(0.1 0.000666667 0.00666667)
(0.1 0.001 0.00666667)
(0.1 0.00133333 0.00666667)
(0.1 0.00166667 0.00666667)
(0.1 0.002 0.00666667)
(0.1 0.00233333 0.00666667)
(0.1 0.00266667 0.00666667)
(0.1 0.003 0.00666667)
(0.1 0.00333333 0.00666667)
(0.1 0.00366667 0.00666667)
(0.1 0.004 0.00666667)
(0.1 0.00433333 0.00666667)
(0.1 0.00466667 0.00666667)
(0.1 0.005 0.00666667)
(0.1 0.00533333 0.00666667)
(0.1 0.00566667 0.00666667)
(0.1 0.006 0.00666667)
(0.1 0.00633333 0.00666667)
(0.1 0.00666667 0.00666667)
(0.1 0.007 0.00666667)
(0.1 0.00733333 0.00666667)
(0.1 0.00766667 0.00666667)
(0.1 0.008 0.00666667)
(0.1 0.00833333 0.00666667)
(0.1 0.00866667 0.00666667)
(0.1 0.009 0.00666667)
(0.1 0.00933333 0.00666667)
(0.1 0.00966667 0.00666667)
(0.1 0.01 0.00666667)
(0.1 0.000333333 0.00733333)
(0.1 0 0.00733333)
(0.1 0.000666667 0.00733333)
(0.1 0.001 0.00733333)
(0.1 0.00133333 0.00733333)
(0.1 0.00166667 0.00733333)
(0.1 0.002 0.00733333)
(0.1 0.00233333 0.00733333)
(0.1 0.00266667 0.00733333)
(0.1 0.003 0.00733333)
(0.1 0.00333333 0.00733333)
(0.1 0.00366667 0.00733333)
(0.1 0.004 0.00733333)
(0.1 0.00433333 0.00733333)
(0.1 0.00466667 0.00733333)
(0.1 0.005 0.00733333)
(0.1 0.00533333 0.00733333)
(0.1 0.00566667 0.00733333)
(0.1 0.006 0.00733333)
(0.1 0.00633333 0.00733333)
(0.1 0.00666667 0.00733333)
(0.1 0.007 0.00733333)
(0.1 0.00733333 0.00733333)
(0.1 0.00766667 0.00733333)
(0.1 0.008 0.00733333)
(0.1 0.00833333 0.00733333)
(0.1 0.00866667 0.00733333)
(0.1 0.009 0.00733333)
(0.1 0.00933333 0.00733333)
(0.1 0.00966667 0.00733333)
(0.1 0.01 0.00733333)
(0.1 0.000333333 0.008)
(0.1 0 0.008)
(0.1 0.000666667 0.008)
(0.1 0.001 0.008)
(0.1 0.00133333 0.008)
(0.1 0.00166667 0.008)
(0.1 0.002 0.008)
(0.1 0.00233333 0.008)
(0.1 0.00266667 0.008)
(0.1 0.003 0.008)
(0.1 0.00333333 0.008)
(0.1 0.00366667 0.008)
(0.1 0.004 0.008)
(0.1 0.00433333 0.008)
(0.1 0.00466667 0.008)
(0.1 0.005 0.008)
(0.1 0.00533333 0.008)
(0.1 0.00566667 0.008)
(0.1 0.006 0.008)
(0.1 0.00633333 0.008)
(0.1 0.00666667 0.008)
(0.1 0.007 0.008)
(0.1 0.00733333 0.008)
(0.1 0.00766667 0.008)
(0.1 0.008 0.008)
(0.1 0.00833333 0.008)
(0.1 0.00866667 0.008)
(0.1 0.009 0.008)
(0.1 0.00933333 0.008)
(0.1 0.00966667 0.008)
(0.1 0.01 0.008)
(0.1 0.000333333 0.00866667)
(0.1 0 0.00866667)
(0.1 0.000666667 0.00866667)
(0.1 0.001 0.00866667)
(0.1 0.00133333 0.00866667)
(0.1 0.00166667 0.00866667)
(0.1 0.002 0.00866667)
(0.1 0.00233333 0.00866667)
(0.1 0.00266667 0.00866667)
(0.1 0.003 0.00866667)
(0.1 0.00333333 0.00866667)
(0.1 0.00366667 0.00866667)
(0.1 0.004 0.00866667)
(0.1 0.00433333 0.00866667)
(0.1 0.00466667 0.00866667)
(0.1 0.005 0.00866667)
(0.1 0.00533333 0.00866667)
(0.1 0.00566667 0.00866667)
(0.1 0.006 0.00866667)
(0.1 0.00633333 0.00866667)
(0.1 0.00666667 0.00866667)
(0.1 0.007 0.00866667)
(0.1 0.00733333 0.00866667)
(0.1 0.00766667 0.00866667)
(0.1 0.008 0.00866667)
(0.1 0.00833333 0.00866667)
(0.1 0.00866667 0.00866667)
(0.1 0.009 0.00866667)
(0.1 0.00933333 0.00866667)
(0.1 0.00966667 0.00866667)
(0.1 0.01 0.00866667)
(0.1 0.000333333 0.00933333)
(0.1 0 0.00933333)
(0.1 0.000666667 0.00933333)
(0.1 0.001 0.00933333)
(0.1 0.00133333 0.00933333)
(0.1 0.00166667 0.00933333)
(0.1 0.002 0.00933333)
(0.1 0.00233333 0.00933333)
(0.1 0.00266667 0.00933333)
(0.1 0.003 0.00933333)
(0.1 0.00333333 0.00933333)
(0.1 0.00366667 0.00933333)
(0.1 0.004 0.00933333)
(0.1 0.00433333 0.00933333)
(0.1 0.00466667 0.00933333)
(0.1 0.005 0.00933333)
(0.1 0.00533333 0.00933333)
(0.1 0.00566667 0.00933333)
(0.1 0.006 0.00933333)
(0.1 0.00633333 0.00933333)
(0.1 0.00666667 0.00933333)
(0.1 0.007 0.00933333)
(0.1 0.00733333 0.00933333)
(0.1 0.00766667 0.00933333)
(0.1 0.008 0.00933333)
(0.1 0.00833333 0.00933333)
(0.1 0.00866667 0.00933333)
(0.1 0.009 0.00933333)
(0.1 0.00933333 0.00933333)
(0.1 0.00966667 0.00933333)
(0.1 0.01 0.00933333)
(0.1 0.000333333 0.01)
(0.1 0 0.01)
(0.1 0.000666667 0.01)
(0.1 0.001 0.01)
(0.1 0.00133333 0.01)
(0.1 0.00166667 0.01)
(0.1 0.002 0.01)
(0.1 0.00233333 0.01)
(0.1 0.00266667 0.01)
(0.1 0.003 0.01)
(0.1 0.00333333 0.01)
(0.1 0.00366667 0.01)
(0.1 0.004 0.01)
(0.1 0.00433333 0.01)
(0.1 0.00466667 0.01)
(0.1 0.005 0.01)
(0.1 0.00533333 0.01)
(0.1 0.00566667 0.01)
(0.1 0.006 0.01)
(0.1 0.00633333 0.01)
(0.1 0.00666667 0.01)
(0.1 0.007 0.01)
(0.1 0.00733333 0.01)
(0.1 0.00766667 0.01)
(0.1 0.008 0.01)
(0.1 0.00833333 0.01)
(0.1 0.00866667 0.01)
(0.1 0.009 0.01)
(0.1 0.00933333 0.01)
(0.1 0.00966667 0.01)
(0.1 0.01 0.01)
(0.1 0.000333333 0.0106667)
(0.1 0 0.0106667)
(0.1 0.000666667 0.0106667)
(0.1 0.001 0.0106667)
(0.1 0.00133333 0.0106667)
(0.1 0.00166667 0.0106667)
(0.1 0.002 0.0106667)
(0.1 0.00233333 0.0106667)
(0.1 0.00266667 0.0106667)
(0.1 0.003 0.0106667)
(0.1 0.00333333 0.0106667)
(0.1 0.00366667 0.0106667)
(0.1 0.004 0.0106667)
(0.1 0.00433333 0.0106667)
(0.1 0.00466667 0.0106667)
(0.1 0.005 0.0106667)
(0.1 0.00533333 0.0106667)
(0.1 0.00566667 0.0106667)
(0.1 0.006 0.0106667)
(0.1 0.00633333 0.0106667)
(0.1 0.00666667 0.0106667)
(0.1 0.007 0.0106667)
(0.1 0.00733333 0.0106667)
(0.1 0.00766667 0.0106667)
(0.1 0.008 0.0106667)
(0.1 0.00833333 0.0106667)
(0.1 0.00866667 0.0106667)
(0.1 0.009 0.0106667)
(0.1 0.00933333 0.0106667)
(0.1 0.00966667 0.0106667)
(0.1 0.01 0.0106667)
(0.1 0.000333333 0.0113333)
(0.1 0 0.0113333)
(0.1 0.000666667 0.0113333)
(0.1 0.001 0.0113333)
(0.1 0.00133333 0.0113333)
(0.1 0.00166667 0.0113333)
(0.1 0.002 0.0113333)
(0.1 0.00233333 0.0113333)
(0.1 0.00266667 0.0113333)
(0.1 0.003 0.0113333)
(0.1 0.00333333 0.0113333)
(0.1 0.00366667 0.0113333)
(0.1 0.004 0.0113333)
(0.1 0.00433333 0.0113333)
(0.1 0.00466667 0.0113333)
(0.1 0.005 0.0113333)
(0.1 0.00533333 0.0113333)
(0.1 0.00566667 0.0113333)
(0.1 0.006 0.0113333)
(0.1 0.00633333 0.0113333)
(0.1 0.00666667 0.0113333)
(0.1 0.007 0.0113333)
(0.1 0.00733333 0.0113333)
(0.1 0.00766667 0.0113333)
(0.1 0.008 0.0113333)
(0.1 0.00833333 0.0113333)
(0.1 0.00866667 0.0113333)
(0.1 0.009 0.0113333)
(0.1 0.00933333 0.0113333)
(0.1 0.00966667 0.0113333)
(0.1 0.01 0.0113333)
(0.1 0.000333333 0.012)
(0.1 0 0.012)
(0.1 0.000666667 0.012)
(0.1 0.001 0.012)
(0.1 0.00133333 0.012)
(0.1 0.00166667 0.012)
(0.1 0.002 0.012)
(0.1 0.00233333 0.012)
(0.1 0.00266667 0.012)
(0.1 0.003 0.012)
(0.1 0.00333333 0.012)
(0.1 0.00366667 0.012)
(0.1 0.004 0.012)
(0.1 0.00433333 0.012)
(0.1 0.00466667 0.012)
(0.1 0.005 0.012)
(0.1 0.00533333 0.012)
(0.1 0.00566667 0.012)
(0.1 0.006 0.012)
(0.1 0.00633333 0.012)
(0.1 0.00666667 0.012)
(0.1 0.007 0.012)
(0.1 0.00733333 0.012)
(0.1 0.00766667 0.012)
(0.1 0.008 0.012)
(0.1 0.00833333 0.012)
(0.1 0.00866667 0.012)
(0.1 0.009 0.012)
(0.1 0.00933333 0.012)
(0.1 0.00966667 0.012)
(0.1 0.01 0.012)
(0.1 0.000333333 0.0126667)
(0.1 0 0.0126667)
(0.1 0.000666667 0.0126667)
(0.1 0.001 0.0126667)
(0.1 0.00133333 0.0126667)
(0.1 0.00166667 0.0126667)
(0.1 0.002 0.0126667)
(0.1 0.00233333 0.0126667)
(0.1 0.00266667 0.0126667)
(0.1 0.003 0.0126667)
(0.1 0.00333333 0.0126667)
(0.1 0.00366667 0.0126667)
(0.1 0.004 0.0126667)
(0.1 0.00433333 0.0126667)
(0.1 0.00466667 0.0126667)
(0.1 0.005 0.0126667)
(0.1 0.00533333 0.0126667)
(0.1 0.00566667 0.0126667)
(0.1 0.006 0.0126667)
(0.1 0.00633333 0.0126667)
(0.1 0.00666667 0.0126667)
(0.1 0.007 0.0126667)
(0.1 0.00733333 0.0126667)
(0.1 0.00766667 0.0126667)
(0.1 0.008 0.0126667)
(0.1 0.00833333 0.0126667)
(0.1 0.00866667 0.0126667)
(0.1 0.009 0.0126667)
(0.1 0.00933333 0.0126667)
(0.1 0.00966667 0.0126667)
(0.1 0.01 0.0126667)
(0.1 0.000333333 0.0133333)
(0.1 0 0.0133333)
(0.1 0.000666667 0.0133333)
(0.1 0.001 0.0133333)
(0.1 0.00133333 0.0133333)
(0.1 0.00166667 0.0133333)
(0.1 0.002 0.0133333)
(0.1 0.00233333 0.0133333)
(0.1 0.00266667 0.0133333)
(0.1 0.003 0.0133333)
(0.1 0.00333333 0.0133333)
(0.1 0.00366667 0.0133333)
(0.1 0.004 0.0133333)
(0.1 0.00433333 0.0133333)
(0.1 0.00466667 0.0133333)
(0.1 0.005 0.0133333)
(0.1 0.00533333 0.0133333)
(0.1 0.00566667 0.0133333)
(0.1 0.006 0.0133333)
(0.1 0.00633333 0.0133333)
(0.1 0.00666667 0.0133333)
(0.1 0.007 0.0133333)
(0.1 0.00733333 0.0133333)
(0.1 0.00766667 0.0133333)
(0.1 0.008 0.0133333)
(0.1 0.00833333 0.0133333)
(0.1 0.00866667 0.0133333)
(0.1 0.009 0.0133333)
(0.1 0.00933333 0.0133333)
(0.1 0.00966667 0.0133333)
(0.1 0.01 0.0133333)
(0.1 0.000333333 0.014)
(0.1 0 0.014)
(0.1 0.000666667 0.014)
(0.1 0.001 0.014)
(0.1 0.00133333 0.014)
(0.1 0.00166667 0.014)
(0.1 0.002 0.014)
(0.1 0.00233333 0.014)
(0.1 0.00266667 0.014)
(0.1 0.003 0.014)
(0.1 0.00333333 0.014)
(0.1 0.00366667 0.014)
(0.1 0.004 0.014)
(0.1 0.00433333 0.014)
(0.1 0.00466667 0.014)
(0.1 0.005 0.014)
(0.1 0.00533333 0.014)
(0.1 0.00566667 0.014)
(0.1 0.006 0.014)
(0.1 0.00633333 0.014)
(0.1 0.00666667 0.014)
(0.1 0.007 0.014)
(0.1 0.00733333 0.014)
(0.1 0.00766667 0.014)
(0.1 0.008 0.014)
(0.1 0.00833333 0.014)
(0.1 0.00866667 0.014)
(0.1 0.009 0.014)
(0.1 0.00933333 0.014)
(0.1 0.00966667 0.014)
(0.1 0.01 0.014)
(0.1 0.000333333 0.0146667)
(0.1 0 0.0146667)
(0.1 0.000666667 0.0146667)
(0.1 0.001 0.0146667)
(0.1 0.00133333 0.0146667)
(0.1 0.00166667 0.0146667)
(0.1 0.002 0.0146667)
(0.1 0.00233333 0.0146667)
(0.1 0.00266667 0.0146667)
(0.1 0.003 0.0146667)
(0.1 0.00333333 0.0146667)
(0.1 0.00366667 0.0146667)
(0.1 0.004 0.0146667)
(0.1 0.00433333 0.0146667)
(0.1 0.00466667 0.0146667)
(0.1 0.005 0.0146667)
(0.1 0.00533333 0.0146667)
(0.1 0.00566667 0.0146667)
(0.1 0.006 0.0146667)
(0.1 0.00633333 0.0146667)
(0.1 0.00666667 0.0146667)
(0.1 0.007 0.0146667)
(0.1 0.00733333 0.0146667)
(0.1 0.00766667 0.0146667)
(0.1 0.008 0.0146667)
(0.1 0.00833333 0.0146667)
(0.1 0.00866667 0.0146667)
(0.1 0.009 0.0146667)
(0.1 0.00933333 0.0146667)
(0.1 0.00966667 0.0146667)
(0.1 0.01 0.0146667)
(0.1 0.000333333 0.0153333)
(0.1 0 0.0153333)
(0.1 0.000666667 0.0153333)
(0.1 0.001 0.0153333)
(0.1 0.00133333 0.0153333)
(0.1 0.00166667 0.0153333)
(0.1 0.002 0.0153333)
(0.1 0.00233333 0.0153333)
(0.1 0.00266667 0.0153333)
(0.1 0.003 0.0153333)
(0.1 0.00333333 0.0153333)
(0.1 0.00366667 0.0153333)
(0.1 0.004 0.0153333)
(0.1 0.00433333 0.0153333)
(0.1 0.00466667 0.0153333)
(0.1 0.005 0.0153333)
(0.1 0.00533333 0.0153333)
(0.1 0.00566667 0.0153333)
(0.1 0.006 0.0153333)
(0.1 0.00633333 0.0153333)
(0.1 0.00666667 0.0153333)
(0.1 0.007 0.0153333)
(0.1 0.00733333 0.0153333)
(0.1 0.00766667 0.0153333)
(0.1 0.008 0.0153333)
(0.1 0.00833333 0.0153333)
(0.1 0.00866667 0.0153333)
(0.1 0.009 0.0153333)
(0.1 0.00933333 0.0153333)
(0.1 0.00966667 0.0153333)
(0.1 0.01 0.0153333)
(0.1 0.000333333 0.016)
(0.1 0 0.016)
(0.1 0.000666667 0.016)
(0.1 0.001 0.016)
(0.1 0.00133333 0.016)
(0.1 0.00166667 0.016)
(0.1 0.002 0.016)
(0.1 0.00233333 0.016)
(0.1 0.00266667 0.016)
(0.1 0.003 0.016)
(0.1 0.00333333 0.016)
(0.1 0.00366667 0.016)
(0.1 0.004 0.016)
(0.1 0.00433333 0.016)
(0.1 0.00466667 0.016)
(0.1 0.005 0.016)
(0.1 0.00533333 0.016)
(0.1 0.00566667 0.016)
(0.1 0.006 0.016)
(0.1 0.00633333 0.016)
(0.1 0.00666667 0.016)
(0.1 0.007 0.016)
(0.1 0.00733333 0.016)
(0.1 0.00766667 0.016)
(0.1 0.008 0.016)
(0.1 0.00833333 0.016)
(0.1 0.00866667 0.016)
(0.1 0.009 0.016)
(0.1 0.00933333 0.016)
(0.1 0.00966667 0.016)
(0.1 0.01 0.016)
(0.1 0.000333333 0.0166667)
(0.1 0 0.0166667)
(0.1 0.000666667 0.0166667)
(0.1 0.001 0.0166667)
(0.1 0.00133333 0.0166667)
(0.1 0.00166667 0.0166667)
(0.1 0.002 0.0166667)
(0.1 0.00233333 0.0166667)
(0.1 0.00266667 0.0166667)
(0.1 0.003 0.0166667)
(0.1 0.00333333 0.0166667)
(0.1 0.00366667 0.0166667)
(0.1 0.004 0.0166667)
(0.1 0.00433333 0.0166667)
(0.1 0.00466667 0.0166667)
(0.1 0.005 0.0166667)
(0.1 0.00533333 0.0166667)
(0.1 0.00566667 0.0166667)
(0.1 0.006 0.0166667)
(0.1 0.00633333 0.0166667)
(0.1 0.00666667 0.0166667)
(0.1 0.007 0.0166667)
(0.1 0.00733333 0.0166667)
(0.1 0.00766667 0.0166667)
(0.1 0.008 0.0166667)
(0.1 0.00833333 0.0166667)
(0.1 0.00866667 0.0166667)
(0.1 0.009 0.0166667)
(0.1 0.00933333 0.0166667)
(0.1 0.00966667 0.0166667)
(0.1 0.01 0.0166667)
(0.1 0.000333333 0.0173333)
(0.1 0 0.0173333)
(0.1 0.000666667 0.0173333)
(0.1 0.001 0.0173333)
(0.1 0.00133333 0.0173333)
(0.1 0.00166667 0.0173333)
(0.1 0.002 0.0173333)
(0.1 0.00233333 0.0173333)
(0.1 0.00266667 0.0173333)
(0.1 0.003 0.0173333)
(0.1 0.00333333 0.0173333)
(0.1 0.00366667 0.0173333)
(0.1 0.004 0.0173333)
(0.1 0.00433333 0.0173333)
(0.1 0.00466667 0.0173333)
(0.1 0.005 0.0173333)
(0.1 0.00533333 0.0173333)
(0.1 0.00566667 0.0173333)
(0.1 0.006 0.0173333)
(0.1 0.00633333 0.0173333)
(0.1 0.00666667 0.0173333)
(0.1 0.007 0.0173333)
(0.1 0.00733333 0.0173333)
(0.1 0.00766667 0.0173333)
(0.1 0.008 0.0173333)
(0.1 0.00833333 0.0173333)
(0.1 0.00866667 0.0173333)
(0.1 0.009 0.0173333)
(0.1 0.00933333 0.0173333)
(0.1 0.00966667 0.0173333)
(0.1 0.01 0.0173333)
(0.1 0.000333333 0.018)
(0.1 0 0.018)
(0.1 0.000666667 0.018)
(0.1 0.001 0.018)
(0.1 0.00133333 0.018)
(0.1 0.00166667 0.018)
(0.1 0.002 0.018)
(0.1 0.00233333 0.018)
(0.1 0.00266667 0.018)
(0.1 0.003 0.018)
(0.1 0.00333333 0.018)
(0.1 0.00366667 0.018)
(0.1 0.004 0.018)
(0.1 0.00433333 0.018)
(0.1 0.00466667 0.018)
(0.1 0.005 0.018)
(0.1 0.00533333 0.018)
(0.1 0.00566667 0.018)
(0.1 0.006 0.018)
(0.1 0.00633333 0.018)
(0.1 0.00666667 0.018)
(0.1 0.007 0.018)
(0.1 0.00733333 0.018)
(0.1 0.00766667 0.018)
(0.1 0.008 0.018)
(0.1 0.00833333 0.018)
(0.1 0.00866667 0.018)
(0.1 0.009 0.018)
(0.1 0.00933333 0.018)
(0.1 0.00966667 0.018)
(0.1 0.01 0.018)
(0.1 0.000333333 0.0186667)
(0.1 0 0.0186667)
(0.1 0.000666667 0.0186667)
(0.1 0.001 0.0186667)
(0.1 0.00133333 0.0186667)
(0.1 0.00166667 0.0186667)
(0.1 0.002 0.0186667)
(0.1 0.00233333 0.0186667)
(0.1 0.00266667 0.0186667)
(0.1 0.003 0.0186667)
(0.1 0.00333333 0.0186667)
(0.1 0.00366667 0.0186667)
(0.1 0.004 0.0186667)
(0.1 0.00433333 0.0186667)
(0.1 0.00466667 0.0186667)
(0.1 0.005 0.0186667)
(0.1 0.00533333 0.0186667)
(0.1 0.00566667 0.0186667)
(0.1 0.006 0.0186667)
(0.1 0.00633333 0.0186667)
(0.1 0.00666667 0.0186667)
(0.1 0.007 0.0186667)
(0.1 0.00733333 0.0186667)
(0.1 0.00766667 0.0186667)
(0.1 0.008 0.0186667)
(0.1 0.00833333 0.0186667)
(0.1 0.00866667 0.0186667)
(0.1 0.009 0.0186667)
(0.1 0.00933333 0.0186667)
(0.1 0.00966667 0.0186667)
(0.1 0.01 0.0186667)
(0.1 0.000333333 0.0193333)
(0.1 0 0.0193333)
(0.1 0.000666667 0.0193333)
(0.1 0.001 0.0193333)
(0.1 0.00133333 0.0193333)
(0.1 0.00166667 0.0193333)
(0.1 0.002 0.0193333)
(0.1 0.00233333 0.0193333)
(0.1 0.00266667 0.0193333)
(0.1 0.003 0.0193333)
(0.1 0.00333333 0.0193333)
(0.1 0.00366667 0.0193333)
(0.1 0.004 0.0193333)
(0.1 0.00433333 0.0193333)
(0.1 0.00466667 0.0193333)
(0.1 0.005 0.0193333)
(0.1 0.00533333 0.0193333)
(0.1 0.00566667 0.0193333)
(0.1 0.006 0.0193333)
(0.1 0.00633333 0.0193333)
(0.1 0.00666667 0.0193333)
(0.1 0.007 0.0193333)
(0.1 0.00733333 0.0193333)
(0.1 0.00766667 0.0193333)
(0.1 0.008 0.0193333)
(0.1 0.00833333 0.0193333)
(0.1 0.00866667 0.0193333)
(0.1 0.009 0.0193333)
(0.1 0.00933333 0.0193333)
(0.1 0.00966667 0.0193333)
(0.1 0.01 0.0193333)
(0.1 0.000333333 0.02)
(0.1 0 0.02)
(0.1 0.000666667 0.02)
(0.1 0.001 0.02)
(0.1 0.00133333 0.02)
(0.1 0.00166667 0.02)
(0.1 0.002 0.02)
(0.1 0.00233333 0.02)
(0.1 0.00266667 0.02)
(0.1 0.003 0.02)
(0.1 0.00333333 0.02)
(0.1 0.00366667 0.02)
(0.1 0.004 0.02)
(0.1 0.00433333 0.02)
(0.1 0.00466667 0.02)
(0.1 0.005 0.02)
(0.1 0.00533333 0.02)
(0.1 0.00566667 0.02)
(0.1 0.006 0.02)
(0.1 0.00633333 0.02)
(0.1 0.00666667 0.02)
(0.1 0.007 0.02)
(0.1 0.00733333 0.02)
(0.1 0.00766667 0.02)
(0.1 0.008 0.02)
(0.1 0.00833333 0.02)
(0.1 0.00866667 0.02)
(0.1 0.009 0.02)
(0.1 0.00933333 0.02)
(0.1 0.00966667 0.02)
(0.1 0.01 0.02)
)
