/*--------------------------------*- C++ -*----------------------------------*\
  =========                 |
  \\      /  F ield         | OpenFOAM: The Open Source CFD Toolbox
   \\    /   O peration     | Website:  https://openfoam.org
    \\  /    A nd           | Version:  6
     \\/     M anipulation  |
\*---------------------------------------------------------------------------*/
FoamFile
{
    version     2.0;
    format      ascii;
    class       volScalarField;
    location    "0.17";
    object      epsilon;
}
// * * * * * * * * * * * * * * * * * * * * * * * * * * * * * * * * * * * * * //

dimensions      [0 2 -3 0 0 0 0];

internalField   nonuniform List<scalar> 
12225
(
307.554
159.142
103.207
76.182
60.8945
51.358
44.9196
40.2615
36.6995
33.8615
31.532
29.5775
27.9101
26.4687
25.2091
24.0991
23.1147
22.2915
71.6108
59.7632
44.4175
34.3492
27.8026
23.3536
20.2016
17.8798
16.1046
14.702
13.5637
12.62
11.8242
11.1437
10.5551
10.0408
9.58616
9.17578
33.6139
34.4055
29.2906
24.3864
20.5358
17.6096
15.38
13.6562
12.297
11.2032
10.3062
9.5584
8.92613
8.38503
7.91711
7.5088
7.14951
6.83105
22.4947
24.1974
22.2225
19.5419
17.065
14.9829
13.2831
11.9026
10.7754
9.84568
9.07002
8.41552
7.85739
7.37683
6.9595
6.59432
6.27291
5.99055
18.0525
19.1659
18.2264
16.5958
14.8967
13.3496
12.011
10.8755
9.91731
9.10713
8.4184
7.82892
7.32073
6.87951
6.49386
6.15477
5.85549
5.59307
15.9662
16.4001
15.7672
14.6432
13.3964
12.1983
11.1155
10.1641
9.33828
8.62411
8.00603
7.46941
7.00148
6.59146
6.23043
5.91113
5.62815
5.37964
14.903
14.7894
14.1896
13.3005
12.3143
11.3432
10.4412
9.62841
8.90717
8.27167
7.71301
7.22161
6.78844
6.40544
6.06565
5.76329
5.49407
5.2569
14.3404
13.8261
13.1601
12.3652
11.5231
10.6961
9.91948
9.20928
8.56954
7.99792
7.48908
7.03657
6.63387
6.27488
5.95416
5.66707
5.41024
5.18312
14.0387
13.2461
12.4873
11.7146
10.9458
10.2062
9.51379
8.87745
8.29964
7.77871
7.31084
6.89127
6.51501
6.17728
5.8737
5.60052
5.35508
5.1372
13.8768
12.8995
12.0523
11.2677
10.5298
9.83969
9.20111
8.61597
8.08366
7.60173
7.16661
6.77422
6.42039
6.1011
5.81272
5.55209
5.31705
5.10765
13.7906
12.6957
11.7767
10.9671
10.2363
9.57093
8.96461
8.41323
7.91298
7.45995
7.05012
6.67944
6.34405
6.04035
5.76507
5.51548
5.28975
5.08804
13.7489
12.5882
11.6206
10.7868
10.0518
9.39522
8.80493
8.27266
7.79207
7.35782
6.96517
6.60981
6.28785
5.9958
5.73058
5.48964
5.27133
5.07584
13.7254
12.5235
11.521
10.6659
9.92275
9.26805
8.68598
8.16541
7.69799
7.27707
6.89716
6.55357
6.24224
5.95964
5.70276
5.46914
5.25721
5.06715
13.7116
12.4831
11.4547
10.581
9.82782
9.17073
8.59187
8.07814
7.6196
7.20846
6.83848
6.50447
6.20211
5.92776
5.67834
5.45143
5.24548
5.06057
13.7045
12.4608
11.416
10.5284
9.76604
9.10454
8.5254
8.01448
7.56084
7.15587
6.79265
6.46559
6.17005
5.9022
5.65888
5.43761
5.23679
5.05642
13.7012
12.4503
11.3966
10.5006
9.73163
9.06592
8.485
7.9744
7.52273
7.12089
6.76158
6.43885
6.14783
5.88451
5.6456
5.42854
5.23168
5.05487
13.7
12.4461
11.3886
10.4886
9.71596
9.04751
8.46495
7.95381
7.50256
7.10194
6.74446
6.42398
6.13548
5.87482
5.63862
5.42425
5.22999
5.05558
13.6996
12.4449
11.3862
10.4848
9.71086
9.04131
8.45797
7.94644
7.49519
7.09492
6.73808
6.41848
6.13103
5.87153
5.63656
5.42346
5.23045
5.05721
13.6998
12.4453
11.387
10.486
9.71246
9.04324
8.46015
7.94877
7.49756
7.09725
6.74029
6.42051
6.13284
5.8731
5.63788
5.4245
5.23123
5.05774
13.701
12.4493
11.3947
10.4976
9.72761
9.06115
8.47981
7.96914
7.51771
7.11637
6.75777
6.43589
6.14582
5.88349
5.64559
5.42952
5.2336
5.05766
13.7054
12.4634
11.4201
10.5336
9.77188
9.1106
8.53143
8.02036
7.56651
7.16132
6.79793
6.47072
6.17508
5.90716
5.66379
5.44248
5.24164
5.06125
13.7204
12.5081
11.4948
10.6317
9.88425
9.22858
8.64812
8.13086
7.6677
7.25148
6.87635
6.53737
6.23036
5.95173
5.69845
5.46806
5.25901
5.07145
13.767
12.6331
11.6842
10.8596
10.1263
9.46682
8.8711
8.33231
7.84499
7.40427
7.00567
6.64498
6.31834
6.0222
5.75345
5.50946
5.28854
5.09089
13.9007
12.9462
12.1086
11.3252
10.5844
9.88982
9.24644
8.65665
8.1201
7.63441
7.19602
6.80083
6.44461
6.12332
5.83325
5.5712
5.33498
5.12467
14.2607
13.6658
12.9741
12.1888
11.372
10.5738
9.82386
9.13616
8.51451
7.9571
7.45928
7.01531
6.61923
6.26541
5.94874
5.66487
5.41066
5.18576
15.1941
15.2319
14.6348
13.6938
12.6457
11.6176
10.6673
9.81496
9.06204
8.40139
7.82282
7.31569
6.87008
6.47721
6.12956
5.82088
5.54656
5.30548
17.6338
18.6177
17.7645
16.258
14.663
13.1886
11.8965
10.7896
9.84861
9.04891
8.36681
7.78177
7.27681
6.83812
6.45459
6.11738
5.81993
5.55996
24.7058
26.4229
23.9015
20.7812
17.9997
15.7041
13.8522
12.3629
11.1574
10.1709
9.35367
8.66825
8.08681
7.5884
7.15716
6.78103
6.45106
6.16341
51.9669
47.7358
37.7988
30.1743
24.7623
20.8807
18.0401
15.9117
14.2745
12.9818
11.9369
11.0752
10.3523
9.73728
9.20769
8.74715
8.34367
7.9913
251.833
137.372
90.8033
67.1583
53.3486
44.5772
38.6386
34.3821
31.1762
28.6619
26.6263
24.9374
23.5093
22.2839
21.2198
20.2871
19.4631
18.7334
0.0825062
0.0887206
0.108323
0.120132
0.13792
0.160056
0.187584
0.220703
0.25401
0.289924
0.329198
0.372149
0.418759
0.468769
0.521789
0.577369
0.635054
0.694411
0.755042
0.816599
0.878777
0.941323
1.00403
1.06674
1.12932
1.1917
1.25382
1.31565
1.37718
1.43844
1.49943
1.5602
1.62079
1.68123
1.74157
1.80187
1.86216
1.92252
1.98302
2.04376
2.10487
2.16656
2.22911
2.2929
2.35852
2.42593
2.49292
2.55947
2.62547
2.69075
2.75507
2.81814
2.87964
2.93922
2.9965
3.05107
3.10251
3.15038
3.19423
3.23362
3.26813
3.29734
3.32087
3.33838
3.34958
3.35423
3.35217
3.3433
3.32759
3.30511
3.27597
3.2404
3.19865
3.15108
3.09807
3.04008
2.9776
2.91116
2.84142
2.76926
2.69626
2.62565
2.56352
2.51394
2.46853
2.42312
2.3772
2.33079
2.28407
2.23721
2.1904
2.1438
2.09754
2.05175
2.00651
1.96191
1.918
1.87481
1.83238
1.79071
1.7498
1.70963
1.67018
1.63144
1.59338
1.55595
1.51914
1.48292
1.44727
1.41215
1.37758
1.34352
1.31
1.27702
1.2446
1.21277
1.18156
1.15102
1.12119
1.09214
1.06392
1.03659
1.01021
0.984832
0.960493
0.937209
0.914967
0.893761
0.873695
0.855149
0.83823
0.822802
0.808768
0.796049
0.784567
0.774245
0.765012
0.756793
0.749519
0.74312
0.737528
0.732675
0.728499
0.724938
0.721932
0.719427
0.717369
0.715711
0.714407
0.713415
0.712698
0.712222
0.711955
0.711868
0.711938
0.712142
0.712458
0.712871
0.713363
0.713921
0.71453
0.715179
0.715855
0.716548
0.717244
0.71793
0.71859
0.719207
0.719756
0.720207
0.720519
0.720635
0.720472
0.719907
0.718747
0.716664
0.713099
0.706912
0.696234
0.677172
0.241541
0.153538
0.155235
0.172743
0.197737
0.228872
0.263277
0.297647
0.329973
0.36013
0.388447
0.415256
0.440807
0.4653
0.488909
0.5118
0.534127
0.556028
0.577618
0.598988
0.620206
0.641317
0.662349
0.683319
0.704231
0.725086
0.745882
0.766617
0.787287
0.807893
0.828435
0.848916
0.869341
0.889718
0.910058
0.930373
0.950685
0.97102
0.991413
1.01191
1.03259
1.05352
1.07482
1.09663
1.11911
1.14251
1.166
1.18939
1.21259
1.23553
1.25814
1.28031
1.30193
1.32289
1.34306
1.3623
1.38046
1.39739
1.41292
1.42691
1.43918
1.44958
1.45797
1.46421
1.46819
1.4698
1.46896
1.46562
1.45976
1.45137
1.44048
1.42716
1.4115
1.3936
1.37361
1.3517
1.32807
1.30294
1.27661
1.24942
1.22187
1.19458
1.16833
1.14401
1.12029
1.09661
1.07286
1.04909
1.02535
1.00173
0.978285
0.955089
0.932191
0.909633
0.887449
0.865667
0.844304
0.823374
0.802882
0.78283
0.763215
0.744031
0.72527
0.706921
0.688973
0.671414
0.654233
0.63742
0.620964
0.60486
0.5891
0.573683
0.558609
0.543879
0.529498
0.515475
0.501821
0.488546
0.475667
0.463199
0.451158
0.439563
0.428428
0.41777
0.407601
0.39793
0.388768
0.38013
0.372052
0.364616
0.357925
0.351819
0.346223
0.341114
0.336471
0.332269
0.328482
0.325085
0.322052
0.319357
0.316974
0.314879
0.313047
0.311457
0.310085
0.308911
0.307916
0.307081
0.306388
0.305823
0.305371
0.305018
0.304752
0.304563
0.304441
0.304378
0.304365
0.304396
0.304465
0.304567
0.304697
0.304851
0.305026
0.305219
0.305428
0.305651
0.305885
0.30613
0.306385
0.306652
0.30693
0.307226
0.307547
0.307914
0.308367
0.308997
0.310015
0.311932
0.316051
0.326312
0.487829
0.258937
0.237253
0.243552
0.26114
0.285025
0.311454
0.337323
0.36097
0.382122
0.401188
0.418742
0.435305
0.451279
0.466954
0.482521
0.498095
0.513726
0.529423
0.545163
0.560904
0.576598
0.592197
0.607661
0.622955
0.63806
0.652965
0.66767
0.682183
0.696521
0.710704
0.72476
0.738719
0.752616
0.766487
0.780371
0.794309
0.808348
0.822531
0.836907
0.851524
0.86643
0.881669
0.897277
0.913278
0.929627
0.94613
0.962705
0.979301
0.995866
1.01235
1.02867
1.04477
1.06056
1.07593
1.09078
1.10498
1.11842
1.13095
1.14244
1.15274
1.16172
1.16923
1.17514
1.17935
1.18173
1.18222
1.18073
1.17723
1.17171
1.16416
1.15463
1.14316
1.12986
1.11482
1.09818
1.08009
1.06073
1.04029
1.01901
0.997119
0.974883
0.953005
0.931531
0.910187
0.888862
0.867558
0.846323
0.825221
0.804316
0.783667
0.763325
0.743332
0.723722
0.704523
0.685753
0.667427
0.64955
0.632127
0.615156
0.598631
0.582544
0.566887
0.551648
0.536815
0.522376
0.508318
0.49463
0.4813
0.468321
0.455683
0.443382
0.431411
0.41977
0.408458
0.397476
0.386828
0.376519
0.366554
0.356941
0.347689
0.338804
0.330296
0.322173
0.31444
0.307104
0.300171
0.293647
0.287543
0.281873
0.27665
0.271877
0.267522
0.263549
0.259937
0.256666
0.253717
0.251068
0.2487
0.246592
0.244725
0.243079
0.241635
0.240376
0.239283
0.238342
0.237536
0.236852
0.236276
0.235796
0.235401
0.23508
0.234825
0.234626
0.234478
0.234373
0.234306
0.23427
0.234263
0.23428
0.234317
0.234372
0.234442
0.234525
0.234619
0.234724
0.234838
0.23496
0.23509
0.23523
0.23538
0.235544
0.235728
0.235946
0.236222
0.23661
0.237225
0.238339
0.240589
0.245594
0.723422
0.351941
0.304116
0.29847
0.306197
0.320266
0.33714
0.354443
0.370896
0.386171
0.400471
0.414167
0.427605
0.441028
0.454579
0.468316
0.482237
0.496304
0.510458
0.524632
0.538759
0.552782
0.566652
0.580334
0.593804
0.607052
0.620076
0.632884
0.645492
0.657921
0.670199
0.682355
0.694425
0.706444
0.71845
0.730485
0.742588
0.7548
0.767163
0.779715
0.792493
0.805529
0.818849
0.832475
0.846417
0.860652
0.875112
0.889754
0.904547
0.919453
0.934429
0.949419
0.964356
0.97916
0.99374
1.00799
1.02179
1.03501
1.04751
1.05915
1.06977
1.07923
1.08737
1.09405
1.09914
1.10252
1.10408
1.10375
1.10147
1.09721
1.09097
1.08277
1.07267
1.06073
1.04706
1.03179
1.01504
0.996992
0.977805
0.95766
0.936735
0.915512
0.894246
0.872943
0.8516
0.830243
0.808928
0.787726
0.766708
0.74594
0.725483
0.705387
0.685696
0.666442
0.647651
0.629343
0.611527
0.594212
0.577397
0.561079
0.545251
0.529904
0.515026
0.500604
0.486624
0.47307
0.459928
0.447184
0.434825
0.422837
0.411211
0.399936
0.389004
0.378411
0.36815
0.358221
0.348622
0.339353
0.330416
0.321815
0.313552
0.305633
0.298062
0.290842
0.283978
0.277473
0.27133
0.265552
0.26014
0.255099
0.250429
0.24613
0.242196
0.238604
0.235336
0.232374
0.229699
0.227294
0.22514
0.22322
0.221516
0.22001
0.218685
0.217526
0.216516
0.215642
0.214889
0.214245
0.213696
0.213234
0.212846
0.212525
0.212262
0.212049
0.211881
0.21175
0.211652
0.211582
0.211537
0.211512
0.211505
0.211513
0.211534
0.211566
0.211607
0.211657
0.211715
0.211779
0.21185
0.211928
0.212015
0.212112
0.212225
0.212363
0.212544
0.212804
0.213216
0.213946
0.215329
0.218018
0.897918
0.415191
0.348217
0.333189
0.333075
0.33956
0.349363
0.360642
0.372391
0.384211
0.396058
0.40803
0.420232
0.432731
0.445538
0.458625
0.471937
0.485406
0.498961
0.512533
0.526064
0.5395
0.552804
0.565944
0.578901
0.591664
0.604231
0.616605
0.628797
0.640823
0.652703
0.664463
0.676131
0.687738
0.699318
0.710907
0.722543
0.734263
0.746105
0.758108
0.770306
0.782732
0.795416
0.808384
0.821657
0.835242
0.849109
0.863238
0.877609
0.892195
0.90696
0.921854
0.936814
0.951763
0.966607
0.981237
0.995531
1.00935
1.02254
1.03495
1.04642
1.05676
1.06582
1.07343
1.07945
1.08374
1.08618
1.08668
1.08517
1.08161
1.07599
1.06834
1.05869
1.04713
1.03375
1.01869
1.00207
0.98406
0.964819
0.944512
0.923558
0.902196
0.880537
0.858672
0.836686
0.814662
0.792689
0.770853
0.749236
0.727912
0.706944
0.686386
0.666284
0.646672
0.627578
0.609019
0.591009
0.573552
0.556649
0.540295
0.524482
0.509198
0.49443
0.480163
0.466379
0.453062
0.440194
0.427757
0.415736
0.404115
0.39288
0.382018
0.371518
0.36137
0.351567
0.342104
0.332975
0.324179
0.315714
0.30758
0.299777
0.292307
0.285173
0.278376
0.271918
0.265801
0.260025
0.254592
0.249501
0.244751
0.24034
0.236266
0.232521
0.229098
0.225979
0.223147
0.220586
0.21828
0.216212
0.214366
0.212723
0.211269
0.209988
0.208863
0.20788
0.207026
0.206287
0.205651
0.205106
0.204642
0.204249
0.203919
0.203643
0.203415
0.203229
0.203078
0.202958
0.202864
0.202793
0.202741
0.202705
0.202683
0.202672
0.202672
0.20268
0.202696
0.202718
0.202745
0.202779
0.202818
0.202863
0.202917
0.202984
0.20307
0.203189
0.203366
0.203653
0.204156
0.205065
0.206672
1.01676
0.454157
0.372578
0.350717
0.345407
0.347155
0.35267
0.360359
0.369354
0.379209
0.389713
0.400776
0.412347
0.424375
0.436803
0.449563
0.462585
0.475797
0.489133
0.502532
0.515943
0.529319
0.542623
0.555826
0.568903
0.581838
0.59462
0.607245
0.619712
0.632028
0.644203
0.656253
0.668198
0.680061
0.69187
0.703657
0.715455
0.727302
0.739233
0.751289
0.763507
0.775926
0.788583
0.801513
0.814745
0.828308
0.842193
0.856395
0.870903
0.885699
0.900754
0.916023
0.931446
0.946945
0.962425
0.977772
0.992856
1.00753
1.02163
1.03498
1.0474
1.05871
1.06871
1.07724
1.08412
1.08919
1.09233
1.09344
1.09243
1.08926
1.08392
1.07642
1.06681
1.05518
1.04162
1.02627
1.00928
0.990807
0.970993
0.950297
0.928868
0.906874
0.884461
0.861763
0.8389
0.815987
0.793131
0.770434
0.747985
0.725864
0.70414
0.682873
0.662109
0.641885
0.622232
0.603167
0.584704
0.566848
0.549599
0.532952
0.516897
0.501421
0.486509
0.472143
0.458304
0.444973
0.432129
0.419752
0.407822
0.396323
0.385235
0.374543
0.364234
0.354294
0.344713
0.335482
0.326594
0.318043
0.309826
0.30194
0.294384
0.287157
0.280259
0.27369
0.267451
0.261542
0.255963
0.250713
0.245791
0.241195
0.236921
0.232964
0.229319
0.225978
0.222928
0.220156
0.217646
0.215382
0.213349
0.21153
0.20991
0.208474
0.207205
0.206089
0.205111
0.204259
0.203518
0.202878
0.202327
0.201855
0.201453
0.201111
0.200823
0.200581
0.200379
0.200211
0.200073
0.19996
0.199869
0.199796
0.199739
0.199695
0.199662
0.199638
0.199622
0.199613
0.199609
0.19961
0.199616
0.199626
0.199642
0.199664
0.199696
0.199743
0.199815
0.199932
0.20013
0.200477
0.201091
0.202113
1.09147
0.475128
0.382669
0.355951
0.347422
0.346518
0.349728
0.355496
0.362996
0.371754
0.381482
0.391996
0.403163
0.414883
0.427066
0.439633
0.452515
0.465645
0.478965
0.492422
0.505969
0.519562
0.533165
0.546743
0.560267
0.573713
0.587059
0.600291
0.613397
0.626372
0.639215
0.651932
0.664534
0.677035
0.689456
0.701823
0.714166
0.726519
0.738919
0.751406
0.764022
0.77681
0.789813
0.803072
0.816628
0.830516
0.844748
0.859331
0.874262
0.889531
0.905114
0.92097
0.937043
0.953255
0.969508
0.985683
1.00164
1.01722
1.03226
1.04655
1.05991
1.07212
1.08299
1.09231
1.09991
1.10561
1.10928
1.11079
1.11007
1.10706
1.10174
1.09415
1.08432
1.07236
1.05836
1.04248
1.02484
1.00574
0.985417
0.964086
0.941928
0.919121
0.89583
0.872211
0.848405
0.824545
0.800752
0.777135
0.753793
0.730813
0.708267
0.686218
0.664718
0.643805
0.62351
0.603854
0.58485
0.566505
0.548817
0.531781
0.515387
0.49962
0.484464
0.469898
0.455902
0.442453
0.429529
0.417107
0.405166
0.393682
0.382637
0.372011
0.361788
0.351951
0.342488
0.333386
0.324636
0.31623
0.308162
0.300426
0.29302
0.285941
0.279188
0.272759
0.266654
0.260872
0.255412
0.250272
0.24545
0.240944
0.236749
0.23286
0.229271
0.225975
0.222961
0.220217
0.217729
0.215482
0.213461
0.211651
0.210036
0.208601
0.207332
0.206213
0.205232
0.204374
0.203626
0.202978
0.202418
0.201936
0.201522
0.201169
0.200868
0.200613
0.200397
0.200215
0.200062
0.199934
0.199827
0.199738
0.199664
0.199603
0.199552
0.199509
0.199475
0.199446
0.199422
0.199403
0.199387
0.199375
0.199367
0.199365
0.199369
0.199385
0.199421
0.19949
0.199618
0.199853
0.200267
0.20094
1.13068
0.483441
0.383421
0.353302
0.342786
0.340459
0.342516
0.347326
0.354051
0.362198
0.371449
0.381588
0.392457
0.403937
0.415935
0.428375
0.441191
0.454327
0.467733
0.481362
0.495169
0.509115
0.523158
0.537262
0.551391
0.565512
0.579597
0.593619
0.607557
0.621394
0.63512
0.648728
0.66222
0.675601
0.688886
0.702093
0.715248
0.72838
0.741526
0.754724
0.768018
0.781454
0.795079
0.808938
0.823078
0.837541
0.852352
0.867526
0.883069
0.898977
0.91523
0.931792
0.948607
0.965597
0.982662
0.999676
1.01649
1.03294
1.04884
1.06398
1.07814
1.09112
1.10268
1.11262
1.12074
1.12686
1.13083
1.13252
1.13186
1.12878
1.12328
1.11538
1.10515
1.09268
1.07806
1.06154
1.04334
1.02363
1.00265
0.980575
0.957619
0.933967
0.909796
0.885274
0.860557
0.835786
0.811093
0.786595
0.762396
0.738587
0.715246
0.692438
0.670217
0.648625
0.627694
0.607447
0.587898
0.569054
0.550913
0.533471
0.516716
0.500633
0.485204
0.470407
0.456221
0.44262
0.429579
0.417074
0.40508
0.393572
0.382527
0.371925
0.361744
0.351967
0.342577
0.33356
0.324904
0.316599
0.308636
0.301007
0.293709
0.286737
0.280087
0.273759
0.267749
0.262057
0.25668
0.251617
0.246864
0.242419
0.238278
0.234434
0.230882
0.227614
0.224622
0.221893
0.219416
0.217175
0.215157
0.213347
0.211731
0.210292
0.209018
0.207893
0.206904
0.206037
0.205281
0.204623
0.204053
0.203561
0.203137
0.202773
0.20246
0.202194
0.201966
0.201772
0.201606
0.201466
0.201346
0.201243
0.201155
0.20108
0.201014
0.200958
0.200907
0.200863
0.200823
0.200787
0.200755
0.200725
0.200698
0.200675
0.200657
0.200648
0.200653
0.200684
0.200758
0.200909
0.201183
0.201633
1.14202
0.483016
0.378404
0.346003
0.334228
0.33111
0.332588
0.336921
0.343232
0.351011
0.359936
0.369784
0.3804
0.391667
0.4035
0.415832
0.428606
0.441775
0.455297
0.469129
0.483233
0.497567
0.512091
0.526765
0.541548
0.556401
0.571288
0.586174
0.601029
0.615826
0.630545
0.64517
0.659693
0.674112
0.688432
0.702664
0.716829
0.730951
0.745062
0.7592
0.773407
0.787728
0.802212
0.816908
0.831862
0.847121
0.862717
0.878672
0.894994
0.911684
0.928725
0.946081
0.963695
0.981489
0.999358
1.01717
1.03477
1.05197
1.06859
1.08439
1.09916
1.11267
1.12468
1.13497
1.14334
1.14959
1.15358
1.15518
1.15431
1.15093
1.14503
1.13664
1.12581
1.11274
1.09757
1.08047
1.06163
1.04127
1.01958
0.996776
0.973057
0.948619
0.923646
0.898315
0.872786
0.847211
0.821724
0.796448
0.771491
0.746947
0.722898
0.699412
0.676543
0.654339
0.632831
0.612044
0.591993
0.572687
0.554124
0.5363
0.519204
0.50282
0.487128
0.472107
0.457733
0.44398
0.43082
0.418227
0.406173
0.394632
0.383579
0.372988
0.362838
0.353107
0.343778
0.334832
0.326255
0.318035
0.310161
0.302625
0.295419
0.288539
0.281978
0.275735
0.269807
0.264191
0.258884
0.253885
0.249191
0.244797
0.2407
0.236894
0.233372
0.230128
0.227153
0.224437
0.221967
0.219731
0.217714
0.215904
0.214284
0.212841
0.21156
0.210429
0.209432
0.208558
0.207793
0.207127
0.206548
0.206046
0.205612
0.205239
0.204917
0.20464
0.204402
0.204198
0.204022
0.203871
0.20374
0.203626
0.203527
0.20344
0.203363
0.203294
0.203232
0.203175
0.203122
0.203072
0.203025
0.202981
0.202939
0.202899
0.202863
0.202833
0.202814
0.202813
0.202845
0.202931
0.203105
0.203405
1.13165
0.476552
0.369991
0.336228
0.323651
0.320049
0.321191
0.325246
0.331292
0.338807
0.347466
0.357055
0.367428
0.378482
0.390142
0.402351
0.415066
0.428248
0.441861
0.455871
0.47024
0.484931
0.499904
0.515116
0.530525
0.546088
0.561763
0.577509
0.593289
0.609069
0.624821
0.64052
0.65615
0.671701
0.687169
0.70256
0.717886
0.733167
0.748428
0.763705
0.779035
0.794461
0.810032
0.825793
0.841793
0.858076
0.874675
0.89161
0.908891
0.926516
0.944466
0.962703
0.981166
0.99977
1.0184
1.03693
1.05518
1.07297
1.09008
1.10629
1.12137
1.13507
1.14717
1.15745
1.1657
1.17172
1.17538
1.17656
1.17518
1.17121
1.16468
1.15566
1.14424
1.13055
1.11475
1.09703
1.07756
1.05656
1.03423
1.01077
0.9864
0.961303
0.935673
0.909686
0.883506
0.857287
0.831166
0.805268
0.779702
0.754566
0.729942
0.705901
0.6825
0.659787
0.637797
0.616555
0.596079
0.576378
0.557453
0.539299
0.521906
0.505259
0.489338
0.474121
0.459583
0.445697
0.432434
0.419766
0.407664
0.396099
0.385043
0.37447
0.364355
0.354674
0.345407
0.336534
0.328038
0.319904
0.31212
0.304676
0.297562
0.290773
0.284301
0.278143
0.272295
0.266754
0.261518
0.256582
0.251945
0.247603
0.24355
0.239783
0.236294
0.233076
0.230121
0.22742
0.22496
0.222731
0.220718
0.218909
0.217288
0.215843
0.214559
0.213422
0.21242
0.21154
0.210769
0.210095
0.209509
0.209
0.208558
0.208177
0.207847
0.207562
0.207316
0.207103
0.206918
0.206758
0.206619
0.206496
0.206388
0.206291
0.206204
0.206126
0.206053
0.205986
0.205922
0.205861
0.205803
0.205747
0.205692
0.205638
0.205587
0.205541
0.205501
0.205476
0.205474
0.205512
0.205613
0.20581
1.10411
0.465872
0.359731
0.325421
0.312381
0.308457
0.309355
0.313193
0.319019
0.326296
0.334704
0.344036
0.354158
0.364978
0.376436
0.388487
0.401097
0.414238
0.427882
0.442
0.45656
0.471528
0.486867
0.502536
0.518492
0.53469
0.551086
0.567636
0.584299
0.601036
0.61781
0.634594
0.651363
0.668099
0.684792
0.701441
0.71805
0.734633
0.751209
0.767808
0.784462
0.80121
0.818096
0.835162
0.852453
0.87001
0.887853
0.905994
0.924437
0.943169
0.962163
0.981371
1.00072
1.02012
1.03944
1.05855
1.07726
1.09538
1.11267
1.12891
1.14388
1.15733
1.16906
1.17884
1.18651
1.19183
1.19471
1.19507
1.19286
1.18808
1.18076
1.17098
1.15883
1.14446
1.12801
1.10966
1.08962
1.06806
1.0452
1.02124
0.996379
0.970811
0.944721
0.918283
0.891662
0.865008
0.838458
0.812136
0.786152
0.760604
0.735575
0.711138
0.687351
0.664263
0.641913
0.620327
0.599525
0.579518
0.560309
0.541895
0.524267
0.507411
0.491307
0.475935
0.461268
0.44728
0.433941
0.421222
0.409092
0.397521
0.386479
0.375938
0.365871
0.356252
0.347059
0.338268
0.329862
0.321824
0.314139
0.306795
0.299782
0.293091
0.286715
0.280649
0.274889
0.26943
0.26427
0.259405
0.254832
0.250547
0.246546
0.242823
0.239372
0.236187
0.233258
0.230578
0.228135
0.225918
0.223914
0.222111
0.220494
0.21905
0.217767
0.216629
0.215625
0.214741
0.213966
0.213288
0.212697
0.212182
0.211735
0.211347
0.211011
0.21072
0.210468
0.210248
0.210057
0.20989
0.209743
0.209613
0.209497
0.209393
0.209298
0.209211
0.209131
0.209055
0.208982
0.208913
0.208845
0.208779
0.208713
0.208649
0.208586
0.208526
0.208471
0.208425
0.208397
0.208399
0.208447
0.208573
1.06262
0.452206
0.348649
0.314566
0.30138
0.297262
0.297966
0.301603
0.307212
0.314252
0.322404
0.331471
0.341324
0.351887
0.363107
0.374953
0.3874
0.400431
0.414025
0.428162
0.442816
0.45796
0.47356
0.489579
0.505978
0.522713
0.53974
0.557016
0.574496
0.59214
0.609909
0.627769
0.64569
0.66365
0.681632
0.699627
0.717632
0.735655
0.753708
0.771813
0.789997
0.808292
0.826735
0.845363
0.864213
0.883317
0.90267
0.922266
0.94209
0.96211
0.982279
1.00253
1.02278
1.0429
1.06277
1.08222
1.10109
1.11919
1.13623
1.15199
1.16628
1.17889
1.18962
1.19829
1.20475
1.20885
1.21051
1.20966
1.2063
1.20042
1.19209
1.18137
1.16839
1.15327
1.13617
1.11726
1.09672
1.07475
1.05153
1.02726
1.00212
0.976314
0.950006
0.923366
0.896552
0.869709
0.84297
0.816457
0.790277
0.764526
0.73929
0.71464
0.690637
0.66733
0.644761
0.62296
0.601948
0.581739
0.562339
0.543747
0.525956
0.508954
0.492723
0.477244
0.462491
0.448438
0.435056
0.422314
0.410182
0.398628
0.387621
0.377131
0.36713
0.357589
0.348484
0.339791
0.331489
0.32356
0.315986
0.308755
0.301854
0.295274
0.289006
0.283044
0.277383
0.272018
0.266945
0.26216
0.257661
0.253444
0.249503
0.245834
0.242431
0.239287
0.236393
0.233742
0.231324
0.229126
0.227138
0.225347
0.22374
0.222304
0.221025
0.21989
0.218888
0.218004
0.217229
0.216549
0.215956
0.215439
0.214988
0.214597
0.214257
0.213961
0.213704
0.213479
0.213283
0.21311
0.212958
0.212822
0.2127
0.21259
0.212489
0.212396
0.212308
0.212225
0.212146
0.212069
0.211994
0.21192
0.211846
0.211773
0.211701
0.21163
0.211562
0.211502
0.211454
0.211428
0.211439
0.211514
1.00843
0.436412
0.337512
0.304419
0.291421
0.287254
0.287823
0.291282
0.296679
0.303484
0.311382
0.320189
0.329768
0.340055
0.35101
0.362611
0.374845
0.387703
0.401175
0.415249
0.42991
0.445135
0.4609
0.477175
0.493924
0.51111
0.528692
0.54663
0.564879
0.583399
0.602151
0.621097
0.640205
0.659447
0.678801
0.698251
0.717788
0.737411
0.757126
0.776945
0.796887
0.816978
0.837245
0.857717
0.878422
0.899368
0.920507
0.941805
0.963213
0.98467
1.0061
1.0274
1.04846
1.06913
1.08926
1.10868
1.1272
1.14463
1.16075
1.17536
1.18828
1.19934
1.20839
1.21529
1.21993
1.22222
1.22213
1.21962
1.21471
1.20743
1.19784
1.18603
1.17211
1.15622
1.1385
1.11911
1.09821
1.07599
1.05261
1.02826
1.0031
0.977317
0.951062
0.924495
0.897761
0.870998
0.844332
0.81788
0.791744
0.76602
0.740789
0.716126
0.69209
0.668734
0.646102
0.624225
0.603129
0.582831
0.56334
0.544659
0.526784
0.509706
0.493409
0.477876
0.463084
0.449006
0.435616
0.422883
0.410776
0.399263
0.388313
0.377894
0.367977
0.358532
0.349532
0.340952
0.33277
0.324964
0.317517
0.310414
0.30364
0.297184
0.291038
0.285193
0.279644
0.274385
0.269412
0.264722
0.260309
0.25617
0.252302
0.248698
0.245353
0.24226
0.239412
0.2368
0.234415
0.232246
0.230281
0.22851
0.226919
0.225496
0.224227
0.223101
0.222105
0.221226
0.220453
0.219776
0.219183
0.218666
0.218215
0.217822
0.21748
0.217182
0.216921
0.216693
0.216493
0.216317
0.21616
0.21602
0.215894
0.215779
0.215673
0.215574
0.215482
0.215394
0.215309
0.215226
0.215145
0.215065
0.214985
0.214905
0.214825
0.214746
0.214669
0.214598
0.214535
0.21449
0.214474
0.214514
0.948121
0.421713
0.327662
0.295893
0.283315
0.279237
0.279748
0.283068
0.288279
0.294861
0.302509
0.31104
0.320341
0.330351
0.341037
0.352386
0.364394
0.377061
0.390388
0.404373
0.419009
0.434286
0.450187
0.46669
0.48377
0.501396
0.519532
0.538142
0.557186
0.576626
0.596423
0.616537
0.636935
0.657584
0.678457
0.699532
0.720791
0.742226
0.763832
0.785612
0.807575
0.829737
0.852114
0.874726
0.897594
0.920642
0.943792
0.966961
0.990057
1.01297
1.03559
1.05777
1.07936
1.10019
1.1201
1.13889
1.1564
1.17243
1.18683
1.19944
1.21013
1.21878
1.22531
1.22964
1.23174
1.23158
1.22916
1.2245
1.21764
1.20864
1.19758
1.18453
1.16962
1.15297
1.13469
1.11493
1.09384
1.07156
1.04825
1.02406
0.999148
0.973658
0.947736
0.921521
0.895146
0.868736
0.842409
0.816272
0.790424
0.764956
0.739949
0.715473
0.691593
0.668361
0.645822
0.624014
0.602964
0.582693
0.563216
0.544538
0.52666
0.509576
0.493276
0.477743
0.462958
0.448898
0.435535
0.422842
0.410788
0.399341
0.388469
0.378142
0.368327
0.358994
0.350116
0.341665
0.333617
0.32595
0.318644
0.311683
0.30505
0.298734
0.292724
0.287011
0.281588
0.27645
0.271591
0.267006
0.262693
0.258647
0.254863
0.251336
0.248061
0.245031
0.242238
0.239675
0.237333
0.235201
0.233269
0.231525
0.229957
0.228553
0.227301
0.226189
0.225204
0.224334
0.223568
0.222896
0.222308
0.221793
0.221344
0.220952
0.220609
0.22031
0.220049
0.219819
0.219617
0.219438
0.219278
0.219135
0.219006
0.218887
0.218778
0.218675
0.218579
0.218487
0.218398
0.218311
0.218225
0.21814
0.218056
0.217971
0.217886
0.217801
0.217718
0.217638
0.217565
0.217507
0.217473
0.217488
0.884386
0.408774
0.319896
0.289644
0.27765
0.27378
0.274314
0.277556
0.282626
0.289028
0.296472
0.304784
0.313863
0.323655
0.334137
0.345304
0.357159
0.369713
0.382976
0.396957
0.411661
0.427086
0.443229
0.460076
0.477611
0.495811
0.514649
0.534094
0.55411
0.574662
0.595711
0.617219
0.639147
0.661459
0.684121
0.707104
0.73038
0.75393
0.777739
0.801796
0.826099
0.850649
0.87545
0.900506
0.925813
0.951168
0.976442
1.0015
1.02619
1.05035
1.07382
1.09642
1.11795
1.13823
1.15708
1.17434
1.18983
1.20344
1.21505
1.22457
1.23197
1.2372
1.24026
1.24118
1.23998
1.2367
1.23139
1.22413
1.21498
1.20401
1.1913
1.17694
1.16102
1.14364
1.1249
1.10492
1.0838
1.06167
1.03866
1.01488
0.990457
0.965522
0.940194
0.914593
0.888836
0.863034
0.837291
0.811707
0.786374
0.761379
0.736798
0.712703
0.689156
0.666212
0.643919
0.622317
0.601439
0.581309
0.561945
0.543361
0.525559
0.50854
0.492297
0.476818
0.462086
0.448082
0.434782
0.422158
0.410183
0.398824
0.388052
0.377833
0.368137
0.358933
0.350191
0.341883
0.333983
0.326469
0.319318
0.312512
0.306035
0.299872
0.294011
0.288444
0.283162
0.278157
0.273426
0.268962
0.264762
0.26082
0.257134
0.253696
0.250503
0.247546
0.244821
0.242317
0.240027
0.237941
0.23605
0.234341
0.232804
0.231427
0.230197
0.229104
0.228135
0.227278
0.226524
0.225861
0.22528
0.22477
0.224325
0.223936
0.223596
0.223298
0.223037
0.222807
0.222604
0.222424
0.222263
0.222118
0.221986
0.221865
0.221753
0.221648
0.221549
0.221453
0.221361
0.221272
0.221183
0.221095
0.221007
0.220919
0.22083
0.220741
0.220654
0.220569
0.22049
0.220423
0.220377
0.220376
0.810124
0.394846
0.313384
0.285458
0.274474
0.271085
0.271839
0.275159
0.280228
0.286587
0.29397
0.30222
0.311251
0.321018
0.331508
0.342723
0.354676
0.367388
0.380877
0.395164
0.410262
0.426183
0.442931
0.460504
0.478894
0.498086
0.518059
0.538788
0.560242
0.582384
0.605175
0.628575
0.652539
0.677025
0.701988
0.727387
0.753182
0.779338
0.805825
0.832615
0.859689
0.887033
0.914637
0.9425
0.970364
0.997996
1.0252
1.05179
1.07754
1.10224
1.12568
1.14765
1.16794
1.18636
1.20277
1.21701
1.22901
1.23871
1.24608
1.25115
1.25397
1.25462
1.25319
1.24978
1.24451
1.23748
1.2288
1.21855
1.20683
1.19371
1.17927
1.16356
1.14666
1.12864
1.10957
1.08951
1.06855
1.04677
1.02425
1.0011
0.977396
0.953245
0.928742
0.903985
0.879072
0.854099
0.829158
0.804337
0.779722
0.755393
0.731423
0.707882
0.684831
0.662328
0.640422
0.619156
0.598567
0.578684
0.559532
0.541125
0.523477
0.506589
0.490461
0.475086
0.460453
0.446543
0.433338
0.420812
0.40894
0.397692
0.387038
0.376946
0.367386
0.358325
0.349734
0.341584
0.333848
0.3265
0.319519
0.312883
0.306576
0.300581
0.294886
0.28948
0.284353
0.279498
0.274909
0.27058
0.266507
0.262685
0.259109
0.255774
0.252675
0.249804
0.247157
0.244723
0.242495
0.240465
0.238623
0.236957
0.235458
0.234113
0.232912
0.231843
0.230894
0.230055
0.229315
0.228664
0.228092
0.227591
0.227152
0.226767
0.22643
0.226134
0.225874
0.225645
0.225442
0.225261
0.225098
0.224951
0.224818
0.224694
0.22458
0.224472
0.22437
0.224272
0.224177
0.224085
0.223993
0.223902
0.223811
0.22372
0.223628
0.223537
0.223446