/*--------------------------------*- C++ -*----------------------------------*\
  =========                 |
  \\      /  F ield         | OpenFOAM: The Open Source CFD Toolbox
   \\    /   O peration     | Website:  https://openfoam.org
    \\  /    A nd           | Version:  6
     \\/     M anipulation  |
\*---------------------------------------------------------------------------*/
FoamFile
{
    version     2.0;
    format      ascii;
    class       volScalarField;
    location    "0.17";
    object      k;
}
// * * * * * * * * * * * * * * * * * * * * * * * * * * * * * * * * * * * * * //

dimensions      [0 2 -2 0 0 0 0];

internalField   nonuniform List<scalar> 
12225
(
0.24644
0.158838
0.119006
0.0971996
0.0837171
0.0747309
0.0683468
0.0635359
0.0597307
0.0566099
0.0539826
0.0517279
0.0497647
0.0480359
0.046499
0.0451232
0.0438849
0.0428354
0.339526
0.260133
0.208257
0.175291
0.153267
0.137678
0.126003
0.116835
0.109378
0.103159
0.097875
0.0933194
0.0893452
0.0858439
0.0827349
0.0799508
0.0774731
0.0752314
0.347498
0.292337
0.248512
0.216197
0.192233
0.174053
0.159858
0.148452
0.139058
0.131167
0.124434
0.118612
0.113524
0.109036
0.105048
0.101478
0.0982841
0.0954409
0.35137
0.309034
0.271888
0.241927
0.218148
0.199193
0.183872
0.171275
0.160745
0.151811
0.144134
0.137466
0.131617
0.126446
0.121841
0.117717
0.114018
0.11074
0.353917
0.319266
0.287201
0.259827
0.237047
0.218194
0.202515
0.189349
0.178174
0.168587
0.160281
0.153022
0.146625
0.140948
0.135879
0.13133
0.127245
0.123625
0.355677
0.326032
0.297871
0.272921
0.251438
0.233133
0.217546
0.204213
0.192731
0.182772
0.174068
0.166407
0.159621
0.153573
0.148154
0.143279
0.138893
0.135
0.356917
0.33071
0.305573
0.282769
0.262642
0.245102
0.229874
0.216638
0.20509
0.194967
0.186043
0.178134
0.171088
0.164779
0.159105
0.153985
0.149369
0.145263
0.357802
0.334028
0.311242
0.290282
0.271459
0.25477
0.240052
0.227085
0.215641
0.20551
0.196507
0.188473
0.181275
0.174799
0.168951
0.163659
0.158875
0.154609
0.358433
0.336404
0.315446
0.296044
0.278418
0.262589
0.248457
0.235864
0.224639
0.214616
0.205643
0.197584
0.190323
0.18376
0.177811
0.172408
0.167512
0.163133
0.358881
0.338106
0.318561
0.30045
0.283889
0.268884
0.255361
0.243201
0.232272
0.222439
0.213577
0.205571
0.198321
0.191739
0.185748
0.180292
0.175333
0.170884
0.359195
0.339315
0.320848
0.303789
0.288151
0.273904
0.260978
0.249274
0.238684
0.229096
0.220404
0.212512
0.205331
0.198784
0.192805
0.187341
0.182363
0.177882
0.359394
0.340091
0.322365
0.306075
0.29115
0.277522
0.26511
0.253822
0.243559
0.234224
0.225725
0.217976
0.210899
0.204424
0.198493
0.19306
0.188097
0.183618
0.359535
0.340651
0.323488
0.307815
0.293489
0.280404
0.268462
0.257568
0.247629
0.238557
0.230267
0.222682
0.215732
0.209355
0.203497
0.198118
0.193194
0.188738
0.359643
0.341085
0.324386
0.309248
0.295471
0.282906
0.271434
0.260952
0.251366
0.24259
0.234546
0.227163
0.220378
0.214135
0.208385
0.203091
0.198234
0.193825
0.359719
0.341392
0.325042
0.310331
0.297016
0.284913
0.273879
0.263797
0.254567
0.246103
0.238328
0.231176
0.224586
0.218508
0.212896
0.207717
0.202955
0.198618
0.359767
0.341588
0.325472
0.311065
0.298099
0.286364
0.275698
0.265967
0.257064
0.248897
0.241388
0.234471
0.228088
0.222189
0.216734
0.21169
0.207041
0.202795
0.359793
0.341696
0.325715
0.311494
0.298753
0.28727
0.276866
0.267399
0.258752
0.250826
0.243542
0.23683
0.230632
0.224899
0.219591
0.214678
0.210142
0.20599
0.359804
0.341741
0.325817
0.311679
0.299043
0.287683
0.277415
0.268088
0.259582
0.251795
0.244643
0.238055
0.231973
0.226346
0.221135
0.216308
0.211849
0.207762
0.359801
0.341729
0.32579
0.311631
0.298969
0.287579
0.277279
0.267921
0.259383
0.251567
0.244388
0.237776
0.231672
0.226027
0.220799
0.215958
0.211486
0.207387
0.359775
0.341622
0.325547
0.3112
0.298306
0.286655
0.276077
0.266437
0.257623
0.249542
0.242116
0.235276
0.228964
0.223131
0.217734
0.212744
0.20814
0.203928
0.359715
0.341376
0.325009
0.310282
0.296953
0.284839
0.2738
0.263716
0.254488
0.246029
0.238263
0.231121
0.224544
0.218479
0.212882
0.207717
0.202965
0.19863
0.359586
0.340852
0.323904
0.308482
0.294414
0.281575
0.269857
0.25916
0.249393
0.240467
0.232303
0.224824
0.217966
0.211666
0.205876
0.200552
0.195671
0.191236
0.359329
0.339835
0.32186
0.305314
0.290151
0.276316
0.263733
0.252309
0.241941
0.232529
0.223976
0.216192
0.209097
0.202616
0.19669
0.191267
0.186317
0.181841
0.35886
0.338009
0.318373
0.300178
0.283547
0.268487
0.254924
0.242739
0.231797
0.221962
0.213107
0.205116
0.197886
0.191329
0.185368
0.179943
0.175014
0.17058
0.35805
0.33491
0.312755
0.292313
0.273871
0.257443
0.242897
0.230035
0.218651
0.208551
0.199559
0.191525
0.18432
0.177835
0.171978
0.166677
0.161883
0.157592
0.356707
0.329803
0.303976
0.280636
0.260134
0.242352
0.226987
0.213688
0.202129
0.192029
0.183154
0.17531
0.16834
0.162114
0.156529
0.1515
0.14697
0.142934
0.354518
0.321335
0.290243
0.263371
0.240782
0.221944
0.206191
0.192915
0.181621
0.171919
0.163509
0.156158
0.149683
0.143941
0.13882
0.134229
0.130108
0.126446
0.350901
0.306599
0.267919
0.237103
0.21294
0.193886
0.178627
0.166173
0.155824
0.147088
0.139612
0.13314
0.127481
0.122491
0.11806
0.114101
0.110553
0.107401
0.342446
0.275933
0.227261
0.193526
0.169816
0.152595
0.139567
0.129319
0.120998
0.114075
0.108208
0.103163
0.0987713
0.0949122
0.091493
0.0884433
0.0857103
0.0832723
0.259302
0.173114
0.131361
0.107432
0.0921471
0.0817478
0.074316
0.0687528
0.0644098
0.0608987
0.0579803
0.055502
0.0533626
0.051492
0.0498398
0.0483687
0.0470503
0.0458671
0.00142414
0.00247926
0.00283422
0.0030285
0.00331356
0.00365281
0.00405241
0.00451742
0.00496086
0.00541779
0.00589648
0.0063988
0.00692262
0.00746352
0.00801631
0.00857589
0.00913777
0.00969814
0.0102539
0.0108028
0.0113429
0.0118731
0.0123924
0.0129005
0.0133972
0.0138826
0.0143571
0.0148211
0.0152752
0.0157199
0.016156
0.0165841
0.0170049
0.017419
0.0178269
0.0182293
0.0186268
0.0190199
0.0194093
0.0197957
0.0201801
0.0205636
0.0209479
0.0213351
0.0217283
0.0221316
0.0225291
0.0229199
0.0233039
0.0236804
0.0240481
0.0244058
0.0247519
0.0250847
0.0254025
0.0257032
0.0259848
0.0262454
0.0264827
0.0266948
0.0268796
0.0270351
0.0271596
0.0272514
0.027309
0.0273313
0.0273173
0.0272665
0.0271785
0.0270535
0.0268919
0.0266943
0.0264618
0.0261959
0.0258981
0.0255704
0.0252149
0.024834
0.0244306
0.0240084
0.0235742
0.0231419
0.0227413
0.0224099
0.022124
0.0218408
0.0215535
0.0212615
0.0209657
0.0206671
0.0203667
0.0200655
0.0197645
0.0194643
0.0191657
0.0188692
0.0185752
0.0182841
0.0179961
0.0177113
0.0174298
0.0171516
0.0168766
0.0166046
0.0163357
0.0160695
0.0158059
0.0155448
0.0152859
0.0150292
0.0147745
0.0145219
0.0142712
0.0140225
0.013776
0.0135319
0.0132903
0.0130517
0.0128164
0.0125849
0.0123577
0.0121353
0.0119182
0.0117071
0.0115023
0.0113043
0.0111132
0.0109291
0.0107522
0.0105848
0.0104302
0.0102875
0.0101559
0.0100351
0.0099244
0.00982343
0.00973163
0.0096485
0.0095735
0.0095061
0.00944578
0.00939198
0.00934419
0.00930189
0.00926457
0.00923174
0.00920296
0.00917777
0.00915578
0.0091366
0.0091199
0.00910535
0.00909265
0.00908156
0.00907184
0.00906327
0.00905566
0.00904886
0.0090427
0.00903706
0.0090318
0.00902682
0.009022
0.00901724
0.00901243
0.00900745
0.00900217
0.00899642
0.00899001
0.00898269
0.00897411
0.00896381
0.0089511
0.00893496
0.00891382
0.00888497
0.00884379
0.00878087
0.0086806
0.00851003
0.00290909
0.00592164
0.00753478
0.00862934
0.00950977
0.0104
0.0113157
0.0121968
0.0130074
0.0137586
0.0144733
0.0151724
0.0158704
0.0165768
0.0172972
0.0180344
0.0187897
0.0195624
0.020351
0.021153
0.0219651
0.022784
0.0236063
0.0244288
0.0252489
0.0260642
0.0268732
0.0276746
0.0284678
0.0292528
0.0300299
0.0307994
0.0315622
0.0323193
0.0330715
0.0338198
0.0345653
0.0353087
0.0360509
0.0367924
0.0375339
0.0382756
0.0390177
0.0397599
0.0405022
0.0412398
0.0419772
0.0427154
0.0434537
0.0441908
0.0449247
0.0456531
0.0463733
0.0470823
0.0477767
0.0484526
0.0491062
0.0497329
0.0503284
0.050888
0.0514069
0.0518805
0.0523042
0.0526735
0.0529846
0.0532336
0.0534175
0.0535336
0.0535801
0.0535557
0.0534598
0.0532927
0.0530553
0.0527494
0.0523771
0.0519416
0.0514464
0.0508956
0.0502941
0.0496474
0.0489617
0.048244
0.0475036
0.0467665
0.0460215
0.0452646
0.0444968
0.0437209
0.0429397
0.0421561
0.0413726
0.0405917
0.0398152
0.0390451
0.0382828
0.0375295
0.036786
0.0360533
0.0353317
0.0346216
0.0339232
0.0332364
0.0325613
0.0318976
0.0312451
0.0306035
0.0299725
0.0293519
0.0287412
0.0281405
0.0275493
0.0269678
0.0263958
0.0258335
0.0252811
0.024739
0.0242074
0.0236871
0.0231785
0.0226824
0.0221996
0.021731
0.0212773
0.0208395
0.0204182
0.0200143
0.0196282
0.0192606
0.0189117
0.0185813
0.0182691
0.0179794
0.0177134
0.0174701
0.0172482
0.0170466
0.016864
0.0166993
0.0165514
0.0164191
0.0163012
0.0161967
0.0161043
0.016023
0.0159517
0.0158895
0.0158353
0.0157883
0.0157475
0.0157123
0.0156819
0.0156557
0.0156329
0.0156132
0.0155961
0.015581
0.0155677
0.0155558
0.015545
0.0155351
0.0155258
0.015517
0.0155083
0.0154998
0.0154911
0.0154822
0.0154728
0.0154628
0.0154519
0.0154398
0.015426
0.0154101
0.0153912
0.0153681
0.0153392
0.0153014
0.0152494
0.0151775
0.0150589
0.0149819
0.00464593
0.00936104
0.01144
0.0127547
0.0138091
0.0147936
0.0157554
0.0166807
0.0175588
0.0184013
0.0192307
0.0200688
0.0209318
0.0218286
0.0227625
0.0237323
0.0247337
0.0257601
0.0268041
0.027858
0.0289142
0.029966
0.0310078
0.032035
0.0330443
0.0340336
0.0350018
0.0359488
0.0368751
0.0377817
0.0386701
0.0395423
0.0404002
0.0412459
0.0420815
0.0429094
0.0437314
0.0445497
0.045366
0.0461822
0.0469998
0.04782
0.0486441
0.0494726
0.0503064
0.051146
0.0519916
0.052843
0.0536991
0.0545584
0.055419
0.0562782
0.0571333
0.0579806
0.0588163
0.0596357
0.0604341
0.0612059
0.0619454
0.0626468
0.0633037
0.0639099
0.0644594
0.0649461
0.0653644
0.0657091
0.0659758
0.0661604
0.0662601
0.0662726
0.0661968
0.0660324
0.0657802
0.0654418
0.0650199
0.0645178
0.0639397
0.0632907
0.0625761
0.0618021
0.0609751
0.0601015
0.0592038
0.058288
0.0573527
0.0563997
0.0554322
0.054454
0.0534692
0.0524814
0.0514941
0.0505103
0.0495328
0.0485638
0.0476054
0.046659
0.045726
0.0448074
0.0439038
0.0430157
0.0421435
0.041287
0.0404463
0.0396211
0.0388112
0.0380161
0.0372355
0.0364689
0.035716
0.0349765
0.03425
0.0335363
0.0328355
0.0321474
0.0314722
0.0308103
0.0301619
0.0295276
0.0289081
0.0283041
0.0277163
0.0271457
0.0265932
0.0260598
0.0255462
0.0250535
0.0245823
0.0241334
0.0237071
0.0233038
0.0229236
0.0225667
0.022235
0.0219296
0.0216495
0.0213937
0.0211612
0.0209508
0.0207612
0.0205911
0.0204392
0.0203042
0.0201846
0.0200791
0.0199865
0.0199055
0.0198348
0.0197734
0.0197201
0.019674
0.019634
0.0195995
0.0195697
0.0195437
0.0195211
0.0195012
0.0194837
0.019468
0.0194538
0.0194407
0.0194285
0.0194169
0.0194056
0.0193945
0.0193833
0.0193719
0.01936
0.0193474
0.0193338
0.0193189
0.0193022
0.0192832
0.0192611
0.0192346
0.0192021
0.0191608
0.019106
0.0190314
0.0189187
0.0187936
0.00604315
0.0119563
0.0144448
0.0159684
0.0171009
0.0180803
0.0190071
0.0199152
0.0208184
0.0217309
0.022668
0.0236424
0.024661
0.0257251
0.026831
0.0279719
0.029139
0.0303228
0.0315142
0.0327044
0.0338861
0.0350531
0.0362006
0.0373251
0.0384244
0.0394972
0.0405431
0.0415627
0.0425569
0.0435273
0.0444757
0.0454041
0.046315
0.0472106
0.0480935
0.0489661
0.0498309
0.0506904
0.0515468
0.0524024
0.0532591
0.0541189
0.0549833
0.0558535
0.0567305
0.0576164
0.0585114
0.0594155
0.0603282
0.0612482
0.0621738
0.0631028
0.0640321
0.0649582
0.0658769
0.0667833
0.0676718
0.0685364
0.0693705
0.0701672
0.0709191
0.0716189
0.0722591
0.0728325
0.0733322
0.0737518
0.0740855
0.0743285
0.0744767
0.0745272
0.0744781
0.0743287
0.0740795
0.073732
0.0732887
0.0727534
0.0721306
0.0714254
0.0706437
0.0697919
0.0688763
0.0679146
0.0669184
0.0658914
0.0648373
0.0637606
0.0626661
0.0615588
0.0604433
0.0593243
0.0582056
0.0570911
0.0559838
0.0548866
0.0538017
0.0527312
0.0516765
0.0506389
0.0496193
0.0486181
0.0476359
0.0466726
0.0457283
0.0448026
0.0438952
0.0430058
0.0421338
0.0412787
0.04044
0.0396173
0.0388102
0.0380184
0.0372416
0.0364798
0.035733
0.0350014
0.0342853
0.0335852
0.0329015
0.0322351
0.0315866
0.030957
0.0303473
0.0297582
0.0291908
0.0286461
0.0281247
0.0276275
0.0271551
0.0267078
0.0262861
0.0258901
0.0255198
0.025177
0.0248614
0.0245722
0.0243083
0.0240686
0.023852
0.023657
0.0234823
0.0233265
0.0231881
0.0230657
0.0229579
0.0228632
0.0227804
0.0227082
0.0226453
0.0225907
0.0225433
0.0225021
0.0224664
0.0224352
0.0224079
0.0223839
0.0223627
0.0223436
0.0223263
0.0223104
0.0222956
0.0222815
0.0222679
0.0222546
0.0222413
0.0222278
0.0222138
0.0221992
0.0221837
0.0221668
0.0221483
0.0221275
0.0221037
0.0220758
0.0220424
0.0220012
0.0219486
0.0218797
0.0217844
0.021675
0.00698499
0.0136484
0.0165197
0.0182559
0.0194938
0.0205104
0.0214454
0.0223671
0.0233092
0.0242897
0.0253187
0.0264002
0.0275331
0.0287123
0.0299299
0.0311764
0.032442
0.0337171
0.034993
0.0362621
0.0375181
0.0387558
0.0399712
0.0411616
0.042325
0.0434603
0.0445673
0.0456461
0.0466977
0.0477231
0.0487239
0.0497021
0.0506595
0.0515985
0.0525215
0.0534309
0.0543293
0.0552193
0.0561035
0.0569844
0.0578643
0.0587457
0.0596304
0.0605205
0.0614175
0.0623239
0.0632411
0.0641697
0.0651098
0.0660607
0.0670212
0.0679893
0.0689625
0.0699371
0.070909
0.071873
0.0728233
0.0737533
0.0746559
0.0755233
0.0763473
0.0771195
0.0778315
0.078475
0.0790419
0.0795247
0.0799166
0.0802117
0.0804052
0.0804934
0.0804737
0.0803451
0.0801075
0.0797624
0.0793122
0.0787607
0.0781125
0.077373
0.0765483
0.0756448
0.0746786
0.0736607
0.0725978
0.0714962
0.0703617
0.0692004
0.0680183
0.0668211
0.0656142
0.0644028
0.0631913
0.0619841
0.0607846
0.0595961
0.0584213
0.0572623
0.0561211
0.054999
0.0538972
0.0528162
0.0517566
0.0507186
0.0497021
0.0487068
0.0477325
0.0467786
0.0458446
0.0449299
0.0440339
0.043156
0.0422958
0.0414528
0.0406267
0.0398172
0.0390243
0.038248
0.0374886
0.0367464
0.0360219
0.0353157
0.0346285
0.0339612
0.0333147
0.0326898
0.0320876
0.031509
0.0309548
0.0304258
0.0299226
0.0294459
0.0289959
0.028573
0.0281771
0.0278086
0.0274685
0.0271558
0.0268697
0.0266091
0.0263729
0.0261597
0.0259682
0.0257969
0.0256443
0.0255089
0.0253894
0.0252841
0.0251917
0.0251109
0.0250403
0.0249788
0.0249253
0.0248786
0.024838
0.0248024
0.0247712
0.0247437
0.0247192
0.0246972
0.0246773
0.0246589
0.0246418
0.0246256
0.02461
0.0245947
0.0245795
0.0245642
0.0245485
0.0245322
0.024515
0.0244966
0.0244765
0.0244542
0.024429
0.0244001
0.024366
0.024325
0.0242741
0.0242098
0.0241265
0.0240339
0.00758995
0.0146567
0.0178054
0.0197343
0.0211078
0.022216
0.0232158
0.0241935
0.025195
0.0262427
0.0273454
0.0285035
0.0297122
0.0309638
0.0322492
0.0335588
0.0348832
0.036214
0.0375435
0.0388653
0.0401739
0.0414648
0.0427344
0.04398
0.0451996
0.0463918
0.0475558
0.0486914
0.0497986
0.0508782
0.051931
0.0529584
0.0539618
0.0549432
0.0559046
0.0568484
0.057777
0.0586931
0.0595992
0.0604982
0.0613929
0.0622859
0.0631799
0.0640773
0.0649805
0.0658917
0.066814
0.0677489
0.068697
0.0696585
0.0706329
0.0716187
0.0726136
0.0736146
0.0746174
0.075617
0.0766075
0.077582
0.0785328
0.0794516
0.0803296
0.0811575
0.081926
0.0826258
0.0832478
0.0837836
0.0842255
0.0845667
0.0848015
0.0849256
0.0849358
0.0848305
0.0846094
0.0842737
0.0838258
0.0832693
0.0826088
0.0818505
0.0809992
0.0800723
0.0790773
0.0780228
0.0769163
0.0757654
0.0745772
0.0733586
0.0721163
0.0708568
0.0695859
0.0683094
0.0670321
0.0657588
0.0644935
0.0632395
0.0620001
0.0607776
0.0595743
0.0583916
0.057231
0.0560931
0.0549787
0.0538879
0.0528207
0.0517771
0.0507565
0.0497584
0.0487824
0.0478276
0.0468935
0.0459794
0.0450846
0.0442085
0.0433508
0.0425111
0.0416892
0.0408849
0.0400985
0.0393301
0.0385802
0.0378493
0.0371379
0.036447
0.0357773
0.0351298
0.0345053
0.0339048
0.0333291
0.0327792
0.0322556
0.0317589
0.0312897
0.0308481
0.0304343
0.0300481
0.0296905
0.029361
0.0290588
0.0287828
0.028532
0.0283052
0.0281008
0.0279176
0.027754
0.0276085
0.0274797
0.0273659
0.0272659
0.0271781
0.0271013
0.0270341
0.0269755
0.0269242
0.0268795
0.0268402
0.0268057
0.0267751
0.0267479
0.0267234
0.0267012
0.0266807
0.0266616
0.0266435
0.0266261
0.0266092
0.0265924
0.0265756
0.0265584
0.0265406
0.026522
0.0265022
0.0264807
0.0264572
0.026431
0.0264012
0.0263666
0.0263256
0.0262761
0.0262152
0.02614
0.0260598
0.00795751
0.0151691
0.0184951
0.0205808
0.0220944
0.023321
0.0244183
0.0254777
0.0265505
0.0276626
0.0288244
0.0300364
0.0312941
0.0325902
0.0339162
0.0352636
0.0366245
0.0379916
0.0393585
0.0407194
0.0420696
0.0434049
0.0447218
0.0460174
0.0472893
0.0485357
0.0497551
0.0509465
0.0521093
0.0532433
0.0543488
0.0554263
0.0564767
0.0575014
0.0585021
0.0594806
0.0604391
0.0613803
0.0623067
0.0632213
0.064127
0.0650269
0.0659241
0.0668215
0.067722
0.0686284
0.0695446
0.0704728
0.0714149
0.0723719
0.0733438
0.07433
0.0753289
0.0763377
0.0773526
0.0783689
0.0793807
0.0803808
0.0813616
0.0823141
0.0832291
0.0840966
0.0849066
0.0856491
0.086314
0.0868922
0.0873751
0.0877552
0.0880259
0.0881824
0.088221
0.0881396
0.0879375
0.0876157
0.0871763
0.0866233
0.0859601
0.0851969
0.0843429
0.0834071
0.0823978
0.0813235
0.0801924
0.0790125
0.0777917
0.0765374
0.0752569
0.073957
0.0726442
0.0713244
0.070003
0.068685
0.0673747
0.066076
0.0647921
0.063526
0.0622798
0.0610555
0.0598544
0.0586777
0.057526
0.0563996
0.0552986
0.0542229
0.0531721
0.0521456
0.0511429
0.0501632
0.0492057
0.0482698
0.0473546
0.0464594
0.0455838
0.0447271
0.0438892
0.0430698
0.0422688
0.0414864
0.0407228
0.0399786
0.0392542
0.0385504
0.0378679
0.0372076
0.0365703
0.0359571
0.0353688
0.0348062
0.03427
0.0337608
0.0332792
0.0328254
0.0323996
0.0320017
0.0316322
0.031291
0.0309773
0.0306902
0.0304287
0.0301917
0.0299777
0.0297854
0.0296134
0.02946
0.0293239
0.0292034
0.0290972
0.0290038
0.0289219
0.0288501
0.0287873
0.0287323
0.0286841
0.0286417
0.0286044
0.0285713
0.0285417
0.0285151
0.0284909
0.0284686
0.0284478
0.0284281
0.0284093
0.0283909
0.0283728
0.0283546
0.0283362
0.0283172
0.0282974
0.0282764
0.0282539
0.0282294
0.0282023
0.0281718
0.0281369
0.0280961
0.0280477
0.0279895
0.0279203
0.0278492
0.0081462
0.0153369
0.0187625
0.0209648
0.0226025
0.0239476
0.0251496
0.0262972
0.0274423
0.0286132
0.0298224
0.0310729
0.0323622
0.0336849
0.0350346
0.0364045
0.0377881
0.0391795
0.0405733
0.0419644
0.0433486
0.0447219
0.0460807
0.0474218
0.0487424
0.05004
0.0513125
0.0525582
0.0537756
0.0549639
0.0561223
0.0572507
0.0583494
0.0594189
0.0604604
0.0614753
0.0624656
0.0634333
0.064381
0.0653116
0.0662282
0.0671339
0.0680322
0.0689264
0.06982
0.070716
0.0716189
0.0725321
0.0734583
0.0743993
0.0753562
0.076329
0.0773168
0.0783177
0.0793283
0.0803441
0.0813595
0.0823677
0.0833605
0.0843292
0.085264
0.0861546
0.0869905
0.087761
0.0884554
0.0890639
0.0895772
0.0899871
0.0902868
0.0904704
0.0905341
0.0904752
0.0902928
0.0899876
0.0895609
0.0890187
0.0883677
0.0876148
0.0867679
0.0858352
0.0848253
0.0837465
0.0826074
0.0814162
0.080181
0.0789098
0.07761
0.0762889
0.0749531
0.0736089
0.072262
0.0709176
0.0695804
0.0682546
0.0669435
0.0656504
0.0643778
0.0631277
0.0619018
0.0607012
0.0595268
0.0583791
0.0572582
0.056164
0.0550961
0.0540542
0.0530374
0.0520451
0.0510764
0.0501304
0.0492064
0.0483034
0.047421
0.0465583
0.045715
0.0448907
0.0440853
0.0432987
0.0425312
0.041783
0.0410546
0.0403467
0.0396598
0.038995
0.0383529
0.0377345
0.0371407
0.0365723
0.03603
0.0355145
0.0350263
0.0345657
0.0341331
0.0337282
0.0333514
0.0330026
0.0326814
0.0323868
0.032118
0.0318738
0.0316529
0.031454
0.0312756
0.0311164
0.0309747
0.0308491
0.0307381
0.0306403
0.0305544
0.0304789
0.0304127
0.0303546
0.0303036
0.0302587
0.030219
0.0301838
0.0301523
0.030124
0.0300981
0.0300743
0.0300521
0.0300311
0.030011
0.0299915
0.0299722
0.029953
0.0299335
0.0299135
0.0298928
0.0298709
0.0298476
0.0298223
0.0297946
0.0297636
0.0297285
0.0296881
0.0296408
0.0295852
0.0295208
0.0294565
0.00819928
0.0152684
0.0187384
0.0210206
0.0227573
0.0242051
0.0255022
0.0267311
0.0279418
0.0291632
0.0304098
0.0316874
0.0329963
0.0343338
0.0356958
0.0370775
0.038474
0.0398807
0.0412931
0.0427068
0.044118
0.0455227
0.0469172
0.0482982
0.0496624
0.0510068
0.0523287
0.0536255
0.0548951
0.0561359
0.0573463
0.0585254
0.0596728
0.0607883
0.0618724
0.062926
0.0639504
0.0649475
0.0659194
0.0668688
0.0677986
0.0687121
0.0696128
0.0705043
0.0713902
0.0722742
0.0731609
0.0740547
0.074959
0.0758766
0.0768095
0.0777584
0.0787233
0.0797029
0.0806946
0.0816944
0.0826971
0.0836961
0.0846834
0.0856503
0.086587
0.0874831
0.0883278
0.0891099
0.0898187
0.0904434
0.0909745
0.0914035
0.091723
0.0919268
0.0920104
0.091971
0.0918071
0.0915208
0.0911146
0.0905932
0.0899621
0.0892279
0.088398
0.0874801
0.0864825
0.0854135
0.0842815
0.083095
0.0818621
0.0805908
0.0792889
0.0779637
0.076622
0.0752703
0.0739146
0.0725602
0.0712121
0.0698747
0.0685517
0.0672463
0.0659615
0.0646995
0.063462
0.0622506
0.0610661
0.0599092
0.0587802
0.0576789
0.0566053
0.0555587
0.0545384
0.0535438
0.0525739
0.0516278
0.0507046
0.0498034
0.0489234
0.0480638
0.047224
0.0464037
0.0456023
0.0448199
0.0440565
0.0433123
0.0425876
0.041883
0.0411991
0.0405366
0.0398964
0.0392793
0.0386862
0.0381179
0.0375751
0.0370586
0.0365689
0.0361064
0.0356713
0.0352636
0.0348835
0.034531
0.0342057
0.0339068
0.0336336
0.0333849
0.0331595
0.0329562
0.0327736
0.0326102
0.0324646
0.0323353
0.0322208
0.0321197
0.0320307
0.0319523
0.0318835
0.0318231
0.0317699
0.031723
0.0316815
0.0316445
0.0316115
0.0315817
0.0315545
0.0315295
0.0315062
0.0314841
0.031463
0.0314425
0.0314224
0.0314023
0.031382
0.0313613
0.0313398
0.0313173
0.0312933
0.0312676
0.0312394
0.0312083
0.0311733
0.0311334
0.0310874
0.0310342
0.0309741
0.0309154
0.00814791
0.0150374
0.0185149
0.0208475
0.0226572
0.0241862
0.0255612
0.0268579
0.0281231
0.029385
0.0306598
0.0319556
0.0332753
0.034619
0.0359847
0.0373698
0.0387709
0.0401848
0.0416076
0.043036
0.0444661
0.0458944
0.0473171
0.0487307
0.0501315
0.0515162
0.0528813
0.054224
0.0555414
0.0568309
0.0580907
0.0593188
0.0605141
0.0616759
0.0628038
0.0638981
0.0649596
0.0659895
0.0669895
0.067962
0.0689095
0.0698352
0.0707423
0.0716346
0.0725158
0.0733898
0.0742614
0.0751354
0.076016
0.0769067
0.0778102
0.0787282
0.0796614
0.0806091
0.0815695
0.0825393
0.0835138
0.084487
0.0854511
0.0863977
0.0873173
0.0881996
0.0890341
0.0898098
0.0905157
0.0911405
0.0916746
0.0921095
0.0924381
0.0926532
0.09275
0.0927267
0.0925824
0.0923182
0.0919365
0.0914409
0.0908366
0.0901294
0.0893261
0.088434
0.087461
0.0864152
0.0853046
0.0841376
0.0829224
0.0816667
0.0803784
0.0790648
0.0777329
0.0763892
0.0750398
0.0736903
0.0723457
0.0710107
0.0696892
0.0683847
0.0671003
0.0658385
0.0646012
0.0633902
0.0622064
0.0610508
0.0599237
0.0588253
0.0577552
0.0567131
0.0556984
0.0547102
0.0537476
0.0528098
0.0518956
0.0510041
0.0501343
0.0492855
0.0484568
0.0476477
0.0468577
0.0460866
0.0453343
0.0446008
0.0438865
0.0431916
0.0425169
0.0418629
0.0412304
0.0406203
0.0400333
0.0394703
0.0389321
0.0384193
0.0379325
0.0374723
0.0370387
0.0366321
0.0362522
0.0358994
0.0355731
0.0352729
0.034998
0.0347472
0.0345197
0.034314
0.0341289
0.0339631
0.033815
0.0336833
0.0335664
0.0334631
0.033372
0.0332917
0.033221
0.0331588
0.033104
0.0330556
0.0330127
0.0329745
0.0329403
0.0329094
0.0328812
0.0328552
0.032831
0.0328082
0.0327863
0.0327651
0.0327443
0.0327236
0.0327027
0.0326814
0.0326595
0.0326365
0.0326122
0.0325861
0.0325579
0.0325268
0.0324922
0.0324531
0.0324085
0.0323578
0.0323016
0.0322477
0.00801343
0.0146937
0.0181565
0.0205183
0.0223793
0.0239686
0.0254035
0.026753
0.0280603
0.0293529
0.0306475
0.031954
0.0332776
0.0346203
0.0359826
0.0373636
0.0387615
0.0401741
0.0415988
0.0430327
0.0444726
0.045915
0.0473564
0.0487931
0.0502214
0.0516375
0.0530379
0.054419
0.0557775
0.0571103
0.0584148
0.0596886
0.0609297
0.0621368
0.0633089
0.0644455
0.0655466
0.0666131
0.0676459
0.0686468
0.069618
0.070562
0.0714821
0.0723815
0.073264
0.0741333
0.0749942
0.0758519
0.0767109
0.0775751
0.0784478
0.0793312
0.0802267
0.0811344
0.0820531
0.0829804
0.0839123
0.0848435
0.0857666
0.0866736
0.0875556
0.0884033
0.0892066
0.0899554
0.0906401
0.0912467
0.0917665
0.0921919
0.092516
0.0927327
0.0928374
0.0928276
0.092702
0.092461
0.0921063
0.0916411
0.0910697
0.0903971
0.0896296
0.0887738
0.0878371
0.0868269
0.0857511
0.0846176
0.0834342
0.0822087
0.0809486
0.0796612
0.0783534
0.0770318
0.0757025
0.0743713
0.0730432
0.0717231
0.0704152
0.0691232
0.0678504
0.0665994
0.0653725
0.0641716
0.0629979
0.0618526
0.060736
0.0596486
0.0585901
0.0575603
0.0565585
0.055584
0.054636
0.0537132
0.0528148
0.0519397
0.0510868
0.0502552
0.0494439
0.0486524
0.0478799
0.0471262
0.0463909
0.045674
0.0449757
0.0442963
0.0436362
0.042996
0.0423764
0.0417782
0.0412022
0.0406492
0.0401199
0.0396151
0.0391354
0.0386812
0.038253
0.0378507
0.0374744
0.0371243
0.0368
0.0365011
0.0362269
0.0359764
0.0357487
0.0355426
0.0353568
0.0351901
0.035041
0.0349081
0.0347901
0.0346856
0.0345932
0.0345117
0.0344398
0.0343765
0.0343206
0.0342712
0.0342274
0.0341883
0.0341533
0.0341216
0.0340928
0.0340662
0.0340413
0.0340179
0.0339955
0.0339739
0.0339526
0.0339315
0.0339103
0.0338886
0.0338664
0.0338432
0.0338188
0.0337927
0.0337646
0.0337338
0.0336998
0.0336617
0.0336188
0.0335706
0.0335181
0.0334687
0.00780956
0.0142714
0.0177085
0.0200872
0.0219843
0.0236179
0.0250974
0.0264864
0.0278252
0.0291398
0.0304472
0.0317583
0.0330798
0.0344156
0.035768
0.0371376
0.0385243
0.039927
0.0413442
0.0427735
0.0442125
0.0456581
0.0471071
0.0485558
0.0500007
0.0514378
0.0528634
0.0542737
0.055665
0.0570339
0.0583771
0.0596918
0.0609755
0.0622261
0.0634418
0.0646217
0.065765
0.0668718
0.0679423
0.0689777
0.0699795
0.0709497
0.0718908
0.0728058
0.0736979
0.0745707
0.0754287
0.0762768
0.0771195
0.0779609
0.0788043
0.0796525
0.080507
0.0813687
0.0822369
0.0831101
0.0839854
0.0848593
0.0857233
0.0865702
0.087393
0.0881834
0.0889324
0.0896307
0.0902688
0.0908367
0.0913257
0.0917281
0.092037
0.0922468
0.0923528
0.092352
0.0922428
0.0920248
0.0916991
0.0912679
0.0907347
0.0901038
0.0893804
0.0885706
0.0876808
0.0867179
0.085689
0.0846017
0.0834632
0.082281
0.0810624
0.0798143
0.0785436
0.0772568
0.07596
0.074659
0.0733591
0.0720651
0.0707814
0.069512
0.0682603
0.0670294
0.0658216
0.0646391
0.0634835
0.0623559
0.0612571
0.0601876
0.0591473
0.0581361
0.0571534
0.0561986
0.0552708
0.0543689
0.0534919
0.0526387
0.051808
0.050999
0.0502105
0.0494417
0.048692
0.0479607
0.0472475
0.0465522
0.0458749
0.0452157
0.044575
0.0439532
0.0433511
0.0427693
0.0422085
0.0416696
0.0411533
0.0406603
0.0401913
0.0397468
0.039327
0.0389323
0.0385626
0.038218
0.0378984
0.0376033
0.0373321
0.037084
0.0368582
0.0366534
0.0364686
0.0363024
0.0361536
0.0360208
0.0359027
0.0357979
0.0357052
0.0356233
0.035551
0.0354871
0.0354307
0.0353808
0.0353365
0.0352969
0.0352614
0.0352293
0.0352001
0.0351731
0.0351479
0.0351242
0.0351015
0.0350796
0.0350581
0.0350368
0.0350154
0.0349937
0.0349713
0.0349482
0.0349238
0.034898
0.0348702
0.0348399
0.0348068
0.03477
0.0347289
0.0346834
0.0346345
0.0345891
0.00754
0.0137917
0.017203
0.0195951
0.0215209
0.0231892
0.0247032
0.0261224
0.0274845
0.0288144
0.0301292
0.0314411
0.0327559
0.0340795
0.0354158
0.0367672
0.0381348
0.0395187
0.0409184
0.0423326
0.0437594
0.0451965
0.0466411
0.0480899
0.0495395
0.0509862
0.0524262
0.0538557
0.0552708
0.0566677
0.0580431
0.0593935
0.0607158
0.0620076
0.0632663
0.0644904
0.0656783
0.0668292
0.0679427
0.0690192
0.0700592
0.0710641
0.0720356
0.0729759
0.0738877
0.0747741
0.0756389
0.0764863
0.0773204
0.0781447
0.0789625
0.0797764
0.0805882
0.0813989
0.0822084
0.0830158
0.0838188
0.0846143
0.0853973
0.0861623
0.0869034
0.0876138
0.0882862
0.0889128
0.0894856
0.0899965
0.0904379
0.0908025
0.0910841
0.091277
0.0913767
0.0913797
0.0912837
0.0910877
0.0907919
0.0903976
0.0899071
0.0893238
0.0886519
0.0878964
0.0870627
0.0861571
0.0851859
0.0841557
0.0830735
0.081946
0.0807803
0.0795829
0.0783606
0.0771196
0.075866
0.0746055
0.0733436
0.0720852
0.0708348
0.0695966
0.0683743
0.0671711
0.0659897
0.0648326
0.0637014
0.0625977
0.0615225
0.0604763
0.0594595
0.058472
0.0575133
0.0565829
0.05568
0.0548035
0.0539523
0.0531253
0.0523213
0.0515391
0.0507777
0.050036
0.0493132
0.0486087
0.0479218
0.0472524
0.0466002
0.0459654
0.0453482
0.0447489
0.0441682
0.0436066
0.0430649
0.0425438
0.042044
0.0415663
0.0411113
0.0406796
0.0402714
0.0398871
0.0395267
0.0391902
0.0388777
0.0385887
0.0383227
0.038079
0.0378568
0.0376551
0.0374727
0.0373086
0.0371613
0.0370298
0.0369126
0.0368085
0.0367163
0.0366347
0.0365626
0.0364988
0.0364425
0.0363925
0.0363481
0.0363085
0.0362728
0.0362406
0.0362112
0.0361841
0.0361589
0.0361351
0.0361123
0.0360904
0.0360689
0.0360476
0.0360262
0.0360046
0.0359824
0.0359595
0.0359354
0.03591
0.0358828
0.0358533
0.0358212
0.0357859
0.0357469
0.0357041
0.0356589
0.0356173
0.00723418
0.0132567
0.0166604
0.0190741
0.0210301
0.0227306
0.0242745
0.0257187
0.0270989
0.0284391
0.029756
0.0310617
0.0323646
0.0336713
0.0349864
0.0363137
0.0376555
0.039013
0.0403869
0.0417768
0.0431818
0.0446002
0.0460299
0.0474683
0.0489122
0.0503584
0.0518033
0.0532431
0.054674
0.0560922
0.0574939
0.0588754
0.0602334
0.0615646
0.0628661
0.0641354
0.0653705
0.0665696
0.0677315
0.0688555
0.0699413
0.0709894
0.0720004
0.0729758
0.0739174
0.0748273
0.0757084
0.0765637
0.077396
0.0782083
0.079003
0.0797825
0.0805483
0.0813016
0.0820428
0.0827718
0.0834875
0.0841881
0.0848712
0.0855333
0.0861707
0.0867789
0.0873529
0.0878869
0.0883751
0.0888111
0.0891886
0.0895015
0.0897438
0.0899102
0.089996
0.0899974
0.0899113
0.0897358
0.0894701
0.0891144
0.0886698
0.0881385
0.0875235
0.0868286
0.0860583
0.0852177
0.0843123
0.083348
0.0823309
0.0812672
0.0801635
0.0790259
0.0778609
0.0766745
0.0754727
0.0742611
0.0730452
0.0718299
0.0706201
0.0694201
0.0682336
0.0670643
0.0659151
0.0647886
0.0636869
0.0626119
0.0615646
0.0605461
0.0595567
0.0585967
0.0576657
0.0567632
0.0558886
0.0550408
0.0542188
0.0534214
0.0526474
0.0518954
0.0511644
0.0504532
0.0497608
0.0490864
0.0484294
0.0477893
0.0471658
0.0465588
0.0459685
0.0453952