/*--------------------------------*- C++ -*----------------------------------*\
  =========                 |
  \\      /  F ield         | OpenFOAM: The Open Source CFD Toolbox
   \\    /   O peration     | Website:  https://openfoam.org
    \\  /    A nd           | Version:  6
     \\/     M anipulation  |
\*---------------------------------------------------------------------------*/
FoamFile
{
    version     2.0;
    format      ascii;
    class       volScalarField;
    location    "0.17";
    object      nut;
}
// * * * * * * * * * * * * * * * * * * * * * * * * * * * * * * * * * * * * * //

dimensions      [0 2 -1 0 0 0 0];

internalField   nonuniform List<scalar> 
12225
(
1.77723e-05
1.42681e-05
1.23502e-05
1.11614e-05
1.03584e-05
9.78667e-06
9.35928e-06
9.02383e-06
8.74939e-06
8.5177e-06
8.31763e-06
8.142e-06
7.98591e-06
7.84586e-06
7.71919e-06
7.60397e-06
7.49868e-06
7.40811e-06
0.00014488
0.000101906
8.78793e-05
8.0509e-05
7.60421e-05
7.30493e-05
7.07329e-05
6.87115e-05
6.6858e-05
6.51449e-05
6.35635e-05
6.21049e-05
6.07592e-05
5.95155e-05
5.83658e-05
5.72956e-05
5.63508e-05
5.55133e-05
0.000323317
0.000223554
0.000189761
0.000172502
0.000161952
0.000154831
0.00014954
0.000145239
0.000141525
0.000138214
0.000135214
0.000132469
0.000129944
0.000127609
0.000125444
0.000123428
0.0001216
0.000120012
0.000493959
0.000355211
0.000299384
0.000269553
0.00025098
0.000238339
0.000229075
0.000221815
0.000215815
0.00021067
0.000206144
0.000202093
0.000198423
0.000195067
0.000191979
0.000189124
0.000186519
0.000184239
0.000624464
0.000478651
0.000407299
0.00036611
0.000339485
0.000320969
0.000307312
0.000296702
0.000288095
0.000280872
0.00027465
0.000269182
0.000264303
0.000259898
0.000255885
0.000252209
0.000248864
0.000245926
0.000713105
0.000583331
0.000506461
0.000457805
0.000424734
0.000401005
0.00038319
0.000369265
0.000357998
0.000348615
0.000340613
0.000333657
0.000327516
0.000322025
0.000317067
0.000312562
0.000308485
0.0003049
0.000769317
0.000665559
0.000592246
0.000541049
0.000504152
0.000476651
0.000455481
0.000438689
0.000425004
0.000413589
0.000403874
0.000395462
0.000388073
0.000381503
0.000375606
0.00037028
0.000365484
0.000361265
0.000803464
0.000726288
0.000662492
0.000613315
0.000575549
0.000546154
0.000522836
0.000503957
0.000488367
0.000475258
0.000464054
0.000454341
0.000445812
0.000438243
0.000431465
0.000425366
0.00041989
0.000415067
0.000823632
0.000768913
0.000717176
0.000673326
0.000637366
0.000608038
0.000583969
0.000563997
0.00054721
0.000532917
0.000520597
0.000509856
0.000500393
0.000491981
0.000484447
0.000477672
0.000471594
0.000466229
0.000835322
0.000797582
0.000757802
0.000721025
0.000688844
0.000661291
0.000637838
0.00061783
0.000600657
0.000585802
0.000572844
0.000561447
0.000551342
0.000542318
0.000534212
0.000526912
0.000520355
0.000514543
0.000842014
0.000816188
0.000786717
0.000757346
0.000730027
0.000705482
0.000683783
0.000664714
0.00064796
0.000633199
0.000620135
0.000608513
0.000598116
0.000588767
0.000580328
0.000572698
0.000565824
0.000559699
0.000845506
0.000826932
0.00080484
0.000781636
0.000758986
0.000737787
0.000718405
0.000700897
0.000685167
0.000671051
0.00065837
0.00064695
0.000636631
0.000627278
0.00061878
0.000611057
0.00060407
0.000597815
0.000847618
0.000833939
0.000817467
0.000799512
0.000781259
0.000763525
0.000746774
0.00073122
0.000716917
0.000703832
0.000691885
0.000680978
0.000671012
0.000661893
0.000653544
0.000645909
0.000638962
0.000632699
0.00084898
0.000838774
0.000826763
0.000813451
0.000799491
0.000785457
0.000771764
0.00075867
0.000746316
0.000734758
0.000724
0.000714014
0.00070476
0.00069619
0.000688262
0.00068095
0.000674242
0.000668133
0.000849783
0.00084179
0.000832928
0.000823247
0.000812985
0.000802431
0.000791853
0.000781459
0.000771395
0.000761753
0.000752584
0.00074391
0.000735734
0.00072805
0.00072085
0.000714134
0.000707905
0.000702159
0.000850209
0.000843469
0.000836551
0.000829336
0.000821821
0.000814082
0.000806226
0.000798361
0.000790585
0.000782972
0.000775579
0.000768446
0.000761598
0.000755055
0.000748832
0.000742948
0.000737417
0.00073223
0.000850409
0.000844283
0.000838389
0.000832579
0.000826764
0.000820906
0.000815002
0.000809074
0.000803155
0.000797281
0.000791485
0.000785798
0.000780249
0.000774861
0.000769661
0.000764673
0.000759919
0.000755376
0.000850482
0.000844584
0.000839091
0.000833867
0.000828806
0.000823835
0.000818908
0.000814002
0.000809112
0.000804245
0.000799412
0.000794632
0.000789922
0.000785306
0.000780806
0.000776448
0.000772249
0.000768178
0.000850461
0.000844499
0.000838896
0.000833516
0.000828258
0.000823063
0.000817895
0.000812746
0.000807619
0.000802527
0.000797487
0.000792519
0.000787643
0.00078288
0.000778252
0.000773783
0.000769486
0.000765327
0.000850264
0.000843698
0.000837081
0.000830291
0.000823306
0.000816165
0.000808941
0.000801714
0.000794559
0.000787539
0.000780701
0.000774082
0.000767708
0.000761597
0.000755766
0.00075023
0.000744995
0.000740023
0.000849709
0.000841537
0.00083246
0.000822579
0.000812155
0.000801486
0.000790836
0.000780407
0.000770338
0.000760715
0.000751584
0.000742964
0.000734855
0.000727249
0.000720132
0.000713495
0.000707325
0.000701575
0.000848165
0.000835954
0.000821435
0.000805559
0.000789253
0.000773207
0.000757857
0.000743436
0.000730039
0.000717676
0.000706307
0.000695868
0.000686286
0.00067749
0.000669415
0.000662008
0.000655228
0.000649011
0.000844088
0.000822753
0.000797957
0.000772545
0.00074824
0.000725858
0.000705659
0.000687609
0.000671536
0.000657227
0.000644462
0.000633038
0.000622778
0.00061353
0.000605171
0.000597605
0.00059076
0.000584563
0.000833791
0.000794248
0.000753391
0.000716071
0.000683641
0.000655995
0.000632542
0.000612594
0.000595523
0.000580799
0.000567997
0.000556774
0.00054686
0.000538042
0.000530156
0.000523077
0.000516722
0.000511016
0.000809076
0.000738691
0.000678541
0.000630923
0.000593604
0.000564125
0.000540509
0.000521275
0.000505344
0.000491939
0.000480494
0.000470596
0.000461936
0.000454284
0.000447471
0.000441372
0.000435907
0.00043102
0.000753684
0.000642684
0.000568243
0.000517614
0.000481608
0.000455011
0.000434702
0.000418711
0.000405764
0.000395026
0.000385932
0.000378094
0.000371239
0.000365172
0.00035975
0.000354877
0.000350492
0.000346566
0.000641466
0.000499153
0.000426789
0.000383982
0.000355852
0.000336147
0.000321633
0.000310435
0.000301438
0.000293963
0.000287585
0.000282027
0.000277106
0.000272695
0.000268705
0.000265078
0.00026178
0.000258809
0.000448552
0.000320187
0.000270286
0.000243471
0.00022672
0.000215439
0.000207308
0.000201021
0.000195862
0.000191442
0.000187545
0.000184046
0.000180865
0.000177952
0.00017527
0.000172794
0.000170512
0.000168437
0.000203095
0.000143551
0.000122974
0.000111707
0.000104811
0.000100365
9.71792e-05
9.45918e-05
9.23074e-05
9.02171e-05
8.82817e-05
8.64841e-05
8.48138e-05
8.32624e-05
8.18216e-05
8.04833e-05
7.92413e-05
7.80956e-05
2.40294e-05
1.96339e-05
1.71031e-05
1.54671e-05
1.43246e-05
1.34921e-05
1.28643e-05
1.23735e-05
1.19763e-05
1.16454e-05
1.1363e-05
1.11176e-05
1.09013e-05
1.07086e-05
1.05355e-05
1.03789e-05
1.02366e-05
1.01071e-05
2.21238e-06
6.23537e-06
6.67405e-06
6.87128e-06
7.16485e-06
7.50283e-06
7.87902e-06
8.32175e-06
8.71978e-06
9.11179e-06
9.50541e-06
9.902e-06
1.02996e-05
1.06948e-05
1.1084e-05
1.14643e-05
1.18335e-05
1.219e-05
1.25329e-05
1.28619e-05
1.31769e-05
1.34781e-05
1.37659e-05
1.40409e-05
1.43038e-05
1.45552e-05
1.47959e-05
1.50267e-05
1.52484e-05
1.54616e-05
1.5667e-05
1.58653e-05
1.6057e-05
1.62428e-05
1.6423e-05
1.65982e-05
1.67688e-05
1.69352e-05
1.70976e-05
1.72567e-05
1.74126e-05
1.75659e-05
1.7717e-05
1.78667e-05
1.80158e-05
1.81715e-05
1.8324e-05
1.84722e-05
1.86163e-05
1.87563e-05
1.88918e-05
1.90225e-05
1.91479e-05
1.92677e-05
1.93812e-05
1.94878e-05
1.9587e-05
1.96782e-05
1.97607e-05
1.98339e-05
1.98971e-05
1.99497e-05
1.99912e-05
2.00209e-05
2.00384e-05
2.00433e-05
2.00351e-05
2.00136e-05
1.99786e-05
1.99299e-05
1.98675e-05
1.97916e-05
1.97022e-05
1.95997e-05
1.94844e-05
1.93568e-05
1.92173e-05
1.90665e-05
1.89049e-05
1.8733e-05
1.85505e-05
1.8357e-05
1.81567e-05
1.7979e-05
1.78457e-05
1.77176e-05
1.75878e-05
1.74553e-05
1.73202e-05
1.71828e-05
1.70436e-05
1.69028e-05
1.67611e-05
1.66187e-05
1.64759e-05
1.63332e-05
1.61906e-05
1.60484e-05
1.59068e-05
1.57659e-05
1.56257e-05
1.54864e-05
1.53478e-05
1.521e-05
1.50729e-05
1.49365e-05
1.48007e-05
1.46654e-05
1.45304e-05
1.43957e-05
1.42612e-05
1.41267e-05
1.39923e-05
1.38579e-05
1.37234e-05
1.35888e-05
1.34543e-05
1.33198e-05
1.31855e-05
1.30517e-05
1.29184e-05
1.2786e-05
1.26547e-05
1.25249e-05
1.23971e-05
1.22714e-05
1.21484e-05
1.20278e-05
1.19091e-05
1.17914e-05
1.16806e-05
1.15762e-05
1.14778e-05
1.13853e-05
1.12985e-05
1.12173e-05
1.11415e-05
1.10709e-05
1.10053e-05
1.09443e-05
1.08878e-05
1.08354e-05
1.07869e-05
1.0742e-05
1.07003e-05
1.06616e-05
1.06256e-05
1.0592e-05
1.05606e-05
1.0531e-05
1.05031e-05
1.04766e-05
1.04513e-05
1.04271e-05
1.04038e-05
1.03812e-05
1.03591e-05
1.03376e-05
1.03164e-05
1.02955e-05
1.02747e-05
1.02541e-05
1.02335e-05
1.02128e-05
1.0192e-05
1.0171e-05
1.01497e-05
1.01281e-05
1.0106e-05
1.00832e-05
1.00596e-05
1.00349e-05
1.00087e-05
9.98048e-06
9.94934e-06
9.91377e-06
9.8712e-06
9.81639e-06
9.74062e-06
9.6251e-06
3.1533e-06
2.05546e-05
3.2915e-05
3.8797e-05
4.11618e-05
4.2532e-05
4.37716e-05
4.49812e-05
4.61473e-05
4.73074e-05
4.85341e-05
4.98925e-05
5.14247e-05
5.31511e-05
5.50762e-05
5.71935e-05
5.9489e-05
6.19429e-05
6.4532e-05
6.72305e-05
7.00118e-05
7.28498e-05
7.57199e-05
7.86004e-05
8.14728e-05
8.43224e-05
8.71384e-05
8.99136e-05
9.26441e-05
9.5329e-05
9.79694e-05
0.000100569
0.000103131
0.000105661
0.000108163
0.000110644
0.000113106
0.000115552
0.000117983
0.000120397
0.00012279
0.000125154
0.000127476
0.000129739
0.000131924
0.000133973
0.00013601
0.000138066
0.000140147
0.00014225
0.000144372
0.000146511
0.000148659
0.000150811
0.00015296
0.000155097
0.000157213
0.000159299
0.000161343
0.000163334
0.000165261
0.000167112
0.000168875
0.000170539
0.000172091
0.000173523
0.000174823
0.000175984
0.000176998
0.000177859
0.000178562
0.000179103
0.000179482
0.000179696
0.000179747
0.000179636
0.000179362
0.000178928
0.000178328
0.000177553
0.000176576
0.000175353
0.000173833
0.000172061
0.00017015
0.000168154
0.000166095
0.000163987
0.000161841
0.000159667
0.000157472
0.000155264
0.000153051
0.000150838
0.00014863
0.000146432
0.000144248
0.000142081
0.000139933
0.000137806
0.000135703
0.000133623
0.000131567
0.000129535
0.000127528
0.000125543
0.000123582
0.000121643
0.000119726
0.000117828
0.000115951
0.000114093
0.000112255
0.000110435
0.000108635
0.000106856
0.000105097
0.000103361
0.00010165
9.99663e-05
9.83117e-05
9.66898e-05
9.51039e-05
9.35573e-05
9.20539e-05
9.05971e-05
8.91896e-05
8.78315e-05
8.65167e-05
8.52237e-05
8.3924e-05
8.26938e-05
8.15629e-05
8.05256e-05
7.95763e-05
7.87095e-05
7.79204e-05
7.72045e-05
7.65572e-05
7.59739e-05
7.545e-05
7.49808e-05
7.45616e-05
7.41877e-05
7.38546e-05
7.35578e-05
7.32932e-05
7.30566e-05
7.28444e-05
7.2653e-05
7.24793e-05
7.23203e-05
7.21734e-05
7.20363e-05
7.19068e-05
7.17831e-05
7.16636e-05
7.15467e-05
7.14314e-05
7.13163e-05
7.12007e-05
7.10834e-05
7.09636e-05
7.08405e-05
7.07131e-05
7.05803e-05
7.04409e-05
7.02934e-05
7.01356e-05
6.99647e-05
6.97767e-05
6.95656e-05
6.93225e-05
6.90328e-05
6.86716e-05
6.8195e-05
6.75095e-05
6.64638e-05
6.45759e-05
6.19073e-05
3.98218e-06
3.04576e-05
4.96458e-05
6.0116e-05
6.57204e-05
6.91044e-05
7.17312e-05
7.42377e-05
7.6871e-05
7.97513e-05
8.29629e-05
8.65647e-05
9.0586e-05
9.50273e-05
9.9864e-05
0.000105053
0.000110537
0.000116253
0.000122136
0.00012812
0.000134146
0.000140161
0.000146123
0.000151995
0.000157753
0.000163379
0.000168863
0.000174201
0.000179394
0.000184447
0.000189367
0.000194166
0.000198852
0.000203437
0.000207932
0.000212347
0.00021669
0.00022097
0.000225191
0.000229359
0.000233473
0.000237536
0.000241544
0.000245497
0.000249394
0.000253254
0.000257134
0.000261051
0.000265009
0.000269008
0.000273043
0.000277106
0.00028119
0.000285282
0.000289371
0.000293441
0.000297475
0.000301456
0.000305363
0.000309176
0.000312873
0.000316431
0.000319827
0.000323041
0.000326049
0.000328832
0.000331371
0.000333648
0.000335648
0.000337359
0.000338769
0.000339872
0.000340663
0.000341137
0.000341294
0.000341136
0.000340662
0.000339874
0.00033877
0.000337344
0.000335583
0.000333473
0.000331015
0.000328249
0.000325252
0.000322078
0.000318763
0.000315331
0.000311802
0.000308195
0.000304526
0.00030081
0.000297061
0.000293289
0.000289507
0.000285723
0.000281946
0.000278182
0.000274437
0.000270715
0.00026702
0.000263354
0.000259719
0.000256114
0.000252541
0.000248997
0.000245483
0.000241996
0.000238535
0.000235099
0.000231686
0.000228295
0.000224925
0.000221576
0.000218248
0.000214942
0.000211661
0.000208407
0.000205184
0.000201996
0.000198848
0.000195747
0.000192699
0.000189712
0.000186792
0.000183948
0.000181184
0.000178506
0.000175912
0.000173397
0.000170953
0.00016858
0.000166325
0.000164226
0.000162282
0.00016049
0.000158846
0.000157345
0.000155981
0.000154748
0.000153636
0.000152639
0.000151748
0.000150953
0.000150247
0.000149619
0.000149063
0.000148569
0.000148129
0.000147737
0.000147386
0.000147068
0.000146779
0.000146514
0.000146268
0.000146036
0.000145815
0.000145602
0.000145394
0.000145188
0.000144983
0.000144776
0.000144565
0.000144348
0.000144124
0.00014389
0.000143643
0.000143382
0.000143101
0.000142795
0.000142458
0.000142079
0.000141642
0.000141123
0.000140481
0.000139649
0.000138491
0.000136769
0.00013389
0.000129432
4.54336e-06
3.65565e-05
6.17482e-05
7.68895e-05
8.59565e-05
9.18638e-05
9.64418e-05
0.000100708
0.000105168
0.000110057
0.000115478
0.000121464
0.000128003
0.000135048
0.00014253
0.000150365
0.000158464
0.000166738
0.000175103
0.000183485
0.000191819
0.000200051
0.000208141
0.000216056
0.000223776
0.000231286
0.000238579
0.000245655
0.000252518
0.000259175
0.000265634
0.000271909
0.00027801
0.000283951
0.000289746
0.000295408
0.000300949
0.000306381
0.000311715
0.000316963
0.000322133
0.000327235
0.000332277
0.000337265
0.000342209
0.000347141
0.000352095
0.000357086
0.000362119
0.000367197
0.000372316
0.000377469
0.000382649
0.000387844
0.00039304
0.00039822
0.000403365
0.000408453
0.000413461
0.000418364
0.000423134
0.000427743
0.000432165
0.00043637
0.000440331
0.00044402
0.000447414
0.000450488
0.000453222
0.000455597
0.0004576
0.000459217
0.00046044
0.000461264
0.000461684
0.0004617
0.000461314
0.000460528
0.000459343
0.000457763
0.00045579
0.000453424
0.000450689
0.000447624
0.00044428
0.000440699
0.000436916
0.000432959
0.000428854
0.000424623
0.000420287
0.000415864
0.000411373
0.00040683
0.000402248
0.000397641
0.000393019
0.000388392
0.000383768
0.000379154
0.000374554
0.000369973
0.000365412
0.000360873
0.000356356
0.000351861
0.000347387
0.000342932
0.000338494
0.000334072
0.000329663
0.000325267
0.000320882
0.000316508
0.000312146
0.000307796
0.000303462
0.000299148
0.000294858
0.000290599
0.000286378
0.000282203
0.000278084
0.000274031
0.000270055
0.000266166
0.000262374
0.000258689
0.000255116
0.000251658
0.000248319
0.000245101
0.000242008
0.000239096
0.000236377
0.000233852
0.000231522
0.000229381
0.000227425
0.000225647
0.000224037
0.000222588
0.000221287
0.000220124
0.000219087
0.000218165
0.000217346
0.00021662
0.000215974
0.0002154
0.000214887
0.000214427
0.000214011
0.000213632
0.000213282
0.000212957
0.000212651
0.000212358
0.000212075
0.000211798
0.000211524
0.000211249
0.000210971
0.000210686
0.000210393
0.000210088
0.000209768
0.000209428
0.000209065
0.000208671
0.000208237
0.00020775
0.000207193
0.000206537
0.000205737
0.000204718
0.000203346
0.000201383
0.00019835
0.00019394
4.89032e-06
4.0379e-05
7.05338e-05
9.00238e-05
0.000102682
0.0001115
0.000118477
0.00012485
0.00013131
0.000138203
0.000145668
0.000153732
0.000162354
0.000171459
0.000180954
0.000190738
0.000200712
0.000210784
0.000220871
0.000230902
0.000240816
0.000250567
0.000260116
0.000269435
0.000278504
0.000287311
0.00029585
0.000304119
0.000312121
0.000319861
0.00032735
0.000334596
0.000341612
0.000348412
0.000355011
0.000361422
0.000367661
0.000373743
0.000379684
0.000385499
0.000391202
0.000396809
0.000402332
0.000407784
0.000413177
0.000418543
0.000423914
0.000429311
0.000434744
0.000440219
0.000445737
0.000451297
0.000456894
0.000462519
0.000468161
0.000473805
0.000479433
0.000485025
0.000490557
0.000496002
0.000501332
0.000506518
0.000511529
0.000516333
0.000520899
0.000525196
0.000529194
0.000532865
0.000536185
0.000539129
0.000541679
0.000543818
0.000545532
0.000546813
0.000547654
0.000548052
0.000548007
0.000547521
0.000546598
0.000545247
0.000543463
0.000541269
0.000538694
0.000535773
0.000532541
0.000529033
0.000525281
0.000521312
0.000517154
0.000512829
0.000508362
0.000503772
0.00049908
0.000494304
0.00048946
0.000484562
0.000479624
0.000474657
0.00046967
0.000464672
0.000459668
0.000454664
0.000449662
0.000444666
0.000439675
0.00043469
0.00042971
0.000424733
0.000419758
0.000414783
0.000409805
0.000404825
0.000399839
0.000394849
0.000389856
0.00038486
0.000379865
0.000374875
0.000369898
0.000364939
0.000360008
0.000355115
0.000350271
0.00034549
0.000340784
0.000336167
0.000331651
0.000327251
0.000322976
0.000318836
0.00031484
0.000310994
0.000307306
0.000303795
0.000300499
0.000297424
0.00029457
0.000291937
0.000289519
0.000287311
0.000285305
0.000283491
0.000281857
0.000280392
0.000279082
0.000277915
0.000276877
0.000275954
0.000275134
0.000274405
0.000273755
0.000273173
0.000272649
0.000272174
0.000271739
0.000271337
0.00027096
0.000270604
0.000270262
0.000269929
0.000269602
0.000269276
0.000268949
0.000268616
0.000268274
0.000267919
0.000267548
0.000267157
0.000266738
0.000266285
0.000265788
0.000265234
0.000264602
0.000263864
0.000262974
0.00026186
0.000260398
0.000258383
0.000255469
0.000251542
5.09921e-06
4.25703e-05
7.65825e-05
9.99373e-05
0.000116091
0.000127953
0.000137544
0.000146186
0.000154678
0.000163449
0.00017269
0.000182447
0.000192685
0.00020333
0.000214286
0.000225457
0.000236747
0.00024807
0.00025935
0.000270522
0.000281533
0.000292337
0.0003029
0.000313194
0.000323201
0.000332907
0.000342302
0.000351384
0.000360153
0.000368612
0.000376767
0.000384627
0.000392203
0.000399505
0.00040655
0.00041335
0.000419924
0.000426286
0.000432456
0.000438451
0.000444289
0.000449989
0.000455567
0.000461042
0.00046643
0.00047175
0.000477052
0.000482361
0.000487695
0.000493065
0.000498483
0.000503951
0.000509473
0.000515045
0.000520662
0.000526313
0.000531984
0.000537659
0.000543315
0.000548929
0.000554473
0.000559917
0.000565229
0.000570376
0.000575323
0.000580038
0.000584486
0.000588635
0.000592455
0.000595918
0.000599
0.000601678
0.000603936
0.000605759
0.000607137
0.000608062
0.000608534
0.00060855
0.000608118
0.000607222
0.000605888
0.000604141
0.000602006
0.000599511
0.000596684
0.000593556
0.000590153
0.000586502
0.00058263
0.000578559
0.000574314
0.000569916
0.000565385
0.000560741
0.000556
0.000551179
0.000546291
0.000541349
0.000536362
0.000531341
0.000526292
0.000521221
0.000516132
0.000511027
0.000505908
0.000500775
0.000495628
0.000490465
0.000485285
0.000480087
0.000474868
0.000469627
0.000464362
0.000459075
0.000453765
0.000448436
0.000443089
0.000437731
0.000432368
0.000427008
0.000421661
0.000416339
0.000411054
0.00040582
0.000400654
0.000395569
0.000390583
0.00038571
0.000380965
0.000376363
0.000371914
0.00036763
0.00036352
0.000359593
0.000355888
0.000352415
0.000349178
0.000346179
0.000343414
0.00034088
0.000338569
0.000336471
0.000334576
0.000332871
0.000331342
0.000329977
0.00032876
0.000327676
0.000326713
0.000325856
0.000325092
0.000324409
0.000323795
0.00032324
0.000322734
0.000322269
0.000321835
0.000321427
0.000321038
0.000320663
0.000320295
0.000319932
0.000319568
0.0003192
0.000318823
0.000318434
0.000318029
0.000317601
0.000317146
0.000316656
0.000316119
0.000315523
0.000314847
0.000314063
0.000313127
0.000311973
0.000310493
0.00030852
0.000305816
0.000302406
5.22136e-06
4.35865e-05
8.04513e-05
0.000107097
0.000126459
0.000141257
0.000153442
0.000164335
0.000174777
0.000185256
0.000196014
0.000207137
0.000218619
0.000230404
0.000242416
0.000254569
0.000266781
0.000278974
0.000291082
0.000303046
0.000314815
0.000326349
0.000337613
0.00034858
0.000359231
0.000369548
0.000379521
0.000389143
0.000398411
0.000407324
0.000415887
0.000424103
0.000431981
0.00043953
0.000446764
0.000453696
0.000460341
0.000466717
0.000472842
0.000478734
0.000484416
0.000489907
0.000495229
0.000500403
0.00050545
0.00051039
0.000515278
0.000520146
0.000525024
0.000529933
0.000534892
0.000539915
0.000545011
0.000550188
0.000555445
0.000560781
0.000566187
0.000571651
0.000577156
0.000582681
0.0005882
0.000593686
0.000599105
0.000604423
0.000609605
0.000614612
0.000619409
0.000623958
0.000628224
0.000632175
0.00063578
0.000639012
0.000641848
0.000644267
0.000646258
0.000647803
0.000648906
0.00064954
0.00064971
0.000649431
0.000648718
0.000647593
0.000646075
0.000644188
0.000641956
0.000639404
0.000636557
0.000633439
0.000630075
0.000626487
0.0006227
0.000618734
0.000614609
0.000610346
0.00060596
0.000601469
0.000596887
0.000592227
0.000587499
0.000582714
0.000577879
0.000572999
0.00056808
0.000563124
0.000558133
0.000553109
0.00054805
0.000542956
0.000537826
0.000532657
0.000527447
0.000522196
0.000516903
0.000511567
0.00050619
0.000500772
0.000495319
0.000489836
0.000484328
0.000478806
0.000473279
0.000467759
0.000462261
0.000456799
0.00045139
0.000446052
0.000440801
0.000435655
0.000430632
0.000425748
0.000421018
0.000416455
0.000412072
0.000407877
0.0004039
0.000400156
0.000396655
0.000393397
0.000390384
0.000387612
0.000385076
0.000382766
0.000380673
0.000378784
0.000377086
0.000375566
0.000374207
0.000372996
0.000371918
0.000370957
0.000370101
0.000369336
0.000368649
0.000368029
0.000367466
0.000366949
0.00036647
0.000366021
0.000365595
0.000365186
0.000364788
0.000364396
0.000364005
0.000363612
0.000363211
0.000362799
0.00036237
0.00036192
0.000361442
0.000360928
0.000360368
0.000359748
0.000359049
0.000358244
0.000357292
0.000356135
0.000354679
0.000352795
0.000350327
0.000347376
5.28218e-06
4.37902e-05
8.26319e-05
0.000111964
0.000134131
0.000151601
0.000166197
0.000179194
0.000191434
0.000203438
0.000215491
0.000227726
0.000240174
0.000252813
0.000265589
0.000278438
0.00029129
0.000304083
0.000316756
0.000329256
0.000341539
0.000353564
0.000365298
0.000376714
0.000387789
0.000398506
0.000408849
0.000418808
0.000428377
0.000437552
0.000446331
0.000454717
0.000462714
0.000470328
0.00047757
0.000484451
0.000490984
0.000497186
0.000503074
0.000508669
0.000513992
0.000519066
0.000523916
0.000528565
0.000533041
0.000537368
0.0005416
0.000545784
0.000549958
0.000554156
0.000558406
0.000562733
0.000567158
0.000571697
0.000576361
0.000581154
0.000586077
0.000591125
0.000596286
0.000601542
0.000606873
0.00061225
0.000617642
0.000623013
0.000628327
0.000633542
0.000638617
0.000643512
0.000648186
0.0006526
0.000656717
0.000660506
0.000663938
0.000666981
0.000669631
0.000671842
0.000673605
0.00067492
0.000675792
0.000676228
0.000676239
0.000675841
0.00067505
0.000673885
0.000672367
0.000670516
0.000668355
0.000665907
0.000663194
0.000660239
0.000657063
0.000653687
0.000650132
0.000646416
0.000642557
0.000638571
0.000634472
0.000630274
0.000625987
0.000621622
0.000617186
0.000612686
0.000608126
0.000603509
0.000598839
0.000594115
0.000589338
0.000584506
0.000579618
0.000574673
0.000569669
0.000564603
0.000559476
0.000554287
0.000549037
0.000543727
0.000538362
0.000532946
0.000527487
0.000521993
0.000516475
0.000510945
0.000505418
0.00049991
0.000494437
0.000489018
0.000483672
0.000478417
0.000473273
0.000468258
0.00046339
0.000458683
0.000454153
0.000449811
0.000445675
0.000441769
0.000438102
0.00043468
0.000431503
0.00042857
0.000425878
0.000423419
0.000421184
0.000419162
0.000417339
0.000415702
0.000414237
0.000412928
0.000411761
0.00041072
0.000409791
0.000408961
0.000408217
0.000407545
0.000406936
0.000406379
0.000405864
0.000405383
0.000404929
0.000404495
0.000404074
0.000403661
0.000403252
0.000402841
0.000402424
0.000401997
0.000401553
0.000401089
0.000400598
0.000400072
0.0003995
0.00039887
0.000398164
0.000397355
0.000396408
0.000395271
0.000393867
0.000392096
0.00038986
0.000387298
5.2981e-06
4.34379e-05
8.35123e-05
0.000114935
0.000139457
0.000159251
0.000175991
0.000190874
0.000204722
0.000218067
0.00023123
0.000244381
0.000257592
0.000270875
0.000284206
0.00029754
0.000310828
0.000324016
0.000337056
0.000349901
0.000362508
0.00037484
0.000386865
0.000398555
0.000409885
0.000420834
0.000431387
0.000441528
0.000451248
0.000460538
0.000469393
0.000477812
0.000485795
0.000493345
0.000500467
0.000507172
0.000513469
0.000519373
0.0005249
0.00053007
0.000534904
0.000539427
0.000543665
0.000547647
0.000551402
0.000554962
0.000558383
0.000561722
0.000565028
0.000568348
0.000571722
0.000575187
0.000578775
0.000582513
0.000586423
0.00059052
0.000594813
0.000599304
0.000603989
0.000608855
0.000613883
0.000619049
0.000624322
0.000629666
0.000635041
0.000640403
0.000645705
0.000650905
0.000655956
0.000660811
0.000665424
0.000669765
0.000673801
0.000677465
0.000680749
0.000683632
0.0006861
0.000688148
0.000689772
0.000690977
0.000691768
0.000692156
0.000692153
0.000691773
0.000691035
0.000689957
0.000688559
0.000686862
0.000684886
0.000682652
0.000680182
0.000677496
0.000674613
0.000671552
0.00066833
0.000664963
0.000661465
0.00065785
0.000654129
0.000650312
0.000646406
0.000642418
0.000638353
0.000634215
0.000630005
0.000625724
0.000621372
0.000616949
0.000612452
0.00060788
0.000603231
0.000598503
0.000593694
0.000588806
0.000583836
0.000578789
0.000573666
0.000568473
0.000563216
0.000557905
0.000552549
0.00054716
0.000541754
0.000536347
0.000530955
0.000525598
0.000520295
0.000515066
0.000509932
0.000504911
0.000500024
0.000495287
0.000490716
0.000486325
0.000482129
0.000478152
0.000474406
0.000470897
0.000467629
0.000464604
0.000461817
0.000459264
0.000456937
0.000454825
0.000452917
0.0004512
0.000449659
0.00044828
0.000447047
0.000445947
0.000444965
0.000444086
0.000443298
0.000442588
0.000441944
0.000441356
0.000440815
0.000440311
0.000439836
0.000439383
0.000438946
0.00043852
0.000438098
0.000437677
0.00043725
0.000436814
0.000436363
0.000435893
0.000435396
0.000434866
0.000434292
0.000433662
0.000432958
0.000432159
0.000431232
0.000430131
0.000428794
0.000427145
0.000425127
0.000422893
5.27988e-06
4.27047e-05
8.33863e-05
0.000116337
0.000142751
0.000164498
0.000183081
0.000199607
0.000214861
0.000229372
0.000243483
0.000257395
0.000271215
0.000284987
0.000298715
0.000312377
0.00032594
0.000339367
0.000352617
0.000365649
0.000378426
0.000390914
0.000403082
0.000414899
0.000426342
0.000437388
0.000448017
0.000458213
0.000467961
0.00047725
0.000486071
0.000494418
0.000502288
0.00050968
0.000516596
0.00052304
0.000529022
0.000534551
0.000539642
0.000544314
0.000548585
0.000552482
0.000556031
0.000559265
0.000562216
0.000564922
0.000567442
0.000569844
0.00057219
0.000574537
0.000576938
0.000579444
0.000582097
0.000584938
0.000588
0.000591309
0.000594884
0.000598735
0.000602864
0.000607264
0.000611921
0.000616812
0.000621908
0.000627172
0.000632563
0.00063803
0.000643521
0.00064899
0.000654396
0.000659674
0.000664756
0.000669609
0.000674192
0.000678465
0.0006824
0.000685972
0.000689163
0.00069196
0.000694357
0.00069635
0.000697941
0.000699136
0.000699944
0.000700377
0.000700448
0.000700175
0.000699574
0.000698665
0.000697467
0.000696
0.000694284
0.000692339
0.000690185
0.000687838
0.000685316
0.000682635
0.00067981
0.000676853
0.000673776
0.000670589
0.000667299
0.000663913
0.000660437
0.000656872
0.000653222
0.000649487
0.000645666
0.000641759
0.000637763
0.000633677
0.000629497
0.000625223
0.000620852
0.000616382
0.000611815
0.000607152
0.000602394
0.000597547
0.000592616
0.00058761
0.000582539
0.000577415
0.000572252
0.000567066
0.000561874
0.000556695
0.000551549
0.000546458
0.000541441
0.000536519
0.000531713
0.00052704
0.00052252
0.000518165
0.000513991
0.000510021
0.000506269
0.000502742
0.000499447
0.000496386
0.000493559
0.000490961
0.000488586
0.000486425
0.000484468
0.000482702
0.000481113
0.000479689
0.000478414
0.000477274
0.000476255
0.000475343
0.000474525
0.000473788
0.00047312
0.000472512
0.000471951
0.000471431
0.000470943
0.000470478
0.000470032
0.000469597
0.000469169
0.000468742
0.000468311
0.000467872
0.00046742
0.000466949
0.000466454
0.000465926
0.000465356
0.000464734
0.000464043
0.000463263
0.000462365
0.000461311
0.00046005
0.000458526
0.000456709
0.000454752
5.23438e-06
4.171e-05
8.24764e-05
0.000116435
0.000144295
0.000167624
0.000187746
0.000205671
0.000222132
0.000237647
0.000252565
0.00026711
0.000281416
0.000295555
0.000309555
0.000323417
0.000337127
0.000350659
0.000363983
0.000377066
0.000389878
0.000402386
0.000414561
0.000426375
0.000437802
0.00044882
0.000459405
0.000469541
0.000479209
0.000488395
0.000497088
0.000505276
0.000512954
0.000520116
0.00052676
0.000532888
0.000538504
0.000543614
0.000548232
0.00055237
0.000556049
0.000559292
0.000562125
0.000564582
0.0005667
0.000568519
0.000570108
0.000571545
0.000572901
0.000574246
0.000575645
0.000577162
0.000578851
0.000580766
0.00058295
0.000585441
0.000588268
0.000591449
0.000594994
0.000598901
0.000603158
0.000607745
0.000612634
0.00061779
0.000623178
0.000628725
0.000634376
0.00064008
0.000645781
0.00065142
0.000656939
0.000662288
0.000667421
0.000672296
0.000676876
0.000681133
0.000685041
0.000688582
0.000691744
0.000694519
0.000696905
0.000698902
0.000700517
0.000701758
0.000702636
0.000703166
0.000703364
0.000703246
0.000702832
0.00070214
0.00070119
0.000700002
0.000698592
0.000696981
0.000695184
0.000693219
0.000691098
0.000688836
0.000686444
0.000683931
0.000681307
0.000678576
0.000675744
0.000672815
0.000669789
0.000666668
0.00066345
0.000660134
0.000656718
0.000653199
0.000649574
0.00064584
0.000641995
0.000638038
0.000633966
0.000629781
0.000625485
0.000621081
0.000616575
0.000611973
0.000607286
0.000602525
0.000597703
0.000592836
0.000587941