/*--------------------------------*- C++ -*----------------------------------*\
  =========                 |
  \\      /  F ield         | OpenFOAM: The Open Source CFD Toolbox
   \\    /   O peration     | Website:  https://openfoam.org
    \\  /    A nd           | Version:  6
     \\/     M anipulation  |
\*---------------------------------------------------------------------------*/
FoamFile
{
    version     2.0;
    format      ascii;
    class       volScalarField;
    location    "0.17";
    object      p;
}
// * * * * * * * * * * * * * * * * * * * * * * * * * * * * * * * * * * * * * //

dimensions      [0 2 -2 0 0 0 0];

internalField   nonuniform List<scalar> 
12225
(
0.310205
0.0578492
-0.0200082
-0.0302426
-0.0344049
-0.0385617
-0.0405985
-0.0414164
-0.0420426
-0.0426135
-0.0430442
-0.0433343
-0.0435092
-0.0435658
-0.0435076
-0.0432743
-0.0431509
-0.0423021
-0.0716452
-0.0413715
-0.0403272
-0.0336043
-0.0338972
-0.0374478
-0.0397259
-0.0408613
-0.0416887
-0.0423634
-0.0428515
-0.0431786
-0.0433784
-0.0434502
-0.0434011
-0.0431621
-0.0429277
-0.0422043
-0.108657
-0.0376363
-0.0356991
-0.033101
-0.0335984
-0.0367375
-0.0389607
-0.0402093
-0.0411431
-0.0418921
-0.0424392
-0.0428146
-0.0430511
-0.0431494
-0.0431172
-0.0428834
-0.0425897
-0.0416524
-0.0632884
-0.0244048
-0.0322125
-0.0332287
-0.0338956
-0.0365425
-0.0385527
-0.0397822
-0.040739
-0.0415167
-0.0420981
-0.0425084
-0.0427752
-0.0428993
-0.0428853
-0.0426723
-0.042331
-0.0414578
-0.0428726
-0.0244479
-0.0326725
-0.0339327
-0.03445
-0.0366384
-0.0384165
-0.039583
-0.0405193
-0.0412919
-0.0418831
-0.0423116
-0.0425989
-0.0427456
-0.0427526
-0.0425741
-0.042237
-0.0415313
-0.040516
-0.028732
-0.0338425
-0.0346348
-0.0350562
-0.0368634
-0.0384275
-0.039522
-0.040421
-0.0411726
-0.0417608
-0.0421986
-0.0425022
-0.0426722
-0.0427077
-0.0425785
-0.0422929
-0.0417661
-0.0403809
-0.0316423
-0.0345715
-0.035227
-0.0356569
-0.0371545
-0.0385277
-0.0395488
-0.0404046
-0.0411293
-0.0417093
-0.0421533
-0.0424732
-0.0426703
-0.042744
-0.042678
-0.0424764
-0.0421273
-0.0393916
-0.0332609
-0.0350884
-0.0357642
-0.0362308
-0.0374816
-0.038689
-0.0396394
-0.0404512
-0.0411483
-0.0417192
-0.0421694
-0.0425079
-0.0427371
-0.0428586
-0.0428672
-0.0427698
-0.042594
-0.0384025
-0.0344131
-0.0355954
-0.0362672
-0.0367648
-0.0378243
-0.0388917
-0.0397768
-0.0405475
-0.0412194
-0.0417829
-0.0422414
-0.042602
-0.0428689
-0.0430462
-0.0431373
-0.0431542
-0.0431415
-0.037826
-0.0353555
-0.0361059
-0.0367351
-0.0372543
-0.0381693
-0.0391207
-0.0399476
-0.0406821
-0.041333
-0.0418925
-0.0423626
-0.0427497
-0.0430593
-0.0432983
-0.0434761
-0.0436086
-0.0437446
-0.0375888
-0.0361168
-0.0365988
-0.0371719
-0.0377021
-0.0385094
-0.0393659
-0.0401418
-0.0408457
-0.0414807
-0.0420403
-0.042526
-0.0429435
-0.0432998
-0.0436038
-0.0438683
-0.0441117
-0.0443796
-0.0375648
-0.0366808
-0.0370287
-0.0375515
-0.0380816
-0.038814
-0.0395993
-0.0403346
-0.0410152
-0.04164
-0.0422036
-0.0427068
-0.0431553
-0.0435565
-0.0439207
-0.0442619
-0.0445982
-0.0449707
-0.0376565
-0.0371622
-0.037425
-0.0379041
-0.0384304
-0.0391047
-0.0398335
-0.0405363
-0.0411993
-0.0418186
-0.0423895
-0.0429128
-0.0433936
-0.04384
-0.0442624
-0.0446748
-0.0450948
-0.0455552
-0.037859
-0.0376347
-0.0378489
-0.038285
-0.0387998
-0.0394236
-0.0401016
-0.0407744
-0.0414227
-0.0420401
-0.0426228
-0.043171
-0.0436896
-0.0441861
-0.0446708
-0.0451562
-0.045658
-0.0462
-0.0381602
-0.0380938
-0.0382904
-0.038688
-0.0391835
-0.0397661
-0.0404016
-0.0410485
-0.0416861
-0.0423063
-0.0429052
-0.0434827
-0.0440427
-0.0445917
-0.0451386
-0.0456937
-0.046269
-0.0468807
-0.0385246
-0.0385352
-0.0387292
-0.039097
-0.0395703
-0.0401217
-0.0407258
-0.0413536
-0.0419863
-0.0426143
-0.0432334
-0.0438428
-0.0444449
-0.0450445
-0.0456481
-0.0462631
-0.0468975
-0.0475612
-0.0388974
-0.038939
-0.0391333
-0.0394818
-0.0399374
-0.0404694
-0.0410557
-0.0416748
-0.0423102
-0.0429516
-0.043594
-0.0442352
-0.0448761
-0.0455192
-0.0461682
-0.0468272
-0.0475007
-0.0481936
-0.039205
-0.0392564
-0.0394497
-0.0397896
-0.0402392
-0.0407678
-0.041354
-0.0419793
-0.0426283
-0.0432901
-0.0439584
-0.0446296
-0.0453027
-0.0459779
-0.0466564
-0.0473399
-0.0480296
-0.0487275
-0.0393456
-0.039396
-0.0395848
-0.0399278
-0.0403908
-0.040939
-0.0415493
-0.0422027
-0.0428823
-0.0435757
-0.0442751
-0.0449757
-0.0456747
-0.0463705
-0.0470627
-0.0477508
-0.0484346
-0.0491143
-0.039214
-0.0392361
-0.0394049
-0.0397669
-0.0402706
-0.0408674
-0.0415313
-0.0422384
-0.0429665
-0.0437013
-0.0444348
-0.0451619
-0.0458794
-0.0465857
-0.0472799
-0.0479614
-0.0486296
-0.0492841
-0.039
-0.0389262
-0.0390436
-0.0394401
-0.0399968
-0.0406508
-0.0413816
-0.0421545
-0.0429382
-0.0437176
-0.0444862
-0.0452396
-0.0459749
-0.0466909
-0.0473873
-0.0480639
-0.0487203
-0.0493564
-0.0388605
-0.0384892
-0.0385003
-0.0389723
-0.0395962
-0.0403185
-0.0411381
-0.0419942
-0.0428421
-0.0436709
-0.0444777
-0.0452588
-0.0460124
-0.0467386
-0.0474381
-0.0481116
-0.0487593
-0.049381
-0.0390491
-0.0379675
-0.0378064
-0.038402
-0.0390802
-0.0398828
-0.0408249
-0.0417837
-0.0427036
-0.0435869
-0.0444357
-0.045247
-0.0460204
-0.0467584
-0.0474631
-0.0481363
-0.048779
-0.0493911
-0.0395921
-0.037231
-0.0370165
-0.0377915
-0.0384477
-0.0393496
-0.0404658
-0.0415499
-0.0425488
-0.0434925
-0.0443879
-0.0452315
-0.0460258
-0.0467764
-0.0474876
-0.0481622
-0.0488023
-0.0494078
-0.039861
-0.0352886
-0.0358742
-0.0371282
-0.037683
-0.0387337
-0.0400948
-0.0413265
-0.0424109
-0.0434209
-0.0443661
-0.045242
-0.046056
-0.0468181
-0.0475349
-0.0482106
-0.0488486
-0.0494487
-0.041605
-0.0308775
-0.0336114
-0.0361236
-0.0367142
-0.038064
-0.0397573
-0.0411577
-0.0423335
-0.0434126
-0.0444057
-0.045309
-0.0461373
-0.046906
-0.0476244
-0.0482982
-0.0489321
-0.0495262
-0.0586261
-0.0288509
-0.0313684
-0.0347273
-0.0355331
-0.0374329
-0.0395428
-0.0411245
-0.042392
-0.0435326
-0.0445594
-0.0454747
-0.0463033
-0.0470671
-0.0477777
-0.0484421
-0.0490665
-0.0496512
-0.10276
-0.0421441
-0.035407
-0.0345451
-0.034706
-0.0372074
-0.0397064
-0.0414167
-0.042734
-0.0438957
-0.044917
-0.0458099
-0.0466112
-0.0473482
-0.0480338
-0.0486751
-0.0492794
-0.0498487
-0.0823892
-0.0519817
-0.0453082
-0.0367837
-0.035172
-0.0379721
-0.0405832
-0.0421983
-0.0434167
-0.0445052
-0.0454604
-0.0462902
-0.047036
-0.0477269
-0.0483738
-0.0489813
-0.0495553
-0.0501107
0.281927
0.0621935
-0.0149402
-0.0280841
-0.0334384
-0.0386056
-0.0416283
-0.0430403
-0.0440064
-0.0449186
-0.0457585
-0.0465091
-0.0471987
-0.0478493
-0.0484657
-0.0490467
-0.0495869
-0.0500666
-0.0726366
-0.07286
-0.0733221
-0.0738154
-0.0742584
-0.074743
-0.0753495
-0.0761137
-0.0770551
-0.0781946
-0.079558
-0.0811702
-0.0830516
-0.0852147
-0.0876621
-0.0903842
-0.0933599
-0.0965571
-0.099935
-0.103447
-0.107042
-0.110672
-0.114286
-0.11784
-0.121295
-0.124614
-0.127769
-0.130733
-0.133487
-0.136012
-0.138294
-0.140321
-0.142082
-0.143565
-0.144762
-0.145662
-0.146256
-0.146533
-0.146484
-0.146098
-0.145365
-0.14428
-0.142843
-0.141044
-0.138856
-0.13622
-0.133106
-0.129526
-0.125479
-0.120963
-0.115973
-0.110506
-0.104561
-0.0981416
-0.0912533
-0.0839074
-0.0761191
-0.0679088
-0.0593016
-0.0503276
-0.0410215
-0.0314225
-0.021574
-0.0115228
-0.00131826
0.0089879
0.0193429
0.0296934
0.0399868
0.0501718
0.0601992
0.0700225
0.0795992
0.0888902
0.0978613
0.106483
0.114729
0.12258
0.130021
0.137039
0.143628
0.14979
0.155538
0.16089
0.165845
0.1704
0.174567
0.178361
0.181798
0.184895
0.18767
0.190141
0.192326
0.194244
0.195911
0.197345
0.198562
0.199578
0.200408
0.201066
0.201565
0.20192
0.20214
0.202238
0.202223
0.202107
0.201898
0.201605
0.201236
0.200799
0.200303
0.199753
0.199158
0.198523
0.197856
0.197162
0.196448
0.195718
0.19498
0.194237
0.193494
0.192757
0.192028
0.191312
0.190612
0.18993
0.189271
0.188637
0.188032
0.187455
0.18689
0.186341
0.185815
0.185317
0.184844
0.184397
0.183975
0.183578
0.183203
0.18285
0.182519
0.182207
0.181913
0.181638
0.181379
0.181135
0.180905
0.180689
0.180485
0.180293
0.180111
0.179939
0.179775
0.17962
0.179472
0.179331
0.179197
0.179069
0.178947
0.17883
0.178719
0.178615
0.178517
0.178427
0.178345
0.178275
0.178217
0.178177
0.178158
0.178167
0.178215
0.178314
0.178484
0.178756
0.179175
0.179816
0.180822
0.182404
0.185188
0.189212
-0.0721303
-0.0729074
-0.0735445
-0.0737617
-0.0736709
-0.0735977
-0.0737738
-0.0742287
-0.074938
-0.0759151
-0.0771875
-0.0787822
-0.080718
-0.0830014
-0.0856238
-0.0885611
-0.0917754
-0.0952178
-0.0988327
-0.102562
-0.106347
-0.110134
-0.113874
-0.117526
-0.121052
-0.124424
-0.127618
-0.130614
-0.133398
-0.135955
-0.138276
-0.140351
-0.14217
-0.143726
-0.145008
-0.146008
-0.146715
-0.147118
-0.147204
-0.14696
-0.14637
-0.145417
-0.14408
-0.142334
-0.140169
-0.137608
-0.134655
-0.13128
-0.127463
-0.123191
-0.118457
-0.113253
-0.107577
-0.10143
-0.094817
-0.0877467
-0.0802323
-0.072292
-0.0639488
-0.0552303
-0.0461692
-0.0368022
-0.0271705
-0.0173188
-0.00729456
0.00285221
0.0130702
0.0233073
0.0335118
0.0436328
0.0536215
0.0634314
0.0730194
0.0823462
0.0913766
0.10008
0.108431
0.116407
0.123994
0.13118
0.137958
0.14432
0.150253
0.15575
0.160833
0.165521
0.169829
0.173768
0.177354
0.180604
0.183533
0.186159
0.188498
0.190568
0.192386
0.193968
0.195331
0.196489
0.197457
0.198251
0.198882
0.199364
0.199708
0.199927
0.20003
0.200028
0.19993
0.199745
0.199482
0.199148
0.198751
0.198299
0.197799
0.197257
0.19668
0.196073
0.195443
0.194796
0.194137
0.19347
0.1928
0.192132
0.191469
0.190816
0.190174
0.189548
0.188939
0.188351
0.187782
0.18723
0.186698
0.186188
0.185697
0.185228
0.18478
0.184355
0.18395
0.183567
0.183205
0.182862
0.182538
0.182232
0.181943
0.181671
0.181414
0.181171
0.180942
0.180725
0.18052
0.180327
0.180143
0.179969
0.179803
0.179646
0.179496
0.179353
0.179217
0.179086
0.178962
0.178844
0.178731
0.178625
0.178526
0.178434
0.178352
0.17828
0.178221
0.17818
0.17816
0.178169
0.178216
0.178313
0.178481
0.178747
0.179155
0.17977
0.180716
0.182144
0.184565
0.187898
-0.0691633
-0.0705139
-0.0716539
-0.0721695
-0.0723599
-0.0725546
-0.0729334
-0.0735717
-0.0745076
-0.0757704
-0.0773785
-0.0793361
-0.0816327
-0.0842444
-0.0871365
-0.0902664
-0.0935872
-0.0970506
-0.100609
-0.104216
-0.107832
-0.111418
-0.114941
-0.118373
-0.121688
-0.124865
-0.127886
-0.130734
-0.133396
-0.135858
-0.138111
-0.140142
-0.141942
-0.1435
-0.144807
-0.145851
-0.146622
-0.147109
-0.147298
-0.147176
-0.146731
-0.145947
-0.144806
-0.143286
-0.141372
-0.139061
-0.136346
-0.133213
-0.129648
-0.125638
-0.121175
-0.116252
-0.110863
-0.105008
-0.0986914
-0.0919185
-0.0847013
-0.0770557
-0.0690025
-0.0605672
-0.0517801
-0.042676
-0.0332936
-0.0236758
-0.0138681
-0.0039188
0.00612222
0.0162042
0.0262764
0.0362887
0.0461926
0.0559419
0.0654934
0.0748074
0.0838481
0.0925841
0.100989
0.10904
0.11672
0.124017
0.130922
0.137427
0.143525
0.149217
0.154512
0.159418
0.163946
0.168105
0.171911
0.175378
0.178522
0.181358
0.183903
0.186175
0.188189
0.189961
0.191508
0.192845
0.193987
0.194948
0.195741
0.19638
0.196876
0.197241
0.197486
0.197621
0.197657
0.197601
0.197463
0.19725
0.196972
0.196634
0.196245
0.195811
0.195338
0.194833
0.194301
0.193748
0.193179
0.192599
0.192013
0.191424
0.190836
0.190253
0.189678
0.189113
0.188562
0.188025
0.187504
0.186997
0.186506
0.186032
0.185574
0.185134
0.184712
0.184308
0.183923
0.183555
0.183206
0.182874
0.182559
0.18226
0.181977
0.181708
0.181454
0.181212
0.180984
0.180767
0.180562
0.180367
0.180182
0.180006
0.179839
0.179679
0.179527
0.179382
0.179243
0.17911
0.178984
0.178864
0.178749
0.178641
0.17854
0.178447
0.178363
0.17829
0.17823
0.178187
0.178166
0.178174
0.178219
0.178315
0.17848
0.178739
0.179133
0.179718
0.180596
0.181862
0.183848
0.186172
-0.0656251
-0.0676056
-0.0695966
-0.0708146
-0.0716096
-0.0723609
-0.0732502
-0.0743635
-0.0757475
-0.0774247
-0.0793995
-0.0816614
-0.0841889
-0.0869525
-0.0899176
-0.0930476
-0.0963052
-0.0996542
-0.10306
-0.10649
-0.109913
-0.113303
-0.116634
-0.119883
-0.123031
-0.126057
-0.128947
-0.131685
-0.134257
-0.136652
-0.138857
-0.140861
-0.142653
-0.144222
-0.145557
-0.146646
-0.147477
-0.148037
-0.148312
-0.14829
-0.147954
-0.147291
-0.146284
-0.144919
-0.14318
-0.141057
-0.138535
-0.135601
-0.132241
-0.128441
-0.124191
-0.119483
-0.114311
-0.108672
-0.102568
-0.0960044
-0.0889909
-0.0815418
-0.0736765
-0.0654192
-0.056799
-0.0478495
-0.0386089
-0.0291189
-0.0194249
-0.00957448
0.000382619
0.0103958
0.0204142
0.0303877
0.0402676
0.0500074
0.0595634
0.0688955
0.0779674
0.0867471
0.0952069
0.103324
0.111079
0.118459
0.125453
0.132056
0.138268
0.144087
0.149517
0.154563
0.159233
0.163539
0.167492
0.171108
0.174399
0.177384
0.180076
0.182493
0.18465
0.186564
0.188249
0.189722
0.190997
0.192088
0.193009
0.193771
0.194389
0.194872
0.195232
0.19548
0.195625
0.195676
0.195642
0.195532
0.195353
0.195113
0.194818
0.194476
0.194092
0.193674
0.193226
0.192755
0.192265
0.19176
0.191246
0.190727
0.190205
0.189685
0.189169
0.18866
0.18816
0.187671
0.187193
0.186726
0.186273
0.185834
0.185409
0.184999
0.184604
0.184224
0.18386
0.183511
0.183177
0.182859
0.182555
0.182265
0.18199
0.181727
0.181477
0.18124
0.181013
0.180798
0.180594
0.180399
0.180214
0.180037
0.179868
0.179707
0.179554
0.179407
0.179266
0.179132
0.179004
0.178881
0.178765
0.178655
0.178552
0.178457
0.178371
0.178296
0.178234
0.178189
0.178165
0.178169
0.17821
0.178298
0.178452
0.178695
0.179061
0.179594
0.18037
0.181435
0.182965
0.184489
-0.0636779
-0.066125
-0.0687642
-0.0705929
-0.0719318
-0.0731792
-0.0745246
-0.0760553
-0.0778141
-0.079816
-0.0820571
-0.0845219
-0.0871874
-0.0900268
-0.093011
-0.0961105
-0.099296
-0.10254
-0.105815
-0.109096
-0.112361
-0.115588
-0.118756
-0.121849
-0.124848
-0.12774
-0.130509
-0.133142
-0.135627
-0.137953
-0.140107
-0.142078
-0.143855
-0.145426
-0.14678
-0.147904
-0.148786
-0.149412
-0.149768
-0.14984
-0.149612
-0.149068
-0.148193
-0.146969
-0.145383
-0.143418
-0.141059
-0.13829
-0.135097
-0.131466
-0.127384
-0.122841
-0.117831
-0.112349
-0.106394
-0.0999715
-0.0930891
-0.0857603
-0.0780035
-0.0698421
-0.061305
-0.0524256
-0.0432421
-0.0337967
-0.024135
-0.0143055
-0.00435847
0.00565454
0.015682
0.0256728
0.0355777
0.0453494
0.0549436
0.0643197
0.073441
0.0822748
0.0907932
0.0989726
0.106794
0.114242
0.121308
0.127987
0.134275
0.140174
0.145687
0.150819
0.155578
0.159976
0.164025
0.167737
0.171127
0.174211
0.177004
0.179522
0.181781
0.183796
0.185582
0.187155
0.188529
0.189718
0.190735
0.191593
0.192305
0.19288
0.193332
0.193669
0.193901
0.194039
0.194089
0.194062
0.193964
0.193802
0.193585
0.193318
0.193008
0.192661
0.192282
0.191878
0.191453
0.191011
0.190557
0.190095
0.189628
0.189161
0.188694
0.188232
0.187776
0.187328
0.186888
0.186457
0.186037
0.185629
0.185233
0.184849
0.184479
0.184121
0.183776
0.183445
0.183127
0.182822
0.18253
0.18225
0.181982
0.181727
0.181482
0.181249
0.181027
0.180814
0.180612
0.180418
0.180234
0.180057
0.179888
0.179727
0.179573
0.179425
0.179283
0.179148
0.179018
0.178894
0.178776
0.178665
0.17856
0.178463
0.178374
0.178297
0.178232
0.178183
0.178154
0.178152
0.178184
0.178261
0.178398
0.178615
0.178939
0.179404
0.180058
0.180911
0.182037
0.182975
-0.0640605
-0.0666659
-0.0695743
-0.0717593
-0.0734724
-0.0750776
-0.0767503
-0.0785701
-0.0805755
-0.082779
-0.0851747
-0.0877463
-0.0904721
-0.093328
-0.0962894
-0.0993318
-0.102432
-0.105568
-0.108718
-0.111865
-0.114988
-0.118072
-0.121101
-0.12406
-0.126935
-0.129713
-0.132382
-0.134929
-0.137343
-0.139613
-0.141727
-0.143675
-0.145445
-0.147024
-0.148401
-0.149563
-0.150497
-0.151189
-0.151623
-0.151785
-0.151659
-0.151228
-0.150474
-0.14938
-0.14793
-0.146105
-0.143889
-0.141264
-0.138215
-0.134725
-0.130781
-0.126371
-0.121486
-0.11612
-0.110272
-0.103944
-0.0971435
-0.089883
-0.0821803
-0.074059
-0.0655478
-0.0566808
-0.0474969
-0.0380394
-0.0283553
-0.0184943
-0.00850834
0.0015498
0.0116271
0.0216714
0.031632
0.0414609
0.0511133
0.0605477
0.0697272
0.0786189
0.0871948
0.095431
0.103309
0.110814
0.117938
0.124674
0.13102
0.136978
0.14255
0.147744
0.152568
0.157032
0.161149
0.164931
0.168394
0.171552
0.17442
0.177015
0.17935
0.181443
0.183308
0.184959
0.186412
0.187679
0.188775
0.189711
0.190499
0.191152
0.191679
0.19209
0.192397
0.192606
0.192728
0.192771
0.192741
0.192647
0.192495
0.192292
0.192045
0.191758
0.191439
0.191092
0.190721
0.190333
0.18993
0.189517
0.189097
0.188674
0.188251
0.187829
0.18741
0.186997
0.186591
0.186192
0.185802
0.185422
0.185051
0.184692
0.184343
0.184005
0.183679
0.183364
0.183061
0.182769
0.182488
0.182218
0.181959
0.181711
0.181473
0.181245
0.181027
0.180818
0.180618
0.180427
0.180244
0.180068
0.1799
0.179739
0.179584
0.179436
0.179294
0.179158
0.179027
0.178902
0.178783
0.17867
0.178563
0.178464
0.178373
0.178292
0.178223
0.178169
0.178134
0.178124
0.178145
0.178206
0.178321
0.178505
0.178778
0.179164
0.179689
0.180336
0.181122
0.181618
-0.0664262
-0.0689296
-0.0717974
-0.0740945
-0.0759923
-0.0777937
-0.0796477
-0.0816217
-0.0837489
-0.0860398
-0.088489
-0.0910818
-0.093799
-0.0966195
-0.0995221
-0.102486
-0.105493
-0.108523
-0.111561
-0.11459
-0.117595
-0.120562
-0.123479
-0.126332
-0.12911
-0.1318
-0.134393
-0.136877
-0.139241
-0.141474
-0.143566
-0.145504
-0.147279
-0.148878
-0.150287
-0.151495
-0.152487
-0.153248
-0.153764
-0.154018
-0.153992
-0.15367
-0.153033
-0.152062
-0.150739
-0.149044
-0.146959
-0.144465
-0.141543
-0.138177
-0.13435
-0.13005
-0.125264
-0.119987
-0.114213
-0.107946
-0.101191
-0.0939601
-0.086271
-0.0781474
-0.0696188
-0.0607204
-0.0514925
-0.04198
-0.0322318
-0.0222997
-0.0122376
-0.00210026
0.00805758
0.018182
0.0282212
0.0381261
0.047851
0.0573539
0.0665978
0.0755496
0.0841811
0.0924695
0.100397
0.10795
0.11512
0.121901
0.128292
0.134293
0.13991
0.14515
0.15002
0.154533
0.1587
0.162535
0.166052
0.169265
0.172191
0.174844
0.17724
0.179394
0.181321
0.183036
0.184553
0.185885
0.187045
0.188046
0.1889
0.189617
0.190208
0.190684
0.191054
0.191326
0.19151
0.191613
0.191643
0.191608
0.191513
0.191366
0.191173
0.19094
0.190672
0.190374
0.190051
0.189709
0.189351
0.18898
0.188602
0.188218
0.187831
0.187444
0.187059
0.186678
0.186302
0.185931
0.185568
0.185212
0.184865
0.184527
0.184199
0.18388
0.183571
0.183272
0.182982
0.182703
0.182434
0.182174
0.181924
0.181683
0.181452
0.18123
0.181017
0.180812
0.180615
0.180427
0.180246
0.180072
0.179905
0.179745
0.179591
0.179443
0.1793
0.179163
0.179032
0.178906
0.178786
0.178671
0.178563
0.178461
0.178367
0.178282
0.178209
0.178149
0.178107
0.178086
0.178093
0.178136
0.178224
0.17837
0.178588
0.178889
0.179285
0.179742
0.180242
0.180399
-0.0700455
-0.0722965
-0.0749285
-0.0771542
-0.0790769
-0.0809328
-0.0828415
-0.0848573
-0.087007
-0.089299
-0.0917287
-0.0942834
-0.0969463
-0.0996988
-0.102522
-0.105399
-0.108312
-0.111245
-0.114183
-0.117113
-0.120022
-0.122897
-0.125727
-0.1285
-0.131207
-0.133836
-0.136378
-0.138822
-0.141158
-0.143375
-0.145464
-0.147412
-0.149208
-0.15084
-0.152296
-0.153561
-0.154621
-0.155461
-0.156065
-0.156415
-0.156495
-0.156284
-0.155764
-0.154915
-0.153716
-0.152146
-0.150186
-0.147814
-0.145011
-0.141756
-0.138033
-0.133826
-0.129121
-0.123911
-0.118189
-0.111957
-0.10522
-0.097989
-0.0902821
-0.0821237
-0.0735442
-0.0645805
-0.0552748
-0.0456742
-0.03583
-0.0257965
-0.0156301
-0.00538791
0.00487335
0.0150979
0.0252323
0.0352264
0.0450338
0.0546119
0.0639232
0.0729354
0.0816212
0.089959
0.0979311
0.105525
0.112732
0.119548
0.125971
0.132005
0.137654
0.142926
0.14783
0.152377
0.15658
0.160452
0.164009
0.167264
0.170234
0.172932
0.175376
0.177579
0.179557
0.181324
0.182893
0.184279
0.185494
0.18655
0.18746
0.188233
0.18888
0.189412
0.189837
0.190164
0.190403
0.190559
0.190642
0.190659
0.190615
0.190518
0.190373
0.190187
0.189964
0.18971
0.18943
0.189129
0.18881
0.188477
0.188134
0.187785
0.187431
0.187076
0.18672
0.186367
0.186018
0.185673
0.185333
0.185001
0.184675
0.184357
0.184048
0.183746
0.183453
0.183169
0.182893
0.182626
0.182368
0.182119
0.181878
0.181645
0.181421
0.181205
0.180997
0.180797
0.180604
0.180419
0.180241
0.180069
0.179904
0.179745
0.179592
0.179444
0.179302
0.179165
0.179033
0.178907
0.178785
0.178669
0.178559
0.178454
0.178357
0.178269
0.17819
0.178124
0.178072
0.17804
0.178031
0.178053
0.178112
0.178216
0.178374
0.178591
0.178863
0.179148
0.179408
0.179303
-0.0742266
-0.0761501
-0.0784386
-0.0804721
-0.0823054
-0.0841128
-0.085985
-0.0879634
-0.0900679
-0.0923046
-0.0946689
-0.0971496
-0.0997318
-0.102399
-0.105134
-0.107921
-0.110745
-0.11359
-0.116443
-0.119293
-0.122126
-0.124931
-0.127699
-0.130418
-0.133079
-0.135673
-0.138189
-0.140617
-0.142949
-0.145173
-0.147279
-0.149256
-0.151093
-0.152776
-0.154293
-0.155629
-0.156771
-0.157701
-0.158402
-0.158858
-0.159049
-0.158955
-0.158556
-0.15783
-0.156756
-0.15531
-0.153472
-0.151218
-0.148527
-0.145377
-0.141747
-0.137621
-0.132985
-0.127826
-0.122139
-0.115922
-0.109181
-0.101927
-0.0941789
-0.0859607
-0.0773051
-0.0682508
-0.0588422
-0.0491293
-0.0391661
-0.0290098
-0.0187198
-0.00835568
0.0020236
0.0123601
0.0225988
0.0326882
0.0425812
0.0522355
0.061614
0.0706852
0.0794225
0.0878043
0.0958143
0.103441
0.110676
0.117517
0.123964
0.13002
0.13569
0.140984
0.14591
0.150481
0.154709
0.158609
0.162194
0.165481
0.168484
0.171219
0.1737
0.175943
0.177962
0.179772
0.181387
0.182818
0.18408
0.185185
0.186142
0.186965
0.187662
0.188243
0.188718
0.189094
0.189382
0.189587
0.189718
0.189781
0.189783
0.18973
0.189629
0.189485
0.189303
0.189089
0.188847
0.188583
0.188299
0.188
0.18769
0.187371
0.187047
0.18672
0.186391
0.186064
0.185739
0.185417
0.1851
0.184788
0.184482
0.184183
0.183891
0.183606
0.183328
0.183058
0.182796
0.182541
0.182294
0.182054
0.181823
0.181598
0.181381
0.181172
0.18097
0.180775
0.180586
0.180405
0.180229
0.18006
0.179897
0.17974
0.179588
0.179442
0.1793
0.179163
0.179031
0.178904
0.178782
0.178664
0.178552
0.178445
0.178345
0.178251
0.178167
0.178093
0.178032
0.177987
0.177961
0.177959
0.177987
0.178048
0.178146
0.178279
0.178435
0.178566
0.178626
0.178318
-0.0783982
-0.0799651
-0.0818605
-0.0836309
-0.0853015
-0.086993
-0.08877
-0.0906612
-0.0926801
-0.0948295
-0.0971042
-0.0994938
-0.101985
-0.104561
-0.107209
-0.109912
-0.112656
-0.115427
-0.118212
-0.121
-0.123779
-0.126538
-0.129267
-0.131957
-0.134599
-0.137181
-0.139696
-0.142134
-0.144485
-0.146739
-0.148885
-0.150912
-0.152808
-0.15456
-0.156155
-0.157579
-0.158815
-0.159847
-0.160658
-0.161228
-0.161538
-0.161567
-0.161294
-0.160695
-0.159747
-0.158426
-0.156709
-0.154571
-0.151987
-0.148935
-0.145392
-0.141338
-0.136758
-0.131638
-0.125971
-0.119755
-0.112994
-0.1057
-0.097891
-0.0895946
-0.0808444
-0.0716813
-0.0621528
-0.0523117
-0.042215
-0.0319237
-0.0214999
-0.011006
-0.00050405
0.00994645
0.0202895
0.0304729
0.0404491
0.0501761
0.0596171
0.0687409
0.0775216
0.0859391
0.0939781
0.101628
0.108882
0.115739
0.1222
0.128268
0.13395
0.139256
0.144196
0.148781
0.153026
0.156945
0.160552
0.163862
0.166891
0.169654
0.172166
0.174442
0.176496
0.178343
0.179996
0.181468
0.182772
0.183919
0.18492
0.185786
0.186528
0.187154
0.187674
0.188096
0.188428
0.188677
0.188852
0.188958
0.189002
0.18899
0.188929
0.188824
0.18868
0.188502
0.188295
0.188064
0.187812
0.187544
0.187263
0.186973
0.186676
0.186374
0.18607
0.185766
0.185463
0.185163
0.184866
0.184573
0.184286
0.184004
0.183729
0.183459
0.183196
0.18294
0.18269
0.182448
0.182211
0.181982
0.181759
0.181544
0.181334
0.181132
0.180935
0.180746
0.180562
0.180384
0.180213
0.180047
0.179886
0.179731
0.179581
0.179435
0.179295
0.179158
0.179027
0.178899
0.178776
0.178657
0.178542
0.178433
0.178329
0.178231
0.17814
0.178058
0.177987
0.177928
0.177884
0.177858
0.177853
0.17787
0.177908
0.177961
0.17801
0.178005
0.177898
0.177431
-0.0821069
-0.0833175
-0.0848089
-0.0862827
-0.0877498
-0.0892872
-0.0909362
-0.0927143
-0.0946283
-0.0966775
-0.0988557
-0.101152
-0.103554
-0.106047
-0.108617
-0.111248
-0.113928
-0.116643
-0.11938
-0.122128
-0.124876
-0.127612
-0.130329
-0.133015
-0.135661
-0.138258
-0.140797
-0.143268
-0.145662
-0.147968
-0.150174
-0.152271
-0.154246
-0.156085
-0.157774
-0.159299
-0.160643
-0.161789
-0.162719
-0.163413
-0.163849
-0.164007
-0.163863
-0.163393
-0.162573
-0.161377
-0.15978
-0.157754
-0.155273
-0.152313
-0.148849
-0.144859
-0.140324
-0.135232
-0.129572
-0.123343
-0.116548
-0.1092
-0.101318
-0.0929299
-0.0840728
-0.0747901
-0.0651324
-0.0551559
-0.044922
-0.0344944
-0.0239376
-0.013317
-0.00269663
0.00786235
0.0183028
0.0285719
0.0386218
0.0484107
0.0579024
0.0670665
0.0758787
0.0843197
0.0923757
0.100037
0.1073
0.114162
0.120626
0.126697
0.132383
0.137692
0.142637
0.147231
0.151485
0.155416
0.159038
0.162366
0.165415
0.168201
0.170739
0.173043
0.175128
0.177007
0.178694
0.180202
0.181543
0.182729
0.18377
0.184677
0.185459
0.186127
0.186689
0.187152
0.187526
0.187816
0.188031
0.188177
0.188261
0.188287
0.188263
0.188194
0.188085
0.18794
0.187766
0.187566
0.187344
0.187105
0.186851
0.186587
0.186314
0.186036
0.185755
0.185473
0.18519
0.18491
0.184632
0.184358
0.184088
0.183822
0.183562
0.183308
0.183059
0.182816
0.182579
0.182347
0.182122
0.181903
0.18169
0.181482
0.181281
0.181085
0.180895
0.180711
0.180532
0.180359
0.180191
0.180029
0.179871
0.179718
0.17957
0.179426
0.179286
0.179151
0.179019
0.178891
0.178767
0.178647
0.178531
0.178418
0.178311
0.178208
0.178111
0.178021
0.177938
0.177865
0.177802
0.177751
0.177712
0.177686
0.177667
0.177643
0.177595
0.17747
0.177223
0.176632
-0.0850091
-0.0858844
-0.0869866
-0.0881572
-0.0894048
-0.0907722
-0.0922808
-0.0939378
-0.095744
-0.0976952
-0.099783
-0.101996
-0.104322
-0.106747
-0.109256
-0.111835
-0.114472
-0.117153
-0.119865
-0.122598
-0.125339
-0.128079
-0.130807
-0.133515
-0.136191
-0.138827
-0.141414
-0.143942
-0.1464
-0.148778
-0.151066
-0.153251
-0.15532
-0.157261
-0.159059
-0.160698
-0.162161
-0.16343
-0.164486
-0.165309
-0.165877
-0.166166
-0.166153
-0.165813
-0.165119
-0.164045
-0.162563
-0.160644
-0.158259
-0.155382
-0.151987
-0.148049
-0.143549
-0.138472
-0.132808
-0.126553
-0.119712
-0.112299
-0.104335
-0.0958492
-0.0868809
-0.0774768
-0.0676908
-0.0575824
-0.0472163
-0.0366592
-0.0259789
-0.0152431
-0.00451768
0.00613473
0.016656
0.0269931
0.0370985
0.046931
0.0564553
0.0656423
0.0744689
0.0829175
0.0909755
0.098635
0.105893
0.112748
0.119205
0.125269
0.130949
0.136255
0.141198
0.145792
0.150051
0.153988
0.15762
0.160961
0.164027
0.166832
0.169392
0.17172
0.173832
0.17574
0.177459
0.179
0.180376
0.181597
0.182675
0.18362
0.184441
0.185148
0.185749
0.186252
0.186664
0.186994
0.187247
0.187431
0.187551
0.187614
0.187625
0.187589
0.187513
0.1874
0.187256
0.187085
0.186891
0.186678
0.18645
0.18621
0.18596
0.185705
0.185445
0.185183
0.18492
0.184658
0.184398
0.184141
0.183887
0.183637
0.183392
0.183152
0.182917
0.182686
0.182461
0.182242
0.182027
0.181818
0.181614
0.181415
0.181221
0.181033
0.180849
0.180671
0.180498
0.180329
0.180166
0.180007
0.179852
0.179702
0.179556
0.179414
0.179275
0.17914
0.179009
0.178881
0.178757
0.178635
0.178517
0.178402
0.17829
0.178183
0.178079
0.17798
0.177886
0.177798
0.177716
0.17764
0.177569
0.1775
0.177426
0.177332
0.177195
0.176966
0.176602
0.175911
-0.0868316
-0.0874393
-0.088186
-0.0890645
-0.0900935
-0.0912906
-0.0926607
-0.0942021
-0.0959097
-0.0977756
-0.0997891
-0.101938
-0.104209
-0.106588
-0.109061
-0.111614
-0.114234
-0.116907
-0.119621
-0.122364
-0.125125
-0.127894
-0.13066
-0.133413
-0.136144
-0.138843
-0.1415
-0.144105
-0.146647
-0.149117
-0.151501
-0.153789
-0.155968
-0.158022
-0.159938
-0.161699
-0.163287
-0.164684
-0.165871
-0.166824
-0.167523
-0.167942
-0.168057
-0.167842
-0.167268
-0.166309
-0.164933
-0.163111
-0.160811
-0.158005
-0.154664
-0.150765
-0.146286
-0.141211
-0.13553
-0.12924
-0.122345
-0.114861
-0.10681
-0.0982247
-0.0891468
-0.0796261
-0.0697199
-0.0594912
-0.0490076
-0.0383389
-0.0275556
-0.0167274
-0.00592164
0.00479839
0.0153742
0.0257528
0.0358877
0.0457384
0.0552711
0.0644581
0.0732777
0.081714
0.0897558
0.0973967
0.104634
0.11147
0.117908
0.123955
0.12962
0.134914
0.139849
0.144438
0.148695
0.152635
0.156273
0.159624
0.162702
0.165524
0.168103
0.170453
0.17259
0.174526
0.176273
0.177846
0.179254
0.180509
0.181622
0.182603
0.183462
0.184206
0.184844
0.185384
0.185834
0.186201
0.186491
0.18671
0.186866
0.186963
0.187007
0.187004
0.186958
0.186876
0.18676
0.186616
0.186449
0.186261
0.186057
0.18584
0.185613
0.185378
0.185138
0.184895
0.18465
0.184406
0.184163
0.183922
0.183684
0.183449
0.183219
0.182992
0.18277
0.182552
0.182339
0.182131
0.181927
0.181727
0.181532
0.181342
0.181156
0.180975
0.180799
0.180626
0.180459
0.180295
0.180136
0.179981
0.17983
0.179682
0.179539
0.179399
0.179262
0.179128
0.178997
0.178869
0.178744
0.178622
0.178502
0.178384
0.178269
0.178156
0.178046
0.177938
0.177833
0.17773
0.177629
0.177528
0.177425
0.177315
0.177189
0.17703
0.176814
0.176494
0.176032
0.17526
-0.0874097
-0.0878255
-0.0882635
-0.0888803
-0.089709
-0.0907501
-0.091996
-0.093438
-0.095066
-0.0968681
-0.0988313
-0.100942
-0.103185
-0.105547
-0.108012
-0.110567
-0.113199
-0.115892
-0.118636
-0.121418
-0.124226
-0.127049
-0.129878
-0.132701
-0.135508
-0.13829
-0.141036
-0.143735
-0.146378
-0.148953
-0.151447
-0.153849
-0.156144
-0.158319
-0.160357
-0.162243
-0.163957
-0.165481
-0.166794
-0.167874
-0.168697
-0.169239
-0.169473
-0.169372
-0.168908
-0.16805
-0.166766
-0.165023
-0.162791
-0.160037
-0.156734
-0.152856
-0.148381
-0.143293
-0.137582
-0.131245
-0.12429
-0.116731
-0.108594
-0.099915
-0.0907374
-0.0811146
-0.0711071
-0.0607811
-0.0502067
-0.0394563
-0.0286024
-0.0177161
-0.00686514
0.00388677
0.0144815
0.0248671
0.0349979
0.0448351
0.0543463
0.0635056
0.072293
0.080694
0.088699
0.0963029
0.103505
0.110306
0.116713
0.122732
0.128373
0.133648
0.138567
0.143146
0.147397
0.151335
0.154976
0.158333
0.161423
0.164259
0.166855
0.169227
0.171387
0.173348
0.175124
0.176726
0.178166
0.179454
0.180602
0.181617
0.182511
0.183291
0.183966
0.184542
0.185029
0.185431
0.185756
0.18601
0.1862
0.18633
0.186406
0.186434
0.186418
0.186364
0.186276
0.186158
0.186016
0.185852
0.185671
0.185476
0.185269
0.185054
0.184834
0.184609
0.184382
0.184154
0.183928
0.183702
0.183479
0.183259