/*--------------------------------*- C++ -*----------------------------------*\
  =========                 |
  \\      /  F ield         | OpenFOAM: The Open Source CFD Toolbox
   \\    /   O peration     | Website:  https://openfoam.org
    \\  /    A nd           | Version:  6
     \\/     M anipulation  |
\*---------------------------------------------------------------------------*/
FoamFile
{
    version     2.0;
    format      ascii;
    class       surfaceScalarField;
    location    "0.17";
    object      phi;
}
// * * * * * * * * * * * * * * * * * * * * * * * * * * * * * * * * * * * * * //

dimensions      [0 3 -1 0 0 0 0];

internalField   nonuniform List<scalar> 
24170
(
3.2567e-07
-6.82921e-09
3.19411e-07
6.25908e-09
3.15798e-07
3.61314e-09
3.087e-07
7.09795e-09
3.01721e-07
6.97891e-09
2.96697e-07
5.02325e-09
2.93356e-07
3.34172e-09
2.90983e-07
2.37293e-09
2.89132e-07
1.85036e-09
2.87601e-07
1.53107e-09
2.86285e-07
1.31683e-09
2.85114e-07
1.17048e-09
2.84045e-07
1.06943e-09
2.83043e-07
1.00198e-09
2.82093e-07
9.4971e-10
2.81152e-07
9.41211e-10
2.80425e-07
7.26911e-10
8.22374e-10
2.79602e-07
3.50377e-07
-1.54818e-08
3.4781e-07
8.82681e-09
3.44051e-07
7.37188e-09
3.42183e-07
8.96551e-09
3.39988e-07
9.17431e-09
3.37477e-07
7.53442e-09
3.35107e-07
5.71133e-09
3.33078e-07
4.40187e-09
3.31387e-07
3.54142e-09
3.29966e-07
2.95276e-09
3.28744e-07
2.53794e-09
3.2767e-07
2.24495e-09
3.26702e-07
2.03751e-09
3.25808e-07
1.89608e-09
3.24965e-07
1.79263e-09
3.24139e-07
1.76715e-09
3.23287e-07
1.57836e-09
1.73554e-09
3.22374e-07
3.63433e-07
-1.26631e-08
3.66548e-07
5.71224e-09
3.66688e-07
7.23098e-09
3.66831e-07
8.82289e-09
3.66423e-07
9.58203e-09
3.65388e-07
8.56943e-09
3.6405e-07
7.04917e-09
3.62682e-07
5.7702e-09
3.61411e-07
4.81298e-09
3.60265e-07
4.09819e-09
3.59236e-07
3.56752e-09
3.58301e-07
3.17954e-09
3.57439e-07
2.89942e-09
3.56629e-07
2.70629e-09
3.55847e-07
2.57477e-09
3.55084e-07
2.53031e-09
3.54228e-07
2.43416e-09
2.62609e-09
3.53337e-07
3.89234e-07
-9.35844e-09
3.9144e-07
3.50661e-09
3.92351e-07
6.32e-09
3.92983e-07
8.19034e-09
3.93217e-07
9.34878e-09
3.92906e-07
8.88019e-09
3.92209e-07
7.74627e-09
3.91335e-07
6.64423e-09
3.90421e-07
5.72681e-09
3.8953e-07
4.98884e-09
3.88684e-07
4.41337e-09
3.87886e-07
3.97831e-09
3.87127e-07
3.65848e-09
3.86396e-07
3.43708e-09
3.85675e-07
3.29563e-09
3.84954e-07
3.2515e-09
3.84147e-07
3.24073e-09
3.46665e-09
3.83307e-07
4.18266e-07
-6.91127e-09
4.19392e-07
2.38018e-09
4.20252e-07
5.45956e-09
4.2098e-07
7.46297e-09
4.21494e-07
8.83434e-09
4.21595e-07
8.77942e-09
4.21327e-07
8.01453e-09
4.2083e-07
7.14046e-09
4.20221e-07
6.33631e-09
4.19566e-07
5.64396e-09
4.18901e-07
5.07855e-09
4.18242e-07
4.63748e-09
4.17592e-07
4.3081e-09
4.16948e-07
4.0807e-09
4.16299e-07
3.94499e-09
4.15635e-07
3.91546e-09
4.14905e-07
3.97071e-09
4.23331e-09
4.14138e-07
4.49031e-07
-5.03311e-09
4.49582e-07
1.82892e-09
4.50293e-07
4.74876e-09
4.51015e-07
6.74068e-09
4.51659e-07
8.19054e-09
4.52003e-07
8.43464e-09
4.52029e-07
7.98924e-09
4.51821e-07
7.34785e-09
4.51467e-07
6.69073e-09
4.51025e-07
6.08577e-09
4.50534e-07
5.56936e-09
4.50017e-07
5.15473e-09
4.49484e-07
4.84134e-09
4.48937e-07
4.62722e-09
4.48372e-07
4.50991e-09
4.47785e-07
4.50304e-09
4.47148e-07
4.60715e-09
4.89585e-09
4.46486e-07
4.81753e-07
-3.5138e-09
4.82029e-07
1.55285e-09
4.82599e-07
4.17863e-09
4.83273e-07
6.06704e-09
4.83959e-07
7.50363e-09
4.84444e-07
7.9504e-09
4.84669e-07
7.76436e-09
4.8468e-07
7.33677e-09
4.84535e-07
6.83529e-09
4.84282e-07
6.33906e-09
4.83955e-07
5.89635e-09
4.83578e-07
5.53145e-09
4.83166e-07
5.25362e-09
4.82725e-07
5.06786e-09
4.82257e-07
4.97796e-09
4.81763e-07
4.99715e-09
4.81235e-07
5.13517e-09
5.43389e-09
4.80697e-07
5.16744e-07
-2.2995e-09
5.16869e-07
1.42811e-09
5.17315e-07
3.73191e-09
5.17919e-07
5.46368e-09
5.18597e-07
6.82528e-09
5.19152e-07
7.39502e-09
5.19509e-07
7.40751e-09
5.19683e-07
7.16336e-09
5.19707e-07
6.81054e-09
5.19617e-07
6.42952e-09
5.1944e-07
6.07325e-09
5.19199e-07
5.77252e-09
5.18909e-07
5.54342e-09
5.18581e-07
5.3962e-09
5.1822e-07
5.33887e-09
5.17833e-07
5.38389e-09
5.17426e-07
5.54275e-09
5.83654e-09
5.17023e-07
5.54204e-07
-1.36946e-09
5.54238e-07
1.39353e-09
5.54585e-07
3.38484e-09
5.55115e-07
4.93445e-09
5.55757e-07
6.18308e-09
5.56339e-07
6.81253e-09
5.56779e-07
6.96748e-09
5.57071e-07
6.87209e-09
5.57229e-07
6.65179e-09
5.57277e-07
6.38208e-09
5.57234e-07
6.11552e-09
5.57121e-07
5.88551e-09
5.56953e-07
5.71206e-09
5.5674e-07
5.60858e-09
5.56494e-07
5.58532e-09
5.56225e-07
5.65324e-09
5.55946e-07
5.82191e-09
6.09916e-09
5.55683e-07
5.94299e-07
-6.9076e-10
5.9429e-07
1.40267e-09
5.94565e-07
3.10914e-09
5.95029e-07
4.47139e-09
5.95624e-07
5.58799e-09
5.96206e-07
6.22967e-09
5.96695e-07
6.47863e-09
5.9707e-07
6.49739e-09
5.97333e-07
6.38872e-09
5.97496e-07
6.21964e-09
5.97572e-07
6.03895e-09
5.97578e-07
5.87969e-09
5.97527e-07
5.76321e-09
5.97431e-07
5.70415e-09
5.97303e-07
5.7132e-09
5.97157e-07
5.79934e-09
5.9701e-07
5.96881e-09
6.22149e-09
5.96888e-07
6.37213e-07
-2.2296e-10
6.37195e-07
1.42092e-09
6.37428e-07
2.87586e-09
6.3784e-07
4.05975e-09
6.38388e-07
5.04011e-09
6.38957e-07
5.66041e-09
6.39472e-07
5.96366e-09
6.39905e-07
6.06469e-09
6.40248e-07
6.04516e-09
6.40506e-07
5.96207e-09
6.40686e-07
5.8585e-09
6.40801e-07
5.76501e-09
6.40862e-07
5.70228e-09
6.40882e-07
5.68455e-09
6.40873e-07
5.72167e-09
6.40852e-07
5.82036e-09
6.40837e-07
5.98355e-09
6.20675e-09
6.40852e-07
5.73821e-07
3.9494e-11
5.73813e-07
1.42849e-09
5.73998e-07
2.69148e-09
5.7432e-07
3.73734e-09
5.74752e-07
4.60824e-09
5.75219e-07
5.19318e-09
5.75665e-07
5.51835e-09
5.76062e-07
5.66775e-09
5.764e-07
5.7067e-09
5.76678e-07
5.68362e-09
5.76901e-07
5.63616e-09
5.77074e-07
5.59175e-09
5.77207e-07
5.56938e-09
5.77309e-07
5.5821e-09
5.77393e-07
5.63842e-09
5.7747e-07
5.74312e-09
5.77556e-07
5.89698e-09
6.0931e-09
5.7767e-07
6.99626e-07
2.29157e-10
6.99654e-07
1.40027e-09
6.99862e-07
2.48343e-09
7.00213e-07
3.38631e-09
7.00683e-07
4.13877e-09
7.01203e-07
4.67276e-09
7.01719e-07
5.00234e-09
7.02201e-07
5.18604e-09
7.02634e-07
5.27389e-09
7.03012e-07
5.30489e-09
7.03338e-07
5.31014e-09
7.03617e-07
5.31282e-09
7.03857e-07
5.32924e-09
7.04069e-07
5.37036e-09
7.04265e-07
5.44282e-09
7.04458e-07
5.5494e-09
7.04667e-07
5.68892e-09
5.85365e-09
7.04906e-07
8.52978e-07
3.36173e-10
8.53058e-07
1.31977e-09
8.5331e-07
2.23166e-09
8.53704e-07
2.99245e-09
8.54219e-07
3.6235e-09
8.54799e-07
4.093e-09
8.55392e-07
4.40889e-09
8.55968e-07
4.61001e-09
8.56509e-07
4.73299e-09
8.57007e-07
4.80744e-09
8.5746e-07
4.85729e-09
8.57872e-07
4.90067e-09
8.58251e-07
4.95034e-09
8.58606e-07
5.01453e-09
8.58952e-07
5.09767e-09
8.593e-07
5.20069e-09
8.59668e-07
5.32107e-09
5.45141e-09
8.6007e-07
1.0399e-06
3.61535e-10
1.04004e-06
1.17214e-09
1.04036e-06
1.91353e-09
1.04082e-06
2.53299e-09
1.0414e-06
3.04379e-09
1.04206e-06
3.43839e-09
1.04274e-06
3.72371e-09
1.04343e-06
3.92453e-09
1.04409e-06
4.06622e-09
1.04473e-06
4.16972e-09
1.04534e-06
4.25187e-09
1.04591e-06
4.32543e-09
1.04646e-06
4.39912e-09
1.047e-06
4.47821e-09
1.04753e-06
4.56486e-09
1.04807e-06
4.65858e-09
1.04864e-06
4.75623e-09
4.85149e-09
1.04924e-06
1.26772e-06
3.1766e-10
1.26795e-06
9.45673e-10
1.26835e-06
1.50802e-09
1.26891e-06
1.97992e-09
1.26958e-06
2.36933e-09
1.27034e-06
2.68017e-09
1.27114e-06
2.91975e-09
1.27197e-06
3.10323e-09
1.27279e-06
3.24664e-09
1.27359e-06
3.36321e-09
1.27438e-06
3.46323e-09
1.27515e-06
3.55423e-09
1.27591e-06
3.64099e-09
1.27666e-06
3.72588e-09
1.27742e-06
3.80921e-09
1.27819e-06
3.8895e-09
1.27898e-06
3.96368e-09
4.02686e-09
1.2798e-06
1.54541e-06
2.21337e-10
1.54572e-06
6.35212e-10
1.54624e-06
9.97399e-10
1.54691e-06
1.30351e-09
1.54772e-06
1.56075e-09
1.54862e-06
1.77562e-09
1.54959e-06
1.95406e-09
1.55059e-06
2.104e-09
1.5516e-06
2.23331e-09
1.55262e-06
2.34812e-09
1.55363e-06
2.45274e-09
1.55463e-06
2.54988e-09
1.55563e-06
2.64071e-09
1.55663e-06
2.72515e-09
1.55764e-06
2.80203e-09
1.55866e-06
2.86937e-09
1.5597e-06
2.92453e-09
2.96402e-09
1.56076e-06
1.8839e-06
8.71424e-11
1.88429e-06
2.41699e-10
1.88492e-06
3.66366e-10
1.88575e-06
4.72626e-10
1.88674e-06
5.71918e-10
1.88785e-06
6.69405e-10
1.88904e-06
7.67427e-10
1.89027e-06
8.67252e-10
1.89154e-06
9.68804e-10
1.89281e-06
1.07095e-09
1.89409e-06
1.17204e-09
1.89537e-06
1.2701e-09
1.89665e-06
1.36296e-09
1.89793e-06
1.44828e-09
1.89921e-06
1.52369e-09
1.90049e-06
1.58685e-09
1.90178e-06
1.63552e-09
1.66732e-09
1.90308e-06
2.29649e-06
-6.61773e-11
2.29695e-06
-2.17772e-10
2.29771e-06
-3.93623e-10
2.29873e-06
-5.46209e-10
2.29995e-06
-6.52827e-10
2.30133e-06
-7.11093e-10
2.30282e-06
-7.2179e-10
2.30438e-06
-6.9033e-10
2.30597e-06
-6.26389e-10
2.30758e-06
-5.40077e-10
2.3092e-06
-4.40145e-10
2.3108e-06
-3.3395e-10
2.31239e-06
-2.27616e-10
2.31396e-06
-1.2611e-10
2.31552e-06
-3.33527e-11
2.31706e-06
4.76368e-11
2.31858e-06
1.14567e-10
1.65548e-10
2.32008e-06
1.68112e-06
-1.19661e-10
1.68138e-06
-4.75576e-10
1.6819e-06
-9.09989e-10
1.68264e-06
-1.28694e-09
1.68356e-06
-1.57474e-09
1.68462e-06
-1.77189e-09
1.68577e-06
-1.87508e-09
1.68698e-06
-1.89538e-09
1.68821e-06
-1.85328e-09
1.68943e-06
-1.76796e-09
1.69065e-06
-1.65484e-09
1.69184e-06
-1.52639e-09
1.69301e-06
-1.39246e-09
1.69414e-06
-1.26051e-09
1.69524e-06
-1.13599e-09
1.69631e-06
-1.02274e-09
1.69735e-06
-9.23372e-10
-8.39802e-10
1.69836e-06
1.46336e-06
-2.48545e-11
1.46344e-06
-5.57739e-10
1.46384e-06
-1.30078e-09
1.46448e-06
-1.92959e-09
1.46533e-06
-2.42607e-09
1.46634e-06
-2.78051e-09
1.46744e-06
-2.9748e-09
1.46857e-06
-3.03234e-09
1.46971e-06
-2.99226e-09
1.47083e-06
-2.88635e-09
1.47192e-06
-2.73854e-09
1.47296e-06
-2.56766e-09
1.47395e-06
-2.38794e-09
1.4749e-06
-2.20952e-09
1.4758e-06
-2.0393e-09
1.47666e-06
-1.88183e-09
1.47748e-06
-1.73994e-09
-1.61541e-09
1.47826e-06
1.27363e-06
3.57905e-10
1.2735e-06
-4.23165e-10
1.27379e-06
-1.59412e-09
1.27438e-06
-2.52329e-09
1.27523e-06
-3.27576e-09
1.27626e-06
-3.80613e-09
1.27736e-06
-4.0731e-09
1.27846e-06
-4.13332e-09
1.27952e-06
-4.05825e-09
1.28053e-06
-3.89683e-09
1.28148e-06
-3.68368e-09
1.28236e-06
-3.44515e-09
1.28317e-06
-3.1999e-09
1.28392e-06
-2.96013e-09
1.28461e-06
-2.73346e-09
1.28526e-06
-2.52444e-09
1.28585e-06
-2.33543e-09
-2.16755e-09
1.2864e-06
1.10825e-06
1.20379e-09
1.10789e-06
-6.92816e-11
1.10816e-06
-1.86209e-09
1.10879e-06
-3.15378e-09
1.10973e-06
-4.21589e-09
1.11084e-06
-4.91511e-09
1.11197e-06
-5.1986e-09
1.11303e-06
-5.1969e-09
1.114e-06
-5.02985e-09
1.11487e-06
-4.76629e-09
1.11564e-06
-4.45227e-09
1.11632e-06
-4.12117e-09
1.11691e-06
-3.79443e-09
1.11743e-06
-3.48434e-09
1.1179e-06
-3.19747e-09
1.11831e-06
-2.93693e-09
1.11868e-06
-2.7035e-09
-2.4969e-09
1.11901e-06
9.64047e-07
2.67873e-09
9.63537e-07
4.40458e-10
9.6389e-07
-2.21491e-09
9.64663e-07
-3.92723e-09
9.6578e-07
-5.33325e-09
9.67003e-07
-6.13727e-09
9.68133e-07
-6.32914e-09
9.69107e-07
-6.17029e-09
9.69917e-07
-5.84006e-09
9.70575e-07
-5.42491e-09
9.71102e-07
-4.97941e-09
9.71522e-07
-4.54022e-09
9.71854e-07
-4.12733e-09
9.7212e-07
-3.74952e-09
9.72332e-07
-3.40964e-09
9.72502e-07
-3.10745e-09
9.7264e-07
-2.84089e-09
-2.60747e-09
9.7275e-07
8.38143e-07
5.07115e-09
8.37747e-07
8.36456e-10
8.38367e-07
-2.83471e-09
8.3939e-07
-4.95017e-09
8.40725e-07
-6.66876e-09
8.42017e-07
-7.4296e-09
8.43059e-07
-7.37086e-09
8.4383e-07
-6.94138e-09
8.44368e-07
-6.37808e-09
8.44718e-07
-5.775e-09
8.44925e-07
-5.18631e-09
8.45029e-07
-4.64357e-09
8.4506e-07
-4.15853e-09
8.45042e-07
-3.73169e-09
8.44991e-07
-3.35916e-09
8.4492e-07
-3.03573e-09
8.44834e-07
-2.75558e-09
-2.51343e-09
8.4474e-07
7.27633e-07
9.16656e-09
7.28116e-07
3.53128e-10
7.29311e-07
-4.02963e-09
7.30686e-07
-6.32526e-09
7.32206e-07
-8.18843e-09
7.33428e-07
-8.65133e-09
7.34203e-07
-8.14629e-09
7.346e-07
-7.33814e-09
7.3472e-07
-6.4982e-09
7.34651e-07
-5.70594e-09
7.34462e-07
-4.99724e-09
7.34204e-07
-4.38538e-09
7.33911e-07
-3.86566e-09
7.33605e-07
-3.42592e-09
7.333e-07
-3.05364e-09
7.33002e-07
-2.73807e-09
7.32716e-07
-2.4699e-09
-2.24104e-09
7.32444e-07
6.30218e-07
1.59548e-08
6.32746e-07
-2.17426e-09
6.34726e-07
-6.00966e-09
6.36503e-07
-8.10277e-09
6.38066e-07
-9.75099e-09
6.38953e-07
-9.53802e-09
6.39185e-07
-8.37917e-09
6.38975e-07
-7.12796e-09
6.38509e-07
-6.03185e-09
6.37915e-07
-5.11191e-09
6.37274e-07
-4.35663e-09
6.36635e-07
-3.74585e-09
6.36022e-07
-3.25247e-09
6.35446e-07
-2.85057e-09
6.34912e-07
-2.51998e-09
6.34421e-07
-2.24611e-09
6.33968e-07
-2.01783e-09
-1.82503e-09
6.33552e-07
5.47191e-07
2.331e-08
5.51822e-07
-6.80529e-09
5.53519e-07
-7.70593e-09
5.55219e-07
-9.80335e-09
5.56309e-07
-1.0841e-08
5.56323e-07
-9.55145e-09
5.55565e-07
-7.62181e-09
5.54438e-07
-6.00044e-09
5.53204e-07
-4.79845e-09
5.52001e-07
-3.90858e-09
5.50886e-07
-3.24125e-09
5.49876e-07
-2.73633e-09
5.48972e-07
-2.34796e-09
5.48163e-07
-2.04236e-09
5.47441e-07
-1.79717e-09
5.46793e-07
-1.59886e-09
5.46214e-07
-1.43808e-09
-1.30621e-09
5.45695e-07
4.91614e-07
1.44562e-08
4.90698e-07
-5.8892e-09
4.8726e-07
-4.26735e-09
4.86294e-07
-8.83742e-09
4.84844e-07
-9.39121e-09
4.82497e-07
-7.20401e-09
4.79843e-07
-4.96768e-09
4.77331e-07
-3.48938e-09
4.75134e-07
-2.60122e-09
4.73265e-07
-2.03925e-09
4.71682e-07
-1.65833e-09
4.70335e-07
-1.38898e-09
4.69177e-07
-1.19082e-09
4.68174e-07
-1.03861e-09
4.67295e-07
-9.18281e-10
4.66521e-07
-8.24591e-10
4.65842e-07
-7.59205e-10
-7.68124e-10
4.65304e-07
4.34724e-07
4.28835e-07
4.24567e-07
4.1573e-07
4.06339e-07
3.99135e-07
3.94167e-07
3.90678e-07
3.88076e-07
3.86037e-07
3.84379e-07
3.8299e-07
3.81799e-07
3.8076e-07
3.79842e-07
3.79017e-07
3.78258e-07
3.7749e-07
1.83252e-08
-1.83252e-08
3.07237e-08
-1.23985e-08
3.50908e-08
-4.36717e-09
3.21551e-08
2.93573e-09
2.37936e-08
8.36146e-09
1.22975e-08
1.14962e-08
-7.54407e-10
1.30519e-08
-1.49736e-08
1.42192e-08
-3.05153e-08
1.55417e-08
-4.75031e-08
1.69878e-08
-6.59635e-08
1.84604e-08
-8.58081e-08
1.98446e-08
-1.06854e-07
2.10459e-08
-1.28852e-07
2.1998e-08
-1.51515e-07
2.26633e-08
-1.74545e-07
2.30296e-08
-1.9765e-07
2.31055e-08
-2.20565e-07
2.2915e-08
-2.43058e-07
2.24925e-08
-2.64935e-07
2.18775e-08
-2.86046e-07
2.11111e-08
-3.06279e-07
2.02329e-08
-3.25558e-07
1.92786e-08
-3.43837e-07
1.82793e-08
-3.61097e-07
1.72601e-08
-3.77338e-07
1.6241e-08
-3.92575e-07
1.52363e-08
-4.06831e-07
1.42559e-08
-4.20136e-07
1.33055e-08
-4.32524e-07
1.23877e-08
-4.44026e-07
1.15024e-08
-4.54673e-07
1.06473e-08
-4.64492e-07
9.81895e-09
-4.73505e-07
9.01257e-09
-4.81728e-07
8.22279e-09
-4.89172e-07
7.44377e-09
-4.95841e-07
6.66944e-09
-5.01735e-07
5.89372e-09
-5.06845e-07
5.11072e-09
-5.11161e-07
4.31509e-09
-5.14662e-07
3.50163e-09
-5.17327e-07
2.66518e-09
-5.19131e-07
1.80412e-09
-5.20059e-07
9.27559e-10
-5.20121e-07
6.17371e-11
-5.19365e-07
-7.55361e-10
-5.17838e-07
-1.52764e-09
-5.15547e-07
-2.29093e-09
-5.12485e-07
-3.06163e-09
-5.08638e-07
-3.84691e-09
-5.03989e-07
-4.64953e-09
-4.98519e-07
-5.46978e-09
-4.92212e-07
-6.30655e-09
-4.85055e-07
-7.15767e-09
-4.77035e-07
-8.02021e-09
-4.68144e-07
-8.89058e-09
-4.58379e-07
-9.7646e-09
-4.47742e-07
-1.06376e-08
-4.36237e-07
-1.15046e-08
-4.23877e-07
-1.236e-08
-4.10679e-07
-1.31983e-08
-3.96665e-07
-1.40137e-08
-3.81865e-07
-1.48005e-08
-3.66312e-07
-1.5553e-08
-3.50046e-07
-1.62658e-08
-3.33112e-07
-1.6934e-08
-3.15559e-07
-1.75529e-08
-2.97441e-07
-1.81185e-08
-2.78813e-07
-1.86276e-08
-2.59736e-07
-1.90774e-08
-2.4027e-07
-1.94661e-08
-2.20477e-07
-1.97924e-08
-2.00421e-07
-2.0056e-08
-1.80164e-07
-2.0257e-08
-1.59768e-07
-2.03964e-08
-1.39292e-07
-2.04753e-08
-1.18797e-07
-2.04952e-08
-9.83397e-08
-2.04575e-08
-7.79771e-08
-2.03626e-08
-5.7768e-08
-2.02091e-08
-3.77745e-08
-1.99935e-08
-1.80521e-08
-1.97224e-08
1.39443e-09
-1.94465e-08
2.05701e-08
-1.91757e-08
3.94386e-08
-1.88684e-08
5.79624e-08
-1.85238e-08
7.6118e-08
-1.81556e-08
9.3888e-08
-1.777e-08
1.11259e-07
-1.7371e-08
1.28221e-07
-1.6962e-08
1.44766e-07
-1.65454e-08
1.6089e-07
-1.61237e-08
1.76589e-07
-1.56988e-08
1.91861e-07
-1.52726e-08
2.06708e-07
-1.48464e-08
2.21129e-07
-1.44215e-08
2.35128e-07
-1.39987e-08
2.48707e-07
-1.35788e-08
2.61869e-07
-1.31619e-08
2.74617e-07
-1.27482e-08
2.86955e-07
-1.23376e-08
2.98884e-07
-1.19297e-08
3.10408e-07
-1.15241e-08
3.21528e-07
-1.11199e-08
3.32245e-07
-1.07164e-08
3.42558e-07
-1.03127e-08
3.52465e-07
-9.90788e-09
3.61966e-07
-9.5009e-09
3.71057e-07
-9.09088e-09
3.79734e-07
-8.67696e-09
3.87993e-07
-8.25841e-09
3.95827e-07
-7.83468e-09
4.03233e-07
-7.40541e-09
4.10203e-07
-6.97052e-09
4.16733e-07
-6.53018e-09
4.22818e-07
-6.08488e-09
4.28454e-07
-5.63548e-09
4.33637e-07
-5.18313e-09
4.38366e-07
-4.72938e-09
4.42642e-07
-4.27605e-09
4.46468e-07
-3.82528e-09
4.49847e-07
-3.37941e-09
4.52788e-07
-2.94096e-09
4.553e-07
-2.51244e-09
4.57396e-07
-2.09595e-09
4.59088e-07
-1.69139e-09
4.6038e-07
-1.29279e-09
4.61264e-07
-8.83711e-10
4.61711e-07
-4.46558e-10
4.61728e-07
-1.76992e-11
4.61396e-07
3.32194e-10
4.60805e-07
5.90933e-10
4.60018e-07
7.87604e-10
4.59076e-07
9.42016e-10
4.58011e-07
1.06449e-09
4.5685e-07
1.16135e-09
4.55613e-07
1.23663e-09
4.5432e-07
1.29326e-09
4.52986e-07
1.33367e-09
4.51626e-07
1.36003e-09
4.50252e-07
1.37436e-09
4.48873e-07
1.37851e-09
4.47499e-07
1.37417e-09
4.46136e-07
1.36289e-09
4.4479e-07
1.34605e-09
4.43465e-07
1.32488e-09
4.42165e-07
1.30049e-09
4.40891e-07
1.27382e-09
4.39645e-07
1.24571e-09
4.38429e-07
1.21688e-09
4.37241e-07
1.18794e-09
4.36081e-07
1.15943e-09
4.34949e-07
1.13179e-09
4.33844e-07
1.10541e-09
4.32763e-07
1.08062e-09
4.31706e-07
1.05773e-09
4.30669e-07
1.03703e-09
4.2965e-07
1.01878e-09
4.28647e-07
1.00328e-09
4.27656e-07
9.90856e-10
4.26674e-07
9.81924e-10
4.25697e-07
9.76974e-10
4.2472e-07
9.76667e-10
4.23738e-07
9.8186e-10
4.22744e-07
9.93727e-10
4.21731e-07
1.01386e-09
4.20686e-07
1.04444e-09
4.19598e-07
1.08856e-09
4.18447e-07
1.1506e-09
4.1721e-07
1.23696e-09
4.15853e-07
1.35721e-09
4.14327e-07
1.52618e-09
4.12559e-07
1.76797e-09
4.10435e-07
2.12335e-09
4.07767e-07
2.66877e-09
4.04221e-07
3.54511e-09
3.99124e-07
5.09749e-09
3.91258e-07
7.86552e-09
3.77018e-07
1.42403e-08
2.38062e-08
3.53212e-07
2.27899e-09
-2.06042e-08
-4.47149e-09
-5.648e-09
-1.4112e-08
5.27335e-09
-2.52814e-08
1.41051e-08
-3.81444e-08
2.12245e-08
-5.32924e-08
2.66442e-08
-7.09457e-08
3.07052e-08
-9.06931e-08
3.39666e-08
-1.11935e-07
3.67836e-08
-1.34184e-07
3.92371e-08
-1.57004e-07
4.12805e-08
-1.80001e-07
4.28409e-08
-2.0282e-07
4.38656e-08
-2.25159e-07
4.43368e-08
-2.46768e-07
4.42725e-08
-2.67458e-07
4.37189e-08
-2.87095e-07
4.27423e-08
-3.05599e-07
4.14197e-08
-3.22938e-07
3.98309e-08
-3.39112e-07
3.80522e-08
-3.54153e-07
3.61521e-08
-3.68109e-07
3.41889e-08
-3.81041e-07
3.22097e-08
-3.93012e-07
3.02503e-08
-4.04088e-07
2.83364e-08
-4.14332e-07
2.64849e-08
-4.238e-07
2.47049e-08
-4.32545e-07
2.30001e-08
-4.40608e-07
2.13694e-08
-4.48029e-07
1.98087e-08
-4.54838e-07
1.83114e-08
-4.61061e-07
1.68697e-08
-4.66717e-07
1.54749e-08
-4.71822e-07
1.4118e-08
-4.76389e-07
1.27901e-08
-4.80428e-07
1.14826e-08
-4.83946e-07
1.01876e-08
-4.8695e-07
8.89782e-09
-4.89447e-07
7.60697e-09
-4.91441e-07
6.30986e-09
-4.92942e-07
5.00263e-09
-4.93961e-07
3.68353e-09
-4.94511e-07
2.35391e-09
-4.94599e-07
1.01612e-09
-4.94204e-07
-3.33855e-10
-4.93246e-07
-1.713e-09
-4.91641e-07
-3.13297e-09
-4.89338e-07
-4.59352e-09
-4.86305e-07
-6.09493e-09
-4.82514e-07
-7.63722e-09
-4.77945e-07
-9.21928e-09
-4.72576e-07
-1.08388e-08
-4.6639e-07
-1.24921e-08
-4.59374e-07
-1.41743e-08
-4.51514e-07
-1.58793e-08
-4.42805e-07
-1.76e-08
-4.33242e-07
-1.93279e-08
-4.22825e-07
-2.1054e-08
-4.11562e-07
-2.27681e-08
-3.99462e-07
-2.44596e-08
-3.86543e-07
-2.61175e-08
-3.72827e-07
-2.77303e-08
-3.5834e-07
-2.92869e-08
-3.43117e-07
-3.0776e-08
-3.27196e-07
-3.21872e-08
-3.10619e-07
-3.35105e-08
-2.93435e-07
-3.4737e-08
-2.75695e-07
-3.58588e-08
-2.57453e-07
-3.68693e-08
-2.38767e-07
-3.77633e-08
-2.19696e-07
-3.85368e-08
-2.00301e-07
-3.91878e-08
-1.80642e-07
-3.97151e-08
-1.60779e-07
-4.01193e-08
-1.40774e-07
-4.04022e-08
-1.20683e-07
-4.05665e-08
-1.00562e-07
-4.06159e-08
-8.04648e-08
-4.05546e-08
-6.04402e-08
-4.03872e-08
-4.05317e-08
-4.01177e-08
-2.07738e-08
-3.97514e-08
-1.1946e-09
-3.93016e-08
1.81473e-08
-3.87883e-08
3.71916e-08
-3.822e-08
5.59194e-08
-3.75962e-08
7.43179e-08
-3.69224e-08
9.23694e-08
-3.62071e-08
1.10058e-07
-3.54582e-08
1.27369e-07
-3.46819e-08
1.44291e-07
-3.38842e-08
1.60816e-07
-3.30702e-08
1.76937e-07
-3.22447e-08
1.92649e-07
-3.14117e-08
2.07952e-07
-3.05748e-08
2.22842e-07
-2.97371e-08
2.37322e-07
-2.89011e-08
2.51392e-07
-2.80685e-08
2.65054e-07
-2.72409e-08
2.78311e-07
-2.6419e-08
2.91166e-07
-2.56031e-08
3.03622e-07
-2.47932e-08
3.15681e-07
-2.39888e-08
3.27346e-07
-2.3189e-08
3.38618e-07
-2.23925e-08
3.49499e-07
-2.15979e-08
3.5999e-07
-2.08035e-08
3.7009e-07
-2.00077e-08
3.79798e-07
-1.92086e-08
3.89111e-07
-1.84045e-08
3.98028e-07
-1.75938e-08
4.06545e-07
-1.6775e-08
4.14657e-07
-1.59471e-08
4.22361e-07
-1.51092e-08
4.29652e-07
-1.42611e-08
4.36524e-07
-1.3403e-08
4.42975e-07
-1.25355e-08
4.49e-07
-1.16602e-08
4.54596e-07
-1.07788e-08
4.5976e-07
-9.89418e-09
4.64494e-07
-9.00936e-09
4.68796e-07
-8.12811e-09
4.72672e-07
-7.2546e-09
4.76124e-07
-6.3933e-09
4.7916e-07
-5.54874e-09
4.81789e-07
-4.72489e-09
4.84022e-07
-3.92401e-09
4.85874e-07
-3.14538e-09
4.87378e-07
-2.387e-09
4.88586e-07
-1.65468e-09
4.89533e-07
-9.64912e-10
4.90202e-07
-3.36989e-10
4.90577e-07
2.15825e-10
4.90672e-07
6.93077e-10
4.90512e-07
1.10222e-09
4.90125e-07
1.45072e-09
4.89542e-07
1.74492e-09
4.88788e-07
1.99021e-09
4.8789e-07
2.19126e-09
4.86872e-07
2.35241e-09
4.85754e-07
2.47777e-09
4.84557e-07
2.57131e-09
4.83299e-07
2.63682e-09
4.81995e-07
2.67798e-09
4.80659e-07
2.69825e-09
4.79305e-07
2.70086e-09
4.77941e-07
2.68881e-09
4.76576e-07
2.66484e-09
4.75219e-07
2.63143e-09
4.73874e-07
2.59083e-09
4.72545e-07
2.54499e-09
4.71238e-07
2.49566e-09
4.69953e-07
2.44437e-09
4.68692e-07
2.39241e-09
4.67457e-07
2.34097e-09
4.66246e-07
2.29101e-09
4.65061e-07
2.24343e-09
4.63899e-07
2.199e-09
4.62759e-07
2.15844e-09
4.6164e-07
2.12246e-09
4.60539e-07
2.09179e-09
4.59453e-07
2.06723e-09
4.58381e-07
2.04971e-09
4.57317e-07
2.04039e-09
4.56258e-07
2.04074e-09
4.55199e-07
2.0527e-09
4.54134e-07
2.07889e-09
4.53056e-07
2.12284e-09
4.51955e-07
2.18949e-09
4.5082e-07
2.28575e-09
4.49635e-07
2.42161e-09
4.4838e-07
2.61173e-09
4.47028e-07
2.87831e-09
4.4554e-07
3.25649e-09
4.4386e-07
3.80346e-09
4.41907e-07
4.62193e-09
4.39562e-07
5.88933e-09
4.36639e-07
8.02045e-09
4.32868e-07
1.16374e-08
4.27836e-07
1.92721e-08
3.30021e-08
4.1864e-07
-1.49444e-08
-5.65979e-09
-3.03609e-08
9.76848e-09
-4.57374e-08
2.06499e-08
-6.13393e-08
2.9707e-08
-7.74658e-08
3.73509e-08
-9.44831e-08
4.36615e-08
-1.12552e-07
4.87738e-08
-1.31469e-07
5.28839e-08
-1.50828e-07
5.61429e-08
-1.70209e-07
5.86177e-08
-1.89254e-07
6.03257e-08
-2.07692e-07
6.12791e-08
-2.25337e-07
6.15107e-08
-2.42081e-07
6.10801e-08
-2.57878e-07
6.00694e-08
-2.72733e-07
5.85745e-08
-2.86687e-07
5.66957e-08
-2.99797e-07
5.45304e-08
-3.12134e-07
5.21674e-08
-3.23765e-07
4.96838e-08
-3.34757e-07
4.71433e-08
-3.45164e-07
4.45964e-08
-3.55035e-07
4.20807e-08
-3.64408e-07
3.96229e-08
-3.73312e-07
3.72403e-08
-3.81769e-07
3.49421e-08
-3.89795e-07
3.27316e-08
-3.97403e-07
3.06075e-08
-4.04598e-07
2.85648e-08
-4.11386e-07
2.65962e-08
-4.17767e-07
2.46928e-08
-4.23742e-07
2.28448e-08
-4.29309e-07
2.10417e-08
-4.34464e-07
1.92731e-08
-4.39203e-07
1.75288e-08
-4.43519e-07
1.57988e-08
-4.47405e-07
1.4074e-08
-4.50853e-07
1.23455e-08
-4.53852e-07
1.06056e-08
-4.56389e-07
8.847e-09
-4.5845e-07
7.06339e-09
-4.60015e-07
5.249e-09
-4.6106e-07
3.39845e-09
-4.61549e-07
1.50525e-09
-4.61443e-07
-4.40009e-10
-4.60708e-07
-2.44717e-09
-4.5932e-07
-4.52147e-09
-4.5725e-07
-6.66378e-09
-4.54471e-07
-8.87334e-09
-4.5096e-07
-1.11483e-08
-4.46694e-07
-1.34858e-08
-4.41651e-07
-1.58813e-08
-4.35814e-07
-1.83287e-08
-4.29168e-07
-2.08205e-08
-4.217e-07
-2.33474e-08
-4.13402e-07
-2.58984e-08
-4.04268e-07
-2.84612e-08
-3.943e-07
-3.10219e-08
-3.83503e-07
-3.35656e-08
-3.71886e-07
-3.60764e-08
-3.59466e-07
-3.85378e-08
-3.46263e-07
-4.09328e-08
-3.32305e-07
-4.32448e-08
-3.17624e-07
-4.54572e-08
-3.02257e-07
-4.75542e-08
-2.86246e-07
-4.95213e-08
-2.69638e-07
-5.13451e-08
-2.52483e-07
-5.30139e-08
-2.34835e-07
-5.4518e-08
-2.16748e-07
-5.58497e-08
-1.98282e-07
-5.70034e-08
-1.79494e-07
-5.79755e-08
-1.60444e-07
-5.87649e-08
-1.41191e-07
-5.93723e-08
-1.21793e-07
-5.98005e-08
-1.02305e-07
-6.00539e-08
-8.27825e-08
-6.01385e-08
-6.32756e-08
-6.00616e-08
-4.38313e-08
-5.98315e-08
-2.44912e-08
-5.94577e-08
-5.29119e-09
-5.89515e-08
1.37311e-08
-5.8324e-08
3.2532e-08
-5.75892e-08
5.10732e-08
-5.67612e-08
6.93274e-08
-5.58504e-08
8.72725e-08
-5.48675e-08
1.04889e-07
-5.38232e-08
1.22158e-07
-5.27278e-08
1.39067e-07
-5.15904e-08
1.55602e-07
-5.04198e-08
1.71756e-07
-4.92237e-08
1.8752e-07
-4.80092e-08
2.02891e-07
-4.67826e-08
2.17866e-07
-4.55493e-08
2.32442e-07
-4.43138e-08
2.46621e-07
-4.308e-08
2.60404e-07
-4.18508e-08
2.73791e-07
-4.06283e-08
2.86786e-07
-3.9414e-08
2.99391e-07
-3.82085e-08
3.1161e-07
-3.70118e-08
3.23444e-07
-3.58233e-08
3.34897e-07
-3.4642e-08
3.45971e-07
-3.34661e-08
3.56667e-07
-3.22937e-08
3.66986e-07
-3.11225e-08
3.76928e-07
-2.99502e-08
3.86494e-07
-2.87741e-08
3.95681e-07
-2.75919e-08
4.04488e-07
-2.64011e-08
4.12913e-07
-2.51997e-08
4.20952e-07
-2.39861e-08
4.28602e-07
-2.27591e-08
4.35859e-07
-2.15181e-08
4.42719e-07
-2.02633e-08
4.49179e-07
-1.89955e-08
4.55236e-07
-1.77165e-08
4.60886e-07
-1.64288e-08
4.66128e-07
-1.51359e-08
4.7096e-07
-1.38421e-08
4.75384e-07
-1.25523e-08
4.79402e-07
-1.12722e-08
4.83017e-07
-1.00081e-08
4.86234e-07
-8.76612e-09
4.89062e-07
-7.55244e-09
4.9151e-07
-6.37213e-09
4.93594e-07
-5.22931e-09
4.95336e-07
-4.12899e-09
4.96761e-07
-3.08026e-09
4.97891e-07
-2.09414e-09
4.98735e-07
-1.18105e-09
4.99301e-07
-3.50069e-10
4.99599e-07
3.94362e-10
4.99649e-07
1.05297e-09
4.9947e-07
1.62933e-09
4.99087e-07
2.12809e-09
4.98523e-07
2.55425e-09
4.97801e-07
2.91297e-09
4.96944e-07
3.2095e-09
4.95973e-07
3.4492e-09
4.94906e-07
3.63747e-09
4.93763e-07
3.77971e-09
4.9256e-07
3.88123e-09
4.91311e-07
3.94717e-09
4.9003e-07
3.98247e-09
4.88727e-07
3.99179e-09
4.87412e-07
3.97946e-09
4.86094e-07
3.94948e-09
4.84779e-07
3.90548e-09
4.83474e-07
3.85074e-09
4.82181e-07
3.78816e-09
4.80905e-07
3.72032e-09
4.79648e-07
3.6495e-09
4.78411e-07
3.57767e-09
4.77196e-07
3.50656e-09
4.76002e-07
3.43769e-09
4.74828e-07
3.37243e-09
4.73675e-07
3.31201e-09
4.72539e-07
3.25761e-09
4.71421e-07
3.2104e-09
4.70316e-07
3.17165e-09
4.69223e-07
3.14278e-09
4.68138e-07
3.12548e-09
4.67057e-07
3.12189e-09
4.65975e-07
3.13477e-09
4.64886e-07
3.16777e-09
4.63783e-07
3.22585e-09
4.62657e-07
3.31581e-09
4.61495e-07
3.44716e-09
4.60284e-07
3.63346e-09
4.59001e-07
3.89446e-09
4.57619e-07
4.25966e-09
4.56101e-07
4.77475e-09
4.54392e-07
5.51253e-09
4.52416e-07
6.59787e-09
4.50064e-07
8.24127e-09
4.47205e-07
1.08798e-08
4.43648e-07
1.5194e-08
4.39723e-07
2.31976e-08
3.69785e-08
4.35746e-07
-2.15938e-08
1.5934e-08
-4.11842e-08
2.93589e-08
-5.95094e-08
3.89751e-08
-7.70373e-08
4.72349e-08
-9.41221e-08
5.44358e-08
-1.11012e-07
6.0551e-08
-1.27793e-07
6.55552e-08
-1.44384e-07
6.94744e-08
-1.60604e-07
7.23635e-08
-1.7627e-07
7.42834e-08
-1.91243e-07
7.52988e-08
-2.0545e-07
7.54861e-08
-2.18876e-07
7.4937e-08
-2.31552e-07
7.37562e-08
-2.43538e-07
7.20546e-08
-2.54905e-07
6.99421e-08
-2.65731e-07
6.75214e-08
-2.76085e-07
6.48842e-08
-2.86026e-07
6.2109e-08
-2.95603e-07
5.92603e-08
-3.04849e-07
5.63896e-08
-3.13789e-07
5.35359e-08
-3.22436e-07
5.07276e-08
-3.30797e-07
4.79839e-08
-3.38873e-07
4.53165e-08
-3.46661e-07
4.27307e-08
-3.54157e-07
4.02273e-08
-3.61353e-07
3.78032e-08
-3.6824e-07
3.54522e-08
-3.74811e-07
3.31665e-08
-3.81055e-07
3.09366e-08
-3.86962e-07
2.87522e-08
-3.92522e-07
2.66021e-08
-3.97725e-07
2.44755e-08
-4.02557e-07
2.2361e-08
-4.07006e-07
2.02477e-08
-4.11057e-07
1.8125e-08
-4.14694e-07
1.59826e-08
-4.17899e-07
1.38108e-08
-4.20653e-07
1.16003e-08
-4.22932e-07
9.34223e-09
-4.24711e-07
7.0283e-09
-4.25963e-07
4.65039e-09
-4.26658e-07
2.20033e-09
-4.26768e-07
-3.30046e-10
-4.26267e-07
-2.94762e-09
-4.25132e-07
-5.65675e-09
-4.23337e-07
-8.45891e-09
-4.20857e-07
-1.13535e-08
-4.17667e-07
-1.43382e-08
-4.13744e-07
-1.74087e-08
-4.09066e-07
-2.05589e-08
-4.03615e-07
-2.37806e-08
-3.97372e-07
-2.70634e-08
-3.90324e-07
-3.03948e-08
-3.82463e-07
-3.37601e-08
-3.73781e-07
-3.71426e-08
-3.64279e-07
-4.05239e-08
-3.53961e-07
-4.3884e-08
-3.42836e-07
-4.72015e-08
-3.30919e-07
-5.04544e-08
-3.18232e-07
-5.36202e-08
-3.048e-07
-5.66764e-08
-2.90656e-07
-5.96011e-08
-2.75837e-07
-6.23733e-08
-2.60385e-07
-6.49737e-08
-2.44345e-07
-6.73845e-08
-2.27769e-07
-6.95905e-08
-2.10708e-07
-7.15788e-08
-1.93219e-07
-7.33393e-08
-1.75357e-07
-7.48648e-08
-1.57182e-07
-7.6151e-08
-1.3875e-07
-7.71964e-08
-1.2012e-07
-7.80022e-08
-1.01348e-07
-7.85725e-08
-8.24887e-08
-7.89134e-08
-6.35938e-08
-7.90334e-08
-4.47128e-08
-7.89426e-08
-2.58913e-08
-7.8653e-08
-7.17096e-09
-7.8178e-08
1.14085e-08
-7.75309e-08
2.98106e-08
-7.67261e-08
4.80017e-08
-7.57803e-08
6.59496e-08
-7.47091e-08
8.36266e-08
-7.35274e-08
1.01009e-07
-7.22498e-08
1.18076e-07
-7.08902e-08
1.3481e-07
-6.94621e-08
1.51197e-07
-6.79776e-08
1.67226e-07
-6.64483e-08
1.82887e-07
-6.48845e-08
1.98173e-07
-6.32957e-08
2.13081e-07
-6.16901e-08
2.27606e-07
-6.00748e-08
2.41748e-07
-5.84561e-08
2.55507e-07
-5.6839e-08
2.68884e-07
-5.52275e-08
2.8188e-07
-5.36245e-08
2.94498e-07
-5.2032e-08
3.06741e-07
-5.0451e-08
3.18611e-07
-4.88817e-08
3.30111e-07
-4.73234e-08
3.41244e-07
-4.57749e-08
3.52012e-07
-4.42342e-08
3.62417e-07
-4.26988e-08
3.7246e-07
-4.11659e-08
3.82143e-07
-3.96325e-08
3.91464e-07
-3.80953e-08
4.00423e-07
-3.65513e-08
4.0902e-07
-3.49975e-08
4.17251e-07
-3.34311e-08
4.25115e-07
-3.18501e-08
4.32609e-07
-3.02528e-08
4.39729e-07
-2.86384e-08
4.46473e-07
-2.70069e-08
4.52836e-07
-2.53592e-08
4.58817e-07
-2.36973e-08
4.64413e-07
-2.20244e-08
4.69621e-07
-2.03444e-08
4.74441e-07
-1.86625e-08
4.78874e-07
-1.6985e-08
4.8292e-07
-1.53186e-08
4.86584e-07
-1.36711e-08
4.89868e-07
-1.20505e-08
4.9278e-07