/*--------------------------------*- C++ -*----------------------------------*\
  =========                 |
  \\      /  F ield         | OpenFOAM: The Open Source CFD Toolbox
   \\    /   O peration     | Website:  https://openfoam.org
    \\  /    A nd           | Version:  6
     \\/     M anipulation  |
\*---------------------------------------------------------------------------*/
FoamFile
{
    version     2.0;
    format      ascii;
    class       volVectorField;
    location    "0.17";
    object      U;
}
// * * * * * * * * * * * * * * * * * * * * * * * * * * * * * * * * * * * * * //

dimensions      [0 1 -1 0 0 0 0];

internalField   nonuniform List<vector> 
12225
(
(0.948757 -0.405569 0)
(1.0127 -0.19067 0)
(1.01475 -0.0513937 0)
(0.983388 -0.00514279 0)
(0.955341 0.00452313 0)
(0.936917 0.00423599 0)
(0.924675 0.00259581 0)
(0.915976 0.00149927 0)
(0.909458 0.000957593 0)
(0.904262 0.000707326 0)
(0.899867 0.000585298 0)
(0.896001 0.000522919 0)
(0.892507 0.000492408 0)
(0.88929 0.000484299 0)
(0.886192 0.000484238 0)
(0.883474 0.000514509 0)
(0.87982 0.000486329 0)
(0.881786 -9.46318e-05 0)
(1.03698 0.0761208 0)
(1.02001 0.0533182 0)
(1.01136 0.0193967 0)
(1.00433 0.00901424 0)
(0.997981 0.00672355 0)
(0.991227 0.00528923 0)
(0.984054 0.00403942 0)
(0.977493 0.00318763 0)
(0.972039 0.00265457 0)
(0.967539 0.0022997 0)
(0.963717 0.00205369 0)
(0.960385 0.00188743 0)
(0.957414 0.00178024 0)
(0.954715 0.00172208 0)
(0.952158 0.00168745 0)
(0.949844 0.00173902 0)
(0.947152 0.00148284 0)
(0.945332 0.00207868 0)
(0.998333 0.0132119 0)
(0.995364 0.011954 0)
(1.00082 0.00640547 0)
(1.00193 0.00652024 0)
(1.00125 0.00702033 0)
(0.999332 0.00633538 0)
(0.995999 0.00527843 0)
(0.992134 0.00440404 0)
(0.988462 0.00376929 0)
(0.985164 0.00330744 0)
(0.982207 0.00297557 0)
(0.979537 0.00274693 0)
(0.977094 0.00259828 0)
(0.974828 0.00251772 0)
(0.972654 0.00248432 0)
(0.970592 0.00253772 0)
(0.968356 0.00248211 0)
(0.966153 0.00274833 0)
(0.995105 -0.00695118 0)
(0.992488 0.00125305 0)
(0.998603 0.00393792 0)
(1.00083 0.00595355 0)
(1.00162 0.00705112 0)
(1.0016 0.0068133 0)
(1.00027 0.00604103 0)
(0.998135 0.0052892 0)
(0.995785 0.00467731 0)
(0.993467 0.0041964 0)
(0.99125 0.00383421 0)
(0.989155 0.00357756 0)
(0.987175 0.00341034 0)
(0.985287 0.00332431 0)
(0.983441 0.00330631 0)
(0.981631 0.0033872 0)
(0.979698 0.00346933 0)
(0.977638 0.00384983 0)
(0.996671 -0.00694004 0)
(0.993821 0.000828744 0)
(0.998056 0.00375513 0)
(1.00007 0.00555661 0)
(1.00135 0.00677761 0)
(1.00219 0.00688277 0)
(1.00199 0.00641664 0)
(1.00098 0.00585447 0)
(0.999609 0.00533851 0)
(0.998081 0.00489987 0)
(0.996499 0.0045533 0)
(0.994919 0.0043018 0)
(0.993363 0.00414007 0)
(0.991831 0.0040665 0)
(0.990298 0.00407737 0)
(0.988753 0.00420116 0)
(0.987112 0.00440663 0)
(0.985324 0.00489909 0)
(0.997828 -0.00414797 0)
(0.995154 0.00128108 0)
(0.99787 0.0034885 0)
(0.999572 0.00506573 0)
(1.00099 0.00633473 0)
(1.0022 0.0066922 0)
(1.00263 0.00649804 0)
(1.00237 0.00613791 0)
(1.0017 0.00575302 0)
(1.00079 0.00539659 0)
(0.999744 0.00510172 0)
(0.998618 0.00488502 0)
(0.997449 0.00475204 0)
(0.996253 0.00470868 0)
(0.995023 0.00476046 0)
(0.993752 0.00493586 0)
(0.992407 0.00524168 0)
(0.990938 0.00581416 0)
(0.998451 -0.00256888 0)
(0.996208 0.00118484 0)
(0.997945 0.0030614 0)
(0.999346 0.00455741 0)
(1.00072 0.00582832 0)
(1.00203 0.00635587 0)
(1.00279 0.00638124 0)
(1.003 0.00620666 0)
(1.00283 0.00596094 0)
(1.0024 0.00570629 0)
(1.00179 0.00548564 0)
(1.00105 0.00532494 0)
(1.00023 0.00523856 0)
(0.999347 0.00523917 0)
(0.998406 0.00533974 0)
(0.997413 0.00556891 0)
(0.996361 0.00595121 0)
(0.995223 0.00657545 0)
(0.998884 -0.00172587 0)
(0.997114 0.000999723 0)
(0.998212 0.0026911 0)
(0.999331 0.00409617 0)
(1.00056 0.00531467 0)
(1.00183 0.00594313 0)
(1.00275 0.0061345 0)
(1.00324 0.00611739 0)
(1.00341 0.00600334 0)
(1.00334 0.00585522 0)
(1.00307 0.00571938 0)
(1.00266 0.00562694 0)
(1.00214 0.00559835 0)
(1.00154 0.00565131 0)
(1.00087 0.00580374 0)
(1.00015 0.0060834 0)
(0.999384 0.00651995 0)
(0.998568 0.00716988 0)
(0.999234 -0.00110936 0)
(0.997897 0.000922817 0)
(0.998573 0.00241826 0)
(0.99945 0.00369335 0)
(1.00051 0.00482145 0)
(1.00168 0.00549633 0)
(1.00263 0.00580453 0)
(1.00329 0.00591296 0)
(1.00368 0.0059145 0)
(1.00386 0.00586764 0)
(1.00386 0.00581784 0)
(1.00371 0.00579801 0)
(1.00345 0.00583192 0)
(1.00311 0.0059401 0)
(1.00269 0.00614283 0)
(1.00222 0.00646565 0)
(1.00172 0.0069362 0)
(1.00121 0.00758865 0)
(0.999502 -0.000620029 0)
(0.998542 0.000919876 0)
(0.998956 0.00221239 0)
(0.999645 0.00334269 0)
(1.00054 0.00436153 0)
(1.00158 0.0050418 0)
(1.00252 0.00542411 0)
(1.00325 0.00562622 0)
(1.00378 0.00572287 0)
(1.00413 0.00576557 0)
(1.00433 0.00579615 0)
(1.00439 0.00584674 0)
(1.00435 0.005942 0)
(1.00422 0.0061032 0)
(1.00403 0.00635063 0)
(1.00379 0.00670643 0)
(1.00354 0.00719293 0)
(1.00329 0.00782894 0)
(0.999692 -0.000262945 0)
(0.999048 0.000936236 0)
(0.999316 0.00204426 0)
(0.999871 0.00303407 0)
(1.00063 0.00393815 0)
(1.00155 0.00459446 0)
(1.00243 0.0050156 0)
(1.00318 0.00528194 0)
(1.00379 0.00545178 0)
(1.00426 0.00556859 0)
(1.0046 0.00566909 0)
(1.00482 0.00578284 0)
(1.00496 0.00593343 0)
(1.00502 0.00614113 0)
(1.00502 0.00642448 0)
(1.00499 0.00680144 0)
(1.00496 0.00728809 0)
(1.00494 0.00789292 0)
(0.99981 -4.25347e-05 0)
(0.999396 0.000943998 0)
(0.999605 0.00190556 0)
(1.00008 0.00277726 0)
(1.00075 0.00357911 0)
(1.00156 0.00419621 0)
(1.00238 0.00462818 0)
(1.00312 0.00493035 0)
(1.00376 0.00514803 0)
(1.0043 0.00531732 0)
(1.00473 0.00546976 0)
(1.00508 0.00563153 0)
(1.00534 0.00582403 0)
(1.00554 0.00606543 0)
(1.0057 0.00637164 0)
(1.00583 0.00675657 0)
(1.00597 0.00723097 0)
(1.00613 0.00779692 0)
(0.99989 0.000100865 0)
(0.999656 0.000937949 0)
(0.999845 0.00177213 0)
(1.00027 0.00253677 0)
(1.00086 0.00324271 0)
(1.00159 0.00381178 0)
(1.00235 0.00423826 0)
(1.00307 0.00455931 0)
(1.00373 0.00480924 0)
(1.00431 0.00501732 0)
(1.00481 0.0052099 0)
(1.00524 0.00540936 0)
(1.00561 0.00563425 0)
(1.00593 0.00590006 0)
(1.00622 0.00621963 0)
(1.00649 0.00660303 0)
(1.00677 0.00705648 0)
(1.00708 0.00757764 0)
(0.999948 0.000191272 0)
(0.999861 0.000903994 0)
(1.00006 0.0016165 0)
(1.00045 0.00227241 0)
(1.00099 0.00287738 0)
(1.00165 0.00338526 0)
(1.00235 0.00378939 0)
(1.00304 0.00411323 0)
(1.0037 0.00438159 0)
(1.00431 0.00461688 0)
(1.00487 0.00483972 0)
(1.00538 0.00506802 0)
(1.00584 0.0053166 0)
(1.00627 0.00559745 0)
(1.00667 0.00591982 0)
(1.00708 0.00628982 0)
(1.00749 0.00670962 0)
(1.00793 0.00717413 0)
(0.999984 0.000228861 0)
(1 0.000828872 0)
(1.00022 0.00142298 0)
(1.00061 0.00197012 0)
(1.00111 0.00247255 0)
(1.00172 0.00290854 0)
(1.00237 0.00327378 0)
(1.00304 0.00358252 0)
(1.00369 0.00385197 0)
(1.00432 0.00409824 0)
(1.00492 0.00433627 0)
(1.00548 0.00457905 0)
(1.00603 0.00483717 0)
(1.00655 0.00511869 0)
(1.00706 0.00542908 0)
(1.00757 0.00577085 0)
(1.0081 0.00614303 0)
(1.00865 0.00653921 0)
(1 0.00021914 0)
(1.00009 0.000703591 0)
(1.00033 0.00117547 0)
(1.00072 0.00161052 0)
(1.00121 0.00200911 0)
(1.00178 0.00236426 0)
(1.0024 0.00267518 0)
(1.00305 0.00295062 0)
(1.0037 0.00320187 0)
(1.00434 0.00343964 0)
(1.00497 0.00367361 0)
(1.00559 0.00391198 0)
(1.00619 0.00416104 0)
(1.00678 0.004425 0)
(1.00738 0.00470589 0)
(1.00798 0.00500337 0)
(1.00859 0.00531446 0)
(1.00922 0.0056325 0)
(1.00001 0.000171895 0)
(1.00013 0.000523554 0)
(1.00039 0.000860438 0)
(1.00078 0.00117236 0)
(1.00127 0.0014602 0)
(1.00183 0.00172385 0)
(1.00244 0.00196491 0)
(1.00308 0.00218871 0)
(1.00373 0.00240184 0)
(1.00439 0.00261032 0)
(1.00505 0.0028192 0)
(1.0057 0.00303234 0)
(1.00635 0.00325216 0)
(1.00699 0.00347959 0)
(1.00764 0.00371396 0)
(1.0083 0.00395303 0)
(1.00896 0.00419292 0)
(1.00964 0.00442746 0)
(1.00001 9.70989e-05 0)
(1.00015 0.000288131 0)
(1.00041 0.000466962 0)
(1.0008 0.00063418 0)
(1.00129 0.000793856 0)
(1.00185 0.000948715 0)
(1.00247 0.00110097 0)
(1.00311 0.00125329 0)
(1.00378 0.0014081 0)
(1.00446 0.00156708 0)
(1.00514 0.00173109 0)
(1.00582 0.0019002 0)
(1.0065 0.00207361 0)
(1.00717 0.00224964 0)
(1.00785 0.00242579 0)
(1.00853 0.00259876 0)
(1.00921 0.00276451 0)
(1.0099 0.00291776 0)
(1.00001 3.18055e-06 0)
(1.00014 -1.03008e-06 0)
(1.0004 -1.61883e-05 0)
(1.00079 -2.80896e-05 0)
(1.00128 -2.68487e-05 0)
(1.00185 -8.18803e-06 0)
(1.00248 3.01587e-05 0)
(1.00315 8.83976e-05 0)
(1.00384 0.000164736 0)
(1.00454 0.000256376 0)
(1.00524 0.000360154 0)
(1.00594 0.000472687 0)
(1.00664 0.000590406 0)
(1.00733 0.000709603 0)
(1.00801 0.000826483 0)
(1.00869 0.000937206 0)
(1.00935 0.00103786 0)
(1.01001 0.00112406 0)
(1.00001 -6.6674e-05 0)
(1.00008 -0.000247305 0)
(1.0003 -0.00045946 0)
(1.00067 -0.00065744 0)
(1.00118 -0.000823333 0)
(1.00177 -0.00095013 0)
(1.00244 -0.00103212 0)
(1.00314 -0.00107009 0)
(1.00387 -0.00107024 0)
(1.0046 -0.00104001 0)
(1.00533 -0.000986532 0)
(1.00605 -0.000916513 0)
(1.00675 -0.000836164 0)
(1.00744 -0.000751096 0)
(1.0081 -0.00066632 0)
(1.00875 -0.000586297 0)
(1.00938 -0.000515044 0)
(1.00998 -0.000456559 0)
(0.999981 -6.28381e-05 0)
(0.999929 -0.000372921 0)
(1.00007 -0.000775005 0)
(1.00043 -0.00114978 0)
(1.00095 -0.00147663 0)
(1.00159 -0.00174261 0)
(1.00232 -0.00193227 0)
(1.0031 -0.00204795 0)
(1.00388 -0.00210264 0)
(1.00465 -0.00210963 0)
(1.00541 -0.00208065 0)
(1.00614 -0.00202622 0)
(1.00683 -0.00195556 0)
(1.0075 -0.00187637 0)
(1.00813 -0.00179505 0)
(1.00873 -0.00171684 0)
(1.0093 -0.00164608 0)
(1.00985 -0.0015867 0)
(0.999912 6.79087e-05 0)
(0.99959 -0.000362557 0)
(0.999615 -0.000998987 0)
(0.999987 -0.00157854 0)
(1.00058 -0.00209546 0)
(1.00133 -0.00251694 0)
(1.00217 -0.00280954 0)
(1.00305 -0.00298466 0)
(1.00391 -0.00306936 0)
(1.00473 -0.00308613 0)
(1.00549 -0.00305327 0)
(1.00621 -0.00298667 0)
(1.00687 -0.00289936 0)
(1.00749 -0.00280148 0)
(1.00805 -0.00270079 0)
(1.00858 -0.00260326 0)
(1.00906 -0.00251343 0)
(1.00951 -0.00243509 0)
(0.999763 0.000383317 0)
(0.998952 -0.00023505 0)
(0.998877 -0.00117507 0)
(0.999353 -0.00199248 0)
(1.0001 -0.0027413 0)
(1.00104 -0.00333046 0)
(1.00207 -0.0037028 0)
(1.00308 -0.00389897 0)
(1.004 -0.00397218 0)
(1.00483 -0.00395823 0)
(1.00557 -0.00388436 0)
(1.00622 -0.00377315 0)
(1.00679 -0.00364174 0)
(1.00729 -0.00350229 0)
(1.00774 -0.00336334 0)
(1.00813 -0.00323092 0)
(1.00848 -0.0031092 0)
(1.0088 -0.00300137 0)
(0.999512 0.00100359 0)
(0.997915 -7.73443e-05 0)
(0.997869 -0.00142111 0)
(0.998612 -0.00248495 0)
(0.999635 -0.00349123 0)
(1.00088 -0.0042284 0)
(1.00214 -0.00462116 0)
(1.00324 -0.0047723 0)
(1.00417 -0.00477441 0)
(1.00492 -0.00467922 0)
(1.00553 -0.00452379 0)
(1.00602 -0.00433726 0)
(1.0064 -0.00413954 0)
(1.00671 -0.00394307 0)
(1.00695 -0.00375558 0)
(1.00715 -0.0035819 0)
(1.00731 -0.00342474 0)
(1.00744 -0.00328595 0)
(0.998981 0.00256927 0)
(0.996261 0.000294074 0)
(0.996682 -0.00178295 0)
(0.99798 -0.00314805 0)
(0.999405 -0.0044083 0)
(1.001 -0.00521536 0)
(1.00244 -0.00552327 0)
(1.00354 -0.00553739 0)
(1.0043 -0.0053977 0)
(1.00481 -0.00517036 0)
(1.00513 -0.00489987 0)
(1.00531 -0.00461858 0)
(1.00538 -0.00434542 0)
(1.00538 -0.00408983 0)
(1.00534 -0.00385626 0)
(1.00526 -0.00364656 0)
(1.00517 -0.00346078 0)
(1.00507 -0.00329865 0)
(0.997456 0.0061674 0)
(0.993465 0.0015968 0)
(0.995395 -0.00192455 0)
(0.997747 -0.00391631 0)
(0.999673 -0.00546548 0)
(1.00155 -0.0062126 0)
(1.00298 -0.00629453 0)
(1.00377 -0.00606896 0)
(1.00409 -0.0057225 0)
(1.00409 -0.00532836 0)
(1.0039 -0.00493081 0)
(1.00358 -0.00455771 0)
(1.00319 -0.00422071 0)
(1.00278 -0.00392187 0)
(1.00236 -0.00365962 0)
(1.00194 -0.00343134 0)
(1.00154 -0.00323368 0)
(1.00117 -0.00306367 0)
(0.994438 0.00860333 0)
(0.989469 0.00235969 0)
(0.994187 -0.00183846 0)
(0.998164 -0.00463967 0)
(1.00065 -0.00650334 0)
(1.00253 -0.00702092 0)
(1.00345 -0.00672768 0)
(1.00341 -0.00618135 0)
(1.00281 -0.00559952 0)
(1.00193 -0.00504449 0)
(1.00094 -0.00454555 0)
(0.999923 -0.00411504 0)
(0.998932 -0.00375026 0)
(0.997995 -0.00344217 0)
(0.997124 -0.00318176 0)
(0.996319 -0.00296175 0)
(0.995577 -0.00277584 0)
(0.994902 -0.00261782 0)
(0.994525 -0.00665059 0)
(0.989501 -0.00850445 0)
(0.995526 -0.00523873 0)
(1.00009 -0.00613561 0)
(1.00251 -0.00749397 0)
(1.00348 -0.00741483 0)
(1.0028 -0.00659197 0)
(1.00097 -0.00570147 0)
(0.998724 -0.00492825 0)
(0.996482 -0.00428123 0)
(0.994381 -0.00375175 0)
(0.992461 -0.00332695 0)
(0.990735 -0.00298712 0)
(0.989193 -0.0027124 0)
(0.987815 -0.00248782 0)
(0.986583 -0.00230358 0)
(0.985477 -0.00215301 0)
(0.984489 -0.00202421 0)
(1.02649 -0.0702261 0)
(1.0171 -0.0623785 0)
(1.01188 -0.0291886 0)
(1.00855 -0.0148232 0)
(1.00579 -0.0102603 0)
(1.00199 -0.0077517 0)
(0.996825 -0.00586126 0)
(0.991318 -0.00456383 0)
(0.986348 -0.0037086 0)
(0.982139 -0.0031133 0)
(0.978593 -0.00267567 0)
(0.975579 -0.00234672 0)
(0.973 -0.00209527 0)
(0.970774 -0.00189841 0)
(0.968834 -0.00174131 0)
(0.967129 -0.00161693 0)
(0.965625 -0.00152462 0)
(0.964309 -0.00148748 0)
(0.966187 0.350228 0)
(1.02695 0.194276 0)
(1.03279 0.0679367 0)
(1.00475 0.0152922 0)
(0.976631 -0.00123347 0)
(0.956751 -0.00427758 0)
(0.943077 -0.00355409 0)
(0.933311 -0.00239836 0)
(0.926162 -0.00157468 0)
(0.920745 -0.0010777 0)
(0.916434 -0.000785358 0)
(0.912857 -0.000609416 0)
(0.909812 -0.000498972 0)
(0.907176 -0.000425679 0)
(0.90486 -0.000374392 0)
(0.902799 -0.000339653 0)
(0.900925 -0.000318077 0)
(0.899191 -0.000359924 0)
(0.0091944 -0.0343022 -2.40038e-21)
(0.0226298 -0.0331683 2.22761e-21)
(0.0302443 -0.0199912 0)
(0.0315992 -0.00575317 0)
(0.0261414 0.0051846 0)
(0.0166426 0.0108678 -2.1763e-21)
(0.005407 0.0125869 0)
(-0.00670972 0.0131882 0)
(-0.0198998 0.0141247 0)
(-0.0343706 0.0154921 0)
(-0.0501851 0.0171135 1.99446e-21)
(-0.0673116 0.018787 0)
(-0.085623 0.020347 0)
(-0.104921 0.0216728 0)
(-0.124959 0.0226869 0)
(-0.145474 0.0233508 1.80476e-21)
(-0.166199 0.0236594 0)
(-0.186882 0.0236326 0)
(-0.207302 0.023308 0)
(-0.227268 0.0227331 0)
(-0.246626 0.0219598 0)
(-0.26526 0.0210388 0)
(-0.283087 0.0200165 0)
(-0.300052 0.0189334 1.79203e-21)
(-0.316127 0.0178222 -1.79858e-21)
(-0.331303 0.0167086 1.80483e-21)
(-0.345586 0.0156112 1.81042e-21)
(-0.358995 0.0145422 0)
(-0.371552 0.0135088 0)
(-0.383285 0.0125139 -1.82046e-21)
(-0.394223 0.0115571 -1.82093e-21)
(-0.404394 0.0106356 0)
(-0.41382 0.00974454 0)
(-0.422525 0.00887814 -1.81185e-21)
(-0.430523 0.00802982 0)
(-0.437826 0.00719279 0)
(-0.444441 0.00636047 1.78503e-21)
(-0.450367 0.00552686 0)
(-0.4556 0.00468731 1.75615e-21)
(-0.460127 0.00383923 3.47628e-21)
(-0.463933 0.0029825 0)
(-0.467005 0.00212194 0)
(-0.469323 0.00127319 0)
(-0.470857 0.000460534 0)
(-0.471588 -0.000292998 0)
(-0.471516 -0.000973413 3.14312e-21)
(-0.470775 -0.0016034 3.06306e-21)
(-0.469338 -0.00221938 2.97537e-21)
(-0.467206 -0.0028357 0)
(-0.464366 -0.00345842 -2.77579e-21)
(-0.460802 -0.00408988 0)
(-0.456497 -0.00473041 2.54199e-21)
(-0.451433 -0.00537923 2.41161e-21)
(-0.445594 -0.0060348 0)
(-0.438967 -0.00669506 0)
(-0.431542 -0.00735748 0)
(-0.423311 -0.0080192 1.7956e-21)
(-0.414272 -0.00867704 0)
(-0.404426 -0.00932762 0)
(-0.393778 -0.00996736 0)
(-0.382341 -0.0105926 0)
(-0.370131 -0.0111998 0)
(-0.35717 -0.0117852 0)
(-0.343484 -0.0123455 0)
(-0.329107 -0.0128775 0)
(-0.314076 -0.0133782 1.45858e-22)
(-0.298431 -0.0138452 0)
(-0.28222 -0.0142764 0)
(-0.265491 -0.0146701 -9.40583e-22)
(-0.248296 -0.0150254 -1.21763e-21)
(-0.230689 -0.0153414 0)
(-0.212728 -0.0156181 1.786e-21)
(-0.194467 -0.0158557 -2.07594e-21)
(-0.175965 -0.0160546 0)
(-0.157279 -0.0162155 2.66376e-21)
(-0.138463 -0.0163386 0)
(-0.119574 -0.0164235 0)
(-0.100665 -0.0164677 -3.55477e-21)
(-0.0817894 -0.0164656 0)
(-0.0630019 -0.0164055 4.14708e-21)
(-0.0443581 -0.0162661 0)
(-0.0259105 -0.0160153 -4.7324e-21)
(-0.00768855 -0.0156241 -4.96684e-21)
(0.0103091 -0.0151229 -5.0673e-21)
(0.0280725 -0.0145848 -1.01731e-20)
(0.0455662 -0.0140476 1.01897e-20)
(0.0627575 -0.0135195 0)
(0.0796258 -0.0130032 0)
(0.0961564 -0.0125 0)
(0.112338 -0.0120105 1.00874e-20)
(0.128161 -0.0115353 1.00298e-20)
(0.14362 -0.0110744 -9.96268e-21)
(0.15871 -0.0106282 0)
(0.173428 -0.0101965 9.80533e-21)
(0.187772 -0.00977921 9.71745e-21)
(0.201744 -0.00937614 9.6248e-21)
(0.215344 -0.0089869 0)
(0.228573 -0.008611 0)
(0.241434 -0.00824788 0)
(0.253928 -0.00789685 9.22264e-21)
(0.266059 -0.00755718 0)
(0.277828 -0.00722807 0)
(0.289237 -0.00690867 -8.90563e-21)
(0.300286 -0.0065981 0)
(0.310976 -0.00629548 0)
(0.321307 -0.00599993 -8.58933e-21)
(0.331276 -0.00571061 0)
(0.340883 -0.0054267 0)
(0.350122 -0.00514748 8.28253e-21)
(0.35899 -0.0048723 8.18355e-21)
(0.367482 -0.0046006 0)
(0.375592 -0.00433197 -7.99173e-21)
(0.383313 -0.00406611 0)
(0.390641 -0.00380289 7.80925e-21)
(0.397567 -0.00354233 0)
(0.404086 -0.0032846 7.63721e-21)
(0.410192 -0.00303008 7.5554e-21)
(0.41588 -0.00277926 0)
(0.421147 -0.00253283 0)
(0.425991 -0.00229158 0)
(0.430413 -0.00205641 0)
(0.434414 -0.00182829 0)
(0.437999 -0.00160825 0)
(0.441174 -0.00139737 0)
(0.443951 -0.00119662 7.00805e-21)
(0.446339 -0.00100558 -6.95287e-21)
(0.448348 -0.00081936 0)
(0.449979 -0.000625079 0)
(0.451212 -0.000408971 0)
(0.451997 -0.000189829 0)
(0.452395 -1.3804e-05 -1.34366e-20)
(0.452515 0.000102729 0)
(0.452421 0.000176574 1.32765e-20)
(0.45216 0.000224715 -1.32009e-20)
(0.451769 0.00025655 0)
(0.451275 0.000277194 0)
(0.4507 0.000289535 0)
(0.450064 0.00029535 1.29212e-20)
(0.449383 0.000295916 1.28558e-20)
(0.448672 0.000292264 0)
(0.447945 0.000285267 1.2729e-20)
(0.447212 0.000275677 1.26674e-20)
(0.446482 0.000264134 -1.26068e-20)
(0.445763 0.000251186 0)
(0.445062 0.00023729 0)
(0.444383 0.000222829 -1.24301e-20)
(0.44373 0.000208116 0)
(0.443106 0.00019341 0)
(0.442513 0.000178922 0)
(0.441953 0.000164819 0)
(0.441425 0.000151236 1.21483e-20)
(0.44093 0.000138281 1.20935e-20)
(0.440467 0.00012604 0)
(0.440036 0.000114582 1.1985e-20)
(0.439635 0.000103966 0)
(0.439262 9.42423e-05 0)
(0.438916 8.54631e-05 1.18254e-20)
(0.438595 7.76823e-05 0)
(0.438295 7.09643e-05 1.1721e-20)
(0.438014 6.53913e-05 0)
(0.437749 6.10709e-05 0)
(0.437496 5.81484e-05 1.15678e-20)
(0.437251 5.68202e-05 0)
(0.437009 5.73543e-05 1.14686e-20)
(0.436763 6.01172e-05 0)
(0.436507 6.56131e-05 0)
(0.436229 7.45398e-05 0)
(0.435919 8.78755e-05 -1.12816e-20)
(0.43556 0.000107011 0)
(0.43513 0.000133962 1.11984e-20)
(0.434599 0.000171735 0)
(0.433924 0.000224947 0)
(0.433045 0.00030107 0)
(0.431863 0.000412522 0)
(0.430233 0.000582819 0)
(0.427865 0.000852453 0)
(0.424388 0.00133186 0)
(0.418397 0.00214566 -2.24197e-20)
(0.409974 0.00417677 0)
(0.386403 0.0066592 0)
(-0.00167086 -0.0449701 6.73136e-21)
(-0.00104047 -0.0201618 -5.88218e-21)
(-0.00784241 -0.000796001 0)
(-0.0167524 0.0144221 3.19534e-21)
(-0.02735 0.0259271 0)
(-0.0399748 0.0338253 1.46679e-21)
(-0.0547284 0.0391552 -2.78399e-21)
(-0.0714791 0.0433027 -2.69048e-21)
(-0.0898339 0.0470392 0)
(-0.109322 0.0505019 -2.53968e-21)
(-0.129526 0.0535619 -1.25923e-21)
(-0.150075 0.0560455 0)
(-0.170633 0.0578215 0)
(-0.190905 0.0588237 0)
(-0.210643 0.0590491 0)
(-0.229649 0.058546 -1.18972e-21)
(-0.24778 0.057399 0)
(-0.26494 0.0557143 2.39689e-21)
(-0.281081 0.0536066 0)
(-0.29619 0.0511887 0)
(-0.310282 0.0485646 -2.45547e-21)
(-0.323393 0.0458246 0)
(-0.335573 0.0430434 2.50062e-21)
(-0.346879 0.0402795 -1.25837e-21)
(-0.357367 0.0375764 1.26942e-21)
(-0.367095 0.0349641 -1.2796e-21)
(-0.376115 0.032461 -1.28866e-21)
(-0.384475 0.0300762 0)
(-0.392218 0.0278118 0)
(-0.399377 0.0256642 1.30767e-21)
(-0.405984 0.0236261 -1.30916e-21)
(-0.412061 0.0216877 0)
(-0.41763 0.0198376 0)
(-0.422705 0.0180634 1.31034e-21)
(-0.427298 0.0163528 0)
(-0.431417 0.0146934 0)
(-0.435071 0.0130735 -1.29316e-21)
(-0.438263 0.011482 0)
(-0.441001 0.00990875 1.27881e-21)
(-0.443287 0.00834472 -2.51582e-21)
(-0.445128 0.00678222 0)
(-0.446531 0.00521611 0)
(-0.447504 0.00364782 -4.84536e-21)
(-0.448057 0.00208909 -4.75836e-21)
(-0.448196 0.00055773 -4.65916e-21)
(-0.4479 -0.000936491 2.29668e-21)
(-0.447026 -0.00240696 -2.18587e-21)
(-0.445538 -0.00387591 -6.40827e-21)
(-0.443401 -0.00535492 4.14867e-21)
(-0.440585 -0.00684904 1.95947e-21)
(-0.437069 -0.00835934 0)
(-0.432831 -0.00988432 -1.77935e-21)
(-0.427854 -0.0114207 1.78022e-21)
(-0.42212 -0.0129637 0)
(-0.415616 -0.0145075 0)
(-0.408333 -0.0160451 0)
(-0.400262 -0.017569 -1.22573e-21)
(-0.391402 -0.0190707 0)
(-0.381753 -0.0205413 2.08102e-21)
(-0.37132 -0.0219716 0)
(-0.360116 -0.0233522 1.5345e-21)
(-0.348156 -0.0246739 0)
(-0.335461 -0.0259274 -9.50696e-22)
(-0.322058 -0.0271044 0)
(-0.307976 -0.0281969 3.34927e-22)
(-0.293253 -0.0291979 -1.11059e-22)
(-0.277929 -0.0301013 0)
(-0.262047 -0.0309023 6.35037e-22)
(-0.245656 -0.0315973 5.94581e-22)
(-0.228805 -0.032184 7.64482e-22)
(-0.211547 -0.0326614 0)
(-0.193937 -0.0330298 8.72802e-22)
(-0.176028 -0.0332908 1.27724e-21)
(-0.157878 -0.0334471 0)
(-0.13954 -0.0335023 -1.61752e-21)
(-0.121068 -0.0334608 3.3318e-21)
(-0.102515 -0.0333277 0)
(-0.0839308 -0.0331079 2.11847e-21)
(-0.0653625 -0.0328061 0)
(-0.0468525 -0.0324256 -7.09271e-21)
(-0.0284371 -0.0319674 0)
(-0.0101463 -0.0314287 8.01627e-21)
(0.00798081 -0.0308037 2.85194e-21)
(0.0258902 -0.030101 -2.70463e-21)
(0.0435433 -0.0293467 -5.54749e-21)
(0.0609238 -0.0285631 5.67125e-21)
(0.0780183 -0.0277625 0)
(0.0948108 -0.026952 0)
(0.111286 -0.0261369 0)
(0.127433 -0.0253217 -1.87712e-20)
(0.14324 -0.0245098 -6.41467e-21)
(0.1587 -0.0237044 6.45223e-21)
(0.173807 -0.0229081 0)
(0.188559 -0.0221231 6.22913e-21)
(0.202952 -0.0213512 -6.51518e-21)
(0.216985 -0.0205935 -6.52187e-21)
(0.230659 -0.0198511 0)
(0.243975 -0.0191243 0)
(0.256935 -0.0184134 0)
(0.269539 -0.0177179 -6.49326e-21)
(0.281791 -0.0170376 0)
(0.293692 -0.0163715 1.27279e-20)
(0.305245 -0.0157186 1.91158e-20)
(0.316449 -0.0150779 -1.26418e-20)
(0.327307 -0.0144481 0)
(0.337817 -0.0138277 -6.19702e-21)
(0.34798 -0.0132155 0)
(0.357793 -0.0126101 -1.24146e-20)
(0.367255 -0.0120102 6.11646e-21)
(0.376362 -0.0114148 6.08712e-21)
(0.38511 -0.0108228 0)
(0.393496 -0.0102336 1.82709e-20)
(0.401513 -0.00964676 -1.208e-20)
(0.409157 -0.00906209 -6.0472e-21)
(0.416422 -0.00847978 0)
(0.423303 -0.00790041 -5.97344e-21)
(0.429795 -0.00732486 -1.77473e-20)
(0.435892 -0.00675441 0)
(0.441592 -0.00619067 -1.16815e-20)
(0.446892 -0.00563555 -1.16198e-20)
(0.451791 -0.00509123 -1.156e-20)
(0.456289 -0.00456007 0)
(0.46039 -0.00404452 0)
(0.464096 -0.00354693 0)
(0.467415 -0.0030691 5.65597e-21)
(0.470355 -0.00261114 5.65702e-21)
(0.472927 -0.00216987 0)
(0.475149 -0.0017385 1.11952e-20)
(0.477057 -0.00131419 1.11507e-20)
(0.478721 -0.000916122 0)
(0.48014 -0.000574152 1.10751e-20)
(0.481274 -0.000296093 2.20372e-20)
(0.482131 -7.1073e-05 -1.09809e-20)
(0.48273 0.000111862 -1.09243e-20)
(0.483099 0.000260035 0)
(0.483265 0.000378751 0)
(0.483256 0.000472025 0)
(0.483097 0.000543102 -1.07584e-20)
(0.482812 0.000594812 1.07156e-20)
(0.482422 0.000629722 2.13467e-20)
(0.481949 0.000650198 -1.06301e-20)
(0.481411 0.000658421 1.05907e-20)
(0.480823 0.000656389 1.05452e-20)
(0.480201 0.000645924 0)
(0.479558 0.000628661 0)
(0.478905 0.000606062 -1.04226e-20)
(0.47825 0.000579414 0)
(0.477603 0.000549844 0)
(0.47697 0.000518326 2.05865e-20)
(0.476355 0.000485693 0)
(0.475763 0.000452652 1.02104e-20)
(0.475198 0.000419798 -1.01641e-20)
(0.47466 0.000387629 0)
(0.474151 0.000356559 1.00831e-20)
(0.473673 0.000326933 0)
(0.473224 0.000299043 0)
(0.472805 0.000273141 -9.95392e-21)
(0.472414 0.00024946 1.98268e-20)
(0.472049 0.000228222 -9.87076e-21)
(0.471709 0.000209665 0)
(0.471392 0.000194061 0)
(0.471095 0.000181743 9.7492e-21)
(0.470814 0.000173137 0)
(0.470546 0.000168804 9.66864e-21)
(0.470285 0.0001695 0)
(0.470028 0.000176256 0)
(0.469766 0.000190492 0)
(0.469492 0.000214189 9.51535e-21)
(0.469194 0.00025016 0)
(0.468859 0.00030246 -9.44699e-21)
(0.468469 0.000377102 0)
(0.467998 0.00048325 0)
(0.467412 0.000635562 1.87319e-20)
(0.466661 0.000858159 -1.86985e-20)
(0.465679 0.00119537 0)
(0.464338 0.00172453 0)
(0.462556 0.00263504 0)
(0.4598 0.00419461 5.65641e-20)
(0.456769 0.0076504 0)
(0.450387 0.0133304 -3.86326e-20)
(-0.0134271 -0.0239718 -1.98793e-22)
(-0.0212196 0.00290482 6.70509e-21)
(-0.0334446 0.0230363 0)
(-0.0471278 0.039615 -4.99526e-21)
(-0.0613069 0.0531587 0)
(-0.0760762 0.0638576 0)
(-0.0917433 0.0721697 7.65939e-24)
(-0.10831 0.0787164 2.07678e-21)
(-0.125481 0.0839342 2.03041e-21)
(-0.142864 0.0879821 1.97269e-21)
(-0.160105 0.0908631 0)
(-0.176922 0.0925497 0)
(-0.193111 0.0930513 -1.93086e-21)
(-0.208543 0.092434 -3.84928e-21)
(-0.223152 0.090815 3.84745e-21)
(-0.236924 0.0883469 0)
(-0.249881 0.0851997 3.86717e-21)
(-0.262068 0.0815452 -1.8987e-21)
(-0.273546 0.0775445 0)
(-0.284375 0.0733405 3.92919e-21)
(-0.294617 0.0690526 1.94422e-21)
(-0.304325 0.0647761 -3.97727e-21)
(-0.313545 0.0605827 -1.97652e-21)
(-0.322314 0.0565225 0)
(-0.330663 0.0526278 4.04344e-21)
(-0.338613 0.0489156 4.0618e-21)
(-0.346181 0.0453918 0)
(-0.353378 0.0420531 4.09066e-21)
(-0.360212 0.0388903 0)
(-0.366687 0.0358901 4.10698e-21)
(-0.372805 0.0330367 2.05057e-21)
(-0.378567 0.0303132 0)
(-0.38397 0.0277023 0)
(-0.389013 0.0251872 0)
(-0.39369 0.022752 0)
(-0.397996 0.020382 0)
(-0.401925 0.018064 0)
(-0.405468 0.0157866 4.00566e-21)
(-0.408617 0.0135399 -5.94804e-21)
(-0.411361 0.0113161 0)
(-0.413686 0.00910845 0)
(-0.415579 0.00691168 0)
(-0.417016 0.00472008 -2.8544e-23)
(-0.41797 0.00252444 3.6681e-21)
(-0.418406 0.00030867 7.21024e-21)
(-0.418291 -0.00194491 -7.03013e-21)
(-0.417593 -0.00424199 -3.44174e-21)
(-0.41629 -0.0065789 3.28501e-21)
(-0.414355 -0.00895236 5.88811e-23)
(-0.411765 -0.0113591 3.1079e-21)
(-0.408495 -0.013795 0)
(-0.404526 -0.0162546 2.84352e-21)
(-0.399838 -0.0187307 8.07025e-23)
(-0.394414 -0.0212148 0)
(-0.38824 -0.0236966 0)
(-0.381305 -0.0261648 -2.21443e-21)
(-0.373601 -0.0286064 0)
(-0.365124 -0.0310079 0)
(-0.355875 -0.0333546 1.77331e-21)
(-0.34586 -0.0356315 2.92264e-21)
(-0.335088 -0.0378236 -1.13325e-21)
(-0.323575 -0.0399157 0)
(-0.311342 -0.0418934 6.97358e-22)
(-0.298412 -0.043743 0)
(-0.284818 -0.0454518 5.23671e-22)
(-0.270593 -0.0470088 1.23072e-23)
(-0.255778 -0.0484046 1.50359e-22)
(-0.240414 -0.0496314 1.5858e-22)
(-0.22455 -0.0506838 0)
(-0.208233 -0.0515583 -1.55579e-21)
(-0.191515 -0.0522535 0)
(-0.174448 -0.0527703 -3.90401e-21)
(-0.157087 -0.0531111 -2.9658e-21)
(-0.139485 -0.0532807 -3.43161e-21)
(-0.121696 -0.0532852 3.89369e-21)
(-0.103771 -0.0531321 -6.6886e-21)
(-0.0857608 -0.0528302 0)
(-0.0677142 -0.0523891 0)
(-0.049676 -0.0518189 5.69022e-21)
(-0.0316872 -0.0511305 9.34677e-21)
(-0.0137834 -0.0503356 0)
(0.00400212 -0.049447 -3.60515e-21)
(0.0216324 -0.0484803 0)
(0.0390676 -0.0474504 1.12855e-20)
(0.0562758 -0.046367 2.85169e-22)
(0.0732347 -0.0452389 -2.75032e-22)
(0.0899249 -0.0440757 -8.08097e-21)
(0.106328 -0.0428865 0)
(0.12243 -0.0416796 8.43226e-21)
(0.138216 -0.0404623 2.35274e-22)
(0.153677 -0.0392412 0)
(0.168805 -0.0380221 0)
(0.183594 -0.0368099 0)
(0.198039 -0.0356088 -9.25117e-21)
(0.212139 -0.0344222 0)
(0.225891 -0.0332528 0)
(0.239296 -0.0321025 0)
(0.252355 -0.0309728 0)
(0.265069 -0.0298643 0)
(0.277439 -0.0287771 -9.42028e-21)
(0.289468 -0.0277109 0)
(0.301158 -0.0266649 -9.61167e-21)
(0.31251 -0.0256378 -9.62306e-21)
(0.323527 -0.0246283 9.62902e-21)
(0.334208 -0.0236346 0)
(0.344556 -0.0226548 9.62686e-21)
(0.354568 -0.0216871 0)
(0.364246 -0.0207295 9.60938e-21)
(0.373586 -0.0197801 -9.5961e-21)
(0.382587 -0.0188374 -2.85665e-20)
(0.391245 -0.0178999 0)
(0.399558 -0.0169664 -2.84762e-20)
(0.407521 -0.0160363 -9.37878e-21)
(0.415129 -0.0151093 0)
(0.422379 -0.0141856 -1.88337e-20)
(0.429265 -0.0132659 -1.87981e-20)
(0.435783 -0.0123514 2.81967e-20)
(0.441928 -0.0114439 0)
(0.447699 -0.0105457 9.39049e-21)
(0.453091 -0.00965964 9.36902e-21)
(0.458104 -0.00878879 2.79688e-20)
(0.462738 -0.00793666 0)
(0.466994 -0.0071069 0)
(0.470876 -0.00630312 0)
(0.474388 -0.00552851 9.22149e-21)
(0.477538 -0.00478529 0)
(0.480337 -0.00407456 0)
(0.482801 -0.00339803 -9.21824e-21)
(0.484953 -0.00276106 -9.20162e-21)
(0.486819 -0.0021709 0)
(0.488412 -0.00163421 0)
(0.489737 -0.00115642 -1.83024e-20)
(0.4908 -0.000739166 0)
(0.491616 -0.000380036 1.82129e-20)
(0.492204 -7.46291e-05 1.81575e-20)
(0.492585 0.000181817 0)
(0.492782 0.000393866 0)
(0.492817 0.000565808 -1.80143e-20)
(0.492713 0.000701718 -1.33412e-24)
(0.49249 0.000805506 -1.38448e-25)
(0.492169 0.000880923 0)
(0.491767 0.000931562 -3.55916e-20)
(0.491302 0.000960823 0)
(0.490788 0.000971901 0)
(0.49024 0.000967753 0)
(0.489669 0.000951089 1.7548e-20)
(0.489086 0.000924364 0)
(0.4885 0.000889775 -3.48413e-20)
(0.487918 0.000849265 -1.73503e-20)
(0.487347 0.000804539 0)
(0.486791 0.000757074 -1.72144e-20)
(0.486254 0.000708139 0)
(0.48574 0.000658813 0)
(0.48525 0.000610014 -5.10267e-20)
(0.484786 0.000562514 3.38799e-20)
(0.484348 0.000516968 0)
(0.483937 0.000473939 3.35994e-20)
(0.483551 0.000433926 -1.67275e-20)
(0.48319 0.000397386 0)
(0.482852 0.00036477 0)
(0.482535 0.000336558 0)
(0.482236 0.000313296 -4.93527e-20)
(0.481953 0.000295647 0)
(0.481682 0.000284458 -1.6314e-20)
(0.481418 0.000280836 0)
(0.481156 0.000286271 0)
(0.480889 0.000302794 0)
(0.480609 0.000333211 0)
(0.480305 0.000381468 0)
(0.479964 0.000453205 0)
(0.479566 0.000556667 -3.17734e-20)
(0.479086 0.000704231 0)
(0.478492 0.000915222 -1.58019e-20)
(0.477733 0.00122067 4.7318e-20)
(0.476746 0.00167488 0)
(0.475421 0.00237024 0)
(0.473667 0.0035089 -3.16037e-20)
(0.471174 0.00540291 -3.18246e-20)
(0.468322 0.00909224 3.20572e-20)
(0.464523 0.0157018 3.26516e-20)
(-0.0175123 0.0104941 -1.17651e-20)
(-0.0297286 0.0363252 -8.79516e-21)
(-0.0446309 0.0551622 -4.74284e-21)
(-0.0604265 0.0710277 -2.09121e-21)
(-0.0759246 0.0844859 0)
(-0.0910784 0.0955863 3.7791e-21)
(-0.106103 0.104421 -1.85207e-21)
(-0.121027 0.111182 0)
(-0.135722 0.116069 -1.72135e-21)
(-0.150009 0.119236 0)
(-0.163738 0.120802 3.43512e-21)
(-0.176816 0.120895 0)
(-0.189203 0.119669 1.64173e-21)