/*--------------------------------*- C++ -*----------------------------------*\
  =========                 |
  \\      /  F ield         | OpenFOAM: The Open Source CFD Toolbox
   \\    /   O peration     | Website:  https://openfoam.org
    \\  /    A nd           | Version:  6
     \\/     M anipulation  |
\*---------------------------------------------------------------------------*/
FoamFile
{
    version     2.0;
    format      ascii;
    class       volScalarField;
    location    "0.1";
    object      epsilon;
}
// * * * * * * * * * * * * * * * * * * * * * * * * * * * * * * * * * * * * * //

dimensions      [0 2 -3 0 0 0 0];

internalField   nonuniform List<scalar> 
3081
(
2.01782
1.96939
1.92369
1.88072
1.84046
1.80286
1.76787
1.7354
1.70539
1.67773
1.65231
1.62904
1.60778
1.58843
1.57085
1.5549
1.54041
1.52731
1.51578
1.5056
1.49662
1.48869
1.48172
1.47559
1.47023
1.46556
1.4615
1.45799
1.45497
1.4524
1.45022
1.44839
1.44689
1.44567
1.44471
1.44399
1.44347
1.44313
1.44297
1.44296
1.44309
1.44334
1.44371
1.44418
1.44475
1.4454
1.44612
1.44692
1.44779
1.44871
1.44969
1.45072
1.4518
1.45292
1.45408
1.45528
1.45651
0.913284
0.892863
0.873631
0.855576
0.83868
0.822917
0.808257
0.794666
0.782103
0.770525
0.759885
0.750137
0.741229
0.733112
0.725733
0.719041
0.712986
0.707541
0.702766
0.698577
0.694858
0.691554
0.688623
0.686027
0.683734
0.681712
0.679934
0.678375
0.677012
0.675826
0.674797
0.67391
0.673149
0.672503
0.671959
0.671507
0.671137
0.670843
0.670615
0.670449
0.670337
0.670275
0.670259
0.670283
0.670345
0.670441
0.670569
0.670724
0.670906
0.671112
0.67134
0.671588
0.671854
0.672138
0.672438
0.672753
0.673082
0.74003
0.724078
0.709074
0.695004
0.681849
0.669588
0.658192
0.647634
0.637878
0.628891
0.620634
0.613069
0.606156
0.599855
0.594125
0.588927
0.584223
0.579982
0.576183
0.572801
0.569803
0.567137
0.564767
0.562662
0.560795
0.559141
0.557677
0.556384
0.555244
0.55424
0.553358
0.552585
0.551909
0.551321
0.55081
0.550369
0.54999
0.549667
0.549395
0.549168
0.548981
0.548832
0.548715
0.548628
0.548568
0.548533
0.54852
0.548527
0.548553
0.548596
0.548653
0.548725
0.54881
0.548906
0.549013
0.54913
0.549256
0.691435
0.676823
0.663084
0.650205
0.638166
0.626948
0.616524
0.606867
0.597946
0.58973
0.582182
0.575268
0.56895
0.563191
0.557954
0.553204
0.548904
0.545022
0.541529
0.538398
0.535603
0.533113
0.530895
0.528921
0.527165
0.525604
0.524218
0.522988
0.521898
0.520931
0.520075
0.519317
0.518648
0.518057
0.517535
0.517076
0.516673
0.516319
0.516009
0.51574
0.515505
0.515303
0.51513
0.514982
0.514857
0.514753
0.514668
0.5146
0.514547
0.514508
0.514482
0.514467
0.514462
0.514467
0.514481
0.514502
0.514531
0.679043
0.66488
0.651559
0.639066
0.627385
0.616496
0.606376
0.596998
0.588334
0.580353
0.57302
0.566303
0.560165
0.55457
0.549483
0.544868
0.540691
0.536918
0.533518
0.530463
0.527725
0.525279
0.523096
0.52115
0.519416
0.517871
0.516496
0.515272
0.514183
0.513213
0.51235
0.511582
0.510899
0.51029
0.509748
0.509266
0.508836
0.508453
0.508112
0.507808
0.507537
0.507296
0.507082
0.506891
0.506721
0.50657
0.506436
0.506318
0.506213
0.50612
0.506039
0.505967
0.505905
0.50585
0.505803
0.505763
0.505729
0.680976
0.666929
0.65371
0.641302
0.629691
0.61886
0.608787
0.599448
0.590816
0.582861
0.57555
0.568851
0.562728
0.557147
0.552072
0.547468
0.543301
0.539536
0.536143
0.53309
0.53035
0.527896
0.525703
0.523746
0.522
0.520442
0.519053
0.517814
0.516709
0.515723
0.514843
0.514056
0.513353
0.512723
0.51216
0.511654
0.5112
0.510791
0.510423
0.510091
0.509791
0.50952
0.509274
0.50905
0.508846
0.508661
0.508491
0.508335
0.508192
0.50806
0.507938
0.507826
0.507721
0.507624
0.507533
0.507448
0.50737
0.675134
0.661896
0.649458
0.637807
0.626929
0.616803
0.607407
0.598716
0.590701
0.583333
0.576578
0.570402
0.564771
0.559651
0.555005
0.550799
0.547
0.543576
0.540494
0.537726
0.535244
0.533024
0.53104
0.529269
0.527688
0.526276
0.525016
0.52389
0.522883
0.521983
0.521177
0.520454
0.519804
0.51922
0.518694
0.518219
0.517789
0.517399
0.517045
0.516722
0.516427
0.516156
0.515907
0.515677
0.515464
0.515267
0.515083
0.514911
0.514749
0.514597
0.514454
0.514317
0.514187
0.514064
0.513946
0.513835
0.685902
0.67262
0.660129
0.648412
0.637459
0.627252
0.617772
0.608995
0.600895
0.593443
0.586608
0.580357
0.574655
0.569468
0.564762
0.560502
0.556653
0.553184
0.550062
0.547258
0.544743
0.54249
0.540477
0.538679
0.537072
0.535637
0.534355
0.533209
0.532183
0.531265
0.530441
0.529701
0.529035
0.528434
0.527892
0.5274
0.526953
0.526546
0.526174
0.525834
0.52552
0.52523
0.524962
0.524713
0.52448
0.524262
0.524057
0.523863
0.523679
0.523504
0.523337
0.523176
0.523022
0.522874
0.522731
0.522596
0.684083
0.67155
0.659782
0.648767
0.63849
0.628935
0.620079
0.611899
0.604368
0.597455
0.591129
0.585357
0.580105
0.575339
0.571024
0.567126
0.563613
0.560452
0.557612
0.555066
0.552784
0.550745
0.548922
0.547294
0.545839
0.544539
0.543376
0.542335
0.541403
0.540565
0.539812
0.539134
0.538521
0.537967
0.537463
0.537004
0.536585
0.536201
0.535847
0.53552
0.535218
0.534935
0.534672
0.534424
0.534191
0.53397
0.53376
0.53356
0.533368
0.533184
0.533006
0.532834
0.532667
0.532506
0.532355
0.695251
0.68273
0.670953
0.659913
0.649599
0.639997
0.631088
0.62285
0.615259
0.608286
0.601902
0.596074
0.590769
0.585954
0.581594
0.577656
0.574106
0.570914
0.568046
0.565475
0.563172
0.561113
0.559273
0.557629
0.556161
0.554848
0.553675
0.552624
0.551682
0.550837
0.550076
0.54939
0.54877
0.548208
0.547697
0.547231
0.546805
0.546413
0.546051
0.545716
0.545404
0.545113
0.54484
0.544583
0.54434
0.544109
0.543888
0.543676
0.543473
0.543276
0.543086
0.542901
0.542721
0.542548
0.542386
0.705568
0.69311
0.681374
0.670355
0.660046
0.650436
0.641509
0.633246
0.625624
0.618618
0.612198
0.606336
0.600997
0.59615
0.591762
0.587797
0.584225
0.581012
0.578128
0.575542
0.573228
0.571158
0.569309
0.567658
0.566183
0.564865
0.563687
0.562633
0.561688
0.56084
0.560077
0.559388
0.558766
0.558202
0.557689
0.55722
0.556791
0.556395
0.55603
0.555691
0.555376
0.55508
0.554802
0.55454
0.55429
0.554053
0.553826
0.553607
0.553397
0.553193
0.552995
0.552802
0.552614
0.552433
0.552265
0.714706
0.702369
0.690727
0.67978
0.669523
0.659949
0.651044
0.642793
0.635175
0.628166
0.62174
0.615868
0.610519
0.605661
0.601262
0.597289
0.59371
0.590491
0.587603
0.585015
0.582699
0.580629
0.578781
0.577131
0.575658
0.574342
0.573167
0.572116
0.571174
0.570329
0.569569
0.568884
0.568265
0.567703
0.567192
0.566725
0.566297
0.565903
0.565538
0.5652
0.564884
0.564587
0.564308
0.564044
0.563793
0.563554
0.563324
0.563103
0.562889
0.562681
0.562479
0.562282
0.56209
0.561904
0.561729
0.561576
0.722495
0.710327
0.698838
0.688015
0.677859
0.668367
0.659527
0.651327
0.643748
0.636769
0.630366
0.624513
0.619178
0.614333
0.609944
0.605981
0.602411
0.599202
0.596324
0.593746
0.591441
0.589382
0.587544
0.585905
0.584442
0.583137
0.581971
0.58093
0.579997
0.579161
0.57841
0.577733
0.577121
0.576567
0.576062
0.575601
0.575179
0.57479
0.57443
0.574095
0.573782
0.573489
0.573213
0.572951
0.572701
0.572463
0.572234
0.572013
0.5718
0.571592
0.571389
0.571192
0.570999
0.570811
0.570634
0.570471
0.716916
0.705623
0.694975
0.684971
0.675606
0.666874
0.658763
0.65126
0.644345
0.637996
0.632188
0.626894
0.622084
0.617727
0.613793
0.61025
0.607067
0.604213
0.601659
0.599376
0.597339
0.595522
0.593901
0.592457
0.59117
0.590022
0.588996
0.588079
0.587258
0.58652
0.585857
0.585257
0.584714
0.58422
0.583769
0.583356
0.582975
0.582623
0.582296
0.58199
0.581703
0.581432
0.581175
0.58093
0.580696
0.580471
0.580254
0.580043
0.579838
0.579638
0.579443
0.579252
0.579066
0.578889
0.578725
0.722073
0.711052
0.700637
0.690833
0.681641
0.673057
0.665074
0.657681
0.650862
0.644596
0.638862
0.633633
0.628881
0.624578
0.620692
0.617194
0.614052
0.611236
0.608719
0.60647
0.604465
0.602678
0.601086
0.599669
0.598407
0.597282
0.596279
0.595384
0.594582
0.593863
0.593217
0.592634
0.592106
0.591627
0.591189
0.590789
0.59042
0.590078
0.589761
0.589465
0.589186
0.588924
0.588675
0.588437
0.58821
0.587991
0.58778
0.587575
0.587376
0.587181
0.586991
0.586804
0.586623
0.58645
0.58629
0.725946
0.715246
0.705113
0.695556
0.686579
0.678184
0.670366
0.663118
0.656427
0.650275
0.644642
0.639504
0.634834
0.630605
0.626786
0.62335
0.620265
0.617502
0.615033
0.612831
0.610867
0.609119
0.607563
0.60618
0.604949
0.603854
0.602878
0.602008
0.601231
0.600534
0.599908
0.599344
0.598834
0.598371
0.597949
0.597563
0.597207
0.596878
0.596572
0.596286
0.596017
0.595764
0.595523
0.595294
0.595074
0.594862
0.594658
0.594459
0.594266
0.594077
0.593891
0.59371
0.593534
0.593366
0.593212
0.728422
0.718068
0.708253
0.698974
0.690244
0.682068
0.674446
0.667372
0.660837
0.654826
0.649319
0.644295
0.639728
0.635593
0.631861
0.628503
0.62549
0.622794
0.620386
0.61824
0.616328
0.614628
0.613117
0.611776
0.610584
0.609525
0.608584
0.607745
0.606997
0.606327
0.605727
0.605187
0.604699
0.604257
0.603855
0.603486
0.603147
0.602834
0.602543
0.602271
0.602016
0.601775
0.601547
0.601329
0.60112
0.600919
0.600724
0.600536
0.600352
0.600172
0.599995
0.599823
0.599656
0.599498
0.599354
0.719645
0.710113
0.701123
0.692652
0.684709
0.677297
0.670414
0.664051
0.658195
0.652829
0.647933
0.643484
0.639455
0.635821
0.632552
0.629623
0.627003
0.624666
0.622584
0.620733
0.619089
0.61763
0.616337
0.615191
0.614175
0.613273
0.612472
0.611758
0.611122
0.610552
0.610041
0.609581
0.609164
0.608785
0.60844
0.608123
0.607831
0.607559
0.607307
0.60707
0.606847
0.606635
0.606434
0.606241
0.606055
0.605876
0.605703
0.605533
0.605368
0.605207
0.605049
0.604897
0.604755
0.604629
0.710961
0.702254
0.694049
0.686349
0.679158
0.672475
0.666293
0.660602
0.655387
0.650629
0.646305
0.642391
0.638862
0.635691
0.632851
0.630314
0.628053
0.626043
0.624257
0.622674
0.621272
0.620032
0.618935
0.617965
0.617107
0.616346
0.61567
0.615069
0.614533
0.614054
0.613623
0.613235
0.612883
0.612563
0.612271
0.612002
0.611753
0.611522
0.611306
0.611103
0.610912
0.61073
0.610556
0.610389
0.610228
0.610073
0.609921
0.609774
0.609631
0.609491
0.609357
0.609235
0.609131
0.710948
0.70256
0.694634
0.687184
0.680218
0.673739
0.667744
0.662224
0.657164
0.652548
0.648355
0.644561
0.641143
0.638074
0.635327
0.632876
0.630696
0.628759
0.627042
0.625523
0.62418
0.622995
0.62195
0.621028
0.620214
0.619495
0.618859
0.618295
0.617794
0.617347
0.616948
0.616589
0.616265
0.615972
0.615705
0.61546
0.615235
0.615027
0.614833
0.614652
0.614481
0.614319
0.614166
0.614019
0.613878
0.613742
0.61361
0.613482
0.613358
0.613237
0.613124
0.613023
0.612943
0.710312
0.702226
0.694572
0.687369
0.680628
0.674354
0.668546
0.663197
0.658296
0.653825
0.649765
0.646094
0.642788
0.639822
0.637171
0.634809
0.63271
0.630849
0.629203
0.627748
0.626466
0.625337
0.624344
0.62347
0.622702
0.622025
0.621428
0.620901
0.620435
0.620021
0.619652
0.619323
0.619027
0.61876
0.618518
0.618298
0.618097
0.617911
0.617739
0.617579
0.617429
0.617288
0.617155
0.617028
0.616906
0.61679
0.616678
0.616569
0.616464
0.616364
0.61627
0.616191
0.616135
0.709184
0.701382
0.693989
0.687025
0.680503
0.674431
0.668809
0.663631
0.658887
0.654562
0.650635
0.647088
0.643895
0.641034
0.638479
0.636206
0.634189
0.632404
0.630828
0.629439
0.628217
0.627144
0.626203
0.625377
0.624653
0.624018
0.62346
0.62297
0.622537
0.622155
0.621817
0.621515
0.621247
0.621005
0.620788
0.620591
0.620412
0.620249
0.620098
0.619958
0.619829
0.619707
0.619593
0.619485
0.619382
0.619284
0.619191
0.619101
0.619014
0.618933
0.618859
0.618799
0.618767
0.707655
0.70012
0.692976
0.686241
0.679932
0.674057
0.668617
0.663609
0.659021
0.654839
0.651046
0.647621
0.644542
0.641785
0.639326
0.637141
0.635205
0.633496
0.63199
0.630666
0.629503
0.628485
0.627594
0.626816
0.626135
0.625541
0.62502
0.624565
0.624165
0.623814
0.623504
0.62323
0.622987
0.62277
0.622576
0.622401
0.622243
0.6221
0.621968
0.621848
0.621737
0.621633
0.621537
0.621446
0.621361
0.62128
0.621203
0.62113
0.621061
0.620996
0.62094
0.620899
0.620888
0.70579
0.698509
0.691601
0.685086
0.678982
0.673299
0.668037
0.663194
0.65876
0.65472
0.651058
0.647754
0.644787
0.642133
0.639768
0.637671
0.635816
0.63418
0.632743
0.631482
0.630378
0.629414
0.628573
0.62784
0.627201
0.626646
0.626162
0.625739
0.625371
0.625049
0.624766
0.624517
0.624298
0.624103
0.623931
0.623776
0.623638
0.623512
0.623399
0.623296
0.623201
0.623114
0.623033
0.622958
0.622888
0.622822
0.62276
0.622702
0.622648
0.622598
0.622557
0.622532
0.622539
0.703637
0.696597
0.689914
0.683611
0.677705
0.672207
0.667119
0.662437
0.658153
0.654253
0.65072
0.647535
0.644677
0.642124
0.639854
0.637841
0.636065
0.634503
0.633132
0.631932
0.630886
0.629974
0.62918
0.628491
0.627894
0.627375
0.626925
0.626535
0.626196
0.625901
0.625643
0.625418
0.625221
0.625047
0.624893
0.624757
0.624635
0.624527
0.624429
0.624341
0.62426
0.624187
0.62412
0.624058
0.624001
0.623948
0.623898
0.623852
0.62381
0.623773
0.623744
0.623732
0.623753
0.701234
0.694422
0.687955
0.681854
0.67614
0.670822
0.665902
0.661378
0.657241
0.653477
0.65007
0.647002
0.644251
0.641798
0.639618
0.63769
0.63599
0.634498
0.633193
0.632053
0.631061
0.630199
0.629452
0.628806
0.628247
0.627764
0.627346
0.626986
0.626674
0.626404
0.62617
0.625966
0.625788
0.625633
0.625496
0.625376
0.625269
0.625175
0.62509
0.625014
0.624946
0.624884
0.624828
0.624777
0.62473
0.624687
0.624647
0.62461
0.624578
0.62455
0.62453
0.624528
0.624557
0.698611
0.692016
0.685754
0.67985
0.674321
0.669177
0.664421
0.660051
0.656056
0.652424
0.649141
0.646186
0.643541
0.641184
0.639093
0.637246
0.635622
0.634199
0.632956
0.631874
0.630934
0.630121
0.629418
0.628812
0.628289
0.62784
0.627453
0.62712
0.626834
0.626587
0.626373
0.626189
0.626029
0.625889
0.625767
0.625661
0.625567
0.625484
0.62541
0.625344
0.625285
0.625232
0.625184
0.62514
0.625101
0.625064
0.625031
0.625001
0.624975
0.624952
0.624939
0.624941
0.624975
0.695634
0.689256
0.683203
0.677498
0.672157
0.667191
0.662602
0.658388
0.654539
0.651044
0.647886
0.645049
0.642512
0.640254
0.638255
0.636493
0.634946
0.633593
0.632414
0.631391
0.630506
0.629741
0.629083
0.628517
0.628032
0.627615
0.627259
0.626953
0.626691
0.626466
0.626273
0.626107
0.625963
0.625838
0.625729
0.625634
0.625551
0.625477
0.625412
0.625354
0.625301
0.625254
0.625212
0.625173
0.625138
0.625106
0.625076
0.62505
0.625026
0.625006
0.624994
0.624998
0.625029
0.69219
0.686036
0.680199
0.6747
0.669556
0.664775
0.660361
0.656311
0.652615
0.649263
0.646238
0.643523
0.641099
0.638946
0.637043
0.635369
0.633902
0.632622
0.631511
0.630548
0.629717
0.629002
0.628389
0.627863
0.627414
0.62703
0.626702
0.626421
0.626182
0.625977
0.625801
0.62565
0.625519
0.625405
0.625306
0.625219
0.625143
0.625074
0.625013
0.624958
0.624908
0.624863
0.624821
0.624782
0.624746
0.624713
0.624681
0.624652
0.624625
0.624602
0.624586
0.624583
0.624606
0.688361
0.682433
0.676814
0.671526
0.666582
0.66199
0.657755
0.653872
0.650333
0.647126
0.644237
0.641647
0.639339
0.637292
0.635486
0.6339
0.632514
0.631308
0.630262
0.629359
0.628582
0.627915
0.627345
0.626857
0.626441
0.626087
0.625784
0.625527
0.625306
0.625118
0.624956
0.624816
0.624694
0.624587
0.624494
0.62441
0.624336
0.624268
0.624206
0.624149
0.624097
0.624047
0.624
0.623956
0.623914
0.623873
0.623834
0.623796
0.62376
0.623727
0.6237
0.623685
0.623693
0.684145
0.678442
0.673044
0.667968
0.663227
0.658828
0.654775
0.651062
0.647683
0.644625
0.641873
0.639411
0.63722
0.635281
0.633573
0.632076
0.630771
0.629638
0.628658
0.627813
0.627089
0.626468
0.625938
0.625486
0.625101
0.624773
0.624494
0.624255
0.624051
0.623875
0.623723
0.62359
0.623473
0.623369
0.623276
0.623192
0.623115
0.623043
0.622976
0.622912
0.622851
0.622792
0.622735
0.62268
0.622625
0.622572
0.622519
0.622467
0.622416
0.622367
0.622323
0.62229
0.622277
0.679535
0.674058
0.668881
0.664019
0.659483
0.65528
0.651411
0.647872
0.644654
0.641747
0.639136
0.636803
0.634731
0.6329
0.631291
0.629883
0.628659
0.627598
0.626682
0.625895
0.625221
0.624645
0.624153
0.623734
0.623378
0.623073
0.622813
0.62259
0.622398
0.622231
0.622084
0.621954
0.621838
0.621733
0.621636
0.621546
0.621461
0.62138
0.621302
0.621227
0.621152
0.621079
0.621007
0.620934
0.620862
0.62079
0.620718
0.620645
0.620573
0.620502
0.620435
0.620377
0.620337
0.674522
0.66927
0.664315
0.659668
0.655339
0.651333
0.64765
0.644287
0.641234
0.638479
0.636009
0.633807
0.631854
0.630132
0.628622
0.627304
0.626159
0.625169
0.624317
0.623586
0.62296
0.622425
0.62197
0.621581
0.621249
0.620965
0.620721
0.620509
0.620325
0.620163
0.620018
0.619887
0.619767
0.619655
0.61955
0.619449
0.619352
0.619256
0.619163
0.61907
0.618977
0.618883
0.61879
0.618695
0.618599
0.618503
0.618405
0.618306
0.618207
0.618107
0.618011
0.617922
0.617849
0.669094
0.664065
0.659331
0.654899
0.650778
0.64697
0.643476
0.640289
0.637402
0.634802
0.632474
0.630403
0.62857
0.626957
0.625545
0.624316
0.62325
0.62233
0.621539
0.620861
0.620281
0.619786
0.619363
0.619001
0.61869
0.618423
0.61819
0.617987
0.617806
0.617644
0.617496
0.617359
0.61723
0.617107
0.616989
0.616872
0.616757
0.616643
0.616528
0.616412
0.616295
0.616176
0.616056
0.615933
0.615808
0.615681
0.615552
0.615421
0.615288
0.615154
0.615021
0.614895
0.614782
0.663231
0.658425
0.65391
0.649694
0.645781
0.642172
0.638866
0.635858
0.633137
0.630692
0.628507
0.626567
0.624854
0.623349
0.622035
0.620892
0.619904
0.619052
0.61832
0.617692
0.617156
0.616696
0.616302
0.615964
0.615671
0.615416
0.615191
0.614991
0.614809
0.614643
0.614487
0.614339
0.614197
0.614058
0.613921
0.613783
0.613646
0.613506
0.613365
0.613221
0.613074
0.612924
0.612771
0.612614
0.612454
0.612291
0.612125
0.611955
0.611782
0.611608
0.611433
0.611263
0.611104
0.656911
0.652325
0.648029
0.644027
0.640321
0.636912
0.633796
0.630965
0.628411
0.626121
0.624079
0.622269
0.620675
0.619278
0.61806
0.617002
0.616089
0.615302
0.614626
0.614046
0.613549
0.613122
0.612754
0.612434
0.612155
0.611907
0.611686
0.611484
0.611297
0.611122
0.610953
0.61079
0.610629
0.610469
0.610307
0.610144
0.609978
0.609809
0.609635
0.609458
0.609276
0.609089
0.608898
0.608701
0.608501
0.608295
0.608085
0.607871
0.607653
0.607432
0.607209
0.606989
0.606778
0.650103
0.645736
0.641657
0.637868
0.634369
0.631159
0.628231
0.625579
0.623191
0.621055
0.619155
0.617475
0.615998
0.614707
0.613582
0.612608
0.611767
0.611042
0.610419
0.609883
0.609422
0.609023
0.608676
0.608371
0.6081
0.607857
0.607633
0.607426
0.607229
0.607039
0.606853
0.606668
0.606484
0.606297
0.606106
0.605912
0.605713
0.605508
0.605297
0.60508
0.604858
0.604629
0.604394
0.604152
0.603905
0.603652
0.603393
0.603129
0.60286
0.602586
0.602309
0.602033
0.601764
0.642772
0.638621
0.634758
0.631181
0.627887
0.624874
0.622135
0.61966
0.617438
0.615454
0.613695
0.612143
0.610782
0.609593
0.60856
0.607666
0.606894
0.606228
0.605654
0.605158
0.604728
0.604353
0.604023
0.603728
0.603462
0.603216
0.602987
0.602768
0.602555
0.602346
0.602138
0.601928
0.601714
0.601495
0.601271
0.60104
0.600802
0.600557
0.600304
0.600043
0.599775
0.599498
0.599214
0.598923
0.598624
0.598318
0.598005
0.597686
0.59736
0.597028
0.596692
0.596355
0.596022
0.635166
0.631219
0.627559
0.624183
0.621085
0.618259
0.615698
0.613391
0.611325
0.609486
0.607858
0.606426
0.605171
0.604077
0.603127
0.602305
0.601593
0.600978
0.600445
0.599982
0.599576
0.599217
0.598896
0.598604
0.598334
0.59808
0.597837
0.5976
0.597366
0.597131
0.596893
0.59665
0.596401
0.596144
0.59588
0.595606
0.595323
0.595031
0.594729
0.594417
0.594097
0.593767
0.593427
0.593079
0.592723
0.592358
0.591984
0.591603
0.591213
0.590817
0.590416
0.590011
0.589608
0.627106
0.623356
0.619894
0.616713
0.613805
0.611162
0.608774
0.606629
0.604714
0.603014
0.601512
0.600193
0.59904
0.598035
0.597162
0.596405
0.595749
0.595179
0.594681
0.594244
0.593856
0.593508
0.59319
0.592895
0.592616
0.592348
0.592086
0.591825
0.591563
0.591297
0.591024
0.590743
0.590454
0.590154
0.589843
0.589522
0.589189
0.588844
0.588489
0.588122
0.587744
0.587356
0.586957
0.586547
0.586128
0.585699
0.58526
0.584812
0.584356
0.583891
0.583419
0.582942
0.582465
0.617877
0.614339
0.61109
0.608119
0.605415
0.602968
0.600766
0.598795
0.597042
0.59549
0.594123
0.592925
0.591879
0.590969
0.590178
0.58949
0.588891
0.588368
0.587907
0.587498
0.587129
0.586791
0.586477
0.586179
0.585891
0.585608
0.585326
0.585042
0.584752
0.584453
0.584146
0.583827
0.583496
0.583153
0.582797
0.582428
0.582045
0.581649
0.581241
0.580819
0.580386
0.57994
0.579482
0.579013
0.578532
0.578041
0.577539
0.577028
0.576506
0.575975
0.575435
0.574889
0.574341
0.607191
0.603886
0.600868
0.598124
0.595641
0.593406
0.591404
0.589621
0.588042
0.58665
0.585428
0.58436
0.58343
0.582621
0.581917
0.581305
0.580768
0.580296
0.579876
0.579497
0.57915
0.578826
0.578517
0.578219
0.577924
0.577629
0.57733
0.577024
0.576708
0.576381
0.576041
0.575688
0.57532
0.574937
0.574539
0.574126
0.573698
0.573256
0.572799
0.572329
0.571844
0.571347
0.570837
0.570315
0.56978
0.569234
0.568677
0.568109
0.567531
0.566942
0.566345
0.56574
0.56513
0.594853
0.591803
0.589039
0.586544
0.584302
0.582297
0.580514
0.578936
0.577546
0.576328
0.575265
0.57434
0.573537
0.57284
0.572235
0.571707
0.571242
0.57083
0.570459
0.57012
0.569803
0.569501
0.569208
0.568918
0.568626
0.568329
0.568023
0.567705
0.567375
0.567031
0.566671
0.566294
0.565902
0.565492
0.565067
0.564625
0.564166
0.563693
0.563204
0.5627
0.562183
0.561652
0.561107
0.56055
0.559981
0.559401
0.558808
0.558205
0.557592
0.556969
0.556336
0.555696
0.55505
0.580623
0.577861
0.575381
0.573163
0.571189
0.569441
0.5679
0.566549
0.565371
0.564348
0.563463
0.562701
0.562043
0.561477
0.560988
0.560562
0.560187
0.559853
0.559549
0.559268
0.559
0.55874
0.558481
0.55822
0.557951
0.557673
0.557382
0.557077
0.556756
0.556418
0.556063
0.55569
0.555299
0.554891
0.554465
0.554023
0.553564
0.553089
0.552599
0.552095
0.551576
0.551045
0.5505
0.549944
0.549376
0.548797
0.548207
0.547607
0.546998
0.546379
0.545753
0.545119
0.54448
0.563954
0.561528
0.559377
0.557478
0.555812
0.554357
0.553094
0.552005
0.55107
0.550274
0.549598
0.549026
0.548544
0.548137
0.547792
0.547497
0.547241
0.547013
0.546806
0.546612
0.546424
0.546236
0.546044
0.545844
0.545632
0.545407
0.545167
0.54491
0.544634
0.544341
0.544029
0.543699
0.54335
0.542984
0.5426
0.5422
0.541784
0.541353
0.540907
0.540448
0.539975
0.539491
0.538995
0.538488
0.537971
0.537445
0.53691
0.536366
0.535814
0.535255
0.53469
0.534119
0.533545
0.544262
0.542243
0.540488
0.538972
0.537673
0.536568
0.535637
0.53486
0.534219
0.533697
0.533276
0.532942
0.53268
0.532477
0.532321
0.532202
0.532109
0.532034
0.53197
0.53191
0.531849
0.531782
0.531706
0.531618
0.531515
0.531395
0.531258
0.531102
0.530928
0.530734
0.530522
0.530292
0.530044
0.529778
0.529497
0.529199
0.528887
0.528562
0.528223
0.527872
0.52751
0.527138
0.526756
0.526365
0.525967
0.525561
0.525148
0.524729
0.524305
0.523876
0.523442
0.523006
0.522569
0.525107
0.52355
0.522237
0.521143
0.520244
0.519518
0.518944
0.518502
0.518176
0.517948
0.517802
0.517725
0.517703
0.517725
0.51778
0.517859
0.517954
0.518057
0.518162
0.518264
0.518358
0.518442
0.518513
0.518567
0.518604
0.518622
0.518622
0.518602
0.518562
0.518503
0.518426
0.51833
0.518218
0.518089
0.517944
0.517785
0.517613
0.517428
0.517232
0.517025
0.516808
0.516583
0.51635
0.516111
0.515865
0.515613
0.515358
0.515098
0.514834
0.514568
0.5143
0.514031
0.513764
0.510459
0.509312
0.50839
0.507667
0.507118
0.506723
0.50646
0.506311
0.506258
0.506287
0.506382
0.506531
0.506722
0.506944
0.507188
0.507446
0.507711
0.507977
0.508239
0.508492
0.508733
0.50896
0.50917
0.509361
0.509533
0.509685
0.509816
0.509928
0.51002
0.510092
0.510146
0.510182
0.510202
0.510206
0.510195
0.510171
0.510135
0.510087
0.510029
0.509962
0.509886
0.509804
0.509715
0.509621
0.509523
0.509421
0.509316
0.509209
0.5091
0.508991
0.508882
0.508774
0.50867
0.499784
0.499043
0.498505
0.498145
0.49794
0.497868
0.49791
0.498048
0.498265
0.498547
0.498882
0.499256
0.499661
0.500085
0.500523
0.500965
0.501407
0.501843
0.502269
0.502681
0.503078
0.503456
0.503815
0.504154
0.504471
0.504766
0.505041
0.505294
0.505528
0.505742
0.505938
0.506116
0.506278
0.506425
0.506558
0.506678
0.506787
0.506885
0.506975
0.507057
0.507131
0.5072
0.507264
0.507325
0.507382
0.507438
0.507492
0.507545
0.507599
0.507654
0.507711
0.507771
0.507836
0.507913
0.494227
0.493893
0.493741
0.493747
0.493887
0.494142
0.494491
0.494919
0.495411
0.495953
0.496533
0.497141
0.497767
0.498404
0.499044
0.499681
0.50031
0.500927
0.501529
0.502114
0.502678
0.503221
0.503741
0.504238
0.504713
0.505164
0.505593
0.506001
0.506388
0.506754
0.507103
0.507434
0.507749
0.508049
0.508336
0.50861
0.508874
0.509129
0.509375
0.509615
0.509849
0.510078
0.510304
0.510527
0.510749
0.51097
0.511192
0.511414
0.511639
0.511866
0.512097
0.512332
0.512574
0.512827
0.495453
0.495539
0.495787
0.496172
0.496673
0.497268
0.497941
0.498676
0.499459
0.500278
0.501121
0.501981
0.502847
0.503714
0.504576
0.505427
0.506263
0.507081
0.507878
0.508652
0.509403
0.510128
0.510828
0.511502
0.512151
0.512776
0.513376
0.513953
0.514509
0.515044
0.51556
0.516059
0.516541
0.517008
0.517463
0.517906
0.518338
0.518762
0.519178
0.519589
0.519994
0.520396
0.520796
0.521195
0.521593
0.521993
0.522394
0.522798
0.523206
0.523618
0.524035
0.524459
0.52489
0.525332
0.506224
0.506763
0.507443
0.508242
0.509136
0.510107
0.511139
0.512215
0.513325
0.514455
0.515598
0.516744
0.517886
0.519018
0.520135
0.521234
0.52231
0.523361
0.524386
0.525382
0.52635
0.527288
0.528197
0.529077
0.529928
0.530753
0.531551
0.532325
0.533075
0.533803
0.534512
0.535202
0.535875
0.536533
0.537178
0.537811
0.538435
0.53905
0.539658
0.540261
0.54086
0.541457
0.542052
0.542648
0.543245
0.543844
0.544447
0.545054
0.545667
0.546286
0.546912
0.547547
0.548191
0.548846
0.531769
0.532825
0.534005
0.535285
0.536642
0.538058
0.539516
0.541004
0.542508
0.544018
0.545527
0.547025
0.548508
0.54997
0.551406
0.552814
0.554191
0.555535
0.556845
0.55812
0.55936
0.560565
0.561735
0.562872
0.563977
0.565051
0.566095
0.567112
0.568103
0.569071
0.570016
0.570941
0.571849
0.572741
0.573618
0.574484
0.57534
0.576188
0.57703
0.577867
0.578701
0.579533
0.580366
0.5812
0.582036
0.582877
0.583724
0.584577
0.585437
0.586306
0.587185
0.588074
0.588975
0.58989
0.583633
0.585342
0.58716
0.58906
0.591021
0.593023
0.59505
0.597089
0.599127
0.601154
0.603164
0.605149
0.607103
0.609022
0.610904
0.612744
0.614542
0.616297
0.618007
0.619672
0.621295
0.622874
0.624411
0.625908
0.627367
0.628789
0.630176
0.631532
0.632857
0.634155
0.635429
0.636679
0.63791
0.639123
0.640321
0.641507
0.642682
0.643848
0.645009
0.646165
0.64732
0.648474
0.64963
0.650789
0.651953
0.653123
0.654301
0.655489
0.656687
0.657896
0.659119
0.660356
0.661608
0.662877
0.693679
0.696365
0.699151
0.702007
0.704909
0.707834
0.710765
0.713687
0.716589
0.719459
0.72229
0.725076
0.727811
0.730492
0.733115
0.735679
0.738183
0.740626
0.74301
0.745333
0.747599
0.749808
0.751963
0.754066
0.75612
0.758127
0.76009
0.762013
0.763899
0.765751
0.767573
0.769366
0.771136
0.772885
0.774616
0.776332
0.778037
0.779733
0.781423
0.783109
0.784795
0.786482
0.788173
0.789871
0.791576
0.793292
0.79502
0.796761
0.798518
0.800292
0.802085
0.803897
0.805731
0.807588
0.990967
0.995759
1.00066
1.00563
1.01062
1.01562
1.0206
1.02554
1.03043
1.03524
1.03998
1.04463
1.04919
1.05365
1.05801
1.06228
1.06645
1.07052
1.07449
1.07837
1.08216
1.08586
1.08948
1.09301
1.09648
1.09987
1.10319
1.10646
1.10966
1.11282
1.11594
1.11901
1.12205
1.12506
1.12805
1.13101
1.13396
1.1369
1.13983
1.14276
1.1457
1.14864
1.15158
1.15454
1.15752
1.16051
1.16353
1.16657
1.16964
1.17274
1.17587
1.17903
1.18223
1.18547
2.55579
2.57292
2.59002
2.607
2.62379
2.64035
2.65662
2.67258
2.6882
2.70345
2.71834
2.73286
2.747
2.76077
2.77418
2.78722
2.79991
2.81227
2.8243
2.83601
2.84743
2.85857
2.86944
2.88006
2.89045
2.90062
2.91059
2.92038
2.93
2.93948
2.94882
2.95805
2.96718
2.97623
2.9852
2.99412
3.003
3.01186
3.0207
3.02953
3.03838
3.04724
3.05614
3.06507
3.07406
3.08311
3.09222
3.10141
3.11067
3.12003
3.12949
3.13904
3.1487
3.15847
)
;

boundaryField
{
    inlet
    {
        type            fixedValue;
        value           nonuniform 0();
    }
    outlet
    {
        type            zeroGradient;
    }
    upperWall
    {
        Cmu             0.09;
        kappa           0.41;
        E               9.8;
        type            epsilonWallFunction;
        value           nonuniform List<scalar> 
54
(
2.55579
2.57292
2.59002
2.607
2.62379
2.64035
2.65662
2.67258
2.6882
2.70345
2.71834
2.73286
2.747
2.76077
2.77418
2.78722
2.79991
2.81227
2.8243
2.83601
2.84743
2.85857
2.86944
2.88006
2.89045
2.90062
2.91059
2.92038
2.93
2.93948
2.94882
2.95805
2.96718
2.97623
2.9852
2.99412
3.003
3.01186
3.0207
3.02953
3.03838
3.04724
3.05614
3.06507
3.07406
3.08311
3.09222
3.10141
3.11067
3.12003
3.12949
3.13904
3.1487
3.15847
)
;
    }
    lowerWall
    {
        Cmu             0.09;
        kappa           0.41;
        E               9.8;
        type            epsilonWallFunction;
        value           nonuniform List<scalar> 
57
(
2.01782
1.96939
1.92369
1.88072
1.84046
1.80286
1.76787
1.7354
1.70539
1.67773
1.65231
1.62904
1.60778
1.58843
1.57085
1.5549
1.54041
1.52731
1.51578
1.5056
1.49662
1.48869
1.48172
1.47559
1.47023
1.46556
1.4615
1.45799
1.45497
1.4524
1.45022
1.44839
1.44689
1.44567
1.44471
1.44399
1.44347
1.44313
1.44297
1.44296
1.44309
1.44334
1.44371
1.44418
1.44475
1.4454
1.44612
1.44692
1.44779
1.44871
1.44969
1.45072
1.4518
1.45292
1.45408
1.45528
1.45651
)
;
    }
    frontAndBack
    {
        type            empty;
    }
    procBoundary1to0
    {
        type            processor;
        value           nonuniform List<scalar> 
59
(
1.45778
0.673424
0.549391
0.514566
0.505702
0.507297
0.513729
0.522466
0.532209
0.542232
0.552114
0.552114
0.561405
0.570305
0.578562
0.586132
0.59306
0.599213
0.604506
0.60903
0.612866
0.616082
0.618738
0.62088
0.622549
0.623777
0.62459
0.625012
0.625065
0.624632
0.623704
0.622266
0.620298
0.617776
0.614669
0.610944
0.606564
0.601491
0.595684
0.589199
0.58198
0.573784
0.564511
0.554396
0.543834
0.532966
0.52213