/*--------------------------------*- C++ -*----------------------------------*\
  =========                 |
  \\      /  F ield         | OpenFOAM: The Open Source CFD Toolbox
   \\    /   O peration     | Website:  https://openfoam.org
    \\  /    A nd           | Version:  6
     \\/     M anipulation  |
\*---------------------------------------------------------------------------*/
FoamFile
{
    version     2.0;
    format      ascii;
    class       volScalarField;
    location    "0.1";
    object      k;
}
// * * * * * * * * * * * * * * * * * * * * * * * * * * * * * * * * * * * * * //

dimensions      [0 2 -2 0 0 0 0];

internalField   nonuniform List<scalar> 
3081
(
0.0192756
0.0189446
0.0186285
0.0183277
0.0180425
0.017773
0.0175192
0.017281
0.0170581
0.0168504
0.0166573
0.0164784
0.016313
0.0161606
0.0160205
0.0158918
0.0157735
0.0156648
0.0155667
0.0154787
0.0153995
0.0153282
0.0152638
0.0152057
0.0151533
0.015106
0.0150631
0.0150244
0.0149893
0.0149574
0.0149285
0.0149021
0.014878
0.014856
0.0148359
0.0148174
0.0148003
0.0147845
0.0147699
0.0147563
0.0147437
0.0147318
0.0147207
0.0147102
0.0147003
0.0146908
0.0146818
0.0146732
0.014665
0.014657
0.0146494
0.0146419
0.0146346
0.0146276
0.0146206
0.0146138
0.0146071
0.0369242
0.0362208
0.0355512
0.0349157
0.0343146
0.0337479
0.0332152
0.0327162
0.03225
0.031816
0.031413
0.03104
0.0306956
0.0303785
0.0300873
0.0298203
0.0295759
0.0293522
0.0291462
0.0289579
0.0287883
0.0286357
0.0284984
0.028375
0.0282639
0.0281639
0.0280738
0.0279925
0.0279191
0.0278527
0.0277925
0.0277379
0.0276882
0.0276429
0.0276015
0.0275635
0.0275285
0.0274961
0.0274662
0.0274383
0.0274122
0.0273878
0.0273648
0.0273429
0.0273222
0.0273024
0.0272835
0.0272652
0.0272476
0.0272305
0.0272138
0.0271975
0.0271816
0.0271659
0.0271504
0.027135
0.0271198
0.0464611
0.0456004
0.0447802
0.044001
0.0432631
0.0425664
0.0419108
0.0412957
0.0407204
0.0401839
0.0396851
0.0392227
0.0387952
0.038401
0.0380384
0.0377056
0.0374007
0.0371218
0.0368667
0.0366332
0.0364203
0.0362278
0.0360539
0.0358969
0.0357553
0.0356274
0.0355119
0.0354076
0.0353132
0.0352277
0.0351501
0.0350797
0.0350155
0.0349568
0.0349032
0.0348539
0.0348085
0.0347666
0.0347276
0.0346914
0.0346575
0.0346256
0.0345956
0.0345671
0.03454
0.0345141
0.0344893
0.0344654
0.0344423
0.0344198
0.0343979
0.0343765
0.0343555
0.0343348
0.0343144
0.0342942
0.0342742
0.0532037
0.0522483
0.0513368
0.0504698
0.0496478
0.0488709
0.0481388
0.0474512
0.0468072
0.046206
0.0456463
0.0451268
0.044646
0.044202
0.0437933
0.0434177
0.0430733
0.0427582
0.0424701
0.042207
0.0419666
0.0417483
0.0415506
0.0413718
0.04121
0.0410638
0.0409314
0.0408117
0.0407032
0.0406048
0.0405154
0.0404341
0.0403599
0.0402921
0.04023
0.0401729
0.0401202
0.0400714
0.0400261
0.0399838
0.0399443
0.039907
0.0398719
0.0398386
0.0398068
0.0397765
0.0397473
0.0397192
0.039692
0.0396655
0.0396397
0.0396145
0.0395897
0.0395653
0.0395412
0.0395173
0.0394936
0.0585499
0.0575313
0.0565583
0.0556316
0.0547519
0.0539194
0.053134
0.0523953
0.0517027
0.0510553
0.050452
0.0498914
0.0493719
0.0488919
0.0484494
0.0480425
0.0476692
0.0473273
0.0470147
0.0467292
0.0464687
0.0462312
0.046016
0.0458209
0.0456443
0.0454844
0.0453395
0.0452083
0.0450893
0.0449812
0.044883
0.0447935
0.0447118
0.044637
0.0445684
0.0445053
0.0444471
0.0443931
0.0443429
0.0442961
0.0442522
0.0442108
0.0441718
0.0441347
0.0440993
0.0440655
0.044033
0.0440016
0.0439711
0.0439415
0.0439126
0.0438844
0.0438566
0.0438292
0.0438022
0.0437754
0.0437488
0.0629859
0.0619256
0.0609114
0.0599442
0.0590248
0.0581534
0.0573303
0.0565553
0.0558277
0.0551467
0.0545115
0.0539205
0.0533724
0.0528654
0.0523976
0.0519671
0.0515719
0.0512097
0.0508784
0.0505758
0.0502998
0.050048
0.0498193
0.0496119
0.0494239
0.0492536
0.0490991
0.0489591
0.048832
0.0487165
0.0486115
0.0485157
0.0484282
0.0483481
0.0482746
0.0482069
0.0481444
0.0480864
0.0480325
0.0479821
0.0479349
0.0478903
0.0478482
0.0478082
0.0477701
0.0477335
0.0476984
0.0476644
0.0476315
0.0475994
0.0475681
0.0475375
0.0475073
0.0474776
0.0474483
0.0474192
0.0473903
0.065652
0.0646128
0.0636202
0.0626751
0.0617783
0.06093
0.06013
0.0593781
0.0586737
0.0580157
0.057403
0.0568341
0.0563074
0.0558211
0.0553732
0.0549616
0.0545843
0.0542391
0.0539237
0.0536359
0.0533735
0.0531347
0.052918
0.0527215
0.0525432
0.0523816
0.0522349
0.0521018
0.0519807
0.0518705
0.05177
0.0516782
0.0515941
0.0515169
0.0514458
0.05138
0.0513191
0.0512623
0.0512093
0.0511595
0.0511126
0.0510682
0.051026
0.0509858
0.0509472
0.05091
0.0508741
0.0508393
0.0508054
0.0507723
0.0507399
0.0507079
0.0506765
0.0506454
0.0506145
0.0505839
0.0688333
0.0677826
0.0667774
0.0658189
0.0649079
0.0640449
0.06323
0.0624631
0.0617437
0.0610709
0.0604438
0.0598609
0.0593208
0.0588217
0.0583617
0.0579388
0.0575509
0.0571958
0.0568712
0.0565751
0.0563051
0.0560592
0.055836
0.0556334
0.0554495
0.0552827
0.0551313
0.0549938
0.0548688
0.054755
0.0546512
0.0545563
0.0544694
0.0543895
0.054316
0.054248
0.0541849
0.0541262
0.0540713
0.0540197
0.0539712
0.0539252
0.0538815
0.0538397
0.0537997
0.0537611
0.0537239
0.0536877
0.0536525
0.0536181
0.0535844
0.0535512
0.0535185
0.0534861
0.053454
0.0534221
0.0704973
0.0694909
0.0685295
0.0676143
0.066746
0.0659249
0.0651512
0.0644244
0.0637439
0.063109
0.0625183
0.0619704
0.0614637
0.0609965
0.0605666
0.0601721
0.0598108
0.0594805
0.0591791
0.0589044
0.0586541
0.0584267
0.0582203
0.0580329
0.0578628
0.0577085
0.0575682
0.0574407
0.0573246
0.0572187
0.0571219
0.0570332
0.0569518
0.0568767
0.0568073
0.056743
0.056683
0.056627
0.0565744
0.0565248
0.0564778
0.0564332
0.0563905
0.0563496
0.0563102
0.0562721
0.0562352
0.0561992
0.0561639
0.0561294
0.0560954
0.0560619
0.0560288
0.0559959
0.0559631
0.0728109
0.0718131
0.0708584
0.0699479
0.0690827
0.0682633
0.06749
0.0667628
0.0660811
0.0654443
0.0648513
0.0643009
0.0637914
0.0633212
0.0628885
0.0624911
0.0621271
0.0617943
0.0614905
0.0612136
0.0609614
0.0607321
0.0605239
0.0603349
0.0601634
0.0600076
0.0598661
0.0597375
0.0596203
0.0595135
0.0594159
0.0593264
0.0592443
0.0591686
0.0590987
0.0590338
0.0589734
0.0589169
0.0588638
0.0588138
0.0587665
0.0587214
0.0586784
0.0586371
0.0585974
0.0585589
0.0585216
0.0584853
0.0584497
0.0584148
0.0583805
0.0583466
0.0583131
0.0582798
0.0582467
0.0747648
0.0737845
0.0728447
0.071947
0.0710924
0.0702818
0.0695157
0.0687943
0.0681172
0.0674841
0.0668939
0.0663455
0.0658377
0.0653687
0.0649368
0.0645401
0.0641766
0.0638441
0.0635407
0.0632641
0.0630122
0.0627831
0.0625751
0.0623863
0.0622149
0.0620592
0.0619179
0.0617894
0.0616724
0.0615657
0.0614683
0.061379
0.0612971
0.0612216
0.0611518
0.0610871
0.0610269
0.0609706
0.0609177
0.0608678
0.0608206
0.0607757
0.0607328
0.0606917
0.060652
0.0606137
0.0605765
0.0605402
0.0605047
0.0604698
0.0604356
0.0604017
0.0603682
0.060335
0.0603019
0.0763931
0.075438
0.0745206
0.0736426
0.0728053
0.0720099
0.0712571
0.0705471
0.06988
0.0692555
0.0686728
0.0681309
0.0676287
0.0671647
0.0667371
0.0663443
0.0659842
0.0656549
0.0653542
0.0650803
0.0648308
0.064604
0.0643979
0.0642109
0.0640412
0.0638871
0.0637472
0.06362
0.0635043
0.0633989
0.0633025
0.0632143
0.0631334
0.0630588
0.06299
0.0629261
0.0628667
0.0628111
0.0627589
0.0627098
0.0626632
0.0626189
0.0625766
0.062536
0.0624969
0.0624591
0.0624224
0.0623865
0.0623515
0.0623171
0.0622833
0.0622498
0.0622167
0.0621839
0.0621512
0.0621187
0.0777249
0.0768017
0.0759132
0.0750611
0.0742472
0.0734726
0.0727384
0.072045
0.0713927
0.0707813
0.0702103
0.069679
0.0691861
0.0687305
0.0683105
0.0679245
0.0675706
0.0672469
0.0669515
0.0666822
0.0664372
0.0662144
0.0660121
0.0658284
0.0656618
0.0655106
0.0653733
0.0652486
0.0651352
0.0650319
0.0649375
0.0648512
0.064772
0.0646991
0.0646318
0.0645694
0.0645114
0.0644571
0.0644062
0.0643582
0.0643128
0.0642696
0.0642283
0.0641887
0.0641505
0.0641135
0.0640777
0.0640427
0.0640085
0.0639749
0.0639418
0.0639091
0.0638767
0.0638446
0.0638127
0.0637808
0.0779007
0.0770465
0.0762258
0.0754403
0.0746916
0.0739808
0.0733085
0.0726753
0.0720812
0.0715258
0.0710085
0.0705285
0.0700844
0.0696749
0.0692985
0.0689533
0.0686376
0.0683495
0.068087
0.0678482
0.0676312
0.067434
0.0672552
0.067093
0.0669459
0.0668124
0.0666912
0.0665811
0.0664808
0.0663893
0.0663056
0.0662289
0.0661583
0.0660932
0.0660328
0.0659767
0.0659242
0.065875
0.0658287
0.0657848
0.065743
0.0657032
0.0656649
0.065628
0.0655923
0.0655577
0.0655239
0.0654908
0.0654583
0.0654263
0.0653947
0.0653634
0.0653323
0.0653014
0.0652705
0.078757
0.0779421
0.0771574
0.0764049
0.0756864
0.0750031
0.074356
0.0737458
0.0731725
0.0726362
0.0721363
0.071672
0.0712424
0.0708461
0.0704817
0.0701476
0.0698421
0.0695633
0.0693094
0.0690785
0.0688687
0.0686783
0.0685055
0.068349
0.0682071
0.0680785
0.0679618
0.0678558
0.0677593
0.0676714
0.0675911
0.0675175
0.0674498
0.0673874
0.0673296
0.0672759
0.0672258
0.0671787
0.0671344
0.0670925
0.0670526
0.0670145
0.0669779
0.0669427
0.0669086
0.0668755
0.0668431
0.0668115
0.0667804
0.0667498
0.0667196
0.0666896
0.0666598
0.0666302
0.0666006
0.0794042
0.0786332
0.0778891
0.0771741
0.0764901
0.0758386
0.0752206
0.0746371
0.0740884
0.0735745
0.0730951
0.0726497
0.0722373
0.0718568
0.0715069
0.0711861
0.0708928
0.0706252
0.0703815
0.0701601
0.0699589
0.0697764
0.0696109
0.069461
0.0693253
0.0692023
0.0690908
0.0689896
0.0688976
0.0688139
0.0687373
0.0686673
0.0686029
0.0685436
0.0684886
0.0684376
0.0683899
0.0683452
0.0683031
0.0682632
0.0682253
0.068189
0.0681542
0.0681207
0.0680882
0.0680566
0.0680258
0.0679956
0.0679659
0.0679367
0.0679077
0.0678791
0.0678506
0.0678222
0.0677938
0.0798305
0.079106
0.0784053
0.0777306
0.0770839
0.0764669
0.0758808
0.0753267
0.0748051
0.0743162
0.0738599
0.0734357
0.0730428
0.0726803
0.0723469
0.0720413
0.071762
0.0715073
0.0712755
0.0710649
0.0708736
0.0707003
0.0705434
0.0704013
0.0702728
0.0701566
0.0700513
0.0699559
0.0698693
0.0697904
0.0697186
0.0696528
0.0695925
0.0695369
0.0694855
0.0694378
0.0693932
0.0693515
0.0693122
0.069275
0.0692396
0.0692058
0.0691734
0.0691421
0.0691118
0.0690823
0.0690535
0.0690253
0.0689976
0.0689702
0.0689432
0.0689164
0.0688897
0.0688631
0.0688365
0.0793811
0.0787227
0.0780879
0.0774783
0.076896
0.0763422
0.075818
0.0753242
0.074861
0.0744285
0.0740263
0.0736538
0.0733102
0.0729943
0.0727049
0.0724405
0.0721997
0.0719807
0.0717818
0.0716016
0.0714384
0.0712909
0.0711576
0.0710373
0.0709287
0.0708305
0.0707417
0.0706613
0.0705883
0.0705219
0.0704613
0.0704058
0.0703548
0.0703077
0.0702641
0.0702235
0.0701855
0.0701499
0.0701161
0.0700841
0.0700536
0.0700243
0.0699961
0.0699688
0.0699423
0.0699164
0.0698911
0.0698662
0.0698416
0.0698173
0.0697933
0.0697693
0.0697454
0.0697216
0.0788871
0.0782909
0.0777178
0.0771695
0.0766475
0.076153
0.0756868
0.0752494
0.0748409
0.074461
0.0741092
0.0737848
0.0734868
0.0732139
0.0729649
0.0727383
0.0725326
0.0723461
0.0721772
0.0720247
0.0718872
0.0717632
0.0716515
0.071551
0.0714604
0.0713787
0.0713049
0.0712382
0.0711776
0.0711226
0.0710724
0.0710264
0.0709841
0.0709451
0.0709089
0.0708751
0.0708435
0.0708137
0.0707855
0.0707587
0.070733
0.0707083
0.0706845
0.0706614
0.070639
0.070617
0.0705954
0.0705741
0.0705531
0.0705323
0.0705116
0.070491
0.0704705
0.0789326
0.0783739
0.0778359
0.0773206
0.0768295
0.076364
0.075925
0.0755129
0.075128
0.0747701
0.0744389
0.0741336
0.0738534
0.0735971
0.0733635
0.0731513
0.0729589
0.0727849
0.0726277
0.072486
0.0723585
0.072244
0.0721411
0.0720488
0.071966
0.0718915
0.0718245
0.0717642
0.0717098
0.0716605
0.0716157
0.0715749
0.0715376
0.0715033
0.0714716
0.0714423
0.0714149
0.0713892
0.071365
0.071342
0.0713202
0.0712992
0.0712791
0.0712596
0.0712407
0.0712223
0.0712042
0.0711864
0.0711689
0.0711516
0.0711344
0.0711172
0.0711002
0.0788861
0.078363
0.0778585
0.0773748
0.0769135
0.0764759
0.0760631
0.0756756
0.0753137
0.0749773
0.0746662
0.0743797
0.074117
0.073877
0.0736586
0.0734605
0.0732814
0.0731197
0.072974
0.0728431
0.0727256
0.0726204
0.0725263
0.0724422
0.072367
0.0722998
0.0722396
0.0721857
0.0721372
0.0720936
0.0720543
0.0720187
0.0719863
0.0719567
0.0719295
0.0719045
0.0718813
0.0718597
0.0718395
0.0718204
0.0718023
0.0717851
0.0717686
0.0717527
0.0717374
0.0717225
0.0717079
0.0716937
0.0716796
0.0716658
0.071652
0.0716384
0.0716249
0.0787679
0.0782782
0.0778054
0.0773517
0.0769187
0.0765079
0.0761202
0.0757564
0.0754167
0.0751011
0.0748094
0.0745411
0.0742953
0.0740712
0.0738676
0.0736833
0.073517
0.0733674
0.073233
0.0731125
0.0730049
0.0729088
0.0728232
0.0727471
0.0726794
0.0726191
0.0725655
0.0725178
0.0724752
0.0724371
0.072403
0.0723723
0.0723446
0.0723196
0.0722968
0.0722759
0.0722568
0.0722391
0.0722226
0.0722073
0.0721928
0.0721791
0.0721661
0.0721537
0.0721418
0.0721302
0.072119
0.0721081
0.0720973
0.0720868
0.0720764
0.0720661
0.0720559
0.0785931
0.0781347
0.0776918
0.0772664
0.0768603
0.0764749
0.0761112
0.07577
0.0754515
0.0751559
0.0748829
0.0746321
0.0744026
0.0741938
0.0740044
0.0738334
0.0736795
0.0735414
0.0734179
0.0733076
0.0732093
0.073122
0.0730446
0.0729761
0.0729155
0.072862
0.0728146
0.0727728
0.0727357
0.0727028
0.0726737
0.0726477
0.0726244
0.0726036
0.0725849
0.0725679
0.0725525
0.0725384
0.0725255
0.0725136
0.0725024
0.072492
0.0724822
0.0724729
0.0724641
0.0724556
0.0724474
0.0724395
0.0724318
0.0724243
0.0724169
0.0724096
0.0724025
0.0783734
0.0779442
0.0775292
0.0771306
0.0767498
0.0763885
0.0760476
0.0757278
0.0754296
0.075153
0.0748979
0.0746638
0.07445
0.0742557
0.0740799
0.0739216
0.0737795
0.0736525
0.0735392
0.0734386
0.0733493
0.0732704
0.0732007
0.0731394
0.0730856
0.0730383
0.0729968
0.0729604
0.0729285
0.0729005
0.0728759
0.0728542
0.0728351
0.0728181
0.0728031
0.0727896
0.0727776
0.0727668
0.072757
0.072748
0.0727399
0.0727323
0.0727254
0.0727188
0.0727127
0.0727069
0.0727014
0.0726961
0.072691
0.0726861
0.0726813
0.0726766
0.0726721
0.0781175
0.0777156
0.0773269
0.0769532
0.0765964
0.0762578
0.0759384
0.075639
0.07536
0.0751015
0.0748634
0.0746451
0.0744462
0.0742657
0.0741029
0.0739566
0.0738257
0.0737091
0.0736056
0.073514
0.0734332
0.0733621
0.0732998
0.0732452
0.0731976
0.0731561
0.0731201
0.0730887
0.0730615
0.0730379
0.0730174
0.0729996
0.0729841
0.0729705
0.0729587
0.0729484
0.0729393
0.0729313
0.0729242
0.0729178
0.0729122
0.0729071
0.0729025
0.0728982
0.0728944
0.0728908
0.0728875
0.0728843
0.0728814
0.0728786
0.0728759
0.0728733
0.0728709
0.0778323
0.0774559
0.0770916
0.0767414
0.0764071
0.0760898
0.0757908
0.0755107
0.0752499
0.0750085
0.0747864
0.0745832
0.0743983
0.074231
0.0740803
0.0739454
0.0738251
0.0737183
0.0736238
0.0735407
0.0734677
0.0734039
0.0733483
0.0733
0.0732581
0.073222
0.0731908
0.073164
0.073141
0.0731213
0.0731044
0.0730899
0.0730776
0.073067
0.073058
0.0730502
0.0730436
0.0730378
0.0730329
0.0730287
0.073025
0.0730218
0.0730191
0.0730166
0.0730145
0.0730126
0.0730109
0.0730094
0.073008
0.0730068
0.0730056
0.0730046
0.0730038
0.0775231
0.0771702
0.0768288
0.0765006
0.0761874
0.0758903
0.0756104
0.0753484
0.0751048
0.0748795
0.0746726
0.0744836
0.0743119
0.074157
0.0740178
0.0738935
0.0737831
0.0736854
0.0735994
0.0735241
0.0734583
0.0734012
0.0733517
0.073309
0.0732724
0.073241
0.0732142
0.0731914
0.073172
0.0731557
0.0731419
0.0731303
0.0731205
0.0731124
0.0731055
0.0730998
0.0730951
0.0730912
0.0730879
0.0730852
0.073083
0.0730811
0.0730796
0.0730784
0.0730774
0.0730766
0.073076
0.0730755
0.0730751
0.0730748
0.0730746
0.0730745
0.0730745
0.0771747
0.0768449
0.0765259
0.0762194
0.0759269
0.0756497
0.0753888
0.0751448
0.0749181
0.0747089
0.0745171
0.0743422
0.0741837
0.074041
0.0739132
0.0737995
0.0736988
0.0736101
0.0735324
0.0734647
0.073406
0.0733553
0.0733117
0.0732744
0.0732426
0.0732157
0.0731929
0.0731738
0.0731578
0.0731444
0.0731334
0.0731242
0.0731166
0.0731104
0.0731054
0.0731013
0.073098
0.0730953
0.0730932
0.0730915
0.0730902
0.0730892
0.0730884
0.0730878
0.0730874
0.0730871
0.0730869
0.0730868
0.0730868
0.0730868
0.0730869
0.073087
0.0730872
0.076772
0.0764653
0.0761688
0.0758841
0.0756127
0.0753556
0.0751139
0.0748882
0.0746788
0.0744859
0.0743092
0.0741486
0.0740034
0.073873
0.0737567
0.0736535
0.0735624
0.0734826
0.0734131
0.0733527
0.0733007
0.0732561
0.073218
0.0731857
0.0731583
0.0731354
0.0731162
0.0731001
0.0730869
0.0730759
0.0730669
0.0730595
0.0730534
0.0730485
0.0730445
0.0730412
0.0730385
0.0730363
0.0730345
0.0730329
0.0730316
0.0730305
0.0730296
0.0730287
0.0730279
0.0730271
0.0730264
0.0730257
0.073025
0.0730242
0.0730235
0.0730228
0.0730221
0.0763222
0.0760384
0.0757642
0.0755012
0.0752506
0.0750136
0.074791
0.0745834
0.0743911
0.0742142
0.0740526
0.0739059
0.0737738
0.0736554
0.0735501
0.0734571
0.0733753
0.0733039
0.073242
0.0731885
0.0731427
0.0731036
0.0730704
0.0730424
0.0730188
0.0729991
0.0729827
0.0729691
0.0729578
0.0729485
0.0729407
0.0729343
0.0729289
0.0729244
0.0729205
0.0729172
0.0729143
0.0729116
0.0729092
0.0729069
0.0729047
0.0729026
0.0729004
0.0728983
0.0728961
0.0728939
0.0728916
0.0728892
0.0728868
0.0728842
0.0728816
0.072879
0.0728762
0.075823
0.0755618
0.0753097
0.0750681
0.0748383
0.0746211
0.0744174
0.0742277
0.0740523
0.0738913
0.0737445
0.0736116
0.0734921
0.0733855
0.0732909
0.0732075
0.0731346
0.0730712
0.0730164
0.0729693
0.072929
0.0728948
0.0728659
0.0728416
0.0728211
0.072804
0.0727897
0.0727778
0.0727677
0.0727592
0.072752
0.0727457
0.0727402
0.0727353
0.0727307
0.0727265
0.0727224
0.0727185
0.0727146
0.0727106
0.0727066
0.0727024
0.0726982
0.0726938
0.0726892
0.0726845
0.0726796
0.0726746
0.0726694
0.072664
0.0726585
0.0726528
0.0726469
0.0752717
0.0750328
0.0748025
0.0745821
0.0743727
0.0741752
0.0739902
0.0738182
0.0736595
0.0735141
0.0733818
0.0732624
0.0731553
0.07306
0.0729757
0.0729017
0.0728371
0.0727811
0.0727329
0.0726916
0.0726564
0.0726265
0.0726012
0.0725799
0.0725619
0.0725466
0.0725337
0.0725226
0.072513
0.0725046
0.072497
0.0724901
0.0724837
0.0724775
0.0724715
0.0724655
0.0724594
0.0724532
0.0724469
0.0724403
0.0724335
0.0724265
0.0724191
0.0724115
0.0724036
0.0723955
0.072387
0.0723783
0.0723692
0.0723599
0.0723504
0.0723406
0.0723305
0.0746651
0.074448
0.0742392
0.0740398
0.0738506
0.0736724
0.0735058
0.0733513
0.073209
0.0730789
0.0729608
0.0728545
0.0727595
0.0726751
0.0726007
0.0725355
0.0724788
0.0724298
0.0723876
0.0723515
0.0723207
0.0722945
0.0722721
0.0722531
0.0722368
0.0722227
0.0722104
0.0721994
0.0721895
0.0721803
0.0721717
0.0721633
0.072155
0.0721467
0.0721383
0.0721297
0.0721207
0.0721114
0.0721017
0.0720917
0.0720812
0.0720702
0.0720589
0.0720471
0.0720348
0.0720222
0.0720091
0.0719956
0.0719818
0.0719675
0.0719528
0.0719378
0.0719224
0.0739991
0.0738035
0.0736158
0.073437
0.0732677
0.0731086
0.0729601
0.0728227
0.0726965
0.0725814
0.0724772
0.0723836
0.0723001
0.0722262
0.0721612
0.0721044
0.072055
0.0720123
0.0719756
0.071944
0.071917
0.0718937
0.0718737
0.0718562
0.0718409
0.0718271
0.0718146
0.071803
0.071792
0.0717813
0.0717706
0.0717599
0.071749
0.0717377
0.071726
0.0717138
0.0717011
0.0716877
0.0716738
0.0716592
0.0716441
0.0716283
0.0716119
0.0715949
0.0715773
0.0715592
0.0715405
0.0715212
0.0715014
0.0714811
0.0714603
0.0714389
0.0714171
0.0732692
0.0730946
0.0729277
0.072769
0.0726191
0.0724787
0.0723481
0.0722274
0.0721169
0.0720163
0.0719255
0.0718442
0.0717718
0.0717079
0.0716517
0.0716027
0.07156
0.0715231
0.0714912
0.0714635
0.0714395
0.0714185
0.0713999
0.0713833
0.0713681
0.0713539
0.0713405
0.0713273
0.0713143
0.0713012
0.0712877
0.0712738
0.0712593
0.0712441
0.0712282
0.0712116
0.0711941
0.0711758
0.0711566
0.0711366
0.0711158
0.0710942
0.0710718
0.0710486
0.0710246
0.0709999
0.0709745
0.0709484
0.0709216
0.0708941
0.070866
0.0708372
0.0708078
0.0724698
0.0723158
0.072169
0.07203
0.0718993
0.0717771
0.0716637
0.0715594
0.0714641
0.0713776
0.0712997
0.0712301
0.0711683
0.0711137
0.0710658
0.0710239
0.0709873
0.0709554
0.0709275
0.070903
0.0708813
0.0708617
0.0708439
0.0708272
0.0708114
0.0707959
0.0707806
0.0707651
0.0707492
0.0707328
0.0707156
0.0706975
0.0706785
0.0706585
0.0706375
0.0706154
0.0705922
0.0705679
0.0705426
0.0705162
0.0704887
0.0704602
0.0704307
0.0704003
0.0703689
0.0703366
0.0703034
0.0702694
0.0702344
0.0701987
0.0701621
0.0701247
0.0700866
0.0715945
0.0714604
0.0713333
0.0712134
0.0711012
0.0709967
0.0709002
0.0708116
0.0707309
0.0706579
0.0705924
0.0705338
0.0704819
0.0704361
0.0703957
0.0703602
0.0703289
0.0703013
0.0702767
0.0702545
0.0702342
0.0702153
0.0701972
0.0701797
0.0701623
0.0701447
0.0701266
0.0701078
0.0700881
0.0700674
0.0700455
0.0700224
0.0699979
0.0699722
0.069945
0.0699165
0.0698866
0.0698553
0.0698227
0.0697889
0.0697537
0.0697173
0.0696797
0.069641
0.0696011
0.0695601
0.069518
0.0694748
0.0694307
0.0693855
0.0693393
0.0692921
0.069244
0.0706355
0.0705207
0.0704126
0.0703113
0.0702169
0.0701295
0.0700491
0.0699756
0.0699089
0.0698487
0.0697947
0.0697466
0.0697038
0.0696659
0.0696322
0.0696023
0.0695755
0.0695513
0.0695291
0.0695083
0.0694886
0.0694693
0.0694502
0.0694309
0.0694109
0.0693902
0.0693684
0.0693453
0.0693208
0.0692949
0.0692673
0.0692381
0.0692072
0.0691746
0.0691403
0.0691043
0.0690667
0.0690274
0.0689866
0.0689442
0.0689003
0.0688549
0.0688081
0.0687599
0.0687104
0.0686595
0.0686074
0.068554
0.0684994
0.0684436
0.0683866
0.0683285
0.0682692
0.0696233
0.069526
0.0694352
0.0693507
0.0692725
0.0692005
0.0691346
0.0690746
0.0690203
0.0689713
0.0689274
0.0688881
0.068853
0.0688215
0.0687931
0.0687673
0.0687435
0.0687213
0.0687
0.0686793
0.0686587
0.0686378
0.0686163
0.0685938
0.06857
0.0685448
0.0685179
0.0684893
0.0684587
0.0684262
0.0683916
0.068355
0.0683164
0.0682757
0.0682329
0.0681882
0.0681414
0.0680928
0.0680423
0.06799
0.067936
0.0678802
0.0678228
0.0677637
0.0677031
0.067641
0.0675773
0.0675122
0.0674456
0.0673777
0.0673083
0.0672375
0.0671654
0.0685314
0.0684503
0.0683755
0.0683066
0.0682433
0.0681854
0.0681328
0.068085
0.0680418
0.0680028
0.0679677
0.0679359
0.0679072
0.0678808
0.0678565
0.0678335
0.0678116
0.0677901
0.0677686
0.0677467
0.067724
0.0677002
0.0676749
0.067648
0.0676192
0.0675882
0.0675551
0.0675196
0.0674818
0.0674414
0.0673987
0.0673534
0.0673057
0.0672556
0.0672032
0.0671484
0.0670913
0.067032
0.0669706
0.0669071
0.0668416
0.0667741
0.0667047
0.0666334
0.0665603
0.0664854
0.0664088
0.0663305
0.0662505
0.0661689
0.0660856
0.0660007
0.0659142
0.0672546
0.0671904
0.0671323
0.0670795
0.0670317
0.0669884
0.0669494
0.0669141
0.0668822
0.0668533
0.066827
0.0668028
0.0667803
0.0667589
0.0667383
0.0667179
0.0666973
0.066676
0.0666538
0.0666302
0.0666048
0.0665775
0.0665479
0.066516
0.0664814
0.0664441
0.066404
0.066361
0.0663151
0.0662663
0.0662146
0.06616
0.0661026
0.0660424
0.0659795
0.065914
0.0658459
0.0657752
0.0657022
0.0656268
0.0655491
0.0654692
0.0653871
0.065303
0.0652167
0.0651285
0.0650382
0.0649461
0.064852
0.064756
0.0646582
0.0645584
0.0644568
0.0657386
0.0656921
0.0656513
0.0656153
0.0655834
0.0655552
0.0655301
0.0655076
0.0654872
0.0654685
0.065451
0.0654342
0.0654178
0.0654012
0.065384
0.0653658
0.0653462
0.0653248
0.0653013
0.0652755
0.065247
0.0652156
0.0651813
0.0651437
0.0651028
0.0650586
0.065011
0.06496
0.0649056
0.0648478
0.0647867
0.0647223
0.0646547
0.064584
0.0645103
0.0644336
0.064354
0.0642717
0.0641867
0.064099
0.0640088
0.0639162
0.0638212
0.0637238
0.0636241
0.0635222
0.0634181
0.0633118
0.0632033
0.0630928
0.0629801
0.0628654
0.0627485
0.0639342
0.0639063
0.0638836
0.0638651
0.0638499
0.0638373
0.0638266
0.0638173
0.0638088
0.0638006
0.0637921
0.0637831
0.0637729
0.0637612
0.0637475
0.0637316
0.0637132
0.0636918
0.0636672
0.0636393
0.0636079
0.0635727
0.0635338
0.0634909
0.0634441
0.0633934
0.0633387
0.0632802
0.0632177
0.0631515
0.0630816
0.0630081
0.062931
0.0628506
0.0627668
0.0626798
0.0625897
0.0624966
0.0624006
0.0623017
0.0622002
0.0620959
0.0619891
0.0618797
0.0617679
0.0616536
0.061537
0.061418
0.0612967
0.0611731
0.0610472
0.0609191
0.0607886
0.0617737
0.0617657
0.0617624
0.0617625
0.0617649
0.061769
0.0617737
0.0617785
0.0617828
0.0617859
0.0617875
0.061787
0.061784
0.0617781
0.0617691
0.0617566
0.0617404
0.0617203
0.061696
0.0616674
0.0616345
0.0615971
0.0615553
0.0615089
0.0614581
0.0614028
0.0613432
0.0612792
0.0612111
0.0611388
0.0610626
0.0609825
0.0608986
0.0608112
0.0607202
0.0606259
0.0605283
0.0604276
0.0603238
0.0602171
0.0601076
0.0599953
0.0598803
0.0597627
0.0596425
0.0595198
0.0593946
0.0592671
0.0591371
0.0590047
0.05887
0.0587329
0.0585935
0.0591131
0.0591267
0.0591442
0.0591643
0.0591858
0.0592077
0.0592292
0.0592494
0.0592678
0.0592837
0.0592967
0.0593063
0.0593121
0.0593139
0.0593113
0.0593042
0.0592924
0.0592757
0.0592541
0.0592274
0.0591957
0.059159
0.0591172
0.0590705
0.059019
0.0589626
0.0589016
0.058836
0.058766
0.0586918
0.0586134
0.058531
0.0584449
0.058355
0.0582616
0.0581648
0.0580647
0.0579614
0.0578551
0.0577459
0.0576339
0.0575191
0.0574017
0.0572817
0.0571591
0.0570341
0.0569067
0.0567769
0.0566448
0.0565104
0.0563736
0.0562345
0.0560932
0.0557244
0.0557613
0.0558013
0.0558431
0.0558853
0.0559268
0.0559667
0.0560041
0.0560385
0.0560692
0.0560958
0.056118
0.0561353
0.0561476
0.0561546
0.0561562
0.0561524
0.056143
0.0561282
0.0561078
0.0560819
0.0560506
0.056014
0.0559723
0.0559255
0.0558738
0.0558173
0.0557563
0.0556908
0.0556211
0.0555474
0.0554697
0.0553883
0.0553033
0.0552149
0.0551232
0.0550284
0.0549306
0.05483
0.0547266
0.0546206
0.054512
0.0544009
0.0542875
0.0541718
0.0540538
0.0539337
0.0538113
0.0536869
0.0535604
0.0534318
0.0533011
0.0531684
0.0519791
0.0520402
0.0521033
0.0521669
0.0522297
0.0522905
0.0523485
0.0524029
0.0524531
0.0524986
0.052539
0.052574
0.0526034
0.052627
0.0526447
0.0526564
0.0526623
0.0526621
0.0526562
0.0526444
0.052627
0.0526041
0.0525757
0.0525422
0.0525036
0.0524602
0.0524121
0.0523595
0.0523026
0.0522417
0.0521768
0.0521083
0.0520361
0.0519606
0.051882
0.0518002
0.0517156
0.0516282
0.0515382
0.0514457
0.0513508
0.0512536
0.0511542
0.0510527
0.0509491
0.0508436
0.0507361
0.0506267
0.0505155
0.0504025
0.0502877
0.0501712
0.0500528
0.048546
0.0486242
0.0487033
0.0487818
0.0488583
0.0489319
0.0490018
0.0490672
0.0491276
0.0491826
0.0492318
0.049275
0.0493122
0.049343
0.0493677
0.0493861
0.0493983
0.0494044
0.0494045
0.0493987
0.0493873
0.0493703
0.049348
0.0493205
0.0492881
0.0492509
0.0492092
0.0491632
0.049113
0.049059
0.0490012
0.0489398
0.0488751
0.0488072
0.0487363
0.0486626
0.0485861
0.0485071
0.0484257
0.048342
0.048256
0.048168
0.0480779
0.0479859
0.0478921
0.0477965
0.0476991
0.0476001
0.0474994
0.0473971
0.0472932
0.0471877
0.0470807
0.0451569
0.0452485
0.0453398
0.0454295
0.0455164
0.0455995
0.0456781
0.0457516
0.0458195
0.0458815
0.0459372
0.0459867
0.0460297
0.0460663
0.0460965
0.0461203
0.0461378
0.0461492
0.0461547
0.0461543
0.0461484
0.046137
0.0461205
0.0460989
0.0460725
0.0460416
0.0460063
0.0459669
0.0459236
0.0458765
0.0458259
0.045772
0.0457149
0.0456549
0.045592
0.0455265
0.0454585
0.0453881
0.0453155
0.0452407
0.045164
0.0450853
0.0450048
0.0449226
0.0448387
0.0447532
0.0446661
0.0445775
0.0444875
0.044396
0.0443031
0.0442089
0.0441132
0.0440162
0.0418103
0.0419118
0.042012
0.0421096
0.0422038
0.0422935
0.0423781
0.0424571
0.0425301
0.0425969
0.0426573
0.0427112
0.0427586
0.0427994
0.0428338
0.0428619
0.0428838
0.0428997
0.0429098
0.0429142
0.0429132
0.0429069
0.0428956
0.0428796
0.042859
0.042834
0.042805
0.042772
0.0427353
0.0426951
0.0426516
0.042605
0.0425554
0.0425031
0.0424482
0.0423908
0.0423311
0.0422693
0.0422054
0.0421395
0.0420719
0.0420025
0.0419314
0.0418588
0.0417847
0.0417091
0.0416322
0.0415539
0.0414743
0.0413935
0.0413113
0.041228
0.0411435
0.0410577
0.0384893
0.0385973
0.0387032
0.0388059
0.0389044
0.038998
0.0390862
0.0391684
0.0392445
0.0393142
0.0393774
0.0394341
0.0394843
0.0395281
0.0395656
0.0395969
0.0396222
0.0396416
0.0396555
0.0396639
0.0396671
0.0396654
0.0396589
0.0396479
0.0396325
0.0396131
0.0395898
0.0395629
0.0395325
0.0394988
0.0394621
0.0394224
0.0393801
0.0393352
0.0392879
0.0392384
0.0391867
0.0391331
0.0390776
0.0390204
0.0389615
0.038901
0.0388391
0.0387757
0.038711
0.038645
0.0385778
0.0385094
0.0384398
0.0383692
0.0382974
0.0382245
0.0381506
0.0380757
0.0351573
0.0352686
0.0353771
0.0354819
0.0355821
0.0356772
0.0357665
0.0358499
0.035927
0.0359977
0.0360621
0.03612
0.0361717
0.0362171
0.0362564
0.0362897
0.0363174
0.0363395
0.0363563
0.0363679
0.0363747
0.0363768
0.0363744
0.0363678
0.0363572
0.0363427
0.0363247
0.0363033
0.0362787
0.0362511
0.0362206
0.0361875
0.0361519
0.036114
0.0360739
0.0360318
0.0359878
0.0359419
0.0358944
0.0358453
0.0357947
0.0357427
0.0356894
0.0356348
0.0355791
0.0355222
0.0354642
0.0354051
0.0353451
0.0352841
0.0352221
0.0351592
0.0350954
0.0350306
0.0317486
0.0318598
0.0319677
0.0320716
0.0321707
0.0322645
0.0323527
0.0324348
0.0325109
0.0325808
0.0326445
0.0327021
0.0327536
0.0327992
0.0328391
0.0328734
0.0329023
0.032926
0.0329448
0.0329588
0.0329682
0.0329734
0.0329744
0.0329715
0.0329649
0.0329548
0.0329415
0.032925
0.0329057
0.0328836
0.0328589
0.0328318
0.0328025
0.0327711
0.0327377
0.0327025
0.0326655
0.032627
0.032587
0.0325455
0.0325028
0.0324588
0.0324136
0.0323673
0.03232
0.0322717
0.0322224
0.0321723
0.0321212
0.0320693
0.0320166
0.0319631
0.0319088
0.0318537
0.0281424
0.0282494
0.028353
0.0284525
0.0285472
0.0286367
0.0287207
0.0287991
0.0288717
0.0289384
0.0289994
0.0290547
0.0291044
0.0291486
0.0291875
0.0292213
0.0292502
0.0292744
0.029294
0.0293093
0.0293205
0.0293278
0.0293313
0.0293314
0.0293281
0.0293218
0.0293124
0.0293003
0.0292856
0.0292685
0.0292491
0.0292275
0.029204
0.0291786
0.0291514
0.0291227
0.0290924
0.0290608
0.0290278
0.0289936
0.0289583
0.0289218
0.0288844
0.028846
0.0288068
0.0287666
0.0287257
0.028684
0.0286415
0.0285983
0.0285545
0.0285099
0.0284647
0.0284187
0.024089
0.024186
0.0242798
0.0243697
0.0244552
0.024536
0.0246118
0.0246825
0.0247481
0.0248086
0.0248638
0.0249141
0.0249594
0.0249999
0.0250358
0.0250672
0.0250943
0.0251172
0.0251363
0.0251516
0.0251633
0.0251717
0.0251768
0.0251789
0.0251782
0.0251747
0.0251687
0.0251604
0.0251498
0.0251372
0.0251226
0.0251061
0.025088
0.0250683
0.0250472
0.0250246
0.0250008
0.0249758
0.0249497
0.0249226
0.0248946
0.0248656
0.0248358