/*--------------------------------*- C++ -*----------------------------------*\
  =========                 |
  \\      /  F ield         | OpenFOAM: The Open Source CFD Toolbox
   \\    /   O peration     | Website:  https://openfoam.org
    \\  /    A nd           | Version:  6
     \\/     M anipulation  |
\*---------------------------------------------------------------------------*/
FoamFile
{
    version     2.0;
    format      ascii;
    class       volScalarField;
    location    "0.1";
    object      nut;
}
// * * * * * * * * * * * * * * * * * * * * * * * * * * * * * * * * * * * * * //

dimensions      [0 2 -1 0 0 0 0];

internalField   nonuniform List<scalar> 
3081
(
1.6572e-05
1.64014e-05
1.62354e-05
1.60744e-05
1.59188e-05
1.57689e-05
1.5625e-05
1.54874e-05
1.53561e-05
1.52314e-05
1.51133e-05
1.50017e-05
1.48965e-05
1.47976e-05
1.47048e-05
1.46179e-05
1.45366e-05
1.44599e-05
1.4388e-05
1.4322e-05
1.42609e-05
1.42042e-05
1.41515e-05
1.41023e-05
1.40563e-05
1.40131e-05
1.39725e-05
1.39342e-05
1.38979e-05
1.38635e-05
1.38306e-05
1.37991e-05
1.37689e-05
1.37397e-05
1.37116e-05
1.36843e-05
1.36577e-05
1.36317e-05
1.36063e-05
1.35814e-05
1.35569e-05
1.35327e-05
1.35088e-05
1.34852e-05
1.34617e-05
1.34384e-05
1.34152e-05
1.33921e-05
1.33691e-05
1.33461e-05
1.33231e-05
1.33e-05
1.3277e-05
1.32539e-05
1.32308e-05
1.32075e-05
1.31842e-05
0.000134356
0.000132243
0.000130203
0.000128241
0.000126359
0.00012456
0.000122848
0.000121222
0.000119685
0.000118235
0.000116873
0.000115597
0.000114404
0.000113294
0.000112262
0.000111305
0.000110418
0.00010959
0.000108792
0.000108035
0.000107344
0.000106717
0.000106146
0.000105626
0.000105152
0.000104719
0.000104322
0.000103958
0.000103621
0.00010331
0.000103021
0.000102752
0.0001025
0.000102263
0.000102039
0.000101826
0.000101624
0.00010143
0.000101243
0.000101063
0.000100888
0.000100717
0.00010055
0.000100386
0.000100225
0.000100066
9.99077e-05
9.97509e-05
9.95949e-05
9.94393e-05
9.9284e-05
9.91285e-05
9.89729e-05
9.88168e-05
9.86601e-05
9.85026e-05
9.83443e-05
0.000262526
0.000258461
0.000254521
0.000250715
0.000247052
0.000243539
0.000240182
0.000236986
0.000233953
0.000231085
0.000228382
0.000225844
0.000223468
0.000221249
0.000219184
0.000217266
0.000215488
0.000213838
0.0002123
0.000210858
0.00020951
0.000208276
0.000207147
0.000206115
0.000205172
0.00020431
0.00020352
0.000202796
0.000202131
0.000201517
0.000200951
0.000200426
0.000199937
0.000199482
0.000199054
0.000198652
0.000198271
0.000197909
0.000197564
0.000197233
0.000196915
0.000196607
0.000196307
0.000196015
0.00019573
0.000195449
0.000195173
0.000194899
0.000194629
0.00019436
0.000194092
0.000193826
0.000193559
0.000193292
0.000193025
0.000192757
0.000192487
0.000368447
0.000363004
0.00035771
0.000352579
0.000347624
0.000342856
0.000338286
0.00033392
0.000329766
0.000325826
0.000322103
0.000318597
0.000315307
0.000312228
0.000309356
0.000306684
0.000304203
0.000301903
0.000299769
0.000297788
0.000295943
0.000294239
0.000292677
0.000291246
0.000289936
0.000288736
0.000287637
0.000286629
0.000285703
0.000284851
0.000284065
0.000283338
0.000282664
0.000282037
0.000281451
0.000280901
0.000280384
0.000279894
0.000279429
0.000278985
0.000278559
0.00027815
0.000277754
0.000277369
0.000276995
0.000276628
0.000276268
0.000275914
0.000275564
0.000275218
0.000274874
0.000274532
0.000274191
0.00027385
0.000273509
0.000273168
0.000272825
0.000454358
0.000448031
0.000441856
0.000435853
0.000430038
0.000424426
0.00041903
0.00041386
0.000408926
0.000404234
0.000399788
0.00039559
0.00039164
0.000387936
0.000384472
0.000381243
0.000378241
0.000375455
0.000372872
0.000370479
0.000368261
0.000366205
0.000364316
0.000362583
0.000360995
0.000359539
0.000358203
0.000356979
0.000355854
0.000354819
0.000353866
0.000352985
0.000352169
0.000351411
0.000350705
0.000350044
0.000349423
0.000348837
0.000348283
0.000347755
0.000347251
0.000346768
0.000346302
0.000345851
0.000345412
0.000344985
0.000344567
0.000344156
0.000343751
0.000343351
0.000342955
0.000342562
0.000342171
0.000341781
0.000341391
0.000341001
0.000340609
0.000524321
0.000517492
0.000510805
0.000504284
0.000497948
0.000491814
0.000485899
0.000480216
0.000474776
0.000469589
0.00046466
0.000459994
0.000455593
0.000451456
0.000447579
0.000443957
0.000440584
0.000437448
0.00043454
0.000431845
0.000429351
0.000427039
0.00042491
0.000422955
0.00042116
0.000419513
0.000418002
0.000416615
0.000415342
0.00041417
0.000413091
0.000412094
0.000411172
0.000410317
0.00040952
0.000408776
0.000408079
0.000407422
0.000406802
0.000406213
0.000405651
0.000405114
0.000404597
0.000404099
0.000403615
0.000403145
0.000402686
0.000402236
0.000401793
0.000401357
0.000400925
0.000400498
0.000400073
0.000399649
0.000399227
0.000398804
0.00039838
0.000574577
0.000567661
0.000560894
0.000554298
0.000547894
0.000541699
0.000535729
0.000529999
0.000524519
0.000519299
0.000514344
0.000509659
0.000505243
0.000501097
0.000497215
0.000493593
0.00049022
0.000487088
0.000484184
0.000481495
0.000479007
0.000476708
0.000474594
0.000472652
0.000470868
0.000469231
0.000467727
0.000466345
0.000465074
0.000463903
0.000462822
0.000461823
0.000460896
0.000460035
0.00045923
0.000458477
0.00045777
0.000457102
0.000456469
0.000455867
0.000455292
0.00045474
0.000454208
0.000453694
0.000453194
0.000452707
0.00045223
0.000451762
0.000451302
0.000450847
0.000450396
0.000449949
0.000449504
0.000449061
0.000448617
0.00044817
0.000621695
0.000614765
0.000607957
0.000601302
0.000594821
0.000588532
0.000582453
0.000576602
0.00057099
0.00056563
0.000560529
0.000555693
0.000551125
0.000546825
0.000542792
0.00053902
0.000535503
0.000532232
0.000529195
0.000526382
0.000523777
0.000521369
0.000519151
0.00051711
0.000515235
0.000513512
0.000511929
0.000510474
0.000509134
0.000507901
0.000506762
0.00050571
0.000504734
0.000503828
0.000502983
0.000502192
0.000501449
0.00050075
0.000500087
0.000499458
0.000498858
0.000498283
0.000497729
0.000497195
0.000496676
0.000496171
0.000495678
0.000495194
0.000494718
0.000494249
0.000493785
0.000493325
0.000492868
0.000492411
0.000491955
0.000491494
0.000653851
0.000647171
0.000640615
0.000634207
0.00062797
0.000621923
0.000616084
0.000610468
0.000605089
0.000599956
0.000595078
0.00059046
0.000586103
0.000582007
0.000578169
0.000574583
0.000571243
0.000568138
0.000565259
0.000562592
0.000560123
0.000557847
0.000555751
0.000553822
0.000552049
0.000550418
0.000548918
0.000547538
0.000546266
0.000545092
0.000544007
0.000543002
0.000542068
0.000541198
0.000540384
0.000539621
0.000538902
0.000538223
0.000537578
0.000536963
0.000536375
0.000535809
0.000535263
0.000534735
0.00053422
0.000533719
0.000533227
0.000532744
0.000532268
0.000531798
0.000531331
0.000530868
0.000530406
0.000529944
0.000529475
0.000686268
0.000679831
0.000673492
0.000667275
0.000661204
0.000655299
0.000649579
0.000644062
0.000638763
0.000633692
0.000628861
0.000624275
0.000619939
0.000615854
0.000612019
0.000608429
0.000605079
0.000601962
0.000599067
0.000596382
0.000593897
0.000591601
0.000589485
0.000587536
0.000585742
0.000584091
0.000582573
0.000581174
0.000579886
0.000578696
0.000577597
0.000576578
0.000575632
0.000574751
0.000573928
0.000573156
0.00057243
0.000571743
0.000571092
0.000570472
0.000569879
0.00056931
0.000568761
0.00056823
0.000567713
0.000567209
0.000566717
0.000566233
0.000565756
0.000565285
0.000564819
0.000564356
0.000563894
0.00056343
0.000562959
0.000713014
0.000706921
0.000700896
0.000694964
0.00068915
0.000683477
0.000677963
0.000672628
0.000667487
0.000662556
0.000657844
0.000653361
0.000649111
0.000645099
0.000641324
0.000637785
0.000634476
0.000631392
0.000628524
0.000625863
0.000623396
0.000621115
0.00061901
0.000617069
0.000615282
0.000613636
0.00061212
0.000610724
0.000609438
0.00060825
0.000607152
0.000606135
0.00060519
0.000604311
0.000603489
0.000602719
0.000601995
0.000601311
0.000600663
0.000600046
0.000599456
0.00059889
0.000598345
0.000597817
0.000597305
0.000596805
0.000596317
0.000595837
0.000595365
0.000594899
0.000594438
0.00059398
0.000593523
0.000593064
0.000592594
0.000734891
0.000729219
0.000723584
0.000718012
0.00071253
0.000707158
0.00070192
0.000696835
0.000691919
0.000687189
0.000682658
0.000678334
0.000674226
0.000670339
0.000666674
0.000663231
0.000660007
0.000656997
0.000654194
0.00065159
0.000649174
0.000646937
0.00064487
0.000642963
0.000641205
0.000639585
0.000638092
0.000636717
0.000635449
0.000634278
0.000633196
0.000632193
0.000631262
0.000630396
0.000629586
0.000628828
0.000628115
0.000627442
0.000626804
0.000626197
0.000625617
0.000625061
0.000624526
0.000624008
0.000623505
0.000623015
0.000622536
0.000622066
0.000621604
0.000621147
0.000620695
0.000620247
0.000619799
0.00061935
0.000618892
0.000618412
0.000752538
0.000747354
0.000742165
0.000737012
0.000731918
0.000726906
0.000721999
0.000717218
0.000712581
0.000708105
0.000703804
0.000699689
0.000695769
0.00069205
0.000688537
0.000685229
0.000682127
0.000679226
0.00067652
0.000674003
0.000671666
0.0006695
0.000667496
0.000665644
0.000663936
0.000662361
0.000660909
0.000659571
0.000658337
0.000657197
0.000656143
0.000655167
0.00065426
0.000653416
0.000652629
0.00065189
0.000651197
0.000650542
0.000649922
0.000649332
0.000648768
0.000648228
0.000647708
0.000647205
0.000646717
0.000646241
0.000645777
0.000645321
0.000644872
0.000644429
0.000643991
0.000643556
0.000643122
0.000642686
0.000642242
0.000641784
0.000761828
0.000757139
0.000752449
0.000747787
0.000743178
0.000738646
0.000734213
0.000729898
0.000725718
0.000721689
0.000717823
0.00071413
0.000710618
0.000707292
0.000704154
0.000701205
0.000698443
0.000695863
0.000693459
0.000691226
0.000689152
0.000687232
0.000685456
0.000683817
0.000682304
0.000680909
0.000679622
0.000678435
0.000677339
0.000676325
0.000675386
0.000674514
0.000673702
0.000672944
0.000672234
0.000671567
0.000670938
0.000670342
0.000669775
0.000669234
0.000668715
0.000668215
0.000667732
0.000667263
0.000666807
0.00066636
0.000665923
0.000665492
0.000665067
0.000664646
0.000664228
0.000663811
0.000663392
0.000662966
0.000662528
0.000773108
0.000768928
0.000764724
0.000760523
0.00075635
0.000752228
0.000748178
0.00074422
0.000740372
0.000736649
0.000733065
0.000729632
0.000726358
0.000723249
0.00072031
0.000717542
0.000714945
0.000712515
0.000710249
0.000708139
0.000706179
0.000704362
0.000702679
0.000701125
0.000699689
0.000698365
0.000697143
0.000696016
0.000694974
0.000694011
0.000693119
0.000692291
0.00069152
0.0006908
0.000690126
0.000689493
0.000688895
0.000688329
0.000687791
0.000687277
0.000686785
0.00068631
0.000685852
0.000685407
0.000684974
0.00068455
0.000684134
0.000683725
0.000683321
0.000682921
0.000682524
0.000682127
0.000681728
0.000681323
0.000680904
0.000781672
0.000778034
0.000774349
0.000770644
0.000766942
0.000763265
0.000759635
0.000756069
0.000752586
0.000749203
0.000745934
0.000742791
0.000739785
0.000736922
0.000734209
0.000731647
0.000729239
0.000726981
0.000724872
0.000722907
0.000721077
0.000719378
0.000717804
0.000716347
0.000715002
0.000713759
0.000712613
0.000711554
0.000710576
0.000709671
0.000708832
0.000708053
0.000707328
0.000706651
0.000706017
0.000705421
0.000704858
0.000704325
0.000703818
0.000703333
0.000702868
0.000702421
0.000701988
0.000701567
0.000701157
0.000700756
0.000700362
0.000699974
0.000699591
0.000699212
0.000698834
0.000698457
0.000698077
0.000697691
0.000697289
0.000787404
0.000784326
0.000781169
0.000777975
0.00077476
0.000771545
0.000768351
0.000765196
0.000762098
0.000759074
0.000756139
0.000753307
0.000750588
0.000747991
0.000745524
0.000743189
0.000740988
0.000738922
0.000736988
0.000735183
0.0007335
0.000731935
0.000730485
0.000729142
0.000727901
0.000726755
0.000725696
0.000724719
0.000723817
0.000722982
0.000722208
0.00072149
0.000720821
0.000720197
0.000719612
0.000719063
0.000718544
0.000718053
0.000717585
0.000717138
0.00071671
0.000716297
0.000715897
0.000715509
0.00071513
0.00071476
0.000714396
0.000714037
0.000713682
0.00071333
0.00071298
0.00071263
0.000712276
0.000711915
0.000711536
0.000788059
0.000785443
0.000782736
0.000779989
0.00077722
0.000774448
0.000771692
0.00076897
0.0007663
0.000763697
0.000761175
0.000758745
0.000756417
0.0007542
0.000752097
0.000750111
0.000748244
0.000746494
0.000744858
0.000743332
0.000741913
0.000740597
0.000739379
0.000738254
0.000737215
0.000736257
0.000735374
0.000734558
0.000733804
0.000733107
0.000732461
0.00073186
0.0007313
0.000730776
0.000730284
0.000729821
0.000729383
0.000728966
0.000728568
0.000728187
0.00072782
0.000727466
0.000727121
0.000726785
0.000726457
0.000726134
0.000725816
0.000725502
0.00072519
0.000724879
0.000724567
0.000724252
0.000723928
0.000723583
0.000787786
0.000785545
0.000783237
0.000780887
0.000778516
0.000776141
0.00077378
0.000771452
0.00076917
0.00076695
0.000764803
0.000762741
0.00076077
0.000758898
0.000757128
0.000755461
0.000753898
0.000752435
0.000751069
0.0007498
0.000748624
0.000747536
0.000746532
0.000745607
0.000744754
0.00074397
0.000743247
0.000742581
0.000741966
0.000741398
0.000740871
0.000740381
0.000739925
0.000739497
0.000739095
0.000738716
0.000738357
0.000738015
0.000737687
0.000737373
0.000737069
0.000736775
0.000736489
0.000736209
0.000735934
0.000735663
0.000735396
0.00073513
0.000734866
0.0007346
0.00073433
0.000734049
0.000733746
0.000788709
0.000786867
0.000784958
0.000782996
0.000780999
0.000778983
0.000776965
0.000774961
0.000772986
0.000771056
0.000769183
0.000767377
0.000765647
0.000764
0.00076244
0.00076097
0.00075959
0.0007583
0.000757095
0.000755975
0.000754939
0.000753982
0.0007531
0.00075229
0.000751545
0.000750861
0.000750233
0.000749657
0.000749127
0.000748639
0.000748188
0.000747771
0.000747384
0.000747023
0.000746685
0.000746368
0.000746068
0.000745784
0.000745513
0.000745254
0.000745004
0.000744763
0.000744528
0.0007443
0.000744076
0.000743855
0.000743637
0.000743422
0.000743206
0.00074299
0.000742768
0.000742533
0.000742274
0.000788488
0.000787023
0.000785484
0.000783883
0.000782236
0.000780556
0.000778859
0.000777161
0.000775478
0.000773822
0.000772209
0.000770648
0.000769148
0.000767717
0.000766361
0.000765081
0.000763879
0.000762756
0.000761708
0.000760735
0.000759836
0.000759007
0.000758246
0.000757548
0.000756909
0.000756325
0.000755792
0.000755304
0.000754858
0.000754449
0.000754074
0.00075373
0.000753411
0.000753117
0.000752843
0.000752587
0.000752347
0.00075212
0.000751906
0.000751701
0.000751505
0.000751317
0.000751134
0.000750957
0.000750783
0.000750613
0.000750445
0.000750278
0.000750112
0.000749944
0.00074977
0.000749583
0.000749367
0.000787377
0.000786266
0.000785072
0.000783808
0.000782486
0.00078112
0.000779724
0.000778313
0.000776902
0.000775506
0.000774137
0.000772807
0.000771526
0.000770301
0.000769137
0.000768039
0.000767007
0.000766044
0.000765147
0.000764315
0.000763548
0.000762843
0.000762198
0.000761609
0.000761072
0.000760585
0.000760141
0.000759739
0.000759374
0.000759042
0.00075874
0.000758465
0.000758213
0.000757982
0.000757769
0.000757572
0.000757389
0.000757218
0.000757058
0.000756906
0.000756761
0.000756623
0.00075649
0.000756361
0.000756236
0.000756113
0.000755993
0.000755873
0.000755754
0.000755632
0.000755504
0.000755361
0.000755187
0.00078558
0.000784797
0.000783925
0.000782973
0.000781954
0.000780879
0.000779762
0.000778618
0.000777462
0.000776308
0.000775169
0.000774056
0.00077298
0.000771948
0.000770966
0.000770039
0.000769168
0.000768356
0.000767602
0.000766904
0.000766262
0.000765674
0.000765139
0.000764653
0.000764213
0.000763816
0.000763459
0.000763137
0.000762848
0.000762588
0.000762355
0.000762145
0.000761955
0.000761783
0.000761628
0.000761486
0.000761356
0.000761236
0.000761125
0.000761021
0.000760924
0.000760832
0.000760744
0.00076066
0.000760579
0.0007605
0.000760422
0.000760346
0.000760269
0.000760189
0.000760103
0.00076
0.000759864
0.000783257
0.000782777
0.000782201
0.000781538
0.000780798
0.000779993
0.000779135
0.000778239
0.000777319
0.00077639
0.000775465
0.000774555
0.00077367
0.000772818
0.000772006
0.000771238
0.000770518
0.000769847
0.000769225
0.000768652
0.000768128
0.00076765
0.000767217
0.000766827
0.000766477
0.000766164
0.000765886
0.000765639
0.00076542
0.000765226
0.000765055
0.000764905
0.000764771
0.000764653
0.000764549
0.000764456
0.000764374
0.000764299
0.000764233
0.000764172
0.000764116
0.000764065
0.000764017
0.000763972
0.000763929
0.000763888
0.000763848
0.000763809
0.000763768
0.000763726
0.000763675
0.000763607
0.000763505
0.000780532
0.000780328
0.000780025
0.000779627
0.000779145
0.000778588
0.000777969
0.000777301
0.0007766
0.00077588
0.000775152
0.000774429
0.000773722
0.000773037
0.000772383
0.000771763
0.000771181
0.00077064
0.000770141
0.000769683
0.000769266
0.000768889
0.000768551
0.000768248
0.000767981
0.000767745
0.000767538
0.000767358
0.000767202
0.000767068
0.000766952
0.000766854
0.00076677
0.0007667
0.00076664
0.00076659
0.000766548
0.000766512
0.000766483
0.000766458
0.000766438
0.00076642
0.000766406
0.000766393
0.000766382
0.000766372
0.000766362
0.000766353
0.000766343
0.00076633
0.000766308
0.000766269
0.000766194
0.000777498
0.000777548
0.000777493
0.000777339
0.000777093
0.000776763
0.000776363
0.000775906
0.000775406
0.000774877
0.000774332
0.000773782
0.000773237
0.000772707
0.000772197
0.000771712
0.000771258
0.000770837
0.000770449
0.000770095
0.000769776
0.00076949
0.000769236
0.000769013
0.000768819
0.000768651
0.000768508
0.000768387
0.000768286
0.000768202
0.000768135
0.000768081
0.000768039
0.000768008
0.000767985
0.00076797
0.000767961
0.000767957
0.000767958
0.000767962
0.000767968
0.000767977
0.000767988
0.000768
0.000768013
0.000768026
0.000768039
0.000768052
0.000768064
0.000768072
0.000768072
0.000768054
0.000767999
0.000774228
0.000774508
0.000774679
0.000774746
0.000774715
0.000774594
0.000774394
0.00077413
0.000773814
0.000773461
0.000773083
0.000772691
0.000772295
0.000771905
0.000771527
0.000771166
0.000770827
0.000770513
0.000770226
0.000769966
0.000769734
0.000769528
0.000769349
0.000769196
0.000769065
0.000768956
0.000768868
0.000768797
0.000768742
0.000768701
0.000768673
0.000768656
0.000768647
0.000768647
0.000768653
0.000768664
0.00076868
0.000768699
0.000768721
0.000768745
0.000768771
0.000768797
0.000768825
0.000768853
0.000768881
0.000768909
0.000768936
0.000768963
0.000768987
0.000769008
0.000769021
0.000769016
0.000768975
0.00077057
0.000771068
0.000771453
0.00077173
0.000771903
0.000771981
0.000771975
0.000771896
0.000771758
0.000771574
0.000771357
0.000771117
0.000770865
0.00077061
0.000770358
0.000770116
0.000769887
0.000769675
0.000769483
0.000769311
0.000769159
0.000769029
0.000768919
0.000768828
0.000768756
0.0007687
0.000768659
0.000768632
0.000768617
0.000768612
0.000768617
0.000768628
0.000768646
0.000768669
0.000768697
0.000768727
0.00076876
0.000768794
0.00076883
0.000768866
0.000768902
0.000768939
0.000768975
0.00076901
0.000769044
0.000769078
0.000769111
0.000769142
0.00076917
0.000769195
0.000769211
0.00076921
0.000769176
0.000766342
0.000767052
0.000767646
0.000768127
0.000768501
0.000768775
0.000768957
0.000769059
0.000769095
0.000769077
0.000769017
0.000768925
0.000768813
0.000768688
0.000768557
0.000768428
0.000768303
0.000768188
0.000768084
0.000767993
0.000767916
0.000767852
0.000767803
0.000767767
0.000767744
0.000767732
0.00076773
0.000767737
0.000767751
0.000767772
0.000767799
0.000767829
0.000767862
0.000767898
0.000767935
0.000767972
0.00076801
0.000768048
0.000768084
0.00076812
0.000768154
0.000768187
0.000768218
0.000768247
0.000768274
0.0007683
0.000768323
0.000768344
0.000768362
0.000768375
0.00076838
0.000768368
0.000768326
0.000761601
0.000762515
0.00076331
0.000763989
0.000764556
0.000765016
0.00076538
0.000765656
0.000765858
0.000765998
0.000766086
0.000766135
0.000766153
0.000766149
0.000766132
0.000766106
0.000766076
0.000766047
0.000766022
0.000766002
0.000765988
0.000765982
0.000765983
0.000765991
0.000766005
0.000766026
0.000766051
0.000766081
0.000766113
0.000766148
0.000766184
0.000766221
0.000766258
0.000766293
0.000766327
0.00076636
0.00076639
0.000766417
0.000766442
0.000766463
0.000766482
0.000766498
0.00076651
0.000766519
0.000766525
0.000766528
0.000766528
0.000766525
0.000766518
0.000766505
0.000766484
0.000766446
0.000766379
0.000756304
0.000757416
0.000758405
0.000759274
0.000760025
0.000760665
0.000761201
0.000761644
0.000762004
0.000762293
0.000762522
0.000762702
0.000762842
0.000762951
0.000763037
0.000763106
0.000763162
0.00076321
0.000763253
0.000763294
0.000763334
0.000763374
0.000763414
0.000763455
0.000763497
0.000763538
0.00076358
0.00076362
0.00076366
0.000763697
0.000763731
0.000763762
0.00076379
0.000763813
0.000763832
0.000763846
0.000763856
0.000763861
0.000763861
0.000763856
0.000763845
0.000763831
0.000763811
0.000763787
0.000763758
0.000763725
0.000763687
0.000763645
0.000763598
0.000763545
0.000763482
0.000763403
0.000763296
0.000750403
0.000751705
0.000752881
0.000753931
0.00075486
0.000755672
0.000756373
0.000756973
0.000757483
0.000757913
0.000758274
0.000758577
0.00075883
0.000759043
0.000759223
0.000759377
0.000759509
0.000759624
0.000759727
0.000759818
0.000759901
0.000759976
0.000760045
0.000760108
0.000760166
0.000760218
0.000760264
0.000760304
0.000760338
0.000760365
0.000760386
0.0007604
0.000760406
0.000760405
0.000760397
0.000760381
0.000760358
0.000760327
0.000760289
0.000760244
0.000760193
0.000760134
0.000760069
0.000759998
0.00075992
0.000759837
0.000759748
0.000759653
0.000759552
0.000759444
0.000759325
0.00075919
0.000759028
0.000743843
0.000745328
0.000746682
0.000747907
0.000749005
0.000749979
0.000750837
0.000751587
0.000752238
0.0007528
0.000753284
0.0007537
0.000754058
0.000754365
0.00075463
0.000754859
0.000755057
0.00075523
0.000755381
0.000755512
0.000755627
0.000755727
0.000755814
0.000755888
0.000755951
0.000756001
0.000756041
0.000756069
0.000756086
0.000756092
0.000756088
0.000756072
0.000756045
0.000756007
0.000755959
0.000755901
0.000755832
0.000755753
0.000755665
0.000755567
0.000755461
0.000755345
0.000755221
0.00075509
0.00075495
0.000754803
0.000754648
0.000754486
0.000754317
0.000754139
0.000753949
0.000753743
0.00075351
0.00073656
0.00073822
0.000739745
0.000741135
0.000742394
0.000743523
0.000744529
0.000745419
0.000746201
0.000746886
0.000747484
0.000748005
0.000748457
0.000748849
0.000749188
0.000749482
0.000749736
0.000749956
0.000750144
0.000750305
0.000750442
0.000750556
0.000750649
0.000750723
0.000750779
0.000750817
0.000750838
0.000750842
0.000750831
0.000750804
0.000750761
0.000750704
0.000750631
0.000750545
0.000750445
0.000750331
0.000750204
0.000750064
0.000749912
0.000749749
0.000749574
0.000749388
0.000749192
0.000748986
0.00074877
0.000748544
0.00074831
0.000748067
0.000747814
0.000747552
0.000747277
0.000746984
0.000746665
0.000728485
0.00073031
0.000731996
0.000733543
0.000734953
0.000736228
0.000737371
0.000738392
0.000739296
0.000740094
0.000740796
0.00074141
0.000741946
0.000742412
0.000742816
0.000743164
0.000743463
0.000743718
0.000743933
0.000744113
0.00074426
0.000744376
0.000744465
0.000744527
0.000744564
0.000744577
0.000744568
0.000744537
0.000744484
0.000744412
0.000744319
0.000744207
0.000744077
0.000743929
0.000743763
0.000743581
0.000743383
0.000743169
0.00074294
0.000742697
0.000742441
0.000742171
0.000741888
0.000741594
0.000741287
0.00074097
0.000740641
0.000740301
0.000739951
0.000739588
0.000739212
0.000738818
0.000738396
0.000719533
0.000721514
0.000723351
0.000725046
0.000726596
0.000728005
0.000729277
0.000730416
0.000731432
0.000732332
0.000733126
0.000733823
0.000734431
0.00073496
0.000735417
0.000735808
0.00073614
0.000736419
0.00073665
0.000736836
0.000736981
0.000737087
0.000737159
0.000737197
0.000737203
0.00073718
0.000737127
0.000737048
0.000736942
0.000736811
0.000736655
0.000736477
0.000736275
0.000736052
0.000735808
0.000735544
0.000735261
0.00073496
0.000734641
0.000734304
0.000733952
0.000733584
0.000733201
0.000732803
0.000732391
0.000731966
0.000731528
0.000731076
0.000730612
0.000730135
0.000729642
0.000729129
0.000728588
0.00070961
0.000711735
0.000713713
0.000715543
0.000717223
0.000718755
0.000720141
0.000721389
0.000722503
0.000723493
0.000724367
0.000725134
0.000725803
0.000726382
0.000726878
0.0007273
0.000727653
0.000727944
0.000728176
0.000728356
0.000728486
0.000728571
0.000728612
0.000728613
0.000728576
0.000728502
0.000728394
0.000728253
0.00072808
0.000727877
0.000727645
0.000727386
0.0007271
0.000726788
0.000726452
0.000726092
0.00072571
0.000725307
0.000724883
0.000724439
0.000723976
0.000723494
0.000722995
0.00072248
0.000721947
0.000721399
0.000720835
0.000720257
0.000719663
0.000719053
0.000718426
0.000717778
0.000717102
0.000698605
0.000700861
0.000702967
0.000704918
0.000706714
0.000708355
0.000709844
0.000711185
0.000712384
0.00071345
0.00071439
0.000715213
0.000715928
0.000716544
0.000717067
0.000717505
0.000717865
0.000718153
0.000718374
0.000718534
0.000718636
0.000718684
0.000718681
0.000718631
0.000718536
0.000718398
0.00071822
0.000718003
0.00071775
0.000717461
0.000717139
0.000716784
0.000716399
0.000715984
0.000715541
0.000715071
0.000714576
0.000714055
0.000713511
0.000712944
0.000712355
0.000711744
0.000711114
0.000710464
0.000709795
0.000709107
0.000708401
0.000707678
0.000706937
0.000706178
0.000705399
0.000704598
0.000703768
0.000686855
0.000689219
0.000691428
0.000693478
0.000695366
0.000697093
0.00069866
0.000700071
0.000701332
0.000702451
0.000703435
0.000704293
0.000705033
0.000705664
0.000706192
0.000706627
0.000706974
0.000707239
0.00070743
0.00070755
0.000707604
0.000707597
0.000707531
0.000707412
0.00070724
0.00070702
0.000706753
0.000706442
0.00070609
0.000705696
0.000705265
0.000704797
0.000704294
0.000703757
0.000703188
0.000702589
0.00070196
0.000701303
0.000700619
0.000699909
0.000699174
0.000698414
0.000697631
0.000696826
0.000695998
0.000695149
0.000694279
0.000693389
0.000692478
0.000691546
0.000690593
0.000689614
0.000688605
0.000674032
0.000676483
0.000678775
0.000680902
0.000682861
0.000684652
0.000686276
0.000687736
0.000689039
0.00069019
0.000691198
0.000692071
0.000692816
0.000693442
0.000693957
0.000694368
0.000694683
0.000694908
0.000695048
0.00069511
0.000695099
0.000695018
0.000694872
0.000694664
0.000694398
0.000694077
0.000693704
0.000693281
0.00069281
0.000692294
0.000691735
0.000691135
0.000690496
0.000689818
0.000689105
0.000688357
0.000687576
0.000686762
0.000685919
0.000685045
0.000684144
0.000683214
0.000682258
0.000681276
0.000680269
0.000679236
0.00067818
0.0006771
0.000675996
0.000674868
0.000673715
0.000672535
0.000671322
0.000658847
0.000661377
0.000663743
0.000665937
0.000667958
0.000669804
0.000671475
0.000672975
0.000674309
0.000675483
0.000676504
0.00067738
0.000678119
0.000678729
0.000679219
0.000679596
0.000679866
0.000680038
0.000680117
0.000680108
0.000680018
0.000679851
0.000679612
0.000679304
0.000678931
0.000678497
0.000678004
0.000677456
0.000676855
0.000676204
0.000675505
0.00067476
0.000673971
0.000673141
0.00067227
0.00067136
0.000670414
0.000669432
0.000668415
0.000667366
0.000666284
0.000665172
0.000664029
0.000662857
0.000661657
0.000660428
0.000659172
0.000657888
0.000656577
0.000655239
0.000653872
0.000652475
0.000651044
0.000640558
0.000643154
0.00064558
0.00064783
0.000649899
0.000651786
0.000653491
0.000655016
0.000656367
0.000657549
0.000658569
0.000659435
0.000660154
0.000660736
0.000661186
0.000661515
0.000661728
0.000661834
0.000661838
0.000661746
0.000661565
0.0006613
0.000660954
0.000660534
0.000660042
0.000659483
0.000658859
0.000658174
0.000657432
0.000656634
0.000655784
0.000654883
0.000653934
0.000652939
0.0006519
0.000650819
0.000649696
0.000648535
0.000647336
0.0006461
0.000644829
0.000643523
0.000642184
0.000640812
0.000639408
0.000637973
0.000636506
0.000635009
0.00063348
0.000631922
0.000630331
0.000628708
0.000627048
0.000618443
0.000621088
0.000623559
0.000625848
0.00062795
0.000629863
0.000631587
0.000633124
0.000634478
0.000635655
0.000636662
0.000637506
0.000638194
0.000638736
0.000639139
0.00063941
0.000639559
0.000639591
0.000639514
0.000639334
0.000639057
0.000638689
0.000638235
0.0006377
0.000637087
0.000636401
0.000635647
0.000634826
0.000633943
0.000633
0.000632001
0.000630947
0.000629842
0.000628687
0.000627484
0.000626236
0.000624944
0.00062361
0.000622235
0.00062082
0.000619367
0.000617876
0.00061635
0.000614787
0.000613189
0.000611557
0.000609891
0.000608191
0.000606458
0.00060469
0.000602889
0.000601052
0.000599176
0.000591501
0.000594175
0.000596671
0.000598982
0.0006011
0.000603024
0.000604753
0.000606289
0.000607636
0.0006088
0.000609786
0.000610603
0.000611258
0.000611758
0.000612114
0.000612331
0.000612419
0.000612384
0.000612235
0.000611976
0.000611616
0.000611159
0.000610611
0.000609977
0.000609262
0.00060847
0.000607605
0.000606671
0.000605672
0.00060461
0.000603488
0.00060231
0.000601078
0.000599794
0.00059846
0.000597079
0.000595651
0.00059418
0.000592666
0.000591111
0.000589516
0.000587882
0.000586209
0.000584499
0.000582753
0.00058097
0.000579152
0.000577298
0.000575409
0.000573485
0.000571524
0.000569527
0.000567491
0.000557656
0.000560322
0.000562811
0.000565111
0.000567218
0.000569128
0.000570841
0.000572359
0.000573684
0.000574823
0.000575782
0.000576568
0.000577188
0.000577651
0.000577966
0.000578139
0.000578179
0.000578094
0.000577891
0.000577576
0.000577157
0.000576639
0.000576028
0.000575329
0.000574547
0.000573687
0.000572752
0.000571748
0.000570677
0.000569542
0.000568348
0.000567096
0.00056579
0.000564432
0.000563024
0.000561568
0.000560067
0.000558522
0.000556934
0.000555305
0.000553636
0.000551928
0.000550183
0.0005484
0.000546581
0.000544726
0.000542836
0.00054091
0.00053895
0.000536955
0.000534924
0.000532857
0.000530752
0.000513482
0.000516076
0.000518497
0.000520734
0.000522781
0.000524636
0.000526298
0.000527768
0.000529049
0.000530148
0.00053107
0.000531822
0.000532412
0.000532848
0.000533137
0.000533288
0.000533309
0.000533206
0.000532988
0.00053266
0.00053223
0.000531703
0.000531086
0.000530382
0.000529599
0.000528739
0.000527807
0.000526808
0.000525744
0.00052462