/*--------------------------------*- C++ -*----------------------------------*\
  =========                 |
  \\      /  F ield         | OpenFOAM: The Open Source CFD Toolbox
   \\    /   O peration     | Website:  https://openfoam.org
    \\  /    A nd           | Version:  6
     \\/     M anipulation  |
\*---------------------------------------------------------------------------*/
FoamFile
{
    version     2.0;
    format      ascii;
    class       volScalarField;
    location    "0.1";
    object      p;
}
// * * * * * * * * * * * * * * * * * * * * * * * * * * * * * * * * * * * * * //

dimensions      [0 2 -2 0 0 0 0];

internalField   nonuniform List<scalar> 
3081
(
0.207306
0.206359
0.205405
0.204451
0.203502
0.202565
0.201643
0.20074
0.19986
0.199005
0.198176
0.197375
0.196604
0.195863
0.195152
0.194471
0.193822
0.193209
0.192623
0.192058
0.191516
0.191001
0.190511
0.190047
0.189606
0.189189
0.188793
0.188418
0.188062
0.187725
0.187405
0.187101
0.186812
0.186538
0.186276
0.186027
0.18579
0.185563
0.185346
0.185138
0.184938
0.184746
0.184561
0.184382
0.18421
0.184042
0.18388
0.183722
0.183567
0.183417
0.183269
0.183125
0.182983
0.182843
0.182705
0.18257
0.182436
0.205793
0.204985
0.20416
0.203327
0.202491
0.201657
0.20083
0.200015
0.199215
0.198433
0.197671
0.19693
0.196213
0.19552
0.194853
0.194211
0.193595
0.193003
0.192437
0.191897
0.191382
0.19089
0.19042
0.189971
0.189545
0.189139
0.188753
0.188386
0.188037
0.187705
0.18739
0.18709
0.186804
0.186532
0.186273
0.186025
0.185789
0.185563
0.185346
0.185138
0.184939
0.184747
0.184562
0.184383
0.18421
0.184042
0.183879
0.18372
0.183565
0.183414
0.183266
0.183121
0.182979
0.182838
0.1827
0.182564
0.18243
0.204098
0.203445
0.202765
0.202066
0.201354
0.200635
0.199914
0.199196
0.198485
0.197783
0.197094
0.19642
0.195763
0.195124
0.194505
0.193907
0.193329
0.192772
0.192238
0.191726
0.191235
0.190764
0.190313
0.189881
0.189469
0.189076
0.188701
0.188343
0.188003
0.187678
0.187368
0.187073
0.186792
0.186523
0.186266
0.186021
0.185787
0.185562
0.185346
0.18514
0.184941
0.184749
0.184564
0.184385
0.184212
0.184044
0.183881
0.183722
0.183567
0.183415
0.183267
0.183121
0.182978
0.182838
0.182699
0.182563
0.182428
0.202533
0.202011
0.201453
0.200869
0.200264
0.199645
0.199017
0.198385
0.197753
0.197125
0.196503
0.195891
0.19529
0.194703
0.194131
0.193574
0.193034
0.192512
0.192008
0.191523
0.191056
0.190607
0.190176
0.189763
0.189367
0.188988
0.188626
0.188279
0.187948
0.187632
0.18733
0.187041
0.186765
0.186501
0.186248
0.186007
0.185775
0.185553
0.185339
0.185134
0.184936
0.184746
0.184562
0.184383
0.184211
0.184043
0.18388
0.183721
0.183566
0.183415
0.183266
0.183121
0.182978
0.182837
0.182698
0.182562
0.182427
0.201164
0.200746
0.200288
0.199797
0.19928
0.198744
0.198194
0.197634
0.197069
0.196504
0.19594
0.195382
0.19483
0.194288
0.193757
0.193239
0.192734
0.192243
0.191768
0.191308
0.190865
0.190437
0.190026
0.18963
0.18925
0.188885
0.188536
0.188201
0.187879
0.187572
0.187278
0.186996
0.186726
0.186467
0.186219
0.185982
0.185754
0.185535
0.185324
0.185121
0.184925
0.184736
0.184554
0.184377
0.184205
0.184038
0.183876
0.183718
0.183563
0.183412
0.183264
0.183118
0.182975
0.182835
0.182696
0.182559
0.182424
0.199932
0.199602
0.199227
0.198815
0.198374
0.197908
0.197424
0.196927
0.196421
0.19591
0.195398
0.194886
0.194379
0.193878
0.193385
0.192902
0.192429
0.191968
0.19152
0.191085
0.190664
0.190257
0.189864
0.189486
0.189121
0.188771
0.188434
0.18811
0.187799
0.187501
0.187215
0.18694
0.186677
0.186424
0.186182
0.185949
0.185725
0.185509
0.185302
0.185101
0.184908
0.184721
0.184541
0.184365
0.184195
0.18403
0.183868
0.183711
0.183557
0.183406
0.183259
0.183114
0.182971
0.182831
0.182692
0.182556
0.182421
0.198547
0.198244
0.197901
0.197524
0.19712
0.196694
0.196252
0.195798
0.195336
0.194869
0.194401
0.193934
0.19347
0.193012
0.192561
0.192119
0.191686
0.191263
0.190852
0.190453
0.190066
0.189692
0.18933
0.188981
0.188645
0.188321
0.188009
0.187709
0.18742
0.187143
0.186876
0.18662
0.186373
0.186136
0.185909
0.185689
0.185478
0.185274
0.185077
0.184886
0.184702
0.184524
0.18435
0.184182
0.184018
0.183858
0.183701
0.183549
0.183399
0.183252
0.183108
0.182966
0.182826
0.182688
0.182552
0.182417
0.197561
0.197321
0.197038
0.196718
0.196369
0.195995
0.195602
0.195194
0.194776
0.194351
0.193922
0.193492
0.193063
0.192637
0.192217
0.191803
0.191396
0.190999
0.190611
0.190233
0.189866
0.18951
0.189165
0.188831
0.188509
0.188198
0.187898
0.187608
0.18733
0.187062
0.186803
0.186554
0.186315
0.186084
0.185862
0.185647
0.18544
0.18524
0.185047
0.18486
0.184679
0.184503
0.184332
0.184165
0.184003
0.183845
0.18369
0.183538
0.18339
0.183244
0.1831
0.182959
0.18282
0.182682
0.182546
0.182412
0.196444
0.196215
0.195947
0.195646
0.195319
0.19497
0.194605
0.194227
0.19384
0.193447
0.193052
0.192655
0.19226
0.191868
0.191481
0.1911
0.190726
0.190361
0.190004
0.189656
0.189318
0.18899
0.188672
0.188364
0.188066
0.187778
0.1875
0.187231
0.186972
0.186723
0.186482
0.18625
0.186025
0.185809
0.1856
0.185398
0.185202
0.185013
0.18483
0.184651
0.184478
0.18431
0.184146
0.183986
0.183829
0.183676
0.183526
0.183378
0.183234
0.183091
0.182951
0.182812
0.182675
0.18254
0.182406
0.195604
0.195423
0.195201
0.194946
0.194661
0.194353
0.194027
0.193686
0.193335
0.192976
0.192612
0.192246
0.19188
0.191515
0.191154
0.190798
0.190447
0.190103
0.189766
0.189438
0.189117
0.188806
0.188503
0.18821
0.187925
0.18765
0.187383
0.187125
0.186876
0.186635
0.186403
0.186178
0.185961
0.185751
0.185547
0.18535
0.18516
0.184975
0.184795
0.184621
0.184451
0.184285
0.184124
0.183966
0.183811
0.18366
0.183511
0.183366
0.183222
0.183081
0.182941
0.182804
0.182668
0.182533
0.1824
0.194793
0.194656
0.194477
0.194262
0.194017
0.193747
0.193457
0.193151
0.192833
0.192506
0.192172
0.191835
0.191496
0.191158
0.190822
0.190489
0.190161
0.189838
0.189521
0.189212
0.188909
0.188614
0.188327
0.188048
0.187777
0.187514
0.187259
0.187012
0.186773
0.186542
0.186317
0.186101
0.18589
0.185687
0.18549
0.185299
0.185113
0.184933
0.184757
0.184586
0.18442
0.184258
0.184099
0.183944
0.183791
0.183642
0.183495
0.183351
0.183209
0.183069
0.182931
0.182794
0.182659
0.182526
0.182393
0.194004
0.193908
0.193769
0.193592
0.193384
0.193149
0.192893
0.19262
0.192333
0.192036
0.191731
0.191422
0.19111
0.190797
0.190485
0.190175
0.189869
0.189566
0.189269
0.188978
0.188693
0.188415
0.188143
0.187879
0.187621
0.187371
0.187128
0.186892
0.186664
0.186442
0.186226
0.186018
0.185815
0.185619
0.185428
0.185242
0.185062
0.184887
0.184716
0.184549
0.184386
0.184227
0.184072
0.183919
0.183769
0.183622
0.183478
0.183335
0.183195
0.183056
0.18292
0.182784
0.18265
0.182517
0.182385
0.182254
0.193233
0.193176
0.193073
0.192933
0.192759
0.192558
0.192334
0.192091
0.191834
0.191565
0.191289
0.191006
0.190719
0.190431
0.190142
0.189855
0.18957
0.189288
0.189011
0.188738
0.188471
0.188209
0.187953
0.187703
0.187459
0.187222
0.186991
0.186767
0.186548
0.186336
0.18613
0.18593
0.185735
0.185546
0.185362
0.185183
0.185008
0.184838
0.184671
0.184509
0.18435
0.184195
0.184042
0.183893
0.183746
0.183601
0.183459
0.183318
0.18318
0.183043
0.182907
0.182773
0.18264
0.182508
0.182377
0.182246
0.192455
0.192388
0.192281
0.19214
0.19197
0.191777
0.191564
0.191335
0.191094
0.190844
0.190587
0.190325
0.190061
0.189795
0.18953
0.189266
0.189005
0.188746
0.188492
0.188242
0.187996
0.187756
0.187521
0.187291
0.187067
0.186848
0.186636
0.186428
0.186226
0.186029
0.185838
0.185651
0.185469
0.185292
0.185119
0.18495
0.184785
0.184624
0.184466
0.184311
0.18416
0.184011
0.183864
0.18372
0.183578
0.183438
0.1833
0.183163
0.183028
0.182894
0.182761
0.182629
0.182498
0.182368
0.182238
0.191744
0.19171
0.191635
0.191525
0.191386
0.191222
0.191037
0.190836
0.190622
0.190398
0.190166
0.189928
0.189687
0.189444
0.1892
0.188957
0.188715
0.188476
0.18824
0.188007
0.187778
0.187553
0.187333
0.187118
0.186907
0.186701
0.186499
0.186303
0.186111
0.185924
0.185741
0.185563
0.185389
0.185219
0.185052
0.18489
0.18473
0.184574
0.184421
0.184271
0.184123
0.183977
0.183834
0.183693
0.183554
0.183416
0.18328
0.183145
0.183012
0.182879
0.182748
0.182617
0.182488
0.182358
0.18223
0.191025
0.191023
0.19098
0.190901
0.190791
0.190656
0.1905
0.190326
0.190139
0.18994
0.189733
0.189519
0.189302
0.189081
0.188859
0.188637
0.188416
0.188196
0.187978
0.187763
0.187551
0.187342
0.187137
0.186936
0.186739
0.186546
0.186356
0.186171
0.18599
0.185813
0.18564
0.18547
0.185304
0.185141
0.184982
0.184825
0.184672
0.184521
0.184373
0.184227
0.184083
0.183942
0.183802
0.183664
0.183527
0.183392
0.183259
0.183126
0.182995
0.182864
0.182734
0.182605
0.182476
0.182348
0.18222
0.190325
0.190354
0.19034
0.19029
0.190208
0.190101
0.189971
0.189824
0.189661
0.189487
0.189304
0.189114
0.188919
0.18872
0.188519
0.188318
0.188116
0.187915
0.187715
0.187517
0.187322
0.187129
0.186939
0.186752
0.186569
0.186388
0.186211
0.186037
0.185867
0.1857
0.185536
0.185375
0.185217
0.185061
0.184909
0.184759
0.184611
0.184466
0.184323
0.184182
0.184042
0.183905
0.183768
0.183634
0.1835
0.183368
0.183237
0.183106
0.182977
0.182848
0.18272
0.182592
0.182465
0.182338
0.182211
0.189735
0.189747
0.189722
0.189666
0.189583
0.189477
0.189353
0.189214
0.189062
0.188901
0.188732
0.188557
0.188379
0.188197
0.188014
0.187831
0.187647
0.187464
0.187283
0.187103
0.186925
0.186749
0.186575
0.186404
0.186236
0.18607
0.185907
0.185747
0.185589
0.185434
0.185281
0.185131
0.184983
0.184837
0.184694
0.184552
0.184412
0.184274
0.184137
0.184002
0.183868
0.183735
0.183604
0.183473
0.183344
0.183215
0.183087
0.182959
0.182832
0.182706
0.182579
0.182453
0.182327
0.182201
0.189195
0.189193
0.18916
0.189099
0.189015
0.188912
0.188793
0.188662
0.18852
0.188371
0.188215
0.188055
0.187892
0.187726
0.187559
0.187392
0.187225
0.187058
0.186893
0.186729
0.186566
0.186405
0.186246
0.186089
0.185934
0.185782
0.185631
0.185482
0.185335
0.185191
0.185048
0.184907
0.184767
0.18463
0.184493
0.184359
0.184225
0.184093
0.183962
0.183831
0.183702
0.183574
0.183446
0.183319
0.183193
0.183067
0.182941
0.182816
0.182691
0.182566
0.182441
0.182317
0.182191
0.18868
0.188699
0.188685
0.188644
0.18858
0.188497
0.188397
0.188284
0.188161
0.18803
0.187892
0.187748
0.187602
0.187452
0.187301
0.187149
0.186996
0.186844
0.186692
0.186541
0.186391
0.186242
0.186094
0.185948
0.185803
0.18566
0.185518
0.185378
0.18524
0.185102
0.184967
0.184832
0.184699
0.184567
0.184436
0.184306
0.184177
0.184049
0.183922
0.183795
0.18367
0.183544
0.183419
0.183295
0.183171
0.183047
0.182924
0.1828
0.182677
0.182553
0.18243
0.182306
0.182182
0.188197
0.188234
0.18824
0.188217
0.188171
0.188105
0.188023
0.187928
0.187821
0.187706
0.187584
0.187457
0.187326
0.187191
0.187055
0.186917
0.186778
0.186639
0.186499
0.18636
0.186222
0.186084
0.185947
0.185811
0.185676
0.185542
0.185409
0.185277
0.185147
0.185017
0.184888
0.184759
0.184632
0.184506
0.18438
0.184255
0.18413
0.184006
0.183883
0.18376
0.183637
0.183515
0.183393
0.183271
0.183149
0.183028
0.182906
0.182784
0.182663
0.18254
0.182418
0.182295
0.182172
0.187743
0.187798
0.18782
0.187814
0.187784
0.187735
0.187669
0.18759
0.187499
0.187399
0.187292
0.18718
0.187063
0.186942
0.18682
0.186695
0.186569
0.186442
0.186315
0.186187
0.18606
0.185933
0.185806
0.18568
0.185554
0.185429
0.185304
0.18518
0.185056
0.184933
0.184811
0.184689
0.184567
0.184446
0.184325
0.184205
0.184084
0.183964
0.183845
0.183725
0.183606
0.183486
0.183367
0.183247
0.183128
0.183008
0.182889
0.182769
0.182648
0.182528
0.182407
0.182285
0.182163
0.187316
0.187386
0.187424
0.187433
0.187419
0.187385
0.187334
0.187269
0.187193
0.187107
0.187014
0.186915
0.186812
0.186705
0.186595
0.186482
0.186368
0.186253
0.186137
0.186021
0.185904
0.185787
0.18567
0.185552
0.185435
0.185318
0.185202
0.185085
0.184968
0.184852
0.184736
0.184619
0.184503
0.184387
0.184271
0.184155
0.184039
0.183923
0.183807
0.183691
0.183574
0.183458
0.183341
0.183224
0.183107
0.182989
0.182871
0.182753
0.182634
0.182515
0.182395
0.182275
0.182153
0.186913
0.186997
0.187049
0.187072
0.187072
0.187052
0.187015
0.186963
0.186901
0.186829
0.186749
0.186663
0.186572
0.186477
0.186379
0.186279
0.186176
0.186072
0.185967
0.185861
0.185754
0.185646
0.185538
0.18543
0.185321
0.185212
0.185102
0.184993
0.184883
0.184773
0.184663
0.184552
0.184441
0.18433
0.184219
0.184107
0.183995
0.183883
0.18377
0.183657
0.183544
0.18343
0.183316
0.183201
0.183086
0.18297
0.182854
0.182738
0.18262
0.182502
0.182384
0.182264
0.182144
0.186532
0.186629
0.186693
0.18673
0.186742
0.186735
0.186711
0.186672
0.186622
0.186562
0.186495
0.186421
0.186342
0.186259
0.186172
0.186083
0.185991
0.185898
0.185802
0.185706
0.185608
0.18551
0.185411
0.185311
0.18521
0.185108
0.185006
0.184903
0.1848
0.184696
0.184592
0.184486
0.184381
0.184274
0.184167
0.18406
0.183952
0.183843
0.183734
0.183624
0.183513
0.183402
0.183291
0.183178
0.183065
0.182952
0.182837
0.182722
0.182607
0.18249
0.182373
0.182254
0.182135
0.18617
0.186279
0.186355
0.186403
0.186428
0.186433
0.18642
0.186394
0.186355
0.186307
0.186252
0.186189
0.186121
0.186049
0.185973
0.185894
0.185813
0.185729
0.185644
0.185557
0.185468
0.185378
0.185287
0.185195
0.185102
0.185008
0.184913
0.184817
0.184719
0.184621
0.184522
0.184422
0.184321
0.18422
0.184117
0.184014
0.183909
0.183804
0.183698
0.183591
0.183484
0.183375
0.183266
0.183156
0.183045
0.182933
0.182821
0.182707
0.182593
0.182478
0.182362
0.182244
0.182126
0.185825
0.185945
0.186032
0.186092
0.186127
0.186143
0.186142
0.186127
0.186099
0.186063
0.186018
0.185966
0.185909
0.185847
0.185781
0.185713
0.185641
0.185567
0.185491
0.185412
0.185333
0.185251
0.185168
0.185084
0.184998
0.18491
0.184822
0.184732
0.184641
0.184548
0.184455
0.18436
0.184264
0.184166
0.184068
0.183968
0.183868
0.183766
0.183663
0.183559
0.183454
0.183348
0.183242
0.183134
0.183025
0.182915
0.182804
0.182692
0.182579
0.182466
0.182351
0.182234
0.182117
0.185476
0.185606
0.185704
0.185775
0.185821
0.185848
0.185858
0.185853
0.185837
0.185812
0.185778
0.185737
0.18569
0.185639
0.185584
0.185525
0.185463
0.185399
0.185332
0.185263
0.185192
0.185119
0.185044
0.184967
0.184889
0.184808
0.184727
0.184643
0.184558
0.184472
0.184383
0.184294
0.184203
0.18411
0.184016
0.18392
0.183823
0.183725
0.183626
0.183525
0.183423
0.18332
0.183216
0.18311
0.183003
0.182896
0.182787
0.182676
0.182565
0.182452
0.182339
0.182224
0.182108
0.185111
0.185252
0.185361
0.185442
0.1855
0.185538
0.185559
0.185566
0.185562
0.185547
0.185525
0.185495
0.18546
0.185419
0.185375
0.185327
0.185275
0.185221
0.185164
0.185104
0.185042
0.184978
0.184912
0.184843
0.184773
0.1847
0.184626
0.184549
0.18447
0.18439
0.184308
0.184223
0.184137
0.18405
0.18396
0.183869
0.183776
0.183682
0.183586
0.183489
0.18339
0.18329
0.183188
0.183085
0.18298
0.182875
0.182768
0.182659
0.182549
0.182438
0.182326
0.182212
0.182097
0.184738
0.18489
0.18501
0.185102
0.185172
0.185221
0.185254
0.185273
0.185281
0.185278
0.185267
0.185249
0.185225
0.185196
0.185162
0.185125
0.185084
0.18504
0.184993
0.184943
0.184891
0.184836
0.184778
0.184718
0.184655
0.184591
0.184523
0.184454
0.184382
0.184308
0.184231
0.184152
0.184072
0.183989
0.183904
0.183817
0.183729
0.183638
0.183546
0.183452
0.183356
0.183259
0.18316
0.183059
0.182957
0.182854
0.182749
0.182642
0.182534
0.182424
0.182313
0.182201
0.182087
0.184358
0.18452
0.184651
0.184756
0.184837
0.184899
0.184944
0.184975
0.184994
0.185003
0.185004
0.184998
0.184986
0.184969
0.184947
0.18492
0.18489
0.184857
0.18482
0.18478
0.184737
0.184691
0.184643
0.184591
0.184537
0.18448
0.18442
0.184357
0.184292
0.184224
0.184154
0.184081
0.184006
0.183928
0.183848
0.183765
0.183681
0.183594
0.183506
0.183415
0.183323
0.183228
0.183132
0.183034
0.182934
0.182833
0.182729
0.182625
0.182518
0.18241
0.182301
0.18219
0.182077
0.183969
0.184143
0.184286
0.184402
0.184496
0.184569
0.184627
0.18467
0.184702
0.184724
0.184737
0.184743
0.184743
0.184738
0.184727
0.184712
0.184694
0.184671
0.184645
0.184615
0.184582
0.184545
0.184506
0.184463
0.184417
0.184368
0.184315
0.18426
0.184202
0.18414
0.184076
0.184009
0.183939
0.183866
0.183791
0.183713
0.183633
0.18355
0.183465
0.183378
0.183289
0.183197
0.183104
0.183008
0.182911
0.182811
0.18271
0.182607
0.182503
0.182396
0.182288
0.182178
0.182067
0.183572
0.183758
0.183912
0.184041
0.184147
0.184233
0.184304
0.18436
0.184405
0.184439
0.184465
0.184484
0.184496
0.184503
0.184505
0.184502
0.184494
0.184483
0.184467
0.184448
0.184425
0.184398
0.184367
0.184333
0.184296
0.184255
0.18421
0.184162
0.184111
0.184056
0.183998
0.183936
0.183872
0.183804
0.183734
0.183661
0.183585
0.183506
0.183425
0.183341
0.183255
0.183166
0.183076
0.182983
0.182888
0.182791
0.182691
0.18259
0.182487
0.182382
0.182276
0.182167
0.182057
0.183167
0.183364
0.183531
0.183672
0.183791
0.183891
0.183974
0.184044
0.184101
0.184149
0.184189
0.18422
0.184246
0.184265
0.184279
0.184288
0.184292
0.184292
0.184287
0.184279
0.184266
0.184249
0.184228
0.184203
0.184174
0.184141
0.184104
0.184064
0.184019
0.183971
0.183919
0.183864
0.183805
0.183743
0.183677
0.183609
0.183537
0.183462
0.183385
0.183304
0.183221
0.183136
0.183048
0.182957
0.182865
0.18277
0.182673
0.182573
0.182472
0.182369
0.182263
0.182156
0.182047
0.182752
0.182961
0.183141
0.183295
0.183427
0.18354
0.183638
0.183721
0.183793
0.183854
0.183907
0.183952
0.183991
0.184023
0.18405
0.184071
0.184087
0.184099
0.184106
0.184108
0.184106
0.184099
0.184087
0.184072
0.184051
0.184027
0.183998
0.183965
0.183928
0.183886
0.183841
0.183791
0.183738
0.183681
0.18362
0.183556
0.183489
0.183418
0.183344
0.183268
0.183188
0.183105
0.18302
0.182932
0.182842
0.182749
0.182654
0.182556
0.182457
0.182355
0.182251
0.182145
0.182037
0.182327
0.18255
0.182742
0.18291
0.183056
0.183183
0.183294
0.183392
0.183478
0.183554
0.183621
0.18368
0.183732
0.183778
0.183817
0.183852
0.18388
0.183904
0.183922
0.183936
0.183944
0.183947
0.183946
0.18394
0.183928
0.183912
0.183891
0.183866
0.183836
0.183801
0.183762
0.183719
0.183671
0.183619
0.183564
0.183504
0.183441
0.183375
0.183305
0.183231
0.183155
0.183075
0.182993
0.182907
0.182819
0.182729
0.182636
0.18254
0.182442
0.182342
0.182239
0.182135
0.182028
0.181893
0.182129
0.182335
0.182517
0.182677
0.182819
0.182945
0.183057
0.183158
0.183248
0.18333
0.183403
0.18347
0.183529
0.183582
0.18363
0.183671
0.183707
0.183737
0.183762
0.183782
0.183795
0.183804
0.183807
0.183805
0.183798
0.183785
0.183767
0.183744
0.183717
0.183684
0.183647
0.183605
0.183558
0.183508
0.183453
0.183394
0.183332
0.183265
0.183196
0.183122
0.183046
0.182966
0.182883
0.182797
0.182709
0.182618
0.182524
0.182428
0.182329
0.182228
0.182125
0.182019
0.181449
0.181698
0.181918
0.182114
0.182289
0.182446
0.182588
0.182716
0.182832
0.182938
0.183034
0.183123
0.183204
0.183278
0.183345
0.183406
0.18346
0.183509
0.183551
0.183588
0.183618
0.183643
0.183662
0.183675
0.183682
0.183683
0.183679
0.183669
0.183653
0.183632
0.183606
0.183575
0.183539
0.183498
0.183452
0.183402
0.183348
0.183289
0.183227
0.183161
0.18309
0.183017
0.18294
0.182859
0.182776
0.18269
0.1826
0.182508
0.182414
0.182316
0.182217
0.182115
0.182011
0.181012
0.181274
0.181508
0.181719
0.181909
0.182081
0.182237
0.182381
0.182512
0.182633
0.182745
0.182848
0.182944
0.183032
0.183113
0.183187
0.183255
0.183316
0.18337
0.183418
0.18346
0.183495
0.183524
0.183546
0.183562
0.183572
0.183576
0.183574
0.183565
0.183551
0.183532
0.183506
0.183476
0.18344
0.183399
0.183354
0.183304
0.183249
0.18319
0.183127
0.18306
0.182989
0.182915
0.182837
0.182756
0.182671
0.182584
0.182493
0.1824
0.182305
0.182206
0.182106
0.182003
0.180569
0.180845
0.181094
0.18132
0.181525
0.181712
0.181885
0.182044
0.182191
0.182328
0.182455
0.182573
0.182684
0.182786
0.182881
0.182969
0.18305
0.183124
0.18319
0.18325
0.183303
0.183349
0.183388
0.18342
0.183445
0.183463
0.183475
0.18348
0.183479
0.183472
0.183459
0.183439
0.183414
0.183384
0.183348
0.183307
0.183261
0.18321
0.183154
0.183095
0.183031
0.182963
0.182891
0.182815
0.182736
0.182654
0.182568
0.182479
0.182388
0.182294
0.182197
0.182097
0.181995
0.180085
0.180377
0.180642
0.180885
0.181108
0.181313
0.181503
0.18168
0.181845
0.181999
0.182144
0.182279
0.182406
0.182525
0.182636
0.182738
0.182834
0.182921
0.183001
0.183074
0.183139
0.183196
0.183246
0.183288
0.183323
0.183351
0.183371
0.183385
0.183391
0.183391
0.183384
0.183371
0.183352
0.183327
0.183296
0.183259
0.183217
0.183171
0.183119
0.183062
0.183002
0.182936
0.182867
0.182794
0.182717
0.182637
0.182553
0.182466
0.182376
0.182283
0.182187
0.182089
0.181988
0.179551
0.179861
0.180146
0.180409
0.180652
0.180877
0.181088
0.181285
0.18147
0.181645
0.181809
0.181963
0.182109
0.182246
0.182374
0.182493
0.182605
0.182707
0.182802
0.182888
0.182967
0.183036
0.183098
0.183151
0.183197
0.183234
0.183264
0.183286
0.183301
0.183308
0.183308
0.183302
0.183289
0.183269
0.183243
0.183212
0.183174
0.183132
0.183084
0.183031
0.182973
0.182911
0.182844
0.182773
0.182699
0.18262
0.182538
0.182453
0.182364
0.182273
0.182178
0.182081
0.181982
0.178967
0.179299
0.179606
0.179892
0.180158
0.180407
0.180641
0.180862
0.18107
0.181267
0.181453
0.181629
0.181795
0.181952
0.182099
0.182237
0.182366
0.182486
0.182596
0.182698
0.18279
0.182873
0.182947
0.183013
0.183069
0.183117
0.183156
0.183188
0.183211
0.183226
0.183233
0.183234
0.183227
0.183213
0.183192
0.183166
0.183133
0.183094
0.18305
0.183
0.182946
0.182886
0.182822
0.182754
0.182681
0.182605
0.182525
0.182441
0.182354
0.182264
0.182171
0.182075
0.181976
0.17833
0.178689
0.179022
0.179335
0.179628
0.179904
0.180165
0.180412
0.180647
0.180869
0.18108
0.18128
0.181469
0.181647
0.181816
0.181974
0.182122
0.182259
0.182387
0.182504
0.182612
0.182709
0.182797
0.182875
0.182943
0.183002
0.183051
0.183091
0.183123
0.183146
0.183161
0.183168
0.183168
0.18316
0.183144
0.183122
0.183094
0.183059
0.183019
0.182973
0.182921
0.182864
0.182803
0.182737
0.182666
0.182592
0.182513
0.182431
0.182345
0.182256
0.182164
0.182069
0.181971
0.177629
0.178018
0.178383
0.178727
0.179052
0.17936
0.179652
0.17993
0.180194
0.180446
0.180685
0.180911
0.181126
0.18133
0.181521
0.181701
0.18187
0.182028
0.182174
0.182309
0.182432
0.182545
0.182647
0.182738
0.182818
0.182888
0.182948
0.182998
0.183038
0.18307
0.183092
0.183106
0.183112
0.18311
0.1831
0.183083
0.183059
0.183028
0.182991
0.182948
0.182899
0.182845
0.182786
0.182722
0.182654
0.182581
0.182504
0.182423
0.182338
0.18225
0.182159
0.182065
0.181968
0.176842
0.17727
0.177674
0.178057
0.178421
0.178766
0.179096
0.17941
0.179709
0.179994
0.180265
0.180522
0.180766
0.180997
0.181215
0.18142
0.181612
0.181791
0.181957
0.182111
0.182252
0.182381
0.182498
0.182603
0.182696
0.182777
0.182848
0.182908
0.182958
0.182998
0.183028
0.183048
0.18306
0.183064
0.183059
0.183047
0.183027
0.183
0.182966
0.182927
0.182881
0.182829
0.182772
0.18271
0.182643
0.182572
0.182496
0.182417
0.182333
0.182246
0.182156
0.182063
0.181966
0.1761
0.176568
0.177013
0.177436
0.177839
0.178223
0.17859
0.178939
0.179273
0.179591
0.179893
0.18018
0.180452
0.180709
0.180951
0.181179
0.181392
0.181591
0.181775
0.181946
0.182103
0.182246
0.182376
0.182493
0.182597
0.182689
0.182769
0.182837
0.182895
0.182941
0.182978
0.183004
0.183021
0.183029
0.183029
0.18302
0.183004
0.18298
0.182949
0.182911
0.182868
0.182818
0.182763
0.182702
0.182636
0.182566
0.182491
0.182413
0.18233
0.182244
0.182154
0.182061
0.181965
0.17551
0.176013
0.176493
0.17695
0.177386
0.177802
0.1782
0.178579
0.178941
0.179285
0.179612
0.179923
0.180217
0.180495
0.180756
0.181002
0.181232
0.181446
0.181644
0.181828
0.181997
0.182151
0.182291
0.182417
0.182529
0.182629
0.182716
0.18279
0.182853
0.182905
0.182946
0.182976
0.182997
0.183008
0.18301
0.183004
0.18299
0.182968
0.182939
0.182903
0.182861
0.182812
0.182758
0.182698
0.182633
0.182564
0.18249
0.182411
0.182329
0.182243
0.182154
0.182061
0.181966
0.174997
0.175534
0.176046
0.176535
0.177002
0.177448
0.177873
0.178279
0.178666
0.179034
0.179383
0.179715
0.180028
0.180324
0.180602
0.180863
0.181107
0.181334
0.181544
0.181739
0.181917
0.18208
0.182228
0.182362
0.182481
0.182586
0.182678
0.182758
0.182825
0.18288
0.182925
0.182958
0.182982
0.182995
0.183
0.182995
0.182983
0.182962
0.182935
0.1829
0.182858
0.18281
0.182757
0.182698
0.182633
0.182564
0.18249
0.182412
0.18233
0.182245
0.182155
0.182063
0.181967
0.181869
0.174548
0.175118
0.175661
0.176179
0.176675
0.177147
0.177598
0.178028
0.178438
0.178827
0.179196
0.179546
0.179876
0.180188
0.18048
0.180754
0.18101
0.181248
0.181468
0.181672
0.181858
0.182029
0.182184
0.182323
0.182447
0.182557
0.182654
0.182737
0.182807
0.182866
0.182913
0.182949
0.182974
0.182989
0.182995
0.182992
0.182981
0.182961
0.182934
0.1829
0.182859
0.182811
0.182758
0.182699
0.182635
0.182566
0.182492
0.182414
0.182333
0.182247
0.182158
0.182065
0.18197
0.181871
0.174156
0.174755
0.175327
0.175873
0.176395
0.176892
0.177367
0.177819
0.178249
0.178657
0.179044
0.179409
0.179755
0.18008
0.180385
0.18067
0.180936
0.181183
0.181412
0.181623
0.181817
0.181993
0.182153
0.182297
0.182426
0.18254
0.182639
0.182725
0.182798
0.182859
0.182908
0.182945
0.182972
0.182988
0.182995
0.182993
0.182982
0.182963
0.182936
0.182903
0.182862
0.182815
0.182761
0.182703
0.182639
0.182569
0.182496
0.182418
0.182336
0.18225
0.182161
0.182068
0.181972
0.181874
0.173811
0.174439
0.175038
0.17561
0.176155
0.176676
0.177172
0.177643
0.178092
0.178517
0.178919
0.1793
0.179658
0.179995
0.180311
0.180606
0.180881
0.181136
0.181372
0.181589
0.181788
0.18197
0.182134
0.182282
0.182414
0.182531
0.182633
0.182721
0.182796
0.182858
0.182908
0.182947
0.182974
0.182992
0.182999
0.182997
0.182987
0.182968
0.182941
0.182907
0.182867
0.18282
0.182766
0.182707
0.182643
0.182574
0.1825
0.182422
0.18234
0.182254
0.182164
0.182071
0.181975
0.181877
0.173508
0.174162
0.174787
0.175382
0.17595
0.176492
0.177007
0.177497
0.177962
0.178402
0.178819
0.179212
0.179582
0.179929
0.180254
0.180558
0.18084
0.181102
0.181344
0.181567
0.18177
0.181956
0.182124
0.182275
0.182409
0.182528
0.182632
0.182722
0.182798
0.182862
0.182913
0.182952
0.18298
0.182998
0.183005
0.183004
0.182993
0.182974
0.182948
0.182914
0.182873
0.182826
0.182772
0.182713
0.182649
0.182579
0.182505
0.182426
0.182344
0.182258
0.182168
0.182075
0.181979
0.18188
0.173243
0.173922
0.174569
0.175187
0.175776
0.176336
0.176869
0.177375
0.177855
0.178309
0.178738
0.179143
0.179523
0.179879
0.180212
0.180523
0.180812
0.18108
0.181327
0.181554
0.181761
0.18195
0.182121
0.182274
0.182411
0.182531
0.182637
0.182728
0.182805
0.182869
0.18292
0.18296
0.182988
0.183006
0.183014
0.183012
0.183001
0.182982
0.182956
0.182921
0.18288
0.182832
0.182779
0.182719
0.182654
0.182585
0.18251
0.182431
0.182348
0.182262
0.182172
0.182078
0.181982
0.181883
0.173015
0.173717
0.174386
0.175023
0.17563
0.176208
0.176756
0.177277
0.17777
0.178236
0.178676
0.17909
0.179479
0.179843
0.180184
0.180501
0.180795
0.181067
0.181318
0.181549
0.181759
0.18195
0.182123
0.182278
0.182417
0.182539
0.182645
0.182737
0.182814
0.182879
0.18293
0.18297
0.182998
0.183016
0.183023
0.183022
0.183011
0.182991
0.182964
0.18293
0.182888
0.18284
0.182786
0.182726
0.182661
0.18259
0.182516
0.182436
0.182353
0.182266
0.182176
0.182082
0.181985
0.181886
0.172845
0.173564
0.17425
0.174903
0.175525
0.176116
0.176677
0.177209
0.177712
0.178188
0.178636
0.179058
0.179453
0.179823
0.180169
0.18049
0.180789
0.181065
0.181318
0.181551
0.181764
0.181957
0.182131
0.182288
0.182427
0.182549
0.182656
0.182748
0.182826
0.182891
0.182942
0.182982
0.18301
0.183027
0.183035
0.183032
0.183021
0.183002
0.182974
0.182939
0.182897
0.182848
0.182794
0.182734
0.182668
0.182597
0.182522
0.182443
0.182359
0.182272
0.182181
0.182087
0.18199
0.18189
0.172747
0.173478
0.174174
0.174836
0.175467
0.176066
0.176635
0.177173
0.177683
0.178164
0.178617
0.179043
0.179442
0.179816
0.180165
0.180489
0.180789
0.181067
0.181323
0.181557
0.181771
0.181965
0.18214
0.182297
0.182436
0.182559
0.182667
0.182759
0.182837
0.182901
0.182953
0.182992
0.18302
0.183037
0.183044
0.183042
0.18303
0.18301
0.182982
0.182947
0.182905
0.182856
0.182801
0.182741
0.182675
0.182604
0.182529
0.182449
0.182365
0.182278
0.182187
0.182092
0.181995
0.181895
)
;

boundaryField
{
    inlet
    {
        type            zeroGradient;
    }
    outlet
    {
        type            fixedValue;
        value           nonuniform 0();
    }
    upperWall
    {
        type            zeroGradient;
    }
    lowerWall
    {
        type            zeroGradient;
    }
    frontAndBack
    {
        type            empty;
    }
    procBoundary1to0
    {
        type            processor;
        value           nonuniform List<scalar> 
59
(
0.182303
0.182297
0.182295
0.182293
0.182291
0.182287
0.182284
0.182279
0.182274
0.182268
0.182261
0.182261
0.182124
0.182117
0.182109
0.182101
0.182093
0.182084
0.182075
0.182066
0.182057
0.182049
0.18204
0.182031
0.182023
0.182015
0.182007
0.181999
0.18199
0.181981
0.181971
0.181962
0.181953
0.181945
0.181936
0.181928
0.181919
0.181912
0.181904
0.181897
0.181891
0.181885
0.181879
0.181875
0.181871
0.181869
0.181868
0.181867
0.181868
0.181868
0.181768
0.18177
0.181773
0.181776
0.181778
0.181781
0.181784
0.181788
0.181793
)
;
    }
    procBoundary1to3
    {
        type            processor;
        value           nonuniform List<scalar> 
62
(
0.208237
0.206576
0.204716
0.203013
0.201533
0.200209
0.198802
0.198802
0.19775
0.196629
0.196629
0.195738
0.19488
0.194049
0.193238
0.192476
0.192476
0.19173
0.190978
0.190247
0.189679
0.189679
0.189159
0.189159
0.188623
0.188121
0.187651
0.187208
0.186791
0.186397
0.186024
0.185668
0.185309
0.184933
0.184549
0.184158
0.183758
0.18335
0.182933
0.182507
0.18207
0.181624
0.181167
0.180717
0.180261
0.179762
0.17921
0.178605
0.177944
0.177212
0.176388
0.175605
0.174979
0.174432
0.173951
0.173527
0.173153
0.172822
0.172531
0.17228
0.17209
0.171981
)
;
    }
}


// ************************************************************************* //
