/*--------------------------------*- C++ -*----------------------------------*\
  =========                 |
  \\      /  F ield         | OpenFOAM: The Open Source CFD Toolbox
   \\    /   O peration     | Website:  https://openfoam.org
    \\  /    A nd           | Version:  6
     \\/     M anipulation  |
\*---------------------------------------------------------------------------*/
FoamFile
{
    version     2.0;
    format      ascii;
    class       surfaceScalarField;
    location    "0.1";
    object      phi;
}
// * * * * * * * * * * * * * * * * * * * * * * * * * * * * * * * * * * * * * //

dimensions      [0 3 -1 0 0 0 0];

internalField   nonuniform List<scalar> 
6046
(
4.27682e-07
-5.78588e-09
4.32936e-07
-5.25421e-09
4.37681e-07
-4.74458e-09
4.4194e-07
-4.2585e-09
4.45737e-07
-3.79724e-09
4.49099e-07
-3.36176e-09
4.52051e-07
-2.95275e-09
4.54622e-07
-2.57058e-09
4.56837e-07
-2.21531e-09
4.58724e-07
-1.88676e-09
4.60308e-07
-1.58441e-09
4.61616e-07
-1.30758e-09
4.62671e-07
-1.05527e-09
4.63497e-07
-8.26112e-10
4.64116e-07
-6.18527e-10
4.64546e-07
-4.3035e-10
4.64799e-07
-2.52752e-10
4.64871e-07
-7.23167e-11
4.64773e-07
9.81638e-11
4.64537e-07
2.36109e-10
4.64194e-07
3.42727e-10
4.63768e-07
4.26471e-10
4.63275e-07
4.93244e-10
4.62728e-07
5.46974e-10
4.62137e-07
5.90591e-10
4.61511e-07
6.26116e-10
4.60856e-07
6.55012e-10
4.60178e-07
6.78334e-10
4.59481e-07
6.96959e-10
4.58769e-07
7.1158e-10
4.58046e-07
7.22813e-10
4.57315e-07
7.31167e-10
4.56578e-07
7.37092e-10
4.55837e-07
7.41005e-10
4.55094e-07
7.43235e-10
4.5435e-07
7.44097e-10
4.53606e-07
7.43861e-10
4.52863e-07
7.42747e-10
4.52122e-07
7.40972e-10
4.51383e-07
7.38692e-10
4.50647e-07
7.36069e-10
4.49914e-07
7.33227e-10
4.49184e-07
7.30279e-10
4.48456e-07
7.27304e-10
4.47732e-07
7.24402e-10
4.4701e-07
7.21619e-10
4.46291e-07
7.19013e-10
4.45575e-07
7.16633e-10
4.4486e-07
7.14511e-10
4.44148e-07
7.12684e-10
4.43436e-07
7.11165e-10
4.42726e-07
7.09981e-10
4.42017e-07
7.09145e-10
4.41309e-07
7.0868e-10
4.406e-07
7.08605e-10
4.39891e-07
7.08947e-10
7.09726e-10
4.45843e-07
-1.2211e-08
4.51742e-07
-1.11536e-08
4.57134e-07
-1.01356e-08
4.62035e-07
-9.16013e-09
4.66468e-07
-8.22983e-09
4.70453e-07
-7.34689e-09
4.74013e-07
-6.51299e-09
4.77172e-07
-5.72927e-09
4.79953e-07
-4.99631e-09
4.8238e-07
-4.31416e-09
4.84478e-07
-3.68239e-09
4.86271e-07
-3.10005e-09
4.87781e-07
-2.56572e-09
4.89033e-07
-2.07752e-09
4.90047e-07
-1.63319e-09
4.90847e-07
-1.23003e-09
4.91458e-07
-8.63743e-10
4.91916e-07
-5.29984e-10
4.9224e-07
-2.26028e-10
4.9243e-07
4.61632e-11
4.92489e-07
2.8343e-10
4.92428e-07
4.87409e-10
4.92259e-07
6.61801e-10
4.91996e-07
8.10311e-10
4.9165e-07
9.36401e-10
4.91233e-07
1.04315e-09
4.90755e-07
1.13317e-09
4.90225e-07
1.2087e-09
4.8965e-07
1.27165e-09
4.89038e-07
1.32371e-09
4.88394e-07
1.36635e-09
4.87725e-07
1.40086e-09
4.87033e-07
1.42839e-09
4.86324e-07
1.44993e-09
4.85601e-07
1.4664e-09
4.84867e-07
1.47859e-09
4.84123e-07
1.4872e-09
4.83373e-07
1.49285e-09
4.82618e-07
1.49607e-09
4.8186e-07
1.49734e-09
4.81099e-07
1.49707e-09
4.80336e-07
1.49564e-09
4.79573e-07
1.49333e-09
4.7881e-07
1.49043e-09
4.78047e-07
1.48715e-09
4.77285e-07
1.48371e-09
4.76524e-07
1.48025e-09
4.75764e-07
1.47693e-09
4.75004e-07
1.47385e-09
4.74246e-07
1.47112e-09
4.73488e-07
1.46881e-09
4.72731e-07
1.46701e-09
4.71975e-07
1.46576e-09
4.71218e-07
1.46513e-09
4.70462e-07
1.46516e-09
4.69705e-07
1.46591e-09
1.46744e-09
4.50978e-07
-1.88392e-08
4.57097e-07
-1.72724e-08
4.62721e-07
-1.57596e-08
4.67866e-07
-1.43052e-08
4.7255e-07
-1.29136e-08
4.76791e-07
-1.1588e-08
4.80609e-07
-1.03313e-08
4.84025e-07
-9.14563e-09
4.87061e-07
-8.03219e-09
4.89739e-07
-6.99157e-09
4.9208e-07
-6.02361e-09
4.94107e-07
-5.12745e-09
4.95843e-07
-4.30156e-09
4.9731e-07
-3.54382e-09
4.98528e-07
-2.85161e-09
4.9952e-07
-2.22181e-09
5.00307e-07
-1.65089e-09
5.00912e-07
-1.13488e-09
5.01355e-07
-6.69328e-10
5.01653e-07
-2.51287e-10
5.01816e-07
1.20395e-10
5.01855e-07
4.47687e-10
5.01783e-07
7.33773e-10
5.01611e-07
9.82343e-10
5.0135e-07
1.19722e-09
5.01012e-07
1.38207e-09
5.00604e-07
1.54033e-09
5.00138e-07
1.67513e-09
4.9962e-07
1.78928e-09
4.99059e-07
1.8853e-09
4.9846e-07
1.96549e-09
4.97829e-07
2.03187e-09
4.97171e-07
2.08629e-09
4.9649e-07
2.13037e-09
4.95791e-07
2.16556e-09
4.95076e-07
2.19319e-09
4.94349e-07
2.2144e-09
4.93612e-07
2.23021e-09
4.92866e-07
2.24153e-09
4.92115e-07
2.24916e-09
4.91358e-07
2.2538e-09
4.90597e-07
2.25606e-09
4.89834e-07
2.25647e-09
4.89069e-07
2.2555e-09
4.88303e-07
2.25355e-09
4.87536e-07
2.25095e-09
4.86768e-07
2.248e-09
4.86e-07
2.24495e-09
4.85232e-07
2.24202e-09
4.84463e-07
2.23938e-09
4.83695e-07
2.23717e-09
4.82927e-07
2.23555e-09
4.82158e-07
2.23462e-09
4.81388e-07
2.23447e-09
4.80618e-07
2.23521e-09
4.79847e-07
2.23693e-09
2.23972e-09
4.53901e-07
-2.55181e-08
4.6009e-07
-2.34611e-08
4.658e-07
-2.14703e-08
4.71047e-07
-1.95518e-08
4.75845e-07
-1.77112e-08
4.8021e-07
-1.59532e-08
4.8416e-07
-1.42817e-08
4.87714e-07
-1.26998e-08
4.90892e-07
-1.12096e-08
4.93713e-07
-9.81245e-09
4.96198e-07
-8.5085e-09
4.98367e-07
-7.2972e-09
5.00243e-07
-6.17711e-09
5.01845e-07
-5.14603e-09
5.03195e-07
-4.20111e-09
5.04312e-07
-3.33895e-09
5.05216e-07
-2.5557e-09
5.05929e-07
-1.84703e-09
5.06467e-07
-1.20789e-09
5.06849e-07
-6.33588e-10
5.0709e-07
-1.20399e-10
5.07203e-07
3.35267e-10
5.07199e-07
7.37367e-10
5.07091e-07
1.09017e-09
5.0689e-07
1.39809e-09
5.06607e-07
1.66549e-09
5.06251e-07
1.89653e-09
5.05831e-07
2.09511e-09
5.05355e-07
2.26489e-09
5.04831e-07
2.40917e-09
5.04266e-07
2.531e-09
5.03665e-07
2.63315e-09
5.03033e-07
2.71809e-09
5.02375e-07
2.7881e-09
5.01695e-07
2.84517e-09
5.00997e-07
2.89115e-09
5.00284e-07
2.92764e-09
4.99558e-07
2.95609e-09
4.98822e-07
2.97777e-09
4.98077e-07
2.99383e-09
4.97326e-07
3.00526e-09
4.96569e-07
3.01293e-09
4.95808e-07
3.01763e-09
4.95043e-07
3.02e-09
4.94276e-07
3.02065e-09
4.93507e-07
3.02006e-09
4.92737e-07
3.01868e-09
4.91965e-07
3.01685e-09
4.91192e-07
3.01493e-09
4.90418e-07
3.01315e-09
4.89643e-07
3.01176e-09
4.88868e-07
3.01096e-09
4.88092e-07
3.01092e-09
4.87314e-07
3.01179e-09
4.86536e-07
3.01372e-09
4.85756e-07
3.01683e-09
3.02128e-09
4.56376e-07
-3.21516e-08
4.62541e-07
-2.96257e-08
4.68247e-07
-2.71765e-08
4.73507e-07
-2.48114e-08
4.78333e-07
-2.25374e-08
4.82741e-07
-2.03605e-08
4.86745e-07
-1.82859e-08
4.90362e-07
-1.63175e-08
4.93611e-07
-1.44585e-08
4.9651e-07
-1.27109e-08
4.99077e-07
-1.10754e-08
5.01331e-07
-9.55195e-09
5.03294e-07
-8.13925e-09
5.04983e-07
-6.83518e-09
5.06418e-07
-5.63679e-09
5.0762e-07
-4.54041e-09
5.08606e-07
-3.5418e-09
5.09395e-07
-2.63613e-09
5.10005e-07
-1.81789e-09
5.10453e-07
-1.08148e-09
5.10754e-07
-4.2168e-10
5.10923e-07
1.66548e-10
5.10972e-07
6.88257e-10
5.10914e-07
1.14862e-09
5.10759e-07
1.55282e-09
5.10518e-07
1.90596e-09
5.10202e-07
2.21299e-09
5.09818e-07
2.4786e-09
5.09376e-07
2.70718e-09
5.08882e-07
2.90282e-09
5.08344e-07
3.06931e-09
5.07767e-07
3.21008e-09
5.07157e-07
3.3283e-09
5.06518e-07
3.42681e-09
5.05855e-07
3.5082e-09
5.05172e-07
3.5748e-09
5.04471e-07
3.62869e-09
5.03755e-07
3.67172e-09
5.03027e-07
3.70558e-09
5.02289e-07
3.73173e-09
5.01543e-07
3.75149e-09
5.0079e-07
3.76599e-09
5.00031e-07
3.77624e-09
4.99268e-07
3.78315e-09
4.98501e-07
3.78748e-09
4.97732e-07
3.78988e-09
4.96959e-07
3.79095e-09
4.96185e-07
3.79118e-09
4.95409e-07
3.79098e-09
4.94631e-07
3.79075e-09
4.93852e-07
3.79078e-09
4.93072e-07
3.79136e-09
4.9229e-07
3.79272e-09
4.91507e-07
3.79506e-09
4.90722e-07
3.79859e-09
4.89935e-07
3.80349e-09
3.80992e-09
4.58942e-07
4.65008e-07
-3.56914e-08
4.70637e-07
-3.28054e-08
4.75839e-07
-3.00138e-08
4.80627e-07
-2.73247e-08
4.85011e-07
-2.47453e-08
4.89008e-07
-2.22821e-08
4.9263e-07
-1.99401e-08
4.95895e-07
-1.77234e-08
4.98819e-07
-1.56347e-08
5.01419e-07
-1.36755e-08
5.03713e-07
-1.18462e-08
5.0572e-07
-1.01458e-08
5.07457e-07
-8.57233e-09
5.08943e-07
-7.12286e-09
5.10196e-07
-5.79355e-09
5.11234e-07
-4.57982e-09
5.12074e-07
-3.47638e-09
5.12734e-07
-2.47733e-09
5.13229e-07
-1.57641e-09
5.13574e-07
-7.6739e-10
5.13785e-07
-4.41189e-11
5.13874e-07
5.99523e-10
5.13853e-07
1.16963e-09
5.13733e-07
1.67225e-09
5.13526e-07
2.11331e-09
5.1324e-07
2.49852e-09
5.12886e-07
2.83336e-09
5.1247e-07
3.12299e-09
5.12e-07
3.37222e-09
5.11484e-07
3.58554e-09
5.10927e-07
3.76709e-09
5.10335e-07
3.92063e-09
5.09712e-07
4.04963e-09
5.09063e-07
4.15721e-09
5.08392e-07
4.24621e-09
5.07701e-07
4.31917e-09
5.06994e-07
4.37838e-09
5.06274e-07
4.42589e-09
5.05542e-07
4.4635e-09
5.04801e-07
4.49286e-09
5.04052e-07
4.51536e-09
5.03296e-07
4.53228e-09
5.02534e-07
4.54472e-09
5.01768e-07
4.55364e-09
5.00998e-07
4.55989e-09
5.00225e-07
4.56419e-09
4.99449e-07
4.56717e-09
4.9867e-07
4.56938e-09
4.9789e-07
4.57128e-09
4.97107e-07
4.57328e-09
4.96323e-07
4.57574e-09
4.95537e-07
4.57894e-09
4.94748e-07
4.58318e-09
4.93958e-07
4.58869e-09
4.93166e-07
4.59569e-09
4.60443e-09
4.67724e-07
-4.15928e-08
4.73212e-07
-3.82939e-08
4.78296e-07
-3.50979e-08
4.82986e-07
-3.20142e-08
4.87292e-07
-2.90512e-08
4.91226e-07
-2.62166e-08
4.94803e-07
-2.35164e-08
4.98035e-07
-2.09558e-08
5.00939e-07
-1.85383e-08
5.03529e-07
-1.62661e-08
5.05823e-07
-1.414e-08
5.07837e-07
-1.21597e-08
5.09588e-07
-1.03232e-08
5.11093e-07
-8.62784e-09
5.12369e-07
-7.06957e-09
5.13433e-07
-5.64362e-09
5.14301e-07
-4.34439e-09
5.14989e-07
-3.16555e-09
5.15513e-07
-2.10034e-09
5.15887e-07
-1.14178e-09
5.16126e-07
-2.82838e-10
5.16242e-07
4.83528e-10
5.16247e-07
1.16429e-09
5.16153e-07
1.76635e-09
5.1597e-07
2.29644e-09
5.15708e-07
2.76106e-09
5.15375e-07
3.16645e-09
5.14979e-07
3.5185e-09
5.14529e-07
3.82277e-09
5.1403e-07
4.0844e-09
5.13489e-07
4.30819e-09
5.12911e-07
4.49854e-09
5.12301e-07
4.65946e-09
5.11663e-07
4.79464e-09
5.11002e-07
4.9074e-09
5.10321e-07
5.00075e-09
5.09622e-07
5.07737e-09
5.08908e-07
5.13971e-09
5.08181e-07
5.18991e-09
5.07444e-07
5.22991e-09
5.06698e-07
5.26141e-09
5.05945e-07
5.28591e-09
5.05185e-07
5.30473e-09
5.04419e-07
5.31906e-09
5.03649e-07
5.32988e-09
5.02875e-07
5.33809e-09
5.02098e-07
5.34446e-09
5.01318e-07
5.34964e-09
5.00535e-07
5.35422e-09
4.99749e-07
5.35868e-09
4.98962e-07
5.36346e-09
4.98172e-07
5.36893e-09
4.9738e-07
5.37543e-09
4.96585e-07
5.38326e-09
4.95788e-07
5.39269e-09
5.404e-09
4.70799e-07
4.7609e-07
-4.35847e-08
4.81001e-07
-4.00086e-08
4.8554e-07
-3.6553e-08
4.89716e-07
-3.32276e-08
4.9354e-07
-3.0041e-08
4.97025e-07
-2.70006e-08
5.00181e-07
-2.41123e-08
5.03023e-07
-2.13807e-08
5.05566e-07
-1.88085e-08
5.07823e-07
-1.63974e-08
5.09811e-07
-1.41473e-08
5.11544e-07
-1.20567e-08
5.13039e-07
-1.01229e-08
5.14312e-07
-8.34203e-09
5.15377e-07
-6.70912e-09
5.16251e-07
-5.21831e-09
5.16949e-07
-3.86296e-09
5.17484e-07
-2.63586e-09
5.17872e-07
-1.52946e-09
5.18125e-07
-5.35983e-10
5.18256e-07
3.52355e-10
5.18277e-07
1.14335e-09
5.18199e-07
1.84469e-09
5.18031e-07
2.46387e-09
5.17784e-07
3.00817e-09
5.17466e-07
3.48456e-09
5.17085e-07
3.89962e-09
5.16648e-07
4.25963e-09
5.16162e-07
4.57037e-09
5.15633e-07
4.83728e-09
5.15066e-07
5.06536e-09
5.14466e-07
5.25917e-09
5.13838e-07
5.42292e-09
5.13185e-07
5.56041e-09
5.12511e-07
5.6751e-09
5.11818e-07
5.77008e-09
5.1111e-07
5.84815e-09
5.10388e-07
5.91183e-09
5.09654e-07
5.96331e-09
5.08911e-07
6.00461e-09
5.0816e-07
6.03744e-09
5.07401e-07
6.06338e-09
5.06636e-07
6.08377e-09
5.05866e-07
6.09981e-09
5.05092e-07
6.11253e-09
5.04314e-07
6.12284e-09
5.03532e-07
6.13151e-09
5.02747e-07
6.13924e-09
5.01959e-07
6.1466e-09
5.01168e-07
6.15411e-09
5.00375e-07
6.16222e-09
4.99579e-07
6.17133e-09
4.9878e-07
6.1818e-09
4.97979e-07
6.19394e-09
6.20807e-09
4.79325e-07
-4.86261e-08
4.84012e-07
-4.4696e-08
4.88352e-07
-4.08932e-08
4.92353e-07
-3.72284e-08
4.96023e-07
-3.37114e-08
4.99373e-07
-3.03507e-08
5.02414e-07
-2.71531e-08
5.05158e-07
-2.41241e-08
5.07616e-07
-2.12674e-08
5.09804e-07
-1.85851e-08
5.11734e-07
-1.60775e-08
5.13422e-07
-1.37438e-08
5.1488e-07
-1.15813e-08
5.16124e-07
-9.58633e-09
5.17169e-07
-7.75376e-09
5.18028e-07
-6.07761e-09
5.18716e-07
-4.55097e-09
5.19247e-07
-3.16629e-09
5.19633e-07
-1.9155e-09
5.19887e-07
-7.90293e-10
5.20022e-07
2.1782e-10
5.20048e-07
1.11732e-09
5.19976e-07
1.9166e-09
5.19816e-07
2.62391e-09
5.19577e-07
3.24721e-09
5.19267e-07
3.79417e-09
5.18895e-07
4.27207e-09
5.18466e-07
4.68781e-09
5.17989e-07
5.04784e-09
5.17468e-07
5.35818e-09
5.16909e-07
5.62438e-09
5.16317e-07
5.85158e-09
5.15695e-07
6.04445e-09
5.15048e-07
6.20728e-09
5.14379e-07
6.34393e-09
5.13691e-07
6.45792e-09
5.12987e-07
6.55239e-09
5.12269e-07
6.63017e-09
5.11538e-07
6.6938e-09
5.10798e-07
6.7455e-09
5.10048e-07
6.78729e-09
5.0929e-07
6.82093e-09
5.08526e-07
6.84796e-09
5.07756e-07
6.86974e-09
5.06981e-07
6.88748e-09
5.06202e-07
6.90221e-09
5.05418e-07
6.91483e-09
5.04631e-07
6.92613e-09
5.03841e-07
6.93679e-09
5.03048e-07
6.9474e-09
5.02252e-07
6.9585e-09
5.01453e-07
6.97053e-09
5.0065e-07
6.98391e-09
4.99845e-07
6.99902e-09
7.01621e-09
4.82935e-07
-5.33713e-08
4.87354e-07
-4.9115e-08
4.91452e-07
-4.49912e-08
4.95236e-07
-4.10118e-08
4.98712e-07
-3.71877e-08
5.0189e-07
-3.35284e-08
5.04779e-07
-3.00419e-08
5.07389e-07
-2.67343e-08
5.09732e-07
-2.36102e-08
5.11819e-07
-2.06724e-08
5.13663e-07
-1.79219e-08
5.15277e-07
-1.5358e-08
5.16675e-07
-1.29784e-08
5.17868e-07
-1.07796e-08
5.18871e-07
-8.75653e-09
5.19696e-07
-6.90304e-09
5.20357e-07
-5.21208e-09
5.20867e-07
-3.67576e-09
5.21237e-07
-2.28567e-09
5.21479e-07
-1.03299e-09
5.21606e-07
9.13275e-11
5.21627e-07
1.09636e-09
5.21552e-07
1.99116e-09
5.21392e-07
2.78459e-09
5.21154e-07
3.48531e-09
5.20846e-07
4.1016e-09
5.20477e-07
4.6414e-09
5.20052e-07
5.11221e-09
5.19579e-07
5.52107e-09
5.19063e-07
5.87458e-09
5.18508e-07
6.17883e-09
5.1792e-07
6.43945e-09
5.17303e-07
6.6616e-09
5.16661e-07
6.85e-09
5.15996e-07
7.00895e-09
5.15311e-07
7.1423e-09
5.1461e-07
7.25358e-09
5.13894e-07
7.34591e-09
5.13166e-07
7.42212e-09
5.12427e-07
7.48471e-09
5.11678e-07
7.53592e-09
5.10921e-07
7.57771e-09
5.10157e-07
7.61183e-09
5.09387e-07
7.63981e-09
5.08612e-07
7.66299e-09
5.07832e-07
7.68255e-09
5.07047e-07
7.6995e-09
5.06258e-07
7.71475e-09
5.05466e-07
7.72906e-09
5.0467e-07
7.74311e-09
5.03871e-07
7.75749e-09
5.03069e-07
7.77273e-09
5.02264e-07
7.7893e-09
5.01455e-07
7.80761e-09
7.82807e-09
4.86919e-07
-5.77781e-08
4.91029e-07
-5.3225e-08
4.94846e-07
-4.88079e-08
4.98374e-07
-4.45402e-08
5.0162e-07
-4.04339e-08
5.04591e-07
-3.64994e-08
5.07295e-07
-3.27457e-08
5.09741e-07
-2.918e-08
5.11938e-07
-2.58075e-08
5.13897e-07
-2.26316e-08
5.1563e-07
-1.96541e-08
5.17146e-07
-1.68746e-08
5.18459e-07
-1.42914e-08
5.1958e-07
-1.19007e-08
5.20522e-07
-9.69791e-09
5.21295e-07
-7.67669e-09
5.21913e-07
-5.82988e-09
5.22387e-07
-4.14939e-09
5.22728e-07
-2.62648e-09
5.22946e-07
-1.25192e-09
5.23054e-07
-1.62225e-11
5.2306e-07
1.09023e-09
5.22974e-07
2.07703e-09
5.22805e-07
2.95366e-09
5.22561e-07
3.72932e-09
5.2225e-07
4.41292e-09
5.21878e-07
5.01296e-09
5.21453e-07
5.53752e-09
5.2098e-07
5.99419e-09
5.20464e-07
6.39009e-09
5.19911e-07
6.73182e-09
5.19325e-07
7.02547e-09
5.1871e-07
7.27667e-09
5.1807e-07
7.49056e-09
5.17407e-07
7.6718e-09
5.16725e-07
7.82462e-09
5.16025e-07
7.95287e-09
5.15311e-07
8.05998e-09
5.14584e-07
8.14905e-09
5.13846e-07
8.22283e-09
5.13098e-07
8.28378e-09
5.12342e-07
8.33406e-09
5.11578e-07
8.37562e-09
5.10808e-07
8.41014e-09
5.10032e-07
8.43912e-09
5.0925e-07
8.46385e-09
5.08464e-07
8.48547e-09
5.07674e-07
8.50499e-09
5.0688e-07
8.52326e-09
5.06082e-07
8.54104e-09
5.05281e-07
8.55899e-09
5.04476e-07
8.57769e-09
5.03667e-07
8.59768e-09
5.02855e-07
8.61941e-09
8.64333e-09
4.91257e-07
-6.18099e-08
4.95022e-07
-5.699e-08
4.98523e-07
-5.23087e-08
5.01763e-07
-4.77802e-08
5.04747e-07
-4.34177e-08
5.0748e-07
-3.92327e-08
5.09969e-07
-3.52351e-08
5.12222e-07
-3.1433e-08
5.14247e-07
-2.78324e-08
5.16053e-07
-2.44375e-08
5.1765e-07
-2.12505e-08
5.19046e-07
-1.82716e-08
5.20254e-07
-1.54993e-08
5.21284e-07
-1.29304e-08
5.22146e-07
-1.056e-08
5.22852e-07
-8.38205e-09
5.23411e-07
-6.38924e-09
5.23835e-07
-4.57334e-09
5.24134e-07
-2.92534e-09
5.24318e-07
-1.43573e-09
5.24396e-07
-9.45934e-11
5.24378e-07
1.1081e-09
5.24273e-07
2.18245e-09
5.24088e-07
3.13843e-09
5.23831e-07
3.98577e-09
5.2351e-07
4.7339e-09
5.23132e-07
5.39186e-09
5.22701e-07
5.96823e-09
5.22224e-07
6.47111e-09
5.21706e-07
6.90813e-09
5.21151e-07
7.28631e-09
5.20565e-07
7.61222e-09
5.19949e-07
7.89189e-09
5.19309e-07
8.13083e-09
5.18647e-07
8.33409e-09
5.17965e-07
8.50623e-09
5.17267e-07
8.6514e-09
5.16553e-07
8.77331e-09
5.15827e-07
8.87533e-09
5.15089e-07
8.96044e-09
5.14342e-07
9.03132e-09
5.13586e-07
9.09033e-09
5.12822e-07
9.13957e-09
5.12051e-07
9.18089e-09
5.11274e-07
9.21593e-09
5.10492e-07
9.24612e-09
5.09705e-07
9.27269e-09
5.08913e-07
9.29675e-09
5.08117e-07
9.31925e-09
5.07317e-07
9.34101e-09
5.06513e-07
9.36278e-09
5.05706e-07
9.38519e-09
5.04895e-07
9.4088e-09
5.0408e-07
9.43415e-09
5.03261e-07
9.46171e-09
9.49199e-09
4.95919e-07
4.99308e-07
-6.03792e-08
5.02463e-07
-5.54633e-08
5.05385e-07
-5.07025e-08
5.08078e-07
-4.61109e-08
5.10546e-07
-4.17011e-08
5.12795e-07
-3.74839e-08
5.14831e-07
-3.34684e-08
5.1666e-07
-2.96613e-08
5.1829e-07
-2.60675e-08
5.19729e-07
-2.26898e-08
5.20986e-07
-1.95289e-08
5.2207e-07
-1.65836e-08
5.22991e-07
-1.38511e-08
5.23758e-07
-1.13266e-08
5.2438e-07
-9.0041e-09
5.24867e-07
-6.87634e-09
5.25228e-07
-4.93493e-09
5.25474e-07
-3.17072e-09
5.25612e-07
-1.57391e-09
5.25652e-07
-1.34316e-10
5.25601e-07
1.15852e-09
5.25469e-07
2.31506e-09
5.25261e-07
3.34573e-09
5.24986e-07
4.26073e-09
5.2465e-07
5.06993e-09
5.24259e-07
5.78284e-09
5.23819e-07
6.40853e-09
5.23335e-07
6.95554e-09
5.22811e-07
7.43189e-09
5.22252e-07
7.84511e-09
5.21662e-07
8.20211e-09
5.21045e-07
8.50931e-09
5.20403e-07
8.77259e-09
5.1974e-07
8.99731e-09
5.19058e-07
9.18838e-09
5.18359e-07
9.35019e-09
5.17645e-07
9.48675e-09
5.16919e-07
9.60165e-09
5.16181e-07
9.69809e-09
5.15434e-07
9.77896e-09
5.14677e-07
9.8468e-09
5.13913e-07
9.90387e-09
5.13142e-07
9.95218e-09
5.12364e-07
9.99349e-09
5.11581e-07
1.00293e-08
5.10793e-07
1.00611e-08
5.09999e-07
1.00899e-08
5.09202e-07
1.01169e-08
5.084e-07
1.01429e-08
5.07594e-07
1.01687e-08
5.06784e-07
1.0195e-08
5.05971e-07
1.02224e-08
5.05153e-07
1.02516e-08
5.04332e-07
1.02829e-08
1.03171e-08
5.03852e-07
-6.33661e-08
5.06635e-07
-5.82461e-08
5.09215e-07
-5.32821e-08
5.11593e-07
-4.84893e-08
5.13773e-07
-4.38812e-08
5.15759e-07
-3.94697e-08
5.17555e-07
-3.52645e-08
5.19167e-07
-3.12734e-08
5.20602e-07
-2.75019e-08
5.21865e-07
-2.39533e-08
5.22965e-07
-2.06288e-08
5.23909e-07
-1.75277e-08
5.24705e-07
-1.46473e-08
5.25362e-07
-1.19832e-08
5.25887e-07
-9.52943e-09
5.2629e-07
-7.27876e-09
5.26577e-07
-5.22278e-09
5.26759e-07
-3.35218e-09
5.26842e-07
-1.65698e-09
5.26834e-07
-1.2675e-10
5.26744e-07
1.24926e-09
5.26577e-07
2.48186e-09
5.26341e-07
3.58184e-09
5.26042e-07
4.55978e-09
5.25686e-07
5.42598e-09
5.25278e-07
6.19032e-09
5.24824e-07
6.86229e-09
5.24329e-07
7.45083e-09
5.23797e-07
7.96438e-09
5.23231e-07
8.41078e-09
5.22636e-07
8.79735e-09
5.22014e-07
9.13084e-09
5.21369e-07
9.41745e-09
5.20704e-07
9.66285e-09
5.2002e-07
9.8722e-09
5.1932e-07
1.00502e-08
5.18606e-07
1.02011e-08
5.17879e-07
1.03286e-08
5.17141e-07
1.04362e-08
5.16393e-07
1.0527e-08
5.15636e-07
1.06037e-08
5.14871e-07
1.06687e-08
5.14099e-07
1.07241e-08
5.13321e-07
1.07718e-08
5.12536e-07
1.08135e-08
5.11747e-07
1.08506e-08
5.10953e-07
1.08844e-08
5.10153e-07
1.0916e-08
5.0935e-07
1.09464e-08
5.08542e-07
1.09764e-08
5.0773e-07
1.10068e-08
5.06915e-07
1.10383e-08
5.06095e-07
1.10714e-08
5.05271e-07
1.11067e-08
1.11448e-08
5.08614e-07
-6.59296e-08
5.11004e-07
-6.06361e-08
5.13221e-07
-5.54984e-08
5.15264e-07
-5.05326e-08
5.17136e-07
-4.57533e-08
5.1884e-07
-4.11733e-08
5.20378e-07
-3.68031e-08
5.21756e-07
-3.26512e-08
5.22978e-07
-2.87238e-08
5.2405e-07
-2.50249e-08
5.24977e-07
-2.15561e-08
5.25766e-07
-1.83171e-08
5.26425e-07
-1.53055e-08
5.26959e-07
-1.25171e-08
5.27375e-07
-9.94625e-09
5.27682e-07
-7.58561e-09
5.27886e-07
-5.42681e-09
5.27995e-07
-3.46047e-09
5.28014e-07
-1.67649e-09
5.27952e-07
-6.42268e-11
5.27814e-07
1.38727e-09
5.27606e-07
2.68912e-09
5.27336e-07
3.85238e-09
5.27008e-07
4.88796e-09
5.26627e-07
5.8065e-09
5.26199e-07
6.61824e-09
5.25728e-07
7.333e-09
5.25219e-07
7.96007e-09
5.24675e-07
8.50821e-09
5.24101e-07
8.98563e-09
5.23498e-07
9.39993e-09
5.22871e-07
9.75818e-09
5.22221e-07
1.00668e-08
5.21552e-07
1.03319e-08
5.20866e-07
1.05587e-08
5.20164e-07
1.07522e-08
5.19448e-07
1.09169e-08
5.1872e-07
1.10567e-08
5.17981e-07
1.11753e-08
5.17232e-07
1.12758e-08
5.16474e-07
1.13613e-08
5.15709e-07
1.14341e-08
5.14936e-07
1.14966e-08
5.14157e-07
1.15508e-08
5.13373e-07
1.15984e-08
5.12582e-07
1.1641e-08
5.11787e-07
1.16799e-08
5.10986e-07
1.17163e-08
5.10181e-07
1.17513e-08
5.09372e-07
1.17857e-08
5.08558e-07
1.18204e-08
5.07741e-07
1.1856e-08
5.06919e-07
1.18933e-08
5.06093e-07
1.19327e-08
1.19748e-08
5.3559e-07
-6.7967e-08
5.37477e-07
-6.25227e-08
5.39211e-07
-5.72326e-08
5.40793e-07
-5.21142e-08
5.42222e-07
-4.71831e-08
5.43502e-07
-4.24527e-08
5.44633e-07
-3.79347e-08
5.4562e-07
-3.36382e-08
5.46467e-07
-2.95701e-08
5.47177e-07
-2.57349e-08
5.47755e-07
-2.21348e-08
5.48208e-07
-1.87699e-08
5.48541e-07
-1.56382e-08
5.48759e-07
-1.27357e-08
5.4887e-07
-1.00567e-08
5.48879e-07
-7.59423e-09
5.48792e-07
-5.33986e-09
5.48615e-07
-3.28418e-09
5.48356e-07
-1.417e-09
5.48019e-07
2.72461e-10
5.47611e-07
1.79535e-09
5.47137e-07
3.16299e-09
5.46603e-07
4.3867e-09
5.46013e-07
5.47767e-09
5.45373e-07
6.4468e-09
5.44686e-07
7.30466e-09
5.43958e-07
8.06136e-09
5.43192e-07
8.72649e-09
5.42391e-07
9.30912e-09
5.41559e-07
9.81773e-09
5.40698e-07
1.02602e-08
5.39813e-07
1.06439e-08
5.38904e-07
1.09756e-08
5.37974e-07
1.12614e-08
5.37026e-07
1.15069e-08
5.36061e-07
1.17174e-08
5.3508e-07
1.18974e-08
5.34086e-07
1.20512e-08
5.33079e-07
1.21825e-08
5.3206e-07
1.22947e-08
5.3103e-07
1.23908e-08
5.29991e-07
1.24735e-08
5.28942e-07
1.25452e-08
5.27885e-07
1.2608e-08
5.2682e-07
1.26637e-08
5.25747e-07
1.27139e-08
5.24666e-07
1.27602e-08
5.23579e-07
1.28036e-08
5.22485e-07
1.28455e-08
5.21384e-07
1.28866e-08
5.20276e-07
1.29279e-08
5.19162e-07
1.297e-08
5.18042e-07
1.30137e-08
5.16915e-07
1.30596e-08
1.31082e-08
5.02465e-07
5.04088e-07
-6.41458e-08
5.05603e-07
-5.87474e-08
5.07008e-07
-5.35193e-08
5.08303e-07
-4.84781e-08
5.09488e-07
-4.36379e-08
5.10565e-07
-3.9011e-08
5.11534e-07
-3.46074e-08
5.12398e-07
-3.04345e-08
5.13161e-07
-2.64973e-08
5.13824e-07
-2.27985e-08
5.14393e-07
-1.93385e-08
5.1487e-07
-1.61156e-08
5.15261e-07
-1.31261e-08
5.15569e-07
-1.03647e-08
5.15799e-07
-7.82423e-09
5.15955e-07
-5.49648e-09
5.16043e-07
-3.37205e-09
5.16067e-07
-1.44071e-09
5.16031e-07
3.08379e-10
5.1594e-07
1.88648e-09
5.15798e-07
3.30504e-09
5.15609e-07
4.57556e-09
5.15377e-07
5.70939e-09
5.15106e-07
6.71767e-09
5.148e-07
7.61115e-09
5.14461e-07
8.40016e-09
5.14093e-07
9.09453e-09
5.13699e-07
9.70353e-09
5.1328e-07
1.02359e-08
5.12841e-07
1.06997e-08
5.12382e-07
1.11025e-08
5.11907e-07
1.14512e-08
5.11416e-07
1.17522e-08
5.10912e-07
1.20113e-08
5.10395e-07
1.22339e-08
5.09868e-07
1.24246e-08
5.09331e-07
1.2588e-08
5.08786e-07
1.27278e-08
5.08233e-07
1.28475e-08
5.07674e-07
1.29504e-08
5.07108e-07
1.30391e-08
5.06537e-07
1.31163e-08
5.05961e-07
1.31839e-08
5.05381e-07
1.32441e-08
5.04796e-07
1.32984e-08
5.04208e-07
1.33484e-08
5.03616e-07
1.33954e-08
5.03021e-07
1.34405e-08
5.02423e-07
1.34847e-08
5.01822e-07
1.3529e-08
5.01218e-07
1.3574e-08
5.00611e-07
1.36205e-08
5.00001e-07
1.36691e-08
1.37204e-08
4.73777e-07
4.75132e-07
-6.01024e-08
4.76412e-07
-5.47991e-08
4.77615e-07
-4.96815e-08
4.78742e-07
-4.47644e-08
4.79791e-07
-4.00606e-08
4.80764e-07
-3.55806e-08
4.81662e-07
-3.13324e-08
4.82486e-07
-2.73215e-08
4.83239e-07
-2.3551e-08
4.83922e-07
-2.00216e-08
4.84538e-07
-1.67319e-08
4.85091e-07
-1.36785e-08
4.85582e-07
-1.08562e-08
4.86016e-07
-8.25802e-09
4.86395e-07
-5.87584e-09
4.86724e-07
-3.70029e-09
4.87004e-07
-1.72119e-09
4.8724e-07
7.23433e-11
4.87435e-07
1.69161e-09
4.87592e-07
3.14813e-09
4.87714e-07
4.45351e-09
4.87804e-07
5.61923e-09
4.87865e-07
6.65653e-09
4.879e-07
7.57633e-09
4.87911e-07
8.3891e-09
4.87901e-07
9.10483e-09
4.87871e-07
9.73295e-09
4.87825e-07
1.02823e-08
4.87763e-07
1.07612e-08
4.87689e-07
1.11773e-08
4.87602e-07
1.15378e-08
4.87505e-07
1.1849e-08
4.874e-07
1.21169e-08
4.87286e-07
1.23471e-08
4.87167e-07
1.25444e-08
4.87041e-07
1.27133e-08
4.86911e-07
1.28577e-08
4.86778e-07
1.29813e-08
4.86641e-07
1.30874e-08
4.86501e-07
1.31787e-08
4.8636e-07
1.32578e-08
4.86216e-07
1.3327e-08
4.86072e-07
1.33883e-08
4.85927e-07
1.34435e-08
4.85781e-07
1.3494e-08
4.85636e-07
1.35412e-08
4.8549e-07
1.35864e-08
4.85344e-07
1.36305e-08
4.85198e-07
1.36745e-08
4.85053e-07
1.37191e-08
4.84909e-07
1.37651e-08
4.84765e-07
1.3813e-08
1.38636e-08
4.4751e-07
-6.1347e-08
4.48707e-07
-5.59963e-08
4.49855e-07
-5.08294e-08
4.50952e-07
-4.58618e-08
4.51998e-07
-4.11069e-08
4.52993e-07
-3.65757e-08
4.53938e-07
-3.22765e-08
4.54831e-07
-2.82152e-08
4.55676e-07
-2.43954e-08
4.56472e-07
-2.0818e-08
4.57222e-07
-1.74818e-08
4.57927e-07
-1.43838e-08
4.5859e-07
-1.15187e-08
4.59212e-07
-8.87994e-09
4.59795e-07
-6.45938e-09
4.60343e-07
-4.24776e-09
4.60856e-07
-2.23491e-09
4.61339e-07
-4.09986e-10
4.61792e-07
1.23833e-09
4.62218e-07
2.72159e-09
4.62621e-07
4.05144e-09
4.63e-07
5.23943e-09
4.6336e-07
6.2969e-09
4.63701e-07
7.23483e-09
4.64027e-07
8.0638e-09
4.64338e-07
8.7939e-09
4.64636e-07
9.43467e-09
4.64923e-07
9.99508e-09
4.65201e-07
1.04835e-08
4.6547e-07
1.09078e-08
4.65733e-07
1.1275e-08
4.6599e-07
1.15919e-08
4.66243e-07
1.18645e-08
4.66492e-07
1.20983e-08
4.66738e-07
1.22983e-08
4.66982e-07
1.2469e-08
4.67225e-07
1.26146e-08
4.67468e-07
1.27387e-08
4.6771e-07
1.28447e-08
4.67954e-07
1.29354e-08
4.68198e-07
1.30134e-08
4.68444e-07
1.30811e-08
4.68692e-07
1.31406e-08
4.68942e-07
1.31936e-08
4.69194e-07
1.32417e-08
4.69449e-07
1.32863e-08
4.69707e-07
1.33285e-08
4.69968e-07
1.33696e-08
4.70232e-07
1.34103e-08
4.70499e-07
1.34516e-08
4.7077e-07
1.34941e-08
4.71045e-07
1.35384e-08
1.35853e-08
4.22482e-07
-6.25214e-08
4.2363e-07
-5.7145e-08
4.24752e-07
-5.19505e-08
4.25844e-07
-4.69539e-08
4.26906e-07
-4.21689e-08
4.27937e-07
-3.76067e-08
4.28937e-07
-3.32763e-08
4.29905e-07
-2.91839e-08
4.30843e-07
-2.53331e-08
4.3175e-07
-2.17253e-08
4.32628e-07
-1.83596e-08
4.33477e-07
-1.5233e-08
4.34299e-07
-1.23405e-08
4.35095e-07
-9.67555e-09
4.35866e-07
-7.23021e-09
4.36613e-07
-4.99527e-09
4.37339e-07
-2.96064e-09
4.38044e-07
-1.1155e-09
4.38731e-07
5.51441e-10
4.39401e-07
2.05175e-09
4.40055e-07
3.39706e-09
4.40696e-07
4.59897e-09
4.41324e-07
5.66885e-09
4.41941e-07
6.61772e-09
4.42549e-07
7.45624e-09
4.43148e-07
8.19453e-09
4.4374e-07
8.84222e-09
4.44327e-07
9.40835e-09
4.44909e-07
9.90137e-09
4.45488e-07
1.03291e-08
4.46064e-07
1.06989e-08
4.46639e-07
1.10174e-08
4.47212e-07
1.12907e-08
4.47786e-07
1.15244e-08
4.48361e-07
1.17236e-08
4.48937e-07
1.1893e-08
4.49515e-07
1.20365e-08
4.50096e-07
1.21581e-08
4.50679e-07
1.2261e-08
4.51266e-07
1.23482e-08
4.51858e-07
1.24224e-08
4.52453e-07
1.24859e-08
4.53053e-07
1.25408e-08
4.53657e-07
1.25889e-08
4.54267e-07
1.26319e-08
4.54882e-07
1.26712e-08
4.55503e-07
1.27079e-08
4.56129e-07
1.27433e-08
4.56761e-07
1.27781e-08
4.574e-07
1.28134e-08
4.58044e-07
1.28497e-08
4.58695e-07
1.28878e-08
1.29282e-08
3.99819e-07
-6.36566e-08
4.00946e-07
-5.82722e-08
4.02063e-07
-5.30675e-08
4.03168e-07
-4.80589e-08
4.0426e-07
-4.32605e-08
4.05337e-07
-3.86841e-08
4.064e-07
-3.43386e-08
4.07446e-07
-3.02306e-08
4.08477e-07
-2.63641e-08
4.09492e-07
-2.27405e-08
4.10492e-07
-1.93593e-08
4.11477e-07
-1.62175e-08
4.12446e-07
-1.33103e-08
4.13402e-07
-1.06313e-08
4.14345e-07
-8.17268e-09
4.15275e-07
-5.92527e-09
4.16193e-07
-3.87904e-09
4.17101e-07
-2.02323e-09
4.17999e-07
-3.46606e-10
4.18888e-07
1.16238e-09
4.1977e-07
2.51538e-09
4.20645e-07
3.72394e-09
4.21514e-07
4.79947e-09
4.22379e-07
5.75301e-09
4.2324e-07
6.59521e-09
4.24098e-07
7.33627e-09
4.24955e-07
7.98581e-09
4.2581e-07
8.55291e-09
4.26665e-07
9.04608e-09
4.27521e-07
9.47321e-09
4.28379e-07
9.84161e-09
4.29238e-07
1.0158e-08
4.301e-07
1.04286e-08
4.30965e-07
1.0659e-08
4.31835e-07
1.08543e-08
4.32708e-07
1.10193e-08
4.33587e-07
1.1158e-08
4.34471e-07
1.12742e-08
4.35361e-07
1.13713e-08
4.36256e-07
1.14524e-08
4.37159e-07
1.15202e-08
4.38067e-07
1.15769e-08
4.38983e-07
1.16248e-08
4.39907e-07
1.16657e-08
4.40837e-07
1.17012e-08
4.41776e-07
1.17327e-08
4.42722e-07
1.17616e-08
4.43676e-07
1.17889e-08
4.44639e-07
1.18155e-08
4.4561e-07
1.18423e-08
4.4659e-07
1.18701e-08
4.47578e-07
1.18994e-08
1.19309e-08
3.79314e-07
-6.47768e-08
3.8044e-07
-5.93981e-08
3.81569e-07
-5.4197e-08
3.82701e-07
-4.91902e-08
3.83832e-07
-4.43921e-08
3.84963e-07
-3.98146e-08
3.86091e-07
-3.54672e-08
3.87217e-07
-3.13564e-08
3.8834e-07
-2.74866e-08
3.89459e-07
-2.38594e-08
3.90574e-07
-2.04743e-08
3.91685e-07
-1.73284e-08
3.92792e-07
-1.44173e-08
3.93895e-07
-1.17345e-08
3.94994e-07
-9.27223e-09
3.9609e-07
-7.02151e-09
3.97184e-07
-4.97236e-09
3.98275e-07
-3.11406e-09
3.99363e-07
-1.43542e-09
4.00451e-07
7.50605e-11
4.01537e-07
1.42899e-09
4.02623e-07
2.63791e-09
4.03709e-07
3.7132e-09
4.04797e-07
4.6659e-09
4.05885e-07
5.50667e-09
4.06976e-07
6.24568e-09
4.08069e-07
6.89259e-09
4.09165e-07
7.45648e-09
4.10266e-07
7.94587e-09
4.1137e-07
8.36868e-09
4.12479e-07
8.73223e-09
4.13594e-07
9.04329e-09
4.14715e-07
9.30805e-09
4.15842e-07
9.53217e-09
4.16975e-07
9.7208e-09
4.18116e-07
9.87861e-09
4.19264e-07
1.00098e-08
4.2042e-07
1.01182e-08
4.21584e-07
1.02072e-08
4.22757e-07
1.02799e-08
4.23938e-07
1.03389e-08
4.25128e-07
1.03866e-08
4.26328e-07
1.04253e-08
4.27537e-07
1.04567e-08
4.28755e-07
1.04825e-08
4.29984e-07
1.05042e-08
4.31222e-07
1.0523e-08
4.32471e-07
1.05401e-08
4.33731e-07
1.05563e-08
4.35e-07
1.05725e-08
4.36281e-07
1.05895e-08
4.37572e-07
1.06079e-08
1.06283e-08
3.60775e-07
-6.59e-08
3.61914e-07
-6.05379e-08
3.63069e-07
-5.53513e-08
3.64236e-07
-5.03572e-08
3.65414e-07
-4.55702e-08
3.66602e-07
-4.10026e-08
3.67798e-07
-3.66638e-08
3.69003e-07
-3.25608e-08
3.70214e-07
-2.8698e-08
3.71432e-07
-2.50771e-08
3.72655e-07