/*--------------------------------*- C++ -*----------------------------------*\
  =========                 |
  \\      /  F ield         | OpenFOAM: The Open Source CFD Toolbox
   \\    /   O peration     | Website:  https://openfoam.org
    \\  /    A nd           | Version:  6
     \\/     M anipulation  |
\*---------------------------------------------------------------------------*/
FoamFile
{
    version     2.0;
    format      ascii;
    class       volVectorField;
    location    "0.1";
    object      U;
}
// * * * * * * * * * * * * * * * * * * * * * * * * * * * * * * * * * * * * * //

dimensions      [0 1 -1 0 0 0 0];

internalField   nonuniform List<vector> 
3081
(
(0.399781 -0.00362207 8.62306e-21)
(0.405349 -0.0032769 8.52736e-21)
(0.410439 -0.00295207 8.4353e-21)
(0.415071 -0.00264781 0)
(0.419268 -0.00236415 0)
(0.423052 -0.00210097 0)
(0.426448 -0.00185797 8.1019e-21)
(0.429478 -0.00163471 0)
(0.432168 -0.0014306 0)
(0.434542 -0.00124493 -7.88525e-21)
(0.436625 -0.00107684 0)
(0.438441 -0.000925424 0)
(0.440012 -0.000789663 -7.69311e-21)
(0.441361 -0.000668325 0)
(0.442508 -0.000560295 0)
(0.443473 -0.000464743 7.52173e-21)
(0.444274 -0.00037607 7.46875e-21)
(0.444915 -0.0002823 0)
(0.445373 -0.000187073 -7.36815e-21)
(0.445692 -0.000108067 0)
(0.445903 -5.10522e-05 7.27351e-21)
(0.446027 -1.14446e-05 0)
(0.446084 1.61543e-05 7.18434e-21)
(0.446087 3.55037e-05 7.14154e-21)
(0.446048 4.91539e-05 0)
(0.445976 5.87748e-05 0)
(0.445876 6.5418e-05 0)
(0.445755 6.97668e-05 0)
(0.445617 7.22963e-05 0)
(0.445468 7.33584e-05 0)
(0.445309 7.32287e-05 0)
(0.445146 7.2132e-05 6.83227e-21)
(0.444979 7.02571e-05 -6.79689e-21)
(0.444811 6.77646e-05 0)
(0.444645 6.47913e-05 0)
(0.44448 6.14541e-05 0)
(0.44432 5.78519e-05 0)
(0.444164 5.40684e-05 -1.32557e-20)
(0.444014 5.01734e-05 0)
(0.44387 4.62253e-05 1.31266e-20)
(0.443732 4.22723e-05 -1.30631e-20)
(0.443602 3.83539e-05 0)
(0.443478 3.45021e-05 0)
(0.443362 3.07425e-05 0)
(0.443253 2.70955e-05 1.28154e-20)
(0.443152 2.35767e-05 1.27548e-20)
(0.443057 2.01978e-05 0)
(0.44297 1.69674e-05 1.2635e-20)
(0.44289 1.38915e-05 1.25758e-20)
(0.442816 1.0974e-05 -1.2517e-20)
(0.442748 8.2171e-06 0)
(0.442687 5.62223e-06 0)
(0.442632 3.19078e-06 -1.23427e-20)
(0.442582 9.24738e-07 0)
(0.442538 -1.17308e-06 0)
(0.442498 -3.09879e-06 0)
(0.442463 -4.84647e-06 0)
(0.416566 -0.00889803 6.22284e-21)
(0.422755 -0.00809835 -6.28788e-21)
(0.428471 -0.00733991 -6.25487e-21)
(0.43373 -0.00662393 0)
(0.43855 -0.00595126 0)
(0.442948 -0.00532235 0)
(0.446946 -0.00473725 -6.12521e-21)
(0.450564 -0.00419559 0)
(0.453822 -0.00369667 1.20829e-20)
(0.456744 -0.0032394 1.80572e-20)
(0.459351 -0.0028224 -1.1969e-20)
(0.461664 -0.00244398 0)
(0.463707 -0.0021022 -5.91552e-21)
(0.4655 -0.00179481 0)
(0.467064 -0.00151937 -1.17454e-20)
(0.46842 -0.00127291 5.83678e-21)
(0.469588 -0.0010491 5.81069e-21)
(0.470595 -0.00084075 0)
(0.471483 -0.00065159 1.72991e-20)
(0.472247 -0.00049073 -1.14751e-20)
(0.472887 -0.000358854 -5.71479e-21)
(0.473411 -0.000251303 0)
(0.473831 -0.000163579 -5.66046e-21)
(0.474159 -9.21903e-05 -1.68967e-20)
(0.474406 -3.42837e-05 0)
(0.474585 1.24233e-05 -1.11602e-20)
(0.474704 4.97319e-05 -1.11098e-20)
(0.474773 7.91014e-05 -1.10599e-20)
(0.474801 0.000101745 0)
(0.474793 0.000118689 0)
(0.474756 0.00013081 0)
(0.474696 0.000138865 5.43259e-21)
(0.474618 0.000143509 5.40967e-21)
(0.474524 0.000145313 0)
(0.47442 0.000144773 1.07256e-20)
(0.474308 0.000142317 1.06796e-20)
(0.47419 0.000138317 0)
(0.474069 0.000133093 1.05889e-20)
(0.473947 0.00012692 2.10879e-20)
(0.473825 0.000120032 -1.04993e-20)
(0.473705 0.00011263 -1.04551e-20)
(0.473588 0.000104884 0)
(0.473474 9.69362e-05 0)
(0.473365 8.89054e-05 0)
(0.473261 8.08906e-05 -1.02803e-20)
(0.473162 7.29728e-05 1.02372e-20)
(0.473068 6.52175e-05 2.03883e-20)
(0.47298 5.76771e-05 -1.01513e-20)
(0.472899 5.03931e-05 1.01086e-20)
(0.472823 4.33979e-05 1.00662e-20)
(0.472753 3.67165e-05 0)
(0.472689 3.03686e-05 0)
(0.472631 2.43707e-05 -9.93914e-21)
(0.472578 1.8737e-05 0)
(0.472531 1.3481e-05 0)
(0.472488 8.61676e-06 1.96267e-20)
(0.472451 4.15965e-06 0)
(0.421298 -0.0152601 -9.65842e-21)
(0.427691 -0.013961 0)
(0.433626 -0.0127229 0)
(0.439115 -0.0115482 0)
(0.444174 -0.0104388 0)
(0.448818 -0.00939571 0)
(0.453066 -0.00841971 -9.54102e-21)
(0.456934 -0.0075108 0)
(0.460442 -0.00666843 -9.5472e-21)
(0.463611 -0.00589149 -9.52653e-21)
(0.466459 -0.00517836 9.50453e-21)
(0.469008 -0.00452693 0)
(0.471277 -0.00393468 9.45682e-21)
(0.473288 -0.00339867 0)
(0.475061 -0.00291568 9.4046e-21)
(0.476614 -0.0024822 -9.377e-21)
(0.477968 -0.00209457 -2.80186e-20)
(0.479144 -0.001749 0)
(0.480163 -0.00144127 -2.78488e-20)
(0.481042 -0.00116883 -9.24127e-21)
(0.481793 -0.000930929 0)
(0.482426 -0.000725984 -1.83738e-20)
(0.482951 -0.000551237 -1.83085e-20)
(0.48338 -0.000403458 2.73688e-20)
(0.483723 -0.00027938 0)
(0.483991 -0.000175949 9.05809e-21)
(0.484193 -9.04293e-05 9.02384e-21)
(0.484339 -2.0413e-05 2.69635e-20)
(0.484436 3.62136e-05 0)
(0.484492 8.13032e-05 0)
(0.484514 0.000116481 0)
(0.484506 0.000143175 8.85009e-21)
(0.484474 0.000162639 0)
(0.484423 0.000175975 0)
(0.484357 0.00018415 -8.75009e-21)
(0.484279 0.000188011 -8.71613e-21)
(0.484191 0.000188297 0)
(0.484097 0.000185652 0)
(0.483999 0.000180633 -1.72294e-20)
(0.483899 0.000173725 0)
(0.483797 0.000165344 1.70948e-20)
(0.483697 0.000155845 1.70277e-20)
(0.483597 0.000145532 0)
(0.483501 0.000134665 0)
(0.483408 0.000123458 -1.6827e-20)
(0.483318 0.000112095 6.75688e-26)
(0.483233 0.000100725 6.76426e-26)
(0.483153 8.94726e-05 0)
(0.483077 7.84383e-05 -3.31203e-20)
(0.483007 6.77046e-05 0)
(0.482941 5.73381e-05 0)
(0.482881 4.7393e-05 0)
(0.482826 3.79142e-05 1.62936e-20)
(0.482776 2.89396e-05 0)
(0.482731 2.05028e-05 -3.23206e-20)
(0.48269 1.2635e-05 -1.60938e-20)
(0.482654 5.36961e-06 0)
(0.42402 -0.0217685 -1.58967e-20)
(0.430473 -0.0199729 1.59313e-20)
(0.436484 -0.0182574 1.59611e-20)
(0.442066 -0.0166255 -1.59861e-20)
(0.44723 -0.0150797 -1.60065e-20)
(0.45199 -0.013622 0)
(0.456362 -0.0122537 -7.98207e-21)
(0.460362 -0.0109752 0)
(0.464006 -0.00978609 0)
(0.467314 -0.00868537 -1.60411e-20)
(0.470303 -0.00767124 0)
(0.472992 -0.00674131 0)
(0.4754 -0.00589256 -1.60109e-20)
(0.477547 -0.00512151 0)
(0.479451 -0.00442426 0)
(0.481132 -0.00379659 0)
(0.482608 -0.0032341 3.18613e-20)
(0.483897 -0.00273219 0)
(0.485018 -0.00228577 3.17268e-20)
(0.485988 -0.00189033 1.58351e-20)
(0.486822 -0.00154269 1.57782e-20)
(0.487532 -0.00123968 1.34671e-23)
(0.488131 -0.000977678 1.56991e-20)
(0.48863 -0.00075281 -3.12897e-20)
(0.489039 -0.000561194 -1.55909e-20)
(0.489369 -0.000399097 0)
(0.489629 -0.000263041 -1.54901e-20)
(0.489828 -0.000149845 -3.08826e-20)
(0.489975 -5.66315e-05 0)
(0.490076 1.91834e-05 0)
(0.490139 7.99114e-05 0)
(0.490168 0.000127613 -3.1482e-24)
(0.490171 0.000164119 0)
(0.490151 0.000191053 0)
(0.490112 0.000209851 0)
(0.490059 0.000221778 0)
(0.489994 0.000227945 2.99027e-20)
(0.48992 0.000229326 0)
(0.489839 0.000226772 -2.96805e-20)
(0.489754 0.000221023 0)
(0.489667 0.000212718 -2.94573e-20)
(0.489578 0.000202411 -1.46731e-20)
(0.48949 0.000190576 2.92331e-20)
(0.489402 0.000177617 -2.91207e-20)
(0.489317 0.000163878 -1.45038e-20)
(0.489235 0.00014965 1.44474e-20)
(0.489155 0.000135176 -1.43913e-20)
(0.48908 0.000120658 0)
(0.489009 0.000106264 -1.42777e-20)
(0.488941 9.2132e-05 0)
(0.488879 7.83762e-05 0)
(0.488821 6.50907e-05 0)
(0.488767 5.2354e-05 -2.80999e-20)
(0.488718 4.02324e-05 0)
(0.488674 2.87837e-05 2.39565e-25)
(0.488634 1.80607e-05 0)
(0.488597 8.11701e-06 0)
(0.426365 -0.0283208 2.79359e-20)
(0.432788 -0.0260438 -1.40549e-20)
(0.438789 -0.0238641 -2.81069e-20)
(0.444377 -0.0217861 1.41258e-20)
(0.449563 -0.0198134 1.41549e-20)
(0.45436 -0.0179485 0)
(0.45878 -0.0161935 5.69496e-23)
(0.462838 -0.0145492 0)
(0.46655 -0.0130157 -1.41814e-20)
(0.469931 -0.0115919 1.42377e-20)
(0.472998 -0.0102763 0)
(0.47577 -0.00906622 0)
(0.478263 -0.00795834 1.42386e-20)
(0.480496 -0.00694874 -1.4201e-20)
(0.482486 -0.00603298 0)
(0.484252 -0.0052062 0)
(0.48581 -0.00446327 -1.41875e-20)
(0.487179 -0.00379872 0)
(0.488375 -0.00320668 -1.41426e-20)
(0.489414 -0.0026815 0)
(0.490312 -0.00221816 -1.40873e-20)
(0.491082 -0.00181194 1.40524e-20)
(0.491738 -0.00145811 -2.80069e-20)
(0.492289 -0.00115195 1.3976e-20)
(0.492749 -0.000888818 1.39357e-20)
(0.493126 -0.000664217 0)
(0.49343 -0.000473917 1.38515e-20)
(0.493671 -0.000313979 1.3808e-20)
(0.493856 -0.000180787 0)
(0.493993 -7.10428e-05 0)
(0.494088 1.82367e-05 2.73369e-20)
(0.494148 8.97371e-05 -1.36263e-20)
(0.494177 0.000145865 2.71525e-20)
(0.494182 0.000188769 0)
(0.494166 0.00022036 0)
(0.494133 0.00024233 0)
(0.494086 0.000256175 -5.3549e-20)
(0.494028 0.000263211 0)
(0.493962 0.000264591 2.65814e-20)
(0.49389 0.000261322 0)
(0.493814 0.000254282 2.63848e-20)
(0.493735 0.00024423 0)
(0.493655 0.000231821 -2.61866e-20)
(0.493575 0.000217618 2.60869e-20)
(0.493497 0.000202101 2.59869e-20)
(0.49342 0.000185678 -2.58866e-20)
(0.493345 0.000168693 0)
(0.493274 0.000151434 0)
(0.493205 0.000134143 6.55474e-25)
(0.493141 0.000117023 0)
(0.49308 0.000100238 0)
(0.493024 8.39301e-05 0)
(0.492971 6.82145e-05 2.51753e-20)
(0.492923 5.31905e-05 0)
(0.492878 3.8944e-05 2.49693e-20)
(0.492838 2.55522e-05 0)
(0.492801 1.30916e-05 2.47619e-20)
(0.428831 -0.0347951 -1.26894e-20)
(0.435152 -0.032058 0)
(0.441073 -0.0294335 1.27811e-20)
(0.4466 -0.0269269 0)
(0.451743 -0.0245426 -1.27998e-20)
(0.456513 -0.0222841 0)
(0.460922 -0.020154 4.89542e-23)
(0.464981 -0.0181538 0)
(0.468705 -0.016284 1.29597e-20)
(0.472108 -0.0145438 0)
(0.475206 -0.0129318 0)
(0.478015 -0.0114452 0)
(0.480551 -0.0100807 0)
(0.48283 -0.00883387 1.2999e-20)
(0.48487 -0.00769997 0)
(0.486687 -0.00667352 0)
(0.488298 -0.00574869 2.5914e-20)
(0.489719 -0.00491927 0)
(0.490966 -0.00417868 0)
(0.492054 -0.00352035 0)
(0.492999 -0.00293799 2.57834e-20)
(0.493814 -0.00242557 0)
(0.494512 -0.00197725 2.56951e-20)
(0.495104 -0.00158736 0)
(0.495601 -0.00125036 -2.55425e-20)
(0.496015 -0.000960971 2.54731e-20)
(0.496354 -0.000714168 0)
(0.496626 -0.000505263 -2.53269e-20)
(0.496842 -0.000329908 0)
(0.497007 -0.000184115 0)
(0.497128 -6.42447e-05 -5.01945e-20)
(0.497212 3.29995e-05 2.50115e-20)
(0.497264 0.00011059 -2.4936e-20)
(0.497289 0.000171194 0)
(0.497291 0.000217194 0)
(0.497274 0.000250711 0)
(0.497243 0.000273626 4.91809e-20)
(0.497198 0.000287598 0)
(0.497145 0.00029409 -2.44131e-20)
(0.497083 0.000294381 0)
(0.497017 0.00028959 0)
(0.496947 0.00028069 0)
(0.496874 0.000268523 0)
(0.496801 0.000253814 -2.39644e-20)
(0.496728 0.000237185 0)
(0.496655 0.000219168 2.37814e-20)
(0.496585 0.000200213 -2.36893e-20)
(0.496517 0.000180702 -2.35967e-20)
(0.496451 0.000160953 2.35046e-20)
(0.496388 0.000141236 0)
(0.496329 0.000121775 0)
(0.496274 0.000102758 0)
(0.496222 8.43444e-05 0)
(0.496174 6.6668e-05 0)
(0.496129 4.98453e-05 0)
(0.496088 3.39802e-05 0)
(0.496051 1.91737e-05 -2.27467e-20)
(0.437781 -0.0379543 0)
(0.443561 -0.0349063 -2.3585e-20)
(0.448969 -0.0319906 0)
(0.454013 -0.0292125 1.19294e-20)
(0.458702 -0.0265763 0)
(0.463046 -0.0240854 -1.19075e-20)
(0.467057 -0.0217418 0)
(0.470746 -0.0195466 2.40136e-20)
(0.474127 -0.0174993 2.40576e-20)
(0.477213 -0.0155987 -2.40937e-20)
(0.48002 -0.0138421 0)
(0.482561 -0.0122261 0)
(0.484853 -0.0107461 2.41554e-20)
(0.486911 -0.00939704 0)
(0.488751 -0.00817291 2.4159e-20)
(0.490387 -0.00706729 -3.93981e-23)
(0.491836 -0.00607333 -2.41348e-20)
(0.493113 -0.00518378 0)
(0.494232 -0.00439127 0)
(0.495207 -0.00368854 -2.408e-20)
(0.496051 -0.0030685 0)
(0.496778 -0.0025243 0)
(0.497398 -0.00204929 -2.39049e-20)
(0.497924 -0.00163706 2.38642e-20)
(0.498364 -0.00128148 -4.75848e-20)
(0.498728 -0.000976748 0)
(0.499026 -0.000717428 2.36664e-20)
(0.499264 -0.000498457 0)
(0.499451 -0.000315166 0)
(0.499593 -0.000163278 4.68913e-20)
(0.499696 -3.88983e-05 -2.33754e-20)
(0.499766 6.14984e-05 0)
(0.499807 0.000141089 0)
(0.499824 0.000202722 0)
(0.499822 0.000248942 0)
(0.499802 0.000282011 -2.29829e-20)
(0.49977 0.000303935 2.28975e-20)
(0.499726 0.000316481 2.28198e-20)
(0.499674 0.000321206 0)
(0.499616 0.000319472 0)
(0.499553 0.000312467 0)
(0.499487 0.000301222 2.24837e-20)
(0.499419 0.00028663 4.48002e-20)
(0.49935 0.000269458 0)
(0.499282 0.000250364 -6.66865e-20)
(0.499215 0.00022991 2.21436e-20)
(0.499149 0.000208571 2.20568e-20)
(0.499086 0.000186749 0)
(0.499025 0.000164783 -4.37619e-20)
(0.498967 0.000142959 0)
(0.498912 0.000121515 0)
(0.498861 0.000100656 0)
(0.498812 8.0552e-05 0)
(0.498767 6.13533e-05 -4.28743e-20)
(0.498726 4.31913e-05 0)
(0.498687 2.61927e-05 0)
(0.440776 -0.043679 0)
(0.44636 -0.0402307 2.23138e-20)
(0.451596 -0.0369275 0)
(0.45649 -0.0337755 2.23846e-20)
(0.46105 -0.0307799 0)
(0.465283 -0.0279447 2.26073e-20)
(0.469201 -0.0252726 0)
(0.472813 -0.0227651 -2.27117e-20)
(0.476131 -0.0204224 -4.54419e-20)
(0.479168 -0.0182434 2.27876e-20)
(0.481937 -0.0162257 0)
(0.48445 -0.0143657 -2.27829e-20)
(0.486724 -0.0126589 -2.28479e-20)
(0.488771 -0.0110998 0)
(0.490606 -0.0096821 -2.28534e-20)
(0.492244 -0.00839891 -2.28463e-20)
(0.493699 -0.00724278 2.2833e-20)
(0.494985 -0.00620586 -2.27817e-20)
(0.496116 -0.0052801 2.27595e-20)
(0.497105 -0.00445741 2.2732e-20)
(0.497965 -0.00372984 0)
(0.498709 -0.00308959 0)
(0.499346 -0.00252913 2.03668e-23)
(0.499889 -0.00204119 0)
(0.500346 -0.00161884 2.25088e-20)
(0.500728 -0.00125551 2.24329e-20)
(0.501043 -0.000945007 0)
(0.501298 -0.000681586 0)
(0.501501 -0.000459915 2.22423e-20)
(0.501658 -0.000275096 -2.2185e-20)
(0.501776 -0.000122653 0)
(0.501859 1.47848e-06 0)
(0.501914 0.000100972 0)
(0.501943 0.000179132 2.18914e-20)
(0.501952 0.00023892 2.18176e-20)
(0.501943 0.000282973 0)
(0.501919 0.000313636 -2.16717e-20)
(0.501884 0.000332985 0)
(0.50184 0.000342847 0)
(0.501788 0.000344827 0)
(0.501731 0.00034033 0)
(0.501671 0.000330577 -2.12796e-20)
(0.501608 0.000316628 -2.11994e-20)
(0.501543 0.000299398 -4.2233e-20)
(0.501478 0.000279675 4.20745e-20)
(0.501414 0.00025813 4.19076e-20)
(0.501351 0.000235337 4.17434e-20)
(0.501289 0.000211783 0)
(0.501229 0.000187879 8.28263e-20)
(0.501172 0.000163972 0)
(0.501118 0.000140356 0)
(0.501067 0.000117279 0)
(0.501018 9.49527e-05 0)
(0.500973 7.35603e-05 4.05692e-20)
(0.50093 5.3262e-05 0)
(0.500891 3.42112e-05 0)
(0.44952 -0.0453591 2.11583e-20)
(0.454536 -0.041692 0)
(0.459234 -0.0381881 -2.14076e-20)
(0.46362 -0.0348533 0)
(0.467701 -0.0316923 2.14648e-20)
(0.471485 -0.0287087 0)
(0.474981 -0.0259044 2.15777e-20)
(0.4782 -0.0232802 2.16846e-20)
(0.481152 -0.0208352 -2.16631e-20)
(0.48385 -0.0185672 0)
(0.486306 -0.0164729 4.34916e-20)
(0.488532 -0.0145476 0)
(0.490542 -0.0127856 0)
(0.492349 -0.0111804 0)
(0.493965 -0.00972475 0)
(0.495405 -0.00841064 0)
(0.496682 -0.00722971 2.17672e-20)
(0.497808 -0.0061733 -2.1746e-20)
(0.498796 -0.00523263 -2.17198e-20)
(0.499658 -0.00439897 0)
(0.500406 -0.00366372 0)
(0.501049 -0.00301854 2.04975e-23)
(0.501599 -0.00245537 0)
(0.502066 -0.0019665 2.14734e-20)
(0.502457 -0.00154462 -4.28515e-20)
(0.502782 -0.00118284 0)
(0.503047 -0.000874742 4.26011e-20)
(0.503261 -0.000614353 -6.37283e-20)
(0.503429 -0.000396178 0)
(0.503557 -0.000215183 -4.2221e-20)
(0.50365 -6.67808e-05 0)
(0.503714 5.31833e-05 0)
(0.503753 0.000148457 -2.09143e-20)
(0.50377 0.000222403 -2.08435e-20)
(0.503769 0.000278029 4.15325e-20)
(0.503753 0.000318013 4.13885e-20)
(0.503725 0.000344727 0)
(0.503687 0.000360269 0)
(0.503641 0.000366483 0)
(0.503589 0.000364987 0)
(0.503533 0.000357192 0)
(0.503473 0.000344325 0)
(0.503412 0.000327448 8.06817e-20)
(0.50335 0.000307476 0)
(0.503288 0.000285195 -3.62957e-24)
(0.503227 0.000261276 -3.98732e-20)
(0.503167 0.000236291 3.97117e-20)
(0.503108 0.000210725 -3.9555e-20)
(0.503052 0.000184989 0)
(0.502998 0.00015943 0)
(0.502946 0.000134344 0)
(0.502897 0.000109983 0)
(0.502851 8.65643e-05 3.87421e-20)
(0.502808 6.42779e-05 0)
(0.502768 4.33023e-05 3.84126e-20)
(0.453056 -0.0502479 -8.60113e-23)
(0.45781 -0.0462425 -2.04122e-20)
(0.46227 -0.0424104 0)
(0.466442 -0.0387584 0)
(0.470331 -0.0352923 -4.13145e-20)
(0.473944 -0.032016 0)
(0.47729 -0.0289323 -6.14191e-23)
(0.480376 -0.0260422 0)
(0.483213 -0.0233455 2.08694e-20)
(0.48581 -0.0208402 0)
(0.48818 -0.018523 -2.09204e-20)
(0.490333 -0.0163893 0)
(0.492281 -0.0144335 0)
(0.494036 -0.0126486 -2.09112e-20)
(0.49561 -0.0110272 0)
(0.497016 -0.00956095 0)
(0.498266 -0.00824092 0)
(0.499371 -0.00705794 2.0879e-20)
(0.500343 -0.00600264 2.08575e-20)
(0.501194 -0.00506562 0)
(0.501933 -0.00423758 4.15892e-20)
(0.502573 -0.00350944 2.07705e-20)
(0.503121 -0.00287242 -4.14044e-20)
(0.503588 -0.00231809 -2.06693e-20)
(0.503981 -0.00183846 -2.05835e-20)
(0.504309 -0.00142596 4.10891e-20)
(0.504579 -0.00107354 -2.63309e-23)
(0.504798 -0.000774624 4.08817e-20)
(0.504971 -0.000523143 4.07368e-20)
(0.505105 -0.000313528 8.12452e-20)
(0.505205 -0.000140696 -4.04858e-20)
(0.505276 -2.8583e-08 0)
(0.505321 0.000112646 -4.02243e-20)
(0.505344 0.000201082 -4.00901e-20)
(0.505349 0.00026864 -3.99658e-20)
(0.505339 0.00031832 -1.06651e-23)
(0.505316 0.000352787 0)
(0.505282 0.000374398 0)
(0.505241 0.000385233 0)
(0.505193 0.000387116 0)
(0.505141 0.000381646 0)
(0.505085 0.000370214 0)
(0.505026 0.000354026 -7.76171e-20)
(0.504966 0.000334125 0)
(0.504906 0.000311409 -7.70159e-20)
(0.504846 0.000286646 0)
(0.504787 0.000260494 -7.6406e-20)
(0.50473 0.00023351 0)
(0.504674 0.00020617 3.78928e-20)
(0.50462 0.000178876 0)
(0.504568 0.00015197 -3.75803e-20)
(0.504519 0.000125745 0)
(0.504472 0.000100453 -7.45302e-20)
(0.504428 7.63141e-05 0)
(0.504386 5.35323e-05 -3.69468e-20)
(0.456963 -0.0548578 -1.9748e-20)
(0.461415 -0.0505411 1.98221e-20)
(0.465601 -0.0464063 0)
(0.469523 -0.0424611 0)
(0.473186 -0.0387118 2.00102e-20)
(0.476596 -0.0351635 0)
(0.479758 -0.0318193 -4.01549e-20)
(0.482682 -0.0286809 0)
(0.485374 -0.0257484 0)
(0.487844 -0.0230202 0)
(0.490101 -0.0204933 -2.01834e-20)
(0.492157 -0.0181631 0)
(0.49402 -0.016024 0)
(0.495703 -0.0140689 6.07036e-20)
(0.497215 -0.01229 0)
(0.498569 -0.0106788 0)
(0.499775 -0.00922594 0)
(0.500844 -0.0079218 -6.06098e-20)
(0.501787 -0.00675648 -2.02003e-20)
(0.502614 -0.00571999 0)
(0.503335 -0.00480242 -4.02765e-20)
(0.50396 -0.00399405 -4.0145e-20)
(0.504497 -0.00328544 8.01451e-20)
(0.504956 -0.0026675 -3.99568e-20)
(0.505344 -0.00213161 3.98879e-20)
(0.505669 -0.00166958 -2.95263e-23)
(0.505938 -0.00127376 -3.96676e-20)
(0.506157 -0.000937016 0)
(0.506332 -0.000652732 -3.94336e-20)
(0.506468 -0.000414838 -3.9312e-20)
(0.506571 -0.000217779 3.91879e-20)
(0.506645 -5.64979e-05 0)
(0.506693 7.35814e-05 1.52255e-23)
(0.50672 0.000176584 7.75892e-20)
(0.506729 0.000256211 0)
(0.506723 0.000315771 -3.85341e-20)
(0.506703 0.000358206 0)
(0.506674 0.000386127 0)
(0.506636 0.000401839 0)
(0.506591 0.000407369 0)
(0.506541 0.000404494 0)
(0.506488 0.000394765 0)
(0.506431 0.000379532 3.75506e-20)
(0.506374 0.00035996 0)
(0.506315 0.000337058 3.72584e-20)
(0.506256 0.000311691 -3.71069e-20)
(0.506198 0.000284597 3.69619e-20)
(0.506141 0.00025641 0)
(0.506085 0.000227665 -3.66614e-20)
(0.506031 0.000198821 0)
(0.505979 0.000170265 2.17234e-24)
(0.50593 0.000142331 0)
(0.505882 0.000115305 1.75717e-24)
(0.505837 8.94374e-05 0)
(0.505794 6.49562e-05 0)
(0.461221 -0.0591538 1.91314e-20)
(0.465338 -0.0545543 0)
(0.469216 -0.0501436 0)
(0.472856 -0.0459303 -1.93349e-20)
(0.476262 -0.0419216 0)
(0.479438 -0.0381231 0)
(0.48239 -0.0345388 1.95458e-20)
(0.485123 -0.0311711 1.95293e-20)
(0.487644 -0.0280203 0)
(0.489962 -0.0250853 0)
(0.492085 -0.0223632 1.96618e-20)
(0.494021 -0.0198498 -3.92686e-20)
(0.495779 -0.0175393 0)
(0.49737 -0.0154247 -3.93811e-20)
(0.498803 -0.013498 0)
(0.500089 -0.0117504 0)
(0.501236 -0.0101722 -3.92815e-20)
(0.502255 -0.00875347 3.931e-20)
(0.503155 -0.00748384 3.92152e-20)
(0.503947 -0.00635283 0)
(0.504639 -0.00534998 0)
(0.50524 -0.00446499 3.90629e-20)
(0.505758 -0.00368785 -3.89705e-20)
(0.506201 -0.0030089 3.88736e-20)
(0.506577 -0.0024189 -3.87396e-20)
(0.506893 -0.00190913 -3.86673e-20)
(0.507155 -0.00147138 -3.8531e-20)
(0.50737 -0.00109798 -3.84213e-20)
(0.507542 -0.000781836 0)
(0.507677 -0.000516391 3.81925e-20)
(0.507779 -0.000295652 3.80739e-20)
(0.507853 -0.000114154 0)
(0.507903 3.30606e-05 3.78449e-20)
(0.507931 0.000150467 -1.43217e-23)
(0.507942 0.000242088 3.75757e-20)
(0.507938 0.000311522 0)
(0.507921 0.000361979 0)
(0.507894 0.000396308 0)
(0.507858 0.000417029 0)
(0.507816 0.000426363 0)
(0.507768 0.00042626 0)
(0.507716 0.000418425 -3.66347e-20)
(0.507662 0.000404343 0)
(0.507605 0.0003853 -3.63533e-20)
(0.507548 0.000362412 0)
(0.50749 0.000336635 3.60711e-20)
(0.507433 0.000308791 0)
(0.507376 0.000279582 0)
(0.50732 0.000249607 -3.56297e-20)
(0.507266 0.000219375 0)
(0.507214 0.000189322 7.06683e-20)
(0.507164 0.000159819 0)
(0.507115 0.000131186 3.50345e-20)
(0.507069 0.000103702 0)
(0.507025 7.76198e-05 0)
(0.506984 5.31942e-05 0)
(0.465799 -0.0631055 -7.40474e-23)
(0.469551 -0.0582526 0)
(0.473092 -0.0535938 0)
(0.476423 -0.0491387 1.89492e-20)
(0.479545 -0.0448953 0)
(0.482462 -0.0408699 0)
(0.485177 -0.0370673 3.80566e-20)
(0.487696 -0.0334903 1.90133e-20)
(0.490024 -0.0301399 0)
(0.492168 -0.0270154 0)
(0.494135 -0.0241141 0)
(0.495931 -0.0214319 3.84095e-20)
(0.497567 -0.0189633 0)
(0.499049 -0.0167011 0)
(0.500386 -0.0146374 0)
(0.501588 -0.012763 0)
(0.502663 -0.0110681 7.67282e-20)
(0.503619 -0.00954242 -3.83058e-20)
(0.504466 -0.0081752 -5.30017e-23)
(0.505212 -0.00695553 3.82234e-20)
(0.505864 -0.00587251 0)
(0.506433 -0.00491534 -3.80795e-20)
(0.506923 -0.00407349 0)
(0.507344 -0.00333678 3.78999e-20)
(0.507702 -0.00269547 3.7837e-20)
(0.508003 -0.00214031 0)
(0.508253 -0.00166259 3.76281e-20)
(0.508459 -0.00125418 7.50115e-20)
(0.508624 -0.000907515 0)
(0.508754 -0.000615612 -3.72911e-20)
(0.508853 -0.00037207 -7.43272e-20)
(0.508924 -0.000171042 0)
(0.508973 -7.21857e-06 0)
(0.509001 0.000124201 -7.35993e-20)
(0.509012 0.000227538 -1.34425e-23)
(0.509009 0.000306665 0)
(0.508993 0.000365041 0)
(0.508967 0.000405738 0)
(0.508933 0.000431483 -3.6151e-20)
(0.508892 0.000444677 0)
(0.508845 0.000447433 0)
(0.508795 0.000441604 7.15021e-20)
(0.508742 0.000428803 3.56107e-20)
(0.508686 0.000410433 3.54776e-20)
(0.50863 0.000387708 0)
(0.508573 0.000361677 0)
(0.508516 0.000333237 -3.50503e-20)
(0.508459 0.000303161 0)
(0.508404 0.000272104 -3.47605e-20)
(0.508349 0.000240629 0)
(0.508297 0.000209214 -3.44751e-20)
(0.508246 0.000178268 0)
(0.508197 0.000148143 -6.8356e-20)
(0.50815 0.000119145 -6.80588e-20)
(0.508104 9.15519e-05 6.77605e-20)
(0.508061 6.56355e-05 0)
(0.474021 -0.0616106 3.68052e-20)
(0.477201 -0.0567325 0)
(0.480198 -0.0520627 0)
(0.483013 -0.0476102 -3.71275e-20)
(0.485648 -0.0433821 0)
(0.488105 -0.0393839 -3.74023e-20)
(0.490389 -0.0356189 -3.74657e-20)
(0.492504 -0.0320886 0)
(0.494455 -0.0287928 -3.74707e-20)
(0.496247 -0.0257292 0)
(0.497888 -0.0228939 0)
(0.499384 -0.0202814 3.75583e-20)
(0.500742 -0.0178847 0)
(0.501969 -0.0156956 0)
(0.503074 -0.0137051 0)
(0.504063 -0.0119031 -6.08484e-23)
(0.504946 -0.010279 3.75672e-20)
(0.505728 -0.00882182 -3.75268e-20)
(0.506418 -0.00752021 -3.74783e-20)
(0.507024 -0.00636292 0)
(0.507551 -0.00533873 7.46153e-20)
(0.508007 -0.00443666 -3.71997e-20)
(0.508399 -0.00364608 -3.71454e-20)
(0.508733 -0.0029568 3.70141e-20)
(0.509014 -0.00235911 0)
(0.509248 -0.00184386 -3.68137e-20)
(0.50944 -0.0014025 -3.67349e-20)
(0.509595 -0.00102704 -3.66005e-20)
(0.509716 -0.00071011 0)
(0.509809 -0.000444944 3.63962e-20)
(0.509876 -0.000225345 0)
(0.509921 -4.56827e-05 0)
(0.509947 9.91439e-05 7.20584e-20)
(0.509957 0.000213731 -3.59131e-20)
(0.509953 0.000302202 0)
(0.509937 0.000368247 0)
(0.509911 0.000415147 0)
(0.509877 0.000445817 3.5402e-20)
(0.509837 0.000462829 0)
(0.509791 0.000468449 0)
(0.509742 0.000464665 -3.50036e-20)
(0.509689 0.000453213 -3.48683e-20)
(0.509635 0.000435605 -6.94525e-20)
(0.509579 0.00041315 6.91783e-20)
(0.509522 0.00038698 -6.89018e-20)
(0.509466 0.000358068 3.43155e-20)
(0.509409 0.00032725 0)
(0.509354 0.000295239 6.80653e-20)
(0.509299 0.000262645 0)
(0.509246 0.000229987 0)
(0.509195 0.00019771 0)
(0.509145 0.000166197 6.69108e-20)
(0.509097 0.00013578 1.33232e-19)
(0.509051 0.000106758 -6.63237e-20)
(0.509007 7.94204e-05 -6.60255e-20)
(0.478705 -0.0646072 -3.64905e-20)
(0.481505 -0.059539 0)
(0.484149 -0.0546824 0)
(0.486638 -0.0500471 3.67713e-20)
(0.488972 -0.0456412 0)
(0.491154 -0.0414707 0)
(0.493185 -0.0375396 3.68681e-20)
(0.495069 -0.0338501 0)
(0.49681 -0.0304022 3.70566e-20)
(0.498413 -0.0271941 3.6999e-20)
(0.499883 -0.0242221 0)
(0.501225 -0.0214808 -3.71174e-20)
(0.502445 -0.0189634 0)
(0.503551 -0.0166618 0)
(0.504547 -0.0145666 0)
(0.50544 -0.0126679 -7.40803e-20)
(0.506238 -0.0109547 -3.69801e-20)
(0.506947 -0.00941583 0)
(0.507573 -0.00803972 0)
(0.508123 -0.00681474 0)
(0.508603 -0.00572932 -4.32134e-23)
(0.509018 -0.00477212 7.33688e-20)
(0.509375 -0.00393211 -3.65731e-20)
(0.50968 -0.00319871 -3.65124e-20)
(0.509936 -0.00256183 -3.63796e-20)
(0.510149 -0.00201192 7.25847e-20)
(0.510324 -0.00154004 3.61728e-20)
(0.510465 -0.00113786 3.60896e-20)
(0.510576 -0.000797657 0)
(0.510659 -0.000512328 0)
(0.51072 -0.000275369 0)
(0.51076 -8.08605e-05 0)
(0.510782 7.6568e-05 -7.09919e-20)
(0.510789 0.000201761 -3.53662e-20)
(0.510783 0.000299072 -3.52426e-20)
(0.510765 0.000372399 0)
(0.510739 0.000425215 0)
(0.510705 0.000460606 0)
(0.510665 0.000481301 0)
(0.51062 0.000489708 0)
(0.510571 0.00048794 0)
(0.510519 0.000477846 0)
(0.510465 0.000461037 6.84038e-20)
(0.510409 0.000438913 -6.81287e-20)
(0.510353 0.000412684 6.78513e-20)
(0.510297 0.000383392 0)
(0.510241 0.000351932 0)
(0.510185 0.000319071 0)
(0.510131 0.000285462 6.67138e-20)
(0.510078 0.000251666 0)
(0.510026 0.00021816 0)
(0.509975 0.000185354 0)
(0.509926 0.000153604 -6.55564e-20)
(0.509879 0.000123229 0)
(0.509834 9.45329e-05 1.29928e-19)
(0.483666 -0.067281 0)
(0.48606 -0.0620486 3.50795e-20)
(0.488327 -0.0570297 -3.51768e-20)
(0.490467 -0.0522348 0)
(0.492478 -0.0476729 0)
(0.494362 -0.0433507 -3.54176e-20)
(0.49612 -0.039273 -1.02175e-22)
(0.497754 -0.0354423 0)
(0.499267 -0.0318593 -3.5583e-20)
(0.500663 -0.0285224 -3.5709e-20)
(0.501945 -0.0254282 3.56511e-20)
(0.503118 -0.0225716 0)
(0.504186 -0.0199459 -3.56853e-20)
(0.505155 -0.0175429 0)
(0.50603 -0.0153534 -3.5686e-20)
(0.506817 -0.0133672 3.57362e-20)
(0.50752 -0.0115733 3.57127e-20)
(0.508145 -0.00996035 0)
(0.508698 -0.00851645 0)
(0.509184 -0.00722975 0)
(0.509609 -0.0060884 -3.55124e-20)
(0.509977 -0.00508071 -7.08284e-20)
(0.510293 -0.00419536 7.06691e-20)
(0.510563 -0.0034214 0)
(0.51079 -0.0027484 3.51814e-20)
(0.510978 -0.00216649 -7.01516e-20)
(0.511133 -0.00166639 -2.76703e-23)
(0.511256 -0.00123944 3.48758e-20)
(0.511353 -0.000877617 -3.47794e-20)
(0.511425 -0.000573519 3.46804e-20)
(0.511476 -0.000320369 0)
(0.511509 -0.000111983 0)
(0.511526 5.72518e-05 3.43863e-20)
(0.511528 0.000192405 3.42773e-20)
(0.511519 0.000298037 3.41665e-20)
(0.5115 0.000378238 0)
(0.511472 0.000436654 0)
(0.511437 0.00047653 0)
(0.511396 0.000500739 0)
(0.511351 0.000511819 0)
(0.511302 0.000511998 0)
(0.51125 0.00050323 6.6682e-20)
(0.511196 0.00048722 -6.64382e-20)
(0.511141 0.000465449 -6.61919e-20)
(0.511085 0.000439202 6.59429e-20)
(0.511029 0.000409584 0)
(0.510973 0.000377546 0)
(0.510918 0.000343905 0)
(0.510863 0.000309357 -6.49291e-20)
(0.510809 0.000274497 -6.4662e-20)
(0.510757 0.000239833 0)
(0.510706 0.000205802 6.41338e-20)
(0.510656 0.000172782 0)
(0.510608 0.000141108 0)
(0.510562 0.000111095 -1.2666e-19)
(0.48868 -0.0695026 0)
(0.490664 -0.0641401 -3.58122e-20)
(0.492548 -0.0589911 7.16501e-20)
(0.494332 -0.0540677 -3.58344e-20)
(0.496013 -0.0493793 -3.58933e-20)
(0.497592 -0.0449335 3.60454e-20)
(0.499069 -0.0407356 -3.60833e-20)
(0.500445 -0.0367888 0)
(0.501723 -0.0330941 8.7855e-23)
(0.502903 -0.0296504 3.60651e-20)
(0.50399 -0.0264545 -3.61543e-20)
(0.504987 -0.0235016 3.60767e-20)
(0.505896 -0.0207851 3.61413e-20)
(0.506722 -0.0182969 3.60557e-20)
(0.507469 -0.0160278 6.32274e-23)
(0.508142 -0.0139676 0)
(0.508744 -0.0121053 0)
(0.50928 -0.0104292 3.59191e-20)
(0.509755 -0.00892748 0)
(0.510172 -0.00758795 -3.57916e-20)
(0.510537 -0.00639858 3.57022e-20)
(0.510854 -0.00534743 3.5649e-20)
(0.511125 -0.00442292 -3.68541e-23)
(0.511357 -0.00361385 0)
(0.511551 -0.0029095 0)
(0.511712 -0.00229973 3.52354e-20)
(0.511843 -0.00177499 -2.69306e-23)
(0.511948 -0.00132636 -3.50128e-20)
(0.512028 -0.000945553 3.4898e-20)
(0.512088 -0.000624937 -3.47812e-20)
(0.512128 -0.000357497 0)
(0.512153 -0.000136829 0)
(0.512162 4.28813e-05 0)
(0.51216 0.000186896 0)
(0.512147 0.000299955 0)
(0.512125 0.000386307 0)
(0.512095 0.00044975 0)
(0.512059 0.000493665 0)
(0.512018 0.000521051 0)
(0.511972 0.000534556 0)
(0.511923 0.000536512 -6.67633e-20)
(0.511872 0.000528963 -6.65095e-20)
(0.511818 0.000513697 1.32465e-19)
(0.511764 0.000492267 1.31921e-19)
(0.511708 0.000466021 -6.56913e-20)
(0.511653 0.000436123 -6.54059e-20)
(0.511597 0.000403575 0)
(0.511542 0.000369234 0)
(0.511488 0.000333835 0)
(0.511434 0.000298005 1.28575e-19)
(0.511382 0.00026228 0)
(0.51133 0.000227118 -6.3718e-20)
(0.511281 0.000192917 0)
(0.511232 0.000160025 0)
(0.511186 0.000128767 6.28509e-20)
(0.495007 -0.0657487 -3.58385e-20)
(0.496531 -0.0605051 -3.60015e-20)
(0.497978 -0.055487 7.19828e-20)
(0.499347 -0.0507049 7.2055e-20)
(0.500636 -0.0461668 3.60083e-20)
(0.501845 -0.0418785 3.60311e-20)
(0.502975 -0.0378439 -3.60463e-20)
(0.504026 -0.0340643 3.61365e-20)
(0.505 -0.0305389 -3.61325e-20)
(0.505899 -0.027265 0)
(0.506724 -0.0242378 -3.61015e-20)
(0.507479 -0.0214509 0)
(0.508166 -0.0188965 -3.60403e-20)
(0.508788 -0.0165652 3.59985e-20)
(0.509349 -0.0144471 0)
(0.509852 -0.0125308 0)
(0.5103 -0.0108049 -3.58304e-20)
(0.510697 -0.00925726 0)
(0.511047 -0.00787568 7.12985e-20)
(0.511352 -0.00664793 -4.07001e-23)
(0.511617 -0.00556194 0)
(0.511844 -0.00460592 -3.53452e-20)
(0.512036 -0.00376847 0)