/*--------------------------------*- C++ -*----------------------------------*\
  =========                 |
  \\      /  F ield         | OpenFOAM: The Open Source CFD Toolbox
   \\    /   O peration     | Website:  https://openfoam.org
    \\  /    A nd           | Version:  6
     \\/     M anipulation  |
\*---------------------------------------------------------------------------*/
FoamFile
{
    version     2.0;
    format      ascii;
    class       volScalarField;
    location    "0.09";
    object      epsilon;
}
// * * * * * * * * * * * * * * * * * * * * * * * * * * * * * * * * * * * * * //

dimensions      [0 2 -3 0 0 0 0];

internalField   nonuniform List<scalar> 
3032
(
4.96095
5.00214
5.03179
5.04966
5.0556
5.04962
5.03185
5.00254
4.96209
4.91102
4.85003
4.78006
4.70247
4.61946
4.53481
4.45461
4.38447
4.32246
4.25903
4.19215
4.12164
4.04778
3.97097
3.89166
3.81028
3.72728
3.64308
3.55807
3.47265
3.38718
3.302
3.21746
3.13385
3.05148
2.97061
2.8915
2.81437
2.73945
2.66692
2.59694
2.52965
2.46518
2.4036
2.34501
2.28942
2.23688
2.18736
2.14086
2.09732
2.22516
2.24012
2.25104
2.25778
2.26026
2.25845
2.25235
2.24206
2.22771
2.20949
2.1877
2.16267
2.13487
2.1049
2.07344
2.04122
2.00864
1.97631
1.9431
1.90868
1.87307
1.83643
1.79892
1.76073
1.72204
1.68304
1.64388
1.60472
1.56572
1.52701
1.48872
1.45098
1.41389
1.37757
1.34211
1.3076
1.27412
1.24173
1.2105
1.18048
1.15171
1.12422
1.09805
1.0732
1.04969
1.0275
1.00663
0.987054
0.968751
1.80061
1.81437
1.82507
1.83257
1.83674
1.83753
1.83491
1.82893
1.81965
1.80723
1.79183
1.77368
1.75305
1.73022
1.70549
1.67911
1.65166
1.62346
1.59433
1.56428
1.5334
1.50184
1.46975
1.43729
1.40461
1.37184
1.33912
1.30658
1.27432
1.24245
1.21107
1.18026
1.15011
1.12068
1.09204
1.06426
1.03738
1.01146
0.986522
0.962608
0.939742
0.917941
0.897218
0.877579
0.859021
0.841536
0.825113
0.80973
0.795366
1.67827
1.6931
1.70508
1.71403
1.71979
1.7223
1.72151
1.71744
1.71015
1.69975
1.6864
1.67027
1.65159
1.63056
1.60743
1.5825
1.55639
1.52917
1.50095
1.47185
1.44202
1.41163
1.38082
1.34975
1.31857
1.2874
1.25636
1.22557
1.19513
1.16512
1.13564
1.10675
1.07853
1.05103
1.02431
0.998425
0.973412
0.949309
0.926149
0.903956
0.882751
0.862548
0.843355
0.825175
0.808004
0.791835
0.776653
0.762442
0.74918
1.64263
1.65885
1.67219
1.68243
1.68943
1.69309
1.69335
1.69023
1.68379
1.67413
1.66142
1.64584
1.62759
1.6069
1.584
1.5595
1.5336
1.50647
1.4783
1.44927
1.41956
1.38934
1.35877
1.328
1.29718
1.26643
1.23586
1.20558
1.17569
1.14627
1.11738
1.08911
1.06151
1.03464
1.00854
0.983262
0.958842
0.935314
0.912705
0.891038
0.870332
0.8506
0.831849
0.814083
0.797298
0.781487
0.76664
0.752739
0.739768
1.64089
1.65849
1.67307
1.68441
1.69233
1.69673
1.69757
1.69485
1.68865
1.6791
1.66636
1.65064
1.63217
1.61119
1.58823
1.56355
1.53738
1.50996
1.48149
1.4522
1.42226
1.39187
1.36119
1.33036
1.29953
1.26882
1.23834
1.20819
1.17844
1.14919
1.1205
1.09243
1.06503
1.03836
1.01246
0.987371
0.963123
0.939751
0.91728
0.895732
0.875125
0.855472
0.836782
0.819059
0.802302
0.786505
0.77166
0.757754
0.744775
1.65387
1.67275
1.68842
1.70062
1.70919
1.71401
1.71504
1.71233
1.70596
1.69609
1.6829
1.66663
1.64761
1.62624
1.60283
1.57765
1.55099
1.52308
1.49416
1.46447
1.43419
1.40351
1.37261
1.34163
1.3107
1.27993
1.24945
1.21932
1.18964
1.16046
1.13187
1.1039
1.0766
1.05003
1.02422
0.999205
0.975017
0.951685
0.929234
0.907686
0.887057
0.867363
0.848613
0.830813
0.813965
0.798065
0.783107
0.769081
0.755975
0.74378
1.67306
1.69307
1.7096
1.72242
1.73133
1.73625
1.73715
1.73409
1.7272
1.71667
1.70271
1.68574
1.66608
1.64404
1.61995
1.59412
1.56682
1.53834
1.50892
1.47878
1.44814
1.41718
1.38607
1.35494
1.32394
1.29316
1.2627
1.23264
1.20306
1.17401
1.14554
1.11772
1.09056
1.06413
1.03844
1.01352
0.989419
0.966146
0.94373
0.92219
0.901546
0.881812
0.862999
0.845116
0.828167
0.812151
0.797064
0.782901
0.769651
0.757311
1.69425
1.71515
1.73229
1.74541
1.75434
1.75901
1.75942
1.75568
1.74794
1.73653
1.72173
1.7039
1.68337
1.66049
1.63559
1.60901
1.58104
1.55195
1.52202
1.49147
1.46051
1.42933
1.39807
1.36689
1.33589
1.30519
1.27486
1.24497
1.21559
1.18677
1.15855
1.13097
1.10406
1.07785
1.05238
1.02766
1.00373
0.980597
0.958293
0.936836
0.916243
0.89653
0.87771
0.859795
0.842789
0.826696
0.811516
0.797245
0.783876
0.771401
0.759815
1.71531
1.73676
1.75413
1.76715
1.77569
1.77972
1.77928
1.77456
1.76582
1.75335
1.73751
1.71864
1.69712
1.6733
1.64755
1.62019
1.59154
1.56189
1.53151
1.50062
1.46942
1.4381
1.40682
1.37569
1.34482
1.31432
1.28424
1.25466
1.22562
1.19716
1.16931
1.14211
1.11557
1.08973
1.0646
1.0402
1.01655
0.993676
0.971592
0.950318
0.929872
0.910271
0.89153
0.87366
0.856671
0.840569
0.825357
0.811034
0.797598
0.785043
0.773364
1.73525
1.75671
1.77379
1.78616
1.7938
1.79675
1.79516
1.78923
1.77925
1.76557
1.74853
1.72852
1.70594
1.68116
1.65456
1.62646
1.59721
1.56708
1.53634
1.50522
1.47391
1.44259
1.4114
1.38046
1.34987
1.31971
1.29003
1.2609
1.23234
1.20438
1.17705
1.15036
1.12434
1.09899
1.07434
1.05038
1.02715
1.00465
0.982907
0.96193
0.94174
0.922354
0.903787
0.886054
0.869168
0.853136
0.837966
0.823661
0.810221
0.797647
0.785938
1.75368
1.77429
1.79023
1.80134
1.80761
1.80911
1.80603
1.79863
1.78721
1.77214
1.75382
1.73264
1.70901
1.68332
1.65594
1.62722
1.59748
1.567
1.53605
1.50484
1.47358
1.44241
1.41147
1.38087
1.3507
1.32103
1.2919
1.26335
1.23541
1.2081
1.18142
1.15539
1.13001
1.1053
1.08124
1.05786
1.03517
1.01317
0.991879
0.971313
0.951487
0.93242
0.914128
0.896627
0.879932
0.864056
0.849006
0.834792
0.821418
0.808888
0.797212
1.77026
1.78912
1.80317
1.81232
1.8166
1.81616
1.8112
1.80203
1.78899
1.77245
1.75282
1.73051
1.70591
1.67943
1.65142
1.62224
1.59219
1.56155
1.53057
1.49946
1.4684
1.43755
1.40702
1.37692
1.34733
1.31828
1.28983
1.26201
1.23482
1.20828
1.18238
1.15713
1.13252
1.10855
1.08522
1.06253
1.04049
1.0191
0.998372
0.978322
0.958965
0.940317
0.922395
0.905218
0.888802
0.873163
0.858313
0.844263
0.831022
0.818601
0.807017
1.78565
1.80151
1.81257
1.81884
1.82041
1.81746
1.81024
1.79905
1.78424
1.7662
1.74531
1.72198
1.69658
1.66949
1.64107
1.61164
1.5815
1.55092
1.52011
1.4893
1.45864
1.42828
1.39833
1.36887
1.33998
1.3117
1.28406
1.25707
1.23075
1.20508
1.18007
1.15569
1.13195
1.10883
1.08633
1.06443
1.04314
1.02246
1.00239
0.982954
0.964158
0.946019
0.928556
0.911787
0.895732
0.880408
0.865831
0.852015
0.838972
0.826715
0.815254
0.804609
1.80032
1.81163
1.81844
1.82081
1.81889
1.81288
1.80303
1.78963
1.77301
1.75351
1.7315
1.70732
1.68134
1.6539
1.62531
1.59589
1.5659
1.53559
1.50518
1.47486
1.44478
1.41507
1.38583
1.35716
1.32909
1.30168
1.27494
1.24888
1.2235
1.1988
1.17475
1.15134
1.12854
1.10635
1.08475
1.06372
1.04326
1.02336
1.00404
0.985294
0.967137
0.949586
0.932658
0.916374
0.900752
0.885814
0.871578
0.858061
0.845278
0.833245
0.821977
0.811489
1.81465
1.81967
1.82082
1.81824
1.81208
1.8025
1.78974
1.77401
1.75558
1.73473
1.71175
1.68695
1.66063
1.63308
1.60458
1.57541
1.54581
1.51599
1.48617
1.45652
1.42717
1.39825
1.36987
1.34208
1.31494
1.28848
1.26273
1.23768
1.21332
1.18965
1.16663
1.14425
1.12247
1.10128
1.08064
1.06056
1.041
1.02197
1.00346
0.985487
0.968048
0.951162
0.934846
0.91912
0.904005
0.889524
0.875697
0.862544
0.850084
0.838335
0.827319
0.817061
1.82812
1.82524
1.81956
1.81121
1.80027
1.78685
1.77106
1.75302
1.73291
1.71089
1.68719
1.66201
1.6356
1.6082
1.58004
1.55134
1.52233
1.49319
1.46412
1.43527
1.40678
1.37876
1.35129
1.32445
1.29829
1.27284
1.2481
1.22408
1.20077
1.17814
1.15617
1.13483
1.11409
1.09392
1.07428
1.05517
1.03655
1.01841
1.00076
0.983596
0.966919
0.950743
0.935086
0.919967
0.905409
0.891434
0.878065
0.865325
0.853236
0.841818
0.831099
0.82112
1.83854
1.82759
1.81516
1.80125
1.78585
1.76893
1.75046
1.73045
1.70895
1.68604
1.66184
1.63648
1.61015
1.58303
1.55529
1.52714
1.49877
1.47034
1.44202
1.41396
1.38629
1.35911
1.33251
1.30656
1.2813
1.25676
1.23295
1.20987
1.1875
1.16583
1.14482
1.12443
1.10464
1.08541
1.0667
1.04849
1.03074
1.01346
0.996624
0.980232
0.964288
0.948803
0.933791
0.919272
0.905268
0.891802
0.878899
0.866582
0.854876
0.843803
0.833389
0.823662
0.814684
1.84492
1.82672
1.80834
1.78966
1.77048
1.75063
1.72996
1.70835
1.68575
1.66216
1.6376
1.61216
1.58596
1.55912
1.5318
1.50416
1.47637
1.44858
1.42094
1.39358
1.36664
1.3402
1.31436
1.28917
1.2647
1.24095
1.21795
1.19569
1.17416
1.15333
1.13317
1.11363
1.09469
1.07631
1.05843
1.04104
1.02411
1.00761
0.991527
0.975861
0.96061
0.945781
0.931387
0.917447
0.903981
0.891014
0.87857
0.866675
0.855353
0.844628
0.834526
0.825074
0.816295
0.808218
1.84707
1.82307
1.80003
1.77763
1.75552
1.73341
1.71102
1.68815
1.66468
1.64053
1.61567
1.59015
1.56403
1.53741
1.51041
1.48318
1.45585
1.42857
1.40148
1.3747
1.34835
1.32252
1.29731
1.27277
1.24894
1.22586
1.20355
1.18198
1.16116
1.14105
1.12162
1.10283
1.08463
1.06699
1.04986
1.03321
1.017
1.00121
0.985824
0.970827
0.956219
0.942003
0.928191
0.914799
0.901848
0.889361
0.877363
0.865879
0.854935
0.844556
0.834767
0.825596
0.81707
0.809209
1.84563
1.81754
1.79121
1.76616
1.74195
1.71816
1.69446
1.67061
1.64642
1.62177
1.59661
1.57094
1.54481
1.5183
1.4915
1.46453
1.43753
1.41062
1.38393
1.35758
1.33168
1.30633
1.2816
1.25756
1.23426
1.21172
1.18996
1.16897
1.14873
1.12923
1.11041
1.09225
1.0747
1.05771
1.04123
1.02523
1.00967
0.994522
0.979761
0.965374
0.951355
0.937707
0.924437
0.911559
0.899094
0.887063
0.875491
0.864403
0.853826
0.843785
0.834307
0.825419
0.817152
0.809538
1.84179
1.81116
1.78275
1.75596
1.73029
1.70529
1.6806
1.65594
1.63111
1.60598
1.58048
1.5546
1.52836
1.50183
1.47509
1.44825
1.42143
1.39474
1.36831
1.34226
1.31667
1.29166
1.2673
1.24364
1.22074
1.19862
1.17729
1.15676
1.137
1.11799
1.09969
1.08206
1.06505
1.04862
1.03271
1.01728
1.00229
0.987707
0.973507
0.959672
0.94619
0.933062
0.920292
0.907893
0.895882
0.884281
0.873113
0.862404
0.852179
0.842465
0.833289
0.824681
0.816677
0.809314
1.83683
1.80486
1.77525
1.74739
1.72074
1.69485
1.66937
1.64402
1.6186
1.59298
1.56709
1.54091
1.51447
1.48781
1.46101
1.43417
1.40741
1.38082
1.35453
1.32864
1.30326
1.27847
1.25436
1.23097
1.20836
1.18655
1.16555
1.14538
1.126
1.10739
1.08951
1.07232
1.05577
1.0398
1.02438
1.00944
0.994954
0.980875
0.967175
0.953835
0.94084
0.928185
0.915875
0.903919
0.892331
0.881133
0.870346
0.859995
0.850106
0.840706
0.831823
0.823488
0.815742
0.808629
1.8318
1.79928
1.76907
1.74054
1.7132
1.68662
1.66047
1.6345
1.60851
1.58239
1.55607
1.52954
1.50281
1.47593
1.44898
1.42205
1.39524
1.36865
1.3424
1.31658
1.2913
1.26664
1.24267
1.21946
1.19704
1.17546
1.15471
1.1348
1.11571
1.09741
1.07987
1.06304
1.04687
1.0313
1.01629
1.00178
0.987729
0.974092
0.960836
0.947939
0.935382
0.923159
0.911269
0.89972
0.888525
0.877702
0.867272
0.85726
0.847691
0.83859
0.829988
0.821918
0.814421
0.807553
1.82737
1.79476
1.76426
1.73531
1.70745
1.68029
1.65355
1.62698
1.60043
1.5738
1.54702
1.52009
1.49302
1.46587
1.4387
1.4116
1.38466
1.358
1.3317
1.30588
1.28062
1.25601
1.23211
1.209
1.18671
1.16526
1.14469
1.12497
1.1061
1.08804
1.07077
1.05422
1.03836
1.02313
1.00847
0.994323
0.980647
0.967395
0.954533
0.94203
0.929868
0.918035
0.90653
0.895355
0.884523
0.87405
0.863955
0.854261
0.844994
0.836179
0.827845
0.820028
0.812772
0.806137
1.82388
1.79137
1.76073
1.73147
1.70317
1.6755
1.6482
1.62107
1.59398
1.56683
1.53958
1.51222
1.48478
1.45731
1.42987
1.40255
1.37544
1.34864
1.32224
1.29635
1.27105
1.24643
1.22255
1.19947
1.17724
1.15588
1.1354
1.11582
1.0971
1.07923
1.06216
1.04584
1.03023
1.01527
1.0009
0.98707
0.973719
0.960805
0.948289
0.936138
0.92433
0.912851
0.901695
0.890864
0.880367
0.870219
0.860437
0.851043
0.842061
0.833516
0.825438
0.817862
0.810837
0.804424
1.8214
1.78904
1.75831
1.72877
1.70007
1.67192
1.64409
1.61642
1.58878
1.56112
1.5334
1.50561
1.47778
1.44997
1.42223
1.39466
1.36734
1.34036
1.31383
1.28782
1.26244
1.23776
1.21384
1.19075
1.16853
1.1472
1.12679
1.10728
1.08867
1.07092
1.054
1.03786
1.02246
1.00772
0.993592
0.980021
0.96695
0.95433
0.942118
0.93028
0.918789
0.90763
0.896792
0.886277
0.876089
0.866243
0.856753
0.84764
0.838927
0.830638
0.822803
0.815457
0.80865
0.802445
1.81981
1.78758
1.75674
1.72693
1.69783
1.66919
1.64084
1.61263
1.58447
1.55629
1.52809
1.49985
1.47162
1.44344
1.41539
1.38753
1.35997
1.33278
1.30606
1.2799
1.25439
1.22961
1.20561
1.18247
1.16021
1.13887
1.11846
1.09899
1.08043
1.06277
1.04596
1.02995
1.0147
1.00015
0.986224
0.972879
0.960052
0.947693
0.935755
0.924202
0.913005
0.902143
0.891606
0.881389
0.871498
0.861942
0.852735
0.843896
0.835447
0.827411
0.819816
0.812698
0.806106
0.800103
1.81902
1.78685
1.75587
1.72574
1.69621
1.66708
1.63818
1.60942
1.5807
1.55199
1.52327
1.49456
1.4659
1.43733
1.40892
1.38075
1.3529
1.32546
1.29853
1.27218
1.24651
1.22158
1.19747
1.17422
1.15189
1.1305
1.11006
1.09058
1.07204
1.05442
1.03768
1.02178
1.00665
0.992245
0.978501
0.965355
0.95275
0.940631
0.928951
0.917669
0.906753
0.89618
0.885935
0.876014
0.866416
0.85715
0.848229
0.839667
0.831486
0.823708
0.81636
0.809475
0.803102
0.797302
1.81902
1.78684
1.75562
1.72512
1.69512
1.66544
1.63597
1.60662
1.57732
1.54805
1.5188
1.48959
1.46047
1.43148
1.40269
1.37417
1.34602
1.3183
1.29112
1.26456
1.23869
1.21359
1.18933
1.16596
1.14352
1.12205
1.10155
1.08204
1.06349
1.04589
1.0292
1.01336
0.998339
0.984063
0.970474
0.957509
0.945108
0.933214
0.921777
0.910753
0.900109
0.889816
0.879859
0.870228
0.860922
0.851945
0.843308
0.835025
0.827115
0.819597
0.812498
0.80585
0.799699
0.794104
1.81984
1.78752
1.75598
1.72503
1.69449
1.66423
1.63415
1.60417
1.57426
1.54441
1.5146
1.48488
1.45527
1.42584
1.39664
1.36776
1.33927
1.31126
1.28381
1.257
1.23091
1.20562
1.18118
1.15766
1.13509
1.11351
1.09294
1.07336
1.05478
1.03718
1.0205
1.00472
0.989772
0.975602
0.962147
0.949343
0.937128
0.925443
0.914235
0.903458
0.893073
0.883053
0.873376
0.864029
0.85501
0.84632
0.837967
0.829963
0.822324
0.815069
0.808223
0.801815
0.795888
0.790499
1.82143
1.78883
1.75687
1.72539
1.69425
1.66335
1.63262
1.60199
1.57145
1.54099
1.51061
1.48034
1.45024
1.42035
1.39073
1.36146
1.33262
1.30429
1.27655
1.24948
1.22315
1.19764
1.17301
1.14931
1.12659
1.10488
1.0842
1.06454
1.04591
1.02827
1.01159
0.995835
0.980945
0.966861
0.95352
0.940858
0.928811
0.917318
0.906323
0.895779
0.885644
0.875885
0.86648
0.857412
0.848675
0.840269
0.832198
0.824472
0.817105
0.810115
0.803523
0.797357
0.791657
0.786477
1.82369
1.79066
1.75817
1.72608
1.69428
1.6627
1.63127
1.59997
1.56877
1.53768
1.50672
1.4759
1.44528
1.41492
1.38487
1.3552
1.326
1.29733
1.26929
1.24193
1.21535
1.1896
1.16476
1.14087
1.11799
1.09613
1.07531
1.05556
1.03684
1.01915
1.00245
0.986703
0.971848
0.957829
0.944583
0.932044
0.920147
0.90883
0.898035
0.88771
0.877812
0.868305
0.859162
0.850366
0.841906
0.833779
0.825988
0.818539
0.811445
0.80472
0.798383
0.792461
0.78699
0.78202
1.82645
1.79287
1.75973
1.72695
1.69443
1.66212
1.62998
1.59798
1.56611
1.53438
1.50281
1.47144
1.4403
1.40946
1.37897
1.3489
1.31932
1.29031
1.26195
1.2343
1.20745
1.18146
1.15639
1.1323
1.10923
1.0872
1.06625
1.04637
1.02756
1.0098
0.993062
0.977299
0.962461
0.948489
0.935319
0.922886
0.911123
0.899966
0.889355
0.879236
0.869562
0.860296
0.851408
0.842876
0.834687
0.826835
0.81932
0.812146
0.805323
0.798863
0.792783
0.787106
0.781866
0.777109
1.82951
1.79523
1.76136
1.72782
1.69453
1.66146
1.62857
1.59586
1.56331
1.53093
1.49876
1.46683
1.43517
1.40385
1.37292
1.34244
1.31248
1.28313
1.25444
1.22651
1.19938
1.17314
1.14784
1.12353
1.10026
1.07806
1.05695
1.03694
1.01802
1.00018
0.983383
0.967591
0.952753
0.938811
0.925702
0.913358
0.901713
0.890701
0.88026
0.870333
0.860873
0.851837
0.843194
0.834918
0.826993
0.819411
0.812169
0.805268
0.798715
0.79252
0.786697
0.781267
0.776259
0.771716
1.83258
1.79752
1.76284
1.72847
1.69438
1.66052
1.62687
1.59343
1.5602
1.52718
1.49441
1.46192
1.42975
1.39795
1.36658
1.3357
1.30538
1.27568
1.24667
1.21844
1.19104
1.16454
1.139
1.11448
1.09101
1.06863
1.04736
1.0272
1.00817
0.990231
0.973366
0.957533
0.942682
0.928757
0.915694
0.903426
0.891884
0.881003
0.870718
0.860972
0.851713
0.842898
0.834489
0.826462
0.818796
0.811478
0.804505
0.797874
0.791589
0.785658
0.780093
0.77491
0.770135
0.765807
1.83536
1.79943
1.76388
1.72866
1.69373
1.65908
1.62467
1.5905
1.55659
1.52295
1.48959
1.45655
1.42388
1.39162
1.35982
1.32854
1.29786
1.26782
1.23851
1.20999
1.18232
1.15557
1.1298
1.10506
1.08139
1.05882
1.03739
1.01709
0.997928
0.979891
0.96295
0.947067
0.932193
0.918274
0.905245
0.89304
0.88159
0.870828
0.860688
0.851111
0.842043
0.833438
0.825256
0.817469
0.810055
0.802997
0.796288
0.789924
0.783906
0.778238
0.772929
0.767993
0.763453
0.759341
1.83751
1.80066
1.76421
1.72812
1.69235
1.65689
1.62173
1.58685
1.55228
1.51801
1.48409
1.45052
1.41737
1.38466
1.35245
1.3208
1.28977
1.25941
1.22981
1.20101
1.17308
1.14609
1.1201
1.09515
1.07128
1.04854
1.02694
1.0065
0.987217
0.969077
0.952056
0.936118
0.921217
0.907295
0.894293
0.882142
0.870774
0.860121
0.850117
0.840699
0.831812
0.823408
0.815445
0.807892
0.800723
0.793919
0.787471
0.78137
0.775616
0.77021
0.765157
0.760469
0.756162
0.752268
1.83858
1.80084
1.76353
1.7266
1.69005
1.65384
1.61797
1.58244
1.54726
1.51243
1.47798
1.44394
1.41034
1.37723
1.34465
1.31267
1.28132
1.25068
1.2208
1.19176
1.1636
1.1364
1.1102
1.08506
1.06102
1.03812
1.01637
0.995798
0.976399
0.958163
0.941066
0.925074
0.910141
0.896214
0.883231
0.871125
0.859829
0.849272
0.839388
0.830114
0.821393
0.813174
0.805413
0.798077
0.791136
0.784572
0.778368
0.772517
0.767013
0.761855
0.757046
0.752592
0.74851
0.744821
1.83851
1.79991
1.76176
1.72404
1.68674
1.64982
1.61329
1.57715
1.54139
1.50604
1.47111
1.43663
1.40263
1.36915
1.33623
1.30394
1.27231
1.24141
1.21129
1.18202
1.15366
1.12626
1.09988
1.07456
1.05036
1.02731
1.00543
0.984731
0.965223
0.946894
0.929723
0.913677
0.898711
0.884774
0.871803
0.859734
0.848499
0.838027
0.828252
0.81911
0.810541
0.802493
0.794922
0.787789
0.781066
0.774728
0.768759
0.763147
0.757884
0.752966
0.748393
0.744168
0.740302
0.736813
1.83669
1.79716
1.75814
1.7196
1.68151
1.64387
1.60667
1.5699
1.53357
1.49769
1.46228
1.42736
1.39297
1.35913
1.3259
1.29331
1.26141
1.23027
1.19993
1.17046
1.1419
1.11433
1.08778
1.06232
1.03798
1.01479
0.992789
0.971985
0.952384
0.933977
0.916745
0.900656
0.885668
0.87173
0.858782
0.846759
0.835595
0.825218
0.815562
0.806561
0.798156
0.790292
0.782923
0.77601
0.769519
0.763425
0.757708
0.752353
0.74735
0.742691
0.738373
0.734395
0.730762
0.727487
1.8731
1.83205
1.79157
1.75166
1.71228
1.67341
1.63505
1.59718
1.55979
1.52291
1.48652
1.45066
1.41533
1.38057
1.34641
1.31288
1.28003
1.24791
1.21656
1.18603
1.15639
1.12769
1.09998
1.07331
1.04772
1.02328
0.999994
0.977905
0.957025
0.937359
0.918902
0.901635
0.885528
0.87054
0.856623
0.843717
0.83176
0.820683
0.810419
0.800898
0.792056
0.783832
0.77617
0.769022
0.762346
0.756108
0.750279
0.744835
0.73976
0.73504
0.730663
0.726623
0.722914
0.719537
0.716497
1.86512
1.82308
1.78168
1.74089
1.7007
1.66109
1.62203
1.58354
1.54559
1.50819
1.47135
1.43508
1.39941
1.36434
1.32991
1.29616
1.26312
1.23083
1.19934
1.16871
1.13897
1.11018
1.0824
1.05567
1.03004
1.00555
0.982236
0.960122
0.939226
0.919553
0.901099
0.883847
0.86777
0.852828
0.838973
0.826148
0.814292
0.803338
0.793217
0.783863
0.775209
0.767194
0.759763
0.752864
0.746455
0.740497
0.734961
0.72982
0.725054
0.720645
0.716579
0.712844
0.709433
0.706339
0.703562
1.85058
1.80763
1.76538
1.72381
1.6829
1.64263
1.60298
1.56395
1.52553
1.48772
1.45053
1.41397
1.37805
1.34278
1.3082
1.27433
1.24121
1.20887
1.17736
1.14672
1.117
1.08825
1.06051
1.03384
1.00827
0.983846
0.960603
0.938566
0.917752
0.898166
0.879806
0.862656
0.846688
0.831867
0.818145
0.805467
0.793773
0.782999
0.773076
0.763938
0.75552
0.74776
0.740603
0.733996
0.727894
0.722259
0.717057
0.712258
0.707839
0.70378
0.700062
0.696671
0.693593
0.690818
0.68834
1.82611
1.78241
1.73948
1.69729
1.65582
1.61506
1.57499
1.5356
1.49689
1.45885
1.42148
1.3848
1.3488
1.31352
1.27896
1.24516
1.21213
1.17993
1.14857
1.11811
1.08858
1.06004
1.03252
1.00607
0.980738
0.956551
0.933545
0.911745
0.891166
0.871816
0.85369
0.836775
0.821044
0.806462
0.792984
0.780557
0.769123
0.758618
0.748978
0.740136
0.732029
0.724596
0.717781
0.711532
0.705801
0.70055
0.69574
0.691342
0.687328
0.683673
0.680358
0.677361
0.674667
0.672261
0.670132
1.7865
1.74236
1.69905
1.65654
1.61482
1.57387
1.53368
1.49423
1.45553
1.41755
1.38031
1.3438
1.30803
1.27302
1.23878
1.20532
1.17269
1.14089
1.10998
1.07998
1.05093
1.02287
0.99585
0.969901
0.945065
0.921375
0.898861
0.877544
0.857441
0.838557
0.820887
0.804417
0.789122
0.774968
0.761911
0.749902
0.738884
0.728797
0.719577
0.711162
0.703489
0.6965
0.690139
0.684353
0.679097
0.674327
0.670005
0.666099
0.662576
0.659411
0.656578
0.654054
0.651819
0.649854
0.648144
1.73275
1.68864
1.64542
1.60307
1.56156
1.52088
1.481
1.44193
1.40364
1.36613
1.3294
1.29345
1.25828
1.2239
1.19032
1.15757
1.12565
1.09461
1.06445
1.03523
1.00697
0.979716
0.953496
0.928349
0.904312
0.881415
0.859685
0.839141
0.819796
0.801654
0.78471
0.768948
0.754345
0.740866
0.728471
0.717109
0.706727
0.697267
0.688667
0.680868
0.673808
0.66743
0.661678
0.656501
0.65185
0.647682
0.643958
0.64064
0.637697
0.635098
0.632815
0.630824
0.6291
0.627623
0.626376
1.68212
1.63838
1.59557
1.55366
1.51263
1.47246
1.43314
1.39464
1.35695
1.32008
1.284
1.24873
1.21425
1.18059
1.14775
1.11574
1.08459
1.05431
1.02494
0.996503
0.969034
0.942567
0.917136
0.892775
0.869518
0.847392
0.826422
0.806627
0.788016
0.770594
0.754353
0.739279
0.725347
0.712525
0.700771
0.690039
0.680275
0.671423
0.663423
0.656217
0.649744
0.643947
0.638771
0.634163
0.630075
0.626462
0.623282
0.620497
0.618073
0.615978
0.614181
0.612658
0.611381
0.61033
0.609485
1.63404
1.59091
1.54873
1.50747
1.46711
1.42763
1.389
1.35121
1.31425
1.27811
1.24278
1.20826
1.17455
1.14166
1.10959
1.07836
1.04798
1.01849
0.989897
0.962242
0.935553
0.909862
0.885203
0.861609
0.83911
0.817734
0.797504
0.778438
0.760545
0.743829
0.728282
0.713889
0.700627
0.688464
0.67736
0.667267
0.658135
0.649907
0.642526
0.635931
0.630063
0.624864
0.620278
0.616252
0.612736
0.609682
0.607049
0.604796
0.602887
0.601289
0.59997
0.598904
0.598063
0.597425
0.596971
1.59329
1.55087
1.50939
1.46885
1.4292
1.39043
1.35253
1.31546
1.27921
1.24379
1.20917
1.17536
1.14235
1.11016
1.07878
1.04825
1.01857
0.98976
0.961855
0.934881
0.908868
0.883849
0.859857
0.836926
0.815085
0.794362
0.774781
0.756358
0.739105
0.723023
0.708108
0.694344
0.681709
0.670172
0.659691
0.650223
0.641714
0.634108
0.627347
0.62137
0.616116
0.611525
0.607541
0.604106
0.601171
0.598685
0.596603
0.594886
0.593494
0.592393
0.591551
0.59094
0.590534
0.590308
0.590244
1.56591
1.52409
1.48322
1.44327
1.40421
1.36601
1.32867
1.29215
1.25645
1.22155
1.18746
1.15416
1.12165
1.08996
1.05907
1.02902
0.999808
0.971472
0.944033
0.917522
0.89197
0.867412
0.843881
0.821412
0.800037
0.779784
0.760678
0.742738
0.725976
0.710397
0.695995
0.682758
0.670664
0.65968
0.649767
0.640878
0.632961
0.625956
0.619803
0.61444
0.609801
0.605824
0.602449
0.599617
0.597273
0.595366
0.593849
0.592679
0.591815
0.591222
0.590869
0.590724
0.590763
0.590961
0.591298
1.56058
1.51902
1.4784
1.43867
1.39982
1.36182
1.32465
1.28829
1.25274
1.21798
1.184
1.15081
1.11841
1.08681
1.05601
1.02604
0.996912
0.968655
0.941298
0.914872
0.889412
0.864955
0.841537
0.819197
0.797967
0.777882
0.75897
0.741251
0.724741
0.709447
0.695367
0.682488
0.670789
0.660237
0.650792
0.642404
0.635018
0.628571
0.622997
0.618229
0.614199
0.610838
0.608081
0.605864
0.60413
0.602824
0.601894
0.601296
0.600987
0.600931
0.601094
0.601446
0.601961
0.602614
0.603386
1.59222
1.55017
1.50904
1.46878
1.42939
1.39083
1.35309
1.31614
1.27999
1.24462
1.21003
1.17621
1.14319
1.11096
1.07953
1.04894
1.0192
0.990349
0.96241
0.935421
0.909424
0.884458
0.860568
0.837794
0.81618
0.795761
0.776573
0.758643
0.741989
0.726624
0.712546
0.699746
0.6882
0.677876
0.668728
0.660704
0.653741
0.64777
0.642719
0.638511
0.635072
0.632325
0.630197
0.62862
0.627528
0.626861
0.626566
0.626591
0.626893
0.627432
0.628173
0.629085
0.630141
0.631316
0.63259
1.69225
1.64819
1.60502
1.56273
1.52129
1.48067
1.44087
1.40187
1.36365
1.32623
1.28959
1.25373
1.21868
1.18445
1.15104
1.1185
1.08684
1.0561
1.02633
0.997563
0.96985
0.943241
0.917789
0.893546
0.870563
0.848889
0.828567
0.809632
0.792111
0.776019
0.76136
0.748124
0.736286
0.725808
0.716641
0.70872
0.701974
0.696324
0.691683
0.687965
0.685081
0.682943
0.681467
0.680574
0.680189
0.680244
0.680677
0.681433
0.682461
0.683719
0.685167
0.686773
0.688507
0.690344
0.692262
1.94623
1.89654
1.84777
1.79988
1.75287
1.7067
1.66138
1.61688
1.57321
1.53037
1.48836
1.44719
1.40688
1.36745
1.32894
1.29137
1.25479
1.21924
1.18478
1.15147
1.11937
1.08856
1.0591
1.03106
1.00451
0.979529
0.956165
0.934469
0.914479
0.896217
0.879688
0.86488
0.851764
0.840291
0.830397
0.822002
0.815016
0.809338
0.804861
0.801474
0.799068
0.797533
0.796766
0.796667
0.797146
0.798119
0.79951
0.801252
0.803285
0.805557
0.808023
0.810644
0.813385
0.816217
0.819117
2.69426
2.62664
2.56006
2.49449
2.42992
2.36636
2.30378
2.24221
2.18164
2.1221
2.0636
2.00619
1.94989
1.89475
1.84084
1.78821
1.73694
1.68712
1.63883
1.59218
1.54727
1.50421
1.46313
1.42412
1.38731
1.35279
1.32065
1.29096
1.26377
1.23909
1.21695
1.1973
1.18009
1.16525
1.15267
1.14224
1.1338
1.12722
1.12233
1.11897
1.11698
1.11621
1.11649
1.11769
1.11967
1.12233
1.12553
1.1292
1.13324
1.13758
1.14216
1.14692
1.1518
1.15679
1.16183
6.38086
6.20491
6.03193
5.86197
5.69511
5.53141
5.37096
5.21384
5.06018
4.91008
4.76367
4.62109
4.4825
4.34807
4.21798
4.09242
3.97159
3.85571
3.74498
3.63961
3.53982
3.4458
3.35773
3.27577
3.20003
3.13061
3.06756
3.01087
2.96049
2.91634
2.87825
2.84602
2.81942
2.79814
2.78188
2.77027
2.76295
2.75953
2.75961
2.76282
2.76877
2.77709
2.78745
2.79951
2.81298
2.8276
2.84312
2.85933
2.87605
2.89311
2.91039
2.92776
2.94514
2.96244
2.9796
)
;

boundaryField
{
    inlet
    {
        type            fixedValue;
        value           nonuniform 0();
    }
    outlet
    {
        type            zeroGradient;
    }
    upperWall
    {
        Cmu             0.09;
        kappa           0.41;
        E               9.8;
        type            epsilonWallFunction;
        value           nonuniform List<scalar> 
55
(
6.38086
6.20491
6.03193
5.86197
5.69511
5.53141
5.37096
5.21384
5.06018
4.91008
4.76367
4.62109
4.4825
4.34807
4.21798
4.09242
3.97159
3.85571
3.74498
3.63961
3.53982
3.4458
3.35773
3.27577
3.20003
3.13061
3.06756
3.01087
2.96049
2.91634
2.87825
2.84602
2.81942
2.79814
2.78188
2.77027
2.76295
2.75953
2.75961
2.76282
2.76877
2.77709
2.78745
2.79951
2.81298
2.8276
2.84312
2.85933
2.87605
2.89311
2.91039
2.92776
2.94514
2.96244
2.9796
)
;
    }
    lowerWall
    {
        Cmu             0.09;
        kappa           0.41;
        E               9.8;
        type            epsilonWallFunction;
        value           nonuniform List<scalar> 
49
(
4.96095
5.00214
5.03179
5.04966
5.0556
5.04962
5.03185
5.00254
4.96209
4.91102
4.85003
4.78006
4.70247
4.61946
4.53481
4.45461
4.38447
4.32246
4.25903
4.19215
4.12164
4.04778
3.97097
3.89166
3.81028
3.72728
3.64308
3.55807
3.47265
3.38718
3.302
3.21746
3.13385
3.05148
2.97061
2.8915
2.81437
2.73945
2.66692
2.59694
2.52965
2.46518
2.4036
2.34501
2.28942
2.23688
2.18736
2.14086
2.09732
)
;
    }
    frontAndBack
    {
        type            empty;
    }
    procBoundary3to1
    {
        type            processor;
        value           nonuniform List<scalar> 
62
(
2.05669
0.951688
0.781989
0.736835
0.727694
0.732694
0.732694
0.732432
0.745839
0.745839
0.749026
0.762497
0.775033
0.786327
0.796228
0.796228
0.794642
0.801698
0.807488
0.811844
0.811844
0.806296
0.806296
0.800577
0.801857
0.802433
0.802446
0.801993
0.801142
0.799945
0.798441
0.796659
0.794509
0.791902
0.788899
0.785492
0.781668
0.777413
0.772705
0.767516
0.761813
0.755554
0.748689
0.741441
0.733623
0.724503
0.713738
0.701055
0.686119
0.668244
0.646657
0.625328
0.608818
0.596675
0.590317
0.591754
0.604257
0.633945
0.694242
0.822062
1.1669
2.99657
)
;
    }
    procBoundary3to2
    {
        type            processor;
        value           nonuniform List<scalar> 
58
(
4.90862
2.20632
1.78393
1.66071
1.62363
1.62035
1.63185
1.64966
1.66966
1.68988
1.7095
1.72846
1.74659
1.76492
1.78433
1.80552
1.82795
1.8478
1.86292
1.87221
1.87588
1.87518
1.87179
1.86725
1.86269
1.85879
1.85583
1.8538
1.85265
1.85241
1.85313
1.8548
1.85732
1.86053
1.8642
1.86803
1.87167
1.87475
1.87675
1.87758
1.87674
1.87674
1.91477
1.90782
1.89425
1.8706
1.83151
1.77778
1.72682
1.67816
1.63671
1.60871
1.6031
1.63521
1.73725
1.99686
2.76294
6.55974
)
;
    }
}


// ************************************************************************* //
