/*--------------------------------*- C++ -*----------------------------------*\
  =========                 |
  \\      /  F ield         | OpenFOAM: The Open Source CFD Toolbox
   \\    /   O peration     | Website:  https://openfoam.org
    \\  /    A nd           | Version:  6
     \\/     M anipulation  |
\*---------------------------------------------------------------------------*/
FoamFile
{
    version     2.0;
    format      ascii;
    class       volScalarField;
    location    "0.09";
    object      k;
}
// * * * * * * * * * * * * * * * * * * * * * * * * * * * * * * * * * * * * * //

dimensions      [0 2 -2 0 0 0 0];

internalField   nonuniform List<scalar> 
3032
(
0.0356981
0.0359034
0.0360536
0.0361477
0.0361849
0.0361653
0.0360892
0.0359575
0.0357716
0.0355332
0.0352449
0.03491
0.034533
0.0341213
0.0336876
0.0332547
0.0328536
0.0325102
0.0321827
0.0318412
0.0314805
0.0311006
0.0307028
0.0302889
0.029861
0.0294208
0.0289704
0.0285116
0.0280463
0.0275761
0.027103
0.0266284
0.0261542
0.0256819
0.0252131
0.0247492
0.0242917
0.0238421
0.0234017
0.0229716
0.0225531
0.0221473
0.021755
0.0213771
0.0210143
0.0206673
0.0203364
0.0200219
0.0197241
0.0701233
0.0707522
0.0712861
0.0717206
0.0720525
0.0722793
0.0724
0.0724144
0.0723236
0.0721298
0.0718363
0.0714474
0.0709684
0.0704057
0.0697663
0.0690572
0.0682858
0.0674776
0.0666263
0.0657311
0.0647949
0.0638222
0.0628178
0.0617866
0.0607332
0.0596622
0.0585779
0.0574845
0.0563859
0.0552859
0.054188
0.0530958
0.0520125
0.0509412
0.0498849
0.0488464
0.0478286
0.0468337
0.0458643
0.0449225
0.0440102
0.0431292
0.042281
0.041467
0.040688
0.0399451
0.0392385
0.0385688
0.0379358
0.0861468
0.0869759
0.0876936
0.0882933
0.0887697
0.0891191
0.0893391
0.0894288
0.0893889
0.0892213
0.0889293
0.0885176
0.0879917
0.0873578
0.0866226
0.0857922
0.0848844
0.0839132
0.0828808
0.0817914
0.0806506
0.0794646
0.0782397
0.0769819
0.0756972
0.0743912
0.0730692
0.0717363
0.0703974
0.069057
0.0677195
0.0663888
0.0650691
0.063764
0.0624771
0.0612117
0.059971
0.0587581
0.0575756
0.0564262
0.0553122
0.0542357
0.0531986
0.0522023
0.0512483
0.0503374
0.0494704
0.0486477
0.0478693
0.096158
0.0971365
0.0979945
0.0987239
0.0993178
0.0997711
0.10008
0.100244
0.100263
0.100137
0.0998711
0.0994691
0.0989368
0.0982806
0.0975071
0.0966268
0.09566
0.0946134
0.0934938
0.0923083
0.0910643
0.0897692
0.0884301
0.087054
0.0856475
0.0842169
0.082768
0.0813065
0.0798377
0.0783665
0.0768978
0.0754359
0.0739851
0.0725495
0.0711329
0.069739
0.0683713
0.0670331
0.0657273
0.0644568
0.0632243
0.0620322
0.0608823
0.0597767
0.0587168
0.0577037
0.0567383
0.0558212
0.0549526
0.103042
0.104143
0.105119
0.105959
0.106655
0.107202
0.107594
0.10783
0.10791
0.107834
0.107606
0.10723
0.106713
0.106062
0.105283
0.104397
0.103412
0.102338
0.101183
0.0999568
0.0986664
0.0973203
0.0959265
0.0944923
0.0930248
0.0915307
0.090016
0.0884869
0.0869486
0.0854065
0.0838655
0.0823302
0.080805
0.0792943
0.0778019
0.0763318
0.0748877
0.0734729
0.0720907
0.0707443
0.0694364
0.0681696
0.0669462
0.0657683
0.0646376
0.0635554
0.062523
0.0615409
0.0606096
0.10781
0.109017
0.110094
0.111033
0.111822
0.112455
0.112926
0.113234
0.113376
0.113355
0.113173
0.112836
0.11235
0.111722
0.110969
0.1101
0.109126
0.108057
0.106903
0.105672
0.104374
0.103017
0.101609
0.100159
0.0986726
0.0971574
0.0956196
0.0940652
0.0924998
0.0909286
0.0893566
0.0877885
0.0862287
0.0846816
0.0831513
0.0816416
0.0801563
0.0786991
0.0772734
0.0758823
0.074529
0.0732162
0.0719464
0.0707219
0.0695447
0.0684165
0.0673384
0.0663116
0.0653365
0.110952
0.11225
0.113418
0.114445
0.11532
0.116034
0.116582
0.11696
0.117168
0.117206
0.117078
0.116789
0.116347
0.115765
0.115052
0.11422
0.11328
0.112241
0.111113
0.109906
0.108629
0.107292
0.105902
0.104467
0.102994
0.101491
0.0999625
0.0984158
0.096856
0.0952882
0.0937174
0.0921481
0.0905849
0.0890318
0.087493
0.0859725
0.0844741
0.0830013
0.0815579
0.080147
0.078772
0.0774358
0.0761412
0.0748906
0.0736862
0.07253
0.0714236
0.070368
0.0693642
0.0684127
0.11276
0.114137
0.115387
0.116495
0.11745
0.118241
0.118863
0.119311
0.119586
0.119687
0.119619
0.119389
0.119006
0.118481
0.117823
0.117045
0.116155
0.115166
0.114086
0.112926
0.111694
0.110401
0.109054
0.10766
0.106227
0.104762
0.10327
0.101758
0.10023
0.0986921
0.0971487
0.0956042
0.0940628
0.0925287
0.091006
0.0894984
0.0880098
0.0865439
0.0851043
0.0836944
0.0823176
0.0809771
0.0796757
0.0784162
0.077201
0.0760324
0.074912
0.0738415
0.0728218
0.0718539
0.11344
0.114887
0.116209
0.117391
0.118419
0.119283
0.119977
0.120496
0.120839
0.121007
0.121006
0.120844
0.12053
0.120073
0.119484
0.118773
0.11795
0.117027
0.116013
0.114919
0.113752
0.112523
0.111239
0.109907
0.108536
0.10713
0.105697
0.104241
0.102767
0.101281
0.0997868
0.0982884
0.0967901
0.0952958
0.0938095
0.0923348
0.0908756
0.0894354
0.088018
0.0866267
0.0852652
0.0839366
0.0826441
0.0813906
0.0801788
0.0790112
0.0778897
0.0768161
0.0757919
0.074818
0.0738951
0.113163
0.114667
0.116051
0.117297
0.118391
0.119325
0.120087
0.120674
0.121086
0.121327
0.121401
0.121316
0.12108
0.120702
0.120192
0.119561
0.118819
0.117977
0.117044
0.116031
0.114945
0.113797
0.112593
0.111342
0.110049
0.108721
0.107363
0.105981
0.10458
0.103163
0.101736
0.100301
0.0988633
0.0974262
0.0959932
0.0945682
0.0931546
0.0917562
0.0903764
0.089019
0.0876873
0.0863848
0.0851147
0.0838802
0.0826842
0.0815293
0.0804179
0.079352
0.0783333
0.077363
0.076442
0.11208
0.113625
0.115061
0.116359
0.117508
0.1185
0.119326
0.119982
0.120469
0.120788
0.120944
0.120943
0.120793
0.120503
0.120084
0.119544
0.118894
0.118145
0.117306
0.116387
0.115396
0.114342
0.113232
0.112074
0.110874
0.109637
0.10837
0.107076
0.105761
0.104428
0.103082
0.101725
0.100362
0.098996
0.0976304
0.0962688
0.0949145
0.0935711
0.0922422
0.0909312
0.0896418
0.0883774
0.0871415
0.0859372
0.0847678
0.083636
0.0825446
0.0814957
0.0804913
0.079533
0.078622
0.110343
0.111905
0.113363
0.114698
0.115894
0.116941
0.117831
0.118558
0.119122
0.119523
0.119765
0.119855
0.119798
0.119605
0.119284
0.118844
0.118296
0.11765
0.116915
0.1161
0.115213
0.114264
0.113259
0.112205
0.111107
0.109973
0.108806
0.107612
0.106393
0.105155
0.1039
0.102633
0.101356
0.100072
0.0987845
0.0974973
0.0962132
0.0949357
0.0936683
0.0924144
0.0911777
0.0899616
0.0887696
0.0876052
0.0864717
0.085372
0.0843091
0.0832855
0.0823033
0.0813645
0.0804705
0.108085
0.109642
0.111108
0.112467
0.1137
0.114795
0.115744
0.11654
0.11718
0.117665
0.117997
0.118181
0.118223
0.118132
0.117915
0.117582
0.117143
0.116606
0.115981
0.115277
0.114502
0.113664
0.11277
0.111827
0.11084
0.109814
0.108755
0.107667
0.106552
0.105416
0.104261
0.10309
0.101907
0.100713
0.0995125
0.098308
0.0971025
0.0958995
0.0947021
0.0935138
0.0923381
0.0911786
0.0900389
0.0889224
0.0878326
0.0867727
0.0857457
0.0847545
0.0838014
0.0828887
0.082018
0.105487
0.107011
0.108465
0.109828
0.111083
0.112216
0.113216
0.114075
0.114789
0.115356
0.115777
0.116056
0.116199
0.116212
0.116102
0.115878
0.11555
0.115126
0.114614
0.114024
0.113364
0.11264
0.11186
0.11103
0.110156
0.109242
0.108294
0.107315
0.106309
0.105279
0.104228
0.103159
0.102073
0.100975
0.0998668
0.0987507
0.0976299
0.0965074
0.0953863
0.0942701
0.093162
0.0920657
0.0909848
0.0899228
0.0888832
0.0878694
0.0868847
0.085932
0.0850139
0.0841329
0.0832908
0.0824894
0.102735
0.104197
0.105611
0.106958
0.108218
0.109374
0.110414
0.111327
0.112107
0.11275
0.113256
0.113627
0.113866
0.11398
0.113974
0.113858
0.113638
0.113324
0.112924
0.112445
0.111897
0.111285
0.110618
0.1099
0.109138
0.108335
0.107498
0.106628
0.10573
0.104807
0.103861
0.102894
0.10191
0.100909
0.099896
0.0988716
0.097839
0.096801
0.0957606
0.0947209
0.0936852
0.092657
0.0916399
0.0906375
0.0896533
0.0886908
0.0877535
0.0868443
0.0859662
0.0851217
0.0843131
0.0835422
0.0999686
0.101338
0.102689
0.103998
0.105243
0.106406
0.107472
0.108426
0.10926
0.109968
0.110549
0.111001
0.111328
0.111534
0.111625
0.111607
0.111489
0.111278
0.110982
0.11061
0.110168
0.109664
0.109104
0.108494
0.10784
0.107145
0.106416
0.105654
0.104863
0.104045
0.103204
0.102341
0.101458
0.100557
0.0996403
0.0987103
0.0977691
0.0968192
0.0958633
0.0949044
0.0939457
0.0929904
0.0920421
0.0911043
0.0901806
0.0892746
0.0883897
0.0875292
0.086696
0.085893
0.0851226
0.0843868
0.0974349
0.0986909
0.0999571
0.101208
0.102421
0.103572
0.104643
0.105618
0.106487
0.107241
0.107875
0.10839
0.108785
0.109065
0.109234
0.109298
0.109265
0.109141
0.108935
0.108653
0.108304
0.107894
0.107429
0.106915
0.106358
0.105762
0.105131
0.104468
0.103776
0.103057
0.102315
0.101549
0.100763
0.0999584
0.099136
0.0982981
0.0974466
0.0965837
0.095712
0.0948341
0.0939529
0.0930716
0.0921936
0.0913223
0.0904613
0.0896141
0.0887842
0.0879751
0.0871897
0.086431
0.0857017
0.0850041
0.0954553
0.0966009
0.0977804
0.0989663
0.100132
0.101252
0.102307
0.103278
0.104153
0.104923
0.105582
0.106128
0.106561
0.106884
0.107101
0.107218
0.107241
0.107177
0.107034
0.106818
0.106537
0.106198
0.105806
0.105367
0.104887
0.104369
0.103818
0.103236
0.102627
0.101992
0.101333
0.100652
0.0999497
0.0992284
0.0984891
0.0977331
0.0969622
0.0961782
0.0953833
0.0945798
0.0937704
0.0929581
0.0921461
0.0913376
0.0905363
0.0897455
0.0889688
0.0882095
0.0874709
0.0867559
0.0860673
0.0854074
0.0847784
0.0940464
0.0950979
0.0961978
0.0973166
0.0984259
0.0995
0.100517
0.101459
0.102313
0.10307
0.103722
0.104268
0.104708
0.105044
0.105279
0.10542
0.105471
0.10544
0.105334
0.105159
0.104923
0.104631
0.104291
0.103906
0.103483
0.103025
0.102536
0.102018
0.101475
0.100908
0.100318
0.0997075
0.099077
0.0984275
0.0977601
0.0970759
0.0963761
0.0956623
0.0949362
0.0942
0.0934561
0.0927072
0.0919562
0.0912063
0.0904609
0.0897233
0.088997
0.0882854
0.0875916
0.0869188
0.0862697
0.0856467
0.085052
0.0844872
0.0931802
0.0941569
0.0951862
0.0962374
0.0972822
0.0982953
0.0992556
0.100146
0.100953
0.101669
0.102287
0.102806
0.103225
0.103546
0.103773
0.103911
0.103966
0.103944
0.103851
0.103695
0.103482
0.103219
0.10291
0.102561
0.102177
0.101761
0.101317
0.100848
0.100356
0.0998427
0.0993091
0.0987562
0.098185
0.097596
0.0969899
0.0963675
0.0957296
0.0950775
0.0944126
0.0937366
0.0930517
0.0923603
0.0916651
0.0909691
0.0902755
0.0895875
0.0889085
0.0882418
0.0875906
0.0869579
0.0863467
0.0857593
0.0851979
0.0846644
0.092803
0.0937192
0.0946825
0.0956635
0.096635
0.0975737
0.0984603
0.0992793
0.100019
0.100672
0.101234
0.101702
0.102077
0.102361
0.102558
0.102673
0.10271
0.102677
0.102579
0.102424
0.102216
0.101963
0.101669
0.101339
0.100979
0.100591
0.100178
0.0997443
0.0992903
0.0988179
0.098328
0.0978215
0.0972986
0.0967598
0.0962053
0.0956355
0.095051
0.0944527
0.0938415
0.0932189
0.0925868
0.0919472
0.0913027
0.0906559
0.0900099
0.0893677
0.0887327
0.088108
0.0874968
0.0869021
0.0863267
0.0857732
0.0852439
0.0847406
0.0928442
0.0937051
0.0946018
0.0955068
0.0963959
0.0972486
0.0980479
0.0987808
0.0994377
0.100012
0.100501
0.100902
0.101216
0.101447
0.101597
0.101672
0.101676
0.101617
0.101499
0.101328
0.101112
0.100855
0.100562
0.100239
0.0998896
0.0995168
0.0991239
0.098713
0.0982859
0.0978437
0.0973873
0.096917
0.0964329
0.0959351
0.0954235
0.0948981
0.0943593
0.0938074
0.0932431
0.0926677
0.0920824
0.0914893
0.0908904
0.0902884
0.0896859
0.0890859
0.0884915
0.0879059
0.087332
0.0867729
0.0862314
0.0857101
0.0852112
0.0847367
0.0932233
0.0940263
0.0948508
0.0956728
0.0964714
0.0972289
0.0979316
0.0985685
0.099132
0.0996172
0.100022
0.100345
0.100588
0.100754
0.100847
0.10087
0.100831
0.100733
0.100584
0.100388
0.100152
0.0998806
0.0995791
0.099252
0.098903
0.0985354
0.098152
0.0977548
0.0973453
0.0969243
0.0964924
0.0960498
0.0955962
0.0951314
0.0946551
0.094167
0.0936668
0.0931548
0.0926313
0.0920972
0.0915535
0.0910018
0.090444
0.0898824
0.0893196
0.0887582
0.0882013
0.0876518
0.0871127
0.0865868
0.0860771
0.085586
0.0851158
0.0846687
0.0938569
0.0945949
0.0953403
0.0960726
0.0967743
0.0974311
0.0980314
0.098567
0.0990318
0.0994223
0.0997371
0.0999765
0.100142
0.100237
0.100265
0.100231
0.10014
0.0999973
0.0998087
0.0995799
0.0993163
0.0990229
0.0987046
0.0983655
0.0980094
0.0976392
0.0972576
0.0968664
0.0964667
0.0960594
0.0956447
0.0952225
0.0947925
0.0943539
0.0939063
0.0934489
0.0929814
0.0925036
0.0920154
0.0915173
0.0910103
0.0904955
0.0899746
0.0894495
0.0889227
0.0883967
0.0878741
0.087358
0.0868511
0.0863562
0.0858761
0.0854134
0.0849703
0.084549
0.0946671
0.095332
0.0959918
0.0966296
0.097231
0.0977843
0.0982806
0.0987132
0.0990778
0.0993721
0.0995956
0.099749
0.0998346
0.0998556
0.0998159
0.0997202
0.0995736
0.0993815
0.0991493
0.0988824
0.098586
0.0982651
0.0979242
0.0975674
0.0971982
0.0968195
0.0964336
0.0960421
0.0956463
0.0952465
0.094843
0.0944352
0.0940228
0.0936047
0.0931801
0.0927481
0.0923079
0.0918591
0.0914013
0.0909348
0.09046
0.089978
0.0894901
0.088998
0.0885039
0.08801
0.087519
0.0870336
0.0865565
0.0860904
0.085638
0.0852018
0.0847841
0.0843871
0.0955864
0.0961715
0.0967415
0.0972825
0.0977827
0.0982329
0.098626
0.0989571
0.099223
0.0994225
0.0995557
0.0996239
0.0996297
0.0995765
0.0994683
0.0993099
0.0991061
0.0988624
0.0985839
0.0982759
0.0979435
0.0975915
0.0972242
0.0968456
0.096459
0.0960672
0.0956724
0.095276
0.094879
0.0944819
0.0940845
0.0936863
0.0932865
0.0928839
0.0924776
0.0920662
0.0916488
0.0912246
0.090793
0.0903539
0.0899076
0.0894546
0.0889962
0.0885338
0.0880693
0.0876048
0.0871427
0.0866856
0.086236
0.0857967
0.08537
0.0849586
0.0845647
0.0841903
0.0965611
0.0970621
0.0975404
0.0979847
0.0983853
0.098735
0.0990281
0.099261
0.0994317
0.0995396
0.0995855
0.0995711
0.0994992
0.0993733
0.0991977
0.098977
0.0987161
0.0984202
0.0980944
0.097744
0.0973738
0.0969885
0.0965924
0.0961892
0.0957821
0.0953739
0.0949666
0.0945616
0.0941598
0.0937614
0.0933661
0.0929733
0.0925821
0.092191
0.0917988
0.091404
0.0910054
0.090602
0.0901928
0.0897775
0.0893561
0.0889289
0.0884969
0.0880612
0.0876235
0.0871857
0.0867501
0.0863191
0.085895
0.0854803
0.0850777
0.0846893
0.0843175
0.0839644
0.0975715
0.0979855
0.0983712
0.0987192
0.0990217
0.0992729
0.0994686
0.0996061
0.0996841
0.0997028
0.0996633
0.0995678
0.0994193
0.0992214
0.0989785
0.0986951
0.0983762
0.0980269
0.0976523
0.0972574
0.096847
0.0964258
0.0959978
0.0955669
0.0951361
0.094708
0.0942847
0.0938674
0.093457
0.0930535
0.0926566
0.0922656
0.0918791
0.091496
0.0911144
0.0907329
0.09035
0.0899642
0.0895746
0.0891805
0.0887816
0.0883779
0.0879702
0.0875593
0.0871468
0.0867343
0.0863239
0.0859177
0.0855181
0.0851274
0.0847479
0.084382
0.0840318
0.0836994
0.0986496
0.0989704
0.0992588
0.099507
0.0997087
0.0998594
0.0999558
0.0999963
0.0999802
0.0999081
0.0997816
0.0996032
0.0993761
0.0991041
0.0987914
0.0984427
0.098063
0.0976572
0.0972304
0.0967876
0.0963335
0.0958727
0.0954093
0.0949468
0.0944884
0.0940367
0.0935935
0.0931602
0.0927375
0.0923254
0.0919235
0.0915308
0.0911462
0.0907679
0.0903943
0.0900236
0.0896539
0.0892838
0.0889119
0.0885373
0.0881593
0.087778
0.0873935
0.0870067
0.0866187
0.086231
0.0858454
0.0854639
0.0850886
0.0847218
0.0843656
0.0840222
0.0836938
0.0833823
0.0998209
0.100038
0.100221
0.100362
0.100457
0.100502
0.100494
0.100433
0.100319
0.100153
0.0999364
0.099672
0.0993632
0.0990139
0.0986285
0.0982115
0.0977678
0.0973024
0.0968204
0.0963266
0.0958257
0.0953221
0.09482
0.0943228
0.0938338
0.0933553
0.0928893
0.0924371
0.0919992
0.0915758
0.0911662
0.0907694
0.0903842
0.0900086
0.0896409
0.0892789
0.0889208
0.0885647
0.088209
0.0878526
0.0874946
0.0871345
0.0867725
0.086409
0.0860449
0.0856814
0.0853202
0.0849631
0.0846119
0.0842688
0.0839358
0.083615
0.0833082
0.0830174
0.101074
0.101178
0.101247
0.101274
0.101256
0.10119
0.101075
0.100909
0.100694
0.10043
0.10012
0.0997673
0.0993742
0.098945
0.0984841
0.0979961
0.0974858
0.0969581
0.096418
0.0958703
0.0953196
0.0947704
0.0942267
0.093692
0.0931693
0.0926612
0.0921695
0.0916955
0.0912397
0.0908022
0.0903823
0.089979
0.0895908
0.0892157
0.0888517
0.0884966
0.0881482
0.0878045
0.0874636
0.087124
0.0867847
0.0864449
0.0861045
0.0857635
0.0854227
0.085083
0.0847458
0.0844127
0.0840854
0.0837658
0.0834558
0.0831573
0.0828721
0.0826019
0.102393
0.102376
0.102323
0.10223
0.102095
0.101914
0.101686
0.101413
0.101093
0.10073
0.100325
0.0998806
0.0994009
0.0988897
0.0983512
0.0977899
0.0972107
0.0966183
0.0960177
0.0954136
0.0948107
0.0942132
0.0936251
0.0930501
0.0924911
0.0919506
0.0914305
0.090932
0.0904557
0.0900015
0.0895689
0.0891566
0.0887631
0.0883863
0.0880239
0.0876738
0.0873333
0.0870003
0.0866727
0.0863487
0.0860269
0.0857063
0.0853864
0.0850672
0.084749
0.0844325
0.0841189
0.0838095
0.0835058
0.0832095
0.0829223
0.082646
0.0823822
0.0821326
0.103758
0.103612
0.103432
0.103215
0.102957
0.102658
0.102316
0.101932
0.101506
0.101041
0.100539
0.100002
0.0994338
0.0988389
0.098221
0.0975847
0.0969347
0.0962758
0.0956126
0.0949501
0.0942926
0.0936445
0.0930099
0.0923921
0.0917943
0.0912189
0.0906679
0.0901424
0.0896431
0.0891699
0.0887221
0.0882985
0.0878974
0.0875167
0.087154
0.0868068
0.0864725
0.0861486
0.0858328
0.0855229
0.0852174
0.084915
0.0846148
0.0843165
0.0840202
0.0837263
0.0834358
0.0831496
0.0828692
0.0825959
0.0823314
0.0820771
0.0818347
0.0816054
0.105147
0.104867
0.104555
0.104209
0.103826
0.103406
0.102947
0.102451
0.101918
0.10135
0.100749
0.100118
0.0994613
0.0987815
0.0980832
0.0973706
0.0966485
0.0959215
0.0951943
0.0944716
0.0937578
0.0930573
0.092374
0.0917115
0.0910727
0.0904603
0.0898761
0.0893213
0.0887967
0.0883021
0.0878369
0.0873998
0.0869891
0.0866025
0.0862375
0.0858915
0.0855616
0.0852451
0.0849396
0.0846425
0.0843521
0.0840667
0.0837852
0.083507
0.0832318
0.08296
0.082692
0.0824287
0.0821711
0.0819206
0.0816785
0.0814461
0.0812247
0.0810157
0.106533
0.106115
0.105669
0.105192
0.104682
0.10414
0.103563
0.102954
0.102313
0.101641
0.100941
0.100217
0.0994697
0.0987046
0.0979252
0.0971358
0.0963407
0.0955448
0.0947524
0.0939684
0.093197
0.0924427
0.0917092
0.0910002
0.0903187
0.0896673
0.089048
0.0884621
0.0879101
0.0873921
0.0869075
0.0864549
0.0860325
0.085638
0.0852689
0.0849223
0.0845952
0.0842846
0.0839878
0.0837023
0.0834257
0.0831562
0.0828924
0.0826335
0.0823788
0.0821283
0.0818822
0.0816413
0.0814063
0.0811782
0.0809581
0.0807473
0.0805469
0.0803579
0.107887
0.107329
0.106747
0.106138
0.105502
0.104837
0.104143
0.103421
0.102671
0.101896
0.101098
0.10028
0.0994432
0.098593
0.0977325
0.0968661
0.095998
0.0951327
0.0942748
0.0934288
0.0925991
0.0917898
0.0910051
0.0902484
0.0895229
0.0888311
0.0881752
0.0875563
0.0869754
0.0864323
0.0859264
0.0854565
0.0850207
0.0846167
0.0842417
0.0838928
0.0835669
0.0832608
0.0829714
0.082696
0.0824321
0.0821774
0.0819304
0.0816898
0.0814548
0.0812249
0.0810003
0.0807812
0.0805683
0.0803622
0.0801639
0.0799744
0.0797946
0.0796254
0.109176
0.108478
0.107761
0.107021
0.106259
0.105472
0.104662
0.103828
0.102972
0.102095
0.1012
0.100288
0.0993634
0.0984288
0.0974881
0.0965452
0.0956045
0.0946702
0.0937468
0.0928388
0.0919505
0.0910861
0.0902495
0.0894445
0.088674
0.0879409
0.0872472
0.0865943
0.0859829
0.0854133
0.0848848
0.0843961
0.0839454
0.0835302
0.0831479
0.0827953
0.0824691
0.082166
0.0818828
0.0816164
0.0813639
0.0811231
0.0808919
0.0806687
0.0804526
0.0802427
0.0800389
0.0798411
0.0796497
0.0794652
0.0792883
0.0791197
0.0789601
0.0788104
0.110364
0.10953
0.108679
0.107811
0.106925
0.106019
0.105095
0.104152
0.103191
0.102214
0.101223
0.100221
0.0992091
0.0981917
0.0971721
0.0961542
0.0951419
0.0941396
0.0931515
0.092182
0.0912355
0.0903162
0.0894279
0.0885743
0.0877587
0.0869837
0.0862516
0.0855638
0.0849213
0.0843242
0.0837719
0.0832632
0.0827964
0.0823689
0.081978
0.0816204
0.0812927
0.0809914
0.0807131
0.0804545
0.0802125
0.0799845
0.0797681
0.0795616
0.0793635
0.0791729
0.0789892
0.0788121
0.0786417
0.0784783
0.0783223
0.0781741
0.0780344
0.0779037
0.111359
0.110399
0.109426
0.10844
0.10744
0.106425
0.105396
0.104352
0.103295
0.102226
0.101147
0.10006
0.0989679
0.0978739
0.0967812
0.0956934
0.0946146
0.0935488
0.0925003
0.0914733
0.0904722
0.089501
0.0885638
0.0876641
0.0868054
0.0859904
0.0852213
0.0844998
0.0838268
0.0832027
0.0826268
0.0820982
0.0816148
0.0811744
0.0807741
0.0804105
0.0800802
0.0797795
0.0795047
0.0792524
0.0790192
0.0788023
0.0785991
0.0784075
0.0782257
0.0780526
0.0778873
0.0777292
0.0775781
0.0774341
0.0772973
0.077168
0.0770466
0.0769333
0.112187
0.111108
0.11002
0.108923
0.107815
0.106697
0.105569
0.10443
0.103281
0.102125
0.100963
0.0997966
0.0986287
0.0974621
0.0963
0.0951461
0.094004
0.0928778
0.0917717
0.0906897
0.0896362
0.0886152
0.0876308
0.0866867
0.0857861
0.084932
0.0841267
0.083372
0.0826688
0.0820177
0.0814181
0.080869
0.0803686
0.0799145
0.0795039
0.0791333
0.0787992
0.0784977
0.0782252
0.0779778
0.0777521
0.0775449
0.0773534
0.0771753
0.0770085
0.0768515
0.0767031
0.0765627
0.0764297
0.0763038
0.076185
0.0760734
0.0759691
0.0758722
0.112878
0.111674
0.110467
0.109253
0.108034
0.106809
0.105577
0.104339
0.103097
0.10185
0.100602
0.0993532
0.0981068
0.0968654
0.0956319
0.0944098
0.0932027
0.0920145
0.0908491
0.0897107
0.0886034
0.0875313
0.0864985
0.0855086
0.084565
0.0836706
0.082828
0.082039
0.0813047
0.0806256
0.0800014
0.0794311
0.078913
0.0784448
0.0780233
0.0776454
0.0773073
0.0770051
0.0767349
0.0764927
0.0762748
0.0760779
0.0758988
0.0757348
0.0755838
0.0754438
0.0753135
0.0751918
0.0750778
0.0749712
0.0748714
0.0747785
0.0746922
0.0746125
0.114644
0.113314
0.111984
0.110653
0.109322
0.107989
0.106654
0.105317
0.103979
0.102641
0.101303
0.0999677
0.0986361
0.0973105
0.0959937
0.0946885
0.0933979
0.0921256
0.0908752
0.0896506
0.0884557
0.0872947
0.0861716
0.0850904
0.0840548
0.0830682
0.0821338
0.0812539
0.0804306
0.0796651
0.0789581
0.0783094
0.0777179
0.0771822
0.0766998
0.0762677
0.0758827
0.0755409
0.0752384
0.0749709
0.0747344
0.074525
0.074339
0.0741731
0.0740243
0.07389
0.0737681
0.0736569
0.073555
0.0734612
0.0733748
0.0732953
0.073222
0.0731547
0.0730932
0.114771
0.113312
0.111858
0.110407
0.10896
0.107516
0.106074
0.104635
0.103199
0.101768
0.100341
0.0989214
0.0975096
0.0961078
0.0947186
0.0933446
0.0919888
0.0906544
0.089345
0.0880643
0.0868162
0.0856047
0.0844337
0.0833072
0.0822289
0.0812022
0.0802303
0.0793159
0.0784609
0.0776667
0.0769341
0.076263
0.0756525
0.0751011
0.0746064
0.0741656
0.0737752
0.0734314
0.07313
0.0728668
0.0726376
0.0724382
0.0722646
0.0721134
0.0719812
0.0718652
0.0717629
0.0716722
0.0715915
0.0715193
0.0714546
0.0713964
0.0713441
0.071297
0.0712547
0.114186
0.112608
0.111038
0.109477
0.107923
0.106376
0.104836
0.103304
0.101779
0.100263
0.0987565
0.0972606
0.095777
0.0943075
0.0928543
0.0914199
0.090007
0.0886188
0.0872586
0.08593
0.0846366
0.0833824
0.0821712
0.0810069
0.0798933
0.0788337
0.0778315
0.0768891
0.0760088
0.0751921
0.0744397
0.0737517
0.0731274
0.0725651
0.0720627
0.0716174
0.0712255
0.0708833
0.0705865
0.0703308
0.0701118
0.0699251
0.0697666
0.0696325
0.0695193
0.0694237
0.0693431
0.069275
0.0692174
0.0691687
0.0691273
0.0690922
0.0690624
0.069037
0.0690154
0.112461
0.110784
0.109118
0.107464
0.105822
0.104191
0.102571
0.100963
0.0993664
0.097783
0.0962132
0.0946581
0.0931191
0.0915981
0.0900968
0.0886178
0.0871635
0.0857368
0.084341
0.0829793
0.0816553
0.0803729
0.0791356
0.0779474
0.0768119
0.0757326
0.0747125
0.0737543
0.0728604
0.0720321
0.0712705
0.0705755
0.0699465
0.069382
0.0688799
0.0684373
0.0680507
0.0677162
0.0674297
0.0671865
0.0669823
0.0668126
0.066673
0.0665596
0.0664685
0.0663963
0.06634
0.066297
0.0662649
0.0662417
0.0662259
0.0662158
0.0662103
0.0662084
0.0662091
0.108897
0.107155
0.105428
0.103717
0.10202
0.100338
0.0986712
0.0970197
0.095384
0.0937647
0.0921626
0.0905787
0.0890144
0.0874712
0.085951
0.0844558
0.0829881
0.0815506
0.0801462
0.0787781
0.0774497
0.0761645
0.0749263
0.0737385
0.0726048
0.0715286
0.0705128
0.0695602
0.068673
0.0678526
0.0670999
0.0664151
0.0657975
0.0652457
0.0647576
0.0643303
0.0639603
0.0636439
0.0633768
0.0631545
0.0629725
0.0628262
0.0627113
0.0626235
0.062559
0.0625142
0.0624858
0.0624709
0.0624671
0.0624721
0.0624839
0.062501
0.0625219
0.0625453
0.0625703
0.103295
0.101547
0.0998168
0.0981042
0.096409
0.0947313
0.0930713
0.0914291
0.0898052
0.0882002
0.0866149
0.0850503
0.0835075
0.0819881
0.0804936
0.0790262
0.0775881
0.0761817
0.07481
0.0734758
0.0721825
0.0709333
0.0697319
0.0685816
0.0674858
0.0664479
0.0654706
0.0645567
0.0637081
0.0629264
0.0622123
0.0615658
0.0609864
0.0604725
0.060022
0.059632
0.0592992
0.0590196
0.0587891
0.0586031
0.0584572
0.0583466
0.0582671
0.0582144
0.0581844
0.0581736
0.0581786
0.0581963
0.0582242
0.0582599
0.0583014
0.0583469
0.0583949
0.0584442
0.0584936
0.097403
0.0956882
0.0939923
0.0923153
0.090657
0.0890175
0.0873969
0.0857956
0.0842139
0.0826523
0.0811117
0.0795929
0.078097
0.0766255
0.07518
0.0737623
0.0723746
0.0710194
0.0696991
0.0684169
0.0671756
0.0659787
0.0648293
0.0637308
0.0626865
0.0616995
0.0607725
0.059908
0.0591079
0.0583736
0.0577057
0.0571043
0.0565686
0.0560971
0.0556876
0.0553373
0.0550428
0.0548003
0.0546054
0.0544539
0.0543411
0.0542626
0.0542139
0.0541909
0.0541896
0.0542062
0.0542375
0.0542805
0.0543324
0.0543909
0.054454
0.05452
0.0545873
0.0546546
0.0547208
0.0909919
0.0893397
0.0877069
0.0860935
0.0844993
0.0829246
0.0813692
0.0798336
0.0783181
0.0768233
0.0753497
0.0738984
0.0724704
0.071067
0.0696898
0.0683406
0.0670213
0.0657344
0.0644823
0.0632679
0.062094
0.0609637
0.0598802
0.0588467
0.0578662
0.0569418
0.0560759
0.0552709
0.0545286
0.0538502
0.0532363
0.0526867
0.0522006
0.0517766
0.0514123
0.051105
0.0508513
0.0506474
0.0504891
0.0503721
0.050292
0.0502443
0.0502247
0.050229
0.0502534
0.0502943
0.0503483
0.0504126
0.0504845
0.0505617
0.0506422
0.0507243
0.0508066
0.0508879
0.0509671
0.0842445
0.0826772
0.0811292
0.0796004
0.0780909
0.0766005
0.0751295
0.0736781
0.0722467
0.0708357
0.0694459
0.0680781
0.0667334
0.0654129
0.0641183
0.0628511
0.0616134
0.0604073
0.0592354
0.0581001
0.0570043
0.0559509
0.054943
0.0539835
0.0530753
0.0522211
0.0514235
0.0506845
0.0500058
0.0493883
0.0488326
0.0483386
0.0479051
0.0475308
0.0472134
0.0469501
0.0467376
0.0465721
0.0464496
0.0463658
0.0463165
0.0462973
0.046304
0.0463326
0.0463794
0.0464409
0.0465139
0.0465956
0.0466834
0.0467753
0.0468692
0.0469636
0.0470572
0.0471487
0.0472373
0.0772763
0.0758107
0.0743638
0.0729356
0.0715258
0.0701347
0.0687624
0.067409
0.066075
0.0647608
0.0634671
0.0621948
0.0609448
0.0597184
0.0585168
0.0573419
0.0561954
0.0550794
0.0539963
0.0529484
0.0519384
0.0509692
0.0500435
0.049164
0.0483336
0.0475548
0.0468298
0.0461606
0.0455485
0.0449946
0.0444992
0.044062
0.0436821
0.0433578
0.043087
0.0428669
0.0426942
0.0425654
0.0424765
0.0424234
0.0424021
0.0424082
0.0424379
0.0424872
0.0425527
0.0426309
0.0427189
0.0428141
0.042914
0.0430166
0.0431201
0.0432231
0.0433244
0.0434229
0.0435177
0.070135
0.0687845
0.0674516
0.0661363
0.0648386
0.0635584
0.0622961
0.0610517
0.0598257
0.0586186
0.057431
0.0562637
0.0551176
0.053994
0.052894
0.0518193
0.0507717
0.049753
0.0487654
0.0478112
0.046893
0.0460132
0.0451744
0.0443794
0.0436305
0.0429301
0.0422803
0.0416828
0.0411389
0.0406494
0.0402145
0.039834
0.0395067
0.0392311
0.0390052
0.0388261
0.0386908
0.0385957
0.0385372
0.0385113
0.0385142
0.0385418
0.0385903
0.0386563
0.0387362
0.038827
0.0389259
0.0390304
0.0391383
0.0392478
0.0393573
0.0394654
0.039571
0.0396732
0.0397713
0.0627906
0.0615672
0.06036
0.0591691
0.0579943
0.0568359
0.055694
0.0545689
0.0534609
0.0523704
0.0512981
0.0502448
0.0492113
0.0481987
0.0472082
0.0462413
0.0452996
0.0443848
0.043499
0.0426443
0.0418228
0.0410371
0.0402894
0.0395821
0.0389176
0.0382978
0.0377247
0.0371999
0.0367244
0.036299
0.0359237
0.0355983
0.0353217
0.0350924
0.0349082
0.0347668
0.034665
0.0345997
0.0345673
0.0345641
0.0345865
0.0346307
0.0346934
0.0347711
0.0348607
0.0349594
0.0350646
0.0351741
0.0352858
0.0353981
0.0355096
0.035619
0.0357254
0.0358281
0.0359263
0.0551015
0.0540191
0.0529514
0.0518982
0.0508597
0.0498359
0.0488271
0.0478334
0.0468553
0.0458931
0.0449474
0.0440189
0.0431084
0.0422169
0.0413454
0.0404953
0.0396679
0.038865
0.0380882
0.0373394
0.0366207
0.0359342
0.035282
0.0346662
0.0340888
0.0335517
0.0330565
0.0326048
0.0321973
0.0318348
0.0315173
0.0312444
0.0310152
0.0308282
0.0306816
0.030573
0.0304996
0.0304584
0.0304463
0.0304598
0.0304957
0.0305506
0.0306213
0.0307048
0.0307983
0.0308991
0.0310051
0.0311142
0.0312246
0.0313348
0.0314437
0.0315501
0.0316533
0.0317525
0.0318473
0.0467174
0.0457987
0.0448925
0.0439988
0.0431178
0.0422493
0.0413938
0.0405513
0.0397221
0.0389066
0.0381053
0.0373187
0.0365476
0.0357926
0.0350548
0.0343353
0.0336352
0.0329559
0.0322989
0.0316658
0.0310584
0.0304784
0.0299278
0.0294083
0.0289217
0.0284696
0.0280536
0.0276748
0.0273342
0.0270322
0.0267689
0.0265441
0.0263569
0.026206
0.0260899
0.0260065
0.0259533
0.0259278
0.0259272
0.0259485
0.0259888
0.0260452
0.0261149
0.0261953
0.026284
0.0263786
0.0264773
0.0265783
0.02668
0.0267812
0.0268809
0.0269781
0.0270721
0.0271625
0.0272487
0.0367862
0.0360795
0.0353819
0.0346933
0.0340139
0.0333435
0.0326823
0.0320303
0.0313879
0.0307551
0.0301323
0.02952
0.0289185
0.0283286
0.0277508
0.027186
0.0266352
0.0260993
0.0255796
0.0250775
0.0245942
0.0241313
0.0236904
0.0232729
0.0228805
0.0225146
0.0221765
0.0218673
0.0215879
0.0213389
0.0211205
0.0209325
0.0207745
0.0206456
0.0205444
0.0204696
0.0204192
0.0203913
0.0203835
0.0203937
0.0204194
0.0204584
0.0205085
0.0205676
0.0206336
0.0207048
0.0207797
0.0208567
0.0209347
0.0210126
0.0210896
0.021165
0.0212381
0.0213085
0.0213758
0.0216938
0.0212751
0.0208599
0.0204483
0.0200405
0.0196368
0.0192372
0.0188423
0.0184521
0.0180671
0.0176877
0.0173141
0.0169471
0.0165869
0.0162342
0.0158897
0.0155539
0.0152276
0.0149116
0.0146066
0.0143135
0.014033
0.0137661
0.0135134
0.0132757
0.0130536
0.0128478
0.0126585
0.0124861
0.0123307
0.0121922
0.0120704
0.0119649
0.0118751
0.0118002
0.0117394
0.0116918
0.0116562
0.0116315
0.0116167
0.0116105
0.0116118
0.0116196
0.0116328
0.0116505
0.0116717
0.0116958
0.011722
0.0117497
0.0117783
0.0118075
0.0118368
0.0118659
0.0118945
0.0119225
)
;

boundaryField
{
    inlet
    {