/*--------------------------------*- C++ -*----------------------------------*\
  =========                 |
  \\      /  F ield         | OpenFOAM: The Open Source CFD Toolbox
   \\    /   O peration     | Website:  https://openfoam.org
    \\  /    A nd           | Version:  6
     \\/     M anipulation  |
\*---------------------------------------------------------------------------*/
FoamFile
{
    version     2.0;
    format      ascii;
    class       volScalarField;
    location    "0.09";
    object      nut;
}
// * * * * * * * * * * * * * * * * * * * * * * * * * * * * * * * * * * * * * //

dimensions      [0 2 -1 0 0 0 0];

internalField   nonuniform List<scalar> 
3032
(
2.31189e-05
2.31931e-05
2.32497e-05
2.32885e-05
2.33091e-05
2.33114e-05
2.32954e-05
2.32612e-05
2.32089e-05
2.31388e-05
2.30511e-05
2.29461e-05
2.28236e-05
2.26831e-05
2.25229e-05
2.23428e-05
2.2156e-05
2.20064e-05
2.18865e-05
2.17663e-05
2.164e-05
2.15062e-05
2.13649e-05
2.12166e-05
2.10617e-05
2.09006e-05
2.0734e-05
2.05623e-05
2.0386e-05
2.02056e-05
2.00216e-05
1.98345e-05
1.96448e-05
1.9453e-05
1.92596e-05
1.90652e-05
1.88703e-05
1.86753e-05
1.8481e-05
1.82879e-05
1.80965e-05
1.79075e-05
1.77213e-05
1.75386e-05
1.73599e-05
1.71857e-05
1.70165e-05
1.68526e-05
1.66945e-05
0.000198887
0.000201118
0.000203174
0.000205045
0.000206719
0.00020819
0.000209451
0.000210496
0.000211322
0.000211923
0.000212297
0.000212435
0.000212325
0.000211947
0.000211272
0.000210267
0.00020893
0.000207351
0.000205608
0.000203729
0.00020173
0.000199624
0.000197423
0.000195136
0.000192775
0.000190347
0.000187863
0.000185329
0.000182755
0.000180148
0.000177516
0.000174865
0.000172203
0.000169537
0.000166875
0.000164223
0.000161588
0.000158977
0.000156397
0.000153856
0.000151359
0.000148913
0.000146525
0.0001442
0.000141944
0.000139761
0.000137657
0.000135636
0.000133699
0.000370938
0.000375246
0.000379226
0.000382858
0.000386121
0.000389
0.00039148
0.000393551
0.000395203
0.00039643
0.000397225
0.000397582
0.000397496
0.000396959
0.000395964
0.000394512
0.000392625
0.000390357
0.000387768
0.000384897
0.000381771
0.000378414
0.000374846
0.000371087
0.000367153
0.000363063
0.000358831
0.000354474
0.000350007
0.000345444
0.0003408
0.000336089
0.000331325
0.000326522
0.000321695
0.000316857
0.000312022
0.000307206
0.000302421
0.000297683
0.000293006
0.000288402
0.000283886
0.000279471
0.000275168
0.000270989
0.000266945
0.000263043
0.000259292
0.000495851
0.000501561
0.000506875
0.000511764
0.000516202
0.000520167
0.000523638
0.000526599
0.000529036
0.000530941
0.000532307
0.000533128
0.000533405
0.000533139
0.000532334
0.000530999
0.000529158
0.000526855
0.000524133
0.000521028
0.000517568
0.00051378
0.00050969
0.000505319
0.00050069
0.000495824
0.000490741
0.00048546
0.000480003
0.000474386
0.00046863
0.000462753
0.000456773
0.00045071
0.000444582
0.000438409
0.000432209
0.000426003
0.00041981
0.00041365
0.000407542
0.000401507
0.000395562
0.000389727
0.000384019
0.000378456
0.000373051
0.000367819
0.000362771
0.000581746
0.000588437
0.000594731
0.000600593
0.000605993
0.000610899
0.000615285
0.000619128
0.000622411
0.000625118
0.000627238
0.000628767
0.000629702
0.000630044
0.000629801
0.000628969
0.000627586
0.000625686
0.000623302
0.000620465
0.000617202
0.000613539
0.000609501
0.000605114
0.0006004
0.000595382
0.000590082
0.000584524
0.000578728
0.000572716
0.00056651
0.00056013
0.000553599
0.000546938
0.00054017
0.000533316
0.0005264
0.000519445
0.000512473
0.000505509
0.000498576
0.000491698
0.000484897
0.000478197
0.00047162
0.000465185
0.000458913
0.00045282
0.000446919
0.000637508
0.000644936
0.000652018
0.000658714
0.000664983
0.000670787
0.000676092
0.000680867
0.000685084
0.000688724
0.000691768
0.000694204
0.000696026
0.000697232
0.000697801
0.000697762
0.000697142
0.000695966
0.000694261
0.000692051
0.000689362
0.000686217
0.000682641
0.000678658
0.000674292
0.000669565
0.000664501
0.000659123
0.000653454
0.000647516
0.000641334
0.000634928
0.000628324
0.000621544
0.000614613
0.000607554
0.000600394
0.000593157
0.000585869
0.000578557
0.000571246
0.000563963
0.000556735
0.000549586
0.000542542
0.000535627
0.000528862
0.000522268
0.000515857
0.0006699
0.000677923
0.000685692
0.000693156
0.000700266
0.000706973
0.000713233
0.000719005
0.000724252
0.000728942
0.000733052
0.00073656
0.00073944
0.000741672
0.00074327
0.00074425
0.000744629
0.000744424
0.000743656
0.000742344
0.00074051
0.000738175
0.000735362
0.000732093
0.00072839
0.000724278
0.000719779
0.000714915
0.000709711
0.00070419
0.000698374
0.000692289
0.000685959
0.000679407
0.00067266
0.000665744
0.000658684
0.000651507
0.000644242
0.000636916
0.000629557
0.000622193
0.000614853
0.000607566
0.000600357
0.000593253
0.000586279
0.000579457
0.000572804
0.000566332
0.000683971
0.000692506
0.00070091
0.00070912
0.000717074
0.000724712
0.000731976
0.000738813
0.000745176
0.000751019
0.000756315
0.000760989
0.000765042
0.000768466
0.000771263
0.000773438
0.000774998
0.000775955
0.000776321
0.000776113
0.000775346
0.00077404
0.000772214
0.000769889
0.000767086
0.000763827
0.000760135
0.000756031
0.00075154
0.000746685
0.000741489
0.000735978
0.000730175
0.000724106
0.000717798
0.000711277
0.000704571
0.000697707
0.000690714
0.000683621
0.000676457
0.000669254
0.000662039
0.000654843
0.000647695
0.000640623
0.000633654
0.000626811
0.000620114
0.000613576
0.000683599
0.000692604
0.000701624
0.00071058
0.000719397
0.000728003
0.00073632
0.000744284
0.000751844
0.000758892
0.000765405
0.000771348
0.0007767
0.000781444
0.00078557
0.000789073
0.000791953
0.000794213
0.000795861
0.000796907
0.000797365
0.000797248
0.000796574
0.000795361
0.000793628
0.000791397
0.000788688
0.000785523
0.000781925
0.000777918
0.000773525
0.000768772
0.000763682
0.000758282
0.000752599
0.00074666
0.000740493
0.000734126
0.00072759
0.000720913
0.000714127
0.000707262
0.00070035
0.00069342
0.000686504
0.000679631
0.000672829
0.000666125
0.00065954
0.000653093
0.000646794
0.000671903
0.000681362
0.000691
0.000700715
0.000710419
0.000720038
0.000729443
0.000738545
0.000747282
0.000755588
0.000763412
0.000770711
0.000777449
0.0007836
0.000789143
0.000794066
0.000798359
0.000802021
0.000805051
0.000807457
0.000809245
0.000810428
0.000811018
0.000811033
0.000810489
0.000809406
0.000807803
0.000805701
0.000803124
0.000800093
0.000796632
0.000792767
0.000788523
0.000783925
0.000779001
0.000773777
0.000768284
0.00076255
0.000756605
0.000750479
0.000744205
0.000737812
0.000731334
0.000724802
0.000718247
0.0007117
0.000705191
0.000698746
0.00069239
0.000686144
0.000680021
0.000651531
0.000661446
0.000671729
0.000682215
0.000692798
0.000703379
0.000713851
0.000724118
0.000734097
0.000743711
0.000752897
0.000761598
0.00076977
0.000777375
0.000784383
0.000790774
0.000796531
0.000801646
0.000806115
0.000809936
0.000813116
0.000815662
0.000817583
0.000818894
0.00081961
0.000819749
0.000819328
0.000818368
0.000816891
0.000814919
0.000812476
0.000809586
0.000806275
0.000802569
0.000798495
0.000794081
0.000789356
0.00078435
0.000779093
0.000773615
0.000767949
0.000762127
0.000756181
0.000750144
0.000744047
0.000737923
0.000731801
0.00072571
0.000719675
0.000713718
0.000707851
0.000624858
0.000635209
0.000646065
0.000657287
0.000668747
0.000680319
0.000691885
0.000703337
0.000714575
0.000725511
0.000736067
0.000746177
0.000755786
0.000764847
0.000773322
0.000781183
0.000788409
0.000794983
0.000800896
0.000806145
0.00081073
0.000814655
0.000817928
0.000820559
0.000822562
0.000823953
0.000824748
0.000824967
0.000824631
0.000823762
0.000822382
0.000820517
0.000818191
0.000815431
0.000812264
0.000808718
0.000804823
0.000800607
0.000796103
0.00079134
0.000786351
0.000781169
0.000775826
0.000770354
0.000764788
0.000759158
0.000753495
0.00074783
0.000742187
0.000736587
0.000731042
0.00059393
0.000604717
0.00061617
0.000628138
0.000640474
0.000653036
0.000665689
0.000678309
0.000690783
0.000703009
0.0007149
0.000726378
0.000737379
0.000747849
0.000757743
0.000767027
0.000775674
0.000783662
0.00079098
0.000797618
0.000803574
0.000808849
0.000813448
0.000817379
0.000820654
0.000823286
0.000825291
0.000826688
0.000827495
0.000827736
0.000827431
0.000826606
0.000825285
0.000823494
0.000821261
0.000818613
0.000815581
0.000812192
0.00080848
0.000804473
0.000800206
0.000795709
0.000791016
0.000786161
0.000781175
0.000776092
0.000770942
0.000765756
0.000760559
0.000755372
0.000750202
0.000560849
0.000572093
0.000584152
0.000596862
0.000610056
0.000623577
0.000637272
0.000651003
0.000664643
0.000678081
0.000691218
0.00070397
0.000716265
0.000728042
0.000739253
0.000749857
0.000759824
0.00076913
0.000777758
0.000785697
0.000792941
0.000799489
0.000805343
0.00081051
0.000814999
0.000818822
0.000821993
0.000824529
0.000826449
0.000827774
0.000828524
0.000828724
0.000828398
0.000827572
0.000826273
0.000824529
0.000822368
0.00081982
0.000816916
0.000813686
0.000810163
0.000806378
0.000802366
0.000798157
0.000793786
0.000789285
0.000784686
0.000780018
0.000775309
0.00077058
0.000765851
0.000761121
0.00052763
0.00053936
0.000552032
0.000565464
0.000579474
0.000593888
0.000608539
0.000623277
0.000637965
0.000652481
0.000666721
0.000680595
0.000694025
0.000706949
0.000719314
0.000731079
0.000742208
0.000752679
0.00076247
0.000771569
0.000779969
0.000787666
0.00079466
0.000800956
0.000806561
0.000811485
0.000815742
0.000819345
0.000822313
0.000824665
0.000826422
0.000827605
0.000828239
0.000828349
0.000827961
0.000827102
0.0008258
0.000824085
0.000821987
0.000819536
0.000816763
0.000813701
0.000810381
0.000806837
0.0008031
0.000799204
0.000795179
0.000791056
0.000786861
0.00078262
0.000778347
0.000774055
0.000495653
0.000507923
0.000521221
0.00053535
0.000550116
0.00056533
0.000580818
0.000596419
0.000611989
0.000627403
0.000642552
0.000657345
0.000671704
0.000685565
0.000698876
0.000711595
0.000723688
0.00073513
0.000745901
0.000755987
0.000765379
0.000774073
0.000782066
0.000789361
0.000795965
0.000801884
0.000807129
0.000811715
0.000815656
0.000818969
0.000821674
0.000823793
0.000825346
0.000826359
0.000826856
0.000826863
0.000826408
0.000825519
0.000824224
0.000822554
0.000820538
0.000818209
0.000815596
0.000812733
0.000809651
0.000806382
0.000802957
0.000799405
0.000795754
0.000792028
0.000788241
0.000784399
0.000467376
0.00048026
0.0004942
0.000508987
0.000524419
0.0005403
0.00055645
0.000572705
0.000588922
0.000604976
0.000620762
0.00063619
0.000651187
0.000665693
0.000679659
0.000693045
0.000705822
0.000717963
0.000729452
0.000740274
0.00075042
0.000759884
0.000768664
0.000776759
0.000784175
0.000790916
0.000796991
0.000802411
0.000807189
0.000811341
0.000814882
0.000817833
0.000820214
0.000822046
0.000823353
0.00082416
0.000824493
0.000824378
0.000823842
0.000822914
0.000821624
0.00082
0.000818074
0.000815875
0.000813436
0.000810786
0.000807955
0.000804975
0.00080187
0.000798663
0.00079537
0.000791982
0.000446036
0.000459542
0.000474059
0.000489376
0.00050529
0.000521606
0.000538147
0.000554756
0.000571296
0.000587651
0.000603722
0.00061943
0.000634709
0.000649504
0.000663773
0.000677483
0.000690605
0.00070312
0.000715009
0.000726262
0.000736868
0.000746821
0.000756119
0.000764759
0.000772744
0.000780076
0.000786762
0.000792811
0.000798232
0.000803038
0.000807244
0.000810866
0.000813923
0.000816434
0.000818421
0.000819905
0.000820912
0.000821465
0.000821591
0.000821316
0.000820667
0.000819674
0.000818364
0.000816767
0.000814912
0.00081283
0.000810549
0.000808098
0.000805503
0.000802786
0.000799966
0.000797048
0.000794006
0.000431469
0.000445566
0.000460566
0.000476263
0.000492459
0.000508972
0.000525638
0.000542312
0.000558873
0.000575216
0.000591258
0.000606929
0.000622174
0.000636948
0.000651216
0.000664951
0.00067813
0.000690735
0.000702753
0.000714173
0.000724986
0.000735186
0.000744768
0.00075373
0.00076207
0.000769791
0.000776896
0.00078339
0.000789282
0.00079458
0.000799296
0.000803445
0.000807041
0.000810103
0.000812648
0.000814698
0.000816273
0.000817396
0.000818091
0.000818383
0.000818297
0.00081786
0.000817098
0.00081604
0.000814713
0.000813146
0.000811366
0.000809401
0.000807277
0.000805016
0.000802637
0.000800149
0.000797562
0.00079487
0.000423065
0.000437666
0.000453012
0.00046891
0.00048518
0.000501658
0.000518201
0.000534683
0.000551001
0.000567069
0.000582818
0.000598192
0.000613148
0.000627651
0.000641673
0.000655194
0.000668197
0.000680667
0.000692594
0.000703968
0.000714782
0.000725029
0.000734703
0.000743801
0.000752321
0.000760261
0.000767621
0.000774406
0.00078062
0.000786269
0.000791363
0.000795912
0.000799928
0.000803427
0.000806425
0.000808938
0.000810987
0.000812591
0.000813772
0.000814552
0.000814956
0.000815006
0.000814729
0.00081415
0.000813296
0.000812192
0.000810867
0.000809345
0.000807652
0.00080581
0.000803837
0.000801746
0.000799542
0.00079723
0.000419974
0.000434926
0.000450438
0.000466341
0.000482477
0.000498707
0.000514911
0.000530987
0.000546852
0.000562439
0.000577694
0.000592575
0.000607051
0.000621095
0.000634689
0.000647818
0.00066047
0.000672635
0.000684305
0.00069547
0.000706126
0.000716264
0.00072588
0.000734968
0.000743524
0.000751545
0.000759029
0.000765977
0.000772391
0.000778274
0.000783632
0.000788474
0.000792808
0.000796647
0.000800004
0.000802894
0.000805333
0.00080734
0.000808932
0.000810131
0.000810957
0.000811433
0.000811582
0.000811427
0.000810994
0.000810307
0.00080939
0.00080827
0.00080697
0.00080551
0.00080391
0.00080218
0.000800325
0.000798341
0.000421223
0.000436327
0.000451806
0.000467516
0.000483327
0.000499126
0.000514819
0.000530325
0.000545583
0.000560541
0.000575161
0.000589414
0.000603279
0.000616738
0.000629779
0.000642394
0.000654574
0.000666313
0.000677606
0.000688445
0.000698825
0.00070874
0.000718184
0.000727149
0.000735632
0.000743627
0.00075113
0.000758139
0.000764653
0.000770674
0.000776205
0.00078125
0.000785817
0.000789914
0.000793552
0.000796743
0.000799501
0.000801841
0.000803779
0.000805334
0.000806525
0.00080737
0.000807892
0.000808112
0.000808053
0.000807737
0.000807189
0.000806432
0.000805487
0.000804376
0.000803115
0.000801715
0.000800176
0.000798487
0.000425816
0.000440856
0.000456104
0.000471444
0.000486771
0.000501998
0.000517054
0.000531878
0.000546426
0.000560663
0.000574562
0.000588105
0.000601279
0.000614076
0.000626488
0.000638512
0.000650144
0.00066138
0.000672217
0.00068265
0.000692674
0.000702284
0.000711473
0.000720235
0.000728562
0.000736449
0.000743889
0.00075088
0.000757417
0.0007635
0.000769129
0.000774305
0.000779034
0.00078332
0.000787173
0.000790602
0.000793617
0.000796232
0.00079846
0.000800317
0.000801819
0.000802985
0.000803833
0.000804383
0.000804655
0.000804671
0.000804453
0.000804023
0.0008034
0.000802606
0.000801654
0.000800553
0.000799301
0.000797882
0.00043281
0.000447588
0.000462436
0.000477262
0.000491988
0.000506546
0.000520884
0.00053496
0.000548742
0.000562209
0.000575344
0.000588137
0.000600583
0.000612679
0.000624424
0.000635817
0.000646858
0.000657546
0.000667881
0.000677858
0.000687475
0.000696726
0.000705604
0.000714104
0.000722217
0.000729936
0.000737254
0.000744166
0.000750665
0.00075675
0.000762416
0.000767666
0.000772499
0.000776919
0.000780932
0.000784545
0.000787766
0.000790605
0.000793074
0.000795187
0.000796956
0.000798399
0.000799531
0.000800371
0.000800937
0.000801248
0.000801326
0.000801189
0.000800858
0.00080035
0.000799679
0.000798852
0.000797862
0.000796689
0.000441381
0.000455736
0.000470056
0.000484269
0.000498316
0.000512148
0.000525728
0.000539026
0.000552023
0.000564706
0.000577066
0.000589101
0.000600811
0.000612198
0.000623264
0.000634012
0.000644446
0.000654568
0.000664376
0.000673872
0.000683051
0.00069191
0.000700442
0.000708641
0.000716499
0.000724009
0.000731161
0.000737948
0.000744365
0.000750404
0.000756063
0.000761338
0.00076623
0.000770738
0.000774866
0.000778619
0.000782002
0.000785023
0.000787692
0.00079002
0.000792017
0.000793699
0.000795079
0.000796174
0.000796999
0.000797573
0.000797915
0.000798042
0.000797973
0.000797725
0.00079731
0.000796731
0.000795981
0.000795033
0.000450857
0.000464676
0.000478382
0.000491922
0.000505252
0.000518336
0.000531148
0.000543668
0.000555886
0.000567795
0.000579393
0.000590683
0.00060167
0.000612357
0.000622753
0.000632862
0.000642691
0.000652243
0.00066152
0.000670524
0.000679252
0.000687702
0.000695867
0.000703743
0.00071132
0.000718591
0.000725546
0.000732177
0.000738476
0.000744436
0.000750051
0.000755316
0.000760229
0.000764788
0.000768994
0.00077285
0.000776359
0.000779527
0.00078236
0.000784868
0.00078706
0.000788948
0.000790543
0.000791861
0.000792916
0.000793724
0.000794302
0.000794666
0.000794834
0.000794821
0.000794637
0.000794286
0.000793755
0.000793016
0.000460726
0.000473938
0.000486986
0.000499828
0.000512432
0.000524771
0.000536827
0.000548589
0.000560051
0.000571212
0.000582076
0.000592648
0.000602936
0.000612949
0.000622694
0.000632182
0.000641419
0.000650411
0.000659163
0.000667677
0.000675952
0.000683987
0.000691778
0.000699317
0.000706598
0.000713611
0.000720349
0.000726801
0.000732958
0.000738812
0.000744355
0.000749582
0.000754487
0.000759068
0.000763322
0.000767251
0.000770856
0.000774139
0.000777107
0.000779766
0.000782123
0.000784188
0.000785971
0.000787485
0.000788742
0.000789758
0.000790546
0.000791124
0.000791505
0.000791705
0.000791731
0.000791587
0.000791257
0.000790712
0.000470829
0.000483393
0.000495758
0.000507892
0.000519769
0.00053137
0.000542685
0.000553705
0.000564431
0.000574864
0.000585013
0.000594884
0.000604489
0.000613839
0.000622944
0.000631816
0.000640464
0.000648897
0.000657119
0.000665135
0.000672947
0.000680553
0.000687951
0.000695134
0.000702097
0.00070883
0.000715325
0.000721571
0.000727559
0.000733279
0.000738723
0.000743883
0.000748752
0.000753326
0.000757602
0.000761576
0.00076525
0.000768625
0.000771703
0.000774489
0.000776989
0.00077921
0.000781161
0.000782852
0.000784294
0.000785501
0.000786485
0.000787261
0.000787842
0.000788242
0.000788468
0.00078852
0.000788385
0.000788028
0.0004815
0.00049336
0.000504997
0.000516387
0.000527509
0.00053835
0.000548904
0.000559168
0.000569143
0.000578836
0.000588255
0.000597413
0.000606321
0.000614992
0.00062344
0.000631677
0.000639715
0.000647564
0.000655231
0.000662723
0.000670043
0.000677191
0.000684165
0.000690961
0.000697573
0.000703993
0.000710212
0.00071622
0.000722007
0.000727562
0.000732877
0.000737941
0.000742747
0.000747288
0.00075156
0.000755558
0.00075928
0.000762726
0.000765896
0.000768792
0.000771419
0.000773782
0.000775888
0.000777745
0.000779362
0.00078075
0.000781922
0.000782889
0.000783664
0.000784258
0.000784678
0.000784924
0.00078498
0.000784814
0.000493
0.000504071
0.000514906
0.000525487
0.000535799
0.000545832
0.000555582
0.00056505
0.00057424
0.00058316
0.000591821
0.000600235
0.000608417
0.000616383
0.000624146
0.000631721
0.000639122
0.00064636
0.000653444
0.000660384
0.000667182
0.000673842
0.000680363
0.000686742
0.000692975
0.000699053
0.000704968
0.00071071
0.000716269
0.000721634
0.000726794
0.000731739
0.00073646
0.000740948
0.000745196
0.000749199
0.000752953
0.000756454
0.000759701
0.000762695
0.000765437
0.000767932
0.000770182
0.000772195
0.000773978
0.000775541
0.000776892
0.000778043
0.000779005
0.000779787
0.000780396
0.000780829
0.000781073
0.000781093
0.000505225
0.000515428
0.000525395
0.00053511
0.00054456
0.00055374
0.000562647
0.000571284
0.000579656
0.000587773
0.000595648
0.000603293
0.000610725
0.000617959
0.000625013
0.000631901
0.000638639
0.00064524
0.000651715
0.000658075
0.000664325
0.000670469
0.000676508
0.000682442
0.000688265
0.000693973
0.000699555
0.000705004
0.000710308
0.000715456
0.000720437
0.000725238
0.000729851
0.000734264
0.000738469
0.000742458
0.000746226
0.000749766
0.000753077
0.000756155
0.000759
0.000761614
0.000763999
0.000766159
0.000768099
0.000769828
0.000771351
0.00077268
0.000773822
0.000774786
0.000775577
0.000776192
0.000776618
0.000776821
0.000518043
0.000527312
0.000536352
0.000545149
0.000553694
0.000561981
0.00057001
0.000577785
0.000585311
0.000592599
0.000599663
0.000606515
0.000613174
0.000619655
0.000625977
0.000632156
0.000638208
0.000644149
0.000649991
0.000655746
0.000661421
0.000667022
0.000672553
0.000678013
0.0006834
0.000688708
0.000693931
0.000699058
0.000704079
0.000708984
0.000713759
0.000718393
0.000722874
0.00072719
0.000731332
0.000735288
0.000739052
0.000742616
0.000745974
0.000749123
0.000752058
0.000754781
0.000757289
0.000759587
0.000761676
0.000763561
0.00076525
0.000766748
0.000768064
0.000769204
0.000770171
0.000770963
0.000771566
0.000771947
0.000531294
0.000539574
0.00054764
0.000555478
0.00056308
0.000570442
0.000577565
0.00058445
0.000591107
0.000597545
0.000603776
0.000609817
0.000615683
0.000621393
0.000626964
0.000632414
0.000637761
0.00064302
0.000648207
0.000653334
0.000658411
0.000663445
0.000668442
0.000673402
0.000678325
0.000683207
0.000688041
0.000692819
0.000697531
0.000702166
0.00070671
0.000711152
0.000715478
0.000719675
0.000723731
0.000727636
0.000731378
0.000734948
0.000738339
0.000741543
0.000744557
0.000747376
0.000749997
0.000752422
0.000754651
0.000756686
0.000758531
0.000760193
0.000761675
0.000762984
0.000764121
0.000765084
0.000765858
0.000766412
0.000544788
0.000552041
0.000559098
0.000565946
0.000572578
0.00057899
0.000585183
0.00059116
0.000596929
0.000602499
0.000607882
0.000613095
0.000618154
0.000623076
0.000627881
0.000632586
0.00063721
0.000641771
0.000646284
0.000650763
0.000655221
0.000659666
0.000664105
0.000668541
0.000672975
0.000677404
0.000681824
0.000686227
0.000690604
0.000694942
0.00069923
0.000703455
0.000707602
0.000711657
0.000715607
0.00071944
0.000723141
0.000726701
0.000730109
0.000733355
0.000736433
0.000739336
0.00074206
0.000744602
0.000746961
0.000749137
0.000751131
0.000752948
0.00075459
0.000756061
0.000757362
0.000758489
0.000759428
0.000760149
0.000558314
0.000564515
0.00057054
0.000576378
0.000582022
0.000587468
0.000592717
0.000597772
0.00060264
0.00060733
0.000611854
0.000616229
0.000620469
0.000624593
0.000628619
0.000632567
0.000636456
0.000640304
0.000644127
0.000647943
0.000651763
0.000655599
0.00065946
0.00066335
0.000667272
0.000671225
0.000675207
0.000679209
0.000683224
0.000687242
0.000691249
0.000695232
0.000699177
0.000703068
0.000706892
0.000710632
0.000714274
0.000717806
0.000721215
0.000724488
0.000727617
0.000730592
0.000733407
0.000736056
0.000738535
0.000740842
0.000742977
0.000744941
0.000746735
0.00074836
0.000749818
0.000751102
0.000752199
0.000753081
0.000571633
0.000576771
0.000581755
0.000586575
0.000591223
0.000595696
0.000599994
0.00060412
0.00060808
0.000611885
0.000615544
0.000619074
0.000622489
0.000625808
0.00062905
0.000632233
0.000635377
0.000638501
0.000641624
0.000644763
0.000647931
0.000651143
0.000654408
0.000657733
0.000661123
0.000664579
0.000668099
0.000671678
0.000675309
0.000678982
0.000682684
0.000686403
0.000690123
0.000693829
0.000697504
0.000701132
0.000704697
0.000708184
0.000711577
0.000714862
0.000718028
0.000721062
0.000723956
0.000726701
0.00072929
0.000731719
0.000733985
0.000736087
0.000738024
0.000739797
0.000741403
0.000742837
0.000744085
0.00074512
0.000584483
0.000588563
0.000592509
0.000596312
0.000599966
0.000603467
0.000606815
0.000610013
0.000613067
0.000615986
0.00061878
0.000621465
0.000624054
0.000626566
0.00062902
0.000631435
0.00063383
0.000636225
0.000638641
0.000641093
0.0006436
0.000646175
0.000648831
0.000651576
0.000654417
0.000657357
0.000660397
0.000663532
0.000666757
0.000670064
0.00067344
0.000676872
0.000680346
0.000683845
0.000687352
0.000690849
0.000694318
0.000697742
0.000701103
0.000704386
0.000707574
0.000710654
0.000713614
0.000716443
0.000719131
0.000721672
0.000724059
0.00072629
0.000728361
0.000730271
0.000732017
0.000733592
0.000734981
0.000736161
0.00059658
0.000599616
0.000602539
0.000605338
0.000608008
0.000610547
0.000612955
0.000615233
0.000617388
0.000619427
0.000621363
0.000623207
0.000624975
0.000626684
0.000628353
0.00063
0.000631647
0.000633313
0.000635018
0.000636781
0.00063862
0.000640551
0.000642588
0.000644742
0.000647021
0.000649431
0.000651974
0.000654649
0.00065745
0.000660371
0.000663401
0.000666528
0.000669736
0.000673008
0.000676328
0.000679675
0.00068303
0.000686374
0.000689687
0.000692951
0.000696148
0.00069926
0.000702274
0.000705174
0.000707949
0.00071059
0.000713088
0.000715436
0.000717631
0.000719668
0.000721543
0.000723248
0.000724769
0.000726083
0.000607029
0.000609107
0.000611086
0.000612958
0.000614719
0.000616365
0.000617898
0.000619319
0.000620635
0.000621854
0.000622985
0.000624042
0.000625039
0.000625993
0.000626922
0.000627845
0.000628784
0.000629757
0.000630787
0.000631893
0.000633093
0.000634406
0.000635847
0.000637429
0.000639163
0.000641056
0.000643111
0.00064533
0.000647711
0.000650246
0.000652927
0.000655742
0.000658676
0.000661712
0.000664833
0.000668017
0.000671245
0.000674494
0.000677743
0.000680972
0.000684159
0.000687286
0.000690334
0.000693287
0.00069613
0.000698852
0.00070144
0.000703886
0.000706184
0.000708328
0.000710311
0.000712126
0.000713759
0.000715187
0.000616111
0.000617277
0.000618357
0.000619345
0.000620236
0.000621029
0.000621725
0.000622325
0.000622836
0.000623266
0.000623624
0.000623922
0.000624176
0.000624402
0.000624616
0.000624839
0.000625091
0.000625393
0.000625766
0.00062623
0.000626806
0.000627512
0.000628366
0.000629383
0.000630575
0.000631952
0.000633519
0.00063528
0.000637233
0.000639375
0.000641698
0.00064419
0.000646837
0.000649624
0.000652531
0.000655536
0.00065862
0.000661757
0.000664925
0.000668101
0.000671262
0.000674385
0.00067745
0.000680438
0.000683332
0.000686116
0.000688777
0.000691304
0.000693687
0.00069592
0.000697994
0.000699902
0.000701629
0.000703155
0.000624342
0.000624543
0.000624671
0.000624722
0.000624691
0.000624579
0.000624387
0.000624117
0.000623775
0.000623368
0.000622907
0.000622403
0.000621869
0.000621323
0.000620781
0.000620262
0.000619787
0.000619376
0.000619052
0.000618835
0.000618747
0.000618808
0.000619037
0.00061945
0.000620063
0.000620886
0.000621928
0.000623194
0.000624686
0.000626401
0.000628333
0.000630471
0.000632804
0.000635314
0.000637983
0.000640788
0.000643707
0.000646715
0.000649787
0.000652897
0.00065602
0.000659131
0.000662205
0.000665222
0.00066816
0.000671002
0.000673731
0.000676335
0.0006788
0.000681119
0.000683281
0.000685277
0.000687095
0.000688717
0.000631516
0.000630768
0.000629964
0.000629102
0.000628176
0.000627186
0.000626132
0.000625014
0.000623836
0.000622604
0.000621325
0.000620009
0.000618667
0.000617312
0.00061596
0.000614627
0.000613334
0.000612099
0.000610944
0.00060989
0.00060896
0.000608175
0.000607558
0.000607128
0.000606905
0.000606904
0.00060714
0.000607623
0.000608362
0.000609359
0.000610614
0.000612124
0.000613879
0.000615868
0.000618074
0.000620479
0.000623061
0.000625795
0.000628654
0.000631612
0.00063464
0.00063771
0.000640795
0.000643867
0.000646902
0.000649875
0.000652766
0.000655555
0.000658227
0.000660766
0.000663162
0.000665404
0.000667481
0.000669383
0.000671092
0.000635627
0.000633857
0.000632043
0.000630182
0.000628272
0.000626314
0.000624307
0.000622255
0.00062016
0.000618028
0.000615867
0.000613686
0.000611496
0.000609309
0.000607142
0.00060501
0.000602932
0.000600928
0.000599018
0.000597224
0.00059557
0.000594078
0.00059277
0.000591669
0.000590794
0.000590166
0.000589799
0.000589707
0.000589901
0.000590386
0.000591164
0.000592234
0.000593587
0.000595215
0.0005971
0.000599225
0.000601566
0.000604098
0.000606794
0.000609624
0.000612557
0.000615562
0.000618609
0.000621667
0.000624708
0.000627706
0.000630635
0.000633473
0.000636202
0.000638805
0.000641267
0.000643577
0.000645724
0.000647697
0.000649481
0.000634103
0.000631351
0.000628565
0.000625744
0.000622887
0.000619996
0.000617072
0.000614118
0.000611138
0.000608138
0.000605126
0.000602111
0.000599103
0.000596114
0.00059316
0.000590257
0.000587421
0.000584674
0.000582034
0.000579526
0.000577171
0.000574992
0.000573015
0.000571261
0.000569753
0.000568512
0.000567556
0.000566901
0.000566559
0.000566539
0.000566846
0.000567478
0.000568432
0.000569698
0.00057126
0.000573101
0.000575197
0.000577523
0.000580048
0.000582741
0.00058557
0.0005885
0.000591497
0.000594529
0.000597564
0.000600572
0.000603525
0.000606398
0.00060917
0.000611821
0.000614335
0.000616699
0.000618902
0.000620931
0.000622775
0.000623338
0.000619707
0.000616051
0.000612369
0.000608664
0.000604937
0.00060119
0.000597427
0.000593653
0.000589874
0.000586098
0.000582333
0.00057859
0.000574882
0.000571221
0.000567623
0.000564107
0.00056069
0.000557394
0.00055424
0.000551252
0.000548453
0.000545868
0.000543521
0.000541436
0.000539634
0.000538137
0.000536963
0.000536126
0.000535637
0.000535502
0.000535724
0.0005363
0.00053722
0.000538472
0.000540036
0.000541891
0.000544007
0.000546356
0.000548903
0.000551614
0.000554451
0.00055738
0.000560363
0.000563367
0.000566358
0.000569307
0.000572186
0.00057497
0.00057764
0.000580177
0.000582566
0.000584796
0.000586854
0.000588731
0.000597408
0.000593102
0.000588777
0.000584436
0.000580079
0.00057571
0.000571331
0.000566949
0.000562566
0.000558191
0.00055383
0.000549491
0.000545186
0.000540926
0.000536724
0.000532596
0.000528557
0.000524628
0.000520827
0.000517176
0.000513699
0.000510419
0.000507361
0.000504549
0.00050201
0.000499765
0.000497836
0.000496244
0.000495005
0.000494132
0.000493632
0.000493509
0.000493762
0.000494382
0.000495358
0.00049667
0.000498296
0.000500208
0.000502373
0.000504758
0.000507326
0.000510039
0.000512859
0.000515748
0.00051867
0.00052159
0.000524478
0.000527303
0.000530041
0.00053267
0.000535172
0.00053753
0.000539734
0.000541772
0.000543634
0.000554195
0.000549589
0.00054497
0.000540338
0.000535697
0.000531051
0.000526402
0.000521756
0.000517118
0.000512494
0.000507892
0.00050332
0.000498788
0.000494308
0.000489892
0.000485555
0.000481313
0.000477185
0.000473189
0.000469346
0.00046568
0.000462214
0.000458972
0.00045598
0.000453262
0.000450841
0.000448742
0.000446983
0.000445581
0.000444551
0.000443901
0.000443634
0.00044375
0.000444241
0.000445093
0.000446289
0.000447805
0.000449611
0.000451676
0.000453964