/*--------------------------------*- C++ -*----------------------------------*\
  =========                 |
  \\      /  F ield         | OpenFOAM: The Open Source CFD Toolbox
   \\    /   O peration     | Website:  https://openfoam.org
    \\  /    A nd           | Version:  6
     \\/     M anipulation  |
\*---------------------------------------------------------------------------*/
FoamFile
{
    version     2.0;
    format      ascii;
    class       volScalarField;
    location    "0.09";
    object      p;
}
// * * * * * * * * * * * * * * * * * * * * * * * * * * * * * * * * * * * * * //

dimensions      [0 2 -2 0 0 0 0];

internalField   nonuniform List<scalar> 
3032
(
0.000795535
0.0120869
0.0235038
0.0349738
0.0464252
0.0577884
0.0689969
0.0799882
0.0907043
0.101093
0.111107
0.120706
0.129856
0.138529
0.146708
0.154388
0.161593
0.168317
0.174529
0.180227
0.185417
0.190112
0.194327
0.198081
0.201394
0.204287
0.206783
0.208905
0.210678
0.212126
0.213272
0.214141
0.214757
0.215142
0.215319
0.21531
0.215135
0.214814
0.214366
0.213809
0.213158
0.212429
0.211637
0.210793
0.20991
0.208998
0.208067
0.207125
0.206179
-0.00740096
0.00358382
0.0147318
0.0259725
0.0372363
0.0484547
0.0595621
0.0704964
0.0812002
0.0916211
0.101712
0.111433
0.120751
0.129635
0.138061
0.145999
0.153403
0.160274
0.166644
0.172518
0.177904
0.182813
0.187258
0.191254
0.194819
0.197973
0.200736
0.203129
0.205176
0.206898
0.208318
0.209459
0.210342
0.210991
0.211426
0.211668
0.211736
0.211651
0.21143
0.21109
0.210647
0.210117
0.209512
0.208846
0.20813
0.207375
0.206591
0.205785
0.204966
-0.016287
-0.00565419
0.00517237
0.0161246
0.0271343
0.0381347
0.0490609
0.0598515
0.0704492
0.0808014
0.0908612
0.100587
0.109945
0.118905
0.127441
0.135527
0.143142
0.150278
0.156938
0.163119
0.168825
0.174063
0.178845
0.183185
0.187097
0.190599
0.193711
0.196452
0.198844
0.200906
0.202661
0.20413
0.205335
0.206296
0.207034
0.207569
0.20792
0.208106
0.208145
0.208053
0.207846
0.207538
0.207145
0.206677
0.206148
0.205567
0.204945
0.204291
0.203612
-0.0238348
-0.013348
-0.00264715
0.00819967
0.0191243
0.0300594
0.04094
0.0517041
0.0622937
0.0726557
0.0827421
0.0925104
0.101924
0.110952
0.11957
0.127759
0.135505
0.142795
0.149623
0.155986
0.161886
0.167329
0.172326
0.176888
0.181029
0.184766
0.188116
0.191098
0.193731
0.196035
0.198032
0.19974
0.201181
0.202375
0.203341
0.204098
0.204666
0.205061
0.205302
0.205405
0.205385
0.205256
0.205032
0.204727
0.20435
0.203914
0.203428
0.202901
0.202341
-0.0305001
-0.0200104
-0.0092938
0.0015797
0.0125405
0.0235199
0.0344515
0.0452723
0.0559238
0.066352
0.0765087
0.0863513
0.0958426
0.104952
0.113654
0.121933
0.129773
0.137164
0.1441
0.150579
0.156605
0.162182
0.167319
0.172029
0.176325
0.180221
0.183735
0.186885
0.189688
0.192165
0.194335
0.196217
0.19783
0.199195
0.20033
0.201253
0.201984
0.202538
0.202933
0.203185
0.203309
0.203319
0.203228
0.20305
0.202794
0.202473
0.202096
0.201672
0.20121
-0.0367459
-0.0261476
-0.015316
-0.00432395
0.00675624
0.0178536
0.0288999
0.039831
0.0505873
0.0611149
0.0713655
0.081297
0.0908727
0.100063
0.108847
0.117204
0.125124
0.132595
0.139616
0.146183
0.152302
0.157978
0.16322
0.16804
0.17245
0.176466
0.180104
0.183381
0.186315
0.188924
0.191228
0.193245
0.194994
0.196493
0.197762
0.198818
0.199678
0.20036
0.200879
0.201252
0.201493
0.201616
0.201634
0.20156
0.201405
0.20118
0.200893
0.200556
0.200175
-0.0427443
-0.0319505
-0.0209219
-0.00973556
0.0015325
0.0128084
0.0240216
0.0351065
0.0460028
0.0566566
0.0670197
0.0770509
0.0867164
0.0959891
0.104848
0.113276
0.121262
0.128799
0.135884
0.142519
0.148708
0.154457
0.159777
0.164678
0.169174
0.17328
0.177012
0.180387
0.183423
0.186136
0.188546
0.19067
0.192528
0.194136
0.195514
0.196677
0.197645
0.198431
0.199054
0.199527
0.199866
0.200084
0.200194
0.200209
0.200138
0.199994
0.199786
0.199522
0.199212
0.198864
-0.048566
-0.0375032
-0.0262084
-0.0147644
-0.00325147
0.00825289
0.0196754
0.0309491
0.0420127
0.0528121
0.0633011
0.0734409
0.0832003
0.0925539
0.101482
0.109971
0.118012
0.1256
0.132735
0.139418
0.145657
0.151458
0.156833
0.161793
0.166353
0.170527
0.174331
0.177781
0.180896
0.183692
0.186186
0.188398
0.190344
0.192042
0.193509
0.194762
0.195819
0.196694
0.197404
0.197962
0.198385
0.198684
0.198872
0.198963
0.198966
0.198892
0.198752
0.198553
0.198305
0.198016
-0.0542041
-0.0428104
-0.0311921
-0.0194388
-0.00763587
0.00413516
0.0157975
0.0272826
0.0385297
0.0494863
0.0601086
0.0703602
0.0802116
0.0896403
0.0986297
0.107169
0.115252
0.122876
0.130043
0.136759
0.14303
0.148865
0.154277
0.159279
0.163883
0.168106
0.171964
0.175473
0.178649
0.18151
0.184073
0.186356
0.188375
0.190148
0.191691
0.19302
0.194153
0.195104
0.195888
0.196521
0.197015
0.197385
0.197642
0.197799
0.197867
0.197856
0.197775
0.197634
0.197441
0.197204
0.19693
-0.0595843
-0.0478092
-0.0358222
-0.0237212
-0.0115977
0.000462307
0.0123808
0.0240887
0.0355265
0.0466433
0.0573971
0.0677539
0.0776879
0.0871798
0.0962168
0.104791
0.1129
0.120545
0.127729
0.134459
0.140746
0.146599
0.152032
0.157058
0.161692
0.165949
0.169846
0.173398
0.176622
0.179535
0.182154
0.184495
0.186575
0.188411
0.190018
0.191413
0.192611
0.193628
0.194478
0.195175
0.195733
0.196165
0.196484
0.1967
0.196825
0.19687
0.196843
0.196754
0.196611
0.196422
0.196194
-0.0645754
-0.0523839
-0.0400015
-0.0275323
-0.0150737
-0.00271525
0.00946397
0.0213944
0.0330172
0.0442836
0.0551548
0.0656008
0.0755996
0.0851363
0.0942019
0.102793
0.110909
0.118555
0.125737
0.132466
0.138751
0.144606
0.150044
0.15508
0.159729
0.164007
0.167929
0.171512
0.174773
0.177726
0.180389
0.182778
0.18491
0.186799
0.188461
0.189913
0.191168
0.192243
0.193151
0.193905
0.19452
0.195008
0.195382
0.195651
0.195829
0.195924
0.195946
0.195904
0.195806
0.195661
0.195475
-0.0690115
-0.0563866
-0.0435967
-0.0307537
-0.0179607
-0.00531061
0.00711581
0.01925
0.0310354
0.042427
0.0533899
0.0638987
0.0739361
0.0834918
0.0925612
0.101144
0.109246
0.116872
0.124034
0.130741
0.137008
0.142849
0.148277
0.153309
0.15796
0.162245
0.166182
0.169785
0.17307
0.176054
0.178752
0.181181
0.183354
0.185289
0.186999
0.1885
0.189806
0.190932
0.191891
0.192698
0.193364
0.193902
0.194325
0.194644
0.194868
0.195009
0.195076
0.195078
0.195023
0.194918
0.194772
-0.0726805
-0.0596229
-0.0464345
-0.0332352
-0.0201331
-0.00722249
0.0054161
0.0177165
0.0296257
0.0411034
0.0521198
0.0626547
0.072696
0.0822381
0.091281
0.099829
0.10789
0.115473
0.122592
0.12926
0.135491
0.1413
0.146704
0.151718
0.156358
0.16064
0.164579
0.168191
0.171493
0.174499
0.177224
0.179683
0.181892
0.183864
0.185616
0.18716
0.188511
0.189682
0.190688
0.19154
0.192253
0.192838
0.193306
0.193669
0.193937
0.194121
0.194229
0.194272
0.194256
0.194189
0.194079
-0.075343
-0.0618842
-0.0483378
-0.03483
-0.0214713
-0.00835628
0.0044371
0.0168465
0.0288241
0.040335
0.0513551
0.0618701
0.071873
0.0813633
0.0903453
0.0988271
0.10682
0.114336
0.12139
0.127998
0.134175
0.139938
0.145303
0.150286
0.154903
0.15917
0.163102
0.166715
0.170024
0.173043
0.175787
0.178271
0.180508
0.182513
0.184299
0.185881
0.187271
0.188483
0.18953
0.190425
0.19118
0.191807
0.192317
0.192721
0.19303
0.193253
0.1934
0.19348
0.193501
0.19347
0.193395
0.193282
-0.0767785
-0.0629885
-0.0491613
-0.0354262
-0.0218941
-0.00865696
0.00421155
0.0166545
0.0286302
0.0401097
0.0510753
0.061518
0.0714363
0.0808339
0.0897191
0.0981034
0.106
0.113425
0.120394
0.126924
0.133031
0.138733
0.144046
0.148987
0.15357
0.157813
0.16173
0.165335
0.168644
0.17167
0.174427
0.176929
0.179189
0.181221
0.183037
0.184652
0.186077
0.187326
0.188411
0.189344
0.190138
0.190803
0.191352
0.191795
0.192141
0.192402
0.192586
0.192701
0.192757
0.19276
0.192718
0.192636
-0.0767103
-0.0626884
-0.048687
-0.034835
-0.0212398
-0.00798804
0.0048531
0.0172338
0.0291192
0.0404874
0.0513265
0.061633
0.07141
0.0806653
0.0894103
0.0976591
0.105427
0.112732
0.119591
0.12602
0.132039
0.137663
0.142909
0.147794
0.152333
0.156541
0.160433
0.164022
0.167323
0.170349
0.173113
0.175627
0.177905
0.179958
0.181801
0.183444
0.184901
0.186183
0.187302
0.188271
0.189101
0.189803
0.190388
0.190867
0.19125
0.191546
0.191765
0.191915
0.192004
0.19204
0.19203
0.19198
-0.0747998
-0.0607075
-0.0466946
-0.0328844
-0.0193772
-0.00625153
0.00643373
0.0186366
0.0303295
0.0414966
0.0521315
0.0622349
0.0718135
0.0808779
0.0894415
0.0975201
0.10513
0.11229
0.119017
0.125328
0.131241
0.136774
0.141941
0.146759
0.151243
0.155407
0.159266
0.162831
0.166116
0.169135
0.171898
0.174418
0.176707
0.178777
0.180639
0.182306
0.183788
0.185099
0.186248
0.187248
0.18811
0.188845
0.189463
0.189975
0.19039
0.190719
0.19097
0.191151
0.191272
0.191339
0.191359
0.191338
-0.0715253
-0.0575401
-0.0436811
-0.0300627
-0.016776
-0.00389072
0.00854189
0.0204867
0.0319216
0.0428353
0.0532248
0.0630935
0.0724498
0.0813055
0.0896751
0.0975745
0.105021
0.112031
0.118623
0.124815
0.130622
0.136061
0.141148
0.145898
0.150325
0.154443
0.158264
0.161802
0.165068
0.168075
0.170833
0.173353
0.175649
0.177729
0.179606
0.18129
0.182793
0.184126
0.1853
0.186325
0.187214
0.187976
0.188622
0.189161
0.189605
0.189962
0.19024
0.19045
0.190598
0.190691
0.190738
0.190743
0.190714
-0.0673056
-0.0535734
-0.0399989
-0.0266861
-0.0137167
-0.00115255
0.0109617
0.0225961
0.0337323
0.0443617
0.0544831
0.0641009
0.073224
0.0818644
0.0900362
0.097755
0.105037
0.1119
0.118359
0.124433
0.130135
0.135483
0.140491
0.145174
0.149544
0.153614
0.157398
0.160906
0.164151
0.167143
0.169892
0.17241
0.174707
0.176794
0.178681
0.180378
0.181897
0.183248
0.184442
0.185488
0.186399
0.187184
0.187853
0.188417
0.188885
0.189266
0.189569
0.189802
0.189974
0.190092
0.190162
0.19019
0.190183
0.190145
-0.0625234
-0.0491499
-0.0359504
-0.0230185
-0.0104275
0.0017673
0.0135263
0.0248227
0.0356407
0.0459726
0.0558177
0.0651806
0.0740696
0.0824959
0.0904728
0.098015
0.105138
0.111857
0.118189
0.124148
0.12975
0.13501
0.139942
0.144558
0.148873
0.152897
0.156643
0.160122
0.163343
0.166318
0.169057
0.17157
0.173866
0.175956
0.177849
0.179556
0.181087
0.182452
0.183662
0.184726
0.185655
0.186459
0.187148
0.187733
0.188221
0.188623
0.188948
0.189202
0.189395
0.189534
0.189625
0.189674
0.189688
0.18967
-0.0574892
-0.0445399
-0.0317678
-0.0192573
-0.00707489
0.00472909
0.0161184
0.0270686
0.0375643
0.0475985
0.0571699
0.0662821
0.0749425
0.0831612
0.0909502
0.0983228
0.105293
0.111876
0.118086
0.123937
0.129443
0.13462
0.139478
0.144032
0.148293
0.152272
0.155981
0.159429
0.162628
0.165585
0.168312
0.170817
0.17311
0.175201
0.177098
0.178812
0.180352
0.181728
0.18295
0.184028
0.184973
0.185793
0.1865
0.187101
0.187608
0.188028
0.188371
0.188645
0.188857
0.189014
0.189124
0.189192
0.189224
0.189224
-0.0524338
-0.0399391
-0.0276151
-0.0155388
-0.0037717
0.00763981
0.0186617
0.0292704
0.039451
0.0491957
0.0585024
0.0673735
0.0758152
0.0838358
0.0914461
0.0986579
0.105484
0.111938
0.118032
0.123781
0.129198
0.134295
0.139085
0.143579
0.147788
0.151724
0.155397
0.158816
0.16199
0.16493
0.167644
0.17014
0.172428
0.174517
0.176416
0.178135
0.179681
0.181066
0.182298
0.183388
0.184346
0.18518
0.185901
0.186517
0.18704
0.187476
0.187835
0.188125
0.188354
0.188528
0.188655
0.188739
0.188788
0.188805
-0.0475142
-0.0354775
-0.0235994
-0.0119508
-0.000589143
0.0104416
0.021109
0.0313899
0.041269
0.0507378
0.059793
0.0684358
0.0766705
0.0845043
0.0919463
0.0990068
0.105697
0.11203
0.118017
0.12367
0.129002
0.134024
0.138749
0.143186
0.147347
0.151242
0.154879
0.158269
0.161421
0.164342
0.167042
0.169529
0.171811
0.173897
0.175796
0.177516
0.179068
0.180459
0.1817
0.182799
0.183767
0.184612
0.185345
0.185975
0.186511
0.186961
0.187335
0.18764
0.187883
0.188072
0.188214
0.188314
0.188378
0.18841
-0.0428273
-0.0312342
-0.0197844
-0.00854426
0.00243167
0.0131016
0.0234339
0.0334055
0.0430009
0.0522103
0.0610294
0.0694578
0.0774987
0.0851575
0.0924419
0.0993609
0.105925
0.112144
0.118029
0.123593
0.128845
0.133798
0.138461
0.142845
0.146959
0.150814
0.154419
0.157781
0.160909
0.163812
0.166498
0.168974
0.171249
0.173332
0.175229
0.176951
0.178505
0.179901
0.181148
0.182254
0.183231
0.184086
0.18483
0.185471
0.186018
0.186481
0.186867
0.187185
0.187441
0.187644
0.187799
0.187913
0.187991
0.188037
-0.0384253
-0.0272505
-0.0162027
-0.0053448
0.00527086
0.0156041
0.0256241
0.0353077
0.0446386
0.0536064
0.0622056
0.0704344
0.0782945
0.0857902
0.0929277
0.0997147
0.10616
0.112273
0.118064
0.123544
0.128722
0.133609
0.138214
0.142547
0.146618
0.150436
0.154008
0.157343
0.160449
0.163334
0.166005
0.16847
0.170738
0.172815
0.17471
0.176431
0.177987
0.179386
0.180637
0.18175
0.182733
0.183597
0.184349
0.185
0.185557
0.18603
0.186428
0.186757
0.187025
0.18724
0.187408
0.187534
0.187624
0.187684
-0.0343272
-0.0235397
-0.0128634
-0.00235841
0.00792465
0.017947
0.0276784
0.0370956
0.0461819
0.0549259
0.0633211
0.0713645
0.0790568
0.0864007
0.0934014
0.100065
0.1064
0.112415
0.118117
0.123518
0.128626
0.133451
0.138002
0.142288
0.146317
0.150098
0.15364
0.156949
0.160033
0.1629
0.165557
0.168011
0.17027
0.172341
0.174232
0.175952
0.177508
0.178909
0.180164
0.181282
0.182271
0.18314
0.1839
0.184559
0.185125
0.185608
0.186015
0.186354
0.186633
0.186859
0.187038
0.187175
0.187277
0.187348
-0.0305323
-0.0200991
-0.00976268
0.000419038
0.0103972
0.0201342
0.0296002
0.0387721
0.0476327
0.0561698
0.0643762
0.0722478
0.0797841
0.086987
0.0938603
0.100409
0.106641
0.112563
0.118183
0.12351
0.128553
0.133319
0.137819
0.14206
0.14605
0.149797
0.153308
0.156592
0.159655
0.162504
0.165147
0.167589
0.169839
0.171904
0.173791
0.175509
0.177064
0.178466
0.179723
0.180844
0.181837
0.182713
0.183479
0.184144
0.184718
0.185209
0.185624
0.185973
0.186262
0.186497
0.186686
0.186834
0.186947
0.187029
-0.0269417
-0.0168364
-0.00681527
0.00306582
0.0127596
0.0222297
0.0314469
0.040388
0.0490355
0.0573769
0.065404
0.0731121
0.0804996
0.0875674
0.0943185
0.100757
0.10689
0.112722
0.118262
0.123517
0.128496
0.133206
0.137655
0.141851
0.145801
0.149514
0.152996
0.156254
0.159296
0.162126
0.164753
0.167184
0.169424
0.171481
0.173363
0.175077
0.176631
0.178032
0.17929
0.180414
0.18141
0.18229
0.183061
0.183732
0.184313
0.184811
0.185234
0.185591
0.185889
0.186133
0.186332
0.18649
0.186613
0.186705
-0.0233509
-0.0135682
-0.00385797
0.00572631
0.0151389
0.0243445
0.0333145
0.0420258
0.0504608
0.0586065
0.066454
0.0739979
0.0812356
0.0881673
0.0947948
0.101122
0.107153
0.112895
0.118353
0.123536
0.128449
0.1331
0.137497
0.141648
0.145558
0.149235
0.152686
0.155918
0.158936
0.161747
0.164358
0.166775
0.169004
0.171053
0.172928
0.174638
0.176189
0.177589
0.178847
0.179972
0.180971
0.181854
0.18263
0.183307
0.183893
0.184398
0.184829
0.185194
0.1855
0.185754
0.185962
0.18613
0.186263
0.186367
-0.0196562
-0.0102038
-0.000811931
0.00846851
0.0175933
0.026528
0.0352447
0.0437205
0.0519374
0.0598821
0.067545
0.0749199
0.0820036
0.0887951
0.0952955
0.101508
0.107435
0.113083
0.118458
0.123564
0.12841
0.133002
0.137346
0.141449
0.145317
0.148958
0.152377
0.155581
0.158575
0.161366
0.16396
0.166362
0.16858
0.17062
0.172488
0.174193
0.17574
0.177139
0.178397
0.179522
0.180524
0.18141
0.18219
0.182872
0.183465
0.183977
0.184415
0.184788
0.185103
0.185366
0.185584
0.185762
0.185906
0.18602
-0.0158699
-0.0067533
0.0023149
0.0112863
0.0201181
0.0287769
0.0372352
0.0454705
0.0534645
0.0612035
0.0686773
0.0758791
0.0828047
0.0894523
0.0958221
0.101916
0.107737
0.113288
0.118576
0.123606
0.128382
0.132912
0.137201
0.141255
0.145081
0.148684
0.15207
0.155245
0.158214
0.160984
0.16356
0.165947
0.168153
0.170183
0.172044
0.173742
0.175286
0.176682
0.17794
0.179066
0.180069
0.180959
0.181743
0.18243
0.183028
0.183547
0.183993
0.184374
0.184698
0.18497
0.185198
0.185386
0.185541
0.185666
-0.012004
-0.00322637
0.00551461
0.0141732
0.0227082
0.0310872
0.0392831
0.0472737
0.0550407
0.0625699
0.0698507
0.0768754
0.0836391
0.0901392
0.096375
0.102347
0.108058
0.113511
0.11871
0.12366
0.128365
0.132831
0.137063
0.141067
0.144849
0.148413
0.151765
0.15491
0.157854
0.160602
0.163159
0.16553
0.167723
0.169742
0.171595
0.173287
0.174826
0.17622
0.177476
0.178602
0.179607
0.180499
0.181286
0.181978
0.182583
0.183108
0.183561
0.183951
0.184283
0.184565
0.184803
0.185002
0.185168
0.185304
-0.00807377
0.00036383
0.00877604
0.0171199
0.0253559
0.0334523
0.041383
0.0491259
0.0566626
0.0639786
0.0710629
0.0779072
0.0845057
0.0908551
0.0969538
0.102802
0.1084
0.113752
0.11886
0.123727
0.128359
0.13276
0.136934
0.140886
0.144622
0.148146
0.151463
0.154577
0.157494
0.160219
0.162756
0.165111
0.16729
0.169298
0.171141
0.172826
0.17436
0.17575
0.177004
0.17813
0.179136
0.18003
0.180821
0.181518
0.182128
0.182659
0.18312
0.183518
0.183859
0.184151
0.184399
0.184609
0.184786
0.184934
-0.00409566
0.00400289
0.0120867
0.0201156
0.0280518
0.0358646
0.0435284
0.0510215
0.0583256
0.065426
0.0723112
0.0789722
0.0854029
0.0915988
0.0975578
0.103279
0.108763
0.11401
0.119025
0.123808
0.128365
0.132699
0.136813
0.140712
0.144401
0.147883
0.151163
0.154245
0.157135
0.159835
0.162352
0.16469
0.166854
0.168849
0.170683
0.17236
0.173888
0.175274
0.176526
0.17765
0.178657
0.179553
0.180347
0.181047
0.181663
0.1822
0.182669
0.183075
0.183425
0.183727
0.183985
0.184206
0.184395
0.184556
-8.68287e-05
0.0076757
0.0154335
0.0231489
0.0307861
0.0383153
0.0457119
0.0529544
0.0600246
0.0669078
0.0735919
0.0800677
0.0863282
0.0923685
0.0981855
0.103777
0.109144
0.114286
0.119205
0.123903
0.128382
0.132647
0.1367
0.140545
0.144185
0.147624
0.150866
0.153916
0.156776
0.159451
0.161947
0.164266
0.166414
0.168396
0.170219
0.171888
0.173409
0.17479
0.176038
0.177162
0.178168
0.179065
0.179862
0.180567
0.181187
0.181731
0.182207
0.182621
0.182981
0.183292
0.183562
0.183794
0.183995
0.184168
0.00393447
0.0113659
0.0188016
0.0262068
0.0335473
0.0407947
0.0479249
0.0549171
0.0617533
0.0684185
0.0749006
0.0811898
0.0872787
0.0931617
0.0988348
0.104296
0.109544
0.114578
0.119399
0.12401
0.128411
0.132605
0.136595
0.140384
0.143974
0.147369
0.150572
0.153587
0.156418
0.159067
0.161539
0.163839
0.16597
0.167939
0.169749
0.171409
0.172922
0.174298
0.175542
0.176663
0.177669
0.178567
0.179367
0.180075
0.1807
0.181251
0.181734
0.182156
0.182526
0.182848
0.183128
0.183373
0.183586
0.183772
0.00794584
0.0150529
0.0221724
0.0292722
0.0363201
0.0432887
0.0501551
0.0568987
0.0635019
0.0699498
0.07623
0.0823324
0.0882491
0.0939739
0.0995023
0.104831
0.109959
0.114884
0.119607
0.124128
0.12845
0.132572
0.136498
0.140229
0.143768
0.147118
0.150281
0.153261
0.15606
0.158682
0.16113
0.163409
0.165523
0.167476
0.169274
0.170923
0.172428
0.173797
0.175037
0.176155
0.17716
0.178058
0.17886
0.179571
0.180202
0.180758
0.181249
0.18168
0.182059
0.182392
0.182684
0.182941
0.183167
0.183366
0.0119303
0.0187208
0.0255313
0.0323318
0.0390922
0.0457865
0.0523924
0.0588902
0.0652624
0.0714944
0.0775736
0.0834897
0.0892343
0.0948007
0.100184
0.10538
0.110386
0.115202
0.119825
0.124257
0.128497
0.132546
0.136406
0.140079
0.143566
0.14687
0.149992
0.152935
0.155702
0.158295
0.160719
0.162976
0.16507
0.167007
0.168792
0.170429
0.171925
0.173287
0.174521
0.175636
0.176638
0.177537
0.17834
0.179055
0.17969
0.180253
0.180751
0.181191
0.18158
0.181924
0.182228
0.182497
0.182737
0.182951
0.0156319
0.0221361
0.028666
0.0351938
0.0416913
0.0481336
0.0544995
0.06077
0.066928
0.0729591
0.0788507
0.0845923
0.0901753
0.0955925
0.100839
0.105909
0.110801
0.115511
0.12004
0.124385
0.128547
0.132527
0.136324
0.13994
0.143377
0.146635
0.149717
0.152624
0.155359
0.157925
0.160323
0.162558
0.164634
0.166554
0.168324
0.169949
0.171436
0.172789
0.174018
0.175128
0.176129
0.177027
0.177831
0.178549
0.179188
0.179757
0.180262
0.180711
0.181109
0.181464
0.18178
0.182062
0.182315
0.182542
0.0192508
0.0254809
0.0317415
0.0380067
0.0442502
0.0504485
0.0565813
0.0626304
0.0685794
0.0744139
0.0801215
0.0856916
0.0911155
0.0963856
0.101496
0.106442
0.111219
0.115826
0.12026
0.124519
0.128604
0.132513
0.136247
0.139806
0.143192
0.146404
0.149445
0.152316
0.155018
0.157555
0.159927
0.16214
0.164195
0.166098
0.167853
0.169465
0.170941
0.172286
0.173508
0.174614
0.175611
0.176509
0.177313
0.178034
0.178678
0.179252
0.179765
0.180223
0.180631
0.180997
0.181325
0.181621
0.181887
0.182129
0.0231722
0.0291086
0.0350799
0.0410626
0.0470324
0.0529674
0.0588485
0.0646582
0.0703807
0.0760019
0.0815098
0.0868936
0.0921443
0.0972541
0.102217
0.107027
0.11168
0.116173
0.120503
0.124668
0.128667
0.132499
0.136164
0.13966
0.142989
0.146151
0.149147
0.151977
0.154643
0.157147
0.159491
0.161677
0.16371
0.165593
0.167331
0.168928
0.170392
0.171727
0.172941
0.174042
0.175036
0.175933
0.176739
0.177463
0.178112
0.178694
0.179215
0.179683
0.180104
0.180483
0.180825
0.181136
0.181419
0.181677
0.021827
0.0273908
0.0330152
0.0386792
0.0443613
0.0500388
0.0556921
0.0613032
0.0668557
0.0723344
0.0777259
0.0830181
0.0882004
0.0932635
0.0981994
0.103001
0.107663
0.112181
0.11655
0.120766
0.124829
0.128734
0.132482
0.13607
0.139497
0.142764
0.14587
0.148815
0.1516
0.154225
0.156692
0.159004
0.161161
0.163168
0.165029
0.166747
0.168327
0.169776
0.1711
0.172306
0.173401
0.174392
0.175288
0.176096
0.176824
0.177479
0.178069
0.178602
0.179082
0.179517
0.179912
0.180271
0.1806
0.180901
0.181179
0.0266128
0.0318506
0.0371507
0.0424941
0.0478611
0.053232
0.058589
0.0639156
0.0691963
0.0744169
0.0795645
0.0846272
0.0895946
0.0944573
0.0992071
0.103837
0.10834
0.112711
0.116946
0.121041
0.124992
0.128796
0.132452
0.135957
0.139309
0.142508
0.145552
0.148441
0.151176
0.153756
0.156183
0.158458
0.160583
0.162561
0.164395
0.166091
0.167653
0.169086
0.170397
0.171594
0.172682
0.17367
0.174566
0.175376
0.17611
0.176774
0.177375
0.17792
0.178416
0.178868
0.179282
0.179661
0.180011
0.180335
0.180635
0.0315554
0.0364622
0.0414319
0.0464475
0.051492
0.0565482
0.0616002
0.0666329
0.071632
0.0765844
0.0814777
0.0863007
0.0910429
0.0956952
0.100249
0.104697
0.109032
0.113249
0.117342
0.121307
0.125139
0.128835
0.132392
0.135807
0.139078
0.142203
0.14518
0.148009
0.150689
0.153219
0.155601
0.157835
0.159924
0.16187
0.163676
0.165347
0.166888
0.168305
0.169603
0.170789
0.171872
0.172858
0.173755
0.17457
0.175312
0.175987
0.176602
0.177164
0.177679
0.178152
0.178588
0.178992
0.179367
0.179717
0.180045
0.0365376
0.0411167
0.0457577
0.0504464
0.0551682
0.0599082
0.0646524
0.0693874
0.0741004
0.0787791
0.0834121
0.0879887
0.0924988
0.0969333
0.101284
0.105543
0.109702
0.113757
0.117701
0.121528
0.125235
0.128816
0.132268
0.135587
0.138771
0.141816
0.144721
0.147484
0.150104
0.15258
0.154913
0.157102
0.159151
0.161062
0.162837
0.164481
0.166
0.167399
0.168683
0.169861
0.170939
0.171925
0.172826
0.173649
0.174403
0.175094
0.175728
0.176311
0.176851
0.17735
0.177815
0.178248
0.178654
0.179036
0.179396
0.0412701
0.0455376
0.0498651
0.0542409
0.0586527
0.0630879
0.0675343
0.0719803
0.0764142
0.0808252
0.0852025
0.0895362
0.0938167
0.0980352
0.102183
0.106253
0.110237
0.114129
0.117921
0.12161
0.125188
0.128652
0.131996
0.135217
0.13831
0.141272
0.144101
0.146794
0.14935
0.151768
0.154048
0.15619
0.158196
0.160069
0.161812
0.163429
0.164925
0.166307
0.167581
0.168753
0.16983
0.170821
0.171732
0.17257
0.173342
0.174056
0.174717
0.175331
0.175902
0.176437
0.176938
0.17741
0.177855
0.178276
0.178675
0.0445765
0.0486157
0.0527127
0.0568573
0.0610392
0.0652472
0.0694707
0.0736993
0.0779225
0.0821302
0.0863128
0.0904608
0.094565
0.0986169
0.102608
0.106531
0.110378
0.114142
0.117817
0.121396
0.124873
0.128243
0.131501
0.134643
0.137663
0.140558
0.143325
0.145961
0.148466
0.150836
0.153073
0.155177
0.15715
0.158994
0.160712
0.162311
0.163794
0.165167
0.166437
0.167612
0.168697
0.1697
0.170628
0.171489
0.172287
0.173031
0.173725
0.174374
0.174984
0.175558
0.1761
0.176613
0.1771
0.177563
0.178003
0.0464586
0.0503516
0.0543008
0.0582972
0.0623312
0.0663929
0.0704726
0.0745606
0.0786472
0.0827229
0.0867786
0.0908051
0.0947937
0.098736
0.102624
0.106449
0.110205
0.113884
0.11748
0.120985
0.124394
0.1277
0.1309
0.133987
0.136957
0.139806
0.142531
0.14513
0.147599
0.149939
0.152149
0.154229
0.156183
0.158011
0.159719
0.16131
0.162791
0.164166
0.165443
0.166628
0.167728
0.16875
0.1697
0.170585
0.171412
0.172186
0.172913
0.173596
0.174241
0.174851
0.17543
0.175979
0.176503
0.177001
0.177477
0.0475462
0.0513338
0.0551767
0.0590664
0.062994
0.0669505
0.0709266
0.0749132
0.0789012
0.0828816
0.0868455
0.090784
0.0946888
0.0985515
0.102364
0.106119
0.109808
0.113424
0.116961
0.120412
0.12377
0.12703
0.130186
0.133233
0.136166
0.138982
0.141676
0.144247
0.146693
0.149011
0.151204
0.15327
0.155213
0.157036
0.158741
0.160335
0.161821
0.163206
0.164496
0.165698
0.166819
0.167865
0.168842
0.169756
0.170614
0.171421
0.172182
0.1729
0.173581
0.174227
0.174841
0.175427
0.175984
0.176517
0.177026
0.0480362
0.0517471
0.0555128
0.0593252
0.063176
0.0670564
0.0709579
0.0748717
0.0787889
0.0827008
0.0865988
0.0904743
0.094319
0.0981246
0.101883
0.105587
0.109228
0.1128
0.116295
0.119706
0.123028
0.126254
0.129379
0.132397
0.135304
0.138096
0.14077
0.143322
0.145753
0.14806
0.150243
0.152304
0.154246
0.15607
0.157781
0.159384
0.160883
0.162284
0.163594
0.164819
0.165965
0.167039
0.168046
0.168993
0.169884
0.170726
0.171522
0.172276
0.172992
0.173673
0.174322
0.174942
0.175533
0.176097
0.176637
0.0480802
0.0517345
0.0554434
0.0591993
0.0629942
0.0668198
0.0706675
0.074529
0.0783956
0.0822587
0.08611
0.0899409
0.0937431
0.0975085
0.101229
0.104897
0.108505
0.112045
0.11551
0.118895
0.122191
0.125394
0.128497
0.131496
0.134386
0.137164
0.139825
0.142368
0.144791
0.147094
0.149276
0.15134
0.153287
0.15512
0.156843
0.158461
0.159979
0.161402
0.162737
0.163989
0.165164
0.166269
0.167309
0.168289
0.169216
0.170092
0.170924
0.171713
0.172464
0.17318
0.173863
0.174514
0.175137
0.175732
0.1763
0.0477873
0.0513992
0.0550661
0.0587807
0.062535
0.0663209
0.0701302
0.0739546
0.0777856
0.0816148
0.0854336
0.0892338
0.0930071
0.0967452
0.10044
0.104084
0.10767
0.111189
0.114636
0.118002
0.121283
0.124471
0.127562
0.13055
0.133431
0.136201
0.138857
0.141398
0.143821
0.146126
0.148315
0.150387
0.152345
0.154193
0.155934
0.157572
0.159113
0.160562
0.161925
0.163207
0.164414
0.165552
0.166626
0.167641
0.168603
0.169515
0.170381
0.171206
0.171991
0.17274
0.173455
0.174137
0.17479
0.175413
0.176007
0.0472397
0.0508198
0.0544555
0.0581398
0.0618647
0.0656225
0.0694048
0.0732036
0.0770103
0.0808167
0.0846142
0.0883944
0.0921492
0.0958703
0.0995496
0.103179
0.106752
0.110259
0.113695
0.117053
0.120325
0.123507
0.126592
0.129576
0.132455
0.135225
0.137883
0.140427
0.142857
0.145171
0.14737
0.149456
0.151431
0.153298
0.155061
0.156724
0.158291
0.159768
0.161161
0.162475
0.163715
0.164887
0.165996
0.167046
0.168043
0.168989
0.16989
0.170748
0.171566
0.172347
0.173092
0.173804
0.174484
0.175133
0.175753
0.0464996
0.0500556
0.0536683
0.0573305
0.0610347
0.0647729
0.0685371
0.072319
0.0761103
0.0799026
0.0836874
0.0874563
0.091201
0.0949132
0.0985849
0.102208
0.105775
0.109278
0.112711
0.116066
0.119337
0.122519
0.125606
0.128593
0.131475
0.134251
0.136917
0.139471
0.141911
0.144239
0.146455
0.148559
0.150554
0.152444
0.154231
0.15592
0.157516
0.159023
0.160447
0.161794
0.163067
0.164273
0.165416
0.1665
0.167531
0.168512
0.169446
0.170336
0.171185
0.171996
0.17277
0.17351
0.174215
0.174889
0.175532
0.0456179
0.0491564
0.0527528
0.0564001
0.0600908
0.0638168
0.0675703
0.0713429
0.0751263
0.078912
0.0826916
0.0864565
0.0901985
0.0939091
0.0975802
0.101204
0.104772
0.108278
0.111714
0.115073
0.11835
0.121538
0.124632
0.127627
0.13052
0.133307
0.135985
0.138553
0.14101
0.143355
0.14559
0.147715
0.149733
0.151647
0.15346
0.155177
0.156802
0.158339
0.159795
0.161173
0.162479
0.163717
0.164893
0.16601
0.167074
0.168086
0.169051
0.169971
0.17085
0.171688
0.172489
0.173254
0.173983
0.17468
0.175343
0.0447133
0.0482413
0.0518286
0.0554681
0.0591523
0.0628732
0.0666229
0.0703931
0.0741753
0.0779611
0.081742
0.0855094
0.0892549
0.0929701
0.0966468
0.100277
0.103853
0.107367
0.110812
0.114182
0.117469
0.120669
0.123775
0.126784
0.129691
0.132493
0.135187
0.137772
0.140247
0.142612
0.144867
0.147013
0.149053
0.150991
0.152828
0.15457
0.156221
0.157785
0.159267
0.160673
0.162006
0.163273
0.164476
0.165621
0.166711
0.16775
0.168741
0.169686
0.170589
0.17145
0.172273
0.173058
0.173807
0.174521
0.175202
0.0440961
0.047616
0.0511963
0.0548299
0.0585092
0.0622265
0.0659738
0.0697426
0.0735246
0.0773113
0.0810942
0.0848646
0.0886142
0.0923344
0.0960172
0.0996543
0.103238
0.106761
0.110215
0.113595
0.116893
0.120104
0.123222
0.126243
0.129163
0.131978
0.134686
0.137285
0.139774
0.142153
0.144422
0.146584
0.148639
0.150592
0.152445
0.154203
0.15587
0.15745
0.15895
0.160372
0.161723
0.163007
0.164227
0.165389
0.166496
0.167551
0.168558
0.169519
0.170436
0.171311
0.172147
0.172945
0.173705
0.174431
0.175121
)
;

boundaryField
{
    inlet
    {
        type            zeroGradient;
    }
    outlet
    {
        type            fixedValue;
        value           nonuniform 0();
    }
    upperWall
    {
        type            zeroGradient;
    }
    lowerWall
    {
        type            zeroGradient;
    }
    frontAndBack
    {
        type            empty;
    }
    procBoundary3to1
    {
        type            processor;
        value           nonuniform List<scalar> 
62
(
0.205237
0.204141
0.202917
0.201757
0.200716
0.199759
0.199759
0.198483
0.197691
0.197691
0.196626
0.195933
0.195255
0.194589
0.193932
0.193932
0.193136
0.192522
0.191896
0.191283
0.191283
0.190653
0.190653
0.190081
0.189626
0.189198
0.188796
0.188416
0.188056
0.187716
0.187392
0.187083
0.186771
0.186443
0.186108
0.185765
0.185415
0.185057
0.184691
0.184317
0.183934
0.183542
0.183141
0.182748
0.182349
0.181915
0.181437
0.180916
0.180352
0.179736
0.179054
0.178423
0.177931
0.177511
0.177152
0.176842
0.176575
0.176344
0.176145
0.175975
0.175849
0.175779
)
;
    }
    procBoundary3to2
    {
        type            processor;
        value           nonuniform List<scalar> 
58
(
-0.0102981
-0.0181531
-0.0266588
-0.0340403
-0.040694
-0.0470383
-0.0532257
-0.0593132
-0.0652821
-0.0710477
-0.0764659
-0.0813515
-0.0854771
-0.0885749
-0.0903854
-0.090604