/*--------------------------------*- C++ -*----------------------------------*\
  =========                 |
  \\      /  F ield         | OpenFOAM: The Open Source CFD Toolbox
   \\    /   O peration     | Website:  https://openfoam.org
    \\  /    A nd           | Version:  6
     \\/     M anipulation  |
\*---------------------------------------------------------------------------*/
FoamFile
{
    version     2.0;
    format      ascii;
    class       surfaceScalarField;
    location    "0.09";
    object      phi;
}
// * * * * * * * * * * * * * * * * * * * * * * * * * * * * * * * * * * * * * //

dimensions      [0 3 -1 0 0 0 0];

internalField   nonuniform List<scalar> 
5952
(
-3.24604e-07
-1.61729e-08
-3.07502e-07
-1.71019e-08
-2.89539e-07
-1.79627e-08
-2.70788e-07
-1.87511e-08
-2.51324e-07
-1.94637e-08
-2.31226e-07
-2.00978e-08
-2.10575e-07
-2.06517e-08
-1.89451e-07
-2.11242e-08
-1.67936e-07
-2.15147e-08
-1.46113e-07
-2.1823e-08
-1.24064e-07
-2.20492e-08
-1.01871e-07
-2.21928e-08
-7.96181e-08
-2.22528e-08
-5.73914e-08
-2.22267e-08
-3.52746e-08
-2.21168e-08
-1.33275e-08
-2.19471e-08
8.4567e-09
-2.17842e-08
3.00525e-08
-2.15958e-08
5.13797e-08
-2.13273e-08
7.23824e-08
-2.10027e-08
9.30144e-08
-2.0632e-08
1.13236e-07
-2.02216e-08
1.33012e-07
-1.9776e-08
1.52311e-07
-1.92986e-08
1.71103e-07
-1.87926e-08
1.89364e-07
-1.82608e-08
2.0707e-07
-1.77057e-08
2.242e-07
-1.71298e-08
2.40735e-07
-1.65355e-08
2.5666e-07
-1.59251e-08
2.71961e-07
-1.53008e-08
2.86626e-07
-1.4665e-08
3.00646e-07
-1.40197e-08
3.14013e-07
-1.33675e-08
3.26724e-07
-1.27105e-08
3.38775e-07
-1.20512e-08
3.50167e-07
-1.13921e-08
3.60903e-07
-1.07356e-08
3.70987e-07
-1.00842e-08
3.80427e-07
-9.4405e-09
3.89234e-07
-8.80694e-09
3.9742e-07
-8.18598e-09
4.05e-07
-7.57997e-09
4.11991e-07
-6.99114e-09
4.18413e-07
-6.42155e-09
4.24286e-07
-5.87305e-09
4.29633e-07
-5.34727e-09
4.34479e-07
-4.84562e-09
-4.36921e-09
-3.04971e-07
-3.18912e-08
-2.88352e-07
-3.37213e-08
-2.70897e-07
-3.54174e-08
-2.52677e-07
-3.69712e-08
-2.33765e-07
-3.83761e-08
-2.14235e-07
-3.96272e-08
-1.94166e-07
-4.07212e-08
-1.73634e-07
-4.16565e-08
-1.52716e-07
-4.24327e-08
-1.31487e-07
-4.30511e-08
-1.10023e-07
-4.35139e-08
-8.83914e-08
-4.38242e-08
-6.66585e-08
-4.39857e-08
-4.4882e-08
-4.40032e-08
-2.31137e-08
-4.38852e-08
-1.41096e-09
-4.36498e-08
2.01213e-08
-4.33165e-08
4.14109e-08
-4.28854e-08
6.24373e-08
-4.23537e-08
8.31648e-08
-4.17301e-08
1.03556e-07
-4.10237e-08
1.23577e-07
-4.0242e-08
1.43193e-07
-3.9392e-08
1.62374e-07
-3.84799e-08
1.81093e-07
-3.75115e-08
1.99325e-07
-3.64923e-08
2.17046e-07
-3.54272e-08
2.34237e-07
-3.43211e-08
2.50881e-07
-3.31786e-08
2.6696e-07
-3.20041e-08
2.8246e-07
-3.08018e-08
2.97372e-07
-2.95761e-08
3.11683e-07
-2.8331e-08
3.25386e-07
-2.70709e-08
3.38476e-07
-2.58002e-08
3.50948e-07
-2.45231e-08
3.628e-07
-2.32441e-08
3.74032e-07
-2.19679e-08
3.84647e-07
-2.0699e-08
3.94648e-07
-1.9442e-08
4.04043e-07
-1.82016e-08
4.12839e-07
-1.69824e-08
4.21048e-07
-1.57887e-08
4.28682e-07
-1.46249e-08
4.35755e-07
-1.3495e-08
4.42285e-07
-1.24027e-08
4.48289e-07
-1.13512e-08
4.53787e-07
-1.03434e-08
-9.38188e-09
-2.8361e-07
-4.70757e-08
-2.67547e-07
-4.97837e-08
-2.50671e-07
-5.22933e-08
-2.3305e-07
-5.45921e-08
-2.14756e-07
-5.66704e-08
-1.95862e-07
-5.85213e-08
-1.76443e-07
-6.014e-08
-1.56575e-07
-6.15248e-08
-1.36332e-07
-6.26758e-08
-1.15787e-07
-6.35958e-08
-9.50115e-08
-6.42895e-08
-7.40724e-08
-6.47632e-08
-5.30331e-08
-6.5025e-08
-3.19516e-08
-6.50848e-08
-1.08823e-08
-6.49544e-08
1.01136e-08
-6.46457e-08
3.09691e-08
-6.4172e-08
5.16304e-08
-6.35466e-08
7.2056e-08
-6.27793e-08
9.22069e-08
-6.18811e-08
1.12046e-07
-6.08629e-08
1.31539e-07
-5.97351e-08
1.50655e-07
-5.85075e-08
1.69364e-07
-5.71891e-08
1.87641e-07
-5.57884e-08
2.05462e-07
-5.43133e-08
2.22806e-07
-5.27712e-08
2.39654e-07
-5.11691e-08
2.55989e-07
-4.95136e-08
2.71796e-07
-4.7811e-08
2.87061e-07
-4.60675e-08
3.01774e-07
-4.4289e-08
3.15925e-07
-4.24815e-08
3.29505e-07
-4.0651e-08
3.42508e-07
-3.88034e-08
3.5493e-07
-3.69448e-08
3.66767e-07
-3.50815e-08
3.78019e-07
-3.32198e-08
3.88686e-07
-3.13661e-08
3.98771e-07
-2.95269e-08
4.08278e-07
-2.77086e-08
4.17213e-07
-2.59178e-08
4.25586e-07
-2.41608e-08
4.33404e-07
-2.24436e-08
4.40681e-07
-2.07721e-08
4.4743e-07
-1.91518e-08
4.53667e-07
-1.75875e-08
4.59407e-07
-1.60836e-08
-1.46441e-08
-2.61393e-07
-6.18148e-08
-2.45795e-07
-6.53815e-08
-2.29404e-07
-6.86848e-08
-2.12287e-07
-7.17083e-08
-1.94518e-07
-7.44396e-08
-1.7617e-07
-7.68696e-08
-1.57317e-07
-7.89928e-08
-1.38034e-07
-8.08075e-08
-1.18395e-07
-8.23148e-08
-9.84717e-08
-8.35194e-08
-7.83329e-08
-8.44283e-08
-5.80448e-08
-8.50513e-08
-3.76697e-08
-8.54001e-08
-1.72662e-08
-8.54883e-08
3.10924e-09
-8.53298e-08
2.34026e-08
-8.49391e-08
4.35633e-08
-8.43327e-08
6.35435e-08
-8.35268e-08
8.33007e-08
-8.25365e-08
1.02796e-07
-8.13767e-08
1.21995e-07
-8.00616e-08
1.40865e-07
-7.86048e-08
1.59376e-07
-7.7019e-08
1.77503e-07
-7.5316e-08
1.95222e-07
-7.35069e-08
2.1251e-07
-7.16019e-08
2.2935e-07
-6.96106e-08
2.45722e-07
-6.75419e-08
2.61613e-07
-6.54041e-08
2.77007e-07
-6.32054e-08
2.91893e-07
-6.09535e-08
3.0626e-07
-5.86559e-08
3.20099e-07
-5.63199e-08
3.33401e-07
-5.39531e-08
3.4616e-07
-5.15628e-08
3.58372e-07
-4.91567e-08
3.70033e-07
-4.67425e-08
3.81141e-07
-4.43279e-08
3.91696e-07
-4.19211e-08
4.01699e-07
-3.953e-08
4.11154e-07
-3.71629e-08
4.20064e-07
-3.48279e-08
4.28436e-07
-3.25329e-08
4.36278e-07
-3.02859e-08
4.436e-07
-2.80942e-08
4.50413e-07
-2.5965e-08
4.56731e-07
-2.39048e-08
4.62566e-07
-2.19194e-08
-2.00141e-08
-2.37239e-07
-7.62006e-08
-2.22014e-07
-8.06066e-08
-2.06017e-07
-8.46816e-08
-1.89319e-07
-8.84057e-08
-1.71995e-07
-9.17636e-08
-1.5412e-07
-9.47448e-08
-1.3577e-07
-9.73435e-08
-1.17018e-07
-9.95585e-08
-9.79404e-08
-1.01393e-07
-7.86064e-08
-1.02853e-07
-5.90843e-08
-1.0395e-07
-3.94384e-08
-1.04697e-07
-1.97291e-08
-1.05109e-07
-1.3773e-11
-1.05204e-07
1.96543e-08
-1.04998e-07
3.92262e-08
-1.04511e-07
5.86563e-08
-1.03763e-07
7.79023e-08
-1.02773e-07
9.69258e-08
-1.0156e-07
1.15692e-07
-1.00143e-07
1.34169e-07
-9.85386e-08
1.52328e-07
-9.67642e-08
1.70144e-07
-9.4835e-08
1.87594e-07
-9.27654e-08
2.04655e-07
-9.05685e-08
2.2131e-07
-8.82569e-08
2.37541e-07
-8.58418e-08
2.53333e-07
-8.33339e-08
2.68672e-07
-8.07431e-08
2.83546e-07
-7.80789e-08
2.97943e-07
-7.53504e-08
3.11853e-07
-7.25663e-08
3.25269e-07
-6.97353e-08
3.38181e-07
-6.68659e-08
3.50586e-07
-6.39669e-08
3.62476e-07
-6.1047e-08
3.73849e-07
-5.81153e-08
3.84702e-07
-5.51808e-08
3.95033e-07
-5.22529e-08
4.04845e-07
-4.93412e-08
4.14137e-07
-4.64552e-08
4.22913e-07
-4.36045e-08
4.31179e-07
-4.07987e-08
4.38941e-07
-3.80472e-08
4.46205e-07
-3.5359e-08
4.52983e-07
-3.27427e-08
4.59285e-07
-3.02063e-08
4.65122e-07
-2.77572e-08
-2.54019e-08
-2.10427e-07
-9.03184e-08
-1.95493e-07
-9.55412e-08
-1.79813e-07
-1.00361e-07
-1.63465e-07
-1.04754e-07
-1.46524e-07
-1.08704e-07
-1.2907e-07
-1.12199e-07
-1.11181e-07
-1.15233e-07
-9.2933e-08
-1.17807e-07
-7.43995e-08
-1.19926e-07
-5.56509e-08
-1.21602e-07
-3.67537e-08
-1.22848e-07
-1.77696e-08
-1.23681e-07
1.24287e-09
-1.24122e-07
2.02301e-08
-1.24191e-07
3.91434e-08
-1.23911e-07
5.79384e-08
-1.23306e-07
7.65744e-08
-1.22399e-07
9.50147e-08
-1.21213e-07
1.13226e-07
-1.19771e-07
1.31178e-07
-1.18095e-07
1.48845e-07
-1.16205e-07
1.66202e-07
-1.14121e-07
1.83228e-07
-1.1186e-07
1.99902e-07
-1.0944e-07
2.16208e-07
-1.06874e-07
2.32129e-07
-1.04178e-07
2.47651e-07
-1.01364e-07
2.62761e-07
-9.84439e-08
2.77447e-07
-9.54292e-08
2.91698e-07
-9.23303e-08
3.05505e-07
-8.91574e-08
3.18859e-07
-8.592e-08
3.31751e-07
-8.26279e-08
3.44176e-07
-7.92905e-08
3.56126e-07
-7.59174e-08
3.67598e-07
-7.25185e-08
3.78586e-07
-6.91037e-08
3.89089e-07
-6.56833e-08
3.99104e-07
-6.22678e-08
4.0863e-07
-5.88679e-08
4.1767e-07
-5.54945e-08
4.26224e-07
-5.21584e-08
4.34296e-07
-4.88708e-08
4.41891e-07
-4.56423e-08
4.49015e-07
-4.24833e-08
4.55677e-07
-3.94041e-08
4.61884e-07
-3.6414e-08
4.67649e-07
-3.35218e-08
-3.07353e-08
-1.80362e-07
-1.04241e-07
-1.65651e-07
-1.10252e-07
-1.50231e-07
-1.15782e-07
-1.34182e-07
-1.20804e-07
-1.17587e-07
-1.25299e-07
-1.00529e-07
-1.29257e-07
-8.30885e-08
-1.32673e-07
-6.53432e-08
-1.35552e-07
-4.73671e-08
-1.37903e-07
-2.92293e-08
-1.3974e-07
-1.09941e-08
-1.41083e-07
7.27904e-09
-1.41954e-07
2.5536e-08
-1.42379e-07
4.37285e-08
-1.42383e-07
6.18129e-08
-1.41996e-07
7.97505e-08
-1.41244e-07
9.75067e-08
-1.40155e-07
1.15051e-07
-1.38757e-07
1.32356e-07
-1.37076e-07
1.49397e-07
-1.35137e-07
1.66154e-07
-1.32962e-07
1.82607e-07
-1.30574e-07
1.98739e-07
-1.27993e-07
2.14535e-07
-1.25236e-07
2.29981e-07
-1.22321e-07
2.45066e-07
-1.19262e-07
2.59776e-07
-1.16074e-07
2.74103e-07
-1.1277e-07
2.88036e-07
-1.09362e-07
3.01566e-07
-1.05861e-07
3.14685e-07
-1.02277e-07
3.27386e-07
-9.86208e-08
3.39661e-07
-9.4903e-08
3.51504e-07
-9.11335e-08
3.6291e-07
-8.73227e-08
3.73872e-07
-8.34811e-08
3.84388e-07
-7.96194e-08
3.94453e-07
-7.57487e-08
4.04066e-07
-7.18806e-08
4.13225e-07
-6.80268e-08
4.21929e-07
-6.41992e-08
4.30181e-07
-6.041e-08
4.37982e-07
-5.66713e-08
4.45335e-07
-5.29953e-08
4.52245e-07
-4.93938e-08
4.58719e-07
-4.58782e-08
4.64764e-07
-4.24592e-08
4.70389e-07
-3.9147e-08
4.75605e-07
-3.59507e-08
-3.28782e-08
-1.46472e-07
-1.18024e-07
-1.3194e-07
-1.24785e-07
-1.16744e-07
-1.30977e-07
-1.00974e-07
-1.36574e-07
-8.47172e-08
-1.41555e-07
-6.80616e-08
-1.45912e-07
-5.10906e-08
-1.49644e-07
-3.38827e-08
-1.5276e-07
-1.65116e-08
-1.55274e-07
9.55248e-10
-1.57207e-07
1.84567e-08
-1.58584e-07
3.59381e-08
-1.59436e-07
5.33513e-08
-1.59792e-07
7.0654e-08
-1.59686e-07
8.78092e-08
-1.59151e-07
1.04785e-07
-1.58219e-07
1.21554e-07
-1.56924e-07
1.38092e-07
-1.55296e-07
1.5438e-07
-1.53364e-07
1.70399e-07
-1.51156e-07
1.86134e-07
-1.48697e-07
2.01571e-07
-1.46012e-07
2.167e-07
-1.43121e-07
2.31509e-07
-1.40045e-07
2.45989e-07
-1.368e-07
2.60131e-07
-1.33404e-07
2.73927e-07
-1.2987e-07
2.87369e-07
-1.26212e-07
3.00449e-07
-1.22443e-07
3.13161e-07
-1.18573e-07
3.25498e-07
-1.14614e-07
3.37453e-07
-1.10576e-07
3.4902e-07
-1.0647e-07
3.60193e-07
-1.02307e-07
3.70967e-07
-9.80963e-08
3.81336e-07
-9.38502e-08
3.91296e-07
-8.95797e-08
4.00844e-07
-8.52964e-08
4.09976e-07
-8.10127e-08
4.1869e-07
-7.67411e-08
4.26986e-07
-7.24946e-08
4.34862e-07
-6.82863e-08
4.4232e-07
-6.41296e-08
4.49363e-07
-6.00378e-08
4.55993e-07
-5.60238e-08
4.62215e-07
-5.21004e-08
4.68036e-07
-4.82797e-08
4.73462e-07
-4.45731e-08
4.78502e-07
-4.09908e-08
-3.75421e-08
-1.08183e-07
-1.31697e-07
-9.38122e-08
-1.39155e-07
-7.88396e-08
-1.4595e-07
-6.33621e-08
-1.52051e-07
-4.74746e-08
-1.57443e-07
-3.1268e-08
-1.62119e-07
-1.48283e-08
-1.66084e-07
1.76559e-09
-1.69354e-07
1.84421e-08
-1.7195e-07
3.51374e-08
-1.73902e-07
5.17961e-08
-1.75243e-07
6.83699e-08
-1.76009e-07
8.48178e-08
-1.7624e-07
1.01105e-07
-1.75973e-07
1.17203e-07
-1.75249e-07
1.33088e-07
-1.74105e-07
1.48741e-07
-1.72577e-07
1.64146e-07
-1.707e-07
1.79289e-07
-1.68507e-07
1.94161e-07
-1.66027e-07
2.08752e-07
-1.63288e-07
2.23055e-07
-1.60315e-07
2.37064e-07
-1.5713e-07
2.50774e-07
-1.53754e-07
2.64177e-07
-1.50204e-07
2.77271e-07
-1.46497e-07
2.90048e-07
-1.42648e-07
3.02505e-07
-1.38669e-07
3.14636e-07
-1.34574e-07
3.26436e-07
-1.30373e-07
3.37899e-07
-1.26077e-07
3.4902e-07
-1.21697e-07
3.59793e-07
-1.17243e-07
3.70213e-07
-1.12726e-07
3.80274e-07
-1.08157e-07
3.89971e-07
-1.03547e-07
3.993e-07
-9.89082e-08
4.08256e-07
-9.42521e-08
4.16835e-07
-8.95917e-08
4.25034e-07
-8.49405e-08
4.32852e-07
-8.03123e-08
4.40286e-07
-7.5721e-08
4.47338e-07
-7.11812e-08
4.54007e-07
-6.6707e-08
4.60296e-07
-6.23128e-08
4.66208e-07
-5.80124e-08
4.71747e-07
-5.38191e-08
4.7692e-07
-4.97456e-08
4.81733e-07
-4.58034e-08
4.86193e-07
-4.20029e-08
-3.83533e-08
-6.49162e-08
-1.45259e-07
-5.07274e-08
-1.53344e-07
-3.60178e-08
-1.6066e-07
-2.08926e-08
-1.67177e-07
-5.45249e-09
-1.72883e-07
1.02085e-08
-1.7778e-07
2.60045e-08
-1.8188e-07
4.18586e-08
-1.85208e-07
5.77039e-08
-1.87795e-07
7.34831e-08
-1.89681e-07
8.91482e-08
-1.90908e-07
1.0466e-07
-1.91521e-07
1.19986e-07
-1.91566e-07
1.35101e-07
-1.91089e-07
1.49987e-07
-1.90135e-07
1.64629e-07
-1.88746e-07
1.79016e-07
-1.86964e-07
1.93142e-07
-1.84826e-07
2.07001e-07
-1.82366e-07
2.20591e-07
-1.79617e-07
2.33909e-07
-1.76606e-07
2.46953e-07
-1.7336e-07
2.59724e-07
-1.69901e-07
2.72218e-07
-1.66249e-07
2.84437e-07
-1.62422e-07
2.96376e-07
-1.58437e-07
3.08035e-07
-1.54307e-07
3.19411e-07
-1.50045e-07
3.305e-07
-1.45663e-07
3.41299e-07
-1.41171e-07
3.51803e-07
-1.36581e-07
3.62007e-07
-1.31901e-07
3.71907e-07
-1.27143e-07
3.81496e-07
-1.22316e-07
3.9077e-07
-1.17431e-07
3.99724e-07
-1.12501e-07
4.08351e-07
-1.07535e-07
4.16647e-07
-1.02548e-07
4.24607e-07
-9.7552e-08
4.32228e-07
-9.25613e-08
4.39506e-07
-8.75904e-08
4.46439e-07
-8.2654e-08
4.53025e-07
-7.77676e-08
4.59265e-07
-7.29465e-08
4.65158e-07
-6.82059e-08
4.70707e-07
-6.3561e-08
4.75914e-07
-5.90262e-08
4.80783e-07
-5.46154e-08
4.85321e-07
-5.03412e-08
4.89533e-07
-4.62152e-08
-4.22477e-08
-1.61103e-08
-1.58668e-07
-2.17164e-09
-1.67283e-07
1.21815e-08
-1.75013e-07
2.68379e-08
-1.81833e-07
4.16933e-08
-1.87738e-07
5.66534e-08
-1.9274e-07
7.16357e-08
-1.96862e-07
8.65692e-08
-2.00141e-07
1.01395e-07
-2.02621e-07
1.16064e-07
-2.04351e-07
1.30541e-07
-2.05385e-07
1.44796e-07
-2.05776e-07
1.58809e-07
-2.05579e-07
1.72566e-07
-2.04846e-07
1.8606e-07
-2.03628e-07
1.99286e-07
-2.01972e-07
2.12243e-07
-1.99922e-07
2.24933e-07
-1.97516e-07
2.3736e-07
-1.94793e-07
2.49527e-07
-1.91784e-07
2.61438e-07
-1.88518e-07
2.73098e-07
-1.8502e-07
2.84511e-07
-1.81313e-07
2.9568e-07
-1.77417e-07
3.06607e-07
-1.73349e-07
3.17293e-07
-1.69123e-07
3.27738e-07
-1.64753e-07
3.37943e-07
-1.6025e-07
3.47904e-07
-1.55624e-07
3.5762e-07
-1.50887e-07
3.67087e-07
-1.46047e-07
3.763e-07
-1.41114e-07
3.85254e-07
-1.36097e-07
3.93945e-07
-1.31006e-07
4.02365e-07
-1.25852e-07
4.1051e-07
-1.20646e-07
4.18374e-07
-1.15399e-07
4.2595e-07
-1.10124e-07
4.33233e-07
-1.04835e-07
4.40218e-07
-9.95468e-08
4.46902e-07
-9.42738e-08
4.5328e-07
-8.90319e-08
4.59349e-07
-8.38371e-08
4.65109e-07
-7.87059e-08
4.70557e-07
-7.36545e-08
4.75695e-07
-6.86991e-08
4.80524e-07
-6.38554e-08
4.85047e-07
-5.91382e-08
4.89268e-07
-5.45616e-08
4.93191e-07
-5.01382e-08
-4.58793e-08
3.87382e-08
-1.71826e-07
5.22975e-08
-1.80842e-07
6.61355e-08
-1.88851e-07
8.01381e-08
-1.95836e-07
9.42024e-08
-2.01803e-07
1.08239e-07
-2.06777e-07
1.22173e-07
-2.10797e-07
1.35945e-07
-2.13913e-07
1.49507e-07
-2.16183e-07
1.62825e-07
-2.17669e-07
1.75875e-07
-2.18435e-07
1.88643e-07
-2.18544e-07
2.01123e-07
-2.18058e-07
2.13312e-07
-2.17036e-07
2.25215e-07
-2.15531e-07
2.36838e-07
-2.13596e-07
2.48191e-07
-2.11274e-07
2.59284e-07
-2.08609e-07
2.70126e-07
-2.05636e-07
2.8073e-07
-2.02387e-07
2.91105e-07
-1.98892e-07
3.0126e-07
-1.95175e-07
3.11203e-07
-1.91257e-07
3.20941e-07
-1.87155e-07
3.30479e-07
-1.82887e-07
3.3982e-07
-1.78464e-07
3.48967e-07
-1.739e-07
3.5792e-07
-1.69203e-07
3.66679e-07
-1.64383e-07
3.7524e-07
-1.59449e-07
3.83601e-07
-1.54408e-07
3.91758e-07
-1.49271e-07
3.99705e-07
-1.44044e-07
4.07437e-07
-1.38738e-07
4.14947e-07
-1.33362e-07
4.22228e-07
-1.27927e-07
4.29274e-07
-1.22445e-07
4.36078e-07
-1.16928e-07
4.42634e-07
-1.11391e-07
4.48935e-07
-1.05848e-07
4.54976e-07
-1.00315e-07
4.60752e-07
-9.48082e-08
4.6626e-07
-8.93445e-08
4.71495e-07
-8.39412e-08
4.76456e-07
-7.86157e-08
4.81143e-07
-7.33852e-08
4.85554e-07
-6.82664e-08
4.89691e-07
-6.32753e-08
4.93556e-07
-5.84271e-08
4.97154e-07
-5.37357e-08
-4.92133e-08
1.00013e-07
-1.84565e-07
1.12987e-07
-1.93816e-07
1.26071e-07
-2.01935e-07
1.39154e-07
-2.08919e-07
1.52143e-07
-2.14791e-07
1.64959e-07
-2.19593e-07
1.77543e-07
-2.23381e-07
1.89851e-07
-2.26221e-07
2.01854e-07
-2.28186e-07
2.13535e-07
-2.2935e-07
2.24887e-07
-2.29787e-07
2.35912e-07
-2.29569e-07
2.46617e-07
-2.28763e-07
2.57015e-07
-2.27434e-07
2.67121e-07
-2.25637e-07
2.76952e-07
-2.23427e-07
2.86527e-07
-2.20849e-07
2.95863e-07
-2.17945e-07
3.04978e-07
-2.1475e-07
3.13887e-07
-2.11297e-07
3.22605e-07
-2.07611e-07
3.31146e-07
-2.03716e-07
3.39519e-07
-1.9963e-07
3.47735e-07
-1.95371e-07
3.558e-07
-1.90952e-07
3.63719e-07
-1.86383e-07
3.71495e-07
-1.81676e-07
3.7913e-07
-1.76837e-07
3.86622e-07
-1.71875e-07
3.9397e-07
-1.66796e-07
4.0117e-07
-1.61608e-07
4.08217e-07
-1.56318e-07
4.15107e-07
-1.50933e-07
4.21831e-07
-1.45462e-07
4.28383e-07
-1.39914e-07
4.34755e-07
-1.34299e-07
4.4094e-07
-1.2863e-07
4.4693e-07
-1.22918e-07
4.52716e-07
-1.17177e-07
4.58292e-07
-1.11424e-07
4.63651e-07
-1.05674e-07
4.68787e-07
-9.9944e-08
4.73694e-07
-9.42517e-08
4.78368e-07
-8.86154e-08
4.82806e-07
-8.30533e-08
4.87005e-07
-7.75838e-08
4.90963e-07
-7.22246e-08
4.94681e-07
-6.6993e-08
4.98159e-07
-6.19052e-08
5.01399e-07
-5.69762e-08
-5.22193e-08
1.67879e-07
-1.96628e-07
1.79966e-07
-2.05903e-07
1.91962e-07
-2.13931e-07
2.03771e-07
-2.20728e-07
2.15317e-07
-2.26337e-07
2.26544e-07
-2.3082e-07
2.37415e-07
-2.34251e-07
2.47908e-07
-2.36715e-07
2.58019e-07
-2.38296e-07
2.67749e-07
-2.3908e-07
2.77111e-07
-2.39149e-07
2.86125e-07
-2.38582e-07
2.94812e-07
-2.3745e-07
3.03198e-07
-2.35819e-07
3.11308e-07
-2.33748e-07
3.19169e-07
-2.31288e-07
3.26807e-07
-2.28486e-07
3.34244e-07
-2.25382e-07
3.41504e-07
-2.2201e-07
3.48606e-07
-2.18398e-07
3.55567e-07
-2.14572e-07
3.62404e-07
-2.10552e-07
3.69127e-07
-2.06354e-07
3.75749e-07
-2.01993e-07
3.82275e-07
-1.97479e-07
3.88713e-07
-1.92821e-07
3.95064e-07
-1.88027e-07
4.01329e-07
-1.83103e-07
4.07509e-07
-1.78054e-07
4.13599e-07
-1.72887e-07
4.19597e-07
-1.67606e-07
4.25496e-07
-1.62217e-07
4.31289e-07
-1.56727e-07
4.3697e-07
-1.51143e-07
4.42529e-07
-1.45473e-07
4.47958e-07
-1.39728e-07
4.53248e-07
-1.3392e-07
4.5839e-07
-1.2806e-07
4.63375e-07
-1.22162e-07
4.68194e-07
-1.16243e-07
4.7284e-07
-1.10319e-07
4.77304e-07
-1.04408e-07
4.8158e-07
-9.85279e-08
4.85663e-07
-9.26979e-08
4.89547e-07
-8.69374e-08
4.93228e-07
-8.12656e-08
4.96705e-07
-7.57014e-08
4.99975e-07
-7.02633e-08
5.03039e-07
-6.49684e-08
5.05895e-07
-5.98329e-08
5.08547e-07
-5.48712e-08
-5.00961e-08
2.4213e-07
-2.07644e-07
2.52922e-07
-2.16695e-07
2.63399e-07
-2.24407e-07
2.73492e-07
-2.30821e-07
2.83158e-07
-2.36002e-07
2.9237e-07
-2.40032e-07
3.01124e-07
-2.43005e-07
3.09427e-07
-2.45017e-07
3.17297e-07
-2.46166e-07
3.2476e-07
-2.46544e-07
3.3185e-07
-2.46239e-07
3.38599e-07
-2.45332e-07
3.45045e-07
-2.43896e-07
3.51222e-07
-2.41996e-07
3.57165e-07
-2.39691e-07
3.62907e-07
-2.3703e-07
3.68477e-07
-2.34057e-07
3.73905e-07
-2.3081e-07
3.79214e-07
-2.27318e-07
3.84425e-07
-2.2361e-07
3.89558e-07
-2.19705e-07
3.94628e-07
-2.15622e-07
3.99648e-07
-2.11374e-07
4.04628e-07
-2.06973e-07
4.09575e-07
-2.02425e-07
4.14494e-07
-1.97739e-07
4.19386e-07
-1.92919e-07
4.24253e-07
-1.87969e-07
4.29092e-07
-1.82893e-07
4.33899e-07
-1.77694e-07
4.38669e-07
-1.72376e-07
4.43396e-07
-1.66944e-07
4.4807e-07
-1.61402e-07
4.52685e-07
-1.55757e-07
4.57228e-07
-1.50017e-07
4.61692e-07
-1.44192e-07
4.66065e-07
-1.38293e-07
4.70337e-07
-1.32331e-07
4.74497e-07
-1.26323e-07
4.78536e-07
-1.20283e-07
4.82445e-07
-1.14228e-07
4.86215e-07
-1.08178e-07
4.89837e-07
-1.0215e-07
4.93305e-07
-9.61657e-08
4.96612e-07
-9.02447e-08
4.99754e-07
-8.44074e-08
5.02726e-07
-7.86738e-08
5.05526e-07
-7.30633e-08
5.08152e-07
-6.75943e-08
5.10603e-07
-6.22839e-08
5.1288e-07
-5.71478e-08
-5.21995e-08
3.42463e-07
-2.17532e-07
3.51819e-07
-2.26052e-07
3.60593e-07
-2.33182e-07
3.68761e-07
-2.38989e-07
3.76322e-07
-2.43563e-07
3.83295e-07
-2.47005e-07
3.89711e-07
-2.49421e-07
3.95613e-07
-2.50919e-07
4.01048e-07
-2.51601e-07
4.06069e-07
-2.51564e-07
4.10727e-07
-2.50897e-07
4.15073e-07
-2.49677e-07
4.19154e-07
-2.47978e-07
4.23018e-07
-2.4586e-07
4.26704e-07
-2.43378e-07
4.30252e-07
-2.40578e-07
4.33695e-07
-2.375e-07
4.37062e-07
-2.34177e-07
4.40381e-07
-2.30637e-07
4.43672e-07
-2.26901e-07
4.46956e-07
-2.22989e-07
4.50246e-07
-2.18912e-07
4.53555e-07
-2.14683e-07
4.56891e-07
-2.10309e-07
4.60261e-07
-2.05795e-07
4.63667e-07
-2.01146e-07
4.67111e-07
-1.96363e-07
4.7059e-07
-1.91449e-07
4.74101e-07
-1.86404e-07
4.77638e-07
-1.81231e-07
4.81194e-07
-1.75932e-07
4.84759e-07
-1.70509e-07
4.88325e-07
-1.64967e-07
4.9188e-07
-1.59312e-07
4.95412e-07
-1.53549e-07
4.9891e-07
-1.4769e-07
5.0236e-07
-1.41743e-07
5.05752e-07
-1.35723e-07
5.09072e-07
-1.29643e-07
5.12309e-07
-1.2352e-07
5.15452e-07
-1.17371e-07
5.18491e-07
-1.11216e-07
5.21415e-07
-1.05074e-07
5.24216e-07
-9.89671e-08
5.26887e-07
-9.29157e-08
5.29421e-07
-8.69415e-08
5.31813e-07
-8.10657e-08
5.34059e-07
-7.53088e-08
5.36155e-07
-6.96903e-08
5.38099e-07
-6.42285e-08
5.39891e-07
-5.89401e-08
-5.38397e-08
3.92296e-07
-2.24544e-07
3.98586e-07
-2.32341e-07
4.04165e-07
-2.38761e-07
4.09065e-07
-2.4389e-07
4.13335e-07
-2.47833e-07
4.17032e-07
-2.50702e-07
4.20221e-07
-2.5261e-07
4.22966e-07
-2.53665e-07
4.25334e-07
-2.53969e-07
4.27386e-07
-2.53616e-07
4.2918e-07
-2.52691e-07
4.30771e-07
-2.51268e-07
4.32206e-07
-2.49413e-07
4.3353e-07
-2.47184e-07
4.34781e-07
-2.44628e-07
4.35993e-07
-2.4179e-07
4.37195e-07
-2.38702e-07
4.38413e-07
-2.35395e-07
4.39668e-07
-2.31892e-07
4.40978e-07
-2.28212e-07
4.42358e-07
-2.24368e-07
4.43818e-07
-2.20373e-07
4.45368e-07
-2.16233e-07
4.47014e-07
-2.11954e-07
4.48757e-07
-2.07539e-07
4.506e-07
-2.02989e-07
4.52541e-07
-1.98304e-07
4.54576e-07
-1.93484e-07
4.56701e-07
-1.88529e-07
4.58909e-07
-1.83439e-07
4.6119e-07
-1.78214e-07
4.63537e-07
-1.72856e-07
4.65938e-07
-1.67368e-07
4.68382e-07
-1.61755e-07
4.70857e-07
-1.56024e-07
4.7335e-07
-1.50183e-07
4.7585e-07
-1.44243e-07
4.78342e-07
-1.38216e-07
4.80817e-07
-1.32117e-07
4.8326e-07
-1.25963e-07
4.85662e-07
-1.19773e-07
4.8801e-07
-1.13564e-07
4.90296e-07
-1.0736e-07
4.9251e-07
-1.01181e-07
4.94644e-07
-9.50499e-08
4.96691e-07
-8.89887e-08
4.98646e-07
-8.30199e-08
5.00502e-07
-7.71648e-08
5.02256e-07
-7.14443e-08
5.03904e-07
-6.58774e-08
5.05446e-07
-6.04818e-08
-5.52731e-08
4.25373e-07
-2.2888e-07
4.28904e-07
-2.35872e-07
4.31693e-07
-2.4155e-07
4.33816e-07
-2.46013e-07
4.35357e-07
-2.49373e-07
4.36397e-07
-2.51742e-07
4.37018e-07
-2.53231e-07
4.37296e-07
-2.53943e-07
4.37302e-07
-2.53975e-07
4.37098e-07
-2.53413e-07
4.36743e-07
-2.52336e-07
4.36286e-07
-2.50811e-07
4.35771e-07
-2.48898e-07
4.35236e-07
-2.46648e-07
4.34714e-07
-2.44106e-07
4.34233e-07
-2.41309e-07
4.33816e-07
-2.38286e-07
4.33485e-07
-2.35064e-07
4.33255e-07
-2.31662e-07
4.33139e-07
-2.28096e-07
4.33149e-07
-2.24378e-07
4.33292e-07
-2.20516e-07
4.33573e-07
-2.16515e-07
4.33996e-07
-2.12377e-07
4.34562e-07
-2.08104e-07
4.35269e-07
-2.03696e-07
4.36115e-07
-1.9915e-07
4.37095e-07
-1.94464e-07
4.38204e-07
-1.89637e-07
4.39433e-07
-1.84668e-07
4.40774e-07
-1.79555e-07
4.42217e-07
-1.74299e-07
4.43752e-07
-1.68903e-07
4.45367e-07
-1.63371e-07
4.47051e-07
-1.57708e-07
4.48791e-07
-1.51923e-07
4.50574e-07
-1.46026e-07
4.52389e-07
-1.40031e-07
4.54223e-07
-1.33951e-07
4.56065e-07
-1.27805e-07
4.57903e-07
-1.21611e-07
4.59727e-07
-1.15389e-07
4.61528e-07
-1.0916e-07
4.63295e-07
-1.02948e-07
4.65021e-07
-9.67759e-08
4.66698e-07
-9.06662e-08
4.68321e-07
-8.46425e-08
4.69883e-07
-7.87272e-08
4.71381e-07
-7.29418e-08
4.7281e-07
-6.73065e-08
4.74168e-07
-6.18398e-08
4.75453e-07
-5.65579e-08
-5.14753e-08
4.43789e-07
-2.30859e-07
4.4498e-07
-2.37062e-07
4.4548e-07
-2.4205e-07
4.45391e-07
-2.45925e-07
4.44813e-07
-2.48795e-07
4.43837e-07
-2.50767e-07
4.42549e-07
-2.51943e-07
4.41025e-07
-2.52418e-07
4.39331e-07
-2.52281e-07
4.37527e-07
-2.51608e-07
4.35661e-07
-2.5047e-07
4.33778e-07
-2.48928e-07
4.31915e-07
-2.47035e-07
4.30102e-07
-2.44836e-07
4.28366e-07
-2.42371e-07
4.2673e-07
-2.39672e-07
4.2521e-07
-2.36766e-07
4.23822e-07
-2.33676e-07
4.22579e-07
-2.30419e-07
4.2149e-07
-2.27007e-07
4.20562e-07
-2.2345e-07
4.19799e-07
-2.19753e-07
4.19206e-07
-2.15921e-07
4.18782e-07
-2.11954e-07
4.18528e-07
-2.0785e-07
4.18442e-07
-2.03609e-07
4.18518e-07
-1.99227e-07
4.18754e-07
-1.947e-07
4.19141e-07
-1.90025e-07
4.19673e-07
-1.85199e-07
4.2034e-07
-1.80222e-07
4.21133e-07
-1.75092e-07
4.22041e-07
-1.69812e-07
4.23054e-07
-1.64384e-07
4.2416e-07
-1.58814e-07
4.25348e-07
-1.5311e-07
4.26605e-07
-1.47283e-07
4.2792e-07
-1.41346e-07
4.29281e-07
-1.35313e-07
4.30677e-07
-1.29201e-07
4.32097e-07
-1.23031e-07
4.33532e-07
-1.16823e-07
4.34971e-07
-1.106e-07
4.36407e-07
-1.04384e-07
4.3783e-07
-9.81991e-08
4.39234e-07
-9.20703e-08
4.40613e-07
-8.60211e-08
4.4196e-07
-8.00748e-08
4.43272e-07
-7.42537e-08
4.44544e-07
-6.85787e-08
4.45774e-07
-6.30692e-08
4.46958e-07
-5.77422e-08
4.48095e-07
-5.26124e-08
-4.76927e-08
4.50039e-07
-2.30904e-07
4.49383e-07
-2.36406e-07
4.48139e-07
-2.40806e-07
4.46417e-07
-2.44203e-07
4.44317e-07
-2.46695e-07
4.41929e-07
-2.48379e-07
4.39332e-07
-2.49346e-07
4.36595e-07
-2.49681e-07
4.33776e-07
-2.49462e-07
4.30925e-07
-2.48758e-07
4.28085e-07
-2.4763e-07
4.25289e-07
-2.46133e-07
4.22569e-07
-2.44314e-07
4.19948e-07
-2.42215e-07
4.17446e-07
-2.39869e-07
4.1508e-07
-2.37306e-07
4.12865e-07
-2.34551e-07
4.10809e-07
-2.31621e-07
4.08924e-07
-2.28533e-07
4.07213e-07
-2.25297e-07
4.05683e-07
-2.2192e-07
4.04337e-07
-2.18407e-07
4.03175e-07
-2.14759e-07
4.02198e-07
-2.10976e-07
4.01403e-07
-2.07056e-07
4.00789e-07
-2.02995e-07
4.00351e-07
-1.98788e-07
4.00083e-07
-1.94432e-07
3.99979e-07
-1.89921e-07
4.00033e-07
-1.85253e-07
4.00234e-07
-1.80424e-07
4.00575e-07
-1.75433e-07
4.01045e-07
-1.70282e-07
4.01634e-07
-1.64973e-07
4.02332e-07
-1.59511e-07
4.03126e-07
-1.53905e-07
4.04007e-07
-1.48164e-07
4.04963e-07
-1.42302e-07
4.05984e-07
-1.36333e-07
4.07058e-07
-1.30276e-07
4.08177e-07
-1.2415e-07
4.0933e-07
-1.17976e-07
4.10508e-07
-1.11778e-07
4.11704e-07
-1.05579e-07
4.12909e-07
-9.94044e-08
4.14117e-07
-9.32784e-08
4.15322e-07
-8.7226e-08
4.16518e-07
-8.12711e-08
4.17701e-07
-7.54369e-08
4.18867e-07
-6.97448e-08
4.20013e-07
-6.42148e-08
4.21135e-07
-5.88646e-08
4.22233e-07
-5.37095e-08
-4.87626e-08
4.46757e-07
-2.29487e-07
4.44762e-07
-2.34411e-07
4.42303e-07
-2.38347e-07
4.39482e-07
-2.41382e-07
4.36392e-07
-2.43604e-07
4.33111e-07
-2.45098e-07
4.29709e-07
-2.45944e-07
4.26244e-07
-2.46216e-07
4.22763e-07
-2.45981e-07
4.19309e-07
-2.45303e-07
4.15913e-07
-2.44234e-07
4.12605e-07
-2.42825e-07
4.09407e-07
-2.41116e-07
4.06337e-07
-2.39145e-07
4.03412e-07
-2.36943e-07
4.00643e-07
-2.34537e-07
3.9804e-07
-2.31948e-07
3.95611e-07
-2.29192e-07
3.93362e-07
-2.26284e-07
3.91298e-07
-2.23232e-07
3.89421e-07
-2.20043e-07
3.87733e-07
-2.16719e-07
3.86235e-07
-2.13261e-07
3.84925e-07
-2.09666e-07
3.83802e-07
-2.05933e-07
3.82862e-07
-2.02055e-07
3.82101e-07
-1.98028e-07
3.81515e-07
-1.93846e-07
3.81097e-07
-1.89503e-07
3.8084e-07
-1.84996e-07
3.80736e-07
-1.8032e-07
3.80777e-07
-1.75474e-07
3.80954e-07
-1.70459e-07
3.81257e-07
-1.65276e-07
3.81676e-07
-1.59931e-07
3.82202e-07
-1.5443e-07
3.82824e-07
-1.48786e-07
3.83532e-07
-1.43009e-07
3.84315e-07
-1.37117e-07
3.85166e-07
-1.31126e-07
3.86073e-07
-1.25057e-07
3.87029e-07
-1.18932e-07
3.88025e-07
-1.12774e-07
3.89053e-07
-1.06608e-07
3.90108e-07
-1.00459e-07
3.91181e-07
-9.43519e-08
3.92268e-07
-8.83131e-08
3.93364e-07
-8.23667e-08
3.94463e-07
-7.65365e-08
3.95563e-07
-7.08446e-08
3.9666e-07
-6.53116e-08
3.97751e-07
-5.99556e-08
3.98834e-07
-5.47924e-08
-4.98354e-08
4.36457e-07
-2.27073e-07
4.33594e-07
-2.31548e-07
4.30384e-07
-2.35136e-07
4.26916e-07
-2.37915e-07
4.2327e-07
-2.39958e-07
4.19512e-07
-2.4134e-07
4.15698e-07
-2.42131e-07
4.11877e-07
-2.42394e-07
4.08087e-07
-2.42191e-07
4.0436e-07
-2.41576e-07
4.00723e-07
-2.40597e-07
3.97198e-07
-2.39299e-07
3.93801e-07
-2.37719e-07
3.90548e-07
-2.35892e-07
3.87449e-07
-2.33844e-07
3.84513e-07
-2.31602e-07
3.81749e-07
-2.29183e-07
3.79162e-07
-2.26605e-07
3.76755e-07
-2.23877e-07
3.74532e-07
-2.21009e-07
3.72495e-07
-2.18006e-07
3.70644e-07
-2.14868e-07
3.6898e-07
-2.11597e-07
3.67502e-07
-2.08188e-07
3.66206e-07
-2.04637e-07
3.65091e-07
-2.0094e-07
3.64152e-07
-1.97089e-07
3.63385e-07
-1.93079e-07
3.62784e-07
-1.88902e-07
3.62343e-07
-1.84554e-07
3.62055e-07
-1.80032e-07
3.61912e-07
-1.75331e-07
3.61905e-07
-1.70452e-07
3.62027e-07
-1.65398e-07
3.62268e-07
-1.60172e-07
3.6262e-07
-1.54782e-07
3.63072e-07
-1.49238e-07
3.63616e-07
-1.43554e-07
3.64243e-07
-1.37744e-07
3.64944e-07
-1.31827e-07
3.65711e-07
-1.25824e-07
3.66536e-07
-1.19756e-07
3.6741e-07
-1.13649e-07
3.68329e-07
-1.07526e-07
3.69284e-07
-1.01414e-07
3.7027e-07
-9.53383e-08
3.71283e-07
-8.93255e-08
3.72317e-07
-8.34005e-08
3.73368e-07
-7.75875e-08
3.74432e-07
-7.19092e-08
3.75507e-07
-6.63866e-08
3.7659e-07
-6.10384e-08
3.77678e-07
-5.58807e-08
-5.0927e-08
4.21354e-07
-2.24068e-07
4.18015e-07
-2.28209e-07
4.14427e-07
-2.31548e-07
4.10665e-07
-2.34153e-07
4.06794e-07
-2.36087e-07
4.02868e-07
-2.37414e-07
3.98932e-07
-2.38195e-07
3.95026e-07
-2.38488e-07
3.91179e-07
-2.38344e-07
3.87417e-07
-2.37814e-07
3.8376e-07
-2.36941e-07
3.80226e-07
-2.35765e-07
3.76827e-07
-2.34321e-07
3.73575e-07
-2.3264e-07
3.70479e-07
-2.30748e-07
3.67545e-07
-2.28667e-07
3.64778e-07
-2.26417e-07
3.62183e-07
-2.2401e-07
3.59763e-07
-2.21457e-07
3.5752e-07
-2.18767e-07
3.55456e-07
-2.15941e-07
3.5357e-07
-2.12983e-07
3.51863e-07
-2.09889e-07
3.50333e-07
-2.06658e-07
3.48979e-07
-2.03283e-07
3.47797e-07
-1.99758e-07
3.46785e-07
-1.96077e-07
3.45938e-07
-1.92232e-07
3.45252e-07
-1.88216e-07
3.4472e-07
-1.84023e-07
3.44337e-07
-1.79648e-07
3.44095e-07
-1.75089e-07
3.43988e-07
-1.70345e-07
3.44007e-07
-1.65417e-07
3.44145e-07
-1.6031e-07
3.44394e-07
-1.55031e-07
3.44745e-07
-1.49589e-07
3.4519e-07
-1.43999e-07
3.45721e-07
-1.38275e-07
3.4633e-07
-1.32436e-07
3.4701e-07
-1.26504e-07
3.47753e-07
-1.205e-07
3.48554e-07
-1.14449e-07
3.49405e-07
-1.08377e-07
3.50301e-07
-1.0231e-07
3.51237e-07
-9.62742e-08
3.52208e-07
-9.02964e-08
3.5321e-07
-8.44023e-08
3.54238e-07
-7.86164e-08
3.55291e-07
-7.29619e-08
3.56365e-07
-6.74602e-08
3.57457e-07
-6.21303e-08
3.58565e-07
-5.69886e-08
-5.20491e-08
4.03261e-07
-2.208e-07
3.99748e-07
-2.24696e-07
3.96061e-07
-2.27862e-07
3.92262e-07
-2.30354e-07
3.88403e-07
-2.32227e-07
3.84527e-07
-2.33538e-07
3.8067e-07
-2.34339e-07
3.76863e-07
-2.34681e-07
3.73131e-07