/*--------------------------------*- C++ -*----------------------------------*\
  =========                 |
  \\      /  F ield         | OpenFOAM: The Open Source CFD Toolbox
   \\    /   O peration     | Website:  https://openfoam.org
    \\  /    A nd           | Version:  6
     \\/     M anipulation  |
\*---------------------------------------------------------------------------*/
FoamFile
{
    version     2.0;
    format      ascii;
    class       volVectorField;
    location    "0.09";
    object      U;
}
// * * * * * * * * * * * * * * * * * * * * * * * * * * * * * * * * * * * * * //

dimensions      [0 1 -1 0 0 0 0];

internalField   nonuniform List<vector> 
3032
(
(-0.301675 -0.0153857 0)
(-0.286754 -0.0162128 -2.11032e-22)
(-0.271005 -0.0169851 -5.2197e-22)
(-0.254487 -0.0177006 -8.4441e-22)
(-0.237268 -0.0183572 0)
(-0.219417 -0.0189536 1.52139e-21)
(-0.201003 -0.0194886 0)
(-0.1821 -0.0199611 -2.23687e-21)
(-0.162781 -0.0203696 -2.60736e-21)
(-0.14312 -0.0207118 0)
(-0.123191 -0.0209834 0)
(-0.10307 -0.0211772 0)
(-0.0828327 -0.0212812 -4.1585e-21)
(-0.0625558 -0.0212756 0)
(-0.0423163 -0.0211326 0)
(-0.0221778 -0.0208237 0)
(-0.00216826 -0.0203411 0)
(0.0177095 -0.0197463 0)
(0.0374155 -0.0191149 0)
(0.0568794 -0.0184679 0)
(0.0760521 -0.0178131 0)
(0.0948935 -0.0171545 5.70891e-21)
(0.113369 -0.0164949 0)
(0.131447 -0.0158363 0)
(0.149098 -0.0151799 -5.62631e-21)
(0.166299 -0.0145272 -5.58424e-21)
(0.183024 -0.0138792 0)
(0.199253 -0.013237 5.48473e-21)
(0.214968 -0.0126016 -5.42907e-21)
(0.23015 -0.0119741 0)
(0.244786 -0.0113552 5.30975e-21)
(0.258862 -0.010746 0)
(0.272368 -0.0101475 0)
(0.285295 -0.00956051 -5.11992e-21)
(0.297636 -0.00898614 0)
(0.309387 -0.00842535 4.99175e-21)
(0.320546 -0.00787918 0)
(0.331113 -0.00734864 -4.86566e-21)
(0.34109 -0.00683476 -4.80405e-21)
(0.350481 -0.0063385 -4.74368e-21)
(0.359294 -0.00586081 -9.36938e-21)
(0.367539 -0.00540255 9.25445e-21)
(0.375226 -0.0049645 0)
(0.382369 -0.00454732 0)
(0.388985 -0.00415155 0)
(0.395092 -0.00377756 8.82815e-21)
(0.400707 -0.00342561 8.73029e-21)
(0.405853 -0.00309575 -8.63593e-21)
(0.410551 -0.00278792 0)
(-0.283699 -0.0326936 -3.63325e-22)
(-0.269195 -0.0343865 1.52399e-22)
(-0.253885 -0.0359209 2.95328e-22)
(-0.237831 -0.0372917 1.12678e-21)
(-0.221095 -0.0384958 -1.00559e-21)
(-0.203743 -0.0395318 -8.35781e-22)
(-0.185844 -0.0403998 0)
(-0.167466 -0.0411017 1.2043e-21)
(-0.148679 -0.0416406 -1.06211e-21)
(-0.129552 -0.0420206 0)
(-0.110152 -0.0422468 0)
(-0.0905426 -0.0423245 0)
(-0.0707857 -0.0422583 2.12843e-21)
(-0.0509367 -0.0420521 0)
(-0.0310453 -0.0417075 -4.65042e-21)
(-0.0111619 -0.0412223 0)
(0.00864086 -0.0405936 -5.21494e-21)
(0.0282826 -0.0398406 0)
(0.047718 -0.0389946 5.56948e-21)
(0.066922 -0.0380759 0)
(0.0858628 -0.0370976 -5.8559e-21)
(0.104506 -0.0360694 2.85343e-21)
(0.122821 -0.0349989 0)
(0.140776 -0.0338927 6.17235e-21)
(0.158345 -0.0327566 3.24265e-21)
(0.175503 -0.0315959 3.27052e-21)
(0.192227 -0.0304154 0)
(0.208498 -0.0292197 3.11051e-21)
(0.224296 -0.0280129 3.32375e-21)
(0.239605 -0.0267991 0)
(0.254411 -0.0255821 -3.33828e-21)
(0.268701 -0.0243656 6.52301e-21)
(0.282463 -0.0231531 0)
(0.295689 -0.0219481 3.33643e-21)
(0.30837 -0.0207542 0)
(0.320501 -0.0195747 -9.8496e-21)
(0.332079 -0.0184132 0)
(0.3431 -0.0172729 9.8066e-21)
(0.353566 -0.0161573 3.29163e-21)
(0.363477 -0.0150694 -3.18989e-21)
(0.372838 -0.0140125 -6.36624e-21)
(0.381654 -0.0129894 6.35055e-21)
(0.389934 -0.0120029 0)
(0.397686 -0.0110554 0)
(0.404923 -0.010149 0)
(0.411657 -0.0092856 -1.9025e-20)
(0.417904 -0.00846661 -6.34438e-21)
(0.423681 -0.00769311 6.31187e-21)
(0.429006 -0.00696573 0)
(-0.264098 -0.052645 6.83162e-22)
(-0.250077 -0.0552924 -2.25398e-22)
(-0.235272 -0.0576777 2.7012e-23)
(-0.219741 -0.0597929 -4.50785e-22)
(-0.203546 -0.0616331 1.94346e-22)
(-0.186754 -0.0631964 -7.33977e-22)
(-0.169429 -0.0644837 0)
(-0.151639 -0.0654987 -1.21162e-21)
(-0.133452 -0.0662475 2.06581e-22)
(-0.114934 -0.0667384 0)
(-0.0961494 -0.0669817 0)
(-0.0771616 -0.0669895 2.16056e-21)
(-0.058029 -0.0667751 0)
(-0.0388064 -0.0663534 0)
(-0.0195445 -0.0657412 -2.63896e-21)
(-0.000294861 -0.0649575 -6.09608e-21)
(0.0188837 -0.0640227 3.41461e-21)
(0.037934 -0.0629518 0)
(0.0568123 -0.0617544 -3.69361e-21)
(0.0754832 -0.0604429 0)
(0.0939117 -0.0590306 -3.56938e-21)
(0.112065 -0.0575298 -4.03818e-21)
(0.129911 -0.0559523 7.93211e-21)
(0.147424 -0.0543084 3.89868e-21)
(0.164576 -0.052608 0)
(0.181346 -0.05086 -8.45254e-21)
(0.197711 -0.0490726 0)
(0.213652 -0.0472534 -1.32249e-20)
(0.229153 -0.0454095 -8.84379e-21)
(0.244198 -0.0435475 -8.94948e-21)
(0.258773 -0.0416738 9.04421e-21)
(0.272865 -0.0397944 -1.3803e-20)
(0.286464 -0.0379151 0)
(0.299561 -0.0360415 0)
(0.312148 -0.0341792 9.32892e-21)
(0.324219 -0.0323336 1.41564e-20)
(0.335769 -0.0305103 0)
(0.346796 -0.0287144 -4.8069e-21)
(0.357299 -0.0269514 0)
(0.367277 -0.0252262 1.435e-20)
(0.376733 -0.0235439 1.21566e-22)
(0.38567 -0.0219093 -1.12616e-22)
(0.394095 -0.0203267 -9.57831e-21)
(0.402014 -0.0188003 0)
(0.409437 -0.0173339 9.59584e-21)
(0.416375 -0.0159307 8.11437e-23)
(0.422839 -0.0145934 0)
(0.428844 -0.0133241 0)
(0.434405 -0.0121245 0)
(-0.24376 -0.0725763 -3.51079e-22)
(-0.230138 -0.0762433 1.65837e-22)
(-0.215751 -0.0795468 -2.20004e-23)
(-0.200657 -0.0824757 0)
(-0.184918 -0.0850232 4.02778e-22)
(-0.1686 -0.0871871 5.94446e-22)
(-0.151769 -0.0889689 -1.31711e-21)
(-0.134492 -0.0903745 9.77412e-22)
(-0.116836 -0.0914128 1.16767e-21)
(-0.0988653 -0.0920964 0)
(-0.0806443 -0.0924403 0)
(-0.0622338 -0.0924619 -1.72847e-21)
(-0.0436919 -0.0921806 0)
(-0.0250732 -0.0916176 0)
(-0.00642969 -0.0907956 4.51206e-21)
(0.012189 -0.089737 4.79788e-21)
(0.0307349 -0.0884658 0)
(0.0491621 -0.0870024 0)
(0.0674297 -0.0853652 0)
(0.0855006 -0.0835731 0)
(0.103341 -0.0816443 5.96045e-21)
(0.120919 -0.0795957 -5.93601e-21)
(0.138208 -0.0774432 -6.32635e-21)
(0.15518 -0.0752011 -1.27787e-20)
(0.171812 -0.0728827 0)
(0.188084 -0.0705002 1.8749e-22)
(0.203976 -0.0680648 0)
(0.219469 -0.0655867 7.0286e-21)
(0.23455 -0.0630755 1.66454e-22)
(0.249202 -0.06054 7.23727e-21)
(0.263414 -0.0579887 -7.32857e-21)
(0.277173 -0.0554294 1.45233e-22)
(0.290471 -0.0528698 0)
(0.303297 -0.0503172 -7.426e-21)
(0.315645 -0.047779 -7.62029e-21)
(0.327508 -0.0452623 -1.52371e-20)
(0.338882 -0.042774 0)
(0.349763 -0.0403212 7.67125e-21)
(0.360149 -0.0379106 0)
(0.370039 -0.0355491 -1.56199e-20)
(0.379435 -0.033243 7.89019e-21)
(0.388339 -0.0309988 -7.92046e-21)
(0.396754 -0.0288222 7.94724e-21)
(0.404688 -0.026719 1.58009e-20)
(0.412146 -0.0246942 -7.99108e-21)
(0.419137 -0.0227522 8.00845e-21)
(0.425672 -0.020897 0)
(0.431763 -0.0191317 -1.59662e-20)
(0.437423 -0.0174587 0)
(-0.221705 -0.0920571 -1.04649e-21)
(-0.208399 -0.0967233 -7.15704e-22)
(-0.194346 -0.100923 -3.80523e-22)
(-0.179607 -0.104642 0)
(-0.164247 -0.107873 -2.97487e-22)
(-0.148333 -0.110613 0)
(-0.131933 -0.112865 2.14016e-21)
(-0.115114 -0.114638 0)
(-0.0979422 -0.115943 -1.64978e-21)
(-0.0804838 -0.1168 0)
(-0.0628009 -0.117227 2.30805e-21)
(-0.0449534 -0.117249 0)
(-0.0269976 -0.116891 0)
(-0.00898675 -0.116181 0)
(0.0090291 -0.115144 0)
(0.0270037 -0.113809 0)
(0.0448936 -0.112205 0)
(0.0626587 -0.110357 0)
(0.080262 -0.108291 4.43534e-21)
(0.0976699 -0.106033 0)
(0.114852 -0.103605 0)
(0.13178 -0.101029 5.1434e-21)
(0.148429 -0.0983247 0)
(0.164776 -0.0955096 5.4551e-21)
(0.180801 -0.0926007 5.46114e-21)
(0.196484 -0.0896131 5.72616e-21)
(0.211808 -0.0865605 0)
(0.226759 -0.0834557 0)
(0.241321 -0.0803104 6.06524e-21)
(0.255482 -0.0771353 -1.20988e-20)
(0.269231 -0.0739406 0)
(0.282558 -0.0707359 1.8798e-20)
(0.295452 -0.0675305 0)
(0.307905 -0.0643332 6.4833e-21)
(0.319911 -0.0611527 0)
(0.331463 -0.0579976 6.60969e-21)
(0.342557 -0.0548764 1.31679e-20)
(0.353188 -0.0517973 -6.71741e-21)
(0.363355 -0.0487686 0)
(0.373054 -0.0457985 6.80894e-21)
(0.382288 -0.0428948 -1.35681e-20)
(0.391057 -0.0400653 0)
(0.399363 -0.0373173 0)
(0.407211 -0.0346576 -1.39018e-20)
(0.414607 -0.0320926 0)
(0.421558 -0.0296281 1.39135e-20)
(0.428072 -0.027269 0)
(0.434159 -0.0250195 1.4092e-20)
(0.439831 -0.022883 0)
(-0.19728 -0.111143 9.77706e-22)
(-0.184212 -0.116781 6.68146e-22)
(-0.170418 -0.121845 3.54928e-22)
(-0.155966 -0.126319 2.02185e-22)
(-0.140923 -0.130194 2.76921e-22)
(-0.125359 -0.133468 0)
(-0.109345 -0.136146 -9.07571e-22)
(-0.0929503 -0.138241 0)
(-0.0762416 -0.139771 1.42352e-22)
(-0.0592841 -0.140757 0)
(-0.0421396 -0.141227 -4.12753e-21)
(-0.0248661 -0.141212 0)
(-0.00751788 -0.140744 2.5727e-21)
(0.00985428 -0.139855 0)
(0.0272042 -0.13858 0)
(0.0444892 -0.136952 6.59838e-21)
(0.0616708 -0.135005 0)
(0.0787134 -0.132772 0)
(0.0955851 -0.130284 -4.03129e-21)
(0.112257 -0.127571 0)
(0.128703 -0.12466 0)
(0.144899 -0.121576 8.86266e-21)
(0.160824 -0.118343 0)
(0.176459 -0.114982 -9.45218e-21)
(0.191786 -0.111512 -4.96154e-21)
(0.20679 -0.107952 0)
(0.221456 -0.104317 1.02044e-20)
(0.235771 -0.100623 0)
(0.249723 -0.0968811 -1.06281e-20)
(0.263302 -0.0931055 2.18124e-20)
(0.276496 -0.0893073 0)
(0.289296 -0.0854975 -1.13257e-20)
(0.301695 -0.0816866 0)
(0.313685 -0.0778846 0)
(0.325258 -0.0741016 -1.16008e-20)
(0.33641 -0.0703472 0)
(0.347134 -0.0666311 -1.19748e-20)
(0.357427 -0.0629627 1.19558e-20)
(0.367287 -0.0593516 0)
(0.37671 -0.0558072 0)
(0.385696 -0.0523385 1.23492e-20)
(0.394245 -0.0489546 -1.23274e-20)
(0.40236 -0.0456639 -1.24047e-20)
(0.410043 -0.0424748 -1.24764e-20)
(0.417298 -0.0393946 0)
(0.424132 -0.0364304 -1.26811e-20)
(0.43055 -0.0335882 -1.26588e-20)
(0.436561 -0.0308732 0)
(0.442176 -0.0282897 0)
(-0.169938 -0.12998 0)
(-0.157041 -0.136558 -9.69576e-22)
(-0.143448 -0.142448 6.54976e-22)
(-0.129231 -0.147632 -1.9464e-22)
(-0.114464 -0.152101 4.74464e-23)
(-0.0992196 -0.155855 0)
(-0.0835725 -0.158904 1.20127e-21)
(-0.0675936 -0.161264 -1.81433e-21)
(-0.0513515 -0.162959 -1.09088e-21)
(-0.0349105 -0.16402 0)
(-0.0183309 -0.164481 1.90435e-21)
(-0.00166898 -0.16438 0)
(0.0150242 -0.163756 -2.422e-21)
(0.0317023 -0.16265 0)
(0.0483234 -0.161103 0)
(0.0648501 -0.159157 -6.19127e-21)
(0.081249 -0.15685 0)
(0.0974902 -0.154221 6.78935e-21)
(0.113547 -0.151306 0)
(0.129397 -0.14814 0)
(0.145017 -0.144753 0)
(0.16039 -0.141175 -1.64149e-20)
(0.175499 -0.137432 -8.40577e-21)
(0.190329 -0.133547 8.83908e-21)
(0.204865 -0.129544 8.92388e-21)
(0.219097 -0.125442 0)
(0.233011 -0.121257 -9.53308e-21)
(0.246598 -0.117007 0)
(0.259849 -0.112707 9.92331e-21)
(0.272753 -0.108369 -1.409e-22)
(0.285302 -0.104006 0)
(0.297489 -0.0996313 0)
(0.309305 -0.0952552 1.04328e-20)
(0.320745 -0.0908889 0)
(0.331801 -0.0865434 1.08176e-20)
(0.342468 -0.0822292 0)
(0.352741 -0.0779569 -1.09353e-20)
(0.362615 -0.0737371 -1.11441e-20)
(0.372088 -0.0695802 0)
(0.381157 -0.0654968 0)
(0.389819 -0.061497 0)
(0.398075 -0.057591 1.14872e-20)
(0.405926 -0.0537884 1.1559e-20)
(0.413372 -0.0500985 1.16257e-20)
(0.420417 -0.0465302 0)
(0.427065 -0.0430913 0)
(0.433322 -0.0397891 1.17967e-20)
(0.439195 -0.0366298 1.17853e-20)
(0.444691 -0.0336185 0)
(0.449821 -0.0307592 0)
(-0.139151 -0.148671 0)
(-0.126378 -0.156147 3.17079e-21)
(-0.112947 -0.162812 -2.21954e-21)
(-0.0989385 -0.168647 0)
(-0.0844309 -0.173645 2.49063e-22)
(-0.0695038 -0.177808 0)
(-0.0542339 -0.181153 -1.17937e-21)
(-0.0386944 -0.183703 1.7789e-21)
(-0.0229541 -0.185491 2.36677e-21)
(-0.00707677 -0.186556 0)
(0.00887954 -0.186941 0)
(0.0248625 -0.186692 0)
(0.0408256 -0.185858 -4.27972e-21)
(0.0567275 -0.184488 0)
(0.0725324 -0.182631 5.17648e-21)
(0.0882089 -0.180334 0)
(0.10373 -0.177645 0)
(0.119072 -0.174605 -6.49639e-21)
(0.134215 -0.171256 0)
(0.149142 -0.167636 0)
(0.163836 -0.163781 0)
(0.178286 -0.159721 1.53606e-20)
(0.192478 -0.155487 8.01843e-21)
(0.206404 -0.151103 0)
(0.220052 -0.146593 -1.34086e-22)
(0.233414 -0.141979 0)
(0.246482 -0.13728 8.79977e-21)
(0.259248 -0.132512 -8.99473e-21)
(0.271705 -0.12769 9.17726e-21)
(0.283845 -0.122831 -9.46657e-21)
(0.295663 -0.117945 0)
(0.307149 -0.113047 9.65797e-21)
(0.3183 -0.108148 -1.07442e-22)
(0.329107 -0.10326 0)
(0.339566 -0.0983942 0)
(0.34967 -0.0935617 1.01684e-20)
(0.359415 -0.0887741 1.03688e-20)
(0.368796 -0.0840427 1.03784e-20)
(0.377809 -0.0793788 1.04738e-20)
(0.386451 -0.0747937 -1.05632e-20)
(0.39472 -0.0702987 0)
(0.402615 -0.0659049 0)
(0.410134 -0.0616231 0)
(0.417279 -0.0574636 0)
(0.424051 -0.0534363 -2.18647e-20)
(0.430453 -0.0495502 0)
(0.43649 -0.0458135 0)
(0.442167 -0.0422335 -3.33472e-20)
(0.447491 -0.0388162 0)
(0.452469 -0.0355664 2.23748e-20)
(-0.104388 -0.16729 3.17405e-21)
(-0.0917136 -0.175606 -4.73558e-21)
(-0.0784345 -0.182977 1.58002e-21)
(-0.0646369 -0.189385 1.18093e-21)
(-0.0504074 -0.194824 -8.19658e-22)
(-0.0358299 -0.199307 0)
(-0.0209842 -0.202856 0)
(-0.00594505 -0.205505 0)
(0.00921973 -0.207296 0)
(0.024449 -0.208278 -2.52215e-21)
(0.0396888 -0.208507 0)
(0.054892 -0.208039 0)
(0.0700182 -0.206933 4.17205e-21)
(0.0850331 -0.205246 0)
(0.0999078 -0.203035 -9.94246e-21)
(0.114619 -0.200355 0)
(0.129146 -0.197257 5.68057e-21)
(0.143473 -0.193791 0)
(0.157587 -0.190002 0)
(0.171477 -0.185931 0)
(0.185134 -0.181615 0)
(0.198551 -0.17709 -7.36466e-21)
(0.211721 -0.172385 0)
(0.224638 -0.167528 -7.74386e-21)
(0.237296 -0.162544 -1.14095e-22)
(0.249691 -0.157453 0)
(0.261817 -0.152276 -8.489e-21)
(0.27367 -0.14703 8.67197e-21)
(0.285244 -0.141731 -8.84293e-21)
(0.296534 -0.136393 0)
(0.307535 -0.131029 0)
(0.31824 -0.125654 -1.8486e-20)
(0.328645 -0.120277 -9.42174e-21)
(0.338743 -0.114912 0)
(0.348529 -0.109571 0)
(0.357997 -0.104265 -2.91245e-20)
(0.367143 -0.099005 0)
(0.375961 -0.0938043 -2.97179e-20)
(0.384447 -0.0886744 -1.00456e-20)
(0.392597 -0.0836275 1.01278e-20)
(0.400409 -0.0786756 2.02728e-20)
(0.407879 -0.0738308 0)
(0.415006 -0.0691048 0)
(0.421791 -0.064509 0)
(0.428233 -0.0600541 1.12927e-22)
(0.434334 -0.0557505 -2.09345e-20)
(0.440098 -0.0516072 0)
(0.445528 -0.0476325 9.64647e-23)
(0.450628 -0.0438333 0)
(0.455407 -0.0402155 -2.14003e-20)
(0.459871 -0.0367831 -2.13897e-20)
(-0.065108 -0.185875 2.9542e-22)
(-0.0525402 -0.194951 -2.70553e-22)
(-0.0394368 -0.202936 -2.12651e-21)
(-0.0258928 -0.209814 -1.20163e-21)
(-0.0120014 -0.215588 1.26835e-21)
(0.00214905 -0.220278 0)
(0.0164776 -0.223918 0)
(0.0309105 -0.226553 0)
(0.0453826 -0.228242 -1.799e-21)
(0.0598377 -0.229045 1.34952e-22)
(0.0742281 -0.22903 0)
(0.088514 -0.228266 0)
(0.102663 -0.22682 0)
(0.11665 -0.224761 0)
(0.130454 -0.222152 1.09648e-22)
(0.14406 -0.219056 0)
(0.157457 -0.21553 -1.10492e-20)
(0.170636 -0.211626 0)
(0.183593 -0.207394 0)
(0.196322 -0.202878 0)
(0.208823 -0.198117 0)
(0.221092 -0.193147 0)
(0.233128 -0.187999 7.22885e-21)
(0.244931 -0.182701 1.50197e-20)
(0.256498 -0.177277 -7.77483e-21)
(0.267828 -0.17175 0)
(0.27892 -0.166138 -1.61332e-20)
(0.28977 -0.160459 1.64867e-20)
(0.300375 -0.154729 0)
(0.310732 -0.14896 -1.71269e-20)
(0.320836 -0.143167 1.74165e-20)
(0.330683 -0.137363 2.66176e-20)
(0.340268 -0.131558 0)
(0.349585 -0.125765 0)
(0.358629 -0.119996 0)
(0.367395 -0.114263 1.87633e-20)
(0.375876 -0.108578 1.88078e-20)
(0.384068 -0.102952 3.81249e-20)
(0.391966 -0.0974001 0)
(0.399565 -0.0919335 -1.93275e-20)
(0.406861 -0.0865653 -1.24523e-22)
(0.41385 -0.0813084 -1.96233e-20)
(0.420532 -0.0761754 -1.97577e-20)
(0.426903 -0.0711787 0)
(0.432963 -0.0663301 4.01067e-20)
(0.438713 -0.0616407 4.03215e-20)
(0.444155 -0.0571209 0)
(0.449291 -0.0527796 2.03977e-20)
(0.454124 -0.048625 0)
(0.45866 -0.0446635 0)
(0.462905 -0.0409002 2.06256e-20)
(-0.0207826 -0.204416 -3.65779e-21)
(-0.00836848 -0.214144 -2.50057e-22)
(0.00448844 -0.222623 2.17877e-21)
(0.0176861 -0.229842 -1.64689e-21)
(0.0311264 -0.235814 1.76863e-22)
(0.0447195 -0.240575 0)
(0.0583852 -0.244172 0)
(0.0720541 -0.24667 1.07937e-21)
(0.0856671 -0.248139 1.79545e-21)
(0.0991759 -0.248658 2.35123e-21)
(0.112542 -0.248307 2.77317e-21)
(0.125735 -0.247166 0)
(0.138733 -0.245316 0)
(0.151521 -0.242833 0)
(0.164089 -0.239789 4.67583e-21)
(0.176431 -0.236251 0)
(0.188545 -0.232281 8.84173e-23)
(0.200431 -0.227937 5.66063e-21)
(0.212092 -0.223269 -5.97273e-21)
(0.22353 -0.218322 0)
(0.234749 -0.213138 1.30729e-20)
(0.245753 -0.207752 -1.35813e-20)
(0.256546 -0.202195 -2.11728e-20)
(0.26713 -0.196496 -2.18379e-20)
(0.277507 -0.190676 0)
(0.28768 -0.184759 0)
(0.297648 -0.178761 1.58349e-20)
(0.307411 -0.1727 -1.61707e-20)
(0.316967 -0.16659 0)
(0.326315 -0.160444 1.67763e-20)
(0.33545 -0.154274 -1.70492e-20)
(0.344369 -0.148094 -1.73041e-20)
(0.353068 -0.141913 0)
(0.36154 -0.135744 0)
(0.36978 -0.129599 -1.78291e-20)
(0.377783 -0.123489 0)
(0.385542 -0.117426 -1.83491e-20)
(0.393052 -0.111424 -1.85196e-20)
(0.400307 -0.105496 -1.85547e-20)
(0.407301 -0.0996536 1.8829e-20)
(0.41403 -0.0939117 -1.89693e-20)
(0.42049 -0.0882836 1.91008e-20)
(0.426676 -0.0827829 3.83419e-20)
(0.432586 -0.0774227 0)
(0.438219 -0.0722159 -1.94466e-20)
(0.443574 -0.0671746 -1.95468e-20)
(0.44865 -0.06231 0)
(0.45345 -0.0576323 0)
(0.457975 -0.0531504 0)
(0.46223 -0.0488718 1.98022e-20)
(0.466218 -0.0448022 0)
(0.0290706 -0.222847 0)
(0.0412314 -0.233078 -2.1418e-22)
(0.0537142 -0.241891 0)
(0.0664116 -0.249287 3.48938e-21)
(0.0792253 -0.255296 -9.26284e-22)
(0.0920678 -0.25997 0)
(0.104865 -0.263377 0)
(0.117555 -0.265599 -1.085e-21)
(0.13009 -0.266726 1.59541e-21)
(0.142433 -0.266854 0)
(0.154557 -0.266076 -2.77803e-21)
(0.166446 -0.264486 -3.19933e-21)
(0.178089 -0.262175 0)
(0.189484 -0.259226 0)
(0.200631 -0.25572 0)
(0.211535 -0.251727 0)
(0.222203 -0.247313 5.30256e-21)
(0.232643 -0.242538 -5.62985e-21)
(0.242866 -0.237452 5.93478e-21)
(0.252881 -0.232102 -1.22862e-20)
(0.262696 -0.226529 -2.57804e-20)
(0.272322 -0.220767 1.34598e-20)
(0.281765 -0.214846 1.3919e-20)
(0.291032 -0.208793 1.43468e-20)
(0.300128 -0.20263 0)
(0.309057 -0.196376 0)
(0.317822 -0.190048 0)
(0.326423 -0.183662 0)
(0.33486 -0.177229 -1.59346e-20)
(0.343131 -0.170763 0)
(0.351234 -0.164274 0)
(0.359164 -0.157775 0)
(0.366918 -0.151274 1.696e-20)
(0.37449 -0.144785 0)
(0.381873 -0.138317 1.32711e-22)
(0.389061 -0.131883 0)
(0.396049 -0.125494 1.77464e-20)
(0.402828 -0.119165 0)
(0.409393 -0.112908 1.81859e-20)
(0.415737 -0.106736 0)
(0.421855 -0.100665 0)
(0.42774 -0.0947089 0)
(0.433389 -0.0888813 -1.87041e-20)
(0.438798 -0.0831967 0)
(0.443963 -0.0776689 0)
(0.448883 -0.0723109 -1.89235e-20)
(0.453556 -0.0671351 -1.90158e-20)
(0.457984 -0.0621527 -1.91016e-20)
(0.462165 -0.0573733 0)
(0.466104 -0.0528055 -7.28495e-23)
(0.469803 -0.0484559 0)
(0.0848338 -0.241009 0)
(0.0965741 -0.251549 -1.65289e-22)
(0.108483 -0.260498 -2.79503e-21)
(0.120453 -0.267875 -1.85147e-21)
(0.132392 -0.273731 0)
(0.144221 -0.278141 -4.34404e-22)
(0.155878 -0.281197 0)
(0.167317 -0.283003 0)
(0.178503 -0.283668 -1.60828e-21)
(0.189417 -0.283305 4.25327e-21)
(0.200048 -0.282022 0)
(0.210393 -0.279925 3.21464e-21)
(0.220456 -0.277113 0)
(0.230248 -0.273677 0)
(0.239779 -0.269701 0)
(0.249066 -0.265259 0)
(0.258123 -0.260419 0)
(0.266968 -0.255239 0)
(0.275615 -0.249771 -1.15717e-20)
(0.284082 -0.24406 1.22514e-20)
(0.29238 -0.238146 1.27664e-20)
(0.300523 -0.23206 1.31095e-20)
(0.308522 -0.225831 -1.35522e-20)
(0.316386 -0.219483 0)
(0.324121 -0.213036 0)
(0.331733 -0.206508 0)
(0.339227 -0.199913 0)
(0.346602 -0.193263 1.5351e-20)
(0.353861 -0.186571 1.57809e-20)
(0.361 -0.179847 -1.59125e-20)
(0.368018 -0.173101 1.61656e-20)
(0.374911 -0.166343 0)
(0.381673 -0.159583 -3.3377e-20)
(0.388298 -0.15283 0)
(0.394781 -0.146096 1.71476e-20)
(0.401113 -0.139393 1.72043e-20)
(0.407287 -0.132732 -3.48648e-20)
(0.413297 -0.126127 0)
(0.419133 -0.119591 0)
(0.424789 -0.113138 -1.78209e-20)
(0.430258 -0.106784 1.79517e-20)
(0.435534 -0.100543 -1.80744e-20)
(0.44061 -0.0944308 1.81893e-20)
(0.445482 -0.0884621 0)
(0.450146 -0.0826517 0)
(0.454597 -0.0770138 8.38298e-23)
(0.458835 -0.0715616 1.86591e-20)
(0.462858 -0.0663073 7.68842e-23)
(0.466666 -0.0612617 0)
(0.470259 -0.0564341 -7.02345e-23)
(0.47364 -0.0518322 -1.88679e-20)
(0.146697 -0.258643 0)
(0.157765 -0.269243 3.71778e-21)
(0.168813 -0.278084 2.84155e-21)
(0.179744 -0.285212 0)
(0.190481 -0.290705 0)
(0.200963 -0.294665 4.4024e-22)
(0.211149 -0.29721 0)
(0.221013 -0.298468 0)
(0.230541 -0.298567 0)
(0.239733 -0.297635 -4.29286e-21)
(0.248596 -0.295794 0)
(0.257144 -0.293158 0)
(0.265396 -0.289832 -7.23674e-21)
(0.273374 -0.285913 0)
(0.2811 -0.281485 -8.87721e-21)
(0.288598 -0.276624 0)
(0.295892 -0.271396 0)
(0.303004 -0.26586 0)
(0.309956 -0.260064 1.15862e-20)
(0.316765 -0.254052 1.20175e-20)
(0.32345 -0.247859 -1.25143e-20)
(0.330025 -0.241515 -1.19542e-22)
(0.336502 -0.235046 1.35271e-20)
(0.342893 -0.228472 0)
(0.349205 -0.221811 0)
(0.355444 -0.215078 0)
(0.361615 -0.208284 0)
(0.367718 -0.201441 -1.52687e-20)
(0.373754 -0.194557 -1.54176e-20)
(0.379721 -0.187642 1.58067e-20)
(0.385616 -0.180704 -1.60481e-20)
(0.391434 -0.173751 -1.61478e-20)
(0.397169 -0.166792 1.64825e-20)
(0.402815 -0.159837 0)
(0.408364 -0.152896 0)
(0.413808 -0.14598 -1.14488e-22)
(0.419139 -0.139101 1.11308e-22)
(0.424347 -0.132273 -1.72285e-20)
(0.429425 -0.125509 1.73702e-20)
(0.434364 -0.118823 1.01216e-22)
(0.439155 -0.112233 -1.7725e-20)
(0.443792 -0.105753 3.55815e-20)
(0.448267 -0.0993986 -1.79434e-20)
(0.452574 -0.0931869 0)
(0.456708 -0.0871334 -1.80495e-20)
(0.460664 -0.081253 1.82191e-20)
(0.46444 -0.0755601 0)
(0.468032 -0.0700678 1.83718e-20)
(0.47144 -0.0647881 0)
(0.474662 -0.0597312 1.83653e-20)
(0.4777 -0.0549055 -1.84283e-20)
(0.480555 -0.0503176 0)
(0.214526 -0.275363 -9.78135e-21)
(0.224568 -0.285716 0)
(0.234374 -0.294168 -5.97952e-21)
(0.24387 -0.300796 0)
(0.253006 -0.30571 0)
(0.261751 -0.309042 -9.57272e-22)
(0.27009 -0.310935 0)
(0.278024 -0.311539 1.87329e-21)
(0.285566 -0.310998 -3.13669e-21)
(0.292736 -0.309454 0)
(0.299559 -0.307036 -5.38295e-21)
(0.306068 -0.303865 -6.37733e-21)
(0.312292 -0.300047 7.31756e-21)
(0.318266 -0.295681 0)
(0.32402 -0.290849 1.78815e-20)
(0.329585 -0.285626 0)
(0.33499 -0.280076 0)
(0.340261 -0.274253 -1.09114e-20)
(0.345422 -0.268203 0)
(0.350494 -0.261964 -9.27267e-23)
(0.355495 -0.25557 1.25855e-20)
(0.360441 -0.249047 -1.05209e-22)
(0.365345 -0.242415 0)
(0.370218 -0.235693 0)
(0.375067 -0.228895 0)
(0.379898 -0.222033 0)
(0.384713 -0.215116 -1.47462e-20)
(0.389515 -0.208151 0)
(0.394303 -0.201148 1.5428e-20)
(0.399073 -0.194111 0)
(0.403821 -0.187048 0)
(0.408543 -0.179965 1.61309e-20)
(0.41323 -0.172872 1.62166e-20)
(0.417876 -0.165776 0)
(0.422471 -0.158686 0)
(0.427007 -0.151615 -1.68615e-20)
(0.431473 -0.144574 3.39214e-20)
(0.43586 -0.137575 1.03817e-22)
(0.440159 -0.130634 -1.72891e-20)
(0.444359 -0.123765 1.7413e-20)
(0.448452 -0.116986 -1.74341e-20)
(0.452429 -0.110311 -1.76364e-20)
(0.456281 -0.103759 -1.76488e-20)
(0.460002 -0.0973461 0)
(0.463585 -0.091089 5.35899e-20)
(0.467025 -0.0850041 3.58403e-20)
(0.470317 -0.0791066 0)
(0.473457 -0.0734109 0)
(0.476443 -0.0679298 0)
(0.479274 -0.0626746 -7.29309e-20)
(0.481949 -0.0576546 3.66398e-20)
(0.484468 -0.0528772 -3.66149e-20)
(0.289762 -0.290987 1.89528e-20)
(0.298271 -0.300724 0)
(0.306311 -0.308463 5.83007e-21)
(0.313849 -0.314319 0)
(0.320875 -0.318434 0)
(0.327396 -0.320969 9.32774e-22)
(0.333435 -0.32209 0)
(0.339023 -0.321961 -1.82462e-21)
(0.344199 -0.32074 6.2028e-21)
(0.349005 -0.318573 0)
(0.353486 -0.315594 1.05363e-20)
(0.357684 -0.311923 6.20665e-21)
(0.361644 -0.307667 0)
(0.365405 -0.302917 0)
(0.369005 -0.297756 -8.67317e-21)
(0.372478 -0.292252 0)
(0.375854 -0.286464 0)
(0.379162 -0.280441 1.06041e-20)
(0.382426 -0.274225 -1.1085e-20)
(0.385666 -0.26785 -1.16566e-20)
(0.3889 -0.261343 -1.20395e-20)
(0.392144 -0.254727 -2.50219e-20)
(0.395408 -0.248019 -1.28596e-20)
(0.398703 -0.241233 0)
(0.402035 -0.23438 0)
(0.405408 -0.227468 0)
(0.408824 -0.220505 1.42925e-20)
(0.412282 -0.213494 -1.44547e-20)
(0.41578 -0.206442 0)
(0.419315 -0.199353 0)
(0.422881 -0.192232 0)
(0.42647 -0.185086 0)
(0.430075 -0.177919 -1.12605e-22)
(0.433687 -0.170742 0)
(0.437295 -0.163561 0)
(0.44089 -0.156389 0)
(0.44446 -0.149237 -3.25756e-20)
(0.447994 -0.142118 1.01362e-22)
(0.451482 -0.135048 0)
(0.454912 -0.128041 3.32524e-20)
(0.458276 -0.121116 1.68328e-20)
(0.461562 -0.114288 0)
(0.464762 -0.107577 5.09257e-20)
(0.467867 -0.101001 0)
(0.47087 -0.0945757 -3.44154e-20)
(0.473764 -0.0883201 -3.45723e-20)
(0.476544 -0.0822504 3.45679e-20)
(0.479205 -0.0763819 0)
(0.481743 -0.0707284 0)
(0.484157 -0.0653023 3.50945e-20)
(0.486444 -0.060114 0)
(0.488603 -0.0551716 3.52989e-20)
(0.36775 -0.303901 -1.00644e-20)
(0.374208 -0.312663 -7.6777e-21)
(0.37999 -0.31941 0)
(0.385116 -0.324291 0)
(0.389626 -0.327475 0)
(0.393571 -0.329143 0)
(0.397008 -0.329473 0)
(0.399998 -0.328637 0)
(0.402605 -0.326793 -6.84523e-21)
(0.404887 -0.324086 -4.65765e-21)
(0.406902 -0.320647 -1.1335e-20)
(0.408703 -0.31659 0)
(0.410338 -0.312014 0)
(0.411851 -0.307006 0)
(0.41328 -0.301641 0)
(0.41466 -0.295981 -9.85794e-21)
(0.416021 -0.290077 0)
(0.41739 -0.283975 -1.10827e-20)
(0.418787 -0.27771 1.16705e-20)
(0.420233 -0.27131 0)
(0.421742 -0.264799 6.76903e-23)
(0.423328 -0.258195 2.60932e-20)
(0.424999 -0.251511 2.68876e-20)
(0.426762 -0.244757 0)
(0.428623 -0.237942 1.41047e-20)
(0.430583 -0.231069 0)
(0.432642 -0.224144 0)
(0.434797 -0.21717 1.50806e-20)
(0.437046 -0.210149 -1.52292e-20)
(0.439383 -0.203084 0)
(0.4418 -0.195979 0)
(0.444289 -0.188838 0)
(0.44684 -0.181668 -1.02564e-22)
(0.449443 -0.174474 0)
(0.452088 -0.167266 0)
(0.454762 -0.160054 -1.6553e-20)
(0.457453 -0.152851 1.67884e-20)
(0.460149 -0.145669 5.05614e-20)
(0.462839 -0.138524 0)
(0.46551 -0.131433 -6.83998e-20)
(0.468152 -0.124413 3.43199e-20)
(0.470753 -0.117483 0)
(0.473304 -0.110661 -3.48553e-20)
(0.475795 -0.103966 0)
(0.478219 -0.0974182 0)
(0.480567 -0.091035 0)
(0.482833 -0.0848342 -1.408e-22)
(0.485011 -0.0788323 0)
(0.487098 -0.0730444 0)
(0.489089 -0.0674837 -3.5623e-20)
(0.490982 -0.0621616 0)
(0.492775 -0.0570871 0)
(0.440458 -0.312834 -9.67719e-21)
(0.444571 -0.320449 4.89084e-22)
(0.447876 -0.326117 -5.56735e-21)
(0.450449 -0.330006 3.68802e-21)
(0.452372 -0.332303 -1.93428e-21)
(0.453733 -0.333192 0)
(0.454618 -0.332852 0)
(0.455108 -0.33145 0)
(0.45528 -0.329138 3.65763e-21)
(0.455205 -0.326052 -1.65483e-22)
(0.454944 -0.322314 5.96627e-21)
(0.454552 -0.318029 0)
(0.45408 -0.313287 0)
(0.453568 -0.308168 8.80863e-21)
(0.453055 -0.302737 9.56529e-21)
(0.452571 -0.29705 -1.2629e-23)
(0.452144 -0.291154 0)
(0.451796 -0.285087 2.2982e-20)
(0.451546 -0.278878 1.20188e-20)
(0.45141 -0.272554 0)
(0.4514 -0.266131 1.30233e-20)
(0.451526 -0.259626 -2.68394e-20)
(0.451794 -0.253048 -1.38455e-20)
(0.452209 -0.246403 -1.41319e-20)
(0.452773 -0.239698 -1.45432e-20)
(0.453486 -0.232935 0)
(0.454347 -0.226116 1.50478e-20)
(0.455351 -0.219241 0)
(0.456493 -0.212313 1.56418e-20)
(0.457766 -0.205332 0)
(0.459161 -0.1983 -1.59784e-20)
(0.460669 -0.191222 -1.61693e-20)
(0.462279 -0.184102 -9.30191e-23)
(0.463979 -0.176946 0)
(0.465758 -0.169764 -1.66598e-20)
(0.467603 -0.162565 1.68885e-20)
(0.4695 -0.155361 0)
(0.471438 -0.148167 -1.71318e-22)
(0.473403 -0.140998 3.43131e-20)
(0.475383 -0.133871 3.46784e-20)
(0.477366 -0.126805 -3.48604e-20)
(0.479341 -0.119819 0)
(0.481296 -0.112932 -3.50313e-20)
(0.483222 -0.106166 0)
(0.485111 -0.0995394 0)
(0.486953 -0.0930721 -3.54302e-20)
(0.488741 -0.0867829 -3.56714e-20)
(0.49047 -0.0806892 0)
(0.492135 -0.074807 3.57307e-20)
(0.49373 -0.0691506 7.17399e-20)
(0.495253 -0.0637321 0)
(0.496702 -0.0585616 0)
(0.498074 -0.0536465 0)
(0.506358 -0.318013 1.9461e-20)
(0.507978 -0.324462 7.85954e-21)
(0.508749 -0.329092 5.77898e-21)
(0.50879 -0.332083 -7.17561e-21)
(0.508215 -0.333617 2.00592e-21)
(0.507137 -0.333873 0)
(0.505655 -0.333021 0)
(0.503864 -0.331216 -2.94531e-21)
(0.501844 -0.328597 0)
(0.499666 -0.325289 1.05945e-20)
(0.497394 -0.3214 6.46311e-21)
(0.495079 -0.317027 0)
(0.492768 -0.312249 0)
(0.490498 -0.307138 -1.82687e-20)
(0.488303 -0.301752 -9.87756e-21)
(0.486209 -0.29614 1.05881e-20)
(0.484239 -0.290343 0)
(0.482412 -0.284395 -1.18341e-20)
(0.480742 -0.278321 -1.23798e-20)
(0.479243 -0.272143 0)
(0.477922 -0.265875 0)
(0.476788 -0.259529 1.37595e-20)
(0.475843 -0.253114 -1.40854e-20)
(0.47509 -0.246632 1.45006e-20)
(0.47453 -0.240088 0)
(0.474159 -0.233482 0)
(0.473976 -0.226813 -7.88398e-23)
(0.473974 -0.220082 0)
(0.474146 -0.213288 1.58042e-20)
(0.474485 -0.206432 -1.6017e-20)
(0.47498 -0.199514 1.62975e-20)
(0.475622 -0.192537 8.47666e-23)
(0.476398 -0.185506 -3.32025e-20)
(0.477297 -0.178427 0)
(0.478305 -0.171307 1.69344e-20)
(0.479409 -0.164158 0)
(0.480596 -0.156992 0)
(0.481852 -0.149822 -3.45696e-20)
(0.483164 -0.142665 -3.47639e-20)
(0.484519 -0.135539 0)
(0.485905 -0.128463 -3.49561e-20)
(0.487309 -0.121457 3.51064e-20)
(0.488722 -0.114542 3.53813e-20)
(0.490131 -0.107739 0)
(0.491528 -0.101068 0)
(0.492905 -0.0945509 7.12859e-20)
(0.494253 -0.0882067 0)
(0.495567 -0.0820539 0)
(0.49684 -0.0761094 -3.59347e-20)
(0.498067 -0.0703883 -3.59924e-20)
(0.499246 -0.0649036 0)
(0.500372 -0.059666 -3.59818e-20)
(0.501443 -0.0546837 -3.602e-20)
(0.502458 -0.0499627 -9.3168e-23)
(0.564566 -0.319865 -7.33301e-22)
(0.563718 -0.325249 0)
(0.562063 -0.328979 0)
(0.559743 -0.331228 6.36661e-21)
(0.556893 -0.332166 1.1781e-21)
(0.553631 -0.331959 -4.40019e-22)
(0.550064 -0.33076 0)
(0.546286 -0.328708 3.02398e-21)
(0.542374 -0.325928 0)
(0.538398 -0.322531 -5.53306e-21)
(0.534414 -0.318615 -6.63226e-21)
(0.530469 -0.314263 0)
(0.526604 -0.30955 0)
(0.522852 -0.304536 9.40002e-21)
(0.519239 -0.299275 0)
(0.515789 -0.29381 0)
(0.512518 -0.288177 0)
(0.509443 -0.282405 0)
(0.506574 -0.276518 1.26286e-20)
(0.503921 -0.270533 -1.31095e-20)
(0.501488 -0.264463 1.35502e-20)
(0.499282 -0.258317 0)
(0.497303 -0.252099 5.17255e-23)
(0.495551 -0.245814 0)
(0.494026 -0.239462 1.49765e-20)
(0.492723 -0.233042 -1.52626e-20)
(0.491639 -0.226553 -1.55954e-20)
(0.490765 -0.219993 0)
(0.490096 -0.21336 -1.60618e-20)
(0.48962 -0.206655 1.62658e-20)
(0.489329 -0.199876 0)
(0.489211 -0.193027 7.67825e-23)
(0.489254 -0.18611 7.66787e-23)
(0.489445 -0.179133 0)
(0.48977 -0.172102 0)