/*--------------------------------*- C++ -*----------------------------------*\
  =========                 |
  \\      /  F ield         | OpenFOAM: The Open Source CFD Toolbox
   \\    /   O peration     | Website:  https://openfoam.org
    \\  /    A nd           | Version:  6
     \\/     M anipulation  |
\*---------------------------------------------------------------------------*/
FoamFile
{
    version     2.0;
    format      ascii;
    class       volScalarField;
    location    "0.01";
    object      epsilon;
}
// * * * * * * * * * * * * * * * * * * * * * * * * * * * * * * * * * * * * * //

dimensions      [0 2 -3 0 0 0 0];

internalField   nonuniform List<scalar> 
3081
(
18.9746
18.9795
18.9844
18.9895
18.9948
19.0001
19.0058
19.0122
19.0188
19.0255
19.0323
19.039
19.0458
19.0526
19.0594
19.0664
19.0734
19.0805
19.0876
19.0948
19.1022
19.1096
19.1171
19.1247
19.1323
19.1401
19.148
19.156
19.164
19.1722
19.1805
19.1888
19.1973
19.2059
19.2145
19.2233
19.2322
19.2411
19.2502
19.2593
19.2686
19.2779
19.2873
19.2968
19.3064
19.3161
19.3258
19.3357
19.3456
19.3556
19.3657
19.3759
19.3862
19.3966
19.4071
19.4177
19.4285
11.301
11.3027
11.3044
11.3062
11.3079
11.3096
11.3115
11.3135
11.3156
11.3178
11.3199
11.3221
11.3242
11.3264
11.3285
11.3306
11.3328
11.3349
11.3371
11.3392
11.3414
11.3435
11.3457
11.3479
11.3501
11.3524
11.3546
11.3568
11.3591
11.3614
11.3637
11.366
11.3684
11.3707
11.3731
11.3755
11.3779
11.3803
11.3828
11.3853
11.3878
11.3903
11.3929
11.3954
11.398
11.4007
11.4033
11.406
11.4086
11.4114
11.4141
11.4169
11.4196
11.4225
11.4253
11.4282
11.431
9.80031
9.80198
9.80365
9.80531
9.80697
9.80862
9.8103
9.81203
9.81382
9.81563
9.81746
9.81929
9.82111
9.82294
9.82477
9.82659
9.82841
9.83023
9.83206
9.83388
9.8357
9.83753
9.83936
9.8412
9.84304
9.84488
9.84673
9.84859
9.85046
9.85233
9.85422
9.85611
9.85802
9.85993
9.86186
9.8638
9.86576
9.86772
9.86971
9.8717
9.87371
9.87574
9.87778
9.87984
9.88192
9.88401
9.88612
9.88825
9.8904
9.89256
9.89474
9.89694
9.89916
9.9014
9.90365
9.90593
9.90822
9.05708
9.05877
9.06044
9.06211
9.06377
9.06542
9.06709
9.06879
9.07052
9.07227
9.07404
9.07581
9.07759
9.07937
9.08116
9.08294
9.08473
9.08652
9.08831
9.0901
9.09189
9.09369
9.09549
9.09729
9.0991
9.10091
9.10273
9.10456
9.1064
9.10824
9.11009
9.11196
9.11383
9.11571
9.11761
9.11951
9.12143
9.12337
9.12531
9.12728
9.12925
9.13125
9.13326
9.13528
9.13732
9.13938
9.14146
9.14356
9.14567
9.1478
9.14995
9.15212
9.15431
9.15651
9.15874
9.16098
9.16324
8.59183
8.59336
8.59488
8.5964
8.5979
8.5994
8.60092
8.60246
8.60402
8.6056
8.60719
8.60879
8.6104
8.61202
8.61365
8.61527
8.61691
8.61854
8.62018
8.62182
8.62346
8.62511
8.62676
8.62842
8.63008
8.63175
8.63343
8.63512
8.63681
8.63852
8.64023
8.64195
8.64369
8.64543
8.64719
8.64896
8.65074
8.65253
8.65434
8.65616
8.658
8.65986
8.66173
8.66362
8.66552
8.66744
8.66938
8.67134
8.67332
8.67531
8.67732
8.67935
8.6814
8.68347
8.68556
8.68767
8.6898
8.28904
8.2903
8.29156
8.29281
8.29405
8.29529
8.29654
8.29781
8.29909
8.30039
8.3017
8.30303
8.30436
8.30571
8.30706
8.30842
8.30978
8.31115
8.31252
8.3139
8.31528
8.31666
8.31805
8.31945
8.32085
8.32226
8.32368
8.32511
8.32654
8.32799
8.32944
8.3309
8.33237
8.33386
8.33535
8.33686
8.33838
8.33991
8.34145
8.34301
8.34458
8.34617
8.34777
8.34939
8.35102
8.35267
8.35434
8.35602
8.35772
8.35944
8.36117
8.36293
8.3647
8.36648
8.36829
8.37011
8.37196
8.0964
8.09735
8.09829
8.09923
8.10017
8.10111
8.10207
8.10303
8.10401
8.10501
8.10602
8.10703
8.10806
8.1091
8.11014
8.11119
8.11224
8.1133
8.11436
8.11543
8.1165
8.11758
8.11866
8.11975
8.12085
8.12195
8.12307
8.12418
8.12531
8.12645
8.12759
8.12874
8.12991
8.13108
8.13226
8.13346
8.13466
8.13588
8.13711
8.13835
8.1396
8.14087
8.14215
8.14344
8.14475
8.14607
8.14741
8.14876
8.15013
8.15151
8.15291
8.15432
8.15575
8.15719
8.15866
8.16014
7.977
7.97766
7.97832
7.97897
7.97962
7.98027
7.98093
7.9816
7.98228
7.98297
7.98367
7.98438
7.98511
7.98584
7.98658
7.98732
7.98807
7.98883
7.98959
7.99035
7.99112
7.9919
7.99268
7.99346
7.99425
7.99505
7.99585
7.99666
7.99747
7.9983
7.99913
7.99997
8.00081
8.00166
8.00253
8.0034
8.00428
8.00517
8.00607
8.00697
8.00789
8.00882
8.00976
8.01072
8.01168
8.01265
8.01364
8.01464
8.01565
8.01667
8.01771
8.01876
8.01982
8.02089
8.02199
8.02309
7.90732
7.90774
7.90816
7.90858
7.90899
7.9094
7.90982
7.91025
7.91069
7.91114
7.9116
7.91207
7.91254
7.91303
7.91352
7.91401
7.91452
7.91502
7.91553
7.91604
7.91656
7.91708
7.9176
7.91813
7.91867
7.91921
7.91975
7.9203
7.92085
7.92141
7.92198
7.92255
7.92313
7.92372
7.92431
7.92491
7.92551
7.92612
7.92674
7.92737
7.92801
7.92865
7.92931
7.92997
7.93064
7.93132
7.932
7.9327
7.93341
7.93412
7.93485
7.93559
7.93634
7.9371
7.93787
7.86807
7.86832
7.86857
7.86882
7.86905
7.86929
7.86952
7.86976
7.87001
7.87027
7.87054
7.87081
7.8711
7.87139
7.87169
7.872
7.8723
7.87262
7.87293
7.87325
7.87357
7.87389
7.87422
7.87455
7.87489
7.87522
7.87556
7.87591
7.87626
7.87661
7.87697
7.87733
7.8777
7.87807
7.87844
7.87882
7.87921
7.8796
7.88
7.8804
7.8808
7.88122
7.88164
7.88206
7.88249
7.88293
7.88337
7.88382
7.88428
7.88474
7.88522
7.88569
7.88618
7.88668
7.88719
7.84731
7.84746
7.8476
7.84772
7.84784
7.84795
7.84806
7.84817
7.84829
7.84842
7.84856
7.84871
7.84886
7.84902
7.84919
7.84936
7.84953
7.84971
7.84989
7.85008
7.85026
7.85045
7.85064
7.85083
7.85103
7.85123
7.85143
7.85163
7.85183
7.85204
7.85225
7.85247
7.85268
7.8529
7.85313
7.85335
7.85358
7.85382
7.85405
7.85429
7.85454
7.85479
7.85504
7.85529
7.85556
7.85582
7.85609
7.85636
7.85664
7.85692
7.85721
7.8575
7.8578
7.85811
7.85843
7.83693
7.83701
7.83707
7.83713
7.83717
7.83721
7.83724
7.83727
7.8373
7.83735
7.8374
7.83746
7.83753
7.83761
7.83769
7.83778
7.83787
7.83796
7.83806
7.83816
7.83826
7.83836
7.83846
7.83856
7.83867
7.83878
7.83889
7.839
7.83911
7.83923
7.83934
7.83946
7.83958
7.8397
7.83983
7.83995
7.84008
7.84021
7.84035
7.84048
7.84062
7.84076
7.8409
7.84105
7.84119
7.84134
7.8415
7.84165
7.84181
7.84197
7.84214
7.84231
7.84248
7.84266
7.84285
7.84306
7.83206
7.83208
7.83211
7.83212
7.83212
7.83211
7.83209
7.83207
7.83205
7.83205
7.83205
7.83206
7.83207
7.8321
7.83213
7.83217
7.8322
7.83225
7.83229
7.83233
7.83238
7.83243
7.83248
7.83253
7.83258
7.83264
7.83269
7.83275
7.8328
7.83286
7.83292
7.83298
7.83304
7.83311
7.83317
7.83324
7.8333
7.83337
7.83344
7.83351
7.83358
7.83366
7.83373
7.83381
7.83389
7.83397
7.83405
7.83414
7.83422
7.83431
7.8344
7.83449
7.83458
7.83469
7.83479
7.83491
7.82995
7.82995
7.82993
7.82991
7.82987
7.82982
7.82977
7.82972
7.82968
7.82964
7.82962
7.8296
7.8296
7.8296
7.8296
7.82961
7.82962
7.82963
7.82965
7.82967
7.82968
7.8297
7.82972
7.82974
7.82977
7.82979
7.82981
7.82984
7.82986
7.82989
7.82992
7.82994
7.82997
7.83
7.83003
7.83006
7.8301
7.83013
7.83016
7.8302
7.83023
7.83027
7.83031
7.83035
7.83038
7.83043
7.83047
7.83051
7.83055
7.8306
7.83064
7.83069
7.83075
7.83081
7.83087
7.82917
7.82915
7.82913
7.82909
7.82903
7.82896
7.82889
7.82881
7.82874
7.82869
7.82864
7.8286
7.82857
7.82855
7.82853
7.82852
7.82851
7.82851
7.82851
7.8285
7.8285
7.8285
7.8285
7.82851
7.82851
7.82852
7.82852
7.82853
7.82853
7.82854
7.82855
7.82856
7.82857
7.82858
7.82859
7.8286
7.82861
7.82862
7.82863
7.82865
7.82866
7.82868
7.82869
7.82871
7.82872
7.82874
7.82876
7.82878
7.8288
7.82882
7.82884
7.82886
7.82889
7.82892
7.82895
7.82904
7.82902
7.82898
7.82893
7.82886
7.82877
7.82867
7.82858
7.82849
7.82841
7.82834
7.82828
7.82824
7.8282
7.82817
7.82814
7.82812
7.8281
7.82808
7.82807
7.82806
7.82804
7.82803
7.82802
7.82802
7.82801
7.828
7.828
7.82799
7.82799
7.82798
7.82798
7.82798
7.82797
7.82797
7.82797
7.82797
7.82797
7.82797
7.82797
7.82798
7.82798
7.82798
7.82798
7.82799
7.82799
7.828
7.828
7.82801
7.82801
7.82802
7.82803
7.82804
7.82806
7.82808
7.82924
7.82921
7.82916
7.82909
7.82901
7.8289
7.82879
7.82867
7.82856
7.82846
7.82837
7.82829
7.82823
7.82818
7.82813
7.8281
7.82806
7.82803
7.82801
7.82798
7.82796
7.82794
7.82792
7.8279
7.82788
7.82787
7.82785
7.82784
7.82782
7.82781
7.8278
7.82779
7.82778
7.82777
7.82776
7.82775
7.82774
7.82774
7.82773
7.82772
7.82772
7.82771
7.82771
7.8277
7.8277
7.8277
7.82769
7.82769
7.82769
7.82769
7.82769
7.82769
7.82769
7.8277
7.82771
7.82952
7.82944
7.82936
7.82925
7.82913
7.829
7.82886
7.82873
7.82861
7.82851
7.82842
7.82834
7.82828
7.82822
7.82817
7.82813
7.82809
7.82806
7.82802
7.82799
7.82797
7.82794
7.82791
7.82789
7.82787
7.82784
7.82782
7.82781
7.82779
7.82777
7.82775
7.82774
7.82772
7.82771
7.82769
7.82768
7.82767
7.82766
7.82765
7.82764
7.82763
7.82762
7.82761
7.8276
7.82759
7.82758
7.82758
7.82757
7.82756
7.82756
7.82755
7.82755
7.82755
7.82756
7.82971
7.82961
7.82949
7.82936
7.82921
7.82906
7.82892
7.82878
7.82866
7.82856
7.82847
7.82839
7.82833
7.82827
7.82822
7.82818
7.82813
7.82809
7.82806
7.82802
7.82799
7.82796
7.82793
7.8279
7.82788
7.82785
7.82783
7.82781
7.82779
7.82776
7.82774
7.82773
7.82771
7.82769
7.82767
7.82766
7.82764
7.82763
7.82762
7.8276
7.82759
7.82758
7.82757
7.82756
7.82755
7.82754
7.82753
7.82752
7.82751
7.82751
7.8275
7.8275
7.8275
7.82988
7.82979
7.82967
7.82953
7.82938
7.82922
7.82906
7.82891
7.82878
7.82867
7.82857
7.82849
7.82841
7.82835
7.82829
7.82824
7.82819
7.82815
7.82811
7.82807
7.82804
7.828
7.82797
7.82794
7.82791
7.82788
7.82785
7.82783
7.8278
7.82778
7.82776
7.82774
7.82772
7.8277
7.82768
7.82766
7.82764
7.82763
7.82761
7.8276
7.82758
7.82757
7.82756
7.82755
7.82754
7.82752
7.82751
7.8275
7.82749
7.82749
7.82748
7.82748
7.82748
7.82998
7.8299
7.82979
7.82964
7.82948
7.82931
7.82914
7.82899
7.82885
7.82873
7.82862
7.82853
7.82845
7.82839
7.82833
7.82827
7.82822
7.82818
7.82813
7.82809
7.82805
7.82802
7.82798
7.82795
7.82792
7.82789
7.82786
7.82783
7.82781
7.82778
7.82776
7.82774
7.82772
7.8277
7.82768
7.82766
7.82764
7.82762
7.82761
7.82759
7.82758
7.82756
7.82755
7.82754
7.82753
7.82751
7.8275
7.82749
7.82748
7.82748
7.82747
7.82747
7.82747
7.83003
7.82995
7.82983
7.82969
7.82952
7.82934
7.82917
7.82901
7.82886
7.82873
7.82862
7.82853
7.82845
7.82838
7.82832
7.82826
7.82821
7.82817
7.82812
7.82808
7.82804
7.828
7.82797
7.82794
7.8279
7.82787
7.82785
7.82782
7.82779
7.82777
7.82774
7.82772
7.8277
7.82768
7.82766
7.82764
7.82763
7.82761
7.82759
7.82758
7.82756
7.82755
7.82754
7.82753
7.82751
7.8275
7.82749
7.82748
7.82747
7.82746
7.82746
7.82746
7.82746
7.83001
7.82994
7.82982
7.82967
7.8295
7.82932
7.82914
7.82898
7.82883
7.8287
7.82859
7.82849
7.82841
7.82834
7.82828
7.82823
7.82817
7.82813
7.82808
7.82804
7.828
7.82797
7.82793
7.8279
7.82787
7.82784
7.82781
7.82779
7.82776
7.82774
7.82772
7.8277
7.82768
7.82766
7.82764
7.82762
7.8276
7.82759
7.82757
7.82756
7.82755
7.82753
7.82752
7.82751
7.8275
7.82749
7.82748
7.82747
7.82746
7.82745
7.82745
7.82745
7.82745
7.82996
7.82988
7.82977
7.82962
7.82944
7.82926
7.82908
7.82891
7.82876
7.82863
7.82852
7.82843
7.82835
7.82828
7.82822
7.82817
7.82812
7.82807
7.82803
7.82799
7.82795
7.82792
7.82789
7.82786
7.82783
7.8278
7.82777
7.82775
7.82773
7.8277
7.82768
7.82766
7.82764
7.82763
7.82761
7.82759
7.82758
7.82756
7.82755
7.82754
7.82753
7.82751
7.8275
7.82749
7.82748
7.82747
7.82747
7.82746
7.82745
7.82744
7.82744
7.82744
7.82745
7.82987
7.8298
7.82968
7.82953
7.82935
7.82917
7.82899
7.82882
7.82867
7.82854
7.82843
7.82834
7.82827
7.8282
7.82814
7.82809
7.82805
7.82801
7.82797
7.82793
7.8279
7.82786
7.82783
7.82781
7.82778
7.82775
7.82773
7.82771
7.82769
7.82767
7.82765
7.82763
7.82761
7.8276
7.82758
7.82757
7.82755
7.82754
7.82753
7.82752
7.82751
7.8275
7.82749
7.82748
7.82747
7.82746
7.82745
7.82745
7.82744
7.82744
7.82743
7.82744
7.82744
7.82975
7.82968
7.82957
7.82942
7.82924
7.82906
7.82888
7.82872
7.82857
7.82845
7.82834
7.82826
7.82818
7.82812
7.82807
7.82802
7.82798
7.82794
7.8279
7.82787
7.82784
7.82781
7.82778
7.82776
7.82773
7.82771
7.82769
7.82767
7.82765
7.82763
7.82761
7.8276
7.82758
7.82757
7.82756
7.82754
7.82753
7.82752
7.82751
7.8275
7.82749
7.82748
7.82748
7.82747
7.82746
7.82745
7.82745
7.82744
7.82744
7.82743
7.82743
7.82743
7.82744
7.82961
7.82955
7.82944
7.82929
7.82912
7.82894
7.82877
7.82861
7.82847
7.82835
7.82825
7.82817
7.8281
7.82804
7.82799
7.82795
7.82791
7.82788
7.82784
7.82781
7.82779
7.82776
7.82774
7.82771
7.82769
7.82767
7.82765
7.82764
7.82762
7.8276
7.82759
7.82757
7.82756
7.82755
7.82754
7.82753
7.82752
7.82751
7.8275
7.82749
7.82748
7.82747
7.82747
7.82746
7.82745
7.82745
7.82744
7.82744
7.82743
7.82743
7.82743
7.82743
7.82744
7.82943
7.82938
7.82928
7.82915
7.82899
7.82882
7.82865
7.8285
7.82837
7.82825
7.82816
7.82808
7.82802
7.82797
7.82792
7.82789
7.82785
7.82782
7.82779
7.82776
7.82774
7.82772
7.8277
7.82768
7.82766
7.82764
7.82762
7.82761
7.82759
7.82758
7.82757
7.82755
7.82754
7.82753
7.82752
7.82751
7.8275
7.8275
7.82749
7.82748
7.82747
7.82747
7.82746
7.82746
7.82745
7.82745
7.82744
7.82744
7.82743
7.82743
7.82743
7.82743
7.82744
7.82924
7.8292
7.82911
7.82899
7.82885
7.82869
7.82854
7.82839
7.82827
7.82816
7.82808
7.82801
7.82795
7.8279
7.82786
7.82783
7.8278
7.82777
7.82774
7.82772
7.8277
7.82768
7.82766
7.82764
7.82763
7.82761
7.8276
7.82759
7.82757
7.82756
7.82755
7.82754
7.82753
7.82752
7.82751
7.8275
7.8275
7.82749
7.82748
7.82747
7.82747
7.82746
7.82746
7.82745
7.82745
7.82744
7.82744
7.82744
7.82743
7.82743
7.82743
7.82743
7.82744
7.82905
7.82902
7.82895
7.82884
7.82871
7.82857
7.82843
7.8283
7.82818
7.82808
7.828
7.82794
7.82789
7.82785
7.82781
7.82778
7.82776
7.82773
7.82771
7.82769
7.82767
7.82766
7.82764
7.82762
7.82761
7.8276
7.82758
7.82757
7.82756
7.82755
7.82754
7.82753
7.82752
7.82751
7.82751
7.8275
7.82749
7.82748
7.82748
7.82747
7.82747
7.82746
7.82745
7.82745
7.82744
7.82744
7.82744
7.82743
7.82743
7.82743
7.82743
7.82743
7.82743
7.82887
7.82885
7.8288
7.82871
7.82859
7.82846
7.82833
7.82821
7.82811
7.82802
7.82795
7.82789
7.82785
7.82781
7.82778
7.82775
7.82773
7.82771
7.82769
7.82767
7.82766
7.82764
7.82763
7.82761
7.8276
7.82759
7.82758
7.82756
7.82755
7.82754
7.82753
7.82753
7.82752
7.82751
7.8275
7.82749
7.82749
7.82748
7.82747
7.82747
7.82746
7.82746
7.82745
7.82745
7.82744
7.82744
7.82743
7.82743
7.82742
7.82742
7.82742
7.82742
7.82743
7.82871
7.82871
7.82866
7.82858
7.82848
7.82837
7.82826
7.82815
7.82805
7.82797
7.82791
7.82786
7.82781
7.82778
7.82775
7.82773
7.82771
7.82769
7.82768
7.82766
7.82765
7.82763
7.82762
7.82761
7.82759
7.82758
7.82757
7.82756
7.82755
7.82754
7.82753
7.82752
7.82751
7.82751
7.8275
7.82749
7.82748
7.82748
7.82747
7.82746
7.82746
7.82745
7.82745
7.82744
7.82743
7.82743
7.82743
7.82742
7.82742
7.82741
7.82741
7.82741
7.82742
7.82857
7.82858
7.82854
7.82848
7.8284
7.8283
7.82819
7.8281
7.82801
7.82794
7.82788
7.82783
7.8278
7.82777
7.82774
7.82772
7.8277
7.82769
7.82767
7.82766
7.82764
7.82763
7.82762
7.8276
7.82759
7.82758
7.82757
7.82756
7.82755
7.82754
7.82753
7.82752
7.82751
7.8275
7.8275
7.82749
7.82748
7.82747
7.82747
7.82746
7.82745
7.82745
7.82744
7.82744
7.82743
7.82743
7.82742
7.82742
7.82741
7.82741
7.82741
7.82741
7.82741
7.82846
7.82847
7.82845
7.8284
7.82832
7.82824
7.82815
7.82806
7.82798
7.82792
7.82786
7.82782
7.82779
7.82776
7.82774
7.82772
7.8277
7.82769
7.82767
7.82766
7.82765
7.82763
7.82762
7.82761
7.8276
7.82759
7.82757
7.82756
7.82755
7.82754
7.82753
7.82752
7.82752
7.82751
7.8275
7.82749
7.82748
7.82747
7.82747
7.82746
7.82745
7.82745
7.82744
7.82744
7.82743
7.82742
7.82742
7.82742
7.82741
7.82741
7.82741
7.82741
7.82741
7.82837
7.82839
7.82837
7.82833
7.82827
7.82819
7.82811
7.82803
7.82796
7.82791
7.82786
7.82782
7.82779
7.82777
7.82774
7.82773
7.82771
7.8277
7.82768
7.82767
7.82766
7.82764
7.82763
7.82762
7.82761
7.8276
7.82759
7.82757
7.82756
7.82755
7.82754
7.82753
7.82753
7.82752
7.82751
7.8275
7.82749
7.82748
7.82748
7.82747
7.82746
7.82746
7.82745
7.82744
7.82744
7.82743
7.82743
7.82743
7.82742
7.82742
7.82742
7.82742
7.82742
7.82831
7.82832
7.82832
7.82828
7.82823
7.82816
7.82809
7.82802
7.82796
7.82791
7.82786
7.82783
7.8278
7.82778
7.82776
7.82774
7.82773
7.82772
7.8277
7.82769
7.82768
7.82767
7.82765
7.82764
7.82763
7.82762
7.82761
7.8276
7.82759
7.82758
7.82757
7.82756
7.82755
7.82754
7.82753
7.82752
7.82752
7.82751
7.8275
7.8275
7.82749
7.82749
7.82748
7.82748
7.82747
7.82747
7.82746
7.82746
7.82746
7.82746
7.82746
7.82746
7.82747
7.82826
7.82828
7.82828
7.82825
7.82821
7.82815
7.82809
7.82803
7.82797
7.82792
7.82789
7.82786
7.82783
7.82781
7.82779
7.82778
7.82777
7.82775
7.82774
7.82773
7.82772
7.82771
7.8277
7.82768
7.82767
7.82766
7.82765
7.82764
7.82764
7.82763
7.82762
7.82761
7.8276
7.8276
7.82759
7.82758
7.82758
7.82757
7.82757
7.82756
7.82756
7.82756
7.82755
7.82755
7.82755
7.82755
7.82755
7.82755
7.82755
7.82756
7.82756
7.82757
7.82758
7.82825
7.82827
7.82827
7.82825
7.82821
7.82816
7.82811
7.82805
7.82801
7.82797
7.82793
7.82791
7.82789
7.82787
7.82785
7.82784
7.82783
7.82782
7.82781
7.8278
7.82779
7.82778
7.82778
7.82777
7.82776
7.82775
7.82775
7.82774
7.82773
7.82773
7.82772
7.82772
7.82772
7.82771
7.82771
7.82771
7.82771
7.82771
7.82771
7.82771
7.82772
7.82772
7.82772
7.82773
7.82774
7.82775
7.82776
7.82777
7.82778
7.82779
7.82781
7.82783
7.82785
7.82827
7.82829
7.8283
7.82828
7.82825
7.82821
7.82817
7.82813
7.82809
7.82805
7.82803
7.82801
7.82799
7.82798
7.82797
7.82796
7.82796
7.82795
7.82795
7.82794
7.82794
7.82794
7.82794
7.82793
7.82793
7.82793
7.82793
7.82794
7.82794
7.82794
7.82795
7.82795
7.82796
7.82797
7.82798
7.82799
7.828
7.82801
7.82803
7.82804
7.82806
7.82808
7.8281
7.82813
7.82815
7.82818
7.82821
7.82825
7.82828
7.82832
7.82837
7.82842
7.82847
7.82836
7.82838
7.8284
7.82839
7.82837
7.82834
7.82831
7.82828
7.82825
7.82823
7.82821
7.8282
7.8282
7.8282
7.8282
7.8282
7.82821
7.82821
7.82822
7.82823
7.82824
7.82825
7.82826
7.82827
7.82829
7.8283
7.82832
7.82834
7.82836
7.82838
7.82841
7.82843
7.82846
7.82849
7.82853
7.82857
7.82861
7.82865
7.82869
7.82874
7.8288
7.82885
7.82892
7.82898
7.82905
7.82913
7.82921
7.82929
7.82938
7.82948
7.82959
7.8297
7.82983
7.82861
7.82864
7.82867
7.82868
7.82868
7.82867
7.82866
7.82864
7.82863
7.82863
7.82864
7.82865
7.82866
7.82868
7.8287
7.82873
7.82876
7.82879
7.82882
7.82886
7.82889
7.82893
7.82898
7.82902
7.82907
7.82912
7.82918
7.82924
7.8293
7.82936
7.82943
7.82951
7.82959
7.82967
7.82976
7.82986
7.82996
7.83007
7.83019
7.83031
7.83044
7.83058
7.83073
7.83088
7.83105
7.83123
7.83141
7.83161
7.83183
7.83205
7.83229
7.83255
7.83282
7.82928
7.82934
7.82939
7.82944
7.82947
7.82949
7.82952
7.82954
7.82957
7.82961
7.82966
7.82971
7.82977
7.82984
7.82991
7.82998
7.83006
7.83015
7.83024
7.83033
7.83044
7.83054
7.83065
7.83077
7.83089
7.83103
7.83116
7.83131
7.83147
7.83163
7.8318
7.83198
7.83217
7.83238
7.83259
7.83282
7.83306
7.83331
7.83358
7.83386
7.83416
7.83447
7.83481
7.83516
7.83553
7.83593
7.83634
7.83678
7.83725
7.83774
7.83827
7.83882
7.83941
7.83107
7.83119
7.8313
7.83141
7.83151
7.83161
7.83172
7.83182
7.83194
7.83206
7.8322
7.83235
7.83251
7.83267
7.83285
7.83304
7.83323
7.83344
7.83366
7.83388
7.83412
7.83437
7.83464
7.83491
7.8352
7.8355
7.83582
7.83615
7.83651
7.83687
7.83726
7.83767
7.8381
7.83855
7.83902
7.83952
7.84004
7.84059
7.84117
7.84178
7.84242
7.84309
7.8438
7.84455
7.84533
7.84616
7.84703
7.84795
7.84891
7.84993
7.851
7.85214
7.85334
7.83582
7.83607
7.83632
7.83657
7.83682
7.83708
7.83735
7.83763
7.83792
7.83823
7.83856
7.83891
7.83927
7.83966
7.84006
7.84048
7.84092
7.84137
7.84185
7.84235
7.84287
7.84341
7.84398
7.84457
7.84519
7.84583
7.84651
7.84721
7.84795
7.84871
7.84952
7.85036
7.85124
7.85215
7.85311
7.85412
7.85517
7.85627
7.85742
7.85862
7.85988
7.86119
7.86257
7.86402
7.86553
7.86711
7.86877
7.8705
7.87232
7.87423
7.87623
7.87832
7.88052
7.84873
7.84927
7.84982
7.85038
7.85096
7.85156
7.85217
7.85281
7.85348
7.85418
7.8549
7.85566
7.85644
7.85726
7.85811
7.85899
7.85991
7.86086
7.86185
7.86287
7.86394
7.86504
7.86618
7.86737
7.8686
7.86988
7.87121
7.87259
7.87402
7.87551
7.87706
7.87866
7.88033
7.88206
7.88386
7.88573
7.88767
7.88969
7.89178
7.89396
7.89623
7.89859
7.90104
7.90359
7.90624
7.90899
7.91186
7.91484
7.91794
7.92117
7.92453
7.92803
7.93167
7.88523
7.88637
7.88754
7.88873
7.88996
7.89122
7.89252
7.89386
7.89525
7.89668
7.89815
7.89968
7.90125
7.90288
7.90455
7.90628
7.90806
7.90989
7.91177
7.91372
7.91572
7.91779
7.91991
7.9221
7.92436
7.92668
7.92908
7.93155
7.93409
7.93672
7.93942
7.94221
7.94508
7.94804
7.95109
7.95424
7.95748
7.96083
7.96428
7.96784
7.9715
7.97529
7.97919
7.98322
7.98737
7.99165
7.99607
8.00063
8.00534
8.01019
8.01521
8.02038
8.02573
7.973
7.97501
7.97707
7.97918
7.98134
7.98354
7.9858
7.98811
7.99048
7.99291
7.9954
7.99795
8.00057
8.00325
8.00599
8.0088
8.01167
8.01461
8.01762
8.0207
8.02385
8.02707
8.03037
8.03375
8.0372
8.04074
8.04436
8.04806
8.05185
8.05573
8.0597
8.06376
8.06792
8.07218
8.07654
8.081
8.08557
8.09025
8.09504
8.09995
8.10497
8.11012
8.11538
8.12078
8.12631
8.13197
8.13777
8.14372
8.14981
8.15605
8.16245
8.16901
8.17574
8.10836
8.11121
8.11413
8.1171
8.12013
8.12322
8.12637
8.12959
8.13288
8.13624
8.13966
8.14316
8.14672
8.15036
8.15407
8.15785
8.1617
8.16563
8.16964
8.17372
8.17788
8.18212
8.18644
8.19084
8.19533
8.19991
8.20457
8.20932
8.21416
8.2191
8.22414
8.22927
8.2345
8.23983
8.24527
8.25081
8.25646
8.26222
8.2681
8.27409
8.28019
8.28642
8.29278
8.29926
8.30587
8.31261
8.31949
8.32651
8.33367
8.34097
8.34843
8.35605
8.36383
8.30361
8.30711
8.31069
8.31432
8.31802
8.32178
8.32561
8.32951
8.33349
8.33753
8.34165
8.34584
8.3501
8.35443
8.35884
8.36332
8.36788
8.37252
8.37723
8.38202
8.38689
8.39184
8.39686
8.40198
8.40717
8.41245
8.41782
8.42328
8.42883
8.43447
8.4402
8.44603
8.45195
8.45798
8.4641
8.47033
8.47666
8.4831
8.48965
8.49631
8.50308
8.50997
8.51698
8.5241
8.53135
8.53872
8.54623
8.55386
8.56163
8.56954
8.57758
8.58578
8.59413
8.60264
8.55735
8.56122
8.56515
8.56915
8.57321
8.57735
8.58155
8.58582
8.59016
8.59457
8.59906
8.60361
8.60824
8.61294
8.61771
8.62256
8.62748
8.63248
8.63754
8.64269
8.64791
8.65321
8.65859
8.66404
8.66958
8.6752
8.6809
8.68669
8.69257
8.69853
8.70458
8.71073
8.71696
8.7233
8.72972
8.73625
8.74288
8.7496
8.75644
8.76337
8.77042
8.77757
8.78484
8.79222
8.79971
8.80733
8.81507
8.82293
8.83092
8.83904
8.84729
8.85568
8.86422
8.87291
8.86682
8.87079
8.87483
8.87894
8.88311
8.88736
8.89167
8.89605
8.9005
8.90502
8.90961
8.91428
8.91901
8.92382
8.9287
8.93365
8.93867
8.94376
8.94893
8.95417
8.95949
8.96488
8.97035
8.9759
8.98152
8.98723
8.99301
8.99888
9.00484
9.01088
9.01701
9.02323
9.02954
9.03594
9.04244
9.04903
9.05573
9.06252
9.06942
9.07641
9.08352
9.09073
9.09806
9.1055
9.11305
9.12072
9.12851
9.13643
9.14447
9.15264
9.16094
9.16938
9.17797
9.1867
9.23824
9.24224
9.24631
9.25044
9.25465
9.25893
9.26328
9.2677
9.27219
9.27676
9.2814
9.28611
9.29089
9.29575
9.30068
9.30569
9.31077
9.31592
9.32115
9.32646
9.33184
9.33731
9.34285
9.34847
9.35418
9.35996
9.36583
9.37179
9.37783
9.38397
9.3902
9.39652
9.40293
9.40945
9.41606
9.42278
9.4296
9.43653
9.44356
9.45071
9.45797
9.46534
9.47283
9.48044
9.48818
9.49604
9.50403
9.51215
9.5204
9.5288
9.53734
9.54602
9.55486
9.56385
9.70571
9.70995
9.71427
9.71866
9.72312
9.72766
9.73228
9.73698
9.74176
9.74662
9.75156
9.75658
9.76169
9.76687
9.77214
9.77749
9.78292
9.78844
9.79404
9.79973
9.8055
9.81137
9.81732
9.82337
9.8295
9.83573
9.84206
9.84848
9.855
9.86162
9.86835
9.87518
9.88213
9.88919
9.89636
9.90365
9.91106
9.91859
9.92625
9.93404
9.94196
9.95
9.95819
9.96652
9.97498
9.9836
9.99236
10.0013
10.0103
10.0196
10.029
10.0385
10.0483
10.0582
10.3752
10.3803
10.3855
10.3908
10.3962
10.4017
10.4073
10.413
10.4188
10.4246
10.4306
10.4367
10.4429
10.4491
10.4555
10.462
10.4685
10.4752
10.482
10.4889
10.4959
10.503
10.5102
10.5176
10.525
10.5326
10.5402
10.548
10.556
10.564
10.5722
10.5805
10.589
10.5976
10.6063
10.6152
10.6242
10.6334
10.6428
10.6523
10.6619
10.6718
10.6818
10.6919
10.7023
10.7128
10.7236
10.7345
10.7456
10.7569
10.7684
10.7802
10.7921
10.8043
11.5702
11.5776
11.5852
11.5929
11.6007
11.6087
11.6167
11.6249
11.6333
11.6417
11.6503
11.659
11.6679
11.6769
11.686
11.6953
11.7047
11.7143
11.724
11.7338
11.7438
11.754
11.7643
11.7747
11.7853
11.7961
11.807
11.8181
11.8294
11.8408
11.8524
11.8642
11.8762
11.8884
11.9008
11.9134
11.9262
11.9392
11.9524
11.9658
11.9794
11.9933
12.0074
12.0218
12.0364
12.0512
12.0663
12.0816
12.0972
12.1131
12.1293
12.1457
12.1625
12.1795
14.6186
14.6324
14.6463
14.6604
14.6747
14.6892
14.7039
14.7188
14.7339
14.7493
14.7648
14.7806
14.7966
14.8128
14.8292
14.8458
14.8627
14.8798
14.8972
14.9148
14.9326
14.9507
14.9691
14.9877
15.0065
15.0256
15.045
15.0646
15.0845
15.1047
15.1252
15.1459
15.167
15.1884
15.2101
15.2321
15.2544
15.2771
15.3001
15.3235
15.3473
15.3713
15.3958
15.4206
15.4459
15.4715
15.4975
15.5239
15.5508
15.5781
15.6058
15.6339
15.6625
15.6916
31.6131
31.6567
31.7007
31.7452
31.7903
31.8358
31.8819
31.9286
31.9758
32.0236
32.072
32.121
32.1705
32.2207
32.2714
32.3228
32.3748
32.4275
32.4808
32.5348
32.5895
32.6449
32.701
32.7577
32.8151
32.8733
32.9321
32.9916
33.0518
33.1128
33.1746
33.2372
33.3006
33.3648
33.4298
33.4958
33.5626
33.6303
33.6989
33.7685
33.839
33.9105
33.983
34.0565
34.131
34.2066
34.2832
34.3609
34.4397
34.5197
34.6008
34.6831
34.7666
34.8512
)
;

boundaryField
{
    inlet
    {
        type            fixedValue;
        value           nonuniform 0();
    }
    outlet
    {
        type            zeroGradient;
    }
    upperWall
    {
        Cmu             0.09;
        kappa           0.41;
        E               9.8;
        type            epsilonWallFunction;
        value           nonuniform List<scalar> 
54
(
31.6131
31.6567
31.7007
31.7452
31.7903
31.8358
31.8819
31.9286
31.9758
32.0236
32.072
32.121
32.1705
32.2207
32.2714
32.3228
32.3748
32.4275
32.4808
32.5348
32.5895
32.6449
32.701
32.7577
32.8151
32.8733
32.9321
32.9916
33.0518
33.1128
33.1746
33.2372
33.3006
33.3648
33.4298
33.4958
33.5626
33.6303
33.6989
33.7685
33.839
33.9105
33.983
34.0565
34.131
34.2066
34.2832
34.3609
34.4397
34.5197
34.6008
34.6831
34.7666
34.8512
)
;
    }
    lowerWall
    {
        Cmu             0.09;
        kappa           0.41;
        E               9.8;
        type            epsilonWallFunction;
        value           nonuniform List<scalar> 
57
(
18.9746
18.9795
18.9844
18.9895
18.9948
19.0001
19.0058
19.0122
19.0188
19.0255
19.0323
19.039
19.0458
19.0526
19.0594
19.0664
19.0734
19.0805
19.0876
19.0948
19.1022
19.1096
19.1171
19.1247
19.1323
19.1401
19.148
19.156
19.164
19.1722
19.1805
19.1888
19.1973
19.2059
19.2145
19.2233
19.2322
19.2411
19.2502
19.2593
19.2686
19.2779
19.2873
19.2968
19.3064
19.3161
19.3258
19.3357
19.3456
19.3556
19.3657
19.3759
19.3862
19.3966
19.4071
19.4177
19.4285
)
;
    }
    frontAndBack
    {
        type            empty;
    }
    procBoundary1to0
    {
        type            processor;
        value           nonuniform List<scalar> 
59
(
19.4393
11.434
9.91054
9.16553
8.69194
8.37383
8.16164
8.02422
7.93867
7.88772
7.85876
7.85876
7.84325
7.83503
7.83094
7.82899
7.8281
7.82772
7.82757
7.82751
7.82748
7.82747
7.82746
7.82746
7.82745
7.82745
7.82745
7.82745
7.82745
7.82745
7.82744
7.82743
7.82742
7.82742
7.82742
7.82743
7.82748
7.82759
7.82788
7.82853
7.82996
7.83312
7.84004
7.8546
7.88283
7.93547
8.03126
8.18264
8.37178
8.37178
8.61129
8.88174
9.19558
9.573
10.0683
10.8167
12.1968
15.7211
34.9371
)
;
    }
    procBoundary1to3
    {
        type            processor;
        value           nonuniform List<scalar> 
62
(
18.9699
11.2993
9.79863
9.05539
8.5903
8.28777
8.09544
8.09544
7.97631
7.90688
7.90688
7.86779
7.84715
7.83684
7.832
7.82994
7.82994
7.82916
7.82904
7.82924
7.82952
7.82952
7.82975
7.82975
7.82991
7.83001
7.83004
7.83001
7.82994
7.82983
7.8297
7.82954
7.82936
7.82916
7.82896
7.82878
7.82862
7.82849
7.82838
7.8283
7.82824
7.8282
7.82819
7.82821
7.8283
7.82855
7.82921
7.83095
7.83557
7.84821
7.88413
7.97103
8.10555
8.30016
8.55355
8.86291
9.23431
9.70155
10.3702
11.5628
14.605
31.57
)
;
    }
}


// ************************************************************************* //
