/*--------------------------------*- C++ -*----------------------------------*\
  =========                 |
  \\      /  F ield         | OpenFOAM: The Open Source CFD Toolbox
   \\    /   O peration     | Website:  https://openfoam.org
    \\  /    A nd           | Version:  6
     \\/     M anipulation  |
\*---------------------------------------------------------------------------*/
FoamFile
{
    version     2.0;
    format      ascii;
    class       volScalarField;
    location    "0.01";
    object      k;
}
// * * * * * * * * * * * * * * * * * * * * * * * * * * * * * * * * * * * * * //

dimensions      [0 2 -2 0 0 0 0];

internalField   nonuniform List<scalar> 
3081
(
0.0818598
0.0818225
0.0817853
0.0817481
0.0817109
0.0816735
0.0816369
0.081602
0.0815674
0.0815326
0.0814973
0.0814618
0.0814258
0.0813895
0.081353
0.0813161
0.081279
0.0812416
0.081204
0.0811661
0.0811279
0.0810896
0.0810509
0.0810121
0.080973
0.0809336
0.080894
0.0808542
0.0808141
0.0807737
0.0807331
0.0806922
0.080651
0.0806095
0.0805678
0.0805257
0.0804834
0.0804407
0.0803977
0.0803544
0.0803107
0.0802666
0.0802222
0.0801773
0.0801321
0.0800864
0.0800403
0.0799938
0.0799468
0.0798995
0.0798517
0.0798035
0.0797549
0.0797058
0.0796564
0.0796066
0.0795564
0.16737
0.167299
0.167228
0.167157
0.167087
0.167017
0.166948
0.166879
0.166808
0.166737
0.166667
0.166596
0.166525
0.166454
0.166383
0.166312
0.166241
0.166171
0.1661
0.166029
0.165958
0.165887
0.165816
0.165745
0.165674
0.165603
0.165531
0.165459
0.165387
0.165315
0.165243
0.16517
0.165096
0.165023
0.164949
0.164874
0.1648
0.164724
0.164648
0.164572
0.164495
0.164417
0.164339
0.16426
0.16418
0.1641
0.164018
0.163937
0.163854
0.163771
0.163687
0.163602
0.163517
0.163431
0.163344
0.163257
0.163169
0.206755
0.206682
0.206609
0.206536
0.206464
0.206393
0.206321
0.206249
0.206176
0.206103
0.206029
0.205956
0.205882
0.205808
0.205734
0.20566
0.205586
0.205512
0.205438
0.205364
0.20529
0.205215
0.205141
0.205066
0.204991
0.204916
0.204841
0.204765
0.204689
0.204612
0.204536
0.204459
0.204381
0.204303
0.204224
0.204145
0.204066
0.203986
0.203905
0.203824
0.203742
0.203659
0.203576
0.203492
0.203407
0.203321
0.203235
0.203148
0.20306
0.202971
0.202881
0.202791
0.2027
0.202608
0.202515
0.202422
0.202328
0.230039
0.229973
0.229906
0.22984
0.229775
0.229709
0.229644
0.229578
0.229511
0.229444
0.229377
0.22931
0.229242
0.229174
0.229107
0.229039
0.228971
0.228903
0.228834
0.228766
0.228697
0.228629
0.22856
0.228491
0.228421
0.228352
0.228282
0.228212
0.228141
0.22807
0.227999
0.227927
0.227855
0.227782
0.227709
0.227635
0.227561
0.227486
0.227411
0.227335
0.227259
0.227181
0.227103
0.227025
0.226945
0.226865
0.226784
0.226703
0.22662
0.226537
0.226453
0.226368
0.226283
0.226196
0.226109
0.226021
0.225932
0.244909
0.244852
0.244795
0.244739
0.244682
0.244627
0.24457
0.244514
0.244457
0.2444
0.244342
0.244284
0.244227
0.244169
0.24411
0.244052
0.243994
0.243935
0.243876
0.243817
0.243758
0.243699
0.24364
0.24358
0.24352
0.24346
0.243399
0.243339
0.243277
0.243216
0.243154
0.243092
0.243029
0.242966
0.242902
0.242838
0.242774
0.242709
0.242643
0.242577
0.24251
0.242443
0.242375
0.242306
0.242236
0.242166
0.242096
0.242024
0.241952
0.241879
0.241806
0.241732
0.241657
0.241581
0.241504
0.241427
0.241349
0.254625
0.254579
0.254533
0.254487
0.254441
0.254395
0.25435
0.254304
0.254257
0.254211
0.254164
0.254117
0.25407
0.254022
0.253975
0.253927
0.25388
0.253832
0.253784
0.253735
0.253687
0.253638
0.25359
0.253541
0.253491
0.253442
0.253392
0.253342
0.253292
0.253241
0.25319
0.253139
0.253087
0.253035
0.252982
0.252929
0.252876
0.252822
0.252768
0.252713
0.252658
0.252602
0.252545
0.252488
0.252431
0.252372
0.252314
0.252254
0.252194
0.252133
0.252072
0.25201
0.251948
0.251884
0.25182
0.251756
0.251691
0.260932
0.260896
0.26086
0.260825
0.260789
0.260754
0.260718
0.260682
0.260646
0.260609
0.260573
0.260536
0.260499
0.260462
0.260425
0.260388
0.26035
0.260313
0.260275
0.260237
0.260199
0.260161
0.260123
0.260084
0.260045
0.260006
0.259967
0.259927
0.259887
0.259847
0.259807
0.259766
0.259725
0.259683
0.259642
0.259599
0.259557
0.259514
0.25947
0.259426
0.259382
0.259337
0.259292
0.259246
0.2592
0.259153
0.259106
0.259058
0.25901
0.258961
0.258911
0.258861
0.258811
0.25876
0.258708
0.258656
0.265017
0.26499
0.264963
0.264937
0.26491
0.264884
0.264857
0.26483
0.264804
0.264777
0.26475
0.264722
0.264695
0.264668
0.26464
0.264612
0.264584
0.264556
0.264528
0.2645
0.264471
0.264443
0.264414
0.264385
0.264356
0.264327
0.264297
0.264267
0.264238
0.264207
0.264177
0.264146
0.264115
0.264084
0.264052
0.26402
0.263988
0.263956
0.263923
0.263889
0.263856
0.263822
0.263787
0.263753
0.263717
0.263682
0.263646
0.263609
0.263572
0.263535
0.263497
0.263459
0.263421
0.263381
0.263342
0.263301
0.267557
0.267538
0.267519
0.2675
0.267481
0.267462
0.267443
0.267424
0.267405
0.267386
0.267367
0.267347
0.267328
0.267308
0.267288
0.267269
0.267249
0.267229
0.267208
0.267188
0.267168
0.267147
0.267127
0.267106
0.267085
0.267064
0.267042
0.267021
0.266999
0.266977
0.266955
0.266933
0.26691
0.266887
0.266864
0.266841
0.266818
0.266794
0.26677
0.266745
0.266721
0.266696
0.26667
0.266645
0.266619
0.266593
0.266566
0.266539
0.266512
0.266484
0.266456
0.266428
0.266399
0.26637
0.266341
0.269115
0.269101
0.269088
0.269075
0.269062
0.269049
0.269037
0.269024
0.269011
0.268998
0.268985
0.268972
0.268959
0.268946
0.268932
0.268919
0.268905
0.268892
0.268878
0.268864
0.26885
0.268836
0.268822
0.268808
0.268794
0.268779
0.268765
0.26875
0.268735
0.26872
0.268705
0.26869
0.268674
0.268658
0.268643
0.268626
0.26861
0.268594
0.268577
0.26856
0.268543
0.268526
0.268508
0.268491
0.268473
0.268454
0.268436
0.268417
0.268398
0.268379
0.268359
0.268339
0.268319
0.268299
0.268278
0.270027
0.270018
0.270009
0.270001
0.269992
0.269984
0.269975
0.269967
0.269959
0.269951
0.269942
0.269934
0.269926
0.269917
0.269908
0.2699
0.269891
0.269882
0.269873
0.269864
0.269855
0.269846
0.269837
0.269827
0.269818
0.269809
0.269799
0.269789
0.26978
0.26977
0.26976
0.26975
0.26974
0.269729
0.269719
0.269708
0.269697
0.269687
0.269676
0.269664
0.269653
0.269642
0.26963
0.269618
0.269606
0.269594
0.269582
0.269569
0.269556
0.269544
0.26953
0.269517
0.269504
0.26949
0.269476
0.270543
0.270537
0.270531
0.270525
0.270519
0.270514
0.270509
0.270504
0.270499
0.270494
0.270488
0.270483
0.270478
0.270473
0.270467
0.270462
0.270456
0.270451
0.270445
0.27044
0.270434
0.270428
0.270422
0.270417
0.270411
0.270405
0.270399
0.270393
0.270387
0.27038
0.270374
0.270368
0.270361
0.270355
0.270348
0.270342
0.270335
0.270328
0.270321
0.270314
0.270307
0.270299
0.270292
0.270284
0.270277
0.270269
0.270261
0.270253
0.270245
0.270237
0.270228
0.27022
0.270211
0.270202
0.270193
0.270184
0.270825
0.270821
0.270817
0.270812
0.270809
0.270805
0.270802
0.270799
0.270796
0.270793
0.27079
0.270786
0.270783
0.27078
0.270777
0.270773
0.27077
0.270767
0.270763
0.27076
0.270756
0.270753
0.270749
0.270746
0.270742
0.270739
0.270735
0.270731
0.270728
0.270724
0.27072
0.270716
0.270712
0.270708
0.270704
0.2707
0.270696
0.270692
0.270688
0.270683
0.270679
0.270674
0.27067
0.270665
0.270661
0.270656
0.270651
0.270646
0.270641
0.270636
0.270631
0.270625
0.27062
0.270614
0.270609
0.270603
0.270972
0.270969
0.270966
0.270963
0.27096
0.270958
0.270956
0.270954
0.270953
0.270951
0.270949
0.270947
0.270945
0.270943
0.270941
0.270939
0.270937
0.270935
0.270933
0.270931
0.270928
0.270926
0.270924
0.270922
0.27092
0.270918
0.270915
0.270913
0.270911
0.270909
0.270906
0.270904
0.270902
0.270899
0.270897
0.270894
0.270892
0.270889
0.270887
0.270884
0.270881
0.270879
0.270876
0.270873
0.27087
0.270867
0.270865
0.270862
0.270858
0.270855
0.270852
0.270849
0.270846
0.270842
0.270838
0.271052
0.271049
0.271047
0.271044
0.271042
0.27104
0.271039
0.271038
0.271036
0.271035
0.271034
0.271033
0.271032
0.27103
0.271029
0.271028
0.271026
0.271025
0.271024
0.271022
0.271021
0.27102
0.271018
0.271017
0.271016
0.271014
0.271013
0.271011
0.27101
0.271009
0.271007
0.271006
0.271005
0.271003
0.271002
0.271
0.270999
0.270997
0.270996
0.270994
0.270993
0.270991
0.270989
0.270988
0.270986
0.270984
0.270983
0.270981
0.270979
0.270977
0.270975
0.270973
0.270971
0.270969
0.270967
0.271096
0.271093
0.27109
0.271088
0.271086
0.271085
0.271083
0.271082
0.271081
0.27108
0.27108
0.271079
0.271078
0.271077
0.271076
0.271075
0.271074
0.271073
0.271072
0.271071
0.27107
0.271069
0.271068
0.271067
0.271066
0.271065
0.271064
0.271063
0.271062
0.271062
0.271061
0.27106
0.271059
0.271058
0.271057
0.271056
0.271055
0.271054
0.271053
0.271052
0.271051
0.27105
0.271049
0.271048
0.271047
0.271046
0.271045
0.271044
0.271043
0.271042
0.271041
0.27104
0.271039
0.271037
0.271036
0.27112
0.271117
0.271114
0.271112
0.27111
0.271108
0.271107
0.271105
0.271105
0.271104
0.271103
0.271102
0.271101
0.271101
0.2711
0.271099
0.271098
0.271097
0.271096
0.271095
0.271095
0.271094
0.271093
0.271092
0.271091
0.271091
0.27109
0.271089
0.271089
0.271088
0.271087
0.271087
0.271086
0.271085
0.271085
0.271084
0.271083
0.271083
0.271082
0.271082
0.271081
0.27108
0.27108
0.271079
0.271078
0.271078
0.271077
0.271076
0.271076
0.271075
0.271074
0.271074
0.271073
0.271072
0.271071
0.27113
0.271127
0.271125
0.271122
0.271121
0.271119
0.271118
0.271117
0.271116
0.271115
0.271115
0.271114
0.271113
0.271112
0.271111
0.27111
0.271109
0.271109
0.271108
0.271107
0.271106
0.271105
0.271105
0.271104
0.271103
0.271103
0.271102
0.271102
0.271101
0.2711
0.2711
0.271099
0.271099
0.271098
0.271098
0.271097
0.271097
0.271096
0.271096
0.271095
0.271095
0.271094
0.271094
0.271093
0.271093
0.271093
0.271092
0.271092
0.271091
0.271091
0.27109
0.27109
0.271089
0.271089
0.271135
0.271132
0.27113
0.271128
0.271126
0.271125
0.271124
0.271123
0.271122
0.271121
0.27112
0.271119
0.271119
0.271118
0.271117
0.271116
0.271115
0.271114
0.271113
0.271113
0.271112
0.271111
0.271111
0.27111
0.271109
0.271109
0.271108
0.271108
0.271107
0.271106
0.271106
0.271105
0.271105
0.271105
0.271104
0.271104
0.271103
0.271103
0.271102
0.271102
0.271102
0.271101
0.271101
0.271101
0.2711
0.2711
0.2711
0.271099
0.271099
0.271099
0.271098
0.271098
0.271097
0.271139
0.271136
0.271133
0.271131
0.27113
0.271128
0.271127
0.271126
0.271125
0.271124
0.271124
0.271123
0.271122
0.271121
0.27112
0.271119
0.271118
0.271117
0.271117
0.271116
0.271115
0.271114
0.271114
0.271113
0.271112
0.271112
0.271111
0.271111
0.27111
0.27111
0.271109
0.271109
0.271108
0.271108
0.271107
0.271107
0.271107
0.271106
0.271106
0.271106
0.271105
0.271105
0.271105
0.271104
0.271104
0.271104
0.271103
0.271103
0.271103
0.271103
0.271102
0.271102
0.271102
0.27114
0.271137
0.271135
0.271132
0.271131
0.271129
0.271128
0.271127
0.271126
0.271126
0.271125
0.271124
0.271123
0.271122
0.271121
0.27112
0.271119
0.271119
0.271118
0.271117
0.271116
0.271116
0.271115
0.271114
0.271114
0.271113
0.271113
0.271112
0.271112
0.271111
0.271111
0.27111
0.27111
0.271109
0.271109
0.271108
0.271108
0.271108
0.271107
0.271107
0.271107
0.271107
0.271106
0.271106
0.271106
0.271105
0.271105
0.271105
0.271105
0.271104
0.271104
0.271104
0.271104
0.27114
0.271137
0.271134
0.271132
0.27113
0.271129
0.271127
0.271127
0.271126
0.271125
0.271124
0.271123
0.271123
0.271122
0.271121
0.27112
0.271119
0.271118
0.271118
0.271117
0.271116
0.271116
0.271115
0.271114
0.271114
0.271113
0.271113
0.271112
0.271112
0.271111
0.271111
0.27111
0.27111
0.27111
0.271109
0.271109
0.271109
0.271108
0.271108
0.271108
0.271107
0.271107
0.271107
0.271107
0.271106
0.271106
0.271106
0.271106
0.271105
0.271105
0.271105
0.271105
0.271104
0.271137
0.271134
0.271132
0.27113
0.271128
0.271127
0.271126
0.271125
0.271124
0.271123
0.271123
0.271122
0.271121
0.271121
0.27112
0.271119
0.271118
0.271117
0.271117
0.271116
0.271115
0.271115
0.271114
0.271114
0.271113
0.271113
0.271112
0.271112
0.271111
0.271111
0.27111
0.27111
0.27111
0.271109
0.271109
0.271109
0.271108
0.271108
0.271108
0.271108
0.271107
0.271107
0.271107
0.271107
0.271106
0.271106
0.271106
0.271106
0.271106
0.271106
0.271105
0.271105
0.271105
0.271134
0.271131
0.271129
0.271127
0.271125
0.271124
0.271123
0.271122
0.271122
0.271121
0.271121
0.27112
0.271119
0.271119
0.271118
0.271117
0.271117
0.271116
0.271115
0.271115
0.271114
0.271114
0.271113
0.271113
0.271112
0.271112
0.271111
0.271111
0.271111
0.27111
0.27111
0.271109
0.271109
0.271109
0.271109
0.271108
0.271108
0.271108
0.271108
0.271107
0.271107
0.271107
0.271107
0.271107
0.271106
0.271106
0.271106
0.271106
0.271106
0.271106
0.271105
0.271105
0.271105
0.271131
0.271128
0.271125
0.271124
0.271122
0.271121
0.27112
0.27112
0.271119
0.271119
0.271118
0.271118
0.271117
0.271117
0.271116
0.271116
0.271115
0.271114
0.271114
0.271113
0.271113
0.271112
0.271112
0.271112
0.271111
0.271111
0.27111
0.27111
0.27111
0.271109
0.271109
0.271109
0.271109
0.271108
0.271108
0.271108
0.271108
0.271107
0.271107
0.271107
0.271107
0.271107
0.271106
0.271106
0.271106
0.271106
0.271106
0.271106
0.271106
0.271106
0.271105
0.271105
0.271105
0.271127
0.271124
0.271122
0.27112
0.271119
0.271118
0.271117
0.271117
0.271117
0.271116
0.271116
0.271116
0.271115
0.271115
0.271114
0.271114
0.271113
0.271113
0.271112
0.271112
0.271112
0.271111
0.271111
0.27111
0.27111
0.27111
0.271109
0.271109
0.271109
0.271109
0.271108
0.271108
0.271108
0.271108
0.271108
0.271107
0.271107
0.271107
0.271107
0.271107
0.271107
0.271106
0.271106
0.271106
0.271106
0.271106
0.271106
0.271106
0.271106
0.271105
0.271105
0.271105
0.271105
0.271123
0.271121
0.271119
0.271117
0.271116
0.271115
0.271115
0.271115
0.271114
0.271114
0.271114
0.271114
0.271113
0.271113
0.271113
0.271112
0.271112
0.271112
0.271111
0.271111
0.27111
0.27111
0.27111
0.271109
0.271109
0.271109
0.271109
0.271108
0.271108
0.271108
0.271108
0.271108
0.271107
0.271107
0.271107
0.271107
0.271107
0.271107
0.271107
0.271106
0.271106
0.271106
0.271106
0.271106
0.271106
0.271106
0.271106
0.271106
0.271106
0.271105
0.271105
0.271105
0.271105
0.27112
0.271117
0.271116
0.271114
0.271113
0.271113
0.271112
0.271112
0.271112
0.271112
0.271112
0.271112
0.271112
0.271112
0.271111
0.271111
0.271111
0.27111
0.27111
0.27111
0.271109
0.271109
0.271109
0.271109
0.271109
0.271108
0.271108
0.271108
0.271108
0.271108
0.271107
0.271107
0.271107
0.271107
0.271107
0.271107
0.271107
0.271106
0.271106
0.271106
0.271106
0.271106
0.271106
0.271106
0.271106
0.271106
0.271106
0.271106
0.271106
0.271105
0.271105
0.271105
0.271105
0.271116
0.271114
0.271113
0.271112
0.271111
0.27111
0.27111
0.27111
0.27111
0.271111
0.271111
0.271111
0.27111
0.27111
0.27111
0.27111
0.27111
0.271109
0.271109
0.271109
0.271109
0.271109
0.271108
0.271108
0.271108
0.271108
0.271108
0.271108
0.271107
0.271107
0.271107
0.271107
0.271107
0.271107
0.271107
0.271107
0.271106
0.271106
0.271106
0.271106
0.271106
0.271106
0.271106
0.271106
0.271106
0.271106
0.271106
0.271106
0.271106
0.271105
0.271105
0.271105
0.271105
0.271114
0.271112
0.271111
0.27111
0.271109
0.271109
0.271109
0.271109
0.271109
0.271109
0.271109
0.27111
0.27111
0.271109
0.271109
0.271109
0.271109
0.271109
0.271109
0.271108
0.271108
0.271108
0.271108
0.271108
0.271108
0.271108
0.271107
0.271107
0.271107
0.271107
0.271107
0.271107
0.271107
0.271107
0.271107
0.271106
0.271106
0.271106
0.271106
0.271106
0.271106
0.271106
0.271106
0.271106
0.271106
0.271106
0.271106
0.271106
0.271105
0.271105
0.271105
0.271105
0.271105
0.271111
0.27111
0.271109
0.271108
0.271108
0.271107
0.271108
0.271108
0.271108
0.271109
0.271109
0.271109
0.271109
0.271109
0.271109
0.271109
0.271109
0.271109
0.271108
0.271108
0.271108
0.271108
0.271108
0.271108
0.271108
0.271107
0.271107
0.271107
0.271107
0.271107
0.271107
0.271107
0.271107
0.271107
0.271106
0.271106
0.271106
0.271106
0.271106
0.271106
0.271106
0.271106
0.271106
0.271106
0.271106
0.271105
0.271105
0.271105
0.271105
0.271105
0.271105
0.271105
0.271105
0.27111
0.271109
0.271108
0.271107
0.271107
0.271107
0.271107
0.271107
0.271108
0.271108
0.271108
0.271109
0.271109
0.271109
0.271109
0.271109
0.271109
0.271108
0.271108
0.271108
0.271108
0.271108
0.271108
0.271108
0.271107
0.271107
0.271107
0.271107
0.271107
0.271107
0.271107
0.271107
0.271106
0.271106
0.271106
0.271106
0.271106
0.271106
0.271106
0.271106
0.271106
0.271105
0.271105
0.271105
0.271105
0.271105
0.271105
0.271105
0.271105
0.271105
0.271105
0.271104
0.271104
0.271109
0.271108
0.271107
0.271107
0.271106
0.271106
0.271107
0.271107
0.271108
0.271108
0.271108
0.271108
0.271109
0.271109
0.271109
0.271109
0.271108
0.271108
0.271108
0.271108
0.271108
0.271108
0.271108
0.271107
0.271107
0.271107
0.271107
0.271107
0.271107
0.271107
0.271106
0.271106
0.271106
0.271106
0.271106
0.271106
0.271106
0.271105
0.271105
0.271105
0.271105
0.271105
0.271105
0.271105
0.271105
0.271104
0.271104
0.271104
0.271104
0.271104
0.271104
0.271104
0.271103
0.271108
0.271107
0.271107
0.271106
0.271106
0.271106
0.271107
0.271107
0.271107
0.271108
0.271108
0.271108
0.271108
0.271108
0.271108
0.271108
0.271108
0.271108
0.271108
0.271108
0.271108
0.271107
0.271107
0.271107
0.271107
0.271107
0.271107
0.271106
0.271106
0.271106
0.271106
0.271106
0.271105
0.271105
0.271105
0.271105
0.271105
0.271105
0.271104
0.271104
0.271104
0.271104
0.271104
0.271103
0.271103
0.271103
0.271103
0.271103
0.271103
0.271102
0.271102
0.271102
0.271102
0.271108
0.271107
0.271106
0.271106
0.271106
0.271106
0.271106
0.271107
0.271107
0.271107
0.271108
0.271108
0.271108
0.271108
0.271108
0.271108
0.271108
0.271108
0.271107
0.271107
0.271107
0.271107
0.271106
0.271106
0.271106
0.271106
0.271105
0.271105
0.271105
0.271105
0.271104
0.271104
0.271104
0.271104
0.271103
0.271103
0.271103
0.271103
0.271102
0.271102
0.271102
0.271102
0.271101
0.271101
0.271101
0.271101
0.2711
0.2711
0.2711
0.2711
0.271099
0.271099
0.271098
0.271107
0.271106
0.271106
0.271105
0.271105
0.271105
0.271106
0.271106
0.271106
0.271107
0.271107
0.271107
0.271107
0.271107
0.271107
0.271106
0.271106
0.271106
0.271106
0.271105
0.271105
0.271105
0.271104
0.271104
0.271104
0.271103
0.271103
0.271103
0.271102
0.271102
0.271102
0.271101
0.271101
0.271101
0.2711
0.2711
0.271099
0.271099
0.271099
0.271098
0.271098
0.271097
0.271097
0.271096
0.271096
0.271096
0.271095
0.271095
0.271094
0.271094
0.271093
0.271093
0.271092
0.271105
0.271104
0.271104
0.271103
0.271103
0.271103
0.271103
0.271104
0.271104
0.271104
0.271104
0.271104
0.271104
0.271104
0.271104
0.271103
0.271103
0.271103
0.271102
0.271102
0.271101
0.271101
0.2711
0.2711
0.271099
0.271099
0.271098
0.271098
0.271097
0.271097
0.271096
0.271095
0.271095
0.271094
0.271094
0.271093
0.271092
0.271092
0.271091
0.27109
0.271089
0.271089
0.271088
0.271087
0.271086
0.271085
0.271085
0.271084
0.271083
0.271082
0.271081
0.27108
0.271079
0.271101
0.2711
0.2711
0.271099
0.271099
0.271099
0.271099
0.271099
0.271099
0.271099
0.271099
0.271099
0.271098
0.271098
0.271097
0.271097
0.271096
0.271096
0.271095
0.271094
0.271094
0.271093
0.271092
0.271091
0.27109
0.271089
0.271089
0.271088
0.271087
0.271086
0.271085
0.271084
0.271083
0.271082
0.27108
0.271079
0.271078
0.271077
0.271076
0.271074
0.271073
0.271072
0.27107
0.271069
0.271067
0.271065
0.271064
0.271062
0.27106
0.271058
0.271056
0.271054
0.271052
0.271093
0.271092
0.271092
0.271091
0.27109
0.27109
0.27109
0.271089
0.271089
0.271089
0.271088
0.271088
0.271087
0.271086
0.271085
0.271084
0.271083
0.271082
0.271081
0.27108
0.271079
0.271077
0.271076
0.271075
0.271073
0.271072
0.27107
0.271068
0.271067
0.271065
0.271063
0.271061
0.27106
0.271058
0.271055
0.271053
0.271051
0.271049
0.271046
0.271044
0.271041
0.271039
0.271036
0.271033
0.27103
0.271027
0.271023
0.27102
0.271016
0.271012
0.271008
0.271004
0.271
0.271079
0.271078
0.271076
0.271075
0.271074
0.271073
0.271073
0.271072
0.271071
0.27107
0.271069
0.271067
0.271066
0.271064
0.271063
0.271061
0.271059
0.271057
0.271055
0.271053
0.271051
0.271049
0.271046
0.271044
0.271041
0.271038
0.271036
0.271033
0.27103
0.271027
0.271023
0.27102
0.271016
0.271013
0.271009
0.271005
0.271
0.270996
0.270992
0.270987
0.270982
0.270977
0.270971
0.270966
0.27096
0.270953
0.270947
0.27094
0.270933
0.270926
0.270918
0.27091
0.270901
0.27105
0.271048
0.271046
0.271044
0.271042
0.27104
0.271038
0.271036
0.271034
0.271031
0.271029
0.271027
0.271024
0.271021
0.271018
0.271014
0.271011
0.271007
0.271004
0.271
0.270996
0.270991
0.270987
0.270982
0.270978
0.270973
0.270967
0.270962
0.270956
0.27095
0.270944
0.270938
0.270931
0.270924
0.270917
0.270909
0.270901
0.270893
0.270884
0.270875
0.270865
0.270855
0.270845
0.270834
0.270822
0.270811
0.270798
0.270785
0.270771
0.270757
0.270742
0.270726
0.270709
0.270989
0.270985
0.270981
0.270977
0.270973
0.270969
0.270965
0.270961
0.270957
0.270952
0.270947
0.270942
0.270937
0.270931
0.270925
0.270919
0.270912
0.270905
0.270898
0.270891
0.270883
0.270875
0.270866
0.270858
0.270848
0.270839
0.270829
0.270819
0.270808
0.270796
0.270785
0.270772
0.270759
0.270746
0.270732
0.270717
0.270702
0.270686
0.27067
0.270652
0.270634
0.270615
0.270595
0.270574
0.270553
0.27053
0.270506
0.270481
0.270455
0.270428
0.270399
0.270369
0.270337
0.270857
0.27085
0.270842
0.270834
0.270826
0.270818
0.27081
0.270802
0.270793
0.270783
0.270773
0.270763
0.270753
0.270741
0.27073
0.270718
0.270705
0.270692
0.270678
0.270664
0.270649
0.270634
0.270618
0.270601
0.270583
0.270565
0.270546
0.270527
0.270506
0.270485
0.270463
0.27044
0.270415
0.27039
0.270364
0.270337
0.270308
0.270279
0.270248
0.270215
0.270182
0.270146
0.27011
0.270071
0.270031
0.26999
0.269946
0.269901
0.269853
0.269803
0.269751
0.269697
0.26964
0.270564
0.27055
0.270535
0.27052
0.270505
0.270489
0.270473
0.270456
0.270438
0.27042
0.270401
0.270381
0.270361
0.270339
0.270317
0.270294
0.270271
0.270246
0.27022
0.270194
0.270166
0.270138
0.270108
0.270077
0.270045
0.270012
0.269978
0.269942
0.269905
0.269866
0.269826
0.269785
0.269741
0.269697
0.26965
0.269602
0.269551
0.269499
0.269445
0.269388
0.26933
0.269269
0.269205
0.269139
0.26907
0.268999
0.268925
0.268847
0.268767
0.268683
0.268596
0.268505
0.268411
0.269881
0.269853
0.269825
0.269797
0.269767
0.269737
0.269705
0.269673
0.26964
0.269605
0.26957
0.269533
0.269495
0.269456
0.269415
0.269373
0.26933
0.269285
0.269239
0.269191
0.269142
0.269091
0.269039
0.268985
0.268929
0.268871
0.268811
0.268749
0.268685
0.268619
0.268551
0.26848
0.268407
0.268332
0.268254
0.268173
0.26809
0.268004
0.267914
0.267822
0.267727
0.267628
0.267526
0.26742
0.267311
0.267197
0.26708
0.266959
0.266833
0.266703
0.266568
0.266429
0.266284
0.268198
0.268148
0.268096
0.268044
0.267989
0.267934
0.267877
0.267818
0.267758
0.267697
0.267633
0.267568
0.267501
0.267433
0.267362
0.26729
0.267215
0.267139
0.267061
0.26698
0.266897
0.266813
0.266725
0.266636
0.266544
0.266449
0.266352
0.266252
0.26615
0.266045
0.265936
0.265825
0.265711
0.265594
0.265473
0.265349
0.265222
0.265091
0.264956
0.264817
0.264675
0.264529
0.264378
0.264224
0.264064
0.263901
0.263732
0.263559
0.263381
0.263197
0.263008
0.262814
0.262614
0.26462
0.264539
0.264457
0.264373
0.264288
0.2642
0.264111
0.264019
0.263926
0.263831
0.263733
0.263634
0.263532
0.263428
0.263322
0.263214
0.263103
0.26299
0.262874
0.262756
0.262635
0.262512
0.262386
0.262257
0.262126
0.261992
0.261854
0.261714
0.261571
0.261424
0.261274
0.261121
0.260965
0.260805
0.260642
0.260475
0.260304
0.260129
0.259951
0.259768
0.259581
0.25939
0.259195
0.258995
0.258791
0.258582
0.258368
0.258149
0.257926
0.257696
0.257462
0.257222
0.256976
0.259443
0.259333
0.259221
0.259107
0.258991
0.258873
0.258752
0.258629
0.258504
0.258377
0.258247
0.258115
0.25798
0.257843
0.257703
0.257561
0.257416
0.257268
0.257118
0.256965
0.256809
0.25665
0.256488
0.256324
0.256156
0.255985
0.255811
0.255633
0.255453
0.255269
0.255081
0.25489
0.254695
0.254497
0.254295
0.254089
0.25388
0.253666
0.253448
0.253226
0.253
0.252769
0.252534
0.252294
0.25205
0.251801
0.251547
0.251288
0.251024
0.250755
0.25048
0.2502
0.249914
0.252129
0.251994
0.251856
0.251715
0.251573
0.251428
0.251281
0.251131
0.250978
0.250823
0.250666
0.250506
0.250343
0.250178
0.25001
0.249839
0.249665
0.249489
0.249309
0.249127
0.248942
0.248754
0.248563
0.248368
0.248171
0.24797
0.247766
0.247559
0.247348
0.247134
0.246916
0.246695
0.24647
0.246241
0.246009
0.245772
0.245532
0.245288
0.24504
0.244788
0.244531
0.24427
0.244005
0.243735
0.243461
0.243182
0.242898
0.24261
0.242316
0.242018
0.241714
0.241404
0.24109
0.240769
0.242518
0.242363
0.242205
0.242045
0.241883
0.241717
0.24155
0.24138
0.241207
0.241032
0.240854
0.240673
0.24049
0.240304
0.240115
0.239924
0.239729
0.239532
0.239332
0.239129
0.238923
0.238714
0.238502
0.238287
0.238069
0.237847
0.237623
0.237395
0.237163
0.236928
0.23669
0.236448
0.236203
0.235954
0.235702
0.235446
0.235186
0.234922
0.234654
0.234383
0.234107
0.233827
0.233543
0.233255
0.232962
0.232665
0.232364
0.232057
0.231747
0.231431
0.23111
0.230785
0.230454
0.230118
0.230498
0.230331
0.230162
0.22999
0.229815
0.229638
0.229459
0.229277
0.229092
0.228905
0.228715
0.228523
0.228328
0.22813
0.22793
0.227727
0.227521
0.227312
0.227101
0.226887
0.22667
0.22645
0.226227
0.226001
0.225772
0.22554
0.225305
0.225067
0.224826
0.224581
0.224333
0.224082
0.223828
0.22357
0.223308
0.223044
0.222775
0.222503
0.222228
0.221949
0.221666
0.221379
0.221088
0.220793
0.220495
0.220192
0.219885
0.219574
0.219259
0.218939
0.218615
0.218286
0.217953
0.217615
0.215949
0.215779
0.215606
0.215431
0.215253
0.215073
0.214891
0.214706
0.214519
0.214329
0.214137
0.213942
0.213745
0.213546
0.213343
0.213139
0.212931
0.212721
0.212509
0.212294
0.212076
0.211856
0.211632
0.211406
0.211178
0.210946
0.210711
0.210474
0.210234
0.20999
0.209744
0.209495
0.209242
0.208987
0.208728
0.208466
0.208201
0.207933
0.207661
0.207387
0.207108
0.206827
0.206542
0.206253
0.205961
0.205665
0.205365
0.205062
0.204755
0.204444
0.204129
0.20381
0.203487
0.203159
0.198653
0.198489
0.198322
0.198153
0.197981
0.197807
0.197631
0.197453
0.197273
0.19709
0.196905
0.196718
0.196529
0.196337
0.196143
0.195946
0.195748
0.195547
0.195343
0.195137
0.194929
0.194719
0.194506
0.19429
0.194072
0.193852
0.193628
0.193403
0.193174
0.192943
0.192709
0.192473
0.192234
0.191992
0.191747
0.1915
0.19125
0.190997
0.190741
0.190482
0.19022
0.189956
0.189688
0.189417
0.189143
0.188866
0.188586
0.188302
0.188015
0.187725
0.187431
0.187134
0.186833
0.186529
0.178111
0.177961
0.177809
0.177655
0.177498
0.17734
0.177179
0.177017
0.176853
0.176687
0.176518
0.176348
0.176176
0.176002
0.175825
0.175647
0.175467
0.175284
0.1751
0.174914
0.174725
0.174534
0.174342
0.174147
0.17395
0.173751
0.173549
0.173345
0.173139
0.172931
0.17272
0.172507
0.172292
0.172075
0.171855
0.171633
0.171408
0.171181
0.170952
0.17072
0.170486
0.170249
0.170009
0.169768
0.169523
0.169276
0.169026
0.168773
0.168518
0.16826
0.167999
0.167735
0.167468
0.167198
0.152993
0.152866
0.152737
0.152606
0.152474
0.152339
0.152203
0.152066
0.151927
0.151786
0.151644
0.151499
0.151354
0.151206
0.151057
0.150906
0.150754
0.150599
0.150444
0.150286
0.150127
0.149966
0.149803
0.149639
0.149473
0.149305
0.149135
0.148963
0.148789
0.148614
0.148436
0.148257
0.148076
0.147893
0.147708
0.147521
0.147333
0.147142
0.14695
0.146755
0.146559
0.14636
0.14616
0.145957
0.145752
0.145546
0.145337
0.145125
0.144912
0.144696
0.144479
0.144258
0.144036
0.143811
0.118904
0.118808
0.118712
0.118614
0.118515
0.118415
0.118313
0.118211
0.118107
0.118001
0.117895
0.117787
0.117678
0.117568
0.117456
0.117344
0.11723
0.117115
0.116998
0.116881
0.116762
0.116642
0.11652
0.116398
0.116273
0.116148
0.116021
0.115893
0.115763
0.115632
0.1155
0.115366
0.115231
0.115095
0.114957
0.114818
0.114678
0.114536
0.114392
0.114248
0.114102
0.113954
0.113805
0.113654
0.113502
0.113349
0.113193
0.113037
0.112878
0.112718
0.112557
0.112393
0.112228
0.112062
0.0563474
0.0563062
0.0562646
0.0562225
0.0561799
0.0561369
0.0560935
0.0560497
0.0560055
0.0559608
0.0559157
0.0558702
0.0558242
0.0557777
0.0557307
0.0556833
0.0556354
0.0555871
0.0555383
0.055489
0.0554392
0.0553889
0.0553381
0.0552868
0.0552349
0.0551825
0.0551294
0.0550758
0.0550216
0.0549668
0.0549114
0.0548555
0.0547989
0.0547418
0.0546841
0.0546257
0.0545668
0.0545073
0.0544472
0.0543864
0.054325
0.054263
0.0542003
0.0541369
0.0540729
0.0540083
0.0539429
0.0538768
0.0538101
0.0537426
0.0536744
0.0536055
0.0535358
0.0534653
)
;

boundaryField
{
    inlet
    {
        type            fixedValue;
        value           nonuniform 0();
    }
    outlet
    {
        type            zeroGradient;
    }
    upperWall
    {
        type            kqRWallFunction;
        value           nonuniform List<scalar> 
54
(
0.0563474
0.0563062
0.0562646
0.0562225
0.0561799
0.0561369
0.0560935
0.0560497
0.0560055
0.0559608
0.0559157
0.0558702
0.0558242
0.0557777
0.0557307
0.0556833
0.0556354
0.0555871
0.0555383
0.055489
0.0554392
0.0553889
0.0553381
0.0552868
0.0552349
0.0551825
0.0551294
0.0550758
0.0550216
0.0549668
0.0549114
0.0548555
0.0547989
0.0547418
0.0546841
0.0546257
0.0545668
0.0545073
0.0544472
0.0543864
0.054325
0.054263
0.0542003
0.0541369
0.0540729
0.0540083
0.0539429
0.0538768
0.0538101
0.0537426
0.0536744
0.0536055
0.0535358
0.0534653
)
;
    }
    lowerWall
    {
        type            kqRWallFunction;
        value           nonuniform List<scalar> 
57
(
0.0818598
0.0818225
0.0817853
0.0817481
0.0817109
0.0816735
0.0816369
0.081602
0.0815674
0.0815326
0.0814973
0.0814618
0.0814258
0.0813895
0.081353
0.0813161
0.081279
0.0812416
0.081204
0.0811661
0.0811279
0.0810896
0.0810509
0.0810121
0.080973
0.0809336
0.080894
0.0808542
0.0808141
0.0807737
0.0807331
0.0806922
0.080651
0.0806095
0.0805678
0.0805257
0.0804834
0.0804407
0.0803977
0.0803544
0.0803107
0.0802666
0.0802222
0.0801773
0.0801321
0.0800864
0.0800403
0.0799938
0.0799468
0.0798995
0.0798517
0.0798035
0.0797549
0.0797058
0.0796564
0.0796066
0.0795564
)
;
    }
    frontAndBack
    {
        type            empty;
    }
    procBoundary1to0
    {
        type            processor;
        value           nonuniform List<scalar> 
59
(
0.0795058
0.16308
0.202233
0.225843
0.24127
0.251625
0.258603
0.263261
0.266311
0.268257