/*--------------------------------*- C++ -*----------------------------------*\
  =========                 |
  \\      /  F ield         | OpenFOAM: The Open Source CFD Toolbox
   \\    /   O peration     | Website:  https://openfoam.org
    \\  /    A nd           | Version:  6
     \\/     M anipulation  |
\*---------------------------------------------------------------------------*/
FoamFile
{
    version     2.0;
    format      ascii;
    class       volScalarField;
    location    "0.01";
    object      nut;
}
// * * * * * * * * * * * * * * * * * * * * * * * * * * * * * * * * * * * * * //

dimensions      [0 2 -1 0 0 0 0];

internalField   nonuniform List<scalar> 
3081
(
3.17841e-05
3.17471e-05
3.17099e-05
3.16726e-05
3.1635e-05
3.15973e-05
3.15595e-05
3.15218e-05
3.14841e-05
3.14462e-05
3.14079e-05
3.13694e-05
3.13306e-05
3.12915e-05
3.12521e-05
3.12124e-05
3.11725e-05
3.11323e-05
3.10918e-05
3.1051e-05
3.10099e-05
3.09686e-05
3.0927e-05
3.08851e-05
3.08429e-05
3.08004e-05
3.07576e-05
3.07145e-05
3.06711e-05
3.06274e-05
3.05834e-05
3.05391e-05
3.04945e-05
3.04496e-05
3.04043e-05
3.03588e-05
3.03129e-05
3.02666e-05
3.022e-05
3.01731e-05
3.01259e-05
3.00782e-05
3.00303e-05
2.99819e-05
2.99332e-05
2.98841e-05
2.98347e-05
2.97849e-05
2.97347e-05
2.96841e-05
2.96331e-05
2.95818e-05
2.95301e-05
2.9478e-05
2.94255e-05
2.93726e-05
2.93193e-05
0.00022309
0.000222866
0.000222644
0.000222422
0.000222201
0.000221982
0.000221762
0.000221537
0.000221308
0.000221079
0.000220849
0.000220619
0.00022039
0.000220161
0.000219932
0.000219703
0.000219475
0.000219247
0.000219018
0.00021879
0.000218562
0.000218333
0.000218104
0.000217875
0.000217646
0.000217416
0.000217185
0.000216954
0.000216722
0.000216489
0.000216255
0.000216021
0.000215785
0.000215548
0.000215309
0.00021507
0.000214829
0.000214586
0.000214342
0.000214096
0.000213849
0.000213599
0.000213348
0.000213095
0.00021284
0.000212582
0.000212323
0.000212062
0.000211799
0.000211533
0.000211266
0.000210997
0.000210725
0.000210452
0.000210177
0.000209899
0.00020962
0.000392569
0.000392224
0.00039188
0.000391538
0.000391199
0.000390861
0.000390524
0.000390181
0.000389835
0.000389487
0.000389137
0.000388786
0.000388435
0.000388085
0.000387734
0.000387383
0.000387033
0.000386683
0.000386332
0.000385982
0.000385631
0.00038528
0.000384928
0.000384576
0.000384223
0.00038387
0.000383515
0.000383159
0.000382802
0.000382444
0.000382084
0.000381722
0.000381359
0.000380994
0.000380626
0.000380257
0.000379886
0.000379512
0.000379136
0.000378757
0.000378375
0.00037799
0.000377603
0.000377212
0.000376819
0.000376422
0.000376022
0.000375618
0.000375212
0.000374802
0.000374388
0.000373972
0.000373552
0.000373129
0.000372703
0.000372274
0.000371841
0.000525846
0.000525443
0.000525043
0.000524645
0.000524249
0.000523855
0.00052346
0.000523061
0.000522658
0.000522253
0.000521845
0.000521437
0.000521027
0.000520618
0.000520207
0.000519797
0.000519386
0.000518975
0.000518563
0.000518151
0.000517739
0.000517326
0.000516912
0.000516497
0.000516081
0.000515663
0.000515245
0.000514824
0.000514402
0.000513978
0.000513552
0.000513124
0.000512694
0.000512261
0.000511826
0.000511388
0.000510947
0.000510503
0.000510056
0.000509606
0.000509152
0.000508695
0.000508234
0.000507769
0.000507301
0.000506828
0.000506352
0.000505871
0.000505387
0.000504898
0.000504405
0.000503908
0.000503407
0.000502902
0.000502392
0.000501879
0.000501361
0.000628297
0.000627893
0.000627491
0.000627091
0.000626694
0.000626298
0.0006259
0.000625499
0.000625094
0.000624687
0.000624278
0.000623867
0.000623455
0.000623041
0.000622627
0.000622212
0.000621796
0.00062138
0.000620963
0.000620545
0.000620126
0.000619706
0.000619285
0.000618863
0.000618439
0.000618014
0.000617587
0.000617158
0.000616727
0.000616293
0.000615858
0.000615419
0.000614979
0.000614535
0.000614089
0.000613639
0.000613187
0.000612731
0.000612271
0.000611808
0.000611342
0.000610871
0.000610396
0.000609917
0.000609434
0.000608947
0.000608455
0.000607959
0.000607458
0.000606953
0.000606443
0.000605929
0.00060541
0.000604886
0.000604358
0.000603825
0.000603287
0.000703948
0.000703585
0.000703224
0.000702864
0.000702507
0.00070215
0.000701791
0.000701429
0.000701065
0.000700699
0.00070033
0.00069996
0.000699587
0.000699214
0.000698838
0.000698462
0.000698085
0.000697707
0.000697328
0.000696947
0.000696566
0.000696183
0.000695799
0.000695414
0.000695026
0.000694637
0.000694247
0.000693854
0.000693458
0.000693061
0.000692661
0.000692258
0.000691853
0.000691445
0.000691034
0.00069062
0.000690202
0.000689782
0.000689357
0.000688929
0.000688498
0.000688062
0.000687623
0.000687179
0.000686731
0.000686279
0.000685822
0.000685361
0.000684896
0.000684425
0.000683951
0.000683472
0.000682988
0.000682499
0.000682005
0.000681507
0.000681003
0.000756843
0.000756545
0.00075625
0.000755957
0.000755663
0.000755368
0.000755071
0.000754772
0.000754472
0.000754169
0.000753864
0.000753557
0.000753249
0.000752939
0.000752627
0.000752315
0.000752001
0.000751686
0.00075137
0.000751053
0.000750734
0.000750414
0.000750092
0.000749769
0.000749444
0.000749117
0.000748788
0.000748457
0.000748123
0.000747788
0.000747449
0.000747109
0.000746765
0.000746419
0.00074607
0.000745718
0.000745363
0.000745004
0.000744642
0.000744277
0.000743908
0.000743535
0.000743159
0.000742778
0.000742394
0.000742006
0.000741613
0.000741217
0.000740816
0.000740411
0.000740001
0.000739588
0.000739169
0.000738746
0.000738319
0.000737886
0.000792411
0.000792184
0.000791959
0.000791736
0.000791513
0.000791289
0.000791065
0.000790839
0.000790612
0.000790383
0.000790152
0.000789919
0.000789684
0.000789447
0.000789209
0.00078897
0.00078873
0.000788488
0.000788246
0.000788002
0.000787757
0.00078751
0.000787262
0.000787013
0.000786762
0.000786509
0.000786254
0.000785998
0.00078574
0.000785479
0.000785216
0.000784952
0.000784684
0.000784415
0.000784143
0.000783868
0.00078359
0.00078331
0.000783027
0.000782741
0.000782451
0.000782159
0.000781863
0.000781564
0.000781262
0.000780956
0.000780647
0.000780333
0.000780017
0.000779696
0.000779372
0.000779044
0.000778713
0.000778377
0.000778036
0.000777691
0.000814788
0.000814628
0.00081447
0.000814311
0.000814153
0.000813996
0.000813838
0.000813678
0.000813518
0.000813355
0.000813191
0.000813025
0.000812857
0.000812688
0.000812518
0.000812347
0.000812174
0.000812
0.000811826
0.00081165
0.000811473
0.000811295
0.000811116
0.000810935
0.000810753
0.00081057
0.000810384
0.000810198
0.000810009
0.000809819
0.000809627
0.000809433
0.000809238
0.00080904
0.00080884
0.000808638
0.000808433
0.000808226
0.000808017
0.000807806
0.000807592
0.000807375
0.000807155
0.000806933
0.000806708
0.000806481
0.00080625
0.000806016
0.00080578
0.00080554
0.000805297
0.000805051
0.000804802
0.000804548
0.000804291
0.000828418
0.000828309
0.000828202
0.000828096
0.000827991
0.000827888
0.000827784
0.000827681
0.000827576
0.00082747
0.000827362
0.000827252
0.000827141
0.000827028
0.000826915
0.0008268
0.000826685
0.000826568
0.000826451
0.000826333
0.000826214
0.000826094
0.000825973
0.000825851
0.000825727
0.000825603
0.000825478
0.000825351
0.000825223
0.000825094
0.000824963
0.000824831
0.000824698
0.000824563
0.000824426
0.000824288
0.000824148
0.000824006
0.000823862
0.000823717
0.00082357
0.00082342
0.000823269
0.000823116
0.00082296
0.000822803
0.000822643
0.000822481
0.000822316
0.00082215
0.000821981
0.000821809
0.000821635
0.000821457
0.000821276
0.000836252
0.000836181
0.000836111
0.000836043
0.000835977
0.000835913
0.00083585
0.000835788
0.000835724
0.000835659
0.000835593
0.000835525
0.000835456
0.000835386
0.000835315
0.000835243
0.00083517
0.000835096
0.000835021
0.000834946
0.00083487
0.000834794
0.000834717
0.000834639
0.00083456
0.000834481
0.0008344
0.000834319
0.000834237
0.000834154
0.00083407
0.000833985
0.000833899
0.000833812
0.000833724
0.000833634
0.000833544
0.000833452
0.000833358
0.000833264
0.000833168
0.000833071
0.000832972
0.000832872
0.000832771
0.000832667
0.000832563
0.000832456
0.000832348
0.000832239
0.000832127
0.000832014
0.000831898
0.000831781
0.00083166
0.000840562
0.000840515
0.00084047
0.000840428
0.000840389
0.000840351
0.000840316
0.00084028
0.000840245
0.000840209
0.000840171
0.000840132
0.000840092
0.000840051
0.000840008
0.000839965
0.000839922
0.000839877
0.000839832
0.000839787
0.000839741
0.000839695
0.000839648
0.0008396
0.000839553
0.000839504
0.000839455
0.000839406
0.000839356
0.000839305
0.000839254
0.000839202
0.000839149
0.000839095
0.000839041
0.000838986
0.00083893
0.000838873
0.000838816
0.000838758
0.000838698
0.000838638
0.000838577
0.000838515
0.000838451
0.000838387
0.000838322
0.000838255
0.000838188
0.000838119
0.000838049
0.000837978
0.000837905
0.000837831
0.000837754
0.000837674
0.00084284
0.000842809
0.00084278
0.000842753
0.00084273
0.000842709
0.00084269
0.000842673
0.000842656
0.000842638
0.000842618
0.000842598
0.000842577
0.000842554
0.00084253
0.000842506
0.000842481
0.000842455
0.000842429
0.000842403
0.000842376
0.000842349
0.000842322
0.000842294
0.000842267
0.000842238
0.00084221
0.000842181
0.000842152
0.000842122
0.000842092
0.000842061
0.00084203
0.000841999
0.000841967
0.000841935
0.000841902
0.000841868
0.000841834
0.0008418
0.000841764
0.000841729
0.000841692
0.000841655
0.000841618
0.00084158
0.000841541
0.000841501
0.00084146
0.000841419
0.000841377
0.000841334
0.00084129
0.000841245
0.000841198
0.000841149
0.000843981
0.000843961
0.000843943
0.000843929
0.000843918
0.000843909
0.000843902
0.000843895
0.000843888
0.000843881
0.000843872
0.000843862
0.00084385
0.000843838
0.000843825
0.000843811
0.000843797
0.000843783
0.000843768
0.000843753
0.000843738
0.000843722
0.000843707
0.000843691
0.000843675
0.000843659
0.000843643
0.000843626
0.000843609
0.000843592
0.000843575
0.000843558
0.00084354
0.000843522
0.000843503
0.000843485
0.000843466
0.000843446
0.000843426
0.000843406
0.000843386
0.000843365
0.000843344
0.000843323
0.000843301
0.000843278
0.000843255
0.000843232
0.000843208
0.000843184
0.000843159
0.000843134
0.000843107
0.000843079
0.000843049
0.000844564
0.000844547
0.000844533
0.000844523
0.000844517
0.000844513
0.000844512
0.000844512
0.000844512
0.000844511
0.000844509
0.000844506
0.000844501
0.000844495
0.000844489
0.000844482
0.000844474
0.000844466
0.000844458
0.00084445
0.000844442
0.000844433
0.000844425
0.000844416
0.000844407
0.000844398
0.000844389
0.00084438
0.000844371
0.000844361
0.000844352
0.000844342
0.000844332
0.000844322
0.000844312
0.000844302
0.000844291
0.000844281
0.00084427
0.000844259
0.000844247
0.000844236
0.000844224
0.000844212
0.0008442
0.000844187
0.000844175
0.000844162
0.000844148
0.000844135
0.000844121
0.000844106
0.000844091
0.000844075
0.000844057
0.000844851
0.000844836
0.000844823
0.000844814
0.00084481
0.000844809
0.000844812
0.000844815
0.000844819
0.000844823
0.000844825
0.000844825
0.000844825
0.000844823
0.00084482
0.000844817
0.000844813
0.000844808
0.000844804
0.000844799
0.000844795
0.00084479
0.000844785
0.00084478
0.000844776
0.000844771
0.000844766
0.000844761
0.000844756
0.00084475
0.000844745
0.00084474
0.000844735
0.000844729
0.000844724
0.000844718
0.000844712
0.000844706
0.0008447
0.000844694
0.000844688
0.000844682
0.000844675
0.000844669
0.000844662
0.000844655
0.000844648
0.000844641
0.000844634
0.000844626
0.000844619
0.000844611
0.000844602
0.000844592
0.000844582
0.000844979
0.000844964
0.000844951
0.000844943
0.000844939
0.00084494
0.000844944
0.00084495
0.000844957
0.000844963
0.000844967
0.000844971
0.000844972
0.000844973
0.000844972
0.000844971
0.000844969
0.000844966
0.000844964
0.000844961
0.000844959
0.000844956
0.000844953
0.000844951
0.000844948
0.000844945
0.000844942
0.000844939
0.000844937
0.000844934
0.000844931
0.000844928
0.000844925
0.000844922
0.000844919
0.000844916
0.000844913
0.000844909
0.000844906
0.000844903
0.0008449
0.000844896
0.000844893
0.000844889
0.000844886
0.000844882
0.000844878
0.000844874
0.00084487
0.000844866
0.000844862
0.000844858
0.000844853
0.000844847
0.000844841
0.000845015
0.000845004
0.000844996
0.000844993
0.000844994
0.000844999
0.000845007
0.000845015
0.000845022
0.000845029
0.000845034
0.000845037
0.000845039
0.000845039
0.000845039
0.000845038
0.000845037
0.000845036
0.000845034
0.000845032
0.000845031
0.000845029
0.000845027
0.000845026
0.000845024
0.000845023
0.000845021
0.000845019
0.000845018
0.000845016
0.000845014
0.000845013
0.000845011
0.000845009
0.000845007
0.000845006
0.000845004
0.000845002
0.000845
0.000844998
0.000844997
0.000844995
0.000844993
0.000844991
0.000844989
0.000844987
0.000844985
0.000844983
0.000844981
0.000844978
0.000844976
0.000844973
0.000844969
0.000844965
0.000845023
0.000845015
0.000845012
0.000845014
0.00084502
0.000845028
0.000845037
0.000845046
0.000845054
0.00084506
0.000845064
0.000845067
0.000845068
0.000845069
0.000845069
0.000845068
0.000845068
0.000845067
0.000845066
0.000845065
0.000845064
0.000845062
0.000845061
0.00084506
0.000845059
0.000845058
0.000845057
0.000845056
0.000845055
0.000845054
0.000845053
0.000845052
0.000845051
0.00084505
0.000845049
0.000845048
0.000845047
0.000845046
0.000845045
0.000845044
0.000845043
0.000845042
0.000845041
0.00084504
0.000845039
0.000845037
0.000845036
0.000845035
0.000845034
0.000845032
0.000845031
0.000845028
0.000845025
0.00084503
0.00084502
0.000845016
0.000845018
0.000845024
0.000845033
0.000845043
0.000845053
0.000845062
0.000845069
0.000845074
0.000845078
0.00084508
0.000845081
0.000845081
0.000845081
0.000845081
0.00084508
0.00084508
0.000845079
0.000845078
0.000845078
0.000845077
0.000845076
0.000845076
0.000845075
0.000845074
0.000845074
0.000845073
0.000845073
0.000845072
0.000845071
0.000845071
0.00084507
0.000845069
0.000845069
0.000845068
0.000845068
0.000845067
0.000845066
0.000845066
0.000845065
0.000845064
0.000845064
0.000845063
0.000845063
0.000845062
0.000845061
0.000845061
0.00084506
0.000845058
0.000845057
0.000845054
0.000845027
0.000845016
0.000845012
0.000845013
0.000845019
0.000845029
0.00084504
0.000845051
0.000845061
0.000845069
0.000845075
0.000845079
0.000845082
0.000845084
0.000845085
0.000845085
0.000845085
0.000845085
0.000845085
0.000845084
0.000845084
0.000845084
0.000845083
0.000845083
0.000845082
0.000845082
0.000845082
0.000845081
0.000845081
0.000845081
0.00084508
0.00084508
0.000845079
0.000845079
0.000845079
0.000845078
0.000845078
0.000845078
0.000845077
0.000845077
0.000845076
0.000845076
0.000845076
0.000845075
0.000845075
0.000845075
0.000845074
0.000845074
0.000845073
0.000845073
0.000845072
0.00084507
0.000845068
0.000845017
0.000845007
0.000845002
0.000845004
0.000845011
0.000845021
0.000845033
0.000845045
0.000845056
0.000845065
0.000845072
0.000845077
0.00084508
0.000845083
0.000845084
0.000845085
0.000845085
0.000845085
0.000845085
0.000845085
0.000845085
0.000845085
0.000845085
0.000845085
0.000845084
0.000845084
0.000845084
0.000845084
0.000845084
0.000845084
0.000845083
0.000845083
0.000845083
0.000845083
0.000845083
0.000845082
0.000845082
0.000845082
0.000845082
0.000845081
0.000845081
0.000845081
0.000845081
0.000845081
0.00084508
0.00084508
0.00084508
0.00084508
0.000845079
0.000845079
0.000845078
0.000845077
0.000845074
0.000845005
0.000844994
0.00084499
0.000844992
0.000845
0.000845012
0.000845025
0.000845038
0.00084505
0.000845059
0.000845067
0.000845073
0.000845077
0.000845079
0.000845081
0.000845082
0.000845083
0.000845083
0.000845084
0.000845084
0.000845084
0.000845084
0.000845084
0.000845084
0.000845084
0.000845084
0.000845084
0.000845084
0.000845084
0.000845084
0.000845084
0.000845084
0.000845084
0.000845084
0.000845084
0.000845084
0.000845084
0.000845083
0.000845083
0.000845083
0.000845083
0.000845083
0.000845083
0.000845083
0.000845083
0.000845083
0.000845082
0.000845082
0.000845082
0.000845082
0.000845081
0.00084508
0.000845078
0.00084499
0.000844981
0.000844977
0.000844981
0.000844989
0.000845002
0.000845016
0.00084503
0.000845043
0.000845053
0.000845061
0.000845068
0.000845072
0.000845075
0.000845077
0.000845079
0.00084508
0.000845081
0.000845081
0.000845082
0.000845082
0.000845082
0.000845082
0.000845083
0.000845083
0.000845083
0.000845083
0.000845083
0.000845083
0.000845084
0.000845084
0.000845084
0.000845084
0.000845084
0.000845084
0.000845084
0.000845084
0.000845084
0.000845084
0.000845084
0.000845084
0.000845084
0.000845084
0.000845084
0.000845084
0.000845084
0.000845084
0.000845083
0.000845083
0.000845083
0.000845082
0.000845081
0.000845079
0.000844977
0.000844968
0.000844966
0.00084497
0.00084498
0.000844993
0.000845008
0.000845023
0.000845036
0.000845047
0.000845056
0.000845063
0.000845068
0.000845071
0.000845074
0.000845075
0.000845077
0.000845078
0.000845079
0.000845079
0.00084508
0.00084508
0.000845081
0.000845081
0.000845081
0.000845082
0.000845082
0.000845082
0.000845083
0.000845083
0.000845083
0.000845083
0.000845083
0.000845083
0.000845083
0.000845084
0.000845084
0.000845084
0.000845084
0.000845084
0.000845084
0.000845084
0.000845084
0.000845084
0.000845084
0.000845084
0.000845084
0.000845084
0.000845084
0.000845083
0.000845083
0.000845082
0.00084508
0.000844966
0.000844958
0.000844956
0.000844962
0.000844972
0.000844986
0.000845002
0.000845017
0.000845031
0.000845043
0.000845052
0.000845059
0.000845064
0.000845068
0.000845071
0.000845073
0.000845074
0.000845075
0.000845076
0.000845077
0.000845078
0.000845078
0.000845079
0.00084508
0.00084508
0.00084508
0.000845081
0.000845081
0.000845082
0.000845082
0.000845082
0.000845082
0.000845083
0.000845083
0.000845083
0.000845083
0.000845083
0.000845083
0.000845084
0.000845084
0.000845084
0.000845084
0.000845084
0.000845084
0.000845084
0.000845084
0.000845084
0.000845084
0.000845084
0.000845084
0.000845083
0.000845082
0.00084508
0.000844959
0.000844951
0.00084495
0.000844956
0.000844967
0.000844981
0.000844997
0.000845013
0.000845027
0.000845039
0.000845049
0.000845056
0.000845061
0.000845065
0.000845068
0.000845071
0.000845072
0.000845074
0.000845075
0.000845076
0.000845076
0.000845077
0.000845078
0.000845078
0.000845079
0.00084508
0.00084508
0.00084508
0.000845081
0.000845081
0.000845082
0.000845082
0.000845082
0.000845082
0.000845083
0.000845083
0.000845083
0.000845083
0.000845083
0.000845083
0.000845084
0.000845084
0.000845084
0.000845084
0.000845084
0.000845084
0.000845084
0.000845084
0.000845084
0.000845084
0.000845083
0.000845082
0.00084508
0.000844955
0.000844948
0.000844948
0.000844954
0.000844965
0.000844979
0.000844995
0.000845011
0.000845025
0.000845037
0.000845047
0.000845054
0.00084506
0.000845064
0.000845067
0.000845069
0.000845071
0.000845073
0.000845074
0.000845075
0.000845076
0.000845076
0.000845077
0.000845078
0.000845078
0.000845079
0.00084508
0.00084508
0.00084508
0.000845081
0.000845081
0.000845082
0.000845082
0.000845082
0.000845082
0.000845083
0.000845083
0.000845083
0.000845083
0.000845083
0.000845084
0.000845084
0.000845084
0.000845084
0.000845084
0.000845084
0.000845084
0.000845084
0.000845084
0.000845084
0.000845083
0.000845082
0.00084508
0.000844956
0.000844949
0.000844948
0.000844954
0.000844965
0.000844979
0.000844995
0.00084501
0.000845025
0.000845037
0.000845046
0.000845054
0.000845059
0.000845063
0.000845067
0.000845069
0.000845071
0.000845072
0.000845073
0.000845074
0.000845075
0.000845076
0.000845077
0.000845078
0.000845078
0.000845079
0.000845079
0.00084508
0.00084508
0.000845081
0.000845081
0.000845082
0.000845082
0.000845082
0.000845082
0.000845083
0.000845083
0.000845083
0.000845083
0.000845083
0.000845083
0.000845084
0.000845084
0.000845084
0.000845084
0.000845084
0.000845084
0.000845084
0.000845084
0.000845084
0.000845083
0.000845082
0.00084508
0.00084496
0.000844953
0.000844952
0.000844957
0.000844967
0.000844981
0.000844997
0.000845012
0.000845026
0.000845037
0.000845047
0.000845054
0.00084506
0.000845064
0.000845067
0.000845069
0.000845071
0.000845072
0.000845074
0.000845075
0.000845076
0.000845076
0.000845077
0.000845078
0.000845078
0.000845079
0.00084508
0.00084508
0.00084508
0.000845081
0.000845081
0.000845082
0.000845082
0.000845082
0.000845082
0.000845083
0.000845083
0.000845083
0.000845083
0.000845083
0.000845083
0.000845084
0.000845084
0.000845084
0.000845084
0.000845084
0.000845084
0.000845084
0.000845084
0.000845084
0.000845083
0.000845082
0.00084508
0.000844966
0.000844959
0.000844958
0.000844962
0.000844972
0.000844985
0.000845
0.000845015
0.000845028
0.000845039
0.000845048
0.000845056
0.000845061
0.000845065
0.000845068
0.00084507
0.000845072
0.000845073
0.000845074
0.000845075
0.000845076
0.000845077
0.000845078
0.000845078
0.000845079
0.000845079
0.00084508
0.00084508
0.000845081
0.000845081
0.000845081
0.000845082
0.000845082
0.000845082
0.000845082
0.000845082
0.000845083
0.000845083
0.000845083
0.000845083
0.000845083
0.000845083
0.000845083
0.000845083
0.000845083
0.000845083
0.000845083
0.000845083
0.000845083
0.000845083
0.000845082
0.000845081
0.00084508
0.000844973
0.000844967
0.000844965
0.000844969
0.000844978
0.000844991
0.000845004
0.000845018
0.000845031
0.000845042
0.000845051
0.000845057
0.000845062
0.000845066
0.000845069
0.000845071
0.000845073
0.000845074
0.000845075
0.000845076
0.000845077
0.000845077
0.000845078
0.000845078
0.000845079
0.000845079
0.00084508
0.00084508
0.00084508
0.000845081
0.000845081
0.000845081
0.000845081
0.000845081
0.000845081
0.000845082
0.000845082
0.000845082
0.000845082
0.000845082
0.000845082
0.000845082
0.000845082
0.000845082
0.000845082
0.000845082
0.000845082
0.000845082
0.000845081
0.000845081
0.00084508
0.000845079
0.000845078
0.000844982
0.000844975
0.000844974
0.000844977
0.000844985
0.000844996
0.000845009
0.000845022
0.000845034
0.000845044
0.000845053
0.000845059
0.000845064
0.000845067
0.00084507
0.000845072
0.000845073
0.000845074
0.000845075
0.000845076
0.000845076
0.000845077
0.000845077
0.000845078
0.000845078
0.000845078
0.000845079
0.000845079
0.000845079
0.000845079
0.000845079
0.000845079
0.000845079
0.000845079
0.000845079
0.000845079
0.000845079
0.000845079
0.000845079
0.000845079
0.000845079
0.000845079
0.000845079
0.000845078
0.000845078
0.000845078
0.000845078
0.000845078
0.000845077
0.000845077
0.000845076
0.000845075
0.000845073
0.00084499
0.000844983
0.000844982
0.000844985
0.000844992
0.000845002
0.000845014
0.000845026
0.000845037
0.000845046
0.000845054
0.000845059
0.000845064
0.000845067
0.000845069
0.000845071
0.000845072
0.000845073
0.000845073
0.000845074
0.000845074
0.000845075
0.000845075
0.000845075
0.000845075
0.000845075
0.000845075
0.000845075
0.000845075
0.000845075
0.000845075
0.000845075
0.000845075
0.000845074
0.000845074
0.000845074
0.000845074
0.000845073
0.000845073
0.000845073
0.000845072
0.000845072
0.000845071
0.000845071
0.00084507
0.00084507
0.000845069
0.000845069
0.000845068
0.000845067
0.000845066
0.000845065
0.000845063
0.000844996
0.00084499
0.000844988
0.00084499
0.000844996
0.000845005
0.000845016
0.000845027
0.000845037
0.000845045
0.000845052
0.000845057
0.000845061
0.000845064
0.000845065
0.000845067
0.000845067
0.000845068
0.000845068
0.000845068
0.000845068
0.000845068
0.000845068
0.000845068
0.000845068
0.000845068
0.000845067
0.000845067
0.000845066
0.000845066
0.000845065
0.000845065
0.000845064
0.000845064
0.000845063
0.000845062
0.000845062
0.000845061
0.00084506
0.000845059
0.000845058
0.000845057
0.000845056
0.000845055
0.000845054
0.000845053
0.000845052
0.000845051
0.000845049
0.000845048
0.000845046
0.000845044
0.000845041
0.000844998
0.000844992
0.000844989
0.000844991
0.000844996
0.000845004
0.000845013
0.000845023
0.000845031
0.000845039
0.000845045
0.000845049
0.000845052
0.000845054
0.000845055
0.000845056
0.000845056
0.000845056
0.000845056
0.000845056
0.000845055
0.000845054
0.000845054
0.000845053
0.000845052
0.000845051
0.00084505
0.000845049
0.000845048
0.000845047
0.000845046
0.000845044
0.000845043
0.000845041
0.00084504
0.000845038
0.000845037
0.000845035
0.000845033
0.000845031
0.000845029
0.000845027
0.000845025
0.000845023
0.00084502
0.000845018
0.000845016
0.000845013
0.00084501
0.000845007
0.000845004
0.000845
0.000844995
0.000844991
0.000844985
0.000844982
0.000844982
0.000844986
0.000844993
0.000845001
0.000845009
0.000845016
0.000845022
0.000845027
0.00084503
0.000845032
0.000845033
0.000845033
0.000845033
0.000845032
0.000845031
0.00084503
0.000845029
0.000845027
0.000845025
0.000845023
0.000845022
0.000845019
0.000845017
0.000845015
0.000845013
0.00084501
0.000845008
0.000845005
0.000845002
0.000844999
0.000844996
0.000844993
0.000844989
0.000844986
0.000844982
0.000844978
0.000844974
0.00084497
0.000844966
0.000844961
0.000844956
0.000844951
0.000844946
0.000844941
0.000844935
0.000844929
0.000844923
0.000844916
0.000844908
0.0008449
0.000844968
0.000844961
0.000844957
0.000844957
0.000844959
0.000844964
0.00084497
0.000844976
0.000844981
0.000844985
0.000844988
0.00084499
0.00084499
0.000844989
0.000844988
0.000844986
0.000844983
0.00084498
0.000844977
0.000844974
0.00084497
0.000844966
0.000844963
0.000844958
0.000844954
0.000844949
0.000844945
0.00084494
0.000844934
0.000844929
0.000844923
0.000844917
0.000844911
0.000844905
0.000844898
0.000844891
0.000844883
0.000844876
0.000844867
0.000844859
0.00084485
0.000844841
0.000844831
0.000844821
0.000844811
0.0008448
0.000844788
0.000844776
0.000844764
0.00084475
0.000844736
0.000844721
0.000844704
0.000844918
0.00084491
0.000844904
0.000844901
0.000844901
0.000844903
0.000844906
0.000844909
0.000844911
0.000844912
0.000844912
0.000844911
0.000844908
0.000844904
0.0008449
0.000844894
0.000844889
0.000844882
0.000844876
0.000844869
0.000844861
0.000844853
0.000844845
0.000844837
0.000844828
0.000844819
0.000844809
0.000844799
0.000844788
0.000844777
0.000844765
0.000844753
0.000844741
0.000844727
0.000844713
0.000844699
0.000844684
0.000844668
0.000844651
0.000844634
0.000844616
0.000844597
0.000844577
0.000844556
0.000844534
0.000844511
0.000844487
0.000844462
0.000844435
0.000844407
0.000844378
0.000844346
0.000844313
0.000844819
0.000844808
0.000844799
0.000844792
0.000844788
0.000844785
0.000844783
0.000844781
0.000844779
0.000844775
0.000844769
0.000844763
0.000844754
0.000844745
0.000844735
0.000844724
0.000844712
0.000844699
0.000844685
0.000844671
0.000844657
0.000844641
0.000844625
0.000844608
0.00084459
0.000844572
0.000844553
0.000844532
0.000844511
0.000844489
0.000844466
0.000844442
0.000844416
0.00084439
0.000844362
0.000844333
0.000844303
0.000844271
0.000844237
0.000844202
0.000844166
0.000844127
0.000844087
0.000844044
0.000844
0.000843953
0.000843904
0.000843853
0.000843799
0.000843742
0.000843682
0.000843618
0.000843551
0.000844611
0.000844594
0.000844578
0.000844564
0.000844551
0.00084454
0.00084453
0.000844519
0.000844507
0.000844493
0.000844478
0.000844461
0.000844442
0.000844421
0.0008444
0.000844377
0.000844352
0.000844327
0.0008443
0.000844272
0.000844242
0.000844211
0.000844179
0.000844145
0.00084411
0.000844073
0.000844035
0.000843995
0.000843953
0.000843909
0.000843862
0.000843814
0.000843764
0.000843711
0.000843655
0.000843597
0.000843536
0.000843473
0.000843406
0.000843336
0.000843262
0.000843185
0.000843105
0.00084302
0.000842931
0.000842837
0.000842739
0.000842636
0.000842528
0.000842414
0.000842294
0.000842168
0.000842034
0.000844158
0.000844128
0.000844098
0.000844069
0.000844041
0.000844013
0.000843985
0.000843956
0.000843926
0.000843893
0.000843857
0.00084382
0.000843779
0.000843737
0.000843692
0.000843645
0.000843595
0.000843543
0.000843489
0.000843432
0.000843373
0.000843312
0.000843247
0.00084318
0.000843109
0.000843036
0.000842959
0.000842878
0.000842794
0.000842706
0.000842615
0.000842518
0.000842418
0.000842313
0.000842203
0.000842087
0.000841967
0.00084184
0.000841708
0.00084157
0.000841424
0.000841272
0.000841113
0.000840946
0.000840771
0.000840587
0.000840394
0.000840192
0.00083998
0.000839757
0.000839523
0.000839277
0.000839018
0.000843143
0.000843084
0.000843025
0.000842966
0.000842906
0.000842845
0.000842782
0.000842717
0.000842649
0.000842578
0.000842502
0.000842423
0.000842339
0.000842252
0.00084216
0.000842065
0.000841965
0.000841861
0.000841752
0.000841639
0.000841521
0.000841399
0.00084127
0.000841137
0.000840998
0.000840852
0.000840701
0.000840543
0.000840378
0.000840206
0.000840026
0.000839839
0.000839643
0.000839439
0.000839226
0.000839003
0.00083877
0.000838527
0.000838273
0.000838008
0.00083773
0.00083744
0.000837137
0.00083682
0.000836488
0.000836142
0.000835779
0.000835399
0.000835002
0.000834586
0.00083415
0.000833693
0.000833215
0.00084081
0.000840695
0.000840578
0.000840458
0.000840335
0.000840209
0.000840078
0.000839943
0.000839802
0.000839656
0.000839503
0.000839343
0.000839177
0.000839004
0.000838824
0.000838637
0.000838442
0.00083824
0.00083803
0.000837812
0.000837586
0.000837351
0.000837106
0.000836852
0.000836588
0.000836314
0.000836029
0.000835733
0.000835425
0.000835104
0.000834771
0.000834425
0.000834065
0.00083369
0.0008333
0.000832895
0.000832473
0.000832034
0.000831577
0.000831101
0.000830606
0.00083009
0.000829554
0.000828995
0.000828413
0.000827806
0.000827175
0.000826517
0.000825832
0.000825117
0.000824373
0.000823596
0.000822786
0.000835192
0.000834967
0.000834735
0.000834497
0.000834253
0.000834002
0.000833743
0.000833475
0.000833199
0.000832912
0.000832615
0.000832308
0.00083199
0.000831661
0.000831321
0.000830969
0.000830605
0.000830229
0.00082984
0.000829438
0.000829022
0.000828593
0.000828149
0.00082769
0.000827215
0.000826725
0.000826217
0.000825692
0.000825149
0.000824588
0.000824007
0.000823407
0.000822785
0.000822142
0.000821477
0.000820789
0.000820076
0.000819339
0.000818576
0.000817787
0.000816969
0.000816123
0.000815248
0.000814341
0.000813402
0.00081243
0.000811423
0.000810381
0.000809301
0.000808183
0.000807024
0.000805823
0.000804579
0.000820994
0.000820568
0.000820131
0.000819684
0.000819225
0.000818754
0.000818271
0.000817775
0.000817265
0.000816741
0.000816202
0.000815647
0.000815077
0.000814492
0.00081389
0.000813271
0.000812636
0.000811984
0.000811313
0.000810625
0.000809918
0.000809191
0.000808445
0.000807679
0.000806892
0.000806083