/*--------------------------------*- C++ -*----------------------------------*\
  =========                 |
  \\      /  F ield         | OpenFOAM: The Open Source CFD Toolbox
   \\    /   O peration     | Website:  https://openfoam.org
    \\  /    A nd           | Version:  6
     \\/     M anipulation  |
\*---------------------------------------------------------------------------*/
FoamFile
{
    version     2.0;
    format      ascii;
    class       volScalarField;
    location    "0.01";
    object      p;
}
// * * * * * * * * * * * * * * * * * * * * * * * * * * * * * * * * * * * * * //

dimensions      [0 2 -2 0 0 0 0];

internalField   nonuniform List<scalar> 
3081
(
0.209452
0.20917
0.208891
0.208616
0.208346
0.208079
0.207817
0.207558
0.207301
0.207046
0.206793
0.206543
0.206296
0.20605
0.205808
0.205567
0.205328
0.205091
0.204856
0.204622
0.20439
0.204159
0.203929
0.203701
0.203473
0.203246
0.20302
0.202795
0.202571
0.202346
0.202123
0.201899
0.201676
0.201452
0.201229
0.201005
0.200782
0.200558
0.200333
0.200108
0.199883
0.199656
0.199429
0.199202
0.198973
0.198743
0.198513
0.198281
0.198048
0.197814
0.197578
0.197342
0.197104
0.196864
0.196624
0.196382
0.196138
0.209202
0.208934
0.208668
0.208406
0.208147
0.20789
0.207636
0.207385
0.207137
0.206891
0.206647
0.206405
0.206165
0.205927
0.20569
0.205456
0.205223
0.204991
0.204761
0.204532
0.204304
0.204077
0.203851
0.203626
0.203401
0.203178
0.202955
0.202732
0.20251
0.202288
0.202066
0.201844
0.201622
0.201401
0.201179
0.200957
0.200734
0.200511
0.200288
0.200064
0.199839
0.199614
0.199388
0.199161
0.198933
0.198704
0.198474
0.198243
0.198011
0.197778
0.197543
0.197307
0.19707
0.196832
0.196592
0.19635
0.196108
0.208965
0.20871
0.208458
0.208208
0.20796
0.207714
0.20747
0.207229
0.206989
0.206752
0.206516
0.206281
0.206048
0.205816
0.205586
0.205357
0.205129
0.204903
0.204677
0.204452
0.204229
0.204006
0.203783
0.203562
0.20334
0.203119
0.202899
0.202679
0.202459
0.202239
0.202019
0.201799
0.201579
0.201359
0.201138
0.200918
0.200696
0.200474
0.200252
0.200029
0.199805
0.199581
0.199356
0.199129
0.198902
0.198674
0.198445
0.198215
0.197983
0.197751
0.197517
0.197282
0.197045
0.196807
0.196568
0.196327
0.196085
0.208783
0.208539
0.208297
0.208056
0.207817
0.20758
0.207344
0.20711
0.206877
0.206646
0.206416
0.206187
0.205959
0.205733
0.205507
0.205283
0.20506
0.204837
0.204615
0.204394
0.204173
0.203954
0.203734
0.203515
0.203296
0.203078
0.202859
0.202641
0.202423
0.202205
0.201987
0.201768
0.20155
0.201331
0.201111
0.200892
0.200671
0.20045
0.200229
0.200007
0.199784
0.19956
0.199335
0.19911
0.198883
0.198656
0.198427
0.198197
0.197966
0.197734
0.197501
0.197266
0.19703
0.196792
0.196553
0.196313
0.196071
0.208636
0.208401
0.208166
0.207933
0.207702
0.207471
0.207242
0.207013
0.206786
0.20656
0.206335
0.206111
0.205888
0.205666
0.205444
0.205223
0.205003
0.204784
0.204565
0.204347
0.204129
0.203912
0.203695
0.203478
0.203261
0.203044
0.202828
0.202612
0.202395
0.202178
0.201961
0.201744
0.201527
0.201309
0.20109
0.200872
0.200652
0.200432
0.200211
0.19999
0.199767
0.199544
0.19932
0.199095
0.198869
0.198642
0.198414
0.198184
0.197953
0.197722
0.197488
0.197254
0.197018
0.196781
0.196542
0.196302
0.19606
0.208513
0.208285
0.208058
0.207831
0.207605
0.20738
0.207156
0.206933
0.20671
0.206488
0.206268
0.206047
0.205828
0.205609
0.205391
0.205173
0.204956
0.204739
0.204523
0.204307
0.204092
0.203877
0.203662
0.203447
0.203232
0.203017
0.202802
0.202587
0.202372
0.202156
0.201941
0.201725
0.201508
0.201291
0.201074
0.200856
0.200637
0.200417
0.200197
0.199976
0.199754
0.199532
0.199308
0.199083
0.198858
0.198631
0.198403
0.198174
0.197943
0.197712
0.197479
0.197244
0.197009
0.196772
0.196533
0.196293
0.196052
0.208189
0.207967
0.207745
0.207524
0.207303
0.207083
0.206864
0.206646
0.206428
0.20621
0.205993
0.205777
0.205561
0.205345
0.20513
0.204916
0.204701
0.204488
0.204274
0.20406
0.203847
0.203634
0.20342
0.203207
0.202994
0.20278
0.202566
0.202352
0.202138
0.201923
0.201708
0.201493
0.201277
0.20106
0.200843
0.200624
0.200406
0.200186
0.199966
0.199744
0.199522
0.199299
0.199074
0.198849
0.198623
0.198395
0.198166
0.197936
0.197704
0.197471
0.197237
0.197002
0.196765
0.196526
0.196286
0.196045
0.208105
0.207888
0.20767
0.207453
0.207237
0.20702
0.206804
0.206589
0.206374
0.20616
0.205945
0.205732
0.205518
0.205305
0.205093
0.20488
0.204668
0.204456
0.204244
0.204033
0.203821
0.203609
0.203397
0.203185
0.202973
0.202761
0.202549
0.202336
0.202122
0.201909
0.201695
0.20148
0.201264
0.201048
0.200832
0.200614
0.200396
0.200177
0.199957
0.199736
0.199514
0.199291
0.199067
0.198842
0.198616
0.198388
0.19816
0.19793
0.197698
0.197466
0.197232
0.196996
0.196759
0.196521
0.196281
0.19604
0.207817
0.207603
0.207389
0.207176
0.206963
0.20675
0.206537
0.206325
0.206113
0.205902
0.20569
0.205479
0.205268
0.205058
0.204847
0.204637
0.204427
0.204217
0.204007
0.203797
0.203587
0.203376
0.203166
0.202955
0.202744
0.202533
0.202321
0.202108
0.201896
0.201682
0.201468
0.201254
0.201039
0.200823
0.200606
0.200388
0.200169
0.19995
0.199729
0.199508
0.199285
0.199062
0.198837
0.198611
0.198383
0.198155
0.197925
0.197694
0.197461
0.197227
0.196992
0.196755
0.196517
0.196277
0.196036
0.20775
0.207539
0.207329
0.207119
0.206908
0.206698
0.206488
0.206279
0.206069
0.20586
0.205651
0.205442
0.205233
0.205025
0.204816
0.204608
0.204399
0.204191
0.203983
0.203774
0.203565
0.203356
0.203147
0.202938
0.202728
0.202517
0.202307
0.202095
0.201884
0.201671
0.201458
0.201244
0.201029
0.200814
0.200598
0.200381
0.200163
0.199944
0.199723
0.199502
0.19928
0.199057
0.198832
0.198606
0.198379
0.198151
0.197921
0.19769
0.197457
0.197224
0.196988
0.196751
0.196513
0.196273
0.196032
0.207685
0.207477
0.20727
0.207062
0.206855
0.206647
0.20644
0.206232
0.206025
0.205818
0.205611
0.205405
0.205198
0.204991
0.204785
0.204579
0.204372
0.204165
0.203959
0.203752
0.203544
0.203337
0.203129
0.202921
0.202712
0.202503
0.202293
0.202083
0.201872
0.20166
0.201448
0.201235
0.201021
0.200806
0.20059
0.200374
0.200156
0.199938
0.199718
0.199497
0.199275
0.199052
0.198828
0.198602
0.198375
0.198147
0.197917
0.197686
0.197454
0.19722
0.196985
0.196748
0.19651
0.19627
0.196029
0.207619
0.207415
0.20721
0.207005
0.2068
0.206595
0.206391
0.206186
0.205981
0.205776
0.205572
0.205367
0.205163
0.204958
0.204753
0.204549
0.204344
0.204139
0.203934
0.203729
0.203523
0.203317
0.20311
0.202903
0.202696
0.202488
0.202279
0.20207
0.20186
0.201649
0.201438
0.201225
0.201012
0.200798
0.200583
0.200367
0.20015
0.199932
0.199712
0.199492
0.19927
0.199047
0.198823
0.198598
0.198371
0.198143
0.197914
0.197683
0.197451
0.197217
0.196982
0.196745
0.196507
0.196268
0.196026
0.195783
0.207552
0.207351
0.207149
0.206947
0.206745
0.206543
0.20634
0.206138
0.205935
0.205733
0.205531
0.205328
0.205126
0.204924
0.204721
0.204519
0.204316
0.204113
0.203909
0.203705
0.203501
0.203297
0.203091
0.202886
0.202679
0.202472
0.202265
0.202057
0.201848
0.201638
0.201427
0.201216
0.201003
0.20079
0.200575
0.20036
0.200143
0.199926
0.199707
0.199487
0.199265
0.199043
0.198819
0.198594
0.198367
0.19814
0.19791
0.19768
0.197448
0.197214
0.196979
0.196743
0.196504
0.196265
0.196023
0.195781
0.207285
0.207086
0.206887
0.206688
0.206488
0.206288
0.206088
0.205889
0.205689
0.205489
0.205289
0.205089
0.204888
0.204688
0.204487
0.204286
0.204085
0.203884
0.203681
0.203479
0.203276
0.203072
0.202868
0.202663
0.202457
0.20225
0.202043
0.201835
0.201626
0.201417
0.201206
0.200994
0.200781
0.200568
0.200353
0.200137
0.199919
0.199701
0.199481
0.19926
0.199038
0.198815
0.19859
0.198364
0.198136
0.197907
0.197676
0.197445
0.197211
0.196976
0.19674
0.196502
0.196262
0.196021
0.195778
0.207217
0.207021
0.206825
0.206628
0.206432
0.206235
0.206038
0.20584
0.205643
0.205445
0.205248
0.20505
0.204852
0.204654
0.204455
0.204256
0.204057
0.203857
0.203657
0.203456
0.203254
0.203052
0.202849
0.202645
0.202441
0.202235
0.202029
0.201822
0.201614
0.201406
0.201196
0.200985
0.200773
0.20056
0.200345
0.20013
0.199913
0.199695
0.199476
0.199255
0.199033
0.19881
0.198585
0.198359
0.198132
0.197903
0.197673
0.197441
0.197208
0.196973
0.196737
0.196499
0.196259
0.196018
0.195775
0.207145
0.206953
0.20676
0.206566
0.206372
0.206178
0.205984
0.205789
0.205595
0.2054
0.205205
0.205009
0.204814
0.204618
0.204421
0.204225
0.204027
0.203829
0.203631
0.203431
0.203231
0.203031
0.202829
0.202627
0.202424
0.20222
0.202015
0.201809
0.201602
0.201394
0.201185
0.200975
0.200764
0.200551
0.200337
0.200122
0.199906
0.199689
0.19947
0.19925
0.199028
0.198805
0.198581
0.198355
0.198128
0.197899
0.197669
0.197438
0.197205
0.19697
0.196734
0.196496
0.196256
0.196015
0.195772
0.207072
0.206883
0.206693
0.206503
0.206312
0.206121
0.20593
0.205738
0.205546
0.205354
0.205161
0.204968
0.204775
0.204582
0.204387
0.204193
0.203997
0.203801
0.203605
0.203407
0.203209
0.203009
0.202809
0.202609
0.202407
0.202204
0.202
0.201795
0.201589
0.201382
0.201174
0.200965
0.200754
0.200543
0.200329
0.200115
0.199899
0.199682
0.199464
0.199244
0.199023
0.1988
0.198576
0.198351
0.198124
0.197896
0.197666
0.197434
0.197201
0.196967
0.19673
0.196493
0.196253
0.196012
0.195769
0.206816
0.206629
0.206442
0.206254
0.206066
0.205877
0.205688
0.205499
0.205309
0.205119
0.204929
0.204738
0.204547
0.204355
0.204162
0.203968
0.203774
0.203579
0.203383
0.203187
0.202989
0.20279
0.202591
0.20239
0.202189
0.201986
0.201782
0.201577
0.201371
0.201164
0.200955
0.200745
0.200534
0.200322
0.200108
0.199893
0.199676
0.199458
0.199239
0.199018
0.198795
0.198572
0.198347
0.19812
0.197892
0.197662
0.197431
0.197198
0.196963
0.196727
0.19649
0.19625
0.196009
0.195766
0.206567
0.206383
0.206198
0.206012
0.205826
0.20564
0.205453
0.205266
0.205078
0.20489
0.204702
0.204512
0.204323
0.204132
0.20394
0.203748
0.203554
0.20336
0.203165
0.202969
0.202772
0.202573
0.202374
0.202174
0.201972
0.201769
0.201565
0.20136
0.201153
0.200946
0.200736
0.200526
0.200314
0.200101
0.199886
0.19967
0.199452
0.199233
0.199013
0.198791
0.198567
0.198342
0.198116
0.197888
0.197658
0.197427
0.197195
0.19696
0.196724
0.196487
0.196247
0.196006
0.195763
0.206507
0.206325
0.206143
0.20596
0.205777
0.205593
0.205409
0.205224
0.205039
0.204853
0.204666
0.204479
0.204291
0.204103
0.203913
0.203722
0.20353
0.203338
0.203144
0.202949
0.202753
0.202556
0.202358
0.202159
0.201958
0.201756
0.201553
0.201349
0.201143
0.200936
0.200728
0.200518
0.200306
0.200093
0.199879
0.199663
0.199446
0.199227
0.199007
0.198786
0.198562
0.198338
0.198112
0.197884
0.197655
0.197424
0.197191
0.196957
0.196721
0.196483
0.196244
0.196003
0.19576
0.206448
0.206269
0.20609
0.205909
0.205729
0.205547
0.205365
0.205183
0.205
0.204817
0.204632
0.204447
0.204261
0.204074
0.203886
0.203697
0.203507
0.203316
0.203123
0.20293
0.202735
0.20254
0.202343
0.202144
0.201945
0.201744
0.201542
0.201338
0.201133
0.200927
0.200719
0.20051
0.200299
0.200086
0.199873
0.199657
0.19944
0.199222
0.199002
0.198781
0.198558
0.198333
0.198107
0.19788
0.197651
0.19742
0.197188
0.196954
0.196718
0.19648
0.196241
0.196
0.195757
0.206392
0.206215
0.206038
0.205861
0.205682
0.205503
0.205324
0.205144
0.204963
0.204782
0.204599
0.204416
0.204232
0.204047
0.20386
0.203673
0.203484
0.203294
0.203103
0.202911
0.202718
0.202523
0.202328
0.20213
0.201932
0.201732
0.20153
0.201328
0.201123
0.200918
0.20071
0.200502
0.200291
0.200079
0.199866
0.199651
0.199434
0.199216
0.198997
0.198776
0.198553
0.198329
0.198103
0.197876
0.197647
0.197417
0.197184
0.19695
0.196715
0.196477
0.196238
0.195997
0.195754
0.206337
0.206163
0.205989
0.205813
0.205637
0.205461
0.205283
0.205105
0.204927
0.204747
0.204567
0.204386
0.204203
0.20402
0.203835
0.203649
0.203462
0.203274
0.203084
0.202893
0.202701
0.202508
0.202313
0.202117
0.201919
0.20172
0.201519
0.201317
0.201114
0.200909
0.200702
0.200494
0.200284
0.200072
0.199859
0.199645
0.199429
0.199211
0.198992
0.198771
0.198549
0.198325
0.198099
0.197872
0.197643
0.197413
0.197181
0.196947
0.196712
0.196474
0.196235
0.195994
0.195751
0.206284
0.206113
0.20594
0.205767
0.205594
0.205419
0.205244
0.205069
0.204892
0.204715
0.204536
0.204357
0.204176
0.203994
0.203811
0.203626
0.20344
0.203254
0.203065
0.202876
0.202685
0.202492
0.202299
0.202103
0.201907
0.201708
0.201509
0.201307
0.201104
0.2009
0.200694
0.200486
0.200276
0.200065
0.199853
0.199639
0.199423
0.199205
0.198986
0.198766
0.198544
0.19832
0.198095
0.197868
0.19764
0.197409
0.197178
0.196944
0.196709
0.196471
0.196232
0.195991
0.195748
0.206232
0.206064
0.205894
0.205723
0.205552
0.205379
0.205206
0.205033
0.204858
0.204683
0.204506
0.204328
0.204149
0.203969
0.203787
0.203604
0.20342
0.203234
0.203047
0.202859
0.202669
0.202477
0.202285
0.20209
0.201894
0.201697
0.201498
0.201297
0.201095
0.200891
0.200685
0.200478
0.200269
0.200059
0.199846
0.199632
0.199417
0.1992
0.198981
0.198761
0.198539
0.198316
0.198091
0.197864
0.197636
0.197406
0.197174
0.196941
0.196705
0.196468
0.196229
0.195989
0.195746
0.206182
0.206016
0.205848
0.20568
0.20551
0.20534
0.20517
0.204998
0.204825
0.204652
0.204477
0.2043
0.204123
0.203944
0.203764
0.203582
0.203399
0.203215
0.203029
0.202842
0.202653
0.202463
0.202271
0.202077
0.201882
0.201686
0.201487
0.201287
0.201086
0.200882
0.200677
0.20047
0.200262
0.200052
0.19984
0.199626
0.199411
0.199195
0.198976
0.198756
0.198535
0.198312
0.198087
0.197861
0.197632
0.197403
0.197171
0.196938
0.196702
0.196465
0.196227
0.195986
0.195743
0.206134
0.205969
0.205804
0.205638
0.205471
0.205303
0.205134
0.204964
0.204793
0.204621
0.204448
0.204273
0.204097
0.20392
0.203741
0.203561
0.203379
0.203196
0.203012
0.202825
0.202638
0.202448
0.202258
0.202065
0.201871
0.201675
0.201477
0.201278
0.201077
0.200874
0.200669
0.200463
0.200255
0.200045
0.199833
0.19962
0.199406
0.199189
0.198971
0.198752
0.19853
0.198308
0.198083
0.197857
0.197629
0.197399
0.197168
0.196935
0.1967
0.196463
0.196224
0.195983
0.19574
0.206085
0.205923
0.20576
0.205596
0.205431
0.205265
0.205098
0.20493
0.204761
0.204591
0.204419
0.204246
0.204072
0.203896
0.203718
0.203539
0.203359
0.203177
0.202994
0.202809
0.202622
0.202434
0.202244
0.202052
0.201859
0.201663
0.201466
0.201268
0.201067
0.200865
0.200661
0.200455
0.200247
0.200038
0.199827
0.199614
0.1994
0.199184
0.198966
0.198747
0.198526
0.198303
0.198079
0.197853
0.197625
0.197396
0.197164
0.196931
0.196696
0.19646
0.196221
0.19598
0.195738
0.206034
0.205875
0.205714
0.205552
0.20539
0.205226
0.205061
0.204895
0.204728
0.204559
0.204389
0.204218
0.204045
0.203871
0.203695
0.203517
0.203338
0.203157
0.202975
0.202791
0.202606
0.202418
0.202229
0.202039
0.201846
0.201651
0.201455
0.201257
0.201057
0.200856
0.200652
0.200447
0.200239
0.20003
0.19982
0.199608
0.199394
0.199178
0.198961
0.198742
0.198521
0.198299
0.198075
0.197849
0.197621
0.197392
0.197161
0.196928
0.196693
0.196457
0.196218
0.195978
0.195735
0.205984
0.205826
0.205668
0.205509
0.205348
0.205187
0.205024
0.20486
0.204695
0.204528
0.20436
0.20419
0.204018
0.203845
0.203671
0.203495
0.203317
0.203138
0.202957
0.202774
0.202589
0.202403
0.202215
0.202025
0.201833
0.20164
0.201444
0.201247
0.201047
0.200846
0.200643
0.200438
0.200231
0.200023
0.199813
0.199601
0.199387
0.199172
0.198955
0.198736
0.198516
0.198294
0.19807
0.197845
0.197617
0.197388
0.197157
0.196925
0.19669
0.196454
0.196215
0.195975
0.195732
0.205932
0.205778
0.205622
0.205465
0.205307
0.205147
0.204987
0.204825
0.204661
0.204496
0.204329
0.204161
0.203991
0.20382
0.203647
0.203472
0.203296
0.203118
0.202938
0.202756
0.202573
0.202387
0.2022
0.202011
0.20182
0.201627
0.201433
0.201236
0.201037
0.200836
0.200634
0.20043
0.200223
0.200015
0.199806
0.199594
0.199381
0.199166
0.198949
0.198731
0.198511
0.198289
0.198066
0.19784
0.197613
0.197385
0.197154
0.196921
0.196687
0.196451
0.196212
0.195972
0.19573
0.20588
0.205728
0.205575
0.20542
0.205265
0.205107
0.204949
0.204789
0.204627
0.204464
0.204299
0.204133
0.203964
0.203795
0.203623
0.20345
0.203275
0.203098
0.202919
0.202739
0.202556
0.202372
0.202186
0.201997
0.201807
0.201615
0.201421
0.201225
0.201027
0.200827
0.200625
0.200421
0.200215
0.200008
0.199798
0.199587
0.199374
0.19916
0.198944
0.198726
0.198506
0.198285
0.198061
0.197836
0.197609
0.197381
0.19715
0.196918
0.196684
0.196448
0.19621
0.195969
0.195727
0.205828
0.205679
0.205528
0.205376
0.205222
0.205067
0.204911
0.204753
0.204593
0.204432
0.204269
0.204104
0.203937
0.203769
0.203599
0.203427
0.203253
0.203078
0.2029
0.202721
0.202539
0.202356
0.202171
0.201983
0.201794
0.201603
0.201409
0.201214
0.201016
0.200817
0.200615
0.200412
0.200207
0.2
0.199791
0.19958
0.199368
0.199154
0.198938
0.19872
0.198501
0.19828
0.198057
0.197832
0.197605
0.197377
0.197147
0.196915
0.196681
0.196445
0.196207
0.195967
0.195725
0.205775
0.205628
0.20548
0.205331
0.20518
0.205027
0.204873
0.204717
0.204559
0.204399
0.204238
0.204075
0.20391
0.203743
0.203575
0.203404
0.203232
0.203057
0.202881
0.202703
0.202522
0.20234
0.202156
0.201969
0.201781
0.20159
0.201397
0.201202
0.201006
0.200807
0.200606
0.200403
0.200198
0.199992
0.199784
0.199573
0.199361
0.199148
0.198932
0.198715
0.198496
0.198275
0.198052
0.197828
0.197601
0.197373
0.197143
0.196911
0.196677
0.196442
0.196204
0.195964
0.195722
0.205722
0.205578
0.205433
0.205286
0.205137
0.204987
0.204835
0.204681
0.204525
0.204367
0.204207
0.204046
0.203883
0.203718
0.20355
0.203381
0.20321
0.203037
0.202862
0.202685
0.202506
0.202324
0.202141
0.201955
0.201767
0.201577
0.201385
0.201191
0.200995
0.200797
0.200596
0.200394
0.20019
0.199984
0.199776
0.199566
0.199355
0.199142
0.198926
0.198709
0.198491
0.19827
0.198048
0.197823
0.197597
0.197369
0.19714
0.196908
0.196674
0.196439
0.196201
0.195961
0.19572
0.205669
0.205528
0.205385
0.205241
0.205094
0.204946
0.204796
0.204644
0.20449
0.204335
0.204177
0.204017
0.203856
0.203692
0.203526
0.203359
0.203189
0.203017
0.202843
0.202667
0.202489
0.202308
0.202126
0.201941
0.201754
0.201565
0.201373
0.20118
0.200984
0.200787
0.200587
0.200385
0.200182
0.199976
0.199769
0.199559
0.199348
0.199135
0.198921
0.198704
0.198486
0.198265
0.198043
0.197819
0.197593
0.197366
0.197136
0.196904
0.196671
0.196436
0.196198
0.195959
0.195717
0.205616
0.205478
0.205338
0.205196
0.205052
0.204906
0.204758
0.204608
0.204456
0.204302
0.204146
0.203988
0.203828
0.203666
0.203502
0.203336
0.203167
0.202997
0.202824
0.202649
0.202472
0.202292
0.202111
0.201927
0.20174
0.201552
0.201361
0.201169
0.200974
0.200776
0.200577
0.200376
0.200173
0.199968
0.199761
0.199552
0.199342
0.199129
0.198915
0.198699
0.198481
0.198261
0.198039
0.197815
0.197589
0.197362
0.197133
0.196901
0.196668
0.196433
0.196195
0.195956
0.195715
0.205563
0.205427
0.20529
0.205151
0.205009
0.204866
0.20472
0.204572
0.204422
0.20427
0.204116
0.20396
0.203801
0.203641
0.203478
0.203313
0.203146
0.202977
0.202805
0.202631
0.202455
0.202276
0.202096
0.201912
0.201727
0.201539
0.201349
0.201157
0.200963
0.200766
0.200568
0.200367
0.200165
0.19996
0.199754
0.199546
0.199335
0.199123
0.198909
0.198693
0.198476
0.198256
0.198034
0.197811
0.197586
0.197358
0.197129
0.196898
0.196665
0.19643
0.196193
0.195954
0.195713
0.205512
0.205379
0.205244
0.205107
0.204968
0.204827
0.204684
0.204538
0.20439
0.204239
0.204087
0.203932
0.203775
0.203616
0.203455
0.203291
0.203125
0.202957
0.202787
0.202614
0.202439
0.202261
0.202081
0.201899
0.201714
0.201527
0.201338
0.201146
0.200953
0.200757
0.200559
0.200359
0.200157
0.199953
0.199747
0.199539
0.199329
0.199117
0.198904
0.198688
0.198471
0.198251
0.19803
0.197807
0.197582
0.197355
0.197126
0.196895
0.196662
0.196427
0.19619
0.195951
0.19571
0.205462
0.205332
0.205199
0.205065
0.204928
0.204789
0.204648
0.204504
0.204358
0.204209
0.204058
0.203905
0.20375
0.203592
0.203432
0.20327
0.203105
0.202938
0.202769
0.202597
0.202422
0.202246
0.202067
0.201885
0.201701
0.201515
0.201326
0.201135
0.200942
0.200747
0.20055
0.20035
0.200149
0.199945
0.19974
0.199532
0.199323
0.199112
0.198898
0.198683
0.198466
0.198247
0.198026
0.197803
0.197578
0.197351
0.197122
0.196892
0.196659
0.196424
0.196188
0.195949
0.195708
0.205409
0.205282
0.205152
0.205021
0.204886
0.204749
0.20461
0.204468
0.204324
0.204178
0.204029
0.203877
0.203723
0.203567
0.203409
0.203248
0.203084
0.202918
0.20275
0.202579
0.202406
0.20223
0.202052
0.201871
0.201688
0.201503
0.201315
0.201124
0.200932
0.200737
0.200541
0.200342
0.200141
0.199938
0.199733
0.199526
0.199317
0.199106
0.198893
0.198678
0.198461
0.198242
0.198022
0.197799
0.197574
0.197348
0.197119
0.196889
0.196656
0.196422
0.196185
0.195947
0.195706
0.205353
0.205229
0.205103
0.204974
0.204842
0.204708
0.204571
0.204431
0.204289
0.204144
0.203997
0.203848
0.203696
0.203541
0.203384
0.203224
0.203062
0.202898
0.20273
0.202561
0.202389
0.202214
0.202037
0.201857
0.201674
0.20149
0.201302
0.201113
0.200921
0.200727
0.200531
0.200333
0.200132
0.19993
0.199725
0.199519
0.19931
0.1991
0.198887
0.198673
0.198456
0.198238
0.198018
0.197795
0.197571
0.197344
0.197116
0.196886
0.196653
0.196419
0.196183
0.195944
0.195704
0.205295
0.205174
0.20505
0.204924
0.204795
0.204664
0.204529
0.204392
0.204252
0.20411
0.203965
0.203817
0.203667
0.203514
0.203358
0.2032
0.20304
0.202876
0.20271
0.202542
0.202371
0.202197
0.202021
0.201842
0.20166
0.201476
0.20129
0.201101
0.20091
0.200717
0.200522
0.200324
0.200124
0.199922
0.199718
0.199512
0.199304
0.199094
0.198882
0.198668
0.198452
0.198234
0.198014
0.197791
0.197567
0.197341
0.197113
0.196883
0.196651
0.196417
0.196181
0.195943
0.195703
0.205233
0.205116
0.204996
0.204873
0.204747
0.204618
0.204486
0.204352
0.204214
0.204074
0.203931
0.203785
0.203637
0.203486
0.203332
0.203176
0.203016
0.202854
0.20269
0.202523
0.202353
0.20218
0.202005
0.201827
0.201646
0.201463
0.201278
0.20109
0.2009
0.200707
0.200512
0.200315
0.200116
0.199915
0.199712
0.199506
0.199298
0.199089
0.198877
0.198663
0.198448
0.19823
0.19801
0.197788
0.197564
0.197339
0.197111
0.196881
0.196649
0.196415
0.196179
0.195942
0.195702
0.205168
0.205054
0.204938
0.204818
0.204695
0.204569
0.204441
0.204309
0.204174
0.204036
0.203896
0.203752
0.203606
0.203457
0.203305
0.20315
0.202993
0.202832
0.202669
0.202503
0.202334
0.202163
0.201989
0.201812
0.201633
0.201451
0.201266
0.201079
0.20089
0.200698
0.200504
0.200308
0.200109
0.199909
0.199706
0.199501
0.199294
0.199085
0.198874
0.19866
0.198445
0.198228
0.198008
0.197787
0.197563
0.197338
0.19711
0.196881
0.196649
0.196415
0.19618
0.195942
0.195703
0.205096
0.204986
0.204874
0.204758
0.204639
0.204517
0.204391
0.204263
0.204131
0.203996
0.203859
0.203718
0.203574
0.203427
0.203277
0.203124
0.202968
0.20281
0.202648
0.202484
0.202317
0.202147
0.201974
0.201798
0.20162
0.201439
0.201255
0.201069
0.200881
0.20069
0.200497
0.200302
0.200104
0.199904
0.199702
0.199498
0.199291
0.199083
0.198872
0.198659
0.198445
0.198228
0.198008
0.197787
0.197564
0.197339
0.197112
0.196883
0.196651
0.196418
0.196183
0.195945
0.195706
0.205027
0.204923
0.204814
0.204703
0.204588
0.204469
0.204347
0.204222
0.204093
0.203962
0.203826
0.203688
0.203547
0.203402
0.203254
0.203103
0.202949
0.202792
0.202632
0.202469
0.202303
0.202135
0.201963
0.201789
0.201611
0.201431
0.201249
0.201064
0.200876
0.200686
0.200494
0.200299
0.200102
0.199903
0.199701
0.199497
0.199291
0.199083
0.198873
0.19866
0.198446
0.198229
0.19801
0.19779
0.197567
0.197342
0.197115
0.196885
0.196654
0.196421
0.196186
0.195949
0.19571
0.204964
0.204864
0.20476
0.204652
0.20454
0.204425
0.204307
0.204184
0.204059
0.20393
0.203797
0.203661
0.203522
0.203379
0.203233
0.203084
0.202931
0.202776
0.202618
0.202456
0.202292
0.202124
0.201953
0.20178
0.201604
0.201425
0.201243
0.201059
0.200872
0.200683
0.200491
0.200297
0.2001
0.199902
0.1997
0.199497
0.199292
0.199084
0.198874
0.198662
0.198448
0.198231
0.198013
0.197792
0.197569
0.197344
0.197117
0.196888
0.196657
0.196424
0.196189
0.195952
0.195713
0.2049
0.204804
0.204704
0.2046
0.204493
0.204381
0.204266
0.204147
0.204024
0.203898
0.203768
0.203634
0.203497
0.203356
0.203212
0.203065
0.202914
0.20276
0.202603
0.202443
0.20228
0.202114
0.201944
0.201772
0.201596
0.201418
0.201237
0.201054
0.200868
0.200679
0.200488
0.200295
0.200099
0.1999
0.1997
0.199497
0.199292
0.199084
0.198875
0.198663
0.198449
0.198233
0.198014
0.197794
0.197571
0.197347
0.19712
0.196891
0.19666
0.196427
0.196192
0.195955
0.195716
0.195475
0.204835
0.204743
0.204648
0.204548
0.204445
0.204337
0.204225
0.204109
0.203989
0.203866
0.203738
0.203607
0.203472
0.203333
0.203191
0.203046
0.202897
0.202745
0.202589
0.20243
0.202268
0.202103
0.201935
0.201763
0.201589
0.201411
0.201231
0.201049
0.200863
0.200675
0.200485
0.200292
0.200096
0.199899
0.199698
0.199496
0.199291
0.199084
0.198874
0.198663
0.198449
0.198233
0.198015
0.197794
0.197572
0.197347
0.197121
0.196892
0.196661
0.196428
0.196193
0.195956
0.195717
0.195476
0.204769
0.204683
0.204592
0.204496
0.204396
0.204292
0.204184
0.204071
0.203954
0.203833
0.203708
0.203579
0.203446
0.20331
0.20317
0.203026
0.202879
0.202728
0.202574
0.202416
0.202255
0.202091
0.201924
0.201753
0.20158
0.201403
0.201224
0.201042
0.200857
0.20067
0.20048
0.200287
0.200092
0.199895
0.199695
0.199493
0.199288
0.199081
0.198872
0.198661
0.198447
0.198231
0.198013
0.197793
0.19757
0.197345
0.197119
0.19689
0.196659
0.196426
0.196191
0.195954
0.195715
0.195474
0.204704
0.204622
0.204536
0.204444
0.204348
0.204248
0.204142
0.204033
0.203919
0.2038
0.203678
0.203551
0.20342
0.203286
0.203147
0.203005
0.202859
0.20271
0.202557
0.202401
0.202241
0.202078
0.201912
0.201742
0.201569
0.201393
0.201215
0.201033
0.200849
0.200662
0.200472
0.20028
0.200086
0.199889
0.199689
0.199487
0.199283
0.199076
0.198867
0.198655
0.198442
0.198226
0.198008
0.197788
0.197565
0.19734
0.197114
0.196885
0.196654
0.196421
0.196186
0.195949
0.195709
0.195468
0.204641
0.204563
0.20448
0.204393
0.2043
0.204203
0.204101
0.203994
0.203883
0.203767
0.203646
0.203522
0.203393
0.20326
0.203123
0.202983
0.202839
0.202691
0.202539
0.202384
0.202225
0.202063
0.201897
0.201728
0.201556
0.201381
0.201203
0.201022
0.200838
0.200651
0.200462
0.20027
0.200076
0.199879
0.19968
0.199478
0.199274
0.199067
0.198858
0.198647
0.198433
0.198217
0.197999
0.197779
0.197556
0.197332
0.197105
0.196876
0.196645
0.196412
0.196176
0.195939
0.1957
0.195458
0.204577
0.204503
0.204425
0.204341
0.204251
0.204157
0.204058
0.203954
0.203845
0.203731
0.203613
0.20349
0.203363
0.203232
0.203097
0.202958
0.202815
0.202668
0.202517
0.202363
0.202205
0.202044
0.201879
0.201711
0.201539
0.201365
0.201187
0.201007
0.200823
0.200637
0.200448
0.200256
0.200062
0.199865
0.199666
0.199464
0.19926
0.199054
0.198845
0.198633
0.19842
0.198204
0.197986
0.197765
0.197543
0.197318
0.197091
0.196862
0.196631
0.196397
0.196162
0.195924
0.195685
0.195443
0.20451
0.204441
0.204366
0.204285
0.204199
0.204108
0.204012
0.20391
0.203803
0.203692
0.203576
0.203455
0.20333
0.2032
0.203066
0.202929
0.202787
0.202641
0.202492
0.202338
0.202181
0.202021
0.201857
0.201689
0.201518
0.201344
0.201167
0.200987
0.200803
0.200617
0.200429
0.200237
0.200043
0.199846
0.199647
0.199445
0.199241
0.199034
0.198825
0.198614
0.1984
0.198184
0.197966
0.197745
0.197523
0.197298
0.19707
0.196841
0.19661
0.196376
0.196141
0.195903
0.195663
0.195422
0.204447
0.204381
0.204309
0.204232
0.204149
0.204061
0.203967
0.203867
0.203763
0.203654
0.203539
0.20342
0.203296
0.203168
0.203036
0.202899
0.202759
0.202614
0.202465
0.202313
0.202157
0.201997
0.201833
0.201666
0.201496
0.201322
0.201145
0.200965
0.200782
0.200597
0.200408
0.200217
0.200022
0.199826
0.199626
0.199424
0.19922
0.199013
0.198804
0.198593
0.198379
0.198162
0.197944
0.197723
0.1975
0.197275
0.197048
0.196818
0.196587
0.196353
0.196117
0.195879
0.195639
0.195397
0.204407
0.204344
0.204275
0.204199
0.204118
0.204032
0.203939
0.203842
0.203739
0.20363
0.203517
0.203399
0.203277
0.203149
0.203018
0.202882
0.202742
0.202598
0.20245
0.202298
0.202142
0.201983
0.20182
0.201653
0.201483
0.20131
0.201133
0.200953
0.20077
0.200585
0.200396
0.200204
0.20001
0.199813
0.199614
0.199412
0.199208
0.199001
0.198792
0.19858
0.198366
0.19815
0.197931
0.19771
0.197487
0.197262
0.197034
0.196805
0.196573
0.196339
0.196103
0.195865
0.195625
0.195382
)
;

boundaryField
{
    inlet
    {
        type            zeroGradient;
    }
    outlet
    {
        type            fixedValue;
        value           nonuniform 0();
    }
    upperWall
    {
        type            zeroGradient;
    }
    lowerWall
    {
        type            zeroGradient;
    }
    frontAndBack
    {
        type            empty;
    }
    procBoundary1to0
    {
        type            processor;
        value           nonuniform List<scalar> 
59
(
0.195894
0.195864
0.195842
0.195828
0.195817
0.195809
0.195802
0.195797
0.195793
0.195789
0.195786
0.195786
0.195539
0.195536
0.195533
0.19553
0.195527
0.195524
0.195521
0.195518
0.195515
0.195512
0.195509
0.195506
0.195503
0.195501
0.195498
0.195496
0.195493
0.195491
0.195488
0.195485
0.195483
0.195481
0.195478
0.195476
0.195474
0.195472
0.19547
0.195468
0.195466
0.195464
0.195462
0.195461
0.19546
0.195462
0.195465
0.195469
0.195472
0.195472
0.195232
0.195233
0.195231
0.195225
0.195215
0.1952
0.195178
0.195153
0.195138
)
;
    }
    procBoundary1to3
    {
        type            processor;
        value           nonuniform List<scalar> 
62
(
0.209738
0.209474
0.209222
0.209028
0.208872
0.208742
0.208411
0.208411
0.208323
0.208031
0.208031
0.20796
0.207892
0.207823
0.207753
0.207483
0.207483
0.207412
0.207337
0.20726
0.207002
0.207002
0.206751
0.206751
0.206687
0.206626
0.206567
0.20651
0.206454
0.2064
0.206348
0.206297
0.206246
0.206193
0.20614
0.206086
0.206031
0.205976
0.20592
0.205865
0.205809
0.205753
0.205696
0.205643
0.20559
0.205534
0.205475
0.205413
0.205348
0.205279
0.205202
0.205129
0.205061
0.204992
0.204922
0.204851
0.204781
0.204713
0.204645
0.204574
0.204506
0.204464
)
;
    }
}


// ************************************************************************* //
