/*--------------------------------*- C++ -*----------------------------------*\
  =========                 |
  \\      /  F ield         | OpenFOAM: The Open Source CFD Toolbox
   \\    /   O peration     | Website:  https://openfoam.org
    \\  /    A nd           | Version:  6
     \\/     M anipulation  |
\*---------------------------------------------------------------------------*/
FoamFile
{
    version     2.0;
    format      ascii;
    class       surfaceScalarField;
    location    "0.01";
    object      phi;
}
// * * * * * * * * * * * * * * * * * * * * * * * * * * * * * * * * * * * * * //

dimensions      [0 3 -1 0 0 0 0];

internalField   nonuniform List<scalar> 
6046
(
4.84034e-07
-2.03727e-10
4.84199e-07
-1.65171e-10
4.84327e-07
-1.28231e-10
4.8442e-07
-9.2784e-11
4.84478e-07
-5.8499e-11
4.84503e-07
-2.43169e-11
4.84492e-07
1.08622e-11
4.84446e-07
4.53986e-11
4.8437e-07
7.69018e-11
4.84264e-07
1.05129e-10
4.84134e-07
1.30784e-10
4.83979e-07
1.54529e-10
4.83802e-07
1.7687e-10
4.83604e-07
1.981e-10
4.83386e-07
2.18405e-10
4.83148e-07
2.37873e-10
4.82891e-07
2.56559e-10
4.82617e-07
2.74484e-10
4.82325e-07
2.91658e-10
4.82017e-07
3.0808e-10
4.81693e-07
3.23757e-10
4.81355e-07
3.38694e-10
4.81002e-07
3.52909e-10
4.80635e-07
3.6641e-10
4.80256e-07
3.79257e-10
4.79865e-07
3.91467e-10
4.79462e-07
4.03121e-10
4.79047e-07
4.14244e-10
4.78622e-07
4.24898e-10
4.78187e-07
4.351e-10
4.77742e-07
4.44887e-10
4.77288e-07
4.54265e-10
4.76825e-07
4.63248e-10
4.76353e-07
4.71879e-10
4.75873e-07
4.80178e-10
4.75385e-07
4.882e-10
4.74889e-07
4.96007e-10
4.74385e-07
5.03642e-10
4.73874e-07
5.11182e-10
4.73355e-07
5.18662e-10
4.72829e-07
5.26144e-10
4.72295e-07
5.33666e-10
4.71754e-07
5.41269e-10
4.71205e-07
5.48972e-10
4.70648e-07
5.56823e-10
4.70083e-07
5.6482e-10
4.6951e-07
5.72972e-10
4.68929e-07
5.81279e-10
4.68339e-07
5.89713e-10
4.67741e-07
5.98252e-10
4.67134e-07
6.06843e-10
4.66519e-07
6.15447e-10
4.65895e-07
6.2402e-10
4.65262e-07
6.32534e-10
4.64621e-07
6.40973e-10
4.63972e-07
6.49341e-10
6.57646e-10
5.07464e-07
-3.84316e-10
5.07605e-07
-3.06406e-10
5.07709e-07
-2.31932e-10
5.07777e-07
-1.60752e-10
5.07811e-07
-9.26883e-11
5.07814e-07
-2.74464e-11
5.0779e-07
3.53498e-11
5.07739e-07
9.59776e-11
5.07662e-07
1.54022e-10
5.07558e-07
2.08914e-10
5.07429e-07
2.60594e-10
5.07274e-07
3.09351e-10
5.07095e-07
3.55557e-10
5.06894e-07
3.99529e-10
5.0667e-07
4.41516e-10
5.06427e-07
4.81678e-10
5.06163e-07
5.20148e-10
5.05881e-07
5.5699e-10
5.0558e-07
5.9227e-10
5.05262e-07
6.2602e-10
5.04927e-07
6.58287e-10
5.04577e-07
6.89074e-10
5.04212e-07
7.1844e-10
5.03832e-07
7.46422e-10
5.03438e-07
7.73074e-10
5.03031e-07
7.98483e-10
5.02611e-07
8.22733e-10
5.02179e-07
8.45908e-10
5.01736e-07
8.68094e-10
5.01282e-07
8.89356e-10
5.00817e-07
9.09756e-10
5.00342e-07
9.29344e-10
4.99857e-07
9.48159e-10
4.99363e-07
9.66244e-10
4.98859e-07
9.83671e-10
4.98347e-07
1.00051e-09
4.97826e-07
1.01686e-09
4.97297e-07
1.0328e-09
4.9676e-07
1.04844e-09
4.96215e-07
1.06387e-09
4.95661e-07
1.07918e-09
4.95101e-07
1.09446e-09
4.94532e-07
1.10975e-09
4.93956e-07
1.12514e-09
4.93372e-07
1.14067e-09
4.92781e-07
1.15638e-09
4.92181e-07
1.1723e-09
4.91574e-07
1.18844e-09
4.90959e-07
1.20476e-09
4.90336e-07
1.22126e-09
4.89705e-07
1.23785e-09
4.89066e-07
1.25451e-09
4.88419e-07
1.27116e-09
4.87764e-07
1.28777e-09
4.871e-07
1.30429e-09
4.86429e-07
1.32073e-09
1.33711e-09
5.14636e-07
-5.42909e-10
5.14756e-07
-4.25834e-10
5.14838e-07
-3.14078e-10
5.14885e-07
-2.07455e-10
5.14898e-07
-1.05765e-10
5.14879e-07
-8.81335e-12
5.14831e-07
8.3708e-11
5.14754e-07
1.72184e-10
5.14652e-07
2.56786e-10
5.14523e-07
3.37405e-10
5.1437e-07
4.14033e-10
5.14192e-07
4.8685e-10
5.13992e-07
5.56136e-10
5.13769e-07
6.2217e-10
5.13525e-07
6.85217e-10
5.13262e-07
7.45478e-10
5.12979e-07
8.0312e-10
5.12677e-07
8.58289e-10
5.12358e-07
9.11076e-10
5.12023e-07
9.61561e-10
5.11671e-07
1.00983e-09
5.11305e-07
1.05593e-09
5.10923e-07
1.09995e-09
5.10527e-07
1.14195e-09
5.10119e-07
1.18202e-09
5.09697e-07
1.22028e-09
5.09263e-07
1.25683e-09
5.08817e-07
1.29179e-09
5.0836e-07
1.32528e-09
5.07892e-07
1.3574e-09
5.07413e-07
1.38825e-09
5.06925e-07
1.41788e-09
5.06426e-07
1.4464e-09
5.05919e-07
1.47386e-09
5.05402e-07
1.50035e-09
5.04877e-07
1.52598e-09
5.04342e-07
1.55087e-09
5.038e-07
1.57512e-09
5.0325e-07
1.59887e-09
5.02691e-07
1.62225e-09
5.02125e-07
1.64536e-09
5.01551e-07
1.66831e-09
5.0097e-07
1.69121e-09
5.00381e-07
1.71413e-09
4.99784e-07
1.73715e-09
4.9918e-07
1.76033e-09
4.98569e-07
1.7837e-09
4.9795e-07
1.80728e-09
4.97324e-07
1.83108e-09
4.9669e-07
1.85505e-09
4.96049e-07
1.87916e-09
4.954e-07
1.90335e-09
4.94744e-07
1.92755e-09
4.9408e-07
1.95173e-09
4.93408e-07
1.97586e-09
4.92729e-07
1.99994e-09
2.02399e-09
5.18324e-07
-6.81279e-10
5.18423e-07
-5.25467e-10
5.18486e-07
-3.76855e-10
5.18514e-07
-2.35189e-10
5.18508e-07
-1.00221e-10
5.18471e-07
2.8304e-11
5.18404e-07
1.50722e-10
5.18309e-07
2.6742e-10
5.18187e-07
3.7875e-10
5.1804e-07
4.84894e-10
5.17868e-07
5.86e-10
5.17672e-07
6.82305e-10
5.17454e-07
7.74075e-10
5.17215e-07
8.61603e-10
5.16955e-07
9.45153e-10
5.16675e-07
1.02498e-09
5.16377e-07
1.10129e-09
5.16061e-07
1.17426e-09
5.15728e-07
1.24405e-09
5.15379e-07
1.31078e-09
5.15014e-07
1.37456e-09
5.14635e-07
1.43552e-09
5.14241e-07
1.49376e-09
5.13833e-07
1.54937e-09
5.13413e-07
1.60249e-09
5.1298e-07
1.65325e-09
5.12535e-07
1.7018e-09
5.12079e-07
1.74828e-09
5.11611e-07
1.79283e-09
5.11133e-07
1.83558e-09
5.10644e-07
1.87666e-09
5.10146e-07
1.91617e-09
5.09638e-07
1.95421e-09
5.09121e-07
1.9909e-09
5.08595e-07
2.02634e-09
5.08061e-07
2.06066e-09
5.07517e-07
2.09399e-09
5.06966e-07
2.12648e-09
5.06407e-07
2.15826e-09
5.05839e-07
2.1895e-09
5.05264e-07
2.22033e-09
5.04682e-07
2.25086e-09
5.04092e-07
2.28124e-09
5.03495e-07
2.31154e-09
5.0289e-07
2.34186e-09
5.02278e-07
2.37228e-09
5.01659e-07
2.40286e-09
5.01032e-07
2.4336e-09
5.00399e-07
2.46454e-09
4.99758e-07
2.49565e-09
4.99111e-07
2.5269e-09
4.98456e-07
2.55823e-09
4.97794e-07
2.58961e-09
4.97124e-07
2.62099e-09
4.96448e-07
2.65236e-09
4.95764e-07
2.68371e-09
2.71511e-09
5.20632e-07
-8.00515e-10
5.20713e-07
-6.06537e-10
5.20758e-07
-4.21632e-10
5.20768e-07
-2.45464e-10
5.20745e-07
-7.77082e-11
5.20692e-07
8.19865e-11
5.20608e-07
2.33988e-10
5.20497e-07
3.78737e-10
5.20359e-07
5.1666e-10
5.20196e-07
6.4808e-10
5.20009e-07
7.73313e-10
5.19798e-07
8.92652e-10
5.19566e-07
1.00643e-09
5.19313e-07
1.11495e-09
5.19039e-07
1.21853e-09
5.18747e-07
1.31745e-09
5.18436e-07
1.41197e-09
5.18108e-07
1.5023e-09
5.17763e-07
1.58864e-09
5.17403e-07
1.67119e-09
5.17028e-07
1.75009e-09
5.16638e-07
1.8255e-09
5.16234e-07
1.89756e-09
5.15817e-07
1.96644e-09
5.15387e-07
2.03228e-09
5.14945e-07
2.09524e-09
5.14491e-07
2.15551e-09
5.14026e-07
2.21324e-09
5.1355e-07
2.26861e-09
5.13064e-07
2.32177e-09
5.12568e-07
2.37288e-09
5.12062e-07
2.42207e-09
5.11547e-07
2.46948e-09
5.11023e-07
2.51524e-09
5.10489e-07
2.55949e-09
5.09948e-07
2.60236e-09
5.09398e-07
2.64403e-09
5.08839e-07
2.68464e-09
5.08273e-07
2.72438e-09
5.07699e-07
2.76338e-09
5.07118e-07
2.80181e-09
5.06529e-07
2.83982e-09
5.05933e-07
2.87753e-09
5.05329e-07
2.91508e-09
5.04719e-07
2.95255e-09
5.04101e-07
2.99004e-09
5.03476e-07
3.02761e-09
5.02844e-07
3.06531e-09
5.02206e-07
3.10314e-09
5.0156e-07
3.14113e-09
5.00908e-07
3.17924e-09
5.00249e-07
3.21743e-09
4.99583e-07
3.25569e-09
4.9891e-07
3.29398e-09
4.9823e-07
3.3323e-09
4.97543e-07
3.37067e-09
3.40915e-09
5.22228e-07
5.22291e-07
-6.69508e-10
5.22319e-07
-4.49022e-10
5.22312e-07
-2.3903e-10
5.22274e-07
-3.91081e-11
5.22205e-07
1.51166e-10
5.22106e-07
3.32242e-10
5.2198e-07
5.046e-10
5.21828e-07
6.68721e-10
5.21651e-07
8.25056e-10
5.21451e-07
9.73994e-10
5.21227e-07
1.11593e-09
5.20983e-07
1.25124e-09
5.20717e-07
1.3803e-09
5.20432e-07
1.50345e-09
5.20129e-07
1.62101e-09
5.19807e-07
1.73329e-09
5.19469e-07
1.84056e-09
5.19115e-07
1.94307e-09
5.18745e-07
2.04103e-09
5.1836e-07
2.13467e-09
5.17962e-07
2.22418e-09
5.1755e-07
2.30974e-09
5.17124e-07
2.39155e-09
5.16687e-07
2.46979e-09
5.16237e-07
2.54467e-09
5.15777e-07
2.61638e-09
5.15305e-07
2.68512e-09
5.14822e-07
2.75107e-09
5.1433e-07
2.81443e-09
5.13827e-07
2.87538e-09
5.13315e-07
2.93408e-09
5.12794e-07
2.99068e-09
5.12264e-07
3.04535e-09
5.11725e-07
3.09826e-09
5.11178e-07
3.14957e-09
5.10622e-07
3.19944e-09
5.10059e-07
3.24807e-09
5.09488e-07
3.29562e-09
5.08909e-07
3.34228e-09
5.08322e-07
3.38822e-09
5.07729e-07
3.43358e-09
5.07128e-07
3.47853e-09
5.0652e-07
3.52319e-09
5.05904e-07
3.56767e-09
5.05282e-07
3.61208e-09
5.04653e-07
3.6565e-09
5.04018e-07
3.70097e-09
5.03375e-07
3.74552e-09
5.02726e-07
3.79019e-09
5.02071e-07
3.83495e-09
5.01408e-07
3.8798e-09
5.00739e-07
3.92472e-09
5.00064e-07
3.9697e-09
4.99381e-07
4.01475e-09
4.98692e-07
4.05992e-09
4.10527e-09
5.23449e-07
-7.14073e-10
5.23459e-07
-4.58885e-10
5.23436e-07
-2.15892e-10
5.23381e-07
1.54077e-11
5.23297e-07
2.35529e-10
5.23184e-07
4.44998e-10
5.23045e-07
6.44344e-10
5.22879e-07
8.34121e-10
5.22689e-07
1.01484e-09
5.22476e-07
1.18698e-09
5.22241e-07
1.351e-09
5.21985e-07
1.50735e-09
5.21709e-07
1.65645e-09
5.21414e-07
1.79869e-09
5.211e-07
1.93443e-09
5.2077e-07
2.06405e-09
5.20422e-07
2.18783e-09
5.20059e-07
2.30609e-09
5.19681e-07
2.4191e-09
5.19289e-07
2.52711e-09
5.18883e-07
2.63036e-09
5.18463e-07
2.72909e-09
5.18031e-07
2.82351e-09
5.17587e-07
2.91387e-09
5.17132e-07
3.00038e-09
5.16665e-07
3.08327e-09
5.16187e-07
3.16276e-09
5.15699e-07
3.23907e-09
5.15201e-07
3.31242e-09
5.14693e-07
3.383e-09
5.14177e-07
3.45102e-09
5.13651e-07
3.51665e-09
5.13116e-07
3.58008e-09
5.12573e-07
3.64149e-09
5.12021e-07
3.70108e-09
5.11461e-07
3.75904e-09
5.10894e-07
3.81554e-09
5.10319e-07
3.87081e-09
5.09736e-07
3.92501e-09
5.09146e-07
3.97834e-09
5.08549e-07
4.03096e-09
5.07944e-07
4.08303e-09
5.07333e-07
4.13469e-09
5.06714e-07
4.18607e-09
5.06089e-07
4.23728e-09
5.05457e-07
4.28841e-09
5.04819e-07
4.33952e-09
5.04173e-07
4.39065e-09
5.03522e-07
4.44186e-09
5.02864e-07
4.49312e-09
5.02199e-07
4.54447e-09
5.01528e-07
4.59589e-09
5.0085e-07
4.64739e-09
5.00166e-07
4.69901e-09
4.99475e-07
4.7508e-09
4.80287e-09
5.24342e-07
5.24334e-07
-4.50387e-10
5.24293e-07
-1.75399e-10
5.24222e-07
8.63297e-11
5.24123e-07
3.35421e-10
5.23995e-07
5.72439e-10
5.23841e-07
7.98021e-10
5.23663e-07
1.01274e-09
5.2346e-07
1.21719e-09
5.23236e-07
1.41191e-09
5.22989e-07
1.59744e-09
5.22722e-07
1.77425e-09
5.22436e-07
1.94284e-09
5.22131e-07
2.10365e-09
5.21808e-07
2.25709e-09
5.21469e-07
2.40355e-09
5.21113e-07
2.54342e-09
5.20742e-07
2.67701e-09
5.20357e-07
2.80466e-09
5.19957e-07
2.92666e-09
5.19544e-07
3.04331e-09
5.19118e-07
3.15486e-09
5.1868e-07
3.26158e-09
5.1823e-07
3.36375e-09
5.17769e-07
3.4616e-09
5.17297e-07
3.5554e-09
5.16814e-07
3.6454e-09
5.16322e-07
3.73183e-09
5.15819e-07
3.81495e-09
5.15307e-07
3.89496e-09
5.14786e-07
3.97209e-09
5.14256e-07
4.04657e-09
5.13718e-07
4.11858e-09
5.13171e-07
4.18835e-09
5.12616e-07
4.25607e-09
5.12053e-07
4.32197e-09
5.11482e-07
4.38624e-09
5.10904e-07
4.44908e-09
5.10318e-07
4.51072e-09
5.09725e-07
4.57132e-09
5.09125e-07
4.63109e-09
5.08518e-07
4.69017e-09
5.07904e-07
4.74874e-09
5.07283e-07
4.80691e-09
5.06656e-07
4.86482e-09
5.06021e-07
4.92256e-09
5.05381e-07
4.98021e-09
5.04734e-07
5.03782e-09
5.0408e-07
5.09544e-09
5.0342e-07
5.1531e-09
5.02754e-07
5.21082e-09
5.02081e-07
5.26862e-09
5.01402e-07
5.32652e-09
5.00716e-07
5.38459e-09
5.00024e-07
5.44287e-09
5.50149e-09
5.25043e-07
-4.22109e-10
5.24984e-07
-1.16313e-10
5.24895e-07
1.74751e-10
5.24779e-07
4.51751e-10
5.24636e-07
7.15364e-10
5.24468e-07
9.66259e-10
5.24276e-07
1.20509e-09
5.2406e-07
1.43248e-09
5.23823e-07
1.64905e-09
5.23565e-07
1.85538e-09
5.23287e-07
2.05201e-09
5.22991e-07
2.23948e-09
5.22676e-07
2.41828e-09
5.22344e-07
2.58886e-09
5.21996e-07
2.75168e-09
5.21633e-07
2.90712e-09
5.21254e-07
3.05561e-09
5.20861e-07
3.19747e-09
5.20455e-07
3.33306e-09
5.20035e-07
3.46271e-09
5.19604e-07
3.58673e-09
5.1916e-07
3.70542e-09
5.18704e-07
3.81906e-09
5.18238e-07
3.92796e-09
5.17761e-07
4.03239e-09
5.17274e-07
4.13263e-09
5.16777e-07
4.22893e-09
5.1627e-07
4.32158e-09
5.15754e-07
4.41081e-09
5.15229e-07
4.49687e-09
5.14696e-07
4.58e-09
5.14154e-07
4.66042e-09
5.13604e-07
4.73837e-09
5.13046e-07
4.81408e-09
5.1248e-07
4.88776e-09
5.11907e-07
4.95965e-09
5.11326e-07
5.02995e-09
5.10738e-07
5.09889e-09
5.10143e-07
5.16667e-09
5.0954e-07
5.23346e-09
5.08931e-07
5.29947e-09
5.08315e-07
5.36484e-09
5.07692e-07
5.42972e-09
5.07063e-07
5.49424e-09
5.06427e-07
5.5585e-09
5.05784e-07
5.6226e-09
5.05135e-07
5.6866e-09
5.0448e-07
5.75056e-09
5.03819e-07
5.81452e-09
5.03151e-07
5.87853e-09
5.02477e-07
5.94262e-09
5.01797e-07
6.00682e-09
5.0111e-07
6.07121e-09
5.00417e-07
6.13588e-09
6.20096e-09
5.25663e-07
-3.72133e-10
5.25583e-07
-3.68769e-11
5.25476e-07
2.82242e-10
5.25341e-07
5.85969e-10
5.25182e-07
8.75056e-10
5.24998e-07
1.15023e-09
5.24791e-07
1.41218e-09
5.24562e-07
1.66162e-09
5.24311e-07
1.8992e-09
5.24041e-07
2.12555e-09
5.23752e-07
2.34126e-09
5.23445e-07
2.54692e-09
5.2312e-07
2.74304e-09
5.22779e-07
2.93017e-09
5.22421e-07
3.10876e-09
5.22049e-07
3.27927e-09
5.21663e-07
3.44212e-09
5.21263e-07
3.59774e-09
5.20849e-07
3.74649e-09
5.20423e-07
3.88874e-09
5.19985e-07
4.02484e-09
5.19535e-07
4.15512e-09
5.19074e-07
4.27992e-09
5.18603e-07
4.39953e-09
5.18121e-07
4.51429e-09
5.17629e-07
4.62447e-09
5.17128e-07
4.73039e-09
5.16617e-07
4.83233e-09
5.16097e-07
4.93054e-09
5.15569e-07
5.0253e-09
5.15032e-07
5.11689e-09
5.14487e-07
5.20553e-09
5.13934e-07
5.29149e-09
5.13373e-07
5.37501e-09
5.12804e-07
5.45633e-09
5.12228e-07
5.53568e-09
5.11645e-07
5.61332e-09
5.11054e-07
5.68943e-09
5.10457e-07
5.76426e-09
5.09852e-07
5.83798e-09
5.09241e-07
5.91081e-09
5.08623e-07
5.9829e-09
5.07998e-07
6.05439e-09
5.07367e-07
6.12544e-09
5.06729e-07
6.19615e-09
5.06085e-07
6.26663e-09
5.05435e-07
6.33695e-09
5.04778e-07
6.40718e-09
5.04115e-07
6.47738e-09
5.03446e-07
6.5476e-09
5.02771e-07
6.6179e-09
5.02089e-07
6.68833e-09
5.01402e-07
6.75898e-09
5.00708e-07
6.82994e-09
6.90137e-09
5.26259e-07
-2.98083e-10
5.26157e-07
6.51048e-11
5.26028e-07
4.10858e-10
5.25874e-07
7.39977e-10
5.25696e-07
1.05329e-09
5.25495e-07
1.35157e-09
5.25271e-07
1.63557e-09
5.25027e-07
1.90604e-09
5.24763e-07
2.16368e-09
5.24479e-07
2.40915e-09
5.24177e-07
2.64312e-09
5.23858e-07
2.86619e-09
5.23522e-07
3.07894e-09
5.2317e-07
3.28192e-09
5.22803e-07
3.47566e-09
5.22422e-07
3.66065e-09
5.22027e-07
3.83734e-09
5.21618e-07
4.0062e-09
5.21197e-07
4.16762e-09
5.20764e-07
4.32202e-09
5.20319e-07
4.46979e-09
5.19863e-07
4.61128e-09
5.19396e-07
4.74684e-09
5.18918e-07
4.87684e-09
5.18431e-07
5.00159e-09
5.17934e-07
5.12144e-09
5.17428e-07
5.23668e-09
5.16913e-07
5.34763e-09
5.16389e-07
5.45459e-09
5.15856e-07
5.55784e-09
5.15315e-07
5.65766e-09
5.14766e-07
5.75432e-09
5.1421e-07
5.8481e-09
5.13646e-07
5.93926e-09
5.13074e-07
6.02805e-09
5.12495e-07
6.11473e-09
5.11909e-07
6.19953e-09
5.11315e-07
6.2827e-09
5.10715e-07
6.36446e-09
5.10108e-07
6.44501e-09
5.09494e-07
6.52455e-09
5.08874e-07
6.60325e-09
5.08247e-07
6.68129e-09
5.07614e-07
6.75879e-09
5.06974e-07
6.83588e-09
5.06328e-07
6.91268e-09
5.05676e-07
6.98925e-09
5.05017e-07
7.0657e-09
5.04352e-07
7.14208e-09
5.03682e-07
7.21846e-09
5.03005e-07
7.29491e-09
5.02321e-07
7.3715e-09
5.01632e-07
7.44832e-09
5.00937e-07
7.5255e-09
7.60319e-09
5.26895e-07
-1.97141e-10
5.26768e-07
1.92317e-10
5.26616e-07
5.63121e-10
5.26439e-07
9.16176e-10
5.2624e-07
1.25233e-09
5.2602e-07
1.57244e-09
5.25778e-07
1.87729e-09
5.25516e-07
2.16767e-09
5.25236e-07
2.44432e-09
5.24937e-07
2.70796e-09
5.24621e-07
2.95927e-09
5.24288e-07
3.19891e-09
5.23939e-07
3.42749e-09
5.23576e-07
3.6456e-09
5.23198e-07
3.85381e-09
5.22806e-07
4.05262e-09
5.224e-07
4.24256e-09
5.21982e-07
4.4241e-09
5.21552e-07
4.59769e-09
5.21111e-07
4.76376e-09
5.20658e-07
4.92273e-09
5.20194e-07
5.075e-09
5.1972e-07
5.22095e-09
5.19236e-07
5.36096e-09
5.18742e-07
5.49537e-09
5.18239e-07
5.62454e-09
5.17727e-07
5.74882e-09
5.17206e-07
5.86851e-09
5.16677e-07
5.98394e-09
5.16139e-07
6.09543e-09
5.15593e-07
6.20325e-09
5.1504e-07
6.30773e-09
5.14479e-07
6.40913e-09
5.1391e-07
6.50775e-09
5.13335e-07
6.60384e-09
5.12752e-07
6.69768e-09
5.12162e-07
6.78952e-09
5.11565e-07
6.8796e-09
5.10961e-07
6.96816e-09
5.10351e-07
7.05542e-09
5.09734e-07
7.14157e-09
5.0911e-07
7.22681e-09
5.0848e-07
7.31129e-09
5.07844e-07
7.39517e-09
5.07201e-07
7.47857e-09
5.06552e-07
7.56162e-09
5.05897e-07
7.64439e-09
5.05236e-07
7.727e-09
5.04568e-07
7.8095e-09
5.03895e-07
7.89199e-09
5.03215e-07
7.97453e-09
5.02529e-07
8.05723e-09
5.01837e-07
8.14016e-09
5.01139e-07
8.22349e-09
5.00435e-07
8.30735e-09
8.39197e-09
5.27634e-07
5.27478e-07
3.4796e-10
5.27299e-07
7.42132e-10
5.27098e-07
1.11752e-09
5.26875e-07
1.47505e-09
5.26632e-07
1.81558e-09
5.26369e-07
2.13998e-09
5.26088e-07
2.44906e-09
5.25789e-07
2.74359e-09
5.25472e-07
3.02433e-09
5.2514e-07
3.29201e-09
5.24791e-07
3.54729e-09
5.24428e-07
3.79084e-09
5.2405e-07
4.02329e-09
5.23659e-07
4.24521e-09
5.23254e-07
4.45718e-09
5.22837e-07
4.65972e-09
5.22408e-07
4.85334e-09
5.21967e-07
5.03853e-09
5.21515e-07
5.21576e-09
5.21052e-07
5.38545e-09
5.20579e-07
5.54805e-09
5.20096e-07
5.70396e-09
5.19604e-07
5.85358e-09
5.19102e-07
5.99729e-09
5.18591e-07
6.13545e-09
5.18071e-07
6.26842e-09
5.17543e-07
6.39656e-09
5.17007e-07
6.5202e-09
5.16463e-07
6.63966e-09
5.15911e-07
6.75527e-09
5.15351e-07
6.86733e-09
5.14784e-07
6.97615e-09
5.1421e-07
7.08203e-09
5.13628e-07
7.18523e-09
5.1304e-07
7.28607e-09
5.12445e-07
7.38478e-09
5.11843e-07
7.48164e-09
5.11234e-07
7.57688e-09
5.10619e-07
7.67072e-09
5.09997e-07
7.76339e-09
5.09369e-07
7.85505e-09
5.08734e-07
7.94589e-09
5.08093e-07
8.03606e-09
5.07446e-07
8.1257e-09
5.06793e-07
8.21492e-09
5.06133e-07
8.30384e-09
5.05468e-07
8.39254e-09
5.04796e-07
8.48111e-09
5.04118e-07
8.56965e-09
5.03435e-07
8.65824e-09
5.02745e-07
8.74697e-09
5.02049e-07
8.83595e-09
5.01347e-07
8.92534e-09
5.00639e-07
9.0153e-09
9.10605e-09
5.28351e-07
5.35933e-10
5.28141e-07
9.51651e-10
5.27911e-07
1.34767e-09
5.27661e-07
1.72497e-09
5.27392e-07
2.08445e-09
5.27105e-07
2.427e-09
5.26801e-07
2.75347e-09
5.2648e-07
3.06467e-09
5.26143e-07
3.36138e-09
5.2579e-07
3.64435e-09
5.25423e-07
3.91429e-09
5.25042e-07
4.1719e-09
5.24648e-07
4.41782e-09
5.2424e-07
4.65267e-09
5.23821e-07
4.87703e-09
5.23389e-07
5.09148e-09
5.22946e-07
5.29655e-09
5.22491e-07
5.49274e-09
5.22027e-07
5.68056e-09
5.21552e-07
5.86046e-09
5.21067e-07
6.03291e-09
5.20572e-07
6.19833e-09
5.20069e-07
6.35714e-09
5.19556e-07
6.50975e-09
5.19035e-07
6.65654e-09
5.18506e-07
6.79788e-09
5.17968e-07
6.93415e-09
5.17423e-07
7.06569e-09
5.1687e-07
7.19286e-09
5.16309e-07
7.31599e-09
5.15741e-07
7.4354e-09
5.15165e-07
7.55142e-09
5.14583e-07
7.66435e-09
5.13994e-07
7.7745e-09
5.13398e-07
7.88215e-09
5.12795e-07
7.98757e-09
5.12186e-07
8.09105e-09
5.1157e-07
8.19282e-09
5.10947e-07
8.29312e-09
5.10318e-07
8.39216e-09
5.09683e-07
8.49014e-09
5.09042e-07
8.58725e-09
5.08394e-07
8.68361e-09
5.07741e-07
8.7794e-09
5.07081e-07
8.87472e-09
5.06415e-07
8.9697e-09
5.05743e-07
9.06442e-09
5.05065e-07
9.159e-09
5.04382e-07
9.25351e-09
5.03692e-07
9.34806e-09
5.02996e-07
9.44276e-09
5.02294e-07
9.53772e-09
5.01586e-07
9.63309e-09
5.00873e-07
9.72904e-09
9.8258e-09
5.29445e-07
7.60886e-10
5.292e-07
1.19622e-09
5.28937e-07
1.61106e-09
5.28655e-07
2.00643e-09
5.28356e-07
2.38327e-09
5.28041e-07
2.74249e-09
5.27709e-07
3.08496e-09
5.27363e-07
3.41152e-09
5.27001e-07
3.72299e-09
5.26625e-07
4.02012e-09
5.26236e-07
4.30368e-09
5.25833e-07
4.57435e-09
5.25418e-07
4.83283e-09
5.24991e-07
5.07974e-09
5.24553e-07
5.31572e-09
5.24103e-07
5.54133e-09
5.23642e-07
5.75715e-09
5.23171e-07
5.9637e-09
5.2269e-07
6.16151e-09
5.222e-07
6.35107e-09
5.217e-07
6.53284e-09
5.21191e-07
6.70729e-09
5.20673e-07
6.87485e-09
5.20147e-07
7.03594e-09
5.19612e-07
7.19096e-09
5.1907e-07
7.34031e-09
5.1852e-07
7.48438e-09
5.17962e-07
7.62352e-09
5.17397e-07
7.7581e-09
5.16824e-07
7.88848e-09
5.16245e-07
8.01499e-09
5.15658e-07
8.13797e-09
5.15065e-07
8.25774e-09
5.14465e-07
8.3746e-09
5.13858e-07
8.48888e-09
5.13245e-07
8.60083e-09
5.12625e-07
8.71075e-09
5.11999e-07
8.8189e-09
5.11366e-07
8.9255e-09
5.10728e-07
9.03079e-09
5.10083e-07
9.13495e-09
5.09432e-07
9.23818e-09
5.08775e-07
9.34063e-09
5.08112e-07
9.44245e-09
5.07443e-07
9.54377e-09
5.06768e-07
9.6447e-09
5.06087e-07
9.74536e-09
5.054e-07
9.84583e-09
5.04707e-07
9.94624e-09
5.04009e-07
1.00467e-08
5.03304e-07
1.01472e-08
5.02594e-07
1.02481e-08
5.01878e-07
1.03493e-08
5.01156e-07
1.04511e-08
1.05538e-08
5.53505e-07
1.21289e-09
5.53033e-07
1.66799e-09
5.52542e-07
2.10192e-09
5.52033e-07
2.51571e-09
5.51506e-07
2.91034e-09
5.50961e-07
3.28675e-09
5.50401e-07
3.64583e-09
5.49824e-07
3.98844e-09
5.49231e-07
4.31541e-09
5.48624e-07
4.62754e-09
5.48002e-07
4.92559e-09
5.47366e-07
5.21028e-09
5.46716e-07
5.48233e-09
5.46054e-07
5.74238e-09
5.45378e-07
5.99108e-09
5.44691e-07
6.22904e-09
5.43991e-07
6.45683e-09
5.4328e-07
6.67501e-09
5.42557e-07
6.88413e-09
5.41824e-07
7.08468e-09
5.41079e-07
7.27718e-09
5.40324e-07
7.46209e-09
5.39559e-07
7.63986e-09
5.38784e-07
7.81094e-09
5.38e-07
7.97574e-09
5.37205e-07
8.13467e-09
5.36401e-07
8.28813e-09
5.35588e-07
8.4365e-09
5.34766e-07
8.58016e-09
5.33935e-07
8.71948e-09
5.33096e-07
8.8548e-09
5.32247e-07
8.98648e-09
5.3139e-07
9.11484e-09
5.30524e-07
9.24022e-09
5.2965e-07
9.36292e-09
5.28768e-07
9.48324e-09
5.27877e-07
9.60146e-09
5.26978e-07
9.71786e-09
5.26071e-07
9.83266e-09
5.25156e-07
9.9461e-09
5.24232e-07
1.00584e-08
5.23301e-07
1.01697e-08
5.22361e-07
1.02802e-08
5.21414e-07
1.03901e-08
5.20458e-07
1.04994e-08
5.19494e-07
1.06083e-08
5.18523e-07
1.0717e-08
5.17543e-07
1.08254e-08
5.16556e-07
1.09338e-08
5.1556e-07
1.10422e-08
5.14557e-07
1.11508e-08
5.13545e-07
1.12596e-08
5.12525e-07
1.13688e-08
5.11498e-07
1.14787e-08
1.15894e-08
5.15798e-07
5.15604e-07
1.86222e-09
5.15396e-07
2.30947e-09
5.15176e-07
2.73607e-09
5.14943e-07
3.14304e-09
5.14698e-07
3.53133e-09
5.14442e-07
3.90184e-09
5.14175e-07
4.25545e-09
5.13898e-07
4.593e-09
5.1361e-07
4.91531e-09
5.13312e-07
5.22315e-09
5.13005e-07
5.51726e-09
5.12689e-07
5.79836e-09
5.12365e-07
6.06713e-09
5.12032e-07
6.32421e-09
5.1169e-07
6.57022e-09
5.11341e-07
6.80578e-09
5.10985e-07
7.03144e-09
5.10621e-07
7.24777e-09
5.10251e-07
7.45529e-09
5.09873e-07
7.65451e-09
5.0949e-07
7.84592e-09
5.09099e-07
8.02999e-09
5.08703e-07
8.20716e-09
5.08301e-07
8.37787e-09
5.07893e-07
8.54254e-09
5.0748e-07
8.70157e-09
5.07061e-07
8.85537e-09
5.06637e-07
9.00432e-09
5.06207e-07
9.14879e-09
5.05773e-07
9.28916e-09
5.05334e-07
9.42576e-09
5.0489e-07
9.55895e-09
5.04441e-07
9.68906e-09
5.03987e-07
9.81641e-09
5.03529e-07
9.9413e-09
5.03067e-07
1.0064e-08
5.026e-07
1.01848e-08
5.02128e-07
1.0304e-08
5.01653e-07
1.04218e-08
5.01173e-07
1.05383e-08
5.00689e-07
1.06538e-08
5.002e-07
1.07685e-08
4.99708e-07
1.08825e-08
4.99211e-07
1.09959e-08
4.98711e-07
1.11088e-08
4.98206e-07
1.12215e-08
4.97698e-07
1.13339e-08
4.97186e-07
1.14462e-08
4.96669e-07
1.15586e-08
4.96149e-07
1.1671e-08
4.95625e-07
1.17837e-08
4.95097e-07
1.18968e-08
4.94565e-07
1.20105e-08
1.2125e-08
4.82129e-07
4.82177e-07
2.26076e-09
4.82218e-07
2.6954e-09
4.82251e-07
3.11005e-09
4.82277e-07
3.50566e-09
4.82295e-07
3.88315e-09
4.82307e-07
4.24342e-09
4.82313e-07
4.5873e-09
4.82313e-07
4.91563e-09
4.82307e-07
5.22918e-09
4.82295e-07
5.52871e-09
4.82279e-07
5.81494e-09
4.82257e-07
6.08856e-09
4.82231e-07
6.35023e-09
4.82201e-07
6.60057e-09
4.82166e-07
6.84021e-09
4.82128e-07
7.06972e-09
4.82086e-07
7.28968e-09
4.82041e-07
7.50062e-09
4.81992e-07
7.70306e-09
4.81941e-07
7.8975e-09
4.81886e-07
8.08441e-09
4.81829e-07
8.26426e-09
4.8177e-07
8.43749e-09
4.81708e-07
8.60452e-09
4.81643e-07
8.76577e-09
4.81577e-07
8.92165e-09
4.81509e-07
9.07254e-09
4.81439e-07
9.21884e-09
4.81367e-07
9.36091e-09
4.81294e-07
9.49911e-09
4.81219e-07
9.63379e-09
4.81143e-07
9.7653e-09
4.81065e-07
9.89395e-09
4.80986e-07
1.00201e-08
4.80907e-07
1.01439e-08
4.80826e-07
1.02658e-08
4.80744e-07
1.03859e-08
4.80661e-07
1.05046e-08
4.80577e-07
1.06219e-08
4.80493e-07
1.07382e-08
4.80408e-07
1.08536e-08
4.80322e-07
1.09682e-08
4.80236e-07
1.10822e-08
4.80149e-07
1.11957e-08
4.80062e-07
1.13088e-08
4.79974e-07
1.14216e-08
4.79886e-07
1.15343e-08
4.79798e-07
1.16469e-08
4.79709e-07
1.17596e-08
4.7962e-07
1.18725e-08
4.79531e-07
1.19858e-08
4.79442e-07
1.20996e-08
1.22142e-08
4.52415e-07
1.97901e-09
4.52692e-07
2.41766e-09
4.52966e-07
2.83602e-09
4.53237e-07
3.23508e-09
4.53504e-07
3.61577e-09
4.53769e-07
3.97897e-09
4.54031e-07
4.32554e-09
4.5429e-07
4.6563e-09
4.54547e-07
4.97206e-09
4.54802e-07
5.27355e-09
4.55056e-07
5.56152e-09
4.55307e-07
5.83666e-09
4.55558e-07
6.09962e-09
4.55808e-07
6.35106e-09
4.56056e-07
6.59158e-09
4.56304e-07
6.82179e-09
4.56552e-07
7.04225e-09
4.56799e-07
7.25352e-09
4.57046e-07
7.45612e-09
4.57293e-07
7.65055e-09
4.5754e-07
7.83731e-09
4.57787e-07
8.01684e-09
4.58035e-07
8.18961e-09
4.58283e-07
8.35605e-09
4.58533e-07
8.51657e-09
4.58783e-07
8.67159e-09
4.59034e-07
8.8215e-09
4.59286e-07
8.96669e-09
4.59539e-07
9.10754e-09
4.59794e-07
9.24442e-09
4.6005e-07
9.37766e-09
4.60308e-07
9.50763e-09
4.60567e-07
9.63464e-09
4.60828e-07
9.759e-09
4.61091e-07
9.88101e-09
4.61356e-07
1.0001e-08
4.61623e-07
1.01191e-08
4.61892e-07
1.02356e-08
4.62163e-07
1.03508e-08
4.62436e-07
1.04648e-08
4.62712e-07
1.05778e-08
4.6299e-07
1.069e-08
4.63271e-07
1.08014e-08
4.63554e-07
1.09123e-08
4.6384e-07
1.10228e-08
4.64129e-07
1.11328e-08
4.64421e-07
1.12427e-08
4.64715e-07
1.13525e-08
4.65012e-07
1.14622e-08
4.65313e-07
1.15721e-08
4.65617e-07
1.16822e-08
4.65923e-07
1.17928e-08
1.19041e-08
4.25695e-07
1.48448e-09
4.26189e-07
1.92372e-09
4.26683e-07
2.34247e-09
4.27176e-07
2.7417e-09
4.27669e-07
3.12235e-09
4.28163e-07
3.48532e-09
4.28657e-07
3.83146e-09
4.29152e-07
4.16161e-09
4.29647e-07
4.47655e-09
4.30144e-07
4.77705e-09
4.30642e-07
5.06384e-09
4.31141e-07
5.33761e-09
4.31641e-07
5.59904e-09
4.32143e-07
5.84876e-09
4.32648e-07
6.08741e-09
4.33154e-07
6.31557e-09
4.33662e-07
6.53384e-09
4.34173e-07
6.74275e-09
4.34686e-07
6.94285e-09
4.35202e-07
7.13464e-09
4.35721e-07
7.31861e-09
4.36242e-07
7.49523e-09
4.36767e-07
7.66495e-09
4.37295e-07
7.82821e-09
4.37826e-07
7.98543e-09
4.38361e-07
8.13702e-09
4.38899e-07
8.28339e-09
4.39441e-07
8.42493e-09
4.39986e-07
8.56201e-09
4.40536e-07
8.69499e-09
4.41089e-07
8.82424e-09
4.41646e-07
8.95009e-09
4.42208e-07
9.07287e-09
4.42774e-07
9.19291e-09
4.43345e-07
9.31048e-09
4.4392e-07
9.42588e-09
4.445e-07
9.53936e-09
4.45084e-07
9.65116e-09
4.45673e-07
9.76149e-09
4.46268e-07
9.87054e-09
4.46867e-07
9.97849e-09
4.47472e-07
1.00855e-08
4.48081e-07
1.01917e-08
4.48696e-07
1.02973e-08
4.49317e-07
1.04023e-08
4.49943e-07
1.05068e-08
4.50574e-07
1.06111e-08
4.51212e-07
1.07151e-08
4.51855e-07
1.08191e-08
4.52504e-07
1.09231e-08
4.53159e-07
1.10272e-08
4.5382e-07
1.11317e-08
1.12367e-08
4.01663e-07
7.95175e-10
4.02354e-07
1.23217e-09
4.03048e-07
1.64848e-09
4.03745e-07
2.04512e-09
4.04444e-07
2.42301e-09
4.05147e-07
2.78307e-09
4.05852e-07
3.12614e-09
4.06561e-07
3.45306e-09
4.07272e-07
3.76462e-09
4.07988e-07
4.06158e-09
4.08707e-07
4.34468e-09
4.0943e-07
4.61462e-09
4.10157e-07
4.87206e-09
4.10888e-07
5.11766e-09
4.11623e-07
5.35204e-09
4.12363e-07
5.5758e-09
4.13108e-07
5.78952e-09
4.13857e-07
5.99376e-09
4.1461e-07
6.18905e-09
4.15369e-07
6.37591e-09
4.16133e-07
6.55482e-09
4.16902e-07
6.72626e-09
4.17676e-07
6.89067e-09
4.18456e-07
7.04851e-09
4.19241e-07
7.20019e-09
4.20032e-07
7.34613e-09
4.20829e-07
7.48673e-09
4.21631e-07
7.62237e-09
4.2244e-07
7.75344e-09
4.23254e-07
7.8803e-09
4.24075e-07
8.0033e-09
4.24903e-07
8.1228e-09
4.25736e-07
8.23911e-09
4.26577e-07
8.35254e-09
4.27424e-07
8.46341e-09
4.28278e-07
8.57198e-09
4.29139e-07
8.67851e-09
4.30007e-07
8.78324e-09
4.30882e-07
8.88638e-09
4.31764e-07
8.98814e-09
4.32654e-07
9.08868e-09
4.33551e-07
9.18817e-09
4.34456e-07
9.28676e-09
4.35369e-07
9.38456e-09
4.36289e-07
9.48171e-09
4.37218e-07
9.57832e-09
4.38155e-07
9.6745e-09
4.39099e-07
9.77036e-09
4.40052e-07
9.86602e-09
4.41014e-07
9.96159e-09
4.41984e-07
1.00572e-08
4.42963e-07
1.0153e-08
1.02492e-08
3.80014e-07
-7.2511e-11
3.80886e-07
3.59845e-10
3.81763e-07
7.71377e-10
3.82645e-07
1.16309e-09
3.83532e-07
1.53593e-09
3.84425e-07
1.89079e-09
3.85322e-07
2.22854e-09
3.86225e-07
2.55001e-09
3.87134e-07
2.85599e-09
3.88048e-07
3.14725e-09
3.88969e-07
3.42452e-09
3.89895e-07
3.68849e-09
3.90827e-07
3.93985e-09
3.91765e-07
4.17925e-09
3.9271e-07
4.40729e-09
3.93661e-07
4.6246e-09
3.94619e-07
4.83176e-09
3.95583e-07
5.02931e-09
3.96555e-07
5.2178e-09
3.97533e-07
5.39774e-09
3.98518e-07
5.56961e-09
3.9951e-07
5.7339e-09
4.0051e-07
5.89106e-09
4.01517e-07
6.04152e-09
4.02532e-07
6.18571e-09
4.03554e-07
6.32404e-09
4.04583e-07
6.45692e-09
4.05621e-07
6.58473e-09
4.06667e-07
6.70784e-09
4.0772e-07
6.82663e-09
4.08782e-07
6.94144e-09
4.09852e-07
7.05261e-09
4.10931e-07
7.16047e-09
4.12018e-07
7.26533e-09
4.13114e-07
7.36749e-09
4.14219e-07
7.46723e-09
4.15333e-07
7.5648e-09
4.16455e-07
7.66043e-09
4.17587e-07
7.75436e-09
4.18729e-07
7.84677e-09
4.1988e-07
7.93784e-09
4.2104e-07
8.02773e-09
4.2221e-07
8.11659e-09
4.2339e-07
8.20454e-09
4.2458e-07
8.29172e-09
4.2578e-07
8.37823e-09
4.26991e-07
8.46418e-09
4.28211e-07
8.5497e-09
4.29442e-07
8.63487e-09
4.30684e-07
8.71983e-09
4.31937e-07
8.80468e-09
4.332e-07
8.88958e-09
8.97466e-09
3.60489e-07
-1.10339e-09
3.61526e-07
-6.77679e-10
3.62571e-07
-2.72916e-10
3.63622e-07
1.11907e-10
3.6468e-07
4.77739e-10
3.65745e-07
8.25481e-10
3.66818e-07
1.156e-09
3.67898e-07
1.47013e-09
3.68985e-07
1.76865e-09
3.7008e-07
2.05235e-09
3.71182e-07
2.32194e-09
3.72293e-07
2.57814e-09
3.73411e-07
2.82161e-09
3.74537e-07
3.053e-09
3.75672e-07
3.27294e-09
3.76814e-07
3.48204e-09
3.77965e-07
3.68087e-09
3.79124e-07
3.87e-09
3.80292e-07
4.04995e-09
3.81469e-07
4.22124e-09
3.82654e-07
4.38437e-09
3.83848e-07
4.5398e-09
3.85051e-07
4.68798e-09
3.86263e-07
4.82937e-09
3.87485e-07
4.96437e-09
3.88715e-07
5.09341e-09
3.89955e-07
5.21687e-09