/*--------------------------------*- C++ -*----------------------------------*\
  =========                 |
  \\      /  F ield         | OpenFOAM: The Open Source CFD Toolbox
   \\    /   O peration     | Website:  https://openfoam.org
    \\  /    A nd           | Version:  6
     \\/     M anipulation  |
\*---------------------------------------------------------------------------*/
FoamFile
{
    version     2.0;
    format      ascii;
    class       volVectorField;
    location    "0.01";
    object      U;
}
// * * * * * * * * * * * * * * * * * * * * * * * * * * * * * * * * * * * * * //

dimensions      [0 1 -1 0 0 0 0];

internalField   nonuniform List<vector> 
3081
(
(0.4553 -0.000441217 4.81172e-21)
(0.4559 -0.000416733 4.78143e-21)
(0.456469 -0.00039353 4.75143e-21)
(0.457008 -0.000371542 0)
(0.457519 -0.000350593 0)
(0.458002 -0.000329996 0)
(0.458458 -0.000308747 4.63432e-21)
(0.458883 -0.00028737 0)
(0.459281 -0.000267627 0)
(0.459656 -0.000250404 -4.54918e-21)
(0.460009 -0.00023552 0)
(0.460344 -0.000222371 0)
(0.460661 -0.000210408 -4.46616e-21)
(0.460962 -0.000199289 0)
(0.461247 -0.00018884 0)
(0.461518 -0.000178981 4.3851e-21)
(0.461774 -0.000169676 4.35849e-21)
(0.462018 -0.000160911 0)
(0.462249 -0.000152682 -4.30584e-21)
(0.462469 -0.000144986 0)
(0.462678 -0.000137822 4.25392e-21)
(0.462876 -0.000131188 0)
(0.463065 -0.000125071 4.20271e-21)
(0.463245 -0.000119454 4.17736e-21)
(0.463416 -0.000114305 0)
(0.463581 -0.000109588 0)
(0.463738 -0.00010526 0)
(0.463889 -0.000101283 0)
(0.464034 -9.76225e-05 0)
(0.464173 -9.42568e-05 0)
(0.464308 -9.11721e-05 0)
(0.464437 -8.83597e-05 3.98014e-21)
(0.464563 -8.58095e-05 -3.95614e-21)
(0.464685 -8.35053e-05 0)
(0.464803 -8.14221e-05 0)
(0.464918 -7.9527e-05 0)
(0.465031 -7.77823e-05 0)
(0.46514 -7.61488e-05 -7.67628e-21)
(0.465248 -7.45897e-05 0)
(0.465353 -7.30722e-05 7.58366e-21)
(0.465455 -7.15682e-05 -7.53772e-21)
(0.465555 -7.00538e-05 0)
(0.465653 -6.85093e-05 0)
(0.465749 -6.6918e-05 0)
(0.465842 -6.52675e-05 7.35636e-21)
(0.465932 -6.35504e-05 7.31161e-21)
(0.46602 -6.17662e-05 0)
(0.466105 -5.99223e-05 7.2228e-21)
(0.466187 -5.80346e-05 7.17874e-21)
(0.466265 -5.61264e-05 -7.13491e-21)
(0.466341 -5.42257e-05 0)
(0.466414 -5.23616e-05 0)
(0.466483 -5.05595e-05 -7.00476e-21)
(0.46655 -4.88387e-05 0)
(0.466614 -4.72098e-05 0)
(0.466674 -4.56722e-05 0)
(0.466733 -4.4222e-05 0)
(0.477354 -0.000944041 3.64722e-21)
(0.477953 -0.000888663 -3.63863e-21)
(0.47852 -0.000836392 -3.62159e-21)
(0.479057 -0.00078704 0)
(0.479565 -0.000740317 0)
(0.480048 -0.000695609 0)
(0.480507 -0.000652246 -3.55398e-21)
(0.480946 -0.000610708 0)
(0.481365 -0.000572154 7.0354e-21)
(0.481763 -0.000536979 1.05058e-20)
(0.48214 -0.000504881 -6.96915e-21)
(0.482497 -0.000475366 0)
(0.482836 -0.000448004 -3.44951e-21)
(0.483158 -0.000422482 0)
(0.483462 -0.000398579 -6.83743e-21)
(0.483751 -0.000376145 3.40058e-21)
(0.484026 -0.000355081 3.38431e-21)
(0.484286 -0.000335319 0)
(0.484534 -0.000316809 1.00614e-20)
(0.484769 -0.000299512 -6.67401e-21)
(0.484992 -0.000283392 -3.32204e-21)
(0.485205 -0.000268418 0)
(0.485407 -0.000254547 -3.28943e-21)
(0.4856 -0.000241734 -9.81725e-21)
(0.485784 -0.000229918 0)
(0.485959 -0.000219032 -6.47937e-21)
(0.486127 -0.000209004 -6.44707e-21)
(0.486288 -0.000199763 -6.41481e-21)
(0.486442 -0.000191245 0)
(0.48659 -0.000183396 0)
(0.486733 -0.000176175 0)
(0.48687 -0.000169547 3.14229e-21)
(0.487003 -0.000163479 3.12777e-21)
(0.487131 -0.000157931 0)
(0.487255 -0.000152857 6.19e-21)
(0.487376 -0.000148203 6.15802e-21)
(0.487493 -0.000143907 0)
(0.487607 -0.000139904 6.09545e-21)
(0.487718 -0.000136134 1.21247e-20)
(0.487826 -0.000132536 -6.03169e-21)
(0.487932 -0.000129061 -5.99756e-21)
(0.488036 -0.000125662 0)
(0.488137 -0.000122301 0)
(0.488237 -0.000118944 0)
(0.488334 -0.000115565 -5.87303e-21)
(0.488429 -0.000112147 5.8394e-21)
(0.488521 -0.000108682 1.16178e-20)
(0.488612 -0.000105173 -5.77835e-21)
(0.488701 -0.000101634 5.74502e-21)
(0.488787 -9.80924e-05 5.71547e-21)
(0.488871 -9.458e-05 0)
(0.488953 -9.11325e-05 0)
(0.489032 -8.77824e-05 -5.61985e-21)
(0.489109 -8.4555e-05 0)
(0.489184 -8.14642e-05 0)
(0.489257 -7.85095e-05 1.10546e-20)
(0.489328 -7.56831e-05 0)
(0.484112 -0.00153208 -5.92333e-21)
(0.484696 -0.00144106 0)
(0.485249 -0.00135533 0)
(0.485772 -0.00127464 0)
(0.486268 -0.00119873 0)
(0.486736 -0.00112736 0)
(0.487181 -0.00106021 -5.78147e-21)
(0.487603 -0.000996867 0)
(0.488004 -0.000937195 -5.73897e-21)
(0.488384 -0.000881321 -5.71565e-21)
(0.488745 -0.000829236 5.69229e-21)
(0.489088 -0.000780731 0)
(0.489412 -0.000735505 5.64546e-21)
(0.48972 -0.000693255 0)
(0.490011 -0.000653719 5.59844e-21)
(0.490288 -0.000616683 -5.57485e-21)
(0.490551 -0.000581979 -1.66493e-20)
(0.4908 -0.000549475 0)
(0.491037 -0.000519063 -1.65075e-20)
(0.491262 -0.000490654 -5.47635e-21)
(0.491476 -0.000464169 0)
(0.491679 -0.000439533 -1.08614e-20)
(0.491873 -0.000416671 -1.08137e-20)
(0.492058 -0.0003955 1.61503e-20)
(0.492235 -0.000375931 0)
(0.492403 -0.000357863 5.33629e-21)
(0.492565 -0.000341191 5.31216e-21)
(0.492719 -0.00032581 1.58616e-20)
(0.492867 -0.00031162 0)
(0.49301 -0.000298533 0)
(0.493147 -0.000286473 0)
(0.493279 -0.000275375 5.18887e-21)
(0.493406 -0.000265177 0)
(0.493529 -0.000255817 0)
(0.493649 -0.000247226 -5.1175e-21)
(0.493764 -0.000239326 -5.09298e-21)
(0.493877 -0.000232034 0)
(0.493986 -0.000225262 0)
(0.494093 -0.000218923 -1.00384e-20)
(0.494197 -0.000212933 0)
(0.494298 -0.000207217 9.93965e-21)
(0.494397 -0.000201707 9.88886e-21)
(0.494494 -0.000196343 0)
(0.49459 -0.000191075 0)
(0.494683 -0.000185859 -9.74028e-21)
(0.494774 -0.000180665 -1.18066e-24)
(0.494864 -0.000175473 -1.1459e-24)
(0.494951 -0.000170277 0)
(0.495038 -0.000165084 -1.90841e-20)
(0.495122 -0.000159917 0)
(0.495205 -0.000154805 0)
(0.495286 -0.000149786 0)
(0.495365 -0.000144894 9.34314e-21)
(0.495443 -0.000140157 0)
(0.495519 -0.000135592 -1.84848e-20)
(0.495593 -0.000131198 -9.19334e-21)
(0.495666 -0.00012696 0)
(0.487591 -0.0021245 -1.02767e-20)
(0.488159 -0.00199721 1.02421e-20)
(0.488697 -0.00187745 1.02071e-20)
(0.489205 -0.00176489 -1.0172e-20)
(0.489686 -0.00165918 -1.01366e-20)
(0.490141 -0.00156 0)
(0.490571 -0.00146695 -5.02944e-21)
(0.490979 -0.00137957 0)
(0.491364 -0.00129749 0)
(0.49173 -0.00122056 -9.95439e-21)
(0.492077 -0.00114859 0)
(0.492405 -0.00108134 0)
(0.492716 -0.00101849 -9.84275e-21)
(0.493011 -0.000959714 0)
(0.493291 -0.000904724 0)
(0.493555 -0.000853256 0)
(0.493807 -0.000805086 1.93854e-20)
(0.494045 -0.000760024 0)
(0.494272 -0.000717907 1.92312e-20)
(0.494487 -0.000678591 9.57801e-21)
(0.494692 -0.000641948 9.5366e-21)
(0.494886 -0.000607859 2.188e-24)
(0.495072 -0.000576204 9.46024e-21)
(0.495249 -0.000546863 -1.88393e-20)
(0.495418 -0.00051971 -9.37904e-21)
(0.495579 -0.00049461 0)
(0.495733 -0.000471426 -9.2992e-21)
(0.495881 -0.000450022 -1.85196e-20)
(0.496023 -0.000430265 0)
(0.496159 -0.000412037 0)
(0.49629 -0.00039523 0)
(0.496417 -0.000379748 -1.24101e-24)
(0.496539 -0.000365502 0)
(0.496657 -0.000352401 0)
(0.496771 -0.000340353 0)
(0.496881 -0.000329258 0)
(0.496989 -0.000319011 1.77808e-20)
(0.497093 -0.000309502 0)
(0.497195 -0.000300623 -1.76139e-20)
(0.497294 -0.000292271 0)
(0.497391 -0.000284351 -1.74459e-20)
(0.497486 -0.000276774 -8.68158e-21)
(0.497579 -0.000269465 1.7277e-20)
(0.497669 -0.000262356 -1.71922e-20)
(0.497759 -0.000255391 -8.55288e-21)
(0.497846 -0.000248527 8.5103e-21)
(0.497932 -0.000241734 -8.46897e-21)
(0.498017 -0.000234996 0)
(0.4981 -0.000228313 -8.38199e-21)
(0.498182 -0.000221701 0)
(0.498262 -0.000215186 0)
(0.498342 -0.000208799 0)
(0.49842 -0.000202572 -1.64205e-20)
(0.498496 -0.000196529 0)
(0.498572 -0.000190684 1.07585e-24)
(0.498646 -0.000185031 0)
(0.498719 -0.000179548 0)
(0.489771 -0.00269865 1.86807e-20)
(0.490324 -0.00253567 -9.31365e-21)
(0.490846 -0.00238247 -1.85619e-20)
(0.49134 -0.00223858 9.25332e-21)
(0.491807 -0.00210355 9.22275e-21)
(0.492248 -0.00197696 0)
(0.492664 -0.00185832 4.15163e-24)
(0.493059 -0.00174712 0)
(0.493431 -0.00164287 -9.0926e-21)
(0.493784 -0.00154521 9.06409e-21)
(0.494118 -0.00145379 0)
(0.494434 -0.00136828 0)
(0.494734 -0.0012883 8.96633e-21)
(0.495017 -0.0012135 -8.93064e-21)
(0.495285 -0.00114354 0)
(0.49554 -0.0010781 0)
(0.495781 -0.00101692 -8.83302e-21)
(0.49601 -0.000959739 0)
(0.496227 -0.000906342 -8.76509e-21)
(0.496433 -0.000856532 0)
(0.49663 -0.000810127 -8.69632e-21)
(0.496817 -0.00076696 8.66163e-21)
(0.496995 -0.000726867 -1.72504e-20)
(0.497164 -0.000689686 8.59163e-21)
(0.497326 -0.000655253 8.55634e-21)
(0.497481 -0.000623401 0)
(0.497629 -0.000593961 8.48517e-21)
(0.497771 -0.000566766 8.4493e-21)
(0.497907 -0.000541657 0)
(0.498037 -0.000518484 0)
(0.498163 -0.00049711 1.66793e-20)
(0.498284 -0.00047741 -8.304e-21)
(0.498401 -0.000459265 1.65328e-20)
(0.498514 -0.000442561 0)
(0.498623 -0.000427179 0)
(0.498729 -0.000413 0)
(0.498832 -0.000399898 -3.24726e-20)
(0.498932 -0.000387747 0)
(0.49903 -0.00037642 1.60864e-20)
(0.499125 -0.000365799 0)
(0.499218 -0.000355771 1.59346e-20)
(0.499309 -0.000346233 0)
(0.499398 -0.000337093 -1.57817e-20)
(0.499485 -0.000328272 1.57048e-20)
(0.499571 -0.000319702 1.56277e-20)
(0.499655 -0.000311326 -1.55503e-20)
(0.499738 -0.000303107 0)
(0.499819 -0.000295018 0)
(0.4999 -0.00028705 8.83879e-25)
(0.499979 -0.000279211 0)
(0.500058 -0.000271515 0)
(0.500135 -0.000263988 0)
(0.500211 -0.000256653 1.50026e-20)
(0.500287 -0.000249527 0)
(0.500362 -0.000242615 1.48443e-20)
(0.500435 -0.000235904 0)
(0.500508 -0.000229364 1.46847e-20)
(0.491282 -0.00325493 -8.75716e-21)
(0.491819 -0.00305702 0)
(0.492326 -0.00287108 8.70322e-21)
(0.492805 -0.00269654 0)
(0.493257 -0.00253283 -8.64436e-21)
(0.493685 -0.00237939 0)
(0.494089 -0.00223567 3.27773e-24)
(0.49447 -0.00210106 0)
(0.494831 -0.00197501 8.5324e-21)
(0.495172 -0.00185699 0)
(0.495494 -0.00174655 0)
(0.495799 -0.00164324 0)
(0.496088 -0.00154661 0)
(0.496361 -0.00145627 8.38266e-21)
(0.49662 -0.00137181 0)
(0.496865 -0.00129287 0)
(0.497097 -0.00121911 1.65766e-20)
(0.497317 -0.00115024 0)
(0.497526 -0.00108597 0)
(0.497725 -0.00102605 0)
(0.497914 -0.000970258 1.63243e-20)
(0.498093 -0.000918368 0)
(0.498265 -0.000870172 1.61978e-20)
(0.498428 -0.000825467 0)
(0.498584 -0.00078405 -1.60648e-20)
(0.498733 -0.000745721 1.59988e-20)
(0.498875 -0.000710279 0)
(0.499011 -0.000677529 -1.58657e-20)
(0.499142 -0.000647283 0)
(0.499268 -0.000619364 0)
(0.499389 -0.000593607 -3.13275e-20)
(0.499506 -0.000569859 1.55947e-20)
(0.499618 -0.000547973 -1.55273e-20)
(0.499727 -0.000527809 0)
(0.499832 -0.000509228 0)
(0.499934 -0.000492087 0)
(0.500033 -0.000476245 3.04961e-20)
(0.50013 -0.000461557 0)
(0.500224 -0.000447885 -1.51062e-20)
(0.500315 -0.000435094 0)
(0.500405 -0.000423057 0)
(0.500493 -0.00041166 0)
(0.500579 -0.000400797 0)
(0.500663 -0.000390378 -1.47476e-20)
(0.500746 -0.000380323 0)
(0.500827 -0.000370568 1.46021e-20)
(0.500908 -0.000361062 -1.45289e-20)
(0.500987 -0.000351772 -1.44555e-20)
(0.501065 -0.000342677 1.43825e-20)
(0.501143 -0.000333775 0)
(0.501219 -0.000325071 0)
(0.501295 -0.000316577 0)
(0.50137 -0.000308308 0)
(0.501445 -0.000300269 0)
(0.501519 -0.000292458 0)
(0.501592 -0.000284851 0)
(0.501664 -0.000277409 -1.37855e-20)
(0.492917 -0.00356216 0)
(0.493409 -0.0033443 -1.66749e-20)
(0.493873 -0.00313987 0)
(0.494311 -0.00294818 8.2887e-21)
(0.494725 -0.00276857 0)
(0.495116 -0.00260037 -8.22882e-21)
(0.495485 -0.0024429 0)
(0.495833 -0.00229552 1.63527e-20)
(0.496163 -0.00215761 1.62968e-20)
(0.496475 -0.0020286 -1.62404e-20)
(0.496769 -0.00190795 0)
(0.497048 -0.00179515 0)
(0.497311 -0.00168972 1.60684e-20)
(0.497561 -0.0015912 0)
(0.497797 -0.00149917 1.59514e-20)
(0.498021 -0.00141325 -2.94475e-24)
(0.498234 -0.00133307 -1.58324e-20)
(0.498435 -0.00125829 0)
(0.498627 -0.00118862 0)
(0.498809 -0.00112378 -1.56527e-20)
(0.498982 -0.00106348 0)
(0.499147 -0.00100748 0)
(0.499305 -0.000955536 -1.54643e-20)
(0.499455 -0.000907402 1.54032e-20)
(0.499599 -0.000862845 -3.06779e-20)
(0.499736 -0.000821634 0)
(0.499868 -0.000783546 1.52116e-20)
(0.499995 -0.000748364 0)
(0.500116 -0.000715886 0)
(0.500233 -0.000685919 3.00316e-20)
(0.500346 -0.000658282 -1.49505e-20)
(0.500455 -0.000632804 0)
(0.50056 -0.00060932 0)
(0.500662 -0.000587668 0)
(0.500761 -0.000567686 0)
(0.500857 -0.000549216 -1.46157e-20)
(0.50095 -0.0005321 1.45469e-20)
(0.501041 -0.000516182 1.44793e-20)
(0.50113 -0.000501318 0)
(0.501217 -0.000487368 0)
(0.501302 -0.000474205 0)
(0.501386 -0.000461715 1.42021e-20)
(0.501468 -0.000449794 2.82649e-20)
(0.501548 -0.000438355 0)
(0.501628 -0.000427324 -4.19751e-20)
(0.501706 -0.00041664 1.39213e-20)
(0.501784 -0.000406261 1.38503e-20)
(0.50186 -0.000396157 0)
(0.501936 -0.000386313 -2.7414e-20)
(0.502011 -0.000376724 0)
(0.502086 -0.00036739 0)
(0.50216 -0.000358314 0)
(0.502234 -0.000349491 0)
(0.502307 -0.000340906 -2.6692e-20)
(0.502379 -0.000332528 0)
(0.502451 -0.000324305 0)
(0.493767 -0.00405049 0)
(0.494242 -0.00380168 1.62366e-20)
(0.49469 -0.00356827 0)
(0.495113 -0.00334946 1.613e-20)
(0.495512 -0.00314447 0)
(0.495889 -0.00295253 1.60292e-20)
(0.496246 -0.00277288 0)
(0.496582 -0.00260479 -1.59212e-20)
(0.496901 -0.00244755 -3.17289e-20)
(0.497201 -0.00230051 1.58112e-20)
(0.497485 -0.00216304 0)
(0.497754 -0.00203456 -1.5696e-20)
(0.498009 -0.00191452 -1.56426e-20)
(0.498249 -0.00180241 0)
(0.498477 -0.00169774 -1.55279e-20)
(0.498694 -0.00160006 -1.54698e-20)
(0.498899 -0.00150896 1.54112e-20)
(0.499093 -0.00142405 -1.535e-20)
(0.499278 -0.00134497 1.52906e-20)
(0.499454 -0.0012714 1.52308e-20)
(0.499621 -0.001203 0)
(0.499781 -0.00113949 0)
(0.499933 -0.00108058 1.62438e-24)
(0.500078 -0.00102599 0)
(0.500217 -0.000975448 1.49265e-20)
(0.50035 -0.000928696 1.48627e-20)
(0.500478 -0.00088548 0)
(0.5006 -0.00084556 0)
(0.500718 -0.000808705 1.46728e-20)
(0.500831 -0.000774697 -1.46097e-20)
(0.500941 -0.00074333 0)
(0.501046 -0.000714406 0)
(0.501148 -0.000687739 0)
(0.501247 -0.000663145 1.43484e-20)
(0.501344 -0.000640444 1.42823e-20)
(0.501437 -0.000619459 0)
(0.501528 -0.000600019 -1.41498e-20)
(0.501617 -0.000581957 0)
(0.501704 -0.000565114 0)
(0.501788 -0.000549342 0)
(0.501871 -0.000534501 0)
(0.501953 -0.000520468 -1.3811e-20)
(0.502033 -0.000507131 -1.37423e-20)
(0.502112 -0.000494393 -2.73457e-20)
(0.50219 -0.00048217 2.7208e-20)
(0.502267 -0.000470395 2.70681e-20)
(0.502343 -0.000459014 2.69285e-20)
(0.502419 -0.000447989 0)
(0.502493 -0.000437294 5.3296e-20)
(0.502567 -0.000426912 0)
(0.502641 -0.000416832 0)
(0.502714 -0.000407044 0)
(0.502787 -0.000397532 0)
(0.50286 -0.000388271 2.5938e-20)
(0.502932 -0.000379218 0)
(0.503004 -0.00037031 0)
(0.494919 -0.00424219 1.59649e-20)
(0.49535 -0.00398088 0)
(0.495756 -0.00373595 -1.58701e-20)
(0.49614 -0.00350651 0)
(0.496503 -0.0032917 1.57612e-20)
(0.496846 -0.00309067 0)
(0.49717 -0.00290261 1.5655e-20)
(0.497476 -0.00272673 1.56047e-20)
(0.497765 -0.00256229 -1.55467e-20)
(0.498039 -0.00240861 0)
(0.498297 -0.00226501 3.0876e-20)
(0.498542 -0.0021309 0)
(0.498774 -0.00200569 0)
(0.498994 -0.00188884 0)
(0.499202 -0.00177984 0)
(0.499399 -0.00167823 0)
(0.499587 -0.00158357 1.50963e-20)
(0.499765 -0.00149545 -1.50374e-20)
(0.499935 -0.00141349 -1.49781e-20)
(0.500097 -0.00133732 0)
(0.500251 -0.0012666 0)
(0.500397 -0.001201 1.487e-24)
(0.500538 -0.00114021 0)
(0.500672 -0.00108393 1.46736e-20)
(0.500801 -0.00103187 -2.92246e-20)
(0.500925 -0.000983743 0)
(0.501043 -0.000939285 2.89734e-20)
(0.501157 -0.000898239 -4.32716e-20)
(0.501267 -0.000860362 0)
(0.501373 -0.000825424 -2.85922e-20)
(0.501476 -0.000793205 0)
(0.501576 -0.000763494 0)
(0.501672 -0.000736088 -1.41026e-20)
(0.501766 -0.000710789 -1.40371e-20)
(0.501857 -0.000687404 2.79413e-20)
(0.501946 -0.000665748 2.78089e-20)
(0.502032 -0.000645641 0)
(0.502117 -0.000626914 0)
(0.5022 -0.000609406 0)
(0.502281 -0.000592971 0)
(0.502361 -0.000577475 0)
(0.50244 -0.000562797 0)
(0.502518 -0.000548832 5.3728e-20)
(0.502594 -0.000535488 0)
(0.50267 -0.000522691 -6.32142e-25)
(0.502745 -0.000510377 -2.64501e-20)
(0.502819 -0.000498499 2.63103e-20)
(0.502893 -0.000487021 -2.61712e-20)
(0.502966 -0.000475915 0)
(0.503039 -0.000465158 0)
(0.503112 -0.000454729 0)
(0.503184 -0.000444601 0)
(0.503256 -0.000434737 2.54653e-20)
(0.503328 -0.000425086 0)
(0.503399 -0.000415574 2.51802e-20)
(0.495513 -0.00466448 -5.0335e-24)
(0.495924 -0.00437651 -1.57617e-20)
(0.496313 -0.00410661 0)
(0.49668 -0.0038538 0)
(0.497027 -0.00361712 -3.12192e-20)
(0.497355 -0.00339564 0)
(0.497665 -0.00318846 -3.67073e-24)
(0.497958 -0.00299472 0)
(0.498235 -0.00281363 1.53975e-20)
(0.498497 -0.0026444 0)
(0.498745 -0.00248633 -1.52875e-20)
(0.49898 -0.00233874 0)
(0.499202 -0.00220098 0)
(0.499413 -0.00207247 -1.51163e-20)
(0.499613 -0.00195264 0)
(0.499802 -0.00184097 0)
(0.499982 -0.00173697 0)
(0.500154 -0.00164019 1.48853e-20)
(0.500317 -0.0015502 1.48264e-20)
(0.500472 -0.00146659 0)
(0.50062 -0.00138897 2.94143e-20)
(0.500762 -0.00131698 1.46483e-20)
(0.500897 -0.00125027 -2.91722e-20)
(0.501027 -0.00118852 -1.45261e-20)
(0.501151 -0.00113138 -1.44621e-20)
(0.501271 -0.00107857 2.88024e-20)
(0.501385 -0.00102978 -1.97094e-24)
(0.501496 -0.000984735 2.85534e-20)
(0.501602 -0.000943168 2.84249e-20)
(0.501705 -0.000904826 5.65965e-20)
(0.501805 -0.000869465 -2.81692e-20)
(0.501901 -0.000836854 0)
(0.501995 -0.00080677 -2.79104e-20)
(0.502086 -0.000778998 -2.77799e-20)
(0.502175 -0.00075333 -2.76496e-20)
(0.502262 -0.000729566 -9.80968e-25)
(0.502346 -0.000707514 0)
(0.502429 -0.000686995 0)
(0.50251 -0.000667839 0)
(0.50259 -0.000649889 0)
(0.502668 -0.000633003 0)
(0.502745 -0.000617053 0)
(0.502821 -0.000601926 -5.31481e-20)
(0.502896 -0.000587523 0)
(0.502971 -0.00057376 -5.25981e-20)
(0.503045 -0.000560569 0)
(0.503118 -0.000547891 -5.20437e-20)
(0.50319 -0.000535681 0)
(0.503263 -0.000523902 2.57424e-20)
(0.503334 -0.000512521 0)
(0.503406 -0.000501505 -2.54612e-20)
(0.503478 -0.000490815 0)
(0.503549 -0.000480407 -5.03569e-20)
(0.50362 -0.000470217 0)
(0.503691 -0.000460165 -2.48942e-20)
(0.496086 -0.00506696 -1.57271e-20)
(0.496476 -0.00475373 1.56783e-20)
(0.496844 -0.00446017 0)
(0.497193 -0.0041852 0)
(0.497522 -0.00392778 1.5524e-20)
(0.497834 -0.00368688 0)
(0.498128 -0.00346155 -3.08329e-20)
(0.498407 -0.00325085 0)
(0.49867 -0.00305392 0)
(0.498919 -0.00286993 0)
(0.499155 -0.00269809 -1.51978e-20)
(0.499379 -0.00253767 0)
(0.499591 -0.00238798 0)
(0.499792 -0.00224837 4.50923e-20)
(0.499982 -0.00211823 0)
(0.500163 -0.00199698 0)
(0.500335 -0.00188411 0)
(0.500499 -0.00177909 -4.44002e-20)
(0.500655 -0.00168145 -1.47424e-20)
(0.500803 -0.00159076 0)
(0.500945 -0.00150658 -2.92462e-20)
(0.501081 -0.00142852 -2.91227e-20)
(0.50121 -0.00135618 5.80053e-20)
(0.501335 -0.00128922 -2.88791e-20)
(0.501454 -0.00122727 2.87582e-20)
(0.501568 -0.00117 -2.10009e-24)
(0.501679 -0.0011171 -2.85091e-20)
(0.501785 -0.00106826 0)
(0.501887 -0.00102319 -2.82566e-20)
(0.501987 -0.000981614 -2.81291e-20)
(0.502083 -0.000943272 2.80009e-20)
(0.502176 -0.00090791 0)
(0.502266 -0.000875287 1.20308e-24)
(0.502355 -0.00084517 5.52218e-20)
(0.502441 -0.000817337 0)
(0.502524 -0.000791575 -2.73482e-20)
(0.502607 -0.000767681 0)
(0.502687 -0.000745463 0)
(0.502766 -0.000724743 0)
(0.502843 -0.000705356 0)
(0.50292 -0.000687152 0)
(0.502995 -0.000669994 0)
(0.503069 -0.000653763 2.64052e-20)
(0.503142 -0.000638354 0)
(0.503215 -0.000623675 2.61301e-20)
(0.503287 -0.000609651 -2.59913e-20)
(0.503358 -0.000596215 2.58529e-20)
(0.503429 -0.000583315 0)
(0.5035 -0.000570903 -2.55736e-20)
(0.503571 -0.000558937 0)
(0.503641 -0.000547373 3.96573e-25)
(0.503711 -0.000536165 0)
(0.503781 -0.000525257 3.7837e-25)
(0.503851 -0.000514579 0)
(0.503921 -0.000504042 0)
(0.496698 -0.00544786 1.56724e-20)
(0.497064 -0.00511092 0)
(0.49741 -0.00479514 0)
(0.497737 -0.00449936 -1.55219e-20)
(0.498047 -0.00422243 0)
(0.49834 -0.00396327 0)
(0.498617 -0.00372085 1.5369e-20)
(0.498879 -0.00349418 1.53119e-20)
(0.499127 -0.00328233 0)
(0.499362 -0.00308441 0)
(0.499584 -0.00289959 1.51518e-20)
(0.499795 -0.00272707 -3.0187e-20)
(0.499995 -0.00256612 0)
(0.500184 -0.00241603 -2.99677e-20)
(0.500364 -0.00227615 0)
(0.500535 -0.00214587 0)
(0.500698 -0.0020246 -2.96189e-20)
(0.500852 -0.00191179 2.95061e-20)
(0.501 -0.00180694 2.93848e-20)
(0.501141 -0.00170955 0)
(0.501275 -0.00161917 0)
(0.501403 -0.00153537 2.90295e-20)
(0.501526 -0.00145772 -2.8908e-20)
(0.501644 -0.00138583 2.87857e-20)
(0.501757 -0.00131933 -2.86601e-20)
(0.501866 -0.00125786 -2.85383e-20)
(0.501971 -0.00120108 -2.84114e-20)
(0.502072 -0.00114865 -2.82858e-20)
(0.50217 -0.00110028 0)
(0.502264 -0.00105565 2.8032e-20)
(0.502356 -0.0010145 2.79038e-20)
(0.502445 -0.000976537 0)
(0.502531 -0.000941517 2.76464e-20)
(0.502615 -0.000909188 -1.11134e-24)
(0.502698 -0.000879313 2.73835e-20)
(0.502778 -0.000851665 0)
(0.502857 -0.00082603 0)
(0.502934 -0.000802208 0)
(0.503009 -0.000780009 0)
(0.503084 -0.000759261 0)
(0.503157 -0.000739807 0)
(0.503229 -0.000721503 -2.64451e-20)
(0.503301 -0.000704223 0)
(0.503371 -0.000687857 -2.61712e-20)
(0.503441 -0.000672306 0)
(0.503511 -0.000657489 2.58954e-20)
(0.50358 -0.000643332 0)
(0.503648 -0.000629774 0)
(0.503717 -0.000616761 -2.54764e-20)
(0.503785 -0.000604241 0)
(0.503853 -0.000592163 5.03903e-20)
(0.50392 -0.000580471 0)
(0.503988 -0.000569101 2.4912e-20)
(0.504056 -0.000557976 0)
(0.504124 -0.000547001 0)
(0.504191 -0.000536055 0)
(0.497408 -0.0058052 -5.12284e-24)
(0.497747 -0.00544623 0)
(0.498068 -0.00510981 0)
(0.498371 -0.00479467 1.54973e-20)
(0.498658 -0.00449959 0)
(0.49893 -0.00422343 0)
(0.499187 -0.00396508 3.06734e-20)
(0.49943 -0.00372352 1.52799e-20)
(0.499661 -0.00349774 0)
(0.499879 -0.00328682 0)
(0.500086 -0.00308987 0)
(0.500282 -0.00290604 3.0137e-20)
(0.500468 -0.00273456 0)
(0.500644 -0.00257466 0)
(0.500811 -0.00242567 0)
(0.50097 -0.00228692 0)
(0.501122 -0.00215778 5.91323e-20)
(0.501266 -0.00203768 -2.94477e-20)
(0.501403 -0.00192606 -3.64573e-24)
(0.501534 -0.0018224 2.9212e-20)
(0.501659 -0.00172621 0)
(0.501779 -0.00163701 -2.89726e-20)
(0.501893 -0.00155438 0)
(0.502003 -0.00147788 2.87294e-20)
(0.502109 -0.00140712 2.86088e-20)
(0.50221 -0.0013417 0)
(0.502308 -0.00128128 2.83598e-20)
(0.502403 -0.00122549 5.64663e-20)
(0.502494 -0.00117401 0)
(0.502582 -0.00112653 -2.79801e-20)
(0.502668 -0.00108273 -5.57023e-20)
(0.502751 -0.00104233 0)
(0.502832 -0.00100507 0)
(0.502911 -0.00097066 -5.49238e-20)
(0.502988 -0.000938867 -1.04487e-24)
(0.503063 -0.000909448 0)
(0.503137 -0.000882178 0)
(0.503209 -0.000856845 0)
(0.50328 -0.000833253 -2.67978e-20)
(0.50335 -0.000811222 0)
(0.503419 -0.000790586 0)
(0.503487 -0.000771198 5.27833e-20)
(0.503554 -0.000752924 2.62546e-20)
(0.503621 -0.000735648 2.61178e-20)
(0.503687 -0.000719268 0)
(0.503752 -0.000703695 0)
(0.503817 -0.000688851 -2.57017e-20)
(0.503882 -0.000674667 0)
(0.503946 -0.000661081 -2.54216e-20)
(0.50401 -0.000648036 0)
(0.504074 -0.000635472 -2.51407e-20)
(0.504138 -0.000623327 0)
(0.504203 -0.000611529 -4.97135e-20)
(0.504267 -0.000599995 -4.94287e-20)
(0.504331 -0.000588624 4.91432e-20)
(0.504395 -0.000577292 0)
(0.498585 -0.00575751 3.115e-20)
(0.498877 -0.00540214 0)
(0.499153 -0.00506921 0)
(0.499414 -0.00475744 -3.08462e-20)
(0.499662 -0.00446562 0)
(0.499896 -0.00419261 -3.06455e-20)
(0.500118 -0.00393731 -3.05391e-20)
(0.500328 -0.00369868 0)
(0.500526 -0.00347575 -3.03165e-20)
(0.500715 -0.00326759 0)
(0.500893 -0.0030733 0)
(0.501062 -0.00289207 2.9986e-20)
(0.501223 -0.0027231 0)
(0.501375 -0.00256566 0)
(0.50152 -0.00241905 0)
(0.501657 -0.00228262 -4.30095e-24)
(0.501788 -0.00215574 2.94193e-20)
(0.501913 -0.00203784 -2.93019e-20)
(0.502032 -0.00192835 -2.91835e-20)
(0.502145 -0.00182676 0)
(0.502254 -0.00173257 5.78848e-20)
(0.502358 -0.0016453 -2.88199e-20)
(0.502458 -0.00156452 -2.87006e-20)
(0.502553 -0.00148979 2.85752e-20)
(0.502645 -0.00142071 0)
(0.502734 -0.00135689 -2.83269e-20)
(0.50282 -0.00129798 -2.82033e-20)
(0.502902 -0.00124361 -2.8075e-20)
(0.502982 -0.00119346 0)
(0.50306 -0.00114721 2.78213e-20)
(0.503135 -0.00110454 0)
(0.503208 -0.00106518 0)
(0.50328 -0.00102884 5.48629e-20)
(0.503349 -0.000995256 -2.73007e-20)
(0.503418 -0.000964185 0)
(0.503484 -0.000935387 0)
(0.50355 -0.000908642 0)
(0.503614 -0.000883747 2.67682e-20)
(0.503677 -0.000860513 0)
(0.50374 -0.000838768 0)
(0.503801 -0.00081836 -2.63616e-20)
(0.503862 -0.00079915 -2.62247e-20)
(0.503922 -0.000781016 -5.21735e-20)
(0.503982 -0.000763853 5.18975e-20)
(0.504042 -0.000747565 -5.16204e-20)
(0.504101 -0.000732069 2.56716e-20)
(0.504159 -0.000717292 0)
(0.504218 -0.000703166 5.07834e-20)
(0.504276 -0.000689626 0)
(0.504335 -0.000676607 0)
(0.504393 -0.000664041 0)
(0.504451 -0.00065185 4.96522e-20)
(0.50451 -0.000639947 9.87337e-20)
(0.504569 -0.000628225 -4.90814e-20)
(0.504627 -0.000616557 -4.87942e-20)
(0.499634 -0.00604208 -3.12375e-20)
(0.499893 -0.00566957 0)
(0.500138 -0.00532053 0)
(0.500369 -0.00499363 3.09326e-20)
(0.500589 -0.0046876 0)
(0.500796 -0.00440126 0)
(0.500992 -0.00413347 3.06089e-20)
(0.501178 -0.00388315 0)
(0.501354 -0.00364928 3.04003e-20)
(0.50152 -0.00343089 3.0284e-20)
(0.501677 -0.00322706 0)
(0.501827 -0.00303692 -3.00679e-20)
(0.501968 -0.00285965 0)
(0.502102 -0.00269448 0)
(0.502229 -0.00254068 0)
(0.50235 -0.00239757 -5.92166e-20)
(0.502464 -0.00226449 -2.94895e-20)
(0.502573 -0.00214082 0)
(0.502677 -0.00202599 0)
(0.502776 -0.00191944 0)
(0.502871 -0.00182065 -3.12827e-24)
(0.502961 -0.00172913 5.77855e-20)
(0.503048 -0.0016444 -2.87687e-20)
(0.503131 -0.00156603 -2.86477e-20)
(0.50321 -0.00149357 -2.85207e-20)
(0.503287 -0.00142664 5.67928e-20)
(0.503361 -0.00136485 2.8269e-20)
(0.503432 -0.00130783 2.81436e-20)
(0.503501 -0.00125522 0)
(0.503567 -0.0012067 0)
(0.503632 -0.00116194 0)
(0.503695 -0.00112065 0)
(0.503756 -0.00108252 -5.4987e-20)
(0.503815 -0.00104729 -2.73607e-20)
(0.503874 -0.00101469 -2.72276e-20)
(0.503931 -0.000984485 0)
(0.503986 -0.000956436 0)
(0.504041 -0.000930335 0)
(0.504095 -0.000905988 0)
(0.504148 -0.000883216 0)
(0.504201 -0.000861862 0)
(0.504253 -0.000841783 0)
(0.504304 -0.000822854 5.22755e-20)
(0.504355 -0.000804962 -5.19968e-20)
(0.504406 -0.000788011 5.1717e-20)
(0.504456 -0.000771911 0)
(0.504506 -0.000756585 0)
(0.504556 -0.000741959 0)
(0.504606 -0.000727965 5.05855e-20)
(0.504656 -0.000714531 0)
(0.504706 -0.000701584 0)
(0.504757 -0.000689043 0)
(0.504807 -0.000676817 -4.94398e-20)
(0.504858 -0.000664796 0)
(0.504909 -0.000652851 9.77218e-20)
(0.500967 -0.0063022 0)
(0.501187 -0.00591408 3.02565e-20)
(0.501395 -0.00555037 -3.01679e-20)
(0.501592 -0.00520968 0)
(0.501777 -0.00489069 0)
(0.501953 -0.00459217 -2.98945e-20)
(0.502118 -0.00431295 -8.01413e-24)
(0.502275 -0.00405193 0)
(0.502422 -0.00380803 -2.96101e-20)
(0.502562 -0.00358025 -2.95198e-20)
(0.502693 -0.00336765 2.94149e-20)
(0.502818 -0.00316933 0)
(0.502935 -0.00298442 -2.92155e-20)
(0.503046 -0.00281214 0)
(0.503151 -0.00265172 -2.90118e-20)
(0.503251 -0.00250245 2.8913e-20)
(0.503345 -0.00236364 2.88081e-20)
(0.503434 -0.00223466 0)
(0.503519 -0.0021149 0)
(0.503599 -0.00200377 0)
(0.503675 -0.00190074 -2.83783e-20)
(0.503748 -0.00180528 -5.65336e-20)
(0.503817 -0.0017169 5.63118e-20)
(0.503883 -0.00163515 0)
(0.503947 -0.00155958 2.79323e-20)
(0.504007 -0.00148976 -5.56345e-20)
(0.504065 -0.0014253 -2.04558e-24)
(0.504121 -0.00136582 2.75858e-20)
(0.504175 -0.00131094 -2.74692e-20)
(0.504226 -0.00126031 2.73516e-20)
(0.504277 -0.00121362 0)
(0.504325 -0.00117053 0)
(0.504372 -0.00113075 2.69949e-20)
(0.504418 -0.00109399 2.68738e-20)
(0.504462 -0.00105997 2.67518e-20)
(0.504506 -0.00102846 0)
(0.504549 -0.000999198 0)
(0.50459 -0.000971979 0)
(0.504631 -0.0009466 0)
(0.504672 -0.000922877 0)
(0.504711 -0.000900648 0)
(0.504751 -0.000879766 5.17503e-20)
(0.50479 -0.000860101 -5.14942e-20)
(0.504828 -0.000841538 -5.12368e-20)
(0.504867 -0.000823975 5.0978e-20)
(0.504905 -0.000807321 0)
(0.504943 -0.000791493 0)
(0.504982 -0.000776413 0)
(0.50502 -0.000762008 -4.99313e-20)
(0.505059 -0.000748203 -4.96656e-20)
(0.505097 -0.000734921 0)
(0.505136 -0.000722078 4.91326e-20)
(0.505175 -0.00070958 0)
(0.505215 -0.000697316 0)
(0.505255 -0.000685157 -9.66515e-20)
(0.502573 -0.00652245 0)
(0.50275 -0.00612115 -3.13245e-20)
(0.502916 -0.005745 6.24241e-20)
(0.503073 -0.0053926 -3.10989e-20)
(0.50322 -0.00506259 -3.09894e-20)
(0.503359 -0.00475371 3.08871e-20)
(0.503489 -0.00446475 -3.07749e-20)
(0.503612 -0.00419457 0)
(0.503727 -0.00394209 7.11054e-24)
(0.503835 -0.00370628 3.04252e-20)
(0.503937 -0.00348616 -3.03156e-20)
(0.504032 -0.00328081 3.01925e-20)
(0.504121 -0.00308934 3.00803e-20)
(0.504205 -0.00291094 2.99559e-20)
(0.504284 -0.00274481 4.8753e-24)
(0.504358 -0.00259023 0)
(0.504427 -0.00244648 0)
(0.504492 -0.00231291 2.94713e-20)
(0.504553 -0.00218888 0)
(0.504611 -0.0020738 -2.92234e-20)
(0.504665 -0.00196709 2.9098e-20)
(0.504716 -0.00186823 2.89747e-20)
(0.504764 -0.0017767 -2.76106e-24)
(0.504809 -0.00169203 0)
(0.504852 -0.00161376 0)
(0.504892 -0.00154144 2.84602e-20)
(0.504931 -0.00147467 -2.02078e-24)
(0.504967 -0.00141306 -2.8198e-20)
(0.505002 -0.00135621 2.80657e-20)
(0.505035 -0.00130377 -2.79327e-20)
(0.505067 -0.0012554 0)
(0.505097 -0.00121077 0)
(0.505127 -0.00116956 0)
(0.505155 -0.00113149 0)
(0.505182 -0.00109626 0)
(0.505208 -0.00106363 0)
(0.505234 -0.00103335 0)
(0.505259 -0.00100518 0)
(0.505283 -0.000978937 0)
(0.505307 -0.00095442 0)
(0.505331 -0.000931464 -5.28455e-20)
(0.505354 -0.00090992 -5.25651e-20)
(0.505377 -0.000889654 1.04563e-19)
(0.5054 -0.000870549 1.03996e-19)
(0.505423 -0.000852498 -5.17135e-20)
(0.505446 -0.000835407 -5.14267e-20)
(0.505469 -0.00081919 0)
(0.505492 -0.000803766 0)
(0.505516 -0.000789057 0)
(0.505539 -0.000774987 1.0055e-19)
(0.505563 -0.000761475 0)
(0.505588 -0.000748435 -4.96949e-20)
(0.505612 -0.000735772 0)
(0.505638 -0.000723375 0)
(0.505664 -0.000711117 4.88188e-20)
(0.504444 -0.00628017 -3.19463e-20)