
961
(
(0.350048 -0.000194504 4.88377e-05)
(0.467831 -0.000412085 -2.3323e-05)
(0.663185 -0.000414932 -0.000472659)
(0.4699 -0.000187947 -0.000192842)
(0.532348 -0.00066343 -0.000193084)
(0.754643 -0.000644528 -0.000876162)
(0.573684 -0.000766448 -0.000339013)
(0.810743 -0.000719822 -0.00116861)
(0.601714 -0.000778663 -0.000422737)
(0.848833 -0.000728482 -0.00132956)
(0.620709 -0.000732704 -0.000448706)
(0.875283 -0.000696347 -0.00137709)
(0.633977 -0.000661523 -0.000440113)
(0.894142 -0.00064587 -0.00134954)
(0.643685 -0.000582458 -0.000415914)
(0.908106 -0.000586382 -0.00128364)
(0.651123 -0.000503548 -0.000387266)
(0.91887 -0.00052214 -0.00120496)
(0.65701 -0.000427433 -0.000359859)
(0.927412 -0.000454914 -0.0011282)
(0.661726 -0.000354127 -0.000336287)
(0.934266 -0.000385133 -0.00106071)
(0.665465 -0.000282676 -0.000317469)
(0.939705 -0.00031269 -0.00100553)
(0.668324 -0.00021204 -0.000303456)
(0.943866 -0.000237484 -0.000963408)
(0.670348 -0.000141483 -0.000293916)
(0.946814 -0.000159711 -0.000934043)
(0.67156 -7.07048e-05 -0.000288428)
(0.948578 -7.99762e-05 -0.00091681)
(0.671966 3.39838e-07 -0.000286677)
(0.94917 8.82912e-07 -0.000911188)
(0.671567 7.14294e-05 -0.000288545)
(0.948589 8.17814e-05 -0.000916973)
(0.670362 0.000142337 -0.000294138)
(0.946834 0.000161628 -0.000934341)
(0.668344 0.000213091 -0.000303759)
(0.943894 0.000239568 -0.000963787)
(0.665489 0.000283965 -0.000317816)
(0.939739 0.000314969 -0.00100591)
(0.661751 0.000355658 -0.000336633)
(0.934302 0.000387593 -0.00106101)
(0.657034 0.000429167 -0.000360152)
(0.927447 0.000457498 -0.00112832)
(0.651143 0.000505398 -0.000387452)
(0.918899 0.000524748 -0.00120481)
(0.643699 0.000584296 -0.000415953)
(0.908128 0.000588879 -0.00128317)
(0.633984 0.000663201 -0.000439988)
(0.894153 0.00064811 -0.00134876)
(0.620709 0.000734081 -0.000448442)
(0.875284 0.000698196 -0.00137609)
(0.601709 0.000779647 -0.000422408)
(0.848826 0.000729851 -0.00132852)
(0.573676 0.000767061 -0.000338722)
(0.810731 0.000720738 -0.00116774)
(0.53234 0.000663802 -0.000192919)
(0.75463 0.00064512 -0.000875615)
(0.467826 0.0004123 -2.33071e-05)
(0.663174 0.000415275 -0.000472492)
(0.350045 0.000194619 4.87927e-05)
(0.469894 0.000188115 -0.00019286)
(0.74619 -0.00015266 -0.00145327)
(0.526148 -6.4964e-05 -0.000787262)
(0.852382 -0.000209845 -0.00218087)
(0.914435 -0.000199745 -0.00262659)
(0.955462 -0.000212725 -0.00284104)
(0.984137 -0.000239567 -0.00288672)
(1.00508 -0.000267981 -0.00282446)
(1.02101 -0.000287216 -0.00270571)
(1.03356 -0.000292371 -0.00256725)
(1.04367 -0.000282503 -0.00243166)
(1.05185 -0.000258541 -0.00231113)
(1.05837 -0.000222202 -0.0022113)
(1.06337 -0.000175581 -0.00213411)
(1.06692 -0.000121023 -0.00207969)
(1.06905 -6.10708e-05 -0.00204746)
(1.06976 1.63125e-06 -0.00203684)
(1.06906 6.43363e-05 -0.0020476)
(1.06695 0.000124294 -0.00207994)
(1.06341 0.000178851 -0.00213437)
(1.05841 0.000225447 -0.00221145)
(1.05189 0.000261719 -0.00231104)
(1.04372 0.000285554 -0.0024312)
(1.0336 0.000295218 -0.00256631)
(1.02104 0.000289784 -0.00270426)
(1.0051 0.000270205 -0.00282257)
(0.984146 0.000241399 -0.0028846)
(0.955458 0.000214137 -0.00283894)
(0.91442 0.000200771 -0.0026248)
(0.852363 0.000210567 -0.00217964)
(0.746174 0.00015309 -0.00145274)
(0.526138 6.51718e-05 -0.000787144)
(0.788093 6.41502e-05 -0.00253992)
(0.553555 3.8628e-05 -0.00150644)
(0.905095 0.000121537 -0.00348947)
(0.973338 0.000160463 -0.00399628)
(1.01709 0.000122764 -0.00418583)
(1.047 4.59608e-05 -0.004182)
(1.06897 -3.7158e-05 -0.00407364)
(1.08607 -0.000107841 -0.00391638)
(1.09988 -0.000157947 -0.00374485)
(1.11119 -0.000185217 -0.0035801)
(1.12045 -0.00019052 -0.00343401)
(1.12789 -0.000176376 -0.00331254)
(1.13362 -0.000146145 -0.00321807)
(1.13769 -0.000103612 -0.00315106)
(1.14013 -5.27976e-05 -0.00311117)
(1.14095 2.17833e-06 -0.00309796)
(1.14015 5.71256e-05 -0.00311122)
(1.13772 0.000107853 -0.00315111)
(1.13366 0.000150239 -0.00321802)
(1.12794 0.000180259 -0.00331226)
(1.12051 0.000194125 -0.00343334)
(1.11125 0.000188479 -0.00357892)
(1.09993 0.000160811 -0.00374309)
(1.08612 0.00011027 -0.00391405)
(1.06901 3.91416e-05 -0.00407087)
(1.04702 -4.44141e-05 -0.00417901)
(1.0171 -0.000121625 -0.00418291)
(0.973327 -0.00015965 -0.00399372)
(0.905079 -0.000120952 -0.00348761)
(0.788082 -6.37911e-05 -0.00253902)
(0.553551 -3.8451e-05 -0.00150615)
(0.816564 0.000168022 -0.0034783)
(0.572915 8.16967e-05 -0.00216184)
(0.939976 0.000273811 -0.00454879)
(1.01314 0.00030109 -0.00507054)
(1.06021 0.000234859 -0.00522173)
(1.09225 0.000126261 -0.00516639)
(1.1158 1.6112e-05 -0.00501423)
(1.13428 -7.64034e-05 -0.00482466)
(1.14933 -0.000143714 -0.00462968)
(1.16179 -0.000183715 -0.00444722)
(1.17204 -0.000197332 -0.00428716)
(1.18031 -0.000187353 -0.00415448)
(1.1867 -0.00015767 -0.00405123)
(1.19125 -0.000112815 -0.00397783)
(1.19399 -5.76996e-05 -0.00393404)
(1.1949 2.57725e-06 -0.00391946)
(1.194 6.28008e-05 -0.00393395)
(1.19128 0.000117758 -0.0039776)
(1.18675 0.000162351 -0.00405075)
(1.18037 0.000191675 -0.00415363)
(1.1721 0.000201207 -0.0042858)
(1.16185 0.000187071 -0.00444526)
(1.1494 0.0001465 -0.00462707)
(1.13434 7.86003e-05 -0.00482146)
(1.11585 -1.44873e-05 -0.00501062)
(1.09229 -0.000125162 -0.0051626)
(1.06023 -0.000234203 -0.00521807)
(1.01315 -0.000300727 -0.00506735)
(0.939977 -0.000273584 -0.0045465)
(0.816575 -0.000167881 -0.00347726)
(0.572929 -8.16258e-05 -0.00216156)
(0.839197 0.000211619 -0.0041104)
(0.588684 9.62482e-05 -0.00262274)
(0.966967 0.0003294 -0.00522302)
(1.0441 0.00032852 -0.00574154)
(1.09465 0.000231627 -0.00587408)
(1.12943 9.60629e-05 -0.00579523)
(1.15511 -3.3307e-05 -0.00562196)
(1.17531 -0.000137793 -0.00541644)
(1.1918 -0.000211034 -0.00521034)
(1.20548 -0.00025178 -0.00502022)
(1.21676 -0.000261604 -0.00485475)
(1.22588 -0.000243877 -0.00471813)
(1.23292 -0.000203113 -0.00461199)
(1.23794 -0.000144559 -0.00453656)
(1.24095 -7.39385e-05 -0.00449152)
(1.24196 2.7639e-06 -0.00447647)
(1.24096 7.93954e-05 -0.00449127)
(1.23796 0.000149807 -0.00453601)
(1.23295 0.00020802 -0.00461105)
(1.22592 0.000248324 -0.00471668)
(1.21682 0.00026549 -0.00485268)
(1.20554 0.000255031 -0.00501745)
(1.19187 0.000213605 -0.00520689)
(1.17537 0.000139681 -0.0054124)
(1.15517 3.45501e-05 -0.00561754)
(1.12948 -9.53848e-05 -0.00579072)
(1.09468 -0.000231389 -0.00586981)
(1.04412 -0.000328529 -0.00573794)
(0.966999 -0.00032946 -0.0052206)
(0.839241 -0.000211652 -0.00410951)
(0.588723 -9.62624e-05 -0.00262268)
(0.857405 0.000230014 -0.00445251)
(0.601419 9.98496e-05 -0.00289341)
(0.988635 0.00034765 -0.00554326)
(1.06918 0.000318331 -0.00603866)
(1.12311 0.000192258 -0.00616027)
(1.16084 3.02076e-05 -0.00607679)
(1.18894 -0.000119139 -0.00590147)
(1.21113 -0.000236089 -0.00569563)
(1.22928 -0.0003144 -0.00549047)
(1.24433 -0.000353443 -0.00530202)
(1.25675 -0.000355655 -0.00513847)
(1.26676 -0.000325314 -0.00500367)
(1.2745 -0.000267862 -0.00489904)
(1.28001 -0.000189509 -0.00482472)
(1.28331 -9.69874e-05 -0.00478031)
(1.28441 2.68374e-06 -0.00476542)
(1.28331 0.000102275 -0.00477989)
(1.28002 0.000194563 -0.00482384)
(1.27452 0.00027254 -0.00489763)
(1.26679 0.000329495 -0.00500164)
(1.25678 0.000359243 -0.00513573)
(1.24438 0.000356374 -0.00529854)
(1.22934 0.000316647 -0.00548631)
(1.21119 0.000237667 -0.00569092)
(1.18901 0.000120109 -0.00589645)
(1.1609 -2.97468e-05 -0.0060718)
(1.12317 -0.000192169 -0.00615569)
(1.06924 -0.000318428 -0.00603496)
(0.988704 -0.000347753 -0.00554094)
(0.857487 -0.000230064 -0.00445188)
(0.601485 -9.98713e-05 -0.00289361)
(0.871588 0.00023564 -0.00453255)
(0.611323 9.89388e-05 -0.00298667)
(1.0056 0.000347254 -0.00555354)
(1.08906 0.000292341 -0.00600735)
(1.14607 0.000140458 -0.00611652)
(1.18668 -4.6075e-05 -0.00603658)
(1.21731 -0.000215464 -0.00587092)
(1.24165 -0.000345913 -0.00567633)
(1.26161 -0.000430187 -0.00548213)
(1.27817 -0.000467756 -0.00530356)
(1.29181 -0.000461736 -0.00514845)
(1.3028 -0.000417353 -0.00502052)
(1.31127 -0.000341137 -0.00492117)
(1.31729 -0.000240455 -0.00485055)
(1.32088 -0.000123222 -0.00480832)
(1.32208 2.36708e-06 -0.0047941)
(1.32088 0.000127878 -0.00480775)
(1.31728 0.000244884 -0.00484939)
(1.31126 0.000345208 -0.00491936)
(1.3028 0.000420962 -0.00501801)
(1.29182 0.000464808 -0.00514521)
(1.27819 0.000470254 -0.0052996)
(1.26165 0.000432105 -0.00547754)
(1.24171 0.00034728 -0.00567129)
(1.21739 0.000216343 -0.00586569)
(1.18677 4.65578e-05 -0.00603151)
(1.14615 -0.00014026 -0.00611198)
(1.08915 -0.000292287 -0.00600379)
(1.00571 -0.000347217 -0.0055514)
(0.871702 -0.000235598 -0.00453209)
(0.611413 -9.89166e-05 -0.00298698)
(0.882207 0.000232343 -0.00439396)
(0.618729 9.49898e-05 -0.00292874)
(1.01834 0.000333752 -0.00531067)
(1.1041 0.000255601 -0.00570698)
(1.16368 8.13111e-05 -0.00579688)
(1.20687 -0.000126646 -0.0057202)
(1.23989 -0.000314376 -0.00556791)
(1.26636 -0.000457715 -0.00538995)
(1.28817 -0.000547959 -0.00521236)
(1.3063 -0.000584245 -0.00504889)
(1.32124 -0.000570058 -0.00490669)
(1.33324 -0.000511455 -0.00478924)
(1.34245 -0.000416085 -0.0046979)
(1.34896 -0.000292573 -0.00463289)
(1.35285 -0.0001501 -0.00459395)
(1.35413 1.9341e-06 -0.0045808)
(1.35283 0.0001539 -0.0045933)
(1.34893 0.000296177 -0.00463157)
(1.34241 0.00041939 -0.00469589)
(1.3332 0.000514387 -0.00478653)
(1.32122 0.000572576 -0.00490329)
(1.30631 0.000586334 -0.00504485)
(1.28821 0.000549625 -0.0052078)
(1.26642 0.000458984 -0.00538505)
(1.23998 0.000315291 -0.00556292)
(1.20697 0.000127266 -0.00571543)
(1.16379 -8.09187e-05 -0.00579266)
(1.10422 -0.000255347 -0.00570368)
(1.01848 -0.000333548 -0.00530867)
(0.882345 -0.000232201 -0.00439346)
(0.618836 -9.49222e-05 -0.00292896)
(0.889874 0.000221482 -0.00407465)
(0.62408 8.83058e-05 -0.00274212)
(1.02752 0.000308938 -0.00486644)
(1.11492 0.000208882 -0.00519617)
(1.17641 1.49473e-05 -0.00526141)
(1.22165 -0.000211075 -0.00518521)
(1.25669 -0.00041417 -0.00504567)
(1.28506 -0.000568219 -0.00488519)
(1.3086 -0.000663196 -0.00472595)
(1.32823 -0.000697681 -0.00457968)
(1.34442 -0.000675238 -0.00445254)
(1.35741 -0.000602576 -0.00434756)
(1.36734 -0.000488426 -0.0042659)
(1.37432 -0.000342702 -0.00420777)
(1.37847 -0.000175873 -0.00417293)
(1.37983 1.5532e-06 -0.00416113)
(1.37843 0.000178922 -0.00417229)
(1.37427 0.000345593 -0.00420648)
(1.36727 0.000491083 -0.00426398)
(1.35735 0.000604958 -0.00434501)
(1.34439 0.000677329 -0.00444941)
(1.32823 0.00069948 -0.00457602)
(1.30863 0.000664704 -0.00472188)
(1.28513 0.000569441 -0.00488086)
(1.25679 0.000415117 -0.00504128)
(1.22177 0.000211774 -0.00518101)
(1.17655 -1.44593e-05 -0.00525767)
(1.11506 -0.000208539 -0.00519319)
(1.02767 -0.000308662 -0.00486453)
(0.890027 -0.000221298 -0.00407401)
(0.624197 -8.82236e-05 -0.00274214)
(0.895235 0.000205353 -0.00360723)
(0.62783 7.9757e-05 -0.00244672)
(1.03389 0.000276218 -0.00426494)
(1.12234 0.000155238 -0.00452675)
(1.1851 -5.61835e-05 -0.00456702)
(1.23176 -0.000297174 -0.00449092)
(1.2683 -0.000512305 -0.00436378)
(1.29814 -0.000674222 -0.0042207)
(1.32308 -0.000772028 -0.00408)
(1.344 -0.0008038 -0.00395138)
(1.3613 -0.000773027 -0.00383998)
(1.37517 -0.00068687 -0.00374826)
(1.38575 -0.000555004 -0.00367715)
(1.39316 -0.00038858 -0.00362668)
(1.39753 -0.000199299 -0.0035965)
(1.39896 1.36547e-06 -0.0035863)
(1.39749 0.000201977 -0.00359597)
(1.39309 0.000391117 -0.00362563)
(1.38566 0.000557342 -0.00367559)
(1.37509 0.000688986 -0.00374621)
(1.36125 0.000774916 -0.00383746)
(1.344 0.000805459 -0.00394845)
(1.32313 0.000773444 -0.00407672)
(1.29823 0.000675377 -0.00421719)
(1.26842 0.000513194 -0.00436018)
(1.23191 0.000297811 -0.00448743)
(1.18526 5.66051e-05 -0.00456385)
(1.1225 -0.000154958 -0.00452415)
(1.03405 -0.000275984 -0.00426316)
(0.895396 -0.000205194 -0.00360648)
(0.627952 -7.96912e-05 -0.00244655)
(0.898872 0.000187342 -0.00302043)
(0.630382 7.07757e-05 -0.00206128)
(1.03816 0.000241142 -0.00354238)
(1.12723 0.000100965 -0.0037405)
(1.19073 -0.000125918 -0.00376039)
(1.23828 -0.000379231 -0.00368807)
(1.27577 -0.000603434 -0.00357606)
(1.3066 -0.0007706 -0.00345243)
(1.33253 -0.000869435 -0.00333185)
(1.35438 -0.000897744 -0.00322212)
(1.37251 -0.000858973 -0.00312742)
(1.38708 -0.000760591 -0.00304977)
(1.3982 -0.000612992 -0.00298988)
(1.40596 -0.000428359 -0.00294761)
(1.41053 -0.000219462 -0.00292247)
(1.41202 1.41402e-06 -0.00291403)
(1.41048 0.000222232 -0.00292212)
(1.40588 0.000430973 -0.0029469)
(1.39811 0.000615391 -0.00298881)
(1.38701 0.000762751 -0.00304835)
(1.37247 0.000860886 -0.00312564)
(1.35438 0.000899397 -0.00322)
(1.33258 0.000870805 -0.00332943)
(1.30671 0.000771664 -0.00344978)
(1.27591 0.00060419 -0.00357329)
(1.23844 0.000379707 -0.00368533)
(1.1909 0.000126173 -0.00375785)
(1.1274 -0.000100832 -0.00373834)
(1.03833 -0.000241012 -0.00354084)
(0.899036 -0.00018724 -0.00301967)
(0.630505 -7.07406e-05 -0.00206102)
(0.901258 0.000170711 -0.00234193)
(0.632062 6.27499e-05 -0.00160548)
(1.04093 0.000209271 -0.00272992)
(1.13033 5.28549e-05 -0.00287078)
(1.19423 -0.000187003 -0.00287718)
(1.24226 -0.000450145 -0.00281476)
(1.28029 -0.00068099 -0.00272315)
(1.3117 -0.000851443 -0.00262351)
(1.3382 -0.000950112 -0.00252686)
(1.36063 -0.000974764 -0.00243914)
(1.3793 -0.000928921 -0.00236358)
(1.39434 -0.000820311 -0.00230179)
(1.40583 -0.000659837 -0.00225433)
(1.41386 -0.000460416 -0.00222101)
(1.41858 -0.000235621 -0.00220132)
(1.42012 1.63084e-06 -0.00219475)
(1.41853 0.000238811 -0.00220112)
(1.41378 0.000463412 -0.00222061)
(1.40574 0.00066256 -0.0022537)
(1.39427 0.000822725 -0.00230093)
(1.37927 0.000931008 -0.00236245)
(1.36064 0.000976504 -0.00243774)
(1.33827 0.000951483 -0.00252521)
(1.31181 0.000852431 -0.00262166)
(1.28045 0.000681612 -0.00272118)
(1.24243 0.000450454 -0.00281277)
(1.19441 0.000187085 -0.0028753)
(1.13051 -5.28726e-05 -0.00286917)
(1.0411 -0.000209247 -0.00272873)
(0.901421 -0.000170668 -0.00234129)
(0.632184 -6.27442e-05 -0.00160522)
(0.902742 0.000157799 -0.00159571)
(0.633112 5.66125e-05 -0.00109697)
(1.04264 0.00018465 -0.00185282)
(1.1322 1.59888e-05 -0.00194287)
(1.19629 -0.000233675 -0.00194267)
(1.24456 -0.000504046 -0.00189664)
(1.28287 -0.000739501 -0.0018314)
(1.31456 -0.000911925 -0.00176112)
(1.34137 -0.00100996 -0.00169321)
(1.36409 -0.00103144 -0.00163166)
(1.38305 -0.000980055 -0.00157869)
(1.39836 -0.000863767 -0.00153543)
(1.41006 -0.000693833 -0.00150225)
(1.41826 -0.000483641 -0.00147904)
(1.42307 -0.000247281 -0.00146538)
(1.42464 1.8935e-06 -0.00146084)
(1.42303 0.00025098 -0.00146528)
(1.41818 0.000487101 -0.00147885)
(1.40998 0.000696953 -0.00150193)
(1.3983 0.000866493 -0.00153496)
(1.38303 0.00098236 -0.00157806)
(1.36412 0.0010333 -0.00163085)
(1.34145 0.00101136 -0.00169223)
(1.31469 0.000912874 -0.00176)
(1.28303 0.000740031 -0.00183018)
(1.24474 0.000504234 -0.0018954)
(1.19647 0.000233631 -0.00194149)
(1.13238 -1.6118e-05 -0.00194185)
(1.04281 -0.000184705 -0.00185206)
(0.902904 -0.0001578 -0.0015953)
(0.633232 -5.66281e-05 -0.0010968)
(0.903553 0.000150191 -0.000808286)
(0.633687 5.31689e-05 -0.000556441)
(1.04356 0.0001696 -0.000936467)
(1.1332 -6.93947e-06 -0.000980091)
(1.19737 -0.00026296 -0.000978249)
(1.24574 -0.000537918 -0.000953499)
(1.28417 -0.000776163 -0.000919282)
(1.31599 -0.000949625 -0.000882714)
(1.34292 -0.00104702 -0.000847495)
(1.36578 -0.00106632 -0.000815628)
(1.38487 -0.00101134 -0.000788223)
(1.4003 -0.000890231 -0.000765853)
(1.41211 -0.000714472 -0.000748718)
(1.42038 -0.000497712 -0.000736744)
(1.42524 -0.000254322 -0.000729704)
(1.42683 2.09518e-06 -0.000727375)
(1.4252 0.000258412 -0.000729665)
(1.42031 0.000501528 -0.00073666)
(1.41203 0.000717896 -0.000748578)
(1.40024 0.000893199 -0.000765647)
(1.38485 0.00101382 -0.000787941)
(1.36581 0.00106829 -0.000815267)
(1.34301 0.00104847 -0.00084706)
(1.31612 0.000950561 -0.00088222)
(1.28433 0.000776645 -0.000918755)
(1.24592 0.000538038 -0.000952972)
(1.19755 0.000262842 -0.000977759)
(1.13338 6.74612e-06 -0.000979679)
(1.04373 -0.0001697 -0.000936178)
(0.903713 -0.000150216 -0.000808153)
(0.633806 -5.31956e-05 -0.000556403)
(0.90381 0.000147891 2.24102e-06)
(0.633869 5.22462e-05 1.49392e-06)
(1.04385 0.000164663 2.74153e-06)
(1.13351 -1.47206e-05 3.03955e-06)
(1.19771 -0.000273046 3.23073e-06)
(1.24611 -0.000549629 3.3682e-06)
(1.28457 -0.000788819 3.48297e-06)
(1.31642 -0.00096259 3.5878e-06)
(1.34339 -0.00105971 3.68448e-06)
(1.36628 -0.0010782 3.7701e-06)
(1.38541 -0.00102195 3.84118e-06)
(1.40087 -0.000899172 3.89591e-06)
(1.41271 -0.000721424 3.93497e-06)
(1.421 -0.00050244 3.96107e-06)
(1.42588 -0.000256679 3.97766e-06)
(1.42748 2.17848e-06 3.98716e-06)
(1.42584 0.000260931 3.98962e-06)
(1.42094 0.000506404 3.98211e-06)
(1.41264 0.000724976 3.95943e-06)
(1.40082 0.00090224 3.91571e-06)
(1.3854 0.0010245 3.84665e-06)
(1.36632 0.00108021 3.75123e-06)
(1.34348 0.00106117 3.63243e-06)
(1.31655 0.000963525 3.49654e-06)
(1.28473 0.000789286 3.35078e-06)
(1.24629 0.000549726 3.1986e-06)
(1.19789 0.000272904 3.03265e-06)
(1.13369 1.45062e-05 2.82693e-06)
(1.04402 -0.000164777 2.53326e-06)
(0.903968 -0.000147922 2.06322e-06)
(0.633987 -5.22756e-05 1.37369e-06)
(0.903547 0.000150247 0.000812686)
(0.633682 5.31892e-05 0.000559369)
(1.04355 0.000169724 0.000941864)
(1.1332 -6.7438e-06 0.000986087)
(1.19737 -0.000262705 0.000984635)
(1.24574 -0.000537624 0.000960169)
(1.28417 -0.000775848 0.000926191)
(1.31599 -0.000949308 0.000889842)
(1.34293 -0.00104672 0.000854825)
(1.36579 -0.00106604 0.000823137)
(1.38488 -0.0010111 0.000795879)
(1.4003 -0.000890026 0.000773621)
(1.41211 -0.000714308 0.000756564)
(1.42038 -0.00049759 0.000744642)
(1.42525 -0.000254243 0.000737635)
(1.42684 2.13031e-06 0.000735325)
(1.42521 0.000258402 0.000737622)
(1.42031 0.00050147 0.000744604)
(1.41204 0.000717789 0.000756479)
(1.40025 0.00089304 0.000773461)
(1.38486 0.00101361 0.000795616)
(1.36582 0.00106803 0.000822746)
(1.34302 0.00104818 0.000854294)
(1.31612 0.00095025 0.000889173)
(1.28433 0.00077633 0.000925406)
(1.24592 0.00053774 0.000959308)
(1.19755 0.000262583 0.000983754)
(1.13337 6.54694e-06 0.000985255)
(1.04372 -0.000169826 0.000941162)
(0.903704 -0.000150272 0.0008122)
(0.6338 -5.32149e-05 0.000559092)
(0.902729 0.000157923 0.00159987)
(0.633101 5.66597e-05 0.00109972)
(1.04262 0.000184913 0.00185797)
(1.13219 1.63958e-05 0.00194864)
(1.19629 -0.000233155 0.00194885)
(1.24456 -0.000503454 0.00190313)
(1.28287 -0.000738875 0.00183815)
(1.31457 -0.0009113 0.00176812)
(1.34138 -0.00100936 0.00170043)
(1.3641 -0.0010309 0.00163908)
(1.38306 -0.000979578 0.00158627)
(1.39837 -0.000863365 0.00154311)
(1.41007 -0.00069351 0.00151002)
(1.41826 -0.000483398 0.00148686)
(1.42307 -0.00024712 0.00147322)
(1.42465 1.96866e-06 0.00146871)
(1.42303 0.000250966 0.00147316)
(1.41819 0.000486995 0.00148672)
(1.40999 0.000696751 0.00150977)
(1.39831 0.000866193 0.00154272)
(1.38304 0.000981962 0.00158568)
(1.36413 0.00103281 0.00163827)
(1.34146 0.0010108 0.00169938)
(1.3147 0.000912261 0.00176684)
(1.28303 0.000739404 0.0018367)
(1.24474 0.000503632 0.00190157)
(1.19647 0.000233098 0.0019473)
(1.13237 -1.65353e-05 0.00194721)
(1.04279 -0.000184974 0.00185681)
(0.902886 -0.000157924 0.00159911)
(0.633219 -5.66737e-05 0.00109931)
(0.901237 0.000170904 0.00234568)
(0.632046 6.28252e-05 0.00160791)
(1.04091 0.000209677 0.00273468)
(1.13032 5.34749e-05 0.0028762)
(1.19423 -0.000186221 0.00288304)
(1.24226 -0.000449267 0.00282097)
(1.28031 -0.000680074 0.00272966)
(1.31172 -0.000850538 0.00263029)
(1.33823 -0.000949256 0.00253388)
(1.36065 -0.000973984 0.00244637)
(1.37932 -0.000928235 0.00237098)
(1.39436 -0.000819727 0.00230931)
(1.40584 -0.000659359 0.00226191)
(1.41386 -0.00046005 0.00222864)
(1.41858 -0.000235373 0.00220897)
(1.42011 1.75345e-06 0.00220243)
(1.41853 0.000238803 0.00220882)
(1.41379 0.000463269 0.00222832)
(1.40576 0.000662281 0.00226139)
(1.39429 0.000822307 0.00230855)
(1.37929 0.00093045 0.00236994)
(1.36067 0.000975813 0.00244502)
(1.3383 0.000950677 0.00253222)
(1.31184 0.000851544 0.00262834)
(1.28046 0.000680691 0.0027275)
(1.24244 0.000449556 0.00281871)
(1.19441 0.000186279 0.00288083)
(1.13049 -5.35132e-05 0.0028742)
(1.04108 -0.000209666 0.0027331)
(0.901395 -0.000170865 0.0023447)
(0.632163 -6.28182e-05 0.00160741)
(0.898845 0.00018759 0.00302361)
(0.630361 7.08718e-05 0.00206327)
(1.03814 0.000241667 0.0035466)
(1.12722 0.000101763 0.00374543)
(1.19074 -0.000124922 0.00376584)
(1.23829 -0.000378126 0.0036939)
(1.27579 -0.000602294 0.00358222)
(1.30663 -0.000769483 0.00345889)
(1.33256 -0.000868384 0.00333857)
(1.35441 -0.000896785 0.00322905)
(1.37254 -0.000858121 0.00313449)
(1.3871 -0.000759852 0.00305694)
(1.3982 -0.000612374 0.00299709)
(1.40596 -0.000427874 0.00295484)
(1.41051 -0.000219125 0.00292972)
(1.412 1.58965e-06 0.0029213)
(1.41047 0.000222239 0.00292942)
(1.40588 0.000430809 0.00295424)
(1.39811 0.000615058 0.00299617)
(1.38703 0.000762251 0.00305568)
(1.3725 0.000860219 0.00313287)
(1.35442 0.000898566 0.00322704)
(1.33262 0.000869827 0.0033362)
(1.30674 0.000770573 0.00345621)
(1.27594 0.000603039 0.00357933)
(1.23845 0.000378569 0.00369095)
(1.1909 0.000125138 0.00376301)
(1.12739 -0.000101662 0.00374294)
(1.0383 -0.000241557 0.00354469)
(0.899001 -0.000187496 0.00302251)
(0.630477 -7.08358e-05 0.00206277)
(0.895203 0.000205624 0.00360974)
(0.627805 7.9858e-05 0.00244819)
(1.03386 0.000276805 0.00426852)
(1.12233 0.000156138 0.00453112)
(1.18511 -5.50676e-05 0.00457196)
(1.23179 -0.000295949 0.00449629)
(1.26833 -0.000511052 0.0043695)
(1.29819 -0.000673001 0.00422671)
(1.32313 -0.000770876 0.00408624)
(1.34404 -0.000802736 0.0039578)
(1.36133 -0.000772063 0.00384649)
(1.37518 -0.000686014 0.00375481)
(1.38574 -0.00055427 0.00368368)
(1.39314 -0.000387992 0.00363318)
(1.3975 -0.000198881 0.00360299)
(1.39893 1.59166e-06 0.00359281)
(1.39746 0.000202003 0.00360253)
(1.39307 0.000390944 0.00363227)
(1.38566 0.000556979 0.00368231)
(1.37511 0.000688442 0.00375297)
(1.36129 0.000774195 0.0038442)
(1.34405 0.000804565 0.00395506)
(1.32318 0.00077239 0.00408311)
(1.29828 0.000674192 0.00422326)
(1.26846 0.00051193 0.00436587)
(1.23194 0.000296545 0.00449268)
(1.18527 5.54409e-05 0.00456858)
(1.12249 -0.000155897 0.00452824)
(1.03402 -0.000276595 0.00426642)
(0.895355 -0.000205473 0.00360866)
(0.627919 -7.97906e-05 0.00244779)
(0.889842 0.000221731 0.00407644)
(0.624053 8.83899e-05 0.00274304)
(1.0275 0.000309511 0.00486935)
(1.11491 0.000209782 0.00519993)
(1.17643 1.60715e-05 0.00526578)
(1.22169 -0.000209841 0.00519002)
(1.25675 -0.000412906 0.00505081)
(1.28512 -0.000566976 0.00489058)
(1.30866 -0.000662003 0.00473149)
(1.32829 -0.000696555 0.0045853)
(1.34446 -0.000674192 0.00445818)
(1.35743 -0.000601628 0.00435313)
(1.36733 -0.000487602 0.00427139)
(1.3743 -0.000342036 0.00421318)
(1.37843 -0.000175397 0.00417829)
(1.37979 1.81352e-06 0.00416651)
(1.3784 0.000178957 0.00417773)
(1.37425 0.000345406 0.00421205)
(1.36727 0.00049069 0.00426969)
(1.35737 0.000604376 0.00435086)
(1.34443 0.000676574 0.00445534)
(1.32829 0.000698563 0.00458194)
(1.3087 0.00066364 0.00472768)
(1.2852 0.000568254 0.00488643)
(1.25686 0.000413854 0.00504652)
(1.22182 0.000210506 0.00518582)
(1.17657 -1.56274e-05 0.00526194)
(1.11506 -0.000209475 0.00519675)
(1.02765 -0.000309254 0.00486717)
(0.889985 -0.00022155 0.00407552)
(0.624162 -8.83026e-05 0.00274284)
(0.882179 0.000232536 0.0043951)
(0.618704 9.5039e-05 0.00292917)
(1.01833 0.000334255 0.00531292)
(1.10411 0.000256436 0.00571012)
(1.16372 8.23838e-05 0.00580064)
(1.20693 -0.000125446 0.00572437)
(1.23997 -0.000313122 0.00557232)
(1.26644 -0.000456449 0.00539451)
(1.28825 -0.00054671 0.00521698)
(1.30637 -0.000583037 0.00505349)
(1.32129 -0.000568917 0.00491121)
(1.33327 -0.000510412 0.00479364)
(1.34247 -0.000415182 0.00470217)
(1.34896 -0.000291849 0.00463705)
(1.35283 -0.000149594 0.00459805)
(1.35412 2.19627e-06 0.0045849)
(1.35282 0.000153908 0.00459748)
(1.34894 0.000295938 0.00463589)
(1.34243 0.000418923 0.00470039)
(1.33325 0.000513719 0.00479123)
(1.32129 0.000571737 0.00490815)
(1.30639 0.000585351 0.00504982)
(1.2883 0.000548525 0.00521278)
(1.26652 0.000457797 0.00538992)
(1.24007 0.000314061 0.00556758)
(1.20704 0.000126057 0.00571974)
(1.16383 -8.20112e-05 0.00579646)
(1.10423 -0.000256193 0.00570674)
(1.01846 -0.000334051 0.00531074)
(0.882307 -0.000232383 0.00439438)
(0.618802 -9.49583e-05 0.0029292)
(0.871566 0.000235765 0.00453316)
(0.611302 9.89462e-05 0.00298672)
(1.0056 0.000347675 0.00555519)
(1.08908 0.000293105 0.00600986)
(1.14612 0.000141488 0.0061196)
(1.18676 -4.48813e-05 0.00603999)
(1.21741 -0.000214175 0.00587447)
(1.24175 -0.000344573 0.00567993)
(1.26171 -0.000428835 0.0054857)
(1.27826 -0.000466429 0.00530704)
(1.2919 -0.000460479 0.00515181)
(1.30288 -0.000416215 0.00502376)
(1.31133 -0.000340166 0.00492429)
(1.31733 -0.0002397 0.00485358)
(1.32092 -0.000122722 0.00481129)
(1.32211 2.58699e-06 0.00479709)
(1.32092 0.000127808 0.00481081)
(1.31733 0.000244534 0.00485257)
(1.31133 0.000344602 0.00492271)
(1.30289 0.000420136 0.00502155)
(1.29192 0.000463806 0.00514893)
(1.2783 0.00046912 0.00530348)
(1.26177 0.000430886 0.00548153)
(1.24183 0.000346022 0.0056753)
(1.2175 0.000215097 0.00586962)
(1.18686 4.5384e-05 0.00603522)
(1.14621 -0.000141274 0.00611527)
(1.08917 -0.000293025 0.00600639)
(1.00569 -0.000347605 0.00555302)
(0.87167 -0.000235691 0.00453259)
(0.611383 -9.88984e-05 0.00298691)
(0.857391 0.000230068 0.00445271)
(0.601403 9.98137e-05 0.0028932)
(0.98864 0.000347982 0.00554438)
(1.06922 0.000319014 0.00604054)
(1.12318 0.000193237 0.00616264)
(1.16093 3.13904e-05 0.00607938)
(1.18906 -0.000117824 0.00590411)
(1.21125 -0.000234692 0.00569824)
(1.22941 -0.000312972 0.005493)
(1.24446 -0.000352039 0.00530445)
(1.25687 -0.000354332 0.0051408)
(1.26688 -0.000324133 0.00500592)
(1.27461 -0.000266879 0.00490121)
(1.28011 -0.000188777 0.00482684)
(1.2834 -9.65441e-05 0.00478241)
(1.2845 2.813e-06 0.00476754)
(1.28341 0.000102084 0.00478206)
(1.28012 0.000194062 0.00482609)
(1.27463 0.000271759 0.0049)
(1.26692 0.000328479 0.00500415)
(1.25692 0.000358046 0.0051384)
(1.24452 0.000355059 0.00530137)
(1.22948 0.000315278 0.00548928)
(1.21134 0.000236308 0.005694)
(1.18914 0.00011882 0.00589957)
(1.16101 -3.09018e-05 0.00607484)
(1.12324 -0.000193107 0.00615846)
(1.06927 -0.000319049 0.00603714)
(0.988702 -0.000348019 0.00554223)
(0.857462 -0.000230062 0.00445215)
(0.601461 -9.97965e-05 0.00289341)
(0.839185 0.000211559 0.00411034)
(0.58867 9.61496e-05 0.0026224)
(0.966975 0.000329562 0.00522371)
(1.04413 0.000329009 0.00574285)
(1.09472 0.000232421 0.00587576)
(1.12953 9.70856e-05 0.00579704)
(1.15523 -3.21225e-05 0.00562375)
(1.17544 -0.000136501 0.00541815)
(1.19194 -0.000209691 0.00521195)
(1.20562 -0.000250449 0.00502174)
(1.21691 -0.000260353 0.00485622)
(1.22602 -0.000242775 0.00471957)
(1.23306 -0.000202222 0.0046134)
(1.23808 -0.000143933 0.00453797)
(1.24109 -7.36159e-05 0.00449294)
(1.2421 2.75901e-06 0.00447791)
(1.2411 7.90583e-05 0.00449274)
(1.23811 0.000149152 0.00453753)
(1.2331 0.000207083 0.00461262)
(1.22608 0.000247156 0.00471833)
(1.21698 0.000264157 0.00485442)
(1.2057 0.000253609 0.00501932)
(1.19203 0.000212175 0.0052089)
(1.17552 0.000138318 0.00541457)
(1.1553 3.33234e-05 0.00561984)
(1.12959 -9.64124e-05 0.00579307)
(1.09476 -0.000232145 0.00587203)
(1.04416 -0.000328941 0.00573974)
(0.967001 -0.000329532 0.00522167)
(0.83922 -0.000211518 0.00410972)
(0.588701 -9.61153e-05 0.00262251)
(0.81655 0.000167749 0.00347822)
(0.5729 8.14893e-05 0.00216157)
(0.939979 0.000273639 0.00454923)
(1.01318 0.000301173 0.00507142)
(1.06028 0.000235228 0.00522284)
(1.09234 0.000126875 0.00516752)
(1.11591 1.69222e-05 0.00501527)
(1.1344 -7.54459e-05 0.00482559)
(1.14947 -0.000142668 0.00463052)
(1.16192 -0.000182649 0.00444801)
(1.17218 -0.000196321 0.00428793)
(1.18046 -0.000186471 0.00415528)
(1.18685 -0.000156983 0.00405206)
(1.1914 -0.000112378 0.00397871)
(1.19413 -5.75512e-05 0.00393495)
(1.19505 2.41517e-06 0.00392041)
(1.19415 6.23258e-05 0.0039349)
(1.19143 0.000116988 0.00397856)
(1.1869 0.000161324 0.0040517)
(1.18052 0.00019045 0.00415458)
(1.17226 0.000199858 0.00428678)
(1.162 0.000185686 0.00444629)
(1.14955 0.000145171 0.00462821)
(1.13448 7.74141e-05 0.00482277)
(1.11597 -1.54581e-05 0.00501212)
(1.09238 -0.00012586 0.00516428)
(1.0603 -0.000234579 0.00521978)
(1.01318 -0.000300751 0.00506884)
(0.939974 -0.00027332 0.0045475)
(0.816551 -0.00016753 0.00347764)
(0.572905 -8.13694e-05 0.00216161)
(0.788072 6.36583e-05 0.00254013)
(0.553536 3.83202e-05 0.00150651)
(0.905088 0.00012099 0.00348991)
(0.973354 0.000160071 0.00399688)
(1.01713 0.000122617 0.00418645)
(1.04706 4.60627e-05 0.00418252)
(1.06904 -3.68362e-05 0.00407401)
(1.08616 -0.000107342 0.00391662)
(1.09997 -0.00015733 0.00374504)
(1.11129 -0.000184552 0.0035803)
(1.12056 -0.000189881 0.00343429)
(1.128 -0.000175833 0.00331292)
(1.13373 -0.000145756 0.00321855)
(1.13781 -0.000103425 0.00315163)
(1.14025 -5.28442e-05 0.00311181)
(1.14107 1.88247e-06 0.00309863)
(1.14027 5.65811e-05 0.0031119)
(1.13784 0.000107077 0.00315175)
(1.13378 0.000149268 0.0032186)
(1.12806 0.000179147 0.00331275)
(1.12062 0.000192941 0.00343376)
(1.11136 0.000187308 0.00357928)
(1.10004 0.000159745 0.00374346)
(1.08622 0.000109397 0.00391452)
(1.06909 3.85345e-05 0.00407154)
(1.04708 -4.47052e-05 0.00417993)
(1.01714 -0.000121571 0.00418404)
(0.973339 -0.000159266 0.00399491)
(0.905064 -0.000120361 0.00348866)
(0.788051 -6.32509e-05 0.00253981)
(0.553524 -3.81137e-05 0.00150665)
(0.746164 -0.000153095 0.0014539)
(0.526128 -6.52093e-05 0.000787785)
(0.852363 -0.000210409 0.00218139)
(0.914428 -0.00020026 0.00262696)
(0.955467 -0.000213097 0.00284122)
(0.984152 -0.000239771 0.00288669)
(1.0051 -0.000268033 0.00282427)
(1.02104 -0.000287152 0.00270545)
(1.0336 -0.000292237 0.00256702)
(1.04371 -0.000282348 0.00243154)
(1.0519 -0.000258409 0.00231116)
(1.05842 -0.00022213 0.00221149)
(1.06343 -0.000175596 0.00213446)
(1.06699 -0.000121141 0.00208016)