# Residuals   
# Time        	p             	Ux            	Uy            	Uz            	k             	epsilon       
0.000119904   	1.000000e+00	1.000000e+00	1.000000e+00	1.000000e+00	1.000000e+00	4.093820e-03
0.000263651   	3.869920e-02	9.402570e-01	3.741330e-01	3.743660e-01	3.065220e-01	4.228730e-03
0.000435749   	4.456230e-02	6.593990e-02	2.945860e-02	2.537860e-02	1.912610e-01	4.649230e-03
0.000642267   	4.186480e-02	7.246630e-02	3.362520e-02	2.873180e-02	1.465750e-01	5.119940e-03
0.000889055   	4.475230e-02	7.500680e-02	3.812470e-02	3.241840e-02	1.223970e-01	5.583290e-03
0.0011849     	4.816670e-02	7.709070e-02	4.278570e-02	3.619510e-02	1.083450e-01	6.083250e-03
0.00153864    	5.192230e-02	7.825000e-02	4.710700e-02	4.058160e-02	9.923530e-02	6.598150e-03
0.00196004    	5.489160e-02	7.864000e-02	5.069830e-02	4.592920e-02	9.287420e-02	7.109550e-03
0.00246572    	5.724130e-02	7.915990e-02	5.505300e-02	5.287810e-02	8.968110e-02	7.715590e-03
0.00306742    	5.841840e-02	7.886130e-02	6.138610e-02	5.979750e-02	8.719760e-02	8.346100e-03
0.00378946    	6.067230e-02	7.917880e-02	6.923430e-02	6.696760e-02	8.648110e-02	9.158860e-03
0.00464521    	6.462230e-02	7.860710e-02	7.471850e-02	7.305440e-02	8.549130e-02	1.002880e-02
0.0056531     	7.155900e-02	7.770300e-02	7.714150e-02	7.837930e-02	8.445620e-02	1.103430e-02
0.00685166    	8.100550e-02	7.754170e-02	8.224310e-02	8.431140e-02	8.416020e-02	1.230210e-02
0.00828994    	8.928280e-02	7.784120e-02	8.650280e-02	9.081970e-02	8.387440e-02	1.378780e-02
0.00995834    	9.308010e-02	7.550250e-02	8.908600e-02	9.409530e-02	8.017100e-02	1.489900e-02
0.0119604     	9.519010e-02	7.545080e-02	9.386510e-02	1.004260e-01	7.753710e-02	1.607060e-02
0.0143379     	9.940070e-02	7.431770e-02	9.746220e-02	1.054690e-01	7.286170e-02	1.669910e-02
0.0170811     	1.033090e-01	7.122250e-02	9.803330e-02	1.070400e-01	6.690130e-02	1.650460e-02
0.0200738     	1.028260e-01	6.501500e-02	9.340840e-02	1.025810e-01	5.977650e-02	1.543960e-02
0.0233989     	1.019070e-01	6.073700e-02	9.086720e-02	1.006570e-01	5.570800e-02	1.462050e-02
0.026724      	9.521210e-02	5.182450e-02	7.960400e-02	8.912560e-02	5.020870e-02	1.323300e-02
0.0300492     	8.629290e-02	4.485490e-02	7.100510e-02	8.002300e-02	4.726450e-02	1.228550e-02
0.0333743     	7.972060e-02	3.929650e-02	6.396430e-02	7.273700e-02	4.484860e-02	1.167060e-02
0.0366994     	7.381840e-02	3.473820e-02	5.848700e-02	6.678340e-02	4.279640e-02	1.119900e-02
0.0400246     	6.846810e-02	3.090600e-02	5.376940e-02	6.171030e-02	4.105650e-02	1.082500e-02
0.0433497     	6.354430e-02	2.763550e-02	4.981540e-02	5.729620e-02	3.959010e-02	1.051730e-02
0.0466749     	5.921230e-02	2.481170e-02	4.628100e-02	5.329670e-02	3.836060e-02	1.021540e-02
0.05          	5.538610e-02	2.237560e-02	4.301830e-02	4.958570e-02	3.732970e-02	9.930040e-03
0.0535714     	5.428400e-02	2.161640e-02	4.273770e-02	4.943080e-02	3.838150e-02	1.000390e-02
0.0574405     	5.554000e-02	2.093400e-02	4.236860e-02	4.925520e-02	3.968640e-02	1.005650e-02
0.0616964     	5.685720e-02	2.036240e-02	4.193180e-02	4.919790e-02	4.141390e-02	1.009320e-02
0.0659524     	5.454630e-02	1.788430e-02	3.745870e-02	4.411000e-02	4.039220e-02	9.588170e-03
0.0702083     	4.953750e-02	1.559550e-02	3.345660e-02	3.945450e-02	3.932590e-02	9.077890e-03
0.0744643     	4.541970e-02	1.348120e-02	3.023990e-02	3.545990e-02	3.815070e-02	8.546800e-03
0.0787202     	3.831150e-02	1.152570e-02	2.780450e-02	3.226230e-02	3.677010e-02	7.986290e-03
0.0829762     	3.505200e-02	9.762910e-03	2.668410e-02	3.000620e-02	3.517320e-02	7.396200e-03
0.0872321     	2.894560e-02	8.202920e-03	2.596890e-02	2.867060e-02	3.334500e-02	6.770920e-03
0.0914881     	2.351240e-02	6.863650e-03	2.457740e-02	2.816350e-02	3.129190e-02	6.114970e-03
0.095744      	2.023090e-02	5.732280e-03	2.227070e-02	2.746450e-02	2.896370e-02	5.437380e-03
0.1           	1.785770e-02	4.792410e-03	1.925850e-02	2.619470e-02	2.637430e-02	4.753770e-03
0.104545      	1.669340e-02	4.269170e-03	1.678210e-02	2.602320e-02	2.457260e-02	4.181060e-03
0.109091      	1.494530e-02	3.553450e-03	1.311990e-02	2.364370e-02	2.140730e-02	3.518390e-03
0.113636      	1.280590e-02	2.962380e-03	1.009640e-02	2.098200e-02	1.825740e-02	2.907740e-03
0.118182      	1.077660e-02	2.467010e-03	7.900070e-03	1.823210e-02	1.525810e-02	2.369300e-03
0.122727      	8.962460e-03	2.044040e-03	6.651700e-03	1.555110e-02	1.251510e-02	1.908630e-03
0.127273      	7.334700e-03	1.679810e-03	6.182320e-03	1.305000e-02	1.009830e-02	1.524020e-03
0.131818      	7.746800e-03	1.375870e-03	6.080170e-03	1.087660e-02	8.058740e-03	1.209550e-03
0.136364      	5.735560e-03	1.112640e-03	5.654240e-03	8.968340e-03	6.369990e-03	9.715130e-04
0.140909      	6.340760e-03	8.944190e-04	5.169000e-03	7.233420e-03	4.983440e-03	7.772670e-04
0.145455      	3.681040e-03	7.040060e-04	4.344110e-03	5.816670e-03	3.867690e-03	6.199050e-04
0.15          	2.823660e-03	5.602450e-04	3.583540e-03	4.600130e-03	2.989640e-03	4.936970e-04
0.154545      	2.217470e-03	4.470210e-04	2.876540e-03	3.663050e-03	2.331260e-03	3.931140e-04
0.159091      	1.844250e-03	3.499260e-04	2.269480e-03	2.912650e-03	1.833660e-03	3.253210e-04
0.163636      	3.049600e-03	2.844920e-04	1.871020e-03	2.385980e-03	1.437870e-03	2.674270e-04
0.168182      	1.645190e-03	2.319770e-04	1.417160e-03	1.915580e-03	1.123830e-03	2.186330e-04
0.172727      	2.902580e-03	1.899270e-04	1.205420e-03	1.562290e-03	8.764930e-04	1.756040e-04
0.177273      	9.831640e-04	1.537010e-04	8.394060e-04	1.278250e-03	7.085760e-04	1.415880e-04
0.181818      	8.741410e-04	1.255350e-04	6.029100e-04	1.019590e-03	5.900250e-04	1.315230e-04
0.186364      	6.761020e-04	1.071030e-04	4.757710e-04	8.256960e-04	4.858600e-04	1.170010e-04
0.190909      	2.260120e-03	9.597250e-05	4.966190e-04	8.468550e-04	3.976460e-04	1.022220e-04
0.195455      	1.052100e-03	8.225890e-05	3.534350e-04	6.908730e-04	3.228690e-04	8.871490e-05
0.2           	2.467250e-03	7.354270e-05	3.918150e-04	6.605070e-04	2.578270e-04	7.496420e-05
0.204545      	6.695760e-04	6.033360e-05	2.381370e-04	5.643500e-04	2.060480e-04	6.205080e-05
0.209091      	4.695160e-04	5.341230e-05	1.645820e-04	4.692810e-04	1.651940e-04	5.164520e-05
0.213636      	5.006780e-04	4.540710e-05	1.438250e-04	3.745340e-04	1.510190e-04	4.228360e-05
0.218182      	2.108070e-03	4.552210e-05	2.421990e-04	4.793710e-04	1.350620e-04	5.386350e-05
0.222727      	9.693720e-04	4.279260e-05	1.742570e-04	3.867070e-04	1.198860e-04	4.038150e-05
0.227273      	2.352770e-03	4.016290e-05	2.664850e-04	3.976690e-04	1.251000e-04	4.720390e-05
0.231818      	7.150460e-04	3.610390e-05	1.579650e-04	3.811170e-04	1.050320e-04	5.629160e-05
0.236364      	3.916840e-04	3.153520e-05	1.033020e-04	2.481400e-04	8.433560e-05	3.558610e-05
0.240909      	1.969020e-03	3.193700e-05	2.016580e-04	3.641330e-04	8.869540e-05	4.017460e-05
0.245455      	8.062030e-04	2.919220e-05	1.505110e-04	3.029170e-04	9.658270e-05	4.636080e-05
0.25          	2.228150e-03	2.733470e-05	2.335200e-04	3.265760e-04	7.659940e-05	5.181200e-05
