/*--------------------------------*- C++ -*----------------------------------*\
  =========                 |
  \\      /  F ield         | OpenFOAM: The Open Source CFD Toolbox
   \\    /   O peration     | Website:  https://openfoam.org
    \\  /    A nd           | Version:  6
     \\/     M anipulation  |
\*---------------------------------------------------------------------------*/
FoamFile
{
    version     2.0;
    format      ascii;
    class       volScalarField;
    location    "0.03";
    object      epsilon;
}
// * * * * * * * * * * * * * * * * * * * * * * * * * * * * * * * * * * * * * //

dimensions      [0 2 -3 0 0 0 0];

internalField   nonuniform List<scalar> 
3032
(
7.52975
7.47925
7.42773
7.37569
7.32358
7.27178
7.22062
7.17038
7.12129
7.07355
7.02732
6.98271
6.93981
6.89868
6.85936
6.82187
6.7862
6.75234
6.72026
6.68993
6.6613
6.63433
6.60895
6.58511
6.56275
6.54181
6.52222
6.50394
6.48689
6.47102
6.45626
6.44257
6.42988
6.41815
6.40733
6.39736
6.3882
6.3798
6.37213
6.36514
6.35879
6.35305
6.34789
6.34327
6.33916
6.33553
6.33235
6.32961
6.32727
3.97024
3.94688
3.92341
3.9
3.87682
3.854
3.83167
3.80991
3.78882
3.76843
3.74882
3.72999
3.71198
3.6948
3.67845
3.66291
3.64818
3.63425
3.62108
3.60867
3.59697
3.58597
3.57563
3.56592
3.55683
3.54831
3.54034
3.53289
3.52593
3.51944
3.5134
3.50777
3.50253
3.49766
3.49315
3.48896
3.48508
3.4815
3.47819
3.47514
3.47234
3.46976
3.4674
3.46525
3.46328
3.46149
3.45988
3.45842
3.4571
3.52878
3.50761
3.48652
3.46567
3.44519
3.42519
3.40576
3.38699
3.36891
3.35158
3.33502
3.31924
3.30426
3.29005
3.27663
3.26396
3.25203
3.24081
3.23028
3.2204
3.21115
3.20248
3.19439
3.18682
3.17976
3.17317
3.16703
3.1613
3.15597
3.151
3.14638
3.14208
3.13808
3.13436
3.1309
3.12769
3.12471
3.12194
3.11938
3.11699
3.11479
3.11274
3.11085
3.1091
3.10749
3.10599
3.10461
3.10334
3.10218
3.46317
3.44079
3.41865
3.3969
3.37567
3.35507
3.33519
3.31609
3.29782
3.28041
3.26387
3.24821
3.23344
3.21952
3.20644
3.19418
3.1827
3.17198
3.16196
3.15263
3.14393
3.13584
3.12832
3.12132
3.11483
3.10879
3.1032
3.098
3.09318
3.0887
3.08455
3.0807
3.07713
3.07382
3.07074
3.06788
3.06523
3.06277
3.06048
3.05836
3.05639
3.05455
3.05285
3.05126
3.04978
3.04841
3.04713
3.04594
3.04484
3.49281
3.46795
3.4435
3.41964
3.39649
3.37416
3.35273
3.33225
3.31276
3.2943
3.27686
3.26045
3.24503
3.2306
3.21711
3.20453
3.19281
3.18193
3.17182
3.16245
3.15376
3.14572
3.13829
3.13141
3.12506
3.11918
3.11376
3.10874
3.10411
3.09983
3.09588
3.09222
3.08884
3.08571
3.08282
3.08014
3.07766
3.07536
3.07322
3.07124
3.0694
3.06768
3.06609
3.06461
3.06322
3.06193
3.06073
3.0596
3.05854
3.55277
3.52458
3.49705
3.47035
3.44459
3.41989
3.3963
3.37389
3.35269
3.3327
3.31391
3.29632
3.27988
3.26457
3.25034
3.23713
3.22489
3.21357
3.20312
3.19347
3.18458
3.17639
3.16885
3.16191
3.15552
3.14965
3.14425
3.13928
3.13471
3.13051
3.12664
3.12308
3.1198
3.11678
3.11399
3.11142
3.10904
3.10684
3.10481
3.10293
3.10118
3.09956
3.09806
3.09665
3.09535
3.09413
3.09299
3.09192
3.09093
3.62237
3.59018
3.55895
3.52883
3.49994
3.47239
3.44622
3.42149
3.39821
3.37637
3.35596
3.33693
3.31924
3.30284
3.28767
3.27366
3.26075
3.24886
3.23793
3.22789
3.21868
3.21023
3.20249
3.1954
3.18891
3.18296
3.17752
3.17253
3.16797
3.16379
3.15996
3.15644
3.15322
3.15026
3.14754
3.14504
3.14274
3.14063
3.13867
3.13687
3.1352
3.13366
3.13223
3.1309
3.12967
3.12852
3.12744
3.12644
3.1255
3.12462
3.69432
3.65753
3.62205
3.58802
3.55557
3.52476
3.49567
3.4683
3.44266
3.41872
3.39645
3.37579
3.35668
3.33905
3.3228
3.30788
3.29418
3.28163
3.27014
3.25963
3.25004
3.24128
3.23329
3.226
3.21935
3.21329
3.20777
3.20273
3.19814
3.19395
3.19012
3.18663
3.18344
3.18052
3.17786
3.17541
3.17317
3.17112
3.16923
3.1675
3.1659
3.16442
3.16306
3.1618
3.16063
3.15955
3.15854
3.1576
3.15672
3.1559
3.76594
3.72406
3.68388
3.64554
3.60915
3.57477
3.54244
3.51217
3.48393
3.45769
3.43338
3.41094
3.39026
3.37126
3.35385
3.33791
3.32335
3.31006
3.29796
3.28694
3.27691
3.2678
3.25952
3.252
3.24517
3.23897
3.23334
3.22822
3.22358
3.21936
3.21552
3.21203
3.20886
3.20597
3.20334
3.20093
3.19874
3.19674
3.1949
3.19323
3.19169
3.19027
3.18897
3.18777
3.18666
3.18564
3.18469
3.1838
3.18298
3.18222
3.1815
3.83607
3.78876
3.74356
3.70061
3.66001
3.6218
3.58602
3.55264
3.52163
3.49292
3.46644
3.44207
3.41972
3.39927
3.3806
3.36358
3.34809
3.33402
3.32125
3.30967
3.29918
3.28969
3.28109
3.27332
3.26628
3.25992
3.25416
3.24895
3.24424
3.23997
3.23611
3.23261
3.22944
3.22656
3.22395
3.22158
3.21942
3.21745
3.21566
3.21403
3.21254
3.21118
3.20993
3.20878
3.20773
3.20675
3.20586
3.20503
3.20426
3.20355
3.20288
3.9038
3.8509
3.80053
3.75283
3.70788
3.66573
3.62636
3.58977
3.55588
3.5246
3.49585
3.46949
3.4454
3.42343
3.40344
3.38529
3.36884
3.35394
3.34048
3.32831
3.31734
3.30743
3.2985
3.29045
3.28319
3.27665
3.27076
3.26544
3.26065
3.25632
3.25242
3.2489
3.24571
3.24284
3.24023
3.23788
3.23574
3.23381
3.23205
3.23046
3.22901
3.22768
3.22648
3.22537
3.22436
3.22344
3.22259
3.2218
3.22108
3.22041
3.2198
3.96795
3.90955
3.85409
3.8017
3.75244
3.70635
3.66342
3.6236
3.58682
3.55297
3.52193
3.49356
3.4677
3.44419
3.42287
3.40358
3.38614
3.37041
3.35623
3.34347
3.33199
3.32167
3.3124
3.30406
3.29657
3.28985
3.2838
3.27837
3.27348
3.26909
3.26514
3.26158
3.25838
3.25549
3.25289
3.25054
3.24842
3.24651
3.24477
3.24321
3.24178
3.24049
3.23932
3.23825
3.23728
3.23639
3.23558
3.23483
3.23415
3.23352
3.23294
4.02697
3.96344
3.90322
3.84641
3.79308
3.74326
3.69692
3.65402
3.61446
3.57812
3.54487
3.51454
3.48696
3.46195
3.43932
3.4189
3.4005
3.38394
3.36907
3.35571
3.34374
3.333
3.32339
3.31477
3.30705
3.30013
3.29394
3.28838
3.28341
3.27894
3.27493
3.27134
3.26811
3.26521
3.2626
3.26025
3.25814
3.25623
3.25451
3.25296
3.25156
3.2503
3.24915
3.24811
3.24716
3.2463
3.24552
3.24481
3.24416
3.24356
3.24301
4.07898
4.01102
3.94663
3.88593
3.82898
3.77582
3.72641
3.6807
3.6386
3.59998
3.56468
3.53253
3.50334
3.47692
3.45307
3.43159
3.41228
3.39494
3.3794
3.36549
3.35305
3.34192
3.33198
3.32309
3.31515
3.30806
3.30172
3.29605
3.29098
3.28644
3.28238
3.27874
3.27549
3.27257
3.26995
3.26759
3.26548
3.26358
3.26187
3.26034
3.25895
3.2577
3.25657
3.25555
3.25463
3.25379
3.25304
3.25235
3.25172
3.25115
3.25063
3.25015
4.12206
4.05064
3.98294
3.91911
3.8592
3.80327
3.75129
3.7032
3.65892
3.61832
3.58123
3.54749
3.51689
3.48922
3.46428
3.44185
3.42172
3.40368
3.38755
3.37314
3.36027
3.3488
3.33856
3.32943
3.3213
3.31404
3.30758
3.3018
3.29665
3.29205
3.28795
3.28427
3.28099
3.27805
3.27542
3.27306
3.27095
3.26906
3.26735
3.26583
3.26445
3.26322
3.2621
3.2611
3.26019
3.25938
3.25863
3.25796
3.25736
3.25681
3.25631
3.25585
4.15509
4.08137
4.01141
3.94535
3.8833
3.82529
3.77133
3.72139
3.67538
3.63318
3.59464
3.55957
3.52778
3.49907
3.4732
3.44996
3.42913
3.4105
3.39386
3.37902
3.36579
3.35401
3.34353
3.3342
3.3259
3.31852
3.31194
3.30609
3.30088
3.29623
3.29208
3.28839
3.28508
3.28213
3.2795
3.27714
3.27503
3.27314
3.27145
3.26993
3.26857
3.26734
3.26624
3.26525
3.26436
3.26356
3.26283
3.26218
3.26159
3.26105
3.26057
3.26014
4.17508
4.10054
4.02963
3.96252
3.89935
3.84018
3.78506
3.73397
3.68684
3.64357
3.60403
3.56804
3.53541
3.50594
3.4794
3.45557
3.43422
3.41515
3.39813
3.38297
3.36948
3.35749
3.34683
3.33736
3.32895
3.32148
3.31484
3.30893
3.30368
3.29901
3.29485
3.29115
3.28784
3.28489
3.28226
3.27991
3.27781
3.27594
3.27425
3.27275
3.2714
3.27019
3.26911
3.26813
3.26725
3.26647
3.26576
3.26512
3.26454
3.26402
3.26355
3.26314
4.18202
4.10802
4.0374
3.97037
3.90709
3.84768
3.79221
3.7407
3.6931
3.64934
3.6093
3.57283
3.53974
3.50984
3.48291
3.45874
3.43709
3.41776
3.40052
3.38517
3.37153
3.35942
3.34866
3.33912
3.33066
3.32315
3.31648
3.31057
3.30531
3.30064
3.29649
3.29279
3.2895
3.28657
3.28396
3.28163
3.27955
3.27769
3.27602
3.27454
3.27321
3.27201
3.27095
3.26999
3.26913
3.26836
3.26766
3.26704
3.26648
3.26597
3.26552
3.26512
3.26476
4.17889
4.10644
4.03703
3.97092
3.90831
3.84936
3.79418
3.74282
3.69527
3.65147
3.61134
3.57474
3.54151
3.51146
3.48438
3.46006
3.43828
3.41884
3.4015
3.38608
3.37238
3.36022
3.34944
3.33988
3.33141
3.3239
3.31725
3.31135
3.30612
3.30147
3.29734
3.29367
3.29041
3.28751
3.28492
3.28262
3.28056
3.27873
3.27709
3.27563
3.27432
3.27315
3.2721
3.27117
3.27032
3.26957
3.26889
3.26829
3.26774
3.26725
3.26681
3.26642
3.26608
3.26578
4.16849
4.09825
4.03068
3.96608
3.90468
3.8467
3.79227
3.74147
3.69435
3.65086
3.61095
3.57449
3.54136
3.51136
3.48431
3.46001
3.43824
3.41879
3.40146
3.38605
3.37236
3.36022
3.34946
3.33993
3.33149
3.32402
3.3174
3.31154
3.30635
3.30174
3.29765
3.29402
3.2908
3.28793
3.28538
3.28311
3.28109
3.27929
3.27768
3.27624
3.27496
3.27382
3.27279
3.27188
3.27106
3.27032
3.26966
3.26907
3.26854
3.26807
3.26765
3.26727
3.26694
3.26665
4.15318
4.08555
4.02019
3.95746
3.89762
3.84093
3.78756
3.73763
3.69119
3.64826
3.60878
3.57267
3.5398
3.51001
3.48313
3.45896
3.4373
3.41795
3.4007
3.38536
3.37174
3.35966
3.34896
3.33949
3.33111
3.32369
3.31713
3.31132
3.30618
3.30163
3.29759
3.29401
3.29083
3.28801
3.2855
3.28327
3.28128
3.27951
3.27794
3.27653
3.27528
3.27416
3.27316
3.27227
3.27147
3.27075
3.27011
3.26954
3.26903
3.26857
3.26816
3.2678
3.26749
3.26722
4.13483
4.06997
4.00701
3.94634
3.88826
3.83306
3.78094
3.73205
3.68648
3.64427
3.60538
3.56975
3.53727
3.5078
3.48118
3.45723
3.43575
3.41655
3.39944
3.38421
3.37069
3.35871
3.3481
3.33871
3.3304
3.32306
3.31656
3.31082
3.30574
3.30125
3.29727
3.29374
3.29061
3.28784
3.28537
3.28319
3.28124
3.27951
3.27797
3.27659
3.27537
3.27428
3.2733
3.27244
3.27166
3.27097
3.27035
3.26979
3.2693
3.26886
3.26847
3.26812
3.26782
3.26757
4.1148
4.05274
3.99223
3.93369
3.87746
3.82384
3.77307
3.72534
3.68074
3.63934
3.60113
3.56607
3.53407
3.50499
3.4787
3.45503
3.43378
3.41478
3.39783
3.38276
3.36937
3.3575
3.34699
3.3377
3.32948
3.32222
3.31581
3.31014
3.30513
3.30069
3.29677
3.2933
3.29023
3.2875
3.28508
3.28294
3.28103
3.27934
3.27783
3.2765
3.2753
3.27424
3.27329
3.27245
3.2717
3.27103
3.27043
3.26989
3.26941
3.26899
3.26861
3.26828
3.268
3.26777
4.09405
4.03472
3.97662
3.9202
3.86582
3.81382
3.76445
3.71792
3.67435
3.63382
3.59635
3.56191
3.53043
3.5018
3.47588
3.45252
3.43154
3.41276
3.39601
3.3811
3.36786
3.35612
3.34573
3.33654
3.32842
3.32125
3.31492
3.30932
3.30438
3.30002
3.29616
3.29275
3.28973
3.28705
3.28468
3.28258
3.28072
3.27906
3.27759
3.27629
3.27512
3.27409
3.27317
3.27235
3.27162
3.27097
3.2704
3.26988
3.26942
3.26901
3.26865
3.26834
3.26807
3.26786
4.07323
4.01649
3.96072
3.90635
3.8538
3.80339
3.75542
3.7101
3.66757
3.62794
3.59124
3.55745
3.52653
3.49837
3.47284
3.44982
3.42912
3.41059
3.39405
3.37932
3.36624
3.35464
3.34437
3.33529
3.32727
3.32019
3.31394
3.30843
3.30356
3.29926
3.29546
3.29211
3.28914
3.28652
3.2842
3.28214
3.28032
3.2787
3.27727
3.27599
3.27486
3.27386
3.27297
3.27218
3.27147
3.27084
3.27028
3.26979
3.26935
3.26896
3.26861
3.26831
3.26806
3.26787
4.05275
3.99845
3.94487
3.89248
3.84168
3.79283
3.74622
3.70209
3.66061
3.62188
3.58595
3.55283
3.52247
3.49479
3.46967
3.44699
3.4266
3.40832
3.39199
3.37745
3.36453
3.35308
3.34294
3.33398
3.32606
3.31907
3.31291
3.30747
3.30268
3.29844
3.29471
3.29141
3.2885
3.28593
3.28365
3.28164
3.27986
3.27828
3.27688
3.27564
3.27454
3.27357
3.27271
3.27194
3.27126
3.27065
3.27011
3.26964
3.26921
3.26884
3.26851
3.26823
3.26799
3.26781
4.03285
3.98082
3.92931
3.87878
3.82966
3.7823
3.73702
3.69405
3.65359
3.61574
3.58058
3.54812
3.51833
3.49113
3.46643
3.4441
3.42401
3.40599
3.38989
3.37554
3.36279
3.35148
3.34147
3.33262
3.32481
3.31791
3.31183
3.30647
3.30175
3.29758
3.29391
3.29067
3.28781
3.28529
3.28306
3.28109
3.27935
3.27781
3.27645
3.27524
3.27418
3.27323
3.27239
3.27165
3.27099
3.27041
3.26989
3.26943
3.26903
3.26867
3.26836
3.26809
3.26787
3.26771
4.01326
3.96336
3.91381
3.86507
3.81757
3.77167
3.72768
3.68587
3.64641
3.60945
3.57506
3.54326
3.51404
3.48733
3.46305
3.44109
3.4213
3.40355
3.38768
3.37353
3.36095
3.34979
3.33991
3.33118
3.32348
3.31668
3.31068
3.3054
3.30075
3.29665
3.29304
3.28986
3.28706
3.28459
3.2824
3.28048
3.27878
3.27728
3.27596
3.27479
3.27375
3.27283
3.27203
3.27131
3.27068
3.27012
3.26962
3.26918
3.2688
3.26846
3.26816
3.26791
3.2677
3.26755
3.99299
3.94522
3.89764
3.85071
3.80485
3.76044
3.71779
3.67716
3.63876
3.60272
3.56913
3.53803
3.50942
3.48323
3.45941
3.43783
3.41837
3.4009
3.38527
3.37134
3.35894
3.34795
3.33822
3.32961
3.32202
3.31532
3.30942
3.30422
3.29965
3.29562
3.29208
3.28896
3.28621
3.28379
3.28166
3.27979
3.27813
3.27667
3.27539
3.27425
3.27325
3.27237
3.27159
3.2709
3.2703
3.26976
3.26929
3.26887
3.2685
3.26818
3.2679
3.26767
3.26748
3.26733
3.97146
3.92589
3.88036
3.83532
3.79119
3.74835
3.70712
3.66775
3.63047
3.59542
3.5627
3.53236
3.5044
3.47878
3.45544
3.43428
3.41519
3.39803
3.38267
3.36897
3.35677
3.34595
3.33638
3.32791
3.32044
3.31385
3.30805
3.30294
3.29845
3.2945
3.29103
3.28797
3.28529
3.28292
3.28085
3.27902
3.27741
3.276
3.27475
3.27366
3.27269
3.27184
3.27109
3.27044
3.26986
3.26935
3.2689
3.2685
3.26816
3.26786
3.26759
3.26737
3.2672
3.26707
3.94875
3.90544
3.86202
3.81895
3.77664
3.73544
3.6957
3.65767
3.62158
3.58758
3.55579
3.52626
3.499
3.47399
3.45118
3.43048
3.41177
3.39495
3.37988
3.36643
3.35445
3.34382
3.33441
3.32609
3.31875
3.31228
3.30658
3.30157
3.29717
3.2933
3.2899
3.28691
3.28429
3.28198
3.27996
3.27819
3.27663
3.27526
3.27405
3.273
3.27207
3.27126
3.27054
3.26991
3.26936
3.26888
3.26845
3.26808
3.26776
3.26747
3.26723
3.26702
3.26686
3.26674
3.92497
3.88396
3.84272
3.80168
3.76123
3.72176
3.68357
3.64695
3.61212
3.57923
3.54842
3.51975
3.49325
3.4689
3.44665
3.42643
3.40815
3.39169
3.37693
3.36374
3.352
3.34157
3.33234
3.32417
3.31697
3.31062
3.30503
3.30012
3.2958
3.29202
3.28869
3.28578
3.28322
3.28098
3.27901
3.27729
3.27578
3.27445
3.27329
3.27228
3.27139
3.27061
3.26992
3.26933
3.2688
3.26834
3.26795
3.2676
3.26729
3.26703
3.2668
3.26661
3.26646
3.26634
3.90022
3.86155
3.82252
3.78355
3.74504
3.70735
3.67078
3.63563
3.60211
3.5704
3.54063
3.51287
3.48716
3.4635
3.44186
3.42216
3.40432
3.38825
3.37382
3.36092
3.34943
3.33921
3.33016
3.32216
3.3151
3.30888
3.3034
3.2986
3.29437
3.29067
3.28742
3.28458
3.28208
3.2799
3.27799
3.27632
3.27486
3.27358
3.27246
3.27149
3.27063
3.26989
3.26924
3.26867
3.26817
3.26774
3.26736
3.26704
3.26675
3.26651
3.26629
3.26612
3.26598
3.26587
3.8746
3.83828
3.80149
3.76465
3.72811
3.69225
3.65736
3.62373
3.59158
3.5611
3.53242
3.50562
3.48076
3.45783
3.43682
3.41768
3.40031
3.38465
3.37057
3.35797
3.34674
3.33675
3.32789
3.32006
3.31315
3.30706
3.3017
3.297
3.29287
3.28925
3.28608
3.2833
3.28088
3.27875
3.2769
3.27528
3.27386
3.27263
3.27155
3.27061
3.2698
3.26908
3.26846
3.26792
3.26745
3.26704
3.26669
3.26638
3.26611
3.26588
3.26569
3.26552
3.26539
3.26529
3.84819
3.81423
3.77971
3.74501
3.71049
3.6765
3.64333
3.61128
3.58055
3.55135
3.5238
3.49801
3.47403
3.45188
3.43154
3.41297
3.39611
3.38088
3.36717
3.35489
3.34393
3.33418
3.32552
3.31787
3.31111
3.30515
3.29991
3.29531
3.29128
3.28774
3.28465
3.28194
3.27958
3.27751
3.27571
3.27414
3.27277
3.27158
3.27054
3.26964
3.26885
3.26817
3.26757
3.26706
3.26661
3.26623
3.26589
3.2656
3.26535
3.26513
3.26495
3.26479
3.26467
3.26457
3.82108
3.78947
3.75722
3.72468
3.6922
3.66012
3.62872
3.59828
3.56902
3.54114
3.51477
3.49003
3.46697
3.44563
3.42599
3.40804
3.3917
3.37692
3.3636
3.35166
3.34098
3.33147
3.32303
3.31555
3.30895
3.30313
3.29801
3.29352
3.28958
3.28613
3.28311
3.28047
3.27816
3.27615
3.2744
3.27287
3.27155
3.27039
3.26939
3.26852
3.26776
3.2671
3.26653
3.26604
3.26561
3.26524
3.26492
3.26465
3.26441
3.2642
3.26402
3.26387
3.26375
3.26365
3.79333
3.76405
3.73406
3.70369
3.67327
3.64311
3.6135
3.58472
3.55697
3.53044
3.5053
3.48164
3.45954
3.43904
3.42014
3.40282
3.38704
3.37273
3.35982
3.34822
3.33785
3.32859
3.32037
3.31308
3.30664
3.30096
3.29596
3.29157
3.28772
3.28435
3.2814
3.27882
3.27658
3.27462
3.27291
3.27143
3.27014
3.26902
3.26804
3.2672
3.26647
3.26583
3.26528
3.26481
3.26439
3.26404
3.26373
3.26346
3.26323
3.26303
3.26285
3.2627
3.26258
3.26247
3.76496
3.73799
3.71024
3.68203
3.65367
3.62545
3.59767
3.57055
3.54434
3.51921
3.49532
3.47279
3.45168
3.43206
3.41392
3.39727
3.38206
3.36825
3.35576
3.34453
3.33446
3.32547
3.31747
3.31037
3.3041
3.29856
3.29368
3.28939
3.28563
3.28234
3.27946
3.27695
3.27475
3.27284
3.27117
3.26973
3.26847
3.26737
3.26643
3.2656
3.26489
3.26427
3.26373
3.26327
3.26287
3.26252
3.26221
3.26194
3.26171
3.26151
3.26133
3.26118
3.26104
3.26093
3.73753
3.71269
3.68703
3.66085
3.63443
3.60806
3.582
3.55649
3.53176
3.50798
3.48531
3.46386
3.44372
3.42495
3.40757
3.39157
3.37693
3.3636
3.35153
3.34066
3.3309
3.32217
3.31439
3.30748
3.30136
3.29596
3.2912
3.28701
3.28333
3.28011
3.27729
3.27483
3.27268
3.27081
3.26918
3.26776
3.26652
3.26545
3.26452
3.26371
3.263
3.26239
3.26186
3.2614
3.261
3.26064
3.26033
3.26006
3.25982
3.25961
3.25942
3.25925
3.2591
3.25897
3.71021
3.68738
3.66372
3.63949
3.61495
3.59037
3.566
3.54207
3.51879
3.49634
3.47488
3.45452
3.43535
3.41744
3.40081
3.38547
3.3714
3.35857
3.34693
3.33641
3.32696
3.3185
3.31094
3.30422
3.29827
3.293
3.28835
3.28426
3.28066
3.27751
3.27474
3.27233
3.27022
3.26838
3.26677
3.26537
3.26415
3.26309
3.26217
3.26137
3.26066
3.26005
3.25952
3.25905
3.25864
3.25828
3.25795
3.25767
3.25741
3.25718
3.25697
3.25678
3.2566
3.25644
3.67961
3.65893
3.63741
3.61528
3.59277
3.57014
3.54761
3.5254
3.50372
3.48274
3.46261
3.44345
3.42537
3.40841
3.39263
3.37803
3.36461
3.35234
3.34118
3.33108
3.32198
3.31382
3.30652
3.30001
3.29424
3.28912
3.2846
3.28061
3.2771
3.27402
3.27132
3.26895
3.26688
3.26507
3.26348
3.2621
3.26089
3.25984
3.25892
3.25811
3.2574
3.25678
3.25623
3.25575
3.25532
3.25494
3.25459
3.25428
3.25399
3.25373
3.25349
3.25326
3.25305
3.25284
3.66241
3.64508
3.6267
3.60746
3.58757
3.56724
3.54669
3.52614
3.5058
3.48585
3.46647
3.44781
3.42999
3.4131
3.39722
3.38239
3.36862
3.35594
3.3443
3.33369
3.32407
3.31537
3.30755
3.30055
3.29429
3.28872
3.28377
3.27939
3.27552
3.27211
3.26911
3.26647
3.26415
3.26211
3.26033
3.25876
3.25739
3.25619
3.25513
3.2542
3.25338
3.25266
3.25202
3.25145
3.25093
3.25047
3.25005
3.24967
3.24932
3.24899
3.24868
3.24839
3.24811
3.24784
3.24757
3.62107
3.60603
3.58999
3.5731
3.55553
3.53746
3.51911
3.50065
3.48229
3.4642
3.44655
3.42948
3.41312
3.39755
3.38285
3.36907
3.35625
3.34439
3.33348
3.3235
3.31441
3.30619
3.29876
3.29209
3.28612
3.28079
3.27605
3.27184
3.2681
3.2648
3.26189
3.25932
3.25705
3.25505
3.2533
3.25175
3.25038
3.24918
3.24811
3.24716
3.24632
3.24557
3.24489
3.24428
3.24373
3.24322
3.24275
3.24231
3.2419
3.24151
3.24113
3.24077
3.24042
3.24008
3.23973
3.57402
3.56125
3.54752
3.53297
3.51773
3.50197
3.48585
3.46956
3.45326
3.43712
3.4213
3.40593
3.39113
3.37699
3.36359
3.35099
3.33921
3.32828
3.31819
3.30893
3.30048
3.29279
3.28584
3.27957
3.27395
3.2689
3.2644
3.26039
3.25683
3.25366
3.25086
3.24837
3.24617
3.24422
3.2425
3.24097
3.23961
3.2384
3.23731
3.23634
3.23547
3.23468
3.23396
3.2333
3.23269
3.23212
3.23159
3.23108
3.2306
3.23013
3.22968
3.22923
3.22879
3.22835
3.22792
3.51879
3.50815
3.49662
3.48431
3.47133
3.45782
3.44393
3.4298
3.4156
3.40146
3.38755
3.37397
3.36083
3.34824
3.33626
3.32495
3.31435
3.30447
3.29533
3.2869
3.27919
3.27215
3.26577
3.25999
3.25479
3.25011
3.24591
3.24216
3.23882
3.23583
3.23317
3.23081
3.2287
3.22682
3.22515
3.22365
3.22231
3.2211
3.22001
3.21902
3.21812
3.21729
3.21653
3.21581
3.21515
3.21451
3.21391
3.21332
3.21276
3.21221
3.21166
3.21112
3.21059
3.21005
3.20951
3.45067
3.44185
3.43226
3.42195
3.41104
3.39962
3.38782
3.37578
3.36363
3.3515
3.33951
3.32778
3.3164
3.30546
3.29503
3.28515
3.27586
3.26719
3.25914
3.2517
3.24487
3.23863
3.23294
3.22778
3.22312
3.21892
3.21513
3.21174
3.2087
3.20597
3.20353
3.20135
3.19939
3.19764
3.19606
3.19464
3.19336
3.19219
3.19112
3.19015
3.18924
3.18841
3.18762
3.18688
3.18617
3.18549
3.18484
3.1842
3.18357
3.18296
3.18234
3.18173
3.18112
3.1805
3.17987
3.37323
3.3657
3.35751
3.3487
3.33936
3.32959
3.3195
3.30919
3.29879
3.2884
3.27813
3.26808
3.25833
3.24896
3.24002
3.23155
3.22359
3.21615
3.20924
3.20285
3.19699
3.19162
3.18673
3.1823
3.17828
3.17466
3.1714
3.16847
3.16584
3.16348
3.16137
3.15947
3.15777
3.15624
3.15486
3.15361
3.15248
3.15144
3.1505
3.14962
3.1488
3.14804
3.14732
3.14664
3.14598
3.14534
3.14472
3.14412
3.14351
3.14292
3.14232
3.14173
3.14112
3.14052
3.1399
3.30313
3.29634
3.28899
3.28112
3.2728
3.26414
3.2552
3.24611
3.23696
3.22784
3.21885
3.21007
3.20158
3.19343
3.18566
3.17833
3.17144
3.16502
3.15906
3.15357
3.14853
3.14393
3.13975
3.13596
3.13253
3.12945
3.12668
3.1242
3.12198
3.11999
3.11821
3.11662
3.11519
3.11392
3.11277
3.11173
3.11079
3.10993
3.10915
3.10842
3.10775
3.10711
3.10652
3.10594
3.10539
3.10486
3.10434
3.10382
3.10331
3.1028
3.10229
3.10178
3.10126
3.10073
3.10019
3.23562
3.22935
3.22262
3.21546
3.20794
3.20015
3.19217
3.18408
3.17598
3.16795
3.16007
3.15241
3.14502
3.13796
3.13126
3.12496
3.11907
3.1136
3.10854
3.10391
3.09967
3.09582
3.09234
3.08921
3.08639
3.08388
3.08163
3.07964
3.07787
3.07631
3.07492
3.0737
3.07261
3.07166
3.07081
3.07006
3.06938
3.06878
3.06824
3.06775
3.06729
3.06688
3.06649
3.06612
3.06576
3.06542
3.06508
3.06475
3.06442
3.06409
3.06376
3.06342
3.06308
3.06273
3.06237
3.17538
3.16954
3.16332
3.15677
3.14995
3.14294
3.1358
3.12862
3.12147
3.11443
3.10756
3.10093
3.09457
3.08853
3.08284
3.07753
3.07259
3.06804
3.06387
3.06007
3.05664
3.05356
3.0508
3.04835
3.04618
3.04427
3.04261
3.04116
3.03991
3.03883
3.03791
3.03712
3.03646
3.0359
3.03544
3.03506
3.03474
3.03449
3.03428
3.03411
3.03397
3.03387
3.03378
3.03371
3.03365
3.0336
3.03355
3.0335
3.03346
3.03341
3.03336
3.0333
3.03324
3.03317
3.03309
3.13038
3.12495
3.11924
3.11328
3.10714
3.10087
3.09455
3.08824
3.08201
3.07593
3.07004
3.0644
3.05904
3.054
3.0493
3.04495
3.04096
3.03733
3.03406
3.03113
3.02852
3.02624
3.02424
3.02253
3.02106
3.01983
3.0188
3.01797
3.01731
3.0168
3.01643
3.01617
3.01602
3.01596
3.01598
3.01607
3.01621
3.0164
3.01663
3.01689
3.01717
3.01748
3.0178
3.01814
3.01848
3.01883
3.01918
3.01953
3.01988
3.02022
3.02056
3.0209
3.02123
3.02155
3.02187
3.11366
3.10869
3.10352
3.09819
3.09274
3.08724
3.08175
3.07632
3.07102
3.06589
3.06098
3.05634
3.05199
3.04796
3.04426
3.0409
3.03789
3.03521
3.03287
3.03085
3.02913
3.0277
3.02654
3.02563
3.02494
3.02447
3.02418
3.02406
3.02409
3.02426
3.02454
3.02492
3.02539
3.02594
3.02656
3.02723
3.02794
3.0287
3.02948
3.03029
3.03112
3.03197
3.03282
3.03369
3.03455
3.03542
3.03629
3.03716
3.03803
3.03889
3.03974
3.04059
3.04144
3.04228
3.04312
3.14818
3.14372
3.13914
3.13448
3.12977
3.12508
3.12046
3.11594
3.1116
3.10746
3.10357
3.09996
3.09665
3.09367
3.09102
3.0887
3.08672
3.08507
3.08374
3.08271
3.08197
3.0815
3.08128
3.08128
3.0815
3.08191
3.08248
3.08321
3.08407
3.08505
3.08613
3.0873
3.08854
3.08985
3.09121
3.09262
3.09407
3.09554
3.09704
3.09856
3.10009
3.10163
3.10317
3.10472
3.10627
3.10782
3.10936
3.1109
3.11244
3.11398
3.1155
3.11703
3.11855
3.12006
3.12157
3.28114
3.27721
3.27324
3.26929
3.26536
3.26152
3.2578
3.25425
3.25091
3.24781
3.245
3.24248
3.2403
3.23845
3.23694
3.23577
3.23494
3.23445
3.23426
3.23438
3.23478
3.23544
3.23633
3.23745
3.23877
3.24026
3.24191
3.24371
3.24562
3.24764
3.24975
3.25194
3.25419
3.2565
3.25885
3.26124
3.26366
3.2661
3.26855
3.27102
3.2735
3.27597
3.27845
3.28093
3.2834
3.28588
3.28834
3.2908
3.29325
3.2957
3.29814
3.30058
3.30301
3.30544
3.30787
3.63675
3.63324
3.62982
3.62651
3.62335
3.62035
3.61755
3.61499
3.61271
3.61073
3.60908
3.60779
3.60687
3.60632
3.60616
3.60636
3.60694
3.60787
3.60913
3.61071
3.61259
3.61474
3.61714
3.61977
3.6226
3.6256
3.62877
3.63208
3.6355
3.63903
3.64264
3.64633
3.65007
3.65387
3.6577
3.66156
3.66545
3.66935
3.67326
3.67717
3.68109
3.68501
3.68892
3.69283
3.69673
3.70062
3.7045
3.70838
3.71225
3.71611
3.71996
3.72382
3.72766
3.73151
3.73535
4.70611
4.70256
4.69935
4.69646
4.69389
4.69166
4.6898
4.68833
4.68727
4.68666
4.68651
4.68685
4.68768
4.68901
4.69084
4.69315
4.69594
4.69918
4.70284
4.70691
4.71135
4.71614
4.72123
4.72661
4.73223
4.73808
4.74412
4.75032
4.75667
4.76315
4.76972
4.77638
4.78311
4.78989
4.79671
4.80357
4.81044
4.81734
4.82423
4.83114
4.83804
4.84494
4.85183
4.85871
4.86558
4.87245
4.8793
4.88615
4.89299
4.89982
4.90665
4.91348
4.92031
4.92714
4.93398
10.6769
10.6823
10.6883
10.6948
10.7017
10.709
10.7167
10.725
10.7339
10.7433
10.7535
10.7644
10.7761
10.7886
10.802
10.8161
10.831
10.8467
10.8631
10.8803
10.898
10.9163
10.9352
10.9545
10.9742
10.9942
11.0146
11.0352
11.056
11.077
11.0981
11.1193
11.1406
11.1619
11.1832
11.2045
11.2258
11.2471
11.2683
11.2895
11.3106
11.3317
11.3527
11.3737
11.3946
11.4155
11.4363
11.4571
11.4778
11.4985
11.5192
11.5399
11.5605
11.5812
11.6019
)
;

boundaryField
{
    inlet
    {
        type            fixedValue;
        value           nonuniform 0();
    }
    outlet
    {
        type            zeroGradient;
    }
    upperWall
    {
        Cmu             0.09;
        kappa           0.41;
        E               9.8;
        type            epsilonWallFunction;
        value           nonuniform List<scalar> 
55
(
10.6769
10.6823
10.6883
10.6948
10.7017
10.709
10.7167
10.725
10.7339
10.7433
10.7535
10.7644
10.7761
10.7886
10.802
10.8161
10.831
10.8467
10.8631
10.8803
10.898
10.9163
10.9352
10.9545
10.9742
10.9942
11.0146
11.0352
11.056
11.077
11.0981
11.1193
11.1406
11.1619
11.1832
11.2045
11.2258
11.2471
11.2683
11.2895
11.3106
11.3317
11.3527
11.3737
11.3946
11.4155
11.4363
11.4571
11.4778
11.4985
11.5192
11.5399
11.5605
11.5812
11.6019
)
;
    }
    lowerWall
    {
        Cmu             0.09;
        kappa           0.41;
        E               9.8;
        type            epsilonWallFunction;
        value           nonuniform List<scalar> 
49
(
7.52975
7.47925
7.42773
7.37569
7.32358
7.27178
7.22062
7.17038
7.12129
7.07355
7.02732
6.98271
6.93981
6.89868
6.85936
6.82187
6.7862
6.75234
6.72026
6.68993
6.6613
6.63433
6.60895
6.58511
6.56275
6.54181
6.52222
6.50394
6.48689
6.47102
6.45626
6.44257
6.42988
6.41815
6.40733
6.39736
6.3882
6.3798
6.37213
6.36514
6.35879
6.35305
6.34789
6.34327
6.33916
6.33553
6.33235
6.32961
6.32727
)
;
    }
    frontAndBack
    {
        type            empty;
    }
    procBoundary3to1
    {
        type            processor;
        value           nonuniform List<scalar> 
62
(
6.32531
3.45594
3.1011
3.04381
3.05756
3.08999
3.08999
3.12379
3.15512
3.15512
3.18083
3.20226
3.21922
3.23241
3.24251
3.24251
3.24971
3.25544
3.25974
3.26276
3.26276
3.26444
3.26444
3.26549
3.26638
3.26697
3.26733
3.26755
3.26766
3.26769
3.26765
3.26756
3.26741
3.26721
3.26695
3.26663
3.26624
3.26578
3.2652
3.26448
3.26356
3.26238
3.26082
3.25885
3.25628
3.25264
3.24731
3.23939
3.22748
3.20896
3.17924
3.13928
3.09965
3.062
3.03301
3.02218
3.04395
3.12308
3.31029
3.7392
4.94083
11.6226
)
;
    }
    procBoundary3to2
    {
        type            processor;
        value           nonuniform List<scalar> 
58
(
7.5787
3.99326
3.54985
3.48561
3.51792
3.58142
3.65531
3.73219
3.80929
3.88528
3.95904
4.02909
4.09358
4.1503
4.19699
4.23232
4.25296
4.25904
4.25397
4.2409
4.22254
4.20096
4.1777
4.15383
4.13007
4.10685
4.08443
4.06249
4.03995
4.01609
3.99104
3.96488
3.93775
3.90973
3.88094
3.85146
3.82135
3.79069
3.76113
3.7318
3.69911
3.69911
3.67844
3.63492
3.5857
3.52847
3.45864
3.38005
3.30931
3.24139
3.18081
3.13547
3.11839
3.1525
3.28503
3.64037
4.71002
10.6721
)
;
    }
}


// ************************************************************************* //
