/*--------------------------------*- C++ -*----------------------------------*\
  =========                 |
  \\      /  F ield         | OpenFOAM: The Open Source CFD Toolbox
   \\    /   O peration     | Website:  https://openfoam.org
    \\  /    A nd           | Version:  6
     \\/     M anipulation  |
\*---------------------------------------------------------------------------*/
FoamFile
{
    version     2.0;
    format      ascii;
    class       volScalarField;
    location    "0.03";
    object      k;
}
// * * * * * * * * * * * * * * * * * * * * * * * * * * * * * * * * * * * * * //

dimensions      [0 2 -2 0 0 0 0];

internalField   nonuniform List<scalar> 
3032
(
0.0466346
0.0463942
0.0461477
0.0458973
0.0456451
0.0453931
0.0451427
0.0448955
0.0446525
0.0444147
0.0441831
0.0439581
0.0437404
0.0435303
0.043328
0.0431337
0.0429475
0.0427693
0.0425991
0.0424368
0.0422821
0.0421349
0.0419949
0.041862
0.0417357
0.041616
0.0415024
0.0413948
0.0412928
0.0411961
0.0411046
0.0410178
0.0409357
0.0408579
0.0407841
0.0407142
0.040648
0.0405851
0.0405255
0.0404689
0.0404152
0.0403641
0.0403156
0.0402694
0.0402253
0.0401834
0.0401434
0.0401052
0.0400686
0.0974491
0.0968197
0.0961852
0.0955503
0.0949192
0.0942954
0.0936821
0.0930817
0.0924965
0.0919281
0.091378
0.090847
0.090336
0.0898452
0.0893749
0.0889251
0.0884956
0.0880861
0.087696
0.0873251
0.0869725
0.0866377
0.08632
0.0860187
0.0857332
0.0854626
0.0852062
0.0849634
0.0847335
0.0845158
0.0843097
0.0841144
0.0839295
0.0837542
0.0835882
0.0834308
0.0832815
0.0831398
0.0830053
0.0828776
0.0827562
0.0826408
0.0825309
0.0824263
0.0823265
0.0822313
0.0821404
0.0820535
0.0819704
0.122809
0.12202
0.121227
0.120435
0.11965
0.118877
0.118118
0.117377
0.116657
0.115959
0.115286
0.114638
0.114015
0.11342
0.11285
0.112307
0.111789
0.111297
0.11083
0.110386
0.109965
0.109566
0.109188
0.108831
0.108492
0.108172
0.107869
0.107583
0.107312
0.107056
0.106813
0.106583
0.106366
0.10616
0.105965
0.105781
0.105605
0.105439
0.105281
0.105131
0.104989
0.104853
0.104724
0.104601
0.104483
0.104371
0.104264
0.104161
0.104062
0.140175
0.139271
0.138364
0.137462
0.136569
0.135692
0.134834
0.133999
0.133189
0.132407
0.131655
0.130933
0.130241
0.129581
0.128952
0.128354
0.127786
0.127247
0.126736
0.126253
0.125796
0.125364
0.124955
0.12457
0.124205
0.123861
0.123537
0.12323
0.12294
0.122667
0.122408
0.122164
0.121932
0.121714
0.121507
0.121311
0.121125
0.120949
0.120782
0.120623
0.120472
0.120328
0.120191
0.12006
0.119936
0.119817
0.119703
0.119594
0.119489
0.153364
0.152358
0.151353
0.150355
0.149372
0.148408
0.147469
0.146557
0.145676
0.144828
0.144015
0.143237
0.142495
0.141789
0.141118
0.140482
0.13988
0.139311
0.138773
0.138266
0.137787
0.137336
0.136911
0.136511
0.136134
0.135779
0.135444
0.135129
0.134832
0.134552
0.134287
0.134038
0.133802
0.13358
0.13337
0.133171
0.132982
0.132804
0.132634
0.132473
0.132321
0.132175
0.132037
0.131905
0.131779
0.131659
0.131543
0.131433
0.131327
0.163772
0.162667
0.161567
0.16048
0.159412
0.158368
0.157355
0.156375
0.155432
0.154527
0.153662
0.152838
0.152055
0.151312
0.150609
0.149946
0.14932
0.14873
0.148175
0.147653
0.147163
0.146702
0.146269
0.145863
0.145481
0.145123
0.144786
0.14447
0.144172
0.143892
0.143629
0.143381
0.143147
0.142926
0.142718
0.142522
0.142336
0.14216
0.141993
0.141835
0.141685
0.141542
0.141407
0.141277
0.141154
0.141036
0.140923
0.140816
0.140712
0.172129
0.170924
0.169729
0.168552
0.1674
0.166279
0.165194
0.16415
0.163147
0.16219
0.161278
0.160413
0.159594
0.158821
0.158092
0.157407
0.156763
0.156158
0.155592
0.155062
0.154565
0.1541
0.153666
0.153259
0.152878
0.152522
0.152188
0.151875
0.151582
0.151307
0.151049
0.150807
0.150579
0.150364
0.150162
0.149972
0.149792
0.149622
0.149462
0.14931
0.149166
0.149029
0.148899
0.148775
0.148657
0.148544
0.148436
0.148333
0.148234
0.148139
0.178899
0.177592
0.1763
0.175032
0.173796
0.172597
0.171441
0.170332
0.169272
0.168263
0.167307
0.166403
0.16555
0.164749
0.163997
0.163293
0.162634
0.162019
0.161445
0.16091
0.160411
0.159946
0.159512
0.159109
0.158732
0.158381
0.158054
0.157748
0.157463
0.157196
0.156946
0.156712
0.156493
0.156287
0.156094
0.155912
0.155741
0.15558
0.155428
0.155284
0.155148
0.155019
0.154896
0.15478
0.154669
0.154563
0.154462
0.154366
0.154274
0.154185
0.184415
0.183003
0.181613
0.180253
0.17893
0.177653
0.176425
0.17525
0.174132
0.173072
0.172071
0.171128
0.170243
0.169415
0.168641
0.167919
0.167247
0.166623
0.166042
0.165504
0.165004
0.164541
0.164111
0.163712
0.163342
0.162999
0.16268
0.162383
0.162107
0.16185
0.16161
0.161386
0.161178
0.160982
0.160799
0.160628
0.160467
0.160315
0.160173
0.160039
0.159912
0.159792
0.159678
0.15957
0.159468
0.15937
0.159278
0.159189
0.159104
0.159022
0.158944
0.188921
0.187406
0.185917
0.184465
0.183057
0.1817
0.180399
0.179159
0.177982
0.17687
0.175823
0.174841
0.173923
0.173067
0.17227
0.171531
0.170846
0.170212
0.169627
0.169085
0.168586
0.168124
0.167699
0.167306
0.166943
0.166607
0.166297
0.16601
0.165744
0.165498
0.165269
0.165056
0.164859
0.164674
0.164502
0.164342
0.164191
0.164051
0.163918
0.163794
0.163677
0.163567
0.163463
0.163364
0.163271
0.163182
0.163097
0.163017
0.16294
0.162866
0.162796
0.192601
0.190987
0.189404
0.187863
0.18637
0.184935
0.183563
0.182257
0.181021
0.179857
0.178764
0.177742
0.17679
0.175906
0.175086
0.174329
0.17363
0.172987
0.172395
0.17185
0.17135
0.170891
0.170469
0.170081
0.169725
0.169398
0.169097
0.168819
0.168564
0.168328
0.16811
0.167908
0.167721
0.167548
0.167387
0.167237
0.167097
0.166967
0.166845
0.166731
0.166624
0.166524
0.166429
0.16634
0.166255
0.166175
0.166099
0.166027
0.165958
0.165892
0.165829
0.195588
0.193886
0.192217
0.190593
0.189022
0.187513
0.186072
0.184704
0.18341
0.182194
0.181056
0.179994
0.179008
0.178095
0.177252
0.176476
0.175763
0.175109
0.174509
0.173961
0.173459
0.173001
0.172582
0.172199
0.171849
0.171529
0.171236
0.170968
0.170721
0.170495
0.170287
0.170096
0.16992
0.169757
0.169606
0.169467
0.169338
0.169217
0.169105
0.169001
0.168904
0.168812
0.168727
0.168646
0.16857
0.168499
0.168431
0.168367
0.168306
0.168248
0.168192
0.197977
0.196201
0.19446
0.192764
0.191125
0.18955
0.188047
0.186621
0.185274
0.18401
0.182828
0.181728
0.180709
0.179768
0.178902
0.178106
0.177378
0.176712
0.176105
0.175551
0.175048
0.174589
0.174172
0.173793
0.173448
0.173134
0.172849
0.172588
0.17235
0.172133
0.171934
0.171752
0.171585
0.171432
0.171291
0.171161
0.171041
0.17093
0.170827
0.170732
0.170643
0.17056
0.170483
0.170411
0.170343
0.170279
0.170219
0.170163
0.170109
0.170058
0.170009
0.199832
0.198004
0.196208
0.194457
0.192763
0.191134
0.189579
0.188102
0.186709
0.185402
0.184181
0.183047
0.181997
0.181029
0.18014
0.179327
0.178584
0.177907
0.177291
0.176732
0.176225
0.175766
0.17535
0.174974
0.174633
0.174324
0.174044
0.17379
0.17356
0.17335
0.17316
0.172986
0.172828
0.172683
0.17255
0.172429
0.172317
0.172214
0.17212
0.172032
0.171951
0.171876
0.171807
0.171742
0.171681
0.171625
0.171571
0.171521
0.171474
0.17143
0.171387
0.171347
0.201197
0.199341
0.197513
0.195727
0.193995
0.192328
0.190733
0.189218
0.187788
0.186446
0.185193
0.184029
0.182953
0.181962
0.181053
0.180223
0.179467
0.178779
0.178156
0.177592
0.177082
0.176621
0.176206
0.175832
0.175494
0.175189
0.174915
0.174667
0.174442
0.17424
0.174056
0.173889
0.173738
0.173601
0.173476
0.173361
0.173257
0.173162
0.173074
0.172994
0.17292
0.172851
0.172788
0.17273
0.172676
0.172625
0.172578
0.172534
0.172492
0.172454
0.172417
0.172382
0.202124
0.200269
0.198434
0.196635
0.194886
0.193197
0.191579
0.190039
0.188583
0.187216
0.185939
0.184752
0.183655
0.182646
0.181721
0.180878
0.18011
0.179414
0.178784
0.178215
0.177703
0.177241
0.176827
0.176454
0.176119
0.175818
0.175548
0.175305
0.175087
0.17489
0.174712
0.174552
0.174407
0.174276
0.174158
0.17405
0.173952
0.173863
0.173782
0.173707
0.173639
0.173577
0.17352
0.173467
0.173418
0.173373
0.173331
0.173292
0.173256
0.173222
0.17319
0.17316
0.202587
0.200763
0.19895
0.197164
0.195419
0.19373
0.192107
0.190559
0.189093
0.187713
0.186423
0.185223
0.184114
0.183093
0.182159
0.181306
0.180531
0.179829
0.179195
0.178624
0.17811
0.177649
0.177235
0.176865
0.176533
0.176236
0.17597
0.175731
0.175518
0.175326
0.175154
0.174999
0.17486
0.174735
0.174622
0.17452
0.174428
0.174344
0.174268
0.174199
0.174136
0.174079
0.174026
0.173978
0.173934
0.173893
0.173856
0.173821
0.173789
0.173759
0.173732
0.173706
0.202659
0.200889
0.199118
0.197364
0.195645
0.193973
0.192362
0.19082
0.189357
0.187978
0.186686
0.185484
0.184371
0.183346
0.182408
0.181552
0.180775
0.180071
0.179436
0.178864
0.178351
0.177891
0.17748
0.177112
0.176783
0.17649
0.176228
0.175994
0.175785
0.175598
0.17543
0.175281
0.175146
0.175026
0.174918
0.17482
0.174733
0.174654
0.174582
0.174517
0.174459
0.174406
0.174357
0.174313
0.174273
0.174236
0.174202
0.174171
0.174143
0.174116
0.174092
0.174069
0.174048
0.20246
0.200755
0.19904
0.197333
0.195651
0.194009
0.192421
0.190898
0.189449
0.18808
0.186795
0.185598
0.184489
0.183467
0.18253
0.181676
0.1809
0.180198
0.179564
0.178995
0.178484
0.178027
0.177618
0.177254
0.176929
0.176639
0.176381
0.176151
0.175946
0.175764
0.175601
0.175455
0.175325
0.175209
0.175105
0.175012
0.174928
0.174853
0.174785
0.174724
0.174669
0.174619
0.174574
0.174533
0.174496
0.174463
0.174432
0.174404
0.174378
0.174355
0.174333
0.174313
0.174294
0.174277
0.202078
0.200447
0.198795
0.197141
0.195504
0.193901
0.192345
0.190848
0.18942
0.188068
0.186798
0.185612
0.184511
0.183497
0.182566
0.181717
0.180946
0.180247
0.179618
0.179052
0.178545
0.178092
0.177687
0.177327
0.177006
0.17672
0.176466
0.17624
0.176039
0.175861
0.175702
0.17556
0.175434
0.175322
0.175221
0.175132
0.175051
0.174979
0.174915
0.174857
0.174805
0.174758
0.174716
0.174678
0.174644
0.174613
0.174584
0.174559
0.174535
0.174514
0.174495
0.174477
0.174461
0.174446
0.201583
0.200026
0.198439
0.196843
0.195256
0.193695
0.192176
0.19071
0.189308
0.187978
0.186726
0.185556
0.184468
0.183465
0.182543
0.181702
0.180937
0.180246
0.179622
0.179061
0.178559
0.17811
0.17771
0.177354
0.177037
0.176756
0.176506
0.176284
0.176087
0.175912
0.175757
0.175619
0.175497
0.175388
0.175291
0.175204
0.175127
0.175058
0.174996
0.174941
0.174892
0.174848
0.174808
0.174772
0.17474
0.174711
0.174685
0.174662
0.17464
0.174621
0.174603
0.174587
0.174573
0.17456
0.201023
0.199538
0.198016
0.196478
0.194942
0.193426
0.191945
0.190513
0.18914
0.187835
0.186605
0.185452
0.18438
0.18339
0.18248
0.181649
0.180893
0.180209
0.179592
0.179038
0.178541
0.178098
0.177702
0.177351
0.177039
0.176761
0.176516
0.176298
0.176105
0.175934
0.175782
0.175648
0.175529
0.175423
0.175329
0.175245
0.175171
0.175104
0.175045
0.174993
0.174946
0.174904
0.174866
0.174832
0.174802
0.174775
0.174751
0.174729
0.174709
0.174692
0.174676
0.174661
0.174648
0.174636
0.200431
0.199015
0.197555
0.196073
0.194587
0.193116
0.191675
0.190278
0.188936
0.187657
0.18645
0.185317
0.184263
0.183287
0.18239
0.18157
0.180824
0.180149
0.179539
0.178992
0.178502
0.178064
0.177674
0.177328
0.17702
0.176747
0.176505
0.176292
0.176102
0.175935
0.175787
0.175655
0.175539
0.175436
0.175345
0.175264
0.175192
0.175128
0.175072
0.175021
0.174976
0.174936
0.174901
0.174869
0.17484
0.174815
0.174792
0.174772
0.174754
0.174737
0.174723
0.17471
0.174698
0.174687
0.199829
0.198477
0.197076
0.195647
0.19421
0.192783
0.191381
0.190019
0.188708
0.187457
0.186273
0.185161
0.184125
0.183166
0.182283
0.181474
0.180739
0.180073
0.179472
0.178932
0.178448
0.178016
0.177632
0.17729
0.176987
0.176719
0.176481
0.176271
0.176086
0.175922
0.175777
0.175649
0.175535
0.175435
0.175346
0.175268
0.175198
0.175137
0.175082
0.175034
0.174991
0.174953
0.174919
0.174888
0.174862
0.174838
0.174816
0.174797
0.17478
0.174765
0.174752
0.17474
0.174729
0.17472
0.199233
0.197939
0.196593
0.195214
0.193823
0.192438
0.191075
0.189747
0.188466
0.187242
0.186083
0.184992
0.183975
0.183032
0.182163
0.181367
0.180643
0.179986
0.179394
0.178861
0.178385
0.177959
0.17758
0.177244
0.176945
0.176681
0.176448
0.176241
0.176059
0.175898
0.175757
0.175631
0.175521
0.175423
0.175337
0.175261
0.175194
0.175134
0.175082
0.175035
0.174994
0.174957
0.174925
0.174896
0.174871
0.174848
0.174828
0.17481
0.174794
0.17478
0.174768
0.174757
0.174747
0.174739
0.19865
0.197409
0.196113
0.194782
0.193434
0.192089
0.190763
0.189468
0.188217
0.18702
0.185885
0.184816
0.183817
0.18289
0.182036
0.181253
0.18054
0.179893
0.179309
0.178784
0.178315
0.177895
0.177522
0.17719
0.176897
0.176637
0.176407
0.176205
0.176026
0.175868
0.175729
0.175607
0.175499
0.175404
0.17532
0.175246
0.175181
0.175123
0.175072
0.175027
0.174988
0.174953
0.174922
0.174895
0.17487
0.174849
0.17483
0.174813
0.174799
0.174786
0.174774
0.174764
0.174755
0.174747
0.198085
0.196893
0.195643
0.194355
0.193049
0.191742
0.19045
0.189188
0.187966
0.186795
0.185683
0.184634
0.183654
0.182744
0.181904
0.181134
0.180432
0.179795
0.17922
0.178703
0.17824
0.177827
0.177459
0.177132
0.176843
0.176587
0.176362
0.176163
0.175987
0.175832
0.175696
0.175577
0.175471
0.175378
0.175297
0.175225
0.175162
0.175106
0.175057
0.175013
0.174975
0.174942
0.174912
0.174886
0.174863
0.174843
0.174825
0.174809
0.174795
0.174783
0.174773
0.174763
0.174755
0.174748
0.197529
0.196382
0.195175
0.193928
0.192661
0.19139
0.190132
0.188901
0.187708
0.186562
0.185473
0.184446
0.183484
0.18259
0.181765
0.181008
0.180317
0.17969
0.179124
0.178615
0.178159
0.177752
0.17739
0.177068
0.176784
0.176532
0.17631
0.176115
0.175942
0.175791
0.175657
0.17554
0.175437
0.175347
0.175267
0.175197
0.175136
0.175082
0.175035
0.174993
0.174956
0.174924
0.174896
0.174871
0.174849
0.17483
0.174813
0.174798
0.174785
0.174774
0.174764
0.174755
0.174748
0.174742
0.196951
0.195848
0.194684
0.193478
0.19225
0.191016
0.189793
0.188593
0.187429
0.186311
0.185246
0.18424
0.183298
0.182421
0.181612
0.180868
0.18019
0.179573
0.179017
0.178516
0.178068
0.177667
0.177311
0.176995
0.176715
0.176468
0.17625
0.176058
0.175889
0.175741
0.17561
0.175496
0.175396
0.175307
0.17523
0.175162
0.175103
0.175051
0.175005
0.174965
0.17493
0.174899
0.174872
0.174848
0.174827
0.174809
0.174793
0.174779
0.174767
0.174757
0.174748
0.17474
0.174733
0.174727
0.196332
0.195273
0.194153
0.19299
0.191803
0.190608
0.189421
0.188256
0.187123
0.186033
0.184995
0.184012
0.183091
0.182234
0.181441
0.180712
0.180047
0.179442
0.178896
0.178405
0.177964
0.177571
0.177221
0.176911
0.176637
0.176394
0.17618
0.175992
0.175827
0.175682
0.175555
0.175443
0.175345
0.175259
0.175184
0.175119
0.175061
0.175011
0.174967
0.174928
0.174894
0.174865
0.174839
0.174817
0.174797
0.17478
0.174765
0.174752
0.174741
0.174731
0.174722
0.174715
0.174709
0.174703
0.195669
0.194656
0.193581
0.192463
0.191318
0.190164
0.189016
0.187886
0.186787
0.185728
0.184717
0.18376
0.182862
0.182025
0.18125
0.180538
0.179887
0.179295
0.17876
0.178279
0.177847
0.177462
0.177119
0.176815
0.176546
0.176309
0.1761
0.175916
0.175754
0.175613
0.175489
0.17538
0.175285
0.175201
0.175129
0.175065
0.17501
0.174961
0.174919
0.174882
0.174849
0.174821
0.174797
0.174776
0.174757
0.174741
0.174727
0.174715
0.174704
0.174695
0.174687
0.17468
0.174674
0.174669
0.194961
0.193994
0.192966
0.191893
0.190793
0.189682
0.188574
0.187482
0.186418
0.185392
0.184411
0.183481
0.182608
0.181793
0.181038
0.180343
0.179708
0.17913
0.178607
0.178136
0.177715
0.177338
0.177003
0.176705
0.176442
0.17621
0.176006
0.175827
0.175669
0.175531
0.17541
0.175305
0.175212
0.175132
0.175061
0.175
0.174946
0.1749
0.174859
0.174824
0.174793
0.174766
0.174743
0.174722
0.174705
0.17469
0.174676
0.174665
0.174655
0.174646
0.174639
0.174632
0.174627
0.174622
0.194205
0.193285
0.192303
0.191277
0.190224
0.189157
0.188091
0.18704
0.186014
0.185022
0.184073
0.183172
0.182325
0.181534
0.1808
0.180124
0.179506
0.178943
0.178434
0.177975
0.177563
0.177196
0.176869
0.176579
0.176322
0.176096
0.175897
0.175722
0.175569
0.175435
0.175317
0.175215
0.175125
0.175047
0.174979
0.17492
0.174868
0.174824
0.174785
0.174751
0.174721
0.174696
0.174674
0.174654
0.174638
0.174623
0.17461
0.1746
0.17459
0.174582
0.174575
0.174568
0.174563
0.174558
0.193396
0.192523
0.19159
0.190612
0.189606
0.188585
0.187564
0.186555
0.185568
0.184613
0.183698
0.182829
0.18201
0.181244
0.180533
0.179878
0.179278
0.178731
0.178236
0.17779
0.17739
0.177032
0.176714
0.176432
0.176182
0.175962
0.175768
0.175598
0.17545
0.175319
0.175205
0.175106
0.17502
0.174944
0.174879
0.174822
0.174772
0.174729
0.174692
0.174659
0.174631
0.174606
0.174585
0.174567
0.174551
0.174537
0.174525
0.174514
0.174505
0.174497
0.17449
0.174484
0.174478
0.174473
0.19253
0.191704
0.19082
0.189892
0.188934
0.187962
0.186987
0.186022
0.185076
0.18416
0.183281
0.182445
0.181656
0.180918
0.180231
0.179598
0.179018
0.178489
0.178009
0.177576
0.177188
0.176841
0.176532
0.176259
0.176016
0.175803
0.175615
0.17545
0.175306
0.17518
0.17507
0.174974
0.17489
0.174817
0.174754
0.174699
0.174651
0.17461
0.174574
0.174543
0.174516
0.174492
0.174472
0.174454
0.174439
0.174425
0.174413
0.174403
0.174394
0.174385
0.174378
0.174371
0.174365
0.17436
0.191598
0.19082
0.189985
0.189108
0.188201
0.187278
0.186351
0.185432
0.18453
0.183655
0.182814
0.182013
0.181256
0.180547
0.179887
0.179277
0.178718
0.178208
0.177745
0.177327
0.176952
0.176616
0.176317
0.176052
0.175818
0.175611
0.17543
0.17527
0.175131
0.175009
0.174902
0.17481
0.174729
0.174659
0.174598
0.174545
0.174499
0.174459
0.174424
0.174394
0.174368
0.174345
0.174325
0.174308
0.174293
0.174279
0.174267
0.174256
0.174247
0.174238
0.17423
0.174223
0.174216
0.174209
0.190591
0.189861
0.189077
0.188251
0.187396
0.186524
0.185647
0.184776
0.18392
0.183088
0.182287
0.181523
0.1808
0.180122
0.17949
0.178905
0.178368
0.177878
0.177433
0.177031
0.17667
0.176346
0.176058
0.175803
0.175577
0.175377
0.175202
0.175048
0.174914
0.174796
0.174694
0.174604
0.174526
0.174459
0.1744
0.174349
0.174304
0.174266
0.174232
0.174202
0.174177
0.174154
0.174134
0.174117
0.174101
0.174087
0.174075
0.174063
0.174053
0.174043
0.174034
0.174025
0.174016
0.174008
0.189496
0.188815
0.188081
0.187308
0.186506
0.185687
0.184861
0.18404
0.183232
0.182445
0.181686
0.180961
0.180274
0.179628
0.179026
0.178469
0.177956
0.177487
0.177061
0.176676
0.176329
0.176019
0.175742
0.175497
0.17528
0.175088
0.174919
0.174771
0.174642
0.174529
0.17443
0.174344
0.174268
0.174203
0.174146
0.174096
0.174053
0.174015
0.173982
0.173953
0.173927
0.173905
0.173884
0.173866
0.17385
0.173835
0.173821
0.173808
0.173796
0.173784
0.173773
0.173761
0.173751
0.17374
0.188363
0.187726
0.187041
0.186318
0.185567
0.184799
0.184024
0.183251
0.18249
0.181747
0.18103
0.180344
0.179692
0.17908
0.178507
0.177977
0.177488
0.17704
0.176633
0.176265
0.175934
0.175637
0.175372
0.175136
0.174927
0.174743
0.174581
0.174439
0.174314
0.174204
0.174109
0.174026
0.173953
0.173889
0.173833
0.173785
0.173742
0.173704
0.173671
0.173641
0.173615
0.173591
0.17357
0.17355
0.173532
0.173515
0.173498
0.173483
0.173468
0.173453
0.173439
0.173425
0.17341
0.173396
0.187148
0.186556
0.185919
0.185245
0.184544
0.183827
0.183102
0.182378
0.181664
0.180966
0.180291
0.179644
0.179029
0.178449
0.177907
0.177404
0.17694
0.176515
0.176127
0.175777
0.17546
0.175177
0.174923
0.174698
0.174498
0.174321
0.174165
0.174028
0.173908
0.173802
0.17371
0.173628
0.173557
0.173495
0.17344
0.173391
0.173348
0.17331
0.173276
0.173245
0.173217
0.173191
0.173167
0.173145
0.173124
0.173104
0.173084
0.173065
0.173046
0.173027
0.173008
0.172989
0.172969
0.17295
0.185663
0.185121
0.184536
0.183917
0.183274
0.182613
0.181945
0.181276
0.180615
0.179968
0.17934
0.178738
0.178165
0.177624
0.177117
0.176645
0.17621
0.17581
0.175446
0.175115
0.174816
0.174548
0.174308
0.174094
0.173904
0.173736
0.173587
0.173456
0.173341
0.173239
0.173149
0.17307
0.173001
0.172939
0.172884
0.172835
0.172792
0.172752
0.172716
0.172683
0.172652
0.172623
0.172596
0.17257
0.172544
0.172519
0.172495
0.17247
0.172446
0.172421
0.172396
0.17237
0.172344
0.172316
0.184247
0.183804
0.183316
0.18279
0.182233
0.181652
0.181056
0.18045
0.179844
0.179242
0.178653
0.17808
0.177529
0.177003
0.176506
0.176039
0.175605
0.175202
0.174832
0.174494
0.174187
0.173909
0.173658
0.173434
0.173233
0.173055
0.172896
0.172756
0.172631
0.172521
0.172423
0.172337
0.17226
0.172191
0.17213
0.172075
0.172025
0.171979
0.171937
0.171898
0.171861
0.171826
0.171792
0.17176
0.171728
0.171696
0.171665
0.171633
0.171601
0.171569
0.171535
0.171501
0.171467
0.171431
0.171394
0.181807
0.181417
0.180989
0.180528
0.180038
0.179527
0.179001
0.178466
0.177929
0.177395
0.17687
0.176358
0.175865
0.175394
0.174947
0.174526
0.174133
0.173769
0.173433
0.173126
0.172845
0.172591
0.172362
0.172156
0.171971
0.171805
0.171658
0.171526
0.171409
0.171305
0.171212
0.171128
0.171053
0.170985
0.170923
0.170867
0.170815
0.170766
0.17072
0.170676
0.170634
0.170593
0.170553
0.170513
0.170473
0.170433
0.170393
0.170352
0.17031
0.170267
0.170222
0.170177
0.17013
0.170082
0.170032
0.178587
0.178256
0.177892
0.1775
0.177085
0.17665
0.176201
0.175743
0.175281
0.174822
0.174369
0.173926
0.173498
0.173088
0.172697
0.172329
0.171985
0.171664
0.171368
0.171096
0.170847
0.170621
0.170416
0.170231
0.170065
0.169915
0.169781
0.16966
0.169552
0.169454
0.169366
0.169286
0.169213
0.169145
0.169083
0.169024
0.168969
0.168916
0.168866
0.168816
0.168767
0.168719
0.16867
0.168622
0.168572
0.168522
0.16847
0.168418
0.168363
0.168308
0.16825
0.168191
0.168129
0.168066
0.168
0.174136
0.173867
0.173573
0.173255
0.172918
0.172564
0.172198
0.171824
0.171445
0.171067
0.170692
0.170326
0.16997
0.169628
0.169301
0.168993
0.168703
0.168432
0.168182
0.167951
0.167739
0.167545
0.167369
0.167209
0.167065
0.166934
0.166815
0.166708
0.16661
0.166521
0.166439
0.166363
0.166293
0.166226
0.166164
0.166103
0.166045
0.165988
0.165932
0.165875
0.165819
0.165762
0.165705
0.165646
0.165586
0.165524
0.16546
0.165394
0.165326
0.165256
0.165184
0.165109
0.165032
0.164952
0.164869
0.167628
0.167423
0.1672
0.16696
0.166704
0.166434
0.166155
0.165868
0.165576
0.165284
0.164994
0.164709
0.164431
0.164164
0.163908
0.163665
0.163436
0.163222
0.163023
0.162839
0.16267
0.162514
0.162372
0.162242
0.162124
0.162016
0.161917
0.161826
0.161742
0.161664
0.161591
0.161522
0.161457
0.161393
0.161332
0.161271
0.161211
0.161152
0.161091
0.16103
0.160968
0.160904
0.160838
0.16077
0.1607
0.160628
0.160554
0.160476
0.160396
0.160313
0.160228
0.160139
0.160048
0.159953
0.159856
0.159034
0.158894
0.158741
0.158575
0.158398
0.15821
0.158014
0.157812
0.157606
0.157397
0.15719
0.156985
0.156786
0.156593
0.156408
0.156233
0.156067
0.155912
0.155768
0.155635
0.155512
0.155399
0.155295
0.1552
0.155114
0.155034
0.15496
0.154891
0.154827
0.154766
0.154708
0.154652
0.154598
0.154544
0.15449
0.154436
0.154381
0.154325
0.154267
0.154208
0.154146
0.154082
0.154016
0.153946
0.153874
0.153799
0.153721
0.15364
0.153556
0.153469
0.153378
0.153284
0.153187
0.153087
0.152983
0.150414
0.150321
0.15022
0.150109
0.149989
0.149861
0.149725
0.149585
0.14944
0.149294
0.149147
0.149002
0.14886
0.148722
0.148591
0.148465
0.148348
0.148237
0.148135
0.14804
0.147953
0.147873
0.147799
0.147732
0.147669
0.147612
0.147558
0.147507
0.147459
0.147413
0.147367
0.147322
0.147277
0.147232
0.147185
0.147137
0.147087
0.147036
0.146982
0.146925
0.146865
0.146803
0.146737
0.146669
0.146597
0.146521
0.146443
0.146361
0.146275
0.146186
0.146094
0.145998
0.145899
0.145796
0.14569
0.141145
0.141093
0.141034
0.140968
0.140895
0.140816
0.14073
0.140639
0.140545
0.140449
0.140352
0.140255
0.140161
0.140069
0.139981
0.139898
0.13982
0.139747
0.13968
0.139618
0.139561
0.13951
0.139462
0.139419
0.139379
0.139341
0.139306
0.139272
0.139239
0.139206
0.139173
0.13914
0.139105
0.139069
0.139031
0.138991
0.138948
0.138903
0.138855
0.138804
0.138749
0.138691
0.13863
0.138565
0.138497
0.138425
0.138349
0.13827
0.138187
0.138101
0.138012
0.137918
0.137822
0.137721
0.137618
0.131346
0.131328
0.131305
0.131277
0.131243
0.131203
0.131158
0.131109
0.131056
0.131001
0.130944
0.130888
0.130832
0.130778
0.130727
0.130678
0.130633
0.130592
0.130555
0.130521
0.13049
0.130463
0.130438
0.130416
0.130395
0.130376
0.130357
0.130339
0.13032
0.130301
0.130281
0.130259
0.130235
0.130209
0.130181
0.13015
0.130116
0.130078
0.130038
0.129994
0.129947
0.129896
0.129841
0.129783
0.129721
0.129656
0.129586
0.129514
0.129437
0.129357
0.129274
0.129187
0.129096
0.129002
0.128905
0.121101
0.121113
0.121121
0.121124
0.121123
0.121116
0.121104
0.121089
0.12107
0.121048
0.121025
0.121001
0.120977
0.120955
0.120933
0.120914
0.120896
0.120881
0.120869
0.120858
0.12085
0.120843
0.120838
0.120834
0.120831
0.120828
0.120824
0.12082
0.120815
0.120809
0.120801
0.12079
0.120778
0.120762
0.120744
0.120722
0.120698
0.12067
0.120638
0.120603
0.120565
0.120523
0.120477
0.120427
0.120374
0.120317
0.120256
0.120192
0.120124
0.120053
0.119979
0.119901
0.119819
0.119735
0.119647
0.110439
0.110475
0.110509
0.110538
0.110563
0.110583
0.110599
0.110611
0.110619
0.110625
0.110629
0.110632
0.110634
0.110637
0.11064
0.110644
0.110649
0.110656
0.110664
0.110673
0.110683
0.110694
0.110706
0.110718
0.110729
0.11074
0.11075
0.110759
0.110766
0.110772
0.110775
0.110775
0.110773
0.110768
0.11076
0.110748
0.110733
0.110715
0.110693
0.110668
0.110639
0.110606
0.11057
0.11053
0.110487
0.11044
0.110389
0.110335
0.110278
0.110217
0.110153
0.110086
0.110015
0.109942
0.109865
0.0992844
0.0993409
0.0993946
0.0994445
0.0994903
0.0995317
0.0995689
0.0996022
0.0996323
0.0996597
0.099685
0.0997088
0.0997318
0.0997544
0.099777
0.0998
0.0998234
0.0998473
0.0998719
0.0998969
0.0999222
0.0999475
0.0999727
0.0999975
0.100021
0.100044
0.100066
0.100085
0.100103
0.100119
0.100132
0.100142
0.10015
0.100154
0.100156
0.100154
0.100148
0.10014
0.100127
0.100112
0.100092
0.10007
0.100044
0.100014
0.0999808
0.0999443
0.0999045
0.0998614
0.0998151
0.0997657
0.0997131
0.0996576
0.0995991
0.0995377
0.0994735
0.0873827
0.087453
0.0875207
0.0875848
0.0876451
0.0877013
0.0877536
0.0878023
0.0878477
0.0878905
0.0879312
0.0879702
0.0880081
0.0880453
0.0880821
0.0881188
0.0881554
0.088192
0.0882287
0.0882653
0.0883017
0.0883376
0.088373
0.0884074
0.0884407
0.0884726
0.0885028
0.0885311
0.0885573
0.0885811
0.0886023
0.0886208
0.0886365
0.0886492
0.0886587
0.0886652
0.0886683
0.0886683
0.0886649
0.0886582
0.0886482
0.0886349
0.0886184
0.0885986
0.0885757
0.0885496
0.0885205
0.0884883
0.0884532
0.0884151
0.0883743
0.0883307
0.0882844
0.0882355
0.0881841
0.074063
0.0741372
0.074209
0.0742779
0.0743433
0.0744052
0.0744637
0.0745189
0.0745714
0.0746214
0.0746695
0.0747161
0.0747615
0.0748061
0.0748502
0.0748939
0.0749373
0.0749805
0.0750234
0.0750659
0.075108
0.0751494
0.07519
0.0752295
0.0752677
0.0753045
0.0753395
0.0753726
0.0754036
0.0754324
0.0754587
0.0754825
0.0755036
0.0755219
0.0755374
0.07555
0.0755597
0.0755664
0.0755702
0.0755709
0.0755687
0.0755636
0.0755556
0.0755447
0.075531
0.0755145
0.0754952
0.0754734
0.0754489
0.0754219
0.0753924
0.0753605
0.0753262
0.0752897
0.0752509
0.057334
0.0573882
0.0574414
0.0574929
0.0575423
0.0575897
0.057635
0.0576783
0.05772
0.0577603
0.0577995
0.057838
0.0578759
0.0579135
0.0579509
0.0579882
0.0580256
0.0580629
0.0581001
0.0581372
0.0581739
0.0582102
0.0582459
0.0582808
0.0583147
0.0583475
0.0583789
0.0584089
0.0584372
0.0584637
0.0584883
0.0585109
0.0585314
0.0585498
0.0585659
0.0585797
0.0585913
0.0586005
0.0586074
0.058612
0.0586143
0.0586142
0.0586119
0.0586074
0.0586006
0.0585917
0.0585806
0.0585675
0.0585524
0.0585353
0.0585162
0.0584953
0.0584726
0.0584481
0.0584218
0.0294885
0.0294696
0.0294519
0.0294353
0.0294195
0.0294044
0.0293898
0.0293759
0.0293627
0.0293502
0.0293386
0.0293279
0.0293182
0.0293097
0.0293022
0.0292958
0.0292905
0.0292862
0.0292829
0.0292805
0.029279
0.0292781
0.0292779
0.0292782
0.0292788
0.0292797
0.0292808
0.029282
0.0292832
0.0292843
0.0292851
0.0292857
0.029286
0.029286
0.0292854
0.0292845
0.029283
0.029281
0.0292784
0.0292753
0.0292715
0.0292672
0.0292622
0.0292567
0.0292505
0.0292437
0.0292363
0.0292283
0.0292197
0.0292104
0.0292006
0.0291902
0.0291793
0.0291678
0.0291557
)
;

boundaryField
{
    inlet
    {
        type            fixedValue;
        value           nonuniform 0();
    }
    outlet
    {
        type            zeroGradient;
    }
    upperWall
    {
        type            kqRWallFunction;
        value           nonuniform List<scalar> 
55
(
0.0294885
0.0294696
0.0294519
0.0294353
0.0294195
0.0294044
0.0293898
0.0293759
0.0293627
0.0293502
0.0293386
0.0293279
0.0293182
0.0293097
0.0293022
0.0292958
0.0292905
0.0292862
0.0292829
0.0292805
0.029279
0.0292781
0.0292779
0.0292782
0.0292788
0.0292797
0.0292808
0.029282
0.0292832
0.0292843
0.0292851
0.0292857
0.029286
0.029286
0.0292854
0.0292845
0.029283
0.029281
0.0292784
0.0292753
0.0292715
0.0292672
0.0292622
0.0292567
0.0292505
0.0292437
0.0292363
0.0292283
0.0292197
0.0292104
0.0292006
0.0291902
0.0291793
0.0291678
0.0291557
)
;
    }
    lowerWall
    {
        type            kqRWallFunction;
        value           nonuniform List<scalar> 
49
(
0.0466346
0.0463942
0.0461477
0.0458973
0.0456451
0.0453931
0.0451427
0.0448955
0.0446525
0.0444147
0.0441831
0.0439581
0.0437404
0.0435303
0.043328
0.0431337
0.0429475
0.0427693
0.0425991
0.0424368
0.0422821
0.0421349
0.0419949
0.041862
0.0417357
0.041616
0.0415024
0.0413948
0.0412928
0.0411961
0.0411046
0.0410178
0.0409357
0.0408579
0.0407841
0.0407142
0.040648
0.0405851
0.0405255
0.0404689
0.0404152
0.0403641
0.0403156
0.0402694
0.0402253
0.0401834
0.0401434
0.0401052
0.0400686
)
;
    }
    frontAndBack
    {
        type            empty;
    }
    procBoundary3to1
    {
        type            processor;
        value           nonuniform List<scalar> 
62
(
0.0400337
0.0818907
0.103968
0.119389
0.131226
0.140612
0.140612
0.148048
0.154099
0.154099
0.158869
0.162728
0.165769
0.168139
0.169963
0.169963
0.171309
0.172349
0.173131
0.173681
0.173681
0.174028
0.174028
0.174261
0.174432
0.174547
0.174626
0.174678
0.174711
0.174731
0.174741
0.174742
0.174736
0.174722
0.174698
0.174665
0.174618
0.174554
0.174469
0.174355
0.174203