/*--------------------------------*- C++ -*----------------------------------*\
  =========                 |
  \\      /  F ield         | OpenFOAM: The Open Source CFD Toolbox
   \\    /   O peration     | Website:  https://openfoam.org
    \\  /    A nd           | Version:  6
     \\/     M anipulation  |
\*---------------------------------------------------------------------------*/
FoamFile
{
    version     2.0;
    format      ascii;
    class       volScalarField;
    location    "0.03";
    object      nut;
}
// * * * * * * * * * * * * * * * * * * * * * * * * * * * * * * * * * * * * * //

dimensions      [0 2 -1 0 0 0 0];

internalField   nonuniform List<scalar> 
3032
(
2.59943e-05
2.59007e-05
2.58039e-05
2.57047e-05
2.5604e-05
2.55024e-05
2.54006e-05
2.52991e-05
2.51985e-05
2.50991e-05
2.50014e-05
2.49056e-05
2.48119e-05
2.47206e-05
2.46318e-05
2.45456e-05
2.4462e-05
2.43811e-05
2.43029e-05
2.42273e-05
2.41544e-05
2.4084e-05
2.40162e-05
2.39507e-05
2.38876e-05
2.38268e-05
2.37681e-05
2.37114e-05
2.36567e-05
2.36038e-05
2.35527e-05
2.35033e-05
2.34554e-05
2.3409e-05
2.3364e-05
2.33203e-05
2.32778e-05
2.32364e-05
2.31961e-05
2.31568e-05
2.31184e-05
2.30808e-05
2.30441e-05
2.3008e-05
2.29726e-05
2.29379e-05
2.29037e-05
2.287e-05
2.28368e-05
0.000215269
0.000213755
0.000212224
0.000210689
0.000209158
0.00020764
0.000206142
0.000204671
0.000203231
0.000201827
0.000200462
0.000199139
0.00019786
0.000196626
0.000195438
0.000194297
0.000193201
0.000192151
0.000191145
0.000190184
0.000189265
0.000188387
0.000187548
0.000186748
0.000185985
0.000185256
0.000184561
0.000183898
0.000183265
0.00018266
0.000182083
0.000181532
0.000181005
0.0001805
0.000180018
0.000179556
0.000179112
0.000178687
0.000178279
0.000177887
0.00017751
0.000177146
0.000176796
0.000176457
0.00017613
0.000175814
0.000175508
0.00017521
0.000174922
0.000384659
0.000382026
0.000379357
0.000376671
0.000373988
0.000371322
0.000368687
0.000366095
0.000363556
0.000361079
0.00035867
0.000356334
0.000354076
0.000351897
0.0003498
0.000347785
0.000345851
0.000343999
0.000342227
0.000340533
0.000338915
0.000337371
0.000335898
0.000334494
0.000333155
0.00033188
0.000330664
0.000329506
0.000328402
0.00032735
0.000326347
0.000325391
0.000324478
0.000323607
0.000322776
0.000321981
0.000321221
0.000320495
0.000319799
0.000319132
0.000318492
0.000317878
0.000317288
0.00031672
0.000316173
0.000315646
0.000315137
0.000314646
0.00031417
0.000510633
0.000507346
0.000504006
0.000500638
0.000497267
0.000493912
0.000490592
0.000487324
0.000484121
0.000480993
0.00047795
0.000474999
0.000472146
0.000469393
0.000466743
0.000464198
0.000461756
0.000459418
0.000457182
0.000455045
0.000453004
0.000451058
0.000449202
0.000447433
0.000445747
0.000444142
0.000442613
0.000441156
0.000439769
0.000438448
0.000437189
0.00043599
0.000434846
0.000433755
0.000432714
0.000431721
0.000430771
0.000429864
0.000428996
0.000428166
0.00042737
0.000426606
0.000425874
0.00042517
0.000424493
0.000423841
0.000423213
0.000422607
0.000422021
0.000606058
0.000602423
0.000598718
0.000594975
0.00059122
0.000587478
0.000583772
0.00058012
0.000576538
0.00057304
0.000569637
0.000566337
0.000563147
0.00056007
0.00055711
0.000554268
0.000551543
0.000548936
0.000546443
0.000544063
0.000541792
0.000539626
0.000537563
0.000535598
0.000533726
0.000531945
0.000530248
0.000528634
0.000527097
0.000525633
0.000524239
0.000522911
0.000521645
0.000520439
0.000519288
0.00051819
0.000517141
0.000516139
0.000515181
0.000514264
0.000513387
0.000512545
0.000511738
0.000510963
0.000510218
0.000509502
0.000508811
0.000508145
0.000507502
0.000679447
0.000675672
0.000671812
0.000667898
0.000663964
0.000660036
0.00065614
0.000652297
0.000648526
0.000644843
0.00064126
0.000637786
0.000634429
0.000631195
0.000628085
0.000625102
0.000622246
0.000619515
0.000616907
0.00061442
0.000612049
0.000609791
0.000607642
0.000605596
0.00060365
0.000601799
0.000600038
0.000598363
0.000596769
0.000595252
0.000593808
0.000592434
0.000591124
0.000589876
0.000588686
0.000587551
0.000586467
0.000585432
0.000584443
0.000583496
0.00058259
0.000581722
0.000580889
0.00058009
0.000579322
0.000578583
0.000577871
0.000577185
0.000576522
0.000736132
0.000732371
0.000728504
0.000724567
0.000720597
0.000716622
0.000712672
0.000708771
0.00070494
0.000701196
0.000697554
0.000694025
0.000690617
0.000687336
0.000684186
0.000681168
0.000678282
0.000675527
0.0006729
0.000670398
0.000668018
0.000665754
0.000663602
0.000661558
0.000659615
0.000657769
0.000656015
0.000654349
0.000652764
0.000651258
0.000649826
0.000648463
0.000647165
0.000645929
0.000644751
0.000643628
0.000642556
0.000641533
0.000640555
0.00063962
0.000638725
0.000637867
0.000637045
0.000636256
0.000635497
0.000634768
0.000634065
0.000633388
0.000632734
0.000632101
0.000779697
0.00077607
0.000772311
0.000768462
0.00076456
0.00076064
0.000756733
0.000752866
0.000749064
0.000745345
0.000741727
0.000738222
0.000734839
0.000731587
0.000728467
0.000725484
0.000722636
0.000719923
0.000717341
0.000714888
0.000712558
0.000710347
0.00070825
0.000706261
0.000704375
0.000702586
0.000700889
0.000699279
0.000697751
0.0006963
0.000694921
0.000693611
0.000692365
0.000691179
0.00069005
0.000688974
0.000687948
0.000686969
0.000686033
0.000685139
0.000684284
0.000683464
0.000682679
0.000681925
0.000681201
0.000680504
0.000679834
0.000679187
0.000678562
0.000677958
0.000812761
0.000809363
0.000805804
0.000802126
0.000798373
0.000794581
0.000790787
0.000787019
0.000783307
0.000779671
0.000776131
0.000772702
0.000769394
0.000766217
0.000763175
0.00076027
0.000757503
0.000754873
0.000752377
0.000750011
0.00074777
0.000745649
0.000743643
0.000741745
0.00073995
0.000738251
0.000736643
0.000735121
0.00073368
0.000732313
0.000731018
0.000729788
0.00072862
0.00072751
0.000726454
0.000725449
0.000724492
0.000723579
0.000722707
0.000721875
0.000721079
0.000720317
0.000719587
0.000718886
0.000718213
0.000717566
0.000716943
0.000716343
0.000715763
0.000715202
0.000714659
0.000837372
0.000834282
0.000830994
0.000827554
0.000824009
0.0008204
0.000816767
0.000813144
0.000809562
0.000806046
0.000802618
0.000799296
0.000796093
0.000793019
0.000790079
0.000787277
0.000784615
0.000782091
0.000779702
0.000777444
0.000775313
0.000773303
0.000771407
0.000769619
0.000767934
0.000766345
0.000764845
0.000763429
0.000762091
0.000760827
0.00075963
0.000758497
0.000757423
0.000756405
0.000755437
0.000754518
0.000753643
0.00075281
0.000752016
0.000751258
0.000750534
0.000749841
0.000749178
0.000748542
0.000747931
0.000747345
0.00074678
0.000746235
0.00074571
0.000745202
0.00074471
0.000855211
0.000852491
0.000849529
0.000846376
0.000843083
0.000839697
0.000836259
0.00083281
0.000829383
0.000826009
0.000822713
0.000819514
0.000816429
0.00081347
0.000810643
0.000807954
0.000805405
0.000802995
0.000800721
0.00079858
0.000796566
0.000794673
0.000792895
0.000791226
0.000789658
0.000788184
0.000786799
0.000785497
0.00078427
0.000783115
0.000782025
0.000780996
0.000780023
0.000779102
0.00077823
0.000777403
0.000776618
0.000775871
0.000775161
0.000774484
0.000773837
0.00077322
0.00077263
0.000772064
0.000771522
0.000771001
0.0007705
0.000770017
0.000769551
0.000769101
0.000768665
0.000867685
0.000865381
0.000862787
0.000859958
0.000856948
0.000853809
0.000850589
0.000847331
0.000844074
0.000840853
0.000837696
0.000834626
0.000831663
0.00082882
0.000826107
0.000823531
0.000821093
0.000818795
0.000816634
0.000814607
0.000812707
0.00081093
0.000809267
0.000807714
0.000806261
0.000804902
0.000803631
0.000802441
0.000801325
0.000800277
0.000799294
0.000798368
0.000797496
0.000796674
0.000795898
0.000795163
0.000794468
0.000793809
0.000793182
0.000792587
0.00079202
0.000791479
0.000790962
0.000790469
0.000789995
0.000789541
0.000789105
0.000788685
0.00078828
0.000787889
0.000787511
0.000875982
0.000874125
0.000871925
0.000869442
0.000866735
0.000863859
0.000860868
0.000857811
0.000854731
0.000851666
0.000848648
0.000845706
0.000842861
0.00084013
0.000837525
0.000835053
0.00083272
0.000830525
0.000828468
0.000826545
0.000824751
0.00082308
0.000821525
0.000820078
0.000818733
0.000817481
0.000816316
0.000815231
0.000814219
0.000813274
0.00081239
0.000811563
0.000810787
0.000810058
0.000809372
0.000808727
0.000808117
0.000807541
0.000806996
0.000806479
0.000805987
0.00080552
0.000805075
0.00080465
0.000804244
0.000803855
0.000803481
0.000803123
0.000802777
0.000802443
0.00080212
0.000881092
0.000879698
0.000877906
0.00087578
0.000873383
0.000870778
0.000868022
0.000865167
0.000862263
0.000859353
0.000856472
0.000853652
0.000850918
0.00084829
0.000845783
0.000843406
0.000841165
0.000839062
0.000837097
0.000835266
0.000833565
0.000831988
0.000830527
0.000829176
0.000827926
0.00082677
0.0008257
0.000824709
0.00082379
0.000822937
0.000822144
0.000821406
0.000820717
0.000820073
0.000819471
0.000818906
0.000818375
0.000817876
0.000817404
0.000816959
0.000816538
0.000816139
0.00081576
0.000815399
0.000815054
0.000814725
0.000814411
0.000814109
0.000813818
0.000813538
0.000813268
0.000813005
0.000883833
0.000882903
0.000881517
0.000879747
0.00087766
0.000875324
0.0008728
0.000870146
0.000867415
0.000864654
0.000861903
0.000859199
0.000856568
0.000854035
0.000851615
0.000849321
0.000847161
0.000845137
0.00084325
0.000841498
0.000839877
0.00083838
0.000837
0.000835731
0.000834563
0.000833489
0.000832501
0.000831592
0.000830755
0.000829983
0.000829269
0.000828609
0.000827996
0.000827428
0.000826899
0.000826405
0.000825944
0.000825512
0.000825107
0.000824726
0.000824367
0.000824029
0.000823708
0.000823404
0.000823115
0.00082284
0.000822578
0.000822327
0.000822086
0.000821854
0.000821631
0.000821414
0.000884904
0.000884427
0.000883441
0.000882021
0.000880241
0.000878169
0.000875874
0.000873418
0.000870857
0.000868242
0.000865619
0.000863025
0.000860492
0.000858047
0.000855707
0.000853489
0.0008514
0.000849445
0.000847627
0.000845943
0.00084439
0.000842962
0.000841652
0.000840453
0.000839356
0.000838353
0.000837437
0.000836599
0.000835832
0.000835129
0.000834485
0.000833892
0.000833347
0.000832844
0.000832379
0.000831948
0.000831548
0.000831175
0.000830828
0.000830503
0.000830199
0.000829913
0.000829644
0.00082939
0.00082915
0.000828922
0.000828706
0.000828499
0.000828302
0.000828113
0.00082793
0.000827754
0.000884707
0.000884644
0.000884023
0.000882925
0.000881426
0.000879601
0.00087752
0.000875248
0.000872847
0.00087037
0.000867865
0.000865374
0.000862931
0.000860565
0.000858298
0.000856145
0.000854118
0.000852223
0.000850462
0.000848835
0.000847338
0.000845966
0.000844713
0.000843571
0.000842531
0.000841586
0.000840728
0.000839948
0.000839238
0.000838593
0.000838005
0.000837469
0.000836979
0.00083653
0.000836117
0.000835738
0.000835389
0.000835066
0.000834767
0.000834489
0.00083423
0.000833989
0.000833763
0.000833551
0.000833352
0.000833164
0.000832987
0.000832818
0.000832657
0.000832504
0.000832357
0.000832214
0.000883873
0.000884139
0.000883813
0.000882976
0.000881709
0.000880088
0.000878186
0.000876071
0.000873806
0.000871448
0.000869046
0.000866645
0.000864281
0.000861985
0.00085978
0.000857684
0.000855709
0.000853863
0.00085215
0.000850569
0.000849117
0.000847791
0.000846582
0.000845485
0.000844491
0.000843591
0.000842778
0.000842043
0.000841379
0.000840779
0.000840235
0.000839743
0.000839296
0.000838889
0.000838519
0.000838181
0.000837871
0.000837587
0.000837326
0.000837086
0.000836863
0.000836658
0.000836466
0.000836288
0.000836122
0.000835966
0.00083582
0.000835682
0.000835551
0.000835427
0.000835308
0.000835194
0.000835082
0.000882792
0.000883306
0.000883205
0.000882571
0.000881487
0.00088003
0.000878274
0.00087629
0.000874141
0.000871884
0.000869573
0.000867251
0.000864957
0.000862722
0.000860573
0.000858527
0.000856599
0.000854796
0.000853123
0.000851581
0.000850168
0.000848879
0.000847708
0.000846647
0.000845689
0.000844826
0.000844049
0.000843351
0.000842722
0.000842158
0.000841649
0.000841191
0.000840778
0.000840405
0.000840068
0.000839762
0.000839484
0.000839231
0.000839
0.000838789
0.000838595
0.000838417
0.000838253
0.000838102
0.000837961
0.000837831
0.000837709
0.000837595
0.000837488
0.000837387
0.000837291
0.000837199
0.00083711
0.000837023
0.000881665
0.000882354
0.000882415
0.000881933
0.000880988
0.00087966
0.000878022
0.000876145
0.000874092
0.000871923
0.000869689
0.000867437
0.000865206
0.000863028
0.000860929
0.000858929
0.000857043
0.000855279
0.000853643
0.000852136
0.000850757
0.0008495
0.00084836
0.000847331
0.000846403
0.000845571
0.000844824
0.000844154
0.000843555
0.000843019
0.000842539
0.000842109
0.000841724
0.000841377
0.000841066
0.000840786
0.000840533
0.000840304
0.000840097
0.000839909
0.000839738
0.000839582
0.00083944
0.00083931
0.00083919
0.000839079
0.000838977
0.000838882
0.000838794
0.000838711
0.000838633
0.000838559
0.000838487
0.000838417
0.000880583
0.000881386
0.000881559
0.000881183
0.000880342
0.000879112
0.000877568
0.000875777
0.000873805
0.00087171
0.000869545
0.000867355
0.000865181
0.000863054
0.000861003
0.000859046
0.000857199
0.000855472
0.00085387
0.000852395
0.000851046
0.000849818
0.000848707
0.000847704
0.000846804
0.000845997
0.000845275
0.000844631
0.000844056
0.000843544
0.000843088
0.000842681
0.000842317
0.000841993
0.000841703
0.000841444
0.000841211
0.000841002
0.000840814
0.000840645
0.000840492
0.000840354
0.000840229
0.000840115
0.000840012
0.000839917
0.00083983
0.000839751
0.000839677
0.000839609
0.000839545
0.000839484
0.000839426
0.000839368
0.000879582
0.00088045
0.000880691
0.000880389
0.000879621
0.000878466
0.000876994
0.000875274
0.000873369
0.000871338
0.000869233
0.0008671
0.000864977
0.000862898
0.000860891
0.000858975
0.000857165
0.000855473
0.000853904
0.000852459
0.000851138
0.000849937
0.000848852
0.000847874
0.000846997
0.000846213
0.000845514
0.000844891
0.000844338
0.000843846
0.000843409
0.000843022
0.000842677
0.000842371
0.000842099
0.000841857
0.000841641
0.000841448
0.000841276
0.000841122
0.000840984
0.000840861
0.000840749
0.000840649
0.000840558
0.000840477
0.000840402
0.000840335
0.000840273
0.000840216
0.000840163
0.000840113
0.000840065
0.000840017
0.000878665
0.000879561
0.00087984
0.000879583
0.000878866
0.000877765
0.00087635
0.000874687
0.000872839
0.000870864
0.000868812
0.000866729
0.000864654
0.00086262
0.000860655
0.000858777
0.000857004
0.000855345
0.000853807
0.000852391
0.000851097
0.000849922
0.000848861
0.000847906
0.000847051
0.000846288
0.000845609
0.000845005
0.00084447
0.000843997
0.000843577
0.000843206
0.000842878
0.000842588
0.000842331
0.000842103
0.000841901
0.000841722
0.000841563
0.000841422
0.000841296
0.000841185
0.000841085
0.000840995
0.000840916
0.000840844
0.00084078
0.000840722
0.00084067
0.000840622
0.000840578
0.000840536
0.000840496
0.000840455
0.000877825
0.000878721
0.000879015
0.000878782
0.000878099
0.000877038
0.000875666
0.00087405
0.000872251
0.000870324
0.000868319
0.000866283
0.000864252
0.000862261
0.000860335
0.000858495
0.000856756
0.00085513
0.000853622
0.000852234
0.000850966
0.000849816
0.000848777
0.000847844
0.000847009
0.000846265
0.000845605
0.000845019
0.000844501
0.000844043
0.000843639
0.000843283
0.000842969
0.000842692
0.000842448
0.000842233
0.000842043
0.000841876
0.000841728
0.000841598
0.000841482
0.00084138
0.00084129
0.00084121
0.000841139
0.000841076
0.00084102
0.00084097
0.000840925
0.000840885
0.000840848
0.000840813
0.000840779
0.000840744
0.000877051
0.000877928
0.000878218
0.000877996
0.000877333
0.0008763
0.000874962
0.000873385
0.000871626
0.000869742
0.00086778
0.000865786
0.000863798
0.000861846
0.000859958
0.000858154
0.000856449
0.000854854
0.000853375
0.000852015
0.000850772
0.000849645
0.000848628
0.000847716
0.0008469
0.000846175
0.000845531
0.000844961
0.000844458
0.000844015
0.000843625
0.000843282
0.00084298
0.000842716
0.000842483
0.000842279
0.0008421
0.000841943
0.000841805
0.000841683
0.000841577
0.000841483
0.000841401
0.000841329
0.000841265
0.00084121
0.00084116
0.000841117
0.000841079
0.000841044
0.000841013
0.000840984
0.000840955
0.000840924
0.000876332
0.000877176
0.000877451
0.000877227
0.000876574
0.00087556
0.00087425
0.000872704
0.000870981
0.000869134
0.000867212
0.000865258
0.000863308
0.000861394
0.000859542
0.000857773
0.000856101
0.000854536
0.000853086
0.000851751
0.000850533
0.000849429
0.000848433
0.00084754
0.000846743
0.000846034
0.000845406
0.000844852
0.000844363
0.000843933
0.000843556
0.000843224
0.000842934
0.00084268
0.000842458
0.000842264
0.000842094
0.000841945
0.000841816
0.000841702
0.000841603
0.000841517
0.000841442
0.000841376
0.000841319
0.000841269
0.000841226
0.000841188
0.000841155
0.000841125
0.000841099
0.000841074
0.000841049
0.000841021
0.000875656
0.00087646
0.00087671
0.000876477
0.000875827
0.000874826
0.000873535
0.000872016
0.000870324
0.000868512
0.000866626
0.000864708
0.000862795
0.000860917
0.0008591
0.000857364
0.000855723
0.000854188
0.000852765
0.000851457
0.000850262
0.00084918
0.000848204
0.00084733
0.00084655
0.000845857
0.000845244
0.000844704
0.000844228
0.00084381
0.000843444
0.000843124
0.000842844
0.0008426
0.000842387
0.000842201
0.000842039
0.000841898
0.000841776
0.000841669
0.000841577
0.000841497
0.000841428
0.000841368
0.000841316
0.000841271
0.000841232
0.000841199
0.00084117
0.000841145
0.000841122
0.000841101
0.000841079
0.000841055
0.000874998
0.000875753
0.000875973
0.000875724
0.000875071
0.000874076
0.000872802
0.000871305
0.000869641
0.00086786
0.000866008
0.000864125
0.000862248
0.000860406
0.000858623
0.00085692
0.00085531
0.000853804
0.000852409
0.000851125
0.000849955
0.000848894
0.000847938
0.000847082
0.000846319
0.000845642
0.000845044
0.000844517
0.000844054
0.000843648
0.000843292
0.000842982
0.000842712
0.000842477
0.000842272
0.000842094
0.00084194
0.000841806
0.00084169
0.00084159
0.000841504
0.000841429
0.000841365
0.00084131
0.000841263
0.000841222
0.000841188
0.000841158
0.000841133
0.000841111
0.000841092
0.000841073
0.000841055
0.000841033
0.000874302
0.000875002
0.000875184
0.000874913
0.000874253
0.000873262
0.000872001
0.000870526
0.000868889
0.000867139
0.000865321
0.000863475
0.000861634
0.000859828
0.000858081
0.000856412
0.000854835
0.00085336
0.000851993
0.000850737
0.00084959
0.000848552
0.000847617
0.000846781
0.000846036
0.000845375
0.000844791
0.000844278
0.000843827
0.000843433
0.000843089
0.000842789
0.000842528
0.000842301
0.000842104
0.000841934
0.000841787
0.00084166
0.00084155
0.000841455
0.000841374
0.000841305
0.000841245
0.000841194
0.000841151
0.000841114
0.000841083
0.000841057
0.000841035
0.000841016
0.000840999
0.000840983
0.000840966
0.000840947
0.000873523
0.000874158
0.000874297
0.000874
0.000873328
0.00087234
0.000871092
0.000869638
0.00086803
0.000866313
0.000864532
0.000862724
0.000860923
0.000859157
0.000857449
0.000855818
0.000854277
0.000852835
0.0008515
0.000850272
0.000849153
0.000848139
0.000847227
0.000846411
0.000845685
0.000845041
0.000844474
0.000843974
0.000843537
0.000843155
0.000842822
0.000842532
0.00084228
0.000842062
0.000841874
0.000841711
0.000841571
0.00084145
0.000841346
0.000841257
0.00084118
0.000841115
0.00084106
0.000841013
0.000840973
0.000840939
0.000840911
0.000840887
0.000840867
0.00084085
0.000840835
0.000840821
0.000840806
0.000840788
0.000872625
0.00087319
0.00087328
0.000872953
0.000872269
0.000871282
0.000870047
0.000868616
0.000867037
0.000865357
0.000863616
0.000861851
0.000860093
0.000858371
0.000856705
0.000855115
0.000853613
0.000852209
0.000850908
0.000849713
0.000848623
0.000847637
0.00084675
0.000845956
0.00084525
0.000844626
0.000844075
0.000843591
0.000843168
0.000842798
0.000842477
0.000842198
0.000841956
0.000841747
0.000841566
0.000841411
0.000841277
0.000841162
0.000841064
0.00084098
0.000840908
0.000840847
0.000840796
0.000840752
0.000840715
0.000840684
0.000840657
0.000840635
0.000840617
0.000840601
0.000840587
0.000840574
0.00084056
0.000840543
0.00087157
0.000872058
0.000872094
0.000871736
0.000871037
0.000870051
0.000868831
0.000867425
0.00086588
0.00086424
0.000862543
0.000860824
0.000859115
0.00085744
0.000855822
0.000854278
0.00085282
0.000851457
0.000850194
0.000849034
0.000847978
0.000847021
0.000846162
0.000845393
0.00084471
0.000844106
0.000843574
0.000843107
0.000842699
0.000842343
0.000842034
0.000841766
0.000841535
0.000841335
0.000841162
0.000841014
0.000840887
0.000840779
0.000840686
0.000840606
0.000840539
0.000840481
0.000840433
0.000840391
0.000840357
0.000840327
0.000840303
0.000840282
0.000840264
0.000840248
0.000840234
0.000840221
0.000840207
0.00084019
0.000870308
0.000870714
0.000870695
0.000870303
0.00086959
0.000868607
0.000867404
0.000866026
0.000864519
0.000862923
0.000861274
0.000859608
0.000857952
0.000856331
0.000854765
0.000853272
0.000851862
0.000850545
0.000849326
0.000848206
0.000847186
0.000846263
0.000845434
0.000844693
0.000844035
0.000843454
0.000842942
0.000842494
0.000842102
0.000841761
0.000841466
0.00084121
0.000840989
0.000840799
0.000840635
0.000840495
0.000840374
0.000840271
0.000840184
0.000840109
0.000840045
0.000839991
0.000839944
0.000839905
0.000839872
0.000839843
0.000839819
0.000839798
0.00083978
0.000839763
0.000839748
0.000839733
0.000839717
0.000839699
0.000868782
0.000869103
0.000869027
0.000868601
0.000867876
0.000866899
0.000865716
0.000864371
0.000862906
0.000861359
0.000859766
0.000858157
0.00085656
0.000854999
0.000853493
0.000852056
0.000850701
0.000849435
0.000848263
0.000847188
0.000846209
0.000845323
0.000844528
0.000843819
0.000843189
0.000842632
0.000842143
0.000841715
0.000841342
0.000841018
0.000840736
0.000840493
0.000840284
0.000840104
0.000839949
0.000839816
0.000839702
0.000839605
0.000839522
0.000839451
0.00083939
0.000839338
0.000839294
0.000839256
0.000839223
0.000839194
0.000839169
0.000839146
0.000839126
0.000839107
0.000839089
0.000839071
0.000839052
0.00083903
0.000866923
0.000867157
0.000867023
0.000866565
0.000865831
0.000864863
0.000863705
0.000862399
0.000860983
0.000859492
0.00085796
0.000856416
0.000854886
0.000853392
0.00085195
0.000850577
0.000849282
0.000848074
0.000846956
0.00084593
0.000844996
0.000844153
0.000843396
0.000842721
0.000842122
0.000841594
0.00084113
0.000840724
0.000840371
0.000840064
0.000839798
0.000839569
0.000839372
0.000839202
0.000839056
0.000838931
0.000838824
0.000838732
0.000838653
0.000838585
0.000838526
0.000838476
0.000838432
0.000838393
0.000838359
0.000838328
0.0008383
0.000838274
0.00083825
0.000838227
0.000838204
0.00083818
0.000838155
0.000838127
0.000864644
0.000864792
0.000864602
0.000864117
0.000863377
0.000862424
0.000861298
0.000860037
0.000858677
0.00085725
0.000855787
0.000854316
0.00085286
0.00085144
0.000850071
0.000848768
0.000847541
0.000846396
0.000845338
0.000844367
0.000843485
0.000842688
0.000841973
0.000841336
0.000840772
0.000840274
0.000839838
0.000839457
0.000839125
0.000838837
0.000838588
0.000838374
0.000838189
0.00083803
0.000837893
0.000837775
0.000837673
0.000837586
0.00083751
0.000837444
0.000837386
0.000837335
0.00083729
0.000837249
0.000837211
0.000837176
0.000837143
0.000837111
0.00083708
0.000837049
0.000837018
0.000836985
0.00083695
0.000836912
0.000861843
0.000861907
0.000861666
0.000861157
0.000860418
0.000859488
0.000858401
0.000857193
0.000855897
0.000854542
0.000853157
0.000851767
0.000850394
0.000849056
0.000847769
0.000846544
0.000845392
0.000844317
0.000843325
0.000842415
0.000841589
0.000840844
0.000840176
0.000839581
0.000839054
0.000838591
0.000838185
0.00083783
0.000837521
0.000837254
0.000837023
0.000836823
0.000836651
0.000836502
0.000836373
0.000836262
0.000836166
0.000836081
0.000836007
0.000835941
0.000835882
0.000835828
0.000835778
0.000835732
0.000835688
0.000835645
0.000835604
0.000835562
0.00083552
0.000835477
0.000835433
0.000835386
0.000835337
0.000835284
0.000858388
0.000858374
0.000858088
0.000857564
0.000856835
0.000855935
0.000854896
0.000853751
0.000852528
0.000851255
0.000849957
0.000848658
0.000847377
0.00084613
0.000844932
0.000843794
0.000842724
0.000841727
0.000840807
0.000839965
0.0008392
0.000838511
0.000837895
0.000837346
0.00083686
0.000836433
0.000836059
0.000835733
0.000835449
0.000835203
0.00083499
0.000834805
0.000834645
0.000834506
0.000834384
0.000834278
0.000834184
0.000834101
0.000834025
0.000833957
0.000833893
0.000833833
0.000833775
0.00083372
0.000833665
0.00083361
0.000833555
0.000833498
0.00083344
0.000833379
0.000833316
0.00083325
0.000833179
0.000833105
0.000854372
0.00085429
0.000853968
0.000853436
0.000852724
0.000851861
0.000850876
0.000849797
0.000848652
0.000847465
0.000846258
0.000845053
0.000843866
0.000842714
0.000841607
0.000840558
0.000839572
0.000838654
0.000837808
0.000837035
0.000836333
0.000835701
0.000835136
0.000834634
0.000834189
0.000833798
0.000833456
0.000833157
0.000832896
0.000832669
0.000832471
0.000832299
0.000832148
0.000832016
0.000831898
0.000831793
0.000831698
0.000831611
0.00083153
0.000831454
0.00083138
0.000831308
0.000831237
0.000831166
0.000831094
0.00083102
0.000830944
0.000830865
0.000830783
0.000830697
0.000830607
0.000830512
0.000830412
0.000830306
0.000849601
0.000849462
0.000849114
0.000848583
0.000847895
0.000847076
0.000846151
0.000845147
0.000844085
0.00084299
0.00084188
0.000840773
0.000839686
0.000838632
0.000837622
0.000836665
0.000835767
0.000834932
0.000834162
0.000833459
0.000832822
0.000832249
0.000831736
0.00083128
0.000830876
0.000830521
0.000830209
0.000829935
0.000829696
0.000829486
0.000829301
0.000829138
0.000828993
0.000828863
0.000828745
0.000828636
0.000828535
0.000828439
0.000828346
0.000828255
0.000828165
0.000828074
0.000827982
0.000827887
0.00082779
0.000827688
0.000827582
0.000827472
0.000827356
0.000827234
0.000827106
0.000826972
0.000826831
0.000826682
0.000843126
0.000842942
0.000842582
0.000842066
0.000841419
0.000840663
0.000839819
0.00083891
0.000837954
0.000836972
0.00083598
0.000834994
0.000834027
0.000833092
0.000832196
0.000831349
0.000830555
0.000829817
0.000829139
0.000828519
0.000827958
0.000827453
0.000827001
0.000826599
0.000826243
0.000825928
0.00082565
0.000825405
0.000825188
0.000824996
0.000824825
0.00082467
0.000824529
0.000824398
0.000824276
0.000824159
0.000824046
0.000823935
0.000823824
0.000823711
0.000823596
0.000823478
0.000823355
0.000823228
0.000823094
0.000822954
0.000822806
0.000822652
0.000822489
0.000822319
0.00082214
0.000821952
0.000821755
0.000821548
0.000834214
0.00083415
0.000833932
0.000833575
0.000833097
0.000832514
0.000831846
0.000831109
0.000830321
0.000829498
0.000828656
0.000827808
0.000826967
0.000826146
0.000825351
0.000824593
0.000823876
0.000823205
0.000822583
0.000822011
0.000821489
0.000821016
0.00082059
0.000820209
0.000819869
0.000819566
0.000819296
0.000819057
0.000818842
0.00081865
0.000818475
0.000818315
0.000818165
0.000818024
0.000817888
0.000817756
0.000817624
0.000817491
0.000817356
0.000817217
0.000817073
0.000816922
0.000816764
0.000816598
0.000816423
0.000816238
0.000816044
0.000815839
0.000815624
0.000815398
0.00081516
0.000814911
0.00081465
0.000814376
0.00081409
0.000821538
0.000821429
0.000821209
0.000820889
0.00082048
0.000819995
0.000819448
0.000818852
0.000818218
0.00081756
0.00081689
0.000816217
0.000815551
0.000814902
0.000814275
0.000813678
0.000813115
0.000812588
0.0008121
0.000811652
0.000811243
0.000810872
0.000810538
0.000810237
0.000809967
0.000809724
0.000809505
0.000809307
0.000809125
0.000808957
0.000808798
0.000808647
0.000808499
0.000808353
0.000808206
0.000808056
0.000807901
0.000807739
0.000807569
0.000807391
0.000807202
0.000807001
0.000806789
0.000806564
0.000806326
0.000806074
0.000805809
0.000805528
0.000805233
0.000804924
0.000804599
0.000804258
0.000803902
0.00080353
0.000803142
0.000803129
0.00080302
0.000802843
0.000802604
0.000802309
0.000801966
0.000801583
0.000801168
0.000800729
0.000800274
0.000799811
0.000799348
0.00079889
0.000798444
0.000798014
0.000797605
0.000797219
0.00079686
0.000796527
0.000796221
0.000795942
0.000795688
0.000795458
0.000795249
0.000795059
0.000794884
0.000794722
0.000794569
0.000794423
0.00079428
0.000794138
0.000793994
0.000793846
0.000793691
0.000793527
0.000793353
0.000793168
0.000792969
0.000792756
0.000792528
0.000792284
0.000792022
0.000791744
0.000791447
0.000791133
0.0007908
0.000790448
0.000790077
0.000789686
0.000789277
0.000788848
0.0007884
0.000787932
0.000787444
0.000786936
0.000775582
0.000775533
0.000775456
0.000775353
0.000775225
0.000775073
0.000774902
0.000774713
0.00077451
0.000774298
0.00077408
0.000773859
0.00077364
0.000773426
0.00077322
0.000773023
0.000772837
0.000772665
0.000772505
0.000772358
0.000772223
0.000772099
0.000771984
0.000771876
0.000771774
0.000771674
0.000771573
0.000771471
0.000771363
0.000771247
0.000771122
0.000770986
0.000770835
0.000770669
0.000770486
0.000770285
0.000770064
0.000769823
0.000769561
0.000769277
0.000768971
0.000768642
0.00076829
0.000767914
0.000767515
0.000767092
0.000766646
0.000766175
0.000765682
0.000765164
0.000764623
0.000764058
0.00076347
0.000762859
0.000762224
0.000732883
0.000732965
0.000733055
0.000733148
0.00073324
0.000733328
0.000733411
0.000733486
0.000733552
0.000733611
0.000733662
0.000733706
0.000733744
0.000733777
0.000733807
0.000733834
0.000733859
0.000733882
0.000733902
0.000733921
0.000733936
0.000733947
0.000733952
0.000733951
0.00073394
0.000733918
0.000733884
0.000733835
0.000733769
0.000733685
0.000733581
0.000733456
0.000733307
0.000733135
0.000732938
0.000732715
0.000732465
0.000732189
0.000731884
0.000731552
0.000731192
0.000730804
0.000730387
0.000729943
0.00072947
0.00072897
0.000728442
0.000727886
0.000727304
0.000726694
0.000726058
0.000725395
0.000724706
0.000723991
0.00072325
0.0006748
0.000675118
0.000675464
0.000675829
0.000676205
0.000676584
0.000676961
0.000677331
0.000677691
0.000678037
0.000678369
0.000678686
0.000678986
0.00067927
0.000679538
0.00067979
0.000680026
0.000680247
0.000680452
0.00068064
0.000680813
0.000680967
0.000681104
0.000681221
0.000681317
0.000681391
0.000681442
0.000681468
0.000681469
0.000681442
0.000681387
0.000681303
0.000681189
0.000681044
0.000680868
0.000680661
0.000680421
0.00068015
0.000679847