/*--------------------------------*- C++ -*----------------------------------*\
  =========                 |
  \\      /  F ield         | OpenFOAM: The Open Source CFD Toolbox
   \\    /   O peration     | Website:  https://openfoam.org
    \\  /    A nd           | Version:  6
     \\/     M anipulation  |
\*---------------------------------------------------------------------------*/
FoamFile
{
    version     2.0;
    format      ascii;
    class       volScalarField;
    location    "0.03";
    object      p;
}
// * * * * * * * * * * * * * * * * * * * * * * * * * * * * * * * * * * * * * //

dimensions      [0 2 -2 0 0 0 0];

internalField   nonuniform List<scalar> 
3032
(
0.199522
0.202084
0.204361
0.20637
0.208126
0.209647
0.21095
0.212051
0.212967
0.213713
0.214305
0.214756
0.215081
0.215293
0.215404
0.215424
0.215364
0.215233
0.215041
0.214795
0.214503
0.214171
0.213806
0.213412
0.212994
0.212558
0.212106
0.211643
0.211171
0.210693
0.210212
0.209729
0.209247
0.208767
0.208291
0.207819
0.207353
0.206894
0.206441
0.205997
0.205561
0.205134
0.204716
0.204307
0.203908
0.203517
0.203137
0.202765
0.202402
0.193858
0.196636
0.199134
0.201365
0.203345
0.205089
0.206612
0.20793
0.209058
0.210011
0.210803
0.211448
0.21196
0.212351
0.212632
0.212816
0.212912
0.212929
0.212878
0.212766
0.2126
0.212387
0.212134
0.211846
0.211528
0.211186
0.210823
0.210442
0.210048
0.209644
0.209231
0.208813
0.208391
0.207967
0.207544
0.207122
0.206702
0.206286
0.205874
0.205468
0.205067
0.204673
0.204286
0.203905
0.203533
0.203168
0.20281
0.20246
0.202118
0.188139
0.19115
0.193882
0.196348
0.198561
0.200535
0.202285
0.203823
0.205166
0.206327
0.20732
0.208159
0.208856
0.209424
0.209876
0.210221
0.210471
0.210635
0.210722
0.210741
0.2107
0.210604
0.210462
0.210279
0.21006
0.20981
0.209534
0.209236
0.208919
0.208587
0.208243
0.207889
0.207527
0.20716
0.206789
0.206416
0.206043
0.20567
0.205299
0.20493
0.204566
0.204205
0.203849
0.203498
0.203152
0.202813
0.202479
0.202152
0.20183
0.184151
0.187303
0.190178
0.192789
0.195147
0.197265
0.199157
0.200836
0.202317
0.203614
0.204739
0.205706
0.206527
0.207216
0.207784
0.208241
0.208598
0.208864
0.20905
0.209163
0.209211
0.209201
0.20914
0.209034
0.208888
0.208708
0.208498
0.208262
0.208004
0.207728
0.207436
0.207132
0.206817
0.206494
0.206165
0.205831
0.205495
0.205157
0.204819
0.204481
0.204145
0.203812
0.203481
0.203154
0.202831
0.202513
0.202199
0.20189
0.201586
0.181257
0.184504
0.187474
0.19018
0.192633
0.194845
0.196831
0.198604
0.200176
0.201563
0.202777
0.20383
0.204737
0.205509
0.206156
0.206692
0.207124
0.207464
0.20772
0.207901
0.208015
0.208068
0.208067
0.208019
0.207928
0.207801
0.207642
0.207454
0.207242
0.207009
0.206759
0.206494
0.206216
0.205929
0.205633
0.205332
0.205025
0.204716
0.204405
0.204092
0.20378
0.203469
0.20316
0.202853
0.202549
0.202249
0.201952
0.201658
0.201369
0.17907
0.182385
0.185423
0.188194
0.190712
0.192988
0.195037
0.196872
0.198506
0.199954
0.201228
0.202341
0.203306
0.204135
0.20484
0.20543
0.205918
0.206311
0.206619
0.20685
0.207013
0.207113
0.207159
0.207155
0.207108
0.207022
0.206902
0.206753
0.206578
0.206381
0.206164
0.205931
0.205685
0.205427
0.205159
0.204884
0.204604
0.204318
0.20403
0.20374
0.203448
0.203157
0.202866
0.202577
0.20229
0.202005
0.201722
0.201443
0.201167
0.177426
0.180792
0.183876
0.186692
0.189252
0.19157
0.193659
0.195533
0.197206
0.198692
0.200004
0.201156
0.202159
0.203026
0.203769
0.204397
0.204922
0.205352
0.205697
0.205965
0.206164
0.2063
0.20638
0.20641
0.206396
0.206343
0.206255
0.206136
0.205991
0.205822
0.205633
0.205427
0.205206
0.204973
0.204729
0.204477
0.204218
0.203953
0.203685
0.203414
0.203141
0.202866
0.202592
0.202318
0.202046
0.201775
0.201506
0.201239
0.200975
0.200714
0.176205
0.179608
0.182725
0.18557
0.188156
0.190498
0.192609
0.194505
0.1962
0.197707
0.199041
0.200214
0.20124
0.20213
0.202896
0.203548
0.204097
0.204552
0.204922
0.205215
0.205439
0.205601
0.205707
0.205762
0.205773
0.205745
0.205681
0.205587
0.205465
0.20532
0.205153
0.204969
0.20477
0.204557
0.204334
0.204101
0.203861
0.203614
0.203363
0.203109
0.202852
0.202593
0.202333
0.202073
0.201814
0.201556
0.201299
0.201044
0.20079
0.200539
0.175309
0.178741
0.181881
0.184743
0.187343
0.189697
0.191818
0.193723
0.195426
0.196941
0.198284
0.199466
0.200502
0.201403
0.20218
0.202846
0.203409
0.203879
0.204264
0.204574
0.204815
0.204994
0.205118
0.205192
0.205222
0.205213
0.205168
0.205093
0.20499
0.204863
0.204715
0.204549
0.204368
0.204173
0.203967
0.20375
0.203526
0.203296
0.20306
0.20282
0.202577
0.202332
0.202085
0.201838
0.201591
0.201344
0.201098
0.200854
0.200611
0.200369
0.20013
0.174661
0.178115
0.18127
0.184142
0.186748
0.189104
0.191225
0.193129
0.194831
0.196345
0.197686
0.198869
0.199905
0.200808
0.201589
0.202259
0.202827
0.203305
0.203699
0.204018
0.20427
0.204461
0.204597
0.204684
0.204728
0.204732
0.204702
0.204642
0.204554
0.204442
0.20431
0.204159
0.203993
0.203813
0.203621
0.203419
0.20321
0.202993
0.202771
0.202544
0.202314
0.202081
0.201846
0.201611
0.201375
0.201138
0.200903
0.200668
0.200434
0.200202
0.199971
0.174195
0.177667
0.180831
0.183707
0.186312
0.188663
0.190778
0.192674
0.194368
0.195873
0.197207
0.198382
0.199413
0.200312
0.20109
0.201758
0.202327
0.202806
0.203203
0.203527
0.203785
0.203983
0.204127
0.204223
0.204277
0.204292
0.204273
0.204224
0.204148
0.204049
0.203929
0.203791
0.203638
0.203471
0.203292
0.203103
0.202906
0.202702
0.202492
0.202277
0.202058
0.201837
0.201613
0.201388
0.201162
0.200936
0.20071
0.200485
0.20026
0.200036
0.199814
0.173855
0.17734
0.18051
0.183384
0.185984
0.188326
0.190431
0.192314
0.193995
0.195488
0.196809
0.197973
0.198994
0.199884
0.200655
0.201318
0.201884
0.202361
0.202758
0.203083
0.203343
0.203544
0.203694
0.203796
0.203857
0.20388
0.20387
0.20383
0.203765
0.203676
0.203567
0.20344
0.203297
0.203142
0.202974
0.202797
0.202611
0.202418
0.202219
0.202016
0.201808
0.201597
0.201384
0.201169
0.200953
0.200736
0.200519
0.200302
0.200086
0.19987
0.199656
0.173596
0.177089
0.18026
0.183131
0.185721
0.188052
0.190142
0.192011
0.193676
0.195154
0.196461
0.197611
0.19862
0.199499
0.200261
0.200916
0.201476
0.201949
0.202343
0.202667
0.202928
0.203132
0.203284
0.203391
0.203457
0.203487
0.203484
0.203452
0.203395
0.203315
0.203215
0.203098
0.202966
0.202821
0.202664
0.202497
0.202322
0.20214
0.201951
0.201758
0.20156
0.201359
0.201156
0.20095
0.200743
0.200535
0.200327
0.200119
0.199911
0.199703
0.199497
0.173384
0.17688
0.180048
0.18291
0.185489
0.187806
0.189881
0.191733
0.193381
0.194843
0.196134
0.19727
0.198265
0.199133
0.199885
0.200532
0.201085
0.201553
0.201944
0.202267
0.202527
0.202732
0.202887
0.202997
0.203068
0.203103
0.203106
0.203081
0.203032
0.20296
0.202869
0.202762
0.202639
0.202503
0.202356
0.202199
0.202034
0.201862
0.201684
0.2015
0.201313
0.201121
0.200927
0.200731
0.200533
0.200334
0.200134
0.199934
0.199734
0.199534
0.199335
0.199136
0.173181
0.176675
0.179836
0.182687
0.185253
0.187555
0.189613
0.191449
0.193081
0.194527
0.195804
0.196926
0.197909
0.198766
0.199508
0.200148
0.200695
0.201158
0.201547
0.201868
0.202128
0.202334
0.202491
0.202605
0.20268
0.20272
0.20273
0.202712
0.20267
0.202606
0.202524
0.202425
0.202312
0.202185
0.202048
0.201901
0.201746
0.201583
0.201415
0.201241
0.201063
0.200881
0.200697
0.200509
0.20032
0.200129
0.199938
0.199746
0.199554
0.199362
0.19917
0.198979
0.172987
0.176469
0.179615
0.182451
0.184999
0.187283
0.189324
0.191143
0.192758
0.194188
0.19545
0.196559
0.197531
0.198377
0.199112
0.199745
0.200286
0.200746
0.201133
0.201453
0.201714
0.201921
0.202081
0.202199
0.202279
0.202325
0.202341
0.20233
0.202296
0.202241
0.202167
0.202077
0.201973
0.201856
0.201729
0.201592
0.201447
0.201294
0.201136
0.200972
0.200804
0.200632
0.200457
0.200279
0.200099
0.199917
0.199734
0.199551
0.199367
0.199183
0.199
0.198816
0.172844
0.176298
0.179417
0.182227
0.18475
0.187011
0.18903
0.190828
0.192425
0.193839
0.195086
0.196182
0.197142
0.197979
0.198706
0.199333
0.19987
0.200327
0.200712
0.201032
0.201294
0.201504
0.201668
0.20179
0.201875
0.201927
0.201949
0.201946
0.20192
0.201873
0.201809
0.201728
0.201633
0.201526
0.201408
0.201281
0.201146
0.201004
0.200856
0.200702
0.200544
0.200382
0.200216
0.200047
0.199876
0.199704
0.19953
0.199355
0.199179
0.199004
0.198828
0.198651
0.172695
0.176114
0.179202
0.181983
0.184482
0.186719
0.188718
0.190498
0.192079
0.193478
0.194713
0.195799
0.19675
0.19758
0.198302
0.198925
0.199461
0.199917
0.200302
0.200623
0.200888
0.201101
0.201269
0.201395
0.201486
0.201544
0.201574
0.201578
0.20156
0.201522
0.201466
0.201394
0.201308
0.20121
0.201102
0.200985
0.200859
0.200726
0.200588
0.200444
0.200295
0.200142
0.199985
0.199826
0.199663
0.199499
0.199334
0.199167
0.199
0.198832
0.198663
0.198494
0.198324
0.172548
0.175927
0.17898
0.181731
0.184203
0.186417
0.188396
0.190159
0.191725
0.193112
0.194336
0.195413
0.196358
0.197183
0.197901
0.198523
0.199057
0.199514
0.199901
0.200224
0.200492
0.200709
0.200881
0.201014
0.20111
0.201176
0.201213
0.201224
0.201214
0.201184
0.201136
0.201073
0.200996
0.200907
0.200808
0.2007
0.200583
0.20046
0.20033
0.200195
0.200056
0.199911
0.199764
0.199613
0.199459
0.199303
0.199146
0.198987
0.198827
0.198666
0.198505
0.198343
0.19818
0.198016
0.172406
0.175741
0.178757
0.181476
0.183921
0.186112
0.188072
0.189818
0.19137
0.192745
0.19396
0.19503
0.19597
0.196791
0.197507
0.198127
0.198662
0.19912
0.199509
0.199836
0.200107
0.200329
0.200506
0.200645
0.200748
0.20082
0.200864
0.200884
0.200881
0.200859
0.20082
0.200765
0.200696
0.200616
0.200526
0.200426
0.200319
0.200204
0.200084
0.199957
0.199826
0.19969
0.199551
0.199408
0.199263
0.199115
0.198965
0.198814
0.198662
0.198508
0.198353
0.198197
0.198041
0.197883
0.172271
0.17556
0.178537
0.181224
0.183642
0.18581
0.18775
0.18948
0.191019
0.192384
0.19359
0.194654
0.195589
0.196408
0.197122
0.197742
0.198278
0.198738
0.199129
0.199459
0.199735
0.199961
0.200144
0.200288
0.200398
0.200477
0.200529
0.200556
0.200561
0.200547
0.200515
0.200469
0.200409
0.200337
0.200255
0.200164
0.200065
0.199959
0.199847
0.199729
0.199605
0.199478
0.199347
0.199212
0.199074
0.198934
0.198792
0.198648
0.198503
0.198356
0.198207
0.198058
0.197907
0.197755
0.172144
0.175387
0.178325
0.18098
0.18337
0.185516
0.187437
0.189151
0.190677
0.192031
0.19323
0.194288
0.195219
0.196035
0.196749
0.197369
0.197906
0.198368
0.198762
0.199096
0.199376
0.199607
0.199796
0.199946
0.200062
0.200148
0.200206
0.200241
0.200254
0.200247
0.200224
0.200185
0.200133
0.200069
0.199995
0.199913
0.199822
0.199724
0.199619
0.199509
0.199394
0.199274
0.199151
0.199024
0.198894
0.198761
0.198626
0.198489
0.19835
0.19821
0.198067
0.197924
0.197778
0.197632
0.172026
0.175222
0.178123
0.180745
0.183108
0.185231
0.187134
0.188833
0.190346
0.191691
0.192882
0.193935
0.194862
0.195676
0.196389
0.197009
0.197548
0.198011
0.198409
0.198746
0.19903
0.199267
0.199461
0.199617
0.199739
0.199832
0.199897
0.199939
0.199959
0.19996
0.199944
0.199913
0.199869
0.199813
0.199747
0.199671
0.199588
0.199498
0.199401
0.199299
0.199191
0.199079
0.198962
0.198843
0.19872
0.198594
0.198466
0.198336
0.198203
0.198069
0.197932
0.197794
0.197655
0.197514
0.171915
0.175067
0.17793
0.180521
0.182858
0.184959
0.186843
0.188527
0.190029
0.191364
0.192548
0.193595
0.194519
0.195331
0.196043
0.196664
0.197203
0.197669
0.198069
0.19841
0.198698
0.198939
0.199139
0.1993
0.199429
0.199528
0.1996
0.199648
0.199676
0.199684
0.199675
0.199651
0.199615
0.199566
0.199507
0.19944
0.199364
0.199281
0.199191
0.199096
0.198996
0.19889
0.198781
0.198668
0.198552
0.198433
0.198312
0.198188
0.198061
0.197933
0.197802
0.197669
0.197535
0.197399
0.171811
0.174919
0.177746
0.180306
0.182617
0.184697
0.186563
0.188232
0.189723
0.191049
0.192226
0.193268
0.194188
0.194998
0.195709
0.19633
0.196871
0.197339
0.197742
0.198086
0.198378
0.198624
0.198828
0.198996
0.19913
0.199235
0.199314
0.199369
0.199403
0.199418
0.199416
0.1994
0.19937
0.199329
0.199277
0.199216
0.199148
0.199071
0.198989
0.1989
0.198807
0.198708
0.198606
0.1985
0.19839
0.198278
0.198163
0.198045
0.197924
0.197801
0.197676
0.197548
0.197419
0.197288
0.171707
0.174773
0.177565
0.180096
0.182381
0.18444
0.186289
0.187945
0.189424
0.190741
0.191911
0.192949
0.193865
0.194673
0.195383
0.196005
0.196547
0.197017
0.197422
0.19777
0.198066
0.198316
0.198525
0.198698
0.198838
0.198949
0.199034
0.199096
0.199137
0.199158
0.199164
0.199154
0.199131
0.199097
0.199052
0.198998
0.198936
0.198867
0.198791
0.198709
0.198622
0.198531
0.198435
0.198335
0.198232
0.198126
0.198016
0.197904
0.197789
0.197672
0.197552
0.19743
0.197305
0.197179
0.1716
0.174625
0.177383
0.179886
0.182148
0.184186
0.186019
0.187661
0.189129
0.190438
0.191602
0.192635
0.193549
0.194355
0.195065
0.195687
0.19623
0.196702
0.19711
0.197461
0.197761
0.198016
0.19823
0.198408
0.198554
0.198671
0.198762
0.19883
0.198877
0.198906
0.198918
0.198915
0.198899
0.198872
0.198834
0.198786
0.198731
0.198668
0.198599
0.198524
0.198443
0.198358
0.198268
0.198175
0.198078
0.197977
0.197874
0.197768
0.197658
0.197546
0.197432
0.197314
0.197194
0.197073
0.171497
0.174483
0.177208
0.179683
0.181921
0.18394
0.185756
0.187385
0.188842
0.190143
0.1913
0.192328
0.193239
0.194043
0.194752
0.195374
0.195918
0.196392
0.196803
0.197157
0.197461
0.197719
0.197938
0.198121
0.198272
0.198395
0.198492
0.198566
0.19862
0.198655
0.198674
0.198678
0.198668
0.198647
0.198616
0.198575
0.198526
0.19847
0.198407
0.198338
0.198264
0.198185
0.198101
0.198014
0.197923
0.197829
0.197731
0.19763
0.197527
0.19742
0.19731
0.197198
0.197083
0.196966
0.171407
0.174353
0.177044
0.179489
0.181702
0.1837
0.185498
0.187113
0.188559
0.18985
0.191001
0.192023
0.19293
0.193732
0.194439
0.195061
0.195605
0.19608
0.196493
0.19685
0.197157
0.19742
0.197643
0.197831
0.197988
0.198116
0.198219
0.198299
0.198359
0.198401
0.198426
0.198436
0.198434
0.198419
0.198394
0.19836
0.198318
0.198268
0.198212
0.198149
0.198081
0.198008
0.197931
0.19785
0.197765
0.197677
0.197585
0.19749
0.197392
0.197291
0.197186
0.197079
0.196969
0.196857
0.171332
0.174236
0.17689
0.179304
0.18149
0.183466
0.185245
0.186844
0.188277
0.189558
0.190701
0.191717
0.192619
0.193418
0.194124
0.194745
0.19529
0.195766
0.196181
0.19654
0.196851
0.197117
0.197345
0.197538
0.197699
0.197833
0.197942
0.198029
0.198095
0.198143
0.198175
0.198192
0.198196
0.198188
0.19817
0.198143
0.198107
0.198064
0.198014
0.197958
0.197896
0.19783
0.197759
0.197684
0.197606
0.197523
0.197438
0.197349
0.197256
0.19716
0.197061
0.196959
0.196855
0.196748
0.171274
0.174134
0.176748
0.179128
0.181286
0.183237
0.184996
0.186578
0.187997
0.189266
0.1904
0.191409
0.192306
0.193101
0.193804
0.194424
0.194969
0.195446
0.195863
0.196225
0.196538
0.196809
0.197041
0.197238
0.197405
0.197545
0.19766
0.197753
0.197826
0.197881
0.197919
0.197943
0.197954
0.197953
0.197941
0.197921
0.197892
0.197855
0.197812
0.197763
0.197708
0.197648
0.197584
0.197516
0.197443
0.197367
0.197288
0.197204
0.197118
0.197028
0.196935
0.196838
0.196738
0.196637
0.171229
0.174041
0.176614
0.178958
0.181085
0.18301
0.184747
0.18631
0.187714
0.188971
0.190095
0.191096
0.191988
0.192779
0.193479
0.194097
0.194642
0.195119
0.195537
0.195902
0.196219
0.196493
0.196729
0.196932
0.197105
0.19725
0.197372
0.197471
0.19755
0.197612
0.197657
0.197688
0.197706
0.197712
0.197708
0.197694
0.197672
0.197643
0.197606
0.197564
0.197516
0.197463
0.197406
0.197344
0.197278
0.197208
0.197135
0.197058
0.196978
0.196893
0.196806
0.196715
0.196621
0.196525
0.171195
0.173957
0.176486
0.178792
0.180886
0.182783
0.184496
0.18604
0.187427
0.188671
0.189784
0.190777
0.191662
0.192448
0.193146
0.193762
0.194306
0.194784
0.195204
0.195571
0.195891
0.196169
0.19641
0.196618
0.196797
0.196948
0.197076
0.197182
0.197268
0.197337
0.197389
0.197427
0.197452
0.197465
0.197469
0.197462
0.197448
0.197425
0.197396
0.197361
0.19732
0.197275
0.197224
0.197169
0.19711
0.197047
0.19698
0.19691
0.196835
0.196757
0.196675
0.19659
0.196502
0.196411
0.171172
0.173881
0.176362
0.178628
0.180688
0.182555
0.184243
0.185766
0.187136
0.188366
0.189467
0.190452
0.191329
0.19211
0.192804
0.193419
0.193962
0.19444
0.194861
0.195231
0.195554
0.195837
0.196083
0.196296
0.196481
0.196639
0.196773
0.196886
0.196979
0.197055
0.197115
0.19716
0.197192
0.197213
0.197224
0.197225
0.197218
0.197204
0.197182
0.197155
0.197121
0.197083
0.197039
0.196991
0.196939
0.196883
0.196823
0.196759
0.196691
0.196619
0.196543
0.196464
0.196382
0.196297
0.171158
0.173812
0.176245
0.178468
0.180491
0.182327
0.183989
0.185489
0.186841
0.188055
0.189144
0.190118
0.190989
0.191764
0.192454
0.193066
0.193608
0.194087
0.19451
0.194882
0.195209
0.195495
0.195747
0.195966
0.196157
0.196322
0.196463
0.196583
0.196683
0.196766
0.196834
0.196887
0.196927
0.196956
0.196974
0.196983
0.196984
0.196978
0.196964
0.196944
0.196918
0.196887
0.196851
0.196811
0.196766
0.196717
0.196664
0.196606
0.196545
0.196479
0.19641
0.196337
0.19626
0.196182
0.171156
0.173751
0.176133
0.178311
0.180296
0.182099
0.183732
0.185209
0.186541
0.187739
0.188814
0.189778
0.19064
0.19141
0.192095
0.192705
0.193246
0.193725
0.194149
0.194524
0.194854
0.195146
0.195402
0.195628
0.195825
0.195997
0.196145
0.196272
0.196381
0.196471
0.196546
0.196607
0.196655
0.196692
0.196719
0.196737
0.196746
0.196747
0.196742
0.19673
0.196712
0.196689
0.196661
0.196628
0.196591
0.196549
0.196503
0.196452
0.196397
0.196339
0.196276
0.196209
0.196138
0.196065
0.171165
0.1737
0.176028
0.178159
0.180103
0.181871
0.183475
0.184927
0.186237
0.187418
0.188479
0.189431
0.190284
0.191047
0.191728
0.192335
0.192875
0.193354
0.19378
0.194157
0.194491
0.194788
0.19505
0.195282
0.195486
0.195665
0.19582
0.195955
0.196071
0.19617
0.196253
0.196322
0.196379
0.196424
0.196459
0.196485
0.196503
0.196513
0.196516
0.196513
0.196503
0.196488
0.196468
0.196443
0.196413
0.196379
0.19634
0.196297
0.196249
0.196197
0.19614
0.19608
0.196016
0.195949
0.17118
0.173652
0.175924
0.178007
0.179909
0.18164
0.183213
0.184638
0.185926
0.187088
0.188134
0.189075
0.189918
0.190674
0.19135
0.191954
0.192492
0.192972
0.193399
0.19378
0.194118
0.19442
0.194688
0.194926
0.195137
0.195324
0.195487
0.19563
0.195753
0.19586
0.195952
0.19603
0.196095
0.196149
0.196194
0.196229
0.196256
0.196275
0.196286
0.196292
0.196291
0.196284
0.196273
0.196256
0.196234
0.196207
0.196175
0.196139
0.196099
0.196053
0.196004
0.19595
0.195892
0.195832
0.171193
0.173603
0.175822
0.177857
0.179717
0.181413
0.182955
0.184354
0.18562
0.186764
0.187795
0.188723
0.189558
0.190307
0.190978
0.191579
0.192116
0.192597
0.193026
0.193409
0.193752
0.194059
0.194333
0.194578
0.194796
0.194989
0.19516
0.19531
0.195442
0.195557
0.195657
0.195743
0.195818
0.195881
0.195934
0.195978
0.196014
0.196042
0.196062
0.196076
0.196084
0.196086
0.196082
0.196073
0.196059
0.19604
0.196016
0.195987
0.195953
0.195914
0.195871
0.195824
0.195772
0.195718
0.171215
0.173563
0.175726
0.177712
0.179529
0.181187
0.182697
0.184068
0.185311
0.186436
0.187452
0.188368
0.189192
0.189934
0.1906
0.191198
0.191735
0.192216
0.192647
0.193034
0.193382
0.193694
0.193974
0.194225
0.19445
0.19465
0.194829
0.194987
0.195127
0.19525
0.195359
0.195454
0.195538
0.19561
0.195673
0.195726
0.195771
0.195808
0.195838
0.195861
0.195877
0.195887
0.195892
0.195891
0.195884
0.195873
0.195856
0.195834
0.195807
0.195776
0.195739
0.195698
0.195653
0.195605
0.17125
0.173527
0.175625
0.177554
0.179322
0.180937
0.18241
0.18375
0.184966
0.186069
0.187066
0.187968
0.188782
0.189516
0.190177
0.190772
0.191308
0.19179
0.192225
0.192616
0.192969
0.193287
0.193574
0.193833
0.194066
0.194275
0.194462
0.19463
0.194779
0.194913
0.195032
0.195138
0.195232
0.195315
0.195389
0.195453
0.195508
0.195555
0.195595
0.195628
0.195654
0.195674
0.195687
0.195695
0.195697
0.195694
0.195686
0.195672
0.195653
0.195628
0.195599
0.195565
0.195527
0.195485
0.168915
0.171286
0.17348
0.175505
0.17737
0.17908
0.180646
0.182077
0.183381
0.184567
0.185645
0.186623
0.187509
0.188311
0.189037
0.189693
0.190286
0.190822
0.191307
0.191745
0.192142
0.192502
0.192828
0.193124
0.193391
0.193634
0.193853
0.194051
0.19423
0.194392
0.194538
0.194669
0.194788
0.194894
0.19499
0.195076
0.195152
0.195219
0.195279
0.19533
0.195374
0.195411
0.195441
0.195465
0.195483
0.195495
0.195502
0.195502
0.195497
0.195487
0.195471
0.195449
0.195423
0.195393
0.195358
0.169023
0.17129
0.173391
0.175334
0.177125
0.178772
0.180283
0.181666
0.182931
0.184085
0.185136
0.186093
0.186963
0.187754
0.188472
0.189124
0.189716
0.190254
0.190743
0.191188
0.191593
0.191962
0.192299
0.192606
0.192885
0.193141
0.193373
0.193585
0.193779
0.193955
0.194116
0.194262
0.194396
0.194518
0.194628
0.194729
0.194819
0.194901
0.194974
0.195038
0.195095
0.195145
0.195188
0.195224
0.195253
0.195276
0.195293
0.195304
0.195309
0.195308
0.195301
0.195289
0.195272
0.19525
0.195224
0.169059
0.17121
0.173208
0.175059
0.17677
0.178347
0.179799
0.181132
0.182354
0.183474
0.184498
0.185435
0.18629
0.187071
0.187785
0.188436
0.189031
0.189574
0.190072
0.190527
0.190944
0.191326
0.191677
0.192
0.192296
0.192568
0.192819
0.193049
0.193261
0.193456
0.193635
0.193801
0.193953
0.194093
0.194221
0.194339
0.194447
0.194545
0.194634
0.194715
0.194787
0.194852
0.194909
0.194958
0.195001
0.195037
0.195066
0.195089
0.195105
0.195115
0.195119
0.195117
0.19511
0.195098
0.195081
0.168942
0.170965
0.17285
0.174601
0.176225
0.177728
0.179116
0.180397
0.181577
0.182663
0.183663
0.184581
0.185426
0.186202
0.186915
0.187571
0.188175
0.18873
0.189242
0.189714
0.19015
0.190553
0.190926
0.19127
0.19159
0.191886
0.19216
0.192415
0.192651
0.19287
0.193074
0.193263
0.193438
0.193601
0.193752
0.193892
0.19402
0.194139
0.194248
0.194348
0.194438
0.194521
0.194595
0.194661
0.194719
0.19477
0.194814
0.194851
0.19488
0.194903
0.194919
0.19493
0.194934
0.194933
0.194926
0.16847
0.17036
0.172129
0.173779
0.175318
0.176749
0.178078
0.179313
0.180458
0.181519
0.182503
0.183414
0.184258
0.18504
0.185766
0.186438
0.187062
0.187642
0.188181
0.188682
0.189148
0.189583
0.189988
0.190366
0.190718
0.191048
0.191356
0.191644
0.191913
0.192165
0.1924
0.192621
0.192826
0.193018
0.193197
0.193364
0.19352
0.193664
0.193797
0.193921
0.194034
0.194138
0.194233
0.19432
0.194397
0.194466
0.194527
0.194581
0.194626
0.194664
0.194695
0.19472
0.194737
0.194749
0.194754
0.167512
0.169294
0.170969
0.172543
0.174017
0.175399
0.176691
0.177901
0.179031
0.180088
0.181075
0.181998
0.182861
0.183667
0.184422
0.185127
0.185788
0.186406
0.186986
0.187529
0.188038
0.188515
0.188964
0.189385
0.18978
0.190152
0.190501
0.190829
0.191138
0.191428
0.1917
0.191956
0.192196
0.192421
0.192632
0.192829
0.193014
0.193186
0.193346
0.193495
0.193633
0.19376
0.193877
0.193984
0.194082
0.19417
0.194249
0.194319
0.194381
0.194435
0.194481
0.194519
0.19455
0.194574
0.194591
0.166372
0.168093
0.169719
0.171253
0.172699
0.174062
0.175346
0.176554
0.177691
0.178761
0.179767
0.180714
0.181605
0.182443
0.183231
0.183974
0.184672
0.18533
0.18595
0.186533
0.187083
0.187601
0.18809
0.18855
0.188984
0.189393
0.189779
0.190143
0.190486
0.190809
0.191113
0.1914
0.19167
0.191923
0.192161
0.192385
0.192594
0.19279
0.192973
0.193143
0.193302
0.193449
0.193584
0.193709
0.193823
0.193927
0.194021
0.194106
0.194181
0.194248
0.194306
0.194355
0.194397
0.194432
0.194459
0.165045
0.166731
0.168331
0.169849
0.171288
0.172652
0.173944
0.175167
0.176324
0.177419
0.178455
0.179435
0.180362
0.181239
0.182068
0.182852
0.183593
0.184294
0.184956
0.185582
0.186173
0.186733
0.187261
0.187761
0.188234
0.18868
0.189102
0.189501
0.189877
0.190233
0.190569
0.190885
0.191183
0.191464
0.191728
0.191976
0.192209
0.192427
0.192631
0.192822
0.193
0.193165
0.193318
0.193459
0.193589
0.193707
0.193815
0.193913
0.194001
0.19408
0.194149
0.19421
0.194261
0.194305
0.194341
0.163585
0.165259
0.166856
0.168378
0.169828
0.171209
0.172524
0.173774
0.174963
0.176093
0.177167
0.178187
0.179156
0.180075
0.180948
0.181776
0.182561
0.183305
0.184011
0.18468
0.185313
0.185913
0.186482
0.18702
0.18753
0.188012
0.188469
0.188902
0.18931
0.189697
0.190062
0.190407
0.190732
0.191039
0.191327
0.191599
0.191854
0.192093
0.192318
0.192528
0.192723
0.192906
0.193075
0.193231
0.193375
0.193507
0.193628
0.193739
0.193838
0.193928
0.194008
0.194078
0.194139
0.194191
0.194236
0.162039
0.163722
0.165333
0.166876
0.168352
0.169763
0.171111
0.172398
0.173626
0.174798
0.175915
0.17698
0.177993
0.178958
0.179877
0.18075
0.181579
0.182368
0.183116
0.183827
0.184501
0.185141
0.185748
0.186324
0.18687
0.187387
0.187877
0.188341
0.188781
0.189197
0.18959
0.189962
0.190313
0.190644
0.190955
0.191249
0.191525
0.191785
0.192028
0.192256
0.192468
0.192667
0.192851
0.193021
0.193179
0.193324
0.193457
0.193579
0.193689
0.193789
0.193879
0.193958
0.194028
0.194088
0.19414
0.160446
0.162153
0.163794
0.165369
0.166882
0.168332
0.169722
0.171053
0.172326
0.173544
0.174708
0.175819
0.17688
0.177891
0.178855
0.179774
0.180647
0.181479
0.182269
0.183021
0.183735
0.184413
0.185057
0.185669
0.186249
0.186799
0.187321
0.187816
0.188285
0.188729
0.189149
0.189546
0.189921
0.190275
0.190609
0.190923
0.191219
0.191497
0.191759
0.192003
0.192232
0.192445
0.192643
0.192827
0.192998
0.193155
0.193299
0.193432
0.193553
0.193662
0.193761
0.193849
0.193926
0.193994
0.194053
0.158833
0.160577
0.162258
0.163877
0.165434
0.166931
0.168368
0.169748
0.17107
0.172336
0.173548
0.174708
0.175816
0.176874
0.177883
0.178846
0.179763
0.180636
0.181467
0.182258
0.183011
0.183726
0.184405
0.185051
0.185664
0.186246
0.186798
0.187321
0.187818
0.188288
0.188734
0.189155
0.189553
0.189929
0.190284
0.190618
0.190932
0.191228
0.191506
0.191767
0.192011
0.192238
0.19245
0.192647
0.192829
0.192997
0.193153
0.193295
0.193426
0.193544
0.193651
0.193747
0.193832
0.193907
0.193972
0.157215
0.159006
0.160735
0.162404
0.164012
0.16556
0.167048
0.168479
0.169852
0.171168
0.17243
0.173637
0.174793
0.175897
0.176951
0.177957
0.178916
0.17983
0.180701
0.18153
0.182319
0.18307
0.183783
0.184462
0.185106
0.185718
0.186299
0.18685
0.187373
0.187869
0.188339
0.188783
0.189203
0.1896
0.189974
0.190327
0.19066
0.190973
0.191267
0.191543
0.191801
0.192042
0.192266
0.192475
0.192669
0.192848
0.193014
0.193166
0.193306
0.193433
0.193548
0.193651
0.193744
0.193825
0.193896
0.15559
0.157436
0.15922
0.160944
0.162607
0.16421
0.165753
0.167236
0.168661
0.170029
0.17134
0.172596
0.173798
0.174948
0.176047
0.177095
0.178096
0.17905
0.179959
0.180825
0.181649
0.182434
0.183181
0.183891
0.184566
0.185207
0.185816
0.186394
0.186943
0.187463
0.187956
0.188423
0.188864
0.189281
0.189675
0.190046
0.190396
0.190726
0.191036
0.191326
0.191598
0.191853
0.19209
0.19231
0.192515
0.192705
0.192881
0.193042
0.193191
0.193326
0.193449
0.19356
0.193659
0.193747
0.193824
0.154101
0.156001
0.15784
0.159618
0.161334
0.162989
0.164583
0.166117
0.167591
0.169005
0.170362
0.171663
0.172908
0.174099
0.175238
0.176325
0.177362
0.178352
0.179296
0.180195
0.181052
0.181868
0.182644
0.183382
0.184084
0.184752
0.185386
0.185988
0.186559
0.187102
0.187616
0.188103
0.188563
0.188998
0.189409
0.189797
0.190163
0.190507
0.190831
0.191135
0.19142
0.191686
0.191934
0.192166
0.192381
0.19258
0.192765
0.192935
0.193091
0.193234
0.193364
0.193481
0.193586
0.19368
0.193762
0.153087
0.155029
0.156909
0.158727
0.160482
0.162175
0.163806
0.165374
0.166882
0.16833
0.169718
0.171049
0.172324
0.173543
0.174708
0.175822
0.176884
0.177898
0.178865
0.179786
0.180664
0.181501
0.182296
0.183054
0.183774
0.184458
0.185109
0.185727
0.186314
0.18687
0.187398
0.187898
0.188372
0.188819
0.189241
0.18964
0.190016
0.19037
0.190703
0.191016
0.191309
0.191583
0.191839
0.192077
0.192298
0.192504
0.192694
0.19287
0.193031
0.193179
0.193313
0.193435
0.193544
0.193641
0.193727
)
;

boundaryField
{
    inlet
    {
        type            zeroGradient;
    }
    outlet
    {
        type            fixedValue;
        value           nonuniform 0();
    }
    upperWall
    {
        type            zeroGradient;
    }
    lowerWall
    {
        type            zeroGradient;
    }
    frontAndBack
    {
        type            empty;
    }
    procBoundary3to1
    {
        type            processor;
        value           nonuniform List<scalar> 
62
(
0.202048
0.201783
0.201514
0.201286
0.201083
0.200894
0.200894
0.200454
0.20029
0.20029
0.199891
0.199741
0.199592
0.199442
0.19929
0.19929
0.198937
0.198787
0.198632
0.198475
0.198475
0.198154
0.198154
0.197852
0.197725
0.197603
0.197485
0.197372
0.197262
0.197156
0.197051
0.19695
0.196848
0.196744
0.19664
0.196534
0.196427
0.196319
0.19621
0.196101
0.195991
0.19588
0.195769
0.195661
0.195554
0.195441
0.195321
0.195194
0.19506
0.194915
0.194754
0.194602
0.194479
0.19437
0.194272
0.194183
0.194102
0.194028
0.193958
0.193891
0.193834
0.193802
)
;
    }
    procBoundary3to2
    {
        type            processor;
        value           nonuniform List<scalar> 
58
(
0.19666
0.190787
0.184839
0.180713
0.177725
0.175467
0.173769
0.172504
0.171572
0.170893
0.1704
0.170037
0.16976
0.169537
0.16933
0.169145
0.16903
0.168918
0.168817
0.168726
0.168644
0.168572
0.168509
0.168452
0.1684
0.168346
0.168285
0.168226
0.168181
0.168154
0.168148
0.168157
0.16818
0.168217
0.168267
0.168331
0.168409
0.168497
0.168578
0.168672
0.168788
0.168788
0.166359
0.166583
0.166748
0.166774
0.166452
0.165619
0.164553
0.163272
0.161831
0.160284
0.158671
0.157025
0.155362
0.153684
0.152139
0.151084
)
;
    }
}


// ************************************************************************* //
