/*--------------------------------*- C++ -*----------------------------------*\
  =========                 |
  \\      /  F ield         | OpenFOAM: The Open Source CFD Toolbox
   \\    /   O peration     | Website:  https://openfoam.org
    \\  /    A nd           | Version:  6
     \\/     M anipulation  |
\*---------------------------------------------------------------------------*/
FoamFile
{
    version     2.0;
    format      ascii;
    class       surfaceScalarField;
    location    "0.03";
    object      phi;
}
// * * * * * * * * * * * * * * * * * * * * * * * * * * * * * * * * * * * * * //

dimensions      [0 3 -1 0 0 0 0];

internalField   nonuniform List<scalar> 
5952
(
2.50721e-07
-1.26084e-08
2.62939e-07
-1.2218e-08
2.74748e-07
-1.18093e-08
2.86135e-07
-1.13865e-08
2.97089e-07
-1.09537e-08
3.07603e-07
-1.05147e-08
3.17676e-07
-1.00727e-08
3.27307e-07
-9.63091e-09
3.36499e-07
-9.19192e-09
3.45257e-07
-8.75809e-09
3.53588e-07
-8.33143e-09
3.61502e-07
-7.91364e-09
3.69008e-07
-7.50614e-09
3.76118e-07
-7.11006e-09
3.82845e-07
-6.72631e-09
3.892e-07
-6.35557e-09
3.95198e-07
-5.99832e-09
4.00853e-07
-5.65487e-09
4.06179e-07
-5.3254e-09
4.11189e-07
-5.00992e-09
4.15897e-07
-4.70837e-09
4.20318e-07
-4.42058e-09
4.24464e-07
-4.14631e-09
4.28349e-07
-3.88525e-09
4.31986e-07
-3.63707e-09
4.35388e-07
-3.40134e-09
4.38565e-07
-3.17767e-09
4.41531e-07
-2.96561e-09
4.44296e-07
-2.76471e-09
4.4687e-07
-2.57451e-09
4.49265e-07
-2.39454e-09
4.51489e-07
-2.22435e-09
4.53552e-07
-2.06347e-09
4.55464e-07
-1.91148e-09
4.57232e-07
-1.76791e-09
4.58864e-07
-1.63236e-09
4.60369e-07
-1.50442e-09
4.61752e-07
-1.38368e-09
4.63022e-07
-1.26977e-09
4.64184e-07
-1.16234e-09
4.65245e-07
-1.06103e-09
4.66211e-07
-9.65504e-10
4.67086e-07
-8.75462e-10
4.67877e-07
-7.90586e-10
4.68588e-07
-7.10594e-10
4.69223e-07
-6.3521e-10
4.69787e-07
-5.6417e-10
4.70284e-07
-4.9725e-10
-4.3423e-10
2.62484e-07
-2.56541e-08
2.75155e-07
-2.48884e-08
2.87429e-07
-2.40833e-08
2.9929e-07
-2.32477e-08
3.10726e-07
-2.23895e-08
3.21727e-07
-2.15163e-08
3.3229e-07
-2.0635e-08
3.42411e-07
-1.97517e-08
3.52091e-07
-1.8872e-08
3.61333e-07
-1.80007e-08
3.70144e-07
-1.7142e-08
3.7853e-07
-1.62994e-08
3.86499e-07
-1.54759e-08
3.94063e-07
-1.46741e-08
4.01233e-07
-1.38958e-08
4.0802e-07
-1.31426e-08
4.14437e-07
-1.24156e-08
4.20498e-07
-1.17155e-08
4.26215e-07
-1.10429e-08
4.31603e-07
-1.03978e-08
4.36675e-07
-9.78037e-09
4.41445e-07
-9.19022e-09
4.45926e-07
-8.62701e-09
4.50131e-07
-8.09022e-09
4.54073e-07
-7.5792e-09
4.57765e-07
-7.09324e-09
4.61219e-07
-6.63156e-09
4.64446e-07
-6.19333e-09
4.67459e-07
-5.77769e-09
4.70268e-07
-5.38375e-09
4.72885e-07
-5.01062e-09
4.75318e-07
-4.65741e-09
4.77577e-07
-4.32322e-09
4.79673e-07
-4.00717e-09
4.81614e-07
-3.70843e-09
4.83407e-07
-3.42614e-09
4.85062e-07
-3.15949e-09
4.86586e-07
-2.90769e-09
4.87987e-07
-2.67e-09
4.8927e-07
-2.44566e-09
4.90443e-07
-2.234e-09
4.91512e-07
-2.03433e-09
4.92482e-07
-1.84603e-09
4.9336e-07
-1.66847e-09
4.94151e-07
-1.5011e-09
4.94859e-07
-1.34334e-09
4.95489e-07
-1.19469e-09
4.96047e-07
-1.05465e-09
-9.2275e-10
2.66939e-07
-3.88092e-08
2.79725e-07
-3.7674e-08
2.9212e-07
-3.6478e-08
3.04106e-07
-3.52341e-08
3.15671e-07
-3.39546e-08
3.26806e-07
-3.26507e-08
3.37503e-07
-3.13328e-08
3.47762e-07
-3.00102e-08
3.57581e-07
-2.86913e-08
3.66964e-07
-2.73834e-08
3.75915e-07
-2.60929e-08
3.84441e-07
-2.48253e-08
3.9255e-07
-2.35852e-08
4.00252e-07
-2.23764e-08
4.07558e-07
-2.12019e-08
4.1448e-07
-2.00642e-08
4.21029e-07
-1.8965e-08
4.27219e-07
-1.79056e-08
4.33063e-07
-1.68868e-08
4.38574e-07
-1.59089e-08
4.43766e-07
-1.49721e-08
4.48652e-07
-1.40759e-08
4.53245e-07
-1.32199e-08
4.57558e-07
-1.24034e-08
4.61604e-07
-1.16254e-08
4.65396e-07
-1.08851e-08
4.68945e-07
-1.01812e-08
4.72265e-07
-9.5125e-09
4.75365e-07
-8.87783e-09
4.78257e-07
-8.2759e-09
4.80952e-07
-7.70536e-09
4.83459e-07
-7.16493e-09
4.85789e-07
-6.6533e-09
4.87951e-07
-6.16916e-09
4.89954e-07
-5.71127e-09
4.91806e-07
-5.27837e-09
4.93516e-07
-4.86926e-09
4.95091e-07
-4.48276e-09
4.96539e-07
-4.11774e-09
4.97866e-07
-3.77312e-09
4.9908e-07
-3.44784e-09
5.00187e-07
-3.1409e-09
5.01192e-07
-2.85134e-09
5.02102e-07
-2.57824e-09
5.02921e-07
-2.32074e-09
5.03656e-07
-2.07801e-09
5.04311e-07
-1.84926e-09
5.0489e-07
-1.63372e-09
-1.43068e-09
2.70729e-07
-5.2012e-08
2.83558e-07
-5.05031e-08
2.95993e-07
-4.89126e-08
3.08017e-07
-4.72577e-08
3.19617e-07
-4.55546e-08
3.30784e-07
-4.38183e-08
3.41514e-07
-4.20625e-08
3.51803e-07
-4.02997e-08
3.61653e-07
-3.8541e-08
3.71066e-07
-3.67963e-08
3.80047e-07
-3.5074e-08
3.88603e-07
-3.33815e-08
3.96743e-07
-3.1725e-08
4.04476e-07
-3.01096e-08
4.11814e-07
-2.85393e-08
4.18767e-07
-2.70175e-08
4.25348e-07
-2.55466e-08
4.31571e-07
-2.41282e-08
4.37448e-07
-2.27634e-08
4.42992e-07
-2.14529e-08
4.48216e-07
-2.01967e-08
4.53135e-07
-1.89944e-08
4.5776e-07
-1.78455e-08
4.62106e-07
-1.67489e-08
4.66184e-07
-1.57036e-08
4.70007e-07
-1.47083e-08
4.73588e-07
-1.37615e-08
4.76937e-07
-1.28617e-08
4.80066e-07
-1.20071e-08
4.82986e-07
-1.11962e-08
4.85708e-07
-1.04272e-08
4.88242e-07
-9.69848e-09
4.90597e-07
-9.00825e-09
4.92783e-07
-8.35481e-09
4.94808e-07
-7.73653e-09
4.96681e-07
-7.15176e-09
4.98411e-07
-6.59891e-09
5.00005e-07
-6.07643e-09
5.0147e-07
-5.58283e-09
5.02813e-07
-5.11667e-09
5.04042e-07
-4.67653e-09
5.05162e-07
-4.26111e-09
5.0618e-07
-3.86911e-09
5.07101e-07
-3.49933e-09
5.07931e-07
-3.15059e-09
5.08675e-07
-2.82179e-09
5.09337e-07
-2.51187e-09
5.09923e-07
-2.21981e-09
-1.94462e-09
2.75031e-07
-6.52327e-08
2.87865e-07
-6.33372e-08
3.00293e-07
-6.13411e-08
3.12301e-07
-5.92658e-08
3.23878e-07
-5.71314e-08
3.35016e-07
-5.49563e-08
3.45711e-07
-5.27577e-08
3.55963e-07
-5.05511e-08
3.65772e-07
-4.835e-08
3.75142e-07
-4.61668e-08
3.8408e-07
-4.4012e-08
3.92593e-07
-4.18946e-08
4.00691e-07
-3.98223e-08
4.08382e-07
-3.78014e-08
4.1568e-07
-3.58369e-08
4.22595e-07
-3.39329e-08
4.29141e-07
-3.20923e-08
4.3533e-07
-3.03172e-08
4.41176e-07
-2.8609e-08
4.46691e-07
-2.69682e-08
4.5189e-07
-2.53951e-08
4.56784e-07
-2.38891e-08
4.61388e-07
-2.24496e-08
4.65715e-07
-2.10752e-08
4.69776e-07
-1.97647e-08
4.73584e-07
-1.85164e-08
4.77151e-07
-1.73284e-08
4.80488e-07
-1.6199e-08
4.83607e-07
-1.5126e-08
4.86518e-07
-1.41075e-08
4.89232e-07
-1.31412e-08
4.91759e-07
-1.22251e-08
4.94108e-07
-1.13571e-08
4.96288e-07
-1.05352e-08
4.98309e-07
-9.7571e-09
5.00178e-07
-9.02097e-09
5.01904e-07
-8.32479e-09
5.03494e-07
-7.66666e-09
5.04956e-07
-7.04472e-09
5.06296e-07
-6.45718e-09
5.07522e-07
-5.90232e-09
5.08639e-07
-5.37848e-09
5.09654e-07
-4.88406e-09
5.10573e-07
-4.41757e-09
5.114e-07
-3.97754e-09
5.1214e-07
-3.5626e-09
5.128e-07
-3.1714e-09
5.13383e-07
-2.80268e-09
-2.4552e-09
2.80331e-07
-7.84385e-08
2.9313e-07
-7.61366e-08
3.05507e-07
-7.3718e-08
3.17449e-07
-7.1208e-08
3.28948e-07
-6.86303e-08
3.39999e-07
-6.60069e-08
3.50599e-07
-6.3358e-08
3.6075e-07
-6.07018e-08
3.70454e-07
-5.80545e-08
3.79718e-07
-5.54305e-08
3.88548e-07
-5.28421e-08
3.96954e-07
-5.03e-08
4.04944e-07
-4.78131e-08
4.12532e-07
-4.53887e-08
4.19728e-07
-4.30328e-08
4.26545e-07
-4.075e-08
4.32996e-07
-3.85435e-08
4.39095e-07
-3.64159e-08
4.44854e-07
-3.43685e-08
4.50288e-07
-3.24021e-08
4.55409e-07
-3.05166e-08
4.60232e-07
-2.87115e-08
4.64768e-07
-2.69858e-08
4.69031e-07
-2.5338e-08
4.73033e-07
-2.37665e-08
4.76786e-07
-2.22693e-08
4.80301e-07
-2.08441e-08
4.83591e-07
-1.94888e-08
4.86666e-07
-1.82009e-08
4.89536e-07
-1.69779e-08
4.92212e-07
-1.58174e-08
4.94704e-07
-1.47168e-08
4.97021e-07
-1.36736e-08
4.99171e-07
-1.26855e-08
5.01164e-07
-1.17498e-08
5.03007e-07
-1.08643e-08
5.04709e-07
-1.00267e-08
5.06277e-07
-9.23456e-09
5.07718e-07
-8.4858e-09
5.09039e-07
-7.77828e-09
5.10247e-07
-7.10994e-09
5.11347e-07
-6.47882e-09
5.12346e-07
-5.88303e-09
5.13249e-07
-5.32077e-09
5.14062e-07
-4.7903e-09
5.14789e-07
-4.28996e-09
5.15436e-07
-3.81818e-09
5.16007e-07
-3.37341e-09
-2.9542e-09
2.86953e-07
-9.15813e-08
2.99666e-07
-8.88489e-08
3.11935e-07
-8.59871e-08
3.23752e-07
-8.3025e-08
3.35111e-07
-7.99899e-08
3.46011e-07
-7.69069e-08
3.56452e-07
-7.3799e-08
3.66437e-07
-7.06871e-08
3.75972e-07
-6.75895e-08
3.85064e-07
-6.45225e-08
3.93722e-07
-6.15002e-08
4.01957e-07
-5.85344e-08
4.09779e-07
-5.56353e-08
4.17201e-07
-5.2811e-08
4.24236e-07
-5.0068e-08
4.30898e-07
-4.74113e-08
4.37199e-07
-4.48447e-08
4.43154e-07
-4.23706e-08
4.48776e-07
-3.99904e-08
4.54078e-07
-3.77049e-08
4.59076e-07
-3.55137e-08
4.6378e-07
-3.34162e-08
4.68205e-07
-3.1411e-08
4.72364e-07
-2.94963e-08
4.76267e-07
-2.76701e-08
4.79928e-07
-2.59301e-08
4.83358e-07
-2.42736e-08
4.86567e-07
-2.26979e-08
4.89566e-07
-2.12004e-08
4.92367e-07
-1.9778e-08
4.94977e-07
-1.8428e-08
4.97408e-07
-1.71474e-08
4.99667e-07
-1.59333e-08
5.01765e-07
-1.47828e-08
5.03708e-07
-1.36933e-08
5.05506e-07
-1.26618e-08
5.07165e-07
-1.16858e-08
5.08693e-07
-1.07626e-08
5.10097e-07
-9.88969e-09
5.11383e-07
-9.06468e-09
5.12558e-07
-8.28516e-09
5.13628e-07
-7.5489e-09
5.14599e-07
-6.85368e-09
5.15476e-07
-6.19746e-09
5.16264e-07
-5.57821e-09
5.16968e-07
-4.99402e-09
5.17593e-07
-4.44305e-09
5.18143e-07
-3.92354e-09
5.18622e-07
-3.43379e-09
-2.97216e-09
2.95161e-07
-1.04591e-07
3.07715e-07
-1.01402e-07
3.19803e-07
-9.80753e-08
3.31421e-07
-9.46434e-08
3.42568e-07
-9.11366e-08
3.53244e-07
-8.75831e-08
3.63453e-07
-8.40084e-08
3.73202e-07
-8.04355e-08
3.82497e-07
-7.68849e-08
3.91349e-07
-7.33744e-08
3.99769e-07
-6.99194e-08
4.07767e-07
-6.6533e-08
4.15358e-07
-6.3226e-08
4.22554e-07
-6.00072e-08
4.2937e-07
-5.68836e-08
4.35819e-07
-5.38604e-08
4.41915e-07
-5.09414e-08
4.47674e-07
-4.81291e-08
4.53108e-07
-4.54248e-08
4.58232e-07
-4.2829e-08
4.6306e-07
-4.0341e-08
4.67603e-07
-3.79599e-08
4.71876e-07
-3.56839e-08
4.75891e-07
-3.35109e-08
4.79659e-07
-3.14384e-08
4.83193e-07
-2.94636e-08
4.86503e-07
-2.75835e-08
4.896e-07
-2.5795e-08
4.92494e-07
-2.40949e-08
4.95196e-07
-2.248e-08
4.97715e-07
-2.09468e-08
5.0006e-07
-1.94921e-08
5.02239e-07
-1.81127e-08
5.04262e-07
-1.68054e-08
5.06135e-07
-1.55668e-08
5.07868e-07
-1.43941e-08
5.09466e-07
-1.32841e-08
5.10937e-07
-1.22339e-08
5.12288e-07
-1.12407e-08
5.13525e-07
-1.03017e-08
5.14654e-07
-9.41427e-09
5.15681e-07
-8.5759e-09
5.16612e-07
-7.7841e-09
5.17451e-07
-7.03653e-09
5.18203e-07
-6.33094e-09
5.18875e-07
-5.66515e-09
5.19469e-07
-5.0371e-09
5.1999e-07
-4.44478e-09
5.20442e-07
-3.88629e-09
-3.35978e-09
3.05183e-07
-1.17372e-07
3.17483e-07
-1.13701e-07
3.29297e-07
-1.0989e-07
3.40626e-07
-1.05972e-07
3.51472e-07
-1.01982e-07
3.61839e-07
-9.79503e-08
3.71735e-07
-9.39038e-08
3.81167e-07
-8.98678e-08
3.90147e-07
-8.58644e-08
3.98685e-07
-8.19128e-08
4.06795e-07
-7.80294e-08
4.1449e-07
-7.42281e-08
4.21785e-07
-7.05204e-08
4.28693e-07
-6.69155e-08
4.3523e-07
-6.34204e-08
4.4141e-07
-6.00407e-08
4.47249e-07
-5.67798e-08
4.5276e-07
-5.36402e-08
4.57958e-07
-5.06228e-08
4.62856e-07
-4.77278e-08
4.6747e-07
-4.49543e-08
4.7181e-07
-4.23006e-08
4.75891e-07
-3.97647e-08
4.79724e-07
-3.7344e-08
4.83321e-07
-3.50355e-08
4.86694e-07
-3.28359e-08
4.89852e-07
-3.07419e-08
4.92807e-07
-2.87497e-08
4.95568e-07
-2.68559e-08
4.98144e-07
-2.50567e-08
5.00546e-07
-2.33484e-08
5.02781e-07
-2.17272e-08
5.04858e-07
-2.01896e-08
5.06785e-07
-1.8732e-08
5.08569e-07
-1.73508e-08
5.10217e-07
-1.60426e-08
5.11737e-07
-1.48042e-08
5.13135e-07
-1.36321e-08
5.14418e-07
-1.25234e-08
5.15592e-07
-1.1475e-08
5.16661e-07
-1.04839e-08
5.17633e-07
-9.54735e-09
5.18511e-07
-8.66262e-09
5.19302e-07
-7.82711e-09
5.20009e-07
-7.03833e-09
5.20638e-07
-6.2939e-09
5.21192e-07
-5.59149e-09
5.21676e-07
-4.92892e-09
5.22094e-07
-4.30406e-09
5.22449e-07
-3.71488e-09
-3.15943e-09
3.17212e-07
-1.29797e-07
3.29138e-07
-1.25627e-07
3.40564e-07
-1.21316e-07
3.51495e-07
-1.16904e-07
3.61937e-07
-1.12424e-07
3.71898e-07
-1.07911e-07
3.81386e-07
-1.03393e-07
3.90415e-07
-9.88962e-08
3.98995e-07
-9.4445e-08
4.07142e-07
-9.00592e-08
4.14868e-07
-8.57559e-08
4.2219e-07
-8.15497e-08
4.29121e-07
-7.74523e-08
4.35679e-07
-7.3473e-08
4.41878e-07
-6.96192e-08
4.47733e-07
-6.58959e-08
4.5326e-07
-6.23066e-08
4.58473e-07
-5.88534e-08
4.63387e-07
-5.55367e-08
4.68015e-07
-5.23562e-08
4.72372e-07
-4.93106e-08
4.76469e-07
-4.63978e-08
4.80319e-07
-4.36151e-08
4.83935e-07
-4.09594e-08
4.87326e-07
-3.84272e-08
4.90505e-07
-3.60147e-08
4.93481e-07
-3.37181e-08
4.96265e-07
-3.15333e-08
4.98865e-07
-2.94562e-08
5.01291e-07
-2.74826e-08
5.03551e-07
-2.56085e-08
5.05654e-07
-2.38298e-08
5.07607e-07
-2.21424e-08
5.09417e-07
-2.05425e-08
5.11092e-07
-1.90261e-08
5.12639e-07
-1.75896e-08
5.14064e-07
-1.62293e-08
5.15374e-07
-1.49416e-08
5.16574e-07
-1.37232e-08
5.17669e-07
-1.25708e-08
5.18667e-07
-1.14811e-08
5.1957e-07
-1.04511e-08
5.20386e-07
-9.47784e-09
5.21117e-07
-8.55854e-09
5.21769e-07
-7.69043e-09
5.22346e-07
-6.87094e-09
5.22852e-07
-6.09754e-09
5.23291e-07
-5.36783e-09
5.23667e-07
-4.67951e-09
5.23982e-07
-4.03037e-09
-3.41828e-09
3.31393e-07
-1.41715e-07
3.42801e-07
-1.37035e-07
3.53705e-07
-1.3222e-07
3.64112e-07
-1.27311e-07
3.74032e-07
-1.22344e-07
3.83476e-07
-1.17355e-07
3.92456e-07
-1.12372e-07
4.00985e-07
-1.07426e-07
4.09078e-07
-1.02538e-07
4.1675e-07
-9.77309e-08
4.24016e-07
-9.30219e-08
4.30892e-07
-8.84256e-08
4.37394e-07
-8.39542e-08
4.43538e-07
-7.9617e-08
4.49339e-07
-7.54209e-08
4.54814e-07
-7.13709e-08
4.59978e-07
-6.747e-08
4.64844e-07
-6.37199e-08
4.69428e-07
-6.01205e-08
4.73743e-07
-5.6671e-08
4.77802e-07
-5.33694e-08
4.81617e-07
-5.02131e-08
4.85201e-07
-4.71988e-08
4.88564e-07
-4.43228e-08
4.91718e-07
-4.15811e-08
4.94673e-07
-3.89695e-08
4.97438e-07
-3.64834e-08
5.00023e-07
-3.41184e-08
5.02437e-07
-3.187e-08
5.04688e-07
-2.97334e-08
5.06784e-07
-2.77044e-08
5.08732e-07
-2.57783e-08
5.10541e-07
-2.39508e-08
5.12216e-07
-2.22177e-08
5.13764e-07
-2.05748e-08
5.15193e-07
-1.9018e-08
5.16507e-07
-1.75434e-08
5.17713e-07
-1.61473e-08
5.18815e-07
-1.48259e-08
5.1982e-07
-1.35757e-08
5.20732e-07
-1.23933e-08
5.21557e-07
-1.12754e-08
5.22298e-07
-1.02188e-08
5.2296e-07
-9.22048e-09
5.23547e-07
-8.27756e-09
5.24063e-07
-7.38721e-09
5.24512e-07
-6.54672e-09
5.24898e-07
-5.75354e-09
5.25224e-07
-5.00517e-09
5.25492e-07
-4.29925e-09
-3.63349e-09
3.47806e-07
-1.52947e-07
3.58531e-07
-1.4776e-07
3.6876e-07
-1.42449e-07
3.78503e-07
-1.37054e-07
3.87773e-07
-1.31614e-07
3.96582e-07
-1.26163e-07
4.04944e-07
-1.20735e-07
4.12874e-07
-1.15356e-07
4.20388e-07
-1.10052e-07
4.275e-07
-1.04843e-07
4.34227e-07
-9.97491e-08
4.40586e-07
-9.4784e-08
4.46591e-07
-8.99597e-08
4.5226e-07
-8.52856e-08
4.57607e-07
-8.07683e-08
4.62649e-07
-7.64124e-08
4.67399e-07
-7.22204e-08
4.71873e-07
-6.81935e-08
4.76083e-07
-6.43311e-08
4.80044e-07
-6.06316e-08
4.83767e-07
-5.70926e-08
4.87265e-07
-5.37108e-08
4.90548e-07
-5.04823e-08
4.93628e-07
-4.74028e-08
4.96515e-07
-4.44677e-08
4.99218e-07
-4.16722e-08
5.01746e-07
-3.90114e-08
5.04107e-07
-3.64802e-08
5.06311e-07
-3.40737e-08
5.08364e-07
-3.17869e-08
5.10275e-07
-2.96148e-08
5.12049e-07
-2.75528e-08
5.13695e-07
-2.5596e-08
5.15217e-07
-2.37398e-08
5.16622e-07
-2.19799e-08
5.17916e-07
-2.03119e-08
5.19104e-07
-1.87317e-08
5.20192e-07
-1.7235e-08
5.21184e-07
-1.58182e-08
5.22086e-07
-1.44773e-08
5.22901e-07
-1.32088e-08
5.23635e-07
-1.20091e-08
5.24291e-07
-1.0875e-08
5.24874e-07
-9.80314e-09
5.25387e-07
-8.79047e-09
5.25834e-07
-7.834e-09
5.26218e-07
-6.93088e-09
5.26543e-07
-6.07836e-09
5.26811e-07
-5.27382e-09
5.27027e-07
-4.51472e-09
-3.79867e-09
3.66449e-07
-1.63297e-07
3.76313e-07
-1.57625e-07
3.85704e-07
-1.5184e-07
3.94635e-07
-1.45985e-07
4.03118e-07
-1.40098e-07
4.11169e-07
-1.34214e-07
4.18802e-07
-1.28367e-07
4.26031e-07
-1.22585e-07
4.32872e-07
-1.16893e-07
4.39341e-07
-1.11312e-07
4.45453e-07
-1.05861e-07
4.51223e-07
-1.00555e-07
4.56668e-07
-9.54047e-08
4.61803e-07
-9.04202e-08
4.66642e-07
-8.56075e-08
4.71201e-07
-8.09707e-08
4.75492e-07
-7.6512e-08
4.7953e-07
-7.22317e-08
4.83328e-07
-6.8129e-08
4.86898e-07
-6.42014e-08
4.90251e-07
-6.0446e-08
4.93399e-07
-5.68588e-08
4.96353e-07
-5.34354e-08
4.99121e-07
-5.01709e-08
5.01713e-07
-4.70601e-08
5.04139e-07
-4.40977e-08
5.06406e-07
-4.12782e-08
5.08522e-07
-3.85962e-08
5.10494e-07
-3.60462e-08
5.1233e-07
-3.3623e-08
5.14036e-07
-3.13211e-08
5.15619e-07
-2.91354e-08
5.17084e-07
-2.7061e-08
5.18437e-07
-2.5093e-08
5.19684e-07
-2.32266e-08
5.20829e-07
-2.14572e-08
5.21878e-07
-1.97805e-08
5.22835e-07
-1.81921e-08
5.23705e-07
-1.6688e-08
5.24492e-07
-1.52641e-08
5.252e-07
-1.39167e-08
5.25833e-07
-1.26422e-08
5.26394e-07
-1.14368e-08
5.26889e-07
-1.02974e-08
5.27319e-07
-9.22057e-09
5.27688e-07
-8.20322e-09
5.27999e-07
-7.24235e-09
5.28256e-07
-6.33507e-09
5.28461e-07
-5.47863e-09
5.28617e-07
-4.67036e-09
-3.90775e-09
3.87226e-07
-1.72561e-07
3.96044e-07
-1.66443e-07
4.04431e-07
-1.60226e-07
4.12398e-07
-1.53952e-07
4.1996e-07
-1.4766e-07
4.27131e-07
-1.41385e-07
4.33924e-07
-1.3516e-07
4.40353e-07
-1.29014e-07
4.46433e-07
-1.22973e-07
4.52178e-07
-1.17057e-07
4.57601e-07
-1.11285e-07
4.62719e-07
-1.05672e-07
4.67544e-07
-1.0023e-07
4.72091e-07
-9.4967e-08
4.76373e-07
-8.98895e-08
4.80403e-07
-8.50012e-08
4.84195e-07
-8.03037e-08
4.8776e-07
-7.5797e-08
4.91111e-07
-7.14794e-08
4.94258e-07
-6.73483e-08
4.97212e-07
-6.33998e-08
4.99982e-07
-5.96295e-08
5.02579e-07
-5.60324e-08
5.05011e-07
-5.2603e-08
5.07287e-07
-4.93357e-08
5.09414e-07
-4.62246e-08
5.11399e-07
-4.32637e-08
5.1325e-07
-4.04474e-08
5.14974e-07
-3.77695e-08
5.16575e-07
-3.52246e-08
5.18061e-07
-3.28068e-08
5.19437e-07
-3.05109e-08
5.20707e-07
-2.83314e-08
5.21877e-07
-2.62633e-08
5.22952e-07
-2.43015e-08
5.23936e-07
-2.24413e-08
5.24834e-07
-2.0678e-08
5.25649e-07
-1.90072e-08
5.26386e-07
-1.74246e-08
5.27048e-07
-1.59261e-08
5.27638e-07
-1.45076e-08
5.28162e-07
-1.31654e-08
5.28621e-07
-1.18957e-08
5.29018e-07
-1.06951e-08
5.29358e-07
-9.56014e-09
5.29642e-07
-8.48755e-09
5.29874e-07
-7.47421e-09
5.30056e-07
-6.51712e-09
5.30191e-07
-5.6134e-09
5.30281e-07
-4.76029e-09
5.30328e-07
-3.95514e-09
-3.19543e-09
4.09936e-07
-1.80541e-07
4.17531e-07
-1.74037e-07
4.24752e-07
-1.67447e-07
4.31613e-07
-1.60813e-07
4.38125e-07
-1.54172e-07
4.44301e-07
-1.47561e-07
4.50152e-07
-1.41011e-07
4.5569e-07
-1.34552e-07
4.60927e-07
-1.28209e-07
4.65875e-07
-1.22005e-07
4.70545e-07
-1.15956e-07
4.74951e-07
-1.10078e-07
4.79104e-07
-1.04383e-07
4.83016e-07
-9.88789e-08
4.86699e-07
-9.3572e-08
4.90163e-07
-8.84656e-08
4.93421e-07
-8.3561e-08
4.96481e-07
-7.88577e-08
4.99356e-07
-7.43537e-08
5.02053e-07
-7.00457e-08
5.04583e-07
-6.59295e-08
5.06953e-07
-6.20001e-08
5.09173e-07
-5.82521e-08
5.11249e-07
-5.46794e-08
5.1319e-07
-5.1276e-08
5.15001e-07
-4.80355e-08
5.16689e-07
-4.49517e-08
5.1826e-07
-4.20183e-08
5.19719e-07
-3.9229e-08
5.21072e-07
-3.65779e-08
5.22325e-07
-3.4059e-08
5.2348e-07
-3.16667e-08
5.24544e-07
-2.93952e-08
5.2552e-07
-2.72394e-08
5.26413e-07
-2.51939e-08
5.27225e-07
-2.32539e-08
5.27962e-07
-2.14146e-08
5.28626e-07
-1.96712e-08
5.29221e-07
-1.80193e-08
5.29749e-07
-1.64548e-08
5.30215e-07
-1.49734e-08
5.30621e-07
-1.35712e-08
5.3097e-07
-1.22444e-08
5.31264e-07
-1.09894e-08
5.31506e-07
-9.80261e-09
5.31699e-07
-8.68072e-09
5.31846e-07
-7.62049e-09
5.31947e-07
-6.61881e-09
5.32007e-07
-5.67271e-09
5.32026e-07
-4.77934e-09
5.32007e-07
-3.93595e-09
-3.13994e-09
4.59368e-07
-1.87291e-07
4.65793e-07
-1.80462e-07
4.71905e-07
-1.73559e-07
4.77714e-07
-1.66622e-07
4.83229e-07
-1.59687e-07
4.88459e-07
-1.52791e-07
4.93413e-07
-1.45965e-07
4.981e-07
-1.39239e-07
5.02529e-07
-1.32639e-07
5.0671e-07
-1.26185e-07
5.10651e-07
-1.19897e-07
5.14362e-07
-1.13789e-07
5.17853e-07
-1.07874e-07
5.21133e-07
-1.02159e-07
5.24212e-07
-9.6651e-08
5.27099e-07
-9.13528e-08
5.29804e-07
-8.62655e-08
5.32334e-07
-8.13884e-08
5.347e-07
-7.67192e-08
5.36909e-07
-7.22542e-08
5.38968e-07
-6.79889e-08
5.40886e-07
-6.39178e-08
5.42668e-07
-6.0035e-08
5.44323e-07
-5.63342e-08
5.45856e-07
-5.2809e-08
5.47273e-07
-4.94525e-08
5.4858e-07
-4.62582e-08
5.49781e-07
-4.32194e-08
5.50882e-07
-4.03297e-08
5.51886e-07
-3.75827e-08
5.528e-07
-3.49722e-08
5.53625e-07
-3.24923e-08
5.54367e-07
-3.01373e-08
5.55029e-07
-2.79015e-08
5.55615e-07
-2.57797e-08
5.56128e-07
-2.37666e-08
5.5657e-07
-2.18573e-08
5.56946e-07
-2.00471e-08
5.57258e-07
-1.83313e-08
5.57509e-07
-1.67056e-08
5.57702e-07
-1.51658e-08
5.57838e-07
-1.37077e-08
5.57921e-07
-1.23276e-08
5.57953e-07
-1.10216e-08
5.57937e-07
-9.78609e-09
5.57874e-07
-8.61772e-09
5.57767e-07
-7.51311e-09
5.57617e-07
-6.4691e-09
5.57427e-07
-5.48263e-09
5.57198e-07
-4.55075e-09
5.56933e-07
-3.67068e-09
-2.83969e-09
4.41839e-07
-1.92e-07
4.46351e-07
-1.84975e-07
4.50673e-07
-1.77881e-07
4.54809e-07
-1.70757e-07
4.58762e-07
-1.6364e-07
4.62537e-07
-1.56565e-07
4.66136e-07
-1.49565e-07
4.69565e-07
-1.42668e-07
4.72826e-07
-1.359e-07
4.75924e-07
-1.29283e-07
4.78863e-07
-1.22836e-07
4.81649e-07
-1.16575e-07
4.84286e-07
-1.10511e-07
4.86779e-07
-1.04653e-07
4.89135e-07
-9.9007e-08
4.91359e-07
-9.35766e-08
4.93456e-07
-8.83626e-08
4.95432e-07
-8.33644e-08
4.97293e-07
-7.85796e-08
4.99043e-07
-7.40042e-08
5.00687e-07
-6.96337e-08
5.02232e-07
-6.54623e-08
5.03681e-07
-6.1484e-08
5.05039e-07
-5.76921e-08
5.0631e-07
-5.408e-08
5.07498e-07
-5.06406e-08
5.08607e-07
-4.73672e-08
5.0964e-07
-4.42528e-08
5.10602e-07
-4.12909e-08
5.11494e-07
-3.84748e-08
5.1232e-07
-3.57982e-08
5.13082e-07
-3.32551e-08
5.13785e-07
-3.08395e-08
5.14429e-07
-2.85457e-08
5.15017e-07
-2.63683e-08
5.15553e-07
-2.4302e-08
5.16037e-07
-2.23418e-08
5.16473e-07
-2.04827e-08
5.16862e-07
-1.87202e-08
5.17206e-07
-1.70498e-08
5.17507e-07
-1.54671e-08
5.17768e-07
-1.39681e-08
5.17989e-07
-1.25487e-08
5.18173e-07
-1.12052e-08
5.1832e-07
-9.93391e-09
5.18434e-07
-8.73132e-09
5.18515e-07
-7.59406e-09
5.18565e-07
-6.51889e-09
5.18585e-07
-5.5027e-09
5.18577e-07
-4.54251e-09
5.18541e-07
-3.63545e-09
-2.7788e-09
4.22708e-07
-1.95084e-07
4.25701e-07
-1.87968e-07
4.28603e-07
-1.80784e-07
4.31415e-07
-1.73569e-07
4.34134e-07
-1.6636e-07
4.36762e-07
-1.59193e-07
4.39296e-07
-1.52099e-07
4.41737e-07
-1.45108e-07
4.44084e-07
-1.38246e-07
4.46337e-07
-1.31536e-07
4.48497e-07
-1.24996e-07
4.50566e-07
-1.18643e-07
4.52543e-07
-1.12488e-07
4.54432e-07
-1.06542e-07
4.56234e-07
-1.00809e-07
4.57952e-07
-9.52947e-08
4.59589e-07
-8.99993e-08
4.61147e-07
-8.49224e-08
4.62629e-07
-8.00618e-08
4.64039e-07
-7.54136e-08
4.65378e-07
-7.09732e-08
4.66651e-07
-6.67348e-08
4.67859e-07
-6.26923e-08
4.69006e-07
-5.88389e-08
4.70094e-07
-5.51679e-08
4.71125e-07
-5.16721e-08
4.72102e-07
-4.83446e-08
4.73028e-07
-4.51785e-08
4.73904e-07
-4.21669e-08
4.74733e-07
-3.93032e-08
4.75515e-07
-3.6581e-08
4.76254e-07
-3.39941e-08
4.76951e-07
-3.15364e-08
4.77608e-07
-2.92023e-08
4.78226e-07
-2.69861e-08
4.78806e-07
-2.48827e-08
4.79351e-07
-2.28868e-08
4.79862e-07
-2.09935e-08
4.8034e-07
-1.91982e-08
4.80787e-07
-1.74963e-08
4.81203e-07
-1.58835e-08
4.81591e-07
-1.43556e-08
4.81951e-07
-1.29086e-08
4.82284e-07
-1.15387e-08
4.82592e-07
-1.02422e-08
4.82876e-07
-9.01547e-09
4.83138e-07
-7.85522e-09
4.83377e-07
-6.75814e-09
4.83595e-07
-5.72107e-09
4.83794e-07
-4.74102e-09
4.83973e-07
-3.8151e-09
4.84135e-07
-2.94052e-09
-2.11463e-09
4.02399e-07
-1.96922e-07
4.04228e-07
-1.89797e-07
4.06043e-07
-1.82599e-07
4.07841e-07
-1.75366e-07
4.09617e-07
-1.68137e-07
4.11368e-07
-1.60944e-07
4.1309e-07
-1.53821e-07
4.14779e-07
-1.46797e-07
4.16431e-07
-1.39899e-07
4.18043e-07
-1.33149e-07
4.19614e-07
-1.26567e-07
4.21141e-07
-1.2017e-07
4.22623e-07
-1.13971e-07
4.2406e-07
-1.07978e-07
4.2545e-07
-1.02199e-07
4.26794e-07
-9.66386e-08
4.28092e-07
-9.12974e-08
4.29345e-07
-8.61754e-08
4.30553e-07
-8.12705e-08
4.31719e-07
-7.65792e-08
4.32842e-07
-7.20968e-08
4.33925e-07
-6.78177e-08
4.34969e-07
-6.37357e-08
4.35974e-07
-5.98443e-08
4.36943e-07
-5.61365e-08
4.37876e-07
-5.26053e-08
4.38775e-07
-4.92437e-08
4.39641e-07
-4.60447e-08
4.40476e-07
-4.30014e-08
4.4128e-07
-4.01071e-08
4.42054e-07
-3.73555e-08
4.428e-07
-3.47402e-08
4.43519e-07
-3.22553e-08
4.44212e-07
-2.98949e-08
4.44879e-07
-2.76535e-08
4.45522e-07
-2.55257e-08
4.46142e-07
-2.35064e-08
4.46739e-07
-2.15906e-08
4.47315e-07
-1.97738e-08
4.47869e-07
-1.80511e-08
4.48404e-07
-1.64185e-08
4.4892e-07
-1.48716e-08
4.49418e-07
-1.34064e-08
4.49899e-07
-1.20191e-08
4.50363e-07
-1.0706e-08
4.50811e-07
-9.46353e-09
4.51244e-07
-8.28823e-09
4.51662e-07
-7.17684e-09
4.52067e-07
-6.12622e-09
4.5246e-07
-5.13332e-09
4.5284e-07
-4.19524e-09
4.53209e-07
-3.30921e-09
4.53567e-07
-2.47253e-09
-1.68264e-09
3.81417e-07
-1.97841e-07
3.82384e-07
-1.90764e-07
3.83395e-07
-1.83609e-07
3.84443e-07
-1.76414e-07
3.85522e-07
-1.69215e-07
3.86624e-07
-1.62047e-07
3.87745e-07
-1.54942e-07
3.88878e-07
-1.4793e-07
3.90017e-07
-1.41038e-07
3.91158e-07
-1.34289e-07
3.92295e-07
-1.27705e-07
3.93426e-07
-1.21301e-07
3.94547e-07
-1.15091e-07
3.95655e-07
-1.09086e-07
3.96748e-07
-1.03292e-07
3.97824e-07
-9.77145e-08
3.98882e-07
-9.23552e-08
3.9992e-07
-8.72141e-08
4.00939e-07
-8.22895e-08
4.01938e-07
-7.75781e-08
4.02917e-07
-7.30755e-08
4.03876e-07
-6.87762e-08
4.04814e-07
-6.46743e-08
4.05733e-07
-6.07632e-08
4.06632e-07
-5.7036e-08
4.07513e-07
-5.34859e-08
4.08375e-07
-5.01057e-08
4.09219e-07
-4.68886e-08
4.10045e-07
-4.38278e-08
4.10855e-07
-4.09164e-08
4.11647e-07
-3.81482e-08
4.12424e-07
-3.55169e-08
4.13185e-07
-3.30164e-08
4.13931e-07
-3.06409e-08
4.14662e-07
-2.83849e-08
4.1538e-07
-2.62431e-08
4.16084e-07
-2.42102e-08
4.16774e-07
-2.22814e-08
4.17453e-07
-2.0452e-08
4.18119e-07
-1.87173e-08
4.18774e-07
-1.70731e-08
4.19417e-07
-1.55152e-08
4.2005e-07
-1.40395e-08
4.20673e-07
-1.26422e-08
4.21287e-07
-1.13196e-08
4.21891e-07
-1.0068e-08
4.22487e-07
-8.88422e-09
4.23075e-07
-7.7648e-09
4.23656e-07
-6.70663e-09
4.24229e-07
-5.70668e-09
4.24796e-07
-4.76204e-09
4.25357e-07
-3.86991e-09
4.25912e-07
-3.02762e-09
-2.23257e-09
3.60249e-07
-1.98108e-07
3.60605e-07
-1.9112e-07
3.61043e-07
-1.84048e-07
3.61557e-07
-1.76927e-07
3.62137e-07
-1.69795e-07
3.62776e-07
-1.62686e-07
3.63467e-07
-1.55633e-07
3.64203e-07
-1.48665e-07
3.64976e-07
-1.41811e-07
3.65781e-07
-1.35094e-07
3.66611e-07
-1.28535e-07
3.67462e-07
-1.22152e-07
3.68329e-07
-1.15958e-07
3.69207e-07
-1.09964e-07
3.70094e-07
-1.04179e-07
3.70986e-07
-9.86066e-08
3.71881e-07
-9.32501e-08
3.72777e-07
-8.81098e-08
3.73671e-07
-8.31843e-08
3.74564e-07
-7.84706e-08
3.75453e-07
-7.39646e-08
3.76338e-07
-6.9661e-08
3.77217e-07
-6.55541e-08
3.78092e-07
-6.16375e-08
3.7896e-07
-5.79045e-08
3.79823e-07
-5.43482e-08
3.80679e-07
-5.09618e-08
3.81528e-07
-4.77382e-08
3.82371e-07
-4.46709e-08
3.83208e-07
-4.17531e-08
3.84038e-07
-3.89784e-08
3.84862e-07
-3.63407e-08
3.8568e-07
-3.38338e-08
3.86491e-07
-3.14522e-08
3.87296e-07
-2.91902e-08
3.88095e-07
-2.70424e-08
3.88889e-07
-2.50039e-08
3.89677e-07
-2.30696e-08
3.9046e-07
-2.12348e-08
3.91238e-07
-1.94951e-08
3.92011e-07
-1.78461e-08
3.92779e-07
-1.62836e-08
3.93543e-07
-1.48035e-08
3.94303e-07
-1.34022e-08
3.95059e-07
-1.20758e-08
3.95812e-07
-1.08208e-08
3.96562e-07
-9.63381e-09
3.97308e-07
-8.51152e-09
3.98053e-07
-7.45078e-09
3.98794e-07
-6.44857e-09
3.99534e-07
-5.50198e-09
4.00273e-07
-4.60823e-09
4.0101e-07
-3.76463e-09
-2.96859e-09
3.39319e-07
-1.97935e-07
3.39261e-07
-1.91062e-07
3.3931e-07
-1.84097e-07
3.39459e-07
-1.77076e-07
3.39699e-07
-1.70035e-07
3.40022e-07
-1.63009e-07
3.40419e-07
-1.5603e-07
3.40883e-07
-1.49129e-07
3.41406e-07
-1.42334e-07
3.41982e-07
-1.3567e-07
3.42604e-07
-1.29157e-07
3.43265e-07
-1.22814e-07
3.43962e-07
-1.16654e-07
3.44688e-07
-1.1069e-07
3.45439e-07
-1.04931e-07
3.46213e-07
-9.93801e-08
3.47005e-07
-9.40421e-08
3.47813e-07
-8.89175e-08
3.48633e-07
-8.40052e-08
3.49465e-07
-7.93026e-08
3.50307e-07
-7.48059e-08
3.51156e-07
-7.05102e-08
3.52012e-07
-6.64099e-08
3.52873e-07
-6.24988e-08
3.53739e-07
-5.87703e-08
3.54609e-07
-5.52179e-08
3.55481e-07
-5.18346e-08
3.56357e-07
-4.86137e-08
3.57234e-07
-4.55485e-08
3.58114e-07
-4.26324e-08
3.58995e-07
-3.98592e-08
3.59877e-07
-3.72227e-08
3.6076e-07
-3.47169e-08
3.61644e-07
-3.23361e-08
3.62528e-07
-3.00748e-08
3.63413e-07
-2.79276e-08
3.64299e-07
-2.58896e-08
3.65185e-07
-2.39559e-08
3.66072e-07
-2.21216e-08
3.6696e-07
-2.03825e-08
3.67848e-07
-1.8734e-08
3.68736e-07
-1.71721e-08
3.69626e-07
-1.56929e-08
3.70516e-07
-1.42923e-08
3.71407e-07
-1.29669e-08
3.72299e-07
-1.1713e-08
3.73192e-07
-1.05272e-08
3.74087e-07
-9.40629e-09
3.74983e-07
-8.34709e-09
3.75881e-07
-7.3466e-09
3.76781e-07
-6.40192e-09
3.77683e-07
-5.51027e-09
3.78588e-07
-4.66896e-09
-3.87541e-09
3.18965e-07
-1.97485e-07
3.18645e-07
-1.90742e-07
3.18447e-07
-1.83899e-07
3.18363e-07
-1.76992e-07
3.18385e-07
-1.70057e-07
3.18504e-07
-1.63128e-07
3.18712e-07
-1.56238e-07
3.19002e-07
-1.49419e-07
3.19365e-07
-1.42697e-07
3.19794e-07
-1.36099e-07
3.20283e-07
-1.29646e-07
3.20826e-07
-1.23356e-07
3.21416e-07
-1.17245e-07
3.22049e-07
-1.11324e-07
3.2272e-07
-1.05601e-07
3.23425e-07
-1.00085e-07
3.24159e-07
-9.47766e-08
3.24921e-07
-8.96787e-08
3.25705e-07
-8.47901e-08
3.26511e-07
-8.01087e-08
3.27336e-07
-7.56309e-08
3.28178e-07
-7.13522e-08
3.29036e-07
-6.72672e-08
3.29907e-07
-6.33699e-08
3.3079e-07
-5.9654e-08
3.31685e-07
-5.61129e-08
3.32591e-07
-5.27401e-08
3.33506e-07
-4.95288e-08
3.3443e-07
-4.64724e-08
3.35362e-07
-4.35647e-08
3.36302e-07
-4.07991e-08
3.37249e-07
-3.81698e-08
3.38203e-07
-3.56708e-08
3.39163e-07
-3.32963e-08
3.4013e-07
-3.10411e-08
3.41102e-07
-2.88998e-08
3.42079e-07
-2.68673e-08
3.43063e-07
-2.49389e-08
3.44051e-07
-2.31099e-08
3.45044e-07
-2.13757e-08
3.46042e-07
-1.97322e-08
3.47045e-07
-1.81753e-08
3.48053e-07
-1.67008e-08
3.49066e-07
-1.53051e-08
3.50084e-07
-1.39844e-08
3.51106e-07
-1.27353e-08
3.52133e-07
-1.15544e-08
3.53165e-07
-1.04384e-08
3.54202e-07
-9.38413e-09
3.55244e-07
-8.38866e-09
3.56291e-07
-7.4491e-09
3.57344e-07
-6.56265e-09
3.58402e-07
-5.72666e-09
-4.93854e-09
2.99438e-07
-1.96881e-07
2.9897e-07
-1.90275e-07
2.98632e-07
-1.83561e-07
2.98415e-07
-1.76775e-07
2.98311e-07
-1.69953e-07
2.98313e-07
-1.63129e-07
2.98411e-07
-1.56337e-07
2.986e-07
-1.49607e-07
2.9887e-07
-1.42968e-07
2.99216e-07
-1.36445e-07
2.9963e-07
-1.30061e-07
3.00107e-07
-1.23833e-07
3.0064e-07
-1.17778e-07
3.01225e-07