/*--------------------------------*- C++ -*----------------------------------*\
  =========                 |
  \\      /  F ield         | OpenFOAM: The Open Source CFD Toolbox
   \\    /   O peration     | Website:  https://openfoam.org
    \\  /    A nd           | Version:  6
     \\/     M anipulation  |
\*---------------------------------------------------------------------------*/
FoamFile
{
    version     2.0;
    format      ascii;
    class       volVectorField;
    location    "0.03";
    object      U;
}
// * * * * * * * * * * * * * * * * * * * * * * * * * * * * * * * * * * * * * //

dimensions      [0 1 -1 0 0 0 0];

internalField   nonuniform List<vector> 
3032
(
(0.221617 -0.0114405 0)
(0.233015 -0.0109787 -4.73964e-21)
(0.244065 -0.0105117 -4.73021e-21)
(0.254753 -0.0100433 -4.71647e-21)
(0.265065 -0.009577 0)
(0.274994 -0.00911557 4.67812e-21)
(0.284537 -0.00866156 0)
(0.29369 -0.00821712 -4.62832e-21)
(0.302454 -0.00778402 -4.60013e-21)
(0.310834 -0.00736373 0)
(0.318833 -0.00695739 0)
(0.32646 -0.00656587 0)
(0.33372 -0.0061898 -4.47295e-21)
(0.340625 -0.00582957 0)
(0.347185 -0.0054854 0)
(0.35341 -0.00515733 0)
(0.359312 -0.00484526 0)
(0.364903 -0.00454897 0)
(0.370195 -0.00426815 0)
(0.375202 -0.00400241 0)
(0.379934 -0.00375128 0)
(0.384404 -0.00351428 4.16012e-21)
(0.388624 -0.00329086 0)
(0.392607 -0.00308046 0)
(0.396363 -0.00288252 -4.05943e-21)
(0.399905 -0.00269645 -4.0268e-21)
(0.403242 -0.00252167 0)
(0.406386 -0.00235762 3.96308e-21)
(0.409346 -0.00220373 -3.93203e-21)
(0.412133 -0.00205945 0)
(0.414755 -0.00192425 3.87158e-21)
(0.417222 -0.00179761 0)
(0.419542 -0.00167904 0)
(0.421724 -0.00156807 -3.78507e-21)
(0.423774 -0.00146424 0)
(0.425701 -0.00136713 3.73012e-21)
(0.427512 -0.00127632 0)
(0.429213 -0.00119143 -3.67727e-21)
(0.43081 -0.00111209 -3.6516e-21)
(0.432309 -0.00103796 -3.62643e-21)
(0.433717 -0.000968707 -7.20346e-21)
(0.435038 -0.000904037 7.155e-21)
(0.436278 -0.000843654 0)
(0.437441 -0.000787287 0)
(0.438532 -0.000734679 0)
(0.439556 -0.000685585 6.96985e-21)
(0.440515 -0.00063978 6.9256e-21)
(0.441415 -0.000597057 -6.88209e-21)
(0.442258 -0.000557232 0)
(0.232085 -0.0264745 5.32186e-21)
(0.243894 -0.0254904 -2.61483e-21)
(0.255367 -0.0244823 2.78927e-21)
(0.266488 -0.0234595 8.28761e-21)
(0.277242 -0.0224307 -5.51797e-21)
(0.28762 -0.0214034 -2.83775e-21)
(0.297615 -0.0203844 0)
(0.307222 -0.0193796 2.85587e-21)
(0.316442 -0.018394 -2.75554e-21)
(0.325274 -0.0174318 0)
(0.333722 -0.0164965 0)
(0.341792 -0.0155908 0)
(0.349491 -0.0147169 2.86355e-21)
(0.356826 -0.0138764 0)
(0.363807 -0.0130703 -5.63706e-21)
(0.370443 -0.0122991 0)
(0.376747 -0.0115632 -5.62048e-21)
(0.382728 -0.0108625 0)
(0.388399 -0.0101966 5.59593e-21)
(0.393771 -0.00956481 0)
(0.398857 -0.00896644 -5.56516e-21)
(0.403669 -0.00840055 2.75056e-21)
(0.408218 -0.00786609 0)
(0.412516 -0.00736192 5.5105e-21)
(0.416575 -0.00688685 2.76441e-21)
(0.420406 -0.00643966 2.75289e-21)
(0.42402 -0.0060191 0)
(0.427428 -0.00562391 2.69822e-21)
(0.430641 -0.00525285 2.71739e-21)
(0.433667 -0.00490468 0)
(0.436518 -0.0045782 -2.69331e-21)
(0.439201 -0.00427224 5.33887e-21)
(0.441726 -0.00398566 0)
(0.444102 -0.00371736 2.6571e-21)
(0.446337 -0.0034663 0)
(0.448437 -0.00323146 -7.8816e-21)
(0.450412 -0.00301189 0)
(0.452267 -0.00280667 7.81282e-21)
(0.45401 -0.00261493 2.59769e-21)
(0.455646 -0.00243584 -2.57263e-21)
(0.457182 -0.00226864 -5.12398e-21)
(0.458624 -0.00211258 5.10278e-21)
(0.459977 -0.00196698 0)
(0.461247 -0.00183117 0)
(0.462437 -0.00170454 0)
(0.463553 -0.00158651 -1.50914e-20)
(0.4646 -0.00147654 -5.01435e-21)
(0.465581 -0.00137412 4.99259e-21)
(0.4665 -0.00127879 0)
(0.236074 -0.0438 -7.51966e-21)
(0.247987 -0.0422296 7.63843e-21)
(0.25957 -0.040614 3.82886e-21)
(0.270805 -0.0389686 -3.96561e-21)
(0.281678 -0.0373077 8.17679e-23)
(0.292178 -0.0356439 -3.96852e-21)
(0.302298 -0.0339887 0)
(0.312033 -0.032352 -4.03951e-21)
(0.321381 -0.0307424 6.73137e-23)
(0.330344 -0.0291672 0)
(0.338924 -0.0276325 0)
(0.347125 -0.0261431 4.13623e-21)
(0.354955 -0.0247029 0)
(0.362421 -0.023315 0)
(0.369531 -0.0219813 -4.12772e-21)
(0.376296 -0.0207032 -8.36895e-21)
(0.382725 -0.0194814 4.23369e-21)
(0.388831 -0.0183161 0)
(0.394623 -0.0172068 -4.2351e-21)
(0.400115 -0.0161528 0)
(0.405317 -0.0151531 -4.16253e-21)
(0.410242 -0.0142063 -4.22588e-21)
(0.4149 -0.0133108 8.38093e-21)
(0.419305 -0.012465 4.15768e-21)
(0.423467 -0.011667 0)
(0.427397 -0.0109149 -8.34686e-21)
(0.431107 -0.0102068 0)
(0.434607 -0.00954064 -1.24953e-20)
(0.437907 -0.00891451 -8.29821e-21)
(0.441018 -0.00832643 -8.27953e-21)
(0.443949 -0.00777446 8.25985e-21)
(0.446709 -0.00725672 -1.23756e-20)
(0.449308 -0.00677137 0)
(0.451753 -0.00631662 0)
(0.454053 -0.00589078 8.17335e-21)
(0.456216 -0.00549219 1.22381e-20)
(0.45825 -0.00511928 0)
(0.460161 -0.00477055 -4.06249e-21)
(0.461956 -0.00444456 0)
(0.463642 -0.00413995 1.20905e-20)
(0.465225 -0.00385542 1.81084e-23)
(0.46671 -0.00358976 -1.68953e-23)
(0.468104 -0.00334182 -7.97886e-21)
(0.469412 -0.00311049 0)
(0.470638 -0.00289476 7.92808e-21)
(0.471788 -0.00269367 1.27722e-23)
(0.472865 -0.0025063 0)
(0.473875 -0.00233179 0)
(0.474822 -0.00216933 0)
(0.239489 -0.061826 3.05006e-21)
(0.251445 -0.0596321 -3.10509e-21)
(0.263068 -0.0573731 -3.15606e-21)
(0.27434 -0.0550709 0)
(0.285248 -0.0527451 3.24618e-21)
(0.295781 -0.0504137 3.28557e-21)
(0.305933 -0.0480927 -6.55251e-21)
(0.315698 -0.045796 3.35373e-21)
(0.325077 -0.0435359 3.3828e-21)
(0.33407 -0.0413227 0)
(0.34268 -0.0391649 0)
(0.350911 -0.0370696 -3.45199e-21)
(0.358772 -0.0350423 0)
(0.366268 -0.0330873 0)
(0.373409 -0.0312076 6.99544e-21)
(0.380206 -0.0294051 7.01706e-21)
(0.386667 -0.027681 0)
(0.392805 -0.0260355 0)
(0.39863 -0.0244682 0)
(0.404155 -0.0229782 0)
(0.40939 -0.021564 7.07254e-21)
(0.414348 -0.0202238 -7.03225e-21)
(0.41904 -0.0189556 -7.07516e-21)
(0.423477 -0.0177569 -1.41083e-20)
(0.427672 -0.0166254 0)
(0.431635 -0.0155583 3.39074e-23)
(0.435376 -0.014553 0)
(0.438908 -0.0136068 7.04806e-21)
(0.442239 -0.0127169 2.8315e-23)
(0.445379 -0.0118806 7.02727e-21)
(0.448339 -0.0110953 -7.01528e-21)
(0.451128 -0.0103582 2.35303e-23)
(0.453753 -0.00966696 0)
(0.456225 -0.00901899 -6.95342e-21)
(0.45855 -0.00841192 -6.95904e-21)
(0.460737 -0.00784347 -1.38684e-20)
(0.462793 -0.00731143 0)
(0.464726 -0.0068137 6.89432e-21)
(0.466542 -0.00634826 0)
(0.468247 -0.00591321 -1.37374e-20)
(0.469849 -0.00550673 6.85792e-21)
(0.471351 -0.0051271 -6.8398e-21)
(0.472762 -0.00477269 6.82141e-21)
(0.474084 -0.00444197 1.3584e-20)
(0.475325 -0.00413349 -6.78396e-21)
(0.476488 -0.00384588 6.76494e-21)
(0.477578 -0.00357786 0)
(0.478599 -0.00332819 -1.34363e-20)
(0.479556 -0.00309571 0)
(0.243382 -0.0798882 5.19545e-21)
(0.255351 -0.0770613 5.30154e-21)
(0.266976 -0.0741512 5.40063e-21)
(0.27824 -0.0711857 0)
(0.289133 -0.0681901 -5.57834e-21)
(0.299644 -0.0651873 0)
(0.309768 -0.0621977 1.15201e-20)
(0.319503 -0.0592394 0)
(0.328849 -0.0563277 -5.85713e-21)
(0.337806 -0.0534761 0)
(0.346379 -0.0506955 5.96196e-21)
(0.354573 -0.0479949 0)
(0.362397 -0.0453815 0)
(0.369857 -0.0428607 0)
(0.376964 -0.0404364 0)
(0.383727 -0.0381111 0)
(0.390157 -0.0358863 0)
(0.396265 -0.0337623 0)
(0.402064 -0.0317386 6.20126e-21)
(0.407563 -0.029814 0)
(0.412776 -0.0279867 0)
(0.417713 -0.0262544 6.26693e-21)
(0.422386 -0.0246144 0)
(0.426808 -0.0230638 6.2749e-21)
(0.430988 -0.0215994 6.24918e-21)
(0.434939 -0.0202179 6.27535e-21)
(0.43867 -0.0189158 0)
(0.442192 -0.0176897 0)
(0.445515 -0.0165361 6.26466e-21)
(0.448649 -0.0154515 -1.24765e-20)
(0.451604 -0.0144326 0)
(0.454388 -0.0134759 1.86939e-20)
(0.457011 -0.0125783 0)
(0.459479 -0.0117366 6.22462e-21)
(0.461803 -0.0109477 0)
(0.463988 -0.0102088 6.203e-21)
(0.466044 -0.00951691 1.23557e-20)
(0.467976 -0.00886945 -6.17902e-21)
(0.469791 -0.00826382 0)
(0.471496 -0.00769757 6.15309e-21)
(0.473098 -0.00716837 -1.2258e-20)
(0.474601 -0.006674 0)
(0.476011 -0.00621237 0)
(0.477334 -0.00578151 -1.21934e-20)
(0.478575 -0.00537954 0)
(0.479738 -0.0050047 1.21182e-20)
(0.480828 -0.00465532 0)
(0.48185 -0.0043298 1.20716e-20)
(0.482806 -0.00402664 0)
(0.248198 -0.0979391 -4.75065e-21)
(0.260146 -0.0944579 -4.84932e-21)
(0.271734 -0.0908788 -4.94168e-21)
(0.282948 -0.0872352 -4.9815e-21)
(0.293777 -0.0835578 5.10793e-21)
(0.304216 -0.0798741 0)
(0.31426 -0.076209 -5.2505e-21)
(0.323908 -0.0725841 0)
(0.333163 -0.0690179 4.00155e-23)
(0.342026 -0.0655266 0)
(0.350504 -0.0621233 -1.09038e-20)
(0.358602 -0.0588187 0)
(0.36633 -0.0556214 5.51679e-21)
(0.373697 -0.0525379 0)
(0.380712 -0.0495727 0)
(0.387386 -0.0467289 1.12235e-20)
(0.39373 -0.0440079 0)
(0.399756 -0.0414101 0)
(0.405476 -0.0389349 -5.70367e-21)
(0.410901 -0.0365807 0)
(0.416043 -0.0343452 0)
(0.420914 -0.0322255 1.14301e-20)
(0.425526 -0.0302184 0)
(0.429889 -0.0283203 -1.146e-20)
(0.434015 -0.0265273 -5.75586e-21)
(0.437915 -0.0248352 0)
(0.441599 -0.02324 1.14779e-20)
(0.445078 -0.0217375 0)
(0.448362 -0.0203233 -1.14751e-20)
(0.451459 -0.0189933 2.29732e-20)
(0.454379 -0.0177434 0)
(0.457132 -0.0165696 -1.14833e-20)
(0.459725 -0.0154678 0)
(0.462167 -0.0144343 0)
(0.464466 -0.0134654 -1.14155e-20)
(0.466629 -0.0125575 0)
(0.468664 -0.0117072 -1.14054e-20)
(0.470576 -0.0109113 1.13648e-20)
(0.472374 -0.0101666 0)
(0.474063 -0.00947016 0)
(0.475649 -0.00881912 1.1322e-20)
(0.477137 -0.0082108 -1.12823e-20)
(0.478535 -0.00764265 -1.12596e-20)
(0.479845 -0.00711226 -1.12361e-20)
(0.481075 -0.00661734 0)
(0.482227 -0.00615574 -1.12004e-20)
(0.483307 -0.0057254 -1.11619e-20)
(0.484319 -0.0053244 0)
(0.485267 -0.00495087 0)
(0.254234 -0.115956 0)
(0.266118 -0.111791 4.46315e-21)
(0.27762 -0.107517 -4.55265e-21)
(0.288731 -0.103175 4.66898e-21)
(0.299443 -0.0987983 -9.42845e-21)
(0.309753 -0.0944205 0)
(0.319659 -0.0900698 9.7071e-21)
(0.329162 -0.085771 -9.83061e-21)
(0.338267 -0.0815459 -4.94289e-21)
(0.346978 -0.0774126 0)
(0.355301 -0.0733862 5.09909e-21)
(0.363247 -0.0694792 0)
(0.370822 -0.0657009 -5.17948e-21)
(0.378039 -0.0620588 0)
(0.384908 -0.0585578 0)
(0.39144 -0.0552011 -1.05424e-20)
(0.397647 -0.0519903 0)
(0.403541 -0.0489256 1.05861e-20)
(0.409134 -0.0460058 0)
(0.414439 -0.043229 0)
(0.419466 -0.0405924 0)
(0.424228 -0.0380924 -2.14513e-20)
(0.428737 -0.0357251 -1.07247e-20)
(0.433004 -0.0334862 1.07759e-20)
(0.437039 -0.0313709 1.0751e-20)
(0.440853 -0.0293744 0)
(0.444458 -0.0274919 -1.07963e-20)
(0.447862 -0.0257184 0)
(0.451075 -0.0240488 1.07959e-20)
(0.454108 -0.0224782 -2.7777e-23)
(0.456968 -0.0210018 0)
(0.459664 -0.0196149 0)
(0.462204 -0.0183128 1.07453e-20)
(0.464598 -0.0170911 0)
(0.466851 -0.0159454 1.07457e-20)
(0.468972 -0.0148715 0)
(0.470967 -0.0138656 -1.06973e-20)
(0.472843 -0.0129237 -1.07006e-20)
(0.474607 -0.0120422 0)
(0.476264 -0.0112176 0)
(0.477821 -0.0104466 0)
(0.479282 -0.00972608 1.06263e-20)
(0.480654 -0.00905299 1.06057e-20)
(0.481941 -0.00842451 1.05843e-20)
(0.483148 -0.00783795 0)
(0.48428 -0.00729077 0)
(0.48534 -0.00678057 1.05167e-20)
(0.486334 -0.00630506 1.04826e-20)
(0.487265 -0.00586207 0)
(0.488137 -0.00544952 0)
(0.26174 -0.13387 0)
(0.273494 -0.128986 -1.27043e-20)
(0.284846 -0.12399 1.2962e-20)
(0.295788 -0.118925 0)
(0.306317 -0.113831 4.54241e-23)
(0.316432 -0.108745 0)
(0.326135 -0.103699 -9.24959e-21)
(0.335429 -0.0987197 9.36832e-21)
(0.34432 -0.093832 9.47752e-21)
(0.352816 -0.0890559 0)
(0.360925 -0.0844081 0)
(0.368657 -0.079902 0)
(0.376022 -0.075548 -9.78652e-21)
(0.383033 -0.0713537 0)
(0.389702 -0.0673245 9.91605e-21)
(0.396039 -0.0634634 0)
(0.402058 -0.0597719 0)
(0.407772 -0.0562496 -1.00983e-20)
(0.413192 -0.0528951 0)
(0.418331 -0.0497056 0)
(0.423202 -0.0466777 0)
(0.427815 -0.0438072 2.03982e-20)
(0.432182 -0.0410891 1.02337e-20)
(0.436315 -0.0385185 0)
(0.440224 -0.0360899 -2.9221e-23)
(0.44392 -0.0337976 0)
(0.447413 -0.0316359 1.02466e-20)
(0.450712 -0.029599 -1.02504e-20)
(0.453828 -0.0276813 1.02519e-20)
(0.456768 -0.0258769 -1.02751e-20)
(0.459542 -0.0241805 0)
(0.462158 -0.0225864 1.02436e-20)
(0.464624 -0.0210896 -2.09704e-23)
(0.466948 -0.0196847 0)
(0.469136 -0.018367 0)
(0.471196 -0.0171317 1.02087e-20)
(0.473134 -0.0159741 1.02139e-20)
(0.474958 -0.0148901 1.01834e-20)
(0.476672 -0.0138753 1.01691e-20)
(0.478283 -0.0129258 -1.01538e-20)
(0.479797 -0.0120378 0)
(0.481219 -0.0112078 0)
(0.482553 -0.0104322 0)
(0.483806 -0.00970793 0)
(0.48498 -0.00903183 -2.01296e-20)
(0.486082 -0.00840102 0)
(0.487114 -0.00781273 0)
(0.488082 -0.00726434 -3.00191e-20)
(0.488988 -0.00675337 0)
(0.489837 -0.00627747 1.99186e-20)
(0.270932 -0.151575 -7.93465e-21)
(0.282473 -0.145939 1.62591e-20)
(0.29359 -0.140192 -8.31256e-21)
(0.304281 -0.134383 -8.43533e-21)
(0.314546 -0.128556 1.71937e-20)
(0.324388 -0.122751 0)
(0.333812 -0.117001 0)
(0.342824 -0.111338 0)
(0.351431 -0.105788 0)
(0.359644 -0.100371 -9.16121e-21)
(0.367473 -0.0951069 0)
(0.37493 -0.0900086 0)
(0.382026 -0.0850873 9.43718e-21)
(0.388774 -0.0803508 0)
(0.395187 -0.0758042 -1.90957e-20)
(0.401277 -0.0714505 0)
(0.407059 -0.0672905 9.63365e-21)
(0.412544 -0.0633234 0)
(0.417746 -0.0595469 0)
(0.422676 -0.0559576 0)
(0.427348 -0.0525511 0)
(0.431772 -0.0493225 -9.82335e-21)
(0.435961 -0.0462659 0)
(0.439924 -0.0433755 -9.83202e-21)
(0.443674 -0.0406449 -2.51105e-23)
(0.447219 -0.0380677 0)
(0.450571 -0.0356371 -9.88571e-21)
(0.453737 -0.0333468 9.88957e-21)
(0.456728 -0.0311902 -9.89109e-21)
(0.459551 -0.0291609 0)
(0.462215 -0.0272526 0)
(0.464728 -0.0254593 -1.97473e-20)
(0.467098 -0.0237748 -9.87731e-21)
(0.469331 -0.0221937 0)
(0.471435 -0.0207102 0)
(0.473417 -0.0193192 -2.95178e-20)
(0.475282 -0.0180155 0)
(0.477037 -0.0167943 -2.9448e-20)
(0.478687 -0.0156508 -9.81232e-21)
(0.480239 -0.0145807 9.79766e-21)
(0.481697 -0.0135797 1.95383e-20)
(0.483066 -0.0126438 0)
(0.484352 -0.0117692 0)
(0.485559 -0.0109522 0)
(0.486692 -0.0101895 2.11586e-23)
(0.487754 -0.00947769 -1.93663e-20)
(0.488749 -0.00881374 0)
(0.489683 -0.00819473 1.80421e-23)
(0.490557 -0.00761787 0)
(0.491375 -0.00708053 -1.9222e-20)
(0.492141 -0.00658019 -1.91631e-20)
(0.282 -0.16893 2.45512e-23)
(0.293215 -0.162512 -2.37404e-23)
(0.303992 -0.155993 8.02474e-21)
(0.314332 -0.149424 8.19955e-21)
(0.324238 -0.142854 -1.6659e-20)
(0.333718 -0.136323 0)
(0.342777 -0.129869 0)
(0.351425 -0.123524 0)
(0.359672 -0.117316 -8.78801e-21)
(0.367529 -0.111267 2.41885e-23)
(0.37501 -0.105396 0)
(0.382125 -0.0997168 0)
(0.38889 -0.0942412 0)
(0.395316 -0.0889766 0)
(0.401418 -0.0839278 2.50457e-23)
(0.40721 -0.0790971 0)
(0.412704 -0.0744846 -1.87154e-20)
(0.417914 -0.0700888 0)
(0.422852 -0.0659065 0)
(0.427532 -0.0619333 0)
(0.431965 -0.0581641 0)
(0.436163 -0.0545927 0)
(0.440137 -0.0512127 9.52536e-21)
(0.443898 -0.0480169 1.9106e-20)
(0.447455 -0.0449981 -9.57693e-21)
(0.45082 -0.0421491 0)
(0.454001 -0.0394624 -1.91454e-20)
(0.457007 -0.0369306 1.91556e-20)
(0.459846 -0.0345465 0)
(0.462528 -0.0323029 -1.91629e-20)
(0.46506 -0.0301928 1.91605e-20)
(0.467448 -0.0282095 2.87498e-20)
(0.469701 -0.0263463 0)
(0.471825 -0.0245971 0)
(0.473827 -0.0229556 0)
(0.475713 -0.0214161 1.91314e-20)
(0.477489 -0.0199729 1.90811e-20)
(0.47916 -0.0186206 3.81459e-20)
(0.480732 -0.0173543 0)
(0.482211 -0.0161689 -1.90087e-20)
(0.483601 -0.0150598 -2.43551e-23)
(0.484907 -0.0140227 -1.89514e-20)
(0.486133 -0.0130532 -1.89203e-20)
(0.487285 -0.0121475 0)
(0.488365 -0.0113017 3.77276e-20)
(0.489378 -0.0105122 3.76561e-20)
(0.490329 -0.00977572 0)
(0.491219 -0.00908893 1.87616e-20)
(0.492054 -0.00844881 0)
(0.492835 -0.00785245 0)
(0.493567 -0.0072971 1.86396e-20)
(0.295084 -0.185752 7.52315e-21)
(0.305841 -0.178535 -1.67749e-23)
(0.316153 -0.171232 -7.85082e-21)
(0.326025 -0.163899 7.9827e-21)
(0.335463 -0.156583 1.66754e-23)
(0.344477 -0.149331 0)
(0.353076 -0.14218 0)
(0.361271 -0.135164 8.47898e-21)
(0.369075 -0.128311 8.59899e-21)
(0.3765 -0.121644 8.69278e-21)
(0.38356 -0.115183 8.75914e-21)
(0.390268 -0.108941 0)
(0.396638 -0.10293 0)
(0.402684 -0.097157 0)
(0.40842 -0.0916258 9.05019e-21)
(0.413861 -0.0863382 0)
(0.419019 -0.0812935 2.13107e-23)
(0.423908 -0.076489 9.16759e-21)
(0.42854 -0.0719207 -9.20348e-21)
(0.432929 -0.0675832 0)
(0.437085 -0.0634701 1.8524e-20)
(0.441021 -0.0595743 -1.85705e-20)
(0.444746 -0.0558883 -2.79353e-20)
(0.448271 -0.0524041 -2.79839e-20)
(0.451607 -0.0491135 0)
(0.454762 -0.0460083 0)
(0.457745 -0.0430801 1.87435e-20)
(0.460566 -0.0403208 -1.87534e-20)
(0.46323 -0.0377224 0)
(0.465748 -0.0352769 1.87602e-20)
(0.468125 -0.0329768 -1.87577e-20)
(0.470369 -0.0308145 -1.87518e-20)
(0.472486 -0.0287829 0)
(0.474483 -0.0268752 0)
(0.476365 -0.0250847 -1.86859e-20)
(0.478139 -0.0234051 0)
(0.47981 -0.0218302 -1.86786e-20)
(0.481384 -0.0203543 -1.86568e-20)
(0.482864 -0.0189718 -1.86076e-20)
(0.484257 -0.0176774 1.86072e-20)
(0.485567 -0.0164661 -1.85797e-20)
(0.486798 -0.0153331 1.85505e-20)
(0.487954 -0.0142738 3.70186e-20)
(0.48904 -0.013284 0)
(0.490059 -0.0123594 -1.84544e-20)
(0.491015 -0.0114963 -1.84197e-20)
(0.491912 -0.0106909 0)
(0.492752 -0.0099398 0)
(0.49354 -0.00923957 0)
(0.494277 -0.00858711 1.82543e-20)
(0.494968 -0.00797946 0)
(0.310269 -0.201825 0)
(0.320414 -0.193807 -1.22746e-23)
(0.330119 -0.185724 0)
(0.33939 -0.177635 -1.56822e-20)
(0.348239 -0.169588 7.98332e-21)
(0.356677 -0.161631 0)
(0.364713 -0.153802 0)
(0.372362 -0.146136 -8.33634e-21)
(0.379637 -0.13866 8.4217e-21)
(0.386549 -0.1314 0)
(0.393115 -0.124373 -8.61357e-21)
(0.399347 -0.117595 -8.67382e-21)
(0.40526 -0.111074 0)
(0.410868 -0.104818 0)
(0.416185 -0.0988299 0)
(0.421224 -0.0931106 0)
(0.426 -0.0876584 8.9784e-21)
(0.430525 -0.0824695 -9.01887e-21)
(0.434811 -0.0775388 9.05449e-21)
(0.43887 -0.0728597 -1.81327e-20)
(0.442714 -0.0684248 -3.64116e-20)
(0.446354 -0.0642259 1.82711e-20)
(0.449799 -0.0602544 1.83099e-20)
(0.45306 -0.0565013 1.83422e-20)
(0.456146 -0.0529574 0)
(0.459065 -0.0496136 0)
(0.461826 -0.0464607 0)
(0.464436 -0.0434898 0)
(0.466904 -0.040692 -1.83869e-20)
(0.469236 -0.0380588 0)
(0.471439 -0.0355818 0)
(0.473519 -0.0332531 0)
(0.475483 -0.0310648 1.8378e-20)
(0.477335 -0.0290096 0)
(0.479083 -0.0270803 2.84195e-23)
(0.48073 -0.0252701 0)
(0.482282 -0.0235724 1.83224e-20)
(0.483744 -0.0219811 0)
(0.485121 -0.0204902 1.83055e-20)
(0.486416 -0.019094 0)
(0.487635 -0.0177872 0)
(0.48878 -0.0165645 0)
(0.489856 -0.0154212 -1.81973e-20)
(0.490867 -0.0143525 0)
(0.491816 -0.0133542 0)
(0.492706 -0.012422 -1.80827e-20)
(0.493541 -0.011552 -1.80488e-20)
(0.494324 -0.0107404 -1.80137e-20)
(0.495058 -0.00998373 0)
(0.495745 -0.00927856 -1.49446e-23)
(0.496388 -0.0086217 0)
(0.32756 -0.216898 0)
(0.336925 -0.208099 -9.63491e-24)
(0.345868 -0.199262 7.57653e-21)
(0.3544 -0.190445 7.72986e-21)
(0.362532 -0.181698 0)
(0.370276 -0.173068 7.97764e-21)
(0.377645 -0.164595 0)
(0.384651 -0.156312 0)
(0.391308 -0.14825 -8.31092e-21)
(0.397629 -0.140431 1.67763e-20)
(0.403627 -0.132873 0)
(0.409318 -0.125591 8.56187e-21)
(0.414713 -0.118593 0)
(0.419828 -0.111887 0)
(0.424674 -0.105474 0)
(0.429267 -0.0993537 0)
(0.433617 -0.0935236 0)
(0.437737 -0.087979 0)
(0.44164 -0.0827133 -1.78097e-20)
(0.445335 -0.0777191 1.79076e-20)
(0.448835 -0.0729876 1.79615e-20)
(0.452149 -0.0685098 1.79716e-20)
(0.455286 -0.0642757 -1.80109e-20)
(0.458255 -0.0602755 0)
(0.461066 -0.0564991 0)
(0.463725 -0.0529364 0)
(0.466242 -0.0495775 0)
(0.468622 -0.0464125 1.81206e-20)
(0.470873 -0.0434319 1.81608e-20)
(0.473001 -0.0406265 -1.81318e-20)
(0.475012 -0.0379874 1.81319e-20)
(0.476911 -0.0355059 0)
(0.478705 -0.0331738 -3.62739e-20)
(0.480399 -0.0309832 0)
(0.481997 -0.0289264 1.81288e-20)
(0.483504 -0.0269962 1.80868e-20)
(0.484925 -0.0251856 -3.61663e-20)
(0.486263 -0.0234881 0)
(0.487524 -0.0218973 0)
(0.488711 -0.0204073 -1.80082e-20)
(0.489828 -0.0190123 1.79839e-20)
(0.490878 -0.0177069 -1.79579e-20)
(0.491865 -0.0164859 1.79304e-20)
(0.492792 -0.0153444 0)
(0.493663 -0.0142778 0)
(0.49448 -0.0132817 1.78887e-23)
(0.495246 -0.0123518 1.78235e-20)
(0.495964 -0.0114842 1.63584e-23)
(0.496637 -0.0106752 0)
(0.497268 -0.00992107 -1.49058e-23)
(0.497858 -0.00921853 -1.76632e-20)
(0.346872 -0.230703 0)
(0.355283 -0.22117 -7.34323e-21)
(0.363306 -0.211627 -7.49497e-21)
(0.370956 -0.202132 0)
(0.378242 -0.192735 0)
(0.385178 -0.183483 -7.89251e-21)
(0.391774 -0.174415 0)
(0.398043 -0.165566 0)
(0.403998 -0.156964 0)
(0.409651 -0.148632 -1.66029e-20)
(0.415014 -0.140588 0)
(0.4201 -0.132846 0)
(0.424922 -0.125414 -1.70272e-20)
(0.429492 -0.118297 0)
(0.433822 -0.111496 -1.7263e-20)
(0.437924 -0.105011 0)
(0.44181 -0.0988381 0)
(0.445491 -0.0929706 0)
(0.448977 -0.0874014 1.76389e-20)
(0.452279 -0.0821218 1.76661e-20)
(0.455406 -0.0771222 -1.77201e-20)
(0.458367 -0.0723921 -3.49783e-23)
(0.461172 -0.067921 1.78411e-20)
(0.463827 -0.0636978 0)
(0.466342 -0.0597116 0)
(0.468722 -0.0559515 0)
(0.470975 -0.0524067 0)
(0.473107 -0.0490667 -1.79514e-20)
(0.475124 -0.0459213 -1.7927e-20)
(0.477031 -0.0429607 1.79627e-20)
(0.478835 -0.0401753 -1.79628e-20)
(0.48054 -0.0375559 -1.79298e-20)
(0.482151 -0.0350939 1.79533e-20)
(0.483672 -0.0327809 0)
(0.485108 -0.0306088 0)
(0.486464 -0.02857 -2.6396e-23)
(0.487742 -0.0266572 2.55123e-23)
(0.488947 -0.0248635 -1.78581e-20)
(0.490082 -0.0231822 1.78384e-20)
(0.491151 -0.021607 2.28544e-23)
(0.492157 -0.0201319 -1.78153e-20)
(0.493103 -0.0187512 3.55577e-20)
(0.493992 -0.0174596 -1.7762e-20)
(0.494828 -0.0162518 0)
(0.495613 -0.0151229 -1.76841e-20)
(0.49635 -0.0140685 1.76712e-20)
(0.497041 -0.0130839 0)
(0.497688 -0.0121652 1.76043e-20)
(0.498295 -0.0113082 0)
(0.498863 -0.0105093 1.7503e-20)
(0.499395 -0.00976495 -1.74671e-20)
(0.499893 -0.00907172 0)
(0.368022 -0.242974 1.42494e-20)
(0.375308 -0.232781 0)
(0.382261 -0.222606 1.48716e-20)
(0.388891 -0.212506 0)
(0.39521 -0.202531 0)
(0.401227 -0.192726 1.56582e-20)
(0.406953 -0.183131 0)
(0.412399 -0.173778 1.60948e-20)
(0.417573 -0.164698 -1.62888e-20)
(0.422488 -0.155911 0)
(0.427153 -0.147436 -1.66318e-20)
(0.43158 -0.139285 -1.67821e-20)
(0.435778 -0.131468 1.69501e-20)
(0.439759 -0.123986 0)
(0.443532 -0.116843 3.43449e-20)
(0.447108 -0.110035 0)
(0.450497 -0.103558 0)
(0.453708 -0.0974045 -1.74289e-20)
(0.456751 -0.0915667 0)
(0.459634 -0.0860347 -3.49792e-23)
(0.462365 -0.0807978 1.76535e-20)
(0.464953 -0.0758449 -3.49634e-23)
(0.467405 -0.0711642 0)
(0.469729 -0.066744 0)
(0.471929 -0.0625724 0)
(0.474014 -0.0586378 0)
(0.475988 -0.0549288 -1.7811e-20)
(0.477857 -0.0514341 0)
(0.479627 -0.048143 1.78661e-20)
(0.481301 -0.045045 0)
(0.482886 -0.0421301 0)
(0.484384 -0.0393887 1.787e-20)
(0.485801 -0.0368116 1.78358e-20)
(0.487139 -0.03439 0)
(0.488404 -0.0321156 0)
(0.489597 -0.0299804 -1.78329e-20)
(0.490723 -0.0279766 3.56093e-20)
(0.491786 -0.0260972 2.47503e-23)
(0.492787 -0.0243352 -1.77802e-20)
(0.49373 -0.0226841 1.77588e-20)
(0.494618 -0.0211375 -1.77134e-20)
(0.495453 -0.0196896 -1.77106e-20)
(0.496238 -0.0183347 -1.76636e-20)
(0.496976 -0.0170675 0)
(0.497669 -0.0158829 5.28421e-20)
(0.498319 -0.0147761 3.51555e-20)
(0.498929 -0.0137424 0)
(0.499501 -0.0127776 0)
(0.500036 -0.0118776 0)
(0.500537 -0.0110384 -6.98117e-20)
(0.501006 -0.0102563 3.48478e-20)
(0.501444 -0.0095279 -3.47448e-20)
(0.391373 -0.253735 -2.71743e-20)
(0.397344 -0.24297 0)
(0.403053 -0.232249 -1.41937e-20)
(0.408509 -0.221626 0)
(0.41372 -0.211151 0)
(0.418693 -0.200868 -1.49567e-20)
(0.423435 -0.190815 0)
(0.427954 -0.181026 -1.53831e-20)
(0.432256 -0.171529 3.11199e-20)
(0.43635 -0.162347 0)
(0.440242 -0.153496 3.17942e-20)
(0.443942 -0.144989 1.60615e-20)
(0.447455 -0.136833 0)
(0.450791 -0.129033 0)
(0.453958 -0.121588 -1.64361e-20)
(0.456962 -0.114496 0)
(0.459813 -0.107751 0)
(0.462517 -0.101346 1.67143e-20)
(0.465081 -0.0952718 -1.67524e-20)
(0.467513 -0.0895172 -1.68542e-20)
(0.46982 -0.0840711 -1.68763e-20)
(0.472008 -0.0789213 -3.38907e-20)
(0.474082 -0.0740556 -1.69719e-20)
(0.47605 -0.0694613 0)
(0.477915 -0.065126 0)
(0.479683 -0.0610372 0)
(0.481359 -0.0571828 1.71286e-20)
(0.482948 -0.0535512 -1.71133e-20)
(0.484452 -0.050131 0)
(0.485878 -0.0469112 0)
(0.487227 -0.0438815 0)
(0.488505 -0.0410317 0)
(0.489713 -0.0383523 -2.97823e-23)
(0.490856 -0.0358342 0)
(0.491936 -0.0334686 0)
(0.492956 -0.0312474 0)
(0.49392 -0.0291625 -3.4295e-20)
(0.494829 -0.0272066 2.54431e-23)
(0.495686 -0.0253724 0)
(0.496493 -0.0236532 3.4196e-20)
(0.497253 -0.0220426 1.71051e-20)
(0.497969 -0.0205343 0)
(0.498642 -0.0191226 5.11592e-20)
(0.499274 -0.017802 0)
(0.499868 -0.0165672 -3.40465e-20)
(0.500425 -0.0154131 -3.39985e-20)
(0.500947 -0.0143352 3.39123e-20)
(0.501436 -0.0133289 0)
(0.501894 -0.0123899 0)
(0.502322 -0.0115142 3.37826e-20)
(0.502722 -0.010698 0)
(0.503096 -0.00993767 3.36614e-20)
(0.415536 -0.26213 1.42826e-20)
(0.420088 -0.250944 1.45858e-20)
(0.424463 -0.239821 0)
(0.428665 -0.228811 0)
(0.432698 -0.217964 0)
(0.436566 -0.207323 0)
(0.440272 -0.196927 0)
(0.443818 -0.186808 0)
(0.447209 -0.176995 -3.25781e-20)
(0.450448 -0.167509 -1.6451e-20)
(0.453539 -0.158369 -3.32576e-20)
(0.456487 -0.149586 0)
(0.459295 -0.141167 0)
(0.46197 -0.133118 0)
(0.464515 -0.125437 0)
(0.466936 -0.118121 -1.72304e-20)
(0.469238 -0.111165 0)
(0.471426 -0.10456 -1.73991e-20)
(0.473506 -0.0982971 1.75053e-20)
(0.475482 -0.0923649 0)
(0.477359 -0.0867514 3.60689e-23)
(0.479143 -0.081444 3.52953e-20)
(0.480837 -0.0764298 3.53728e-20)
(0.482445 -0.0716955 0)
(0.483973 -0.0672282 1.77277e-20)
(0.485423 -0.0630149 0)
(0.486799 -0.0590431 0)
(0.488105 -0.0553006 1.78096e-20)
(0.489343 -0.0517757 -1.77839e-20)
(0.490518 -0.048457 0)
(0.491631 -0.0453337 0)
(0.492686 -0.0423955 0)
(0.493685 -0.0396326 -2.92914e-23)
(0.49463 -0.0370355 0)
(0.495524 -0.0345952 0)
(0.496369 -0.0323034 -1.77408e-20)
(0.497168 -0.0301518 1.77498e-20)
(0.497922 -0.0281327 5.31396e-20)
(0.498633 -0.026239 0)
(0.499303 -0.0244635 -7.069e-20)
(0.499934 -0.0227997 3.52722e-20)
(0.500528 -0.0212413 0)
(0.501087 -0.0197823 -3.52045e-20)
(0.501612 -0.0184172 0)
(0.502104 -0.0171404 0)
(0.502566 -0.0159469 0)
(0.502999 -0.0148319 -3.50254e-23)
(0.503404 -0.0137907 0)
(0.503782 -0.012819 0)
(0.504136 -0.0119126 -3.4692e-20)
(0.504466 -0.0110676 0)
(0.504773 -0.0102804 0)
(0.43813 -0.267813 1.47872e-20)
(0.44133 -0.256381 -1.59151e-23)
(0.444436 -0.245018 1.53998e-20)
(0.447449 -0.233776 -1.56761e-20)
(0.450368 -0.222704 1.59335e-20)
(0.453192 -0.211843 0)
(0.455921 -0.201232 0)
(0.458553 -0.190905 0)
(0.461088 -0.180889 1.68211e-20)
(0.463526 -0.171206 3.1903e-23)
(0.465868 -0.161875 1.71572e-20)
(0.468115 -0.152909 0)
(0.470266 -0.144314 0)
(0.472326 -0.136095 1.75204e-20)
(0.474294 -0.128251 1.76271e-20)
(0.476174 -0.120781 3.60907e-23)
(0.477969 -0.113677 0)
(0.479681 -0.106933 3.57969e-20)
(0.481313 -0.100537 1.79444e-20)
(0.482869 -0.0944791 0)
(0.484351 -0.0887465 1.80824e-20)
(0.485762 -0.0833263 -3.62063e-20)
(0.487106 -0.0782053 -1.81524e-20)
(0.488385 -0.07337 -1.81421e-20)
(0.489601 -0.0688071 -1.81956e-20)
(0.490759 -0.0645034 0)
(0.491859 -0.060446 1.81827e-20)
(0.492905 -0.0566224 0)
(0.493899 -0.0530206 1.82171e-20)
(0.494843 -0.0496291 0)
(0.495739 -0.0464369 -1.81717e-20)
(0.496588 -0.0434333 -1.81596e-20)
(0.497394 -0.0406083 -2.86917e-23)
(0.498157 -0.0379523 0)
(0.49888 -0.0354563 -1.81055e-20)
(0.499563 -0.0331115 1.81084e-20)
(0.50021 -0.0309098 0)
(0.50082 -0.0288433 -4.88326e-23)
(0.501396 -0.0269045 3.59985e-20)
(0.501939 -0.0250864 3.59806e-20)
(0.502451 -0.0233822 -3.59121e-20)
(0.502932 -0.0217857 0)
(0.503384 -0.0202906 -3.57247e-20)
(0.503809 -0.0188914 0)
(0.504207 -0.0175824 0)
(0.504581 -0.0163586 -3.54871e-20)
(0.50493 -0.015215 -3.54368e-20)
(0.505256 -0.0141469 0)
(0.505561 -0.0131498 3.52268e-20)
(0.505845 -0.0122196 7.0301e-20)
(0.506109 -0.0113523 0)
(0.506355 -0.0105441 0)
(0.506582 -0.00979129 0)
(0.458883 -0.271319 -3.04621e-20)
(0.460834 -0.259779 -1.55566e-20)
(0.46277 -0.248309 -1.58543e-20)
(0.464686 -0.236959 3.22407e-20)
(0.466577 -0.225778 -1.63895e-20)
(0.46844 -0.214807 0)
(0.470269 -0.204085 0)
(0.472059 -0.193645 -1.70241e-20)
(0.473807 -0.183517 0)
(0.47551 -0.173723 3.47957e-20)
(0.477164 -0.164281 1.75371e-20)
(0.478766 -0.155205 0)
(0.480316 -0.146502 0)
(0.481811 -0.138178 -3.58758e-20)
(0.483252 -0.130232 -1.80579e-20)
(0.484637 -0.122663 1.81478e-20)
(0.485968 -0.115464 0)
(0.487245 -0.108627 -1.82943e-20)
(0.488469 -0.102143 -1.83522e-20)
(0.489641 -0.0960009 0)
(0.490762 -0.0901877 0)
(0.491834 -0.0846906 1.84721e-20)
(0.492859 -0.0794963 -1.84614e-20)
(0.493838 -0.0745912 1.85137e-20)
(0.494772 -0.0699619 0)
(0.495662 -0.065595 0)
(0.496512 -0.0614774 -3.26289e-23)
(0.497321 -0.0575965 0)
(0.498092 -0.0539403 1.84845e-20)
(0.498825 -0.0504969 -1.84718e-20)
(0.499523 -0.0472552 1.8485e-20)
(0.500186 -0.0442045 2.8824e-23)
(0.500815 -0.0413348 -3.68528e-20)
(0.501412 -0.0386362 0)
(0.501978 -0.0360995 1.83842e-20)
(0.502514 -0.0337161 0)
(0.503021 -0.0314776 0)
(0.5035 -0.0293761 -3.65637e-20)
(0.503952 -0.0274041 -3.64871e-20)
(0.504379 -0.0255544 0)
(0.50478 -0.0238203 -3.62808e-20)
(0.505158 -0.0221953 3.61955e-20)
(0.505513 -0.0206733 3.61465e-20)
(0.505846 -0.0192485 0)
(0.506158 -0.0179153 0)
(0.506449 -0.0166686 7.16863e-20)
(0.506722 -0.0155033 0)
(0.506976 -0.0144147 0)
(0.507212 -0.0133984 -3.55534e-20)
(0.507432 -0.01245 -3.54471e-20)
(0.507635 -0.0115656 0)
(0.507824 -0.0107413 -3.52025e-20)
(0.507998 -0.00997342 -3.5092e-20)
(0.508158 -0.00925858 -2.39253e-23)
(0.477704 -0.27312 1.24909e-23)
(0.478528 -0.261578 0)
(0.479407 -0.250101 0)
(0.480331 -0.238739 -3.29069e-20)
(0.481293 -0.227538 -1.66936e-20)
(0.482285 -0.216542 -1.69267e-20)
(0.483299 -0.205788 0)
(0.484327 -0.195312 1.73717e-20)
(0.485362 -0.185142 0)
(0.486397 -0.175303 -1.77223e-20)
(0.487427 -0.165812 -1.78741e-20)
(0.488445 -0.156684 0)
(0.489448 -0.147927 0)
(0.490432 -0.139548 1.82432e-20)
(0.491393 -0.131548 0)
(0.49233 -0.123923 0)
(0.49324 -0.116669 0)
(0.494123 -0.109778 0)
(0.494977 -0.103242 1.85742e-20)
(0.495801 -0.0970477 -1.86166e-20)
(0.496595 -0.0911844 1.86503e-20)
(0.497361 -0.0856389 0)
(0.498096 -0.0803978 3.43498e-23)
(0.498803 -0.0754477 0)
(0.499481 -0.0707751 1.871e-20)