
961
(
1.08003
0.944031
1.10857
1.46316
0.851279
0.712182
0.931681
0.667873
0.998773
0.673105
1.05266
0.691812
1.09594
0.714433
1.13113
0.737206
1.1601
0.758367
1.18409
0.777111
1.20382
0.7931
1.21969
0.806204
1.2319
0.816388
1.24058
0.823654
1.24578
0.828016
1.24752
0.829481
1.24581
0.82805
1.24065
0.82372
1.23199
0.816481
1.2198
0.806317
1.20394
0.793226
1.18421
0.777241
1.16021
0.75849
1.13122
0.737313
1.096
0.714516
1.05269
0.691866
0.998781
0.673128
0.931672
0.667869
0.851263
0.712157
0.944015
1.10854
1.08001
1.46312
1.33509
1.95173
0.567933
0.365783
0.295666
0.272641
0.269873
0.276031
0.285599
0.295802
0.305268
0.313344
0.31974
0.324341
0.327113
0.328048
0.327145
0.324404
0.31983
0.313459
0.305402
0.29595
0.285752
0.276181
0.27001
0.272754
0.295741
0.365811
0.567911
1.33504
1.95167
1.46246
2.14205
0.594237
0.337155
0.242657
0.207502
0.196478
0.19566
0.199047
0.20385
0.208728
0.213038
0.216494
0.218985
0.220485
0.220992
0.220511
0.219039
0.216575
0.213148
0.208866
0.204015
0.199235
0.195866
0.196691
0.207704
0.242822
0.337256
0.594259
1.46246
2.14206
1.58865
2.30232
0.661963
0.367053
0.251928
0.205374
0.187103
0.180835
0.179696
0.180616
0.182175
0.183724
0.184996
0.185903
0.18644
0.186622
0.18646
0.185947
0.185066
0.183827
0.182314
0.180796
0.179919
0.181099
0.187397
0.205675
0.252199
0.367253
0.66207
1.58878
2.30253
1.70266
2.4429
0.731794
0.408013
0.274565
0.216465
0.190593
0.178803
0.173277
0.170531
0.168991
0.167967
0.167197
0.166619
0.166252
0.166129
0.166266
0.166651
0.167252
0.168055
0.169121
0.170713
0.173516
0.179102
0.190943
0.216842
0.274927
0.408312
0.732015
1.70299
2.44339
1.80027
2.5618
0.794346
0.44736
0.297898
0.228696
0.195008
0.17734
0.167074
0.160353
0.155454
0.151648
0.148681
0.146511
0.145176
0.144726
0.145182
0.146527
0.148716
0.151713
0.15556
0.160515
0.167303
0.177641
0.195377
0.229112
0.298322
0.447747
0.794697
1.80083
2.56258
1.8798
2.6576
0.846977
0.48172
0.318853
0.239586
0.19829
0.174576
0.159256
0.148216
0.139646
0.132809
0.127465
0.123587
0.121224
0.120428
0.121222
0.123587
0.127476
0.132842
0.139715
0.148337
0.159445
0.174844
0.198641
0.240007
0.319313
0.482184
0.84746
1.88058
2.65865
1.9414
2.73125
0.888691
0.50989
0.336692
0.249132
0.201099
0.171683
0.151388
0.135988
0.123678
0.113763
0.106035
0.100472
0.0971088
0.0959805
0.0971011
0.100459
0.106022
0.113761
0.123699
0.13605
0.151513
0.171893
0.201407
0.249536
0.337173
0.510423
0.889296
1.94236
2.73251
1.98683
2.78559
0.919714
0.531468
0.351059
0.257448
0.204171
0.170023
0.145395
0.126078
0.110357
0.0976356
0.087762
0.0807171
0.0764953
0.0750857
0.076483
0.0806925
0.0877266
0.097595
0.110324
0.126074
0.145449
0.170166
0.204429
0.25783
0.351556
0.532058
0.920417
1.98791
2.78697
2.0189
2.82425
0.941387
0.546805
0.361803
0.264299
0.207471
0.169947
0.142083
0.119732
0.101304
0.086334
0.0747516
0.0665477
0.0616697
0.0600486
0.0616529
0.0665114
0.0746935
0.0862564
0.10122
0.119666
0.142073
0.170033
0.207689
0.264667
0.362315
0.54744
0.942159
2.02006
2.8257
2.04066
2.85085
0.955689
0.556926
0.369178
0.269415
0.210465
0.170866
0.140948
0.116607
0.0963531
0.0798327
0.06706
0.0580495
0.0527188
0.0509523
0.0526966
0.0580009
0.0669803
0.0797233
0.0962279
0.116496
0.140893
0.170917
0.210662
0.269779
0.369705
0.557592
0.956502
2.04185
2.85233
2.05485
2.86852
0.964641
0.563161
0.373817
0.272821
0.212718
0.17199
0.140944
0.115492
0.0941944
0.0767665
0.0632806
0.0537777
0.0481671
0.0463096
0.0481398
0.0537183
0.063184
0.0766346
0.094043
0.115354
0.140866
0.172024
0.212906
0.273187
0.374354
0.563845
0.965474
2.05605
2.87
2.0636
2.87963
0.9699
0.566724
0.376473
0.274833
0.214144
0.172855
0.141256
0.115261
0.0934509
0.0755697
0.0617192
0.0519578
0.0461966
0.044289
0.0461655
0.0518911
0.061612
0.075425
0.0932861
0.115111
0.141168
0.172883
0.21433
0.275202
0.377017
0.567416
0.970741
2.0648
2.8811
2.06836
2.88576
0.972637
0.568517
0.377797
0.275845
0.214883
0.173344
0.141505
0.11528
0.0932533
0.07518
0.0611729
0.0512982
0.0454694
0.0435389
0.0454364
0.0512277
0.0610607
0.0750296
0.0930829
0.115125
0.141414
0.17337
0.21507
0.276215
0.378344
0.569212
0.973478
2.06955
2.88722
2.06987
2.88772
0.973486
0.56906
0.378195
0.276146
0.215106
0.173496
0.141591
0.115303
0.0932182
0.0750937
0.0610445
0.0511392
0.0452918
0.043355
0.0452582
0.0510675
0.0609307
0.0749414
0.0930461
0.115147
0.141499
0.173522
0.215293
0.276516
0.378741
0.569754
0.974325
2.07106
2.88917
2.06832
2.88571
0.972623
0.568511
0.377794
0.275842
0.214881
0.173342
0.141502
0.115275
0.0932476
0.0751736
0.0611662
0.0512916
0.0454629
0.0435323
0.0454296
0.0512206
0.0610533
0.0750223
0.0930761
0.115119
0.14141
0.173367
0.215067
0.27621
0.378337
0.569201
0.973458
2.0695
2.88715
2.06352
2.87951
0.969873
0.566713
0.376468
0.27483
0.21414
0.17285
0.141248
0.115249
0.0934361
0.0755529
0.0617018
0.0519407
0.0461799
0.0442723
0.0461483
0.051873
0.0615933
0.0754065
0.0932692
0.115097
0.141157
0.172874
0.214323
0.275194
0.377005
0.567396
0.970701
2.0647
2.88095
2.05473
2.86833
0.964605
0.563151
0.373813
0.272818
0.212712
0.17198
0.140926
0.115466
0.0941621
0.0767307
0.0632441
0.0537422
0.0481327
0.0462754
0.0481045
0.0536811
0.0631452
0.0765959
0.0940074
0.115324
0.140844
0.172008
0.212895
0.273176
0.37434
0.563821
0.965419
2.0559
2.86976
2.04051
2.85061
0.955656
0.556924
0.369181
0.269414
0.210456
0.170844
0.140911
0.116557
0.0962925
0.0797669
0.0669937
0.0579854
0.052657
0.050891
0.0526334
0.0579341
0.0669104
0.079653
0.0961621
0.11644
0.140851
0.170888
0.210645
0.269769
0.369696
0.557573
0.956444
2.04165
2.85202
2.01874
2.82396
0.941372
0.546823
0.36182
0.264304
0.207457
0.169911
0.142023
0.119651
0.101208
0.0862305
0.0746471
0.0664457
0.0615705
0.0599499
0.0615515
0.0664054
0.0745832
0.0861458
0.101116
0.119576
0.142003
0.169987
0.207665
0.264661
0.362319
0.54744
0.942116
2.01983
2.82533
1.98668
2.78529
0.919735
0.531518
0.351099
0.257464
0.204157
0.169977
0.145317
0.125972
0.11023
0.0974964
0.0876181
0.080573
0.0763521
0.0749421
0.0763368
0.0805426
0.0875743
0.0974451
0.110184
0.125953
0.145356
0.170106
0.204402
0.257833
0.351582
0.532091
0.920411
1.98769
2.78658
1.94128
2.73098
0.888763
0.509981
0.33676
0.249166
0.201096
0.171642
0.151309
0.135876
0.12354
0.113607
0.105867
0.100298
0.0969314
0.095801
0.09692
0.100277
0.105843
0.11359
0.123544
0.135919
0.151415
0.171833
0.201387
0.249555
0.337227
0.510497
0.889343
1.94217
2.73213
1.87974
2.65737
0.847099
0.481847
0.318949
0.239646
0.198312
0.174561
0.159206
0.148133
0.139534
0.132674
0.127313
0.123423
0.121053
0.120253
0.121047
0.123416
0.127312
0.132691
0.139584
0.148232
0.159373
0.174809
0.198645
0.240051
0.319396
0.482298
0.847561
1.88045
2.65832
1.80025
2.56162
0.794497
0.447508
0.298016
0.228783
0.195069
0.177375
0.167083
0.160336
0.155413
0.151587
0.148604
0.146421
0.145079
0.144625
0.145081
0.14643
0.148628
0.151638
0.155504
0.16048
0.167293
0.177657
0.19542
0.229183
0.298425
0.447881
0.794829
1.80075
2.5623
1.70266
2.44276
0.731938
0.408154
0.274685
0.216572
0.190693
0.178897
0.173364
0.170609
0.169058
0.168024
0.167245
0.16666
0.166288
0.166162
0.1663
0.166688
0.167295
0.168105
0.16918
0.170781
0.173593
0.179185
0.19103
0.216933
0.275029
0.408433
0.732136
1.70293
2.44315
1.58861
2.30216
0.662056
0.367149
0.252022
0.205479
0.187228
0.180979
0.179857
0.180789
0.182356
0.18391
0.185184
0.186093
0.18663
0.186813
0.18665
0.186136
0.185255
0.184013
0.182495
0.18097
0.18008
0.181241
0.187514
0.205765
0.252269
0.367319
0.66213
1.58868
2.30228
1.46237
2.14185
0.594248
0.33718
0.2427
0.207578
0.196596
0.19582
0.199243
0.204078
0.208981
0.21331
0.21678
0.219281
0.220786
0.221296
0.220814
0.219337
0.216864
0.213423
0.209122
0.204246
0.199433
0.196023
0.196799
0.207759
0.242832
0.33724
0.594228
1.46231
2.14179
1.33496
1.95153
0.567874
0.365746
0.295654
0.272666
0.269942
0.276147
0.28576
0.296002
0.305502
0.313605
0.320022
0.324639
0.32742
0.328358
0.327452
0.324702
0.320113
0.31372
0.305634
0.296145
0.285904
0.276282
0.270056
0.272745
0.295688
0.365729
0.567809
1.33486
1.95142
1.10847
1.46303
0.712096
0.667788
0.673025
0.691748
0.714395
0.7372
0.758397
0.777177
0.793199
0.806333
0.816543
0.823828
0.828201
0.82967
0.828234
0.823891
0.81663
0.806438
0.793312
0.777287
0.758494
0.737275
0.71444
0.691761
0.673007
0.667747
0.712041
1.10841
1.46297
0.943959
1.07996
0.851192
0.931572
0.998651
1.05253
1.09583
1.13104
1.16004
1.18406
1.20382
1.21972
1.23196
1.24066
1.24587
1.24762
1.2459
1.24072
1.23204
1.21982
1.20392
1.18415
1.16012
1.13109
1.09585
1.05252
0.998621
0.931532
0.851155
0.94393
1.07993
)
