
961
(
0.00685155
0.00714758
0.00744998
0.00752396
0.00772548
0.00738622
0.00824446
0.00744472
0.00867074
0.00756872
0.00901167
0.00774572
0.00928731
0.0079627
0.00951392
0.0081953
0.00970241
0.00842095
0.00985952
0.00862525
0.00998914
0.00880089
0.0100935
0.00894484
0.0101738
0.00905633
0.0102307
0.00913554
0.0102648
0.00918292
0.0102763
0.00919883
0.0102651
0.00918337
0.0102312
0.00913641
0.0101744
0.00905755
0.0100942
0.00894631
0.00998997
0.00880249
0.00986034
0.00862684
0.00970316
0.00842236
0.00951453
0.00819639
0.00928774
0.00796335
0.00901189
0.00774589
0.00867078
0.00756851
0.00824437
0.00744432
0.00772535
0.00738581
0.00714747
0.00744972
0.00685147
0.0075238
0.00796167
0.0085434
0.00700161
0.0064576
0.00626725
0.00630928
0.00649265
0.00674427
0.00701211
0.00726472
0.00748573
0.00766791
0.00780897
0.0079089
0.00796853
0.00798858
0.00796932
0.00791042
0.0078111
0.0076705
0.00748855
0.00726752
0.00701459
0.00674613
0.00649364
0.00630931
0.00626655
0.00645663
0.00700077
0.0079612
0.00854316
0.00847245
0.00917125
0.00722344
0.00644907
0.00620129
0.00625635
0.00645755
0.00671417
0.00697652
0.0072182
0.0074263
0.00759565
0.00772531
0.00781632
0.00787029
0.00788847
0.00787133
0.00781835
0.00772819
0.0075992
0.00743026
0.00722225
0.00698027
0.0067172
0.00645948
0.00625705
0.00620099
0.00644835
0.00722279
0.00847216
0.00917121
0.00906926
0.00969926
0.00781531
0.00690397
0.00655532
0.00654997
0.00671033
0.00693139
0.00715862
0.00736546
0.00754036
0.00767975
0.00778425
0.00785624
0.00789841
0.0079127
0.00789979
0.00785894
0.00778812
0.00768461
0.00754592
0.00737137
0.00716442
0.00693659
0.00671445
0.00655276
0.0065569
0.00690479
0.00781574
0.00906967
0.0096998
0.00962075
0.0101569
0.00843234
0.00743592
0.00697455
0.00686723
0.0069434
0.00709279
0.00725605
0.0074046
0.00752682
0.00762019
0.00768677
0.00773046
0.00775516
0.00776368
0.00775697
0.007734
0.00769189
0.00762666
0.00753433
0.00741276
0.00726436
0.00710069
0.00695034
0.00687284
0.00697877
0.00743895
0.00843441
0.00962224
0.0101583
0.0100867
0.0105383
0.00896585
0.00790048
0.00732497
0.00709633
0.00706022
0.00710814
0.00717911
0.00724371
0.00729081
0.00731925
0.00733285
0.00733726
0.00733787
0.00733842
0.00734021
0.00734183
0.00733944
0.00732757
0.00730048
0.00725428
0.00719002
0.00711878
0.00706999
0.00710475
0.00733182
0.00790579
0.00896971
0.0100895
0.0105406
0.0104603
0.0108418
0.0093964
0.00827157
0.00758795
0.00723306
0.00707001
0.00699607
0.00695198
0.00690987
0.00686075
0.00680599
0.00675193
0.00670642
0.00667651
0.00666699
0.00667949
0.0067122
0.0067602
0.00681632
0.00687265
0.00692277
0.00696526
0.0070091
0.00708216
0.00724382
0.00759704
0.00827888
0.00940195
0.0104642
0.0108449
0.0107463
0.0110728
0.00972818
0.00855716
0.00778246
0.00731241
0.00702468
0.00682357
0.00665405
0.00649228
0.00633356
0.00618348
0.00605199
0.00594964
0.00588518
0.0058643
0.00588887
0.00595674
0.00606201
0.00619578
0.00634746
0.00650709
0.00666912
0.00683828
0.00703847
0.00732481
0.00779317
0.00856603
0.00973511
0.0107511
0.0110765
0.0109558
0.0112418
0.00997307
0.00877094
0.0079294
0.00736861
0.00697557
0.00666029
0.00637264
0.00609406
0.00582577
0.00557922
0.0053692
0.00520948
0.00511041
0.0050782
0.00511476
0.00521775
0.00538068
0.00559303
0.00584104
0.00611001
0.00638865
0.00667584
0.00699019
0.00738194
0.00794113
0.00878087
0.00998099
0.0109613
0.0112459
0.0111032
0.011361
0.0101462
0.00892554
0.00804122
0.00741877
0.00694965
0.0065473
0.00616516
0.00578933
0.00542689
0.0050956
0.00481584
0.00460511
0.00447539
0.00443315
0.00448016
0.0046141
0.00482813
0.00511011
0.00544263
0.00580554
0.00618129
0.00656295
0.00696449
0.00743247
0.00805349
0.0089361
0.0101547
0.0111091
0.0113653
0.011203
0.0114422
0.0102633
0.00903245
0.00812374
0.00746457
0.00694801
0.00648916
0.00604334
0.0055995
0.0051689
0.00477442
0.00444148
0.00419129
0.0040377
0.00398755
0.00404258
0.00420043
0.00445384
0.00478884
0.00518438
0.00561535
0.00605911
0.00650456
0.00696276
0.00747836
0.00813624
0.00904333
0.0102721
0.0112091
0.0114466
0.0112679
0.0114957
0.0103387
0.00910242
0.00818082
0.0075019
0.00695918
0.00646852
0.00598608
0.00550216
0.00503026
0.00459631
0.00422917
0.00395297
0.00378332
0.00372776
0.00378811
0.00396189
0.00424116
0.00461023
0.00504517
0.00551746
0.00600139
0.00648359
0.00697375
0.00751565
0.00819337
0.0091134
0.0103477
0.011274
0.0115001
0.0113075
0.0115289
0.0103842
0.00914486
0.00821673
0.00752797
0.00697213
0.00646552
0.00596466
0.00546044
0.0049673
0.00451264
0.00412707
0.00383646
0.00365772
0.003599
0.00366235
0.00384508
0.00413864
0.00452607
0.00498172
0.00547529
0.00597961
0.00648033
0.00698653
0.00754162
0.00822926
0.00915585
0.0103932
0.0113136
0.0115333
0.0113289
0.0115471
0.0104083
0.00916723
0.00823598
0.00754272
0.00698101
0.00646736
0.00595846
0.00544542
0.00494307
0.00447933
0.00408555
0.0037884
0.00360543
0.00354522
0.00360995
0.00379681
0.00409683
0.00449243
0.00495717
0.00545999
0.00597317
0.00648198
0.00699528
0.00755628
0.00824844
0.00917819
0.0104173
0.011335
0.0115514
0.0113356
0.0115529
0.0104158
0.00917412
0.0082419
0.00754733
0.00698396
0.00646834
0.00595723
0.00544181
0.00493696
0.00447077
0.00407477
0.00377583
0.00359169
0.00353106
0.00359616
0.00378414
0.00408593
0.00448374
0.00495092
0.00545624
0.00597183
0.00648287
0.00699813
0.00756081
0.0082543
0.00918502
0.0104247
0.0113417
0.0115572
0.0113287
0.0115469
0.0104081
0.00916694
0.00823566
0.00754238
0.00698067
0.00646703
0.00595814
0.00544514
0.00494282
0.00447913
0.00408541
0.00378832
0.00360539
0.00354518
0.00360988
0.00379668
0.00409662
0.00449215
0.00495681
0.00545959
0.00597273
0.00648152
0.0069948
0.00755581
0.008248
0.0091778
0.0104169
0.0113347
0.0115512
0.0113071
0.0115286
0.0103837
0.00914427
0.00821607
0.00752727
0.00697144
0.00646485
0.00596404
0.00545989
0.00496686
0.00451234
0.00412693
0.00383648
0.00365784
0.00359915
0.00366243
0.00384501
0.00413836
0.00452559
0.00498107
0.0054745
0.00597873
0.00647939
0.00698556
0.00754066
0.00822835
0.00915505
0.0103925
0.0113131
0.0115329
0.0112673
0.0114952
0.010338
0.00910157
0.00817987
0.00750091
0.0069582
0.0064676
0.00598526
0.0055015
0.00502983
0.00459621
0.00422943
0.00395358
0.00378418
0.00372868
0.0037889
0.00396236
0.00424122
0.00460987
0.00504444
0.00551644
0.00600018
0.00648226
0.00697235
0.00751424
0.00819205
0.00911224
0.0103467
0.0112732
0.0114994
0.0112023
0.0114416
0.0102624
0.00903148
0.00812265
0.00746345
0.00694694
0.00648822
0.00604261
0.00559912
0.00516901
0.00477515
0.0044429
0.00419335
0.0040402
0.00399019
0.004045
0.00420231
0.00445498
0.00478921
0.00518406
0.00561449
0.00605787
0.00650308
0.00696115
0.00747671
0.00813467
0.00904194
0.0102709
0.0112081
0.0114458
0.0111025
0.0113602
0.0101454
0.00892467
0.00804027
0.00741783
0.00694886
0.00654677
0.00616506
0.00578985
0.00542823
0.00509794
0.00481924
0.00460945
0.00448038
0.00443833
0.00448504
0.00461822
0.00483119
0.00511201
0.00544345
0.00580546
0.00618055
0.00656176
0.00696303
0.0074309
0.00805196
0.00893474
0.0101536
0.011108
0.0113642
0.0109552
0.011241
0.00997261
0.00877045
0.00792891
0.00736826
0.00697551
0.0066607
0.00637373
0.00609605
0.00582888
0.0055836
0.00537485
0.00521623
0.00511789
0.00508589
0.00512211
0.00522424
0.00538595
0.0055969
0.00584354
0.0061113
0.00638897
0.00667545
0.00698934
0.00738084
0.00793999
0.00877984
0.00998011
0.0109603
0.0112448
0.0107459
0.0110721
0.00972821
0.00855728
0.0077827
0.00731293
0.00702567
0.00682524
0.0066566
0.0064959
0.00633841
0.00618962
0.00605938
0.00595805
0.00589425
0.00587355
0.0058978
0.00596488
0.00606898
0.00620137
0.00635163
0.00650992
0.0066708
0.00683904
0.00703855
0.00732448
0.00779268
0.00856557
0.00973471
0.0107504
0.0110756
0.0104603
0.0108413
0.00939696
0.00827231
0.00758892
0.00723443
0.007072
0.00699888
0.00695576
0.00691475
0.00686679
0.00681318
0.00676018
0.0067155
0.00668612
0.00667674
0.00668897
0.00672102
0.00676804
0.00682297
0.00687799
0.00692681
0.0069681
0.00701089
0.00708312
0.00724422
0.00759717
0.00827899
0.00940206
0.0104639
0.0108441
0.0100869
0.010538
0.00896672
0.00790154
0.00732627
0.00709811
0.0070627
0.00711152
0.0071835
0.00724918
0.00729735
0.00732681
0.0073413
0.00734639
0.00734742
0.00734807
0.00734964
0.00735072
0.00734751
0.00733461
0.00730635
0.00725891
0.00719343
0.00712106
0.00707131
0.0071054
0.00733214
0.00790611
0.00897009
0.0100893
0.01054
0.00962096
0.0101566
0.00843309
0.00743669
0.00697548
0.00686862
0.00694555
0.0070959
0.00726024
0.0074099
0.00753319
0.00762753
0.00769494
0.00773924
0.00776432
0.00777293
0.00776603
0.00774257
0.00769973
0.00763353
0.00754006
0.00741722
0.00726752
0.00710259
0.00695116
0.00687288
0.00697848
0.00743879
0.00843455
0.0096221
0.0101577
0.00906918
0.00969888
0.00781537
0.00690374
0.00655504
0.00655008
0.00671122
0.00693331
0.00716168
0.0073697
0.00754571
0.00768609
0.00779141
0.00786402
0.00790655
0.00792093
0.00790784
0.00786653
0.00779499
0.0076905
0.00755063
0.00737475
0.00716638
0.00693716
0.0067138
0.00655126
0.00655514
0.0069034
0.00781505
0.00906919
0.00969914
0.00847189
0.0091707
0.00722252
0.00644753
0.00619946
0.00625475
0.00645664
0.00671425
0.00697772
0.00722055
0.00742973
0.00760004
0.00773049
0.00782207
0.00787638
0.00789466
0.00787735
0.00782393
0.00773308
0.00760315
0.00743305
0.00722372
0.00698032
0.00671584
0.00645692
0.00625371
0.00619755
0.00644554
0.00722105
0.00847117
0.0091704
0.0079608
0.00854276
0.00700016
0.00645552
0.00626482
0.00630693
0.00649078
0.00674314
0.00701186
0.00726539
0.00748727
0.00767021
0.0078119
0.0079123
0.0079722
0.00799232
0.00797292
0.00791367
0.00781378
0.00767242
0.00748954
0.00726744
0.00701336
0.00674378
0.00649036
0.00630552
0.00626282
0.00645353
0.00699864
0.00795998
0.00854232
0.0074493
0.00752347
0.00738518
0.00744337
0.00756719
0.0077442
0.0079614
0.00819436
0.00842046
0.00862524
0.00880134
0.00894571
0.00905755
0.00913701
0.00918455
0.0092005
0.00918497
0.00913782
0.00905865
0.00894699
0.00880266
0.00862644
0.00842136
0.00819482
0.00796134
0.00774365
0.00756634
0.00744246
0.00738442
0.00744885
0.0075232
0.00714714
0.0068512
0.00772487
0.00824372
0.00866993
0.00901088
0.00928662
0.00951339
0.00970208
0.00985941
0.00998925
0.0100938
0.0101743
0.0102314
0.0102655
0.010277
0.0102658
0.0102318
0.0101748
0.0100945
0.00998996
0.00986006
0.00970261
0.00951374
0.00928676
0.0090108
0.0086697
0.00824341
0.00772458
0.00714694
0.00685106
)
