/*--------------------------------*- C++ -*----------------------------------*\
  =========                 |
  \\      /  F ield         | OpenFOAM: The Open Source CFD Toolbox
   \\    /   O peration     | Website:  https://openfoam.org
    \\  /    A nd           | Version:  6
     \\/     M anipulation  |
\*---------------------------------------------------------------------------*/
FoamFile
{
    version     2.0;
    format      ascii;
    class       volScalarField;
    location    "0.07";
    object      epsilon;
}
// * * * * * * * * * * * * * * * * * * * * * * * * * * * * * * * * * * * * * //

dimensions      [0 2 -3 0 0 0 0];

internalField   nonuniform List<scalar> 
3032
(
5.51114
5.48547
5.44722
5.3974
5.33764
5.2705
5.20012
5.1322
5.07153
5.01438
4.95325
4.8866
4.81449
4.73742
4.65602
4.57098
4.48298
4.39269
4.30077
4.20783
4.11448
4.02126
3.92871
3.83728
3.74741
3.6595
3.57388
3.49085
3.41066
3.33352
3.25959
3.189
3.12183
3.05813
2.99792
2.94117
2.88786
2.83791
2.79123
2.74772
2.70727
2.66975
2.63502
2.60294
2.57337
2.54616
2.52116
2.49825
2.47727
2.53078
2.52278
2.51032
2.49373
2.47346
2.45007
2.4242
2.39645
2.36709
2.33657
2.30421
2.26982
2.23355
2.19561
2.15629
2.11586
2.0746
2.03278
1.99065
1.94846
1.90644
1.8648
1.82372
1.7834
1.74398
1.7056
1.6684
1.63246
1.59788
1.56472
1.53303
1.50286
1.47422
1.44711
1.42154
1.39748
1.37491
1.35379
1.33408
1.31573
1.29868
1.28287
1.26825
1.25474
1.2423
1.23084
1.22032
1.21066
1.20182
2.10488
2.10088
2.09323
2.08208
2.06764
2.05016
2.0299
2.00707
1.98208
1.9554
1.92699
1.89696
1.86547
1.83276
1.79906
1.7646
1.7296
1.6943
1.65888
1.62355
1.58849
1.55386
1.5198
1.48647
1.45397
1.42242
1.39189
1.36248
1.33424
1.30721
1.28144
1.25695
1.23374
1.21182
1.19118
1.1718
1.15365
1.1367
1.12091
1.10624
1.09263
1.08004
1.06841
1.05769
1.04782
1.03876
1.03044
1.02282
1.01585
2.00715
2.00468
1.9986
1.98904
1.97614
1.96008
1.94108
1.91932
1.89541
1.86956
1.84193
1.81273
1.78217
1.75049
1.71791
1.68466
1.65097
1.61703
1.58303
1.54917
1.5156
1.48248
1.44994
1.41812
1.38711
1.35703
1.32795
1.29994
1.27306
1.24736
1.22286
1.19959
1.17756
1.15676
1.1372
1.11884
1.10166
1.08564
1.07073
1.05689
1.04408
1.03224
1.02132
1.01127
1.00204
0.993567
0.985811
0.978716
0.972236
2.00135
1.99928
1.99353
1.98419
1.97142
1.9554
1.93633
1.91465
1.89072
1.86474
1.83697
1.80763
1.77696
1.7452
1.71259
1.67935
1.64569
1.61181
1.5779
1.54414
1.51068
1.47767
1.44525
1.41353
1.38263
1.35264
1.32363
1.29569
1.26886
1.2432
1.21873
1.19549
1.17347
1.15269
1.13313
1.11478
1.09762
1.08162
1.06673
1.05292
1.04014
1.02834
1.01748
1.00749
0.99832
0.989923
0.982244
0.975232
0.968838
2.03004
2.02769
2.02153
2.01169
1.99833
1.98166
1.96205
1.93986
1.91536
1.88881
1.86045
1.83056
1.79938
1.76715
1.7341
1.70046
1.66643
1.6322
1.59796
1.56388
1.53011
1.49679
1.46406
1.43202
1.40079
1.37046
1.34111
1.31281
1.28563
1.25959
1.23475
1.21113
1.18875
1.1676
1.14769
1.12901
1.11152
1.09521
1.08004
1.06597
1.05295
1.04093
1.02987
1.01971
1.0104
1.00187
0.994087
0.986988
0.980524
2.07207
2.06892
2.06183
2.05097
2.03653
2.0189
1.9984
1.97532
1.94994
1.92255
1.89341
1.86278
1.83093
1.79809
1.76448
1.73033
1.69584
1.66118
1.62654
1.59207
1.55791
1.52422
1.4911
1.45868
1.42705
1.39631
1.36653
1.3378
1.31015
1.28366
1.25836
1.23427
1.21141
1.1898
1.16944
1.15031
1.1324
1.11568
1.10012
1.08569
1.07233
1.06001
1.04867
1.03825
1.02871
1.01999
1.01202
1.00477
0.998176
0.99219
2.11768
2.11326
2.10479
2.09251
2.07678
2.05792
2.03622
2.012
1.98556
1.95718
1.92715
1.89574
1.86318
1.82973
1.7956
1.76099
1.72609
1.69107
1.65611
1.62134
1.5869
1.55292
1.51952
1.4868
1.45486
1.42379
1.39367
1.36456
1.33653
1.30963
1.28391
1.25939
1.23609
1.21404
1.19324
1.17368
1.15535
1.13822
1.12228
1.10747
1.09377
1.08113
1.06949
1.0588
1.04902
1.04008
1.03192
1.0245
1.01776
1.01164
2.16164
2.15551
2.14534
2.13144
2.11414
2.09378
2.07068
2.04517
2.01757
1.98816
1.95724
1.92506
1.89187
1.85789
1.82334
1.7884
1.75325
1.71804
1.68292
1.64802
1.61348
1.5794
1.54589
1.51305
1.48097
1.44973
1.41941
1.39008
1.3618
1.33463
1.3086
1.28375
1.26012
1.23772
1.21655
1.19663
1.17794
1.16046
1.14417
1.12903
1.11502
1.10208
1.09017
1.07923
1.06922
1.06007
1.05173
1.04415
1.03727
1.03104
1.0254
2.20082
2.19269
2.18056
2.16477
2.14568
2.12365
2.09903
2.07217
2.04338
2.01297
1.98122
1.94838
1.91468
1.88034
1.84554
1.81046
1.77525
1.74006
1.70501
1.67022
1.63579
1.60183
1.56844
1.53569
1.50368
1.47248
1.44217
1.4128
1.38444
1.35715
1.33097
1.30594
1.2821
1.25947
1.23805
1.21786
1.1989
1.18114
1.16458
1.14918
1.13491
1.12173
1.10959
1.09844
1.08823
1.07891
1.07041
1.06269
1.05569
1.04936
1.04364
2.23318
2.22277
2.20842
2.19054
2.16952
2.14574
2.11958
2.09139
2.06148
2.03018
1.99773
1.96439
1.93037
1.89587
1.86105
1.82607
1.79105
1.75613
1.72139
1.68696
1.6529
1.61931
1.58628
1.55387
1.52216
1.49122
1.46111
1.43191
1.40367
1.37645
1.35029
1.32524
1.30134
1.2786
1.25706
1.23672
1.21759
1.19965
1.1829
1.16731
1.15285
1.13949
1.12717
1.11586
1.1055
1.09604
1.08743
1.0796
1.0725
1.06609
1.06031
2.25722
2.24425
2.22751
2.20742
2.18442
2.15891
2.13128
2.10187
2.07101
2.03899
2.00606
1.97245
1.93836
1.90395
1.86937
1.83475
1.80019
1.7658
1.73165
1.69783
1.66441
1.63145
1.59903
1.5672
1.53602
1.50557
1.4759
1.44708
1.41915
1.39218
1.36622
1.34131
1.3175
1.29481
1.27327
1.2529
1.23371
1.2157
1.19885
1.18315
1.16858
1.15509
1.14266
1.13124
1.12078
1.11123
1.10253
1.09463
1.08747
1.08101
1.07519
2.27174
2.25602
2.23679
2.21449
2.18959
2.16248
2.13354
2.10313
2.07156
2.03909
2.00595
1.97236
1.93848
1.90445
1.8704
1.83643
1.80261
1.76903
1.73575
1.70281
1.67028
1.63821
1.60663
1.57562
1.54522
1.51548
1.48645
1.45821
1.43079
1.40426
1.37867
1.35407
1.3305
1.308
1.2866
1.26632
1.24718
1.22919
1.21234
1.19661
1.182
1.16847
1.15599
1.14451
1.134
1.12439
1.11565
1.10771
1.10052
1.09404
1.08821
2.27582
2.25728
2.23559
2.21123
2.18462
2.15616
2.12622
2.09513
2.06316
2.03057
1.99756
1.96431
1.93096
1.89762
1.8644
1.83136
1.79856
1.76606
1.73389
1.7021
1.6707
1.63974
1.60926
1.57929
1.54987
1.52104
1.49287
1.46539
1.43867
1.41275
1.3877
1.36356
1.34038
1.3182
1.29706
1.277
1.25802
1.24015
1.22339
1.20773
1.19315
1.17964
1.16717
1.15569
1.14517
1.13556
1.12681
1.11887
1.11169
1.10521
1.09939
1.09418
2.26894
2.24767
2.22374
2.19758
2.16961
2.14018
2.10962
2.07824
2.04627
2.01393
1.9814
1.94883
1.91633
1.88399
1.85187
1.82004
1.78852
1.75734
1.72652
1.69609
1.66604
1.63641
1.60722
1.57848
1.55023
1.52252
1.49537
1.46883
1.44297
1.41783
1.39346
1.36992
1.34727
1.32555
1.30479
1.28505
1.26634
1.24869
1.2321
1.21658
1.20212
1.1887
1.17629
1.16487
1.1544
1.14483
1.13612
1.12821
1.12105
1.11461
1.10882
1.10364
2.25092
2.22715
2.20131
2.17376
2.14485
2.11489
2.08416
2.05291
2.02135
1.98965
1.95796
1.9264
1.89505
1.86399
1.83326
1.80288
1.77287
1.74325
1.714
1.68513
1.65664
1.62854
1.60082
1.5735
1.54661
1.52018
1.49423
1.4688
1.44396
1.41975
1.39622
1.37343
1.35144
1.3303
1.31006
1.29075
1.27241
1.25508
1.23876
1.22346
1.20918
1.19592
1.18364
1.17234
1.16196
1.15247
1.14383
1.13599
1.1289
1.12251
1.11679
1.11167
2.22217
2.19638
2.16916
2.14077
2.11147
2.0815
2.05109
2.02042
1.98967
1.95898
1.92846
1.8982
1.86827
1.83872
1.80957
1.78083
1.7525
1.72457
1.69704
1.66987
1.64306
1.61661
1.59049
1.56472
1.5393
1.51426
1.48963
1.46544
1.44173
1.41857
1.39599
1.37406
1.35284
1.33238
1.31274
1.29397
1.27609
1.25915
1.24318
1.22817
1.21415
1.2011
1.18902
1.17787
1.16763
1.15827
1.14974
1.142
1.13501
1.12871
1.12306
1.11804
2.18827
2.16114
2.13314
2.10444
2.07521
2.04562
2.01583
1.98599
1.95623
1.92668
1.89741
1.8685
1.84001
1.81195
1.78434
1.75719
1.73047
1.70418
1.67827
1.65273
1.62753
1.60265
1.57807
1.55379
1.5298
1.50613
1.48279
1.45981
1.43723
1.41511
1.39349
1.37244
1.35201
1.33227
1.31326
1.29505
1.27767
1.26117
1.24558
1.23091
1.21718
1.20439
1.19252
1.18157
1.17151
1.1623
1.1539
1.14629
1.1394
1.13321
1.12766
1.12272
1.11837
2.15291
2.12499
2.09666
2.06799
2.03908
2.01004
1.98099
1.95203
1.92329
1.89484
1.86677
1.83913
1.81196
1.78528
1.75909
1.73338
1.70814
1.68333
1.65892
1.63487
1.61115
1.58772
1.56457
1.54168
1.51903
1.49664
1.47452
1.4527
1.43121
1.4101
1.38943
1.36924
1.3496
1.33056
1.3122
1.29457
1.27771
1.26166
1.24647
1.23216
1.21875
1.20623
1.19461
1.18387
1.174
1.16496
1.15672
1.14924
1.14249
1.13641
1.13097
1.12612
1.12184
1.11808
2.11889
2.09055
2.06214
2.03365
2.00513
1.97664
1.94828
1.92013
1.89228
1.86481
1.83778
1.81124
1.78522
1.75973
1.73477
1.71033
1.68638
1.66287
1.63978
1.61706
1.59465
1.57254
1.55068
1.52904
1.50763
1.48642
1.46544
1.4447
1.42423
1.40408
1.3843
1.36494
1.34606
1.32773
1.31
1.29294
1.27659
1.26101
1.24624
1.23229
1.2192
1.20697
1.19561
1.1851
1.17543
1.16658
1.1585
1.15118
1.14455
1.1386
1.13327
1.12853
1.12435
1.12068
2.08798
2.05942
2.031
2.00268
1.97448
1.94644
1.91862
1.89111
1.86398
1.83729
1.8111
1.78546
1.76038
1.73588
1.71195
1.68857
1.6657
1.64332
1.62136
1.59978
1.57853
1.55757
1.53685
1.51634
1.49603
1.4759
1.45595
1.4362
1.41669
1.39743
1.37849
1.35991
1.34176
1.3241
1.30698
1.29048
1.27464
1.25951
1.24515
1.23157
1.21881
1.20688
1.19578
1.18551
1.17605
1.16738
1.15948
1.15231
1.14582
1.14
1.13479
1.13016
1.12608
1.12251
2.06102
2.03228
2.00382
1.97558
1.94756
1.91979
1.89234
1.86527
1.83865
1.81254
1.78698
1.76202
1.73768
1.71396
1.69086
1.66834
1.64637
1.62491
1.60391
1.58331
1.56305
1.54308
1.52336
1.50385
1.48451
1.46534
1.44633
1.42749
1.40884
1.39041
1.37225
1.3544
1.33693
1.3199
1.30337
1.28741
1.27206
1.25738
1.24341
1.2302
1.21777
1.20613
1.19529
1.18526
1.17602
1.16754
1.15981
1.1528
1.14646
1.14077
1.13568
1.13116
1.12719
1.12373
2.03815
2.00918
1.98058
1.95229
1.9243
1.89665
1.86938
1.84256
1.81626
1.79053
1.76541
1.74094
1.71714
1.69402
1.67155
1.64971
1.62847
1.60777
1.58755
1.56776
1.54834
1.52923
1.51037
1.49173
1.47325
1.45494
1.43676
1.41873
1.40087
1.38319
1.36575
1.34858
1.33176
1.31532
1.29935
1.28389
1.26901
1.25476
1.24118
1.22833
1.21621
1.20487
1.1943
1.1845
1.17547
1.16719
1.15964
1.15278
1.14659
1.14103
1.13606
1.13166
1.1278
1.12445
2.01907
1.98981
1.96097
1.9325
1.9044
1.8767
1.84945
1.82273
1.79657
1.77105
1.74621
1.72206
1.69864
1.67595
1.65396
1.63264
1.61196
1.59187
1.57229
1.55318
1.53446
1.51607
1.49795
1.48006
1.46234
1.44477
1.42734
1.41004
1.39289
1.3759
1.35912
1.34258
1.32634
1.31047
1.29501
1.28004
1.2656
1.25177
1.23857
1.22606
1.21426
1.2032
1.19288
1.18332
1.1745
1.16642
1.15904
1.15234
1.1463
1.14087
1.13602
1.13174
1.12798
1.12475
2.00328
1.97366
1.94449
1.91573
1.8874
1.85954
1.83219
1.80542
1.77929
1.75384
1.72913
1.70518
1.682
1.65959
1.63794
1.61702
1.59677
1.57715
1.55809
1.53953
1.52139
1.50361
1.48612
1.46887
1.45181
1.43491
1.41814
1.40149
1.38498
1.36861
1.35243
1.33647
1.32078
1.30543
1.29046
1.27594
1.26193
1.24848
1.23565
1.22347
1.21197
1.20119
1.19113
1.1818
1.17319
1.16529
1.15809
1.15155
1.14564
1.14035
1.13562
1.13145
1.12781
1.12468
1.99023
1.96018
1.93061
1.9015
1.87286
1.84474
1.8172
1.79029
1.76407
1.7386
1.71391
1.69004
1.66699
1.64477
1.62335
1.6027
1.58277
1.56352
1.54487
1.52675
1.50909
1.49182
1.47487
1.45817
1.44169
1.42536
1.40917
1.39311
1.37717
1.36137
1.34574
1.33031
1.31513
1.30026
1.28574
1.27166
1.25805
1.24497
1.23248
1.22062
1.20942
1.1989
1.18909
1.17998
1.17158
1.16387
1.15683
1.15045
1.14469
1.13952
1.13492
1.13086
1.12731
1.12429
1.9794
1.94889
1.91888
1.88936
1.86036
1.83193
1.80412
1.777
1.75063
1.72505
1.70031
1.67643
1.65343
1.63129
1.61001
1.58955
1.56986
1.55088
1.53254
1.51478
1.49751
1.48067
1.46417
1.44795
1.43195
1.41613
1.40046
1.38492
1.3695
1.35421
1.33908
1.32413
1.30942
1.295
1.28091
1.26723
1.254
1.24128
1.22912
1.21756
1.20664
1.19638
1.18681
1.17792
1.16971
1.16219
1.15532
1.14909
1.14347
1.13843
1.13394
1.12999
1.12655
1.12361
1.97016
1.93916
1.90866
1.87869
1.84928
1.82049
1.79236
1.76497
1.73838
1.71263
1.68776
1.6638
1.64077
1.61865
1.59743
1.57708
1.55754
1.53876
1.52066
1.50318
1.48623
1.46974
1.45362
1.43782
1.42226
1.4069
1.39169
1.37662
1.36168
1.34686
1.3322
1.31772
1.30345
1.28946
1.27578
1.26249
1.24963
1.23726
1.22542
1.21417
1.20353
1.19353
1.18419
1.17553
1.16753
1.16018
1.15349
1.14741
1.14194
1.13703
1.13266
1.12882
1.12548
1.12263
1.96183
1.93028
1.89926
1.86879
1.83892
1.80971
1.78121
1.75349
1.72661
1.70062
1.67557
1.65147
1.62834
1.60617
1.58495
1.56465
1.5452
1.52656
1.50865
1.49139
1.47472
1.45853
1.44276
1.42733
1.41217
1.39723
1.38247
1.36785
1.35337
1.33902
1.32481
1.31078
1.29696
1.2834
1.27014
1.25724
1.24475
1.23274
1.22124
1.21029
1.19995
1.19022
1.18113
1.1727
1.16491
1.15777
1.15125
1.14534
1.14002
1.13525
1.13101
1.12728
1.12404
1.12129
1.95406
1.92191
1.89031
1.85931
1.82893
1.79925
1.77033
1.74224
1.71504
1.68877
1.66347
1.63918
1.61591
1.59365
1.57239
1.55208
1.53268
1.51414
1.49638
1.47931
1.46287
1.44696
1.43151
1.41643
1.40165
1.38712
1.37278
1.3586
1.34457
1.33067
1.31693
1.30335
1.28997
1.27684
1.264
1.2515
1.2394
1.22775
1.21659
1.20597
1.19592
1.18648
1.17765
1.16946
1.16189
1.15496
1.14863
1.14289
1.13773
1.1331
1.12899
1.12538
1.12225
1.11959
1.94678
1.914
1.88179
1.8502
1.81928
1.7891
1.75972
1.73121
1.70363
1.67704
1.65147
1.62695
1.60349
1.58109
1.55973
1.53939
1.52
1.50151
1.48386
1.46695
1.45071
1.43505
1.41988
1.40512
1.3907
1.37655
1.36262
1.34887
1.33528
1.32183
1.30853
1.2954
1.28247
1.26977
1.25735
1.24526
1.23355
1.22227
1.21146
1.20117
1.19144
1.18229
1.17373
1.16579
1.15845
1.15173
1.1456
1.14005
1.13504
1.13057
1.1266
1.12311
1.12009
1.11753
1.93992
1.90646
1.87361
1.8414
1.80991
1.77919
1.74932
1.72036
1.69238
1.66542
1.63953
1.61474
1.59105
1.56848
1.54699
1.52656
1.50715
1.48868
1.4711
1.45431
1.43824
1.42279
1.40787
1.39341
1.37932
1.36553
1.35199
1.33865
1.32549
1.31248
1.29962
1.28694
1.27445
1.26218
1.25019
1.23851
1.22719
1.21629
1.20584
1.19589
1.18648
1.17762
1.16935
1.16166
1.15457
1.14807
1.14215
1.13678
1.13195
1.12764
1.12381
1.12045
1.11754
1.11507
1.93337
1.8992
1.86567
1.83283
1.80074
1.76946
1.73907
1.70964
1.68122
1.65387
1.62763
1.60253
1.57858
1.5558
1.53414
1.5136
1.49412
1.47564
1.45808
1.44138
1.42544
1.41017
1.39549
1.38129
1.36751
1.35406
1.34089
1.32794
1.31519
1.3026
1.29018
1.27793
1.26588
1.25405
1.24248
1.23121
1.22029
1.20977
1.19969
1.19009
1.181
1.17246
1.16447
1.15706
1.15022
1.14394
1.13823
1.13306
1.12841
1.12426
1.12058
1.11735
1.11456
1.11219
1.92699
1.8921
1.85788
1.82438
1.79167
1.75982
1.72889
1.69896
1.67008
1.64232
1.6157
1.59027
1.56604
1.543
1.52116
1.50046
1.48088
1.46235
1.4448
1.42815
1.41231
1.3972
1.38271
1.36875
1.35525
1.34212
1.32929
1.31672
1.30436
1.29219
1.28019
1.26837
1.25675
1.24534
1.2342
1.22334
1.21283
1.2027
1.19299
1.18374
1.17499
1.16676
1.15907
1.15193
1.14535
1.13932
1.13383
1.12886
1.1244
1.12041
1.11689
1.1138
1.11112
1.10885
1.92062
1.885
1.85008
1.81592
1.78258
1.75014
1.71867
1.68823
1.65888
1.63068
1.60367
1.57789
1.55335
1.53005
1.50798
1.48711
1.4674
1.44879
1.43121
1.41458
1.39882
1.38382
1.3695
1.35575
1.34251
1.32967
1.31717
1.30495
1.29297
1.28119
1.26961
1.25821
1.24701
1.23603
1.22531
1.21487
1.20476
1.19502
1.18568
1.1768
1.16839
1.16048
1.1531
1.14625
1.13993
1.13414
1.12888
1.12412
1.11985
1.11604
1.11267
1.10972
1.10717
1.105
1.91408
1.87772
1.84211
1.80728
1.77333
1.7403
1.70828
1.67732
1.6475
1.61886
1.59145
1.5653
1.54043
1.51684
1.49453
1.47346
1.4536
1.43488
1.41725
1.40062
1.3849
1.36999
1.35581
1.34226
1.32924
1.31667
1.30448
1.29259
1.28097
1.26958
1.25839
1.2474
1.23662
1.22607
1.21576
1.20573
1.19603
1.18668
1.17773
1.16921
1.16115
1.15357
1.1465
1.13994
1.13389
1.12836
1.12333
1.11879
1.11472
1.11109
1.10788
1.10507
1.10264
1.10057
1.90716
1.87008
1.83377
1.7983
1.76373
1.73012
1.69755
1.66609
1.63579
1.60671
1.57889
1.55237
1.52716
1.50328
1.48071
1.45943
1.4394
1.42056
1.40285
1.38619
1.37049
1.35566
1.34159
1.3282
1.31539
1.30307
1.29115
1.27959
1.26831
1.25728
1.24648
1.23589
1.22552
1.21538
1.20549
1.19587
1.18657
1.17762
1.16905
1.1609
1.1532
1.14596
1.1392
1.13294
1.12718
1.1219
1.11712
1.11279
1.10892
1.10547
1.10243
1.09976
1.09746
1.0955
1.89963
1.86184
1.82486
1.78876
1.75359
1.71942
1.68632
1.65436
1.62359
1.59408
1.56586
1.53896
1.51342
1.48924
1.4664
1.4449
1.42468
1.40571
1.3879
1.3712
1.3555
1.34072
1.32675
1.3135
1.30087
1.28877
1.27713
1.26586
1.2549
1.24423
1.2338
1.2236
1.21363
1.20389
1.19441
1.18521
1.17631
1.16776
1.15958
1.1518
1.14445
1.13755
1.13112
1.12517
1.11969
1.11468
1.11014
1.10604
1.10237
1.09911
1.09624
1.09372
1.09154
1.08969
1.89165
1.8532
1.81561
1.77892
1.7432
1.70851
1.67493
1.64251
1.61131
1.58139
1.5528
1.52556
1.4997
1.47522
1.45214
1.43041
1.41002
1.3909
1.373
1.35623
1.34052
1.32577
1.31187
1.29874
1.28627
1.27437
1.26295
1.25194
1.24129
1.23093
1.22085
1.21101
1.20141
1.19205
1.18296
1.17414
1.16563
1.15745
1.14964
1.14223
1.13522
1.12866
1.12254
1.11688
1.11168
1.10693
1.10262
1.09874
1.09527
1.09219
1.08947
1.0871
1.08504
1.08329
1.88296
1.8439
1.80573
1.7685
1.73226
1.6971
1.66306
1.63021
1.59861
1.56831
1.53936
1.51179
1.48562
1.46087
1.43754
1.4156
1.39502
1.37575
1.35774
1.34091
1.32517
1.31042
1.29658
1.28354
1.2712
1.25947
1.24826
1.2375
1.22711
1.21705
1.20728
1.19778
1.18853
1.17954
1.17082
1.16237
1.15423
1.14643
1.13898
1.13191
1.12525
1.11901
1.1132
1.10783
1.1029
1.09841
1.09434
1.09067
1.0874
1.08449
1.08193
1.07969
1.07775
1.07609
1.87207
1.83238
1.79362
1.75584
1.71909
1.68344
1.64895
1.61568
1.58368
1.553
1.5237
1.4958
1.46933
1.4443
1.42072
1.39856
1.3778
1.35839
1.34027
1.32336
1.30759
1.29286
1.27907
1.26613
1.25393
1.24238
1.23138
1.22086
1.21076
1.20101
1.19158
1.18243
1.17356
1.16495
1.15662
1.14858
1.14085
1.13344
1.12639
1.1197
1.11341
1.10753
1.10206
1.09701
1.09239
1.08817
1.08436
1.08093
1.07787
1.07516
1.07277
1.07068
1.06886
1.06731
1.89922
1.85799
1.81769
1.77835
1.74003
1.70279
1.66668
1.63175
1.59807
1.56568
1.53465
1.50501
1.4768
1.45005
1.42477
1.40095
1.37859
1.35766
1.33812
1.3199
1.30293
1.28714
1.27243
1.25871
1.24587
1.23381
1.22244
1.21167
1.20142
1.19161
1.18219
1.17311
1.16435
1.15587
1.14769
1.13978
1.13218
1.12488
1.11791
1.11128
1.10502
1.09914
1.09365
1.08856
1.08387
1.07957
1.07567
1.07214
1.06898
1.06615
1.06365
1.06145
1.05952
1.05785
1.05641
1.88131
1.83944
1.79855
1.75867
1.71986
1.68215
1.64562
1.6103
1.57626
1.54354
1.5122
1.48228
1.45381
1.42682
1.40132
1.37732
1.3548
1.33374
1.3141
1.29582
1.27882
1.26304
1.24838
1.23474
1.22203
1.21014
1.19898
1.18846
1.17849
1.169
1.15993
1.15124
1.14288
1.13484
1.1271
1.11966
1.11253
1.10571
1.09921
1.09306
1.08727
1.08184
1.07678
1.0721
1.06781
1.06388
1.06032
1.05711
1.05424
1.05168
1.04942
1.04743
1.04569
1.04418
1.04287
1.85696
1.81452
1.7731
1.73276
1.69353
1.65545
1.61858
1.58296
1.54865
1.51569
1.48413
1.45402
1.42538
1.39825
1.37263
1.34854
1.32595
1.30484
1.28517
1.2669
1.24994
1.23423
1.21967
1.20617
1.19364
1.18196
1.17105
1.16081
1.15116
1.14203
1.13335
1.12507
1.11716
1.10959
1.10235
1.09541
1.0888
1.08251
1.07654
1.07091
1.06563
1.06071
1.05614
1.05192
1.04807
1.04456
1.04139
1.03854
1.036
1.03374
1.03175
1.03
1.02848
1.02715
1.026
1.82307
1.78017
1.73837
1.6977
1.65818
1.61988
1.58281
1.54705
1.51262
1.47958
1.44797
1.41783
1.38918
1.36207
1.33648
1.31244
1.28992
1.2689
1.24935
1.23121
1.2144
1.19887
1.18451
1.17124
1.15895
1.14756
1.13696
1.12707
1.1178
1.10908
1.10085
1.09305
1.08564
1.0786
1.07191
1.06555
1.05952
1.05382
1.04844
1.04341
1.03871
1.03435
1.03033
1.02665
1.0233
1.02026
1.01754
1.0151
1.01294
1.01104
1.00936
1.0079
1.00664
1.00554
1.00459
1.77474
1.73163
1.68968
1.64892
1.60939
1.5711
1.53412
1.49847
1.4642
1.43135
1.39996
1.37007
1.34169
1.31485
1.28957
1.26583
1.24363
1.22294
1.20372
1.18592
1.16946
1.15428
1.14029
1.1274
1.11551
1.10452
1.09436
1.08492
1.07613
1.06792
1.06022
1.05299
1.04618
1.03976
1.03371
1.02802
1.02266
1.01765
1.01297
1.00862
1.00459
1.0009
0.99752
0.994454
0.99169
0.989216
0.987015
0.985072
0.983369
0.981885
0.9806
0.979495
0.97855
0.977745
0.977062
1.71398
1.67104
1.62933
1.58887
1.54969
1.51181
1.47528
1.44013
1.4064
1.37411
1.34332
1.31404
1.2863
1.26011
1.23548
1.21241
1.19087
1.17083
1.15226
1.1351
1.11929
1.10474
1.09137
1.0791
1.06783
1.05748
1.04795
1.03916
1.03103
1.02349
1.01649
1.00997
1.00389
0.998224
0.992938
0.988015
0.983441
0.979203
0.975294
0.971706
0.968429
0.965456
0.962778
0.960382
0.958255
0.956384
0.954752
0.953341
0.952134
0.951112
0.950257
0.949548
0.948969
0.948502
0.948131
1.65861
1.61611
1.57487
1.53493
1.4963
1.45902
1.42311
1.3886
1.35554
1.32395
1.29386
1.26529
1.23827
1.2128
1.18889
1.16653
1.14569
1.12634
1.10845
1.09195
1.07677
1.06285
1.0501
1.03844
1.02777
1.01801
1.00908
1.00089
0.993367
0.98645
0.980079
0.974202
0.968779
0.963774
0.959159
0.954912
0.951013
0.947448
0.944204
0.941267
0.938627
0.93627
0.934184
0.932356
0.93077
0.929411
0.928261
0.927304
0.926522
0.925898
0.925412
0.925049
0.924791
0.924624
0.924533
1.60678
1.56491
1.52434
1.48508
1.44716
1.41061
1.37545
1.34171
1.30942
1.27862
1.24931
1.22153
1.1953
1.1706
1.14746
1.12585
1.10574
1.08712
1.06992
1.0541
1.03959
1.02631
1.0142
1.00315
0.993101
0.983954
0.97563
0.968054
0.961153
0.954863
0.949127
0.943895
0.939123
0.934775
0.930821
0.927234
0.923992
0.921077
0.918471
0.916159
0.914125
0.912355
0.910834
0.909545
0.908473
0.907602
0.906914
0.906393
0.906021
0.905782
0.905659
0.905637
0.905701
0.905837
0.906031
1.56266
1.52149
1.48164
1.44311
1.40594
1.37014
1.33574
1.30277
1.27125
1.2412
1.21266
1.18564
1.16015
1.13619
1.11377
1.09287
1.07346
1.05551
1.03897
1.0238
1.00992
0.997264
0.98576
0.975326
0.96588
0.957341
0.949631
0.942674
0.936401
0.930747
0.925655
0.921074
0.916959
0.91327
0.909975
0.907044
0.904452
0.902177
0.900197
0.898496
0.897054
0.895856
0.894883
0.89412
0.89355
0.893156
0.892922
0.892831
0.892867
0.893014
0.893257
0.893582
0.893975
0.894424
0.894918
1.53167
1.4911
1.45186
1.41394
1.37738
1.3422
1.30841
1.27605
1.24515
1.21571
1.18778
1.16135
1.13645
1.11308
1.09123
1.0709
1.05205
1.03465
1.01866
1.00403
0.990701
0.978598
0.96765
0.95778
0.94891
0.940959
0.933852
0.927512
0.921869
0.916859
0.912421
0.908502
0.905055
0.902036
0.899409
0.897142
0.895204
0.893572
0.892222
0.891132
0.890283
0.889657
0.889236
0.889001
0.888937
0.889027
0.889254
0.889603
0.890059
0.890606
0.891232
0.891922
0.892665
0.89345
0.894266
1.52177
1.48147
1.44248
1.40482
1.36852
1.33359
1.30007
1.26797
1.23733
1.20816
1.18049
1.15434
1.12971
1.10662
1.08506
1.06502
1.04648
1.0294
1.01376
0.999496
0.986553
0.974867
0.964366
0.954974
0.946614
0.939205
0.932669
0.926928
0.92191
0.917546
0.913773
0.910531
0.907768
0.905439
0.903501
0.901918
0.900657
0.89969
0.898989
0.898533
0.8983
0.898269
0.898423
0.898742
0.899211
0.899813
0.900532
0.901353
0.902262
0.903246
0.904291
0.905385
0.906518
0.907679
0.908859
1.54678
1.506
1.46653
1.42841
1.39165
1.35628
1.32233
1.28981
1.25877
1.22922
1.2012
1.17471
1.14979
1.12644
1.10465
1.08443
1.06576
1.04861
1.03295
1.01873
1.0059
0.994397
0.984146
0.975073
0.967096
0.960133
0.9541
0.948915
0.944498
0.940773
0.937669
0.935122
0.933072
0.931466
0.930256
0.9294
0.928863
0.928609
0.928612
0.928844
0.929283
0.929906
0.930695
0.931631
0.932697
0.933877
0.935155
0.936518
0.937951
0.939442
0.940979
0.942551
0.944148
0.945759
0.947379
1.63585
1.59307
1.55165
1.51161
1.47296
1.43574
1.39999
1.36572
1.33299
1.30181
1.27222
1.24426
1.21794
1.19328
1.1703
1.14899
1.12936
1.11138
1.09503
1.08025
1.06701
1.05523
1.04485
1.03578
1.02793
1.02122
1.01554
1.01081
1.00692
1.00381
1.00137
0.999543
0.998249
0.997426
0.99702
0.996981
0.997264
0.997832
0.99865
0.99969
1.00093
1.00233
1.00389
1.00558
1.00738
1.00928
1.01126
1.01331
1.01541
1.01756
1.01974
1.02193
1.02414
1.02635
1.02856
1.86799
1.81967
1.77279
1.72739
1.6835
1.64115
1.6004
1.56128
1.52384
1.48814
1.45422
1.42213
1.3919
1.36359
1.33721
1.31278
1.29031
1.2698
1.25122
1.23453
1.21969
1.20661
1.19522
1.18541
1.1771
1.17016
1.16447
1.15993
1.15642
1.15382
1.15203
1.15096
1.15051
1.15061
1.15118
1.15216
1.1535
1.15514
1.15705
1.15919
1.16152
1.16403
1.16667
1.16944
1.17232
1.17528
1.1783
1.18139
1.18451
1.18766
1.19082
1.19399
1.19716
1.20031
1.20344
2.55433
2.4884
2.42426
2.36198
2.30162
2.24326
2.18696
2.13283
2.08094
2.03139
1.98427
1.93967
1.89768
1.85837
1.82181
1.78803
1.75706
1.72891
1.70356
1.68095
1.66101
1.64364
1.62872
1.61612
1.60568
1.59722
1.59059
1.5856
1.58209
1.57989
1.57884
1.57879
1.57963
1.58121
1.58344
1.58622
1.58947
1.59312
1.5971
1.60136
1.60586
1.61055
1.61541
1.6204
1.6255
1.63068
1.63592
1.64121
1.64652
1.65184
1.65716
1.66247
1.66774
1.67298
1.67818
5.88833
5.72395
5.56523
5.41242
5.26578
5.12557
4.99203
4.8654
4.7459
4.63372
4.52901
4.43189
4.34245
4.26071
4.18664
4.12018
4.06118
4.00947
3.96478
3.92684
3.8953
3.86979
3.84988
3.83515
3.82514
3.8194
3.81748
3.81892
3.82332
3.83026
3.83938
3.85034
3.86283
3.87657
3.89134
3.90692
3.92314
3.93986
3.95694
3.97428
3.99181
4.00944
4.02711
4.04479
4.06243
4.07998
4.09744
4.11475
4.13192
4.14891
4.16571
4.1823
4.19867
4.21481
4.23071
)
;

boundaryField
{
    inlet
    {
        type            fixedValue;
        value           nonuniform 0();
    }
    outlet
    {
        type            zeroGradient;
    }
    upperWall
    {
        Cmu             0.09;
        kappa           0.41;
        E               9.8;
        type            epsilonWallFunction;
        value           nonuniform List<scalar> 
55
(
5.88833
5.72395
5.56523
5.41242
5.26578
5.12557
4.99203
4.8654
4.7459
4.63372
4.52901
4.43189
4.34245
4.26071
4.18664
4.12018
4.06118
4.00947
3.96478
3.92684
3.8953
3.86979
3.84988
3.83515
3.82514
3.8194
3.81748
3.81892
3.82332
3.83026
3.83938
3.85034
3.86283
3.87657
3.89134
3.90692
3.92314
3.93986
3.95694
3.97428
3.99181
4.00944
4.02711
4.04479
4.06243
4.07998
4.09744
4.11475
4.13192
4.14891
4.16571
4.1823
4.19867
4.21481
4.23071
)
;
    }
    lowerWall
    {
        Cmu             0.09;
        kappa           0.41;
        E               9.8;
        type            epsilonWallFunction;
        value           nonuniform List<scalar> 
49
(
5.51114
5.48547
5.44722
5.3974
5.33764
5.2705
5.20012
5.1322
5.07153
5.01438
4.95325
4.8866
4.81449
4.73742
4.65602
4.57098
4.48298
4.39269
4.30077
4.20783
4.11448
4.02126
3.92871
3.83728
3.74741
3.6595
3.57388
3.49085
3.41066
3.33352
3.25959
3.189
3.12183
3.05813
2.99792
2.94117
2.88786
2.83791
2.79123
2.74772
2.70727
2.66975
2.63502
2.60294
2.57337
2.54616
2.52116
2.49825
2.47727
)
;
    }
    frontAndBack
    {
        type            empty;
    }
    procBoundary3to1
    {
        type            processor;
        value           nonuniform List<scalar> 
62
(
2.45809
1.19372
1.00947
0.966321
0.963012
0.974646
0.974646
0.986753
1.00611
1.00611
1.0203
1.03847
1.05509
1.06995
1.08298
1.08298
1.08948
1.099
1.1071
1.11357
1.11357
1.11448
1.11448
1.11468
1.1174
1.11934
1.12067
1.12149
1.12188
1.12191
1.12162
1.12103
1.12014
1.11888
1.11727
1.11529
1.11292
1.11013
1.10687
1.10312
1.09878
1.09381
1.08809
1.08177
1.07465
1.06596
1.05516
1.04173
1.025
1.00377
0.976481
0.947839
0.924503
0.906272
0.895445
0.895104
0.91005
0.948998
1.03075
1.20655
1.68332
4.24637
)
;
    }
    procBoundary3to2
    {
        type            processor;
        value           nonuniform List<scalar> 
58
(
5.52358
2.5341
2.10509
2.00591
1.9996
2.02841
2.07109
2.11781
2.16335
2.20452
2.23922
2.26592
2.2834
2.29066
2.28703
2.27217
2.24619
2.21433
2.18032
2.14713
2.11672
2.0901
2.06752
2.04876
2.03334
2.0207
2.01033
2.00159
1.99381
1.98665
1.98003
1.97387
1.96805
1.96242
1.95683
1.95107
1.94492
1.93815
1.93086
1.92283
1.91262
1.91262
1.94133
1.92412
1.90041
1.86703
1.81898
1.75812
1.70237
1.64994
1.60513
1.57353
1.56339
1.58888
1.67996
1.91773
2.62202
6.05812
)
;
    }
}


// ************************************************************************* //
