/*--------------------------------*- C++ -*----------------------------------*\
  =========                 |
  \\      /  F ield         | OpenFOAM: The Open Source CFD Toolbox
   \\    /   O peration     | Website:  https://openfoam.org
    \\  /    A nd           | Version:  6
     \\/     M anipulation  |
\*---------------------------------------------------------------------------*/
FoamFile
{
    version     2.0;
    format      ascii;
    class       volScalarField;
    location    "0.07";
    object      k;
}
// * * * * * * * * * * * * * * * * * * * * * * * * * * * * * * * * * * * * * //

dimensions      [0 2 -2 0 0 0 0];

internalField   nonuniform List<scalar> 
3032
(
0.0384731
0.0383668
0.0382
0.0379759
0.0376994
0.0373787
0.0370269
0.0366658
0.0363237
0.0360189
0.0357193
0.0353971
0.0350475
0.0346713
0.0342705
0.033848
0.0334066
0.0329493
0.032479
0.0319986
0.0315109
0.0310186
0.0305245
0.0300309
0.0295402
0.0290546
0.0285763
0.028107
0.0276486
0.0272025
0.02677
0.0263523
0.0259503
0.0255649
0.0251965
0.0248456
0.0245123
0.0241968
0.0238988
0.0236183
0.0233549
0.0231081
0.0228773
0.0226621
0.0224616
0.0222753
0.0221024
0.0219422
0.021794
0.0784103
0.0784644
0.078403
0.0782289
0.077946
0.0775596
0.0770756
0.0765002
0.0758396
0.0751147
0.0743259
0.0734745
0.072565
0.0716037
0.0705969
0.0695516
0.0684745
0.067372
0.0662506
0.0651164
0.0639753
0.0628329
0.0616946
0.0605654
0.0594498
0.0583523
0.0572767
0.0562266
0.0552052
0.0542152
0.053259
0.0523386
0.0514555
0.0506111
0.049806
0.0490407
0.0483155
0.04763
0.046984
0.0463765
0.0458068
0.0452736
0.0447757
0.0443118
0.0438802
0.0434793
0.0431077
0.0427635
0.0424453
0.0973227
0.0974548
0.0974456
0.0972973
0.0970134
0.0965984
0.0960577
0.0953965
0.0946271
0.0937662
0.0928187
0.0917907
0.0906899
0.0895242
0.0883021
0.0870318
0.0857216
0.0843796
0.0830135
0.0816309
0.080239
0.0788446
0.0774543
0.0760741
0.0747096
0.0733663
0.0720489
0.0707617
0.0695088
0.0682936
0.067119
0.0659875
0.0649011
0.0638615
0.0628696
0.0619263
0.0610316
0.0601856
0.0593877
0.0586371
0.0579329
0.0572735
0.0566576
0.0560834
0.0555492
0.0550529
0.0545927
0.0541665
0.0537722
0.109677
0.109877
0.109919
0.109806
0.109541
0.109127
0.108571
0.107879
0.107068
0.106149
0.105129
0.104017
0.102822
0.101554
0.100222
0.0988348
0.0974017
0.0959317
0.0944332
0.0929146
0.0913837
0.0898482
0.0883151
0.0867913
0.0852831
0.0837964
0.0823366
0.0809086
0.0795169
0.0781655
0.0768578
0.0755967
0.0743847
0.0732236
0.0721149
0.0710595
0.0700577
0.0691097
0.0682151
0.0673731
0.0665826
0.0658423
0.0651505
0.0645054
0.0639051
0.0633475
0.0628303
0.0623513
0.0619084
0.118655
0.118913
0.119003
0.118927
0.118689
0.118292
0.117742
0.117052
0.116233
0.115296
0.11425
0.113104
0.111869
0.110554
0.109169
0.107724
0.106228
0.104691
0.103121
0.101527
0.0999181
0.0983013
0.0966844
0.0950746
0.0934787
0.091903
0.0903533
0.0888351
0.0873532
0.085912
0.0845154
0.0831668
0.0818689
0.080624
0.0794338
0.0782996
0.0772221
0.0762015
0.0752375
0.0743296
0.0734768
0.0726778
0.0719308
0.0712342
0.0705858
0.0699834
0.0694247
0.0689075
0.0684291
0.125358
0.125667
0.125804
0.125767
0.125562
0.125191
0.124665
0.123996
0.123192
0.122264
0.121222
0.120076
0.118835
0.117511
0.116112
0.11465
0.113132
0.11157
0.109971
0.108345
0.106699
0.105043
0.103383
0.101728
0.100083
0.0984569
0.0968543
0.0952813
0.0937433
0.0922449
0.0907904
0.0893836
0.0880276
0.0867252
0.0854783
0.0842885
0.0831568
0.0820838
0.0810695
0.0801134
0.0792147
0.0783721
0.0775842
0.0768491
0.0761648
0.075529
0.0749394
0.0743936
0.0738889
0.1303
0.13066
0.130841
0.130847
0.13068
0.130347
0.129859
0.129224
0.128453
0.127555
0.12654
0.125418
0.1242
0.122894
0.121512
0.120063
0.118557
0.117001
0.115406
0.11378
0.112132
0.110469
0.108799
0.107129
0.105468
0.103821
0.102194
0.100595
0.099028
0.0974983
0.0960107
0.0945693
0.0931775
0.0918384
0.0905545
0.0893276
0.0881592
0.08705
0.0860004
0.0850101
0.0840786
0.0832047
0.0823871
0.081624
0.0809135
0.0802533
0.0796411
0.0790744
0.0785506
0.0780673
0.133777
0.134185
0.134413
0.134465
0.134344
0.13406
0.13362
0.133033
0.13231
0.131459
0.130491
0.129415
0.128242
0.12698
0.125639
0.124229
0.12276
0.121238
0.119675
0.118076
0.116452
0.11481
0.113156
0.1115
0.109847
0.108205
0.106579
0.104977
0.103404
0.101865
0.100365
0.0989089
0.0975002
0.0961423
0.0948382
0.0935901
0.0923997
0.0912682
0.0901962
0.0891838
0.0882306
0.0873357
0.086498
0.0857159
0.0849874
0.0843105
0.0836828
0.0831018
0.0825651
0.0820699
0.135979
0.136437
0.136716
0.13682
0.136755
0.136529
0.136149
0.135625
0.134964
0.134177
0.133273
0.132262
0.131153
0.129955
0.128677
0.127329
0.125919
0.124455
0.122946
0.121399
0.119822
0.118223
0.11661
0.114989
0.113367
0.111751
0.110147
0.108563
0.107003
0.105474
0.10398
0.102526
0.101117
0.0997559
0.0984463
0.0971907
0.0959913
0.0948496
0.0937665
0.0927425
0.0917775
0.0908708
0.0900215
0.0892281
0.088489
0.0878021
0.0871651
0.0865757
0.0860312
0.0855292
0.0850669
0.137044
0.137556
0.137893
0.13806
0.138062
0.137906
0.137599
0.13715
0.136567
0.135859
0.135037
0.134107
0.13308
0.131965
0.13077
0.129502
0.128171
0.126785
0.12535
0.123874
0.122365
0.12083
0.119276
0.117709
0.116137
0.114567
0.113004
0.111455
0.109925
0.108422
0.10695
0.105514
0.104118
0.102768
0.101465
0.100214
0.0990174
0.0978762
0.0967921
0.0957658
0.0947977
0.0938873
0.0930339
0.0922363
0.091493
0.0908021
0.0901614
0.0895686
0.0890212
0.0885167
0.0880524
0.137083
0.137659
0.138066
0.138308
0.138389
0.138316
0.138095
0.137736
0.137245
0.136632
0.135906
0.135075
0.134147
0.133131
0.132034
0.130865
0.12963
0.128338
0.126994
0.125607
0.124183
0.122728
0.12125
0.119755
0.11825
0.11674
0.115233
0.113734
0.112251
0.110787
0.109351
0.107945
0.106576
0.105248
0.103964
0.102729
0.101544
0.100413
0.0993369
0.0983167
0.0973532
0.0964463
0.0955955
0.0948
0.0940582
0.0933686
0.0927291
0.0921376
0.0915916
0.0910885
0.0906259
0.136205
0.136858
0.137347
0.137676
0.13785
0.137873
0.137753
0.137497
0.137113
0.13661
0.135995
0.135276
0.134461
0.133559
0.132576
0.131519
0.130395
0.129211
0.127974
0.12669
0.125365
0.124005
0.122617
0.121207
0.119781
0.118346
0.116908
0.115473
0.114048
0.112637
0.111247
0.109884
0.108552
0.107256
0.106001
0.104791
0.103628
0.102515
0.101455
0.100448
0.0994958
0.0985988
0.0977566
0.0969686
0.0962335
0.09555
0.0949162
0.0943299
0.0937889
0.0932908
0.092833
0.134523
0.135264
0.135849
0.136278
0.136558
0.136691
0.136685
0.136546
0.136283
0.135901
0.13541
0.134817
0.134128
0.133351
0.132493
0.13156
0.130559
0.129495
0.128376
0.127205
0.125991
0.124737
0.123451
0.122137
0.120803
0.119453
0.118095
0.116734
0.115377
0.114029
0.112696
0.111385
0.110099
0.108845
0.107628
0.10645
0.105316
0.104229
0.103191
0.102204
0.10127
0.100389
0.0995603
0.0987847
0.0980609
0.0973877
0.0967633
0.096186
0.0956534
0.0951633
0.0947132
0.132165
0.133005
0.133696
0.134239
0.134636
0.134891
0.135011
0.135001
0.134867
0.134619
0.134261
0.133802
0.133248
0.132605
0.131881
0.13108
0.13021
0.129274
0.12828
0.127232
0.126136
0.124997
0.12382
0.122611
0.121376
0.120121
0.118851
0.117573
0.116293
0.115016
0.113748
0.112496
0.111266
0.110061
0.108888
0.10775
0.106652
0.105597
0.104588
0.103627
0.102715
0.101854
0.101045
0.100286
0.0995772
0.098918
0.0983067
0.0977414
0.0972201
0.0967407
0.0963007
0.0958978
0.129283
0.130231
0.131038
0.131701
0.132224
0.132609
0.132861
0.132986
0.132989
0.132878
0.132659
0.132339
0.131923
0.131419
0.130832
0.130168
0.129432
0.12863
0.127765
0.126844
0.125871
0.124851
0.123789
0.122691
0.121562
0.120406
0.119231
0.118042
0.116844
0.115645
0.114449
0.113264
0.112093
0.110944
0.109822
0.10873
0.107673
0.106656
0.10568
0.10475
0.103866
0.10303
0.102243
0.101505
0.100815
0.100173
0.099578
0.0990276
0.0985203
0.0980539
0.0976263
0.0972351
0.126007
0.127068
0.127993
0.128781
0.129432
0.129949
0.130335
0.130596
0.130737
0.130764
0.130684
0.130503
0.130227
0.129863
0.129414
0.128888
0.128288
0.12762
0.126888
0.126097
0.12525
0.124354
0.123411
0.122428
0.121409
0.120359
0.119285
0.11819
0.117082
0.115966
0.114849
0.113736
0.112633
0.111545
0.110479
0.109439
0.10843
0.107456
0.106519
0.105624
0.104773
0.103966
0.103206
0.102492
0.101825
0.101204
0.100628
0.100095
0.0996041
0.0991532
0.0987402
0.0983627
0.122613
0.123777
0.124812
0.125714
0.126484
0.127121
0.12763
0.128016
0.128283
0.128438
0.128487
0.128436
0.12829
0.128056
0.127738
0.127341
0.126871
0.126332
0.125727
0.125061
0.124337
0.123561
0.122736
0.121866
0.120957
0.120013
0.119039
0.118041
0.117024
0.115994
0.114957
0.113919
0.112886
0.111863
0.110857
0.109872
0.108914
0.107986
0.107092
0.106236
0.10542
0.104646
0.103915
0.103229
0.102586
0.101988
0.101433
0.10092
0.100448
0.100014
0.0996175
0.0992553
0.119615
0.120851
0.121963
0.122947
0.123802
0.124528
0.125128
0.125608
0.125971
0.126225
0.126375
0.126426
0.126385
0.126257
0.126046
0.125758
0.125397
0.124966
0.12447
0.123912
0.123296
0.122626
0.121905
0.121137
0.120326
0.119478
0.118596
0.117686
0.116753
0.115804
0.114842
0.113876
0.112909
0.111949
0.111001
0.11007
0.109161
0.108279
0.107427
0.10661
0.105829
0.105088
0.104387
0.103729
0.103112
0.102538
0.102005
0.101512
0.101059
0.100643
0.100263
0.099916
0.099601
0.117149
0.118418
0.119568
0.120595
0.121496
0.122272
0.122928
0.123467
0.123894
0.124214
0.124435
0.124561
0.124597
0.124549
0.124422
0.124219
0.123945
0.123603
0.123197
0.12273
0.122205
0.121625
0.120994
0.120315
0.119592
0.118828
0.118029
0.117199
0.116343
0.115467
0.114576
0.113675
0.112771
0.11187
0.110977
0.110097
0.109236
0.108398
0.107587
0.106808
0.106062
0.105353
0.104682
0.104051
0.10346
0.102909
0.102398
0.101926
0.101492
0.101094
0.10073
0.100399
0.100099
0.0998267
0.115253
0.116515
0.117662
0.118691
0.1196
0.12039
0.121065
0.121629
0.122087
0.122445
0.122707
0.12288
0.122968
0.122976
0.122909
0.12277
0.122563
0.122291
0.121956
0.121563
0.121113
0.120609
0.120054
0.119451
0.118804
0.118115
0.117389
0.11663
0.115843
0.115033
0.114206
0.113366
0.11252
0.111674
0.110832
0.11
0.109184
0.108388
0.107617
0.106874
0.106162
0.105485
0.104843
0.104239
0.103673
0.103145
0.102655
0.102203
0.101788
0.101407
0.10106
0.100744
0.100458
0.1002
0.113897
0.115113
0.11622
0.117215
0.118097
0.118868
0.119531
0.120091
0.120552
0.120919
0.121199
0.121394
0.121511
0.121554
0.121526
0.121432
0.121273
0.121053
0.120775
0.120439
0.12005
0.119608
0.119117
0.118578
0.117995
0.117371
0.116709
0.116013
0.115287
0.114537
0.113767
0.112983
0.11219
0.111394
0.1106
0.109814
0.10904
0.108284
0.10755
0.106841
0.106162
0.105515
0.104901
0.104323
0.103781
0.103275
0.102807
0.102374
0.101977
0.101613
0.101282
0.100981
0.100709
0.100464
0.113004
0.114145
0.115182
0.116114
0.116942
0.117667
0.118294
0.118825
0.119266
0.119622
0.119897
0.120096
0.120223
0.120282
0.120277
0.12021
0.120084
0.119901
0.119664
0.119373
0.119032
0.11864
0.118201
0.117716
0.117188
0.116619
0.116012
0.115371
0.1147
0.114003
0.113285
0.112551
0.111806
0.111056
0.110306
0.109562
0.108828
0.108109
0.10741
0.106734
0.106086
0.105467
0.10488
0.104327
0.103808
0.103324
0.102876
0.102462
0.102082
0.101735
0.101419
0.101133
0.100874
0.100642
0.112485
0.113527
0.114473
0.115323
0.116076
0.116737
0.117308
0.117794
0.118198
0.118525
0.11878
0.118967
0.119089
0.119151
0.119153
0.119101
0.118995
0.118837
0.118628
0.118371
0.118066
0.117714
0.117318
0.116877
0.116395
0.115872
0.115313
0.11472
0.114097
0.113447
0.112776
0.112087
0.111386
0.110678
0.109969
0.109263
0.108566
0.107882
0.107215
0.106571
0.105951
0.105359
0.104798
0.104268
0.103772
0.103309
0.10288
0.102484
0.102121
0.101789
0.101488
0.101216
0.10097
0.10075
0.112249
0.113179
0.11402
0.114774
0.115442
0.116026
0.11653
0.116957
0.117312
0.1176
0.117823
0.117986
0.118092
0.118144
0.118144
0.118095
0.117998
0.117855
0.117666
0.117432
0.117155
0.116834
0.116471
0.116067
0.115623
0.11514
0.114622
0.114071
0.113489
0.112881
0.112251
0.111603
0.110942
0.110272
0.1096
0.10893
0.108266
0.107615
0.106979
0.106364
0.105771
0.105205
0.104668
0.104161
0.103685
0.103242
0.102831
0.102453
0.102106
0.101789
0.101502
0.101243
0.10101
0.100802
0.112217
0.113028
0.113759
0.114411
0.114985
0.115486
0.115915
0.116277
0.116576
0.116816
0.117
0.117131
0.117213
0.117247
0.117237
0.117183
0.117087
0.11695
0.116773
0.116555
0.116297
0.116
0.115663
0.115289
0.114876
0.114427
0.113944
0.113428
0.112883
0.112312
0.111719
0.111107
0.110482
0.109848
0.109209
0.108572
0.10794
0.107318
0.106711
0.106123
0.105556
0.105014
0.1045
0.104014
0.103559
0.103134
0.102741
0.102379
0.102047
0.101745
0.101471
0.101224
0.101003
0.100806
0.112323
0.113015
0.113634
0.114182
0.114662
0.115076
0.115428
0.115722
0.115961
0.116148
0.116287
0.116381
0.116433
0.116444
0.116417
0.116353
0.116251
0.116115
0.115942
0.115734
0.11549
0.11521
0.114894
0.114543
0.114156
0.113735
0.113282
0.112797
0.112284
0.111746
0.111185
0.110606
0.110013
0.109411
0.108804
0.108196
0.107593
0.107
0.106419
0.105856
0.105314
0.104794
0.104301
0.103836
0.103399
0.102993
0.102616
0.102269
0.101952
0.101664
0.101402
0.101167
0.100957
0.10077
0.11252
0.113095
0.113605
0.114051
0.114437
0.114766
0.11504
0.115264
0.115441
0.115573
0.115665
0.115719
0.115737
0.115722
0.115673
0.115593
0.115482
0.115341
0.115168
0.114964
0.114729
0.114461
0.114161
0.113828
0.113463
0.113066
0.112637
0.11218
0.111695
0.111185
0.110653
0.110104
0.10954
0.108966
0.108387
0.107808
0.107232
0.106664
0.106108
0.105569
0.105049
0.104551
0.104078
0.103632
0.103213
0.102823
0.102462
0.102131
0.101827
0.101551
0.101302
0.101078
0.100878
0.100701
0.112776
0.113238
0.11364
0.113987
0.11428
0.114523
0.114719
0.114872
0.114985
0.115061
0.115103
0.115113
0.115094
0.115047
0.114973
0.114874
0.114749
0.114598
0.11442
0.114217
0.113985
0.113725
0.113437
0.113118
0.11277
0.112393
0.111987
0.111552
0.111092
0.110608
0.110103
0.109581
0.109044
0.108498
0.107946
0.107392
0.106842
0.106299
0.105767
0.105251
0.104752
0.104276
0.103822
0.103395
0.102994
0.10262
0.102275
0.101958
0.101668
0.101405
0.101167
0.100954
0.100765
0.100597
0.113087
0.113433
0.113726
0.11397
0.114168
0.114322
0.114437
0.114515
0.11456
0.114575
0.114563
0.114525
0.114465
0.114382
0.114279
0.114155
0.114011
0.113847
0.113661
0.113453
0.113222
0.112966
0.112686
0.112379
0.112046
0.111685
0.111299
0.110886
0.110449
0.10999
0.10951
0.109013
0.108503
0.107983
0.107458
0.10693
0.106405
0.105887
0.105379
0.104886
0.10441
0.103954
0.103521
0.103112
0.102729
0.102373
0.102043
0.101741
0.101465
0.101215
0.100989
0.100788
0.100608
0.10045
0.113454
0.113679
0.113859
0.113996
0.114093
0.114154
0.114182
0.114181
0.114154
0.114104
0.114032
0.113942
0.113836
0.113713
0.113576
0.113424
0.113258
0.113076
0.112878
0.112663
0.112429
0.112176
0.111901
0.111603
0.111282
0.110938
0.110569
0.110177
0.109762
0.109326
0.108871
0.1084
0.107916
0.107422
0.106923
0.106421
0.105922
0.105429
0.104945
0.104475
0.104022
0.103588
0.103175
0.102785
0.102421
0.102081
0.101768
0.101481
0.101219
0.100982
0.100768
0.100578
0.100409
0.10026
0.113869
0.113969
0.11403
0.114056
0.114049
0.114012
0.11395
0.113866
0.113762
0.113642
0.113507
0.11336
0.113203
0.113037
0.112862
0.112678
0.112485
0.112283
0.11207
0.111844
0.111605
0.11135
0.111078
0.110788
0.110478
0.110147
0.109795
0.109421
0.109027
0.108614
0.108183
0.107737
0.107279
0.106811
0.106338
0.105862
0.105389
0.104921
0.104462
0.104015
0.103585
0.103172
0.10278
0.10241
0.102064
0.101743
0.101446
0.101174
0.100926
0.100702
0.100501
0.100322
0.100163
0.100024
0.114319
0.114291
0.114231
0.114142
0.114027
0.11389
0.113734
0.113562
0.113378
0.113184
0.112982
0.112775
0.112564
0.11235
0.112133
0.111913
0.111691
0.111464
0.111232
0.110993
0.110745
0.110487
0.110216
0.10993
0.109628
0.109309
0.108972
0.108616
0.108242
0.10785
0.107443
0.107021
0.106588
0.106146
0.105698
0.105249
0.104801
0.104358
0.103924
0.103502
0.103094
0.102704
0.102333
0.101983
0.101656
0.101352
0.101072
0.100815
0.100582
0.100371
0.100183
0.100015
0.0998664
0.0997363
0.114792
0.114633
0.11445
0.114244
0.114019
0.113778
0.113525
0.113263
0.112995
0.112724
0.112452
0.11218
0.111911
0.111646
0.111383
0.111125
0.110869
0.110615
0.110361
0.110105
0.109846
0.109581
0.109308
0.109025
0.108729
0.10842
0.108096
0.107756
0.107401
0.10703
0.106644
0.106246
0.105838
0.105421
0.104999
0.104576
0.104154
0.103737
0.103327
0.102929
0.102545
0.102177
0.101828
0.101498
0.101191
0.100905
0.100641
0.100401
0.100182
0.099985
0.0998086
0.099652
0.0995139
0.0993931
0.11527
0.114981
0.114672
0.114347
0.11401
0.113664
0.113312
0.112958
0.112604
0.112253
0.111907
0.111568
0.111239
0.110918
0.110607
0.110306
0.110014
0.109729
0.10945
0.109175
0.108902
0.108627
0.10835
0.108067
0.107776
0.107474
0.107162
0.106836
0.106498
0.106147
0.105783
0.105408
0.105023
0.104632
0.104236
0.103838
0.103442
0.10305
0.102666
0.102292
0.101931
0.101586
0.101259
0.10095
0.100662
0.100394
0.100148
0.0999235
0.0997197
0.0995363
0.0993724
0.0992271
0.0990993
0.0989877
0.115737
0.115316
0.114882
0.114438
0.113988
0.113535
0.113083
0.112634
0.112192
0.111759
0.111338
0.11093
0.110536
0.110158
0.109796
0.109449
0.109118
0.108799
0.108492
0.108195
0.107905
0.107619
0.107335
0.107049
0.10676
0.106465
0.106162
0.10585
0.105527
0.105194
0.104851
0.104498
0.104137
0.10377
0.1034
0.103028
0.102657
0.102291
0.101932
0.101583
0.101246
0.100924
0.100619
0.100331
0.100063
0.0998139
0.0995852
0.0993766
0.0991877
0.099018
0.0988666
0.0987327
0.098615
0.0985124
0.116169
0.115617
0.115059
0.114497
0.113934
0.113375
0.112821
0.112278
0.111746
0.11123
0.110731
0.110252
0.109793
0.109355
0.108939
0.108545
0.108171
0.107816
0.107479
0.107157
0.106847
0.106547
0.106254
0.105964
0.105675
0.105384
0.105089
0.104789
0.104481
0.104165
0.103841
0.10351
0.103172
0.102829
0.102483
0.102137
0.101792
0.101451
0.101118
0.100794
0.100481
0.100182
0.0998992
0.0996329
0.0993844
0.0991545
0.0989434
0.0987511
0.0985772
0.0984212
0.0982823
0.0981596
0.0980519
0.0979582
0.116543
0.115863
0.115182
0.114502
0.113828
0.113163
0.112509
0.111871
0.11125
0.11065
0.110073
0.10952
0.108994
0.108495
0.108023
0.107579
0.107161
0.106768
0.106398
0.106049
0.105718
0.105401
0.105097
0.104801
0.10451
0.104222
0.103934
0.103643
0.103349
0.103049
0.102744
0.102433
0.102117
0.101798
0.101477
0.101156
0.100836
0.100522
0.100213
0.0999141
0.0996259
0.0993507
0.09909
0.098845
0.0986168
0.0984058
0.0982124
0.0980364
0.0978776
0.0977353
0.0976088
0.0974971
0.0973992
0.0973141
0.116831
0.116026
0.115225
0.114431
0.113648
0.112878
0.112125
0.111392
0.110683
0.109999
0.109343
0.108718
0.108124
0.107562
0.107034
0.106538
0.106074
0.105641
0.105237
0.104859
0.104504
0.104169
0.103852
0.103548
0.103254
0.102966
0.102683
0.102401
0.102119
0.101834
0.101547
0.101256
0.100962
0.100666
0.100369
0.100073
0.0997789
0.0994895
0.0992067
0.0989324
0.0986686
0.0984169
0.0981788
0.0979553
0.0977473
0.0975554
0.0973796
0.09722
0.0970761
0.0969473
0.096833
0.0967321
0.0966437
0.0965668
0.116993
0.116074
0.115163
0.114263
0.113379
0.112513
0.111668
0.110847
0.110054
0.109292
0.108562
0.107867
0.107208
0.106587
0.106003
0.105458
0.10495
0.104477
0.104038
0.103631
0.103252
0.102899
0.102567
0.102253
0.101954
0.101667
0.101387
0.101112
0.10084
0.100568
0.100296
0.100024
0.0997497
0.0994751
0.0992006
0.0989276
0.0986575
0.0983921
0.0981332
0.0978825
0.0976417
0.0974122
0.0971954
0.0969922
0.0968034
0.0966293
0.09647
0.0963256
0.0961954
0.0960791
0.0959757
0.0958845
0.0958045
0.0957347
0.117031
0.116003
0.114988
0.113989
0.113009
0.112051
0.111118
0.110214
0.109341
0.108502
0.107701
0.106938
0.106217
0.105537
0.1049
0.104305
0.103752
0.10324
0.102766
0.102329
0.101925
0.101552
0.101204
0.10088
0.100575
0.100285
0.100006
0.0997368
0.0994732
0.0992134
0.098956
0.0986997
0.0984442
0.0981896
0.0979364
0.0976856
0.0974382
0.0971958
0.0969598
0.0967318
0.0965131
0.0963051
0.0961089
0.0959252
0.0957547
0.0955976
0.0954542
0.0953241
0.0952069
0.0951021
0.0950089
0.0949265
0.0948539
0.0947902
0.116889
0.115749
0.114626
0.113523
0.112443
0.111389
0.110364
0.109372
0.108415
0.107497
0.10662
0.105787
0.104999
0.104257
0.103563
0.102915
0.102315
0.10176
0.10125
0.10078
0.10035
0.0999543
0.0995903
0.099254
0.0989414
0.0986486
0.0983717
0.0981075
0.0978529
0.0976054
0.097363
0.0971244
0.0968888
0.0966557
0.0964255
0.0961985
0.0959758
0.0957583
0.0955473
0.0953439
0.0951493
0.0949647
0.0947907
0.0946283
0.0944776
0.0943391
0.0942127
0.094098
0.0939948
0.0939024
0.09382
0.0937468
0.093682
0.0936245
0.117731
0.116458
0.115203
0.11397
0.11276
0.111578
0.110426
0.109307
0.108225
0.107182
0.106182
0.105228
0.104321
0.103464
0.102658
0.101905
0.101203
0.100553
0.0999544
0.0994046
0.0989017
0.0984427
0.0980242
0.0976425
0.0972935
0.0969731
0.0966772
0.0964019
0.0961433
0.0958982
0.0956638
0.0954376
0.095218
0.0950036
0.0947939
0.0945884
0.0943874
0.0941913
0.0940009
0.0938169
0.0936403
0.0934719
0.0933126
0.0931629
0.0930234
0.0928944
0.0927758
0.0926677
0.0925698
0.0924815
0.0924022
0.0923313
0.0922678
0.0922111
0.0921601
0.116964
0.115573
0.114205
0.112863
0.111549
0.110265
0.109016
0.107805
0.106633
0.105506
0.104425
0.103394
0.102415
0.10149
0.100621
0.0998082
0.0990527
0.0983541
0.0977115
0.0971232
0.0965871
0.0961002
0.0956592
0.0952603
0.0948994
0.0945721
0.0942741
0.0940013
0.0937496
0.0935155
0.0932957
0.0930874
0.0928887
0.0926976
0.0925133
0.0923348
0.0921621
0.0919951
0.0918342
0.0916797
0.0915323
0.0913924
0.0912606
0.0911374
0.0910228
0.0909172
0.0908204
0.0907322
0.0906522
0.09058
0.090515
0.0904564
0.0904034
0.0903554
0.0903114
0.115493
0.113992
0.112518
0.111074
0.109662
0.108285
0.106945
0.105647
0.104394
0.103188
0.102032
0.10093
0.0998845
0.0988969
0.0979693
0.0971028
0.0962981
0.0955551
0.094873
0.0942502
0.0936846
0.0931735
0.0927134
0.0923005
0.0919306
0.0915993
0.0913021
0.0910346
0.0907925
0.090572
0.0903695
0.090182
0.0900068
0.0898419
0.0896858
0.0895373
0.0893957
0.0892607
0.0891321
0.0890099
0.0888945
0.0887858
0.0886843
0.0885899
0.0885027
0.0884227
0.0883497
0.0882834
0.0882233
0.088169
0.0881198
0.088075
0.088034
0.087996
0.0879602
0.112918
0.111323
0.109759
0.108228
0.106733
0.105276
0.103861
0.102491
0.101169
0.0998979
0.0986809
0.097521
0.0964208
0.0953827
0.0944083
0.0934991
0.0926558
0.0918783
0.091166
0.0905175
0.0899308
0.0894031
0.088931
0.0885106
0.0881379
0.0878082
0.0875169
0.0872596
0.0870317
0.086829
0.0866479
0.0864849
0.086337
0.0862018
0.0860774
0.0859623
0.0858552
0.0857554
0.0856624
0.0855757
0.0854952
0.0854207
0.0853522
0.0852894
0.0852322
0.0851804
0.0851337
0.0850915
0.0850536
0.0850193
0.084988
0.0849592
0.0849321
0.0849061
0.0848806
0.108576
0.106917
0.105293
0.103705
0.102156
0.100649
0.0991863
0.0977715
0.0964076
0.0950976
0.0938447
0.0926518
0.0915214
0.090456
0.0894573
0.0885268
0.0876652
0.0868727
0.0861485
0.0854915
0.0848995
0.0843698
0.0838992
0.0834838
0.0831194
0.0828015
0.0825254
0.0822865
0.0820802
0.0819022
0.0817485
0.0816155
0.0815
0.0813992
0.0813109
0.0812331
0.0811643
0.0811033
0.0810492
0.0810012
0.0809588
0.0809214
0.0808888
0.0808604
0.080836
0.0808151
0.0807972
0.080782
0.0807689
0.0807573
0.0807468
0.0807367
0.0807266
0.0807158
0.0807038
0.102389
0.100721
0.0990895
0.0974966
0.0959448
0.0944368
0.0929756
0.091564
0.0902053
0.0889024
0.0876583
0.086476
0.0853579
0.0843065
0.0833236
0.0824104
0.0815678
0.0807959
0.0800939
0.0794607
0.0788941
0.0783915
0.0779496
0.0775645
0.077232
0.0769476
0.0767065
0.0765042
0.0763359
0.0761973
0.0760842
0.0759929
0.07592
0.0758625
0.0758178
0.0757838
0.0757586
0.0757408
0.0757292
0.0757227
0.0757205
0.075722
0.0757265
0.0757336
0.0757426
0.0757532
0.0757649
0.0757772
0.0757896
0.0758016
0.0758129
0.0758229
0.0758312
0.0758373
0.0758409
0.0961373
0.0944972
0.0928945
0.0913315
0.0898105
0.0883342
0.0869054
0.085527
0.084202
0.0829334
0.0817241
0.0805768
0.0794942
0.0784785
0.0775313
0.0766541
0.0758474
0.0751113
0.0744451
0.0738476
0.0733167
0.0728496
0.072443
0.0720932
0.071796
0.0715468
0.071341
0.071174
0.0710412
0.070938
0.0708604
0.0708046
0.070767
0.0707447
0.0707348
0.0707351
0.0707437
0.0707588
0.0707791
0.0708035
0.0708311
0.0708609
0.0708923
0.0709248
0.0709577
0.0709907
0.0710232
0.0710548
0.0710851
0.0711137
0.0711401
0.0711641
0.0711852
0.0712032
0.0712177
0.0894911
0.0879082
0.0863628
0.0848571
0.0833935
0.0819745
0.0806028
0.0792812
0.0780127
0.0768001
0.0756463
0.0745539
0.0735253
0.0725626
0.0716676
0.0708413
0.0700844
0.0693969
0.068778
0.0682264
0.0677399
0.067316
0.0669513
0.066642
0.0663841
0.0661731
0.0660045
0.0658737
0.0657761
0.0657075
0.0656635
0.0656406
0.0656351
0.065644
0.0656645
0.0656944
0.0657315
0.0657742
0.0658209
0.0658706
0.0659221
0.0659747
0.0660277
0.0660804
0.0661323
0.0661829
0.0662319
0.0662787
0.0663232
0.0663648
0.0664034
0.0664386
0.0664702
0.0664979
0.0665215
0.0826005
0.0810972
0.0796309
0.0782035
0.0768175
0.0754751
0.0741791
0.0729322
0.071737
0.0705965
0.0695133
0.0684899
0.0675286
0.0666315
0.0657999
0.0650351
0.0643374
0.0637068
0.0631425
0.0626431
0.0622066
0.0618302
0.0615107
0.0612445
0.0610276
0.0608556
0.0607242
0.0606288
0.0605651
0.0605287
0.0605157
0.0605223
0.0605451
0.0605811
0.0606276
0.0606821
0.0607428
0.0608079
0.0608759
0.0609457
0.0610162
0.0610866
0.0611563
0.0612246
0.061291
0.0613552
0.0614168
0.0614753
0.0615306
0.0615824
0.0616305
0.0616745
0.0617144
0.06175
0.0617811
0.0755584
0.0741522
0.0727816
0.0714486
0.0701554
0.0689043
0.067698
0.0665389
0.0654296
0.0643729
0.0633713
0.0624271
0.0615426
0.0607194
0.059959
0.0592624
0.0586299
0.0580613
0.0575559
0.0571122
0.0567282
0.0564012
0.0561281
0.0559054
0.0557292
0.0555954
0.0554996
0.0554376
0.055405
0.0553979
0.0554123
0.0554447
0.0554917
0.0555504
0.0556181
0.0556927
0.0557721
0.0558547
0.0559392
0.0560243
0.0561091
0.0561928
0.0562749
0.0563546
0.0564317
0.0565058
0.0565765
0.0566436
0.0567069
0.0567662
0.0568212
0.0568719
0.0569181
0.0569598
0.0569967
0.0683991
0.0671037
0.065842
0.0646161
0.0634279
0.0622797
0.0611738
0.0601128
0.059099
0.058135
0.0572231
0.0563656
0.0555643
0.0548209
0.0541368
0.0535127
0.0529488
0.0524451
0.0520005
0.0516138
0.0512828
0.0510052
0.0507778
0.0505974
0.0504601
0.050362
0.0502991
0.0502672
0.0502623
0.0502805
0.0503182
0.0503719
0.0504384
0.0505151
0.0505993
0.050689
0.0507824
0.0508778
0.050974
0.0510699
0.0511645
0.0512574
0.0513477
0.0514352
0.0515193
0.0515999
0.0516766
0.0517493
0.0518179
0.0518821
0.0519418
0.051997
0.0520476
0.0520936
0.0521348
0.061086
0.0599139
0.0587732
0.0576656
0.0565932
0.055558
0.0545623
0.0536083
0.0526982
0.0518344
0.051019
0.050254
0.0495411
0.0488819
0.0482775
0.0477285
0.0472352
0.0467973
0.0464139
0.0460837
0.0458048
0.0455748
0.0453909
0.0452498
0.0451481
0.045082
0.0450478
0.0450416
0.0450597
0.0450984
0.0451542
0.045224
0.0453049
0.0453942
0.0454897
0.0455894
0.0456916
0.0457948
0.0458979
0.0459999
0.0461001
0.0461977
0.0462924
0.0463837
0.0464713
0.046555
0.0466346
0.04671
0.046781
0.0468477
0.0469098
0.0469674
0.0470204
0.0470688
0.0471126
0.0534796
0.0524448
0.0514383
0.050462
0.0495175
0.0486068
0.0477317
0.0468945
0.046097
0.0453413
0.0446293
0.0439627
0.0433432
0.042772
0.0422501
0.041778
0.041356
0.0409838
0.0406605
0.0403849
0.0401553
0.0399694
0.0398248
0.0397184
0.0396471
0.0396075
0.0395961
0.0396095
0.0396441
0.0396967
0.0397642
0.0398435
0.0399322
0.0400277
0.0401281
0.0402316
0.0403366
0.0404419
0.0405464
0.0406493
0.0407499
0.0408476
0.040942
0.0410329
0.04112
0.0412031
0.0412821
0.0413569
0.0414273
0.0414935
0.0415553
0.0416128
0.0416658
0.0417145
0.0417589
0.0452441
0.0443676
0.0435157
0.0426896
0.041891
0.0411213
0.0403823
0.0396756
0.039003
0.0383661
0.0377667
0.037206
0.0366856
0.0362066
0.0357697
0.0353755
0.0350243
0.0347157
0.0344491
0.0342236
0.0340376
0.0338892
0.0337763
0.0336964
0.0336467
0.0336242
0.0336259
0.0336489
0.03369
0.0337464
0.0338153
0.0338943
0.033981
0.0340733
0.0341694
0.0342678
0.0343671
0.0344663
0.0345645
0.0346608
0.0347548
0.034846
0.0349341
0.0350187
0.0350997
0.035177
0.0352505
0.0353201
0.0353858
0.0354475
0.0355053
0.0355591
0.035609
0.035655
0.0356971
0.0355564
0.0348792
0.0342199
0.0335795
0.0329591
0.0323597
0.0317826
0.0312291
0.0307006
0.0301983
0.0297235
0.0292776
0.0288618
0.028477
0.0281241
0.0278038
0.0275164
0.027262
0.0270404
0.0268509
0.0266926
0.0265643
0.0264642
0.0263907
0.0263415
0.0263146
0.0263074
0.0263178
0.0263432
0.0263814
0.0264302
0.0264876
0.0265517
0.0266208
0.0266935
0.0267685
0.0268447
0.0269212
0.0269972
0.0270721
0.0271454
0.0272168
0.0272859
0.0273526
0.0274166
0.0274778
0.0275361
0.0275915
0.0276439
0.0276934
0.0277398
0.0277832
0.0278235
0.0278609
0.0278953
0.0205558
0.0201475
0.0197484
0.0193592
0.0189808
0.018614
0.0182596
0.0179187
0.0175919
0.0172803
0.0169845
0.0167054
0.0164435
0.0161995
0.0159736
0.0157663
0.0155775
0.0154072
0.0152551
0.0151209
0.0150039
0.0149034
0.0148184
0.0147481
0.0146912
0.0146466
0.0146132
0.0145897
0.014575
0.0145679
0.0145673
0.0145721
0.0145816
0.0145948
0.0146111
0.0146296
0.01465
0.0146717
0.0146943
0.0147175
0.0147409
0.0147644
0.0147878
0.0148109
0.0148336
0.0148557
0.0148772
0.014898
0.0149181
0.0149374
0.0149557
0.0149732
0.0149898
0.0150054
0.01502
)
;

boundaryField
{
    inlet
    {
        type            fixedValue;
        value           nonuniform 0();
    }
    outlet
    {
        type            zeroGradient;
    }
    upperWall
    {
        type            kqRWallFunction;
        value           nonuniform List<scalar> 
55
(
0.0205558
0.0201475
0.0197484
0.0193592
0.0189808
0.018614
0.0182596
0.0179187
0.0175919
0.0172803
0.0169845
0.0167054
0.0164435
0.0161995
0.0159736
0.0157663
0.0155775
0.0154072
0.0152551
0.0151209
0.0150039
0.0149034
0.0148184
0.0147481
0.0146912
0.0146466
0.0146132
0.0145897
0.014575
0.0145679
0.0145673
0.0145721
0.0145816
0.0145948
0.0146111
0.0146296
0.01465
0.0146717
0.0146943
0.0147175
0.0147409
0.0147644
0.0147878
0.0148109
0.0148336
0.0148557
0.0148772
0.014898
0.0149181
0.0149374
0.0149557
0.0149732
0.0149898
0.0150054
0.01502
)
;
    }
    lowerWall
    {
        type            kqRWallFunction;
        value           nonuniform List<scalar> 
49
(
0.0384731
0.0383668
0.0382
0.0379759
0.0376994
0.0373787
0.0370269