/*--------------------------------*- C++ -*----------------------------------*\
  =========                 |
  \\      /  F ield         | OpenFOAM: The Open Source CFD Toolbox
   \\    /   O peration     | Website:  https://openfoam.org
    \\  /    A nd           | Version:  6
     \\/     M anipulation  |
\*---------------------------------------------------------------------------*/
FoamFile
{
    version     2.0;
    format      ascii;
    class       volScalarField;
    location    "0.07";
    object      nut;
}
// * * * * * * * * * * * * * * * * * * * * * * * * * * * * * * * * * * * * * //

dimensions      [0 2 -1 0 0 0 0];

internalField   nonuniform List<scalar> 
3032
(
2.41722e-05
2.41513e-05
2.41098e-05
2.40477e-05
2.39642e-05
2.38582e-05
2.37282e-05
2.35755e-05
2.34144e-05
2.32855e-05
2.31823e-05
2.30765e-05
2.29619e-05
2.28371e-05
2.27023e-05
2.25579e-05
2.24048e-05
2.22435e-05
2.2075e-05
2.19001e-05
2.17194e-05
2.1534e-05
2.13447e-05
2.11522e-05
2.09574e-05
2.07612e-05
2.05643e-05
2.03677e-05
2.01721e-05
1.99782e-05
1.97868e-05
1.95986e-05
1.94142e-05
1.92342e-05
1.90591e-05
1.88895e-05
1.87256e-05
1.85677e-05
1.84162e-05
1.82712e-05
1.81328e-05
1.80011e-05
1.78759e-05
1.77573e-05
1.76451e-05
1.7539e-05
1.7439e-05
1.73448e-05
1.72561e-05
0.000218642
0.000219638
0.000220383
0.000220865
0.000221068
0.000220971
0.00022055
0.000219786
0.000218685
0.000217327
0.000215775
0.000214054
0.000212179
0.000210163
0.000208021
0.000205764
0.000203407
0.000200961
0.000198439
0.000195853
0.000193216
0.00019054
0.000187836
0.000185116
0.000182391
0.000179672
0.00017697
0.000174295
0.000171656
0.000169063
0.000166524
0.000164047
0.000161639
0.000159306
0.000157053
0.000154885
0.000152806
0.000150818
0.000148922
0.00014712
0.000145412
0.000143797
0.000142274
0.00014084
0.000139494
0.000138231
0.00013705
0.000135946
0.000134916
0.00040499
0.000406861
0.000408272
0.000409211
0.000409666
0.000409632
0.000409102
0.00040808
0.000406586
0.000404669
0.000402377
0.000399745
0.000396799
0.000393566
0.000390066
0.000386325
0.000382364
0.000378206
0.000373874
0.000369391
0.000364779
0.000360061
0.000355259
0.000350396
0.000345493
0.000340572
0.000335653
0.000330757
0.000325904
0.000321112
0.000316398
0.00031178
0.000307272
0.000302887
0.000298638
0.000294536
0.000290587
0.000286801
0.00028318
0.00027973
0.000276452
0.000273345
0.00027041
0.000267642
0.00026504
0.000262597
0.000260309
0.000258169
0.000256171
0.000539381
0.000542011
0.000544079
0.000545571
0.000546482
0.000546807
0.00054655
0.000545719
0.000544328
0.000542417
0.000540023
0.000537178
0.000533911
0.000530249
0.000526221
0.000521854
0.000517175
0.000512212
0.000506993
0.000501547
0.000495902
0.000490087
0.000484131
0.000478061
0.000471907
0.000465697
0.000459459
0.000453219
0.000447004
0.00044084
0.000434752
0.000428761
0.00042289
0.000417158
0.000411583
0.00040618
0.000400964
0.000395945
0.000391131
0.000386531
0.000382147
0.000377983
0.000374039
0.000370313
0.000366801
0.000363499
0.000360402
0.000357501
0.000354789
0.00063313
0.000636538
0.000639347
0.000641541
0.000643109
0.000644047
0.000644356
0.000644032
0.000643097
0.000641583
0.000639518
0.000636931
0.000633848
0.000630298
0.000626309
0.000621909
0.000617126
0.000611992
0.000606536
0.00060079
0.000594784
0.00058855
0.00058212
0.000575527
0.000568803
0.00056198
0.00055509
0.000548164
0.000541233
0.000534329
0.000527479
0.000520712
0.000514053
0.000507527
0.000501156
0.000494961
0.000488959
0.000483164
0.000477591
0.000472249
0.000467144
0.000462282
0.000457666
0.000453294
0.000449166
0.000445278
0.000441623
0.000438195
0.000434984
0.00069669
0.000700948
0.000704608
0.000707648
0.000710051
0.000711806
0.000712894
0.000713322
0.000713112
0.000712285
0.000710864
0.000708873
0.000706335
0.000703275
0.000699721
0.000695701
0.000691242
0.000686376
0.000681132
0.000675543
0.00066964
0.000663457
0.000657028
0.000650386
0.000643565
0.000636601
0.000629527
0.000622378
0.000615188
0.00060799
0.000600817
0.000593698
0.000586665
0.000579745
0.000572964
0.000566346
0.000559912
0.00055368
0.000547668
0.000541887
0.000536348
0.000531059
0.000526024
0.000521246
0.000516725
0.000512457
0.000508438
0.000504663
0.000501121
0.000737445
0.000742644
0.000747272
0.000751293
0.000754687
0.000757408
0.000759455
0.000760837
0.000761565
0.000761654
0.000761118
0.000759976
0.000758248
0.000755956
0.000753125
0.00074978
0.00074595
0.000741662
0.000736948
0.000731838
0.000726366
0.000720564
0.000714466
0.000708108
0.000701524
0.000694751
0.000687824
0.000680779
0.000673652
0.000666478
0.000659293
0.000652128
0.000645018
0.000637992
0.00063108
0.000624308
0.000617701
0.00061128
0.000605065
0.000599071
0.000593312
0.000587797
0.000582535
0.00057753
0.000572784
0.000568295
0.000564061
0.000560076
0.000556333
0.000552822
0.000760578
0.000766823
0.000772535
0.000777663
0.000782148
0.00078598
0.00078915
0.000791656
0.000793499
0.000794685
0.000795223
0.000795126
0.000794409
0.000793091
0.000791195
0.000788742
0.00078576
0.000782276
0.000778319
0.000773919
0.000769109
0.000763922
0.000758392
0.000752553
0.000746442
0.000740096
0.00073355
0.000726842
0.000720009
0.000713088
0.000706114
0.000699125
0.000692152
0.000685231
0.000678392
0.000671664
0.000665075
0.000658649
0.000652407
0.000646369
0.00064055
0.000634964
0.000629619
0.000624524
0.000619681
0.000615093
0.000610757
0.00060667
0.000602826
0.000599214
0.000769838
0.000777243
0.000784122
0.000790437
0.000796152
0.000801238
0.000805675
0.000809449
0.000812553
0.000814983
0.000816744
0.000817842
0.00081829
0.000818102
0.000817296
0.000815894
0.000813921
0.000811401
0.000808363
0.000804837
0.000800854
0.000796447
0.00079165
0.000786499
0.000781028
0.000775275
0.000769278
0.000763073
0.000756699
0.000750194
0.000743595
0.00073694
0.000730263
0.0007236
0.000716985
0.000710448
0.00070402
0.000697726
0.000691591
0.000685636
0.00067988
0.000674339
0.000669023
0.000663943
0.000659105
0.000654511
0.000650162
0.000646057
0.00064219
0.000638554
0.00063514
0.00076803
0.000776643
0.000784801
0.000792443
0.000799518
0.000805984
0.00081181
0.000816973
0.000821455
0.000825247
0.000828347
0.000830756
0.000832482
0.000833537
0.000833935
0.000833697
0.000832844
0.000831402
0.000829396
0.000826857
0.000823815
0.000820303
0.000816354
0.000812004
0.00080729
0.000802247
0.000796914
0.00079133
0.000785532
0.00077956
0.000773452
0.000767246
0.000760979
0.000754688
0.000748408
0.000742171
0.00073601
0.000729952
0.000724024
0.00071825
0.000712651
0.000707244
0.000702044
0.000697061
0.000692305
0.00068778
0.00068349
0.000679432
0.000675605
0.000672002
0.000668615
0.000757326
0.000767287
0.000776849
0.000785935
0.000794481
0.000802434
0.00080975
0.000816396
0.000822349
0.000827591
0.000832114
0.000835916
0.000839
0.000841374
0.000843052
0.000844052
0.000844393
0.0008441
0.0008432
0.00084172
0.000839691
0.000837147
0.000834121
0.000830648
0.000826765
0.00082251
0.00081792
0.000813035
0.000807893
0.000802534
0.000796998
0.000791323
0.000785548
0.00077971
0.000773845
0.000767988
0.000762172
0.000756428
0.000750784
0.000745265
0.000739894
0.000734691
0.000729673
0.000724852
0.00072024
0.000715843
0.000711665
0.000707708
0.00070397
0.000700446
0.000697129
0.000739695
0.000751118
0.000762189
0.000772815
0.000782919
0.000792437
0.000801315
0.000809512
0.000816995
0.000823743
0.000829741
0.000834983
0.000839469
0.000843205
0.000846203
0.000848479
0.000850053
0.000850947
0.000851188
0.000850805
0.000849829
0.000848292
0.000846228
0.000843674
0.000840667
0.000837243
0.000833443
0.000829306
0.00082487
0.000820177
0.000815265
0.000810176
0.000804948
0.000799619
0.000794227
0.000788808
0.000783395
0.000778022
0.000772717
0.000767508
0.000762421
0.000757475
0.00075269
0.000748081
0.00074366
0.000739437
0.000735416
0.000731602
0.000727993
0.000724586
0.000721374
0.000716931
0.000729902
0.000742554
0.000754783
0.000766499
0.000777625
0.000788101
0.000797876
0.000806912
0.000815182
0.000822668
0.000829359
0.000835255
0.000840359
0.000844681
0.000848237
0.000851046
0.000853131
0.000854519
0.000855239
0.000855322
0.000854801
0.000853712
0.00085209
0.000849974
0.000847401
0.000844412
0.000841045
0.000837342
0.000833342
0.000829087
0.000824616
0.000819969
0.000815186
0.000810305
0.000805362
0.000800392
0.00079543
0.000790506
0.000785648
0.000780884
0.000776236
0.000771723
0.000767365
0.000763173
0.000759159
0.000755331
0.000751692
0.000748245
0.000744985
0.000741906
0.000690773
0.000705334
0.000719597
0.000733443
0.000746773
0.000759503
0.000771561
0.000782894
0.000793457
0.00080322
0.000812161
0.000820268
0.000827539
0.000833975
0.000839588
0.000844391
0.000848404
0.000851652
0.00085416
0.000855958
0.000857079
0.000857557
0.000857427
0.000856727
0.000855494
0.000853768
0.000851588
0.000848995
0.00084603
0.000842733
0.000839145
0.000835308
0.000831261
0.000827043
0.000822695
0.000818252
0.000813751
0.000809227
0.000804712
0.000800234
0.000795822
0.000791501
0.000787291
0.000783211
0.000779277
0.0007755
0.000771891
0.000768455
0.000765193
0.000762106
0.00075919
0.000756435
0.000662979
0.00067911
0.000694946
0.00071036
0.000725243
0.000739504
0.000753068
0.000765875
0.000777881
0.00078905
0.000799362
0.000808801
0.000817365
0.000825056
0.000831883
0.000837862
0.000843014
0.000847361
0.000850932
0.000853756
0.000855868
0.000857301
0.000858092
0.000858279
0.000857901
0.000856997
0.000855607
0.000853772
0.000851534
0.000848932
0.000846009
0.000842805
0.000839361
0.000835716
0.00083191
0.000827979
0.000823962
0.000819892
0.000815802
0.000811724
0.000807684
0.00080371
0.000799823
0.000796044
0.000792388
0.000788871
0.000785501
0.000782287
0.000779232
0.000776337
0.000773597
0.000771008
0.000634854
0.000652472
0.000669782
0.000686648
0.00070296
0.000718621
0.000733557
0.000747706
0.000761021
0.000773469
0.000785026
0.000795679
0.000805425
0.000814265
0.000822211
0.000829277
0.000835484
0.000840856
0.000845421
0.000849211
0.000852259
0.000854599
0.00085627
0.000857309
0.000857755
0.000857648
0.000857029
0.000855937
0.000854415
0.000852503
0.000850243
0.000847674
0.000844838
0.000841773
0.00083852
0.000835116
0.000831596
0.000827998
0.000824353
0.000820693
0.000817047
0.000813441
0.000809899
0.000806442
0.000803087
0.000799849
0.00079674
0.000793768
0.000790938
0.000788252
0.000785707
0.000783295
0.000608892
0.00062779
0.000646343
0.00066442
0.000681908
0.000698716
0.00071477
0.00073001
0.000744392
0.000757884
0.000770463
0.000782118
0.000792844
0.000802645
0.000811532
0.00081952
0.000826629
0.000832884
0.000838313
0.000842947
0.00084682
0.000849966
0.000852424
0.00085423
0.000855424
0.000856046
0.000856136
0.000855733
0.000854879
0.000853615
0.00085198
0.000850015
0.00084776
0.000845255
0.000842537
0.000839645
0.000836614
0.00083348
0.000830276
0.000827033
0.000823781
0.000820547
0.000817354
0.000814224
0.000811176
0.000808226
0.000805385
0.000802665
0.000800069
0.000797602
0.00079526
0.000793034
0.000588455
0.00060822
0.000627599
0.000646464
0.000664713
0.00068226
0.000699036
0.000714987
0.000730072
0.000744261
0.000757534
0.000769879
0.000781293
0.00079178
0.00080135
0.000810018
0.000817803
0.000824729
0.000830824
0.000836118
0.000840644
0.000844437
0.000847532
0.000849967
0.000851781
0.000853012
0.000853699
0.000853883
0.000853603
0.000852899
0.00085181
0.000850376
0.000848636
0.000846629
0.000844392
0.000841963
0.000839376
0.000836668
0.00083387
0.000831014
0.000828129
0.000825243
0.000822379
0.00081956
0.000816804
0.000814129
0.000811548
0.00080907
0.000806703
0.00080445
0.00080231
0.000800277
0.000798335
0.00057371
0.000593913
0.000613688
0.000632922
0.000651522
0.000669413
0.000686534
0.000702837
0.000718284
0.000732848
0.00074651
0.000759261
0.000771097
0.00078202
0.000792039
0.000801167
0.000809424
0.000816832
0.000823415
0.000829204
0.000834229
0.000838524
0.000842122
0.000845062
0.000847378
0.00084911
0.000850295
0.000850972
0.000851179
0.000850955
0.000850339
0.000849368
0.00084808
0.000846514
0.000844705
0.000842691
0.000840505
0.000838183
0.000835756
0.000833255
0.000830709
0.000828145
0.000825588
0.00082306
0.00082058
0.000818164
0.000815828
0.000813582
0.000811433
0.000809385
0.000807439
0.000805591
0.000803834
0.00080216
0.000564211
0.000584449
0.000604226
0.000623449
0.000642036
0.000659925
0.000677062
0.000693404
0.000708919
0.000723582
0.000737375
0.000750288
0.000762316
0.000773461
0.000783729
0.000793132
0.000801686
0.000809411
0.00081633
0.000822471
0.000827861
0.000832533
0.000836519
0.000839854
0.000842572
0.000844711
0.000846305
0.000847392
0.00084801
0.000848195
0.000847984
0.000847414
0.000846522
0.000845343
0.000843914
0.00084227
0.000840445
0.000838471
0.00083638
0.000834203
0.000831968
0.000829701
0.000827428
0.00082517
0.000822946
0.000820775
0.000818669
0.00081664
0.000814697
0.000812844
0.000811082
0.000809408
0.000807816
0.000806299
0.000559162
0.000579091
0.000598544
0.000617443
0.000635722
0.000653329
0.000670217
0.00068635
0.000701698
0.000716238
0.000729953
0.000742832
0.000754868
0.000766061
0.000776415
0.000785939
0.000794646
0.000802553
0.000809682
0.000816055
0.0008217
0.000826644
0.000830919
0.000834557
0.00083759
0.000840053
0.000841981
0.000843407
0.000844368
0.000844899
0.000845035
0.000844811
0.000844263
0.000843426
0.000842332
0.000841018
0.000839514
0.000837854
0.000836067
0.000834185
0.000832234
0.00083024
0.000828228
0.000826219
0.000824234
0.000822288
0.000820397
0.000818572
0.000816822
0.000815152
0.000813563
0.000812052
0.000810612
0.000809236
0.000557636
0.000576992
0.000595872
0.000614213
0.000631965
0.000649082
0.000665526
0.000681265
0.000696271
0.000710522
0.000724001
0.000736696
0.000748598
0.000759705
0.000770017
0.000779542
0.000788288
0.00079627
0.000803506
0.000810015
0.000815823
0.000820954
0.000825436
0.0008293
0.000832576
0.000835295
0.000837491
0.000839195
0.000840442
0.000841264
0.000841696
0.000841771
0.000841522
0.000840983
0.000840186
0.000839163
0.000837948
0.000836569
0.000835058
0.000833442
0.000831749
0.000830005
0.000828233
0.000826454
0.000824688
0.000822953
0.000821261
0.000819626
0.000818056
0.000816556
0.000815127
0.000813768
0.00081247
0.000811222
0.000558726
0.000577326
0.000595464
0.000613093
0.000630169
0.000646658
0.000662525
0.000677743
0.000692285
0.000706131
0.000719262
0.000731665
0.00074333
0.000754252
0.000764428
0.000773861
0.00078256
0.000790533
0.000797795
0.000804365
0.000810262
0.00081551
0.000820134
0.000824161
0.000827619
0.000830537
0.000832946
0.000834877
0.00083636
0.000837428
0.000838111
0.000838442
0.000838453
0.000838175
0.000837639
0.000836876
0.000835917
0.000834792
0.000833528
0.000832155
0.000830697
0.00082918
0.000827628
0.00082606
0.000824497
0.000822955
0.000821448
0.000819988
0.000818585
0.000817243
0.000815965
0.000814746
0.000813577
0.000812448
0.00056164
0.000579376
0.000596674
0.000613497
0.000629812
0.00064559
0.000660801
0.00067542
0.000689423
0.000702788
0.000715498
0.000727537
0.000738894
0.00074956
0.000759531
0.000768807
0.000777392
0.000785293
0.000792522
0.000799092
0.000805022
0.000810332
0.000815044
0.000819182
0.000822773
0.000825843
0.00082842
0.000830534
0.000832212
0.000833485
0.000834382
0.000834933
0.000835169
0.000835119
0.000834813
0.000834281
0.000833551
0.000832653
0.000831613
0.000830458
0.000829214
0.000827905
0.000826553
0.000825179
0.000823802
0.000822438
0.000821101
0.000819804
0.000818555
0.00081736
0.00081622
0.000815131
0.000814083
0.000813061
0.000565739
0.00058256
0.000598973
0.00061495
0.000630466
0.000645494
0.000660011
0.000673991
0.000687413
0.000700256
0.0007125
0.00072413
0.000735133
0.000745497
0.000755217
0.000764289
0.000772714
0.000780497
0.000787646
0.000794172
0.000800091
0.000805419
0.000810177
0.000814386
0.000818069
0.000821252
0.00082396
0.000826219
0.000828057
0.000829501
0.000830579
0.00083132
0.000831751
0.000831901
0.000831797
0.000831469
0.000830944
0.000830249
0.00082941
0.000828453
0.000827403
0.000826283
0.000825114
0.000823918
0.000822711
0.000821511
0.000820332
0.000819184
0.000818078
0.000817018
0.000816005
0.000815036
0.000814099
0.000813178
0.000570532
0.000586431
0.000601956
0.000617085
0.000631796
0.000646068
0.000659881
0.00067321
0.000686036
0.000698337
0.000710095
0.000721293
0.000731915
0.00074195
0.000751389
0.000760225
0.000768459
0.000776091
0.000783126
0.000789575
0.000795448
0.000800762
0.000805532
0.000809778
0.000813522
0.000816786
0.000819593
0.000821968
0.000823936
0.000825522
0.000826753
0.000827656
0.000828255
0.00082858
0.000828655
0.000828508
0.000828165
0.000827653
0.000826995
0.000826217
0.000825343
0.000824395
0.000823394
0.000822359
0.000821309
0.00082026
0.000819224
0.000818214
0.000817238
0.000816303
0.000815408
0.000814549
0.000813715
0.000812888
0.000575665
0.000590666
0.000605325
0.000619625
0.00063355
0.000647082
0.0006602
0.000672886
0.000685118
0.000696877
0.000708144
0.0007189
0.00072913
0.00073882
0.00074796
0.000756543
0.000764563
0.000772021
0.00077892
0.000785267
0.00079107
0.000796342
0.000801099
0.000805357
0.000809135
0.000812454
0.000815334
0.000817799
0.000819872
0.000821576
0.000822936
0.000823977
0.000824723
0.000825199
0.000825432
0.000825446
0.000825266
0.000824916
0.000824422
0.000823806
0.000823091
0.0008223
0.000821451
0.000820565
0.000819658
0.000818746
0.000817842
0.000816958
0.000816103
0.000815281
0.000814494
0.000813737
0.000812997
0.000812259
0.000581001
0.000595129
0.000608944
0.000622436
0.000635591
0.000648393
0.000660825
0.000672869
0.000684507
0.000695718
0.000706483
0.000716786
0.000726609
0.000735937
0.000744759
0.000753065
0.00076085
0.000768112
0.00077485
0.000781069
0.000786778
0.000791985
0.000796704
0.000800949
0.000804738
0.000808089
0.000811021
0.000813554
0.000815711
0.000817513
0.000818983
0.000820144
0.00082102
0.000821633
0.000822008
0.000822168
0.000822138
0.00082194
0.000821598
0.000821134
0.000820569
0.000819925
0.000819221
0.000818475
0.000817704
0.000816924
0.000816146
0.000815383
0.000814642
0.00081393
0.000813246
0.000812587
0.00081194
0.000811288
0.000586689
0.00059993
0.000612888
0.000625555
0.000637922
0.000649974
0.000661699
0.000673078
0.000684094
0.00069473
0.000704967
0.000714786
0.000724171
0.000733106
0.000741579
0.000749579
0.000757099
0.000764134
0.000770683
0.000776748
0.000782336
0.000787453
0.000792111
0.000796322
0.000800101
0.000803464
0.000806429
0.000809015
0.000811241
0.000813127
0.000814695
0.000815966
0.00081696
0.000817701
0.000818211
0.000818511
0.000818624
0.000818573
0.000818378
0.000818061
0.000817643
0.000817144
0.000816582
0.000815974
0.000815338
0.000814686
0.000814033
0.000813389
0.000812761
0.000812156
0.000811574
0.00081101
0.000810455
0.00080989
0.000592852
0.000605163
0.000617223
0.000629025
0.000640564
0.000651828
0.000662804
0.00067348
0.000683837
0.00069386
0.000703529
0.000712828
0.00072174
0.000730248
0.000738339
0.000746001
0.000753225
0.000760005
0.000766338
0.000772225
0.000777668
0.000782674
0.000787251
0.00079141
0.000795163
0.000798524
0.000801509
0.000804136
0.00080642
0.000808382
0.000810039
0.000811411
0.000812519
0.000813382
0.000814021
0.000814457
0.000814711
0.000814802
0.000814752
0.000814581
0.000814307
0.00081395
0.000813528
0.000813057
0.000812552
0.000812028
0.000811497
0.000810969
0.000810452
0.000809951
0.000809468
0.000808998
0.000808531
0.000808052
0.000599422
0.000610765
0.000621888
0.000632789
0.000643463
0.000653902
0.000664095
0.00067403
0.000683691
0.000693064
0.000702131
0.000710874
0.000719277
0.000727323
0.000734999
0.00074229
0.000749188
0.000755684
0.000761774
0.000767456
0.000772732
0.000777604
0.00078208
0.000786168
0.000789878
0.000793222
0.000796215
0.000798869
0.000801202
0.000803229
0.000804967
0.000806434
0.000807649
0.000808629
0.000809393
0.000809961
0.000810351
0.000810582
0.000810675
0.000810646
0.000810515
0.000810299
0.000810015
0.000809678
0.000809304
0.000808906
0.000808494
0.00080808
0.000807672
0.000807273
0.000806886
0.000806508
0.000806127
0.00080573
0.000606309
0.000616651
0.000626806
0.000636774
0.000646552
0.000656133
0.00066551
0.00067467
0.000683602
0.00069229
0.000700718
0.000708871
0.000716731
0.000724282
0.000731508
0.000738398
0.000744938
0.000751121
0.00075694
0.000762392
0.000767475
0.000772191
0.000776545
0.000780543
0.000784194
0.000787506
0.000790491
0.000793162
0.000795531
0.000797614
0.000799426
0.000800981
0.000802296
0.000803387
0.000804272
0.000804968
0.000805492
0.000805861
0.000806093
0.000806205
0.000806215
0.000806138
0.00080599
0.000805787
0.000805542
0.000805267
0.000804974
0.000804672
0.00080437
0.000804071
0.000803778
0.000803487
0.00080319
0.000802874
0.000613406
0.000622721
0.000631883
0.000640891
0.000649745
0.000658441
0.000666971
0.000675328
0.000683498
0.00069147
0.000699228
0.000706757
0.000714041
0.000721063
0.000727809
0.000734265
0.000740418
0.000746258
0.000751778
0.000756972
0.000761838
0.000766376
0.000770587
0.000774476
0.000778049
0.000781313
0.000784277
0.000786951
0.000789347
0.000791477
0.000793353
0.000794989
0.000796399
0.000797597
0.000798598
0.000799418
0.000800072
0.000800576
0.000800946
0.000801197
0.000801346
0.000801407
0.000801394
0.000801322
0.000801204
0.000801052
0.000800875
0.000800684
0.000800485
0.000800284
0.000800082
0.000799877
0.000799661
0.000799423
0.000620583
0.000628853
0.000637001
0.000645031
0.00065294
0.000660727
0.000668387
0.000675913
0.000683296
0.000690523
0.000697581
0.000704456
0.000711133
0.000717596
0.00072383
0.000729821
0.000735556
0.000741025
0.000746218
0.000751129
0.000755753
0.000760089
0.000764136
0.000767897
0.000771374
0.000774574
0.000777503
0.000780169
0.00078258
0.000784747
0.00078668
0.000788389
0.000789887
0.000791187
0.0007923
0.000793241
0.000794022
0.000794659
0.000795164
0.000795553
0.000795838
0.000796035
0.000796156
0.000796215
0.000796222
0.00079619
0.000796128
0.000796045
0.000795948
0.000795842
0.000795728
0.000795606
0.000795467
0.000795303
0.000627688
0.000634902
0.000642026
0.000649062
0.000656011
0.000662873
0.000669644
0.000676319
0.000682891
0.000689348
0.000695681
0.000701875
0.000707917
0.000713791
0.000719484
0.000724982
0.000730271
0.00073534
0.00074018
0.000744782
0.00074914
0.000753252
0.000757113
0.000760726
0.000764091
0.000767211
0.00077009
0.000772735
0.00077515
0.000777344
0.000779325
0.000781101
0.000782682
0.000784078
0.000785299
0.000786356
0.000787262
0.000788029
0.000788667
0.000789191
0.000789612
0.000789943
0.000790196
0.000790382
0.000790513
0.000790599
0.00079065
0.000790673
0.000790675
0.000790661
0.000790633
0.000790589
0.000790524
0.00079043
0.000634545
0.000640701
0.000646796
0.000652832
0.000658812
0.000664738
0.000670606
0.000676415
0.000682158
0.000687826
0.000693412
0.000698902
0.000704284
0.000709545
0.000714671
0.000719648
0.000724465
0.000729108
0.000733569
0.000737837
0.000741906
0.00074577
0.000749427
0.000752872
0.000756107
0.000759131
0.000761947
0.000764558
0.000766967
0.000769179
0.000771199
0.000773034
0.000774692
0.000776178
0.000777502
0.000778673
0.0007797
0.000780593
0.000781362
0.000782019
0.000782573
0.000783036
0.000783418
0.000783731
0.000783983
0.000784185
0.000784345
0.000784471
0.000784569
0.000784643
0.000784697
0.000784728
0.000784732
0.000784703
0.000640952
0.000646055
0.000651123
0.00065616
0.00066117
0.000666154
0.000671114
0.000676046
0.000680948
0.000685813
0.000690634
0.000695402
0.000700104
0.000704729
0.000709265
0.0007137
0.00071802
0.000722214
0.000726272
0.000730183
0.000733941
0.000737538
0.000740968
0.000744229
0.000747316
0.00075023
0.000752969
0.000755533
0.000757924
0.000760144
0.000762196
0.000764083
0.000765811
0.000767383
0.000768805
0.000770085
0.000771229
0.000772245
0.000773142
0.000773928
0.000774612
0.000775204
0.000775713
0.000776149
0.000776519
0.000776834
0.0007771
0.000777325
0.000777514
0.000777673
0.000777803
0.000777904
0.000777973
0.000778003
0.000646676
0.00065074
0.000654793
0.000658838
0.000662882
0.000666928
0.000670977
0.00067503
0.000679085
0.000683139
0.000687184
0.000691215
0.000695222
0.000699194
0.000703122
0.000706993
0.000710796
0.00071452
0.000718155
0.000721689
0.000725115
0.000728425
0.000731612
0.00073467
0.000737595
0.000740383
0.000743031
0.000745537
0.0007479
0.000750119
0.000752194
0.000754126
0.000755916
0.000757568
0.000759083
0.000760467
0.000761724
0.00076286
0.00076388
0.000764792
0.000765602
0.000766319
0.000766951
0.000767505
0.00076799
0.000768412
0.000768779
0.000769098
0.000769374
0.000769612
0.000769813
0.000769978
0.000770104
0.000770186
0.000651213
0.000654314
0.000657422
0.000660543
0.000663683
0.000666848
0.000670039
0.000673261
0.000676512
0.000679791
0.000683094
0.000686417
0.000689752
0.000693092
0.000696426
0.000699746
0.00070304
0.000706298
0.000709511
0.000712667
0.000715759
0.000718778
0.000721714
0.000724563
0.000727317
0.00072997
0.000732517
0.000734955
0.000737278
0.000739484
0.000741571
0.000743535
0.000745377
0.000747095
0.000748692
0.000750167
0.000751524
0.000752765
0.000753895
0.00075492
0.000755843
0.000756672
0.000757413
0.000758072
0.000758657
0.000759174
0.000759629
0.000760028
0.000760377
0.00076068
0.000760938
0.000761154
0.000761323
0.000761444
0.000654635
0.000656815
0.000659018
0.000661251
0.00066352
0.000665833
0.000668195
0.000670608
0.000673075
0.000675597
0.000678172
0.000680798
0.000683469
0.00068618
0.000688923
0.00069169
0.000694472
0.000697259
0.000700043
0.000702814
0.000705562
0.000708278
0.000710954
0.000713581
0.000716152
0.000718658
0.000721093
0.00072345
0.000725722
0.000727904
0.00072999
0.000731975
0.000733857
0.000735632
0.000737298
0.000738853
0.000740299
0.000741636
0.000742866
0.000743991
0.000745017
0.000745947
0.000746785
0.000747539
0.000748213
0.000748813
0.000749344
0.000749813
0.000750223
0.000750579
0.000750883
0.000751137
0.000751338
0.000751485
0.00065685
0.000658052
0.000659292
0.000660578
0.00066192
0.000663324
0.000664796
0.000666343
0.00066797
0.000669677
0.000671468
0.000673341
0.000675293
0.000677322
0.000679422
0.000681587
0.00068381
0.000686083
0.000688396
0.000690742
0.000693111
0.000695494
0.00069788
0.000700262
0.000702629
0.000704971
0.000707279
0.000709544
0.000711757
0.000713909
0.000715992
0.000717998
0.000719921
0.000721754
0.000723492
0.000725133
0.000726672
0.00072811
0.000729444
0.000730676
0.000731809
0.000732844
0.000733785
0.000734636
0.000735401
0.000736086
0.000736696
0.000737234
0.000737705
0.000738113
0.000738461
0.000738751
0.000738981
0.00073915
0.000656822
0.000656954
0.00065713
0.00065736
0.000657653
0.000658017
0.000658463
0.000658998
0.000659629
0.000660364
0.000661208
0.000662163
0.000663233
0.000664417
0.000665715
0.000667124
0.000668641
0.000670259
0.000671974
0.000673777
0.000675661
0.000677616
0.000679634
0.000681704
0.000683815
0.000685956
0.000688117
0.000690284
0.000692446
0.000694591
0.000696707
0.000698782
0.000700806
0.000702769
0.000704661
0.000706474
0.000708201
0.000709838
0.000711378
0.00071282
0.000714162
0.000715404
0.000716547
0.000717592
0.000718541
0.000719399
0.000720169
0.000720855
0.000721461
0.000721991
0.000722449
0.000722836
0.000723157
0.00072341
0.000723596
0.000654463
0.000653538
0.00065267
0.000651869
0.000651146
0.000650511
0.000649974
0.000649545
0.000649235
0.000649051
0.000649002
0.000649092
0.000649329
0.000649715
0.000650251
0.000650939
0.000651777
0.000652762
0.00065389
0.000655156
0.000656553
0.000658072
0.000659704
0.000661439
0.000663264
0.000665168
0.000667135
0.000669153
0.000671205
0.000673278
0.000675355
0.000677422
0.000679464
0.000681468
0.000683421
0.00068531
0.000687127
0.000688862
0.000690509
0.00069206
0.000693514
0.000694867
0.000696117
0.000697266
0.000698315
0.000699264
0.000700118
0.000700879
0.000701551
0.000702137
0.00070264
0.000703064
0.000703412
0.000703683
0.00070388
0.000646471
0.000644511
0.000642621
0.000640809
0.000639088
0.000637469
0.000635964
0.000634584
0.000633342
0.000632248
0.000631312
0.000630544
0.000629951
0.000629539
0.000629314
0.00062928
0.000629437
0.000629787
0.000630326
0.000631052
0.000631959
0.000633039
0.000634284
0.000635682
0.000637221
0.000638886
0.000640662
0.000642531
0.000644476
0.000646479
0.00064852
0.000650582
0.000652645
0.000654692
0.000656707
0.000658676
0.000660583
0.000662418
0.000664171
0.000665832
0.000667397
0.000668859
0.000670217
0.000671469
0.000672615
0.000673654
0.00067459
0.000675425
0.000676162
0.000676803
0.000677352
0.000677813
0.000678187
0.000678477
0.000678685
0.000629452
0.000626539
0.000623703
0.000620955
0.000618308
0.000615774
0.000613367
0.0006111
0.000608986
0.000607039
0.00060527
0.000603692
0.000602316
0.000601151
0.000600205
0.000599485
0.000598997
0.000598741
0.00059872
0.000598932
0.000599372
0.000600035
0.000600911
0.000601989
0.000603256
0.000604696
0.00060629
0.000608019
0.000609863
0.0006118
0.000613807
0.000615863
0.000617945
0.000620032
0.000622105
0.000624145
0.000626135
0.00062806
0.000629908
0.000631668
0.000633332
0.000634894
0.000636347
0.000637691
0.000638923
0.000640044
0.000641054
0.000641956
0.000642751
0.000643443
0.000644035
0.000644531
0.000644932
0.000645242
0.000645463
0.000597824
0.000594132
0.000590521
0.000587004
0.000583594
0.000580304
0.000577148
0.000574142
0.0005713
0.000568637
0.000566169
0.000563909
0.00056187
0.000560067
0.000558509
0.000557206
0.000556167
0.000555396
0.000554896
0.000554668
0.00055471
0.000555015
0.000555575
0.000556379
0.000557411
0.000558655
0.000560091
0.000561696
0.000563447
0.00056532
0.000567289
0.000569329
0.000571413
0.00057352
0.000575625
0.000577707
0.000579748
0.00058173
0.000583639
0.000585463
0.000587191
0.000588817
0.000590334
0.000591738
0.000593029
0.000594205
0.000595267
0.000596216
0.000597055
0.000597786
0.000598413
0.000598939
0.000599367
0.0005997
0.000599941
0.000550484
0.000546382
0.000542361
0.000538434
0.000534615
0.000530918
0.000527358
0.000523951
0.000520714
0.000517662
0.000514813
0.000512182
0.000509787
0.00050764
0.000505757
0.000504149
0.000502825
0.000501794
0.00050106
0.000500624
0.000500484
0.000500636
0.000501069
0.000501772
0.000502728
0.000503918
0.000505321
0.000506911
0.000508663
0.000510549
0.000512541
0.000514612
0.000516734
0.000518882
0.00052103
0.000523156
0.000525241
0.000527266
0.000529217