/*--------------------------------*- C++ -*----------------------------------*\
  =========                 |
  \\      /  F ield         | OpenFOAM: The Open Source CFD Toolbox
   \\    /   O peration     | Website:  https://openfoam.org
    \\  /    A nd           | Version:  6
     \\/     M anipulation  |
\*---------------------------------------------------------------------------*/
FoamFile
{
    version     2.0;
    format      ascii;
    class       volScalarField;
    location    "0.07";
    object      p;
}
// * * * * * * * * * * * * * * * * * * * * * * * * * * * * * * * * * * * * * //

dimensions      [0 2 -2 0 0 0 0];

internalField   nonuniform List<scalar> 
3032
(
0.0816035
0.0921395
0.102392
0.112309
0.121843
0.130956
0.13962
0.147823
0.155575
0.162852
0.169618
0.175862
0.181584
0.186791
0.191494
0.195708
0.199451
0.202745
0.205611
0.208075
0.210162
0.211897
0.213306
0.214417
0.215255
0.215845
0.216212
0.216379
0.21637
0.216204
0.215904
0.215486
0.214968
0.214367
0.213696
0.212968
0.212196
0.211391
0.21056
0.209713
0.208857
0.207997
0.20714
0.20629
0.20545
0.204624
0.203814
0.203023
0.202253
0.0719272
0.0824066
0.0926579
0.102629
0.112274
0.121552
0.130422
0.138838
0.14675
0.15415
0.161058
0.16747
0.173386
0.178812
0.183755
0.188228
0.192246
0.195827
0.19899
0.201757
0.204151
0.206195
0.207912
0.209328
0.210466
0.21135
0.212004
0.212449
0.212708
0.2128
0.212745
0.212562
0.212267
0.211876
0.211403
0.210862
0.210264
0.209621
0.208942
0.208236
0.20751
0.20677
0.206024
0.205276
0.20453
0.203789
0.203058
0.202339
0.201634
0.0611166
0.0714295
0.0815575
0.091449
0.101058
0.110342
0.119264
0.127786
0.135876
0.143517
0.150699
0.157411
0.163649
0.169414
0.174711
0.179549
0.183939
0.187898
0.191442
0.194591
0.197363
0.199782
0.201869
0.203646
0.205137
0.206363
0.207346
0.208109
0.208672
0.209054
0.209275
0.209354
0.209306
0.209147
0.208893
0.208556
0.208149
0.207683
0.207169
0.206616
0.206031
0.205422
0.204796
0.204158
0.203514
0.202867
0.202221
0.201579
0.200945
0.0529945
0.0632757
0.0733908
0.0832869
0.0929163
0.102237
0.111212
0.119811
0.128011
0.135786
0.143122
0.150005
0.156431
0.162399
0.167912
0.172977
0.177605
0.181809
0.185603
0.189006
0.192035
0.194711
0.197055
0.199086
0.200828
0.2023
0.203524
0.204521
0.20531
0.205911
0.206342
0.206621
0.206765
0.206789
0.206707
0.206533
0.20628
0.205959
0.20558
0.205153
0.204687
0.204188
0.203664
0.203121
0.202565
0.201998
0.201427
0.200855
0.200284
0.0465077
0.0568511
0.0670327
0.0769993
0.0867028
0.0961007
0.105157
0.113843
0.122134
0.130009
0.137451
0.144451
0.151003
0.157106
0.162763
0.16798
0.172767
0.177135
0.1811
0.184677
0.187885
0.19074
0.193264
0.195477
0.197398
0.199048
0.200447
0.201615
0.202571
0.203335
0.203924
0.204355
0.204644
0.204808
0.204859
0.204813
0.20468
0.204473
0.204203
0.203877
0.203506
0.203097
0.202658
0.202193
0.201709
0.201211
0.200703
0.200189
0.199673
0.0409014
0.0513666
0.0616636
0.0717391
0.0815455
0.0910415
0.100193
0.108972
0.117353
0.125319
0.132855
0.139951
0.146604
0.152813
0.15858
0.163912
0.168819
0.173312
0.177405
0.181114
0.184456
0.187448
0.19011
0.192461
0.19452
0.196308
0.197843
0.199146
0.200234
0.201126
0.20184
0.202392
0.202799
0.203076
0.203236
0.203293
0.20326
0.203147
0.202966
0.202726
0.202435
0.202102
0.201733
0.201336
0.200915
0.200476
0.200023
0.199561
0.199093
0.0359024
0.0465394
0.0569924
0.067208
0.0771408
0.086752
0.0960093
0.104885
0.113357
0.121408
0.129027
0.136206
0.142941
0.149234
0.155087
0.160509
0.165508
0.170097
0.174289
0.1781
0.181546
0.184645
0.187414
0.189874
0.192043
0.19394
0.195585
0.196995
0.198189
0.199186
0.200002
0.200654
0.201157
0.201527
0.201778
0.201922
0.201971
0.201939
0.201833
0.201666
0.201444
0.201176
0.20087
0.200531
0.200166
0.199779
0.199375
0.198959
0.198535
0.198105
0.0313671
0.0422158
0.0528561
0.063237
0.0733158
0.0830557
0.0924257
0.101401
0.109961
0.118092
0.125784
0.133033
0.139836
0.146195
0.152117
0.157608
0.162678
0.167341
0.17161
0.1755
0.179027
0.18221
0.185066
0.187613
0.18987
0.191855
0.193588
0.195087
0.196369
0.197452
0.198353
0.199088
0.199672
0.200121
0.200447
0.200665
0.200786
0.200821
0.200782
0.200677
0.200515
0.200305
0.200053
0.199766
0.19945
0.19911
0.198751
0.198376
0.197991
0.197599
0.0272377
0.0383258
0.0491756
0.0597391
0.069975
0.0798486
0.0893319
0.0984028
0.107045
0.115247
0.123003
0.130308
0.137165
0.143577
0.14955
0.155093
0.160218
0.164938
0.169265
0.173217
0.176809
0.180058
0.182983
0.1856
0.187929
0.189988
0.191794
0.193366
0.194722
0.195877
0.19685
0.197655
0.198309
0.198825
0.199217
0.199498
0.199681
0.199776
0.199794
0.199744
0.199635
0.199476
0.199272
0.199032
0.19876
0.198463
0.198144
0.197808
0.197459
0.197101
0.196736
0.0235261
0.0348707
0.0459416
0.0566921
0.067084
0.0770865
0.0866752
0.0958322
0.104545
0.112805
0.120609
0.127957
0.134852
0.1413
0.147309
0.15289
0.158054
0.162815
0.167187
0.171185
0.174827
0.178129
0.181109
0.183784
0.186172
0.188291
0.190159
0.191793
0.19321
0.194428
0.195462
0.196328
0.197041
0.197616
0.198065
0.198402
0.198639
0.198786
0.198855
0.198854
0.198793
0.198679
0.19852
0.198322
0.19809
0.197831
0.19755
0.197249
0.196934
0.196608
0.196274
0.0202987
0.0319009
0.0431871
0.0541143
0.0646487
0.0747641
0.0844407
0.0936651
0.102429
0.110728
0.118562
0.125934
0.13285
0.139318
0.145347
0.150949
0.156137
0.160924
0.165327
0.169359
0.173038
0.176381
0.179404
0.182125
0.184561
0.186731
0.18865
0.190336
0.191807
0.193078
0.194165
0.195084
0.195849
0.196476
0.196976
0.197362
0.197647
0.197842
0.197956
0.197999
0.197981
0.197908
0.197789
0.19763
0.197435
0.197212
0.196965
0.196698
0.196414
0.196119
0.195814
0.0176515
0.0294924
0.0409708
0.0520489
0.0626983
0.0728984
0.0826349
0.0918993
0.100688
0.109001
0.116841
0.124216
0.131132
0.1376
0.143631
0.149237
0.154433
0.159233
0.163652
0.167706
0.171411
0.174783
0.177839
0.180596
0.183071
0.185282
0.187244
0.188975
0.190491
0.191808
0.192942
0.193907
0.194719
0.195391
0.195936
0.196367
0.196695
0.196932
0.197087
0.197171
0.197192
0.197157
0.197075
0.196951
0.196792
0.196602
0.196387
0.196151
0.195898
0.195631
0.195354
0.0156977
0.0277371
0.0393655
0.0505518
0.0612741
0.0715181
0.0812757
0.0905438
0.0993235
0.107619
0.115438
0.122788
0.12968
0.136127
0.14214
0.147733
0.152922
0.157719
0.162141
0.166204
0.169922
0.173313
0.176392
0.179176
0.181682
0.183926
0.185924
0.187692
0.189247
0.190604
0.191779
0.192785
0.193638
0.194351
0.194936
0.195407
0.195774
0.19605
0.196243
0.196364
0.196421
0.196422
0.196373
0.196283
0.196156
0.195998
0.195813
0.195607
0.195382
0.195143
0.194893
0.0145435
0.0267186
0.0384356
0.0496709
0.0604101
0.0706459
0.0803765
0.0896044
0.0983354
0.106578
0.114342
0.121639
0.128482
0.134884
0.140859
0.14642
0.151584
0.156364
0.160776
0.164834
0.168555
0.171955
0.175048
0.17785
0.180379
0.182648
0.184675
0.186475
0.188063
0.189455
0.190665
0.191708
0.192597
0.193346
0.193968
0.194475
0.194879
0.19519
0.195418
0.195573
0.195664
0.195697
0.195681
0.195622
0.195526
0.195398
0.195242
0.195064
0.194867
0.194655
0.19443
0.194197
0.0142414
0.0264693
0.0381969
0.0494093
0.0600998
0.0702682
0.0799187
0.0890589
0.0976991
0.105851
0.113528
0.120743
0.127511
0.133845
0.139762
0.145274
0.150397
0.155145
0.159534
0.163578
0.167291
0.17069
0.173788
0.176601
0.179145
0.181435
0.183485
0.18531
0.186927
0.188348
0.189589
0.190664
0.191587
0.192369
0.193025
0.193565
0.194002
0.194346
0.194607
0.194794
0.194916
0.194981
0.194995
0.194966
0.194899
0.194799
0.194672
0.194521
0.194351
0.194165
0.193965
0.193756
0.0149338
0.027108
0.0387479
0.0498476
0.0604084
0.0704366
0.0799421
0.0889373
0.0974358
0.105452
0.113002
0.120101
0.126762
0.133003
0.138837
0.144278
0.149342
0.154042
0.158393
0.162409
0.166103
0.169491
0.172585
0.175401
0.177953
0.180256
0.182323
0.184169
0.185809
0.187256
0.188525
0.189629
0.190581
0.191394
0.192081
0.192653
0.193121
0.193496
0.193788
0.194006
0.194159
0.194253
0.194298
0.194298
0.194259
0.194188
0.194089
0.193965
0.193821
0.193661
0.193487
0.193302
0.0167387
0.0287258
0.0401601
0.0510438
0.0613848
0.0711947
0.0804877
0.0892793
0.0975858
0.105424
0.112809
0.119758
0.126285
0.132406
0.138136
0.143487
0.148474
0.153111
0.15741
0.161385
0.165048
0.168414
0.171495
0.174304
0.176856
0.179164
0.181241
0.183101
0.184758
0.186226
0.187517
0.188645
0.189622
0.190462
0.191176
0.191775
0.192271
0.192675
0.192995
0.193241
0.193422
0.193544
0.193616
0.193644
0.193632
0.193588
0.193514
0.193417
0.193298
0.193163
0.193013
0.192851
0.0191493
0.0308604
0.0420174
0.0526281
0.0627043
0.0722608
0.0813141
0.0898813
0.0979796
0.105626
0.112837
0.119628
0.126014
0.13201
0.13763
0.142886
0.147791
0.152359
0.156601
0.16053
0.164157
0.167495
0.170556
0.173354
0.1759
0.178207
0.180288
0.182156
0.183825
0.185306
0.186614
0.187761
0.188758
0.189619
0.190356
0.190978
0.191498
0.191925
0.19227
0.19254
0.192745
0.192892
0.192988
0.19304
0.193052
0.193031
0.192981
0.192907
0.192811
0.192698
0.19257
0.19243
0.19228
0.0219025
0.0332819
0.0441195
0.0544261
0.0642149
0.0735021
0.0823048
0.0906405
0.0985262
0.105979
0.113014
0.119646
0.125891
0.131761
0.13727
0.14243
0.147252
0.151749
0.155932
0.159811
0.163399
0.166706
0.169745
0.172525
0.175061
0.177363
0.179443
0.181315
0.182991
0.184482
0.185802
0.186963
0.187977
0.188855
0.18961
0.190251
0.190791
0.191239
0.191604
0.191896
0.192122
0.19229
0.192407
0.19248
0.192514
0.192514
0.192485
0.192432
0.192357
0.192264
0.192155
0.192035
0.191904
0.191764
0.0247938
0.0358152
0.0463162
0.0563083
0.0658047
0.0748212
0.0833747
0.0914818
0.0991589
0.106422
0.113285
0.119764
0.125871
0.131619
0.13702
0.142085
0.146826
0.151252
0.155375
0.159205
0.162751
0.166026
0.169038
0.1718
0.174322
0.176616
0.178692
0.180564
0.182243
0.183741
0.185069
0.186241
0.187267
0.188159
0.188928
0.189586
0.190143
0.190608
0.190991
0.191301
0.191545
0.191732
0.191869
0.19196
0.192013
0.192032
0.192022
0.191988
0.191931
0.191856
0.191767
0.191664
0.19155
0.191428
0.0276847
0.0383432
0.048508
0.0581897
0.0674001
0.076154
0.0844671
0.092355
0.0998327
0.106915
0.113615
0.119947
0.125923
0.131554
0.136851
0.141826
0.146487
0.150845
0.154909
0.15869
0.162195
0.165436
0.168421
0.171162
0.173668
0.175951
0.178021
0.179891
0.18157
0.183071
0.184405
0.185584
0.18662
0.187523
0.188305
0.188976
0.189546
0.190026
0.190425
0.190751
0.191011
0.191215
0.191368
0.191476
0.191546
0.191583
0.19159
0.191572
0.191532
0.191474
0.191401
0.191315
0.191217
0.19111
0.0304894
0.0407942
0.0506344
0.0600185
0.0689563
0.0774612
0.0855472
0.0932284
0.100518
0.107431
0.113978
0.120172
0.126024
0.131545
0.136745
0.141633
0.146218
0.150511
0.154518
0.15825
0.161715
0.164921
0.167879
0.170598
0.173088
0.175358
0.17742
0.179284
0.180962
0.182464
0.183801
0.184986
0.186028
0.18694
0.187732
0.188414
0.188996
0.189489
0.189901
0.19024
0.190515
0.190733
0.190901
0.191025
0.19111
0.191162
0.191184
0.191182
0.191158
0.191115
0.191057
0.190985
0.190903
0.19081
0.0331596
0.0431284
0.0526618
0.0617659
0.0704482
0.0787201
0.0865942
0.0940829
0.101198
0.107953
0.114357
0.120422
0.126159
0.131577
0.136685
0.141491
0.146006
0.150235
0.154189
0.157874
0.161299
0.164472
0.167402
0.170099
0.172571
0.174828
0.17688
0.178737
0.180411
0.181912
0.183251
0.184439
0.185486
0.186405
0.187204
0.187895
0.188487
0.188991
0.189414
0.189765
0.190053
0.190284
0.190465
0.190603
0.190701
0.190767
0.190804
0.190815
0.190805
0.190777
0.190733
0.190675
0.190606
0.190527
0.0356716
0.0453265
0.0545743
0.0634183
0.0718634
0.0799195
0.0875974
0.0949079
0.101862
0.10847
0.114742
0.120688
0.126317
0.131639
0.136661
0.141392
0.145838
0.150009
0.15391
0.157551
0.160937
0.164078
0.166981
0.169655
0.172109
0.174351
0.176392
0.178242
0.179911
0.18141
0.182748
0.183938
0.184989
0.185912
0.186717
0.187415
0.188016
0.188528
0.188961
0.189323
0.189622
0.189865
0.190057
0.190207
0.190318
0.190396
0.190446
0.19047
0.190473
0.190458
0.190426
0.190381
0.190325
0.190258
0.0380177
0.0473826
0.0563671
0.0649712
0.0731979
0.0810552
0.0885524
0.0956987
0.102504
0.108976
0.115126
0.120962
0.126492
0.131724
0.136666
0.141326
0.145709
0.149824
0.153676
0.157274
0.160623
0.163733
0.166609
0.16926
0.171695
0.173923
0.175953
0.177794
0.179457
0.180952
0.182288
0.183478
0.184531
0.185457
0.186267
0.186971
0.187579
0.188099
0.18854
0.188911
0.189219
0.189472
0.189675
0.189836
0.189958
0.190048
0.190109
0.190145
0.19016
0.190156
0.190136
0.190103
0.190058
0.190004
0.0402021
0.0493009
0.0580439
0.066428
0.074454
0.0821287
0.0894598
0.096455
0.103123
0.109471
0.115508
0.121242
0.126679
0.131829
0.136696
0.141289
0.145613
0.149675
0.153481
0.157038
0.160352
0.16343
0.16628
0.16891
0.171326
0.173539
0.175556
0.177388
0.179044
0.180534
0.181868
0.183056
0.18411
0.185038
0.185851
0.18656
0.187173
0.187699
0.188147
0.188526
0.188843
0.189104
0.189317
0.189487
0.18962
0.18972
0.189791
0.189838
0.189864
0.189871
0.189862
0.18984
0.189806
0.189762
0.0422338
0.0510893
0.0596112
0.0677935
0.0756353
0.0831422
0.0903204
0.0971765
0.103718
0.109951
0.115884
0.121523
0.126875
0.131947
0.136745
0.141275
0.145543
0.149555
0.153317
0.156835
0.160115
0.163164
0.165989
0.168596
0.170995
0.173192
0.175197
0.177018
0.178666
0.18015
0.181481
0.182667
0.18372
0.184649
0.185465
0.186176
0.186794
0.187325
0.18778
0.188165
0.188489
0.188759
0.18898
0.189159
0.1893
0.18941
0.189491
0.189548
0.189583
0.1896
0.189602
0.18959
0.189566
0.189532
0.0441676
0.0527971
0.0611124
0.0691058
0.0767749
0.0841239
0.091158
0.0978826
0.104304
0.110428
0.116261
0.12181
0.12708
0.132078
0.136808
0.141278
0.145492
0.149455
0.153174
0.156654
0.1599
0.162919
0.165718
0.168303
0.170681
0.172862
0.174854
0.176664
0.178303
0.179781
0.181106
0.182289
0.18334
0.184269
0.185086
0.1858
0.18642
0.186956
0.187416
0.187807
0.188138
0.188414
0.188643
0.18883
0.18898
0.189099
0.189189
0.189255
0.1893
0.189327
0.189339
0.189336
0.189323
0.189299
0.0461102
0.0545165
0.0626269
0.0704327
0.07793
0.0851218
0.092012
0.0986052
0.104906
0.110921
0.116654
0.122111
0.127299
0.132221
0.136884
0.141292
0.14545
0.149364
0.153038
0.156478
0.159689
0.162677
0.165448
0.168009
0.170367
0.17253
0.174507
0.176305
0.177934
0.179403
0.180723
0.181902
0.18295
0.183878
0.184695
0.185411
0.186034
0.186574
0.187038
0.187435
0.187772
0.188056
0.188292
0.188487
0.188646
0.188774
0.188873
0.188949
0.189004
0.189041
0.189062
0.18907
0.189067
0.189053
0.0481169
0.0562944
0.0641943
0.0718072
0.0791279
0.0861578
0.0929001
0.0993579
0.105535
0.111437
0.117067
0.12243
0.127532
0.132377
0.136969
0.141314
0.145415
0.149277
0.152905
0.156303
0.159477
0.162433
0.165175
0.167711
0.170048
0.172193
0.174153
0.175938
0.177556
0.179017
0.180329
0.181504
0.182549
0.183476
0.184293
0.18501
0.185636
0.18618
0.186649
0.187052
0.187395
0.187686
0.18793
0.188134
0.188302
0.188439
0.188548
0.188634
0.188699
0.188746
0.188778
0.188797
0.188804
0.188801
0.0501869
0.0581307
0.0658151
0.0732304
0.0803699
0.087234
0.0938243
0.100143
0.106193
0.111979
0.117503
0.12277
0.127784
0.132548
0.137068
0.141347
0.145389
0.149197
0.152777
0.156133
0.159269
0.16219
0.164903
0.167413
0.169726
0.171851
0.173794
0.175565
0.177172
0.178623
0.179928
0.181097
0.182139
0.183064
0.183881
0.184599
0.185228
0.185775
0.186249
0.186658
0.187008
0.187306
0.187559
0.187771
0.187948
0.188095
0.188214
0.18831
0.188386
0.188444
0.188487
0.188516
0.188534
0.188542
0.0523195
0.0600252
0.0674897
0.074703
0.0816574
0.0883516
0.0947862
0.100962
0.106882
0.112548
0.117964
0.123131
0.128055
0.132737
0.137182
0.141393
0.145374
0.149127
0.152657
0.155968
0.159064
0.16195
0.164631
0.167113
0.169403
0.171506
0.173432
0.175187
0.176781
0.178222
0.179519
0.180682
0.18172
0.182643
0.183459
0.184178
0.184809
0.18536
0.185839
0.186253
0.18661
0.186916
0.187177
0.187398
0.187585
0.187742
0.187871
0.187978
0.188065
0.188134
0.188188
0.188229
0.188259
0.188278
0.05451
0.0619744
0.0692154
0.0762231
0.0829888
0.0895097
0.0957853
0.101816
0.107602
0.113146
0.11845
0.123516
0.128346
0.132944
0.137312
0.141453
0.14537
0.149066
0.152545
0.15581
0.158864
0.161713
0.164361
0.166814
0.169078
0.171159
0.173065
0.174804
0.176384
0.177814
0.179102
0.180258
0.181292
0.182212
0.183027
0.183747
0.18438
0.184934
0.185417
0.185838
0.186201
0.186515
0.186785
0.187015
0.187212
0.187379
0.18752
0.187638
0.187736
0.187817
0.187882
0.187935
0.187976
0.188007
0.0567522
0.063973
0.0709882
0.0777875
0.0843615
0.0907063
0.0968201
0.102702
0.108353
0.113772
0.118961
0.123923
0.128658
0.133169
0.137458
0.141527
0.145379
0.149016
0.152441
0.155658
0.158669
0.161479
0.164093
0.166515
0.168751
0.170809
0.172694
0.174415
0.175981
0.177398
0.178677
0.179825
0.180853
0.18177
0.182584
0.183304
0.183938
0.184496
0.184984
0.18541
0.185781
0.186103
0.186381
0.186622
0.186829
0.187006
0.187158
0.187288
0.187398
0.187491
0.187569
0.187633
0.187687
0.18773
0.0590391
0.0660152
0.0728029
0.0793919
0.0857722
0.0919386
0.0978884
0.10362
0.109132
0.114424
0.119497
0.124352
0.12899
0.133412
0.13762
0.141615
0.1454
0.148976
0.152346
0.155512
0.158478
0.161248
0.163825
0.166215
0.168423
0.170455
0.172319
0.174021
0.17557
0.176974
0.178242
0.179382
0.180404
0.181317
0.182129
0.182849
0.183485
0.184046
0.184539
0.184971
0.185349
0.185679
0.185966
0.186217
0.186434
0.186623
0.186787
0.186928
0.187051
0.187156
0.187247
0.187324
0.18739
0.187446
0.0613618
0.0680933
0.0746532
0.081031
0.0872163
0.0932028
0.0989869
0.104566
0.109937
0.115101
0.120056
0.124802
0.129341
0.133672
0.137797
0.141716
0.145432
0.148945
0.152258
0.155373
0.158292
0.161019
0.163559
0.165914
0.168092
0.170098
0.171938
0.17362
0.175152
0.176542
0.177798
0.178929
0.179944
0.180852
0.181662
0.182381
0.183019
0.183583
0.184081
0.184519
0.184904
0.185242
0.18554
0.1858
0.186029
0.186229
0.186405
0.186559
0.186694
0.186813
0.186917
0.187007
0.187086
0.187155
0.0637069
0.0701955
0.0765286
0.0826957
0.088686
0.0944924
0.10011
0.105536
0.110766
0.1158
0.120635
0.125272
0.12971
0.133948
0.137989
0.141831
0.145476
0.148924
0.152178
0.155239
0.15811
0.160793
0.163293
0.165613
0.167759
0.169736
0.171552
0.173212
0.174726
0.1761
0.177343
0.178465
0.179472
0.180375
0.181182
0.181901
0.18254
0.183106
0.183609
0.184053
0.184446
0.184793
0.1851
0.185371
0.185611
0.185824
0.186013
0.18618
0.186329
0.186461
0.186578
0.186683
0.186776
0.186858
0.0660637
0.072312
0.0784204
0.0843782
0.0901743
0.0958009
0.101252
0.106524
0.111613
0.116516
0.121231
0.125757
0.130093
0.134238
0.138193
0.141956
0.145528
0.148911
0.152104
0.15511
0.157931
0.160568
0.163027
0.165309
0.167422
0.169369
0.171159
0.172796
0.17429
0.175648
0.176877
0.177988
0.178987
0.179884
0.180688
0.181405
0.182045
0.182615
0.183122
0.183573
0.183974
0.18433
0.184647
0.18493
0.185182
0.185407
0.185609
0.18579
0.185953
0.186099
0.186231
0.18635
0.186457
0.186554
0.0682844
0.0743107
0.0802108
0.0859741
0.091589
0.0970473
0.102343
0.10747
0.112425
0.117205
0.121806
0.126227
0.130466
0.134522
0.138394
0.142082
0.145585
0.148903
0.152038
0.15499
0.157761
0.160354
0.162771
0.165017
0.167096
0.169014
0.170777
0.172392
0.173866
0.175207
0.176423
0.177522
0.178513
0.179404
0.180203
0.180919
0.18156
0.182133
0.182644
0.183101
0.183509
0.183875
0.184202
0.184496
0.18476
0.184998
0.185213
0.185408
0.185585
0.185745
0.185891
0.186024
0.186145
0.186256
0.0704829
0.0762932
0.0819903
0.0875631
0.0930004
0.0982932
0.103435
0.108419
0.113242
0.117899
0.122387
0.126704
0.130846
0.134812
0.138602
0.142213
0.145646
0.1489
0.151975
0.154872
0.157593
0.16014
0.162515
0.164723
0.166768
0.168655
0.170391
0.171982
0.173435
0.174758
0.175959
0.177047
0.178028
0.178913
0.179709
0.180424
0.181065
0.18164
0.182157
0.18262
0.183036
0.183411
0.183749
0.184054
0.184331
0.184582
0.184811
0.18502
0.185211
0.185386
0.185547
0.185695
0.18583
0.185955
0.0728875
0.0784643
0.0839413
0.0893072
0.0945511
0.0996635
0.104637
0.109466
0.114144
0.118667
0.12303
0.127231
0.131267
0.135135
0.138833
0.14236
0.145715
0.148896
0.151904
0.15474
0.157404
0.159899
0.162227
0.164392
0.166398
0.168251
0.169956
0.171519
0.172949
0.174252
0.175437
0.176511
0.177483
0.17836
0.179152
0.179866
0.180509
0.181088
0.18161
0.182082
0.182508
0.182894
0.183244
0.183563
0.183855
0.184121
0.184366
0.184591
0.184799
0.184991
0.185169
0.185333
0.185486
0.185627
0.0701041
0.0755037
0.0808291
0.0860689
0.0912118
0.0962462
0.101163
0.105954
0.110613
0.115133
0.119509
0.123736
0.127811
0.131729
0.135488
0.139086
0.142519
0.145786
0.148887
0.151821
0.154588
0.157188
0.159625
0.161899
0.164015
0.165977
0.16779
0.169459
0.170992
0.172395
0.173675
0.174841
0.175901
0.176862
0.177732
0.17852
0.179233
0.179878
0.180463
0.180993
0.181474
0.181912
0.182312
0.182678
0.183013
0.183322
0.183607
0.183871
0.184115
0.184343
0.184554
0.184751
0.184935
0.185107
0.185266
0.0731875
0.0783062
0.0833655
0.0883534
0.0932582
0.0980689
0.102776
0.107371
0.111847
0.116197
0.120414
0.124494
0.128432
0.132222
0.135863
0.139349
0.142679
0.145851
0.148863
0.151714
0.154403
0.156933
0.159303
0.161517
0.163578
0.165491
0.167259
0.168889
0.170387
0.17176
0.173015
0.174161
0.175205
0.176154
0.177018
0.177803
0.178516
0.179166
0.179758
0.180298
0.180792
0.181245
0.181662
0.182046
0.182402
0.182731
0.183038
0.183324
0.183591
0.183841
0.184075
0.184295
0.184501
0.184694
0.184875
0.0764136
0.0812419
0.0860244
0.0907493
0.0954053
0.0999816
0.104468
0.108857
0.11314
0.117308
0.121357
0.125279
0.129069
0.132723
0.136235
0.139601
0.14282
0.145887
0.1488
0.15156
0.154165
0.156615
0.158913
0.16106
0.16306
0.164917
0.166635
0.168221
0.169681
0.171022
0.172251
0.173375
0.174403
0.175342
0.1762
0.176984
0.177701
0.178357
0.17896
0.179514
0.180025
0.180497
0.180935
0.181343
0.181722
0.182077
0.18241
0.182722
0.183016
0.183293
0.183553
0.183799
0.184031
0.184249
0.184455
0.0797034
0.0842373
0.0887379
0.093194
0.0975947
0.101929
0.106188
0.110362
0.114443
0.118422
0.122293
0.126048
0.129682
0.133189
0.136563
0.139801
0.142898
0.145851
0.148658
0.151318
0.153829
0.156193
0.15841
0.160484
0.162416
0.164212
0.165877
0.167415
0.168835
0.170141
0.171343
0.172447
0.17346
0.174391
0.175246
0.176033
0.176757
0.177426
0.178044
0.178618
0.179151
0.179649
0.180114
0.18055
0.18096
0.181345
0.18171
0.182054
0.18238
0.182688
0.18298
0.183256
0.183518
0.183765
0.183999
0.0828195
0.0870691
0.0912962
0.0954902
0.0996408
0.103737
0.107771
0.111731
0.11561
0.119399
0.123091
0.126677
0.130151
0.133507
0.136738
0.139841
0.142811
0.145643
0.148337
0.15089
0.153301
0.155571
0.157702
0.159696
0.161557
0.163289
0.164897
0.166388
0.167767
0.169041
0.170219
0.171306
0.17231
0.173239
0.174098
0.174895
0.175635
0.176325
0.176969
0.177571
0.178136
0.178668
0.179169
0.179643
0.180092
0.180517
0.18092
0.181304
0.181669
0.182015
0.182344
0.182657
0.182954
0.183235
0.183502
0.0849196
0.0889552
0.0929751
0.0969696
0.100929
0.104842
0.108701
0.112496
0.116217
0.119857
0.123406
0.126857
0.130203
0.133438
0.136554
0.139547
0.142412
0.145145
0.147745
0.15021
0.152539
0.154733
0.156793
0.158724
0.160528
0.16221
0.163776
0.165233
0.166585
0.167841
0.169008
0.170091
0.171099
0.172037
0.172913
0.173731
0.174498
0.175217
0.175895
0.176534
0.177138
0.17771
0.178254
0.17877
0.179261
0.179729
0.180175
0.1806
0.181004
0.18139
0.181757
0.182107
0.182439
0.182754
0.183052
0.085995
0.0898917
0.0937768
0.0976408
0.101474
0.105267
0.10901
0.112693
0.116309
0.119847
0.1233
0.126659
0.129917
0.133068
0.136104
0.139021
0.141815
0.144481
0.147018
0.149423
0.151698
0.153843
0.15586
0.157753
0.159524
0.161181
0.162727
0.164169
0.165514
0.166768
0.167939
0.169031
0.170054
0.171011
0.171909
0.172754
0.17355
0.174302
0.175014
0.175689
0.176329
0.176939
0.17752
0.178074
0.178602
0.179106
0.179588
0.180048
0.180486
0.180904
0.181303
0.181682
0.182042
0.182384
0.182708
0.0864724
0.0902676
0.0940538
0.0978218
0.101562
0.105265
0.108921
0.112522
0.116058
0.119519
0.122899
0.126188
0.129379
0.132466
0.135442
0.138302
0.141042
0.143658
0.146149
0.148513
0.15075
0.152863
0.154852
0.156722
0.158477
0.160122
0.161663
0.163105
0.164455
0.165719
0.166904
0.168016
0.169061
0.170045
0.170973
0.17185
0.17268
0.173467
0.174215
0.174927
0.175606
0.176253
0.176871
0.177461
0.178025
0.178564
0.179079
0.179571
0.180041
0.180489
0.180916
0.181322
0.181707
0.182073
0.18242
0.0864848
0.0902052
0.0939183
0.097615
0.101286
0.104922
0.108514
0.112052
0.115527
0.118931
0.122255
0.125491
0.128632
0.131671
0.134602
0.137421
0.140122
0.142704
0.145163
0.1475
0.149716
0.15181
0.153787
0.155649
0.1574
0.159047
0.160594
0.162048
0.163414
0.164698
0.165907
0.167046
0.168121
0.169137
0.170099
0.171012
0.171879
0.172704
0.17349
0.174239
0.174955
0.17564
0.176294
0.176919
0.177517
0.178089
0.178636
0.179158
0.179656
0.180131
0.180584
0.181014
0.181422
0.18181
0.182177
0.0861423
0.0898067
0.093465
0.0971083
0.100727
0.104313
0.107855
0.111346
0.114776
0.118136
0.121418
0.124615
0.127719
0.130723
0.133622
0.136412
0.139088
0.141647
0.144089
0.146412
0.148617
0.150706
0.152682
0.154548
0.156309
0.157968
0.159532
0.161007
0.162397
0.163709
0.164948
0.16612
0.16723
0.168283
0.169283
0.170234
0.17114
0.172003
0.172828
0.173615
0.174368
0.175089
0.175778
0.176437
0.177068
0.17767
0.178246
0.178796
0.179321
0.179821
0.180297
0.180749
0.181179
0.181585
0.18197
0.0855263
0.0891485
0.0927654
0.0963683
0.0999479
0.103495
0.107001
0.110456
0.113851
0.117179
0.120431
0.123599
0.126676
0.129657
0.132535
0.135307
0.137968
0.140517
0.142952
0.145272
0.147479
0.149574
0.151559
0.153439
0.155217
0.156898
0.158488
0.15999
0.161412
0.162757
0.164032
0.165242
0.16639
0.167482
0.168521
0.169512
0.170457
0.17136
0.172223
0.173048
0.173837
0.174592
0.175315
0.176006
0.176667
0.177299
0.177903
0.178479
0.179028
0.17955
0.180048
0.18052
0.180968
0.181392
0.181794
0.0847007
0.0882908
0.0918765
0.095449
0.0989991
0.102518
0.105996
0.109425
0.112796
0.116101
0.119331
0.12248
0.125541
0.128507
0.131374
0.134138
0.136794
0.139342
0.141779
0.144106
0.146323
0.148433
0.150436
0.152338
0.154141
0.155851
0.157471
0.159007
0.160465
0.161848
0.163161
0.16441
0.165599
0.166732
0.167812
0.168843
0.169827
0.170769
0.171669
0.17253
0.173355
0.174143
0.174898
0.175619
0.176309
0.176968
0.177598
0.178198
0.178769
0.179313
0.17983
0.180321
0.180786
0.181226
0.181642
0.0837142
0.0872802
0.0908426
0.0943926
0.0979212
0.101419
0.104878
0.108289
0.111644
0.114933
0.118151
0.121289
0.124341
0.127302
0.130166
0.13293
0.135591
0.138146
0.140594
0.142935
0.14517
0.1473
0.149328
0.151257
0.153091
0.154834
0.15649
0.158063
0.159559
0.160982
0.162337
0.163627
0.164857
0.16603
0.167151
0.168222
0.169245
0.170224
0.171161
0.172057
0.172915
0.173736
0.17452
0.175271
0.175988
0.176672
0.177325
0.177947
0.17854
0.179103
0.179638
0.180146
0.180626
0.181081
0.18151
0.0826092
0.0861583
0.0897048
0.0932397
0.0967543
0.10024
0.103687
0.107088
0.110433
0.113716
0.116929
0.120064
0.123116
0.126079
0.128948
0.13172
0.134392
0.13696
0.139426
0.141787
0.144045
0.146202
0.148259
0.15022
0.152088
0.153866
0.15556
0.157172
0.158708
0.160171
0.161567
0.162898
0.164169
0.165383
0.166543
0.167652
0.168713
0.169728
0.170699
0.171629
0.172518
0.173369
0.174182
0.174959
0.175701
0.176409
0.177084
0.177727
0.178338
0.178919
0.179471
0.179993
0.180488
0.180955
0.181397
0.0815149
0.0850555
0.0885944
0.0921228
0.0956321
0.0991132
0.102558
0.105957
0.109303
0.112587
0.115803
0.118944
0.122004
0.124976
0.127857
0.130643
0.133331
0.135919
0.138405
0.140789
0.143073
0.145257
0.147343
0.149335
0.151235
0.153047
0.154775
0.156423
0.157995
0.159495
0.160927
0.162294
0.1636
0.164849
0.166043
0.167186
0.168278
0.169324
0.170325
0.171282
0.172198
0.173074
0.173911
0.17471
0.175473
0.1762
0.176893
0.177553
0.17818
0.178776
0.17934
0.179875
0.180382
0.18086
0.18131
0.0807585
0.0842938
0.0878284
0.0913537
0.094861
0.0983415
0.101787
0.105188
0.108537
0.111826
0.115048
0.118197
0.121265
0.124248
0.127141
0.129939
0.132641
0.135244
0.137747
0.140149
0.142451
0.144655
0.146762
0.148775
0.150698
0.152532
0.154284
0.155955
0.15755
0.159074
0.160529
0.16192
0.163249
0.16452
0.165736
0.1669
0.168013
0.169079
0.170098
0.171073
0.172005
0.172897
0.173748
0.174561
0.175337
0.176077
0.176781
0.177451
0.178088
0.178692
0.179265
0.179808
0.180321
0.180806
0.181262
)
;

boundaryField
{
    inlet
    {
        type            zeroGradient;
    }
    outlet
    {
        type            fixedValue;
        value           nonuniform 0();
    }
    upperWall
    {
        type            zeroGradient;
    }
    lowerWall
    {
        type            zeroGradient;
    }
    frontAndBack
    {
        type            empty;
    }
    procBoundary3to1
    {
        type            processor;
        value           nonuniform List<scalar> 
62
(
0.201504
0.200945
0.200321
0.199719
0.199158
0.198623
0.198623
0.197673
0.197202
0.197202
0.196369
0.195936
0.195503
0.195069
0.194634
0.194634
0.193956
0.193538
0.193108
0.192681
0.192681
0.192122
0.192122
0.191618
0.191298
0.190996
0.19071
0.19044
0.190183
0.18994
0.189709
0.18949
0.189266
0.18903
0.188788
0.188541
0.188288
0.188028
0.187763
0.187492
0.187214
0.18693
0.18664
0.186356
0.186069
0.185757
0.185415
0.185045
0.184648
0.184219
0.183753
0.183334
0.183014
0.182747
0.182523
0.182334
0.182172
0.182034
0.181914
0.181812
0.181735
0.181692
)
;
    }
    procBoundary3to2
    {
        type            processor;
        value           nonuniform List<scalar> 
58
(
0.0708427
0.061277
0.0506757
0.0426048
0.0360609
0.0303268
0.0251406
0.0203692
0.0159689
0.0119638
0.00843365
0.00549687
0.00328996
0.00194458
0.00153841
0.0022405
0.00420374
0.00688209
0.00997476
0.0132431
0.0165226
0.0197099
0.0227458
0.0256005
0.0282637
0.0307392
0.0330368
0.0352175
0.0374031
0.0396586
0.0419824
0.0443729
0.0468245
0.0493296
0.0518799
0.0544653
0.0570706
0.0596841
0.0621412
0.0645693
0.0672222
0.0672222
0.064644
0.0680225
0.0715524
0.0751483
0.0785584
0.0808787
0.0820964
0.0826775
0.0827662
0.0824808
0.081908
0.0811152
0.0801534
0.0790661
0.0779812
0.0772314
)
;
    }
}


// ************************************************************************* //
