/*--------------------------------*- C++ -*----------------------------------*\
  =========                 |
  \\      /  F ield         | OpenFOAM: The Open Source CFD Toolbox
   \\    /   O peration     | Website:  https://openfoam.org
    \\  /    A nd           | Version:  6
     \\/     M anipulation  |
\*---------------------------------------------------------------------------*/
FoamFile
{
    version     2.0;
    format      ascii;
    class       surfaceScalarField;
    location    "0.07";
    object      phi;
}
// * * * * * * * * * * * * * * * * * * * * * * * * * * * * * * * * * * * * * //

dimensions      [0 3 -1 0 0 0 0];

internalField   nonuniform List<scalar> 
5952
(
-1.61527e-07
-1.9925e-08
-1.411e-07
-2.0427e-08
-1.20263e-07
-2.08365e-08
-9.91116e-08
-2.11518e-08
-7.77405e-08
-2.13711e-08
-5.62475e-08
-2.14931e-08
-3.47274e-08
-2.152e-08
-1.32433e-08
-2.14841e-08
8.19059e-09
-2.14339e-08
2.95225e-08
-2.13319e-08
5.06622e-08
-2.11397e-08
7.15393e-08
-2.08771e-08
9.2093e-08
-2.05537e-08
1.1227e-07
-2.01766e-08
1.32021e-07
-1.97512e-08
1.51303e-07
-1.92821e-08
1.70077e-07
-1.87738e-08
1.88307e-07
-1.82304e-08
2.05963e-07
-1.7656e-08
2.23018e-07
-1.70548e-08
2.39449e-07
-1.64307e-08
2.55236e-07
-1.57876e-08
2.70366e-07
-1.51294e-08
2.84826e-07
-1.446e-08
2.98609e-07
-1.37832e-08
3.11711e-07
-1.31025e-08
3.24133e-07
-1.24215e-08
3.35876e-07
-1.17437e-08
3.46949e-07
-1.10723e-08
3.57359e-07
-1.04103e-08
3.6712e-07
-9.7607e-09
3.76246e-07
-9.12607e-09
3.84754e-07
-8.50877e-09
3.92665e-07
-7.91091e-09
4e-07
-7.33427e-09
4.0678e-07
-6.78037e-09
4.1303e-07
-6.25041e-09
4.18776e-07
-5.74528e-09
4.24041e-07
-5.26561e-09
4.28853e-07
-4.81172e-09
4.33237e-07
-4.38368e-09
4.37218e-07
-3.98135e-09
4.40822e-07
-3.60434e-09
4.44074e-07
-3.25209e-09
4.46998e-07
-2.92389e-09
4.49617e-07
-2.61891e-09
4.51953e-07
-2.33619e-09
4.54028e-07
-2.07476e-09
-1.83356e-09
-1.48411e-07
-3.92689e-08
-1.28566e-07
-4.02714e-08
-1.08302e-07
-4.11005e-08
-8.76973e-08
-4.17567e-08
-6.68265e-08
-4.22419e-08
-4.57597e-08
-4.25598e-08
-2.45616e-08
-4.27181e-08
-3.31191e-09
-4.27338e-08
1.78752e-08
-4.2621e-08
3.89224e-08
-4.2379e-08
5.97903e-08
-4.20076e-08
8.04288e-08
-4.15156e-08
1.00788e-07
-4.09125e-08
1.20818e-07
-4.02071e-08
1.40475e-07
-3.9408e-08
1.59716e-07
-3.85233e-08
1.78503e-07
-3.75611e-08
1.96802e-07
-3.65293e-08
2.14582e-07
-3.54357e-08
2.31815e-07
-3.42879e-08
2.48478e-07
-3.30935e-08
2.6455e-07
-3.18599e-08
2.80015e-07
-3.05943e-08
2.94859e-07
-2.9304e-08
3.09072e-07
-2.79959e-08
3.22646e-07
-2.6677e-08
3.35579e-07
-2.53539e-08
3.47868e-07
-2.40332e-08
3.59517e-07
-2.27209e-08
3.7053e-07
-2.1423e-08
3.80914e-07
-2.01452e-08
3.90681e-07
-1.88924e-08
3.99841e-07
-1.76694e-08
4.08411e-07
-1.64806e-08
4.16406e-07
-1.53296e-08
4.23845e-07
-1.42196e-08
4.30748e-07
-1.31534e-08
4.37136e-07
-1.2133e-08
4.43031e-07
-1.11601e-08
4.48455e-07
-1.02357e-08
4.53431e-07
-9.36041e-09
4.57984e-07
-8.53428e-09
4.62137e-07
-7.75703e-09
4.65913e-07
-7.02794e-09
4.69335e-07
-6.34598e-09
4.72426e-07
-5.70983e-09
4.75208e-07
-5.11795e-09
4.77702e-07
-4.56862e-09
-4.05998e-09
-1.34169e-07
-5.80216e-08
-1.14931e-07
-5.95088e-08
-9.5287e-08
-6.07447e-08
-7.53117e-08
-6.17321e-08
-5.50781e-08
-6.24755e-08
-3.46555e-08
-6.29824e-08
-1.41113e-08
-6.32623e-08
6.47982e-09
-6.33249e-08
2.70401e-08
-6.31813e-08
4.75044e-08
-6.28434e-08
6.78181e-08
-6.23213e-08
8.7929e-08
-6.16264e-08
1.07787e-07
-6.07708e-08
1.27346e-07
-5.97663e-08
1.46563e-07
-5.86248e-08
1.65398e-07
-5.73581e-08
1.83815e-07
-5.59776e-08
2.0178e-07
-5.44946e-08
2.19264e-07
-5.29202e-08
2.36242e-07
-5.12652e-08
2.52689e-07
-4.95405e-08
2.68585e-07
-4.77564e-08
2.83914e-07
-4.59232e-08
2.98661e-07
-4.40513e-08
3.12816e-07
-4.21503e-08
3.26369e-07
-4.02302e-08
3.39315e-07
-3.83004e-08
3.51652e-07
-3.63701e-08
3.6338e-07
-3.44481e-08
3.745e-07
-3.2543e-08
3.85017e-07
-3.06629e-08
3.9494e-07
-2.88151e-08
4.04277e-07
-2.70068e-08
4.13041e-07
-2.52443e-08
4.21245e-07
-2.35333e-08
4.28904e-07
-2.18787e-08
4.36035e-07
-2.02849e-08
4.42657e-07
-1.87552e-08
4.4879e-07
-1.72925e-08
4.54453e-07
-1.58988e-08
4.59668e-07
-1.45753e-08
4.64456e-07
-1.33226e-08
4.6884e-07
-1.21407e-08
4.72841e-07
-1.10289e-08
4.76481e-07
-9.98625e-09
4.79782e-07
-9.01103e-09
4.82766e-07
-8.10133e-09
4.85452e-07
-7.2549e-09
-6.4692e-09
-1.18728e-07
-7.63021e-08
-9.9987e-08
-7.82495e-08
-8.08624e-08
-7.98693e-08
-6.14285e-08
-8.1166e-08
-4.17568e-08
-8.21472e-08
-2.19165e-08
-8.28228e-08
-1.97518e-09
-8.32036e-08
1.80013e-08
-8.33014e-08
3.79505e-08
-8.31305e-08
5.78131e-08
-8.2706e-08
7.75344e-08
-8.20426e-08
9.70639e-08
-8.1156e-08
1.16355e-07
-8.00614e-08
1.35363e-07
-7.87745e-08
1.54048e-07
-7.73105e-08
1.72375e-07
-7.56843e-08
1.90308e-07
-7.39107e-08
2.07817e-07
-7.20041e-08
2.24876e-07
-6.99784e-08
2.41458e-07
-6.78476e-08
2.57542e-07
-6.5625e-08
2.7311e-07
-6.33239e-08
2.88144e-07
-6.09573e-08
3.02631e-07
-5.85378e-08
3.16558e-07
-5.60782e-08
3.29919e-07
-5.35905e-08
3.42705e-07
-5.10867e-08
3.54913e-07
-4.85785e-08
3.66542e-07
-4.60772e-08
3.77593e-07
-4.35936e-08
3.88068e-07
-4.1138e-08
3.97973e-07
-3.87202e-08
4.07316e-07
-3.63493e-08
4.16105e-07
-3.40337e-08
4.24353e-07
-3.1781e-08
4.32072e-07
-2.95979e-08
4.39277e-07
-2.74902e-08
4.45985e-07
-2.54629e-08
4.52212e-07
-2.352e-08
4.57978e-07
-2.16644e-08
4.63301e-07
-1.98984e-08
4.68202e-07
-1.8223e-08
4.727e-07
-1.66389e-08
4.76816e-07
-1.51455e-08
4.80572e-07
-1.37418e-08
4.83987e-07
-1.24262e-08
4.87082e-07
-1.11965e-08
4.89877e-07
-1.005e-08
-8.98371e-09
-1.01138e-07
-9.4204e-08
-8.28126e-08
-9.65747e-08
-6.41395e-08
-9.85424e-08
-4.51913e-08
-1.00114e-07
-2.60378e-08
-1.01301e-07
-6.74627e-09
-1.02114e-07
1.26187e-08
-1.02569e-07
3.1997e-08
-1.0268e-07
5.13316e-08
-1.02465e-07
7.05689e-08
-1.01943e-07
8.96591e-08
-1.01133e-07
1.08556e-07
-1.00053e-07
1.27218e-07
-9.87229e-08
1.45604e-07
-9.7161e-08
1.63679e-07
-9.53859e-08
1.81411e-07
-9.34155e-08
1.98767e-07
-9.12676e-08
2.15722e-07
-8.8959e-08
2.32251e-07
-8.65066e-08
2.4833e-07
-8.39266e-08
2.6394e-07
-8.12349e-08
2.79063e-07
-7.8447e-08
2.93684e-07
-7.55783e-08
3.07789e-07
-7.26436e-08
3.21369e-07
-6.96576e-08
3.34413e-07
-6.66349e-08
3.46916e-07
-6.35894e-08
3.58873e-07
-6.05351e-08
3.70281e-07
-5.74852e-08
3.8114e-07
-5.44528e-08
3.91452e-07
-5.14502e-08
4.01221e-07
-4.84892e-08
4.10453e-07
-4.55809e-08
4.19155e-07
-4.27356e-08
4.27336e-07
-3.99627e-08
4.35009e-07
-3.72706e-08
4.42186e-07
-3.46668e-08
4.4888e-07
-3.21575e-08
4.55109e-07
-2.97481e-08
4.60887e-07
-2.74426e-08
4.66233e-07
-2.52442e-08
4.71164e-07
-2.31548e-08
4.75701e-07
-2.11753e-08
4.79861e-07
-1.93058e-08
4.83665e-07
-1.75455e-08
4.87131e-07
-1.58926e-08
4.9028e-07
-1.4345e-08
4.93129e-07
-1.28996e-08
-1.15531e-08
-8.07559e-08
-1.11795e-07
-6.2793e-08
-1.14538e-07
-4.45325e-08
-1.16803e-07
-2.60453e-08
-1.18601e-07
-7.39933e-09
-1.19947e-07
1.13413e-08
-1.20855e-07
3.01169e-08
-1.21344e-07
4.88723e-08
-1.21435e-07
6.75561e-08
-1.21149e-07
8.61207e-08
-1.20508e-07
1.04522e-07
-1.19535e-07
1.22721e-07
-1.18251e-07
1.40679e-07
-1.16681e-07
1.58363e-07
-1.14845e-07
1.75741e-07
-1.12764e-07
1.92786e-07
-1.1046e-07
2.0947e-07
-1.07952e-07
2.25771e-07
-1.0526e-07
2.41667e-07
-1.02402e-07
2.57138e-07
-9.93978e-08
2.72167e-07
-9.62639e-08
2.86738e-07
-9.30182e-08
3.00838e-07
-8.96778e-08
3.14454e-07
-8.62594e-08
3.27576e-07
-8.27797e-08
3.40195e-07
-7.92547e-08
3.52307e-07
-7.57005e-08
3.63904e-07
-7.21327e-08
3.74985e-07
-6.85664e-08
3.85549e-07
-6.50165e-08
3.95596e-07
-6.14972e-08
4.05129e-07
-5.80221e-08
4.14152e-07
-5.46041e-08
4.22672e-07
-5.12553e-08
4.30696e-07
-4.79867e-08
4.38233e-07
-4.48084e-08
4.45296e-07
-4.17293e-08
4.51896e-07
-3.87573e-08
4.58046e-07
-3.58988e-08
4.63763e-07
-3.31591e-08
4.69061e-07
-3.05422e-08
4.73957e-07
-2.8051e-08
4.78469e-07
-2.5687e-08
4.82614e-07
-2.34508e-08
4.8641e-07
-2.13417e-08
4.89876e-07
-1.93584e-08
4.93029e-07
-1.74985e-08
4.95889e-07
-1.57588e-08
-1.41357e-08
-5.70628e-08
-1.29111e-07
-3.9441e-08
-1.32159e-07
-2.1587e-08
-1.34657e-07
-3.57014e-09
-1.36618e-07
1.45451e-08
-1.38062e-07
3.26995e-08
-1.39009e-07
5.08395e-08
-1.39484e-07
6.89156e-08
-1.39511e-07
8.68833e-08
-1.39117e-07
1.04702e-07
-1.38326e-07
1.22335e-07
-1.37167e-07
1.39748e-07
-1.35665e-07
1.56911e-07
-1.33844e-07
1.73796e-07
-1.3173e-07
1.90378e-07
-1.29346e-07
2.06634e-07
-1.26716e-07
2.22542e-07
-1.23861e-07
2.38084e-07
-1.20802e-07
2.53241e-07
-1.1756e-07
2.67998e-07
-1.14154e-07
2.82339e-07
-1.10605e-07
2.96252e-07
-1.06931e-07
3.09724e-07
-1.0315e-07
3.22745e-07
-9.92803e-08
3.35305e-07
-9.53402e-08
3.47398e-07
-9.13472e-08
3.59016e-07
-8.73187e-08
3.70155e-07
-8.32718e-08
3.80812e-07
-7.92231e-08
3.90984e-07
-7.51892e-08
4.00673e-07
-7.11857e-08
4.09879e-07
-6.7228e-08
4.18605e-07
-6.33306e-08
4.26857e-07
-5.95072e-08
4.34641e-07
-5.57703e-08
4.41964e-07
-5.21316e-08
4.48836e-07
-4.86015e-08
4.55268e-07
-4.51891e-08
4.61272e-07
-4.19023e-08
4.6686e-07
-3.87474e-08
4.72047e-07
-3.57294e-08
4.76848e-07
-3.28522e-08
4.81279e-07
-3.01178e-08
4.85356e-07
-2.75275e-08
4.89095e-07
-2.5081e-08
4.92514e-07
-2.27771e-08
4.95629e-07
-2.06136e-08
4.98457e-07
-1.85872e-08
5.01016e-07
-1.66942e-08
-1.493e-08
-2.95829e-08
-1.46151e-07
-1.23201e-08
-1.49422e-07
5.09297e-09
-1.5207e-07
2.25907e-08
-1.54116e-07
4.01142e-08
-1.55585e-07
5.76109e-08
-1.56506e-07
7.50339e-08
-1.56907e-07
9.23417e-08
-1.56819e-07
1.09498e-07
-1.56273e-07
1.26469e-07
-1.55298e-07
1.43228e-07
-1.53926e-07
1.59747e-07
-1.52184e-07
1.76005e-07
-1.50101e-07
1.91979e-07
-1.47705e-07
2.07652e-07
-1.45019e-07
2.23007e-07
-1.4207e-07
2.38026e-07
-1.3888e-07
2.52697e-07
-1.35472e-07
2.67004e-07
-1.31867e-07
2.80937e-07
-1.28087e-07
2.94482e-07
-1.24151e-07
3.0763e-07
-1.20078e-07
3.2037e-07
-1.1589e-07
3.32693e-07
-1.11603e-07
3.44592e-07
-1.07239e-07
3.56058e-07
-1.02814e-07
3.67087e-07
-9.83477e-08
3.77674e-07
-9.38583e-08
3.87814e-07
-8.93637e-08
3.97507e-07
-8.48816e-08
4.0675e-07
-8.04291e-08
4.15545e-07
-7.60229e-08
4.23894e-07
-7.16791e-08
4.31799e-07
-6.74126e-08
4.39266e-07
-6.32377e-08
4.46302e-07
-5.91673e-08
4.52914e-07
-5.52132e-08
4.59111e-07
-5.1386e-08
4.64903e-07
-4.76946e-08
4.70302e-07
-4.41466e-08
4.75321e-07
-4.07481e-08
4.79972e-07
-3.75035e-08
4.84271e-07
-3.4416e-08
4.8823e-07
-3.14873e-08
4.91867e-07
-2.87176e-08
4.95196e-07
-2.61059e-08
4.98233e-07
-2.36503e-08
5.00993e-07
-2.13476e-08
5.03493e-07
-1.91939e-08
-1.71843e-08
2.12851e-09
-1.62868e-07
1.8966e-08
-1.6626e-07
3.58568e-08
-1.68961e-07
5.27419e-08
-1.71001e-07
6.95697e-08
-1.72413e-07
8.62958e-08
-1.73232e-07
1.02883e-07
-1.73494e-07
1.19298e-07
-1.73235e-07
1.35515e-07
-1.72489e-07
1.5151e-07
-1.71293e-07
1.67264e-07
-1.6968e-07
1.8276e-07
-1.6768e-07
1.97983e-07
-1.65324e-07
2.1292e-07
-1.62641e-07
2.27558e-07
-1.59658e-07
2.41888e-07
-1.564e-07
2.55899e-07
-1.52891e-07
2.69581e-07
-1.49154e-07
2.82925e-07
-1.45211e-07
2.95922e-07
-1.41084e-07
3.08563e-07
-1.36792e-07
3.2084e-07
-1.32356e-07
3.32746e-07
-1.27795e-07
3.44272e-07
-1.23129e-07
3.55411e-07
-1.18378e-07
3.66158e-07
-1.13561e-07
3.76507e-07
-1.08696e-07
3.86452e-07
-1.03804e-07
3.95991e-07
-9.89023e-08
4.0512e-07
-9.40105e-08
4.13837e-07
-8.91467e-08
4.22143e-07
-8.43289e-08
4.30038e-07
-7.95742e-08
4.37525e-07
-7.48991e-08
4.44606e-07
-7.03191e-08
4.51287e-07
-6.58484e-08
4.57574e-07
-6.15003e-08
4.63475e-07
-5.72864e-08
4.68997e-07
-5.32171e-08
4.74152e-07
-4.93009e-08
4.78949e-07
-4.55449e-08
4.834e-07
-4.19547e-08
4.87518e-07
-3.85341e-08
4.91316e-07
-3.52853e-08
4.94808e-07
-3.22093e-08
4.98007e-07
-2.93053e-08
5.00928e-07
-2.65717e-08
5.03586e-07
-2.40054e-08
5.05995e-07
-2.16025e-08
5.08168e-07
-1.9358e-08
-1.72664e-08
3.84704e-08
-1.79153e-07
5.47604e-08
-1.8255e-07
7.09945e-08
-1.85195e-07
8.71223e-08
-1.87129e-07
1.03102e-07
-1.88393e-07
1.18901e-07
-1.89031e-07
1.34493e-07
-1.89085e-07
1.49856e-07
-1.88598e-07
1.64975e-07
-1.87608e-07
1.79837e-07
-1.86156e-07
1.94434e-07
-1.84276e-07
2.08757e-07
-1.82003e-07
2.228e-07
-1.79368e-07
2.36559e-07
-1.764e-07
2.50028e-07
-1.73128e-07
2.63204e-07
-1.69576e-07
2.76081e-07
-1.65768e-07
2.88654e-07
-1.61728e-07
3.00919e-07
-1.57476e-07
3.12869e-07
-1.53034e-07
3.24499e-07
-1.48422e-07
3.35804e-07
-1.4366e-07
3.46776e-07
-1.38767e-07
3.57409e-07
-1.33763e-07
3.67698e-07
-1.28667e-07
3.77637e-07
-1.23499e-07
3.8722e-07
-1.18279e-07
3.96442e-07
-1.13026e-07
4.05299e-07
-1.07759e-07
4.13787e-07
-1.02499e-07
4.21905e-07
-9.72646e-08
4.29651e-07
-9.20745e-08
4.37024e-07
-8.69472e-08
4.44025e-07
-8.19004e-08
4.50657e-07
-7.69507e-08
4.56922e-07
-7.21138e-08
4.62826e-07
-6.7404e-08
4.68374e-07
-6.28343e-08
4.73573e-07
-5.8416e-08
4.78431e-07
-5.4159e-08
4.82957e-07
-5.00714e-08
4.87162e-07
-4.61596e-08
4.91056e-07
-4.24282e-08
4.94651e-07
-3.88803e-08
4.97959e-07
-3.55172e-08
5.00993e-07
-3.23388e-08
5.03765e-07
-2.93435e-08
5.06288e-07
-2.65286e-08
5.08575e-07
-2.38901e-08
5.10641e-07
-2.14232e-08
-1.91221e-08
7.97703e-08
-1.94834e-07
9.53265e-08
-1.98106e-07
1.10708e-07
-2.00577e-07
1.25878e-07
-2.02299e-07
1.40808e-07
-2.03323e-07
1.55478e-07
-2.03701e-07
1.69875e-07
-2.03483e-07
1.83992e-07
-2.02715e-07
1.97826e-07
-2.01442e-07
2.11375e-07
-1.99705e-07
2.24642e-07
-1.97542e-07
2.37628e-07
-1.94989e-07
2.50336e-07
-1.92076e-07
2.62769e-07
-1.88833e-07
2.74929e-07
-1.85288e-07
2.86817e-07
-1.81464e-07
2.98435e-07
-1.77385e-07
3.0978e-07
-1.73073e-07
3.20853e-07
-1.68548e-07
3.31649e-07
-1.63831e-07
3.42167e-07
-1.5894e-07
3.52401e-07
-1.53894e-07
3.62347e-07
-1.48713e-07
3.72e-07
-1.43416e-07
3.81354e-07
-1.38021e-07
3.90403e-07
-1.32549e-07
3.99142e-07
-1.27018e-07
4.07565e-07
-1.21449e-07
4.15669e-07
-1.15863e-07
4.23448e-07
-1.10278e-07
4.30899e-07
-1.04716e-07
4.3802e-07
-9.91953e-08
4.44808e-07
-9.3736e-08
4.51265e-07
-8.83567e-08
4.57389e-07
-8.30752e-08
4.63184e-07
-7.79082e-08
4.68651e-07
-7.28714e-08
4.73795e-07
-6.79788e-08
4.78622e-07
-6.3243e-08
4.83138e-07
-5.86748e-08
4.8735e-07
-5.42835e-08
4.91267e-07
-5.00764e-08
4.94898e-07
-4.60589e-08
4.98252e-07
-4.22347e-08
5.01341e-07
-3.86059e-08
5.04175e-07
-3.51728e-08
5.06766e-07
-3.19343e-08
5.09125e-07
-2.88877e-08
5.11264e-07
-2.60294e-08
5.13195e-07
-2.33543e-08
-2.08568e-08
1.26242e-07
-2.09659e-07
1.40806e-07
-2.1267e-07
1.55075e-07
-2.14846e-07
1.69028e-07
-2.16252e-07
1.82655e-07
-2.1695e-07
1.95952e-07
-2.16998e-07
2.08921e-07
-2.16452e-07
2.2157e-07
-2.15364e-07
2.33908e-07
-2.1378e-07
2.45948e-07
-2.11744e-07
2.577e-07
-2.09294e-07
2.69176e-07
-2.06465e-07
2.80388e-07
-2.03288e-07
2.91346e-07
-1.99791e-07
3.02058e-07
-1.95999e-07
3.12529e-07
-1.91936e-07
3.22766e-07
-1.87622e-07
3.32771e-07
-1.83078e-07
3.42546e-07
-1.78323e-07
3.52089e-07
-1.73375e-07
3.614e-07
-1.68251e-07
3.70476e-07
-1.6297e-07
3.79313e-07
-1.5755e-07
3.87905e-07
-1.52008e-07
3.96248e-07
-1.46364e-07
4.04335e-07
-1.40636e-07
4.12161e-07
-1.34844e-07
4.1972e-07
-1.29008e-07
4.27006e-07
-1.23149e-07
4.34014e-07
-1.17286e-07
4.4074e-07
-1.11441e-07
4.47179e-07
-1.05634e-07
4.53329e-07
-9.98859e-08
4.59188e-07
-9.42154e-08
4.64754e-07
-8.86418e-08
4.70029e-07
-8.3183e-08
4.75013e-07
-7.78556e-08
4.7971e-07
-7.2675e-08
4.84121e-07
-6.76549e-08
4.88254e-07
-6.28071e-08
4.92112e-07
-5.81419e-08
4.95703e-07
-5.36676e-08
4.99035e-07
-4.93904e-08
5.02115e-07
-4.53148e-08
5.04953e-07
-4.14436e-08
5.07557e-07
-3.77775e-08
5.09939e-07
-3.43158e-08
5.12107e-07
-3.10562e-08
5.14073e-07
-2.79952e-08
5.15847e-07
-2.5128e-08
-2.24488e-08
1.77925e-07
-2.2329e-07
1.91163e-07
-2.25907e-07
2.03994e-07
-2.27678e-07
2.1642e-07
-2.28678e-07
2.28447e-07
-2.28977e-07
2.40093e-07
-2.28643e-07
2.51374e-07
-2.27734e-07
2.62314e-07
-2.26304e-07
2.72936e-07
-2.24402e-07
2.83261e-07
-2.2207e-07
2.93312e-07
-2.19345e-07
3.03109e-07
-2.16262e-07
3.12669e-07
-2.12849e-07
3.22009e-07
-2.09131e-07
3.31141e-07
-2.05131e-07
3.40077e-07
-2.00871e-07
3.48823e-07
-1.96369e-07
3.57386e-07
-1.91641e-07
3.65769e-07
-1.86706e-07
3.73973e-07
-1.81578e-07
3.81997e-07
-1.76275e-07
3.89838e-07
-1.70812e-07
3.97493e-07
-1.65205e-07
4.04958e-07
-1.59472e-07
4.12225e-07
-1.53631e-07
4.1929e-07
-1.477e-07
4.26145e-07
-1.41699e-07
4.32783e-07
-1.35647e-07
4.39198e-07
-1.29564e-07
4.45383e-07
-1.23472e-07
4.51333e-07
-1.17391e-07
4.57043e-07
-1.11344e-07
4.62507e-07
-1.0535e-07
4.67723e-07
-9.94315e-08
4.72689e-07
-9.36071e-08
4.77402e-07
-8.78961e-08
4.81863e-07
-8.23163e-08
4.86072e-07
-7.68842e-08
4.90031e-07
-7.16144e-08
4.93744e-07
-6.65201e-08
4.97215e-07
-6.16124e-08
5.00448e-07
-5.69005e-08
5.03449e-07
-5.23916e-08
5.06225e-07
-4.8091e-08
5.08783e-07
-4.4002e-08
5.11132e-07
-4.01261e-08
5.13279e-07
-3.64629e-08
5.15233e-07
-3.30105e-08
5.17004e-07
-2.97656e-08
5.18599e-07
-2.67235e-08
-2.38785e-08
2.34611e-07
-2.35308e-07
2.4612e-07
-2.37417e-07
2.57136e-07
-2.38693e-07
2.67681e-07
-2.39223e-07
2.77785e-07
-2.39082e-07
2.87482e-07
-2.3834e-07
2.96807e-07
-2.37059e-07
3.05795e-07
-2.35292e-07
3.14481e-07
-2.33087e-07
3.22896e-07
-2.30485e-07
3.31071e-07
-2.2752e-07
3.39031e-07
-2.24222e-07
3.46799e-07
-2.20617e-07
3.54396e-07
-2.16727e-07
3.61837e-07
-2.12572e-07
3.69134e-07
-2.08169e-07
3.76299e-07
-2.03533e-07
3.83337e-07
-1.98679e-07
3.90252e-07
-1.93621e-07
3.97046e-07
-1.88372e-07
4.03717e-07
-1.82946e-07
4.10264e-07
-1.77358e-07
4.16682e-07
-1.71623e-07
4.22966e-07
-1.65756e-07
4.29108e-07
-1.59774e-07
4.35102e-07
-1.53694e-07
4.40939e-07
-1.47536e-07
4.46612e-07
-1.4132e-07
4.52114e-07
-1.35065e-07
4.57435e-07
-1.28793e-07
4.62569e-07
-1.22526e-07
4.6751e-07
-1.16285e-07
4.72251e-07
-1.10092e-07
4.76788e-07
-1.03968e-07
4.81116e-07
-9.79354e-08
4.85233e-07
-9.2013e-08
4.89137e-07
-8.62199e-08
4.92826e-07
-8.05737e-08
4.96302e-07
-7.50902e-08
4.99565e-07
-6.97834e-08
5.02619e-07
-6.46657e-08
5.05465e-07
-5.97471e-08
5.0811e-07
-5.50358e-08
5.10556e-07
-5.05377e-08
5.12811e-07
-4.6257e-08
5.14881e-07
-4.21956e-08
5.16772e-07
-3.83537e-08
5.18491e-07
-3.47298e-08
5.20046e-07
-3.13209e-08
5.21445e-07
-2.81225e-08
5.22696e-07
-2.51289e-08
-2.23336e-08
2.95755e-07
-2.45225e-07
3.05089e-07
-2.46751e-07
3.13881e-07
-2.47486e-07
3.22179e-07
-2.47521e-07
3.30033e-07
-2.46935e-07
3.37491e-07
-2.45799e-07
3.44604e-07
-2.44171e-07
3.51417e-07
-2.42105e-07
3.57971e-07
-2.39642e-07
3.64306e-07
-2.3682e-07
3.70456e-07
-2.3367e-07
3.76451e-07
-2.30216e-07
3.82315e-07
-2.26481e-07
3.88071e-07
-2.22483e-07
3.93735e-07
-2.18236e-07
3.9932e-07
-2.13754e-07
4.04836e-07
-2.09049e-07
4.10289e-07
-2.04133e-07
4.15684e-07
-1.99015e-07
4.2102e-07
-1.93708e-07
4.26295e-07
-1.88222e-07
4.31507e-07
-1.8257e-07
4.36649e-07
-1.76765e-07
4.41715e-07
-1.70822e-07
4.46698e-07
-1.64756e-07
4.51587e-07
-1.58584e-07
4.56376e-07
-1.52325e-07
4.61053e-07
-1.45997e-07
4.6561e-07
-1.39622e-07
4.70037e-07
-1.3322e-07
4.74326e-07
-1.26815e-07
4.78469e-07
-1.20428e-07
4.82458e-07
-1.14081e-07
4.86288e-07
-1.07798e-07
4.89951e-07
-1.01599e-07
4.93445e-07
-9.55065e-08
4.96765e-07
-8.95398e-08
4.99909e-07
-8.37176e-08
5.02875e-07
-7.80568e-08
5.05664e-07
-7.25726e-08
5.08277e-07
-6.72781e-08
5.10714e-07
-6.21845e-08
5.12979e-07
-5.73008e-08
5.15075e-07
-5.26337e-08
5.17006e-07
-4.81881e-08
5.18777e-07
-4.39666e-08
5.20394e-07
-3.99698e-08
5.2186e-07
-3.61967e-08
5.23184e-07
-3.26446e-08
5.24371e-07
-2.93094e-08
5.25428e-07
-2.61854e-08
-2.32662e-08
3.82549e-07
-2.52787e-07
3.89473e-07
-2.53674e-07
3.95831e-07
-2.53844e-07
4.01697e-07
-2.53386e-07
4.07139e-07
-2.52377e-07
4.12223e-07
-2.50883e-07
4.17009e-07
-2.48958e-07
4.21553e-07
-2.46648e-07
4.25902e-07
-2.43991e-07
4.301e-07
-2.41018e-07
4.34184e-07
-2.37754e-07
4.38185e-07
-2.34217e-07
4.42129e-07
-2.30426e-07
4.46038e-07
-2.26392e-07
4.49928e-07
-2.22126e-07
4.53812e-07
-2.17637e-07
4.57697e-07
-2.12934e-07
4.61588e-07
-2.08024e-07
4.65487e-07
-2.02915e-07
4.69394e-07
-1.97614e-07
4.73304e-07
-1.92132e-07
4.77211e-07
-1.86477e-07
4.81108e-07
-1.80663e-07
4.84986e-07
-1.747e-07
4.88836e-07
-1.68606e-07
4.92646e-07
-1.62394e-07
4.96405e-07
-1.56084e-07
5.00102e-07
-1.49694e-07
5.03725e-07
-1.43245e-07
5.07264e-07
-1.36759e-07
5.10706e-07
-1.30258e-07
5.14043e-07
-1.23765e-07
5.17266e-07
-1.17303e-07
5.20365e-07
-1.10897e-07
5.23333e-07
-1.04568e-07
5.26165e-07
-9.83383e-08
5.28855e-07
-9.22297e-08
5.31399e-07
-8.62615e-08
5.33794e-07
-8.04518e-08
5.36038e-07
-7.48169e-08
5.38131e-07
-6.93709e-08
5.40073e-07
-6.41261e-08
5.41864e-07
-5.90923e-08
5.43507e-07
-5.42772e-08
5.45006e-07
-4.96862e-08
5.46362e-07
-4.53227e-08
5.4758e-07
-4.1188e-08
5.48665e-07
-3.72814e-08
5.49621e-07
-3.36007e-08
5.50453e-07
-3.01419e-08
5.51168e-07
-2.68998e-08
-2.38678e-08
4.11935e-07
-2.56797e-07
4.15424e-07
-2.57164e-07
4.18477e-07
-2.56897e-07
4.21172e-07
-2.5608e-07
4.23578e-07
-2.54783e-07
4.2576e-07
-2.53064e-07
4.27773e-07
-2.50971e-07
4.29667e-07
-2.48542e-07
4.31484e-07
-2.45808e-07
4.33261e-07
-2.42795e-07
4.35029e-07
-2.39521e-07
4.36812e-07
-2.36001e-07
4.38632e-07
-2.32246e-07
4.40505e-07
-2.28264e-07
4.42442e-07
-2.24063e-07
4.44452e-07
-2.19647e-07
4.46538e-07
-2.15021e-07
4.48704e-07
-2.1019e-07
4.50948e-07
-2.05158e-07
4.53267e-07
-1.99933e-07
4.55654e-07
-1.94519e-07
4.58104e-07
-1.88927e-07
4.60607e-07
-1.83165e-07
4.63153e-07
-1.77247e-07
4.65732e-07
-1.71184e-07
4.68332e-07
-1.64994e-07
4.70941e-07
-1.58693e-07
4.73548e-07
-1.52301e-07
4.7614e-07
-1.45837e-07
4.78706e-07
-1.39325e-07
4.81235e-07
-1.32787e-07
4.83717e-07
-1.26246e-07
4.8614e-07
-1.19727e-07
4.88497e-07
-1.13254e-07
4.90779e-07
-1.0685e-07
4.92979e-07
-1.00538e-07
4.95092e-07
-9.43418e-08
4.97111e-07
-8.82804e-08
4.99032e-07
-8.23734e-08
5.00853e-07
-7.66379e-08
5.02571e-07
-7.10892e-08
5.04186e-07
-6.57403e-08
5.05695e-07
-6.06019e-08
5.07101e-07
-5.56825e-08
5.08403e-07
-5.09883e-08
5.09603e-07
-4.65231e-08
5.10704e-07
-4.22888e-08
5.11707e-07
-3.82852e-08
5.12617e-07
-3.45105e-08
5.13436e-07
-3.0961e-08
5.14168e-07
-2.76316e-08
-2.45162e-08
4.28065e-07
-2.57918e-07
4.28816e-07
-2.57915e-07
4.29278e-07
-2.57359e-07
4.29523e-07
-2.56325e-07
4.29614e-07
-2.54874e-07
4.29605e-07
-2.53056e-07
4.29545e-07
-2.5091e-07
4.29472e-07
-2.48469e-07
4.29422e-07
-2.45758e-07
4.29422e-07
-2.42795e-07
4.29496e-07
-2.39595e-07
4.29662e-07
-2.36167e-07
4.29935e-07
-2.32519e-07
4.30325e-07
-2.28655e-07
4.3084e-07
-2.24578e-07
4.31484e-07
-2.20291e-07
4.32259e-07
-2.15796e-07
4.33163e-07
-2.11094e-07
4.34194e-07
-2.06189e-07
4.35346e-07
-2.01085e-07
4.36613e-07
-1.95786e-07
4.37986e-07
-1.903e-07
4.39456e-07
-1.84635e-07
4.41013e-07
-1.78803e-07
4.42645e-07
-1.72816e-07
4.4434e-07
-1.6669e-07
4.46088e-07
-1.60441e-07
4.47876e-07
-1.54088e-07
4.49692e-07
-1.47653e-07
4.51524e-07
-1.41157e-07
4.53362e-07
-1.34624e-07
4.55194e-07
-1.28078e-07
4.57012e-07
-1.21544e-07
4.58805e-07
-1.15047e-07
4.60566e-07
-1.0861e-07
4.62286e-07
-1.02259e-07
4.6396e-07
-9.60156e-08
4.65581e-07
-8.99017e-08
4.67145e-07
-8.39373e-08
4.68648e-07
-7.81405e-08
4.70086e-07
-7.25274e-08
4.71457e-07
-6.71117e-08
4.7276e-07
-6.19049e-08
4.73994e-07
-5.69162e-08
4.75158e-07
-5.21524e-08
4.76253e-07
-4.76179e-08
4.77279e-07
-4.3315e-08
4.78238e-07
-3.92442e-08
4.79131e-07
-3.54037e-08
4.79961e-07
-3.17903e-08
4.80728e-07
-2.83992e-08
4.81436e-07
-2.52243e-08
-2.22585e-08
4.33105e-07
-2.5686e-07
4.31825e-07
-2.56635e-07
4.30394e-07
-2.55928e-07
4.28872e-07
-2.54803e-07
4.27311e-07
-2.53313e-07
4.25754e-07
-2.51499e-07
4.24238e-07
-2.49394e-07
4.22792e-07
-2.47024e-07
4.21443e-07
-2.44409e-07
4.20211e-07
-2.41563e-07
4.19111e-07
-2.38495e-07
4.18157e-07
-2.35213e-07
4.17357e-07
-2.31719e-07
4.16718e-07
-2.28016e-07
4.16244e-07
-2.24103e-07
4.15935e-07
-2.19982e-07
4.15791e-07
-2.15652e-07
4.15808e-07
-2.11112e-07
4.15983e-07
-2.06364e-07
4.16308e-07
-2.0141e-07
4.16777e-07
-1.96255e-07
4.1738e-07
-1.90903e-07
4.18108e-07
-1.85364e-07
4.18951e-07
-1.79646e-07
4.19897e-07
-1.73762e-07
4.20935e-07
-1.67728e-07
4.22053e-07
-1.61559e-07
4.23241e-07
-1.55276e-07
4.24486e-07
-1.48898e-07
4.25778e-07
-1.42449e-07
4.27105e-07
-1.35952e-07
4.28458e-07
-1.29431e-07
4.29827e-07
-1.22913e-07
4.31203e-07
-1.16422e-07
4.32577e-07
-1.09985e-07
4.33942e-07
-1.03624e-07
4.35292e-07
-9.73654e-08
4.3662e-07
-9.123e-08
4.37922e-07
-8.5239e-08
4.39193e-07
-7.94112e-08
4.40429e-07
-7.37634e-08
4.41627e-07
-6.83101e-08
4.42786e-07
-6.30635e-08
4.43903e-07
-5.80331e-08
4.44977e-07
-5.32265e-08
4.46008e-07
-4.86486e-08
4.46995e-07
-4.43022e-08
4.47939e-07
-4.0188e-08
4.4884e-07
-3.63046e-08
4.49699e-07
-3.26491e-08
4.50516e-07
-2.92171e-08
4.51295e-07
-2.60025e-08
4.52035e-07
-2.29984e-08
-2.0197e-08
4.29417e-07
-2.54292e-07
4.26754e-07
-2.53971e-07
4.24051e-07
-2.53225e-07
4.21356e-07
-2.52109e-07
4.18709e-07
-2.50666e-07
4.16142e-07
-2.48932e-07
4.13681e-07
-2.46933e-07
4.11349e-07
-2.44692e-07
4.09162e-07
-2.42222e-07
4.07134e-07
-2.39535e-07
4.05276e-07
-2.36638e-07
4.03596e-07
-2.33533e-07
4.02099e-07
-2.30222e-07
4.00788e-07
-2.26704e-07
3.99663e-07
-2.22979e-07
3.98725e-07
-2.19044e-07
3.9797e-07
-2.14896e-07
3.97393e-07
-2.10536e-07
3.96991e-07
-2.05961e-07
3.96755e-07
-2.01175e-07
3.96678e-07
-1.96178e-07
3.96752e-07
-1.90977e-07
3.96966e-07
-1.85578e-07
3.97311e-07
-1.79991e-07
3.97776e-07
-1.74228e-07
3.98351e-07
-1.68303e-07
3.99024e-07
-1.62233e-07
3.99785e-07
-1.56037e-07
4.00624e-07
-1.49736e-07
4.01528e-07
-1.43354e-07
4.02489e-07
-1.36913e-07
4.03497e-07
-1.30439e-07
4.04543e-07
-1.23959e-07
4.05617e-07
-1.17497e-07
4.06713e-07
-1.11081e-07
4.07824e-07
-1.04735e-07
4.08942e-07
-9.84833e-08
4.10061e-07
-9.23498e-08
4.11178e-07
-8.63554e-08
4.12286e-07
-8.05198e-08
4.13383e-07
-7.48603e-08
4.14465e-07
-6.9392e-08
4.15529e-07
-6.41276e-08
4.16573e-07
-5.90774e-08
4.17596e-07
-5.42493e-08
4.18596e-07
-4.96485e-08
4.19572e-07
-4.52784e-08
4.20524e-07
-4.11399e-08
4.21452e-07
-3.72321e-08
4.22355e-07
-3.35523e-08
4.23234e-07
-3.00961e-08
4.24089e-07
-2.68579e-08
4.24922e-07
-2.38307e-08
-2.10069e-08
4.1928e-07
-2.50788e-07
4.15775e-07
-2.50466e-07
4.12311e-07
-2.49762e-07
4.08925e-07
-2.48722e-07
4.05643e-07
-2.47385e-07
4.0249e-07
-2.45779e-07
3.99485e-07
-2.43928e-07
3.96641e-07
-2.41848e-07
3.93972e-07
-2.39553e-07
3.91485e-07
-2.37048e-07
3.89187e-07
-2.3434e-07
3.87082e-07
-2.31428e-07
3.85174e-07
-2.28313e-07
3.83462e-07
-2.24993e-07
3.81946e-07
-2.21463e-07
3.80624e-07
-2.17721e-07
3.79492e-07
-2.13764e-07
3.78545e-07
-2.09589e-07
3.77778e-07
-2.05194e-07
3.77184e-07
-2.0058e-07
3.76755e-07
-1.95749e-07
3.76483e-07
-1.90705e-07
3.76359e-07
-1.85454e-07
3.76374e-07
-1.80005e-07
3.76517e-07
-1.74371e-07
3.76779e-07
-1.68565e-07
3.77149e-07
-1.62603e-07
3.77619e-07
-1.56506e-07
3.78177e-07
-1.50294e-07
3.78814e-07
-1.43991e-07
3.79521e-07
-1.3762e-07
3.8029e-07
-1.31207e-07
3.81111e-07
-1.2478e-07
3.81976e-07
-1.18363e-07
3.82879e-07
-1.11984e-07
3.83813e-07
-1.05669e-07
3.84772e-07
-9.94419e-08
3.8575e-07
-9.33274e-08
3.86741e-07
-8.73471e-08
3.87743e-07
-8.15212e-08
3.8875e-07
-7.58675e-08
3.8976e-07
-7.04016e-08
3.90769e-07
-6.51368e-08
3.91775e-07
-6.00837e-08
3.92776e-07
-5.52506e-08
3.93771e-07
-5.06432e-08
3.94758e-07
-4.62652e-08
3.95736e-07
-4.21177e-08
3.96704e-07
-3.82003e-08
3.97662e-07
-3.45102e-08
3.98609e-07
-3.10436e-08
3.99546e-07
-2.77948e-08
4.00472e-07
-2.4757e-08
-2.19228e-08
4.04703e-07
-2.46799e-07
4.00777e-07
-2.46539e-07
3.96943e-07
-2.45928e-07
3.93228e-07
-2.45007e-07
3.89652e-07
-2.43809e-07
3.86231e-07
-2.42358e-07
3.82978e-07
-2.40675e-07
3.79903e-07
-2.38773e-07
3.77013e-07
-2.36663e-07
3.74315e-07
-2.3435e-07
3.71811e-07
-2.31836e-07
3.69504e-07
-2.29121e-07
3.67395e-07
-2.26204e-07
3.65483e-07
-2.23081e-07
3.63767e-07
-2.19747e-07
3.62243e-07
-2.16198e-07
3.60908e-07
-2.12429e-07
3.59757e-07
-2.08438e-07
3.58784e-07
-2.04222e-07
3.57984e-07
-1.9978e-07
3.57348e-07
-1.95113e-07
3.56869e-07
-1.90226e-07
3.56539e-07
-1.85124e-07
3.56349e-07
-1.79815e-07
3.5629e-07
-1.74312e-07
3.56354e-07
-1.68628e-07
3.56531e-07
-1.6278e-07
3.56811e-07
-1.56787e-07
3.57187e-07
-1.5067e-07
3.57649e-07
-1.44453e-07
3.58189e-07
-1.3816e-07
3.588e-07
-1.31818e-07
3.59472e-07
-1.25452e-07
3.602e-07
-1.19091e-07
3.60976e-07
-1.1276e-07
3.61795e-07
-1.06488e-07
3.62651e-07
-1.00298e-07
3.63538e-07
-9.42147e-08
3.64452e-07
-8.82613e-08
3.65389e-07
-8.24581e-08
3.66345e-07
-7.68233e-08
3.67317e-07
-7.13731e-08
3.68301e-07
-6.61211e-08
3.69296e-07
-6.10782e-08
3.70298e-07
-5.62531e-08
3.71307e-07
-5.16519e-08
3.7232e-07
-4.72785e-08
3.73337e-07
-4.31342e-08
3.74355e-07
-3.92189e-08
3.75375e-07
-3.55301e-08
3.76395e-07
-3.20639e-08
3.77416e-07
-2.88151e-08
3.78436e-07
-2.57769e-08
-2.29419e-08
3.87336e-07
-2.42658e-07
3.83293e-07
-2.42496e-07
3.79371e-07
-2.42006e-07
3.75589e-07
-2.41225e-07
3.7196e-07
-2.4018e-07
3.68497e-07
-2.38895e-07
3.65207e-07
-2.37385e-07
3.62099e-07
-2.35665e-07
3.59176e-07
-2.3374e-07
3.56442e-07
-2.31616e-07
3.53899e-07
-2.29293e-07
3.51548e-07
-2.2677e-07
3.49389e-07
-2.24045e-07
3.4742e-07
-2.21112e-07
3.4564e-07
-2.17967e-07
3.44046e-07
-2.14604e-07
3.42635e-07
-2.11017e-07
3.414e-07
-2.07204e-07
3.40338e-07
-2.0316e-07
3.39442e-07
-1.98884e-07
3.38705e-07
-1.94377e-07
3.38122e-07
-1.89643e-07
3.37684e-07
-1.84686e-07
3.37384e-07
-1.79515e-07
3.37213e-07
-1.74141e-07
3.37164e-07
-1.68579e-07
3.37228e-07
-1.62844e-07
3.37398e-07
-1.56957e-07
3.37665e-07
-1.50937e-07
3.38022e-07
-1.4481e-07
3.38461e-07
-1.38599e-07
3.38975e-07
-1.32332e-07
3.39557e-07
-1.26035e-07
3.40201e-07
-1.19735e-07
3.40901e-07
-1.13461e-07
3.41652e-07
-1.07238e-07
3.42447e-07
-1.01093e-07
3.43284e-07
-9.50509e-08
3.44156e-07
-8.91338e-08
3.45061e-07
-8.33629e-08
3.45995e-07
-7.7757e-08
3.46954e-07
-7.23325e-08
3.47936e-07
-6.71033e-08
3.48939e-07
-6.20807e-08
3.49959e-07
-5.72737e-08
3.50996e-07
-5.26887e-08
3.52047e-07
-4.83295e-08
3.53111e-07
-4.41982e-08
3.54187e-07
-4.02943e-08
3.55272e-07
-3.66159e-08
3.56368e-07
-3.31591e-08
3.57471e-07
-2.99188e-08
3.58583e-07
-2.68884e-08
-2.40604e-08
3.68461e-07
-2.38591e-07
3.6451e-07
-2.38545e-07
3.60691e-07
-2.38187e-07
3.57018e-07
-2.37551e-07
3.535e-07
-2.36663e-07
3.50147e-07
-2.35541e-07
3.46964e-07
-2.34203e-07
3.43956e-07
-2.32657e-07
3.41126e-07
-2.3091e-07
3.38477e-07
-2.28966e-07
3.36008e-07
-2.26825e-07