/*--------------------------------*- C++ -*----------------------------------*\
  =========                 |
  \\      /  F ield         | OpenFOAM: The Open Source CFD Toolbox
   \\    /   O peration     | Website:  https://openfoam.org
    \\  /    A nd           | Version:  6
     \\/     M anipulation  |
\*---------------------------------------------------------------------------*/
FoamFile
{
    version     2.0;
    format      ascii;
    class       volVectorField;
    location    "0.07";
    object      U;
}
// * * * * * * * * * * * * * * * * * * * * * * * * * * * * * * * * * * * * * //

dimensions      [0 1 -1 0 0 0 0];

internalField   nonuniform List<vector> 
3032
(
(-0.155462 -0.0201444 0)
(-0.137242 -0.0206621 -2.8172e-21)
(-0.118587 -0.0210918 -3.21578e-21)
(-0.0995833 -0.0214242 -3.6238e-21)
(-0.0803159 -0.0216459 0)
(-0.0608724 -0.0217387 4.46569e-21)
(-0.0413391 -0.0216791 0)
(-0.0217862 -0.0214427 -5.31543e-21)
(-0.00225224 -0.0210307 -5.55973e-21)
(0.0172391 -0.0205035 0)
(0.0366313 -0.0199229 0)
(0.0558432 -0.0193083 0)
(0.0748137 -0.0186685 -5.7527e-21)
(0.0934898 -0.0180099 0)
(0.111824 -0.017337 0)
(0.129775 -0.0166535 0)
(0.147303 -0.0159628 0)
(0.164373 -0.015268 0)
(0.180955 -0.0145719 0)
(0.197022 -0.0138773 0)
(0.212549 -0.0131868 0)
(0.227517 -0.0125028 5.50873e-21)
(0.241908 -0.0118278 0)
(0.25571 -0.011164 0)
(0.268914 -0.0105134 -5.33865e-21)
(0.281512 -0.00987807 -5.27897e-21)
(0.293502 -0.00925976 0)
(0.304883 -0.00866013 5.15809e-21)
(0.31566 -0.00808065 -5.09766e-21)
(0.325839 -0.00752261 0)
(0.335428 -0.00698711 4.97833e-21)
(0.344438 -0.00647504 0)
(0.352884 -0.00598708 0)
(0.360782 -0.00552371 -4.80635e-21)
(0.36815 -0.0050852 0)
(0.375006 -0.0046716 4.69803e-21)
(0.381371 -0.00428281 0)
(0.387268 -0.00391851 -4.59548e-21)
(0.392718 -0.00357822 -4.54645e-21)
(0.397745 -0.00326135 -4.49894e-21)
(0.402372 -0.00296713 -8.90584e-21)
(0.406621 -0.00269473 8.81677e-21)
(0.410517 -0.00244319 0)
(0.414081 -0.00221152 0)
(0.417335 -0.00199867 0)
(0.420302 -0.00180356 8.48883e-21)
(0.423002 -0.00162511 8.41352e-21)
(0.425454 -0.00146224 -8.3407e-21)
(0.427678 -0.00131391 0)
(-0.143354 -0.040946 2.1336e-21)
(-0.125655 -0.0417623 -1.07743e-21)
(-0.107517 -0.0423903 1.59511e-21)
(-0.0890121 -0.042833 4.98922e-21)
(-0.0702093 -0.0430942 -3.57466e-21)
(-0.0511735 -0.0431768 -2.14506e-21)
(-0.0319654 -0.0430826 0)
(-0.0126505 -0.0428104 2.49151e-21)
(0.00668428 -0.0423604 -2.2725e-21)
(0.0259519 -0.0417528 0)
(0.0450971 -0.0410161 0)
(0.0640804 -0.0401708 0)
(0.0828572 -0.0392317 2.95224e-21)
(0.101382 -0.0382112 0)
(0.11961 -0.0371198 -5.87117e-21)
(0.137503 -0.0359673 0)
(0.155022 -0.0347626 -6.08051e-21)
(0.172134 -0.0335145 0)
(0.188809 -0.0322312 6.24068e-21)
(0.205018 -0.0309207 0)
(0.220739 -0.0295905 -6.35817e-21)
(0.235949 -0.0282478 3.1059e-21)
(0.250631 -0.0268996 0)
(0.264771 -0.0255527 6.46792e-21)
(0.278355 -0.0242132 3.32383e-21)
(0.291376 -0.0228871 3.32637e-21)
(0.303827 -0.0215801 0)
(0.315704 -0.0202973 3.19553e-21)
(0.327009 -0.0190436 3.31912e-21)
(0.337741 -0.0178233 0)
(0.347907 -0.0166405 -3.30455e-21)
(0.357514 -0.0154984 6.49564e-21)
(0.36657 -0.0144001 0)
(0.375088 -0.0133479 3.27243e-21)
(0.38308 -0.0123437 0)
(0.390562 -0.011389 -9.67097e-21)
(0.397551 -0.0104846 0)
(0.404065 -0.00963094 9.59535e-21)
(0.410122 -0.00882793 3.20221e-21)
(0.415743 -0.0080751 -3.1395e-21)
(0.420948 -0.00737163 -6.25589e-21)
(0.425757 -0.00671631 6.23174e-21)
(0.430193 -0.00610769 0)
(0.434276 -0.00554405 0)
(0.438028 -0.00502351 0)
(0.441468 -0.00454401 -1.84894e-20)
(0.444617 -0.00410345 -6.14857e-21)
(0.447495 -0.00369963 6.11646e-21)
(0.450121 -0.00333036 0)
(-0.130182 -0.0651908 -2.65132e-21)
(-0.113018 -0.0663831 3.11243e-21)
(-0.0954292 -0.0672741 1.68247e-21)
(-0.0774847 -0.067873 -2.12362e-21)
(-0.0592507 -0.0681915 2.13683e-22)
(-0.0407911 -0.0682439 -2.36978e-21)
(-0.0221672 -0.0680467 0)
(-0.00344209 -0.0676197 -2.79607e-21)
(0.0153142 -0.0669816 2.10522e-22)
(0.0340356 -0.066148 0)
(0.0526675 -0.0651303 0)
(0.0711628 -0.0639435 3.41511e-21)
(0.0894748 -0.0626039 0)
(0.107559 -0.0611275 0)
(0.125375 -0.0595298 -3.60983e-21)
(0.142884 -0.0578255 -7.7823e-21)
(0.160051 -0.0560291 4.15104e-21)
(0.176844 -0.0541542 0)
(0.193233 -0.052214 -4.31138e-21)
(0.209193 -0.050221 0)
(0.224699 -0.0481873 -4.17575e-21)
(0.239732 -0.0461245 -4.50078e-21)
(0.254274 -0.0440436 8.86241e-21)
(0.268309 -0.0419552 4.36937e-21)
(0.281825 -0.0398693 0)
(0.294812 -0.0377955 -9.14485e-21)
(0.307262 -0.0357428 0)
(0.319171 -0.0337197 -1.40184e-20)
(0.330537 -0.0317341 -9.3444e-21)
(0.341359 -0.0297933 -9.3951e-21)
(0.351639 -0.0279038 9.43874e-21)
(0.361383 -0.0260715 -1.42813e-20)
(0.370598 -0.0243018 0)
(0.379291 -0.0225989 0)
(0.387474 -0.0209666 9.55137e-21)
(0.39516 -0.0194078 1.43989e-20)
(0.402362 -0.0179245 0)
(0.409095 -0.0165182 -4.8332e-21)
(0.415377 -0.0151896 0)
(0.421225 -0.0139385 1.44073e-20)
(0.426658 -0.0127644 6.58074e-23)
(0.431694 -0.0116661 -6.0307e-23)
(0.436353 -0.0106417 -9.55469e-21)
(0.440655 -0.0096892 0)
(0.44462 -0.00880602 9.52341e-21)
(0.448267 -0.00798936 4.20453e-23)
(0.451616 -0.00723619 0)
(0.454685 -0.00654332 0)
(0.457494 -0.00590745 0)
(-0.11597 -0.0900692 9.83481e-22)
(-0.0992372 -0.0917214 -1.1653e-21)
(-0.0821013 -0.0929609 -1.34677e-21)
(-0.0646302 -0.0938016 0)
(-0.0468896 -0.09426 1.70716e-21)
(-0.0289428 -0.094356 1.88541e-21)
(-0.010851 -0.0941114 -3.85486e-21)
(0.00732592 -0.0935484 2.20202e-21)
(0.0255295 -0.0926905 2.33899e-21)
(0.0437039 -0.0915598 0)
(0.0617977 -0.0901775 0)
(0.0797632 -0.0885659 -2.70916e-21)
(0.0975559 -0.0867472 0)
(0.115134 -0.0847429 0)
(0.13246 -0.0825739 6.03857e-21)
(0.149497 -0.0802601 6.21995e-21)
(0.166214 -0.0778209 0)
(0.18258 -0.0752745 0)
(0.198569 -0.0726386 0)
(0.214155 -0.0699299 0)
(0.229318 -0.0671645 6.95616e-21)
(0.244036 -0.0643577 -6.91059e-21)
(0.258294 -0.0615242 -7.18015e-21)
(0.272076 -0.058678 -1.44104e-20)
(0.285371 -0.0558325 0)
(0.298167 -0.0530001 1.33406e-22)
(0.310457 -0.0501931 0)
(0.322235 -0.0474226 7.5975e-21)
(0.333499 -0.0446993 1.12876e-22)
(0.344246 -0.0420329 7.71628e-21)
(0.354477 -0.0394324 -7.76681e-21)
(0.364196 -0.0369059 9.38815e-23)
(0.373408 -0.0344607 0)
(0.382118 -0.032103 -7.80435e-21)
(0.390336 -0.029838 -7.91689e-21)
(0.398073 -0.0276701 -1.58138e-20)
(0.40534 -0.0256025 0)
(0.412151 -0.0236376 7.92011e-21)
(0.41852 -0.0217767 0)
(0.424463 -0.0200203 -1.59595e-20)
(0.429997 -0.0183679 8.01344e-21)
(0.435139 -0.0168184 -8.01737e-21)
(0.439908 -0.0153698 8.01838e-21)
(0.444321 -0.0140196 1.59559e-20)
(0.448398 -0.0127648 -8.0124e-21)
(0.452156 -0.0116018 8.00578e-21)
(0.455614 -0.0105269 0)
(0.458791 -0.00953576 -1.59174e-20)
(0.461704 -0.00862422 0)
(-0.0998499 -0.114425 1.32487e-21)
(-0.0834671 -0.116503 1.64429e-21)
(-0.066715 -0.11806 1.96208e-21)
(-0.0496601 -0.119115 0)
(-0.0323666 -0.119691 -2.5898e-21)
(-0.0148961 -0.119813 0)
(0.00269228 -0.119507 6.51216e-21)
(0.0203422 -0.118799 0)
(0.0380006 -0.117719 -3.67389e-21)
(0.0556171 -0.116295 0)
(0.073145 -0.114558 4.13177e-21)
(0.0905406 -0.112535 0)
(0.107764 -0.110254 0)
(0.124776 -0.107743 0)
(0.141544 -0.105027 0)
(0.158036 -0.102131 0)
(0.174222 -0.0990788 0)
(0.190075 -0.0958935 0)
(0.205571 -0.0925962 5.53606e-21)
(0.220687 -0.0892077 0)
(0.235405 -0.0857475 0)
(0.249705 -0.0822342 6.02184e-21)
(0.263573 -0.0786857 0)
(0.276993 -0.0751191 6.22231e-21)
(0.289955 -0.0715506 6.21201e-21)
(0.302449 -0.0679956 6.3951e-21)
(0.314466 -0.0644688 0)
(0.326001 -0.060984 0)
(0.337049 -0.0575543 6.6083e-21)
(0.347608 -0.0541917 -1.31807e-20)
(0.357679 -0.0509075 0)
(0.367262 -0.0477118 2.01803e-20)
(0.376362 -0.0446138 0)
(0.384983 -0.0416214 6.85956e-21)
(0.393133 -0.0387417 0)
(0.40082 -0.0359802 6.92888e-21)
(0.408055 -0.0333415 1.3813e-20)
(0.414849 -0.030829 -6.98261e-21)
(0.421215 -0.0284448 0)
(0.427167 -0.0261899 7.02209e-21)
(0.43272 -0.0240644 -1.39961e-20)
(0.437891 -0.0220673 0)
(0.442694 -0.0201965 0)
(0.447149 -0.0184494 -1.41269e-20)
(0.451271 -0.0168226 0)
(0.455079 -0.015312 1.40824e-20)
(0.458589 -0.0139131 0)
(0.461819 -0.012621 1.41265e-20)
(0.464787 -0.0114305 0)
(-0.0812259 -0.13831 -1.22507e-21)
(-0.0651371 -0.140754 -1.51871e-21)
(-0.0487255 -0.142571 -1.81008e-21)
(-0.0320565 -0.143787 -1.96027e-21)
(-0.0151926 -0.14443 2.37928e-21)
(0.00180695 -0.14453 0)
(0.0188864 -0.144121 -2.88517e-21)
(0.0359939 -0.143237 0)
(0.053081 -0.141913 1.22483e-22)
(0.070103 -0.140184 0)
(0.0870184 -0.138085 -7.39811e-21)
(0.103789 -0.135651 0)
(0.120379 -0.132916 4.0207e-21)
(0.136757 -0.12991 0)
(0.152892 -0.126666 0)
(0.168758 -0.123211 9.037e-21)
(0.184328 -0.119573 0)
(0.199579 -0.11578 0)
(0.214492 -0.111855 -5.03231e-21)
(0.229045 -0.107823 0)
(0.243222 -0.103706 0)
(0.257007 -0.099526 1.05692e-20)
(0.270386 -0.0953032 0)
(0.283346 -0.0910572 -1.09642e-20)
(0.295876 -0.0868068 -5.64867e-21)
(0.307968 -0.0825698 0)
(0.319612 -0.0783631 1.14661e-20)
(0.330805 -0.0742029 0)
(0.34154 -0.0701042 -1.17467e-20)
(0.351815 -0.0660813 2.38676e-20)
(0.36163 -0.0621473 0)
(0.370985 -0.0583144 -1.22071e-20)
(0.379882 -0.0545935 0)
(0.388325 -0.0509943 0)
(0.39632 -0.0475251 -1.23684e-20)
(0.403874 -0.0441933 0)
(0.410996 -0.0410044 -1.25949e-20)
(0.417696 -0.0379629 1.2572e-20)
(0.423984 -0.0350718 0)
(0.429874 -0.032333 0)
(0.435379 -0.0297469 1.27789e-20)
(0.440513 -0.0273128 -1.27488e-20)
(0.445292 -0.0250288 -1.27779e-20)
(0.44973 -0.0228923 -1.28014e-20)
(0.453844 -0.0208996 0)
(0.45765 -0.0190461 -1.28789e-20)
(0.461165 -0.017327 -1.28416e-20)
(0.464405 -0.0157367 0)
(0.467386 -0.0142691 0)
(-0.0596137 -0.161856 0)
(-0.0437908 -0.16459 1.18755e-21)
(-0.0277057 -0.166593 -1.47126e-21)
(-0.0114224 -0.167898 1.86014e-21)
(0.00499884 -0.168541 -4.0111e-21)
(0.0215025 -0.168559 0)
(0.0380375 -0.167995 4.96915e-21)
(0.0545573 -0.166889 -5.41688e-21)
(0.0710196 -0.165284 -2.82521e-21)
(0.0873855 -0.163221 0)
(0.10362 -0.160742 3.41049e-21)
(0.119691 -0.157886 0)
(0.135569 -0.154692 -3.7636e-21)
(0.151227 -0.151195 0)
(0.166642 -0.147431 0)
(0.18179 -0.143433 -8.44978e-21)
(0.196652 -0.139231 0)
(0.211208 -0.134855 8.8246e-21)
(0.225441 -0.130332 0)
(0.239334 -0.125689 0)
(0.252874 -0.120951 0)
(0.266047 -0.116141 -1.95915e-20)
(0.278841 -0.111283 -9.91895e-21)
(0.291244 -0.106397 1.02295e-20)
(0.303248 -0.101506 1.02693e-20)
(0.314843 -0.0966269 0)
(0.326022 -0.0917805 -1.06925e-20)
(0.33678 -0.0869842 0)
(0.347112 -0.082255 1.0952e-20)
(0.357015 -0.077609 -1.01587e-22)
(0.366487 -0.073061 0)
(0.375529 -0.0686249 0)
(0.38414 -0.0643133 1.12802e-20)
(0.392326 -0.0601374 0)
(0.400089 -0.0561071 1.15306e-20)
(0.407435 -0.052231 0)
(0.414372 -0.0485159 -1.15942e-20)
(0.420908 -0.0449674 -1.1723e-20)
(0.427053 -0.0415894 0)
(0.432817 -0.0383846 0)
(0.438214 -0.0353538 0)
(0.443254 -0.0324969 1.18937e-20)
(0.447953 -0.0298123 1.19225e-20)
(0.452324 -0.0272972 1.19462e-20)
(0.456382 -0.024948 0)
(0.460143 -0.0227599 0)
(0.46362 -0.0207274 1.19891e-20)
(0.46683 -0.0188445 1.19592e-20)
(0.469787 -0.0171047 0)
(0.472508 -0.0155009 0)
(-0.0345649 -0.185107 0)
(-0.0190146 -0.188033 -3.25792e-21)
(-0.00327798 -0.190128 4.07521e-21)
(0.0125836 -0.191432 0)
(0.0285142 -0.19199 1.83213e-22)
(0.0444633 -0.191852 0)
(0.060386 -0.191066 -4.75925e-21)
(0.0762425 -0.189682 5.18465e-21)
(0.0919974 -0.18775 5.58972e-21)
(0.107619 -0.185317 0)
(0.12308 -0.182431 0)
(0.138356 -0.179136 0)
(0.153423 -0.175474 -6.87115e-21)
(0.168262 -0.171487 0)
(0.182855 -0.167211 7.47972e-21)
(0.197185 -0.162684 0)
(0.211236 -0.157937 0)
(0.224995 -0.153004 -8.3983e-21)
(0.238447 -0.147913 0)
(0.251582 -0.142692 0)
(0.264386 -0.137369 0)
(0.27685 -0.131969 1.83653e-20)
(0.288962 -0.126516 9.41984e-21)
(0.300715 -0.121033 0)
(0.312099 -0.115542 -1.04979e-22)
(0.323107 -0.110064 0)
(0.333732 -0.104621 9.93386e-21)
(0.343969 -0.0992302 -1.00666e-20)
(0.353813 -0.0939116 1.01908e-20)
(0.36326 -0.0886824 -1.03936e-20)
(0.372309 -0.083559 0)
(0.380959 -0.0785567 1.05157e-20)
(0.38921 -0.0736896 -7.59378e-23)
(0.397064 -0.0689705 0)
(0.404523 -0.0644105 0)
(0.411593 -0.0600195 1.08488e-20)
(0.418279 -0.0558056 1.09782e-20)
(0.424588 -0.0517755 1.09767e-20)
(0.430529 -0.047934 1.10318e-20)
(0.43611 -0.0442844 -1.10811e-20)
(0.441343 -0.0408285 0)
(0.446238 -0.0375664 0)
(0.450808 -0.0344969 0)
(0.455065 -0.0316174 0)
(0.459023 -0.0289242 -2.24973e-20)
(0.462696 -0.0264125 0)
(0.466097 -0.0240765 0)
(0.469241 -0.0219098 -3.39126e-20)
(0.472141 -0.0199051 0)
(0.474812 -0.018055 2.26071e-20)
(-0.00565471 -0.208046 -1.3105e-21)
(0.0095724 -0.211044 3.93039e-21)
(0.0248958 -0.213113 -2.58278e-21)
(0.0402584 -0.214307 -2.92067e-21)
(0.0556101 -0.214684 6.97495e-21)
(0.0709078 -0.214301 0)
(0.0861145 -0.213217 0)
(0.101199 -0.211491 0)
(0.116133 -0.209179 0)
(0.130896 -0.206336 -5.51363e-21)
(0.145467 -0.203013 0)
(0.15983 -0.199261 0)
(0.173971 -0.195124 6.64477e-21)
(0.187875 -0.190647 0)
(0.201532 -0.185869 -1.43324e-20)
(0.214931 -0.180828 0)
(0.228063 -0.17556 7.62703e-21)
(0.240917 -0.170097 0)
(0.253485 -0.164471 0)
(0.265757 -0.15871 0)
(0.277726 -0.152842 0)
(0.289383 -0.146893 -8.77827e-21)
(0.300721 -0.140889 0)
(0.311731 -0.134853 -9.01761e-21)
(0.322406 -0.128809 -9.06519e-23)
(0.33274 -0.122779 0)
(0.342727 -0.116784 -9.53621e-21)
(0.352361 -0.110845 9.66023e-21)
(0.361637 -0.104981 -9.77615e-21)
(0.370552 -0.099212 0)
(0.379103 -0.093555 0)
(0.387288 -0.0880268 -2.00882e-20)
(0.395108 -0.0826429 -1.01663e-20)
(0.402562 -0.0774172 0)
(0.409653 -0.0723623 0)
(0.416383 -0.0674893 -3.10521e-20)
(0.422758 -0.0628074 0)
(0.428782 -0.0583242 -3.14217e-20)
(0.434463 -0.0540458 -1.0561e-20)
(0.439808 -0.0499761 1.06073e-20)
(0.444826 -0.0461176 2.12052e-20)
(0.449528 -0.042471 0)
(0.453923 -0.0390355 0)
(0.458024 -0.0358089 0)
(0.461841 -0.0327873 7.35117e-23)
(0.465388 -0.0299659 -2.14969e-20)
(0.468677 -0.0273389 0)
(0.471721 -0.0248994 6.1505e-23)
(0.474533 -0.02264 0)
(0.477126 -0.0205524 -2.16347e-20)
(0.479513 -0.0186281 -2.15842e-20)
(0.0275043 -0.230586 1.7707e-22)
(0.0423068 -0.233511 -1.62032e-22)
(0.0571022 -0.235421 2.22326e-21)
(0.0718406 -0.236383 2.87511e-21)
(0.0864807 -0.236467 -6.57643e-21)
(0.100989 -0.235743 0)
(0.115337 -0.23428 0)
(0.129506 -0.232145 0)
(0.143477 -0.2294 -4.92269e-21)
(0.157239 -0.226107 1.06957e-22)
(0.170781 -0.222321 0)
(0.184095 -0.218096 0)
(0.197176 -0.21348 0)
(0.210017 -0.208518 0)
(0.222615 -0.203251 9.81317e-23)
(0.234964 -0.19772 0)
(0.24706 -0.191958 -1.47591e-20)
(0.258899 -0.186 0)
(0.270475 -0.179876 0)
(0.281784 -0.173617 0)
(0.292819 -0.167249 0)
(0.303575 -0.160799 0)
(0.314046 -0.154292 8.50758e-21)
(0.324225 -0.147753 1.74111e-20)
(0.334107 -0.141206 -8.89172e-21)
(0.343685 -0.134673 0)
(0.352954 -0.128176 -1.81593e-20)
(0.361908 -0.121737 1.84026e-20)
(0.370543 -0.115377 0)
(0.378854 -0.109114 -1.88438e-20)
(0.386838 -0.102969 1.90432e-20)
(0.394493 -0.0969586 2.89071e-20)
(0.401816 -0.0910996 0)
(0.408809 -0.0854073 0)
(0.415471 -0.0798954 0)
(0.421805 -0.0745762 1.99581e-20)
(0.427812 -0.06946 1.99777e-20)
(0.433499 -0.0645556 4.02856e-20)
(0.438869 -0.0598698 0)
(0.44393 -0.0554076 -2.02951e-20)
(0.448688 -0.0511721 -8.49763e-23)
(0.453152 -0.0471647 -2.04571e-20)
(0.457331 -0.043385 -2.05242e-20)
(0.461235 -0.0398309 0)
(0.464875 -0.0364991 4.1333e-20)
(0.468261 -0.0333847 4.1412e-20)
(0.471404 -0.0304817 0)
(0.474318 -0.0277831 2.07912e-20)
(0.477012 -0.025281 0)
(0.4795 -0.0229669 0)
(0.481792 -0.0208318 2.0819e-20)
(0.0652388 -0.252557 1.11365e-21)
(0.0794553 -0.255247 -1.34906e-22)
(0.0935514 -0.256848 -2.20863e-21)
(0.107488 -0.257445 2.60127e-21)
(0.121235 -0.257121 1.06353e-22)
(0.134771 -0.255958 0)
(0.148082 -0.254035 0)
(0.161158 -0.251427 4.38604e-21)
(0.173994 -0.248202 4.85912e-21)
(0.186589 -0.244426 5.21702e-21)
(0.198943 -0.240158 5.46634e-21)
(0.211057 -0.235454 0)
(0.222933 -0.230362 0)
(0.234574 -0.22493 0)
(0.245982 -0.219198 6.71163e-21)
(0.257158 -0.213205 0)
(0.268103 -0.206986 8.28692e-23)
(0.278816 -0.200574 7.32706e-21)
(0.289296 -0.193999 -7.53279e-21)
(0.299541 -0.187289 0)
(0.309548 -0.180472 1.58155e-20)
(0.319312 -0.173574 -1.61568e-20)
(0.32883 -0.166619 -2.47915e-20)
(0.338097 -0.159632 -2.52415e-20)
(0.347106 -0.152636 0)
(0.355853 -0.145655 0)
(0.364332 -0.13871 1.7712e-20)
(0.372537 -0.131824 -1.79416e-20)
(0.380463 -0.125018 0)
(0.388105 -0.118313 1.83572e-20)
(0.39546 -0.111728 -1.85448e-20)
(0.402523 -0.105282 -1.87196e-20)
(0.409294 -0.0989927 0)
(0.415769 -0.0928767 0)
(0.421949 -0.0869487 -1.90701e-20)
(0.427833 -0.081222 0)
(0.433425 -0.0757082 -1.94214e-20)
(0.438725 -0.070417 -1.953e-20)
(0.443739 -0.0653563 -1.95415e-20)
(0.448471 -0.0605317 1.97183e-20)
(0.452927 -0.0559474 -1.97985e-20)
(0.457114 -0.0516053 1.98698e-20)
(0.461039 -0.0475055 3.97921e-20)
(0.464711 -0.0436465 0)
(0.468139 -0.040025 -2.00327e-20)
(0.471332 -0.0366363 -2.0071e-20)
(0.474301 -0.0334745 0)
(0.477055 -0.0305324 0)
(0.479606 -0.027802 0)
(0.481963 -0.0252744 2.01034e-20)
(0.484138 -0.0229401 0)
(0.107776 -0.273692 0)
(0.121177 -0.27597 -1.04516e-22)
(0.13434 -0.277107 0)
(0.147241 -0.277204 -5.10581e-21)
(0.159865 -0.276359 3.07875e-21)
(0.172205 -0.274666 0)
(0.184263 -0.272212 0)
(0.196041 -0.269077 -4.35826e-21)
(0.207547 -0.265337 4.66125e-21)
(0.218792 -0.261059 0)
(0.229785 -0.256305 -5.41614e-21)
(0.240538 -0.251129 -5.65398e-21)
(0.25106 -0.24558 0)
(0.261361 -0.239705 0)
(0.271449 -0.233543 0)
(0.281331 -0.22713 0)
(0.29101 -0.2205 7.00993e-21)
(0.300492 -0.213685 -7.22101e-21)
(0.309777 -0.206712 7.41901e-21)
(0.318865 -0.199609 -1.50671e-20)
(0.327756 -0.192402 -3.09749e-20)
(0.336447 -0.185114 1.58846e-20)
(0.344935 -0.177771 1.6191e-20)
(0.353214 -0.170396 1.64783e-20)
(0.361281 -0.163012 0)
(0.369129 -0.155641 0)
(0.376753 -0.148306 0)
(0.384147 -0.14103 0)
(0.391305 -0.133834 -1.75469e-20)
(0.398222 -0.126739 0)
(0.404893 -0.119766 0)
(0.411313 -0.112934 0)
(0.417478 -0.106262 1.8262e-20)
(0.423387 -0.0997682 0)
(0.429037 -0.0934675 9.67946e-23)
(0.434427 -0.0873747 0)
(0.439558 -0.0815023 1.87983e-20)
(0.444431 -0.0758612 0)
(0.449048 -0.0704601 1.90899e-20)
(0.453412 -0.0653059 0)
(0.457529 -0.0604032 0)
(0.461403 -0.0557548 0)
(0.46504 -0.0513614 -1.93873e-20)
(0.468448 -0.0472218 0)
(0.471634 -0.0433332 0)
(0.474605 -0.0396912 -1.94652e-20)
(0.477371 -0.0362898 -1.94994e-20)
(0.479941 -0.0331218 -1.95267e-20)
(0.482323 -0.0301791 0)
(0.484528 -0.0274526 -4.88307e-23)
(0.486564 -0.0249326 0)
(0.15519 -0.293608 0)
(0.167472 -0.295296 -6.99811e-23)
(0.179405 -0.295818 1.93404e-21)
(0.190983 -0.295292 2.51552e-21)
(0.20221 -0.293828 0)
(0.213096 -0.291531 3.40088e-21)
(0.223657 -0.288494 0)
(0.233911 -0.284803 0)
(0.24388 -0.280535 -4.64666e-21)
(0.253582 -0.275757 9.875e-21)
(0.263039 -0.270531 0)
(0.27227 -0.264909 5.6209e-21)
(0.28129 -0.25894 0)
(0.290117 -0.252665 0)
(0.298761 -0.246122 0)
(0.307235 -0.239344 0)
(0.315546 -0.232363 0)
(0.323701 -0.225207 0)
(0.331703 -0.2179 -1.44065e-20)
(0.339553 -0.210469 1.48945e-20)
(0.347252 -0.202937 1.52317e-20)
(0.354798 -0.195327 1.54215e-20)
(0.362188 -0.187662 -1.57193e-20)
(0.369418 -0.179964 0)
(0.376482 -0.172255 0)
(0.383375 -0.164558 0)
(0.390091 -0.156895 0)
(0.396622 -0.149289 1.69555e-20)
(0.402962 -0.141761 1.7269e-20)
(0.409105 -0.134333 -1.73488e-20)
(0.415045 -0.127026 1.75268e-20)
(0.420776 -0.11986 0)
(0.426293 -0.112856 -3.57949e-20)
(0.431594 -0.106032 0)
(0.436673 -0.099404 1.8219e-20)
(0.44153 -0.0929883 1.82517e-20)
(0.446162 -0.0867985 -3.68187e-20)
(0.450571 -0.0808464 0)
(0.454756 -0.0751418 0)
(0.458719 -0.0696923 -1.86572e-20)
(0.462464 -0.0645037 1.87369e-20)
(0.465994 -0.0595793 -1.88083e-20)
(0.469314 -0.0549205 1.88718e-20)
(0.472429 -0.0505268 0)
(0.475346 -0.0463956 0)
(0.47807 -0.0425228 5.85178e-23)
(0.48061 -0.0389027 1.91067e-20)
(0.482972 -0.0355281 5.30649e-23)
(0.485165 -0.0323908 0)
(0.487197 -0.0294816 -4.78594e-23)
(0.489076 -0.0267906 -1.91244e-20)
(0.207323 -0.311803 0)
(0.218117 -0.312739 -1.38495e-21)
(0.228467 -0.312517 -1.94695e-21)
(0.238393 -0.311271 0)
(0.247917 -0.309122 0)
(0.257068 -0.306179 -3.41118e-21)
(0.265878 -0.302541 0)
(0.274378 -0.298293 0)
(0.2826 -0.293513 0)
(0.290573 -0.288265 -9.86534e-21)
(0.298327 -0.282607 0)
(0.305885 -0.27659 0)
(0.31327 -0.270256 -1.15511e-20)
(0.320502 -0.263644 0)
(0.327596 -0.256787 -1.25451e-20)
(0.334566 -0.249715 0)
(0.341421 -0.242454 0)
(0.34817 -0.235029 0)
(0.354817 -0.227463 1.42986e-20)
(0.361363 -0.219777 1.45312e-20)
(0.36781 -0.211994 -1.48579e-20)
(0.374154 -0.204134 -1.16093e-22)
(0.380395 -0.196218 1.55678e-20)
(0.386525 -0.188267 0)
(0.39254 -0.180303 0)
(0.398433 -0.172346 0)
(0.404197 -0.16442 0)
(0.409824 -0.156546 -1.67538e-20)
(0.415306 -0.148747 -1.68434e-20)
(0.420637 -0.141044 1.71289e-20)
(0.425809 -0.13346 -1.72983e-20)
(0.430816 -0.126015 -1.736e-20)
(0.43565 -0.11873 1.76036e-20)
(0.440308 -0.111625 0)
(0.444784 -0.104718 0)
(0.449074 -0.0980242 -8.49485e-23)
(0.453177 -0.0915597 8.20866e-23)
(0.457091 -0.0853371 -1.81139e-20)
(0.460814 -0.0793672 1.82078e-20)
(0.464348 -0.0736586 7.35767e-23)
(0.467694 -0.068218 -1.84416e-20)
(0.470854 -0.0630495 3.69488e-20)
(0.473831 -0.0581552 -1.85677e-20)
(0.47663 -0.0535351 0)
(0.479254 -0.0491873 -1.86043e-20)
(0.481709 -0.0451078 1.8702e-20)
(0.484001 -0.0412913 0)
(0.486136 -0.0377307 1.87579e-20)
(0.488121 -0.0344178 0)
(0.489963 -0.0313435 1.86953e-20)
(0.491667 -0.0284975 -1.87078e-20)
(0.493243 -0.0258692 0)
(0.26371 -0.327684 1.52981e-21)
(0.272592 -0.327743 0)
(0.280975 -0.326693 3.89424e-21)
(0.288899 -0.324677 0)
(0.296407 -0.32182 0)
(0.303545 -0.318235 6.80718e-21)
(0.310358 -0.314018 0)
(0.316888 -0.309253 8.40351e-21)
(0.323174 -0.304011 -9.11572e-21)
(0.329254 -0.298355 0)
(0.33516 -0.292336 -1.03931e-20)
(0.340921 -0.285997 -1.09668e-20)
(0.346563 -0.279378 1.15789e-20)
(0.352106 -0.27251 0)
(0.357567 -0.265422 2.50286e-20)
(0.362961 -0.258138 0)
(0.368297 -0.25068 0)
(0.373584 -0.24307 -1.37019e-20)
(0.378824 -0.235326 0)
(0.384021 -0.227467 -1.05826e-22)
(0.389174 -0.219512 1.48255e-20)
(0.394279 -0.211479 -1.07429e-22)
(0.399333 -0.203388 0)
(0.404331 -0.195258 0)
(0.409265 -0.187109 0)
(0.414127 -0.178962 0)
(0.41891 -0.17084 -1.62555e-20)
(0.423604 -0.162763 0)
(0.428201 -0.154754 1.67499e-20)
(0.432692 -0.146837 0)
(0.43707 -0.139033 0)
(0.441324 -0.131364 1.72458e-20)
(0.44545 -0.123851 1.72992e-20)
(0.449438 -0.116516 0)
(0.453285 -0.109377 0)
(0.456985 -0.102451 -1.77614e-20)
(0.460533 -0.095756 3.56547e-20)
(0.463928 -0.0893044 7.72102e-23)
(0.467167 -0.0831085 -1.80534e-20)
(0.470248 -0.0771781 1.81344e-20)
(0.473172 -0.0715205 -1.81381e-20)
(0.47594 -0.0661409 -1.8273e-20)
(0.478554 -0.061042 -1.8267e-20)
(0.481015 -0.0562246 0)
(0.483328 -0.0516872 5.51607e-20)
(0.485495 -0.0474263 3.68142e-20)
(0.487522 -0.0434368 0)
(0.489414 -0.039712 0)
(0.491175 -0.0362437 0)
(0.49281 -0.0330228 -7.41124e-20)
(0.494327 -0.030039 3.71193e-20)
(0.49573 -0.0272814 -3.70411e-20)
(0.325181 -0.340879 -3.10845e-21)
(0.331647 -0.339982 0)
(0.337609 -0.338065 -3.78117e-21)
(0.343128 -0.335274 0)
(0.348265 -0.331733 0)
(0.353077 -0.32755 -6.59634e-21)
(0.357618 -0.322816 0)
(0.361937 -0.317607 -8.13425e-21)
(0.366079 -0.311987 1.76334e-20)
(0.370082 -0.306011 0)
(0.373981 -0.299722 2.00594e-20)
(0.377805 -0.293158 1.05964e-20)
(0.38158 -0.286349 0)
(0.385324 -0.27932 0)
(0.389056 -0.272095 -1.20356e-20)
(0.392787 -0.264693 0)
(0.396526 -0.257131 0)
(0.400279 -0.249424 1.32134e-20)
(0.404049 -0.241589 -1.34639e-20)
(0.407836 -0.233641 -1.38805e-20)
(0.411638 -0.225595 -1.40847e-20)
(0.415451 -0.217468 -2.88352e-20)
(0.41927 -0.209277 -1.46335e-20)
(0.423087 -0.201041 0)
(0.426894 -0.192777 0)
(0.430682 -0.184508 0)
(0.434441 -0.176253 1.56467e-20)
(0.438161 -0.168035 -1.57426e-20)
(0.441832 -0.159876 0)
(0.445445 -0.1518 0)
(0.448989 -0.14383 0)
(0.452454 -0.135988 0)
(0.455834 -0.128296 -8.83257e-23)
(0.459118 -0.120777 0)
(0.462301 -0.113451 0)
(0.465376 -0.106335 0)
(0.468338 -0.0994485 -3.41319e-20)
(0.471181 -0.0928053 7.64796e-23)
(0.473904 -0.0864188 0)
(0.476504 -0.0802997 3.45968e-20)
(0.478978 -0.0744565 1.74434e-20)
(0.481327 -0.0688952 0)
(0.483551 -0.0636193 5.25796e-20)
(0.485651 -0.0586303 0)
(0.487628 -0.0539273 -3.53375e-20)
(0.489486 -0.0495074 -3.54181e-20)
(0.491227 -0.0453658 3.53778e-20)
(0.492854 -0.0414959 0)
(0.494372 -0.03789 0)
(0.495785 -0.0345389 3.56255e-20)
(0.497097 -0.0314325 0)
(0.498312 -0.0285597 3.56686e-20)
(0.387682 -0.349874 1.72997e-21)
(0.391386 -0.348086 3.18435e-21)
(0.394645 -0.3454 0)
(0.397534 -0.341953 0)
(0.400122 -0.337862 0)
(0.402473 -0.333224 0)
(0.404643 -0.328118 0)
(0.406682 -0.322613 0)
(0.408634 -0.316761 -1.865e-20)
(0.410534 -0.310608 -9.96538e-21)
(0.412416 -0.304189 -2.11018e-20)
(0.414306 -0.297532 0)
(0.416226 -0.290662 0)
(0.418192 -0.283598 0)
(0.420219 -0.276356 0)
(0.422316 -0.268949 -1.29122e-20)
(0.424488 -0.261391 0)
(0.42674 -0.253693 -1.36574e-20)
(0.429071 -0.245867 1.40749e-20)
(0.43148 -0.237926 0)
(0.433963 -0.229882 8.60328e-23)
(0.436513 -0.22175 2.98668e-20)
(0.439123 -0.213546 3.03923e-20)
(0.441785 -0.205285 0)
(0.444488 -0.196987 1.56279e-20)
(0.447221 -0.188671 0)
(0.449975 -0.180358 0)
(0.452737 -0.17207 1.63257e-20)
(0.455495 -0.16383 -1.64141e-20)
(0.45824 -0.155662 0)
(0.460959 -0.14759 0)
(0.463643 -0.139636 0)
(0.466281 -0.131825 -8.17374e-23)
(0.468864 -0.124179 0)
(0.471384 -0.11672 0)
(0.473834 -0.109467 -1.73631e-20)
(0.476207 -0.102439 1.75358e-20)
(0.478498 -0.0956528 5.27306e-20)
(0.480702 -0.0891217 0)
(0.482815 -0.0828578 -7.09811e-20)
(0.484834 -0.0768706 3.55598e-20)
(0.486759 -0.0711669 0)
(0.488587 -0.0657514 -3.59113e-20)
(0.490319 -0.060626 0)
(0.491955 -0.0557905 0)
(0.493496 -0.0512426 0)
(0.494944 -0.0469778 -1.03177e-22)
(0.496301 -0.0429902 0)
(0.49757 -0.0392719 0)
(0.498753 -0.0358141 -3.61972e-20)
(0.499854 -0.0326066 0)
(0.500876 -0.0296386 0)
(0.444804 -0.354241 2.35546e-21)
(0.445794 -0.351782 2.55594e-22)
(0.446445 -0.348549 4.72617e-21)
(0.446836 -0.344666 -5.75868e-21)
(0.447036 -0.340235 6.70276e-21)
(0.447107 -0.335342 0)
(0.447102 -0.330054 0)
(0.447065 -0.324428 0)
(0.447036 -0.318507 9.71782e-21)
(0.447046 -0.312328 -2.75615e-23)
(0.447122 -0.305918 1.09528e-20)
(0.447286 -0.299299 0)
(0.447555 -0.292488 0)
(0.447943 -0.285498 1.24572e-20)
(0.448457 -0.278342 1.28888e-20)
(0.449106 -0.271028 4.89293e-23)
(0.44989 -0.263565 0)
(0.450811 -0.255962 2.81038e-20)
(0.451867 -0.248228 1.43505e-20)
(0.453053 -0.240372 0)
(0.454363 -0.232406 1.50234e-20)
(0.455789 -0.224342 -3.05159e-20)
(0.457322 -0.216194 -1.5552e-20)
(0.458952 -0.207978 -1.571e-20)
(0.460666 -0.199711 -1.60132e-20)
(0.462454 -0.191414 0)
(0.464304 -0.183107 1.63334e-20)
(0.466202 -0.174811 0)
(0.468136 -0.166552 1.67632e-20)
(0.470094 -0.158352 0)
(0.472065 -0.150236 -1.69862e-20)
(0.474036 -0.142229 -1.71218e-20)
(0.475997 -0.134355 -7.51392e-23)
(0.477939 -0.126638 0)
(0.479851 -0.1191 -1.74707e-20)
(0.481726 -0.111762 1.76392e-20)
(0.483557 -0.104645 0)
(0.485336 -0.0977644 -1.32664e-22)
(0.487059 -0.0911365 3.56306e-20)
(0.48872 -0.0847739 3.5889e-20)
(0.490316 -0.078687 -3.60039e-20)
(0.491844 -0.0728835 0)
(0.493302 -0.0673688 -3.60788e-20)
(0.494689 -0.0621456 0)
(0.496005 -0.0572142 0)
(0.497248 -0.0525729 -3.62741e-20)
(0.49842 -0.0482176 -3.64113e-20)
(0.499521 -0.0441427 0)
(0.500554 -0.0403408 3.63615e-20)
(0.501519 -0.036803 7.2823e-20)
(0.50242 -0.0335196 0)
(0.503258 -0.0304796 0)
(0.504036 -0.0276714 0)
(0.495701 -0.354863 -5.23824e-21)
(0.494186 -0.351969 -3.73793e-21)
(0.492462 -0.348412 -4.90944e-21)
(0.490603 -0.344301 1.21592e-20)
(0.488671 -0.339723 -6.95081e-21)
(0.486723 -0.33475 0)
(0.484801 -0.329439 0)
(0.482945 -0.323837 -9.48708e-21)
(0.481186 -0.317978 0)
(0.479549 -0.311891 2.14893e-20)
(0.478056 -0.305597 1.13318e-20)
(0.476721 -0.299112 0)
(0.475558 -0.292448 0)
(0.474574 -0.285615 -2.56134e-20)
(0.473776 -0.278619 -1.32483e-20)
(0.473165 -0.271467 1.36504e-20)
(0.472742 -0.264164 0)
(0.472504 -0.256716 -1.4374e-20)
(0.472446 -0.24913 -1.46994e-20)
(0.472562 -0.241414 0)
(0.472844 -0.233577 0)
(0.473282 -0.225631 1.55501e-20)
(0.473866 -0.217588 -1.5726e-20)
(0.474584 -0.209465 1.60256e-20)
(0.475424 -0.201277 0)
(0.476373 -0.193045 0)
(0.477417 -0.184789 -7.35158e-23)
(0.478544 -0.176531 0)
(0.47974 -0.168296 1.68799e-20)
(0.480992 -0.160109 -1.70277e-20)
(0.482289 -0.151993 1.72359e-20)
(0.483617 -0.143976 7.02482e-23)
(0.484966 -0.136082 -3.48841e-20)
(0.486325 -0.128335 0)
(0.487684 -0.12076 1.7679e-20)
(0.489035 -0.113378 0)
(0.490369 -0.10621 0)
(0.491679 -0.0992744 -3.58362e-20)
(0.492959 -0.0925872 -3.5964e-20)
(0.494204 -0.0861623 0)
(0.495409 -0.0800107 -3.6063e-20)
(0.49657 -0.0741412 3.61514e-20)
(0.497686 -0.0685597 3.63316e-20)
(0.498752 -0.0632696 0)
(0.499768 -0.0582718 0)
(0.500734 -0.053565 7.28437e-20)
(0.501647 -0.0491458 0)
(0.502509 -0.0450086 0)
(0.503321 -0.0411465 -3.65012e-20)
(0.504082 -0.0375509 -3.64909e-20)
(0.504794 -0.034212 0)
(0.505458 -0.0311192 -3.63701e-20)
(0.506076 -0.0282608 -3.63372e-20)
(0.50665 -0.0256251 -6.56534e-23)
(0.540131 -0.352639 -3.54639e-22)
(0.536427 -0.349527 0)
(0.532645 -0.345842 0)
(0.528849 -0.341678 -1.29419e-20)
(0.525093 -0.337108 -7.50361e-21)
(0.521421 -0.332193 -8.3484e-21)
(0.51787 -0.326981 0)
(0.514469 -0.32151 9.73964e-21)
(0.511241 -0.315808 0)
(0.508207 -0.309898 -1.1036e-20)
(0.50538 -0.303795 -1.16087e-20)
(0.502772 -0.297511 0)
(0.50039 -0.291054 0)
(0.498237 -0.28443 1.30806e-20)
(0.496317 -0.277643 0)
(0.494628 -0.270697 0)
(0.493168 -0.263596 0)
(0.491932 -0.256342 0)
(0.490913 -0.248941 1.48604e-20)
(0.490103 -0.2414 -1.51491e-20)
(0.489493 -0.233726 1.54183e-20)
(0.489071 -0.225931 0)
(0.488826 -0.218026 6.21681e-23)
(0.488745 -0.210027 0)
(0.488816 -0.20195 1.63239e-20)
(0.489024 -0.193814 -1.65123e-20)
(0.489357 -0.18564 -1.67535e-20)
(0.489799 -0.177452 0)
(0.490338 -0.169273 -1.70656e-20)
(0.490961 -0.161129 1.72037e-20)
(0.491654 -0.153046 0)
(0.492404 -0.14505 6.43107e-23)
(0.493202 -0.137166 6.33337e-23)
(0.494035 -0.129422 0)
(0.494893 -0.12184 0)