/*--------------------------------*- C++ -*----------------------------------*\
  =========                 |
  \\      /  F ield         | OpenFOAM: The Open Source CFD Toolbox
   \\    /   O peration     | Website:  https://openfoam.org
    \\  /    A nd           | Version:  6
     \\/     M anipulation  |
\*---------------------------------------------------------------------------*/
FoamFile
{
    version     2.0;
    format      ascii;
    class       volScalarField;
    location    "0.04";
    object      epsilon;
}
// * * * * * * * * * * * * * * * * * * * * * * * * * * * * * * * * * * * * * //

dimensions      [0 2 -3 0 0 0 0];

internalField   nonuniform List<scalar> 
3032
(
6.36863
6.31308
6.25324
6.18998
6.12411
6.05639
5.98753
5.91817
5.84888
5.78018
5.7125
5.64622
5.58165
5.51905
5.45863
5.40052
5.34486
5.2917
5.24109
5.19304
5.14752
5.10451
5.06395
5.02577
4.9899
4.95626
4.92475
4.89528
4.86776
4.8421
4.81819
4.79594
4.77527
4.75608
4.7383
4.72183
4.7066
4.69254
4.67958
4.66764
4.65666
4.64659
4.63737
4.62894
4.62125
4.61427
4.60793
4.60221
4.59706
3.199
3.17138
3.14238
3.11232
3.08153
3.05031
3.01893
2.98764
2.95665
2.92617
2.89634
2.86732
2.8392
2.81208
2.78603
2.76109
2.73729
2.71465
2.69317
2.67284
2.65364
2.63554
2.61851
2.60252
2.58753
2.57349
2.56035
2.54808
2.53663
2.52595
2.51601
2.50675
2.49815
2.49015
2.48273
2.47585
2.46946
2.46355
2.45808
2.45303
2.44836
2.44405
2.44008
2.43642
2.43306
2.42997
2.42714
2.42456
2.42219
2.80184
2.77643
2.74998
2.72279
2.69513
2.66725
2.63939
2.61176
2.58454
2.5579
2.53196
2.50684
2.48263
2.45939
2.43718
2.41602
2.39594
2.37693
2.35898
2.34208
2.3262
2.31131
2.29737
2.28434
2.27218
2.26084
2.25028
2.24046
2.23133
2.22285
2.21497
2.20766
2.20089
2.1946
2.18878
2.18339
2.17839
2.17377
2.16949
2.16553
2.16187
2.15848
2.15535
2.15246
2.14979
2.14732
2.14504
2.14295
2.14101
2.75187
2.72508
2.69737
2.66901
2.64029
2.61147
2.58277
2.55441
2.52657
2.4994
2.47305
2.44761
2.42318
2.39982
2.37757
2.35646
2.33649
2.31767
2.29998
2.2834
2.26788
2.25339
2.23989
2.22733
2.21566
2.20483
2.19479
2.18549
2.17689
2.16892
2.16156
2.15475
2.14847
2.14265
2.13728
2.13232
2.12774
2.12351
2.11959
2.11598
2.11264
2.10955
2.10669
2.10405
2.1016
2.09934
2.09725
2.09531
2.09351
2.79565
2.76619
2.73588
2.70502
2.6739
2.64278
2.6119
2.58148
2.5517
2.52272
2.49469
2.46771
2.44187
2.41723
2.39383
2.37169
2.35082
2.33122
2.31285
2.29568
2.27969
2.26481
2.251
2.2382
2.22635
2.2154
2.2053
2.19597
2.18738
2.17945
2.17216
2.16544
2.15926
2.15356
2.14832
2.14349
2.13904
2.13495
2.13117
2.12768
2.12447
2.1215
2.11876
2.11623
2.11388
2.11171
2.10971
2.10784
2.10612
2.87228
2.83939
2.80575
2.77168
2.73747
2.70339
2.66969
2.63659
2.60428
2.57293
2.54268
2.51363
2.48588
2.45948
2.43447
2.41088
2.3887
2.36792
2.3485
2.33042
2.31361
2.29803
2.28362
2.27031
2.25804
2.24673
2.23634
2.22678
2.218
2.20995
2.20255
2.19577
2.18955
2.18385
2.17861
2.1738
2.16939
2.16534
2.16161
2.15818
2.15503
2.15212
2.14945
2.14697
2.14469
2.14258
2.14063
2.13882
2.13714
2.9603
2.92349
2.88606
2.84835
2.81064
2.77323
2.73635
2.70024
2.66509
2.63107
2.59832
2.56694
2.53703
2.50865
2.48182
2.45657
2.43289
2.41075
2.39012
2.37096
2.3532
2.33679
2.32165
2.30772
2.29491
2.28315
2.27237
2.2625
2.25346
2.2452
2.23765
2.23074
2.22443
2.21866
2.21338
2.20856
2.20414
2.2001
2.1964
2.193
2.18988
2.18702
2.18439
2.18196
2.17973
2.17767
2.17576
2.174
2.17237
2.17085
3.05042
3.00939
2.96791
2.92631
2.8849
2.84395
2.80372
2.76443
2.72629
2.68945
2.65407
2.62025
2.58807
2.55759
2.52884
2.50183
2.47655
2.45298
2.43106
2.41076
2.39198
2.37468
2.35876
2.34415
2.33075
2.3185
2.3073
2.29708
2.28776
2.27926
2.27152
2.26447
2.25804
2.25219
2.24686
2.242
2.23757
2.23353
2.22984
2.22647
2.22338
2.22055
2.21796
2.21558
2.21339
2.21138
2.20953
2.20781
2.20623
2.20477
3.13788
3.09253
3.04692
3.00138
2.95621
2.91169
2.86807
2.82558
2.78441
2.74474
2.7067
2.6704
2.63592
2.60332
2.57262
2.54383
2.51693
2.4919
2.46867
2.44719
2.42738
2.40916
2.39244
2.37713
2.36314
2.35038
2.33875
2.32817
2.31855
2.30981
2.30187
2.29466
2.28812
2.28219
2.2768
2.2719
2.26745
2.26341
2.25973
2.25637
2.25332
2.25053
2.24798
2.24564
2.24351
2.24154
2.23974
2.23808
2.23655
2.23514
2.23383
3.2197
3.17014
3.12051
3.07115
3.02235
2.97438
2.92749
2.88191
2.83782
2.7954
2.75478
2.71607
2.67934
2.64466
2.61205
2.58151
2.55301
2.52653
2.502
2.47936
2.45851
2.43938
2.42187
2.40587
2.39128
2.37801
2.36595
2.35501
2.34509
2.3361
2.32797
2.32061
2.31395
2.30793
2.30248
2.29755
2.29308
2.28904
2.28537
2.28204
2.27901
2.27626
2.27375
2.27146
2.26938
2.26747
2.26572
2.26411
2.26264
2.26128
2.26003
3.29352
3.24009
3.18679
3.13395
3.08183
3.03071
2.98083
2.9324
2.88562
2.84065
2.79762
2.75666
2.71783
2.68119
2.64676
2.61455
2.58453
2.55666
2.53088
2.50711
2.48527
2.46525
2.44696
2.43029
2.41512
2.40135
2.38887
2.37758
2.36737
2.35814
2.34982
2.34231
2.33554
2.32944
2.32393
2.31896
2.31448
2.31043
2.30677
2.30347
2.30047
2.29776
2.29529
2.29306
2.29102
2.28916
2.28747
2.28592
2.2845
2.2832
2.282
3.35723
3.30051
3.24411
3.18831
3.13339
3.0796
3.02716
2.97629
2.92718
2.87999
2.83486
2.7919
2.75119
2.71278
2.67671
2.64297
2.61155
2.5824
2.55545
2.53063
2.50785
2.487
2.46798
2.45066
2.43494
2.4207
2.40782
2.39619
2.3857
2.37625
2.36775
2.3601
2.35322
2.34703
2.34147
2.33647
2.33198
2.32793
2.32428
2.321
2.31803
2.31536
2.31294
2.31074
2.30876
2.30695
2.30531
2.30382
2.30245
2.3012
2.30006
3.40882
3.34964
3.29093
3.23294
3.17591
3.12009
3.0657
3.01294
2.96199
2.91303
2.86619
2.82158
2.7793
2.7394
2.70193
2.66687
2.63422
2.60393
2.57595
2.55019
2.52656
2.50495
2.48526
2.46736
2.45114
2.43646
2.4232
2.41126
2.40052
2.39086
2.38219
2.37441
2.36743
2.36117
2.35557
2.35054
2.34603
2.34198
2.33835
2.33509
2.33216
2.32952
2.32714
2.32499
2.32305
2.3213
2.3197
2.31826
2.31695
2.31576
2.31467
3.44654
3.38596
3.32593
3.26668
3.20842
3.15137
3.09576
3.04178
2.98961
2.93942
2.89137
2.84556
2.8021
2.76105
2.72247
2.68636
2.65271
2.62148
2.59263
2.56607
2.54172
2.51946
2.49919
2.48078
2.4641
2.44904
2.43546
2.42324
2.41227
2.40243
2.39361
2.38571
2.37865
2.37233
2.36669
2.36164
2.35712
2.35308
2.34946
2.34623
2.34332
2.34072
2.33838
2.33628
2.33438
2.33268
2.33113
2.32974
2.32848
2.32733
2.3263
2.32535
3.46904
3.40829
3.3481
3.28865
3.23015
3.1728
3.11681
3.06238
3.00969
2.95891
2.91021
2.86371
2.81952
2.77774
2.7384
2.70154
2.66717
2.63524
2.60573
2.57855
2.55362
2.53084
2.51009
2.49126
2.47422
2.45884
2.44499
2.43254
2.42138
2.41138
2.40244
2.39445
2.38732
2.38096
2.37528
2.37022
2.36571
2.36168
2.35808
2.35487
2.352
2.34943
2.34713
2.34507
2.34322
2.34156
2.34007
2.33872
2.33751
2.33641
2.33542
2.33452
3.47572
3.41616
3.35706
3.29858
3.24092
3.18426
3.1288
3.07475
3.02229
2.97161
2.92288
2.87624
2.83183
2.78973
2.75004
2.71278
2.67797
2.64561
2.61565
2.58805
2.56271
2.53955
2.51845
2.49931
2.48198
2.46636
2.4523
2.43967
2.42837
2.41826
2.40923
2.40117
2.394
2.38761
2.38192
2.37685
2.37235
2.36834
2.36477
2.36159
2.35876
2.35623
2.35397
2.35195
2.35015
2.34853
2.34708
2.34578
2.34461
2.34356
2.34261
2.34176
3.46541
3.40845
3.35176
3.29547
3.23976
3.18482
3.13084
3.07804
3.02661
2.97676
2.92866
2.88249
2.83839
2.79649
2.75687
2.7196
2.68471
2.65222
2.6221
2.5943
2.56876
2.5454
2.52411
2.50478
2.48729
2.47152
2.45733
2.4446
2.43321
2.42303
2.41395
2.40587
2.39868
2.39228
2.3866
2.38155
2.37707
2.37309
2.36956
2.36642
2.36362
2.36114
2.35892
2.35695
2.35519
2.35362
2.35222
2.35096
2.34983
2.34882
2.34792
2.34711
3.44252
3.38904
3.33556
3.28222
3.22918
3.17662
3.12475
3.07379
3.02395
2.97545
2.92848
2.88323
2.83988
2.79855
2.75937
2.72243
2.68776
2.65541
2.62537
2.5976
2.57206
2.54867
2.52734
2.50796
2.49042
2.47459
2.46037
2.4476
2.43619
2.426
2.41691
2.40883
2.40165
2.39528
2.38962
2.38461
2.38016
2.37622
2.37273
2.36963
2.36688
2.36444
2.36228
2.36035
2.35863
2.35711
2.35575
2.35453
2.35345
2.35248
2.35162
2.35085
2.35017
3.41156
3.36202
3.31218
3.26218
3.21219
3.16238
3.11299
3.06422
3.01631
2.96948
2.92396
2.87995
2.83763
2.79716
2.75868
2.7223
2.68809
2.65608
2.62631
2.59874
2.57335
2.55006
2.5288
2.50948
2.49198
2.47618
2.46198
2.44924
2.43785
2.42769
2.41863
2.41059
2.40344
2.39711
2.39149
2.38652
2.38212
2.37823
2.37478
2.37173
2.36903
2.36664
2.36452
2.36264
2.36097
2.35948
2.35816
2.35699
2.35594
2.35501
2.35419
2.35345
2.35281
2.35224
3.37618
3.33067
3.28458
3.23805
3.19123
3.14433
3.09755
3.05114
3.00533
2.96035
2.91646
2.87385
2.83275
2.79331
2.75571
2.72005
2.68644
2.65493
2.62555
2.5983
2.57317
2.55009
2.529
2.5098
2.49241
2.47671
2.46258
2.44992
2.43859
2.42848
2.41948
2.41149
2.4044
2.39812
2.39256
2.38764
2.38329
2.37945
2.37605
2.37305
2.3704
2.36806
2.36598
2.36415
2.36252
2.36108
2.3598
2.35866
2.35765
2.35676
2.35597
2.35527
2.35465
2.35412
3.33907
3.29745
3.25501
3.21185
3.16816
3.12412
3.07997
3.03593
2.99226
2.9492
2.907
2.86589
2.82609
2.78778
2.75115
2.71632
2.6834
2.65247
2.62359
2.59675
2.57194
2.54914
2.52828
2.50928
2.49204
2.47648
2.46247
2.4499
2.43866
2.42864
2.41972
2.41179
2.40477
2.39855
2.39305
2.3882
2.3839
2.38012
2.37678
2.37383
2.37122
2.36893
2.3669
2.3651
2.36352
2.36212
2.36088
2.35978
2.3588
2.35794
2.35718
2.35651
2.35593
2.35543
3.30205
3.26405
3.22499
3.18501
3.14427
3.10297
3.06133
3.0196
2.97802
2.93685
2.89635
2.85675
2.81828
2.78114
2.74552
2.71157
2.67941
2.64912
2.62078
2.5944
2.56998
2.54751
2.52692
2.50814
2.49111
2.47571
2.46184
2.4494
2.43827
2.42834
2.41951
2.41167
2.40472
2.39858
2.39315
2.38835
2.38412
2.38039
2.3771
2.37421
2.37165
2.3694
2.36742
2.36567
2.36412
2.36276
2.36155
2.36049
2.35955
2.35872
2.35799
2.35735
2.3568
2.35633
3.26627
3.23152
3.19554
3.15846
3.12044
3.08168
3.0424
3.00284
2.96326
2.92392
2.88506
2.84694
2.80979
2.77382
2.73922
2.70617
2.67478
2.64517
2.61739
2.5915
2.56751
2.54538
2.52509
2.50658
2.48976
2.47455
2.46084
2.44854
2.43754
2.42772
2.41899
2.41124
2.40438
2.3983
2.39294
2.38821
2.38405
2.38037
2.37714
2.3743
2.37179
2.36959
2.36765
2.36594
2.36443
2.36311
2.36194
2.36091
2.36
2.3592
2.3585
2.35788
2.35736
2.35692
3.23235
3.20048
3.16724
3.13276
3.0972
3.06076
3.02366
2.98613
2.94842
2.9108
2.87351
2.83681
2.80093
2.7661
2.73252
2.70035
2.66974
2.6408
2.61362
2.58823
2.56467
2.54292
2.52295
2.5047
2.48812
2.47311
2.45958
2.44743
2.43656
2.42686
2.41824
2.41058
2.4038
2.39781
2.39252
2.38786
2.38376
2.38014
2.37697
2.37417
2.37172
2.36956
2.36766
2.36599
2.36452
2.36323
2.3621
2.3611
2.36022
2.35945
2.35877
2.35819
2.35769
2.35728
3.20058
3.17121
3.14038
3.10821
3.07487
3.04053
3.00541
2.96974
2.93377
2.89775
2.86194
2.82659
2.79193
2.7582
2.72559
2.69429
2.66445
2.63619
2.60958
2.58471
2.56158
2.54021
2.52057
2.50261
2.48626
2.47146
2.45812
2.44613
2.43539
2.42582
2.4173
2.40975
2.40306
2.39715
2.39194
2.38734
2.3833
2.37975
2.37662
2.37388
2.37147
2.36936
2.36751
2.36588
2.36445
2.36319
2.36209
2.36112
2.36027
2.35952
2.35887
2.35832
2.35784
2.35746
3.17103
3.14381
3.11509
3.08496
3.05359
3.02114
2.98782
2.95385
2.91948
2.88495
2.85052
2.81643
2.78293
2.75024
2.71858
2.68812
2.65902
2.63141
2.60538
2.58101
2.55832
2.53733
2.51802
2.50034
2.48425
2.46966
2.4565
2.44467
2.43408
2.42464
2.41623
2.40878
2.40218
2.39635
2.39121
2.38669
2.38271
2.37922
2.37615
2.37346
2.3711
2.36903
2.36721
2.36562
2.36423
2.36301
2.36193
2.36099
2.36017
2.35945
2.35883
2.3583
2.35785
2.35749
3.14361
3.11826
3.09137
3.06305
3.03342
3.00267
2.97098
2.93856
2.90566
2.8725
2.83935
2.80645
2.77403
2.74233
2.71156
2.6819
2.65352
2.62655
2.60108
2.5772
2.55495
2.53433
2.51535
2.49795
2.48211
2.46774
2.45476
2.4431
2.43266
2.42334
2.41505
2.4077
2.40119
2.39544
2.39038
2.38593
2.38201
2.37858
2.37556
2.37292
2.37061
2.36858
2.36681
2.36526
2.3639
2.36271
2.36167
2.36076
2.35996
2.35927
2.35867
2.35816
2.35773
2.3574
3.11767
3.09393
3.06867
3.04195
3.01391
2.9847
2.9545
2.92352
2.89199
2.86013
2.82819
2.79641
2.76503
2.73429
2.70438
2.67551
2.64783
2.62148
2.59658
2.57319
2.55137
2.53113
2.51248
2.49538
2.47979
2.46564
2.45286
2.44137
2.43107
2.42189
2.41372
2.40647
2.40006
2.3944
2.38941
2.38503
2.38118
2.37781
2.37485
2.37226
2.36999
2.36801
2.36628
2.36477
2.36344
2.36229
2.36128
2.3604
2.35963
2.35896
2.35839
2.3579
2.35749
2.35718
3.09176
3.06952
3.04577
3.02057
2.99404
2.96632
2.93758
2.908
2.87781
2.84723
2.81649
2.78584
2.75552
2.72574
2.69671
2.66864
2.64169
2.616
2.59167
2.5688
2.54743
2.5276
2.5093
2.49251
2.47719
2.46327
2.4507
2.4394
2.42927
2.42022
2.41218
2.40504
2.39873
2.39317
2.38827
2.38396
2.38018
2.37687
2.37397
2.37144
2.36923
2.36729
2.3656
2.36413
2.36285
2.36173
2.36075
2.3599
2.35916
2.35852
2.35797
2.3575
2.35712
2.35682
3.06513
3.04432
3.02205
2.99835
2.97332
2.94708
2.9198
2.89164
2.86281
2.83354
2.80404
2.77455
2.74531
2.71653
2.68844
2.66121
2.63502
2.61001
2.5863
2.56398
2.5431
2.5237
2.50577
2.48932
2.47429
2.46063
2.44829
2.43718
2.42722
2.41834
2.41043
2.40342
2.39722
2.39176
2.38695
2.38272
2.37902
2.37578
2.37294
2.37047
2.36831
2.36642
2.36478
2.36335
2.36211
2.36102
2.36008
2.35926
2.35855
2.35794
2.35741
2.35697
2.3566
2.35632
3.03788
3.01845
2.9976
2.97536
2.95181
2.92704
2.90121
2.87448
2.84703
2.81908
2.79085
2.76255
2.73443
2.70669
2.67955
2.6532
2.62781
2.60352
2.58046
2.55872
2.53836
2.51941
2.5019
2.4858
2.47108
2.45771
2.44561
2.43471
2.42495
2.41623
2.40847
2.40159
2.39551
2.39015
2.38544
2.3813
2.37768
2.37451
2.37174
2.36933
2.36722
2.36539
2.3638
2.36242
2.36121
2.36017
2.35926
2.35847
2.35779
2.35721
2.3567
2.35628
2.35593
2.35566
3.01012
2.99198
2.9725
2.95167
2.92956
2.90625
2.88187
2.85655
2.83049
2.80388
2.77693
2.74985
2.72287
2.6962
2.67005
2.64461
2.62005
2.59652
2.57415
2.55302
2.5332
2.51474
2.49766
2.48194
2.46756
2.45448
2.44264
2.43198
2.42242
2.41388
2.40628
2.39954
2.39359
2.38835
2.38373
2.37969
2.37615
2.37306
2.37036
2.36801
2.36597
2.36419
2.36264
2.36131
2.36014
2.35914
2.35827
2.35751
2.35686
2.3563
2.35582
2.35542
2.35509
2.35483
2.98194
2.96502
2.94683
2.92736
2.90664
2.88475
2.86179
2.83789
2.81322
2.78795
2.76229
2.73645
2.71063
2.68506
2.65993
2.63543
2.61174
2.589
2.56733
2.54685
2.52761
2.50967
2.49304
2.47772
2.4637
2.45094
2.43938
2.42896
2.41962
2.41127
2.40384
2.39726
2.39144
2.38631
2.38181
2.37786
2.37441
2.3714
2.36877
2.36649
2.36451
2.36278
2.36129
2.36
2.35888
2.35791
2.35707
2.35635
2.35573
2.35519
2.35474
2.35435
2.35403
2.35379
2.95343
2.93763
2.92065
2.90247
2.8831
2.86259
2.84102
2.81852
2.79522
2.7713
2.74694
2.72234
2.69771
2.67326
2.64917
2.62565
2.60285
2.58092
2.56
2.54019
2.52156
2.50415
2.48801
2.47312
2.45948
2.44705
2.43579
2.42563
2.41651
2.40837
2.40112
2.3947
2.38902
2.38403
2.37964
2.37579
2.37243
2.3695
2.36695
2.36473
2.36281
2.36114
2.3597
2.35845
2.35737
2.35644
2.35564
2.35494
2.35435
2.35384
2.3534
2.35304
2.35273
2.35249
2.92461
2.90985
2.894
2.87705
2.85896
2.83978
2.81957
2.79843
2.77649
2.75391
2.73085
2.70751
2.68408
2.66076
2.63775
2.61521
2.59333
2.57226
2.55211
2.533
2.51499
2.49816
2.48252
2.46808
2.45484
2.44277
2.43182
2.42194
2.41307
2.40514
2.39808
2.39183
2.3863
2.38144
2.37716
2.37342
2.37016
2.36731
2.36484
2.36269
2.36082
2.35921
2.35782
2.35661
2.35557
2.35468
2.35391
2.35324
2.35267
2.35218
2.35177
2.35141
2.35112
2.35088
2.89553
2.8817
2.86691
2.85109
2.83423
2.81632
2.79743
2.77762
2.75702
2.73576
2.714
2.69192
2.6697
2.64753
2.6256
2.60408
2.58315
2.56294
2.54359
2.52521
2.50786
2.49162
2.47651
2.46255
2.44973
2.43803
2.42741
2.41782
2.40921
2.40151
2.39465
2.38857
2.3832
2.37848
2.37433
2.3707
2.36753
2.36477
2.36237
2.36028
2.35848
2.35692
2.35558
2.35442
2.35342
2.35255
2.35181
2.35117
2.35062
2.35015
2.34975
2.3494
2.34911
2.34888
2.86615
2.85317
2.83935
2.8246
2.80888
2.7922
2.77457
2.75606
2.73677
2.71681
2.69634
2.67551
2.6545
2.63349
2.61266
2.59218
2.57221
2.55289
2.53437
2.51673
2.50007
2.48445
2.46989
2.45643
2.44405
2.43275
2.42247
2.41319
2.40485
2.39739
2.39075
2.38485
2.37965
2.37506
2.37104
2.36752
2.36445
2.36177
2.35945
2.35744
2.35569
2.35419
2.35289
2.35176
2.3508
2.34996
2.34925
2.34863
2.34809
2.34763
2.34724
2.3469
2.34661
2.34637
2.83644
2.82421
2.81127
2.79751
2.78287
2.76734
2.75092
2.73367
2.71565
2.69698
2.67777
2.65819
2.63839
2.61854
2.59882
2.57938
2.5604
2.542
2.52432
2.50746
2.49151
2.47652
2.46255
2.4496
2.43769
2.4268
2.41689
2.40793
2.39988
2.39267
2.38624
2.38054
2.37551
2.37107
2.36718
2.36377
2.3608
2.35821
2.35596
2.35402
2.35233
2.35087
2.34961
2.34853
2.34759
2.34678
2.34608
2.34548
2.34496
2.3445
2.34411
2.34377
2.34347
2.34322
2.80782
2.79623
2.78404
2.77114
2.75746
2.74296
2.72764
2.71153
2.69468
2.67719
2.65917
2.64076
2.6221
2.60335
2.58469
2.56626
2.54821
2.5307
2.51384
2.49774
2.48248
2.46812
2.45472
2.44229
2.43083
2.42035
2.41081
2.40217
2.3944
2.38744
2.38123
2.37573
2.37086
2.36657
2.3628
2.3595
2.35662
2.35412
2.35194
2.35005
2.34842
2.347
2.34578
2.34472
2.3438
2.34301
2.34232
2.34172
2.3412
2.34074
2.34034
2.33999
2.33968
2.33941
2.77942
2.76837
2.75683
2.7447
2.73189
2.71834
2.70404
2.689
2.67325
2.65688
2.63999
2.62269
2.60513
2.58745
2.56982
2.55237
2.53526
2.51862
2.50257
2.48722
2.47266
2.45893
2.44611
2.43419
2.42321
2.41314
2.40397
2.39566
2.38818
2.38147
2.37549
2.37017
2.36547
2.36132
2.35768
2.35449
2.35171
2.34928
2.34717
2.34533
2.34374
2.34236
2.34116
2.34013
2.33922
2.33844
2.33775
2.33715
2.33662
2.33615
2.33573
2.33535
2.33501
2.33471
2.74761
2.73707
2.7262
2.71486
2.70294
2.69038
2.67713
2.6632
2.64862
2.63343
2.61774
2.60164
2.58526
2.56874
2.55222
2.53584
2.51975
2.50408
2.48894
2.47443
2.46063
2.44762
2.43544
2.42412
2.41366
2.40406
2.39531
2.38738
2.38023
2.37381
2.36808
2.36298
2.35847
2.35449
2.35099
2.34792
2.34524
2.3429
2.34085
2.33908
2.33753
2.33618
2.33501
2.33399
2.33309
2.33231
2.33162
2.331
2.33045
2.32996
2.32951
2.3291
2.32873
2.32837
2.72145
2.71152
2.70153
2.69133
2.68078
2.66977
2.65821
2.64605
2.63328
2.6199
2.60596
2.59152
2.57669
2.56157
2.54629
2.53098
2.51578
2.5008
2.48619
2.47204
2.45847
2.44554
2.43333
2.42188
2.41121
2.40136
2.3923
2.38403
2.37653
2.36975
2.36367
2.35823
2.35339
2.34909
2.3453
2.34196
2.33903
2.33646
2.33421
2.33224
2.33053
2.32902
2.32771
2.32656
2.32555
2.32466
2.32386
2.32316
2.32252
2.32194
2.32142
2.32093
2.32047
2.32004
2.31963
2.67985
2.67027
2.66079
2.65124
2.64147
2.63135
2.62079
2.60972
2.59811
2.58596
2.5733
2.56018
2.54668
2.53289
2.51892
2.5049
2.49095
2.47719
2.46373
2.45068
2.43814
2.42617
2.41485
2.40422
2.39431
2.38513
2.37669
2.36898
2.36196
2.35563
2.34992
2.34482
2.34027
2.33623
2.33266
2.32951
2.32673
2.32429
2.32214
2.32026
2.31861
2.31716
2.31588
2.31475
2.31375
2.31285
2.31205
2.31132
2.31065
2.31004
2.30947
2.30892
2.30841
2.30791
2.30743
2.63153
2.62228
2.61327
2.60432
2.59529
2.58603
2.57644
2.56645
2.556
2.54508
2.53371
2.52192
2.50978
2.49737
2.48478
2.47213
2.45951
2.44705
2.43484
2.42299
2.41158
2.40068
2.39035
2.38065
2.37158
2.36318
2.35545
2.34837
2.34192
2.33609
2.33084
2.32614
2.32193
2.31819
2.31488
2.31194
2.30935
2.30707
2.30506
2.30328
2.30171
2.30032
2.29909
2.29799
2.297
2.2961
2.29529
2.29454
2.29384
2.29319
2.29257
2.29197
2.29139
2.29083
2.29027
2.57355
2.56459
2.55601
2.54762
2.53926
2.5308
2.52213
2.51316
2.50383
2.49411
2.48401
2.47356
2.46279
2.45178
2.44062
2.42938
2.41818
2.4071
2.39624
2.38569
2.37553
2.36581
2.3566
2.34794
2.33984
2.33233
2.32541
2.31907
2.3133
2.30807
2.30336
2.29913
2.29534
2.29197
2.28897
2.28631
2.28396
2.28188
2.28003
2.27839
2.27694
2.27564
2.27448
2.27343
2.27247
2.2716
2.27079
2.27004
2.26933
2.26865
2.268
2.26736
2.26673
2.26611
2.26549
2.50096
2.49226
2.48405
2.47614
2.46839
2.46064
2.45279
2.44475
2.43645
2.42786
2.41897
2.4098
2.40039
2.39079
2.38106
2.37129
2.36156
2.35195
2.34254
2.33341
2.32461
2.31622
2.30826
2.30078
2.2938
2.28733
2.28136
2.2759
2.27093
2.26643
2.26237
2.25873
2.25547
2.25257
2.24998
2.24769
2.24565
2.24385
2.24224
2.24081
2.23954
2.23839
2.23736
2.23642
2.23556
2.23476
2.23402
2.23331
2.23264
2.23199
2.23135
2.23073
2.2301
2.22948
2.22886
2.41839
2.40998
2.40213
2.39468
2.38746
2.38035
2.37322
2.366
2.35861
2.35103
2.34323
2.33524
2.32707
2.31878
2.31042
2.30205
2.29374
2.28557
2.27759
2.26987
2.26246
2.2554
2.24874
2.24249
2.23667
2.2313
2.22637
2.22186
2.21777
2.21409
2.21077
2.20781
2.20517
2.20283
2.20075
2.19892
2.1973
2.19587
2.1946
2.19348
2.19248
2.19159
2.19079
2.19006
2.18939
2.18877
2.18818
2.18763
2.18709
2.18657
2.18606
2.18555
2.18504
2.18453
2.18401
2.34601
2.33783
2.33025
2.32312
2.31627
2.30959
2.30296
2.2963
2.28956
2.28269
2.27568
2.26855
2.26131
2.254
2.24667
2.23938
2.23218
2.22512
2.21827
2.21168
2.20537
2.1994
2.19379
2.18855
2.1837
2.17924
2.17516
2.17146
2.16813
2.16514
2.16248
2.16011
2.15802
2.15619
2.15458
2.15317
2.15194
2.15088
2.14994
2.14913
2.14842
2.14779
2.14724
2.14674
2.14629
2.14587
2.14548
2.14512
2.14476
2.14441
2.14407
2.14372
2.14337
2.14301
2.14264
2.27918
2.27123
2.26391
2.25706
2.25054
2.24423
2.23802
2.23184
2.22564
2.21938
2.21306
2.20667
2.20024
2.1938
2.18739
2.18105
2.17483
2.16879
2.16295
2.15737
2.15207
2.14709
2.14244
2.13813
2.13417
2.13056
2.1273
2.12437
2.12176
2.11945
2.11742
2.11565
2.11411
2.11279
2.11167
2.11071
2.10991
2.10924
2.10868
2.10822
2.10784
2.10753
2.10727
2.10706
2.10688
2.10674
2.10661
2.10649
2.10638
2.10627
2.10616
2.10604
2.10592
2.10578
2.10564
2.22192
2.21421
2.20714
2.20056
2.19434
2.18838
2.18256
2.17684
2.17115
2.16546
2.15977
2.15408
2.14841
2.14277
2.13721
2.13177
2.12647
2.12136
2.11648
2.11185
2.10749
2.10344
2.0997
2.09627
2.09317
2.09038
2.0879
2.08572
2.08382
2.08218
2.08079
2.07962
2.07866
2.07788
2.07727
2.0768
2.07646
2.07622
2.07608
2.07602
2.07603
2.07609
2.07619
2.07633
2.07649
2.07667
2.07687
2.07706
2.07726
2.07746
2.07765
2.07784
2.07801
2.07817
2.07832
2.18025
2.17275
2.16591
2.1596
2.15368
2.14805
2.14264
2.13736
2.13218
2.12707
2.12201
2.11701
2.11208
2.10724
2.10252
2.09794
2.09354
2.08934
2.08537
2.08166
2.07822
2.07507
2.07221
2.06965
2.06739
2.06541
2.06371
2.06228
2.0611
2.06015
2.05942
2.05889
2.05853
2.05833
2.05827
2.05833
2.0585
2.05876
2.0591
2.0595
2.05995
2.06045
2.06097
2.06152
2.06209
2.06267
2.06325
2.06383
2.06442
2.06499
2.06556
2.06611
2.06666
2.06718
2.0677
2.16359
2.15624
2.14959
2.14351
2.13787
2.13258
2.12757
2.12276
2.11811
2.11359
2.10919
2.1049
2.10073
2.0967
2.09282
2.08911
2.0856
2.08232
2.07927
2.07648
2.07396
2.07171
2.06975
2.06806
2.06665
2.0655
2.06461
2.06396
2.06353
2.06332
2.06329
2.06344
2.06374
2.06418
2.06473
2.0654
2.06615
2.06697
2.06786
2.06879
2.06977
2.07078
2.07181
2.07285
2.0739
2.07496
2.07602
2.07707
2.07812
2.07915
2.08017
2.08118
2.08217
2.08315
2.08412
2.18857
2.18122
2.17464
2.16871
2.1633
2.15832
2.15369
2.14935
2.14525
2.14135
2.13763
2.13408
2.13071
2.12751
2.12451
2.12171
2.11913
2.11679
2.11469
2.11286
2.11129
2.10998
2.10895
2.10819
2.10768
2.10742
2.1074
2.1076
2.108
2.1086
2.10936
2.11028
2.11134
2.11251
2.11378
2.11515
2.11659
2.11808
2.11963
2.12121
2.12283
2.12446
2.12611
2.12776
2.12942
2.13107
2.13271
2.13435
2.13597
2.13757
2.13917
2.14074
2.1423
2.14383
2.14536
2.29005
2.28237
2.27559
2.26958
2.26424
2.25945
2.25513
2.2512
2.24762
2.24434
2.24132
2.23854
2.236
2.2337
2.23162
2.22979
2.2282
2.22687
2.2258
2.225
2.22447
2.22421
2.22422
2.22449
2.22501
2.22577
2.22675
2.22795
2.22934
2.2309
2.23262
2.23448
2.23646
2.23855
2.24073
2.24299
2.2453
2.24766
2.25006
2.25249
2.25494
2.2574
2.25986
2.26231
2.26477
2.26721
2.26963
2.27204
2.27444
2.27681
2.27916
2.28149
2.28379
2.28608
2.28835
2.56135
2.55245
2.54473
2.53804
2.53227
2.52727
2.52296
2.51924
2.51603
2.51326
2.51089
2.50889
2.50721
2.50584
2.50479
2.50403
2.50356
2.5034
2.50354
2.50397
2.50469
2.50571
2.50701
2.50859
2.51043
2.51251
2.51482
2.51735
2.52008
2.52297
2.52603
2.52922
2.53252
2.53593
2.53942
2.54298
2.54659
2.55024
2.55392
2.55762
2.56132
2.56503
2.56873
2.57242
2.57609
2.57975
2.58338
2.58699
2.59057
2.59412
2.59765
2.60115
2.60462
2.60806
2.61149
3.37165
3.3588
3.34784
3.33858
3.33083
3.32442
3.31919
3.31498
3.31166
3.30913
3.30728
3.30605
3.30537
3.30519
3.30548
3.30621
3.30737
3.30895
3.31092
3.31329
3.31605
3.31917
3.32265
3.32647
3.33062
3.33507
3.3398
3.34479
3.35001
3.35545
3.36106
3.36684
3.37275
3.37878
3.3849
3.39109
3.39734
3.40363
3.40994
3.41627
3.42259
3.42891
3.43522
3.4415
3.44775
3.45397
3.46015
3.4663
3.47241
3.47849
3.48452
3.49052
3.49648
3.5024
3.5083
7.70142
7.68487
7.6731
7.66555
7.66165
7.66088
7.66276
7.66684
7.67277
7.6802
7.68889
7.6986
7.70918
7.72051
7.73248
7.74504
7.75816
7.7718
7.78596
7.80063
7.81579
7.83144
7.84758
7.86417
7.88121
7.89866
7.9165
7.93469
7.95318
7.97195
7.99095
8.01014
8.02947
8.04891
8.06842
8.08797
8.10753
8.12707
8.14656
8.16599
8.18533
8.20457
8.2237
8.2427
8.26158
8.28033
8.29894
8.31741
8.33576
8.35397
8.37205
8.39002
8.40787
8.42561
8.44326
)
;

boundaryField
{
    inlet
    {
        type            fixedValue;
        value           nonuniform 0();
    }
    outlet
    {
        type            zeroGradient;
    }
    upperWall
    {
        Cmu             0.09;
        kappa           0.41;
        E               9.8;
        type            epsilonWallFunction;
        value           nonuniform List<scalar> 
55
(
7.70142
7.68487
7.6731
7.66555
7.66165
7.66088
7.66276
7.66684
7.67277
7.6802
7.68889
7.6986
7.70918
7.72051
7.73248
7.74504
7.75816
7.7718
7.78596
7.80063
7.81579
7.83144
7.84758
7.86417
7.88121
7.89866
7.9165
7.93469
7.95318
7.97195
7.99095
8.01014
8.02947
8.04891
8.06842
8.08797
8.10753
8.12707
8.14656
8.16599
8.18533
8.20457
8.2237
8.2427
8.26158
8.28033
8.29894
8.31741
8.33576
8.35397
8.37205
8.39002
8.40787
8.42561
8.44326
)
;
    }
    lowerWall
    {
        Cmu             0.09;
        kappa           0.41;
        E               9.8;
        type            epsilonWallFunction;
        value           nonuniform List<scalar> 
49
(
6.36863
6.31308
6.25324
6.18998
6.12411
6.05639
5.98753
5.91817
5.84888
5.78018
5.7125
5.64622
5.58165
5.51905
5.45863
5.40052
5.34486
5.2917
5.24109
5.19304
5.14752
5.10451
5.06395
5.02577
4.9899
4.95626
4.92475
4.89528
4.86776
4.8421
4.81819
4.79594
4.77527
4.75608
4.7383
4.72183
4.7066
4.69254
4.67958
4.66764
4.65666
4.64659
4.63737
4.62894
4.62125
4.61427
4.60793
4.60221
4.59706
)
;
    }
    frontAndBack
    {
        type            empty;
    }
    procBoundary3to1
    {
        type            processor;
        value           nonuniform List<scalar> 
62
(
4.59245
2.42004
2.13923
2.09185
2.10452
2.13558
2.13558
2.16945
2.20341
2.20341
2.23262
2.25887
2.2809
2.29902
2.31368
2.31368
2.32449
2.33371
2.34099
2.34639
2.34639
2.34956
2.34956
2.35171
2.35363
2.35497
2.3559
2.35653
2.35692
2.35712
2.35718
2.3571
2.3569
2.35656
2.35607
2.35543
2.3546
2.35357
2.35228
2.35068
2.34867
2.34616
2.34299
2.33915
2.33442
2.32804
2.31923
2.30695
2.28971
2.26487
2.22822
2.18347
2.14225
2.10548
2.07845
2.0682
2.08506
2.14686
2.29059
2.61488
3.51416
8.46081
)
;
    }
    procBoundary3to2
    {
        type            processor;
        value           nonuniform List<scalar> 
58
(
6.419
3.22486
2.82591
2.77741
2.82393
2.90408
2.99614
3.09064
3.1826
3.26883
3.34674
3.41393
3.46814
3.50738
3.53008
3.53552
3.52243
3.49579
3.4606
3.42086
3.37955
3.33866
3.29941
3.26245
3.22804
3.19623
3.16691
3.13934
3.11198
3.08398
3.05547
3.02655
2.99731
2.96782
2.93814
2.90828
2.87822
2.84791
2.81881
2.79001
2.75785
2.75785
2.73144
2.68967
2.64118
2.58304
2.51032
2.42754
2.35497
2.28793
2.23045
2.18857
2.17179
2.19682
2.29877
2.57157
3.38657
7.72335
)
;
    }
}


// ************************************************************************* //
