/*--------------------------------*- C++ -*----------------------------------*\
  =========                 |
  \\      /  F ield         | OpenFOAM: The Open Source CFD Toolbox
   \\    /   O peration     | Website:  https://openfoam.org
    \\  /    A nd           | Version:  6
     \\/     M anipulation  |
\*---------------------------------------------------------------------------*/
FoamFile
{
    version     2.0;
    format      ascii;
    class       volScalarField;
    location    "0.04";
    object      k;
}
// * * * * * * * * * * * * * * * * * * * * * * * * * * * * * * * * * * * * * //

dimensions      [0 2 -2 0 0 0 0];

internalField   nonuniform List<scalar> 
3032
(
0.0420774
0.0418151
0.0415302
0.0412265
0.0409077
0.0405773
0.0402387
0.0398949
0.0395487
0.0392028
0.0388594
0.0385205
0.0381878
0.0378629
0.0375468
0.0372407
0.0369453
0.0366611
0.0363885
0.0361278
0.0358791
0.0356423
0.0354173
0.0352039
0.0350017
0.0348106
0.0346301
0.0344598
0.0342992
0.034148
0.0340056
0.0338717
0.0337457
0.0336273
0.0335161
0.0334115
0.0333133
0.0332209
0.0331342
0.0330527
0.0329761
0.032904
0.0328362
0.0327725
0.0327124
0.0326559
0.0326026
0.0325523
0.0325049
0.0881158
0.087397
0.0866386
0.0858487
0.085035
0.084205
0.0833656
0.082523
0.0816832
0.0808512
0.0800317
0.0792285
0.0784451
0.0776843
0.0769482
0.0762386
0.0755568
0.0749037
0.0742796
0.0736849
0.0731192
0.0725823
0.0720736
0.0715923
0.0711376
0.0707085
0.070304
0.0699231
0.0695646
0.0692273
0.0689103
0.0686124
0.0683325
0.0680696
0.0678227
0.0675908
0.067373
0.0671684
0.0669761
0.0667955
0.0666256
0.0664659
0.0663156
0.0661742
0.0660409
0.0659154
0.065797
0.0656852
0.0655797
0.111099
0.110199
0.10925
0.108263
0.107246
0.106209
0.105161
0.10411
0.103062
0.102025
0.101005
0.100005
0.099031
0.098086
0.0971728
0.0962937
0.0954501
0.0946431
0.0938733
0.0931408
0.0924452
0.0917862
0.0911628
0.090574
0.0900188
0.0894957
0.0890034
0.0885405
0.0881055
0.087697
0.0873135
0.0869536
0.0866159
0.0862991
0.0860018
0.0857229
0.0854611
0.0852153
0.0849846
0.0847678
0.0845641
0.0843726
0.0841924
0.0840228
0.083863
0.0837124
0.0835703
0.0834361
0.0833094
0.127044
0.126021
0.124943
0.123821
0.122667
0.12149
0.1203
0.119108
0.11792
0.116744
0.115588
0.114456
0.113354
0.112286
0.111255
0.110263
0.109313
0.108405
0.107541
0.106719
0.10594
0.105204
0.104508
0.103853
0.103236
0.102655
0.10211
0.101599
0.101119
0.100669
0.100247
0.0998522
0.0994822
0.0991355
0.0988107
0.0985063
0.098221
0.0979535
0.0977025
0.0974669
0.0972457
0.0970378
0.0968424
0.0966585
0.0964852
0.096322
0.096168
0.0960225
0.0958851
0.139399
0.138276
0.137094
0.135865
0.134601
0.133313
0.132013
0.130709
0.129411
0.128127
0.126865
0.125631
0.12443
0.123267
0.122145
0.121068
0.120037
0.119053
0.118117
0.117229
0.116389
0.115596
0.114848
0.114145
0.113484
0.112864
0.112283
0.111739
0.11123
0.110753
0.110307
0.10989
0.1095
0.109136
0.108795
0.108476
0.108178
0.107898
0.107636
0.107391
0.10716
0.106944
0.106741
0.10655
0.10637
0.106201
0.106041
0.10589
0.105748
0.149364
0.148154
0.146882
0.145562
0.144206
0.142825
0.141432
0.140036
0.138647
0.137273
0.135924
0.134606
0.133324
0.132083
0.130888
0.129741
0.128644
0.1276
0.126607
0.125668
0.12478
0.123944
0.123157
0.122419
0.121726
0.121078
0.120472
0.119905
0.119376
0.118882
0.118421
0.117991
0.11759
0.117216
0.116866
0.11654
0.116235
0.11595
0.115683
0.115434
0.1152
0.114981
0.114776
0.114583
0.114401
0.11423
0.114069
0.113917
0.113774
0.157522
0.156235
0.154886
0.153487
0.152051
0.150591
0.149118
0.147644
0.146177
0.144729
0.143306
0.141916
0.140566
0.139261
0.138004
0.1368
0.135649
0.134555
0.133518
0.132537
0.131611
0.130741
0.129925
0.12916
0.128444
0.127776
0.127152
0.126571
0.126029
0.125525
0.125055
0.124619
0.124212
0.123834
0.123481
0.123153
0.122847
0.122561
0.122295
0.122046
0.121813
0.121595
0.121391
0.121199
0.121019
0.12085
0.120691
0.120541
0.1204
0.120266
0.164217
0.162864
0.161449
0.159983
0.158481
0.156954
0.155414
0.153873
0.152342
0.150829
0.149344
0.147895
0.146487
0.145127
0.143819
0.142566
0.141371
0.140236
0.139161
0.138146
0.137191
0.136295
0.135455
0.13467
0.133937
0.133255
0.132619
0.132029
0.13148
0.130971
0.130498
0.130059
0.129652
0.129274
0.128923
0.128596
0.128293
0.12801
0.127747
0.127502
0.127273
0.12706
0.12686
0.126673
0.126497
0.126333
0.126178
0.126032
0.125895
0.125765
0.169676
0.168272
0.166804
0.165286
0.16373
0.162149
0.160556
0.158961
0.157376
0.155811
0.154275
0.152775
0.15132
0.149914
0.148562
0.147269
0.146037
0.144868
0.143762
0.14272
0.14174
0.140823
0.139965
0.139165
0.13842
0.137728
0.137086
0.13649
0.135938
0.135428
0.134955
0.134518
0.134113
0.133738
0.133391
0.13307
0.132772
0.132495
0.132238
0.131999
0.131777
0.13157
0.131377
0.131196
0.131027
0.130869
0.13072
0.130581
0.130449
0.130325
0.130208
0.17406
0.172623
0.17112
0.169566
0.167972
0.166353
0.164719
0.163084
0.161458
0.159852
0.158275
0.156736
0.155242
0.153799
0.152412
0.151086
0.149823
0.148625
0.147494
0.146429
0.14543
0.144496
0.143624
0.142813
0.14206
0.141361
0.140715
0.140117
0.139565
0.139056
0.138586
0.138152
0.137753
0.137384
0.137043
0.136729
0.136438
0.136169
0.13592
0.135689
0.135475
0.135276
0.135091
0.134918
0.134757
0.134607
0.134466
0.134333
0.134209
0.134092
0.133982
0.17749
0.176041
0.174524
0.172952
0.17134
0.169699
0.168042
0.166381
0.164728
0.163094
0.161488
0.15992
0.158396
0.156925
0.15551
0.154158
0.15287
0.15165
0.150498
0.149415
0.148401
0.147453
0.146571
0.145751
0.144992
0.14429
0.143642
0.143044
0.142494
0.141988
0.141522
0.141094
0.140701
0.140339
0.140006
0.1397
0.139418
0.139158
0.138918
0.138697
0.138492
0.138302
0.138125
0.137962
0.137809
0.137667
0.137534
0.13741
0.137294
0.137185
0.137082
0.180056
0.17862
0.177112
0.175547
0.173936
0.172293
0.170631
0.168962
0.167298
0.165649
0.164027
0.162441
0.160898
0.159407
0.157973
0.156602
0.155296
0.154059
0.152892
0.151795
0.150768
0.149811
0.148921
0.148095
0.147332
0.146628
0.14598
0.145384
0.144837
0.144335
0.143875
0.143453
0.143067
0.142713
0.142389
0.142092
0.141819
0.141569
0.141338
0.141126
0.140931
0.140751
0.140584
0.14043
0.140286
0.140153
0.140029
0.139914
0.139805
0.139704
0.139609
0.18183
0.180436
0.178965
0.17743
0.175845
0.174222
0.172575
0.170916
0.169257
0.167609
0.165985
0.164393
0.162843
0.161343
0.159898
0.158515
0.157198
0.15595
0.154772
0.153666
0.152631
0.151667
0.150772
0.149943
0.149178
0.148473
0.147826
0.147233
0.146689
0.146192
0.145738
0.145324
0.144946
0.1446
0.144285
0.143997
0.143734
0.143493
0.143273
0.14307
0.142885
0.142714
0.142557
0.142412
0.142278
0.142154
0.142038
0.141931
0.141832
0.141738
0.141651
0.182876
0.181554
0.180148
0.178672
0.177137
0.175557
0.173946
0.172316
0.17068
0.169051
0.167439
0.165856
0.16431
0.162811
0.161365
0.159979
0.158658
0.157405
0.156222
0.155111
0.154072
0.153104
0.152206
0.151376
0.150611
0.149908
0.149263
0.148673
0.148134
0.147643
0.147196
0.146788
0.146418
0.146081
0.145775
0.145496
0.145242
0.145011
0.1448
0.144608
0.144432
0.14427
0.144123
0.143987
0.143862
0.143746
0.14364
0.143541
0.143449
0.143364
0.143284
0.14321
0.183257
0.182038
0.180726
0.179334
0.177874
0.176361
0.174807
0.173227
0.171632
0.170037
0.168453
0.166892
0.165364
0.163877
0.16244
0.16106
0.159743
0.158492
0.15731
0.156199
0.15516
0.154193
0.153295
0.152466
0.151703
0.151003
0.150361
0.149776
0.149243
0.148758
0.148317
0.147917
0.147555
0.147226
0.146928
0.146659
0.146414
0.146192
0.145991
0.145807
0.14564
0.145488
0.145349
0.145222
0.145106
0.144999
0.144901
0.14481
0.144726
0.144648
0.144576
0.144508
0.183037
0.181952
0.180762
0.179481
0.178122
0.176698
0.175224
0.173714
0.17218
0.170637
0.169097
0.167573
0.166075
0.164613
0.163196
0.161832
0.160527
0.159285
0.158111
0.157006
0.155972
0.155009
0.154116
0.153291
0.152532
0.151836
0.1512
0.15062
0.150093
0.149615
0.149182
0.14879
0.148435
0.148115
0.147826
0.147565
0.14733
0.147117
0.146924
0.14675
0.146592
0.146449
0.146318
0.1462
0.146091
0.145992
0.145902
0.145819
0.145742
0.145671
0.145606
0.145545
0.182264
0.181336
0.180291
0.179143
0.177905
0.17659
0.175214
0.173791
0.172335
0.170859
0.169378
0.167904
0.166449
0.165023
0.163637
0.162298
0.161014
0.15979
0.15863
0.157537
0.156513
0.155559
0.154674
0.153856
0.153104
0.152415
0.151786
0.151213
0.150693
0.150223
0.149797
0.149413
0.149067
0.148755
0.148474
0.148222
0.147995
0.147791
0.147606
0.147441
0.147291
0.147156
0.147033
0.146922
0.146822
0.14673
0.146647
0.14657
0.1465
0.146436
0.146377
0.146323
0.18117
0.180399
0.179501
0.178488
0.177373
0.176172
0.174898
0.173567
0.172193
0.170791
0.169375
0.167958
0.166552
0.16517
0.16382
0.162513
0.161256
0.160054
0.158914
0.157837
0.156828
0.155886
0.155011
0.154204
0.153461
0.15278
0.152159
0.151595
0.151082
0.150619
0.150202
0.149825
0.149487
0.149183
0.14891
0.148666
0.148447
0.14825
0.148074
0.147915
0.147773
0.147645
0.14753
0.147426
0.147332
0.147247
0.14717
0.1471
0.147036
0.146978
0.146924
0.146875
0.14683
0.179914
0.179291
0.178531
0.177646
0.176651
0.17556
0.174387
0.173148
0.171857
0.170531
0.169182
0.167824
0.166472
0.165135
0.163826
0.162554
0.161327
0.160152
0.159034
0.157978
0.156985
0.156058
0.155197
0.154401
0.153669
0.152998
0.152386
0.15183
0.151327
0.150872
0.150462
0.150093
0.149762
0.149466
0.149201
0.148964
0.148751
0.148562
0.148392
0.148241
0.148105
0.147984
0.147875
0.147777
0.147689
0.14761
0.147538
0.147473
0.147415
0.147362
0.147313
0.147269
0.147229
0.147192
0.178604
0.178114
0.177479
0.176711
0.175826
0.174838
0.17376
0.172609
0.171399
0.170146
0.168863
0.167565
0.166266
0.164977
0.163711
0.162476
0.161281
0.160135
0.159042
0.158007
0.157033
0.156123
0.155277
0.154494
0.153774
0.153114
0.152512
0.151965
0.15147
0.151023
0.150621
0.150261
0.149937
0.149648
0.14939
0.149159
0.148954
0.14877
0.148607
0.148462
0.148332
0.148216
0.148113
0.14802
0.147938
0.147864
0.147797
0.147737
0.147683
0.147635
0.147591
0.147551
0.147515
0.147482
0.177311
0.176934
0.176408
0.175745
0.174958
0.174063
0.173072
0.172002
0.170868
0.169684
0.168465
0.167226
0.165979
0.164737
0.163513
0.162315
0.161154
0.160037
0.15897
0.157958
0.157005
0.156113
0.155282
0.154514
0.153806
0.153158
0.152566
0.152029
0.151543
0.151105
0.15071
0.150357
0.150041
0.149758
0.149507
0.149283
0.149083
0.148906
0.148748
0.148609
0.148484
0.148374
0.148275
0.148188
0.14811
0.14804
0.147978
0.147922
0.147872
0.147827
0.147787
0.147751
0.147718
0.147689
0.176075
0.175793
0.175359
0.174786
0.174085
0.173272
0.17236
0.171364
0.170299
0.169179
0.16802
0.166836
0.165639
0.164443
0.16326
0.1621
0.160972
0.159884
0.158844
0.157856
0.156923
0.156049
0.155235
0.154481
0.153787
0.15315
0.152569
0.152042
0.151565
0.151135
0.150749
0.150403
0.150094
0.149818
0.149572
0.149354
0.149161
0.148989
0.148837
0.148702
0.148582
0.148476
0.148383
0.148299
0.148225
0.14816
0.148101
0.148049
0.148003
0.147962
0.147925
0.147892
0.147862
0.147836
0.174916
0.174712
0.174355
0.173857
0.17323
0.172488
0.171646
0.170716
0.169713
0.168653
0.167549
0.166416
0.165267
0.164115
0.162971
0.161847
0.160752
0.159694
0.158679
0.157715
0.156803
0.155948
0.15515
0.154411
0.15373
0.153106
0.152536
0.152019
0.151551
0.151129
0.150751
0.150412
0.150109
0.14984
0.1496
0.149388
0.1492
0.149033
0.148886
0.148756
0.148641
0.148539
0.148449
0.14837
0.1483
0.148238
0.148183
0.148134
0.148091
0.148053
0.148019
0.147988
0.147961
0.147938
0.173843
0.1737
0.173405
0.17297
0.172406
0.171727
0.170944
0.170073
0.169127
0.168121
0.167068
0.165982
0.164877
0.163766
0.16266
0.161571
0.160507
0.159477
0.158489
0.157547
0.156656
0.155819
0.155038
0.154314
0.153647
0.153034
0.152476
0.151968
0.151509
0.151096
0.150725
0.150393
0.150097
0.149834
0.149601
0.149394
0.14921
0.149049
0.148906
0.14878
0.148669
0.148572
0.148486
0.14841
0.148343
0.148284
0.148232
0.148187
0.148146
0.148111
0.148079
0.148051
0.148027
0.148005
0.172853
0.172758
0.172514
0.172131
0.17162
0.170994
0.170264
0.169445
0.168549
0.167591
0.166584
0.165543
0.164479
0.163406
0.162336
0.16128
0.160246
0.159243
0.15828
0.15736
0.15649
0.155671
0.154907
0.154198
0.153543
0.152943
0.152395
0.151897
0.151447
0.151042
0.150679
0.150354
0.150065
0.149807
0.149579
0.149377
0.149199
0.149042
0.148904
0.148782
0.148675
0.148581
0.148498
0.148426
0.148362
0.148306
0.148257
0.148214
0.148176
0.148143
0.148114
0.148088
0.148066
0.148046
0.171942
0.171884
0.17168
0.17134
0.170874
0.170293
0.169609
0.168835
0.167985
0.16707
0.166105
0.165104
0.164079
0.163042
0.162005
0.160979
0.159974
0.158998
0.158058
0.157161
0.15631
0.155509
0.154761
0.154066
0.153425
0.152836
0.152299
0.151811
0.15137
0.150973
0.150617
0.150299
0.150015
0.149764
0.149541
0.149344
0.149171
0.149018
0.148884
0.148766
0.148662
0.148572
0.148492
0.148423
0.148362
0.148309
0.148262
0.148222
0.148186
0.148155
0.148128
0.148104
0.148084
0.148066
0.171104
0.171074
0.170902
0.170596
0.170167
0.169625
0.168981
0.168248
0.167437
0.166561
0.165635
0.16467
0.16368
0.162677
0.161671
0.160675
0.159697
0.158746
0.157829
0.156952
0.15612
0.155337
0.154604
0.153924
0.153295
0.152718
0.152191
0.151713
0.15128
0.150891
0.150542
0.15023
0.149953
0.149707
0.14949
0.149298
0.149128
0.14898
0.148849
0.148735
0.148635
0.148547
0.148471
0.148404
0.148346
0.148295
0.148251
0.148213
0.148179
0.14815
0.148125
0.148103
0.148084
0.148068
0.170313
0.170303
0.170156
0.16988
0.169482
0.168973
0.168364
0.167667
0.166892
0.166053
0.165162
0.164231
0.163274
0.162302
0.161327
0.160358
0.159406
0.15848
0.157585
0.156729
0.155916
0.15515
0.154433
0.153766
0.153151
0.152585
0.152069
0.1516
0.151176
0.150795
0.150453
0.150148
0.149877
0.149636
0.149424
0.149237
0.149072
0.148927
0.148801
0.14869
0.148593
0.148509
0.148435
0.148371
0.148315
0.148267
0.148225
0.148189
0.148157
0.14813
0.148106
0.148086
0.148068
0.148053
0.169522
0.169528
0.169402
0.169149
0.16878
0.168302
0.167726
0.167062
0.166322
0.165517
0.164661
0.163764
0.16284
0.1619
0.160954
0.160014
0.159089
0.158187
0.157316
0.156481
0.155687
0.154939
0.154238
0.153587
0.152984
0.152431
0.151926
0.151467
0.151052
0.150679
0.150345
0.150047
0.149782
0.149547
0.14934
0.149158
0.148998
0.148857
0.148734
0.148627
0.148534
0.148452
0.148382
0.14832
0.148267
0.148221
0.148181
0.148147
0.148117
0.148091
0.148069
0.14805
0.148034
0.148021
0.168705
0.168722
0.168613
0.168383
0.168039
0.167591
0.167046
0.166416
0.16571
0.164941
0.164119
0.163257
0.162367
0.161459
0.160545
0.159634
0.158737
0.157861
0.157014
0.156202
0.155429
0.1547
0.154017
0.153381
0.152793
0.152253
0.151759
0.151311
0.150906
0.150542
0.150216
0.149925
0.149667
0.149438
0.149237
0.149059
0.148904
0.148768
0.148649
0.148545
0.148455
0.148377
0.148309
0.148251
0.1482
0.148156
0.148118
0.148086
0.148058
0.148034
0.148013
0.147995
0.14798
0.147968
0.167858
0.167884
0.167788
0.167578
0.167258
0.166837
0.166323
0.165726
0.165054
0.16432
0.163534
0.162707
0.161851
0.160977
0.160095
0.159215
0.158347
0.157499
0.156678
0.155889
0.155138
0.154429
0.153765
0.153146
0.152573
0.152047
0.151566
0.15113
0.150735
0.15038
0.150063
0.14978
0.149529
0.149307
0.149111
0.148939
0.148788
0.148657
0.148542
0.148442
0.148355
0.14828
0.148215
0.148159
0.148111
0.148069
0.148033
0.148003
0.147976
0.147954
0.147934
0.147918
0.147904
0.147892
0.166981
0.16701
0.166925
0.166731
0.166433
0.166038
0.165553
0.164988
0.16435
0.163651
0.1629
0.162109
0.161288
0.160449
0.1596
0.158753
0.157915
0.157096
0.156301
0.155538
0.154811
0.154123
0.153478
0.152877
0.152321
0.15181
0.151343
0.150919
0.150535
0.150191
0.149882
0.149608
0.149364
0.149149
0.148959
0.148793
0.148647
0.14852
0.14841
0.148314
0.14823
0.148158
0.148096
0.148043
0.147997
0.147957
0.147923
0.147894
0.147869
0.147848
0.14783
0.147814
0.147801
0.14779
0.166069
0.166097
0.166019
0.165838
0.16556
0.165189
0.164732
0.164197
0.163592
0.162928
0.162213
0.161458
0.160673
0.159869
0.159055
0.158241
0.157435
0.156646
0.15588
0.155143
0.154441
0.153776
0.153152
0.15257
0.152032
0.151537
0.151084
0.150673
0.150302
0.149968
0.149669
0.149403
0.149168
0.14896
0.148777
0.148616
0.148476
0.148354
0.148247
0.148155
0.148076
0.148007
0.147948
0.147897
0.147853
0.147816
0.147783
0.147756
0.147732
0.147712
0.147695
0.14768
0.147667
0.147657
0.165117
0.165139
0.165064
0.164894
0.164632
0.164283
0.163852
0.163347
0.162775
0.162145
0.161466
0.160748
0.16
0.159232
0.158454
0.157674
0.156901
0.156144
0.155407
0.154699
0.154022
0.153381
0.15278
0.152218
0.151699
0.151221
0.150784
0.150387
0.150028
0.149706
0.149418
0.149161
0.148934
0.148734
0.148558
0.148403
0.148269
0.148151
0.14805
0.147962
0.147885
0.14782
0.147763
0.147715
0.147673
0.147638
0.147607
0.147581
0.147558
0.147539
0.147522
0.147508
0.147496
0.147485
0.164116
0.16413
0.164054
0.163891
0.163643
0.163314
0.162908
0.162431
0.161891
0.161295
0.160652
0.159971
0.15926
0.158529
0.157788
0.157044
0.156305
0.15558
0.154875
0.154196
0.153547
0.152932
0.152354
0.151814
0.151315
0.150855
0.150434
0.150052
0.149707
0.149397
0.14912
0.148874
0.148656
0.148463
0.148294
0.148146
0.148017
0.147905
0.147808
0.147724
0.147652
0.147589
0.147535
0.147489
0.147449
0.147415
0.147386
0.147361
0.147339
0.14732
0.147304
0.14729
0.147277
0.147266
0.163058
0.163058
0.162979
0.16282
0.162583
0.162271
0.161888
0.161439
0.16093
0.160368
0.159761
0.159116
0.158444
0.157751
0.157047
0.156339
0.155637
0.154946
0.154274
0.153625
0.153005
0.152417
0.151864
0.151347
0.150869
0.150429
0.150026
0.14966
0.149329
0.149032
0.148767
0.148531
0.148322
0.148138
0.147977
0.147836
0.147713
0.147606
0.147513
0.147433
0.147364
0.147304
0.147253
0.147209
0.147171
0.147138
0.14711
0.147086
0.147064
0.147046
0.147029
0.147014
0.147001
0.146989
0.161927
0.161912
0.161825
0.161668
0.16144
0.161143
0.160782
0.160359
0.15988
0.159351
0.158779
0.158172
0.157538
0.156884
0.156218
0.155549
0.154883
0.154228
0.15359
0.152973
0.152384
0.151824
0.151297
0.150805
0.150349
0.14993
0.149546
0.149197
0.148881
0.148598
0.148345
0.148121
0.147922
0.147746
0.147593
0.147458
0.147341
0.14724
0.147152
0.147075
0.14701
0.146953
0.146904
0.146861
0.146825
0.146793
0.146765
0.146741
0.14672
0.1467
0.146683
0.146667
0.146653
0.146639
0.160709
0.160674
0.160578
0.160419
0.160197
0.159915
0.159572
0.159174
0.158725
0.158229
0.157693
0.157123
0.156527
0.155913
0.155287
0.154656
0.154029
0.153411
0.152808
0.152225
0.151667
0.151137
0.150639
0.150172
0.14974
0.149342
0.148978
0.148647
0.148348
0.148079
0.147839
0.147626
0.147437
0.147271
0.147126
0.146998
0.146887
0.146791
0.146707
0.146634
0.146572
0.146517
0.14647
0.146429
0.146393
0.146362
0.146334
0.146309
0.146287
0.146267
0.146248
0.14623
0.146213
0.146197
0.159452
0.159397
0.159288
0.159126
0.158909
0.158637
0.158312
0.157936
0.157513
0.157048
0.156545
0.156011
0.155452
0.154875
0.154287
0.153695
0.153104
0.152522
0.151954
0.151405
0.150878
0.150378
0.149907
0.149466
0.149057
0.14868
0.148336
0.148022
0.147739
0.147485
0.147258
0.147056
0.146877
0.14672
0.146582
0.146461
0.146355
0.146263
0.146183
0.146114
0.146054
0.146001
0.145955
0.145914
0.145878
0.145846
0.145818
0.145791
0.145767
0.145744
0.145723
0.145702
0.145682
0.145662
0.158112
0.158034
0.157912
0.157745
0.157529
0.157267
0.156957
0.156602
0.156204
0.155767
0.155297
0.154797
0.154274
0.153734
0.153183
0.152628
0.152075
0.151529
0.150996
0.15048
0.149985
0.149514
0.149071
0.148656
0.148271
0.147916
0.147591
0.147296
0.147029
0.146789
0.146574
0.146383
0.146214
0.146065
0.145934
0.145819
0.145719
0.145631
0.145554
0.145487
0.145428
0.145376
0.14533
0.145289
0.145252
0.145219
0.145188
0.145159
0.145132
0.145106
0.14508
0.145055
0.14503
0.145005
0.15648
0.156376
0.156239
0.156065
0.155851
0.155598
0.155304
0.154971
0.1546
0.154195
0.15376
0.153298
0.152815
0.152316
0.151807
0.151294
0.150782
0.150277
0.149783
0.149305
0.148846
0.148409
0.147997
0.147612
0.147254
0.146924
0.146622
0.146347
0.146098
0.145875
0.145674
0.145496
0.145338
0.145199
0.145076
0.144967
0.144872
0.144789
0.144715
0.14465
0.144592
0.144541
0.144494
0.144452
0.144413
0.144377
0.144343
0.144311
0.144279
0.144248
0.144218
0.144187
0.144156
0.144124
0.154555
0.154444
0.154313
0.154159
0.153977
0.153765
0.15352
0.153244
0.152934
0.152593
0.152223
0.151825
0.151405
0.150966
0.150514
0.150052
0.149586
0.149121
0.148661
0.148212
0.147776
0.147358
0.14696
0.146584
0.146232
0.145905
0.145604
0.145327
0.145076
0.144848
0.144643
0.144459
0.144295
0.14415
0.144021
0.143906
0.143805
0.143716
0.143636
0.143566
0.143503
0.143446
0.143394
0.143346
0.143302
0.143261
0.143221
0.143182
0.143145
0.143108
0.14307
0.143032
0.142994
0.142955
0.142914
0.151997
0.151847
0.151688
0.151516
0.151326
0.151116
0.150882
0.150624
0.150341
0.150032
0.149699
0.149344
0.14897
0.14858
0.148178
0.147768
0.147354
0.146941
0.146533
0.146134
0.145747
0.145375
0.145021
0.144686
0.144373
0.144081
0.143812
0.143565
0.14334
0.143136
0.142952
0.142787
0.14264
0.142508
0.14239
0.142286
0.142193
0.142109
0.142035
0.141967
0.141906
0.141849
0.141797
0.141747
0.1417
0.141655
0.14161
0.141566
0.141522
0.141478
0.141432
0.141386
0.141338
0.141289
0.141238
0.148635
0.148446
0.148261
0.148072
0.147877
0.14767
0.14745
0.147213
0.146958
0.146685
0.146394
0.146086
0.145763
0.145427
0.145081
0.144729
0.144373
0.144019
0.143668
0.143325
0.142992
0.142672
0.142368
0.14208
0.14181
0.141559
0.141327
0.141114
0.140919
0.140743
0.140583
0.14044
0.140311
0.140195
0.140091
0.139998
0.139914
0.139838
0.139769
0.139705
0.139646
0.13959
0.139537
0.139486
0.139436
0.139386
0.139337
0.139287
0.139236
0.139183
0.13913
0.139074
0.139016
0.138956
0.138894
0.144048
0.143826
0.143618
0.143418
0.14322
0.143021
0.142818
0.142606
0.142384
0.142151
0.141906
0.141649
0.141382
0.141105
0.140821
0.140533
0.140242
0.139952
0.139666
0.139385
0.139113
0.138852
0.138602
0.138367
0.138146
0.137941
0.137751
0.137577
0.137417
0.137273
0.137141
0.137023
0.136916
0.136819
0.136732
0.136652
0.136579
0.136513
0.13645
0.136392
0.136336
0.136282
0.136229
0.136177
0.136125
0.136072
0.136018
0.135963
0.135905
0.135846
0.135784
0.13572
0.135653
0.135583
0.13551
0.137517
0.137273
0.137051
0.136847
0.136655
0.13647
0.136289
0.136108
0.135924
0.135736
0.135542
0.135342
0.135135
0.134923
0.134706
0.134487
0.134266
0.134046
0.13383
0.133618
0.133413
0.133215
0.133028
0.132851
0.132685
0.132531
0.132389
0.132258
0.132139
0.13203
0.131932
0.131842
0.131761
0.131687
0.13162
0.131558
0.1315
0.131445
0.131393
0.131343
0.131294
0.131245
0.131196
0.131146
0.131094
0.131041
0.130986
0.130928
0.130868
0.130805
0.130739
0.13067
0.130598
0.130522
0.130442
0.129187
0.128946
0.128735
0.128548
0.12838
0.128227
0.128083
0.127946
0.127811
0.127678
0.127543
0.127406
0.127266
0.127123
0.126977
0.12683
0.126683
0.126536
0.126392
0.12625
0.126114
0.125983
0.125859
0.125743
0.125635
0.125534
0.125442
0.125358
0.125282
0.125213
0.12515
0.125094
0.125042
0.124995
0.124952
0.124912
0.124873
0.124836
0.124799
0.124763
0.124726
0.124688
0.124648
0.124606
0.124562
0.124515
0.124466
0.124413
0.124357
0.124298
0.124235
0.124168
0.124098
0.124024
0.123946
0.121136
0.120909
0.120716
0.120551
0.120409
0.120285
0.120175
0.120075
0.119981
0.119891
0.119802
0.119714
0.119625
0.119535
0.119444
0.119351
0.119259
0.119167
0.119076
0.118988
0.118903
0.118822
0.118745
0.118674
0.118608
0.118548
0.118493
0.118444
0.1184
0.11836
0.118325
0.118293
0.118265
0.118238
0.118213
0.11819
0.118166
0.118143
0.118119
0.118093
0.118066
0.118037
0.118005
0.11797
0.117933
0.117892
0.117848
0.1178
0.117748
0.117693
0.117634
0.117571
0.117504
0.117433
0.117359
0.112774
0.112571
0.112402
0.112264
0.11215
0.112057
0.11198
0.111915
0.111859
0.111808
0.11176
0.111714
0.111669
0.111623
0.111577
0.11153
0.111483
0.111436
0.11139
0.111345
0.111302
0.111262
0.111224
0.11119
0.111159
0.111132
0.111109
0.111088
0.111071
0.111057
0.111044
0.111034
0.111025
0.111016
0.111008
0.110999
0.11099
0.110979
0.110966
0.110952
0.110934
0.110914
0.110891
0.110865
0.110835
0.110802
0.110764
0.110723
0.110678
0.110629
0.110576
0.110519
0.110458
0.110393
0.110324
0.104203
0.104028
0.103888
0.10378
0.103696
0.103634
0.103589
0.103556
0.103533
0.103517
0.103505
0.103496
0.103487
0.103479
0.10347
0.103461
0.103451
0.103441
0.103432
0.103422
0.103414
0.103406
0.103401
0.103397
0.103395
0.103395
0.103397
0.1034
0.103405
0.103411
0.103418
0.103426
0.103433
0.10344
0.103446
0.103451
0.103454
0.103455
0.103453
0.103449
0.103441
0.103431
0.103417
0.103399
0.103377
0.103352
0.103323
0.103289
0.103252
0.103211
0.103165
0.103116
0.103062
0.103005
0.102944
0.0954807
0.0953372
0.0952285
0.0951499
0.0950966
0.0950643
0.0950487
0.0950461
0.0950532
0.0950672
0.0950857
0.095107
0.0951294
0.0951521
0.0951745
0.095196
0.0952168
0.0952368
0.0952561
0.0952752
0.0952943
0.0953136
0.0953333
0.0953537
0.0953748
0.0953965
0.095419
0.0954419
0.0954651
0.0954883
0.0955112
0.0955336
0.0955549
0.0955749
0.0955932
0.0956096
0.0956235
0.0956349
0.0956433
0.0956486
0.0956505
0.0956489
0.0956437
0.0956346
0.0956217
0.0956048
0.0955839
0.0955591
0.0955302
0.0954973
0.0954606
0.0954199
0.0953753
0.095327
0.0952749
0.0866099
0.0864989
0.0864212
0.0863721
0.0863473
0.0863424
0.0863537
0.0863774
0.0864105
0.0864502
0.0864943
0.0865409
0.0865886
0.0866363
0.0866835
0.0867295
0.0867744
0.0868179
0.0868604
0.0869018
0.0869425
0.0869826
0.0870222
0.0870616
0.0871007
0.0871396
0.0871782
0.0872164
0.087254
0.0872907
0.0873264
0.0873608
0.0873935
0.0874243
0.0874529
0.087479
0.0875024
0.0875229
0.0875401
0.0875541
0.0875645
0.0875712
0.0875743
0.0875735
0.0875688
0.0875603
0.0875478
0.0875314
0.0875112
0.0874871
0.0874591
0.0874275
0.0873921
0.0873532
0.0873107
0.0775147
0.0774352
0.0773866
0.0773646
0.0773652
0.0773843
0.0774184
0.077464
0.0775182
0.0775785
0.0776426
0.0777089
0.0777759
0.0778427
0.0779085
0.0779729
0.0780357
0.0780969
0.0781564
0.0782144
0.078271
0.0783265
0.0783808
0.0784342
0.0784867
0.0785382
0.0785888
0.0786383
0.0786865
0.0787334
0.0787787
0.0788221
0.0788635
0.0789027
0.0789393
0.0789732
0.0790041
0.079032
0.0790566
0.0790777
0.0790954
0.0791094
0.0791198
0.0791265
0.0791294
0.0791285
0.0791239
0.0791155
0.0791035
0.0790878
0.0790685
0.0790457
0.0790194
0.0789898
0.0789568
0.0679839
0.0679325
0.0679089
0.0679095
0.0679303
0.0679678
0.0680188
0.06808
0.0681489
0.068223
0.0683004
0.0683794
0.0684588
0.0685377
0.0686154
0.0686914
0.0687655
0.0688377
0.068908
0.0689763
0.069043
0.069108
0.0691716
0.0692337
0.0692945
0.0693539
0.0694119
0.0694685
0.0695234
0.0695766
0.0696279
0.0696772
0.0697241
0.0697687
0.0698106
0.0698497
0.0698859
0.0699189
0.0699488
0.0699754
0.0699986
0.0700183
0.0700346
0.0700473
0.0700565
0.0700622
0.0700643
0.0700631
0.0700584
0.0700503
0.0700389
0.0700243
0.0700065
0.0699857
0.0699618
0.0575102
0.0574788
0.0574716
0.0574852
0.0575165
0.0575623
0.0576197
0.057686
0.0577589
0.0578363
0.0579164
0.0579979
0.0580796
0.0581606
0.0582405
0.0583187
0.0583951
0.0584696
0.0585421
0.0586127
0.0586816
0.0587488
0.0588143
0.0588784
0.0589409
0.0590019
0.0590614
0.0591194
0.0591756
0.05923
0.0592825
0.0593329
0.0593812
0.059427
0.0594704
0.0595111
0.059549
0.0595841
0.0596163
0.0596454
0.0596715
0.0596944
0.0597142
0.0597308
0.0597443
0.0597546
0.0597619
0.059766
0.0597672
0.0597654
0.0597606
0.059753
0.0597427
0.0597296
0.0597139
0.0446805
0.0446453
0.0446297
0.044631
0.0446469
0.044675
0.044713
0.0447588
0.0448107
0.0448669
0.044926
0.0449869
0.0450487
0.0451106
0.0451722
0.0452331
0.045293
0.0453518
0.0454095
0.0454661
0.0455217
0.0455761
0.0456295
0.0456819
0.0457333
0.0457836
0.0458329
0.045881
0.0459278
0.0459733
0.0460173
0.0460597
0.0461004
0.0461393
0.0461762
0.0462111
0.0462438
0.0462743
0.0463026
0.0463284
0.0463519
0.0463729
0.0463915
0.0464076
0.0464212
0.0464325
0.0464412
0.0464477
0.0464517
0.0464535
0.0464529
0.0464502
0.0464453
0.0464384
0.0464294
0.0238679
0.0237948
0.0237334
0.0236824
0.0236407
0.0236069
0.02358
0.0235589
0.0235425
0.0235302
0.0235211
0.0235146
0.0235102
0.0235075
0.0235062
0.0235061
0.023507
0.0235087
0.0235113
0.0235145
0.0235185
0.0235232
0.0235284
0.0235343
0.0235407
0.0235476
0.0235549
0.0235626
0.0235706
0.0235787
0.023587
0.0235953
0.0236036
0.0236117
0.0236195
0.0236271
0.0236343
0.023641
0.0236473
0.023653
0.0236581
0.0236627
0.0236665
0.0236697
0.0236722
0.0236739
0.023675
0.0236753
0.0236749
0.0236737
0.0236719
0.0236693
0.0236661
0.0236621
0.0236574
)
;

boundaryField
{
    inlet
    {
        type            fixedValue;
        value           nonuniform 0();
    }
    outlet
    {
        type            zeroGradient;
    }
    upperWall
    {
        type            kqRWallFunction;
        value           nonuniform List<scalar> 
55
(
0.0238679
0.0237948
0.0237334
0.0236824
0.0236407
0.0236069
0.02358
0.0235589
0.0235425
0.0235302
0.0235211
0.0235146
0.0235102
0.0235075
0.0235062
0.0235061
0.023507
0.0235087
0.0235113
0.0235145
0.0235185
0.0235232
0.0235284
0.0235343
0.0235407
0.0235476
0.0235549
0.0235626
0.0235706
0.0235787
0.023587
0.0235953
0.0236036
0.0236117
0.0236195
0.0236271
0.0236343
0.023641
0.0236473
0.023653
0.0236581
0.0236627
0.0236665
0.0236697
0.0236722
0.0236739
0.023675
0.0236753
0.0236749
0.0236737
0.0236719
0.0236693
0.0236661
0.0236621
0.0236574
)
;
    }
    lowerWall
    {
        type            kqRWallFunction;
        value           nonuniform List<scalar> 
49
(
0.0420774
0.0418151
0.0415302
0.0412265
0.0409077
0.0405773
0.0402387
0.0398949
0.0395487
0.0392028
0.0388594
0.0385205
0.0381878
0.0378629
0.0375468
0.0372407
0.0369453
0.0366611
0.0363885
0.0361278
0.0358791
0.0356423
0.0354173
0.0352039
0.0350017
0.0348106
0.0346301
0.0344598
0.0342992
0.034148
0.0340056
0.0338717
0.0337457
0.0336273
0.0335161
0.0334115
0.0333133
0.0332209
0.0331342
0.0330527
0.0329761
0.032904
0.0328362
0.0327725
0.0327124
0.0326559
0.0326026
0.0325523
0.0325049
)
;
    }
    frontAndBack
    {
        type            empty;
    }
    procBoundary3to1
    {
        type            processor;
        value           nonuniform List<scalar> 
62
(
0.0324601
0.0654799
0.0831894
0.095755
0.105613
0.113638
0.113638
0.120139
0.125643
0.125643
0.130098
0.133878
0.136985
0.13952
0.141569
0.141569
0.14314
0.144446
0.145489
0.146272
0.146272
0.146789