/*--------------------------------*- C++ -*----------------------------------*\
  =========                 |
  \\      /  F ield         | OpenFOAM: The Open Source CFD Toolbox
   \\    /   O peration     | Website:  https://openfoam.org
    \\  /    A nd           | Version:  6
     \\/     M anipulation  |
\*---------------------------------------------------------------------------*/
FoamFile
{
    version     2.0;
    format      ascii;
    class       volScalarField;
    location    "0.04";
    object      nut;
}
// * * * * * * * * * * * * * * * * * * * * * * * * * * * * * * * * * * * * * //

dimensions      [0 2 -1 0 0 0 0];

internalField   nonuniform List<scalar> 
3032
(
2.50204e-05
2.49268e-05
2.48236e-05
2.47119e-05
2.45929e-05
2.44678e-05
2.43378e-05
2.42041e-05
2.40677e-05
2.39296e-05
2.37908e-05
2.3652e-05
2.35142e-05
2.33779e-05
2.32437e-05
2.31123e-05
2.29839e-05
2.2859e-05
2.27379e-05
2.26206e-05
2.25075e-05
2.23985e-05
2.22938e-05
2.21932e-05
2.20968e-05
2.20045e-05
2.19162e-05
2.18318e-05
2.17511e-05
2.1674e-05
2.16003e-05
2.15299e-05
2.14626e-05
2.13982e-05
2.13366e-05
2.12777e-05
2.12212e-05
2.11669e-05
2.11149e-05
2.10649e-05
2.10167e-05
2.09703e-05
2.09256e-05
2.08823e-05
2.08405e-05
2.08e-05
2.07606e-05
2.07224e-05
2.06852e-05
0.000218442
0.000216764
0.000214984
0.000213121
0.000211189
0.000209206
0.000207187
0.000205147
0.000203099
0.000201056
0.000199029
0.000197029
0.000195065
0.000193144
0.000191273
0.000189458
0.000187702
0.000186009
0.000184382
0.000182821
0.000181328
0.000179901
0.000178542
0.000177248
0.000176017
0.000174849
0.000173741
0.000172691
0.000171697
0.000170755
0.000169863
0.000169019
0.000168221
0.000167465
0.000166749
0.000166071
0.000165429
0.00016482
0.000164243
0.000163695
0.000163174
0.000162679
0.000162207
0.000161759
0.00016133
0.000160922
0.000160531
0.000160157
0.000159799
0.000396474
0.00039365
0.000390623
0.000387425
0.000384084
0.000380632
0.000377095
0.000373502
0.000369878
0.000366248
0.000362633
0.000359054
0.000355527
0.00035207
0.000348694
0.000345412
0.000342231
0.00033916
0.000336204
0.000333365
0.000330647
0.000328049
0.000325572
0.000323213
0.000320971
0.000318843
0.000316824
0.000314912
0.000313102
0.000311389
0.000309769
0.000308237
0.000306789
0.000305421
0.000304127
0.000302904
0.000301747
0.000300652
0.000299616
0.000298635
0.000297704
0.000296822
0.000295985
0.00029519
0.000294434
0.000293714
0.000293029
0.000292375
0.00029175
0.000527867
0.000524505
0.000520867
0.00051699
0.000512913
0.000508671
0.000504302
0.000499839
0.000495318
0.000490768
0.00048622
0.000481701
0.000477234
0.000472842
0.000468542
0.00046435
0.000460281
0.000456344
0.000452547
0.000448897
0.000445396
0.000442048
0.000438851
0.000435806
0.00043291
0.000430159
0.00042755
0.000425077
0.000422736
0.000420522
0.000418427
0.000416448
0.000414577
0.000412809
0.000411138
0.00040956
0.000408068
0.000406657
0.000405323
0.00040406
0.000402864
0.000401731
0.000400657
0.000399638
0.000398671
0.000397751
0.000396875
0.000396042
0.000395247
0.000625573
0.000622088
0.000618272
0.000614165
0.000609807
0.000605241
0.000600505
0.000595641
0.000590685
0.000585676
0.000580646
0.000575629
0.000570653
0.000565743
0.000560924
0.000556215
0.000551632
0.000547189
0.000542898
0.000538766
0.0005348
0.000531001
0.000527372
0.000523913
0.00052062
0.000517493
0.000514525
0.000511712
0.000509049
0.00050653
0.000504148
0.000501897
0.00049977
0.000497761
0.000495863
0.00049407
0.000492376
0.000490775
0.000489261
0.000487829
0.000486474
0.000485191
0.000483975
0.000482822
0.000481728
0.000480688
0.0004797
0.000478759
0.000477863
0.00069905
0.000695733
0.00069204
0.000688012
0.00068369
0.000679116
0.000674334
0.000669385
0.000664312
0.000659155
0.00065395
0.000648735
0.000643541
0.0006384
0.000633336
0.000628375
0.000623535
0.000618834
0.000614285
0.000609899
0.000605682
0.000601641
0.000597777
0.000594092
0.000590583
0.000587249
0.000584086
0.000581088
0.00057825
0.000575565
0.000573028
0.000570631
0.000568367
0.000566229
0.00056421
0.000562304
0.000560504
0.000558803
0.000557196
0.000555676
0.000554238
0.000552878
0.000551589
0.000550367
0.000549208
0.000548108
0.000547062
0.000546067
0.00054512
0.000754381
0.000751449
0.000748101
0.000744376
0.000740316
0.000735964
0.000731363
0.000726557
0.00072159
0.000716505
0.000711342
0.00070614
0.000700935
0.00069576
0.000690646
0.000685619
0.000680702
0.000675914
0.000671273
0.000666791
0.000662477
0.000658338
0.000654378
0.000650599
0.000647001
0.000643582
0.000640338
0.000637265
0.000634356
0.000631606
0.000629009
0.000626556
0.00062424
0.000622055
0.000619994
0.000618048
0.000616211
0.000614477
0.00061284
0.000611292
0.000609829
0.000608444
0.000607134
0.000605892
0.000604714
0.000603597
0.000602535
0.000601525
0.000600564
0.000599647
0.000795642
0.000793262
0.000790428
0.000787176
0.000783548
0.000779586
0.000775334
0.000770838
0.000766141
0.000761288
0.000756323
0.000751287
0.000746219
0.000741155
0.000736128
0.000731169
0.000726303
0.000721553
0.000716938
0.000712472
0.000708169
0.000704036
0.000700079
0.000696302
0.000692705
0.000689287
0.000686045
0.000682975
0.000680071
0.000677327
0.000674738
0.000672294
0.00066999
0.000667817
0.000665769
0.000663838
0.000662016
0.000660298
0.000658677
0.000657145
0.000655699
0.000654331
0.000653037
0.000651811
0.000650649
0.000649547
0.000648501
0.000647506
0.000646559
0.000645656
0.000825742
0.000824046
0.000821857
0.000819208
0.000816141
0.000812696
0.000808918
0.000804853
0.000800546
0.000796044
0.000791391
0.000786632
0.000781809
0.00077696
0.000772121
0.000767326
0.000762603
0.000757978
0.000753473
0.000749105
0.00074489
0.000740836
0.000736953
0.000733244
0.000729712
0.000726356
0.000723174
0.000720163
0.000717317
0.000714632
0.000712099
0.000709712
0.000707463
0.000705346
0.000703352
0.000701475
0.000699706
0.000698039
0.000696468
0.000694986
0.000693586
0.000692265
0.000691015
0.000689833
0.000688713
0.000687651
0.000686643
0.000685685
0.000684774
0.000683906
0.000683077
0.000846891
0.000845984
0.00084454
0.000842592
0.000840181
0.000837346
0.000834134
0.000830589
0.000826759
0.000822691
0.000818434
0.000814031
0.000809529
0.000804968
0.000800387
0.000795824
0.000791309
0.000786872
0.000782536
0.000778323
0.000774248
0.000770325
0.000766563
0.000762969
0.000759545
0.000756294
0.000753213
0.000750299
0.000747548
0.000744955
0.000742513
0.000740215
0.000738053
0.000736021
0.00073411
0.000732313
0.000730623
0.000729033
0.000727536
0.000726126
0.000724797
0.000723542
0.000722358
0.000721238
0.000720178
0.000719174
0.000718222
0.000717318
0.000716458
0.000715639
0.000714858
0.000860859
0.00086082
0.000860196
0.000859021
0.000857334
0.000855175
0.00085259
0.000849627
0.000846332
0.000842756
0.000838948
0.000834955
0.000830825
0.000826602
0.000822328
0.000818041
0.000813778
0.000809569
0.000805442
0.000801419
0.00079752
0.000793761
0.000790153
0.000786703
0.000783416
0.000780296
0.000777341
0.000774549
0.000771917
0.000769439
0.000767109
0.00076492
0.000762865
0.000760937
0.000759127
0.000757429
0.000755836
0.000754339
0.000752932
0.000751609
0.000750364
0.000749191
0.000748085
0.000747041
0.000746054
0.00074512
0.000744236
0.000743396
0.000742599
0.000741839
0.000741115
0.000869116
0.000870003
0.000870251
0.000869896
0.000868975
0.000867532
0.000865613
0.000863267
0.000860543
0.000857492
0.000854166
0.000850614
0.000846887
0.000843031
0.000839091
0.000835109
0.000831123
0.000827167
0.000823271
0.000819461
0.000815759
0.000812183
0.000808745
0.000805457
0.000802324
0.000799349
0.000796535
0.000793879
0.000791378
0.000789027
0.000786821
0.000784753
0.000782816
0.000781002
0.000779304
0.000777715
0.000776226
0.000774832
0.000773524
0.000772298
0.000771145
0.000770062
0.000769043
0.000768082
0.000767175
0.000766319
0.000765508
0.000764741
0.000764012
0.000763318
0.000762658
0.000872912
0.000874759
0.000875908
0.000876395
0.000876262
0.000875553
0.000874316
0.000872601
0.000870461
0.00086795
0.000865119
0.000862022
0.000858711
0.000855235
0.000851642
0.000847977
0.000844279
0.000840587
0.000836933
0.000833346
0.00082985
0.000826465
0.000823207
0.000820087
0.000817113
0.000814291
0.000811622
0.000809107
0.000806741
0.000804522
0.000802444
0.000800501
0.000798685
0.00079699
0.000795407
0.00079393
0.000792551
0.000791262
0.000790057
0.00078893
0.000787874
0.000786884
0.000785954
0.00078508
0.000784257
0.00078348
0.000782747
0.000782054
0.000781397
0.000780772
0.000780178
0.000873322
0.000876139
0.000878193
0.000879524
0.000880176
0.000880197
0.000879637
0.00087855
0.00087699
0.000875014
0.000872676
0.000870031
0.000867135
0.000864039
0.000860793
0.000857445
0.000854038
0.000850611
0.0008472
0.000843837
0.000840548
0.000837354
0.000834275
0.000831323
0.000828509
0.000825838
0.000823314
0.000820938
0.000818707
0.000816618
0.000814667
0.000812846
0.000811151
0.000809572
0.000808103
0.000806737
0.000805465
0.000804281
0.000803178
0.000802149
0.000801188
0.000800291
0.00079945
0.000798662
0.000797922
0.000797226
0.00079657
0.000795951
0.000795365
0.00079481
0.000794282
0.000793779
0.000871277
0.000875046
0.000877984
0.000880135
0.000881547
0.000882274
0.000882368
0.000881886
0.000880886
0.000879426
0.000877564
0.000875358
0.000872863
0.000870136
0.000867228
0.000864189
0.000861065
0.000857897
0.000854724
0.000851579
0.000848491
0.000845485
0.00084258
0.000839792
0.000837131
0.000834607
0.000832222
0.000829979
0.000827878
0.000825914
0.000824083
0.000822381
0.0008208
0.000819333
0.000817973
0.000816712
0.000815543
0.00081446
0.000813454
0.00081252
0.000811651
0.000810841
0.000810087
0.000809381
0.000808722
0.000808103
0.000807522
0.000806974
0.000806458
0.00080597
0.000805506
0.000805065
0.000867511
0.0008722
0.000875987
0.000878925
0.000881066
0.000882468
0.000883187
0.000883284
0.00088282
0.000881856
0.000880451
0.000878667
0.000876562
0.000874192
0.000871612
0.000868875
0.000866027
0.000863113
0.000860173
0.000857242
0.000854352
0.000851529
0.000848795
0.000846166
0.000843655
0.000841273
0.000839023
0.00083691
0.000834932
0.000833088
0.000831374
0.000829784
0.000828312
0.000826952
0.000825695
0.000824535
0.000823465
0.000822477
0.000821563
0.000820719
0.000819937
0.000819212
0.000818539
0.000817912
0.000817329
0.000816783
0.000816273
0.000815794
0.000815343
0.000814918
0.000814516
0.000814133
0.000862757
0.000868265
0.000872809
0.000876446
0.000879235
0.000881236
0.000882512
0.000883126
0.000883141
0.000882622
0.00088163
0.000880229
0.000878477
0.000876434
0.000874156
0.000871696
0.000869104
0.000866425
0.000863701
0.00086097
0.000858265
0.000855612
0.000853036
0.000850555
0.000848183
0.000845932
0.000843806
0.000841811
0.000839947
0.000838212
0.000836603
0.000835116
0.000833743
0.000832479
0.000831316
0.000830247
0.000829266
0.000828363
0.000827534
0.000826771
0.000826068
0.00082542
0.000824821
0.000824266
0.000823752
0.000823274
0.000822828
0.000822412
0.000822022
0.000821655
0.000821309
0.000820979
0.0008581
0.000864243
0.000869374
0.000873556
0.000876851
0.000879324
0.000881041
0.000882068
0.00088247
0.000882312
0.000881658
0.000880572
0.000879114
0.000877345
0.000875322
0.000873098
0.000870724
0.000868248
0.000865712
0.000863155
0.00086061
0.000858107
0.00085567
0.000853318
0.000851068
0.000848931
0.000846915
0.000845023
0.000843257
0.000841617
0.000840099
0.000838699
0.000837412
0.000836231
0.000835149
0.000834158
0.000833253
0.000832424
0.000831667
0.000830974
0.000830339
0.000829757
0.000829222
0.00082873
0.000828276
0.000827856
0.000827467
0.000827106
0.000826769
0.000826454
0.000826158
0.000825877
0.000825609
0.000853921
0.000860519
0.000866076
0.000870656
0.000874327
0.000877156
0.00087921
0.000880555
0.000881259
0.000881386
0.000881003
0.000880172
0.000878956
0.000877414
0.000875604
0.00087358
0.000871394
0.000869092
0.000866719
0.000864313
0.00086191
0.000859538
0.000857223
0.000854987
0.000852845
0.000850809
0.000848888
0.000847087
0.000845407
0.00084385
0.000842412
0.000841088
0.000839875
0.000838765
0.000837752
0.000836829
0.000835989
0.000835225
0.000834529
0.000833896
0.000833319
0.000832794
0.000832314
0.000831875
0.000831473
0.000831103
0.000830763
0.000830449
0.000830158
0.000829887
0.000829634
0.000829396
0.000829169
0.000828952
0.000850355
0.000857248
0.000863086
0.000867938
0.000871871
0.000874953
0.000877252
0.000878834
0.000879767
0.000880116
0.000879946
0.000879319
0.000878299
0.000876945
0.000875313
0.000873458
0.000871432
0.000869281
0.00086705
0.000864778
0.000862499
0.000860244
0.000858039
0.000855906
0.00085386
0.000851915
0.000850079
0.000848359
0.000846757
0.000845273
0.000843905
0.000842649
0.0008415
0.000840453
0.0008395
0.000838636
0.000837852
0.000837142
0.0008365
0.000835918
0.000835392
0.000834915
0.000834482
0.000834088
0.00083373
0.000833404
0.000833105
0.000832831
0.000832579
0.000832346
0.00083213
0.000831927
0.000831736
0.000831553
0.000847401
0.000854454
0.000860454
0.000865471
0.000869571
0.000872821
0.00087529
0.000877042
0.000878143
0.00087866
0.000878654
0.00087819
0.000877329
0.000876128
0.000874646
0.000872934
0.000871046
0.000869026
0.00086692
0.000864766
0.000862599
0.000860449
0.000858343
0.000856302
0.000854344
0.000852481
0.000850723
0.000849076
0.000847544
0.000846126
0.000844821
0.000843625
0.000842534
0.000841542
0.000840643
0.000839829
0.000839095
0.000838433
0.000837837
0.0008373
0.000836817
0.000836381
0.000835989
0.000835634
0.000835314
0.000835024
0.000834761
0.000834522
0.000834303
0.000834103
0.000833918
0.000833745
0.000833583
0.000833427
0.000844995
0.0008521
0.000858167
0.000863262
0.000867453
0.000870804
0.000873381
0.000875248
0.00087647
0.00087711
0.000877231
0.000876894
0.00087616
0.000875086
0.000873729
0.00087214
0.00087037
0.000868466
0.00086647
0.000864421
0.000862354
0.0008603
0.000858284
0.000856328
0.00085445
0.000852663
0.000850977
0.000849398
0.000847929
0.000846571
0.000845323
0.000844182
0.000843143
0.000842201
0.000841349
0.000840581
0.000839891
0.000839271
0.000838715
0.000838218
0.000837772
0.000837373
0.000837016
0.000836695
0.000836408
0.000836149
0.000835917
0.000835707
0.000835517
0.000835344
0.000835185
0.000835039
0.0008349
0.000834767
0.000843047
0.000850121
0.000856181
0.00086129
0.000865513
0.000868912
0.000871549
0.000873488
0.000874791
0.00087552
0.000875736
0.000875499
0.000874867
0.000873898
0.000872645
0.000871162
0.000869495
0.000867692
0.000865795
0.000863841
0.000861866
0.000859899
0.000857966
0.000856089
0.000854285
0.000852568
0.000850948
0.000849431
0.000848021
0.00084672
0.000845525
0.000844433
0.000843442
0.000842545
0.000841736
0.00084101
0.000840358
0.000839776
0.000839257
0.000838794
0.000838381
0.000838014
0.000837688
0.000837397
0.000837138
0.000836907
0.000836701
0.000836516
0.000836351
0.000836201
0.000836065
0.00083594
0.000835822
0.000835708
0.000841464
0.000848448
0.000854448
0.000859522
0.000863733
0.000867139
0.0008698
0.000871778
0.000873132
0.000873922
0.000874207
0.000874047
0.000873498
0.000872615
0.000871452
0.000870059
0.000868483
0.00086677
0.000864961
0.000863094
0.000861202
0.000859315
0.000857459
0.000855655
0.00085392
0.000852269
0.000850711
0.000849252
0.000847898
0.000846648
0.000845502
0.000844457
0.00084351
0.000842654
0.000841885
0.000841196
0.00084058
0.000840032
0.000839545
0.000839113
0.00083873
0.000838391
0.000838092
0.000837827
0.000837593
0.000837386
0.000837203
0.00083704
0.000836896
0.000836767
0.00083665
0.000836544
0.000836443
0.000836344
0.000840167
0.000847019
0.00085292
0.000857925
0.00086209
0.000865473
0.000868131
0.000870122
0.000871503
0.000872333
0.00087267
0.000872569
0.000872086
0.000871275
0.000870187
0.000868872
0.000867377
0.000865744
0.000864015
0.000862226
0.000860411
0.000858598
0.000856813
0.000855077
0.000853408
0.000851818
0.000850318
0.000848915
0.000847611
0.00084641
0.00084531
0.000844309
0.000843402
0.000842585
0.000841852
0.000841197
0.000840614
0.000840097
0.000839639
0.000839235
0.000838879
0.000838565
0.00083829
0.000838048
0.000837836
0.00083765
0.000837487
0.000837344
0.000837218
0.000837106
0.000837006
0.000836915
0.000836829
0.000836743
0.000839087
0.000845781
0.000851557
0.000856467
0.000860564
0.000863903
0.000866536
0.000868521
0.000869912
0.000870765
0.000871136
0.00087108
0.000870651
0.000869899
0.000868877
0.00086763
0.000866206
0.000864645
0.000862989
0.000861272
0.000859528
0.000857784
0.000856065
0.000854393
0.000852784
0.000851252
0.000849807
0.000848455
0.000847201
0.000846045
0.000844988
0.000844027
0.000843158
0.000842377
0.000841677
0.000841054
0.000840501
0.000840012
0.000839581
0.000839202
0.00083887
0.000838579
0.000838325
0.000838104
0.000837911
0.000837744
0.000837598
0.000837472
0.000837361
0.000837265
0.000837179
0.000837102
0.000837028
0.000836953
0.000838171
0.000844689
0.000850324
0.000855122
0.000859135
0.000862413
0.000865008
0.000866972
0.000868359
0.000869223
0.000869617
0.000869594
0.000869207
0.000868506
0.000867539
0.000866352
0.000864991
0.000863496
0.000861906
0.000860255
0.000858576
0.000856896
0.000855239
0.000853627
0.000852075
0.000850598
0.000849204
0.000847901
0.000846692
0.00084558
0.000844563
0.00084364
0.000842806
0.000842058
0.00084139
0.000840796
0.000840271
0.000839808
0.000839401
0.000839045
0.000838734
0.000838464
0.000838229
0.000838026
0.00083785
0.000837698
0.000837568
0.000837456
0.000837359
0.000837276
0.000837202
0.000837136
0.000837073
0.000837008
0.000837352
0.000843682
0.000849161
0.000853834
0.000857748
0.000860951
0.000863494
0.000865425
0.000866796
0.00086766
0.000868067
0.000868069
0.000867716
0.000867057
0.000866139
0.000865006
0.000863703
0.000862268
0.000860739
0.000859151
0.000857534
0.000855915
0.000854318
0.000852764
0.000851268
0.000849843
0.000848499
0.000847243
0.000846079
0.000845009
0.000844031
0.000843145
0.000842346
0.00084163
0.000840992
0.000840426
0.000839927
0.000839488
0.000839104
0.00083877
0.000838479
0.000838227
0.00083801
0.000837824
0.000837664
0.000837527
0.00083741
0.000837311
0.000837227
0.000837154
0.000837092
0.000837036
0.000836982
0.000836926
0.000836547
0.000842667
0.000847971
0.0008525
0.0008563
0.000859414
0.000861891
0.000863778
0.000865124
0.000865978
0.000866391
0.000866412
0.000866088
0.000865467
0.000864594
0.000863513
0.000862265
0.000860889
0.000859422
0.000857896
0.000856341
0.000854784
0.000853248
0.000851752
0.000850312
0.000848941
0.000847649
0.000846441
0.000845323
0.000844295
0.000843358
0.000842508
0.000841744
0.00084106
0.000840452
0.000839914
0.000839441
0.000839027
0.000838665
0.000838351
0.00083808
0.000837847
0.000837646
0.000837475
0.000837329
0.000837206
0.000837102
0.000837014
0.00083694
0.000836878
0.000836825
0.000836777
0.000836731
0.000836683
0.000835695
0.000841581
0.000846687
0.000851052
0.000854719
0.000857729
0.000860128
0.00086196
0.000863272
0.000864111
0.000864524
0.000864559
0.000864261
0.000863677
0.000862849
0.00086182
0.000860629
0.000859314
0.00085791
0.000856449
0.000854959
0.000853466
0.000851993
0.000850559
0.000849178
0.000847864
0.000846626
0.000845469
0.000844399
0.000843415
0.00084252
0.000841709
0.000840981
0.00084033
0.000839753
0.000839244
0.000838796
0.000838406
0.000838067
0.000837774
0.000837521
0.000837305
0.000837121
0.000836964
0.000836832
0.00083672
0.000836627
0.00083655
0.000836485
0.000836431
0.000836385
0.000836345
0.000836305
0.000836264
0.000834754
0.000840379
0.000845265
0.000849446
0.000852963
0.000855855
0.000858162
0.000859929
0.000861198
0.000862015
0.000862424
0.00086247
0.000862197
0.000861648
0.000860865
0.000859889
0.000858757
0.000857505
0.000856167
0.000854773
0.000853352
0.000851928
0.000850522
0.000849152
0.000847835
0.000846581
0.000845399
0.000844296
0.000843276
0.00084234
0.000841488
0.000840718
0.000840027
0.000839412
0.000838866
0.000838386
0.000837966
0.0008376
0.000837283
0.00083701
0.000836776
0.000836577
0.000836408
0.000836265
0.000836145
0.000836045
0.000835962
0.000835893
0.000835836
0.000835789
0.000835749
0.000835714
0.000835679
0.000835642
0.000833669
0.00083901
0.000843652
0.000847631
0.000850981
0.000853739
0.000855943
0.000857635
0.000858854
0.000859642
0.000860043
0.000860097
0.000859847
0.000859334
0.000858597
0.000857675
0.000856604
0.000855418
0.00085415
0.000852828
0.000851479
0.000850127
0.000848792
0.000847492
0.000846241
0.000845051
0.00084393
0.000842885
0.000841918
0.000841032
0.000840227
0.0008395
0.000838849
0.000838269
0.000837757
0.000837307
0.000836915
0.000836574
0.00083628
0.000836027
0.000835812
0.000835629
0.000835475
0.000835345
0.000835237
0.000835146
0.000835072
0.000835011
0.00083496
0.000834918
0.000834882
0.00083485
0.000834819
0.000834785
0.000832378
0.000837409
0.000841788
0.000845544
0.000848711
0.000851322
0.000853412
0.000855019
0.00085618
0.000856935
0.000857323
0.000857384
0.000857156
0.000856679
0.000855989
0.000855124
0.000854117
0.000853001
0.000851806
0.00085056
0.000849288
0.000848013
0.000846754
0.000845528
0.000844349
0.000843227
0.000842171
0.000841187
0.000840278
0.000839446
0.00083869
0.000838009
0.000837399
0.000836858
0.000836381
0.000835963
0.000835599
0.000835284
0.000835013
0.000834781
0.000834584
0.000834418
0.000834277
0.00083416
0.000834062
0.000833981
0.000833914
0.000833858
0.000833812
0.000833774
0.00083374
0.00083371
0.000833679
0.000833646
0.000830803
0.000835501
0.000839596
0.000843113
0.000846081
0.000848532
0.000850497
0.000852011
0.000853108
0.000853825
0.000854198
0.000854263
0.000854058
0.000853617
0.000852977
0.000852171
0.000851232
0.00085019
0.000849073
0.000847908
0.000846719
0.000845526
0.000844348
0.000843202
0.000842099
0.000841051
0.000840065
0.000839147
0.000838299
0.000837524
0.000836821
0.000836188
0.000835624
0.000835123
0.000834683
0.000834298
0.000833964
0.000833675
0.000833428
0.000833217
0.000833038
0.000832887
0.000832761
0.000832655
0.000832566
0.000832493
0.000832431
0.00083238
0.000832336
0.000832299
0.000832265
0.000832233
0.000832201
0.000832165
0.000828851
0.000833196
0.000836988
0.000840249
0.000843005
0.000845285
0.000847116
0.000848529
0.000849557
0.000850231
0.000850586
0.000850656
0.000850473
0.000850071
0.000849484
0.000848741
0.000847874
0.00084691
0.000845877
0.000844799
0.000843697
0.000842593
0.000841503
0.000840441
0.000839421
0.000838452
0.00083754
0.000836692
0.000835911
0.000835197
0.00083455
0.000833969
0.000833452
0.000832994
0.000832593
0.000832242
0.000831939
0.000831678
0.000831455
0.000831264
0.000831104
0.000830968
0.000830853
0.000830758
0.000830677
0.000830609
0.000830551
0.000830501
0.000830458
0.000830419
0.000830382
0.000830346
0.000830308
0.000830267
0.000826411
0.000830385
0.000833857
0.000836848
0.000839381
0.000841478
0.000843167
0.000844474
0.000845427
0.000846057
0.000846393
0.000846467
0.000846309
0.000845948
0.000845416
0.000844741
0.000843951
0.000843072
0.000842128
0.000841142
0.000840135
0.000839125
0.000838128
0.000837158
0.000836226
0.000835341
0.00083451
0.000833737
0.000833026
0.000832377
0.00083179
0.000831264
0.000830797
0.000830384
0.000830023
0.000829709
0.000829437
0.000829204
0.000829004
0.000828834
0.000828691
0.000828569
0.000828466
0.000828378
0.000828303
0.000828238
0.000828181
0.00082813
0.000828084
0.000828039
0.000827996
0.000827951
0.000827904
0.000827851
0.000823349
0.000826935
0.000830075
0.000832785
0.000835084
0.000836992
0.000838532
0.000839728
0.000840604
0.000841187
0.000841505
0.000841584
0.000841452
0.000841136
0.000840664
0.000840061
0.000839354
0.000838565
0.000837716
0.00083683
0.000835924
0.000835015
0.000834117
0.000833245
0.000832406
0.000831611
0.000830865
0.000830172
0.000829536
0.000828956
0.000828433
0.000827965
0.000827549
0.000827184
0.000826864
0.000826586
0.000826347
0.000826141
0.000825965
0.000825815
0.000825687
0.000825577
0.000825482
0.0008254
0.000825328
0.000825263
0.000825204
0.000825148
0.000825093
0.000825039
0.000824984
0.000824925
0.000824862
0.000824793
0.000819502
0.00082269
0.000825488
0.000827908
0.000829966
0.000831679
0.000833066
0.000834148
0.000834945
0.000835482
0.000835782
0.000835868
0.000835766
0.000835499
0.000835092
0.000834567
0.000833948
0.000833255
0.000832509
0.000831728
0.000830929
0.000830128
0.000829337
0.000828567
0.000827829
0.000827129
0.000826473
0.000825864
0.000825306
0.000824799
0.000824342
0.000823934
0.000823572
0.000823255
0.000822978
0.000822737
0.000822529
0.00082235
0.000822196
0.000822063
0.000821948
0.000821848
0.000821759
0.000821679
0.000821605
0.000821536
0.000821469
0.000821402
0.000821334
0.000821264
0.000821191
0.000821112
0.000821027
0.000820933
0.000814958
0.000817763
0.00082023
0.00082237
0.000824194
0.000825718
0.000826956
0.000827926
0.000828647
0.000829139
0.000829422
0.000829517
0.000829445
0.000829227
0.000828885
0.000828438
0.000827907
0.00082731
0.000826665
0.000825989
0.000825297
0.000824601
0.000823915
0.000823247
0.000822607
0.000822
0.000821432
0.000820906
0.000820424
0.000819986
0.000819592
0.000819241
0.00081893
0.000818657
0.000818418
0.00081821
0.000818029
0.000817872
0.000817735
0.000817614
0.000817507
0.000817409
0.000817319
0.000817235
0.000817152
0.000817071
0.000816988
0.000816903
0.000816814
0.000816719
0.000816618
0.000816509
0.000816392
0.000816264
0.000809505
0.000811933
0.000814074
0.000815936
0.000817529
0.000818864
0.000819954
0.000820814
0.000821461
0.000821909
0.000822176
0.000822281
0.000822241
0.000822073
0.000821797
0.000821429
0.000820987
0.000820488
0.000819946
0.000819375
0.00081879
0.000818202
0.00081762
0.000817055
0.000816512
0.000815999
0.000815518
0.000815073
0.000814665
0.000814295
0.000813963
0.000813666
0.000813402
0.00081317
0.000812965
0.000812785
0.000812626
0.000812486
0.000812359
0.000812244
0.000812138
0.000812036
0.000811938
0.000811841
0.000811741
0.000811639
0.000811532
0.000811419
0.000811298
0.000811168
0.000811029
0.00081088
0.000810718
0.000810544
0.000802057
0.00080408
0.000805869
0.000807431
0.000808775
0.000809909
0.000810844
0.000811592
0.000812164
0.000812573
0.000812832
0.000812956
0.00081296
0.000812857
0.000812663
0.000812391
0.000812056
0.000811671
0.00081125
0.000810803
0.000810343
0.000809878
0.000809418
0.00080897
0.00080854
0.000808133
0.000807751
0.000807398
0.000807075
0.000806781
0.000806517
0.00080628
0.000806069
0.000805881
0.000805713
0.000805562
0.000805426
0.0008053
0.000805183
0.000805071
0.000804961
0.000804851
0.000804739
0.000804622
0.000804499
0.000804368
0.000804228
0.000804077
0.000803915
0.00080374
0.000803552
0.000803349
0.000803132
0.000802899
0.000789965
0.000791719
0.000793301
0.000794713
0.000795958
0.000797041
0.000797969
0.000798747
0.000799383
0.000799886
0.000800264
0.000800528
0.000800686
0.000800749
0.000800729
0.000800635
0.00080048
0.000800272
0.000800023
0.000799742
0.00079944
0.000799124
0.000798802
0.000798481
0.000798167
0.000797864
0.000797577
0.000797308
0.000797058
0.000796829
0.00079662
0.000796431
0.000796259
0.000796104
0.000795963
0.000795833
0.000795712
0.000795597
0.000795485
0.000795373
0.000795259
0.00079514
0.000795015
0.000794881
0.000794736
0.00079458
0.00079441
0.000794225
0.000794025
0.000793808
0.000793574
0.000793323
0.000793052
0.000792763
0.000792455
0.000775895
0.000777138
0.000778275
0.000779306
0.000780234
0.00078106
0.000781786
0.000782417
0.000782955
0.000783404
0.00078377
0.000784057
0.00078427
0.000784417
0.000784503
0.000784534
0.000784518
0.000784462
0.000784373
0.000784257
0.000784121
0.00078397
0.000783811
0.000783649
0.000783486
0.000783328
0.000783176
0.000783032
0.000782897
0.000782772
0.000782657
0.000782549
0.000782449
0.000782355
0.000782263
0.000782173
0.000782081
0.000781986
0.000781884
0.000781774
0.000781654
0.000781521
0.000781374
0.000781211
0.00078103
0.000780831
0.000780612
0.000780372
0.000780112
0.000779829
0.000779523
0.000779195
0.000778844
0.000778469
0.00077807
0.00075557
0.000756317
0.000757026
0.000757697
0.000758328
0.000758921
0.000759472
0.000759982
0.00076045
0.000760876
0.000761259
0.000761601
0.000761901
0.000762161
0.000762384
0.00076257
0.000762724
0.000762848
0.000762946
0.00076302
0.000763075
0.000763113
0.000763139
0.000763154
0.000763162
0.000763164
0.000763162
0.000763157
0.00076315
0.00076314
0.000763127
0.00076311
0.000763088
0.00076306
0.000763023
0.000762975
0.000762916
0.000762842
0.000762752
0.000762644
0.000762516
0.000762368
0.000762197
0.000762002
0.000761782
0.000761536
0.000761265
0.000760966
0.00076064
0.000760286
0.000759904
0.000759494
0.000759056
0.00075859
0.000758096
0.000725642
0.000725941
0.000726272
0.000726631
0.000727016
0.000727422
0.000727845
0.000728281
0.000728723
0.000729168
0.000729611
0.000730047
0.000730471
0.000730881
0.000731274
0.000731647
0.000732
0.00073233
0.000732639
0.000732927
0.000733193
0.000733439
0.000733665
0.000733874
0.000734066
0.000734241
0.0007344
0.000734544
0.000734673
0.000734786
0.000734883
0.000734962
0.000735024
0.000735066
0.000735088
0.000735087
0.000735063
0.000735014
0.000734939
0.000734836
0.000734704
0.000734542
0.00073435
0.000734126
0.000733869
0.000733581
0.000733259
0.000732905
0.000732517
0.000732096
0.000731642
0.000731155
0.000730636
0.000730084
0.0007295
0.000680531
0.000680484
0.000680532
0.00068067
0.000680892
0.000681191
0.000681559
0.000681987
0.000682466
0.000682985
0.000683536
0.000684109
0.000684696
0.000685288
0.000685878
0.000686461
0.00068703
0.000687582
0.000688113
0.000688621
0.000689105
0.000689561
0.000689991
0.000690394
0.000690768
0.000691116
0.000691435
0.000691727
0.00069199
0.000692225
0.000692432
0.000692609
0.000692756
0.000692872
0.000692956
0.000693007
0.000693025
0.000693008
0.000692956
0.000692867
0.000692742
0.00069258
0.000692381
0.000692143
0.000691868
0.000691554
0.000691203
0.000690814
0.000690388
0.000689924
0.000689424
0.000688888
0.000688316
0.000687708
0.000687066
0.000621091
0.000620937
0.000620926
0.00062105
0.000621301
0.000621667
0.000622138
0.0006227
0.00062334
0.000624044
0.000624798
0.000625589
0.000626405
0.000627233
0.000628064
0.000628889
0.000629699
0.000630489
0.000631253
0.000631986
0.000632687
0.000633352
0.00063398
0.000634571
0.000635122
0.000635636
0.00063611
0.000636545
0.000636942
0.000637299
0.000637618
0.000637897
0.000638136
0.000638336
0.000638495
0.000638614
0.000638691