/*--------------------------------*- C++ -*----------------------------------*\
  =========                 |
  \\      /  F ield         | OpenFOAM: The Open Source CFD Toolbox
   \\    /   O peration     | Website:  https://openfoam.org
    \\  /    A nd           | Version:  6
     \\/     M anipulation  |
\*---------------------------------------------------------------------------*/
FoamFile
{
    version     2.0;
    format      ascii;
    class       volScalarField;
    location    "0.04";
    object      p;
}
// * * * * * * * * * * * * * * * * * * * * * * * * * * * * * * * * * * * * * //

dimensions      [0 2 -2 0 0 0 0];

internalField   nonuniform List<scalar> 
3032
(
0.179801
0.184336
0.188464
0.192198
0.19555
0.198538
0.201179
0.203495
0.205504
0.207229
0.208691
0.20991
0.210908
0.211705
0.212319
0.212769
0.213072
0.213245
0.213302
0.213257
0.213123
0.212912
0.212634
0.212299
0.211916
0.211493
0.211036
0.210553
0.210048
0.209527
0.208995
0.208454
0.207909
0.207363
0.206818
0.206275
0.205738
0.205208
0.204685
0.204172
0.203668
0.203174
0.202692
0.20222
0.201759
0.20131
0.200872
0.200445
0.200031
0.1725
0.177234
0.181582
0.18555
0.18915
0.192396
0.195301
0.197885
0.200163
0.202157
0.203884
0.205364
0.206617
0.207662
0.208516
0.209197
0.209722
0.210106
0.210365
0.210512
0.210559
0.21052
0.210404
0.210221
0.209982
0.209693
0.209362
0.208997
0.208602
0.208184
0.207748
0.207297
0.206835
0.206367
0.205893
0.205418
0.204944
0.204471
0.204003
0.203539
0.203082
0.202632
0.202189
0.201754
0.201328
0.20091
0.200502
0.200102
0.199713
0.16461
0.169603
0.174224
0.178477
0.182371
0.185915
0.189122
0.192006
0.194584
0.196872
0.198888
0.20065
0.202176
0.203484
0.204591
0.205515
0.206271
0.206876
0.207344
0.207689
0.207924
0.208061
0.208111
0.208084
0.207991
0.20784
0.207638
0.207392
0.20711
0.206798
0.206459
0.2061
0.205723
0.205334
0.204935
0.204529
0.204118
0.203705
0.203292
0.20288
0.202471
0.202065
0.201664
0.201268
0.200877
0.200493
0.200115
0.199744
0.199381
0.159074
0.16422
0.169005
0.173431
0.177504
0.181233
0.184628
0.187703
0.190473
0.192952
0.195157
0.197106
0.198814
0.200301
0.201582
0.202673
0.203591
0.204352
0.204969
0.205457
0.205827
0.206094
0.206267
0.206357
0.206374
0.206326
0.206223
0.20607
0.205875
0.205644
0.205383
0.205095
0.204787
0.204461
0.204121
0.203771
0.203413
0.203049
0.202681
0.202312
0.201943
0.201574
0.201208
0.200844
0.200484
0.200127
0.199775
0.199428
0.199088
0.155013
0.160271
0.165171
0.169716
0.173911
0.177765
0.181287
0.18449
0.187389
0.189997
0.19233
0.194406
0.196241
0.19785
0.199252
0.200461
0.201494
0.202365
0.203089
0.20368
0.20415
0.204511
0.204775
0.204952
0.205052
0.205083
0.205055
0.204973
0.204846
0.204679
0.204478
0.204248
0.203993
0.203718
0.203426
0.203121
0.202805
0.202481
0.202151
0.201817
0.201481
0.201143
0.200806
0.20047
0.200135
0.199803
0.199473
0.199147
0.198826
0.151834
0.157185
0.162179
0.166817
0.171106
0.175053
0.178668
0.181965
0.184957
0.187658
0.190084
0.192252
0.194177
0.195876
0.197365
0.19866
0.199777
0.200731
0.201535
0.202203
0.202748
0.203182
0.203516
0.20376
0.203924
0.204018
0.204049
0.204024
0.203951
0.203836
0.203684
0.203501
0.203291
0.203058
0.202806
0.202539
0.202259
0.201969
0.201671
0.201367
0.20106
0.200749
0.200438
0.200125
0.199813
0.199502
0.199192
0.198885
0.198582
0.149295
0.154732
0.159806
0.164522
0.168885
0.172904
0.17659
0.179956
0.183016
0.185784
0.188277
0.190511
0.192501
0.194264
0.195817
0.197175
0.198354
0.199367
0.200231
0.200957
0.201558
0.202048
0.202435
0.202732
0.202947
0.203089
0.203167
0.203188
0.203159
0.203086
0.202975
0.20283
0.202658
0.20246
0.202243
0.202008
0.201758
0.201498
0.201228
0.200951
0.200668
0.200382
0.200093
0.199802
0.19951
0.199219
0.198927
0.198637
0.19835
0.198066
0.147235
0.152753
0.157901
0.162683
0.167108
0.171185
0.174925
0.178344
0.181454
0.184271
0.186812
0.189092
0.191128
0.192937
0.194535
0.195938
0.197161
0.198219
0.199126
0.199895
0.200539
0.201069
0.201498
0.201835
0.202089
0.202271
0.202386
0.202444
0.20245
0.202412
0.202334
0.202222
0.20208
0.201913
0.201724
0.201517
0.201294
0.201059
0.200814
0.20056
0.2003
0.200035
0.199766
0.199495
0.199222
0.198948
0.198673
0.198399
0.198127
0.197858
0.145539
0.151135
0.156351
0.161193
0.165671
0.169795
0.173579
0.177037
0.180185
0.183037
0.185611
0.187924
0.189993
0.191834
0.193463
0.194897
0.196151
0.19724
0.198178
0.198979
0.199654
0.200216
0.200676
0.201043
0.201328
0.20154
0.201685
0.201772
0.201808
0.201798
0.201748
0.201663
0.201547
0.201406
0.201242
0.201058
0.200859
0.200646
0.200422
0.20019
0.19995
0.199704
0.199454
0.199201
0.198945
0.198687
0.198428
0.198169
0.197911
0.197655
0.197402
0.144128
0.149799
0.155079
0.159974
0.164498
0.168661
0.17248
0.175968
0.179142
0.182019
0.184617
0.186952
0.189042
0.190904
0.192555
0.19401
0.195285
0.196396
0.197356
0.198178
0.198876
0.199461
0.199944
0.200335
0.200644
0.200879
0.201048
0.201159
0.201218
0.201231
0.201205
0.201142
0.201049
0.20093
0.200787
0.200625
0.200446
0.200253
0.200049
0.199835
0.199613
0.199385
0.199152
0.198915
0.198675
0.198432
0.198188
0.197943
0.197699
0.197455
0.197215
0.142947
0.148689
0.154025
0.158968
0.163529
0.167725
0.171569
0.17508
0.178273
0.181167
0.18378
0.186129
0.188233
0.190108
0.191772
0.19324
0.194529
0.195654
0.196629
0.197467
0.198181
0.198782
0.199283
0.199692
0.200019
0.200272
0.200461
0.200591
0.20067
0.200702
0.200695
0.200652
0.200579
0.200478
0.200355
0.200211
0.200051
0.199876
0.199689
0.199492
0.199287
0.199075
0.198858
0.198636
0.198411
0.198183
0.197952
0.197721
0.197489
0.197258
0.19703
0.141963
0.147764
0.153149
0.15813
0.162721
0.166941
0.170804
0.174329
0.177535
0.180439
0.18306
0.185417
0.187528
0.18941
0.191081
0.192558
0.193855
0.194989
0.195973
0.196822
0.197547
0.198161
0.198674
0.199097
0.199438
0.199707
0.199911
0.200057
0.200152
0.200201
0.200211
0.200185
0.200129
0.200045
0.199938
0.199811
0.199667
0.199509
0.199338
0.199157
0.198967
0.19877
0.198568
0.198361
0.19815
0.197935
0.197719
0.1975
0.197281
0.197062
0.196845
0.141156
0.147002
0.152422
0.157429
0.162041
0.166275
0.170148
0.173681
0.176892
0.1798
0.182424
0.184784
0.186897
0.188782
0.190456
0.191936
0.193238
0.194377
0.195368
0.196223
0.196956
0.197579
0.198102
0.198535
0.198888
0.19917
0.199387
0.199546
0.199655
0.199719
0.199744
0.199733
0.199692
0.199624
0.199532
0.199421
0.199292
0.199149
0.198993
0.198826
0.198651
0.198469
0.198281
0.198088
0.19789
0.197689
0.197485
0.19728
0.197073
0.196866
0.19666
0.140516
0.146388
0.151825
0.156844
0.161463
0.1657
0.169575
0.173108
0.176317
0.179223
0.181845
0.184203
0.186314
0.188198
0.189872
0.191353
0.192657
0.193798
0.194793
0.195653
0.196392
0.197022
0.197553
0.197995
0.198358
0.19865
0.198878
0.19905
0.199172
0.199249
0.199287
0.19929
0.199263
0.199209
0.199132
0.199035
0.198921
0.198792
0.19865
0.198498
0.198337
0.198169
0.197994
0.197815
0.19763
0.197443
0.197252
0.197059
0.196864
0.196669
0.196475
0.196281
0.140022
0.145896
0.15133
0.156344
0.160956
0.165186
0.169052
0.172577
0.175778
0.178677
0.181293
0.183645
0.185753
0.187634
0.189306
0.190786
0.19209
0.193233
0.19423
0.195094
0.195839
0.196474
0.197013
0.197463
0.197835
0.198137
0.198376
0.198559
0.198693
0.198783
0.198834
0.19885
0.198837
0.198797
0.198734
0.198651
0.19855
0.198435
0.198308
0.198169
0.198022
0.197867
0.197706
0.19754
0.197369
0.197194
0.197016
0.196835
0.196653
0.19647
0.196287
0.196104
0.139696
0.14554
0.150946
0.155933
0.160519
0.164725
0.16857
0.172075
0.17526
0.178145
0.180748
0.18309
0.18519
0.187065
0.188732
0.19021
0.191513
0.192656
0.193656
0.194523
0.195272
0.195914
0.196459
0.196917
0.197298
0.19761
0.19786
0.198055
0.198201
0.198303
0.198367
0.198397
0.198398
0.198372
0.198323
0.198254
0.198168
0.198067
0.197954
0.19783
0.197696
0.197555
0.197408
0.197255
0.197097
0.196936
0.196771
0.196603
0.196434
0.196263
0.196091
0.19592
0.139617
0.145391
0.150735
0.155665
0.160202
0.164364
0.168172
0.171644
0.174801
0.177662
0.180245
0.182571
0.184657
0.186522
0.188182
0.189654
0.190953
0.192096
0.193095
0.193965
0.194717
0.195364
0.195915
0.196381
0.196771
0.197092
0.197352
0.197558
0.197715
0.19783
0.197907
0.19795
0.197964
0.197952
0.197917
0.197862
0.197789
0.197703
0.197603
0.197493
0.197373
0.197246
0.197112
0.196972
0.196827
0.196679
0.196527
0.196372
0.196214
0.196056
0.195896
0.195736
0.139682
0.145367
0.15063
0.155491
0.159967
0.164077
0.167839
0.171273
0.174397
0.177231
0.179792
0.1821
0.184171
0.186024
0.187675
0.189141
0.190437
0.191578
0.192577
0.193449
0.194204
0.194855
0.195412
0.195885
0.196283
0.196612
0.196882
0.197098
0.197266
0.197392
0.197481
0.197536
0.197562
0.197562
0.19754
0.197498
0.197438
0.197364
0.197277
0.197179
0.197072
0.196957
0.196836
0.196708
0.196576
0.196439
0.196298
0.196155
0.196009
0.195861
0.195712
0.195562
0.195412
0.139861
0.145441
0.150615
0.155397
0.159804
0.163855
0.167567
0.170958
0.174046
0.17685
0.179387
0.181674
0.183729
0.18557
0.187211
0.18867
0.189962
0.1911
0.192099
0.192972
0.19373
0.194385
0.194947
0.195426
0.195831
0.196168
0.196447
0.196672
0.19685
0.196986
0.197086
0.197152
0.197189
0.197201
0.19719
0.19716
0.197112
0.19705
0.196974
0.196888
0.196793
0.196689
0.196578
0.196462
0.19634
0.196214
0.196085
0.195952
0.195817
0.195679
0.19554
0.195399
0.195258
0.195116
0.140121
0.145591
0.150668
0.155366
0.159701
0.16369
0.167348
0.170694
0.173745
0.176517
0.179027
0.181293
0.183331
0.185157
0.186789
0.18824
0.189526
0.190661
0.191659
0.192532
0.193292
0.193951
0.194518
0.195002
0.195413
0.195757
0.196043
0.196277
0.196464
0.19661
0.196719
0.196796
0.196843
0.196866
0.196865
0.196846
0.196809
0.196757
0.196692
0.196617
0.196532
0.196439
0.196338
0.196232
0.196121
0.196005
0.195885
0.195762
0.195636
0.195508
0.195378
0.195246
0.195113
0.194979
0.140438
0.145795
0.150773
0.155387
0.159648
0.163573
0.167177
0.170477
0.173488
0.176227
0.17871
0.180954
0.182973
0.184785
0.186405
0.187848
0.189128
0.19026
0.191255
0.192128
0.19289
0.193551
0.194121
0.19461
0.195026
0.195377
0.19567
0.195911
0.196107
0.196261
0.196379
0.196465
0.196522
0.196554
0.196563
0.196553
0.196526
0.196484
0.19643
0.196364
0.196288
0.196205
0.196114
0.196017
0.195915
0.195808
0.195697
0.195583
0.195466
0.195347
0.195225
0.195102
0.194977
0.194851
0.140792
0.146037
0.150919
0.155449
0.159637
0.163498
0.167048
0.170301
0.173273
0.175979
0.178434
0.180654
0.182655
0.184452
0.18606
0.187493
0.188767
0.189893
0.190887
0.191759
0.192521
0.193183
0.193756
0.194249
0.19467
0.195026
0.195325
0.195573
0.195775
0.195937
0.196063
0.196157
0.196223
0.196263
0.196282
0.196281
0.196263
0.19623
0.196184
0.196128
0.196061
0.195986
0.195904
0.195816
0.195722
0.195624
0.195522
0.195416
0.195307
0.195196
0.195082
0.194966
0.194848
0.194729
0.141169
0.146308
0.151096
0.155543
0.15966
0.16346
0.166956
0.170163
0.173096
0.175768
0.178196
0.180392
0.182374
0.184155
0.18575
0.187174
0.18844
0.189561
0.190551
0.191421
0.192183
0.192846
0.193421
0.193917
0.194341
0.194702
0.195006
0.19526
0.195468
0.195637
0.19577
0.195871
0.195945
0.195993
0.19602
0.196027
0.196017
0.195993
0.195956
0.195907
0.195849
0.195782
0.195708
0.195628
0.195542
0.195451
0.195357
0.195259
0.195157
0.195053
0.194947
0.194838
0.194727
0.194615
0.141561
0.146597
0.151297
0.155666
0.159714
0.163454
0.166899
0.170061
0.172955
0.175594
0.177993
0.180167
0.182129
0.183894
0.185476
0.186889
0.188147
0.189262
0.190248
0.191115
0.191875
0.192539
0.193115
0.193613
0.19404
0.194405
0.194713
0.194971
0.195185
0.19536
0.195499
0.195607
0.195687
0.195742
0.195776
0.195791
0.195789
0.195772
0.195742
0.195702
0.195651
0.195592
0.195525
0.195452
0.195373
0.19529
0.195203
0.195112
0.195017
0.19492
0.19482
0.194718
0.194613
0.194507
0.141962
0.146903
0.151519
0.155814
0.159797
0.163479
0.166873
0.169992
0.172848
0.175455
0.177826
0.179976
0.181918
0.183667
0.185235
0.186637
0.187886
0.188995
0.189976
0.19084
0.191598
0.192261
0.192837
0.193336
0.193765
0.194133
0.194444
0.194707
0.194925
0.195104
0.195249
0.195362
0.195449
0.19551
0.195551
0.195572
0.195577
0.195567
0.195544
0.19551
0.195467
0.195414
0.195354
0.195288
0.195216
0.19514
0.195059
0.194974
0.194886
0.194795
0.194701
0.194605
0.194506
0.194405
0.142375
0.147226
0.151763
0.155988
0.159909
0.163536
0.166882
0.169959
0.172778
0.175353
0.177697
0.179823
0.181745
0.183477
0.185031
0.186422
0.187661
0.188762
0.189737
0.190597
0.191352
0.192013
0.192589
0.193088
0.193519
0.193888
0.194202
0.194467
0.194689
0.194872
0.195021
0.19514
0.195231
0.195298
0.195344
0.195372
0.195383
0.195379
0.195362
0.195335
0.195297
0.195251
0.195197
0.195137
0.195071
0.195001
0.194926
0.194847
0.194765
0.194679
0.194591
0.1945
0.194407
0.194311
0.142797
0.147565
0.152028
0.156187
0.160048
0.163623
0.166923
0.169958
0.172741
0.175285
0.177602
0.179704
0.181606
0.18332
0.18486
0.186238
0.187467
0.18856
0.189529
0.190383
0.191135
0.191793
0.192368
0.192866
0.193297
0.193667
0.193982
0.19425
0.194474
0.19466
0.194813
0.194935
0.195031
0.195103
0.195154
0.195186
0.195203
0.195205
0.195194
0.195172
0.19514
0.195099
0.195051
0.194997
0.194936
0.194871
0.194802
0.194728
0.194651
0.194571
0.194488
0.194402
0.194314
0.194223
0.143228
0.147916
0.152308
0.156403
0.160207
0.16373
0.166984
0.169978
0.172726
0.175237
0.177526
0.179604
0.181485
0.183181
0.184705
0.18607
0.187288
0.188372
0.189333
0.190182
0.190929
0.191584
0.192156
0.192653
0.193083
0.193453
0.193769
0.194038
0.194264
0.194453
0.194608
0.194734
0.194833
0.19491
0.194965
0.195003
0.195024
0.195031
0.195025
0.195008
0.194982
0.194947
0.194904
0.194855
0.1948
0.19474
0.194676
0.194608
0.194536
0.194461
0.194382
0.194301
0.194218
0.194132
0.143669
0.148278
0.152597
0.156626
0.160371
0.163842
0.167048
0.17
0.17271
0.175189
0.177448
0.179501
0.181359
0.183036
0.184543
0.185894
0.187101
0.188174
0.189127
0.189969
0.190711
0.191363
0.191932
0.192427
0.192857
0.193226
0.193543
0.193814
0.194042
0.194233
0.194391
0.194521
0.194624
0.194705
0.194765
0.194807
0.194834
0.194846
0.194846
0.194835
0.194814
0.194784
0.194747
0.194704
0.194655
0.1946
0.194541
0.194479
0.194412
0.194342
0.194269
0.194193
0.194115
0.194033
0.14412
0.148645
0.152888
0.156849
0.160533
0.163948
0.167104
0.170013
0.172683
0.175126
0.177355
0.179381
0.181216
0.182873
0.184363
0.185699
0.186893
0.187957
0.188902
0.189738
0.190475
0.191123
0.191689
0.192184
0.192612
0.192983
0.193301
0.193573
0.193803
0.193998
0.19416
0.194293
0.194401
0.194486
0.194552
0.1946
0.194632
0.19465
0.194656
0.194651
0.194636
0.194613
0.194582
0.194545
0.194501
0.194453
0.1944
0.194343
0.194282
0.194218
0.19415
0.19408
0.194007
0.19393
0.144584
0.149023
0.153186
0.157076
0.160696
0.164053
0.167158
0.170019
0.172649
0.175056
0.177252
0.17925
0.181061
0.182696
0.184168
0.185489
0.186671
0.187724
0.188661
0.18949
0.190222
0.190867
0.191431
0.191924
0.192353
0.192724
0.193044
0.193318
0.193552
0.19375
0.193916
0.194054
0.194167
0.194258
0.194329
0.194383
0.194421
0.194446
0.194458
0.19446
0.194452
0.194435
0.194411
0.19438
0.194343
0.194301
0.194254
0.194203
0.194148
0.19409
0.194028
0.193963
0.193895
0.193824
0.14507
0.149419
0.1535
0.157315
0.160867
0.164164
0.167214
0.170027
0.172613
0.174981
0.177144
0.179112
0.180896
0.182509
0.183962
0.185267
0.186436
0.187478
0.188406
0.189229
0.189956
0.190597
0.191159
0.191651
0.19208
0.192452
0.192773
0.19305
0.193287
0.193489
0.19366
0.193803
0.193922
0.194019
0.194096
0.194156
0.194202
0.194233
0.194252
0.194261
0.19426
0.19425
0.194232
0.194208
0.194178
0.194143
0.194103
0.194058
0.194009
0.193957
0.193901
0.193842
0.19378
0.193715
0.145582
0.149836
0.153831
0.157567
0.161049
0.164282
0.167275
0.170037
0.172577
0.174905
0.177031
0.178968
0.180725
0.182314
0.183747
0.185035
0.186189
0.18722
0.188138
0.188954
0.189676
0.190313
0.190873
0.191364
0.191793
0.192166
0.19249
0.192769
0.19301
0.193216
0.193392
0.193541
0.193666
0.193769
0.193853
0.19392
0.193973
0.194011
0.194038
0.194054
0.19406
0.194058
0.194048
0.194031
0.194008
0.193979
0.193946
0.193908
0.193866
0.19382
0.19377
0.193718
0.193661
0.193602
0.146118
0.150275
0.15418
0.157835
0.161242
0.164409
0.167342
0.17005
0.172541
0.174827
0.176915
0.178818
0.180546
0.18211
0.183521
0.184791
0.18593
0.186949
0.187858
0.188666
0.189382
0.190015
0.190573
0.191063
0.191492
0.191866
0.192192
0.192475
0.19272
0.192931
0.193112
0.193267
0.193398
0.193508
0.1936
0.193675
0.193734
0.193781
0.193815
0.193839
0.193853
0.193858
0.193856
0.193846
0.193831
0.19381
0.193784
0.193753
0.193718
0.193678
0.193635
0.193589
0.193539
0.193485
0.14668
0.150735
0.154546
0.158116
0.161447
0.164543
0.167414
0.170065
0.172506
0.174746
0.176795
0.178663
0.18036
0.181897
0.183286
0.184536
0.185659
0.186665
0.187563
0.188363
0.189074
0.189703
0.190258
0.190747
0.191176
0.191552
0.19188
0.192167
0.192416
0.192633
0.19282
0.192981
0.193119
0.193237
0.193336
0.193419
0.193486
0.193541
0.193583
0.193615
0.193638
0.193651
0.193657
0.193655
0.193648
0.193634
0.193616
0.193592
0.193564
0.193532
0.193496
0.193456
0.193412
0.193365
0.147264
0.151214
0.154929
0.15841
0.161661
0.164685
0.16749
0.170082
0.17247
0.174663
0.17667
0.1785
0.180165
0.181675
0.183039
0.18427
0.185376
0.186368
0.187255
0.188046
0.18875
0.189375
0.189928
0.190415
0.190845
0.191222
0.191554
0.191844
0.192098
0.192321
0.192514
0.192683
0.192828
0.192954
0.193061
0.193152
0.193228
0.193291
0.193343
0.193383
0.193414
0.193436
0.19345
0.193457
0.193458
0.193453
0.193442
0.193426
0.193406
0.193381
0.193352
0.193318
0.193281
0.19324
0.147868
0.15171
0.155324
0.158714
0.161882
0.164831
0.167568
0.170099
0.172432
0.174575
0.176538
0.17833
0.179961
0.181441
0.182781
0.18399
0.185078
0.186056
0.186931
0.187713
0.188411
0.189031
0.18958
0.190067
0.190497
0.190877
0.191211
0.191506
0.191766
0.191994
0.192195
0.192371
0.192525
0.192658
0.192774
0.192874
0.192959
0.193032
0.193092
0.193142
0.193182
0.193213
0.193236
0.193252
0.193261
0.193264
0.193262
0.193254
0.193242
0.193224
0.193203
0.193177
0.193147
0.193112
0.148487
0.152218
0.15573
0.159026
0.162108
0.164979
0.167645
0.170113
0.172389
0.174481
0.176398
0.17815
0.179746
0.181196
0.182509
0.183696
0.184765
0.185727
0.18659
0.187363
0.188053
0.188668
0.189216
0.189701
0.190132
0.190514
0.190852
0.191152
0.191418
0.191654
0.191862
0.192046
0.192208
0.192351
0.192476
0.192585
0.19268
0.192762
0.192832
0.192891
0.192941
0.192982
0.193014
0.193039
0.193058
0.19307
0.193076
0.193077
0.193073
0.193063
0.193049
0.193031
0.193008
0.192981
0.149079
0.152704
0.156118
0.159324
0.162323
0.165119
0.167717
0.170122
0.172343
0.174385
0.176258
0.177971
0.179532
0.180952
0.182239
0.183404
0.184455
0.185402
0.186253
0.187016
0.187699
0.188309
0.188854
0.189339
0.189771
0.190155
0.190498
0.190803
0.191075
0.191317
0.191533
0.191725
0.191896
0.192048
0.192182
0.1923
0.192404
0.192496
0.192575
0.192644
0.192704
0.192754
0.192796
0.19283
0.192858
0.192879
0.192893
0.192903
0.192906
0.192905
0.192899
0.192888
0.192872
0.192851
0.149673
0.153191
0.156505
0.15962
0.162535
0.165254
0.167782
0.170125
0.172288
0.17428
0.176107
0.17778
0.179306
0.180695
0.181956
0.183098
0.18413
0.185061
0.1859
0.186653
0.187329
0.187935
0.188477
0.188962
0.189396
0.189783
0.190131
0.190442
0.19072
0.19097
0.191194
0.191395
0.191574
0.191735
0.191879
0.192007
0.192121
0.192222
0.192312
0.192391
0.19246
0.19252
0.192572
0.192616
0.192653
0.192683
0.192707
0.192725
0.192737
0.192744
0.192745
0.192742
0.192733
0.19272
0.150315
0.153713
0.156917
0.159929
0.162749
0.165382
0.167832
0.170103
0.172202
0.174136
0.175912
0.177539
0.179026
0.18038
0.181612
0.182729
0.18374
0.184655
0.18548
0.186224
0.186893
0.187494
0.188035
0.188521
0.188958
0.189351
0.189704
0.190023
0.19031
0.190569
0.190803
0.191014
0.191205
0.191376
0.191532
0.191671
0.191797
0.19191
0.192012
0.192103
0.192184
0.192256
0.192319
0.192374
0.192422
0.192463
0.192497
0.192525
0.192547
0.192564
0.192574
0.19258
0.19258
0.192574
0.147557
0.151007
0.154271
0.15735
0.160246
0.16296
0.165495
0.167855
0.170046
0.172072
0.173941
0.175659
0.177235
0.178677
0.179993
0.181192
0.182281
0.18327
0.184166
0.184978
0.185711
0.186374
0.186973
0.187513
0.188002
0.188444
0.188843
0.189206
0.189534
0.189832
0.190103
0.190349
0.190573
0.190777
0.190963
0.191132
0.191286
0.191426
0.191554
0.19167
0.191775
0.19187
0.191955
0.192032
0.192101
0.192162
0.192215
0.192261
0.192301
0.192335
0.192362
0.192383
0.192399
0.192408
0.192412
0.14845
0.151738
0.154851
0.15779
0.160556
0.163151
0.165576
0.167835
0.169935
0.171879
0.173674
0.175328
0.176847
0.178239
0.179513
0.180676
0.181736
0.182701
0.183578
0.184376
0.1851
0.185758
0.186356
0.186899
0.187392
0.187842
0.188251
0.188625
0.188966
0.189278
0.189564
0.189826
0.190066
0.190287
0.190489
0.190676
0.190847
0.191004
0.191149
0.191282
0.191404
0.191516
0.191618
0.19171
0.191795
0.19187
0.191939
0.191999
0.192053
0.192099
0.192139
0.192172
0.192199
0.19222
0.192234
0.149368
0.152476
0.155422
0.158205
0.160826
0.163286
0.165588
0.167736
0.169733
0.171586
0.173301
0.174882
0.176339
0.177678
0.178906
0.180031
0.181061
0.182002
0.182862
0.183648
0.184366
0.185022
0.185621
0.18617
0.186673
0.187133
0.187557
0.187946
0.188305
0.188635
0.18894
0.189222
0.189483
0.189725
0.189948
0.190156
0.190348
0.190527
0.190692
0.190846
0.190988
0.191119
0.19124
0.191352
0.191454
0.191548
0.191633
0.191709
0.191779
0.19184
0.191894
0.191941
0.191981
0.192014
0.19204
0.150249
0.15316
0.15592
0.15853
0.160991
0.163302
0.165468
0.167492
0.169378
0.171131
0.172756
0.174261
0.175651
0.176933
0.178115
0.179202
0.180203
0.181122
0.181968
0.182746
0.183462
0.18412
0.184728
0.185288
0.185806
0.186284
0.186728
0.187139
0.187521
0.187877
0.188207
0.188516
0.188803
0.189071
0.189322
0.189556
0.189775
0.189979
0.190171
0.190349
0.190515
0.19067
0.190814
0.190948
0.191072
0.191186
0.19129
0.191386
0.191474
0.191553
0.191624
0.191686
0.191741
0.191789
0.191828
0.150903
0.153603
0.156166
0.15859
0.160879
0.163032
0.165054
0.166947
0.168715
0.170365
0.171901
0.173328
0.174654
0.175883
0.177023
0.178079
0.179058
0.179965
0.180805
0.181585
0.182309
0.182982
0.183608
0.184191
0.184734
0.185242
0.185716
0.18616
0.186576
0.186965
0.187331
0.187675
0.187998
0.188301
0.188586
0.188855
0.189107
0.189344
0.189567
0.189776
0.189972
0.190156
0.190328
0.190488
0.190637
0.190776
0.190904
0.191023
0.191132
0.191231
0.191321
0.191403
0.191475
0.191539
0.191594
0.150972
0.153494
0.155889
0.158157
0.160301
0.162323
0.164225
0.166012
0.167688
0.169258
0.170726
0.172099
0.173382
0.17458
0.175698
0.176743
0.177719
0.178631
0.179485
0.180284
0.181032
0.181734
0.182392
0.183011
0.183592
0.18414
0.184655
0.185141
0.185598
0.18603
0.186438
0.186823
0.187187
0.18753
0.187854
0.18816
0.188449
0.188721
0.188978
0.189219
0.189447
0.18966
0.189861
0.190048
0.190224
0.190387
0.19054
0.190681
0.190811
0.19093
0.19104
0.191139
0.191228
0.191309
0.191379
0.150554
0.152958
0.155243
0.15741
0.159463
0.161403
0.163234
0.164959
0.166583
0.168111
0.169547
0.170896
0.172164
0.173355
0.174475
0.175527
0.176516
0.177447
0.178324
0.17915
0.179929
0.180663
0.181357
0.182012
0.182631
0.183217
0.183771
0.184295
0.184791
0.185261
0.185705
0.186127
0.186525
0.186903
0.18726
0.187598
0.187917
0.188219
0.188504
0.188773
0.189026
0.189264
0.189488
0.189699
0.189895
0.190079
0.190251
0.19041
0.190557
0.190693
0.190818
0.190932
0.191035
0.191128
0.191211
0.149786
0.152104
0.15431
0.156407
0.158398
0.160284
0.16207
0.163759
0.165356
0.166864
0.168289
0.169635
0.170906
0.172107
0.173242
0.174315
0.175329
0.176289
0.177198
0.178058
0.178874
0.179647
0.180379
0.181074
0.181733
0.182359
0.182952
0.183515
0.184049
0.184556
0.185037
0.185493
0.185926
0.186336
0.186725
0.187093
0.187441
0.187771
0.188082
0.188376
0.188653
0.188914
0.18916
0.18939
0.189607
0.189809
0.189998
0.190173
0.190336
0.190487
0.190626
0.190753
0.190868
0.190973
0.191067
0.148732
0.150991
0.153147
0.155201
0.157156
0.159014
0.160779
0.162455
0.164046
0.165555
0.166987
0.168346
0.169635
0.170859
0.172021
0.173124
0.174173
0.175169
0.176116
0.177016
0.177872
0.178686
0.17946
0.180196
0.180896
0.181562
0.182194
0.182796
0.183367
0.18391
0.184426
0.184916
0.185381
0.185822
0.18624
0.186636
0.187011
0.187366
0.187702
0.188019
0.188319
0.188601
0.188866
0.189116
0.18935
0.189569
0.189774
0.189965
0.190142
0.190306
0.190457
0.190596
0.190723
0.190838
0.190942
0.147455
0.149682
0.151811
0.153845
0.155786
0.157637
0.159402
0.161084
0.162685
0.164211
0.165665
0.16705
0.168369
0.169626
0.170824
0.171966
0.173055
0.174092
0.175082
0.176025
0.176924
0.177781
0.178597
0.179374
0.180115
0.18082
0.181491
0.18213
0.182737
0.183315
0.183864
0.184385
0.184881
0.185351
0.185797
0.18622
0.18662
0.186999
0.187358
0.187697
0.188016
0.188318
0.188602
0.188869
0.18912
0.189354
0.189574
0.189778
0.189968
0.190144
0.190307
0.190457
0.190594
0.190718
0.190831
0.146011
0.148225
0.150348
0.152381
0.154328
0.15619
0.157971
0.159673
0.161301
0.162856
0.164343
0.165764
0.167122
0.16842
0.16966
0.170846
0.171979
0.173061
0.174096
0.175083
0.176026
0.176926
0.177785
0.178603
0.179384
0.180127
0.180836
0.18151
0.182152
0.182763
0.183343
0.183895
0.184419
0.184917
0.185389
0.185837
0.186261
0.186663
0.187042
0.187401
0.18774
0.18806
0.188361
0.188644
0.18891
0.18916
0.189392
0.18961
0.189812
0.189999
0.190172
0.190332
0.190478
0.190611
0.190732
0.144447
0.146666
0.148799
0.150848
0.152815
0.154703
0.156513
0.158248
0.159912
0.161507
0.163035
0.1645
0.165903
0.167247
0.168534
0.169767
0.170947
0.172076
0.173156
0.174189
0.175176
0.176119
0.177019
0.177878
0.178697
0.179478
0.180222
0.180931
0.181606
0.182248
0.182859
0.183439
0.18399
0.184514
0.185011
0.185482
0.185928
0.186351
0.186751
0.187129
0.187486
0.187823
0.18814
0.188438
0.188718
0.188981
0.189226
0.189455
0.189669
0.189866
0.190049
0.190218
0.190373
0.190514
0.190642
0.142796
0.145035
0.147192
0.14927
0.151269
0.153193
0.155043
0.156821
0.15853
0.160171
0.161748
0.163261
0.164714
0.166107
0.167444
0.168726
0.169954
0.171131
0.172257
0.173335
0.174366
0.175351
0.176292
0.17719
0.178046
0.178864
0.179642
0.180384
0.181091
0.181763
0.182402
0.183009
0.183587
0.184135
0.184655
0.185149
0.185616
0.186059
0.186478
0.186874
0.187247
0.1876
0.187932
0.188245
0.188539
0.188814
0.189071
0.189312
0.189535
0.189743
0.189935
0.190113
0.190275
0.190424
0.19056
0.141086
0.143356
0.145549
0.147666
0.149708
0.151677
0.153574
0.155402
0.157162
0.158855
0.160484
0.16205
0.163555
0.165
0.166388
0.16772
0.168997
0.170221
0.171394
0.172516
0.17359
0.174616
0.175596
0.176532
0.177426
0.178278
0.17909
0.179863
0.1806
0.181301
0.181967
0.182601
0.183203
0.183775
0.184318
0.184832
0.18532
0.185782
0.186219
0.186632
0.187022
0.18739
0.187736
0.188063
0.188369
0.188657
0.188926
0.189176
0.18941
0.189627
0.189828
0.190014
0.190184
0.19034
0.190482
0.139498
0.141806
0.144039
0.146199
0.148286
0.150303
0.152249
0.154126
0.155936
0.15768
0.159359
0.160975
0.162529
0.164022
0.165457
0.166835
0.168157
0.169424
0.170638
0.1718
0.172912
0.173975
0.17499
0.17596
0.176885
0.177768
0.178609
0.17941
0.180174
0.1809
0.18159
0.182247
0.182871
0.183463
0.184026
0.184559
0.185064
0.185543
0.185995
0.186424
0.186828
0.187209
0.187569
0.187907
0.188225
0.188523
0.188801
0.189062
0.189304
0.18953
0.189738
0.189931
0.190108
0.19027
0.190418
0.138405
0.140743
0.143008
0.145202
0.147325
0.149377
0.15136
0.153274
0.155121
0.156901
0.158616
0.160267
0.161856
0.163383
0.164851
0.16626
0.167612
0.168908
0.17015
0.171339
0.172476
0.173564
0.174602
0.175594
0.176541
0.177443
0.178304
0.179123
0.179903
0.180646
0.181352
0.182024
0.182662
0.183268
0.183842
0.184388
0.184905
0.185394
0.185857
0.186295
0.186708
0.187098
0.187466
0.187812
0.188137
0.188441
0.188727
0.188993
0.189241
0.189471
0.189685
0.189882
0.190064
0.19023
0.190382
)
;

boundaryField
{
    inlet
    {
        type            zeroGradient;
    }
    outlet
    {
        type            fixedValue;
        value           nonuniform 0();
    }
    upperWall
    {
        type            zeroGradient;
    }
    lowerWall
    {
        type            zeroGradient;
    }
    frontAndBack
    {
        type            empty;
    }
    procBoundary3to1
    {
        type            processor;
        value           nonuniform List<scalar> 
62
(
0.199629
0.199335
0.199026
0.198755
0.198511
0.198283
0.198283
0.197788
0.197593
0.197593
0.197154
0.196978
0.196804
0.19663
0.196456
0.196456
0.196089
0.195923
0.195749
0.195575
0.195575
0.195261
0.195261
0.194973
0.194844
0.194723
0.194608
0.1945
0.194398
0.194302
0.194213
0.19413
0.194043
0.193949
0.193851
0.19375
0.193646
0.193539
0.193428
0.193313
0.193195
0.193073
0.192948
0.192826
0.192701
0.192563
0.19241
0.192242
0.19206
0.19186
0.191642
0.191441
0.191285
0.191151
0.191034
0.190932
0.190841
0.190758
0.190682
0.190611
0.190552
0.190519
)
;
    }
    procBoundary3to2
    {
        type            processor;
        value           nonuniform List<scalar> 
58
(
0.174852
0.167374
0.159246
0.153568
0.149401
0.146126
0.143496
0.141346
0.139559
0.138058
0.136793
0.135734
0.134868
0.134193
0.133691
0.133394
0.133391
0.133558
0.133855
0.134242
0.134687
0.135167
0.135665
0.136171
0.13668
0.137193
0.137708
0.138227
0.138756
0.139297
0.139857
0.140442
0.141057
0.1417
0.142373
0.143072
0.143792
0.144531
0.145239
0.145948
0.14672
0.14672
0.143923
0.14499
0.146099
0.14719
0.148066
0.148324
0.148032
0.147358
0.146367
0.145131
0.143705
0.142141
0.140476
0.138739
0.137118
0.135996
)
;
    }
}


// ************************************************************************* //
