/*--------------------------------*- C++ -*----------------------------------*\
  =========                 |
  \\      /  F ield         | OpenFOAM: The Open Source CFD Toolbox
   \\    /   O peration     | Website:  https://openfoam.org
    \\  /    A nd           | Version:  6
     \\/     M anipulation  |
\*---------------------------------------------------------------------------*/
FoamFile
{
    version     2.0;
    format      ascii;
    class       surfaceScalarField;
    location    "0.04";
    object      phi;
}
// * * * * * * * * * * * * * * * * * * * * * * * * * * * * * * * * * * * * * //

dimensions      [0 3 -1 0 0 0 0];

internalField   nonuniform List<scalar> 
5952
(
1.57919e-07
-1.64697e-08
1.74078e-07
-1.61587e-08
1.89878e-07
-1.57995e-08
2.05276e-07
-1.53979e-08
2.20235e-07
-1.49597e-08
2.34726e-07
-1.44907e-08
2.48722e-07
-1.39964e-08
2.62204e-07
-1.34821e-08
2.75158e-07
-1.2953e-08
2.87571e-07
-1.24139e-08
2.99441e-07
-1.18691e-08
3.10763e-07
-1.13228e-08
3.21542e-07
-1.07784e-08
3.31781e-07
-1.02394e-08
3.4149e-07
-9.70847e-09
3.50678e-07
-9.18814e-09
3.59358e-07
-8.68049e-09
3.67545e-07
-8.18723e-09
3.75255e-07
-7.70974e-09
3.82504e-07
-7.24911e-09
3.8931e-07
-6.80612e-09
3.95692e-07
-6.38131e-09
4.01667e-07
-5.97499e-09
4.07254e-07
-5.58729e-09
4.12472e-07
-5.21815e-09
4.1734e-07
-4.86736e-09
4.21874e-07
-4.53462e-09
4.26094e-07
-4.2195e-09
4.30015e-07
-3.92151e-09
4.33655e-07
-3.64009e-09
4.3703e-07
-3.37462e-09
4.40154e-07
-3.12449e-09
4.43043e-07
-2.88903e-09
4.45711e-07
-2.66757e-09
4.4817e-07
-2.45944e-09
4.50434e-07
-2.26397e-09
4.52515e-07
-2.08051e-09
4.54423e-07
-1.90842e-09
4.5617e-07
-1.74707e-09
4.57766e-07
-1.59586e-09
4.5922e-07
-1.45421e-09
4.60542e-07
-1.32156e-09
4.61739e-07
-1.19738e-09
4.62821e-07
-1.08113e-09
4.63793e-07
-9.72324e-10
4.64663e-07
-8.70494e-10
4.65439e-07
-7.75206e-10
4.66125e-07
-6.86101e-10
-6.02853e-10
1.66421e-07
-3.31557e-08
1.82837e-07
-3.25746e-08
1.98933e-07
-3.18958e-08
2.14666e-07
-3.11306e-08
2.29996e-07
-3.02901e-08
2.44891e-07
-2.93854e-08
2.59322e-07
-2.84271e-08
2.73265e-07
-2.74259e-08
2.86704e-07
-2.63915e-08
2.99623e-07
-2.53335e-08
3.12015e-07
-2.42606e-08
3.23873e-07
-2.31808e-08
3.35196e-07
-2.21016e-08
3.45986e-07
-2.10295e-08
3.56248e-07
-1.99704e-08
3.65989e-07
-1.89294e-08
3.7522e-07
-1.7911e-08
3.83951e-07
-1.69188e-08
3.92198e-07
-1.59558e-08
3.99973e-07
-1.50245e-08
4.07294e-07
-1.41267e-08
4.14176e-07
-1.32638e-08
4.20638e-07
-1.24366e-08
4.26696e-07
-1.16455e-08
4.32369e-07
-1.08908e-08
4.37673e-07
-1.01721e-08
4.42628e-07
-9.48912e-09
4.47249e-07
-8.84106e-09
4.51555e-07
-8.2271e-09
4.55561e-07
-7.64626e-09
4.59284e-07
-7.09744e-09
4.62739e-07
-6.57946e-09
4.65941e-07
-6.09109e-09
4.68904e-07
-5.63106e-09
4.71643e-07
-5.19809e-09
4.7417e-07
-4.79088e-09
4.76498e-07
-4.40819e-09
4.78638e-07
-4.04873e-09
4.80602e-07
-3.7113e-09
4.82401e-07
-3.39469e-09
4.84045e-07
-3.09776e-09
4.85542e-07
-2.81939e-09
4.86904e-07
-2.55854e-09
4.88137e-07
-2.31414e-09
4.8925e-07
-2.08525e-09
4.9025e-07
-1.87092e-09
4.91145e-07
-1.6703e-09
4.91942e-07
-1.48262e-09
-1.30713e-09
1.70647e-07
-4.97598e-08
1.87e-07
-4.89276e-08
2.03053e-07
-4.79494e-08
2.18764e-07
-4.6841e-08
2.34092e-07
-4.56188e-08
2.49005e-07
-4.42985e-08
2.63474e-07
-4.2896e-08
2.77475e-07
-4.14265e-08
2.90988e-07
-3.99044e-08
3.03998e-07
-3.83438e-08
3.16495e-07
-3.67575e-08
3.28472e-07
-3.51575e-08
3.39925e-07
-3.3555e-08
3.50856e-07
-3.19598e-08
3.61266e-07
-3.03809e-08
3.71163e-07
-2.8826e-08
3.80554e-07
-2.7302e-08
3.89449e-07
-2.58146e-08
3.97862e-07
-2.43686e-08
4.05805e-07
-2.29678e-08
4.13294e-07
-2.16154e-08
4.20344e-07
-2.03134e-08
4.26971e-07
-1.90635e-08
4.33192e-07
-1.78666e-08
4.39024e-07
-1.67231e-08
4.44485e-07
-1.56328e-08
4.49591e-07
-1.45953e-08
4.54359e-07
-1.36096e-08
4.58807e-07
-1.26748e-08
4.6295e-07
-1.17893e-08
4.66804e-07
-1.09518e-08
4.70385e-07
-1.01604e-08
4.73708e-07
-9.41359e-09
4.76786e-07
-8.70936e-09
4.79634e-07
-8.04593e-09
4.82265e-07
-7.42141e-09
4.8469e-07
-6.83395e-09
4.86923e-07
-6.2817e-09
4.88975e-07
-5.76285e-09
4.90856e-07
-5.27566e-09
4.92577e-07
-4.81841e-09
4.94147e-07
-4.38943e-09
4.95575e-07
-3.98717e-09
4.96871e-07
-3.61009e-09
4.98043e-07
-3.25673e-09
4.99097e-07
-2.92574e-09
5.00043e-07
-2.6158e-09
5.00886e-07
-2.32571e-09
-2.05432e-09
1.75185e-07
-6.62538e-08
1.91431e-07
-6.51736e-08
2.07383e-07
-6.39008e-08
2.22997e-07
-6.24559e-08
2.38239e-07
-6.08598e-08
2.53073e-07
-5.91331e-08
2.67473e-07
-5.72962e-08
2.81416e-07
-5.53687e-08
2.94881e-07
-5.33696e-08
3.07854e-07
-5.1317e-08
3.20324e-07
-4.92277e-08
3.32284e-07
-4.71177e-08
3.43731e-07
-4.50015e-08
3.54663e-07
-4.28922e-08
3.65084e-07
-4.08017e-08
3.74999e-07
-3.87405e-08
3.84414e-07
-3.67177e-08
3.93341e-07
-3.47412e-08
4.0179e-07
-3.28174e-08
4.09773e-07
-3.09517e-08
4.17306e-07
-2.91483e-08
4.24403e-07
-2.74105e-08
4.3108e-07
-2.57404e-08
4.37353e-07
-2.41396e-08
4.43239e-07
-2.26086e-08
4.48754e-07
-2.11476e-08
4.53914e-07
-1.9756e-08
4.58738e-07
-1.84329e-08
4.6324e-07
-1.71768e-08
4.67436e-07
-1.59862e-08
4.71344e-07
-1.4859e-08
4.74976e-07
-1.37932e-08
4.78349e-07
-1.27866e-08
4.81477e-07
-1.18367e-08
4.84372e-07
-1.09412e-08
4.87048e-07
-1.00976e-08
4.89518e-07
-9.30356e-09
4.91793e-07
-8.55662e-09
4.93884e-07
-7.85442e-09
4.95803e-07
-7.19467e-09
4.9756e-07
-6.57509e-09
4.99164e-07
-5.99354e-09
5.00625e-07
-5.4479e-09
5.01951e-07
-4.93618e-09
5.03151e-07
-4.45645e-09
5.04232e-07
-4.0069e-09
5.05202e-07
-3.58579e-09
5.06067e-07
-3.19147e-09
-2.8224e-09
1.80966e-07
-8.26271e-08
1.97082e-07
-8.12889e-08
2.12895e-07
-7.97144e-08
2.28368e-07
-7.79288e-08
2.43466e-07
-7.59572e-08
2.58157e-07
-7.38247e-08
2.72417e-07
-7.15558e-08
2.86223e-07
-6.91745e-08
2.99557e-07
-6.67038e-08
3.12406e-07
-6.41657e-08
3.24759e-07
-6.15808e-08
3.36609e-07
-5.89685e-08
3.47955e-07
-5.63467e-08
3.58794e-07
-5.37316e-08
3.6913e-07
-5.11379e-08
3.78968e-07
-4.85785e-08
3.88315e-07
-4.60649e-08
3.97181e-07
-4.36067e-08
4.05576e-07
-4.12124e-08
4.13513e-07
-3.88886e-08
4.21005e-07
-3.66407e-08
4.28068e-07
-3.4473e-08
4.34716e-07
-3.23882e-08
4.40965e-07
-3.03884e-08
4.46831e-07
-2.84746e-08
4.5233e-07
-2.6647e-08
4.57479e-07
-2.49051e-08
4.62294e-07
-2.32478e-08
4.66791e-07
-2.16735e-08
4.70985e-07
-2.01802e-08
4.74892e-07
-1.87657e-08
4.78526e-07
-1.74274e-08
4.81902e-07
-1.61626e-08
4.85034e-07
-1.49685e-08
4.87934e-07
-1.3842e-08
4.90617e-07
-1.27803e-08
4.93094e-07
-1.17803e-08
4.95376e-07
-1.08392e-08
4.97476e-07
-9.95404e-09
4.99403e-07
-9.12192e-09
5.01168e-07
-8.3401e-09
5.02781e-07
-7.60592e-09
5.0425e-07
-6.91678e-09
5.05584e-07
-6.2702e-09
5.06791e-07
-5.66381e-09
5.07879e-07
-5.09534e-09
5.08856e-07
-4.56263e-09
5.09728e-07
-4.06362e-09
-3.59637e-09
1.88456e-07
-9.8853e-08
2.04403e-07
-9.72365e-08
2.20033e-07
-9.53443e-08
2.3531e-07
-9.32057e-08
2.50203e-07
-9.08499e-08
2.64684e-07
-8.83061e-08
2.78731e-07
-8.56027e-08
2.92324e-07
-8.27676e-08
3.05448e-07
-7.98275e-08
3.1809e-07
-7.68079e-08
3.30242e-07
-7.3733e-08
3.41899e-07
-7.06252e-08
3.53058e-07
-6.75056e-08
3.63719e-07
-6.43931e-08
3.73887e-07
-6.1305e-08
3.83565e-07
-5.82567e-08
3.92762e-07
-5.52616e-08
4.01486e-07
-5.23313e-08
4.0975e-07
-4.94758e-08
4.17564e-07
-4.6703e-08
4.24943e-07
-4.40195e-08
4.319e-07
-4.14303e-08
4.38451e-07
-3.89391e-08
4.44611e-07
-3.65482e-08
4.50395e-07
-3.4259e-08
4.5582e-07
-3.20718e-08
4.60901e-07
-2.99862e-08
4.65654e-07
-2.80008e-08
4.70094e-07
-2.6114e-08
4.74238e-07
-2.43235e-08
4.78099e-07
-2.26266e-08
4.81691e-07
-2.10203e-08
4.8503e-07
-1.95015e-08
4.88129e-07
-1.80669e-08
4.91e-07
-1.67129e-08
4.93656e-07
-1.54362e-08
4.96108e-07
-1.42332e-08
4.9837e-07
-1.31005e-08
5.0045e-07
-1.20345e-08
5.0236e-07
-1.10321e-08
5.0411e-07
-1.00899e-08
5.05709e-07
-9.20464e-09
5.07165e-07
-8.3734e-09
5.08488e-07
-7.5932e-09
5.09686e-07
-6.86122e-09
5.10765e-07
-6.17475e-09
5.11734e-07
-5.53124e-09
5.12599e-07
-4.92821e-09
-4.36334e-09
1.98011e-07
-1.14877e-07
2.13729e-07
-1.12955e-07
2.29108e-07
-1.10723e-07
2.44116e-07
-1.08214e-07
2.58727e-07
-1.05461e-07
2.72918e-07
-1.02497e-07
2.86669e-07
-9.9354e-08
2.99965e-07
-9.60633e-08
3.12792e-07
-9.26548e-08
3.25141e-07
-8.91572e-08
3.37006e-07
-8.55977e-08
3.48383e-07
-8.20018e-08
3.5927e-07
-7.83929e-08
3.6967e-07
-7.47928e-08
3.79585e-07
-7.12209e-08
3.89023e-07
-6.76947e-08
3.97991e-07
-6.42296e-08
4.06499e-07
-6.08389e-08
4.14557e-07
-5.75338e-08
4.22178e-07
-5.43237e-08
4.29374e-07
-5.12161e-08
4.36161e-07
-4.82168e-08
4.42552e-07
-4.53301e-08
4.48562e-07
-4.25587e-08
4.54208e-07
-3.99043e-08
4.59503e-07
-3.73673e-08
4.64464e-07
-3.49473e-08
4.69106e-07
-3.26428e-08
4.73444e-07
-3.04518e-08
4.77492e-07
-2.83719e-08
4.81266e-07
-2.64e-08
4.84778e-07
-2.45327e-08
4.88043e-07
-2.27664e-08
4.91073e-07
-2.10973e-08
4.93882e-07
-1.95214e-08
4.96481e-07
-1.80349e-08
4.98881e-07
-1.66336e-08
5.01094e-07
-1.53136e-08
5.03131e-07
-1.4071e-08
5.05e-07
-1.29019e-08
5.06713e-07
-1.18026e-08
5.08278e-07
-1.07695e-08
5.09704e-07
-9.79896e-09
5.10998e-07
-8.88769e-09
5.12169e-07
-8.03243e-09
5.13225e-07
-7.23006e-09
5.14171e-07
-6.47763e-09
5.15015e-07
-5.77229e-09
5.15763e-07
-5.11132e-09
-4.49216e-09
2.09945e-07
-1.30612e-07
2.25342e-07
-1.28352e-07
2.40374e-07
-1.25755e-07
2.55017e-07
-1.22856e-07
2.69248e-07
-1.19692e-07
2.8305e-07
-1.16299e-07
2.96407e-07
-1.12711e-07
3.09308e-07
-1.08964e-07
3.21742e-07
-1.05089e-07
3.33704e-07
-1.01119e-07
3.45189e-07
-9.70822e-08
3.56194e-07
-9.30074e-08
3.66722e-07
-8.89204e-08
3.76774e-07
-8.48448e-08
3.86355e-07
-8.08022e-08
3.95472e-07
-7.68121e-08
4.04134e-07
-7.28913e-08
4.1235e-07
-6.90547e-08
4.20131e-07
-6.53148e-08
4.27489e-07
-6.1682e-08
4.34438e-07
-5.81648e-08
4.4099e-07
-5.47696e-08
4.47162e-07
-5.15012e-08
4.52966e-07
-4.83628e-08
4.58418e-07
-4.53562e-08
4.63532e-07
-4.24819e-08
4.68324e-07
-3.97394e-08
4.72809e-07
-3.71272e-08
4.77e-07
-3.4643e-08
4.80912e-07
-3.2284e-08
4.84559e-07
-3.00469e-08
4.87954e-07
-2.79277e-08
4.9111e-07
-2.59225e-08
4.9404e-07
-2.40271e-08
4.96756e-07
-2.22369e-08
4.99268e-07
-2.05476e-08
5.01589e-07
-1.89546e-08
5.03729e-07
-1.74535e-08
5.05698e-07
-1.60399e-08
5.07506e-07
-1.47095e-08
5.09161e-07
-1.3458e-08
5.10673e-07
-1.22813e-08
5.1205e-07
-1.11756e-08
5.13299e-07
-1.01371e-08
5.14429e-07
-9.16201e-09
5.15445e-07
-8.24691e-09
5.16356e-07
-7.38847e-09
5.17167e-07
-6.58346e-09
5.17885e-07
-5.82886e-09
-5.12171e-09
2.24535e-07
-1.4593e-07
2.39485e-07
-1.43302e-07
2.54045e-07
-1.40315e-07
2.68199e-07
-1.37009e-07
2.81929e-07
-1.33422e-07
2.95224e-07
-1.29593e-07
3.08072e-07
-1.2556e-07
3.20466e-07
-1.21358e-07
3.324e-07
-1.17023e-07
3.4387e-07
-1.12589e-07
3.54874e-07
-1.08086e-07
3.65412e-07
-1.03546e-07
3.75487e-07
-9.89953e-08
3.85103e-07
-9.44603e-08
3.94264e-07
-8.99641e-08
4.0298e-07
-8.55276e-08
4.11258e-07
-8.11691e-08
4.19108e-07
-7.69048e-08
4.26541e-07
-7.27482e-08
4.3357e-07
-6.87108e-08
4.40207e-07
-6.48017e-08
4.46465e-07
-6.10279e-08
4.52359e-07
-5.73948e-08
4.57902e-07
-5.39058e-08
4.63109e-07
-5.05629e-08
4.67993e-07
-4.73666e-08
4.7257e-07
-4.43162e-08
4.76853e-07
-4.14103e-08
4.80856e-07
-3.86462e-08
4.84593e-07
-3.60208e-08
4.88077e-07
-3.35303e-08
4.9132e-07
-3.11707e-08
4.94334e-07
-2.89374e-08
4.97133e-07
-2.68256e-08
4.99727e-07
-2.48306e-08
5.02126e-07
-2.29474e-08
5.04343e-07
-2.11709e-08
5.06386e-07
-1.94964e-08
5.08265e-07
-1.7919e-08
5.09989e-07
-1.64339e-08
5.11567e-07
-1.50364e-08
5.13008e-07
-1.3722e-08
5.14319e-07
-1.24865e-08
5.15507e-07
-1.13255e-08
5.16581e-07
-1.02352e-08
5.17545e-07
-9.21157e-09
5.18408e-07
-8.25097e-09
5.19174e-07
-7.34987e-09
5.1985e-07
-6.50488e-09
5.20441e-07
-5.71277e-09
-4.97047e-09
2.42011e-07
-1.60667e-07
2.56353e-07
-1.57644e-07
2.70286e-07
-1.54249e-07
2.838e-07
-1.50523e-07
2.96886e-07
-1.46508e-07
3.09536e-07
-1.42243e-07
3.21744e-07
-1.37768e-07
3.33506e-07
-1.33121e-07
3.4482e-07
-1.28337e-07
3.55685e-07
-1.23453e-07
3.66101e-07
-1.18502e-07
3.76071e-07
-1.13515e-07
3.85597e-07
-1.08521e-07
3.94685e-07
-1.03548e-07
4.03341e-07
-9.86203e-08
4.11573e-07
-9.37596e-08
4.1939e-07
-8.89859e-08
4.26801e-07
-8.43162e-08
4.33818e-07
-7.97651e-08
4.40452e-07
-7.53448e-08
4.46715e-07
-7.10651e-08
4.52621e-07
-6.69336e-08
4.58182e-07
-6.29559e-08
4.63412e-07
-5.91358e-08
4.68325e-07
-5.54752e-08
4.72933e-07
-5.19749e-08
4.77251e-07
-4.86339e-08
4.81291e-07
-4.54507e-08
4.85067e-07
-4.24223e-08
4.88592e-07
-3.95454e-08
4.91877e-07
-3.68159e-08
4.94936e-07
-3.42291e-08
4.97779e-07
-3.17802e-08
5.00417e-07
-2.9464e-08
5.02862e-07
-2.72753e-08
5.05123e-07
-2.52087e-08
5.07211e-07
-2.32587e-08
5.09134e-07
-2.142e-08
5.10902e-07
-1.96873e-08
5.12524e-07
-1.80555e-08
5.14007e-07
-1.65194e-08
5.15359e-07
-1.50743e-08
5.16588e-07
-1.37153e-08
5.17701e-07
-1.2438e-08
5.18704e-07
-1.12379e-08
5.19603e-07
-1.01109e-08
5.20405e-07
-9.05293e-09
5.21115e-07
-8.06011e-09
5.21739e-07
-7.12879e-09
5.22282e-07
-6.25545e-09
-5.43677e-09
2.62533e-07
-1.74621e-07
2.76073e-07
-1.71185e-07
2.89197e-07
-1.67372e-07
3.01899e-07
-1.63225e-07
3.14176e-07
-1.58785e-07
3.26027e-07
-1.54094e-07
3.3745e-07
-1.49191e-07
3.48445e-07
-1.44115e-07
3.59011e-07
-1.38904e-07
3.69152e-07
-1.33594e-07
3.78868e-07
-1.28218e-07
3.88163e-07
-1.2281e-07
3.97042e-07
-1.174e-07
4.0551e-07
-1.12017e-07
4.13574e-07
-1.06684e-07
4.21242e-07
-1.01427e-07
4.28522e-07
-9.62658e-08
4.35423e-07
-9.12178e-08
4.41957e-07
-8.62987e-08
4.48133e-07
-8.15214e-08
4.53965e-07
-7.68962e-08
4.59462e-07
-7.24313e-08
4.64639e-07
-6.81325e-08
4.69507e-07
-6.40037e-08
4.74079e-07
-6.00472e-08
4.78367e-07
-5.62635e-08
4.82385e-07
-5.26518e-08
4.86145e-07
-4.92101e-08
4.89658e-07
-4.59354e-08
4.92936e-07
-4.2824e-08
4.95992e-07
-3.98714e-08
4.98835e-07
-3.70727e-08
5.01478e-07
-3.44227e-08
5.03929e-07
-3.19157e-08
5.062e-07
-2.9546e-08
5.08299e-07
-2.73079e-08
5.10236e-07
-2.51956e-08
5.1202e-07
-2.32032e-08
5.13657e-07
-2.13252e-08
5.15158e-07
-1.95559e-08
5.16528e-07
-1.78899e-08
5.17776e-07
-1.63221e-08
5.18908e-07
-1.48472e-08
5.1993e-07
-1.34604e-08
5.2085e-07
-1.21571e-08
5.21671e-07
-1.09326e-08
5.22401e-07
-9.78279e-09
5.23044e-07
-8.70341e-09
5.23606e-07
-7.69053e-09
5.24091e-07
-6.7404e-09
-5.8494e-09
2.86163e-07
-1.87558e-07
2.98685e-07
-1.83707e-07
3.10794e-07
-1.79481e-07
3.22493e-07
-1.74924e-07
3.33785e-07
-1.70077e-07
3.44672e-07
-1.64981e-07
3.55157e-07
-1.59676e-07
3.65241e-07
-1.542e-07
3.74929e-07
-1.48591e-07
3.84222e-07
-1.42887e-07
3.93124e-07
-1.3712e-07
4.0164e-07
-1.31326e-07
4.09773e-07
-1.25534e-07
4.17531e-07
-1.19774e-07
4.24919e-07
-1.14072e-07
4.31943e-07
-1.08452e-07
4.38613e-07
-1.02936e-07
4.44937e-07
-9.75416e-08
4.50924e-07
-9.22857e-08
4.56584e-07
-8.71815e-08
4.61928e-07
-8.22399e-08
4.66966e-07
-7.74694e-08
4.7171e-07
-7.28763e-08
4.76171e-07
-6.84645e-08
4.8036e-07
-6.42365e-08
4.84289e-07
-6.01928e-08
4.8797e-07
-5.63325e-08
4.91413e-07
-5.26534e-08
4.9463e-07
-4.91524e-08
4.97632e-07
-4.58254e-08
5.00428e-07
-4.26678e-08
5.0303e-07
-3.96742e-08
5.05446e-07
-3.6839e-08
5.07686e-07
-3.41562e-08
5.0976e-07
-3.16198e-08
5.11676e-07
-2.92237e-08
5.13442e-07
-2.69615e-08
5.15066e-07
-2.48273e-08
5.16556e-07
-2.28149e-08
5.17918e-07
-2.09184e-08
5.1916e-07
-1.91321e-08
5.20289e-07
-1.74505e-08
5.2131e-07
-1.58681e-08
5.22229e-07
-1.43797e-08
5.23052e-07
-1.29803e-08
5.23785e-07
-1.16653e-08
5.24432e-07
-1.04298e-08
5.24998e-07
-9.26973e-09
5.25488e-07
-8.18072e-09
5.25907e-07
-7.1588e-09
-6.20016e-09
3.12845e-07
-1.99228e-07
3.24115e-07
-1.94976e-07
3.34995e-07
-1.90361e-07
3.45493e-07
-1.85422e-07
3.55616e-07
-1.80201e-07
3.65371e-07
-1.74736e-07
3.74762e-07
-1.69067e-07
3.83794e-07
-1.63232e-07
3.92471e-07
-1.57268e-07
4.00796e-07
-1.51212e-07
4.08774e-07
-1.45098e-07
4.16408e-07
-1.3896e-07
4.23703e-07
-1.32829e-07
4.30663e-07
-1.26734e-07
4.37294e-07
-1.20703e-07
4.43602e-07
-1.1476e-07
4.49594e-07
-1.08928e-07
4.55277e-07
-1.03225e-07
4.60659e-07
-9.76677e-08
4.65749e-07
-9.2271e-08
4.70555e-07
-8.70459e-08
4.75087e-07
-8.20013e-08
4.79354e-07
-7.71437e-08
4.83367e-07
-7.24776e-08
4.87136e-07
-6.80052e-08
4.9067e-07
-6.37272e-08
4.93981e-07
-5.96428e-08
4.97077e-07
-5.57495e-08
4.99968e-07
-5.20441e-08
5.02665e-07
-4.85224e-08
5.05177e-07
-4.51793e-08
5.07512e-07
-4.20092e-08
5.09679e-07
-3.90062e-08
5.11687e-07
-3.61642e-08
5.13544e-07
-3.34765e-08
5.15257e-07
-3.09368e-08
5.16834e-07
-2.85385e-08
5.18282e-07
-2.62751e-08
5.19607e-07
-2.41404e-08
5.20817e-07
-2.2128e-08
5.21917e-07
-2.02319e-08
5.22912e-07
-1.84463e-08
5.2381e-07
-1.67655e-08
5.24614e-07
-1.51841e-08
5.25331e-07
-1.36967e-08
5.25964e-07
-1.22984e-08
5.26518e-07
-1.09844e-08
5.26999e-07
-9.74996e-09
5.27409e-07
-8.5908e-09
5.27753e-07
-7.50265e-09
-6.48153e-09
3.42379e-07
-2.09373e-07
3.52163e-07
-2.0476e-07
3.616e-07
-1.99798e-07
3.70702e-07
-1.94525e-07
3.7948e-07
-1.88978e-07
3.8794e-07
-1.83197e-07
3.9609e-07
-1.77217e-07
4.03935e-07
-1.71076e-07
4.11478e-07
-1.64811e-07
4.18723e-07
-1.58457e-07
4.25673e-07
-1.52048e-07
4.32331e-07
-1.45618e-07
4.38701e-07
-1.39198e-07
4.44785e-07
-1.32818e-07
4.50587e-07
-1.26506e-07
4.56112e-07
-1.20286e-07
4.61365e-07
-1.14181e-07
4.66351e-07
-1.08211e-07
4.71076e-07
-1.02393e-07
4.75547e-07
-9.67419e-08
4.79771e-07
-9.12699e-08
4.83756e-07
-8.59859e-08
4.87509e-07
-8.08969e-08
4.91039e-07
-7.60076e-08
4.94354e-07
-7.13204e-08
4.97463e-07
-6.68362e-08
5.00374e-07
-6.25541e-08
5.03097e-07
-5.84716e-08
5.05638e-07
-5.45855e-08
5.08007e-07
-5.08913e-08
5.10211e-07
-4.73837e-08
5.12259e-07
-4.4057e-08
5.14158e-07
-4.0905e-08
5.15915e-07
-3.79211e-08
5.17537e-07
-3.50987e-08
5.19031e-07
-3.24309e-08
5.20403e-07
-2.9911e-08
5.21661e-07
-2.75322e-08
5.22808e-07
-2.5288e-08
5.23852e-07
-2.31717e-08
5.24797e-07
-2.11771e-08
5.25649e-07
-1.9298e-08
5.26412e-07
-1.75287e-08
5.27091e-07
-1.58634e-08
5.27691e-07
-1.42965e-08
5.28215e-07
-1.2823e-08
5.28669e-07
-1.14378e-08
5.29055e-07
-1.0136e-08
5.29377e-07
-8.91318e-09
5.2964e-07
-7.76483e-09
5.29845e-07
-6.68682e-09
-5.67515e-09
3.74413e-07
-2.17754e-07
3.82494e-07
-2.12841e-07
3.90292e-07
-2.07596e-07
3.97822e-07
-2.02054e-07
4.05093e-07
-1.9625e-07
4.12115e-07
-1.90218e-07
4.18892e-07
-1.83995e-07
4.2543e-07
-1.77614e-07
4.31731e-07
-1.71112e-07
4.37798e-07
-1.64523e-07
4.43631e-07
-1.57881e-07
4.49232e-07
-1.51219e-07
4.54602e-07
-1.44568e-07
4.59742e-07
-1.37958e-07
4.64654e-07
-1.31417e-07
4.69339e-07
-1.24971e-07
4.738e-07
-1.18642e-07
4.78042e-07
-1.12452e-07
4.82066e-07
-1.06417e-07
4.85878e-07
-1.00554e-07
4.89483e-07
-9.48748e-08
4.92886e-07
-8.9389e-08
4.96093e-07
-8.41041e-08
4.99111e-07
-7.90252e-08
5.01946e-07
-7.4155e-08
5.04604e-07
-6.94945e-08
5.07093e-07
-6.50428e-08
5.09419e-07
-6.07978e-08
5.11589e-07
-5.6756e-08
5.13611e-07
-5.29128e-08
5.1549e-07
-4.92629e-08
5.17234e-07
-4.58005e-08
5.18848e-07
-4.25191e-08
5.20339e-07
-3.94119e-08
5.21712e-07
-3.64721e-08
5.22974e-07
-3.36926e-08
5.24129e-07
-3.10664e-08
5.25183e-07
-2.85866e-08
5.26142e-07
-2.62462e-08
5.27009e-07
-2.40387e-08
5.27789e-07
-2.19574e-08
5.28487e-07
-1.9996e-08
5.29107e-07
-1.81485e-08
5.29652e-07
-1.64089e-08
5.30128e-07
-1.47717e-08
5.30536e-07
-1.32315e-08
5.30881e-07
-1.17829e-08
5.31166e-07
-1.04212e-08
5.31395e-07
-9.14148e-09
5.31569e-07
-7.9393e-09
5.31693e-07
-6.81033e-09
-5.75045e-09
4.32376e-07
-2.24382e-07
4.38776e-07
-2.19241e-07
4.44966e-07
-2.13786e-07
4.5096e-07
-2.08048e-07
4.56767e-07
-2.02057e-07
4.62395e-07
-1.95846e-07
4.67847e-07
-1.89447e-07
4.73126e-07
-1.82893e-07
4.78232e-07
-1.76219e-07
4.83166e-07
-1.69457e-07
4.87925e-07
-1.62641e-07
4.92509e-07
-1.55803e-07
4.96914e-07
-1.48974e-07
5.01141e-07
-1.42185e-07
5.05187e-07
-1.35464e-07
5.09052e-07
-1.28836e-07
5.12736e-07
-1.22326e-07
5.16239e-07
-1.15955e-07
5.19562e-07
-1.09741e-07
5.22708e-07
-1.037e-07
5.2568e-07
-9.7846e-08
5.2848e-07
-9.21888e-08
5.31112e-07
-8.67363e-08
5.3358e-07
-8.1494e-08
5.35891e-07
-7.64652e-08
5.38047e-07
-7.16512e-08
5.40056e-07
-6.70512e-08
5.41921e-07
-6.26633e-08
5.43649e-07
-5.8484e-08
5.45245e-07
-5.45089e-08
5.46715e-07
-5.07327e-08
5.48064e-07
-4.71492e-08
5.49297e-07
-4.3752e-08
5.50419e-07
-4.05342e-08
5.51436e-07
-3.74887e-08
5.52351e-07
-3.46084e-08
5.53171e-07
-3.18861e-08
5.53899e-07
-2.93145e-08
5.54539e-07
-2.68868e-08
5.55097e-07
-2.45959e-08
5.55574e-07
-2.24352e-08
5.55977e-07
-2.03982e-08
5.56307e-07
-1.84787e-08
5.56569e-07
-1.66706e-08
5.56765e-07
-1.49682e-08
5.56899e-07
-1.33658e-08
5.56975e-07
-1.18583e-08
5.56994e-07
-1.04404e-08
5.5696e-07
-9.10728e-09
5.56875e-07
-7.85437e-09
5.56742e-07
-6.6772e-09
-5.57155e-09
4.26843e-07
-2.28484e-07
4.30843e-07
-2.23241e-07
4.34754e-07
-2.17697e-07
4.38585e-07
-2.11878e-07
4.42341e-07
-2.05813e-07
4.46025e-07
-1.9953e-07
4.49638e-07
-1.9306e-07
4.53179e-07
-1.86434e-07
4.56645e-07
-1.79685e-07
4.60032e-07
-1.72844e-07
4.63336e-07
-1.65945e-07
4.66553e-07
-1.59019e-07
4.69677e-07
-1.52098e-07
4.72705e-07
-1.45213e-07
4.75631e-07
-1.3839e-07
4.78453e-07
-1.31658e-07
4.81167e-07
-1.2504e-07
4.83771e-07
-1.18558e-07
4.86263e-07
-1.12233e-07
4.88642e-07
-1.06079e-07
4.90909e-07
-1.00112e-07
4.93062e-07
-9.43425e-08
4.95105e-07
-8.87785e-08
4.97037e-07
-8.34264e-08
4.98862e-07
-7.82898e-08
5.00581e-07
-7.33704e-08
5.02197e-07
-6.86678e-08
5.03714e-07
-6.41804e-08
5.05135e-07
-5.99048e-08
5.06463e-07
-5.58367e-08
5.07701e-07
-5.19708e-08
5.08853e-07
-4.83011e-08
5.09922e-07
-4.48212e-08
5.10912e-07
-4.1524e-08
5.11826e-07
-3.84025e-08
5.12667e-07
-3.54494e-08
5.13438e-07
-3.26574e-08
5.14143e-07
-3.00192e-08
5.14784e-07
-2.75278e-08
5.15364e-07
-2.51761e-08
5.15886e-07
-2.29573e-08
5.16353e-07
-2.08649e-08
5.16767e-07
-1.88925e-08
5.1713e-07
-1.7034e-08
5.17446e-07
-1.52835e-08
5.17715e-07
-1.36354e-08
5.17941e-07
-1.20842e-08
5.18125e-07
-1.06247e-08
5.1827e-07
-9.25209e-09
5.18377e-07
-7.96159e-09
5.18449e-07
-6.74869e-09
-5.60909e-09
4.16832e-07
-2.30637e-07
4.18983e-07
-2.25393e-07
4.21141e-07
-2.19855e-07
4.23309e-07
-2.14047e-07
4.2549e-07
-2.07993e-07
4.27682e-07
-2.01722e-07
4.29883e-07
-1.95261e-07
4.32088e-07
-1.8864e-07
4.34294e-07
-1.8189e-07
4.36492e-07
-1.75043e-07
4.38678e-07
-1.6813e-07
4.40843e-07
-1.61185e-07
4.42982e-07
-1.54237e-07
4.45088e-07
-1.47318e-07
4.47153e-07
-1.40456e-07
4.49173e-07
-1.33678e-07
4.51142e-07
-1.27009e-07
4.53056e-07
-1.20473e-07
4.54912e-07
-1.14088e-07
4.56705e-07
-1.07873e-07
4.58434e-07
-1.01841e-07
4.60096e-07
-9.60053e-08
4.61692e-07
-9.03742e-08
4.6322e-07
-8.49545e-08
4.64681e-07
-7.97504e-08
4.66074e-07
-7.4764e-08
4.67402e-07
-6.99953e-08
4.68664e-07
-6.54429e-08
4.69863e-07
-6.11038e-08
4.71e-07
-5.69738e-08
4.72077e-07
-5.30478e-08
4.73096e-07
-4.932e-08
4.74059e-07
-4.57838e-08
4.74967e-07
-4.24324e-08
4.75823e-07
-3.92586e-08
4.76629e-07
-3.62553e-08
4.77387e-07
-3.34151e-08
4.78098e-07
-3.07306e-08
4.78765e-07
-2.81948e-08
4.7939e-07
-2.58005e-08
4.79973e-07
-2.35411e-08
4.80518e-07
-2.14097e-08
4.81026e-07
-1.94e-08
4.81498e-07
-1.75059e-08
4.81936e-07
-1.57214e-08
4.82341e-07
-1.40408e-08
4.82716e-07
-1.24587e-08
4.83061e-07
-1.09698e-08
4.83378e-07
-9.56909e-09
4.83668e-07
-8.25189e-09
4.83933e-07
-7.01363e-09
4.84174e-07
-5.84996e-09
-4.75675e-09
4.03257e-07
-2.31352e-07
4.04045e-07
-2.26181e-07
4.04909e-07
-2.20719e-07
4.0585e-07
-2.14988e-07
4.06866e-07
-2.0901e-07
4.07954e-07
-2.0281e-07
4.09108e-07
-1.96415e-07
4.10322e-07
-1.89854e-07
4.1159e-07
-1.83158e-07
4.12904e-07
-1.76356e-07
4.14255e-07
-1.69482e-07
4.15636e-07
-1.62566e-07
4.17038e-07
-1.55639e-07
4.18454e-07
-1.48733e-07
4.19875e-07
-1.41877e-07
4.21295e-07
-1.35098e-07
4.22708e-07
-1.28422e-07
4.24107e-07
-1.21872e-07
4.25488e-07
-1.15468e-07
4.26845e-07
-1.0923e-07
4.28175e-07
-1.03171e-07
4.29475e-07
-9.73054e-08
4.30743e-07
-9.16417e-08
4.31976e-07
-8.61874e-08
4.33173e-07
-8.09473e-08
4.34333e-07
-7.59239e-08
4.35455e-07
-7.11177e-08
4.3654e-07
-6.65276e-08
4.37587e-07
-6.21508e-08
4.38597e-07
-5.79836e-08
4.3957e-07
-5.4021e-08
4.40507e-07
-5.02572e-08
4.41409e-07
-4.66858e-08
4.42277e-07
-4.33003e-08
4.43112e-07
-4.00934e-08
4.43914e-07
-3.70579e-08
4.44686e-07
-3.41866e-08
4.45427e-07
-3.14721e-08
4.4614e-07
-2.89074e-08
4.46825e-07
-2.64854e-08
4.47483e-07
-2.41992e-08
4.48115e-07
-2.20422e-08
4.48723e-07
-2.0008e-08
4.49308e-07
-1.80904e-08
4.4987e-07
-1.62834e-08
4.5041e-07
-1.45813e-08
4.5093e-07
-1.29786e-08
4.51431e-07
-1.14702e-08
4.51912e-07
-1.00509e-08
4.52377e-07
-8.71603e-09
4.52824e-07
-7.461e-09
4.53255e-07
-6.28146e-09
4.53672e-07
-5.17324e-09
-4.13236e-09
3.87101e-07
-2.31057e-07
3.86929e-07
-2.2601e-07
3.86882e-07
-2.20671e-07
3.86955e-07
-2.15061e-07
3.87145e-07
-2.092e-07
3.87446e-07
-2.03111e-07
3.87854e-07
-1.96822e-07
3.88359e-07
-1.90359e-07
3.88953e-07
-1.83753e-07
3.8963e-07
-1.77033e-07
3.90379e-07
-1.70231e-07
3.91192e-07
-1.63379e-07
3.9206e-07
-1.56508e-07
3.92975e-07
-1.49648e-07
3.93929e-07
-1.42831e-07
3.94914e-07
-1.36083e-07
3.95922e-07
-1.2943e-07
3.96948e-07
-1.22897e-07
3.97985e-07
-1.16505e-07
3.99028e-07
-1.10273e-07
4.00072e-07
-1.04215e-07
4.01113e-07
-9.83466e-08
4.02148e-07
-9.26765e-08
4.03173e-07
-8.72128e-08
4.04187e-07
-8.19609e-08
4.05186e-07
-7.69237e-08
4.06171e-07
-7.21022e-08
4.07139e-07
-6.74956e-08
4.0809e-07
-6.31015e-08
4.09022e-07
-5.89163e-08
4.09937e-07
-5.49354e-08
4.10833e-07
-5.11531e-08
4.1171e-07
-4.75634e-08
4.12569e-07
-4.41595e-08
4.13411e-07
-4.09345e-08
4.14234e-07
-3.78813e-08
4.1504e-07
-3.49926e-08
4.15829e-07
-3.22613e-08
4.16602e-07
-2.96801e-08
4.17358e-07
-2.72421e-08
4.181e-07
-2.49406e-08
4.18826e-07
-2.27687e-08
4.19538e-07
-2.07202e-08
4.20237e-07
-1.87889e-08
4.20922e-07
-1.69687e-08
4.21595e-07
-1.5254e-08
4.22256e-07
-1.36394e-08
4.22905e-07
-1.21195e-08
4.23544e-07
-1.06894e-08
4.24172e-07
-9.34435e-09
4.24791e-07
-8.07968e-09
4.254e-07
-6.89107e-09
4.26001e-07
-5.77434e-09
-4.72552e-09
3.69279e-07
-2.30094e-07
3.6847e-07
-2.25201e-07
3.67813e-07
-2.20014e-07
3.67303e-07
-2.14551e-07
3.66936e-07
-2.08832e-07
3.66704e-07
-2.0288e-07
3.66602e-07
-1.96719e-07
3.6662e-07
-1.90378e-07
3.66752e-07
-1.83884e-07
3.66987e-07
-1.77268e-07
3.67318e-07
-1.70562e-07
3.67736e-07
-1.63796e-07
3.68231e-07
-1.57003e-07
3.68796e-07
-1.50213e-07
3.69422e-07
-1.43457e-07
3.70102e-07
-1.36762e-07
3.70827e-07
-1.30156e-07
3.71592e-07
-1.23662e-07
3.7239e-07
-1.17303e-07
3.73214e-07
-1.11097e-07
3.74061e-07
-1.05062e-07
3.74925e-07
-9.92106e-08
3.75802e-07
-9.35537e-08
3.76689e-07
-8.80997e-08
3.77583e-07
-8.28543e-08
3.7848e-07
-7.7821e-08
3.79379e-07
-7.30012e-08
3.80278e-07
-6.83944e-08
3.81175e-07
-6.39986e-08
3.82069e-07
-5.98105e-08
3.82959e-07
-5.58256e-08
3.83845e-07
-5.20386e-08
3.84725e-07
-4.84435e-08
3.85599e-07
-4.50338e-08
3.86467e-07
-4.18027e-08
3.87329e-07
-3.87431e-08
3.88185e-07
-3.5848e-08
3.89034e-07
-3.31101e-08
3.89876e-07
-3.05224e-08
3.90712e-07
-2.8078e-08
3.91541e-07
-2.57701e-08
3.92365e-07
-2.35921e-08
3.93182e-07
-2.15376e-08
3.93994e-07
-1.96005e-08
3.948e-07
-1.77748e-08
3.95601e-07
-1.60548e-08
3.96396e-07
-1.44352e-08
3.97187e-07
-1.29106e-08
3.97974e-07
-1.14761e-08
3.98757e-07
-1.01269e-08
3.99535e-07
-8.85843e-09
4.00311e-07
-7.66638e-09
4.01083e-07
-6.54657e-09
-5.495e-09
3.50573e-07
-2.28724e-07
3.49373e-07
-2.24001e-07
3.48339e-07
-2.1898e-07
3.47465e-07
-2.13678e-07
3.46747e-07
-2.08114e-07
3.46177e-07
-2.0231e-07
3.45748e-07
-1.9629e-07
3.45452e-07
-1.90082e-07
3.45282e-07
-1.83714e-07
3.45229e-07
-1.77215e-07
3.45284e-07
-1.70618e-07
3.4544e-07
-1.63952e-07
3.45688e-07
-1.57251e-07
3.4602e-07
-1.50545e-07
3.46427e-07
-1.43864e-07
3.46903e-07
-1.37238e-07
3.4744e-07
-1.30693e-07
3.48031e-07
-1.24253e-07
3.48671e-07
-1.17942e-07
3.49352e-07
-1.11779e-07
3.5007e-07
-1.0578e-07
3.50821e-07
-9.99608e-08
3.51599e-07
-9.43316e-08
3.524e-07
-8.89013e-08
3.53222e-07
-8.36762e-08
3.54061e-07
-7.86601e-08
3.54915e-07
-7.38549e-08
3.55781e-07
-6.92604e-08
3.56657e-07
-6.48749e-08
3.57542e-07
-6.06953e-08
3.58434e-07
-5.67175e-08
3.59332e-07
-5.29364e-08
3.60234e-07
-4.93462e-08
3.61141e-07
-4.59404e-08
3.62051e-07
-4.27126e-08
3.62963e-07
-3.96556e-08
3.63878e-07
-3.67626e-08
3.64794e-07
-3.40265e-08
3.65712e-07
-3.14402e-08
3.66631e-07
-2.89969e-08
3.67551e-07
-2.669e-08
3.68471e-07
-2.45128e-08
3.69393e-07
-2.2459e-08
3.70315e-07
-2.05225e-08
3.71237e-07
-1.86974e-08
3.72161e-07
-1.69781e-08
3.73085e-07
-1.53591e-08
3.74009e-07
-1.38353e-08
3.74935e-07
-1.24016e-08
3.75861e-07
-1.10533e-08
3.76789e-07
-9.786e-09
3.77718e-07
-8.5952e-09
3.78648e-07
-7.47679e-09
-6.4268e-09
3.31609e-07
-2.27144e-07
3.30202e-07
-2.22594e-07
3.28964e-07
-2.17742e-07
3.2789e-07
-2.12604e-07
3.26975e-07
-2.07198e-07
3.26212e-07
-2.01547e-07
3.25594e-07
-1.95673e-07
3.25114e-07
-1.89602e-07
3.24765e-07
-1.83365e-07
3.24538e-07
-1.76989e-07
3.24427e-07
-1.70506e-07
3.24423e-07
-1.63948e-07
3.24519e-07
-1.57347e-07
3.24706e-07
-1.50733e-07
3.24979e-07
-1.44137e-07
3.25329e-07
-1.37588e-07
3.25749e-07
-1.31113e-07
3.26234e-07
-1.24738e-07
3.26777e-07
-1.18485e-07
3.27373e-07
-1.12374e-07
3.28015e-07
-1.06423e-07
3.287e-07
-1.00646e-07
3.29423e-07
-9.50546e-08
3.3018e-07
-8.96582e-08
3.30968e-07
-8.44634e-08
3.31782e-07
-7.94744e-08
3.3262e-07
-7.46933e-08
3.3348e-07
-7.01204e-08
3.3436e-07
-6.57542e-08
3.35256e-07
-6.1592e-08
3.36169e-07
-5.76299e-08
3.37095e-07
-5.38628e-08
3.38034e-07
-5.02853e-08
3.38985e-07
-4.68912e-08
3.39946e-07
-4.36739e-08
3.40917e-07
-4.06266e-08
3.41897e-07
-3.77425e-08
3.42885e-07
-3.50146e-08
3.43881e-07
-3.2436e-08
3.44884e-07
-3e-08
3.45894e-07
-2.76998e-08
3.4691e-07
-2.5529e-08
3.47933e-07
-2.34813e-08
3.48961e-07
-2.15506e-08
3.49994e-07
-1.97312e-08
3.51034e-07
-1.80173e-08
3.52078e-07
-1.64037e-08
3.53128e-07
-1.48851e-08
3.54183e-07
-1.34566e-08
3.55243e-07
-1.21135e-08
3.56308e-07
-1.08513e-08
3.57379e-07
-9.66559e-09
3.58454e-07
-8.55234e-09
-7.50756e-09
3.12864e-07
-2.25491e-07
3.11382e-07
-2.21111e-07
3.10066e-07
-2.16426e-07
3.08911e-07
-2.11449e-07
3.07912e-07
-2.06199e-07
3.07063e-07
-2.00698e-07
3.06358e-07
-1.94967e-07
3.0579e-07
-1.89034e-07
3.05352e-07
-1.82927e-07
3.05038e-07
-1.76675e-07
3.0484e-07
-1.70309e-07
3.04752e-07
-1.6386e-07
3.04767e-07
-1.57362e-07
3.04878e-07
-1.50843e-07
3.05078e-07