/*--------------------------------*- C++ -*----------------------------------*\
  =========                 |
  \\      /  F ield         | OpenFOAM: The Open Source CFD Toolbox
   \\    /   O peration     | Website:  https://openfoam.org
    \\  /    A nd           | Version:  6
     \\/     M anipulation  |
\*---------------------------------------------------------------------------*/
FoamFile
{
    version     2.0;
    format      ascii;
    class       volVectorField;
    location    "0.04";
    object      U;
}
// * * * * * * * * * * * * * * * * * * * * * * * * * * * * * * * * * * * * * //

dimensions      [0 1 -1 0 0 0 0];

internalField   nonuniform List<vector> 
3032
(
(0.13574 -0.0154532 0)
(0.150628 -0.0149618 -5.03899e-21)
(0.165232 -0.0144426 -5.05613e-21)
(0.179507 -0.0139016 -5.06452e-21)
(0.19342 -0.0133443 0)
(0.206937 -0.0127761 5.05873e-21)
(0.220033 -0.012202 0)
(0.232688 -0.0116264 -5.0285e-21)
(0.244883 -0.0110533 -5.00613e-21)
(0.256609 -0.0104865 0)
(0.267856 -0.00992899 0)
(0.27862 -0.00938359 0)
(0.288902 -0.00885261 -4.88296e-21)
(0.298703 -0.00833795 0)
(0.30803 -0.00784114 0)
(0.316889 -0.00736337 0)
(0.325291 -0.00690549 0)
(0.333248 -0.00646808 0)
(0.340772 -0.00605144 0)
(0.347878 -0.00565566 0)
(0.354582 -0.00528062 0)
(0.360898 -0.00492604 4.52448e-21)
(0.366843 -0.0045915 0)
(0.372433 -0.00427648 0)
(0.377685 -0.00398034 -4.40429e-21)
(0.382616 -0.0037024 -4.36528e-21)
(0.387241 -0.00344191 0)
(0.391576 -0.0031981 4.2892e-21)
(0.395638 -0.00297017 -4.25221e-21)
(0.39944 -0.00275731 0)
(0.402998 -0.00255873 4.18046e-21)
(0.406325 -0.00237363 0)
(0.409435 -0.00220122 0)
(0.412341 -0.00204076 -4.07855e-21)
(0.415055 -0.00189151 0)
(0.417588 -0.00175276 4.01441e-21)
(0.419953 -0.00162386 0)
(0.422158 -0.00150415 -3.95322e-21)
(0.424215 -0.00139302 -3.92368e-21)
(0.426133 -0.00128992 -3.89484e-21)
(0.427921 -0.00119428 -7.73332e-21)
(0.429586 -0.00110561 7.67825e-21)
(0.431137 -0.00102341 0)
(0.432581 -0.000947228 0)
(0.433926 -0.000876638 0)
(0.435178 -0.000811235 7.46983e-21)
(0.436342 -0.000750655 7.42046e-21)
(0.437425 -0.000694571 -7.3721e-21)
(0.438433 -0.000642705 0)
(0.14335 -0.0344028 5.10518e-21)
(0.158459 -0.033517 -2.50063e-21)
(0.173318 -0.0325458 2.77184e-21)
(0.187886 -0.0315029 8.24302e-21)
(0.202125 -0.0304017 -5.51398e-21)
(0.216 -0.0292548 -2.8889e-21)
(0.229484 -0.0280743 0)
(0.242552 -0.0268715 2.94371e-21)
(0.255186 -0.0256567 -2.80533e-21)
(0.26737 -0.0244395 0)
(0.279093 -0.0232284 0)
(0.290348 -0.0220311 0)
(0.30113 -0.0208541 3.01549e-21)
(0.311441 -0.0197033 0)
(0.321281 -0.0185835 -5.93641e-21)
(0.330656 -0.0174985 0)
(0.339573 -0.0164516 -5.94916e-21)
(0.348042 -0.0154452 0)
(0.356072 -0.0144809 5.94644e-21)
(0.363677 -0.01356 0)
(0.37087 -0.012683 -5.93125e-21)
(0.377664 -0.0118501 2.9256e-21)
(0.384076 -0.0110608 0)
(0.39012 -0.0103147 5.8907e-21)
(0.395812 -0.00961078 2.96435e-21)
(0.401167 -0.00894787 2.95309e-21)
(0.406202 -0.00832466 0)
(0.410931 -0.00773969 2.88509e-21)
(0.41537 -0.00719139 2.91676e-21)
(0.419535 -0.00667811 0)
(0.423439 -0.0061982 -2.89116e-21)
(0.427096 -0.00574995 5.72365e-21)
(0.430521 -0.0053317 0)
(0.433726 -0.00494177 2.85183e-21)
(0.436725 -0.00457856 0)
(0.439528 -0.00424047 -8.45244e-21)
(0.442148 -0.003926 0)
(0.444595 -0.00363366 8.37728e-21)
(0.44688 -0.00336208 2.78628e-21)
(0.449012 -0.0031099 -2.75581e-21)
(0.451002 -0.00287586 -5.48868e-21)
(0.452858 -0.00265876 5.46576e-21)
(0.454589 -0.00245746 0)
(0.456201 -0.00227088 0)
(0.457704 -0.002098 0)
(0.459103 -0.00193788 -1.61682e-20)
(0.460406 -0.00178965 -5.37252e-21)
(0.46162 -0.00165251 5.3486e-21)
(0.462749 -0.00152576 0)
(0.147214 -0.0560349 -6.88771e-21)
(0.16226 -0.0547003 7.08962e-21)
(0.177074 -0.0532211 3.57376e-21)
(0.191615 -0.0516186 -3.79027e-21)
(0.205845 -0.0499136 1.21294e-22)
(0.21973 -0.0481262 -3.82592e-21)
(0.233242 -0.0462755 0)
(0.246357 -0.0443798 -3.96352e-21)
(0.259053 -0.0424557 1.01263e-22)
(0.271315 -0.0405189 0)
(0.28313 -0.0385835 0)
(0.29449 -0.0366623 4.17198e-21)
(0.30539 -0.0347665 0)
(0.315827 -0.0329059 0)
(0.325803 -0.031089 -4.20412e-21)
(0.33532 -0.0293228 -8.60756e-21)
(0.344385 -0.0276131 4.39135e-21)
(0.353006 -0.0259644 0)
(0.361192 -0.0243803 -4.41912e-21)
(0.368954 -0.0228631 0)
(0.376305 -0.0214145 -4.33513e-21)
(0.383258 -0.0200351 -4.43989e-21)
(0.389827 -0.018725 8.79649e-21)
(0.396026 -0.0174835 4.36036e-21)
(0.401871 -0.0163096 0)
(0.407377 -0.0152019 -8.80409e-21)
(0.412558 -0.0141584 0)
(0.41743 -0.013177 -1.322e-20)
(0.422008 -0.0122555 -8.78287e-21)
(0.426307 -0.0113913 -8.77084e-21)
(0.43034 -0.0105819 8.75678e-21)
(0.434123 -0.00982472 -1.31348e-20)
(0.437667 -0.00911714 0)
(0.440987 -0.00845652 0)
(0.444096 -0.0078403 8.68449e-21)
(0.447004 -0.00726596 1.30125e-20)
(0.449723 -0.00673106 0)
(0.452265 -0.00623323 -4.32423e-21)
(0.454641 -0.00577021 0)
(0.456859 -0.00533981 1.28688e-20)
(0.45893 -0.00493998 2.40761e-23)
(0.460862 -0.00456873 -2.23224e-23)
(0.462665 -0.0042242 -8.49511e-21)
(0.464346 -0.00390461 0)
(0.465912 -0.00360831 8.44306e-21)
(0.467372 -0.00333373 1.64574e-23)
(0.468732 -0.00307941 0)
(0.469998 -0.00284401 0)
(0.471177 -0.00262628 0)
(0.151377 -0.0785203 2.72655e-21)
(0.166326 -0.0766923 -2.81455e-21)
(0.181048 -0.0746629 -2.89767e-21)
(0.195502 -0.072461 0)
(0.209651 -0.0701148 3.04931e-21)
(0.223463 -0.0676518 3.11792e-21)
(0.23691 -0.0650981 -6.23021e-21)
(0.249969 -0.0624784 3.24107e-21)
(0.262619 -0.059816 3.29583e-21)
(0.274845 -0.0571322 0)
(0.286634 -0.0544465 0)
(0.297977 -0.0517768 -3.43444e-21)
(0.308868 -0.0491387 0)
(0.319305 -0.0465461 0)
(0.329289 -0.0440108 7.07578e-21)
(0.338822 -0.041543 7.13074e-21)
(0.347909 -0.039151 0)
(0.356558 -0.0368415 0)
(0.364778 -0.0346196 0)
(0.372578 -0.032489 0)
(0.37997 -0.0304522 7.31711e-21)
(0.386968 -0.0285105 -7.27636e-21)
(0.393585 -0.0266642 -7.35718e-21)
(0.399834 -0.0249129 -1.46867e-20)
(0.40573 -0.0232551 0)
(0.411288 -0.0216891 4.91712e-23)
(0.416522 -0.0202125 0)
(0.421448 -0.0188224 7.39456e-21)
(0.426079 -0.0175159 4.05428e-23)
(0.430431 -0.0162896 7.39038e-21)
(0.434517 -0.01514 -7.38517e-21)
(0.438352 -0.0140637 3.32305e-23)
(0.441947 -0.013057 0)
(0.445317 -0.0121164 -7.33042e-21)
(0.448473 -0.0112383 -7.34807e-21)
(0.451428 -0.0104193 -1.46458e-20)
(0.454193 -0.00965598 0)
(0.456779 -0.00894505 7.28553e-21)
(0.459196 -0.00828337 0)
(0.461455 -0.00766792 -1.45335e-20)
(0.463564 -0.00709581 7.25965e-21)
(0.465534 -0.00656429 -7.24246e-21)
(0.467371 -0.00607073 7.22477e-21)
(0.469085 -0.00561268 1.43846e-20)
(0.470683 -0.0051878 -7.18805e-21)
(0.472173 -0.0047939 7.1691e-21)
(0.473561 -0.00442892 0)
(0.474854 -0.00409095 -1.42392e-20)
(0.476057 -0.00377817 0)
(0.156674 -0.10086 4.51411e-21)
(0.171512 -0.0985381 4.6772e-21)
(0.186115 -0.0959611 4.83223e-21)
(0.200444 -0.0931648 0)
(0.214465 -0.0901846 -5.11809e-21)
(0.22815 -0.0870549 0)
(0.241471 -0.0838084 1.08329e-20)
(0.254406 -0.0804761 0)
(0.266938 -0.0770871 -5.59479e-21)
(0.27905 -0.0736683 0)
(0.290731 -0.0702445 5.78773e-21)
(0.301973 -0.066838 0)
(0.312771 -0.063469 0)
(0.323122 -0.0601551 0)
(0.333027 -0.0569117 0)
(0.342489 -0.0537516 0)
(0.351512 -0.0506858 0)
(0.360105 -0.0477231 0)
(0.368274 -0.0448701 6.29692e-21)
(0.37603 -0.0421321 0)
(0.383385 -0.0395123 0)
(0.390351 -0.0370128 6.44454e-21)
(0.396941 -0.0346341 0)
(0.403168 -0.0323759 6.48697e-21)
(0.409047 -0.0302368 6.46422e-21)
(0.414591 -0.0282144 6.51573e-21)
(0.419816 -0.0263061 0)
(0.424735 -0.0245083 0)
(0.429363 -0.0228174 6.53765e-21)
(0.433714 -0.0212291 -1.30228e-20)
(0.437801 -0.0197393 0)
(0.441638 -0.0183434 1.95674e-20)
(0.445239 -0.017037 0)
(0.448615 -0.0158156 6.53201e-21)
(0.451778 -0.0146746 0)
(0.454742 -0.0136098 6.5191e-21)
(0.457516 -0.0126167 1.29848e-20)
(0.460112 -0.0116913 -6.50174e-21)
(0.462539 -0.0108295 0)
(0.464808 -0.0100275 6.48078e-21)
(0.466928 -0.00928158 -1.291e-20)
(0.468908 -0.00858824 0)
(0.470756 -0.00794412 0)
(0.472481 -0.00734606 -1.28611e-20)
(0.474089 -0.00679108 0)
(0.475589 -0.00627636 1.27844e-20)
(0.476987 -0.00579924 0)
(0.478289 -0.00535723 1.27443e-20)
(0.479501 -0.00494799 0)
(0.163533 -0.123 -4.11278e-21)
(0.178232 -0.120166 -4.26183e-21)
(0.192678 -0.117028 -4.40367e-21)
(0.206838 -0.113629 -4.46825e-21)
(0.220681 -0.110011 4.66571e-21)
(0.23418 -0.106213 0)
(0.247312 -0.102277 -4.89924e-21)
(0.260058 -0.0982366 0)
(0.272399 -0.0941281 5.99507e-23)
(0.284324 -0.0899833 0)
(0.295823 -0.0858316 -1.05122e-20)
(0.306888 -0.0816997 0)
(0.317515 -0.0776116 5.38578e-21)
(0.327703 -0.0735887 0)
(0.337453 -0.0696492 0)
(0.346767 -0.0658092 1.11566e-20)
(0.355652 -0.0620816 0)
(0.364113 -0.0584772 0)
(0.37216 -0.0550045 -5.76421e-21)
(0.379803 -0.0516697 0)
(0.387052 -0.048477 0)
(0.39392 -0.0454291 1.16557e-20)
(0.40042 -0.0425269 0)
(0.406564 -0.0397702 -1.17562e-20)
(0.412367 -0.0371572 -5.92866e-21)
(0.417842 -0.0346856 0)
(0.423003 -0.032352 1.18585e-20)
(0.427865 -0.0301524 0)
(0.432441 -0.0280824 -1.18998e-20)
(0.436745 -0.0261371 2.38736e-20)
(0.44079 -0.0243114 0)
(0.444589 -0.0225999 -1.19707e-20)
(0.448155 -0.0209972 0)
(0.451501 -0.0194981 0)
(0.454638 -0.018097 -1.19274e-20)
(0.457577 -0.0167886 0)
(0.46033 -0.015568 -1.19438e-20)
(0.462907 -0.0144299 1.19024e-20)
(0.465318 -0.0133695 0)
(0.467573 -0.0123823 0)
(0.46968 -0.0114637 1.18837e-20)
(0.471649 -0.0106095 -1.18423e-20)
(0.473488 -0.00981558 -1.18236e-20)
(0.475204 -0.00907816 -1.18036e-20)
(0.476805 -0.00839359 0)
(0.478298 -0.00775843 -1.17774e-20)
(0.47969 -0.00716946 -1.17369e-20)
(0.480987 -0.00662362 0)
(0.482196 -0.00611805 0)
(0.172291 -0.144933 0)
(0.186798 -0.141556 3.86031e-21)
(0.201031 -0.137832 -3.99636e-21)
(0.214959 -0.133811 4.17767e-21)
(0.228556 -0.129541 -8.49585e-21)
(0.241799 -0.125068 0)
(0.254669 -0.120437 8.94548e-21)
(0.267148 -0.115689 -9.15083e-21)
(0.279223 -0.110865 -4.62688e-21)
(0.290884 -0.106 0)
(0.302122 -0.101128 4.88849e-21)
(0.312932 -0.0962811 0)
(0.323311 -0.0914853 -5.03702e-21)
(0.333259 -0.0867655 0)
(0.342777 -0.0821431 0)
(0.351871 -0.0776363 -1.04385e-20)
(0.360544 -0.0732605 0)
(0.368804 -0.0690281 1.05653e-20)
(0.376661 -0.0649489 0)
(0.384124 -0.0610303 0)
(0.391204 -0.0572775 0)
(0.397913 -0.0536935 -2.17753e-20)
(0.404263 -0.0502795 -1.09137e-20)
(0.410268 -0.0470353 1.10137e-20)
(0.415941 -0.0439591 1.10032e-20)
(0.421295 -0.0410482 0)
(0.426344 -0.0382987 -1.11147e-20)
(0.431102 -0.035706 0)
(0.435582 -0.0332651 1.11564e-20)
(0.439797 -0.0309703 -3.90862e-23)
(0.44376 -0.0288156 0)
(0.447484 -0.026795 0)
(0.450981 -0.024902 1.11586e-20)
(0.454263 -0.0231306 0)
(0.457342 -0.0214743 1.11906e-20)
(0.460228 -0.019927 0)
(0.462932 -0.0184828 -1.11528e-20)
(0.465465 -0.0171358 -1.11707e-20)
(0.467835 -0.0158803 0)
(0.470052 -0.0147108 0)
(0.472126 -0.0136223 0)
(0.474064 -0.0126096 1.11185e-20)
(0.475874 -0.0116681 1.11019e-20)
(0.477565 -0.0107932 1.10841e-20)
(0.479142 -0.00998075 0)
(0.480614 -0.00922668 0)
(0.481987 -0.0085272 1.10241e-20)
(0.483266 -0.00787871 1.09888e-20)
(0.484458 -0.00727784 0)
(0.485568 -0.00672139 0)
(0.183245 -0.166578 0)
(0.197481 -0.162618 -1.09344e-20)
(0.211416 -0.158278 1.13231e-20)
(0.225026 -0.153611 0)
(0.23829 -0.148673 7.72721e-23)
(0.251189 -0.143514 0)
(0.263708 -0.138184 -8.50398e-21)
(0.275833 -0.132728 8.69822e-21)
(0.287554 -0.127191 8.88065e-21)
(0.298864 -0.121613 0)
(0.309757 -0.116031 0)
(0.320228 -0.11048 0)
(0.330278 -0.104991 -9.43622e-21)
(0.339908 -0.099589 0)
(0.349119 -0.0942996 9.6856e-21)
(0.357916 -0.0891427 0)
(0.366306 -0.0841354 0)
(0.374297 -0.0792919 -1.00428e-20)
(0.381897 -0.0746232 0)
(0.389116 -0.0701375 0)
(0.395965 -0.0658407 0)
(0.402456 -0.0617363 2.06033e-20)
(0.408602 -0.0578257 1.03778e-20)
(0.414414 -0.0541087 0)
(0.419905 -0.0505832 -4.18168e-23)
(0.42509 -0.0472463 0)
(0.429981 -0.0440934 1.04903e-20)
(0.434591 -0.0411196 -1.05167e-20)
(0.438933 -0.0383189 1.05387e-20)
(0.44302 -0.0356851 -1.05902e-20)
(0.446864 -0.0332112 0)
(0.450478 -0.0308905 1.05812e-20)
(0.453873 -0.0287157 -2.91282e-23)
(0.45706 -0.0266798 0)
(0.460051 -0.0247755 0)
(0.462857 -0.0229961 1.05938e-20)
(0.465487 -0.0213344 1.06143e-20)
(0.46795 -0.0197841 1.05855e-20)
(0.470257 -0.0183385 1.05785e-20)
(0.472416 -0.0169916 -1.05697e-20)
(0.474436 -0.0157373 0)
(0.476324 -0.0145701 0)
(0.478089 -0.0134845 0)
(0.479738 -0.0124755 0)
(0.481277 -0.0115381 -2.10082e-20)
(0.482713 -0.0106677 0)
(0.484053 -0.00986011 0)
(0.485302 -0.00911112 -3.13649e-20)
(0.486466 -0.00841689 0)
(0.48755 -0.00777377 2.0822e-20)
(0.196664 -0.187798 -6.66247e-21)
(0.210515 -0.183215 1.39224e-20)
(0.22404 -0.178226 -7.24344e-21)
(0.23722 -0.172892 -7.41632e-21)
(0.250041 -0.16727 1.53432e-20)
(0.262488 -0.161417 0)
(0.274551 -0.155385 0)
(0.28622 -0.149225 0)
(0.297489 -0.142982 0)
(0.308352 -0.136702 -8.58649e-21)
(0.318807 -0.130425 0)
(0.328852 -0.124186 0)
(0.338487 -0.118021 9.07166e-21)
(0.347716 -0.111957 0)
(0.35654 -0.106021 -1.85739e-20)
(0.364967 -0.100235 0)
(0.373003 -0.0946173 9.46822e-21)
(0.380654 -0.089184 0)
(0.387932 -0.0839467 0)
(0.394845 -0.0789147 0)
(0.401404 -0.0740943 0)
(0.40762 -0.0694892 -9.88109e-21)
(0.413506 -0.065101 0)
(0.419074 -0.0609294 -9.94288e-21)
(0.424336 -0.0569721 -3.59134e-23)
(0.429306 -0.0532257 0)
(0.433994 -0.0496854 -1.00864e-20)
(0.438415 -0.0463453 1.01121e-20)
(0.44258 -0.043199 -1.01335e-20)
(0.446502 -0.0402394 0)
(0.450193 -0.0374589 0)
(0.453663 -0.0348497 -2.03227e-20)
(0.456925 -0.032404 -1.01822e-20)
(0.459988 -0.0301137 0)
(0.462865 -0.0279709 0)
(0.465563 -0.0259679 -3.0518e-20)
(0.468094 -0.0240969 0)
(0.470466 -0.0223507 -3.04994e-20)
(0.472688 -0.0207219 -1.01734e-20)
(0.474769 -0.0192038 1.01651e-20)
(0.476716 -0.0177897 2.02757e-20)
(0.478538 -0.0164733 0)
(0.48024 -0.0152485 0)
(0.481832 -0.0141097 0)
(0.483318 -0.0130514 2.77679e-23)
(0.484705 -0.0120685 -2.01474e-20)
(0.485999 -0.0111561 0)
(0.487207 -0.0103097 2.3123e-23)
(0.488332 -0.00952497 0)
(0.489381 -0.00879773 -2.00276e-20)
(0.490357 -0.00812419 -1.99684e-20)
(0.212773 -0.208408 5.79777e-23)
(0.226093 -0.203163 -5.4755e-23)
(0.239065 -0.197499 6.92367e-21)
(0.251678 -0.19148 7.20443e-21)
(0.263923 -0.185167 -1.47932e-20)
(0.275792 -0.178618 0)
(0.287277 -0.171889 0)
(0.298375 -0.165033 0)
(0.309081 -0.1581 -8.1258e-21)
(0.319394 -0.151136 4.2659e-23)
(0.329311 -0.144183 0)
(0.338835 -0.13728 0)
(0.347967 -0.130463 0)
(0.356709 -0.123763 0)
(0.365068 -0.117206 3.93576e-23)
(0.373048 -0.110818 0)
(0.380656 -0.104617 -1.83202e-20)
(0.387901 -0.0986201 0)
(0.394792 -0.0928404 0)
(0.401337 -0.0872875 0)
(0.407548 -0.081968 0)
(0.413436 -0.0768861 0)
(0.419011 -0.0720433 9.55927e-21)
(0.424286 -0.0674391 1.92452e-20)
(0.429273 -0.063071 -9.67954e-21)
(0.433983 -0.0589352 0)
(0.438428 -0.0550264 -1.94321e-20)
(0.442621 -0.051338 1.94864e-20)
(0.446572 -0.0478631 0)
(0.450295 -0.0445937 -1.95704e-20)
(0.453798 -0.0415215 1.96014e-20)
(0.457095 -0.038638 2.94633e-20)
(0.460194 -0.0359344 0)
(0.463107 -0.0334021 0)
(0.465842 -0.0310322 0)
(0.46841 -0.0288163 1.97084e-20)
(0.470819 -0.0267459 1.96653e-20)
(0.473078 -0.0248129 3.93573e-20)
(0.475195 -0.0230095 0)
(0.477179 -0.021328 -1.96379e-20)
(0.479036 -0.0197612 -3.26132e-23)
(0.480773 -0.0183022 -1.96038e-20)
(0.482399 -0.0169443 -1.95827e-20)
(0.483918 -0.0156814 0)
(0.485337 -0.0145073 3.90928e-20)
(0.486663 -0.0134166 3.90352e-20)
(0.4879 -0.0124038 0)
(0.489055 -0.011464 1.94652e-20)
(0.490131 -0.0105923 0)
(0.491134 -0.00978425 0)
(0.492068 -0.00903564 1.93562e-20)
(0.231731 -0.228166 6.28803e-21)
(0.244342 -0.222234 -4.45726e-23)
(0.256593 -0.21588 -6.77367e-21)
(0.268479 -0.20917 6.95641e-21)
(0.279997 -0.202167 3.90308e-23)
(0.291145 -0.194932 0)
(0.301919 -0.187522 0)
(0.312319 -0.179992 7.73403e-21)
(0.322343 -0.172392 7.93598e-21)
(0.331993 -0.164772 8.09139e-21)
(0.341269 -0.157173 8.20207e-21)
(0.350173 -0.149638 0)
(0.358709 -0.142202 0)
(0.36688 -0.134898 0)
(0.374691 -0.127755 8.7263e-21)
(0.382149 -0.120797 0)
(0.389259 -0.114045 3.27239e-23)
(0.396031 -0.107518 8.97277e-21)
(0.402472 -0.101227 -9.051e-21)
(0.408591 -0.0951833 0)
(0.414399 -0.0893943 1.83736e-20)
(0.419906 -0.0838637 -1.849e-20)
(0.425121 -0.0785933 -2.79214e-20)
(0.430058 -0.0735824 -2.80604e-20)
(0.434725 -0.0688282 0)
(0.439135 -0.0643264 0)
(0.443299 -0.0600711 1.89592e-20)
(0.447228 -0.0560554 -1.90119e-20)
(0.450932 -0.0522716 0)
(0.454422 -0.0487109 1.90935e-20)
(0.457709 -0.0453645 -1.91234e-20)
(0.460803 -0.042223 -1.91469e-20)
(0.463713 -0.039277 0)
(0.466449 -0.0365169 0)
(0.46902 -0.0339333 -1.91428e-20)
(0.471434 -0.0315169 0)
(0.4737 -0.0292586 -1.91839e-20)
(0.475827 -0.0271496 -1.91781e-20)
(0.47782 -0.0251814 -1.91347e-20)
(0.479689 -0.0233457 1.91562e-20)
(0.481439 -0.0216348 -1.91407e-20)
(0.483078 -0.020041 1.91223e-20)
(0.484611 -0.0185573 3.81748e-20)
(0.486045 -0.0171769 0)
(0.487385 -0.0158933 -1.90526e-20)
(0.488637 -0.0147003 -1.90249e-20)
(0.489806 -0.0135923 0)
(0.490897 -0.0125638 0)
(0.491914 -0.0116095 0)
(0.492862 -0.0107247 1.88776e-20)
(0.493746 -0.00990473 0)
(0.253608 -0.246788 0)
(0.265308 -0.240159 -3.63274e-23)
(0.276648 -0.233116 0)
(0.28763 -0.225726 -1.36424e-20)
(0.298256 -0.218052 7.04405e-21)
(0.308528 -0.210156 0)
(0.318447 -0.202096 0)
(0.328016 -0.193926 -7.59349e-21)
(0.337235 -0.185697 7.72502e-21)
(0.346107 -0.17746 0)
(0.354635 -0.169257 -8.04865e-21)
(0.362821 -0.161131 -8.15166e-21)
(0.370669 -0.153118 0)
(0.378183 -0.145253 0)
(0.385368 -0.137565 0)
(0.392229 -0.130078 0)
(0.398774 -0.122816 8.71646e-21)
(0.405008 -0.115796 -8.80004e-21)
(0.41094 -0.109031 8.8765e-21)
(0.416578 -0.102533 -1.78359e-20)
(0.421931 -0.0963087 -3.59815e-20)
(0.427008 -0.0903624 1.81326e-20)
(0.431819 -0.0846956 1.82348e-20)
(0.436374 -0.0793076 1.83259e-20)
(0.440682 -0.0741954 0)
(0.444755 -0.0693542 0)
(0.448602 -0.0647777 0)
(0.452234 -0.0604584 0)
(0.455659 -0.0563879 -1.85899e-20)
(0.458888 -0.0525571 0)
(0.461931 -0.0489561 0)
(0.464796 -0.0455752 0)
(0.467492 -0.0424039 1.87065e-20)
(0.470029 -0.0394322 0)
(0.472413 -0.0366499 3.85669e-23)
(0.474654 -0.0340471 0)
(0.476758 -0.031614 1.87364e-20)
(0.478734 -0.0293411 0)
(0.480587 -0.0272194 1.87596e-20)
(0.482325 -0.02524 0)
(0.483953 -0.0233946 0)
(0.485478 -0.021675 0)
(0.486906 -0.0200738 -1.86977e-20)
(0.488242 -0.0185835 0)
(0.489491 -0.0171974 0)
(0.490658 -0.0159087 -1.86025e-20)
(0.491748 -0.0147115 -1.85757e-20)
(0.492766 -0.0135998 -1.8547e-20)
(0.493716 -0.012568 0)
(0.494601 -0.0116111 -1.84001e-23)
(0.495426 -0.010724 0)
(0.278361 -0.263949 0)
(0.288932 -0.256637 -2.9274e-23)
(0.299159 -0.248931 6.47132e-21)
(0.309051 -0.240894 6.71435e-21)
(0.318613 -0.232589 0)
(0.327851 -0.224077 7.08075e-21)
(0.33677 -0.215414 0)
(0.345374 -0.206654 0)
(0.353664 -0.19785 -7.61294e-21)
(0.361646 -0.189049 1.54701e-20)
(0.369321 -0.180296 0)
(0.376693 -0.171632 8.0299e-21)
(0.383764 -0.163096 0)
(0.39054 -0.154721 0)
(0.397023 -0.146538 0)
(0.403219 -0.138572 0)
(0.409132 -0.130846 0)
(0.41477 -0.123379 0)
(0.420138 -0.116184 -1.7372e-20)
(0.425243 -0.109272 1.7562e-20)
(0.430093 -0.102652 1.76868e-20)
(0.434697 -0.0963268 1.77484e-20)
(0.439062 -0.090299 -1.78504e-20)
(0.443198 -0.0845673 0)
(0.447112 -0.0791286 0)
(0.450814 -0.0739777 0)
(0.454313 -0.069108 0)
(0.457618 -0.0645115 1.82115e-20)
(0.460737 -0.0601792 1.83029e-20)
(0.463679 -0.0561014 -1.82973e-20)
(0.466453 -0.0522678 1.83299e-20)
(0.469067 -0.0486676 0)
(0.471528 -0.0452902 -3.67934e-20)
(0.473844 -0.0421248 0)
(0.476024 -0.0391604 1.84396e-20)
(0.478072 -0.0363866 1.84082e-20)
(0.479998 -0.0337931 -3.68544e-20)
(0.481806 -0.0313698 0)
(0.483503 -0.029107 0)
(0.485096 -0.0269955 -1.83936e-20)
(0.486589 -0.0250263 1.83819e-20)
(0.487988 -0.0231909 -1.83675e-20)
(0.489299 -0.0214813 1.83505e-20)
(0.490525 -0.0198897 0)
(0.491673 -0.0184088 0)
(0.492746 -0.0170317 2.2811e-23)
(0.493748 -0.0157519 1.8282e-20)
(0.494683 -0.0145632 2.04166e-23)
(0.495557 -0.0134596 0)
(0.496371 -0.0124358 -1.81549e-23)
(0.49713 -0.0114864 -1.81411e-20)
(0.305809 -0.279306 0)
(0.315031 -0.271358 -6.18147e-21)
(0.323945 -0.26304 -6.40614e-21)
(0.332563 -0.254415 0)
(0.340894 -0.245542 0)
(0.348946 -0.236479 -7.00341e-21)
(0.356725 -0.227281 0)
(0.364235 -0.218001 0)
(0.371481 -0.208689 0)
(0.378466 -0.199393 -1.52898e-20)
(0.385191 -0.190156 0)
(0.391659 -0.181021 0)
(0.397873 -0.172025 -1.60055e-20)
(0.403836 -0.163202 0)
(0.409549 -0.154583 -1.64322e-20)
(0.415016 -0.146195 0)
(0.420241 -0.13806 0)
(0.425229 -0.130196 0)
(0.429983 -0.12262 1.716e-20)
(0.434511 -0.115341 1.72461e-20)
(0.438817 -0.108369 -1.73701e-20)
(0.442909 -0.101707 -4.90796e-23)
(0.446792 -0.0953574 1.76323e-20)
(0.450475 -0.0893191 0)
(0.453963 -0.0835887 0)
(0.457266 -0.0781608 0)
(0.46039 -0.0730286 0)
(0.463343 -0.0681836 -1.79888e-20)
(0.466132 -0.0636164 -1.79912e-20)
(0.468765 -0.0593169 1.80733e-20)
(0.47125 -0.0552741 -1.81053e-20)
(0.473592 -0.0514769 -1.80909e-20)
(0.4758 -0.047914 1.81511e-20)
(0.477879 -0.044574 0)
(0.479836 -0.0414456 0)
(0.481678 -0.0385176 -3.51457e-23)
(0.483409 -0.0357792 3.3869e-23)
(0.485037 -0.0332199 -1.81475e-20)
(0.486565 -0.0308296 1.8143e-20)
(0.488 -0.0285984 3.00392e-23)
(0.489347 -0.0265171 -1.81533e-20)
(0.490609 -0.0245766 3.62497e-20)
(0.491792 -0.0227686 -1.81214e-20)
(0.492899 -0.0210849 0)
(0.493936 -0.0195179 -1.80564e-20)
(0.494905 -0.0180603 1.80565e-20)
(0.495811 -0.0167052 0)
(0.496657 -0.0154462 1.80033e-20)
(0.497447 -0.0142771 0)
(0.498183 -0.013192 1.79074e-20)
(0.498869 -0.0121856 -1.78775e-20)
(0.499509 -0.0112527 0)
(0.335627 -0.29253 1.17556e-20)
(0.343294 -0.284023 0)
(0.350708 -0.275176 1.26704e-20)
(0.357885 -0.266048 0)
(0.364833 -0.256694 0)
(0.371562 -0.247168 1.38461e-20)
(0.378077 -0.237522 0)
(0.384382 -0.227807 1.45166e-20)
(0.390481 -0.218071 -1.48215e-20)
(0.396375 -0.208362 0)
(0.402066 -0.198721 -1.53757e-20)
(0.407554 -0.189191 -1.56266e-20)
(0.41284 -0.179808 1.59085e-20)
(0.417925 -0.170608 0)
(0.422809 -0.161621 3.26146e-20)
(0.427494 -0.152874 0)
(0.431981 -0.14439 0)
(0.436274 -0.136188 -1.68078e-20)
(0.440374 -0.128285 0)
(0.444286 -0.120691 -4.8934e-23)
(0.448013 -0.113415 1.72642e-20)
(0.45156 -0.106461 -4.83203e-23)
(0.454932 -0.0998325 0)
(0.458133 -0.0935274 0)
(0.461171 -0.0875428 0)
(0.46405 -0.0818731 0)
(0.466777 -0.0765112 -1.77378e-20)
(0.469357 -0.0714486 0)
(0.471797 -0.0666753 1.78841e-20)
(0.474103 -0.0621809 0)
(0.476281 -0.0579542 0)
(0.478336 -0.0539834 1.79837e-20)
(0.480275 -0.0502569 1.79662e-20)
(0.482102 -0.0467628 0)
(0.483824 -0.0434893 0)
(0.485446 -0.0404249 -1.80384e-20)
(0.486972 -0.0375582 3.6048e-20)
(0.488407 -0.0348783 3.25259e-23)
(0.489756 -0.0323747 -1.80349e-20)
(0.491023 -0.0300372 1.8027e-20)
(0.492213 -0.0278561 -1.79873e-20)
(0.493329 -0.0258221 -1.80026e-20)
(0.494376 -0.0239263 -1.79601e-20)
(0.495356 -0.0221603 0)
(0.496274 -0.0205163 5.37944e-20)
(0.497133 -0.0189866 3.58039e-20)
(0.497935 -0.0175641 0)
(0.498685 -0.016242 0)
(0.499385 -0.0150139 0)
(0.500038 -0.0138739 -7.12268e-20)
(0.500646 -0.0128162 3.55694e-20)
(0.501213 -0.0118355 -3.54722e-20)
(0.368244 -0.303599 -2.24608e-20)
(0.374131 -0.294633 0)
(0.379843 -0.285359 -1.2112e-20)
(0.385393 -0.275828 0)
(0.39079 -0.266092 0)
(0.396042 -0.256201 -1.32366e-20)
(0.401153 -0.246202 0)
(0.406124 -0.236145 -1.38797e-20)
(0.410958 -0.226076 2.83045e-20)
(0.415654 -0.216038 0)
(0.420211 -0.206076 2.93687e-20)
(0.424627 -0.196229 1.49486e-20)
(0.428901 -0.186534 0)
(0.43303 -0.177027 0)
(0.437014 -0.167738 -1.5585e-20)
(0.440851 -0.158694 0)
(0.444539 -0.14992 0)
(0.448081 -0.141436 1.60976e-20)
(0.451474 -0.133257 -1.61941e-20)
(0.454722 -0.125396 -1.63772e-20)
(0.457825 -0.117861 -1.64509e-20)
(0.460786 -0.110658 -3.31748e-20)
(0.463608 -0.10379 -1.66651e-20)
(0.466294 -0.0972546 0)
(0.468847 -0.0910499 0)
(0.471272 -0.0851702 0)
(0.473572 -0.0796084 1.70268e-20)
(0.475754 -0.0743556 -1.70399e-20)
(0.477819 -0.069402 0)
(0.479775 -0.0647367 0)
(0.481624 -0.0603483 0)
(0.483372 -0.0562247 0)
(0.485022 -0.0523539 -3.9197e-23)
(0.486581 -0.0487236 0)
(0.48805 -0.0453218 0)
(0.489436 -0.0421364 0)
(0.490741 -0.0391559 -3.46289e-20)
(0.49197 -0.0363689 3.30584e-23)
(0.493126 -0.0337645 0)
(0.494213 -0.0313322 3.46107e-20)
(0.495235 -0.029062 1.73314e-20)
(0.496194 -0.0269444 0)
(0.497094 -0.02497 5.18905e-20)
(0.497937 -0.0231304 0)
(0.498727 -0.0214173 -3.4578e-20)
(0.499466 -0.0198228 -3.45462e-20)
(0.500158 -0.0183396 3.44664e-20)
(0.500804 -0.0169607 0)
(0.501407 -0.0156795 0)
(0.501969 -0.0144898 3.43836e-20)
(0.502493 -0.0133857 0)
(0.502981 -0.0123617 3.42844e-20)
(0.401625 -0.311584 1.18072e-20)
(0.405639 -0.302321 1.22607e-20)
(0.409569 -0.292777 0)
(0.413425 -0.282996 0)
(0.417213 -0.273025 0)
(0.420938 -0.262908 0)
(0.4246 -0.252692 0)
(0.4282 -0.242422 0)
(0.431736 -0.232141 -2.95554e-20)
(0.435204 -0.221894 -1.50358e-20)
(0.438601 -0.211722 -3.06304e-20)
(0.441921 -0.201664 0)
(0.445162 -0.191759 0)
(0.448317 -0.182041 0)
(0.451383 -0.172541 0)
(0.454356 -0.163287 -1.63569e-20)
(0.457232 -0.154305 0)
(0.460009 -0.145614 -1.66831e-20)
(0.462685 -0.137231 1.68741e-20)
(0.465259 -0.12917 0)
(0.467729 -0.12144 4.67911e-23)
(0.470096 -0.114048 3.4424e-20)
(0.47236 -0.106995 3.46209e-20)
(0.474523 -0.100282 0)
(0.476586 -0.0939062 1.74548e-20)
(0.478552 -0.0878621 0)
(0.480422 -0.0821427 0)
(0.482199 -0.0767395 1.76818e-20)
(0.483887 -0.0716426 -1.76848e-20)
(0.485487 -0.0668409 0)
(0.487005 -0.0623229 0)
(0.488441 -0.0580765 0)
(0.489801 -0.0540893 -3.75236e-23)
(0.491087 -0.050349 0)
(0.492301 -0.0468431 0)
(0.493448 -0.0435594 -1.78323e-20)
(0.49453 -0.040486 1.78667e-20)
(0.49555 -0.0376115 5.35267e-20)
(0.496511 -0.0349245 0)
(0.497415 -0.0324144 -7.1327e-20)
(0.498266 -0.0300709 3.56105e-20)
(0.499065 -0.0278842 0)
(0.499815 -0.0258449 -3.55989e-20)
(0.50052 -0.0239443 0)
(0.501179 -0.0221737 0)
(0.501797 -0.0205253 0)
(0.502375 -0.0189915 -4.24559e-23)
(0.502915 -0.0175652 0)
(0.503419 -0.0162395 0)
(0.503889 -0.0150081 -3.5192e-20)
(0.504327 -0.013865 0)
(0.504734 -0.0128045 0)
(0.432479 -0.316319 1.22601e-20)
(0.434754 -0.306935 2.39251e-24)
(0.437034 -0.297285 1.31383e-20)
(0.439323 -0.28741 -1.35379e-20)
(0.441626 -0.277352 1.39133e-20)
(0.443943 -0.267151 0)
(0.446271 -0.256852 0)
(0.448608 -0.246496 0)
(0.450947 -0.236127 1.52333e-20)
(0.453285 -0.225787 3.53519e-23)
(0.455613 -0.215517 1.57682e-20)
(0.457924 -0.205357 0)
(0.460212 -0.195343 0)
(0.462469 -0.185511 1.64026e-20)
(0.464688 -0.175894 1.65961e-20)
(0.466864 -0.166519 4.35609e-23)
(0.468991 -0.157412 0)
(0.471062 -0.148595 3.42303e-20)
(0.473075 -0.140085 1.72323e-20)
(0.475026 -0.131896 0)
(0.476911 -0.12404 1.75188e-20)
(0.478729 -0.116522 -3.52005e-20)
(0.480478 -0.109346 -1.77148e-20)
(0.482158 -0.102512 -1.77536e-20)
(0.483768 -0.0960182 -1.7869e-20)
(0.485308 -0.08986 0)
(0.486779 -0.0840304 1.79443e-20)
(0.488183 -0.078521 0)
(0.489521 -0.0733221 1.80686e-20)
(0.490793 -0.0684228 0)
(0.492003 -0.0638116 -1.80849e-20)
(0.493152 -0.0594762 -1.81032e-20)
(0.494242 -0.0554044 -3.54671e-23)
(0.495274 -0.0515836 0)
(0.496252 -0.0480012 -1.81248e-20)
(0.497177 -0.044645 1.81545e-20)
(0.498052 -0.041503 0)
(0.498878 -0.0385633 -5.98213e-23)
(0.499657 -0.0358147 3.61825e-20)
(0.500391 -0.0332464 3.62033e-20)
(0.501082 -0.0308478 -3.61607e-20)
(0.501733 -0.0286091 0)
(0.502344 -0.0265207 -3.60108e-20)
(0.502918 -0.0245737 0)
(0.503457 -0.0227595 0)
(0.503961 -0.02107 -3.58312e-20)
(0.504432 -0.0194974 -3.58036e-20)
(0.504873 -0.0180346 0)
(0.505284 -0.0166746 3.56175e-20)
(0.505668 -0.015411 7.11139e-20)
(0.506024 -0.0142377 0)
(0.506356 -0.0131489 0)
(0.506663 -0.0121391 0)
(0.460482 -0.318523 -2.52959e-20)
(0.461194 -0.309154 -1.3096e-20)
(0.461991 -0.299527 -1.35252e-20)
(0.462874 -0.289678 2.785e-20)
(0.463843 -0.279645 -1.43051e-20)
(0.464894 -0.269468 0)
(0.466023 -0.259187 0)
(0.467222 -0.248843 -1.52756e-20)
(0.468484 -0.238478 0)
(0.469801 -0.228134 3.16971e-20)
(0.471163 -0.217851 1.60844e-20)
(0.472561 -0.207669 0)
(0.473986 -0.197625 0)
(0.475428 -0.187754 -3.35231e-20)
(0.476879 -0.178091 -1.69706e-20)
(0.47833 -0.168663 1.71455e-20)
(0.479774 -0.159497 0)
(0.481203 -0.150616 -1.74533e-20)
(0.482611 -0.142039 -1.75873e-20)
(0.483993 -0.133779 0)
(0.485344 -0.125849 0)
(0.48666 -0.118256 1.79154e-20)
(0.487938 -0.111005 -1.79607e-20)
(0.489175 -0.104095 1.80777e-20)
(0.49037 -0.0975266 0)
(0.491521 -0.0912943 0)
(0.492627 -0.0853921 -3.88205e-23)
(0.493689 -0.0798119 0)
(0.494705 -0.0745443 1.82791e-20)
(0.495677 -0.0695785 -1.83033e-20)
(0.496604 -0.0649031 1.83561e-20)
(0.497488 -0.060506 3.43867e-23)
(0.49833 -0.056375 -3.67074e-20)
(0.499131 -0.0524975 0)
(0.499891 -0.048861 1.83628e-20)
(0.500612 -0.0454532 0)
(0.501295 -0.0422619 0)
(0.501942 -0.0392753 -3.66357e-20)
(0.502554 -0.0364821 -3.65908e-20)
(0.503131 -0.0338714 0)
(0.503676 -0.0314325 -3.64322e-20)
(0.504189 -0.0291556 3.63716e-20)
(0.504672 -0.0270311 3.6352e-20)
(0.505125 -0.0250497 0)
(0.505551 -0.023203 0)
(0.50595 -0.0214828 7.2207e-20)
(0.506323 -0.0198812 0)
(0.506672 -0.018391 0)
(0.506997 -0.0170051 -3.58623e-20)
(0.5073 -0.0157172 -3.57693e-20)
(0.507582 -0.0145209 0)
(0.507843 -0.0134105 -3.55468e-20)
(0.508085 -0.0123804 -3.54482e-20)
(0.508308 -0.0114255 -2.54741e-23)
(0.485569 -0.318818 -2.68154e-23)
(0.484912 -0.309564 0)
(0.484408 -0.300051 0)
(0.484056 -0.290315 -2.84555e-20)
(0.48385 -0.280389 -1.45917e-20)
(0.483785 -0.270312 -1.49335e-20)
(0.483853 -0.260122 0)
(0.484045 -0.24986 1.55763e-20)
(0.484351 -0.239567 0)
(0.48476 -0.229282 -1.61274e-20)
(0.485262 -0.219048 -1.63757e-20)
(0.485844 -0.208904 0)
(0.486497 -0.198887 0)
(0.487209 -0.189034 1.70203e-20)
(0.487969 -0.179378 0)
(0.488768 -0.169948 0)
(0.489596 -0.160773 0)
(0.490445 -0.151876 0)
(0.491306 -0.143276 1.77578e-20)
(0.492173 -0.134989 -1.78731e-20)
(0.49304 -0.127027 1.79764e-20)
(0.493901 -0.119399 0)
(0.49475 -0.112109 3.8496e-23)
(0.495586 -0.105159 0)
(0.496403 -0.0985489 1.82789e-20)
(0.497199 -0.0922741 -1.83294e-20)
(0.497973 -0.086329 -1.84074e-20)
(0.498722 -0.080706 0)
(0.499445 -0.0753958 -1.84643e-20)
(0.500142 -0.0703881 1.84814e-20)