/*--------------------------------*- C++ -*----------------------------------*\
  =========                 |
  \\      /  F ield         | OpenFOAM: The Open Source CFD Toolbox
   \\    /   O peration     | Website:  https://openfoam.org
    \\  /    A nd           | Version:  6
     \\/     M anipulation  |
\*---------------------------------------------------------------------------*/
FoamFile
{
    version     2.0;
    format      ascii;
    class       volScalarField;
    location    "0.06";
    object      epsilon;
}
// * * * * * * * * * * * * * * * * * * * * * * * * * * * * * * * * * * * * * //

dimensions      [0 2 -3 0 0 0 0];

internalField   nonuniform List<scalar> 
3080
(
2.83967
2.8422
2.84475
2.84733
2.84993
2.85256
2.8552
2.85786
2.86054
2.86322
2.86591
2.8686
2.87127
2.87392
2.87651
2.87904
2.88147
2.88375
2.88582
2.8876
2.88896
2.88974
2.88967
2.88834
2.88508
2.87867
2.86685
2.84475
2.80292
2.72254
1.40655
1.40725
1.40796
1.40868
1.4094
1.41014
1.41088
1.41163
1.41239
1.41315
1.41392
1.4147
1.41547
1.41625
1.41703
1.4178
1.41857
1.41931
1.42004
1.42073
1.42137
1.42194
1.42242
1.42278
1.42299
1.42304
1.42306
1.42348
1.42631
1.43936
1.19939
1.19966
1.19993
1.2002
1.20048
1.20077
1.20105
1.20135
1.20164
1.20194
1.20224
1.20254
1.20285
1.20315
1.20346
1.20376
1.20406
1.20434
1.20462
1.20487
1.20511
1.2053
1.20546
1.20555
1.20558
1.20557
1.20558
1.20593
1.2077
1.21454
1.15212
1.15217
1.15223
1.15229
1.15235
1.15241
1.15248
1.15254
1.15261
1.15268
1.15275
1.15282
1.15289
1.15296
1.15303
1.15309
1.15315
1.1532
1.15324
1.15326
1.15326
1.15324
1.15318
1.15307
1.15292
1.15272
1.15252
1.15252
1.15325
1.15632
1.14967
1.14959
1.14951
1.14943
1.14936
1.14928
1.14921
1.14913
1.14905
1.14898
1.1489
1.14882
1.14874
1.14866
1.14858
1.14849
1.14839
1.14829
1.14817
1.14804
1.14789
1.14771
1.1475
1.14725
1.14694
1.14658
1.1462
1.14589
1.14595
1.14713
1.16386
1.16369
1.16352
1.16335
1.16318
1.16301
1.16284
1.16266
1.16249
1.16231
1.16214
1.16196
1.16177
1.16159
1.1614
1.1612
1.161
1.16079
1.16057
1.16032
1.16006
1.15978
1.15945
1.15909
1.15867
1.15819
1.15765
1.15712
1.15675
1.15695
1.18455
1.18432
1.18409
1.18385
1.18362
1.18338
1.18314
1.1829
1.18266
1.18242
1.18217
1.18192
1.18167
1.18141
1.18115
1.18088
1.1806
1.18031
1.18001
1.17969
1.17936
1.17899
1.17859
1.17814
1.17764
1.17707
1.17644
1.17576
1.17513
1.1748
1.20731
1.20704
1.20676
1.20648
1.20621
1.20592
1.20564
1.20536
1.20507
1.20478
1.20448
1.20419
1.20389
1.20358
1.20327
1.20295
1.20262
1.20228
1.20193
1.20156
1.20117
1.20075
1.2003
1.1998
1.19925
1.19862
1.19792
1.19716
1.19638
1.19578
1.22997
1.22967
1.22937
1.22907
1.22876
1.22846
1.22815
1.22783
1.22752
1.2272
1.22688
1.22655
1.22622
1.22588
1.22554
1.22519
1.22483
1.22446
1.22408
1.22368
1.22326
1.22281
1.22233
1.2218
1.22121
1.22056
1.21983
1.21903
1.21819
1.21747
1.25145
1.25114
1.25083
1.25051
1.25019
1.24987
1.24955
1.24922
1.24889
1.24856
1.24822
1.24788
1.24753
1.24718
1.24683
1.24646
1.24609
1.2457
1.2453
1.24489
1.24445
1.24399
1.24349
1.24295
1.24236
1.24171
1.24098
1.24018
1.23933
1.23857
1.27121
1.27089
1.27058
1.27026
1.26994
1.26961
1.26929
1.26896
1.26863
1.26829
1.26795
1.26761
1.26726
1.2669
1.26654
1.26617
1.2658
1.26541
1.26501
1.26459
1.26415
1.26369
1.2632
1.26266
1.26208
1.26144
1.26073
1.25996
1.25914
1.2584
1.2887
1.28839
1.28808
1.28776
1.28744
1.28712
1.2868
1.28647
1.28614
1.28581
1.28547
1.28513
1.28478
1.28442
1.28406
1.28369
1.28331
1.28292
1.28251
1.28208
1.28163
1.28115
1.28063
1.28007
1.27946
1.27879
1.27806
1.2773
1.27661
1.3045
1.3042
1.3039
1.3036
1.30329
1.30299
1.30267
1.30236
1.30204
1.30172
1.3014
1.30106
1.30073
1.30039
1.30004
1.29968
1.29932
1.29894
1.29854
1.29814
1.2977
1.29725
1.29676
1.29623
1.29566
1.29504
1.29437
1.29368
1.29305
1.31834
1.31806
1.31778
1.31749
1.3172
1.31691
1.31662
1.31632
1.31602
1.31572
1.31541
1.3151
1.31478
1.31446
1.31413
1.31379
1.31344
1.31309
1.31272
1.31233
1.31193
1.3115
1.31105
1.31056
1.31003
1.30947
1.30887
1.30825
1.3077
1.33033
1.33007
1.32981
1.32954
1.32927
1.329
1.32873
1.32845
1.32818
1.32789
1.32761
1.32732
1.32702
1.32672
1.32641
1.3261
1.32578
1.32545
1.3251
1.32475
1.32437
1.32398
1.32356
1.32312
1.32264
1.32214
1.32161
1.32107
1.3206
1.3407
1.34046
1.34022
1.33997
1.33973
1.33948
1.33922
1.33897
1.33871
1.33845
1.33818
1.33791
1.33764
1.33736
1.33707
1.33678
1.33648
1.33618
1.33586
1.33553
1.33519
1.33483
1.33445
1.33404
1.33362
1.33317
1.3327
1.33224
1.33184
1.34941
1.34919
1.34897
1.34875
1.34853
1.3483
1.34807
1.34784
1.34761
1.34737
1.34713
1.34689
1.34664
1.34639
1.34613
1.34587
1.3456
1.34532
1.34503
1.34474
1.34443
1.34411
1.34377
1.34341
1.34304
1.34265
1.34225
1.34186
1.34154
1.35651
1.35632
1.35613
1.35594
1.35575
1.35555
1.35535
1.35515
1.35495
1.35474
1.35454
1.35433
1.35411
1.35389
1.35367
1.35344
1.35321
1.35297
1.35272
1.35247
1.3522
1.35193
1.35164
1.35134
1.35102
1.3507
1.35038
1.35007
1.34982
1.36227
1.36212
1.36196
1.3618
1.36164
1.36148
1.36131
1.36115
1.36098
1.36081
1.36063
1.36046
1.36028
1.3601
1.35991
1.35972
1.35953
1.35933
1.35913
1.35892
1.3587
1.35847
1.35823
1.35799
1.35773
1.35748
1.35723
1.357
1.35683
1.36694
1.36681
1.36669
1.36656
1.36643
1.3663
1.36616
1.36603
1.3659
1.36576
1.36562
1.36548
1.36534
1.36519
1.36504
1.36489
1.36474
1.36458
1.36442
1.36425
1.36407
1.36389
1.36371
1.36351
1.36332
1.36313
1.36295
1.36279
1.3627
1.37068
1.37059
1.37049
1.37039
1.37029
1.37019
1.37008
1.36998
1.36988
1.36977
1.36966
1.36956
1.36945
1.36933
1.36922
1.3691
1.36899
1.36886
1.36874
1.36861
1.36848
1.36834
1.3682
1.36806
1.36792
1.36778
1.36766
1.36757
1.36754
1.37366
1.37359
1.37351
1.37344
1.37336
1.37329
1.37321
1.37313
1.37306
1.37298
1.3729
1.37282
1.37274
1.37266
1.37258
1.37249
1.3724
1.37232
1.37222
1.37213
1.37203
1.37194
1.37184
1.37174
1.37164
1.37156
1.37149
1.37146
1.37148
1.37598
1.37593
1.37588
1.37582
1.37577
1.37571
1.37566
1.37561
1.37555
1.3755
1.37544
1.37539
1.37533
1.37528
1.37522
1.37516
1.3751
1.37504
1.37498
1.37491
1.37485
1.37478
1.37472
1.37466
1.3746
1.37456
1.37454
1.37455
1.37462
1.37774
1.3777
1.37767
1.37763
1.3776
1.37756
1.37752
1.37749
1.37745
1.37742
1.37738
1.37735
1.37731
1.37728
1.37724
1.37721
1.37717
1.37713
1.37709
1.37705
1.37701
1.37697
1.37693
1.3769
1.37688
1.37687
1.37689
1.37694
1.37704
1.37901
1.37899
1.37896
1.37894
1.37892
1.37889
1.37887
1.37885
1.37883
1.37881
1.37879
1.37877
1.37875
1.37873
1.37871
1.37869
1.37867
1.37865
1.37863
1.37861
1.37858
1.37856
1.37855
1.37854
1.37854
1.37856
1.3786
1.37868
1.37881
1.37984
1.37982
1.37981
1.3798
1.37978
1.37977
1.37976
1.37975
1.37974
1.37973
1.37972
1.37971
1.3797
1.37969
1.37968
1.37967
1.37966
1.37965
1.37964
1.37963
1.37963
1.37962
1.37962
1.37963
1.37964
1.37968
1.37974
1.37984
1.37999
1.38027
1.38026
1.38025
1.38024
1.38024
1.38023
1.38022
1.38022
1.38021
1.38021
1.3802
1.3802
1.3802
1.38019
1.38019
1.38019
1.38018
1.38018
1.38018
1.38017
1.38017
1.38018
1.38018
1.3802
1.38022
1.38027
1.38034
1.38045
1.38062
1.38033
1.38032
1.38032
1.38031
1.3803
1.3803
1.38029
1.38029
1.38028
1.38028
1.38028
1.38027
1.38027
1.38027
1.38026
1.38026
1.38026
1.38026
1.38025
1.38025
1.38025
1.38026
1.38026
1.38028
1.38031
1.38036
1.38043
1.38055
1.38071
1.3799
1.37989
1.37988
1.37987
1.37985
1.37984
1.37983
1.37982
1.3798
1.37979
1.37978
1.37977
1.37976
1.37975
1.37974
1.37973
1.37972
1.3797
1.37969
1.37968
1.37967
1.37967
1.37966
1.37967
1.37969
1.37972
1.37979
1.37989
1.38005
1.37896
1.37894
1.37891
1.37888
1.37886
1.37883
1.3788
1.37877
1.37875
1.37872
1.37869
1.37867
1.37864
1.37861
1.37858
1.37855
1.37852
1.37849
1.37846
1.37843
1.3784
1.37838
1.37835
1.37834
1.37833
1.37834
1.37838
1.37846
1.37859
1.37747
1.37742
1.37737
1.37732
1.37727
1.37722
1.37717
1.37712
1.37707
1.37702
1.37696
1.37691
1.37686
1.3768
1.37675
1.37669
1.37663
1.37657
1.37651
1.37645
1.37639
1.37633
1.37627
1.37622
1.37618
1.37615
1.37615
1.37618
1.37628
1.37536
1.37528
1.3752
1.37512
1.37504
1.37496
1.37487
1.37479
1.3747
1.37462
1.37453
1.37444
1.37435
1.37426
1.37416
1.37406
1.37397
1.37387
1.37376
1.37366
1.37355
1.37345
1.37334
1.37324
1.37314
1.37306
1.373
1.37297
1.37302
1.37256
1.37245
1.37233
1.3722
1.37208
1.37195
1.37183
1.3717
1.37157
1.37143
1.3713
1.37116
1.37102
1.37087
1.37073
1.37058
1.37043
1.37027
1.37011
1.36995
1.36978
1.36961
1.36944
1.36927
1.3691
1.36895
1.36881
1.36871
1.36868
1.36898
1.36881
1.36864
1.36847
1.36829
1.36811
1.36792
1.36773
1.36754
1.36735
1.36715
1.36695
1.36675
1.36654
1.36632
1.36611
1.36589
1.36566
1.36543
1.36519
1.36494
1.3647
1.36444
1.36418
1.36392
1.36367
1.36343
1.36323
1.36311
1.3645
1.36427
1.36403
1.36378
1.36354
1.36329
1.36303
1.36277
1.3625
1.36223
1.36196
1.36168
1.3614
1.36111
1.36081
1.36051
1.3602
1.35988
1.35956
1.35922
1.35888
1.35853
1.35817
1.35781
1.35743
1.35706
1.3567
1.35636
1.35613
1.35897
1.35866
1.35834
1.35802
1.35768
1.35735
1.357
1.35665
1.3563
1.35593
1.35556
1.35519
1.35481
1.35441
1.35401
1.35361
1.35319
1.35276
1.35233
1.35188
1.35142
1.35094
1.35045
1.34995
1.34944
1.34892
1.3484
1.34792
1.34753
1.35225
1.35184
1.35142
1.35099
1.35056
1.35012
1.34967
1.34921
1.34874
1.34827
1.34779
1.34729
1.34679
1.34628
1.34575
1.34522
1.34467
1.34411
1.34354
1.34295
1.34235
1.34173
1.34108
1.34042
1.33974
1.33905
1.33835
1.33768
1.33712
1.34413
1.34361
1.34307
1.34253
1.34197
1.34141
1.34083
1.34025
1.33965
1.33904
1.33843
1.3378
1.33715
1.3365
1.33583
1.33514
1.33445
1.33373
1.333
1.33224
1.33147
1.33067
1.32985
1.329
1.32813
1.32723
1.32632
1.32544
1.32469
1.33456
1.3339
1.33323
1.33254
1.33185
1.33113
1.33041
1.32967
1.32892
1.32816
1.32738
1.32659
1.32578
1.32495
1.32411
1.32325
1.32237
1.32147
1.32055
1.3196
1.31863
1.31763
1.3166
1.31553
1.31443
1.3133
1.31215
1.31102
1.31004
1.32332
1.3225
1.32167
1.32082
1.31996
1.31908
1.31818
1.31727
1.31634
1.3154
1.31443
1.31345
1.31245
1.31143
1.31039
1.30933
1.30824
1.30713
1.306
1.30483
1.30363
1.3024
1.30114
1.29983
1.29847
1.29708
1.29567
1.29427
1.29304
1.30981
1.30882
1.30782
1.3068
1.30576
1.3047
1.30362
1.30252
1.30141
1.30027
1.29911
1.29793
1.29673
1.29551
1.29426
1.29299
1.29169
1.29036
1.28901
1.28762
1.28619
1.28473
1.28322
1.28167
1.28006
1.27841
1.27674
1.27509
1.27364
1.29359
1.29243
1.29125
1.29005
1.28884
1.2876
1.28634
1.28506
1.28376
1.28243
1.28109
1.27972
1.27832
1.2769
1.27546
1.27399
1.27248
1.27095
1.26939
1.26779
1.26615
1.26447
1.26275
1.26097
1.25914
1.25727
1.25538
1.25352
1.25192
1.27471
1.27341
1.27209
1.27075
1.26938
1.268
1.2666
1.26517
1.26372
1.26225
1.26075
1.25924
1.25769
1.25613
1.25453
1.25291
1.25127
1.24959
1.24788
1.24613
1.24435
1.24252
1.24065
1.23873
1.23676
1.23476
1.23275
1.2308
1.22919
1.25364
1.25227
1.25088
1.24947
1.24804
1.24659
1.24512
1.24363
1.24213
1.2406
1.23905
1.23748
1.23589
1.23428
1.23265
1.23099
1.22931
1.2276
1.22586
1.22409
1.22229
1.22045
1.21857
1.21665
1.21469
1.2127
1.21074
1.20889
1.20751
1.2303
1.22897
1.22762
1.22626
1.22488
1.22349
1.22209
1.22067
1.21924
1.21779
1.21632
1.21485
1.21335
1.21184
1.21032
1.20878
1.20722
1.20564
1.20404
1.20242
1.20077
1.19909
1.19738
1.19563
1.19386
1.19208
1.19038
1.18886
1.18801
1.20479
1.20367
1.20253
1.20138
1.20023
1.19907
1.1979
1.19672
1.19554
1.19435
1.19315
1.19195
1.19074
1.18952
1.18829
1.18706
1.18582
1.18456
1.1833
1.18202
1.18073
1.17941
1.17807
1.17671
1.17534
1.17397
1.17273
1.17178
1.17179
1.18135
1.18053
1.1797
1.17887
1.17804
1.1772
1.17637
1.17554
1.1747
1.17386
1.17303
1.17219
1.17136
1.17052
1.16969
1.16885
1.16801
1.16717
1.16632
1.16547
1.16461
1.16373
1.16283
1.16192
1.16101
1.16012
1.15941
1.15911
1.16018
1.16404
1.16353
1.16301
1.1625
1.16199
1.16149
1.16099
1.1605
1.16001
1.15953
1.15906
1.15859
1.15812
1.15767
1.15722
1.15677
1.15633
1.15589
1.15546
1.15502
1.15458
1.15413
1.15367
1.15319
1.15272
1.15228
1.15207
1.15242
1.15474
1.15379
1.15363
1.15346
1.15331
1.15317
1.15304
1.15292
1.15281
1.15271
1.15263
1.15255
1.15249
1.15244
1.1524
1.15238
1.15236
1.15235
1.15235
1.15235
1.15235
1.15234
1.15233
1.1523
1.15228
1.15229
1.15257
1.15357
1.15736
1.1541
1.15431
1.15453
1.15476
1.15501
1.15527
1.15555
1.15585
1.15616
1.15649
1.15683
1.1572
1.15758
1.15798
1.15839
1.15882
1.15926
1.15972
1.16018
1.16064
1.1611
1.16154
1.16197
1.16239
1.16284
1.16358
1.16522
1.17072
1.16846
1.16907
1.1697
1.17035
1.17102
1.17171
1.17242
1.17315
1.1739
1.17468
1.17548
1.1763
1.17714
1.17801
1.1789
1.1798
1.18073
1.18167
1.18261
1.18356
1.1845
1.18542
1.18631
1.18718
1.18805
1.1892
1.19142
1.19892
1.20339
1.20446
1.20554
1.20665
1.20779
1.20895
1.21014
1.21136
1.21261
1.21388
1.21518
1.21651
1.21787
1.21926
1.22067
1.2221
1.22356
1.22503
1.2265
1.22798
1.22944
1.23087
1.23225
1.23358
1.23484
1.23635
1.23902
1.24887
1.27104
1.27264
1.27427
1.27593
1.27762
1.27935
1.2811
1.2829
1.28472
1.28659
1.28848
1.29042
1.29238
1.29438
1.29641
1.29847
1.30054
1.30264
1.30474
1.30682
1.30889
1.3109
1.31281
1.31462
1.31626
1.31803
1.32093
1.33352
1.39778
1.40009
1.40243
1.40481
1.40723
1.4097
1.41221
1.41476
1.41736
1.42
1.42268
1.42541
1.42818
1.43099
1.43383
1.4367
1.4396
1.44251
1.44542
1.4483
1.45113
1.45386
1.45643
1.45879
1.46078
1.46267
1.46534
1.48103
1.65549
1.65891
1.66238
1.66591
1.6695
1.67314
1.67684
1.6806
1.68442
1.6883
1.69223
1.69622
1.70027
1.70436
1.7085
1.71267
1.71687
1.72106
1.72524
1.72935
1.73336
1.73718
1.74069
1.74377
1.74607
1.74773
1.74903
1.76734
2.3337
2.33962
2.34563
2.35172
2.35791
2.36419
2.37057
2.37704
2.3836
2.39026
2.397
2.40383
2.41074
2.41772
2.42476
2.43183
2.43891
2.44596
2.45292
2.45972
2.46624
2.47232
2.47767
2.48194
2.48428
2.48404
2.47956
2.48992
5.92763
5.9452
5.96302
5.9811
5.99943
6.01801
6.03685
6.05595
6.07529
6.09487
6.11467
6.13467
6.15483
6.17512
6.19546
6.21578
6.23593
6.25576
6.275
6.29328
6.31013
6.32453
6.33561
6.33979
6.33609
6.30533
6.23806
5.98458
2.90152
2.98321
3.0637
3.13312
3.18615
3.23124
3.27465
3.31754
3.35987
3.40265
3.44812
3.49689
3.55004
3.60853
3.67315
3.74437
3.82305
3.90908
4.00529
4.10821
4.23219
4.3495
4.53405
4.64127
5.08282
1.44167
1.44948
1.46305
1.48024
1.49773
1.51402
1.52923
1.54367
1.55756
1.57128
1.58558
1.60046
1.61626
1.63334
1.65201
1.67254
1.69511
1.72004
1.74737
1.77808
1.81218
1.85091
1.89579
1.94919
2.02745
1.21561
1.219
1.22494
1.23327
1.24272
1.25214
1.26109
1.2695
1.27742
1.285
1.2926
1.30035
1.30847
1.31718
1.32668
1.33716
1.34871
1.36153
1.37564
1.39155
1.40917
1.42956
1.45226
1.48144
1.5156
1.15835
1.16109
1.16482
1.16989
1.17586
1.18203
1.188
1.1936
1.19879
1.20363
1.2083
1.21296
1.21776
1.22288
1.22848
1.2347
1.24163
1.24938
1.258
1.26779
1.27872
1.29151
1.3057
1.32453
1.34476
1.14954
1.15216
1.155
1.15848
1.16252
1.16675
1.17088
1.17473
1.17823
1.1814
1.18434
1.18717
1.19002
1.19305
1.19638
1.20013
1.20438
1.20921
1.21468
1.22098
1.22812
1.23663
1.24613
1.25916
1.27269
1.15937
1.16192
1.16432
1.16692
1.1698
1.17277
1.17563
1.17827
1.18061
1.18263
1.1844
1.186
1.18755
1.18918
1.191
1.1931
1.19557
1.19847
1.20184
1.20584
1.21047
1.21616
1.2226
1.23187
1.24137
1.17707
1.1795
1.18161
1.18369
1.18582
1.18793
1.18993
1.1917
1.1932
1.1944
1.19532
1.19606
1.1967
1.19734
1.19809
1.19903
1.20022
1.20174
1.20362
1.20597
1.20882
1.21252
1.21677
1.2234
1.23014
1.19783
1.20008
1.20198
1.20371
1.20535
1.20689
1.20826
1.20942
1.21031
1.21091
1.21124
1.21135
1.21133
1.21127
1.21124
1.21134
1.21161
1.21211
1.21289
1.21404
1.21555
1.21778
1.2204
1.22508
1.22978
1.21926
1.22131
1.22302
1.22449
1.2258
1.22694
1.2279
1.22862
1.22908
1.22925
1.22916
1.22883
1.22835
1.22778
1.2272
1.22669
1.22628
1.22604
1.226
1.22625
1.22676
1.22789
1.22925
1.23246
1.23555
1.24012
1.24195
1.24348
1.24476
1.24583
1.2467
1.24736
1.24779
1.24795
1.24784
1.24746
1.24684
1.24605
1.24513
1.24417
1.24322
1.24233
1.24155
1.2409
1.24048
1.24024
1.24053
1.24093
1.243
1.24481
1.25972
1.26133
1.26269
1.26381
1.26471
1.2654
1.26588
1.26611
1.26608
1.26579
1.26523
1.26444
1.26344
1.26231
1.26109
1.25985
1.25862
1.25746
1.25637
1.25546
1.25467
1.25433
1.25399
1.25518
1.25595
1.27772
1.27913
1.28033
1.28131
1.28209
1.28266
1.28302
1.28313
1.283
1.28261
1.28197
1.28108
1.27998
1.27873
1.27737
1.27594
1.2745
1.27308
1.2717
1.27044
1.26924
1.26845
1.26754
1.26805
1.26796
1.29399
1.2952
1.29625
1.29712
1.29781
1.29831
1.29859
1.29865
1.29848
1.29806
1.29739
1.29648
1.29536
1.29406
1.29264
1.29112
1.28956
1.28798
1.28641
1.28493
1.28345
1.28233
1.281
1.28098
1.2802
1.30848
1.30952
1.31044
1.31122
1.31184
1.31228
1.31254
1.31259
1.31242
1.31201
1.31137
1.31049
1.3094
1.30813
1.30671
1.30518
1.30357
1.30192
1.30024
1.29863
1.29697
1.29563
1.294
1.29359
1.29223
1.32125
1.32214
1.32294
1.32364
1.32421
1.32463
1.32488
1.32495
1.32481
1.32446
1.32388
1.32308
1.32206
1.32086
1.31949
1.318
1.31641
1.31475
1.31304
1.31137
1.30961
1.30814
1.3063
1.3056
1.30378
1.33239
1.33314
1.33385
1.33448
1.33501
1.33542
1.33569
1.33579
1.33571
1.33544
1.33495
1.33425
1.33334
1.33224
1.33097
1.32956
1.32802
1.32641
1.32472
1.32305
1.32125
1.31972
1.31774
1.31685
1.31465
1.342
1.34265
1.34327
1.34384
1.34435
1.34476
1.34505
1.34521
1.3452
1.34502
1.34465
1.34407
1.34329
1.34231
1.34116
1.33985
1.33842
1.33689
1.33526
1.33362
1.33184
1.3303
1.32825
1.32722
1.32473
1.35022
1.35078
1.35133
1.35186
1.35235
1.35277
1.35309
1.35331
1.35339
1.3533
1.35305
1.3526
1.35196
1.35112
1.35011
1.34893
1.34761
1.34619
1.34465
1.34309
1.34136
1.33984
1.33777
1.33666
1.33394
1.35718
1.35767
1.35816
1.35866
1.35913
1.35957
1.35993
1.3602
1.36037
1.36039
1.36025
1.35994
1.35944
1.35876
1.35789
1.35685
1.35566
1.35436
1.35292
1.35146
1.34981
1.34834
1.34629
1.34514
1.34224
1.363
1.36344
1.36389
1.36436
1.36483
1.36527
1.36568
1.36601
1.36625
1.36638
1.36636
1.36618
1.36583
1.36529
1.36456
1.36367
1.36262
1.36144
1.36012
1.35877
1.35721
1.35582
1.3538
1.35264
1.34961
1.36782
1.36821
1.36863
1.36908
1.36954
1.37001
1.37045
1.37084
1.37116
1.37138
1.37147
1.37142
1.3712
1.3708
1.37021
1.36946
1.36854
1.36749
1.3663
1.36505
1.36359
1.36228
1.36031
1.35916
1.35604
1.37174
1.37209
1.37249
1.37292
1.37339
1.37387
1.37434
1.37479
1.37518
1.37548
1.37568
1.37574
1.37564
1.37537
1.37492
1.37429
1.3735
1.37257
1.37149
1.37035
1.36899
1.36777
1.36585
1.36473
1.36154
1.37487
1.37519
1.37557
1.37599
1.37646
1.37695
1.37746
1.37795
1.3784
1.37878
1.37907
1.37923
1.37923
1.37907
1.37873
1.37822
1.37754
1.37672
1.37575
1.37471
1.37344
1.37229
1.37044
1.36934
1.36612
1.37728
1.37758
1.37794
1.37836
1.37883
1.37934
1.37987
1.3804
1.3809
1.38135
1.3817
1.38194
1.38204
1.38197
1.38173
1.38131
1.38073
1.38
1.37911
1.37816
1.37697
1.3759
1.3741
1.37303
1.36978
1.37904
1.37933
1.37969
1.3801
1.38058
1.3811
1.38165
1.38221
1.38275
1.38324
1.38365
1.38396
1.38412
1.38413
1.38396
1.38362
1.3831
1.38245
1.38163
1.38075
1.37962
1.3786
1.37685
1.37579
1.37255
1.38022
1.3805
1.38085
1.38127
1.38174
1.38227
1.38284
1.38342
1.38398
1.38451
1.38496
1.38531
1.38552
1.38557
1.38545
1.38516
1.3847
1.38409
1.38332
1.38249
1.3814
1.38042
1.37871
1.37766
1.37443
1.38084
1.38112
1.38147
1.38189
1.38237
1.3829
1.38348
1.38407
1.38465
1.38519
1.38566
1.38603
1.38626
1.38634
1.38625
1.38598
1.38554
1.38496
1.38422
1.3834
1.38235
1.38138
1.3797
1.37863
1.37543
1.38094
1.38122
1.38158
1.382
1.38248
1.38302
1.3836
1.38419
1.38477
1.38532
1.38579
1.38615
1.38639
1.38646
1.38636
1.38609
1.38565
1.38507
1.38433
1.38352
1.38247
1.3815
1.37984
1.37872
1.37558
1.38028
1.38058
1.38094
1.38137
1.38186
1.3824
1.38297
1.38355
1.38412
1.38464
1.38508
1.38541
1.38561
1.38564
1.38551
1.3852
1.38472
1.3841
1.38333
1.38248
1.38141
1.3804
1.37873
1.37757
1.37448
1.37884
1.37916
1.37954
1.37998
1.38047
1.381
1.38156
1.38212
1.38265
1.38312
1.38351
1.38377
1.3839
1.38386
1.38364
1.38326
1.3827
1.38201
1.38118
1.38026
1.37913
1.37807
1.37637
1.37516
1.37211
1.37655
1.3769
1.3773
1.37776
1.37825
1.37878
1.37931
1.37983
1.38031
1.38071
1.38101
1.38118
1.3812
1.38105
1.38072
1.38023
1.37957
1.37878
1.37784
1.37684
1.37563
1.37449
1.37273
1.37147
1.36847
1.37332
1.3737
1.37414
1.37462
1.37512
1.37564
1.37614
1.3766
1.37701
1.37732
1.37751
1.37756
1.37744
1.37715
1.37668
1.37604
1.37525
1.37433
1.37328
1.37216
1.37085
1.36961
1.36779
1.36648
1.36353
1.36901
1.36946
1.36994
1.37044
1.37096
1.37146
1.37192
1.37232
1.37264
1.37284
1.3729
1.37279
1.37251
1.37205
1.37142
1.37062
1.36967
1.3686
1.36741
1.36617
1.36474
1.36341
1.36151
1.36016
1.35729
1.36349
1.36401
1.36455
1.36509
1.36562
1.3661
1.36652
1.36685
1.36706
1.36713
1.36703
1.36675
1.36629
1.36564
1.36482
1.36384
1.36273
1.36151
1.36017
1.3588
1.35725
1.35582
1.35386
1.35249
1.34974
1.35657
1.35718
1.35779
1.35838
1.35893
1.3594
1.35977
1.36001
1.3601
1.36003
1.35976
1.3593
1.35864
1.35779
1.35678
1.35561
1.35433
1.35295
1.35147
1.34998
1.34833
1.34682
1.34481
1.34345
1.34086
1.34806
1.34879
1.34949
1.35014
1.35071
1.35116
1.35148
1.35163
1.3516
1.35137
1.35093
1.35027
1.34941
1.34836
1.34715
1.34581
1.34436
1.34285
1.34125
1.33965
1.33792
1.33636
1.33434
1.33304
1.33067
1.33775
1.33862
1.33943
1.34015
1.34075
1.34119
1.34146
1.34152
1.34137
1.34098
1.34036
1.33951
1.33845
1.33721
1.33582
1.33433
1.33274
1.33112
1.32943
1.32777
1.326
1.32444
1.32246
1.32129
1.31922
1.32543
1.32648
1.32742
1.32822
1.32886
1.3293
1.32952
1.32949
1.32922
1.32869
1.3279
1.32687
1.32563
1.32423
1.3227
1.32108
1.31941
1.31772
1.31599
1.31432
1.31257
1.31108
1.30923
1.30826
1.30659
1.31094
1.31218
1.31327
1.31417
1.31485
1.3153
1.31548
1.31539
1.31501
1.31435
1.31342
1.31225
1.31087
1.30935
1.30772
1.30604
1.30434
1.30265
1.30096
1.29936
1.29772
1.29638
1.29475
1.29411
1.29296
1.29412
1.29558
1.29683
1.29784
1.29858
1.29905
1.29922
1.29909
1.29864
1.2979
1.29688
1.29561
1.29415
1.29257
1.29092
1.28925
1.28761
1.28601
1.28445
1.28303
1.2816
1.28055
1.27926
1.27911
1.27862
1.27492
1.27662
1.27803
1.27916
1.27999
1.2805
1.2807
1.28058
1.28013
1.27937
1.27831
1.27703
1.27557
1.27402
1.27245
1.2709
1.26942
1.26804
1.26675
1.26563
1.26456
1.26395
1.26316
1.26369
1.26403
1.25343
1.25537
1.25696
1.25822
1.25916
1.25978
1.26008
1.26004
1.25967
1.25898
1.25799
1.25679
1.25545
1.25406
1.25269
1.2514
1.25023
1.24923
1.24835
1.24772
1.24719
1.24722
1.24714
1.2486
1.24997
1.231
1.23318
1.23494
1.23636
1.23747
1.23826
1.23875
1.23891
1.23874
1.23823
1.23745
1.23646
1.23537
1.23428
1.23326
1.2324
1.23171
1.23125
1.23097
1.23103
1.23124
1.23214
1.23297
1.23565
1.23826
1.20967
1.21206
1.21398
1.2156
1.21694
1.21801
1.21881
1.21929
1.21942
1.21923
1.21877
1.21813
1.21742
1.21676
1.21624
1.21594
1.21589
1.21613
1.21662
1.21753
1.21866
1.22062
1.22257
1.22668
1.23071
1.19057
1.19312
1.19521
1.19708
1.19876
1.20023
1.20146
1.20238
1.20296
1.2032
1.20318
1.203
1.20281
1.20271
1.20283
1.20323
1.20395
1.20504
1.20647
1.2084
1.21063
1.21384
1.2171
1.22287
1.22854
1.1748
1.17748
1.17976
1.18197
1.18411
1.18612
1.18792
1.18941
1.19055
1.19134
1.19188
1.1923
1.19273
1.19333
1.19421
1.19546
1.19711
1.19921
1.20173
1.20486
1.20838
1.21304
1.21784
1.22551
1.2331
1.16362
1.16639
1.16891
1.17158
1.17435
1.17706
1.17957
1.18177
1.18359
1.18505
1.18626
1.18738
1.18858
1.19
1.1918
1.19404
1.19677
1.20005
1.20384
1.20837
1.21339
1.21973
1.22633
1.23619
1.24606
1.15853
1.16136
1.1642
1.16753
1.17112
1.1747
1.17809
1.18112
1.18375
1.186
1.18801
1.18997
1.19205
1.19446
1.19731
1.20072
1.20471
1.20937
1.21465
1.2208
1.22757
1.23587
1.24458
1.25698
1.26962
1.16143
1.16435
1.16769
1.17192
1.17657
1.18123
1.18565
1.18968
1.19324
1.19642
1.19937
1.20231
1.20544
1.20899
1.2131
1.21788
1.22336
1.22964
1.23667
1.24473
1.25358
1.2642
1.27542
1.29082
1.30692
1.17502
1.17815
1.18226
1.18773
1.19373
1.1997
1.20536
1.21055
1.21522
1.21949
1.22355
1.22766
1.23205
1.23697
1.24258
1.24899
1.25626
1.26448
1.27362
1.284
1.29536
1.3088
1.32308
1.34213
1.3627
1.20345
1.20708
1.21239
1.21956
1.22728
1.23485
1.242
1.24858
1.25458
1.26017
1.26559
1.27113
1.27707
1.28367
1.29112
1.29956
1.30904
1.31968
1.33144
1.34471
1.3592
1.37619
1.39436
1.41801
1.44461
1.25378
1.25847
1.26566
1.27518
1.28513
1.2947
1.30369
1.312
1.31968
1.32694
1.33409
1.34145
1.34937
1.35815
1.36798
1.37905
1.39139
1.40517
1.42036
1.43743
1.45606
1.47772
1.5011
1.53085
1.56606
1.33942
1.34623
1.35642
1.36929
1.38221
1.39439
1.40581
1.41643
1.42635
1.43588
1.44539
1.45527
1.46591
1.47768
1.49082
1.50552
1.52186
1.54004
1.56004
1.58245
1.60696
1.63524
1.66616
1.70459
1.75307
1.4898
1.50078
1.51606
1.53401
1.55119
1.56714
1.5821
1.59614
1.60941
1.62239
1.6355
1.64921
1.66403
1.6804
1.69862
1.71895
1.74149
1.76651
1.79405
1.82483
1.85866
1.89735
1.94053
1.99247
2.06399
1.78536
1.80519
1.83049
1.85725
1.88151
1.90387
1.92501
1.94509
1.9644
1.98364
2.00329
2.02401
2.04647
2.07126
2.09882
2.12951
2.16354
2.20128
2.24291
2.28935
2.34094
2.39907
2.46637
2.54293
2.66277
2.54912
2.59353
2.64685
2.69404
2.73425
2.772
2.80832
2.84344
2.87795
2.91302
2.94927
2.98777
3.02964
3.0759
3.12736
3.18464
3.24831
3.31889
3.39738
3.48432
3.5834
3.69108
3.82602
3.96151
4.22568
6.5321
6.72851
6.95712
7.09741
7.20998
7.32452
7.43673
7.54723
7.65782
7.77112
7.88966
8.0167
8.15591
8.3103
8.4831
8.67513
8.89096
9.12687
9.39802
9.6824
10.0386
10.3661
10.8949
11.2222
12.3903
)
;

boundaryField
{
    inlet
    {
        type            fixedValue;
        value           nonuniform 0();
    }
    outlet
    {
        type            zeroGradient;
    }
    upperWall
    {
        Cmu             0.09;
        kappa           0.41;
        E               9.8;
        type            epsilonWallFunction;
        value           nonuniform List<scalar> 
53
(
5.92763
5.9452
5.96302
5.9811
5.99943
6.01801
6.03685
6.05595
6.07529
6.09487
6.11467
6.13467
6.15483
6.17512
6.19546
6.21578
6.23593
6.25576
6.275
6.29328
6.31013
6.32453
6.33561
6.33979
6.33609
6.30533
6.23806
5.98458
6.5321
6.72851
6.95712
7.09741
7.20998
7.32452
7.43673
7.54723
7.65782
7.77112
7.88966
8.0167
8.15591
8.3103
8.4831
8.67513
8.89096
9.12687
9.39802
9.6824
10.0386
10.3661
10.8949
11.2222
12.3903
)
;
    }
    lowerWall
    {
        Cmu             0.09;
        kappa           0.41;
        E               9.8;
        type            epsilonWallFunction;
        value           nonuniform List<scalar> 
55
(
2.83967
2.8422
2.84475
2.84733
2.84993
2.85256
2.8552
2.85786
2.86054
2.86322
2.86591
2.8686
2.87127
2.87392
2.87651
2.87904
2.88147
2.88375
2.88582
2.8876
2.88896
2.88974
2.88967
2.88834
2.88508
2.87867
2.86685
2.84475
2.80292
2.72254
2.90152
2.98321
3.0637
3.13312
3.18615
3.23124
3.27465
3.31754
3.35987
3.40265
3.44812
3.49689
3.55004
3.60853
3.67315
3.74437
3.82305
3.90908
4.00529
4.10821
4.23219
4.3495
4.53405
4.64127
5.08282
)
;
    }
    frontAndBack
    {
        type            empty;
    }
    procBoundary0to1
    {
        type            processor;
        value           nonuniform List<scalar> 
59
(
2.83717
1.40586
1.19913
1.15207
1.14975
1.16403
1.18479
1.20758
1.23027
1.25176
1.27151
1.28901
1.28901
1.30479
1.31861
1.33058
1.34093
1.34962
1.35668
1.36242
1.36705
1.37077
1.37372
1.37602
1.37776
1.37901
1.37983
1.38026
1.38032
1.3799
1.37898
1.3775
1.37543
1.37267
1.36914
1.36472
1.35928
1.35264
1.34464
1.33521
1.32412
1.31078
1.29472
1.27599
1.25499
1.23161
1.20591
1.18217
1.16456
1.15397
1.15397
1.15391
1.16786
1.20235
1.26947
1.39552
1.65212
2.32787
5.91031
)
;
    }
}


// ************************************************************************* //
