/*--------------------------------*- C++ -*----------------------------------*\
  =========                 |
  \\      /  F ield         | OpenFOAM: The Open Source CFD Toolbox
   \\    /   O peration     | Website:  https://openfoam.org
    \\  /    A nd           | Version:  6
     \\/     M anipulation  |
\*---------------------------------------------------------------------------*/
FoamFile
{
    version     2.0;
    format      ascii;
    class       volScalarField;
    location    "0.06";
    object      k;
}
// * * * * * * * * * * * * * * * * * * * * * * * * * * * * * * * * * * * * * //

dimensions      [0 2 -2 0 0 0 0];

internalField   nonuniform List<scalar> 
3080
(
0.0226529
0.0226427
0.0226325
0.0226222
0.0226118
0.0226012
0.0225905
0.0225797
0.0225687
0.0225575
0.0225461
0.0225344
0.0225224
0.02251
0.0224971
0.0224835
0.0224692
0.0224538
0.0224371
0.0224185
0.0223976
0.0223734
0.0223445
0.0223088
0.0222629
0.0222005
0.02211
0.0219664
0.0217207
0.0212743
0.0441507
0.0441264
0.044102
0.0440773
0.0440524
0.0440273
0.0440019
0.0439762
0.0439502
0.0439238
0.043897
0.0438697
0.0438418
0.0438133
0.0437839
0.0437535
0.0437217
0.0436883
0.0436526
0.0436141
0.0435716
0.0435239
0.0434686
0.0434023
0.0433195
0.0432101
0.0430542
0.0428179
0.0424065
0.0418428
0.0560645
0.0560327
0.0560007
0.0559684
0.0559359
0.055903
0.0558698
0.0558363
0.0558023
0.0557679
0.055733
0.0556975
0.0556614
0.0556245
0.0555866
0.0555475
0.055507
0.0554646
0.0554198
0.0553718
0.0553196
0.0552617
0.0551958
0.0551185
0.0550241
0.0549033
0.0547383
0.0544992
0.0541201
0.0535943
0.064684
0.0646469
0.0646094
0.0645717
0.0645337
0.0644953
0.0644565
0.0644173
0.0643777
0.0643376
0.0642969
0.0642556
0.0642136
0.0641707
0.0641268
0.0640816
0.0640349
0.0639863
0.0639351
0.0638807
0.0638221
0.0637576
0.0636851
0.0636013
0.0635009
0.0633754
0.0632096
0.0629794
0.0626418
0.0621961
0.0716309
0.0715898
0.0715484
0.0715067
0.0714647
0.0714222
0.0713794
0.0713361
0.0712923
0.0712479
0.071203
0.0711574
0.0711111
0.0710638
0.0710155
0.0709659
0.0709147
0.0708615
0.0708058
0.0707468
0.0706835
0.0706144
0.0705374
0.0704494
0.0703454
0.0702177
0.0700536
0.0698339
0.0695303
0.0691497
0.077482
0.0774383
0.0773942
0.0773497
0.0773048
0.0772596
0.0772139
0.0771677
0.077121
0.0770738
0.0770259
0.0769773
0.0769279
0.0768776
0.0768262
0.0767735
0.0767192
0.0766629
0.076604
0.0765419
0.0764755
0.0764034
0.0763237
0.0762332
0.0761276
0.0759999
0.0758395
0.0756311
0.0753564
0.0750271
0.0825136
0.0824681
0.0824223
0.0823762
0.0823296
0.0822826
0.0822352
0.0821872
0.0821387
0.0820897
0.08204
0.0819895
0.0819383
0.0818861
0.0818328
0.0817782
0.081722
0.0816638
0.0816031
0.0815391
0.081471
0.0813974
0.0813164
0.0812251
0.0811197
0.0809939
0.0808389
0.0806428
0.0803938
0.0801061
0.0868844
0.0868382
0.0867917
0.0867448
0.0866975
0.0866497
0.0866015
0.0865527
0.0865034
0.0864535
0.086403
0.0863517
0.0862996
0.0862466
0.0861925
0.086137
0.08608
0.086021
0.0859596
0.085895
0.0858264
0.0857525
0.0856716
0.0855811
0.0854773
0.0853551
0.085207
0.085024
0.0847986
0.0845459
0.0906988
0.0906527
0.0906063
0.0905594
0.0905122
0.0904645
0.0904163
0.0903676
0.0903184
0.0902685
0.090218
0.0901668
0.0901148
0.0900618
0.0900078
0.0899524
0.0898955
0.0898368
0.0897756
0.0897115
0.0896435
0.0895705
0.0894908
0.0894023
0.0893016
0.0891844
0.0890445
0.088875
0.0886716
0.0884492
0.094032
0.0939868
0.0939411
0.0938951
0.0938486
0.0938017
0.0937544
0.0937065
0.093658
0.093609
0.0935593
0.0935089
0.0934577
0.0934056
0.0933524
0.093298
0.0932421
0.0931844
0.0931244
0.0930616
0.0929951
0.092924
0.0928467
0.0927613
0.0926649
0.0925537
0.0924228
0.0922671
0.0920844
0.0918886
0.0969427
0.0968989
0.0968546
0.09681
0.096765
0.0967195
0.0966735
0.096627
0.09658
0.0965324
0.0964842
0.0964353
0.0963856
0.096335
0.0962834
0.0962306
0.0961764
0.0961205
0.0960624
0.0960017
0.0959376
0.0958692
0.0957951
0.0957136
0.0956224
0.0955181
0.095397
0.0952551
0.0950917
0.0949197
0.0994369
0.0993945
0.0993518
0.0993087
0.0992651
0.0992211
0.0991765
0.0991315
0.0990859
0.0990397
0.0989928
0.0989451
0.0988966
0.0988472
0.0987966
0.0987447
0.0986911
0.0986356
0.0985776
0.0985165
0.0984515
0.0983813
0.0983046
0.0982191
0.0981224
0.0980113
0.097883
0.0977378
0.0975871
0.101642
0.101602
0.101561
0.10152
0.101479
0.101437
0.101395
0.101353
0.101309
0.101266
0.101221
0.101176
0.10113
0.101083
0.101035
0.100986
0.100935
0.100883
0.100828
0.100771
0.10071
0.100644
0.100572
0.100493
0.100404
0.100303
0.100188
0.10006
0.0999286
0.103549
0.103511
0.103473
0.103435
0.103397
0.103358
0.103318
0.103278
0.103238
0.103197
0.103155
0.103113
0.10307
0.103026
0.102981
0.102935
0.102888
0.102839
0.102787
0.102734
0.102677
0.102616
0.10255
0.102478
0.102397
0.102306
0.102204
0.102091
0.101977
0.10519
0.105156
0.105121
0.105085
0.10505
0.105013
0.104977
0.10494
0.104902
0.104864
0.104826
0.104787
0.104747
0.104706
0.104664
0.104622
0.104578
0.104533
0.104485
0.104436
0.104384
0.104328
0.104268
0.104202
0.104129
0.104048
0.103958
0.10386
0.103761
0.106608
0.106576
0.106543
0.106511
0.106478
0.106444
0.10641
0.106376
0.106341
0.106306
0.10627
0.106234
0.106197
0.106159
0.106121
0.106081
0.10604
0.105998
0.105955
0.105909
0.105861
0.10581
0.105755
0.105695
0.10563
0.105558
0.105478
0.105393
0.105308
0.1078
0.107771
0.107742
0.107712
0.107682
0.107652
0.107621
0.10759
0.107559
0.107527
0.107494
0.107462
0.107428
0.107394
0.107359
0.107323
0.107286
0.107248
0.107209
0.107167
0.107124
0.107078
0.107029
0.106976
0.106918
0.106855
0.106786
0.106713
0.106641
0.108775
0.10875
0.108725
0.108699
0.108673
0.108647
0.108621
0.108594
0.108567
0.108539
0.108511
0.108482
0.108453
0.108423
0.108393
0.108362
0.10833
0.108297
0.108263
0.108227
0.108189
0.10815
0.108107
0.108062
0.108013
0.107959
0.107902
0.107841
0.107782
0.109572
0.109551
0.10953
0.109509
0.109487
0.109465
0.109443
0.109421
0.109398
0.109375
0.109352
0.109328
0.109303
0.109279
0.109253
0.109227
0.109201
0.109173
0.109144
0.109115
0.109083
0.10905
0.109015
0.108977
0.108937
0.108893
0.108846
0.108797
0.10875
0.11022
0.110204
0.110187
0.11017
0.110152
0.110135
0.110117
0.110099
0.110081
0.110062
0.110044
0.110024
0.110005
0.109985
0.109965
0.109944
0.109922
0.1099
0.109877
0.109853
0.109828
0.109801
0.109773
0.109743
0.10971
0.109676
0.109639
0.109601
0.109565
0.110744
0.110731
0.110718
0.110705
0.110692
0.110679
0.110665
0.110651
0.110637
0.110623
0.110608
0.110594
0.110579
0.110563
0.110548
0.110531
0.110515
0.110498
0.11048
0.110461
0.110442
0.110421
0.110399
0.110376
0.110351
0.110325
0.110297
0.110269
0.110243
0.111163
0.111154
0.111144
0.111135
0.111125
0.111115
0.111105
0.111095
0.111085
0.111074
0.111064
0.111053
0.111042
0.111031
0.111019
0.111007
0.110995
0.110982
0.110969
0.110956
0.110941
0.110926
0.11091
0.110893
0.110874
0.110855
0.110835
0.110816
0.110799
0.111492
0.111485
0.111479
0.111472
0.111466
0.111459
0.111452
0.111445
0.111438
0.111431
0.111424
0.111416
0.111409
0.111401
0.111393
0.111385
0.111377
0.111368
0.111359
0.111349
0.111339
0.111328
0.111317
0.111305
0.111293
0.11128
0.111266
0.111254
0.111244
0.111742
0.111738
0.111734
0.11173
0.111726
0.111722
0.111718
0.111713
0.111709
0.111705
0.1117
0.111696
0.111691
0.111686
0.111681
0.111676
0.111671
0.111665
0.111659
0.111653
0.111646
0.11164
0.111632
0.111625
0.111617
0.111608
0.111601
0.111594
0.111589
0.111924
0.111922
0.11192
0.111918
0.111915
0.111913
0.111911
0.111909
0.111906
0.111904
0.111902
0.111899
0.111897
0.111894
0.111891
0.111889
0.111886
0.111883
0.111879
0.111876
0.111872
0.111868
0.111864
0.111859
0.111855
0.11185
0.111847
0.111844
0.111844
0.112044
0.112043
0.112042
0.112041
0.112041
0.11204
0.112039
0.112038
0.112037
0.112036
0.112035
0.112034
0.112033
0.112032
0.112031
0.11203
0.112029
0.112027
0.112026
0.112024
0.112022
0.11202
0.112018
0.112015
0.112013
0.112012
0.112011
0.112011
0.112014
0.112107
0.112107
0.112107
0.112107
0.112106
0.112106
0.112106
0.112106
0.112106
0.112106
0.112106
0.112106
0.112105
0.112105
0.112105
0.112105
0.112104
0.112104
0.112103
0.112102
0.112101
0.1121
0.112099
0.112098
0.112097
0.112097
0.112098
0.1121
0.112105
0.112118
0.112118
0.112118
0.112118
0.112118
0.112118
0.112118
0.112118
0.112118
0.112117
0.112117
0.112117
0.112117
0.112117
0.112117
0.112116
0.112116
0.112116
0.112115
0.112114
0.112114
0.112113
0.112112
0.112111
0.11211
0.11211
0.112111
0.112114
0.112119
0.112058
0.112057
0.112056
0.112055
0.112054
0.112053
0.112052
0.112051
0.11205
0.112049
0.112048
0.112046
0.112045
0.112044
0.112042
0.112041
0.112039
0.112037
0.112036
0.112034
0.112031
0.112029
0.112027
0.112024
0.112022
0.11202
0.112019
0.11202
0.112023
0.111925
0.111922
0.111919
0.111916
0.111913
0.11191
0.111907
0.111903
0.1119
0.111897
0.111893
0.111889
0.111886
0.111882
0.111878
0.111874
0.11187
0.111865
0.111861
0.111856
0.111851
0.111845
0.111839
0.111834
0.111828
0.111822
0.111817
0.111814
0.111814
0.111713
0.111707
0.111701
0.111695
0.111689
0.111682
0.111676
0.111669
0.111662
0.111655
0.111648
0.111641
0.111633
0.111626
0.111618
0.11161
0.111601
0.111593
0.111584
0.111574
0.111565
0.111555
0.111544
0.111533
0.111521
0.11151
0.111499
0.111489
0.111483
0.111416
0.111405
0.111395
0.111384
0.111373
0.111362
0.111351
0.11134
0.111328
0.111316
0.111304
0.111292
0.111279
0.111266
0.111253
0.111239
0.111225
0.111211
0.111196
0.11118
0.111164
0.111147
0.11113
0.111111
0.111092
0.111072
0.111052
0.111034
0.111019
0.111023
0.111007
0.110991
0.110974
0.110957
0.11094
0.110923
0.110905
0.110887
0.110869
0.11085
0.110831
0.110811
0.110791
0.110771
0.11075
0.110729
0.110706
0.110684
0.11066
0.110635
0.11061
0.110583
0.110555
0.110525
0.110494
0.110463
0.110432
0.110406
0.110522
0.110499
0.110476
0.110452
0.110428
0.110403
0.110378
0.110352
0.110326
0.110299
0.110272
0.110244
0.110216
0.110187
0.110158
0.110127
0.110096
0.110064
0.110031
0.109997
0.109962
0.109925
0.109886
0.109846
0.109803
0.109759
0.109712
0.109666
0.109625
0.1099
0.109868
0.109836
0.109802
0.109769
0.109734
0.1097
0.109664
0.109628
0.109591
0.109553
0.109515
0.109475
0.109435
0.109394
0.109353
0.10931
0.109265
0.10922
0.109173
0.109124
0.109073
0.10902
0.108964
0.108905
0.108843
0.108778
0.108712
0.108653
0.109137
0.109094
0.109051
0.109007
0.108962
0.108916
0.108869
0.108821
0.108773
0.108723
0.108672
0.108621
0.108568
0.108515
0.10846
0.108404
0.108346
0.108287
0.108226
0.108163
0.108098
0.10803
0.107959
0.107884
0.107805
0.107722
0.107634
0.107545
0.107462
0.108213
0.108157
0.108101
0.108043
0.107984
0.107924
0.107863
0.107801
0.107737
0.107672
0.107607
0.107539
0.107471
0.107401
0.107329
0.107255
0.10718
0.107103
0.107024
0.106941
0.106856
0.106768
0.106676
0.106578
0.106476
0.106367
0.106252
0.106134
0.106023
0.107103
0.107032
0.106959
0.106885
0.10681
0.106733
0.106655
0.106576
0.106495
0.106412
0.106328
0.106242
0.106154
0.106064
0.105973
0.105879
0.105783
0.105684
0.105582
0.105478
0.105369
0.105257
0.105139
0.105015
0.104884
0.104746
0.104599
0.104447
0.104303
0.105796
0.105706
0.105615
0.105522
0.105427
0.10533
0.105232
0.105131
0.105029
0.104924
0.104818
0.104709
0.104598
0.104485
0.10437
0.104251
0.10413
0.104005
0.103877
0.103745
0.103609
0.103467
0.103319
0.103164
0.102999
0.102825
0.10264
0.102448
0.102262
0.104258
0.104146
0.104033
0.103917
0.103798
0.103678
0.103555
0.10343
0.103303
0.103173
0.10304
0.102905
0.102767
0.102626
0.102482
0.102335
0.102184
0.102029
0.10187
0.101706
0.101536
0.10136
0.101177
0.100984
0.100781
0.100565
0.100335
0.100095
0.0998615
0.102399
0.102263
0.102124
0.101983
0.101839
0.101692
0.101543
0.10139
0.101235
0.101077
0.100915
0.100751
0.100583
0.100411
0.100236
0.100056
0.0998725
0.0996841
0.0994907
0.0992915
0.0990858
0.0988726
0.0986504
0.0984175
0.0981717
0.0979106
0.0976324
0.0973396
0.0970517
0.100137
0.0999742
0.0998088
0.0996402
0.0994685
0.0992936
0.0991154
0.0989338
0.0987487
0.0985601
0.0983677
0.0981715
0.0979713
0.0977669
0.0975582
0.0973447
0.0971263
0.0969025
0.0966727
0.0964363
0.0961923
0.0959397
0.0956768
0.0954016
0.0951113
0.0948028
0.0944735
0.0941247
0.0937781
0.0974454
0.0972575
0.0970661
0.0968712
0.0966728
0.0964707
0.0962649
0.0960553
0.0958417
0.0956241
0.0954023
0.0951761
0.0949455
0.0947101
0.0944699
0.0942243
0.0939732
0.093716
0.0934522
0.093181
0.0929014
0.0926122
0.0923114
0.0919969
0.0916653
0.0913126
0.0909354
0.0905328
0.0901292
0.0943302
0.0941226
0.0939112
0.0936962
0.0934774
0.0932547
0.093028
0.0927973
0.0925624
0.0923232
0.0920796
0.0918314
0.0915784
0.0913204
0.0910572
0.0907885
0.0905138
0.0902327
0.0899446
0.0896487
0.0893439
0.0890288
0.0887014
0.0883592
0.0879984
0.087614
0.0872017
0.0867578
0.086309
0.0906737
0.0904566
0.0902359
0.0900116
0.0897835
0.0895516
0.0893159
0.0890762
0.0888323
0.0885843
0.0883318
0.0880749
0.0878133
0.0875468
0.0872752
0.0869981
0.0867151
0.0864258
0.0861295
0.0858254
0.0855123
0.0851889
0.084853
0.0845017
0.084131
0.0837349
0.0833081
0.0828433
0.0823695
0.0862764
0.0860668
0.0858539
0.0856379
0.0854185
0.0851958
0.0849697
0.0847401
0.0845068
0.0842698
0.084029
0.0837842
0.0835353
0.083282
0.0830242
0.0827614
0.0824934
0.0822197
0.0819395
0.0816522
0.0813565
0.081051
0.0807334
0.0804006
0.0800485
0.0796699
0.0792584
0.0788028
0.078334
0.0814629
0.0812717
0.0810779
0.0808813
0.080682
0.0804799
0.0802749
0.0800669
0.0798559
0.0796417
0.0794243
0.0792036
0.0789794
0.0787514
0.0785195
0.0782835
0.0780428
0.0777971
0.0775457
0.0772879
0.0770224
0.0767477
0.0764616
0.0761607
0.0758406
0.0754933
0.0751115
0.0746786
0.0742284
0.0767705
0.0765947
0.0764165
0.076236
0.076053
0.0758677
0.0756797
0.0754893
0.0752961
0.0751003
0.0749016
0.0746999
0.0744952
0.0742872
0.0740757
0.0738605
0.0736411
0.0734172
0.0731881
0.0729529
0.0727106
0.0724596
0.0721975
0.071921
0.0716252
0.0713013
0.0709409
0.070522
0.0700802
0.0718509
0.0716897
0.0715265
0.0713612
0.0711937
0.071024
0.0708521
0.0706779
0.0705014
0.0703223
0.0701407
0.0699563
0.0697691
0.0695787
0.069385
0.0691876
0.0689861
0.0687797
0.0685678
0.0683492
0.0681222
0.0678846
0.0676328
0.0673618
0.0670619
0.0667238
0.0663188
0.0658842
0.0670466
0.066903
0.0667575
0.0666102
0.066461
0.06631
0.066157
0.066002
0.0658449
0.0656856
0.0655241
0.0653602
0.0651938
0.0650246
0.0648524
0.0646769
0.0644975
0.0643138
0.0641249
0.0639297
0.0637265
0.0635131
0.0632858
0.0630394
0.0627635
0.0624474
0.0620559
0.0616257
0.0621634
0.0620371
0.0619093
0.0617798
0.0616488
0.0615161
0.0613818
0.0612457
0.0611078
0.060968
0.0608262
0.0606824
0.0605363
0.0603877
0.0602365
0.0600822
0.0599245
0.0597628
0.0595962
0.0594236
0.0592436
0.0590536
0.0588501
0.0586276
0.0583752
0.0580808
0.0577018
0.0572715
0.0571501
0.0570407
0.05693
0.0568179
0.0567045
0.0565896
0.0564733
0.0563555
0.0562361
0.0561151
0.0559924
0.0558678
0.0557413
0.0556126
0.0554815
0.0553476
0.0552107
0.05507
0.0549248
0.054774
0.0546161
0.0544487
0.054268
0.0540687
0.0538392
0.0535658
0.0531981
0.0527618
0.0519046
0.0518115
0.0517173
0.0516219
0.0515254
0.0514276
0.0513286
0.0512284
0.0511267
0.0510237
0.0509192
0.0508131
0.0507053
0.0505956
0.0504837
0.0503693
0.0502522
0.0501316
0.0500068
0.0498769
0.0497401
0.0495943
0.0494357
0.0492587
0.0490516
0.0487988
0.0484415
0.0479922
0.0462281
0.0461508
0.0460724
0.0459932
0.0459129
0.0458317
0.0457494
0.045666
0.0455815
0.0454958
0.0454089
0.0453205
0.0452307
0.0451392
0.0450458
0.0449503
0.0448521
0.0447509
0.0446459
0.044536
0.0444198
0.044295
0.0441579
0.0440029
0.0438184
0.0435862
0.0432395
0.0427702
0.0396896
0.0396279
0.0395654
0.0395021
0.0394381
0.0393732
0.0393075
0.0392408
0.0391733
0.0391048
0.0390352
0.0389645
0.0388926
0.0388192
0.0387442
0.0386673
0.0385881
0.0385062
0.0384209
0.0383313
0.0382357
0.0381323
0.0380174
0.0378853
0.0377252
0.0375158
0.0371834
0.0366938
0.0311089
0.0310643
0.0310192
0.0309736
0.0309273
0.0308805
0.030833
0.0307849
0.030736
0.0306865
0.0306361
0.0305848
0.0305326
0.0304793
0.0304247
0.0303685
0.0303106
0.0302504
0.0301873
0.0301205
0.0300488
0.0299702
0.0298819
0.029778
0.02965
0.0294733
0.0291761
0.0287097
0.0166655
0.016648
0.0166303
0.0166124
0.0165941
0.0165757
0.0165569
0.0165378
0.0165184
0.0164987
0.0164785
0.0164579
0.0164367
0.0164149
0.0163924
0.016369
0.0163444
0.0163183
0.0162903
0.0162598
0.0162259
0.0161869
0.0161414
0.0160834
0.0160112
0.0158928
0.0157124
0.0152175
0.0220394
0.0223232
0.0225878
0.0227852
0.0228913
0.0229486
0.0229872
0.0230125
0.023024
0.0230245
0.023024
0.0230238
0.0230272
0.023037
0.0230549
0.0230808
0.0231159
0.023157
0.0232118
0.0232636
0.0233617
0.0233994
0.0236342
0.023555
0.0245232
0.0428279
0.0433216
0.0436002
0.0437895
0.043893
0.0439279
0.0439167
0.0438702
0.0437928
0.0436877
0.0435638
0.0434321
0.043298
0.0431647
0.0430331
0.0429017
0.0427702
0.0426329
0.0424979
0.0423428
0.0422187
0.0420198
0.0419832
0.0416689
0.0423962
0.0542889
0.0547939
0.0551079
0.0553192
0.0554422
0.0554898
0.0554784
0.0554188
0.0553174
0.05518
0.0550144
0.0548321
0.054641
0.0544462
0.0542501
0.0540517
0.0538504
0.0536411
0.0534296
0.053198
0.0529854
0.052712
0.0525617
0.0522177
0.0527677
0.0627018
0.0631505
0.063445
0.0636439
0.0637614
0.0638059
0.0637885
0.0637174
0.0635991
0.0634396
0.0632465
0.0630305
0.0628002
0.0625618
0.0623187
0.0620708
0.0618176
0.0615549
0.0612863
0.0609989
0.060721
0.0603963
0.0601607
0.059805
0.0601976
0.0695377
0.0699288
0.0701933
0.0703706
0.0704733
0.0705077
0.0704806
0.0703985
0.0702665
0.0700904
0.0698772
0.0696365
0.0693772
0.0691058
0.0688263
0.0685394
0.0682448
0.0679392
0.0676249
0.0672922
0.0669618
0.0665944
0.0662908
0.0659183
0.0661779
0.0753344
0.075674
0.0759081
0.0760628
0.0761489
0.076171
0.0761338
0.0760419
0.0758994
0.0757114
0.075484
0.075226
0.0749456
0.0746498
0.0743426
0.0740256
0.0736985
0.0733589
0.073008
0.0726387
0.0722661
0.0718631
0.0715046
0.0711126
0.0712581
0.0803534
0.0806475
0.0808528
0.0809865
0.0810567
0.0810672
0.081021
0.0809215
0.0807718
0.0805762
0.08034
0.0800708
0.0797765
0.0794637
0.0791367
0.0787974
0.0784459
0.0780802
0.077701
0.0773031
0.0768972
0.0764655
0.0760628
0.0756514
0.075698
0.0847462
0.0849994
0.0851783
0.0852929
0.085349
0.0853495
0.0852964
0.0851918
0.0850383
0.0848391
0.0845988
0.0843242
0.0840222
0.0836991
0.0833593
0.0830048
0.0826361
0.0822518
0.0818519
0.0814328
0.0810016
0.0805478
0.0801102
0.0796812
0.0796415
0.0886114
0.0888281
0.0889825
0.08908
0.0891242
0.0891167
0.0890588
0.0889518
0.0887975
0.0885986
0.0883586
0.0880834
0.0877792
0.0874518
0.0871055
0.0867424
0.0863632
0.0859669
0.0855531
0.0851195
0.0846704
0.0842008
0.0837364
0.0832926
0.0831775
0.0920196
0.0922035
0.0923356
0.0924178
0.0924519
0.0924385
0.092378
0.0922712
0.0921191
0.0919237
0.0916878
0.0914164
0.0911148
0.0907885
0.0904412
0.0900754
0.0896916
0.0892893
0.0888679
0.0884261
0.0879656
0.0874861
0.087002
0.0865461
0.0863659
0.0950248
0.0951796
0.0952914
0.0953602
0.0953859
0.0953684
0.0953074
0.0952029
0.0950555
0.0948665
0.0946381
0.0943742
0.0940795
0.0937587
0.0934154
0.0930518
0.0926688
0.092266
0.0918426
0.091398
0.0909319
0.0904478
0.0899504
0.0894856
0.0892495
0.0976708
0.0977999
0.0978937
0.0979506
0.0979695
0.0979495
0.0978896
0.0977894
0.0976489
0.0974687
0.0972506
0.0969973
0.096713
0.0964016
0.0960665
0.0957097
0.095332
0.0949334
0.0945128
0.0940703
0.0936038
0.0931197
0.0926148
0.0921444
0.0918604
0.0999947
0.100101
0.100179
0.100226
0.100239
0.100218
0.100161
0.100067
0.0999346
0.0997653
0.0995596
0.0993195
0.0990484
0.0987497
0.0984262
0.09808
0.0977115
0.0973211
0.0969075
0.0964713
0.0960089
0.0955288
0.0950212
0.0945486
0.094224
0.102029
0.102116
0.10218
0.102218
0.102227
0.102206
0.102153
0.102065
0.101943
0.101786
0.101595
0.10137
0.101114
0.100831
0.100522
0.100189
0.0998329
0.0994541
0.099051
0.0986246
0.0981699
0.0976974
0.0971913
0.0967193
0.0963607
0.103801
0.103872
0.103924
0.103955
0.103961
0.103941
0.103892
0.103813
0.103702
0.103558
0.103382
0.103173
0.102935
0.102669
0.102376
0.102059
0.101718
0.101354
0.100964
0.10055
0.100106
0.0996443
0.0991431
0.0986744
0.0982877
0.105338
0.105396
0.105438
0.105463
0.105467
0.105449
0.105405
0.105334
0.105234
0.105105
0.104944
0.104753
0.104533
0.104285
0.104011
0.103712
0.103388
0.103039
0.102665
0.102266
0.101835
0.101386
0.100892
0.100429
0.100019
0.106664
0.10671
0.106744
0.106764
0.106767
0.106751
0.106713
0.106651
0.106563
0.106447
0.106303
0.10613
0.105929
0.1057
0.105445
0.105164
0.104858
0.104528
0.10417
0.103787
0.103371
0.102936
0.102452
0.101996
0.101568
0.107799
0.107836
0.107864
0.10788
0.107883
0.107869
0.107837
0.107784
0.107708
0.107606
0.107478
0.107323
0.10714
0.106931
0.106695
0.106434
0.106146
0.105834
0.105494
0.105128
0.104728
0.104308
0.103836
0.103388
0.102946
0.108764
0.108794
0.108816
0.10883
0.108833
0.108823
0.108796
0.108752
0.108686
0.108598
0.108486
0.108348
0.108184
0.107993
0.107777
0.107534
0.107266
0.106971
0.106649
0.106301
0.105917
0.105513
0.105052
0.104614
0.104161
0.109577
0.1096
0.109619
0.109631
0.109635
0.109627
0.109607
0.10957
0.109515
0.10944
0.109343
0.109221
0.109074
0.108902
0.108704
0.10848
0.108229
0.107953
0.107648
0.107317
0.106949
0.10656
0.106112
0.105683
0.105222
0.110253
0.110272
0.110288
0.110299
0.110303
0.110299
0.110284
0.110255
0.11021
0.110147
0.110063
0.109956
0.109825
0.10967
0.109489
0.109282
0.109049
0.108789
0.108501
0.108186
0.107834
0.10746
0.107023
0.106604
0.106137
0.110808
0.110823
0.110837
0.110847
0.110852
0.110851
0.11084
0.110818
0.110782
0.11073
0.110658
0.110565
0.110449
0.110308
0.110143
0.109952
0.109734
0.10949
0.109217
0.108917
0.108579
0.108218
0.107793
0.107383
0.106912
0.111252
0.111265
0.111277
0.111287
0.111294
0.111295
0.111289
0.111273
0.111244
0.111201
0.111139
0.111058
0.110955
0.110827
0.110675
0.110498
0.110294
0.110063
0.109803
0.109516
0.109191
0.108843
0.108428
0.108025
0.107552
0.111597
0.111609
0.11162
0.11163
0.111637
0.111641
0.111638
0.111627
0.111605
0.111569
0.111516
0.111445
0.111352
0.111235
0.111094
0.110928
0.110735
0.110516
0.110268
0.109992
0.109677
0.109339
0.108933
0.108537
0.108062
0.111852
0.111862
0.111873
0.111883
0.111891
0.111897
0.111897
0.11189
0.111873
0.111843
0.111797
0.111732
0.111647
0.111539
0.111407
0.111249
0.111065
0.110855
0.110615
0.110348
0.110041
0.109711
0.109312
0.108921
0.108446
0.112022
0.112032
0.112042
0.112053
0.112062
0.112069
0.112072
0.112067
0.112053
0.112027
0.111985
0.111926
0.111846
0.111744
0.111617
0.111466
0.111288
0.111083
0.110849
0.110588
0.110288
0.109962
0.109569
0.10918
0.108706
0.112113
0.112122
0.112133
0.112144
0.112154
0.112162
0.112165
0.112163
0.11215
0.112126
0.112087
0.11203
0.111953
0.111853
0.11173
0.111581
0.111406
0.111205
0.110974
0.110716
0.110419
0.110096
0.109705
0.109317
0.108845
0.112127
0.112137
0.112148
0.11216
0.11217
0.112179
0.112183
0.11218
0.112169
0.112144
0.112105
0.112048
0.111971
0.111871
0.111748
0.111599
0.111424
0.111223
0.110992
0.110734
0.110437
0.110114
0.109725
0.109335
0.108865
0.112033
0.112044
0.112056
0.112068
0.112079
0.112087
0.112091
0.112087
0.112073
0.112046
0.112004
0.111943
0.111861
0.111757
0.111629
0.111476
0.111297
0.111091
0.110857
0.110594
0.110294
0.109967
0.109575
0.109181
0.108713
0.111824
0.111837
0.111851
0.111864
0.111875
0.111882
0.111884
0.111876
0.111858
0.111826
0.111777
0.111709
0.111619
0.111506
0.111369
0.111208
0.11102
0.110806
0.110563
0.110293
0.109985
0.109651
0.109252
0.108852
0.108386
0.111494
0.111511
0.111527
0.111541
0.111552
0.111557
0.111555
0.111543
0.111518
0.111478
0.111419
0.11134
0.111238
0.111113
0.110963
0.110789
0.110588
0.110362
0.110108
0.109826
0.109507
0.109161
0.108754
0.108346
0.10788
0.111032
0.111053
0.111071
0.111087
0.111098
0.111101
0.111095
0.111076
0.111042
0.110991
0.110919
0.110826
0.110709
0.110567
0.110401
0.11021
0.109994
0.109752
0.109482
0.109186
0.108852
0.108493
0.108073
0.107656
0.107192
0.110422
0.110448
0.11047
0.110488
0.110498
0.110499
0.110487
0.110461
0.110416
0.110351
0.110264
0.110153
0.110018
0.109857
0.109671
0.109461
0.109226
0.108965
0.108677
0.108363
0.108012
0.107638
0.107204
0.106775
0.106314
0.109644
0.109677
0.109705
0.109725
0.109736
0.109733
0.109715
0.109679
0.109621
0.109541
0.109436
0.109305
0.109148
0.108966
0.108758
0.108526
0.108269
0.107988
0.10768
0.107346
0.106977
0.106584
0.106135
0.105695
0.105238
0.108675
0.108718
0.108753
0.108777
0.108787
0.108781
0.108756
0.108709
0.108637
0.108539
0.108414
0.108261
0.108081
0.107874
0.107643
0.107387
0.107108
0.106805
0.106475
0.10612
0.105732
0.105321
0.104855
0.104404
0.103954
0.10749
0.107545
0.107588
0.107617
0.107628
0.107618
0.107585
0.107525
0.107438
0.107321
0.107174
0.106998
0.106793
0.106561
0.106305
0.106025
0.105722
0.105397
0.105045
0.10467
0.104261
0.103832
0.103351
0.102889
0.10245
0.106058
0.106127
0.106181
0.106215
0.106227
0.106213
0.106172
0.1061
0.105996
0.105859
0.105689
0.105488
0.105258
0.105001
0.10472
0.104416
0.10409
0.103743
0.10337
0.102975
0.102547
0.102101
0.101605
0.101136
0.10071
0.104346
0.104433
0.104498
0.104539
0.104552
0.104535
0.104484
0.104399
0.104278
0.104121
0.103928
0.103703
0.103447
0.103165
0.10286
0.102534
0.102187
0.101819
0.101427
0.101013
0.100568
0.100108
0.0995994
0.0991251
0.098719
0.102316
0.102423
0.102502
0.102551
0.102566
0.102544
0.102485
0.102386
0.102248
0.102071
0.101856
0.101606
0.101327
0.101022
0.100695
0.100349
0.0999824
0.099597
0.0991889
0.0987602
0.0983012
0.0978287
0.0973115
0.0968365
0.0964552
0.0999274
0.100057
0.100152
0.100209
0.100225
0.1002
0.100132
0.10002
0.0998656
0.099669
0.099433
0.0991619
0.0988611
0.0985358
0.0981901
0.0978266
0.0974453
0.0970463
0.0966257
0.0961862
0.0957171
0.0952376
0.0947155
0.0942454
0.093895
0.0971317
0.0972867
0.097398
0.0974636
0.0974824
0.0974535
0.0973771
0.0972535
0.0970836
0.0968696
0.0966149
0.0963251
0.0960063
0.0956647
0.0953048
0.0949291
0.0945375
0.0941299
0.093702
0.0932569
0.0927831
0.0923022
0.0917804
0.0913218
0.091009
0.0938736
0.0940561
0.0941847
0.0942592
0.09428
0.094248
0.0941644
0.0940303
0.0938475
0.093619
0.0933493
0.0930449
0.092713
0.0923603
0.0919917
0.0916098
0.091214
0.0908041
0.0903751
0.0899309
0.0894588
0.0889836
0.088468
0.0880291
0.0877606
0.0902475
0.090459
0.0906045
0.0906873
0.0907101
0.0906758
0.0905869
0.0904452
0.0902532
0.0900147
0.089735
0.0894219
0.0890832
0.0887263
0.0883559
0.0879748
0.087582
0.0871769
0.086754
0.0863181
0.0858548
0.085393
0.08489
0.0844787
0.0842596
0.0864564
0.086697
0.0868587
0.0869493
0.0869747
0.0869398
0.0868481
0.0867025
0.0865059
0.0862625
0.0859787
0.085663
0.0853239
0.0849692
0.0846037
0.0842299
0.0838464
0.0834526
0.083042
0.0826206
0.0821723
0.0817298
0.081245
0.0808659
0.0806983
0.082555
0.0828248
0.0830018
0.0830999
0.0831286
0.0830948
0.0830033
0.0828573
0.0826601
0.0824166
0.0821337
0.0818209
0.0814871
0.0811402
0.0807851
0.080424
0.080055
0.0796774
0.0792843
0.0788822
0.078454
0.0780353
0.0775736
0.0772288
0.0771145
0.078573
0.0788722
0.0790635
0.0791689
0.0792016
0.0791708
0.0790818
0.0789384
0.0787443
0.0785047
0.0782273
0.0779219
0.077598
0.0772635
0.0769232
0.0765791
0.0762288
0.0758714
0.0754997
0.0751206
0.0747165
0.0743247
0.07389
0.0735803
0.0735204
0.0745325
0.0748603
0.0750646
0.0751771
0.0752146
0.075188
0.0751036
0.0749654
0.0747774
0.0745451
0.0742767
0.0739826
0.0736723
0.0733538
0.0730318
0.0727079
0.0723793
0.0720451
0.0716977
0.0713443
0.0709672
0.0706044
0.0701999
0.0699247
0.0699198
0.0704469
0.0708003
0.071016
0.0711351
0.0711778
0.0711566
0.0710783
0.0709473
0.0707677
0.0705453
0.0702889
0.070009
0.0697152
0.0694156
0.0691145
0.0688132
0.0685085
0.0681995
0.0678784
0.0675525
0.0672046
0.0668718
0.0664998
0.0662578
0.0663079
0.0663166
0.0666917
0.0669172
0.0670424
0.0670903
0.0670748
0.0670036
0.0668811
0.0667118
0.0665015
0.0662593
0.0659959
0.0657209
0.0654422
0.0651638
0.0648867
0.0646075
0.0643249
0.0640316
0.0637342
0.0634169
0.0631144
0.0627769
0.0625658
0.0626707
0.0621277
0.0625205
0.0627538
0.0628843
0.0629367
0.062927
0.0628633
0.0627504
0.0625925
0.0623958
0.0621696
0.0619245
0.06167
0.0614138
0.0611594
0.0609076
0.0606548
0.0603995
0.0601347
0.0598663
0.0595806
0.059308
0.0590065
0.0588235
0.0589825
0.0578488
0.0582545
0.0584937
0.058628
0.0586837
0.0586792
0.058623
0.0585201
0.0583747
0.0581928
0.0579841
0.0577586
0.0575259
0.0572932
0.0570638
0.0568379
0.056612
0.0563843
0.0561486
0.0559093
0.0556557
0.0554125
0.0551481
0.0549899
0.0552026
0.053423
0.0538351
0.0540777
0.0542136
0.0542705
0.05427
0.0542211
0.0541285
0.0539963
0.0538302
0.0536401
0.0534356
0.0532257
0.0530174
0.0528136
0.0526141
0.0524156
0.0522156
0.0520093
0.051799
0.0515781
0.0513634
0.0511375
0.0509999
0.0512659
0.04875
0.0491587
0.0494009
0.0495348
0.0495898
0.0495918
0.0495498
0.0494676
0.0493494
0.0492002
0.0490299
0.0488476
0.0486619
0.0484789
0.0483015
0.0481289
0.0479581
0.0477862
0.0476096
0.0474283
0.0472409
0.0470539
0.0468683
0.0467465
0.0470661
0.0436425
0.0440306
0.0442658
0.0443926
0.0444417
0.0444445
0.044409
0.0443378
0.0442346
0.0441039
0.0439553
0.0437972
0.0436372
0.0434812
0.0433314
0.0431867
0.0430447
0.0429016
0.042756
0.0426042
0.042452
0.0422927
0.0421506
0.0420406
0.0424137
0.0376984
0.0380324
0.0382495
0.0383611
0.0383996
0.0384022
0.0383737
0.0383152
0.0382296
0.0381207
0.0379976
0.0378674
0.0377371
0.0376115
0.0374925
0.0373787
0.0372685
0.0371571
0.0370461
0.0369271
0.0368147
0.0366859
0.036595
0.0364953
0.0369233
0.0298066
0.0300166
0.0301984
0.0302861
0.0303121
0.0303176
0.030302
0.0302638
0.030205
0.0301293
0.0300439
0.0299543
0.029866
0.029783
0.0297068
0.029636
0.0295702
0.0295042
0.0294427
0.0293729
0.0293193
0.0292406
0.0292268
0.0291555
0.0296523
0.0159967
0.0162237
0.0164916
0.0166091
0.0166746
0.0167354
0.0167848
0.0168234
0.0168535
0.0168779
0.0168994
0.0169217
0.0169488
0.0169837
0.0170291
0.0170847
0.0171542
0.0172303
0.0173291
0.01742
0.0175695
0.0176545
0.0179319
0.0179457
0.0187908
)
;

boundaryField
{
    inlet
    {
        type            fixedValue;
        value           nonuniform 0();
    }
    outlet
    {
        type            zeroGradient;
    }
    upperWall
    {
        type            kqRWallFunction;
        value           nonuniform List<scalar> 
53
(