/*--------------------------------*- C++ -*----------------------------------*\
  =========                 |
  \\      /  F ield         | OpenFOAM: The Open Source CFD Toolbox
   \\    /   O peration     | Website:  https://openfoam.org
    \\  /    A nd           | Version:  6
     \\/     M anipulation  |
\*---------------------------------------------------------------------------*/
FoamFile
{
    version     2.0;
    format      ascii;
    class       volScalarField;
    location    "0.06";
    object      nut;
}
// * * * * * * * * * * * * * * * * * * * * * * * * * * * * * * * * * * * * * //

dimensions      [0 2 -1 0 0 0 0];

internalField   nonuniform List<scalar> 
3080
(
1.62637e-05
1.62347e-05
1.62055e-05
1.61761e-05
1.61464e-05
1.61165e-05
1.60864e-05
1.6056e-05
1.60254e-05
1.59945e-05
1.59633e-05
1.59318e-05
1.59e-05
1.58679e-05
1.58354e-05
1.58024e-05
1.5769e-05
1.57349e-05
1.57002e-05
1.56647e-05
1.5628e-05
1.559e-05
1.55501e-05
1.55077e-05
1.54614e-05
1.54091e-05
1.53467e-05
1.52656e-05
1.51488e-05
1.49617e-05
0.000124728
0.000124529
0.000124328
0.000124126
0.000123922
0.000123716
0.000123508
0.000123298
0.000123086
0.000122872
0.000122655
0.000122436
0.000122213
0.000121987
0.000121756
0.000121521
0.000121279
0.00012103
0.000120771
0.000120499
0.000120211
0.000119899
0.000119555
0.00011916
0.000118688
0.000118085
0.000117233
0.000115915
0.000113473
0.000109475
0.000235862
0.000235542
0.00023522
0.000234895
0.000234567
0.000234236
0.000233902
0.000233565
0.000233223
0.000232878
0.000232528
0.000232174
0.000231814
0.000231448
0.000231074
0.000230692
0.000230299
0.000229892
0.000229468
0.000229022
0.000228547
0.000228031
0.000227459
0.000226804
0.000226022
0.000225034
0.000223681
0.000221666
0.000218273
0.000212847
0.000326843
0.000326453
0.000326059
0.000325661
0.000325261
0.000324856
0.000324447
0.000324034
0.000323616
0.000323194
0.000322766
0.000322332
0.00032189
0.000321441
0.000320983
0.000320514
0.00032003
0.000319531
0.000319009
0.00031846
0.000317875
0.00031724
0.000316535
0.000315732
0.000314778
0.000313589
0.000312004
0.000309737
0.000306229
0.000301087
0.00040167
0.000401238
0.000400801
0.000400361
0.000399917
0.000399469
0.000399016
0.000398558
0.000398095
0.000397627
0.000397152
0.00039667
0.000396181
0.000395683
0.000395174
0.000394653
0.000394116
0.000393561
0.000392982
0.000392372
0.000391722
0.000391017
0.000390237
0.00038935
0.000388305
0.000387017
0.000385341
0.000383029
0.000379686
0.000375156
0.000464241
0.000463784
0.000463324
0.00046286
0.000462391
0.000461918
0.00046144
0.000460957
0.000460468
0.000459973
0.000459472
0.000458964
0.000458447
0.00045792
0.000457383
0.000456832
0.000456266
0.000455679
0.000455068
0.000454424
0.000453738
0.000452996
0.000452176
0.000451248
0.000450161
0.000448839
0.000447151
0.000444901
0.000441816
0.00043789
0.000517295
0.000516827
0.000516355
0.000515879
0.000515399
0.000514914
0.000514424
0.000513928
0.000513427
0.00051292
0.000512406
0.000511884
0.000511354
0.000510814
0.000510263
0.000509698
0.000509117
0.000508516
0.000507889
0.00050723
0.000506529
0.000505771
0.000504936
0.000503994
0.000502901
0.000501584
0.000499936
0.000497801
0.000494997
0.0004916
0.000562739
0.000562268
0.000561794
0.000561316
0.000560834
0.000560346
0.000559854
0.000559356
0.000558853
0.000558343
0.000557826
0.000557302
0.000556769
0.000556226
0.000555672
0.000555105
0.000554521
0.000553917
0.000553287
0.000552626
0.000551923
0.000551166
0.000550334
0.0005494
0.000548322
0.000547039
0.000545461
0.000543467
0.000540941
0.000537991
0.000601935
0.00060147
0.000601001
0.000600528
0.000600051
0.000599568
0.000599081
0.000598589
0.00059809
0.000597586
0.000597074
0.000596555
0.000596027
0.00059549
0.000594941
0.00059438
0.000593802
0.000593204
0.000592582
0.000591929
0.000591236
0.000590491
0.000589675
0.000588763
0.000587719
0.000586489
0.000584999
0.000583158
0.000580892
0.000578324
0.000635888
0.000635433
0.000634976
0.000634514
0.000634048
0.000633577
0.000633101
0.000632619
0.000632132
0.000631639
0.000631139
0.000630631
0.000630115
0.00062959
0.000629054
0.000628505
0.00062794
0.000627357
0.00062675
0.000626113
0.000625439
0.000624715
0.000623926
0.000623047
0.000622049
0.000620884
0.000619494
0.000617808
0.000615784
0.000613542
0.00066536
0.000664922
0.00066448
0.000664035
0.000663584
0.00066313
0.00066267
0.000662205
0.000661734
0.000661257
0.000660774
0.000660283
0.000659784
0.000659276
0.000658758
0.000658227
0.000657682
0.000657118
0.000656533
0.00065592
0.000655271
0.000654576
0.000653821
0.000652985
0.00065204
0.000650949
0.000649664
0.000648131
0.000646329
0.00064437
0.000690535
0.000690113
0.000689688
0.000689257
0.000688823
0.000688383
0.000687938
0.000687488
0.000687032
0.000686569
0.0006861
0.000685623
0.000685137
0.000684641
0.000684133
0.000683612
0.000683073
0.000682514
0.000681929
0.000681311
0.000680652
0.000679937
0.000679149
0.000678265
0.000677253
0.000676074
0.000674691
0.000673092
0.00067138
0.000712758
0.000712358
0.000711955
0.000711548
0.000711137
0.000710721
0.0007103
0.000709874
0.000709442
0.000709003
0.000708559
0.000708107
0.000707646
0.000707176
0.000706696
0.000706202
0.000705692
0.000705164
0.000704611
0.000704029
0.000703409
0.000702738
0.000702004
0.000701184
0.000700254
0.000699182
0.00069794
0.000696527
0.000695033
0.00073199
0.000731616
0.000731238
0.000730857
0.000730471
0.000730082
0.000729687
0.000729287
0.000728882
0.000728471
0.000728054
0.00072763
0.000727198
0.000726757
0.000726306
0.000725843
0.000725366
0.000724871
0.000724355
0.000723811
0.000723233
0.000722611
0.000721932
0.000721179
0.000720331
0.000719364
0.000718257
0.000717013
0.000715712
0.000748573
0.000748226
0.000747876
0.000747522
0.000747165
0.000746803
0.000746437
0.000746066
0.00074569
0.000745308
0.000744921
0.000744527
0.000744126
0.000743716
0.000743297
0.000742867
0.000742424
0.000741966
0.000741487
0.000740985
0.000740451
0.00073988
0.000739258
0.000738573
0.000737806
0.000736941
0.00073596
0.000734871
0.000733742
0.000762937
0.000762615
0.00076229
0.000761962
0.00076163
0.000761294
0.000760953
0.000760609
0.000760259
0.000759904
0.000759543
0.000759177
0.000758803
0.000758422
0.000758032
0.000757632
0.000757221
0.000756794
0.000756351
0.000755886
0.000755394
0.000754868
0.000754299
0.000753675
0.000752984
0.000752209
0.000751341
0.000750387
0.000749405
0.00077506
0.000774768
0.000774473
0.000774175
0.000773874
0.000773569
0.00077326
0.000772947
0.000772629
0.000772306
0.000771978
0.000771645
0.000771305
0.000770958
0.000770603
0.000770239
0.000769865
0.000769477
0.000769075
0.000768653
0.000768208
0.000767733
0.000767222
0.000766665
0.000766051
0.000765368
0.00076461
0.000763784
0.00076294
0.00078502
0.000784766
0.00078451
0.000784252
0.000783991
0.000783726
0.000783458
0.000783185
0.000782909
0.000782628
0.000782343
0.000782053
0.000781757
0.000781454
0.000781145
0.000780828
0.000780502
0.000780164
0.000779813
0.000779446
0.000779059
0.000778647
0.000778204
0.000777723
0.000777195
0.000776611
0.000775967
0.00077527
0.000774563
0.00079319
0.000792978
0.000792765
0.000792549
0.000792331
0.00079211
0.000791887
0.000791659
0.000791428
0.000791194
0.000790955
0.000790712
0.000790464
0.000790211
0.000789952
0.000789686
0.000789412
0.000789129
0.000788834
0.000788526
0.000788201
0.000787856
0.000787485
0.000787082
0.000786642
0.000786157
0.000785624
0.000785052
0.000784474
0.000799865
0.000799695
0.000799524
0.000799352
0.000799177
0.000799
0.00079882
0.000798638
0.000798453
0.000798264
0.000798072
0.000797876
0.000797677
0.000797473
0.000797264
0.000797049
0.000796828
0.000796599
0.000796361
0.000796112
0.000795849
0.000795569
0.000795268
0.000794942
0.000794585
0.000794194
0.000793766
0.000793309
0.00079285
0.000805281
0.000805151
0.00080502
0.000804888
0.000804754
0.000804618
0.000804481
0.00080434
0.000804198
0.000804053
0.000803905
0.000803754
0.0008036
0.000803443
0.000803281
0.000803115
0.000802944
0.000802766
0.000802581
0.000802387
0.000802182
0.000801963
0.000801728
0.000801473
0.000801194
0.000800888
0.000800555
0.000800201
0.000799847
0.000809626
0.000809531
0.000809436
0.00080934
0.000809243
0.000809145
0.000809045
0.000808943
0.000808839
0.000808733
0.000808625
0.000808515
0.000808402
0.000808287
0.000808168
0.000808046
0.000807919
0.000807788
0.000807651
0.000807506
0.000807353
0.00080719
0.000807013
0.000806821
0.000806611
0.000806381
0.00080613
0.000805865
0.000805603
0.000813047
0.000812983
0.000812919
0.000812855
0.00081279
0.000812724
0.000812657
0.000812588
0.000812518
0.000812446
0.000812372
0.000812297
0.00081222
0.00081214
0.000812059
0.000811975
0.000811887
0.000811796
0.0008117
0.000811598
0.00081149
0.000811374
0.000811247
0.00081111
0.000810958
0.000810792
0.000810612
0.000810422
0.000810236
0.000815663
0.000815624
0.000815586
0.000815548
0.00081551
0.00081547
0.00081543
0.000815389
0.000815346
0.000815302
0.000815257
0.000815211
0.000815163
0.000815114
0.000815063
0.000815009
0.000814954
0.000814896
0.000814834
0.000814768
0.000814696
0.000814619
0.000814534
0.00081444
0.000814337
0.000814223
0.000814099
0.00081397
0.000813846
0.000817565
0.000817546
0.000817528
0.00081751
0.000817492
0.000817474
0.000817454
0.000817434
0.000817413
0.00081739
0.000817367
0.000817343
0.000817318
0.000817292
0.000817265
0.000817236
0.000817205
0.000817172
0.000817136
0.000817098
0.000817055
0.000817007
0.000816954
0.000816895
0.000816828
0.000816754
0.000816674
0.000816592
0.000816514
0.000818824
0.000818819
0.000818815
0.000818811
0.000818807
0.000818802
0.000818797
0.000818791
0.000818785
0.000818778
0.00081877
0.000818761
0.000818752
0.000818742
0.000818731
0.000818718
0.000818705
0.000818689
0.000818672
0.000818652
0.000818629
0.000818602
0.000818571
0.000818535
0.000818494
0.000818448
0.000818398
0.000818347
0.000818302
0.000819491
0.000819493
0.000819496
0.0008195
0.000819503
0.000819506
0.000819509
0.00081951
0.000819512
0.000819513
0.000819513
0.000819512
0.000819511
0.00081951
0.000819507
0.000819504
0.000819499
0.000819493
0.000819486
0.000819476
0.000819463
0.000819447
0.000819428
0.000819405
0.000819377
0.000819346
0.000819312
0.000819279
0.000819252
0.000819611
0.000819614
0.000819617
0.000819621
0.000819625
0.000819629
0.000819632
0.000819634
0.000819636
0.000819638
0.000819638
0.000819639
0.000819638
0.000819637
0.000819635
0.000819633
0.000819629
0.000819624
0.000819617
0.000819607
0.000819596
0.000819581
0.000819563
0.000819541
0.000819515
0.000819485
0.000819454
0.000819424
0.000819402
0.000818996
0.000818989
0.000818982
0.000818975
0.000818968
0.000818961
0.000818953
0.000818944
0.000818935
0.000818924
0.000818913
0.000818902
0.000818889
0.000818876
0.000818861
0.000818845
0.000818828
0.000818809
0.000818788
0.000818765
0.000818738
0.000818708
0.000818673
0.000818634
0.00081859
0.000818542
0.00081849
0.000818441
0.0008184
0.000817609
0.000817581
0.000817552
0.000817524
0.000817495
0.000817465
0.000817434
0.000817402
0.000817369
0.000817335
0.0008173
0.000817263
0.000817225
0.000817186
0.000817145
0.000817103
0.000817058
0.000817011
0.000816961
0.000816907
0.00081685
0.000816787
0.000816719
0.000816644
0.000816561
0.000816472
0.000816379
0.000816285
0.000816203
0.000815402
0.000815341
0.00081528
0.000815219
0.000815155
0.000815091
0.000815025
0.000814957
0.000814888
0.000814817
0.000814744
0.000814669
0.000814592
0.000814513
0.000814432
0.000814348
0.00081426
0.00081417
0.000814075
0.000813975
0.000813869
0.000813756
0.000813635
0.000813505
0.000813363
0.000813212
0.000813051
0.000812888
0.00081274
0.000812306
0.000812201
0.000812095
0.000811987
0.000811877
0.000811765
0.00081165
0.000811533
0.000811413
0.000811291
0.000811166
0.000811038
0.000810908
0.000810774
0.000810636
0.000810494
0.000810348
0.000810197
0.00081004
0.000809876
0.000809703
0.000809521
0.000809327
0.000809119
0.000808896
0.000808656
0.000808403
0.000808143
0.000807902
0.00080823
0.000808067
0.000807901
0.000807733
0.000807562
0.000807387
0.00080721
0.000807028
0.000806843
0.000806654
0.000806461
0.000806264
0.000806062
0.000805856
0.000805645
0.000805428
0.000805205
0.000804974
0.000804735
0.000804487
0.000804227
0.000803954
0.000803664
0.000803355
0.000803024
0.000802669
0.000802293
0.000801906
0.00080154
0.000803056
0.00080282
0.00080258
0.000802336
0.000802088
0.000801835
0.000801577
0.000801314
0.000801046
0.000800772
0.000800493
0.000800208
0.000799917
0.000799619
0.000799315
0.000799002
0.000798681
0.00079835
0.000798008
0.000797653
0.000797282
0.000796893
0.000796482
0.000796045
0.000795578
0.000795077
0.000794545
0.000793995
0.000793469
0.000796643
0.000796317
0.000795985
0.000795648
0.000795304
0.000794954
0.000794597
0.000794233
0.000793862
0.000793484
0.000793099
0.000792705
0.000792303
0.000791893
0.000791472
0.000791042
0.000790599
0.000790144
0.000789674
0.000789186
0.000788679
0.000788147
0.000787586
0.000786991
0.000786355
0.000785674
0.000784949
0.000784196
0.00078347
0.000788818
0.000788383
0.000787939
0.000787488
0.000787029
0.000786561
0.000786084
0.000785598
0.000785102
0.000784597
0.000784082
0.000783557
0.00078302
0.000782472
0.000781911
0.000781336
0.000780746
0.00078014
0.000779514
0.000778866
0.000778191
0.000777486
0.000776744
0.000775957
0.000775118
0.000774218
0.000773258
0.000772256
0.000771284
0.000779377
0.00077881
0.000778233
0.000777646
0.000777048
0.000776439
0.000775818
0.000775185
0.000774541
0.000773883
0.000773213
0.000772529
0.000771831
0.000771117
0.000770388
0.00076964
0.000768874
0.000768086
0.000767273
0.000766433
0.000765559
0.000764647
0.000763688
0.000762673
0.00076159
0.000760429
0.000759188
0.000757887
0.000756616
0.000768077
0.000767355
0.00076662
0.000765872
0.00076511
0.000764333
0.000763542
0.000762736
0.000761914
0.000761076
0.000760222
0.00075935
0.00075846
0.000757551
0.000756621
0.00075567
0.000754693
0.00075369
0.000752657
0.000751589
0.00075048
0.000749324
0.000748109
0.000746825
0.000745457
0.000743989
0.000742415
0.000740759
0.000739128
0.000754821
0.000753913
0.000752989
0.000752047
0.000751088
0.000750111
0.000749115
0.0007481
0.000747065
0.00074601
0.000744934
0.000743836
0.000742716
0.000741571
0.0007404
0.000739202
0.000737973
0.000736711
0.000735412
0.00073407
0.000732679
0.00073123
0.00072971
0.000728105
0.000726395
0.000724562
0.000722591
0.000720507
0.000718439
0.000739259
0.000738132
0.000736984
0.000735814
0.000734623
0.000733408
0.000732171
0.000730909
0.000729623
0.000728312
0.000726974
0.000725609
0.000724215
0.000722791
0.000721335
0.000719846
0.000718319
0.000716751
0.000715138
0.000713474
0.00071175
0.000709955
0.000708077
0.000706096
0.000703987
0.000701726
0.000699291
0.000696699
0.000694106
0.000720479
0.000719108
0.00071771
0.000716286
0.000714835
0.000713357
0.00071185
0.000710314
0.000708748
0.00070715
0.000705521
0.000703859
0.000702162
0.000700428
0.000698656
0.000696843
0.000694985
0.000693078
0.000691118
0.000689096
0.000687004
0.00068483
0.000682557
0.000680162
0.000677617
0.000674885
0.000671936
0.000668778
0.000665584
0.000697643
0.000696004
0.000694335
0.000692634
0.000690902
0.000689136
0.000687336
0.000685502
0.000683633
0.000681726
0.000679782
0.000677797
0.000675772
0.000673704
0.000671589
0.000669427
0.000667212
0.00066494
0.000662606
0.000660201
0.000657715
0.000655134
0.000652439
0.000649604
0.000646594
0.000643362
0.000639864
0.000636088
0.000632223
0.000670431
0.000668529
0.000666592
0.000664619
0.00066261
0.000660563
0.000658477
0.000656352
0.000654185
0.000651977
0.000649725
0.000647428
0.000645084
0.000642691
0.000640245
0.000637745
0.000635186
0.000632562
0.000629868
0.000627094
0.000624231
0.000621261
0.000618164
0.00061491
0.000611457
0.000607748
0.000603719
0.000599331
0.000594778
0.00063881
0.000636697
0.000634546
0.000632356
0.000630127
0.000627857
0.000625545
0.00062319
0.000620792
0.000618348
0.000615857
0.000613318
0.000610728
0.000608085
0.000605387
0.000602629
0.000599808
0.000596918
0.000593952
0.000590903
0.000587756
0.000584497
0.000581102
0.000577538
0.000573757
0.000569689
0.000565253
0.000560368
0.000555219
0.000601443
0.000599215
0.000596948
0.000594643
0.000592298
0.000589913
0.000587485
0.000585015
0.000582501
0.000579941
0.000577335
0.00057468
0.000571974
0.000569216
0.000566401
0.000563528
0.000560591
0.000557586
0.000554505
0.000551339
0.000548077
0.0005447
0.000541185
0.000537496
0.000533581
0.000529358
0.000524726
0.00051955
0.000513992
0.00055605
0.00055387
0.000551655
0.000549405
0.00054712
0.000544798
0.000542438
0.000540041
0.000537603
0.000535125
0.000532605
0.000530041
0.000527432
0.000524776
0.000522069
0.000519309
0.000516492
0.000513612
0.000510663
0.000507636
0.00050452
0.000501296
0.00049794
0.000494415
0.000490666
0.000486601
0.000482097
0.000476957
0.000471297
0.000505571
0.000503553
0.000501506
0.000499429
0.000497321
0.000495182
0.000493012
0.000490809
0.000488573
0.000486302
0.000483995
0.000481652
0.00047927
0.000476847
0.000474382
0.000471872
0.000469312
0.000466698
0.000464023
0.00046128
0.000458456
0.000455535
0.000452492
0.00044929
0.000445873
0.000442137
0.000437944
0.000433024
0.000427421
0.000455682
0.000453799
0.00045189
0.000449955
0.000447994
0.000446005
0.000443989
0.000441944
0.000439871
0.000437767
0.000435632
0.000433465
0.000431264
0.000429029
0.000426756
0.000424442
0.000422086
0.000419682
0.000417223
0.000414704
0.000412111
0.00040943
0.000406637
0.000403694
0.000400544
0.000397081
0.00039315
0.000388402
0.000382781
0.000402697
0.000400951
0.000399183
0.000397392
0.000395577
0.000393739
0.000391876
0.000389988
0.000388075
0.000386135
0.000384168
0.000382172
0.000380145
0.000378086
0.000375993
0.000373862
0.00037169
0.000369471
0.000367197
0.000364859
0.000362441
0.000359922
0.000357265
0.000354416
0.000351264
0.000347646
0.000343139
0.00033755
0.000350552
0.000348988
0.000347407
0.000345805
0.000344185
0.000342544
0.000340883
0.0003392
0.000337497
0.000335771
0.000334021
0.000332248
0.000330449
0.000328623
0.000326768
0.000324881
0.000322958
0.000320995
0.000318986
0.000316921
0.000314786
0.000312561
0.000310213
0.000307691
0.000304885
0.000301631
0.00029744
0.000291953
0.000297645
0.000296282
0.000294903
0.000293509
0.000292098
0.000290671
0.000289228
0.000287767
0.000286289
0.000284792
0.000283276
0.000281741
0.000280185
0.000278606
0.000277004
0.000275375
0.000273717
0.000272025
0.000270295
0.000268517
0.00026668
0.000264767
0.000262747
0.000260574
0.000258146
0.000255301
0.00025151
0.000246223
0.000244269
0.00024312
0.000241959
0.000240785
0.000239599
0.0002384
0.000237187
0.000235961
0.000234721
0.000233467
0.000232198
0.000230913
0.000229612
0.000228293
0.000226956
0.000225597
0.000224215
0.000222806
0.000221366
0.000219888
0.000218361
0.000216772
0.000215095
0.000213289
0.000211265
0.00020887
0.000205568
0.000200616
0.000190763
0.000189841
0.000188909
0.000187968
0.000187018
0.000186058
0.000185088
0.000184108
0.000183117
0.000182116
0.000181104
0.00018008
0.000179043
0.000177994
0.00017693
0.000175851
0.000174754
0.000173637
0.000172496
0.000171326
0.000170119
0.000168864
0.000167541
0.000166115
0.000164516
0.000162605
0.000159881
0.000155448
0.000137599
0.000136913
0.000136221
0.000135523
0.000134818
0.000134106
0.000133387
0.000132662
0.000131929
0.000131189
0.000130442
0.000129686
0.000128922
0.000128149
0.000127366
0.000126573
0.000125767
0.000124948
0.000124112
0.000123256
0.000122374
0.000121459
0.000120495
0.000119458
0.000118296
0.000116895
0.000114833
0.000111163
8.56387e-05
8.51965e-05
8.47505e-05
8.43007e-05
8.3847e-05
8.33894e-05
8.29278e-05
8.24622e-05
8.19923e-05
8.15181e-05
8.10394e-05
8.05561e-05
8.00678e-05
7.95743e-05
7.90751e-05
7.85697e-05
7.80573e-05
7.75369e-05
7.7007e-05
7.64654e-05
7.5909e-05
7.53326e-05
7.47285e-05
7.4079e-05
7.33578e-05
7.24764e-05
7.11447e-05
6.85655e-05
3.73221e-05
3.71212e-05
3.69187e-05
3.67146e-05
3.65089e-05
3.63017e-05
3.60928e-05
3.58823e-05
3.56701e-05
3.54561e-05
3.52404e-05
3.50228e-05
3.48033e-05
3.45817e-05
3.43579e-05
3.41317e-05
3.39028e-05
3.36709e-05
3.34355e-05
3.31957e-05
3.29505e-05
3.26977e-05
3.24351e-05
3.21545e-05
3.18486e-05
3.14734e-05
3.08975e-05
2.97931e-05
4.21696e-06
4.19568e-06
4.17424e-06
4.15264e-06
4.13088e-06
4.10895e-06
4.08685e-06
4.06459e-06
4.04215e-06
4.01953e-06
3.99673e-06
3.97373e-06
3.95054e-06
3.92714e-06
3.9035e-06
3.87962e-06
3.85547e-06
3.831e-06
3.80618e-06
3.78091e-06
3.75511e-06
3.72858e-06
3.70116e-06
3.67216e-06
3.64141e-06
3.60523e-06
3.56186e-06
3.48253e-06
1.50666e-05
1.50339e-05
1.4988e-05
1.49132e-05
1.48019e-05
1.46685e-05
1.45228e-05
1.43666e-05
1.41998e-05
1.40219e-05
1.38364e-05
1.36431e-05
1.34428e-05
1.32362e-05
1.30235e-05
1.28046e-05
1.25793e-05
1.23462e-05
1.21068e-05
1.18562e-05
1.16061e-05
1.13296e-05
1.10876e-05
1.0759e-05
1.06486e-05
0.000114507
0.000116531
0.00011694
0.000116587
0.000115771
0.000114707
0.000113509
0.000112209
0.000110816
0.000109322
0.000107723
0.000106076
0.000104392
0.000102665
0.000100887
9.9041e-05
9.71243e-05
9.51028e-05
9.30232e-05
9.07512e-05
8.85218e-05
8.58552e-05
8.36764e-05
8.017e-05
7.97896e-05
0.000218208
0.000221667
0.000223128
0.000223325
0.000222613
0.000221317
0.000219656
0.000217733
0.000215593
0.000213257
0.000210733
0.00020809
0.000205361
0.000202551
0.000199653
0.000196643
0.000193509
0.0001902
0.000186767
0.000183034
0.000179304
0.000174929
0.000171213
0.000165651
0.000165346
0.000305466
0.000309122
0.000311012
0.000311609
0.000311174
0.000309982
0.000308256
0.000306127
0.00030367
0.000300934
0.000297947
0.00029478
0.000291476
0.000288056
0.000284518
0.000280838
0.000276997
0.000272944
0.000268713
0.000264143
0.000259504
0.000254194
0.000249474
0.000243028
0.000242524
0.000378582
0.000381981
0.00038393
0.000384712
0.000384494
0.000383474
0.000381831
0.000379693
0.000377145
0.000374251
0.000371054
0.000367624
0.000364016
0.000360258
0.000356354
0.000352286
0.000348032
0.000343543
0.000338839
0.000333781
0.000328591
0.000322759
0.000317386
0.000310581
0.000309703
0.00044056
0.000443567
0.000445397
0.000446216
0.000446127
0.000445257
0.000443737
0.000441674
0.000439149
0.00043623
0.000432967
0.000429431
0.000425679
0.000421746
0.000417644
0.000413359
0.00040887
0.000404131
0.000399151
0.000393813
0.000388292
0.000382175
0.000376381
0.000369462
0.000368136
0.000493685
0.000496281
0.000497918
0.000498691
0.000498658
0.000497897
0.000496498
0.00049454
0.000492095
0.000489225
0.000485982
0.000482434
0.00047864
0.000474639
0.000470447
0.000466056
0.000461446
0.000456577
0.000451448
0.000445963
0.000440254
0.000433995
0.000427937
0.000421026
0.000419234
0.000539621
0.00054183
0.000543252
0.000543935
0.000543911
0.000543224
0.000541928
0.000540083
0.000537743
0.000534963
0.000531792
0.000528294
0.000524526
0.000520528
0.000516321
0.0005119
0.000507248
0.00050233
0.00049714
0.000491596
0.000485798
0.000479489
0.000473277
0.000466433
0.000464189
0.000579595
0.000581454
0.000582662
0.000583238
0.000583195
0.000582553
0.000581345
0.000579609
0.000577385
0.000574719
0.000571654
0.000568247
0.000564551
0.000560608
0.000556438
0.000552042
0.000547407
0.000542499
0.000537309
0.000531769
0.000525951
0.000519657
0.000513369
0.000506622
0.000503956
0.000614526
0.000616074
0.000617081
0.000617547
0.000617471
0.000616859
0.000615725
0.000614093
0.00061199
0.000609451
0.000606513
0.000603224
0.000599635
0.000595783
0.000591693
0.000587364
0.000582788
0.000577935
0.000572792
0.000567303
0.000561516
0.000555282
0.000548976
0.000542335
0.000539292
0.000645124
0.000646399
0.000647223
0.000647583
0.00064747
0.000646877
0.00064581
0.000644277
0.000642296
0.000639892
0.000637095
0.000633945
0.000630487
0.000626757
0.000622776
0.000618548
0.000614065
0.000609302
0.000604243
0.00059884
0.000593124
0.000586983
0.000580703
0.000574175
0.000570798
0.000671947
0.000672985
0.000673646
0.00067391
0.00067376
0.000673184
0.000672177
0.00067074
0.000668882
0.000666618
0.000663973
0.000660977
0.000657669
0.000654082
0.000650235
0.000646134
0.000641771
0.000637126
0.00063218
0.000626892
0.000621277
0.000615252
0.000609034
0.000602623
0.000598954
0.00069545
0.000696283
0.000696801
0.00069698
0.000696798
0.000696239
0.000695291
0.000693949
0.000692213
0.000690093
0.000687605
0.000684772
0.000681629
0.000678202
0.000674509
0.000670556
0.000666336
0.000661829
0.000657019
0.000651868
0.000646378
0.00064049
0.000634358
0.000628071
0.000624149
0.000716008
0.000716666
0.000717062
0.000717168
0.000716961
0.000716421
0.000715531
0.000714282
0.000712668
0.000710693
0.000708367
0.000705706
0.000702736
0.000699482
0.000695958
0.000692169
0.000688108
0.000683759
0.000679102
0.000674105
0.000668759
0.000663022
0.000656997
0.000650836
0.000646698
0.000733942
0.000734452
0.000734743
0.000734789
0.000734564
0.000734046
0.000733216
0.000732059
0.000730567
0.000728737
0.000726574
0.000724088
0.000721299
0.000718226
0.000714881
0.000711268
0.000707379
0.0007032
0.00069871
0.00069388
0.000688691
0.000683116
0.000677214
0.000671182
0.000666863
0.000749526
0.000749913
0.000750118
0.000750115
0.000749879
0.000749387
0.000748617
0.000747552
0.00074618
0.000744494
0.000742494
0.000740185
0.000737579
0.000734692
0.000731533
0.000728103
0.000724395
0.000720395
0.000716081
0.000711426
0.000706403
0.000700997
0.000695228
0.000689326
0.000684858
0.000763004
0.000763289
0.000763424
0.000763384
0.000763144
0.00076268
0.000761971
0.000760996
0.000759742
0.000758198
0.000756358
0.000754223
0.000751801
0.000749102
0.00074613
0.000742887
0.000739365
0.000735548
0.000731414
0.000726939
0.000722088
0.000716854
0.000711224
0.000705452
0.000700863
0.000774589
0.000774793
0.000774873
0.000774805
0.000774567
0.000774135
0.000773486
0.0007726
0.00077146
0.000770052
0.000768368
0.000766403
0.000764161
0.000761646
0.000758862
0.000755805
0.000752467
0.000748834
0.000744881
0.000740586
0.000735908
0.000730845
0.000725358
0.000719714
0.000715028
0.000784476
0.000784615
0.000784652
0.000784566
0.000784334
0.000783935
0.000783346
0.000782545
0.000781513
0.000780236
0.0007787
0.000776899
0.00077483
0.000772494
0.000769891
0.000767016
0.000763859
0.000760406
0.000756631
0.000752512
0.000748004
0.000743109
0.000737762
0.000732242
0.000727481
0.000792838
0.000792926
0.000792931
0.000792833
0.000792612
0.000792246
0.000791714
0.000790993
0.000790063
0.000788908
0.000787512
0.000785863
0.000783958
0.000781791
0.00077936
0.000776659
0.000773676
0.000770395
0.00076679
0.00076284
0.000758495
0.000753759
0.000748548
0.000743147
0.000738329
0.000799827
0.000799876
0.000799857
0.000799753
0.000799545
0.000799213
0.000798734
0.000798087
0.000797252
0.000796208
0.00079494
0.000793432
0.000791677
0.000789667
0.000787396
0.000784856
0.000782034
0.000778914
0.000775468
0.000771675
0.000767483
0.000762895
0.000757813
0.00075252
0.000747661
0.000805579
0.000805599
0.000805564
0.000805458
0.000805264
0.000804963
0.000804533
0.000803954
0.000803202
0.000802258
0.000801104
0.000799723
0.000798102
0.000796233
0.000794106
0.000791711
0.000789035
0.00078606
0.000782758
0.000779109
0.000775055
0.000770602
0.000765636
0.000760442
0.000755553
0.000810211
0.00081021
0.000810164
0.000810059
0.00080988
0.000809607
0.000809221
0.0008087
0.000808021
0.000807164
0.000806108
0.000804835
0.000803331
0.000801584
0.000799582
0.000797314
0.000794765
0.000791917
0.000788742
0.000785217
0.000781284
0.000776948
0.000772085
0.000766976
0.000762069
0.000813822
0.000813806
0.000813754
0.000813652
0.000813486
0.000813239
0.00081289
0.000812417
0.000811799
0.000811013
0.000810038
0.000808855
0.000807447
0.000805801
0.000803902
0.00080174
0.000799296
0.000796554
0.000793483
0.000790063
0.000786231
0.000781993
0.000777215
0.000772176
0.000767257
0.000816492
0.000816467
0.000816412
0.000816314
0.000816161
0.000815934
0.000815614
0.00081518
0.000814609
0.000813878
0.000812966
0.000811851
0.000810517
0.000808947
0.000807129
0.000805047
0.000802685
0.000800025
0.000797036
0.000793696
0.000789943
0.00078578
0.00078107
0.000776084
0.000771159
0.000818283
0.000818254
0.000818198
0.000818105
0.000817962
0.00081775
0.000817452
0.000817045
0.000816507
0.000815814
0.000814944
0.000813876
0.000812591
0.000811074
0.000809309
0.000807282
0.000804976
0.000802372
0.00079944
0.000796156
0.000792457
0.000788345
0.000783682
0.000778731
0.000773805
0.000819237
0.000819208
0.000819154
0.000819066
0.00081893
0.000818729
0.000818444
0.000818052
0.000817532
0.000816859
0.00081601
0.000814966
0.000813706
0.000812214
0.000810476
0.000808477
0.0008062
0.000803625
0.000800722
0.000797467
0.000793798
0.000789713
0.000785074
0.00078014
0.000775214
0.000819392
0.000819367
0.000819319
0.000819236
0.000819106
0.00081891
0.000818629
0.000818241
0.000817723
0.000817051
0.000816204
0.000815158
0.000813897
0.000812405
0.000810666
0.000808667
0.000806391
0.000803817
0.000800917
0.000797664
0.000793997
0.000789913
0.000785278
0.000780339
0.000775415
0.000818396
0.000818383
0.000818344
0.000818267
0.000818139
0.00081794
0.000817651
0.00081725
0.000816712
0.000816016
0.000815137
0.000814057
0.000812758
0.000811225
0.000809446
0.000807406
0.00080509
0.000802478
0.00079954
0.00079625
0.000792548
0.000788429
0.000783763
0.000778795
0.00077387
0.000816205
0.000816211
0.000816185
0.000816115
0.000815985
0.000815776
0.000815466
0.000815034
0.000814455
0.000813706
0.000812767
0.000811617
0.000810243
0.000808632
0.000806773
0.000804654
0.000802259
0.000799569
0.000796554
0.00079319
0.000789415
0.000785225
0.000780495
0.000775471
0.000770545
0.00081275
0.000812782
0.000812774
0.000812712
0.000812577
0.00081235
0.000812008
0.000811527
0.000810885
0.000810058
0.000809028
0.000807777
0.000806293
0.000804568
0.000802592
0.000800356
0.000797845
0.000795041
0.000791914
0.000788439
0.000784556
0.000780262
0.000775438
0.000770335
0.000765406
0.000807921
0.00080799
0.000808006
0.000807954
0.000807813
0.000807561
0.000807174
0.000806629
0.000805903
0.000804974
0.000803825
0.000802442
0.000800816
0.000798943
0.000796818
0.000794431
0.000791771
0.00078882
0.000785547
0.000781929
0.000777907
0.00077348
0.000768534
0.00076333
0.000758402
0.000801572
0.000801689
0.000801738
0.0008017
0.000801551
0.000801268
0.000800827
0.000800202
0.000799373