/*--------------------------------*- C++ -*----------------------------------*\
  =========                 |
  \\      /  F ield         | OpenFOAM: The Open Source CFD Toolbox
   \\    /   O peration     | Website:  https://openfoam.org
    \\  /    A nd           | Version:  6
     \\/     M anipulation  |
\*---------------------------------------------------------------------------*/
FoamFile
{
    version     2.0;
    format      ascii;
    class       volScalarField;
    location    "0.06";
    object      p;
}
// * * * * * * * * * * * * * * * * * * * * * * * * * * * * * * * * * * * * * //

dimensions      [0 2 -2 0 0 0 0];

internalField   nonuniform List<scalar> 
3080
(
0.185162
0.185014
0.184865
0.184717
0.184569
0.184421
0.184273
0.184125
0.183979
0.183833
0.183689
0.183547
0.183409
0.183274
0.183145
0.183024
0.182912
0.182815
0.182735
0.182681
0.18266
0.182685
0.182776
0.18296
0.183284
0.183822
0.184728
0.186242
0.189151
0.193694
0.185146
0.184998
0.18485
0.184701
0.184553
0.184405
0.184258
0.184111
0.183964
0.183819
0.183675
0.183534
0.183396
0.183262
0.183134
0.183014
0.182904
0.182808
0.182731
0.182679
0.182662
0.182691
0.182787
0.182977
0.183304
0.183838
0.184716
0.186114
0.188694
0.192433
0.185134
0.184986
0.184838
0.18469
0.184542
0.184394
0.184247
0.1841
0.183954
0.183809
0.183666
0.183525
0.183387
0.183254
0.183127
0.183008
0.182899
0.182805
0.18273
0.182681
0.182666
0.1827
0.182799
0.182992
0.183321
0.183846
0.184686
0.185956
0.188124
0.190738
0.185126
0.184978
0.18483
0.184682
0.184534
0.184387
0.184239
0.184093
0.183947
0.183802
0.183659
0.183518
0.18338
0.183247
0.18312
0.183001
0.182892
0.182798
0.182722
0.182672
0.182656
0.182687
0.182782
0.182966
0.183276
0.183762
0.184517
0.185599
0.187286
0.189016
0.185119
0.184971
0.184823
0.184675
0.184528
0.18438
0.184233
0.184086
0.18394
0.183795
0.183651
0.18351
0.183372
0.183239
0.183111
0.18299
0.18288
0.182784
0.182706
0.182652
0.18263
0.182653
0.182735
0.182898
0.183173
0.183599
0.184238
0.18511
0.186359
0.187444
0.185113
0.184965
0.184817
0.184669
0.184521
0.184374
0.184226
0.184079
0.183933
0.183788
0.183644
0.183502
0.183363
0.183229
0.183099
0.182977
0.182864
0.182764
0.182681
0.182621
0.182591
0.1826
0.182664
0.182798
0.183028
0.183379
0.183892
0.184556
0.185436
0.186036
0.185107
0.184959
0.184811
0.184663
0.184515
0.184368
0.18422
0.184073
0.183926
0.18378
0.183636
0.183493
0.183353
0.183217
0.183086
0.182961
0.182845
0.18274
0.182651
0.182582
0.18254
0.182533
0.182573
0.182672
0.182849
0.18312
0.183505
0.183975
0.184545
0.184774
0.185101
0.184953
0.184805
0.184658
0.18451
0.184362
0.184214
0.184066
0.183919
0.183773
0.183627
0.183484
0.183342
0.183204
0.18307
0.182942
0.182822
0.182711
0.182615
0.182535
0.182479
0.182453
0.182466
0.182526
0.182647
0.182834
0.183094
0.183387
0.183698
0.183643
0.185095
0.184948
0.1848
0.184652
0.184504
0.184356
0.184208
0.18406
0.183912
0.183765
0.183619
0.183474
0.18333
0.18319
0.183053
0.182921
0.182796
0.182679
0.182573
0.182483
0.182411
0.182363
0.182346
0.182366
0.182427
0.182532
0.182675
0.182809
0.182903
0.182628
0.18509
0.184943
0.184795
0.184647
0.184499
0.184351
0.184202
0.184054
0.183905
0.183757
0.18361
0.183463
0.183318
0.183175
0.183035
0.182898
0.182767
0.182643
0.182528
0.182425
0.182336
0.182266
0.182217
0.182194
0.182198
0.182223
0.182256
0.182249
0.182163
0.181716
0.185085
0.184938
0.18479
0.184642
0.184494
0.184345
0.184196
0.184047
0.183898
0.183749
0.1836
0.183452
0.183305
0.183159
0.183015
0.182874
0.182737
0.182605
0.18248
0.182363
0.182256
0.182162
0.182082
0.182017
0.181963
0.181912
0.181846
0.181715
0.181478
0.180896
0.184933
0.184785
0.184637
0.184489
0.18434
0.18419
0.184041
0.183891
0.183741
0.183591
0.183441
0.183291
0.183142
0.182995
0.182849
0.182706
0.182566
0.182429
0.182299
0.182174
0.182055
0.181944
0.181836
0.181728
0.181606
0.18145
0.181211
0.180848
0.180159
0.184928
0.18478
0.184632
0.184483
0.184334
0.184185
0.184034
0.183884
0.183732
0.183581
0.183429
0.183277
0.183125
0.182974
0.182823
0.182673
0.182525
0.182378
0.182233
0.182089
0.181947
0.181804
0.181657
0.181497
0.18131
0.181072
0.180739
0.18027
0.179495
0.184923
0.184775
0.184627
0.184478
0.184329
0.184179
0.184028
0.183876
0.183724
0.183571
0.183418
0.183263
0.183108
0.182953
0.182797
0.18264
0.182483
0.182325
0.182166
0.182005
0.181839
0.181666
0.18148
0.181272
0.181025
0.180715
0.1803
0.179743
0.178898
0.184918
0.18477
0.184622
0.184473
0.184324
0.184173
0.184022
0.183869
0.183716
0.183562
0.183406
0.183249
0.183091
0.182932
0.182771
0.182608
0.182442
0.182273
0.1821
0.181921
0.181733
0.181532
0.18131
0.181056
0.180755
0.180381
0.179895
0.179263
0.178362
0.184913
0.184766
0.184617
0.184468
0.184319
0.184168
0.184016
0.183862
0.183708
0.183552
0.183395
0.183235
0.183074
0.182911
0.182745
0.182575
0.182401
0.182222
0.182036
0.18184
0.18163
0.181402
0.181146
0.180852
0.180502
0.180071
0.179524
0.178828
0.177881
0.184908
0.184761
0.184613
0.184464
0.184313
0.184162
0.184009
0.183855
0.1837
0.183543
0.183383
0.183222
0.183058
0.182891
0.18272
0.182544
0.182362
0.182173
0.181974
0.181762
0.181532
0.181279
0.180992
0.180661
0.180267
0.179786
0.179186
0.178437
0.177451
0.184903
0.184756
0.184608
0.184459
0.184308
0.184157
0.184004
0.183849
0.183692
0.183534
0.183373
0.183209
0.183043
0.182872
0.182696
0.182515
0.182326
0.182127
0.181916
0.181689
0.181441
0.181164
0.18085
0.180485
0.180052
0.179529
0.178883
0.178088
0.17707
0.184898
0.184751
0.184603
0.184454
0.184304
0.184152
0.183998
0.183843
0.183685
0.183526
0.183363
0.183198
0.183028
0.182854
0.182674
0.182487
0.182292
0.182084
0.181863
0.181622
0.181357
0.18106
0.180721
0.180326
0.179859
0.179297
0.178612
0.177779
0.176734
0.184894
0.184747
0.184599
0.18445
0.184299
0.184147
0.183993
0.183837
0.183679
0.183518
0.183354
0.183187
0.183015
0.182838
0.182654
0.182463
0.182261
0.182046
0.181814
0.181561
0.181281
0.180966
0.180604
0.180184
0.179687
0.179093
0.178374
0.177508
0.176441
0.184889
0.184743
0.184595
0.184446
0.184295
0.184143
0.183988
0.183832
0.183673
0.183511
0.183346
0.183177
0.183003
0.182824
0.182636
0.18244
0.182233
0.182011
0.181771
0.181507
0.181214
0.180882
0.180501
0.180058
0.179536
0.178914
0.178167
0.177273
0.176188
0.184885
0.184739
0.184591
0.184442
0.184291
0.184139
0.183984
0.183827
0.183668
0.183505
0.183339
0.183168
0.182993
0.182811
0.182621
0.182421
0.182208
0.18198
0.181733
0.18146
0.181155
0.180809
0.180412
0.17995
0.179406
0.178761
0.177991
0.177073
0.175974
0.184881
0.184735
0.184587
0.184438
0.184287
0.184135
0.18398
0.183823
0.183663
0.1835
0.183333
0.183161
0.182984
0.182799
0.182607
0.182404
0.182187
0.181954
0.1817
0.181419
0.181105
0.180748
0.180337
0.179859
0.179298
0.178633
0.177844
0.176908
0.175797
0.184877
0.184731
0.184584
0.184435
0.184284
0.184131
0.183976
0.183819
0.183658
0.183495
0.183327
0.183154
0.182976
0.18279
0.182595
0.18239
0.18217
0.181933
0.181673
0.181386
0.181064
0.180698
0.180276
0.179786
0.17921
0.17853
0.177726
0.176776
0.175655
0.184873
0.184727
0.18458
0.184431
0.184281
0.184128
0.183973
0.183815
0.183655
0.183491
0.183322
0.183149
0.182969
0.182782
0.182586
0.182378
0.182156
0.181916
0.181652
0.181361
0.181032
0.180659
0.180229
0.179729
0.179143
0.178452
0.177637
0.176676
0.175548
0.184869
0.184724
0.184577
0.184428
0.184277
0.184125
0.18397
0.183812
0.183651
0.183487
0.183318
0.183144
0.182964
0.182776
0.182579
0.18237
0.182146
0.181903
0.181637
0.181342
0.18101
0.180632
0.180196
0.17969
0.179097
0.178398
0.177575
0.176607
0.175475
0.184865
0.18472
0.184574
0.184425
0.184275
0.184122
0.183967
0.183809
0.183649
0.183484
0.183315
0.183141
0.182961
0.182772
0.182574
0.182364
0.182139
0.181895
0.181628
0.181331
0.180997
0.180616
0.180177
0.179667
0.179071
0.178369
0.177542
0.17657
0.175435
0.184861
0.184717
0.18457
0.184422
0.184272
0.184119
0.183964
0.183807
0.183646
0.183482
0.183313
0.183139
0.182958
0.18277
0.182572
0.182361
0.182136
0.181892
0.181624
0.181327
0.180992
0.180611
0.180172
0.179662
0.179065
0.178363
0.177536
0.176564
0.175429
0.184857
0.184713
0.184567
0.184419
0.184269
0.184117
0.183962
0.183805
0.183644
0.18348
0.183311
0.183137
0.182957
0.182769
0.182572
0.182362
0.182138
0.181895
0.181628
0.181332
0.181
0.180622
0.180186
0.17968
0.179087
0.17839
0.177568
0.176601
0.175469
0.184853
0.184709
0.184563
0.184416
0.184266
0.184114
0.18396
0.183803
0.183643
0.183479
0.183311
0.183138
0.182958
0.182771
0.182575
0.182367
0.182144
0.181903
0.18164
0.181348
0.181021
0.180648
0.18022
0.179722
0.179138
0.178451
0.17764
0.176684
0.175557
0.184849
0.184705
0.18456
0.184413
0.184263
0.184112
0.183958
0.183802
0.183642
0.183479
0.183312
0.183139
0.182961
0.182775
0.182581
0.182375
0.182155
0.181919
0.18166
0.181374
0.181054
0.180691
0.180273
0.179788
0.179219
0.178547
0.177752
0.176811
0.175694
0.184845
0.184702
0.184557
0.18441
0.184261
0.18411
0.183957
0.183801
0.183642
0.18348
0.183314
0.183142
0.182966
0.182782
0.18259
0.182387
0.182172
0.18194
0.181688
0.18141
0.1811
0.180749
0.180345
0.179877
0.179328
0.178678
0.177904
0.176985
0.175882
0.184841
0.184698
0.184554
0.184407
0.184259
0.184109
0.183956
0.183801
0.183643
0.183482
0.183316
0.183147
0.182972
0.182791
0.182602
0.182403
0.182192
0.181967
0.181723
0.181455
0.181157
0.180821
0.180437
0.17999
0.179466
0.178843
0.178097
0.177207
0.176121
0.184837
0.184695
0.184551
0.184405
0.184257
0.184108
0.183956
0.183801
0.183644
0.183484
0.18332
0.183152
0.18298
0.182801
0.182616
0.182422
0.182217
0.181999
0.181765
0.181509
0.181226
0.180909
0.180546
0.180126
0.179632
0.179043
0.178332
0.177478
0.176414
0.184833
0.184692
0.184548
0.184403
0.184256
0.184107
0.183956
0.183802
0.183646
0.183487
0.183325
0.183159
0.182989
0.182814
0.182633
0.182444
0.182246
0.182037
0.181813
0.181571
0.181306
0.181009
0.180673
0.180284
0.179826
0.179278
0.17861
0.1778
0.176764
0.18483
0.184688
0.184546
0.184401
0.184255
0.184106
0.183956
0.183803
0.183648
0.183491
0.183331
0.183167
0.183
0.182828
0.182651
0.182469
0.182278
0.182079
0.181867
0.181641
0.181395
0.181123
0.180816
0.180464
0.180048
0.179548
0.178932
0.178175
0.177174
0.184826
0.184686
0.184543
0.184399
0.184254
0.184106
0.183956
0.183805
0.183651
0.183495
0.183337
0.183176
0.183011
0.182844
0.182672
0.182496
0.182313
0.182124
0.181926
0.181716
0.181492
0.181247
0.180974
0.180663
0.180296
0.179853
0.179297
0.178606
0.177649
0.184823
0.184683
0.184541
0.184398
0.184253
0.184106
0.183957
0.183807
0.183654
0.1835
0.183344
0.183185
0.183024
0.18286
0.182694
0.182524
0.182351
0.182172
0.181989
0.181797
0.181596
0.181381
0.181145
0.180879
0.180568
0.180191
0.179708
0.179096
0.178192
0.18482
0.18468
0.184539
0.184396
0.184252
0.184106
0.183958
0.183809
0.183658
0.183505
0.183351
0.183195
0.183037
0.182878
0.182717
0.182554
0.182389
0.182223
0.182054
0.181881
0.181705
0.181521
0.181326
0.181111
0.180863
0.180561
0.180163
0.179648
0.17881
0.184817
0.184678
0.184537
0.184395
0.184252
0.184106
0.18396
0.183811
0.183662
0.183511
0.183358
0.183205
0.183051
0.182896
0.18274
0.182584
0.182429
0.182274
0.18212
0.181968
0.181817
0.181666
0.181514
0.181355
0.181176
0.180962
0.180662
0.180267
0.179511
0.184814
0.184676
0.184536
0.184394
0.184251
0.184107
0.183961
0.183814
0.183666
0.183516
0.183366
0.183216
0.183064
0.182914
0.182763
0.182615
0.182468
0.182325
0.182187
0.182055
0.18193
0.181814
0.181707
0.181608
0.181505
0.18139
0.181205
0.180957
0.180302
0.184812
0.184674
0.184535
0.184394
0.184252
0.184108
0.183963
0.183817
0.18367
0.183522
0.183374
0.183226
0.183078
0.182932
0.182787
0.182645
0.182508
0.182376
0.182253
0.182141
0.182043
0.181962
0.181902
0.181865
0.181845
0.181841
0.181788
0.181724
0.181192
0.18481
0.184672
0.184534
0.184394
0.184252
0.184109
0.183965
0.18382
0.183674
0.183528
0.183382
0.183236
0.183092
0.182949
0.182809
0.182673
0.182544
0.182423
0.182314
0.182221
0.182147
0.1821
0.182085
0.182111
0.182173
0.18229
0.182378
0.182539
0.182143
0.184808
0.184671
0.184533
0.184394
0.184253
0.184111
0.183967
0.183823
0.183679
0.183534
0.183389
0.183246
0.183104
0.182964
0.182828
0.182698
0.182576
0.182465
0.182368
0.18229
0.182238
0.18222
0.182245
0.182328
0.182469
0.182705
0.182933
0.183353
0.183098
0.184807
0.184671
0.184533
0.184394
0.184254
0.184112
0.18397
0.183826
0.183683
0.183539
0.183396
0.183254
0.183114
0.182977
0.182845
0.18272
0.182603
0.1825
0.182413
0.182348
0.182315
0.182322
0.182382
0.182516
0.182726
0.183079
0.183441
0.184149
0.18404
0.184807
0.184671
0.184534
0.184395
0.184255
0.184114
0.183972
0.183829
0.183687
0.183544
0.183402
0.183261
0.183123
0.182989
0.18286
0.182738
0.182626
0.182528
0.182449
0.182396
0.182377
0.182405
0.182493
0.182672
0.182942
0.183407
0.183892
0.184917
0.184959
0.184806
0.184671
0.184534
0.184395
0.184256
0.184115
0.183973
0.183831
0.183689
0.183547
0.183406
0.183266
0.183129
0.182996
0.182869
0.18275
0.182642
0.182549
0.182476
0.182431
0.182423
0.182467
0.182577
0.182793
0.183112
0.18368
0.184274
0.185636
0.18583
0.184806
0.184671
0.184534
0.184396
0.184256
0.184116
0.183974
0.183832
0.18369
0.183549
0.183408
0.183269
0.183133
0.183001
0.182876
0.182758
0.182652
0.182562
0.182493
0.182453
0.182453
0.182509
0.182635
0.182879
0.183235
0.183893
0.184578
0.186285
0.186641
0.184671
0.184534
0.184396
0.184257
0.184116
0.183975
0.183833
0.183691
0.18355
0.18341
0.183271
0.183136
0.183004
0.182879
0.182763
0.182658
0.18257
0.182503
0.182467
0.182471
0.182534
0.182671
0.182936
0.183318
0.184051
0.184811
0.186853
0.18739
0.184671
0.184535
0.184396
0.184257
0.184117
0.183975
0.183834
0.183692
0.183551
0.183411
0.183272
0.183137
0.183006
0.182881
0.182765
0.182661
0.182573
0.182508
0.182473
0.18248
0.182547
0.18269
0.182968
0.183367
0.184157
0.184976
0.187329
0.188074
0.184672
0.184535
0.184397
0.184257
0.184117
0.183976
0.183834
0.183692
0.183551
0.183411
0.183272
0.183137
0.183006
0.182881
0.182765
0.182661
0.182573
0.182508
0.182474
0.182481
0.18255
0.182694
0.182979
0.183387
0.184215
0.185079
0.187701
0.18869
0.184672
0.184535
0.184397
0.184257
0.184117
0.183976
0.183834
0.183692
0.183551
0.18341
0.183272
0.183136
0.183005
0.18288
0.182763
0.182659
0.182571
0.182505
0.18247
0.182476
0.182544
0.182687
0.182973
0.183383
0.184231
0.185127
0.187964
0.189239
0.184672
0.184535
0.184397
0.184257
0.184117
0.183975
0.183834
0.183691
0.18355
0.183409
0.18327
0.183135
0.183003
0.182877
0.18276
0.182655
0.182566
0.182498
0.182462
0.182466
0.182531
0.182671
0.182953
0.183359
0.184211
0.185127
0.188112
0.18972
0.184672
0.184535
0.184397
0.184257
0.184116
0.183975
0.183833
0.18369
0.183549
0.183408
0.183269
0.183132
0.183
0.182874
0.182756
0.18265
0.182559
0.18249
0.182451
0.182452
0.182513
0.182648
0.182922
0.18332
0.184159
0.185084
0.188137
0.190132
0.184672
0.184535
0.184397
0.184257
0.184116
0.183974
0.183832
0.18369
0.183547
0.183406
0.183267
0.18313
0.182997
0.18287
0.182751
0.182643
0.182551
0.18248
0.182438
0.182435
0.182491
0.182619
0.182882
0.18327
0.18408
0.185004
0.188032
0.190468
0.184675
0.184537
0.184399
0.184259
0.184118
0.183976
0.183833
0.183691
0.183548
0.183407
0.183267
0.183129
0.182996
0.182868
0.182748
0.182639
0.182546
0.182472
0.182427
0.182421
0.182471
0.182592
0.182844
0.18322
0.183997
0.184912
0.187837
0.190727
0.184679
0.184541
0.184403
0.184262
0.184121
0.183979
0.183837
0.183694
0.183551
0.18341
0.183269
0.183132
0.182998
0.18287
0.182749
0.182639
0.182545
0.18247
0.182423
0.182414
0.182461
0.182578
0.182823
0.183191
0.183948
0.184857
0.187705
0.190894
0.204543
0.195404
0.186216
0.182016
0.178747
0.174705
0.170462
0.166322
0.162106
0.157673
0.15298
0.147991
0.142656
0.136917
0.130712
0.12396
0.116604
0.108475
0.0996453
0.0895253
0.0790556
0.0653817
0.054413
0.0310933
0.0283115
0.198885
0.192015
0.184587
0.180819
0.177638
0.173731
0.169618
0.165554
0.161378
0.156971
0.1523
0.147324
0.141993
0.136246
0.130027
0.123256
0.11588
0.107727
0.0988761
0.0887238
0.0782403
0.0645043
0.0535542
0.0300461
0.0274632
0.194308
0.189393
0.183383
0.179758
0.176539
0.172744
0.168757
0.164758
0.160616
0.156234
0.151581
0.146614
0.141279
0.135521
0.129284
0.122488
0.115086
0.106899
0.0980271
0.087819
0.077348
0.0634717
0.0526788
0.0287129
0.0267952
0.191085
0.187316
0.182337
0.178836
0.175597
0.171903
0.168018
0.16407
0.159956
0.155595
0.150955
0.145994
0.140657
0.134889
0.128637
0.121818
0.114394
0.106173
0.0972845
0.0870154
0.0765709
0.0625303
0.0519536
0.0274602
0.0264523
0.1886
0.185505
0.181316
0.177984
0.174768
0.171171
0.167376
0.163475
0.159387
0.155047
0.150419
0.145462
0.140124
0.134349
0.128085
0.121248
0.113806
0.105555
0.0966535
0.0863264
0.0759142
0.0617138
0.0513655
0.0263841
0.0263281
0.186557
0.183901
0.180319
0.177167
0.174005
0.170504
0.166792
0.162938
0.158879
0.154558
0.149943
0.144992
0.139653
0.133872
0.127599
0.120746
0.113289
0.105011
0.0961001
0.0857189
0.0753419
0.0609911
0.0508709
0.0254529
0.026326
0.184847
0.182492
0.179367
0.176385
0.173293
0.169884
0.166251
0.162444
0.158414
0.154115
0.149513
0.144567
0.13923
0.133444
0.127163
0.120297
0.112826
0.104524
0.0956058
0.0851738
0.074834
0.0603416
0.0504474
0.0246337
0.0264028
0.183398
0.181257
0.178469
0.175639
0.172625
0.169305
0.165747
0.161986
0.157987
0.153709
0.149121
0.144183
0.138847
0.133058
0.12677
0.119892
0.11241
0.104085
0.0951619
0.0846823
0.0743808
0.0597555
0.050084
0.0239083
0.0265362
0.182156
0.180166
0.17763
0.174934
0.171999
0.168763
0.165275
0.16156
0.157593
0.153337
0.148763
0.143832
0.138499
0.132708
0.126414
0.119526
0.112035
0.103689
0.0947622
0.0842382
0.0739755
0.0592261
0.0497718
0.0232651
0.0267092
0.181076
0.179198
0.17685
0.174269
0.171414
0.168255
0.164832
0.161163
0.157227
0.152994
0.148435
0.143512
0.138182
0.13239
0.126092
0.119195
0.111695
0.103331
0.0944013
0.0838359
0.073612
0.0587472
0.0495028
0.0226938
0.0269078
0.180129
0.178335
0.176129
0.173647
0.170866
0.16778
0.164417
0.160792
0.156888
0.152677
0.148133
0.143219
0.137893
0.1321
0.125799
0.118894
0.111387
0.103006
0.0940745
0.0834709
0.0732851
0.0583138
0.0492706
0.0221856
0.0271214
0.179294
0.177563
0.175465
0.173067
0.170355
0.167335
0.164029
0.160446
0.156572
0.152385
0.147856
0.142951
0.137629
0.131837
0.125533
0.118621
0.111107
0.102711
0.0937785
0.0831396
0.0729907
0.0579216
0.0490698
0.0217332
0.0273418
0.178552
0.176871
0.174855
0.172529
0.16988
0.166921
0.163667
0.160124
0.15628
0.152114
0.147601
0.142705
0.137388
0.131597
0.125291
0.118373
0.110854
0.102443
0.0935102
0.082839
0.0727255
0.057567
0.0488958
0.0213307
0.0275629
0.177892
0.17625
0.174299
0.172033
0.169441
0.166536
0.16333
0.159825
0.15601
0.151866
0.147367
0.14248
0.137168
0.131378
0.125071
0.118148
0.110624
0.102201
0.0932673
0.0825667
0.0724867
0.0572471
0.0487449
0.0209729
0.02778
0.177304
0.175694
0.173793
0.171578
0.169037
0.166181
0.163018
0.159548
0.155761
0.151637
0.147153
0.142276
0.136969
0.13118
0.124872
0.117944
0.110416
0.101981
0.0930478
0.0823205
0.072272
0.0569592
0.0486139
0.0206558
0.0279892
0.176781
0.175196
0.173334
0.171163
0.168666
0.165855
0.162731
0.159294
0.155532
0.151428
0.146958
0.14209
0.136788
0.131001
0.124692
0.117761
0.110228
0.101784
0.0928501
0.0820989
0.0720793
0.0567013
0.0485001
0.0203759
0.0281877
0.176316
0.174752
0.172922
0.170786
0.168329
0.165557
0.162469
0.159061
0.155324
0.151238
0.146781
0.141922
0.136625
0.13084
0.124531
0.117596
0.11006
0.101606
0.0926726
0.0819001
0.0719069
0.0564714
0.0484011
0.0201301
0.0283731
0.175903
0.174357
0.172552
0.170448
0.168025
0.165287
0.162231
0.15885
0.155135
0.151066
0.146622
0.141771
0.136479
0.130696
0.124386
0.117448
0.10991
0.101448
0.0925141
0.0817231
0.0717534
0.0562679
0.048315
0.019916
0.0285435
0.175541
0.174009
0.172225
0.170146
0.167752
0.165045
0.162017
0.158661
0.154965
0.150912
0.146479
0.141636
0.136349
0.130568
0.124258
0.117318
0.109777
0.101307
0.0923735
0.0815665
0.0716174
0.0560893
0.04824
0.0197314
0.0286975
0.175224
0.173706
0.171937
0.169879
0.167511
0.16483
0.161827
0.158493
0.154815
0.150776
0.146354
0.141518
0.136235
0.130456
0.124146
0.117203
0.109659
0.101184
0.0922499
0.0814295
0.0714978
0.0559343
0.0481746
0.0195747
0.0288339
0.174951
0.173443
0.171688
0.169648
0.167301
0.164642
0.16166
0.158345
0.154683
0.150657
0.146244
0.141414
0.136135
0.130358
0.124048
0.117104
0.109558
0.101077
0.0921423
0.0813111
0.0713935
0.055802
0.0481173
0.0194443
0.0289517
0.174719
0.173221
0.171476
0.16945
0.167121
0.164481
0.161517
0.158218
0.15457
0.150555
0.14615
0.141326
0.13605
0.130274
0.123965
0.117019
0.109471
0.100986
0.0920502
0.0812107
0.0713039
0.0556913
0.0480672
0.0193392
0.0290501
0.174528
0.173037
0.1713
0.169285
0.166971
0.164346
0.161398
0.158112
0.154475
0.150469
0.146071
0.141252
0.135979
0.130205
0.123895
0.116948
0.109398
0.10091
0.0919728
0.0811276
0.071228
0.0556016
0.0480232
0.0192582
0.0291286
0.174375
0.17289
0.171159
0.169153
0.166851
0.164238
0.161301
0.158026
0.154399
0.1504
0.146007
0.141192
0.135921
0.130148
0.123838
0.116891
0.109339
0.100849
0.0919097
0.0810613
0.0711655
0.0555318
0.0479852
0.0191996
0.0291884
0.17426
0.172779
0.171053
0.169053
0.166759
0.164155
0.161227
0.157961
0.15434
0.150347
0.145958
0.141146
0.135877
0.130105
0.123795
0.116846
0.109293
0.100802
0.0918606
0.0810111
0.0711162
0.055481
0.0479534
0.0191612
0.0292313
0.174182
0.172703
0.17098
0.168985
0.166696
0.164099
0.161176
0.157915
0.154299
0.150309
0.145924
0.141113
0.135846
0.130074
0.123763
0.116815
0.10926
0.100769
0.0918247
0.0809773
0.0710783
0.0554508
0.0479231
0.0191496
0.0292476
0.174141
0.172663
0.170941
0.168948
0.166662
0.164067
0.161148
0.15789
0.154276
0.150288
0.145904
0.141094
0.135827
0.130055
0.123745
0.116796
0.10924
0.100751
0.0918004
0.0809625
0.0710461
0.0554519
0.047874
0.019199
0.0291903
0.174136
0.172658
0.170935
0.168943
0.166657
0.164062
0.161143
0.157885
0.154271
0.150283
0.145898
0.141088
0.135821
0.13005
0.123738
0.116791
0.109231
0.100747
0.0917865
0.0809693
0.0710149
0.0554932
0.0477899
0.0193378
0.0290227
0.174182
0.172701
0.170976
0.168981
0.166692
0.164093
0.161169
0.157907
0.154289
0.150299
0.145912
0.141101
0.135833
0.130061
0.123748
0.116802
0.109241
0.10076
0.0917943
0.0809895
0.0710149
0.0555323
0.047762
0.0194207
0.0289424
0.17428
0.172795
0.171065
0.169065
0.166768
0.16416
0.161228
0.157958
0.154334
0.150338
0.145947
0.141133
0.135863
0.13009
0.123777
0.11683
0.109269
0.100792
0.0918244
0.0810262
0.0710442
0.0555767
0.0477792
0.0194682
0.0289209
0.174432
0.17294
0.171204
0.169194
0.166885
0.164264
0.161319
0.158038
0.154404
0.1504
0.146003
0.141185
0.135912
0.130137
0.123824
0.116878
0.109318
0.100843
0.0918759
0.081083
0.0710975
0.0556383
0.0478212
0.0195172
0.0289097
0.17464
0.173138
0.171392
0.16937
0.167044
0.164406
0.161444
0.158147
0.1545
0.150485
0.146081
0.141257
0.13598
0.130203
0.123889
0.116944
0.109386
0.100914
0.091949
0.081161
0.0711744
0.0557198
0.0478852
0.0195748
0.0289012
0.174905
0.173391
0.171631
0.169593
0.167247
0.164585
0.161602
0.158285
0.154622
0.150594
0.14618
0.141349
0.136068
0.130289
0.123975
0.117031
0.109474
0.101005
0.0920445
0.0812608
0.0712759
0.0558214
0.0479734
0.0196402
0.0288997
0.17523
0.1737
0.171923
0.169865
0.167492
0.164803
0.161793
0.158453
0.15477
0.150727
0.146301
0.141463
0.136177
0.130395
0.12408
0.117137
0.109584
0.101119
0.0921634
0.0813832
0.0714034
0.055944
0.0480881
0.0197133
0.0289091
0.175619
0.17407
0.17227
0.170187
0.167782
0.165059
0.162018
0.158651
0.154945
0.150885
0.146446
0.141598
0.136307
0.130523
0.124207
0.117266
0.109716
0.101255
0.0923069
0.0815295
0.0715584
0.0560889
0.0482316
0.0197955
0.0289324
0.176077
0.174503
0.172675
0.17056
0.168117
0.165354
0.162277
0.158879
0.155147
0.151067
0.146614
0.141757
0.136459
0.130672
0.124357
0.117417
0.109872
0.101415
0.0924765
0.0817011
0.0717427
0.0562579
0.0484064
0.0198883
0.0289734
0.17661
0.175005
0.173139
0.170987
0.168498
0.165688
0.16257
0.159137
0.155377
0.151275
0.146807
0.141939
0.136635
0.130845
0.12453
0.117592
0.110053
0.101601
0.0926738
0.0818996
0.0719583
0.0564526
0.0486159
0.0199934
0.0290366
0.177226
0.175581
0.173668
0.17147
0.168926
0.166063
0.162898
0.159426
0.155635
0.15151
0.147025
0.142146
0.136836
0.131043
0.124729
0.117794
0.110262
0.101815
0.0929009
0.0821269
0.0722076
0.0566753
0.0488639
0.0201129
0.0291277
0.177935
0.176238
0.174262
0.172011
0.169403
0.166477
0.163262
0.159747
0.155923
0.151773
0.14727
0.14238
0.137064
0.131268
0.124955
0.118023
0.110499
0.102057
0.09316
0.0823853
0.0724936
0.0569287
0.0491547
0.0202502
0.029253
0.178753
0.176985
0.174928
0.172613
0.169929
0.166933
0.16366
0.160099
0.15624
0.152064
0.147543
0.142642
0.13732
0.131522
0.125211
0.118283
0.110768
0.102332
0.0934539
0.0826775
0.0728195
0.0572161
0.049493
0.0204098
0.0294192
0.179699
0.177831
0.175668
0.173278
0.170506
0.16743
0.164096
0.160485
0.156588
0.152385
0.147847
0.142934
0.137606
0.131807
0.125499
0.118575
0.111072
0.102643
0.0937862
0.0830068
0.07319
0.0575408
0.0498867
0.0205943
0.0296402
0.180806
0.178787
0.176486
0.174011
0.171135
0.167969
0.164568
0.160905
0.156969
0.15274
0.148183
0.143259
0.137927
0.132126
0.125822
0.118904
0.111414
0.102991
0.0941622
0.0833754
0.0736138
0.0579004
0.0503565
0.0207878
0.0299596
0.182069
0.179813
0.177345
0.17478
0.171786
0.168525
0.165058
0.161342
0.157368
0.153113
0.148539
0.143605
0.138268
0.132468
0.126169
0.119256
0.111783
0.103364
0.0945696
0.0837664
0.0740818
0.0582708
0.0509076
0.0209532
0.0304217
0.183443
0.180849
0.178191
0.175542
0.172421
0.169067
0.165537
0.161772
0.157763
0.153484
0.148895
0.143953
0.138613
0.132813
0.126521
0.119613
0.112157
0.103743
0.0949838
0.0841627
0.0745594
0.0586476
0.0514807
0.0211326
0.0309406
0.184932
0.181879
0.179011
0.176286
0.173033
0.169589
0.166
0.16219
0.158149
0.153849
0.149247
0.144298
0.138956
0.133157
0.126872
0.119971
0.112532
0.104123
0.0953978
0.0845629
0.0750343
0.0590373
0.0520475
0.0213581
0.0314659
0.186546
0.182891
0.179797
0.177007
0.173619
0.170089
0.166447
0.162595
0.158526
0.154207
0.149594
0.144638
0.139295
0.133498
0.12722
0.120327
0.112904
0.104502
0.0958084
0.0849651
0.0755016
0.0594394
0.0525982
0.0216344
0.0319848
0.188296
0.183876
0.180542
0.177702
0.174179
0.170567
0.166878
0.162988
0.158893
0.154558
0.149934
0.144973
0.139629
0.133835
0.127564
0.120679
0.113272
0.104879
0.0962132
0.0853671
0.0759583
0.0598509
0.0531292
0.0219571
0.0324954
0.190186
0.184828
0.181242
0.178367
0.174713
0.171025
0.167292
0.163368
0.15925
0.1549
0.150267
0.145301
0.139957
0.134165
0.127903
0.121026
0.113635
0.105252
0.0966103
0.0857667
0.0764023
0.0602685
0.0536384
0.0223201
0.0329969
0.192209
0.185744
0.181893
0.179002
0.175224
0.171462
0.16769
0.163735
0.159596
0.155233
0.150592
0.145622
0.140277
0.134489
0.128234
0.121367
0.11399
0.105618
0.0969981
0.0861617
0.0768322
0.0606886
0.0541242
0.0227163
0.033489
0.194354
0.186627
0.182494
0.179607
0.175712
0.17188
0.168073
0.164091
0.159932
0.155556
0.150908
0.145934
0.14059
0.134805
0.128557
0.1217
0.114336
0.105977
0.0973752
0.08655
0.0772467
0.0611076
0.0545859
0.023138
0.0339713
0.196599
0.187481
0.183046
0.180182
0.17618
0.17228
0.168441
0.164433
0.160257
0.15587
0.151214
0.146236
0.140893
0.135112
0.128871
0.122023
0.114672
0.106326
0.09774
0.0869292
0.0776444
0.0615214
0.0550228
0.0235767
0.0344432
0.198918
0.188311
0.183551
0.180726
0.176629
0.172662
0.168793
0.164763
0.16057
0.156172
0.151509
0.146528
0.141185
0.135407
0.129174
0.122336
0.114997
0.106663
0.0980907
0.0872965
0.0780238
0.0619258
0.055434
0.0240238
0.0349029
0.201272
0.189121
0.184013
0.181241
0.177058
0.173025
0.16913
0.165079
0.16087
0.156462
0.151793
0.146809
0.141465
0.135691
0.129465
0.122636
0.115307
0.106988
0.0984256
0.0876495
0.0783832
0.062317
0.0558184
0.0244716
0.0353482
0.203647
0.189918
0.184445
0.181732
0.177473
0.173374
0.169452
0.165382
0.161159
0.156741
0.152065
0.147077
0.141733
0.135963
0.129743
0.122924
0.115605
0.107299
0.098745
0.087988
0.0787232
0.0626937
0.0561771
0.024915
0.0357796
0.206115
0.190718
0.184859
0.182202
0.177874
0.173708
0.16976
0.165673
0.161436
0.157009
0.152326
0.147335
0.141991
0.136224
0.13001
0.1232
0.115889
0.107596
0.0990488
0.0883103
0.0790444
0.0630518
0.0565131
0.0253416
0.0362023
0.208728
0.19151
0.185233
0.182618
0.178234
0.174006
0.170035
0.165933
0.161684
0.157249
0.15256
0.147566
0.142221
0.136457
0.130248
0.123446
0.116143
0.107859
0.0993181
0.0885934
0.0793287
0.0633614
0.0568141
0.0257016
0.0366
0.210956
0.192166
0.185485
0.182883
0.178473
0.174206
0.170219
0.166107
0.161851
0.15741
0.152718
0.147721
0.142376
0.136614
0.130408
0.12361
0.116311
0.108032
0.0994969
0.0887771
0.0795196
0.0635556
0.0570254
0.0259109
0.0368899
)
;

boundaryField
{
    inlet
    {
        type            zeroGradient;
    }
    outlet
    {
        type            fixedValue;
        value           uniform 0;
    }
    upperWall
    {
        type            zeroGradient;
    }
    lowerWall
    {
        type            zeroGradient;
    }
    frontAndBack
    {
        type            empty;
    }
    procBoundary0to1
    {
        type            processor;
        value           nonuniform List<scalar> 
59
(
0.185311
0.185295
0.185283
0.185274
0.185267
0.18526
0.185254
0.185248
0.185243
0.185237
0.185232
0.18508
0.18508
0.185075
0.18507
0.185064
0.185059
0.185054
0.185049
0.185044
0.185039
0.185035
0.18503
0.185026
0.185021
0.185017
0.185013
0.185009
0.185005
0.185
0.184995
0.184991
0.184986
0.184982
0.184977
0.184973
0.184969
0.184965
0.184961
0.184957
0.184954
0.184951
0.184948
0.184945
0.184943
0.184942
0.184941
0.18494
0.18494
0.184806
0.184806
0.184807
0.184807
0.184807
0.184808
0.184808
0.184808
0.18481
0.184814
)
;
    }
}


// ************************************************************************* //
