/*--------------------------------*- C++ -*----------------------------------*\
  =========                 |
  \\      /  F ield         | OpenFOAM: The Open Source CFD Toolbox
   \\    /   O peration     | Website:  https://openfoam.org
    \\  /    A nd           | Version:  6
     \\/     M anipulation  |
\*---------------------------------------------------------------------------*/
FoamFile
{
    version     2.0;
    format      ascii;
    class       surfaceScalarField;
    location    "0.06";
    object      phi;
}
// * * * * * * * * * * * * * * * * * * * * * * * * * * * * * * * * * * * * * //

dimensions      [0 3 -1 0 0 0 0];

internalField   nonuniform List<scalar> 
6048
(
4.43411e-07
6.55917e-10
4.42749e-07
6.62102e-10
4.4208e-07
6.68605e-10
4.41405e-07
6.75464e-10
4.40722e-07
6.8275e-10
4.40031e-07
6.90536e-10
4.39332e-07
6.98929e-10
4.38624e-07
7.08049e-10
4.37906e-07
7.1807e-10
4.37177e-07
7.29214e-10
4.36435e-07
7.41792e-10
4.35679e-07
7.56193e-10
4.34906e-07
7.72959e-10
4.34113e-07
7.92793e-10
4.33297e-07
8.16665e-10
4.32451e-07
8.45876e-10
4.31568e-07
8.82208e-10
4.3064e-07
9.28166e-10
4.29653e-07
9.87296e-10
4.28588e-07
1.06475e-09
4.2742e-07
1.16825e-09
4.2611e-07
1.3098e-09
4.24601e-07
1.50911e-09
4.22801e-07
1.80001e-09
4.20553e-07
2.24785e-09
4.17575e-07
2.97854e-09
4.13257e-07
4.31784e-09
4.06408e-07
6.84894e-09
3.93351e-07
1.30571e-08
2.37844e-08
3.69566e-07
4.71149e-07
1.34755e-09
4.70451e-07
1.36003e-09
4.69746e-07
1.37307e-09
4.69035e-07
1.38677e-09
4.68316e-07
1.40125e-09
4.6759e-07
1.41665e-09
4.66856e-07
1.43314e-09
4.66113e-07
1.45096e-09
4.65361e-07
1.47041e-09
4.64598e-07
1.49189e-09
4.63824e-07
1.51594e-09
4.63037e-07
1.54324e-09
4.62235e-07
1.57475e-09
4.61416e-07
1.6117e-09
4.60577e-07
1.65577e-09
4.59714e-07
1.70925e-09
4.58821e-07
1.77522e-09
4.57891e-07
1.85799e-09
4.56915e-07
1.9636e-09
4.55879e-07
2.10076e-09
4.54764e-07
2.28229e-09
4.53547e-07
2.5277e-09
4.52188e-07
2.86815e-09
4.50632e-07
3.35521e-09
4.48797e-07
4.0833e-09
4.46552e-07
5.22345e-09
4.43687e-07
7.18325e-09
4.39882e-07
1.06539e-08
4.34617e-07
1.83217e-08
3.28149e-08
4.25586e-07
4.80591e-07
2.05378e-09
4.79879e-07
2.07269e-09
4.79159e-07
2.09241e-09
4.78433e-07
2.11308e-09
4.77699e-07
2.13485e-09
4.76958e-07
2.15795e-09
4.76209e-07
2.18264e-09
4.7545e-07
2.20925e-09
4.74683e-07
2.23822e-09
4.73904e-07
2.27014e-09
4.73114e-07
2.30576e-09
4.72312e-07
2.3461e-09
4.71494e-07
2.39251e-09
4.70659e-07
2.44676e-09
4.69803e-07
2.51126e-09
4.68923e-07
2.58926e-09
4.68013e-07
2.68517e-09
4.67066e-07
2.8051e-09
4.66072e-07
2.95759e-09
4.65018e-07
3.15483e-09
4.63886e-07
3.41466e-09
4.6265e-07
3.76387e-09
4.61273e-07
4.24437e-09
4.59705e-07
4.92408e-09
4.57866e-07
5.92158e-09
4.55645e-07
7.44498e-09
4.52892e-07
9.93554e-09
4.49406e-07
1.414e-08
4.45448e-07
2.228e-08
3.66991e-08
4.41564e-07
4.86063e-07
2.76986e-09
4.8534e-07
2.79529e-09
4.84611e-07
2.82174e-09
4.83875e-07
2.84939e-09
4.83131e-07
2.87848e-09
4.8238e-07
2.90929e-09
4.8162e-07
2.94215e-09
4.80852e-07
2.97751e-09
4.80074e-07
3.01597e-09
4.79286e-07
3.05825e-09
4.78487e-07
3.10537e-09
4.77674e-07
3.15863e-09
4.76847e-07
3.21976e-09
4.76002e-07
3.29111e-09
4.75138e-07
3.37575e-09
4.74249e-07
3.47787e-09
4.73331e-07
3.60316e-09
4.72377e-07
3.75945e-09
4.71377e-07
3.9576e-09
4.70319e-07
4.21309e-09
4.69185e-07
4.54831e-09
4.67952e-07
4.9965e-09
4.66588e-07
5.60874e-09
4.65046e-07
6.46592e-09
4.63264e-07
7.70366e-09
4.61158e-07
9.55136e-09
4.58643e-07
1.24503e-08
4.55663e-07
1.71199e-08
4.52649e-07
2.52937e-08
3.87211e-08
4.50627e-07
4.89881e-07
3.49386e-09
4.89151e-07
3.52583e-09
4.88414e-07
3.55901e-09
4.87669e-07
3.59365e-09
4.86918e-07
3.63003e-09
4.86159e-07
3.66848e-09
4.85391e-07
3.70945e-09
4.84615e-07
3.75347e-09
4.8383e-07
3.80126e-09
4.83035e-07
3.85374e-09
4.82228e-07
3.91213e-09
4.81408e-07
3.97803e-09
4.80575e-07
4.05354e-09
4.79724e-07
4.14151e-09
4.78854e-07
4.24567e-09
4.77961e-07
4.37109e-09
4.7704e-07
4.52464e-09
4.76083e-07
4.71569e-09
4.75084e-07
4.95727e-09
4.74029e-07
5.26774e-09
4.72904e-07
5.6734e-09
4.71688e-07
6.21286e-09
4.70352e-07
6.94431e-09
4.6886e-07
7.95778e-09
4.67165e-07
9.39854e-09
4.65214e-07
1.15027e-08
4.62975e-07
1.46889e-08
4.60491e-07
1.96048e-08
4.58208e-07
2.75759e-08
3.98147e-08
4.57115e-07
4.92779e-07
4.22478e-09
4.92041e-07
4.26329e-09
4.91297e-07
4.30319e-09
4.90546e-07
4.34477e-09
4.89788e-07
4.38837e-09
4.89022e-07
4.43439e-09
4.88248e-07
4.48333e-09
4.87466e-07
4.53585e-09
4.86674e-07
4.59279e-09
4.85873e-07
4.65521e-09
4.8506e-07
4.72455e-09
4.84235e-07
4.80268e-09
4.83397e-07
4.89206e-09
4.82543e-07
4.99597e-09
4.81669e-07
5.11877e-09
4.80774e-07
5.26633e-09
4.79852e-07
5.44655e-09
4.78898e-07
5.67021e-09
4.77903e-07
5.95219e-09
4.76857e-07
6.31328e-09
4.75748e-07
6.78301e-09
4.74556e-07
7.40408e-09
4.73261e-07
8.2397e-09
4.71834e-07
9.38527e-09
4.70243e-07
1.09893e-08
4.68462e-07
1.32835e-08
4.665e-07
1.66508e-08
4.64454e-07
2.16511e-08
4.62745e-07
2.92848e-08
4.03502e-08
4.62209e-07
4.95081e-07
4.96212e-09
4.94337e-07
5.00714e-09
4.93587e-07
5.05373e-09
4.92829e-07
5.10218e-09
4.92065e-07
5.1529e-09
4.91293e-07
5.20635e-09
4.90513e-07
5.26312e-09
4.89725e-07
5.32394e-09
4.88928e-07
5.38975e-09
4.88121e-07
5.4618e-09
4.87304e-07
5.54169e-09
4.86475e-07
5.63154e-09
4.85633e-07
5.73412e-09
4.84776e-07
5.85314e-09
4.83902e-07
5.99348e-09
4.83006e-07
6.16172e-09
4.82086e-07
6.36666e-09
4.81136e-07
6.62028e-09
4.80149e-07
6.939e-09
4.79117e-07
7.34555e-09
4.78028e-07
7.87191e-09
4.76868e-07
8.56368e-09
4.75621e-07
9.487e-09
4.74267e-07
1.07394e-08
4.72789e-07
1.24675e-08
4.71181e-07
1.48911e-08
4.69481e-07
1.83513e-08
4.67812e-07
2.33194e-08
4.66555e-07
3.0542e-08
4.0522e-08
4.66383e-07
4.96964e-07
5.70566e-09
4.96214e-07
5.75714e-09
4.95458e-07
5.81034e-09
4.94694e-07
5.86558e-09
4.93924e-07
5.92331e-09
4.93146e-07
5.98404e-09
4.92361e-07
6.04843e-09
4.91567e-07
6.11729e-09
4.90765e-07
6.19169e-09
4.89954e-07
6.27298e-09
4.89133e-07
6.36294e-09
4.88301e-07
6.4639e-09
4.87456e-07
6.57892e-09
4.86597e-07
6.71205e-09
4.85722e-07
6.86864e-09
4.84828e-07
7.05585e-09
4.83911e-07
7.28326e-09
4.82968e-07
7.5638e-09
4.81991e-07
7.91509e-09
4.80976e-07
8.36134e-09
4.79911e-07
8.93619e-09
4.78788e-07
9.68696e-09
4.77594e-07
1.0681e-08
4.76318e-07
1.20151e-08
4.74956e-07
1.38303e-08
4.73517e-07
1.633e-08
4.72056e-07
1.98122e-08
4.7071e-07
2.46656e-08
4.69809e-07
3.14432e-08
4.04456e-08
4.69885e-07
4.98535e-07
6.45534e-09
4.97779e-07
6.51324e-09
4.97016e-07
6.57294e-09
4.96247e-07
6.63486e-09
4.95471e-07
6.69945e-09
4.94687e-07
6.76728e-09
4.93897e-07
6.83907e-09
4.93098e-07
6.9157e-09
4.92292e-07
6.99833e-09
4.91476e-07
7.08843e-09
4.90651e-07
7.18791e-09
4.89816e-07
7.2993e-09
4.88969e-07
7.42588e-09
4.88109e-07
7.57199e-09
4.87234e-07
7.74338e-09
4.86342e-07
7.94767e-09
4.85431e-07
8.19504e-09
4.84495e-07
8.49915e-09
4.83532e-07
8.87849e-09
4.82535e-07
9.35826e-09
4.81498e-07
9.97303e-09
4.80414e-07
1.07708e-08
4.79277e-07
1.18185e-08
4.78082e-07
1.32103e-08
4.76833e-07
1.50789e-08
4.75554e-07
1.7609e-08
4.74309e-07
2.1057e-08
4.73235e-07
2.57393e-08
4.72616e-07
3.20626e-08
4.01934e-08
4.72868e-07
4.99864e-07
7.21126e-09
4.99102e-07
7.27548e-09
4.98333e-07
7.3416e-09
4.97558e-07
7.41004e-09
4.96776e-07
7.48133e-09
4.95988e-07
7.55607e-09
4.95192e-07
7.635e-09
4.94388e-07
7.7191e-09
4.93577e-07
7.80957e-09
4.92757e-07
7.908e-09
4.91929e-07
8.01641e-09
4.91091e-07
8.13746e-09
4.90242e-07
8.27463e-09
4.89381e-07
8.43252e-09
4.88508e-07
8.61711e-09
4.87619e-07
8.83643e-09
4.86713e-07
9.10105e-09
4.85787e-07
9.42516e-09
4.84838e-07
9.82779e-09
4.83861e-07
1.03346e-08
4.82854e-07
1.09806e-08
4.81811e-07
1.18133e-08
4.80731e-07
1.28983e-08
4.79616e-07
1.43252e-08
4.78478e-07
1.62172e-08
4.77348e-07
1.87393e-08
4.76295e-07
2.21097e-08
4.75451e-07
2.65832e-08
4.75056e-07
3.24577e-08
3.98125e-08
4.75437e-07
5.01003e-07
5.00234e-07
8.04399e-09
4.99459e-07
8.11641e-09
4.98678e-07
8.19125e-09
4.9789e-07
8.26905e-09
4.97096e-07
8.35046e-09
4.96295e-07
8.43627e-09
4.95486e-07
8.52749e-09
4.9467e-07
8.6254e-09
4.93847e-07
8.73164e-09
4.93015e-07
8.84832e-09
4.92174e-07
8.97824e-09
4.91324e-07
9.12498e-09
4.90463e-07
9.29331e-09
4.89591e-07
9.48944e-09
4.88705e-07
9.7216e-09
4.87806e-07
1.00006e-08
4.8689e-07
1.0341e-08
4.85956e-07
1.0762e-08
4.85001e-07
1.12894e-08
4.84024e-07
1.19578e-08
4.83023e-07
1.28138e-08
4.82001e-07
1.39204e-08
4.80964e-07
1.53619e-08
4.79931e-07
1.72508e-08
4.78937e-07
1.97331e-08
4.78054e-07
2.29928e-08
4.77403e-07
2.72336e-08
4.77188e-07
3.26728e-08
3.9335e-08
4.77666e-07
5.01211e-07
8.81898e-09
5.0043e-07
8.89754e-09
4.99642e-07
8.97861e-09
4.98849e-07
9.06273e-09
4.98049e-07
9.15058e-09
4.97242e-07
9.24298e-09
4.96428e-07
9.34097e-09
4.95608e-07
9.44588e-09
4.9478e-07
9.55938e-09
4.93945e-07
9.68367e-09
4.93102e-07
9.82158e-09
4.9225e-07
9.97682e-09
4.91389e-07
1.01542e-08
4.90518e-07
1.03601e-08
4.89637e-07
1.06029e-08
4.88744e-07
1.08935e-08
4.87839e-07
1.12463e-08
4.8692e-07
1.16807e-08
4.85987e-07
1.22221e-08
4.85041e-07
1.29044e-08
4.84082e-07
1.37725e-08
4.83116e-07
1.48861e-08
4.82155e-07
1.63236e-08
4.81219e-07
1.81866e-08
4.80349e-07
2.0603e-08
4.79615e-07
2.37271e-08
4.79127e-07
2.77209e-08
4.79058e-07
3.27424e-08
3.8783e-08
4.7961e-07
5.0206e-07
9.60059e-09
5.01273e-07
9.68518e-09
5.00479e-07
9.7723e-09
4.99679e-07
9.86255e-09
4.98873e-07
9.95658e-09
4.98061e-07
1.00553e-08
4.97242e-07
1.01597e-08
4.96417e-07
1.02711e-08
4.95585e-07
1.03913e-08
4.94746e-07
1.05225e-08
4.939e-07
1.06675e-08
4.93047e-07
1.08301e-08
4.92186e-07
1.10152e-08
4.91317e-07
1.12291e-08
4.9044e-07
1.14802e-08
4.89554e-07
1.17793e-08
4.88659e-07
1.21409e-08
4.87756e-07
1.25838e-08
4.86845e-07
1.31328e-08
4.85929e-07
1.38207e-08
4.85011e-07
1.46904e-08
4.841e-07
1.57976e-08
4.83209e-07
1.72144e-08
4.82364e-07
1.9032e-08
4.81605e-07
2.13613e-08
4.81001e-07
2.43314e-08
4.80651e-07
2.80705e-08
4.807e-07
3.26933e-08
3.81723e-08
4.81311e-07
5.02802e-07
1.0389e-08
5.02008e-07
1.04795e-08
5.01208e-07
1.05725e-08
5.00402e-07
1.06686e-08
4.9959e-07
1.07686e-08
4.98772e-07
1.08733e-08
4.97948e-07
1.09837e-08
4.97118e-07
1.11012e-08
4.96281e-07
1.12275e-08
4.95439e-07
1.13649e-08
4.9459e-07
1.15161e-08
4.93735e-07
1.1685e-08
4.92874e-07
1.18764e-08
4.92007e-07
1.20965e-08
4.91134e-07
1.23535e-08
4.90255e-07
1.26583e-08
4.89371e-07
1.30248e-08
4.88483e-07
1.34713e-08
4.87594e-07
1.40219e-08
4.86707e-07
1.47077e-08
4.85829e-07
1.5569e-08
4.84969e-07
1.66576e-08
4.84144e-07
1.80391e-08
4.83381e-07
1.97945e-08
4.82723e-07
2.20199e-08
4.82232e-07
2.48225e-08
4.81999e-07
2.83037e-08
4.82145e-07
3.25467e-08
3.75143e-08
4.82803e-07
5.03453e-07
1.11844e-08
5.02652e-07
1.12805e-08
5.01845e-07
1.13792e-08
5.01033e-07
1.14811e-08
5.00214e-07
1.15867e-08
4.99391e-07
1.1697e-08
4.98561e-07
1.18131e-08
4.97726e-07
1.19362e-08
4.96886e-07
1.20681e-08
4.9604e-07
1.22109e-08
4.95188e-07
1.23675e-08
4.94332e-07
1.25415e-08
4.9347e-07
1.27377e-08
4.92605e-07
1.29622e-08
4.91735e-07
1.3223e-08
4.90863e-07
1.35306e-08
4.89989e-07
1.38983e-08
4.89117e-07
1.4344e-08
4.88248e-07
1.48902e-08
4.87389e-07
1.55665e-08
4.86548e-07
1.64103e-08
4.85736e-07
1.74694e-08
4.84973e-07
1.88027e-08
4.84285e-07
2.04821e-08
4.83715e-07
2.25899e-08
4.83322e-07
2.52152e-08
4.83188e-07
2.84384e-08
4.83415e-07
3.23195e-08
3.68178e-08
4.84111e-07
5.13503e-07
1.22889e-08
5.1239e-07
1.2393e-08
5.1127e-07
1.24995e-08
5.10142e-07
1.26092e-08
5.09006e-07
1.27226e-08
5.07863e-07
1.28407e-08
5.06711e-07
1.29644e-08
5.05552e-07
1.30951e-08
5.04386e-07
1.32344e-08
5.03212e-07
1.33845e-08
5.02032e-07
1.3548e-08
5.00845e-07
1.37286e-08
4.99652e-07
1.39307e-08
4.98454e-07
1.41604e-08
4.97251e-07
1.44253e-08
4.96047e-07
1.47354e-08
4.94841e-07
1.51036e-08
4.93639e-07
1.55465e-08
4.92444e-07
1.60855e-08
4.91262e-07
1.67481e-08
4.90103e-07
1.75688e-08
4.88982e-07
1.85911e-08
4.87916e-07
1.9868e-08
4.86936e-07
2.14622e-08
4.86082e-07
2.34445e-08
4.85408e-07
2.5889e-08
4.84987e-07
2.88592e-08
4.84907e-07
3.23991e-08
3.64679e-08
4.85257e-07
4.97558e-07
1.2876e-08
4.96967e-07
1.29838e-08
4.96373e-07
1.30939e-08
4.95775e-07
1.32071e-08
4.95173e-07
1.3324e-08
4.94569e-07
1.34454e-08
4.93961e-07
1.35722e-08
4.9335e-07
1.37058e-08
4.92737e-07
1.38478e-08
4.92121e-07
1.40001e-08
4.91504e-07
1.41654e-08
4.90885e-07
1.43471e-08
4.90267e-07
1.45496e-08
4.89649e-07
1.47784e-08
4.89033e-07
1.50408e-08
4.88422e-07
1.53464e-08
4.87819e-07
1.57071e-08
4.87226e-07
1.61387e-08
4.86651e-07
1.66608e-08
4.861e-07
1.72989e-08
4.85584e-07
1.80846e-08
4.85119e-07
1.90568e-08
4.84724e-07
2.02628e-08
4.84429e-07
2.17572e-08
4.84273e-07
2.36006e-08
4.84308e-07
2.58541e-08
4.84599e-07
2.8568e-08
4.85224e-07
3.17744e-08
3.54343e-08
4.86257e-07
4.83214e-07
1.29981e-08
4.83092e-07
1.31058e-08
4.82971e-07
1.32158e-08
4.82849e-07
1.33287e-08
4.82728e-07
1.34451e-08
4.82607e-07
1.35658e-08
4.82488e-07
1.36917e-08
4.8237e-07
1.38241e-08
4.82253e-07
1.39644e-08
4.82139e-07
1.41145e-08
4.82027e-07
1.4277e-08
4.81919e-07
1.44551e-08
4.81816e-07
1.46527e-08
4.81719e-07
1.48752e-08
4.81631e-07
1.51294e-08
4.81553e-07
1.5424e-08
4.8149e-07
1.57703e-08
4.81446e-07
1.61827e-08
4.81427e-07
1.66793e-08
4.81443e-07
1.72833e-08
4.81504e-07
1.8023e-08
4.81628e-07
1.89335e-08
4.81835e-07
2.0056e-08
4.82154e-07
2.1438e-08
4.82624e-07
2.31308e-08
4.83293e-07
2.51848e-08
4.84221e-07
2.76397e-08
4.85477e-07
3.05189e-08
3.37861e-08
4.87125e-07
4.70316e-07
1.27023e-08
4.70615e-07
1.28067e-08
4.70918e-07
1.29132e-08
4.71224e-07
1.30224e-08
4.71534e-07
1.31349e-08
4.71849e-07
1.32514e-08
4.72167e-07
1.33728e-08
4.72491e-07
1.35002e-08
4.72821e-07
1.36351e-08
4.73156e-07
1.37791e-08
4.73498e-07
1.39347e-08
4.73849e-07
1.41047e-08
4.74209e-07
1.42929e-08
4.74579e-07
1.45042e-08
4.74964e-07
1.47449e-08
4.75365e-07
1.50228e-08
4.75787e-07
1.53484e-08
4.76235e-07
1.57347e-08
4.76716e-07
1.61981e-08
4.7724e-07
1.67593e-08
4.7782e-07
1.74436e-08
4.78471e-07
1.82818e-08
4.79217e-07
1.93099e-08
4.80087e-07
2.05686e-08
4.81117e-07
2.21009e-08
4.82353e-07
2.39483e-08
4.83851e-07
2.61419e-08
4.85671e-07
2.86987e-08
3.1586e-08
4.87871e-07
4.58719e-07
1.20313e-08
4.59397e-07
1.21294e-08
4.6008e-07
1.22295e-08
4.60771e-07
1.2332e-08
4.61468e-07
1.24375e-08
4.62173e-07
1.25467e-08
4.62885e-07
1.26604e-08
4.63606e-07
1.27796e-08
4.64336e-07
1.29056e-08
4.65075e-07
1.304e-08
4.65824e-07
1.3185e-08
4.66586e-07
1.33431e-08
4.67361e-07
1.35179e-08
4.68152e-07
1.37137e-08
4.6896e-07
1.39361e-08
4.69791e-07
1.41923e-08
4.70648e-07
1.44916e-08
4.71537e-07
1.48456e-08
4.72466e-07
1.52688e-08
4.73446e-07
1.57796e-08
4.74489e-07
1.64e-08
4.75614e-07
1.71569e-08
4.76843e-07
1.8081e-08
4.78205e-07
1.92069e-08
4.79735e-07
2.05704e-08
4.81478e-07
2.22051e-08
4.83485e-07
2.41354e-08
4.8581e-07
2.63735e-08
2.88906e-08
4.88506e-07
4.48294e-07
1.10235e-08
4.49311e-07
1.11128e-08
4.50336e-07
1.12037e-08
4.51372e-07
1.12968e-08
4.52417e-07
1.13926e-08
4.53472e-07
1.14917e-08
4.54537e-07
1.15948e-08
4.55614e-07
1.17029e-08
4.56702e-07
1.1817e-08
4.57804e-07
1.19388e-08
4.58919e-07
1.20699e-08
4.60049e-07
1.22128e-08
4.61196e-07
1.23705e-08
4.62363e-07
1.25469e-08
4.63552e-07
1.27469e-08
4.64768e-07
1.29769e-08
4.66014e-07
1.32449e-08
4.67299e-07
1.35611e-08
4.68629e-07
1.39382e-08
4.70017e-07
1.43918e-08
4.71476e-07
1.49411e-08
4.73024e-07
1.56087e-08
4.74685e-07
1.64206e-08
4.76486e-07
1.74057e-08
4.78463e-07
1.85931e-08
4.80659e-07
2.00099e-08
4.83119e-07
2.16751e-08
4.85895e-07
2.35971e-08
2.57513e-08
4.89035e-07
4.38921e-07
9.71345e-09
4.40242e-07
9.79151e-09
4.41575e-07
9.871e-09
4.42919e-07
9.95233e-09
4.44276e-07
1.0036e-08
4.45645e-07
1.01225e-08
4.47027e-07
1.02125e-08
4.48423e-07
1.03069e-08
4.49834e-07
1.04065e-08
4.5126e-07
1.05128e-08
4.52703e-07
1.06272e-08
4.54163e-07
1.07519e-08
4.55645e-07
1.08894e-08
4.57149e-07
1.1043e-08
4.58679e-07
1.1217e-08
4.60239e-07
1.14168e-08
4.61834e-07
1.16492e-08
4.63473e-07
1.19228e-08
4.65162e-07
1.22484e-08
4.66915e-07
1.26391e-08
4.68745e-07
1.31108e-08
4.70672e-07
1.36823e-08
4.72717e-07
1.43751e-08
4.74911e-07
1.52123e-08
4.77286e-07
1.62176e-08
4.79884e-07
1.74122e-08
4.82749e-07
1.88104e-08
4.85928e-07
2.0418e-08
2.22148e-08
4.89464e-07
4.30492e-07
8.13218e-09
4.32086e-07
8.19697e-09
4.33694e-07
8.26291e-09
4.35316e-07
8.33035e-09
4.36953e-07
8.39972e-09
4.38604e-07
8.47147e-09
4.4027e-07
8.54618e-09
4.41952e-07
8.62453e-09
4.43652e-07
8.70736e-09
4.45369e-07
8.79572e-09
4.47105e-07
8.89094e-09
4.48862e-07
8.99471e-09
4.50642e-07
9.10917e-09
4.52448e-07
9.23707e-09
4.54283e-07
9.38189e-09
4.56152e-07
9.54803e-09
4.5806e-07
9.7411e-09
4.60015e-07
9.96807e-09
4.62026e-07
1.02376e-08
4.64104e-07
1.05604e-08
4.66266e-07
1.09492e-08
4.68529e-07
1.14189e-08
4.70918e-07
1.19864e-08
4.7346e-07
1.26701e-08
4.7619e-07
1.34881e-08
4.79145e-07
1.44566e-08
4.8237e-07
1.5586e-08
4.85907e-07
1.68803e-08
1.83232e-08
4.89799e-07
4.2291e-07
6.30765e-09
4.24749e-07
6.35735e-09
4.26604e-07
6.40788e-09
4.28475e-07
6.45956e-09
4.30362e-07
6.51273e-09
4.32266e-07
6.5678e-09
4.34187e-07
6.62523e-09
4.36126e-07
6.68557e-09
4.38084e-07
6.74948e-09
4.40061e-07
6.81782e-09
4.42061e-07
6.89161e-09
4.44083e-07
6.97219e-09
4.46131e-07
7.06123e-09
4.48207e-07
7.16084e-09
4.50316e-07
7.27373e-09
4.5246e-07
7.40329e-09
4.54648e-07
7.5538e-09
4.56885e-07
7.73062e-09
4.59182e-07
7.94036e-09
4.61552e-07
8.19105e-09
4.64009e-07
8.49233e-09
4.66572e-07
8.85541e-09
4.69266e-07
9.29289e-09
4.72118e-07
9.8182e-09
4.75161e-07
1.04446e-08
4.78434e-07
1.11837e-08
4.81977e-07
1.20426e-08
4.85834e-07
1.30238e-08
1.41149e-08
4.90042e-07
4.16086e-07
4.26503e-09
4.18146e-07
4.29801e-09
4.20222e-07
4.33148e-09
4.22316e-07
4.36572e-09
4.24427e-07
4.40102e-09
4.26558e-07
4.43769e-09
4.28707e-07
4.4761e-09
4.30876e-07
4.51665e-09
4.33065e-07
4.55984e-09
4.35277e-07
4.60628e-09
4.37512e-07
4.65673e-09
4.39772e-07
4.71213e-09
4.42059e-07
4.77365e-09
4.44377e-07
4.84279e-09
4.4673e-07
4.92142e-09
4.49121e-07
5.0119e-09
4.51558e-07
5.1172e-09
4.54047e-07
5.24097e-09
4.566e-07
5.38773e-09
4.59228e-07
5.56294e-09
4.61947e-07
5.77309e-09
4.64777e-07
6.02569e-09
4.67741e-07
6.32909e-09
4.70867e-07
6.69213e-09
4.74188e-07
7.1234e-09
4.77742e-07
7.63024e-09
4.81567e-07
8.21701e-09
4.85706e-07
8.88462e-09
9.62496e-09
4.90196e-07
4.09942e-07
2.02696e-09
4.12198e-07
2.04175e-09
4.14473e-07
2.0567e-09
4.16766e-07
2.07203e-09
4.1908e-07
2.08796e-09
4.21413e-07
2.10473e-09
4.23766e-07
2.12257e-09
4.26141e-07
2.14177e-09
4.28538e-07
2.16266e-09
4.30959e-07
2.18559e-09
4.33404e-07
2.21103e-09
4.35877e-07
2.23953e-09
4.38379e-07
2.27176e-09
4.40913e-07
2.30857e-09
4.43484e-07
2.351e-09
4.46095e-07
2.40037e-09
4.48754e-07
2.45826e-09
4.51468e-07
2.52666e-09
4.54248e-07
2.60795e-09
4.57106e-07
2.70501e-09
4.60058e-07
2.82119e-09
4.63123e-07
2.96031e-09
4.66326e-07
3.12657e-09
4.69694e-07
3.32431e-09
4.7326e-07
3.55763e-09
4.7706e-07
3.82985e-09
4.81134e-07
4.14267e-09
4.85523e-07
4.49577e-09
4.88505e-09
4.90263e-07
4.04405e-07
-3.86187e-10
4.06837e-07
-3.90867e-10
4.0929e-07
-3.95739e-10
4.11762e-07
-4.00635e-10
4.14256e-07
-4.05397e-10
4.1677e-07
-4.0988e-10
4.19307e-07
-4.13943e-10
4.21866e-07
-4.17449e-10
4.24449e-07
-4.20261e-10
4.27057e-07
-4.2224e-10
4.29691e-07
-4.23237e-10
4.32354e-07
-4.23096e-10
4.35047e-07
-4.21644e-10
4.37774e-07
-4.18691e-10
4.4054e-07
-4.14029e-10
4.43347e-07
-4.07426e-10
4.46204e-07
-3.98636e-10
4.49118e-07
-3.87394e-10
4.521e-07
-3.73433e-10
4.55161e-07
-3.56494e-10
4.58319e-07
-3.3635e-10
4.61592e-07
-3.12841e-10
4.65004e-07
-2.85914e-10
4.68584e-07
-2.55677e-10
4.72364e-07
-2.22457e-10
4.76381e-07
-1.86852e-10
4.80674e-07
-1.49761e-10
4.85282e-07
-1.12673e-10
-7.58197e-11
4.90243e-07
4.70191e-07
-3.76065e-09
4.73592e-07
-3.79225e-09
4.77021e-07
-3.82448e-09
4.80478e-07
-3.85723e-09
4.83963e-07
-3.89044e-09
4.87477e-07
-3.92405e-09
4.91021e-07
-3.95806e-09
4.94596e-07
-3.9925e-09
4.98203e-07
-4.02744e-09
5.01844e-07
-4.06303e-09
5.0552e-07
-4.0995e-09
5.09234e-07
-4.13714e-09
5.12989e-07
-4.1764e-09
5.16788e-07
-4.21787e-09
5.20637e-07
-4.26234e-09
5.2454e-07
-4.31088e-09
5.28506e-07
-4.36487e-09
5.32545e-07
-4.42609e-09
5.36668e-07
-4.49684e-09
5.40892e-07
-4.58e-09
5.45235e-07
-4.67913e-09
5.4972e-07
-4.7985e-09
5.54377e-07
-4.94308e-09
5.5924e-07
-5.11839e-09
5.64348e-07
-5.33018e-09
5.69745e-07
-5.58388e-09
5.75479e-07
-5.88371e-09
5.81599e-07
-6.23268e-09
-6.62679e-09
5.8815e-07
4.73121e-07
-7.0354e-09
4.76422e-07
-7.09314e-09
4.79749e-07
-7.15193e-09
4.83104e-07
-7.21175e-09
4.86486e-07
-7.27259e-09
4.89896e-07
-7.3345e-09
4.93336e-07
-7.3976e-09
4.96805e-07
-7.46211e-09
5.00306e-07
-7.5283e-09
5.0384e-07
-7.5966e-09
5.07408e-07
-7.66758e-09
5.11013e-07
-7.74203e-09
5.14657e-07
-7.82099e-09
5.18345e-07
-7.9058e-09
5.22081e-07
-7.99827e-09
5.25871e-07
-8.10072e-09
5.29722e-07
-8.21614e-09
5.33645e-07
-8.34835e-09
5.3765e-07
-8.50219e-09
5.41754e-07
-8.68366e-09
5.45975e-07
-8.90009e-09
5.50336e-07
-9.16018e-09
5.54867e-07
-9.47398e-09
5.59601e-07
-9.85251e-09
5.64578e-07
-1.03071e-08
5.69842e-07
-1.08481e-08
5.75442e-07
-1.14834e-08
5.81427e-07
-1.22178e-08
-1.30428e-08
5.87843e-07
4.76212e-07
-1.02032e-08
4.79406e-07
-1.02863e-08
4.82624e-07
-1.03708e-08
4.85869e-07
-1.04568e-08
4.89141e-07
-1.05444e-08
4.9244e-07
-1.06337e-08
4.95768e-07
-1.07249e-08
4.99124e-07
-1.08185e-08
5.02511e-07
-1.0915e-08
5.05929e-07
-1.10149e-08
5.09381e-07
-1.11193e-08
5.12868e-07
-1.12294e-08
5.16394e-07
-1.13468e-08
5.19962e-07
-1.14736e-08
5.23576e-07
-1.16126e-08
5.27243e-07
-1.17672e-08
5.30969e-07
-1.19422e-08
5.34764e-07
-1.21432e-08
5.38639e-07
-1.23777e-08
5.4261e-07
-1.26547e-08
5.46695e-07
-1.29854e-08
5.50918e-07
-1.33828e-08
5.55306e-07
-1.38623e-08
5.59894e-07
-1.44405e-08
5.64722e-07
-1.51346e-08
5.69834e-07
-1.59606e-08
5.75281e-07
-1.69303e-08
5.81114e-07
-1.80506e-08
-1.93088e-08
5.8738e-07
4.79477e-07
-1.32564e-08
4.82554e-07
-1.33638e-08
4.85657e-07
-1.34731e-08
4.88784e-07
-1.35844e-08
4.91938e-07
-1.36978e-08
4.95117e-07
-1.38135e-08
4.98324e-07
-1.39319e-08
5.01559e-07
-1.40535e-08
5.04823e-07
-1.41791e-08
5.08118e-07
-1.43095e-08
5.11445e-07
-1.44461e-08
5.14806e-07
-1.45904e-08
5.18204e-07
-1.47447e-08
5.21642e-07
-1.49118e-08
5.25125e-07
-1.50954e-08
5.28658e-07
-1.53001e-08
5.32248e-07
-1.55321e-08
5.35903e-07
-1.57992e-08
5.39637e-07
-1.6111e-08
5.43462e-07
-1.64799e-08
5.47397e-07
-1.69205e-08
5.51465e-07
-1.74507e-08
5.55694e-07
-1.80909e-08
5.60117e-07
-1.8864e-08
5.64776e-07
-1.97935e-08
5.69717e-07
-2.09015e-08
5.74991e-07
-2.22045e-08
5.80653e-07
-2.37128e-08
-2.54087e-08
5.86753e-07
4.82925e-07
-1.61866e-08
4.85878e-07
-1.63175e-08
4.88856e-07
-1.64506e-08
4.91858e-07
-1.65862e-08
4.94884e-07
-1.67243e-08
4.97936e-07
-1.68653e-08
5.01014e-07
-1.70097e-08
5.04119e-07
-1.71582e-08
5.07251e-07
-1.73116e-08
5.10413e-07
-1.74712e-08
5.13605e-07
-1.76385e-08
5.1683e-07
-1.78155e-08
5.2009e-07
-1.80049e-08
5.23389e-07
-1.82103e-08
5.2673e-07
-1.84362e-08
5.30118e-07
-1.86884e-08
5.3356e-07
-1.89745e-08
5.37065e-07
-1.9304e-08
5.40643e-07
-1.96891e-08
5.44308e-07
-2.0145e-08
5.48078e-07
-2.06903e-08
5.51975e-07
-2.13472e-08
5.56026e-07
-2.2142e-08
5.60266e-07
-2.31037e-08
5.64735e-07
-2.42631e-08
5.69483e-07
-2.56494e-08
5.74564e-07
-2.72851e-08
5.80036e-07
-2.91847e-08
-3.13256e-08
5.85952e-07
4.86568e-07
-1.89851e-08
4.89389e-07
-1.91384e-08
4.92233e-07
-1.92943e-08
4.951e-07
-1.94529e-08
4.9799e-07
-1.96146e-08
5.00904e-07
-1.97798e-08
5.03844e-07
-1.9949e-08
5.06809e-07
-2.0123e-08
5.098e-07
-2.03029e-08
5.12819e-07
-2.04901e-08
5.15867e-07
-2.06865e-08
5.18946e-07
-2.08943e-08
5.22058e-07
-2.11169e-08
5.25206e-07
-2.13583e-08
5.28393e-07
-2.16239e-08
5.31625e-07
-2.19205e-08
5.34908e-07
-2.2257e-08
5.38249e-07
-2.26448e-08
5.41658e-07
-2.30983e-08
5.45148e-07
-2.36355e-08
5.48737e-07
-2.42787e-08
5.52445e-07
-2.50551e-08
5.56299e-07
-2.59965e-08
5.60335e-07
-2.71392e-08
5.64593e-07
-2.85216e-08
5.69125e-07
-3.01817e-08
5.73989e-07
-3.21492e-08
5.7925e-07
-3.4445e-08
-3.70412e-08
5.84965e-07
4.90419e-07
-2.16423e-08
4.93097e-07
-2.18168e-08
4.95797e-07
-2.19943e-08
4.98519e-07
-2.21749e-08
5.01264e-07
-2.2359e-08
5.04031e-07
-2.2547e-08
5.06821e-07
-2.27396e-08
5.09636e-07
-2.29377e-08
5.12476e-07
-2.31426e-08
5.15341e-07
-2.33557e-08
5.18234e-07
-2.35793e-08
5.21156e-07
-2.3816e-08
5.24108e-07
-2.40694e-08
5.27094e-07
-2.43442e-08
5.30117e-07
-2.46464e-08
5.3318e-07
-2.49839e-08
5.3629e-07
-2.53667e-08
5.39453e-07
-2.58078e-08
5.42678e-07
-2.63238e-08
5.45978e-07
-2.69356e-08
5.49369e-07
-2.7669e-08
5.5287e-07
-2.8556e-08
5.56508e-07
-2.96345e-08
5.60317e-07
-3.09485e-08
5.64341e-07
-3.25453e-08
5.68632e-07
-3.44734e-08
5.73255e-07
-3.67718e-08
5.7828e-07
-3.94703e-08
-4.25357e-08
5.83775e-07
4.94487e-07
-2.41479e-08
4.97013e-07
-2.43425e-08
4.99559e-07
-2.45403e-08
5.02126e-07
-2.47415e-08
5.04713e-07
-2.49466e-08
5.07322e-07
-2.5156e-08
5.09953e-07
-2.53705e-08
5.12607e-07
-2.55912e-08
5.15283e-07
-2.58193e-08
5.17984e-07
-2.60565e-08
5.2071e-07
-2.63053e-08
5.23463e-07
-2.65686e-08
5.26244e-07
-2.68503e-08
5.29055e-07
-2.71555e-08
5.319e-07
-2.7491e-08
5.34781e-07
-2.78653e-08
5.37704e-07
-2.82897e-08
5.40675e-07
-2.87786e-08
5.43701e-07
-2.93505e-08
5.46795e-07
-3.00288e-08
5.49969e-07
-3.08433e-08
5.53244e-07
-3.18305e-08
5.56644e-07
-3.30348e-08
5.60204e-07
-3.45083e-08
5.63967e-07
-3.6309e-08
5.67991e-07
-3.84975e-08
5.72345e-07
-4.11252e-08
5.77109e-07
-4.42348e-08
-4.77874e-08
5.82361e-07
4.98785e-07
-2.64909e-08
5.01147e-07
-2.67042e-08
5.03528e-07
-2.69209e-08
5.05928e-07
-2.71414e-08
5.08347e-07
-2.73659e-08
5.10786e-07
-2.75952e-08
5.13246e-07
-2.783e-08
5.15726e-07
-2.80714e-08
5.18227e-07
-2.83208e-08
5.20751e-07
-2.85802e-08
5.23298e-07
-2.88519e-08
5.25868e-07
-2.91392e-08
5.28464e-07
-2.94464e-08
5.31088e-07
-2.97789e-08
5.33741e-07
-3.01438e-08
5.36426e-07
-3.05506e-08
5.39147e-07
-3.10113e-08
5.4191e-07
-3.15417e-08
5.44722e-07
-3.21619e-08
5.47591e-07
-3.28979e-08
5.5053e-07
-3.37829e-08
5.53558e-07
-3.48581e-08
5.56698e-07
-3.61746e-08
5.59983e-07
-3.77936e-08
5.63459e-07
-3.97849e-08
5.67186e-07
-4.22243e-08
5.71239e-07
-4.51784e-08
5.75713e-07
-4.87091e-08
-5.2772e-08
5.80698e-07
5.03323e-07
-2.86592e-08
5.05509e-07
-2.88898e-08
5.07712e-07
-2.91239e-08
5.09932e-07
-2.9362e-08
5.12171e-07
-2.96044e-08
5.14427e-07
-2.98518e-08
5.16703e-07
-3.01051e-08
5.18996e-07
-3.03653e-08
5.2131e-07
-3.06341e-08
5.23643e-07
-3.09133e-08
5.25996e-07
-3.12055e-08
5.28371e-07
-3.15141e-08
5.30769e-07
-3.18437e-08
5.3319e-07
-3.21998e-08
5.35636e-07
-3.25901e-08
5.3811e-07
-3.30245e-08
5.40614e-07
-3.35157e-08
5.43153e-07
-3.40806e-08
5.45732e-07
-3.47408e-08
5.48359e-07
-3.55245e-08
5.51044e-07
-3.6468e-08
5.53803e-07
-3.76173e-08
5.56658e-07
-3.90302e-08
5.59643e-07
-4.07778e-08
5.62801e-07
-4.2943e-08
5.66197e-07
-4.56206e-08
5.69915e-07
-4.88965e-08
5.74066e-07
-5.28602e-08
-5.7462e-08
5.78756e-07
5.08109e-07
-3.06401e-08
5.10105e-07
-3.08862e-08
5.12118e-07
-3.11361e-08
5.14146e-07
-3.13901e-08
5.1619e-07
-3.16485e-08
5.1825e-07
-3.19122e-08
5.20327e-07
-3.2182e-08
5.22421e-07
-3.2459e-08
5.24531e-07
-3.27447e-08
5.26659e-07
-3.30413e-08
5.28805e-07
-3.33514e-08
5.30969e-07
-3.36784e-08
5.33153e-07
-3.40269e-08
5.35356e-07
-3.44028e-08
5.3758e-07
-3.4814e-08
5.39826e-07
-3.52707e-08
5.42096e-07
-3.57862e-08
5.44394e-07
-3.6378e-08
5.46722e-07
-3.7069e-08
5.49087e-07
-3.78894e-08
5.51497e-07
-3.8878e-08
5.53965e-07
-4.00854e-08
5.56511e-07
-4.15763e-08
5.59165e-07
-4.34321e-08
5.61973e-07
-4.57508e-08
5.65002e-07
-4.86499e-08
5.68345e-07
-5.22395e-08
5.72135e-07
-5.66499e-08
-6.18256e-08
5.76499e-07
4.98806e-07
-3.28789e-08
5.01062e-07
-3.31423e-08
5.03335e-07
-3.34095e-08
5.05626e-07
-3.36808e-08
5.07934e-07
-3.39569e-08
5.1026e-07
-3.42383e-08
5.12604e-07
-3.45259e-08
5.14966e-07
-3.48209e-08
5.17346e-07
-3.51248e-08
5.19744e-07
-3.54398e-08
5.22161e-07
-3.57684e-08
5.24597e-07
-3.61142e-08
5.27052e-07
-3.64818e-08
5.29526e-07
-3.68771e-08
5.3202e-07
-3.73081e-08
5.34535e-07
-3.77852e-08
5.37071e-07
-3.8322e-08
5.39629e-07
-3.89364e-08
5.42212e-07
-3.96523e-08
5.44824e-07
-4.05009e-08
5.4747e-07
-4.15237e-08
5.5016e-07
-4.27753e-08
5.5291e-07
-4.43266e-08
5.55748e-07
-4.62704e-08
5.58718e-07
-4.87207e-08
5.61891e-07
-5.18232e-08
5.6537e-07
-5.57176e-08
5.69314e-07
-6.05948e-08
-6.63927e-08
5.73881e-07
5.14207e-07
-3.45777e-08
5.15919e-07
-3.48539e-08
5.17643e-07
-3.5134e-08
5.19381e-07
-3.54183e-08
5.21131e-07
-3.57073e-08
5.22894e-07
-3.60016e-08
5.24671e-07
-3.63022e-08
5.2646e-07
-3.66102e-08
5.28263e-07
-3.69271e-08
5.30078e-07
-3.7255e-08
5.31906e-07
-3.75965e-08
5.33747e-07
-3.79551e-08
5.356e-07
-3.83353e-08
5.37466e-07
-3.8743e-08
5.39344e-07
-3.91862e-08
5.41234e-07
-3.9675e-08
5.43136e-07
-4.02233e-08
5.45048e-07
-4.0849e-08
5.46972e-07
-4.15764e-08
5.48909e-07
-4.24376e-08
5.50861e-07
-4.34757e-08
5.52834e-07
-4.47486e-08
5.54841e-07
-4.63333e-08
5.56904e-07
-4.83336e-08
5.59064e-07
-5.08808e-08
5.61395e-07
-5.41541e-08
5.64006e-07
-5.83285e-08
5.67095e-07
-6.3684e-08
-7.01473e-08
5.7085e-07
5.32937e-07
-3.56213e-08
5.33988e-07
-3.59051e-08
5.35046e-07
-3.61927e-08
5.36113e-07
-3.64845e-08
5.37186e-07
-3.67808e-08
5.38267e-07
-3.70825e-08
5.39355e-07
-3.73902e-08
5.4045e-07
-3.77052e-08
5.41552e-07
-3.8029e-08
5.4266e-07
-3.83634e-08
5.43775e-07
-3.87111e-08
5.44895e-07
-3.90754e-08
5.4602e-07
-3.94607e-08
5.4715e-07
-3.98728e-08
5.48283e-07
-4.03192e-08
5.49418e-07
-4.08101e-08
5.50554e-07
-4.13589e-08
5.51688e-07
-4.19834e-08
5.52819e-07
-4.27076e-08
5.53946e-07
-4.35639e-08
5.55066e-07
-4.45963e-08
5.56183e-07
-4.58651e-08
5.57302e-07
-4.74521e-08
5.5844e-07
-4.94721e-08
5.59633e-07
-5.20732e-08
5.60954e-07
-5.54755e-08
5.62518e-07
-5.98921e-08
5.64571e-07
-6.57369e-08
-7.29114e-08
5.67335e-07
5.55677e-07
-3.58705e-08
5.55927e-07
-3.61555e-08
5.56179e-07
-3.64441e-08
5.56431e-07
-3.67368e-08
5.56684e-07
-3.70339e-08
5.56938e-07
-3.7336e-08
5.57192e-07
-3.7644e-08
5.57445e-07
-3.79589e-08
5.57698e-07
-3.82822e-08
5.57951e-07
-3.86156e-08
5.58201e-07
-3.89617e-08
5.58449e-07
-3.93236e-08
5.58694e-07
-3.97053e-08
5.58934e-07
-4.01125e-08