/*--------------------------------*- C++ -*----------------------------------*\
  =========                 |
  \\      /  F ield         | OpenFOAM: The Open Source CFD Toolbox
   \\    /   O peration     | Website:  https://openfoam.org
    \\  /    A nd           | Version:  6
     \\/     M anipulation  |
\*---------------------------------------------------------------------------*/
FoamFile
{
    version     2.0;
    format      ascii;
    class       volVectorField;
    location    "0.06";
    object      U;
}
// * * * * * * * * * * * * * * * * * * * * * * * * * * * * * * * * * * * * * //

dimensions      [0 1 -1 0 0 0 0];

internalField   nonuniform List<vector> 
3080
(
(0.447387 -3.14796e-05 1.08383e-20)
(0.447421 -3.11094e-05 1.07844e-20)
(0.447454 -3.06323e-05 0)
(0.447486 -3.0033e-05 1.06774e-20)
(0.447516 -2.92917e-05 0)
(0.447545 -2.83821e-05 0)
(0.447571 -2.72702e-05 1.0519e-20)
(0.447594 -2.59112e-05 0)
(0.447613 -2.42461e-05 1.04149e-20)
(0.447627 -2.21956e-05 0)
(0.447635 -1.96548e-05 0)
(0.447635 -1.64843e-05 1.02615e-20)
(0.447625 -1.24997e-05 0)
(0.447603 -7.45556e-06 1.01616e-20)
(0.447564 -1.02315e-06 0)
(0.447504 7.24068e-06 0)
(0.447417 1.79407e-05 0)
(0.447294 3.19148e-05 -9.9711e-21)
(0.447122 5.0345e-05 0)
(0.446887 7.49374e-05 9.88388e-21)
(0.446564 0.000108232 0)
(0.446122 0.000154138 0)
(0.44551 0.000219034 0)
(0.444653 0.000313651 0)
(0.443429 0.00045891 0)
(0.441594 0.000692348 0)
(0.438824 0.00112076 0)
(0.433781 0.00189324 -1.96223e-20)
(0.426513 0.00390822 0)
(0.403917 0.00694611 0)
(0.475371 -5.78953e-05 8.60034e-21)
(0.475412 -5.70431e-05 -8.56254e-21)
(0.475453 -5.59721e-05 0)
(0.475493 -5.46457e-05 8.48327e-21)
(0.475532 -5.3018e-05 0)
(0.47557 -5.10313e-05 0)
(0.475606 -4.86125e-05 -8.36805e-21)
(0.47564 -4.5667e-05 1.66577e-20)
(0.47567 -4.20703e-05 -8.29091e-21)
(0.475697 -3.76578e-05 0)
(0.475719 -3.22114e-05 0)
(0.475735 -2.54429e-05 8.17539e-21)
(0.475743 -1.69701e-05 0)
(0.475741 -6.28471e-06 8.1004e-21)
(0.475727 7.29316e-06 0)
(0.475696 2.46799e-05 0)
(0.475645 4.7124e-05 0)
(0.475566 7.63507e-05 7.9569e-21)
(0.475451 0.000114787 0)
(0.475287 0.00016592 -7.89038e-21)
(0.475059 0.000234913 0)
(0.474744 0.000329662 0)
(0.47431 0.000462899 1.56145e-20)
(0.473707 0.000655926 -1.55752e-20)
(0.472867 0.000948839 0)
(0.471663 0.00141502 0)
(0.469981 0.00224038 0)
(0.467272 0.00372638 4.698e-20)
(0.464109 0.00720677 0)
(0.457233 0.0134139 -3.21845e-20)
(0.484898 -9.89406e-05 -1.40295e-20)
(0.48494 -9.75783e-05 0)
(0.484981 -9.58958e-05 0)
(0.485021 -9.3833e-05 -4.15262e-20)
(0.48506 -9.13174e-05 2.7559e-20)
(0.485098 -8.82598e-05 0)
(0.485134 -8.45479e-05 2.73096e-20)
(0.485168 -8.00371e-05 -1.35932e-20)
(0.485199 -7.45391e-05 0)
(0.485225 -6.78064e-05 0)
(0.485248 -5.95125e-05 0)
(0.485264 -4.92264e-05 -4.00347e-20)
(0.485272 -3.63777e-05 0)
(0.485271 -2.02089e-05 -1.3223e-20)
(0.485257 2.90944e-07 0)
(0.485226 2.64813e-05 0)
(0.485174 6.0208e-05 0)
(0.485095 0.000104009 0)
(0.484979 0.00016143 0)
(0.484815 0.000237527 0)
(0.484586 0.000339693 -2.56543e-20)
(0.484271 0.000479068 0)
(0.483836 0.000673186 -1.27405e-20)
(0.483236 0.00095068 3.81235e-20)
(0.482406 0.00136255 0)
(0.481237 0.00199954 0)
(0.479624 0.00306379 -2.54049e-20)
(0.477233 0.00490085 -2.55541e-20)
(0.474432 0.00864439 2.57646e-20)
(0.470464 0.0155834 2.62669e-20)
(0.49042 -0.000139272 -2.42481e-20)
(0.49046 -0.000137387 0)
(0.4905 -0.000135083 0)
(0.490539 -0.000132275 2.39249e-20)
(0.490577 -0.000128861 -9.3653e-25)
(0.490613 -0.000124717 0)
(0.490648 -0.000119686 -2.35993e-20)
(0.490681 -0.000113571 -2.34897e-20)
(0.49071 -0.000106112 0)
(0.490736 -9.69712e-05 0)
(0.490758 -8.57057e-05 2.3164e-20)
(0.490773 -7.17304e-05 9.23933e-25)
(0.490782 -5.42727e-05 0)
(0.49078 -3.23086e-05 2.2841e-20)
(0.490766 -4.47334e-06 0)
(0.490737 3.10641e-05 0)
(0.490686 7.67835e-05 0)
(0.490609 0.000136082 -2.24246e-20)
(0.490496 0.000213685 0)
(0.490337 0.000316284 0)
(0.490115 0.000453576 2.21429e-20)
(0.489811 0.000640002 0)
(0.489394 0.000897864 0)
(0.488824 0.00126279 -4.38485e-20)
(0.488046 0.00179552 0)
(0.486973 0.00260053 0)
(0.485534 0.0038872 2.19031e-20)
(0.483547 0.00600438 4.38828e-20)
(0.48136 0.00986702 -2.21873e-20)
(0.478911 0.0164459 0)
(0.494274 -0.000176841 2.18159e-20)
(0.494312 -0.000174438 -2.17173e-20)
(0.49435 -0.000171527 0)
(0.494387 -0.000167998 2.15211e-20)
(0.494423 -0.00016372 -2.14234e-20)
(0.494457 -0.000158533 0)
(0.494491 -0.000152237 -2.12252e-20)
(0.494522 -0.00014458 4.22532e-20)
(0.49455 -0.000135235 0)
(0.494575 -0.000123773 4.18564e-20)
(0.494595 -0.000109638 -2.08301e-20)
(0.49461 -9.20938e-05 2.07313e-20)
(0.494618 -7.01727e-05 0)
(0.494617 -4.25931e-05 -2.0535e-20)
(0.494604 -7.65091e-06 0)
(0.494576 3.69356e-05 0)
(0.494528 9.42475e-05 0)
(0.494455 0.00016849 2.0153e-20)
(0.494348 0.000265482 0)
(0.494198 0.000393409 0)
(0.49399 0.00056402 0)
(0.493705 0.000794591 0)
(0.493318 0.00111131 0)
(0.492795 0.00155503 1.9685e-20)
(0.492091 0.00219269 0)
(0.491147 0.00313491 3.91982e-20)
(0.489924 0.00458468 0)
(0.488347 0.00686282 -3.93538e-20)
(0.486759 0.0106729 -3.93789e-20)
(0.485336 0.0166735 0)
(0.497198 -0.00021218 0)
(0.497234 -0.000209276 2.00406e-20)
(0.49727 -0.000205788 0)
(0.497304 -0.00020158 -5.95723e-20)
(0.497338 -0.000196493 0)
(0.497371 -0.000190331 3.9347e-20)
(0.497402 -0.000182855 1.9582e-20)
(0.497431 -0.000173759 -1.94896e-20)
(0.497458 -0.000162649 0)
(0.497481 -0.000149014 -3.86094e-20)
(0.497501 -0.000132188 0)
(0.497515 -0.000111294 -3.82378e-20)
(0.497523 -8.5182e-05 0)
(0.497522 -5.23309e-05 0)
(0.49751 -1.07226e-05 0)
(0.497485 4.23377e-05 0)
(0.497441 0.000110477 0)
(0.497373 0.000198624 3.71488e-20)
(0.497275 0.000313562 3.69758e-20)
(0.497137 0.000464759 0)
(0.496947 0.00066567 0)
(0.496688 0.000935807 0)
(0.496339 0.00130419 0)
(0.495874 0.00181497 -3.62278e-20)
(0.49526 0.00253784 0)
(0.49446 0.00358321 -7.21387e-20)
(0.493465 0.00513875 3.6003e-20)
(0.492271 0.00748413 3.59946e-20)
(0.491208 0.0111474 3.62052e-20)
(0.490528 0.0165581 3.59538e-20)
(0.499523 -0.000245342 0)
(0.499556 -0.000241968 0)
(0.499589 -0.000237945 0)
(0.499621 -0.000233114 1.15493e-24)
(0.499652 -0.000227286 3.71013e-20)
(0.499682 -0.000220236 -3.69281e-20)
(0.499711 -0.000211683 3.67521e-20)
(0.499738 -0.000201272 0)
(0.499763 -0.000188549 -3.64013e-20)
(0.499785 -0.000172925 0)
(0.499803 -0.000153631 3.60496e-20)
(0.499817 -0.000129663 3.58755e-20)
(0.499824 -9.97041e-05 0)
(0.499824 -6.20162e-05 0)
(0.499814 -1.42996e-05 3.53484e-20)
(0.499792 4.65076e-05 3.5175e-20)
(0.499753 0.000124512 3.50032e-20)
(0.499693 0.000225267 -5.0572e-24)
(0.499605 0.000356368 -3.46734e-20)
(0.499482 0.000528331 0)
(0.499313 0.000755938 0)
(0.499085 0.00106032 0)
(0.498781 0.00147229 3.40559e-20)
(0.498382 0.00203756 3.3952e-20)
(0.497867 0.00282576 0)
(0.497217 0.00394264 6.7486e-20)
(0.496447 0.00555617 -7.31788e-23)
(0.495597 0.00790216 -1.06874e-22)
(0.494979 0.0113718 -3.35516e-20)
(0.49485 0.0162331 -6.702e-20)
(0.501425 -0.000276125 -3.59104e-20)
(0.501454 -0.000272323 0)
(0.501484 -0.00026782 0)
(0.501512 -0.000262431 1.04539e-24)
(0.501541 -0.000255946 -7.04962e-20)
(0.501568 -0.000248107 -3.50804e-20)
(0.501594 -0.000238598 -3.49137e-20)
(0.501619 -0.000227019 3.47444e-20)
(0.501642 -0.000212859 6.9153e-20)
(0.501662 -0.000195458 -3.4407e-20)
(0.501679 -0.000173958 -1.59623e-24)
(0.501692 -0.000147241 0)
(0.5017 -0.000113839 0)
(0.5017 -7.1827e-05 0)
(0.501693 -1.86588e-05 -3.35655e-20)
(0.501674 4.90426e-05 -3.33987e-20)
(0.50164 0.000135788 -3.32332e-20)
(0.501589 0.000247648 -5.53176e-24)
(0.501513 0.000392868 0)
(0.501407 0.000582767 0)
(0.501263 0.000833073 0)
(0.501069 0.00116594 0)
(0.500815 0.00161304 -3.23159e-20)
(0.500486 0.00222021 0)
(0.500073 0.00305485 0)
(0.499573 0.00421533 -3.19794e-20)
(0.499018 0.00584853 -3.19023e-20)
(0.498473 0.00814871 -3.18394e-20)
(0.498226 0.0114026 3.1789e-20)
(0.498511 0.0157674 3.1632e-20)
(0.503011 -0.000304281 6.88666e-20)
(0.503037 -0.000300105 -3.42736e-20)
(0.503063 -0.000295183 0)
(0.503088 -0.000289317 3.39543e-20)
(0.503113 -0.000282268 3.37931e-20)
(0.503137 -0.000273754 3.36314e-20)
(0.50316 -0.000263425 3.34681e-20)
(0.503182 -0.000250841 -3.33064e-20)
(0.503203 -0.000235443 -3.31433e-20)
(0.503221 -0.000216508 3.29798e-20)
(0.503237 -0.000193099 -6.56306e-20)
(0.503249 -0.000164 0)
(0.503256 -0.000127618 0)
(0.503258 -8.18634e-05 -3.23223e-20)
(0.503253 -2.39886e-05 3.21586e-20)
(0.503238 4.96431e-05 0)
(0.503211 0.000143867 6.36663e-20)
(0.503169 0.000265157 -3.1678e-20)
(0.503107 0.000422241 0)
(0.50302 0.000626997 0)
(0.502902 0.000895737 0)
(0.502745 0.00125109 6.21042e-20)
(0.502543 0.0017248 6.18143e-20)
(0.502287 0.00236164 0)
(0.501977 0.00322536 0)
(0.501622 0.00440543 0)
(0.501266 0.00602802 6.07844e-20)
(0.500988 0.00825042 6.05427e-20)
(0.501049 0.0112809 -6.02826e-20)
(0.501648 0.0152027 0)
(0.504355 -0.000329558 -9.44769e-25)
(0.504377 -0.000325068 6.61891e-20)
(0.504398 -0.000319804 0)
(0.50442 -0.000313547 0)
(0.504441 -0.00030604 0)
(0.504461 -0.000296976 0)
(0.504481 -0.000285978 -3.23109e-20)
(0.5045 -0.000272572 0)
(0.504518 -0.000256154 0)
(0.504534 -0.000235952 0)
(0.504548 -0.000210964 9.50196e-20)
(0.504559 -0.000179889 6.3025e-20)
(0.504566 -0.000141034 0)
(0.504569 -9.21807e-05 3.11944e-20)
(0.504566 -3.04185e-05 -3.10347e-20)
(0.504555 4.8088e-05 -6.17431e-20)
(0.504535 0.000148417 -6.14341e-20)
(0.504503 0.000277327 -6.11071e-20)
(0.504455 0.000443869 -6.07923e-20)
(0.504388 0.000660243 6.04807e-20)
(0.504298 0.000943009 0)
(0.50418 0.0013148 -3.3046e-23)
(0.504031 0.00180675 -1.19195e-19)
(0.503849 0.00246175 0)
(0.50364 0.00333896 0)
(0.503423 0.00451833 0)
(0.503249 0.00610682 -1.33067e-22)
(0.503204 0.00823005 -1.74767e-22)
(0.503518 0.0110379 5.80772e-20)
(0.504359 0.0145662 0)
(0.505505 -0.000351703 -3.2287e-20)
(0.505523 -0.000346972 -3.21355e-20)
(0.50554 -0.000341448 0)
(0.505557 -0.000334897 6.36593e-20)
(0.505574 -0.000327047 0)
(0.50559 -0.000317571 0)
(0.505607 -0.000306067 0)
(0.505622 -0.000292033 0)
(0.505637 -0.000274834 6.21117e-20)
(0.50565 -0.000253653 0)
(0.505662 -0.000227439 -6.14884e-20)
(0.505672 -0.000194829 -3.72184e-24)
(0.505679 -0.000154049 -6.0856e-20)
(0.505683 -0.000102787 0)
(0.505682 -3.80155e-05 0)
(0.505676 4.42402e-05 5.99181e-20)
(0.505663 0.000149218 5.95953e-20)
(0.505641 0.000283848 5.9294e-20)
(0.505608 0.000457347 1.59589e-23)
(0.505562 0.000682018 -5.86785e-20)
(0.505501 0.000974376 0)
(0.505422 0.00135665 -5.80782e-20)
(0.505326 0.00185886 1.15529e-19)
(0.505217 0.0025214 0)
(0.505105 0.00339835 0)
(0.505017 0.00456019 5.68506e-20)
(0.505007 0.00609663 -1.13219e-19)
(0.505163 0.00810697 -1.60826e-22)
(0.505687 0.0106981 0)
(0.506717 0.0138763 0)
(0.506513 -0.000365577 0)
(0.506525 -0.000359884 0)
(0.506537 -0.000353146 -1.24186e-19)
(0.506549 -0.000345077 6.17904e-20)
(0.506562 -0.000335334 6.14872e-20)
(0.506574 -0.000323498 0)
(0.506585 -0.000309045 -6.08771e-20)
(0.506596 -0.000291315 -6.05726e-20)
(0.506607 -0.000269462 0)
(0.506617 -0.000242398 0)
(0.506625 -0.000208716 -3.71222e-24)
(0.506632 -0.000166591 5.93376e-20)
(0.506636 -0.000113647 0)
(0.506638 -4.67859e-05 5.87104e-20)
(0.506636 3.80444e-05 0)
(0.50663 0.000146161 -5.80967e-20)
(0.506619 0.000284559 0)
(0.506601 0.00046247 1.14942e-19)
(0.506576 0.000692111 0)
(0.506543 0.000989688 5.68424e-20)
(0.506504 0.00137671 0)
(0.50646 0.00188168 -5.62678e-20)
(0.506421 0.00254214 0)
(0.506402 0.0034069 0)
(0.506432 0.00453742 -5.53803e-20)
(0.506569 0.00600834 5.5076e-20)
(0.506899 0.00789749 -1.47294e-22)
(0.507596 0.0102804 -5.42033e-20)
(0.508776 0.0131458 0)
(0.507373 -0.00038066 0)
(0.50738 -0.000374896 0)
(0.507388 -0.000368084 6.07954e-20)
(0.507395 -0.000359926 -1.66401e-24)
(0.507402 -0.00035007 -6.01987e-20)
(0.50741 -0.000338084 0)
(0.507417 -0.000323431 5.95968e-20)
(0.507425 -0.000305433 0)
(0.507432 -0.000283226 0)
(0.507439 -0.000255702 0)
(0.507446 -0.00022143 -5.83798e-20)
(0.507452 -0.000178559 0)
(0.507457 -0.000124684 -5.77608e-20)
(0.507461 -5.66824e-05 -5.74585e-20)
(0.507464 2.95197e-05 0)
(0.507464 0.00013924 5.6832e-20)
(0.507463 0.000279435 -5.65212e-20)
(0.50746 0.00045922 -1.60516e-23)
(0.507456 0.000690552 -5.58982e-20)
(0.507452 0.000989114 -2.57969e-23)
(0.507451 0.00137543 0)
(0.507458 0.00187625 5.49574e-20)
(0.507486 0.00252602 0)
(0.507552 0.00336836 0)
(0.507691 0.00445641 0)
(0.507959 0.00585186 -5.36292e-20)
(0.508438 0.00761528 -1.34344e-22)
(0.50928 0.00979957 1.05805e-19)
(0.51058 0.0123836 0)
(0.508126 -0.000392021 6.02972e-20)
(0.508127 -0.000386289 6.00057e-20)
(0.508129 -0.00037952 -5.97127e-20)
(0.508131 -0.00037141 -1.61929e-24)
(0.508133 -0.000361601 0)
(0.508136 -0.000349653 0)
(0.508139 -0.000335023 5.85261e-20)
(0.508143 -0.000317026 0)
(0.508147 -0.000294793 -5.79248e-20)
(0.508151 -0.00026721 0)
(0.508156 -0.000232841 0)
(0.508161 -0.000189834 5.70138e-20)
(0.508166 -0.000135793 1.13421e-19)
(0.508172 -6.76097e-05 0)
(0.508178 1.87525e-05 0)
(0.508186 0.000128539 -1.11577e-19)
(0.508195 0.000268575 5.54856e-20)
(0.508207 0.000447741 -5.51771e-20)
(0.508223 0.000677586 5.48679e-20)
(0.508246 0.000973093 -5.4558e-20)
(0.508282 0.00135362 -5.42149e-20)
(0.508338 0.00184396 -1.07827e-19)
(0.508428 0.00247544 0)
(0.508574 0.00328668 0)
(0.508812 0.00432331 0)
(0.509196 0.00563604 5.26105e-20)
(0.509803 0.00727179 -5.2229e-20)
(0.510765 0.00926714 -5.18046e-20)
(0.512162 0.0115962 0)
(0.508787 -0.000399488 -5.95339e-20)
(0.508782 -0.000393894 -5.92406e-20)
(0.508778 -0.000387289 5.89457e-20)
(0.508774 -0.000379368 -1.58166e-24)
(0.508771 -0.000369767 0)
(0.508769 -0.000358049 0)
(0.508768 -0.00034367 -1.155e-19)
(0.508767 -0.000325948 0)
(0.508767 -0.000304019 1.14289e-19)
(0.508768 -0.000276779 5.68379e-20)
(0.50877 -0.000242809 0)
(0.508774 -0.000200282 -5.62277e-20)
(0.50878 -0.000146839 -5.59192e-20)
(0.508787 -7.94293e-05 0)
(0.508797 5.8916e-06 0)
(0.508811 0.000114231 1.09964e-19)
(0.50883 0.000252197 -5.46613e-20)
(0.508856 0.00042833 -5.43434e-20)
(0.508892 0.000653649 0)
(0.508941 0.000942301 0)
(0.509012 0.00131233 5.34025e-20)
(0.509114 0.00178651 5.30771e-20)
(0.509262 0.00239303 -5.26972e-20)
(0.509481 0.00316587 0)
(0.509807 0.00414394 0)
(0.510293 0.00536881 0)
(0.51101 0.00687664 0)
(0.512073 0.00869238 0)
(0.513549 0.0107886 0)
(0.509372 -0.000402955 0)
(0.509361 -0.000397611 0)
(0.509351 -0.000391295 -5.77077e-20)
(0.509342 -0.000383704 -1.14869e-19)
(0.509333 -0.000374478 0)
(0.509325 -0.000363183 0)
(0.509319 -0.000349284 1.91796e-24)
(0.509313 -0.000332111 -5.63196e-20)
(0.509309 -0.000310819 -2.47315e-24)
(0.509307 -0.000284327 -2.89211e-24)
(0.509307 -0.000251252 -5.54666e-20)
(0.509309 -0.000209816 -5.51788e-20)
(0.509314 -0.000157729 5.48892e-20)
(0.509322 -9.20401e-05 0)
(0.509336 -8.94348e-06 0)
(0.509356 9.64663e-05 -5.4018e-20)
(0.509384 0.000230505 5.37221e-20)
(0.509423 0.000401284 1.06833e-19)
(0.509476 0.000619185 -5.31043e-20)
(0.509551 0.000897416 0)
(0.509654 0.00125262 0)
(0.509798 0.0017055 -1.04316e-19)
(0.51 0.00228123 1.55524e-19)
(0.510285 0.00300948 -1.02961e-19)
(0.51069 0.0039233 -1.02234e-19)
(0.511265 0.00505665 0)
(0.512076 0.00643736 1.00608e-19)
(0.513224 0.0080822 0)
(0.514765 0.00996413 0)
(0.509881 -0.000402207 5.79886e-20)
(0.509864 -0.000397225 0)
(0.509848 -0.000391325 1.1482e-19)
(0.509833 -0.000384208 1.14237e-19)
(0.509818 -0.000375522 0)
(0.509805 -0.000364843 0)
(0.509794 -0.000351652 5.62375e-20)
(0.509784 -0.000335301 5.59411e-20)
(0.509776 -0.000314972 -5.56436e-20)
(0.50977 -0.000289625 -2.72186e-24)
(0.509767 -0.00025793 3.23044e-24)
(0.509767 -0.000218182 3.88585e-24)
(0.509772 -0.000168189 -4.72523e-24)
(0.509781 -0.000105136 0)
(0.509798 -2.53999e-05 0)
(0.509823 7.56669e-05 0)
(0.50986 0.000204022 0)
(0.509911 0.000367273 -5.29034e-20)
(0.509982 0.000575086 5.25885e-20)
(0.510079 0.000839648 0)
(0.510213 0.00117616 0)
(0.510396 0.00160325 1.03228e-19)
(0.510647 0.00214323 -1.02547e-19)
(0.510992 0.00282186 1.03236e-22)
(0.511466 0.00366707 1.01097e-19)
(0.512119 0.00470655 0)
(0.513011 0.00596165 -9.94451e-20)
(0.51423 0.00744344 -9.82939e-20)
(0.515826 0.00912635 0)
(0.510311 -0.000397549 -1.14792e-19)
(0.510289 -0.000393015 0)
(0.510268 -0.000387629 -5.68117e-20)
(0.510247 -0.000381099 -5.6518e-20)
(0.510228 -0.000373084 0)
(0.51021 -0.000363178 0)
(0.510194 -0.000350883 0)
(0.51018 -0.00033558 0)
(0.510168 -0.000316492 5.50361e-20)
(0.510159 -0.000292631 -1.09478e-19)
(0.510154 -0.000262738 5.4441e-20)
(0.510153 -0.000225199 1.08279e-19)
(0.510157 -0.00017795 -5.38401e-20)
(0.510168 -0.000118339 -5.35326e-20)
(0.510188 -4.29704e-05 0)
(0.510218 5.2501e-05 0)
(0.510262 0.000173619 0)
(0.510325 0.000327425 0)
(0.510412 0.000522806 0)
(0.510531 0.000770879 0)
(0.510693 0.00108536 0)
(0.510911 0.00148288 0)
(0.511206 0.00198302 0)
(0.511604 0.00260796 2.0122e-19)
(0.512141 0.00338122 0)
(0.512862 0.00432528 0)
(0.513823 0.00545642 -9.80793e-20)
(0.515103 0.00678173 9.72826e-20)
(0.516746 0.00827765 0)
(0.510675 -0.000389359 5.68565e-20)
(0.510647 -0.000385338 5.65631e-20)
(0.510621 -0.00038054 5.62706e-20)
(0.510596 -0.000374684 -5.59777e-20)
(0.510572 -0.000367445 0)
(0.51055 -0.000358439 0)
(0.51053 -0.000347196 0)
(0.510513 -0.000333133 0)
(0.510497 -0.000315523 -5.45082e-20)
(0.510486 -0.000293442 2.3164e-24)
(0.510478 -0.000265716 -5.39138e-20)
(0.510476 -0.000230845 -5.36198e-20)
(0.51048 -0.00018691 0)
(0.510492 -0.000131458 4.88432e-24)
(0.510514 -6.13508e-05 -5.27173e-20)
(0.510549 2.74115e-05 5.2414e-20)
(0.510601 0.000139912 5.21082e-20)
(0.510674 0.000282574 0)
(0.510776 0.000463457 0)
(0.510914 0.000692567 0)
(0.511101 0.000982137 0)
(0.511352 0.00134683 -1.01008e-19)
(0.511686 0.00180367 0)
(0.512131 0.00237163 -9.96647e-20)
(0.512722 0.00307033 0)
(0.513501 0.00391795 0)
(0.514523 0.00492684 9.72287e-20)
(0.515853 0.00610131 0)
(0.517537 0.00742013 0)
(0.510979 -0.000378003 5.6364e-20)
(0.510947 -0.00037454 -5.60761e-20)
(0.510916 -0.000370384 -5.57866e-20)
(0.510887 -0.000365268 5.54968e-20)
(0.510859 -0.000358888 0)
(0.510834 -0.000350883 0)
(0.51081 -0.000340817 0)
(0.510789 -0.000328152 5.43345e-20)
(0.510771 -0.000312218 -5.40434e-20)
(0.510756 -0.000292167 5.37541e-20)
(0.510747 -0.000266923 5.34624e-20)
(0.510743 -0.000235115 0)
(0.510747 -0.000194994 0)
(0.510759 -0.000144326 5.25829e-20)
(0.510784 -8.02635e-05 5.42138e-24)
(0.510823 8.1149e-07 -1.03973e-19)
(0.510881 0.000103481 -5.16902e-20)
(0.510964 0.00023351 0)
(0.511079 0.000398092 0)
(0.511235 0.000606092 5.07515e-20)
(0.511444 0.000868267 0)
(0.511723 0.00119737 1.00237e-19)
(0.512092 0.00160804 4.97469e-20)
(0.512578 0.0021163 0)
(0.513215 0.0027384 -9.79944e-20)
(0.514045 0.00348894 0)
(0.515117 0.00437722 9.62741e-20)
(0.516491 0.00540564 9.52983e-20)
(0.518209 0.00655548 9.41016e-20)
(0.511229 -0.000363842 -5.59208e-20)
(0.511193 -0.000360968 0)
(0.511159 -0.000357491 -5.53506e-20)
(0.511126 -0.000353163 0)
(0.511095 -0.000347702 0)
(0.511065 -0.000340775 0)
(0.511038 -0.000331985 0)
(0.511014 -0.000320846 -5.39279e-20)
(0.510993 -0.00030675 1.65865e-24)
(0.510976 -0.000288936 -5.33551e-20)
(0.510965 -0.000266439 0)
(0.51096 -0.00023803 0)
(0.510963 -0.000202148 0)
(0.510976 -0.000156802 -5.22041e-20)
(0.511003 -9.94611e-05 5.19178e-20)
(0.511046 -2.69187e-05 1.03245e-19)
(0.511109 6.48726e-05 0)
(0.5112 0.000180984 -5.10231e-20)
(0.511326 0.000327709 -5.07179e-20)
(0.511497 0.000512763 -1.40956e-23)
(0.511726 0.000745432 -5.00859e-20)
(0.512029 0.00103663 4.97549e-20)
(0.512427 0.00139873 -4.94363e-20)
(0.512949 0.0018451 0)
(0.513626 0.00238902 1.46065e-19)
(0.514499 0.00304211 4.82506e-20)
(0.515613 0.00381126 -9.57115e-20)
(0.517023 0.00469766 -1.42069e-19)
(0.518769 0.00568509 -9.35721e-20)
(0.51143 -0.000347232 5.55195e-20)
(0.511391 -0.000344962 0)
(0.511353 -0.000342188 5.49646e-20)
(0.511317 -0.000338679 0)
(0.511282 -0.000334178 0)
(0.51125 -0.000328386 0)
(0.51122 -0.000320948 0)
(0.511192 -0.000311432 0)
(0.511169 -0.000299305 5.32946e-20)
(0.51115 -0.000283896 1.70039e-24)
(0.511137 -0.000264362 0)
(0.51113 -0.000239631 0)
(0.511133 -0.000208343 0)
(0.511147 -0.000168771 5.18916e-20)
(0.511174 -0.000118723 0)
(0.51122 -5.5429e-05 -5.14195e-24)
(0.511288 2.4596e-05 0)
(0.511386 0.000125701 5.07377e-20)
(0.511521 0.000253259 5.04392e-20)
(0.511705 0.000413821 -1.00256e-19)
(0.51195 0.00061522 1.49332e-23)
(0.512273 0.000866581 -4.94967e-20)
(0.512697 0.00117816 0)
(0.513248 0.00156087 4.87761e-20)
(0.513958 0.00202541 -3.2159e-23)
(0.514866 0.00258083 -4.80202e-20)
(0.516015 0.0032322 0)
(0.517455 0.00397987 4.7102e-20)
(0.519224 0.00481022 0)
(0.511586 -0.000328518 -5.51635e-20)
(0.511544 -0.000326859 2.74459e-20)
(0.511503 -0.000324797 0)
(0.511463 -0.000322124 0)
(0.511425 -0.000318609 0)
(0.51139 -0.00031399 0)
(0.511357 -0.000307957 5.35383e-20)
(0.511327 -0.000300139 -5.3267e-20)
(0.511301 -0.000290079 5.29953e-20)
(0.51128 -0.000277206 5.27246e-20)
(0.511265 -0.000260807 -5.24502e-20)
(0.511257 -0.000239977 0)
(0.511259 -0.000213573 -5.19013e-20)
(0.511273 -0.000180144 0)
(0.511301 -0.000137857 5.13459e-20)
(0.511349 -8.4399e-05 -5.10689e-20)
(0.511421 -1.68716e-05 0)
(0.511524 6.83302e-05 -5.04903e-20)
(0.511667 0.000175643 0)
(0.511861 0.000310446 4.99028e-20)
(0.512119 0.000479134 4.95933e-20)
(0.512459 0.000689106 0)
(0.512903 0.000948596 4.89186e-20)
(0.513478 0.00126627 -2.2226e-23)
(0.514215 0.00165049 -9.63884e-20)
(0.515151 0.00210816 0)
(0.516328 0.00264288 4.73305e-20)
(0.517791 0.00325452 0)
(0.519579 0.00393196 4.62646e-20)
(0.511697 -0.000308037 2.74232e-20)
(0.511653 -0.000306986 -2.72928e-20)
(0.511609 -0.000305638 2.71611e-20)
(0.511567 -0.000303807 2.70299e-20)
(0.511526 -0.000301291 0)
(0.511488 -0.000297867 0)
(0.511453 -0.000293273 -5.32723e-20)
(0.51142 -0.000287203 7.95126e-20)
(0.511392 -0.000279279 -5.27448e-20)
(0.511369 -0.000269039 0)
(0.511352 -0.000255904 7.83214e-20)
(0.511343 -0.000239147 2.59733e-20)
(0.511344 -0.00021785 5.16806e-20)
(0.511357 -0.000190852 0)
(0.511386 -0.000156694 -7.67077e-20)
(0.511435 -0.000113537 0)
(0.511509 -5.90864e-05 0)
(0.511616 9.50195e-06 5.03045e-20)
(0.511765 9.57138e-05 0)
(0.511966 0.000203756 0)
(0.512235 0.000338602 0)
(0.512588 0.000505964 -4.90858e-20)
(0.513048 0.000712153 -4.87657e-20)
(0.513641 0.000963741 -4.84149e-20)
(0.514398 0.00126696 4.80411e-20)
(0.515356 0.00162686 0)
(0.516554 0.00204588 -4.72036e-20)
(0.518035 0.00252358 0)
(0.519837 0.00305136 -9.22696e-20)
(0.511767 -0.000286118 -5.45712e-20)
(0.51172 -0.000285666 -2.71588e-20)
(0.511674 -0.000285024 -2.70326e-20)
(0.511629 -0.00028403 -4.75627e-25)
(0.511586 -0.000282515 0)
(0.511546 -0.000280294 0)
(0.511508 -0.000277158 0)
(0.511474 -0.000272863 -2.6396e-20)
(0.511443 -0.000267121 0)
(0.511418 -0.000259578 0)
(0.511399 -0.000249797 -2.60104e-20)
(0.511389 -0.000237234 -5.1761e-20)
(0.511388 -0.000221203 0)
(0.511401 -0.000200848 2.56182e-20)
(0.511429 -0.000175089 1.13276e-24)
(0.511479 -0.000142578 0)
(0.511555 -0.000101636 2.52148e-20)
(0.511664 -5.01913e-05 -2.5076e-20)
(0.511816 1.42811e-05 0)
(0.512023 9.48147e-05 0)
(0.512299 0.000194974 0)
(0.512661 0.000318826 4.89685e-20)
(0.513132 0.000470824 0)
(0.513738 0.000655558 0)
(0.51451 0.000877314 0)
(0.515484 0.00113947 0)
(0.516697 0.00144352 0)
(0.518189 0.00178885 0)
(0.520001 0.00216937 6.90556e-20)
(0.511797 -0.00026307 2.71675e-20)
(0.511747 -0.000263202 2.70455e-20)
(0.511699 -0.000263254 1.34614e-20)
(0.511652 -0.000263088 -2.68008e-20)
(0.511607 -0.000262567 0)
(0.511564 -0.000261545 0)
(0.511524 -0.000259869 0)
(0.511488 -0.000257362 0)
(0.511455 -0.000253823 -1.30916e-20)
(0.511428 -0.000249012 0)
(0.511408 -0.000242637 0)
(0.511395 -0.000234341 3.87113e-20)
(0.511393 -0.00022368 0)
(0.511404 -0.000210102 -2.55529e-20)
(0.511432 -0.000192921 2.54236e-20)
(0.511481 -0.000171285 0)
(0.511558 -0.00014414 -2.51597e-20)
(0.511668 -0.000110198 2.50242e-20)
(0.511822 -6.78969e-05 1.24419e-20)
(0.512032 -1.53784e-05 1.23703e-20)
(0.512311 4.95236e-05 0)
(0.512679 0.000129256 -1.22187e-20)
(0.513157 0.000226467 0)
(0.513771 0.000343843 -1.20512e-20)
(0.514552 0.000483837 0)
(0.515534 0.000648299 0)
(0.516756 0.000837893 0)
(0.518256 0.00105194 -1.16348e-20)
(0.520072 0.00128679 -2.29922e-20)
(0.511786 -0.000239226 0)
(0.511734 -0.000239926 0)
(0.511684 -0.000240654 -1.37688e-20)
(0.511635 -0.000241298 0)
(0.511588 -0.000241754 0)
(0.511544 -0.000241919 0)
(0.511502 -0.000241691 0)
(0.511463 -0.000240966 0)
(0.511429 -0.000239629 1.34069e-20)
(0.5114 -0.000237557 0)
(0.511377 -0.000234605 0)
(0.511363 -0.000230606 -1.32217e-20)
(0.511359 -0.000225359 0)
(0.511369 -0.000218623 0)
(0.511395 -0.000210109 0)
(0.511443 -0.000199466 0)
(0.511519 -0.000186271 0)
(0.511629 -0.000170022 0)
(0.511783 -0.000150126 -1.27633e-20)
(0.511993 -0.000125898 -1.26917e-20)
(0.512273 -9.65645e-05 0)
(0.512643 -6.12826e-05 1.254e-20)
(0.513123 -1.91814e-05 0)
(0.513739 3.05692e-05 1.23716e-20)
(0.514523 8.86496e-05 0)
(0.515509 0.000155456 0)
(0.516734 0.000230903 0)
(0.518235 0.000314282 1.19508e-20)
(0.520052 0.000404319 0)
(0.511732 -0.000212723 0)
(0.511678 -0.000214009 0)
(0.511626 -0.000215441 0)
(0.511575 -0.000216936 -1.34417e-20)
(0.511526 -0.000218424 0)
(0.511479 -0.000219849 -1.33117e-20)
(0.511435 -0.00022117 1.32462e-20)
(0.511395 -0.000222357 0)
(0.511358 -0.000223396 1.31142e-20)
(0.511327 -0.000224287 0)
(0.511302 -0.000225051 1.29807e-20)
(0.511286 -0.000225728 0)
(0.51128 -0.000226386 -1.28451e-20)
(0.511287 -0.000227127 0)
(0.511311 -0.000228097 0)
(0.511357 -0.000229497 -1.26362e-20)
(0.51143 -0.000231601 -1.25645e-20)
(0.511538 -0.000234772 0)
(0.51169 -0.000239483 -2.48331e-20)
(0.511897 -0.000246339 0)
(0.512176 -0.000256098 2.45197e-20)
(0.512542 -0.000269679 0)
(0.51302 -0.000288162 0)
(0.513634 -0.000312752 0)
(0.514415 -0.000344712 0)
(0.515398 -0.00038524 0)
(0.516619 -0.000435258 0)
(0.518117 -0.000495512 0)
(0.519929 -0.000564758 -2.28145e-20)
(0.511618 -0.000183449 0)
(0.511562 -0.00018535 0)
(0.511508 -0.000187523 -2.75734e-20)
(0.511455 -0.000189915 1.37222e-20)
(0.511404 -0.000192495 0)
(0.511355 -0.000195259 1.35916e-20)
(0.511308 -0.000198229 -1.35259e-20)
(0.511265 -0.000201457 0)
(0.511226 -0.000205036 -1.33932e-20)
(0.511193 -0.000209103 0)
(0.511165 -0.000213855 1.32586e-20)
(0.511146 -0.000219558 -2.63815e-20)
(0.511137 -0.00022657 1.31222e-20)
(0.511141 -0.000235364 2.61058e-20)
(0.511162 -0.000246557 2.59655e-20)
(0.511204 -0.00026095 1.29114e-20)
(0.511273 -0.000279568 -1.28396e-20)
(0.511376 -0.000303714 2.5531e-20)
(0.511522 -0.00033502 -1.11252e-24)
(0.511724 -0.000375496 0)
(0.511995 -0.000427569 -2.5061e-20)
(0.512354 -0.00049409 0)
(0.512822 -0.00057828 0)
(0.513426 -0.0006836 -4.90654e-20)
(0.514196 -0.000813474 4.86683e-20)
(0.515166 -0.00097091 0)
(0.516375 -0.00115781 4.778e-20)
(0.51786 -0.00137503 0)
(0.519661 -0.00161865 -2.33385e-20)
(0.511446 -0.000153748 5.57317e-20)
(0.511388 -0.000156272 0)
(0.511332 -0.000159189 2.7607e-20)
(0.511276 -0.000162477 0)
(0.511223 -0.000166146 0)
(0.511172 -0.000170238 0)
(0.511123 -0.000174839 5.41613e-20)
(0.511078 -0.000180083 0)
(0.511036 -0.000186168 0)
(0.511 -0.000193364 5.33586e-20)
(0.51097 -0.000202041 2.65439e-20)
(0.510947 -0.000212687 7.92221e-20)
(0.510935 -0.000225943 0)
(0.510935 -0.000242646 2.61313e-20)
(0.510952 -0.000263877 -2.59896e-20)
(0.510988 -0.000291023 0)
(0.511051 -0.000325854 7.71078e-20)
(0.511147 -0.000370599 -2.55537e-20)
(0.511285 -0.000428037 -2.54066e-20)
(0.511477 -0.00050158 0)
(0.511737 -0.000595329 0)
(0.512082 -0.000714084 0)
(0.512535 -0.000863252 0)
(0.513121 -0.00104862 4.91056e-20)
(0.513871 -0.0012759 -4.87073e-20)
(0.51482 -0.00155004 0)
(0.516007 -0.00187409 -4.78162e-20)
(0.517474 -0.00224915 0)
(0.519255 -0.00266855 -3.00154e-23)
(0.511211 -0.000124121 -5.58424e-20)
(0.511151 -0.000127272 0)
(0.511093 -0.000130933 0)
(0.511036 -0.000135111 -5.50556e-20)
(0.51098 -0.000139852 0)
(0.510927 -0.000145248 0)
(0.510876 -0.000151445 -4.24265e-25)
(0.510828 -0.000158656 0)
(0.510784 -0.000167179 0)
(0.510745 -0.000177415 -5.34542e-20)
(0.510711 -0.000189898 3.73393e-25)
(0.510685 -0.00020533 -5.29083e-20)
(0.510669 -0.000224627 0)
(0.510665 -0.000248977 1.5467e-24)
(0.510676 -0.000279909 0)
(0.510706 -0.000319382 5.17888e-20)
(0.510761 -0.000369887 -5.14957e-20)
(0.510848 -0.000434564 0)
(0.510975 -0.000517325 1.01801e-19)
(0.511154 -0.000622972 0)
(0.511397 -0.000757289 5.0275e-20)
(0.511724 -0.000927059 0)
(0.512154 -0.00113996 0)
(0.512714 -0.00140423 9.84546e-20)
(0.513436 -0.00172805 0)
(0.514355 -0.00211862 9.68303e-20)
(0.515511 -0.00258038 -9.59185e-20)
(0.51695 -0.00311493 -9.49247e-20)
(0.518705 -0.00371276 1.40491e-19)
(0.510909 -9.50548e-05 5.59926e-20)
(0.510848 -9.88369e-05 -5.57302e-20)
(0.510788 -0.000103237 5.54668e-20)
(0.510729 -0.000108291 7.79296e-25)
(0.510671 -0.00011408 0)
(0.510615 -0.000120742 0)
(0.510562 -0.000128482 -5.44043e-20)
(0.510512 -0.000137586 -5.41357e-20)
(0.510465 -0.000148448 1.07732e-19)
(0.510423 -0.00016159 0)
(0.510386 -0.000177705 5.33239e-20)
(0.510356 -0.000197696 1.06098e-19)
(0.510335 -0.00022274 0)
(0.510325 -0.000254357 -5.2493e-20)
(0.51033 -0.000294505 1.04428e-19)
(0.510352 -0.000345689 -5.19261e-20)
(0.510398 -0.000411097 1.03284e-19)
(0.510473 -0.00049475 0)
(0.510586 -0.00060167 -5.10404e-20)
(0.510748 -0.000738039 -1.01485e-19)
(0.510971 -0.000911334 -5.04113e-20)
(0.511272 -0.00113037 1.00194e-19)
(0.511674 -0.0014052 -9.95069e-20)
(0.512201 -0.00174671 -9.87263e-20)
(0.512885 -0.00216586 0)
(0.513764 -0.00267243 -9.71003e-20)
(0.51488 -0.00327272 9.61869e-20)
(0.516282 -0.00396926 9.51908e-20)
(0.518003 -0.0047495 1.14043e-22)
(0.510537 -6.70447e-05 -5.61916e-20)
(0.510473 -7.14566e-05 1.67782e-19)
(0.510411 -7.65851e-05 5.56615e-20)
(0.51035 -8.24928e-05 1.66192e-19)
(0.51029 -8.92952e-05 0)
(0.510233 -9.71717e-05 -1.09729e-19)
(0.510177 -0.000106381 1.09193e-19)
(0.510124 -0.000117279 -5.43277e-20)
(0.510074 -0.000130346 -2.16231e-19)
(0.510028 -0.000146219 1.07574e-19)
(0.509987 -0.000165736 -1.07027e-19)