/*--------------------------------*- C++ -*----------------------------------*\
  =========                 |
  \\      /  F ield         | OpenFOAM: The Open Source CFD Toolbox
   \\    /   O peration     | Website:  https://openfoam.org
    \\  /    A nd           | Version:  6
     \\/     M anipulation  |
\*---------------------------------------------------------------------------*/
FoamFile
{
    version     2.0;
    format      ascii;
    class       volScalarField;
    location    "0.06";
    object      epsilon;
}
// * * * * * * * * * * * * * * * * * * * * * * * * * * * * * * * * * * * * * //

dimensions      [0 2 -3 0 0 0 0];

internalField   nonuniform List<scalar> 
12225
(
307.542
159.141
103.233
76.2397
60.9865
51.4877
45.0912
40.4798
36.9702
34.1913
31.9287
30.0502
28.4695
27.1361
26.0108
25.0695
24.3415
23.9476
71.5967
59.7477
44.4113
34.3527
27.8154
23.3758
20.2337
17.9225
16.1589
14.7689
13.6442
12.7154
11.9362
11.2772
10.7159
10.2333
9.81937
9.45197
33.6095
34.3981
29.2851
24.3846
20.5387
17.6177
15.3938
13.6762
12.3236
11.2369
10.3475
9.60788
8.98441
8.45371
7.99832
7.60377
7.25942
6.95446
22.4928
24.1932
22.2182
19.5391
17.0649
14.9862
13.2903
11.9143
10.7919
9.86741
9.09732
8.44875
7.8969
7.42352
7.01435
6.65788
6.34533
6.07099
18.0515
19.1632
18.2231
16.593
14.8955
13.3506
12.015
10.883
9.92863
9.12267
8.4385
7.85387
7.35081
6.91537
6.53607
6.20368
5.91114
5.65506
15.9656
16.3983
15.7646
14.6406
13.3947
12.1983
11.1178
10.1692
9.34655
8.63596
8.02179
7.48939
7.02596
6.62096
6.26535
5.95177
5.67459
5.43171
14.9026
14.7882
14.1876
13.2983
12.3126
11.3427
10.4425
9.63203
8.91352
8.28115
7.72594
7.23828
6.80922
6.43074
6.09584
5.79862
5.53467
5.3027
14.3401
13.8251
13.1585
12.3634
11.5217
10.6955
9.92034
9.21206
8.57468
8.00581
7.50005
7.05092
6.65202
6.29719
5.98094
5.69859
5.44665
5.22441
14.0385
13.2454
12.4862
11.7133
10.9447
10.2058
9.51451
8.8798
8.30404
7.78553
7.3204
6.90394
6.53117
6.19728
5.89784
5.62905
5.38816
5.17484
13.8767
12.899
12.0515
11.2668
10.529
9.83948
9.20189
8.61814
8.08761
7.60781
7.17516
6.78562
6.43499
6.11923
5.83464
5.57805
5.34721
5.14206
13.7905
12.6954
11.7761
10.9665
10.2359
9.57103
8.96556
8.41538
7.91668
7.46552
7.05793
6.68984
6.35735
6.05684
5.78501
5.5391
5.3172
5.11939
13.7488
12.588
11.6203
10.7865
10.0517
9.3956
8.80607
8.27486
7.79563
7.36307
6.97244
6.6194
6.30005
6.01088
5.74877
5.51115
5.29631
5.10436
13.7254
12.5234
11.5209
10.6659
9.92296
9.26872
8.68735
8.16771
7.70151
7.2821
6.90399
6.56245
6.25343
5.97338
5.71926
5.48858
5.27974
5.09282
13.7116
12.4831
11.4547
10.5811
9.82827
9.17161
8.59338
8.08049
7.62303
7.2132
6.84475
6.5125
6.21211
5.93992
5.69284
5.46843
5.26509
5.08286
13.7045
12.4608
11.4161
10.5287
9.76663
9.10554
8.52697
8.01678
7.56403
7.16013
6.79815
6.4725
6.17853
5.9124
5.67094
5.45164
5.25289
5.07463
13.7012
12.4503
11.3968
10.5009
9.73222
9.06687
8.4864
7.97638
7.52538
7.12433
6.76591
6.4442
6.15429
5.89218
5.65457
5.4389
5.24348
5.06814
13.7
12.4462
11.3888
10.4888
9.71638
9.04816
8.46588
7.95507
7.50422
7.10405
6.74706
6.42713
6.13923
5.87922
5.64371
5.43006
5.23656
5.0629
13.6996
12.445
11.3863
10.4849
9.71094
9.04141
8.4581
7.9466
7.49539
7.09516
6.73835
6.41878
6.13136
5.87189
5.63695
5.42387
5.23088
5.05765
13.6998
12.4453
11.3869
10.4858
9.7121
9.04267
8.45932
7.94762
7.49604
7.09531
6.73788
6.41758
6.12935
5.86899
5.63311
5.41905
5.22506
5.05083
13.701
12.4493
11.3946
10.4973
9.72703
9.06021
8.47841
7.96718
7.51509
7.113
6.75353
6.43071
6.13959
5.87614
5.63704
5.41972
5.2225
5.04523
13.7054
12.4634
11.42
10.5334
9.77136
9.10967
8.52995
8.01818
7.56349
7.15731
6.79278
6.4643
6.16727
5.89786
5.65291
5.42994
5.22739
5.04526
13.7204
12.5082
11.4949
10.6317
9.88401
9.22794
8.64687
8.1288
7.66463
7.2472
6.87067
6.53014
6.22144
5.94101
5.68581
5.45343
5.24233
5.0527
13.7671
12.6332
11.6845
10.8599
10.1265
9.46659
8.87019
8.33044
7.84191
7.39975
6.9995
6.63699
6.30837
6.01014
5.73918
5.49292
5.26966
5.06969
13.9007
12.9464
12.1092
11.3259
10.585
9.88995
9.24574
8.65479
8.11678
7.62939
7.18908
6.79178
6.43332
6.10966
5.81713
5.55255
5.31377
5.10093
14.2608
13.6662
12.9749
12.1899
11.3729
10.574
9.82303
9.13388
8.51048
7.95105
7.451
7.00463
6.60602
6.24957
5.93019
5.64356
5.38657
5.15892
15.1941
15.2324
14.6359
13.695
12.6465
11.6175
10.6657
9.81157
9.05649
8.39345
7.81228
7.30242
6.85395
6.45813
6.10747
5.79574
5.51836
5.27426
17.6336
18.6183
17.7655
16.259
14.6631
13.1873
11.8932
10.7839
9.84022
9.03759
8.35238
7.7641
7.2558
6.81368
6.42665
6.08592
5.78492
5.52146
24.705
26.4226
23.9016
20.7808
17.9978
15.6998
13.845
12.3524
11.1433
10.1529
9.3316
8.64198
8.05622
7.55339
7.11766
6.73698
6.40242
6.11022
51.9636
47.7335
37.7966
30.1698
24.754
20.8676
18.0217
15.8877
14.2444
12.9452
11.8936
11.0248
10.2947
9.67219
9.135
8.66671
8.25538
7.8951
251.828
137.357
90.7745
67.1131
53.2839
44.4905
38.5278
34.2454
31.0121
28.4688
26.4029
24.6823
23.2214
21.9622
20.8635
19.8954
19.0357
18.2701
0.170902
0.306107
0.528789
0.73065
0.916909
1.0936
1.26369
1.42893
1.59062
1.74987
1.9076
2.06458
2.22136
2.37834
2.5357
2.6935
2.85166
3.01001
3.16834
3.32646
3.4843
3.642
3.80013
3.95993
4.12382
4.29638
4.46594
4.62807
4.78217
4.92754
5.06338
5.18882
5.30303
5.40518
5.49453
5.57045
5.63239
5.67997
5.71297
5.73134
5.73527
5.72521
5.70201
5.66704
5.62257
5.57222
5.52104
5.4736
5.42896
5.37973
5.32372
5.26088
5.19175
5.11708
5.03765
4.95426
4.86772
4.77882
4.68829
4.59684
4.50513
4.41379
4.32335
4.23433
4.14716
4.06223
3.97986
3.90034
3.82388
3.75065
3.68077
3.61432
3.55133
3.49182
3.43574
3.38306
3.33368
3.28751
3.24444
3.20435
3.16711
3.13257
3.10059
3.07104
3.04376
3.01863
2.9955
2.97425
2.95474
2.93686
2.9205
2.90553
2.89187
2.87941
2.86807
2.85776
2.84841
2.83994
2.83229
2.8254
2.81919
2.81363
2.80865
2.80418
2.80015
2.79678
2.79395
2.79157
2.78958
2.78794
2.7866
2.78554
2.78474
2.78417
2.78381
2.78365
2.78367
2.78385
2.78418
2.78466
2.78527
2.78601
2.78687
2.78783
2.7889
2.79006
2.79132
2.79267
2.79409
2.7956
2.79717
2.79882
2.80053
2.8023
2.80413
2.80602
2.80796
2.80995
2.81199
2.81408
2.81621
2.81839
2.82061
2.82287
2.82516
2.8275
2.82986
2.83226
2.8347
2.83716
2.83966
2.84218
2.84473
2.8473
2.84991
2.85253
2.85517
2.85784
2.86052
2.8632
2.8659
2.86859
2.87126
2.87391
2.87651
2.87904
2.88147
2.88375
2.88582
2.8876
2.88896
2.88974
2.88967
2.88835
2.88509
2.87869
2.86687
2.84477
2.80294
2.72256
0.948711
0.603481
0.643855
0.736283
0.840557
0.944333
1.04283
1.13441
1.21897
1.29708
1.36958
1.43732
1.50111
1.56165
1.61953
1.67526
1.72924
1.78183
1.83335
1.88409
1.93435
1.98446
2.03482
2.08588
2.13824
2.19251
2.24795
2.30215
2.35434
2.40407
2.451
2.49475
2.53497
2.57134
2.60352
2.63126
2.65429
2.67246
2.68562
2.69375
2.69687
2.69511
2.68871
2.67802
2.66351
2.64574
2.62522
2.60226
2.57716
2.54962
2.51947
2.48685
2.45204
2.41535
2.3771
2.33763
2.29727
2.25631
2.21506
2.17378
2.13274
2.09215
2.05223
2.01317
1.97513
1.93824
1.90262
1.86836
1.83554
1.80421
1.7744
1.74613
1.7194
1.6942
1.6705
1.64828
1.62748
1.60807
1.58998
1.57317
1.55756
1.54309
1.5297
1.51734
1.50592
1.4954
1.48572
1.47682
1.46863
1.46113
1.45424
1.44793
1.44215
1.43687
1.43205
1.42764
1.42363
1.41997
1.41665
1.41362
1.41088
1.4084
1.40616
1.40413
1.40232
1.40078
1.39946
1.39833
1.39735
1.3965
1.39578
1.39517
1.39465
1.39422
1.39387
1.39359
1.39338
1.39324
1.39315
1.39311
1.39312
1.39318
1.39329
1.39343
1.39361
1.39382
1.39407
1.39435
1.39466
1.395
1.39536
1.39575
1.39617
1.3966
1.39706
1.39753
1.39803
1.39854
1.39908
1.39962
1.40019
1.40076
1.40136
1.40196
1.40258
1.40322
1.40386
1.40452
1.40518
1.40586
1.40655
1.40724
1.40795
1.40867
1.40939
1.41013
1.41087
1.41162
1.41238
1.41315
1.41392
1.41469
1.41547
1.41625
1.41703
1.41781
1.41857
1.41932
1.42004
1.42073
1.42137
1.42194
1.42242
1.42278
1.42299
1.42305
1.42307
1.42349
1.42632
1.43937
1.77758
0.904991
0.831963
0.863858
0.92505
0.995113
1.06569
1.13294
1.19529
1.25239
1.30455
1.35237
1.39656
1.43783
1.47683
1.51416
1.55034
1.58581
1.62096
1.65613
1.6916
1.7276
1.76433
1.80195
1.84055
1.88017
1.92023
1.95999
1.99893
2.03667
2.07285
2.10714
2.13917
2.16863
2.19519
2.21857
2.23852
2.25481
2.26731
2.27589
2.28051
2.28119
2.27801
2.27109
2.26062
2.24679
2.2298
2.20985
2.18752
2.16286
2.13602
2.10721
2.07669
2.04474
2.01164
1.97767
1.94308
1.90813
1.87307
1.83811
1.80345
1.7693
1.7358
1.70311
1.67136
1.64065
1.61107
1.58269
1.55557
1.52975
1.50524
1.48205
1.46018
1.43962
1.42034
1.4023
1.38547
1.36979
1.35523
1.34172
1.32922
1.31766
1.30699
1.29716
1.28811
1.27978
1.27213
1.2651
1.25866
1.25275
1.24733
1.24237
1.23783
1.23368
1.22988
1.2264
1.22323
1.22033
1.21768
1.21527
1.21307
1.21106
1.20923
1.20757
1.20606
1.20471
1.20351
1.20246
1.20152
1.20069
1.19995
1.19929
1.19872
1.1982
1.19775
1.19736
1.19701
1.19671
1.19645
1.19623
1.19605
1.1959
1.19578
1.19569
1.19562
1.19558
1.19556
1.19557
1.19559
1.19564
1.1957
1.19578
1.19587
1.19598
1.1961
1.19623
1.19638
1.19654
1.19671
1.19689
1.19708
1.19727
1.19748
1.1977
1.19792
1.19815
1.19838
1.19863
1.19887
1.19913
1.19939
1.19965
1.19992
1.2002
1.20048
1.20076
1.20105
1.20134
1.20164
1.20194
1.20224
1.20254
1.20285
1.20316
1.20346
1.20376
1.20406
1.20435
1.20462
1.20488
1.20511
1.20531
1.20546
1.20556
1.20559
1.20557
1.20558
1.20594
1.20771
1.21455
2.50427
1.17302
1.00635
0.992496
1.02248
1.06877
1.12063
1.17291
1.22306
1.27
1.31344
1.35359
1.39087
1.42581
1.45895
1.49083
1.52194
1.55269
1.58347
1.61458
1.64628
1.67873
1.71208
1.74639
1.78164
1.81777
1.85435
1.89092
1.92708
1.96246
1.99669
2.02939
2.06022
2.08879
2.11479
2.13788
2.15779
2.17428
2.18717
2.19631
2.20162
2.20309
2.20072
2.19461
2.18486
2.17161
2.15505
2.13555
2.11348
2.08904
2.06247
2.03402
2.00395
1.97255
1.94009
1.90682
1.87301
1.8389
1.80471
1.77067
1.73696
1.70375
1.67122
1.63949
1.6087
1.57894
1.5503
1.52285
1.49663
1.47169
1.44805
1.42571
1.40467
1.38491
1.36641
1.34914
1.33305
1.3181
1.30424
1.29141
1.27957
1.26864
1.25858
1.24933
1.24084
1.23305
1.2259
1.21936
1.21336
1.20788
1.20287
1.19828
1.19409
1.19025
1.18675
1.18355
1.18062
1.17794
1.1755
1.17326
1.17122
1.16935
1.16764
1.16608
1.16465
1.16336
1.16218
1.16113
1.16017
1.15931
1.15854
1.15783
1.15719
1.15662
1.15609
1.15562
1.15518
1.15479
1.15443
1.15411
1.15382
1.15355
1.15331
1.1531
1.1529
1.15273
1.15257
1.15244
1.15232
1.15221
1.15212
1.15204
1.15198
1.15192
1.15188
1.15184
1.15182
1.1518
1.15179
1.15179
1.15179
1.1518
1.15182
1.15184
1.15187
1.1519
1.15194
1.15198
1.15202
1.15207
1.15212
1.15217
1.15223
1.15228
1.15234
1.15241
1.15247
1.15254
1.15261
1.15268
1.15275
1.15282
1.15289
1.15296
1.15303
1.15309
1.15315
1.1532
1.15324
1.15326
1.15327
1.15324
1.15318
1.15308
1.15292
1.15272
1.15253
1.15252
1.15326
1.15632
3.15996
1.41327
1.16409
1.11257
1.11825
1.14657
1.18456
1.22606
1.2679
1.30846
1.34703
1.38343
1.4178
1.45045
1.48178
1.51221
1.54214
1.57195
1.60197
1.63247
1.66368
1.69575
1.72878
1.76278
1.79772
1.83349
1.86972
1.90603
1.94206
1.97742
2.01174
2.04462
2.07567
2.1045
2.13074
2.15407
2.17417
2.19079
2.20374
2.21287
2.21808
2.21935
2.2167
2.21019
2.19995
2.18612
2.16896
2.1489
2.12618
2.10105
2.07379
2.04467
2.01397
1.98196
1.94891
1.91509
1.88075
1.84613
1.81146
1.77694
1.74276
1.70911
1.67613
1.64397
1.61275
1.58258
1.55353
1.52569
1.49911
1.47382
1.44985
1.42721
1.40589
1.38589
1.36717
1.34971
1.33346
1.31839
1.30443
1.29153
1.27964
1.26869
1.25863
1.2494
1.24095
1.2332
1.22612
1.21965
1.21374
1.20834
1.20341
1.19891
1.19481
1.19106
1.18764
1.18452
1.18167
1.17906
1.17668
1.1745
1.17251
1.17069
1.16902
1.16749
1.16608
1.1648
1.16362
1.16255
1.16158
1.16069
1.15987
1.15913
1.15845
1.15782
1.15724
1.1567
1.15621
1.15575
1.15533
1.15493
1.15457
1.15423
1.15391
1.15361
1.15334
1.15308
1.15283
1.15261
1.15239
1.15219
1.152
1.15182
1.15166
1.1515
1.15135
1.15121
1.15107
1.15094
1.15082
1.1507
1.15059
1.15049
1.15038
1.15028
1.15019
1.1501
1.15001
1.14992
1.14983
1.14975
1.14967
1.14959
1.14951
1.14943
1.14935
1.14928
1.1492
1.14913
1.14905
1.14898
1.1489
1.14882
1.14875
1.14866
1.14858
1.14849
1.1484
1.14829
1.14818
1.14804
1.14789
1.14772
1.1475
1.14725
1.14694
1.14659
1.1462
1.1459
1.14596
1.14713
3.75194
1.63064
1.30748
1.2235
1.20926
1.22339
1.25068
1.28404
1.31978
1.3559
1.39136
1.42571
1.45885
1.49089
1.52207
1.55269
1.58306
1.6135
1.64428
1.67563
1.70776
1.74077
1.77476
1.80971
1.84557
1.88219
1.91922
1.95633
1.99314
2.02927
2.06431
2.09783
2.12943
2.15869
2.18521
2.20864
2.22868
2.24507
2.2576
2.26613
2.27059
2.27097
2.26729
2.25967
2.24823
2.23316
2.21488
2.19365
2.16975
2.14345
2.11503
2.08478
2.05298
2.01991
1.98583
1.95102
1.91571
1.88014
1.84453
1.8091
1.77402
1.73947
1.70561
1.67258
1.6405
1.60949
1.57962
1.55097
1.52361
1.49756
1.47287
1.44954
1.42758
1.40696
1.38768
1.3697
1.35297
1.33746
1.32312
1.30987
1.29768
1.28647
1.27619
1.26677
1.25815
1.25028
1.24309
1.23654
1.23057
1.22512
1.22016
1.21565
1.21154
1.20779
1.20438
1.20126
1.19843
1.19583
1.19347
1.19131
1.18933
1.18752
1.18586
1.18433
1.18293
1.18165
1.18047
1.17939
1.1784
1.17748
1.17665
1.17587
1.17515
1.17449
1.17387
1.1733
1.17276
1.17226
1.17179
1.17135
1.17093
1.17054
1.17017
1.16981
1.16948
1.16916
1.16886
1.16857
1.16829
1.16803
1.16777
1.16753
1.16729
1.16707
1.16684
1.16663
1.16642
1.16622
1.16602
1.16582
1.16563
1.16545
1.16526
1.16508
1.1649
1.16473
1.16455
1.16438
1.1642
1.16403
1.16386
1.16369
1.16352
1.16335
1.16318
1.163
1.16283
1.16266
1.16249
1.16231
1.16213
1.16196
1.16177
1.16159
1.1614
1.16121
1.161
1.16079
1.16057
1.16033
1.16007
1.15978
1.15946
1.15909
1.15867
1.15819
1.15766
1.15713
1.15676
1.15695
4.28358
1.82755
1.43799
1.32543
1.29425
1.29673
1.31547
1.34248
1.37358
1.40647
1.43985
1.47305
1.50579
1.53801
1.56981
1.60139
1.63297
1.66478
1.69704
1.72996
1.76369
1.79832
1.83391
1.87044
1.90784
1.94587
1.98424
2.0226
2.06059
2.09778
2.13375
2.16803
2.20018
2.22975
2.25635
2.27961
2.29921
2.3149
2.3265
2.33389
2.33703
2.33592
2.33065
2.32134
2.30818
2.29154
2.27168
2.2489
2.22349
2.19572
2.1659
2.1343
2.10122
2.06693
2.03169
1.99575
1.95936
1.92275
1.88613
1.84969
1.81363
1.77812
1.7433
1.70932
1.67631
1.64437
1.61359
1.58405
1.55581
1.52891
1.5034
1.47928
1.45656
1.43524
1.41529
1.39668
1.37938
1.36333
1.3485
1.33482
1.32223
1.31068
1.30009
1.2904
1.28155
1.27348
1.26613
1.25943
1.25334
1.24781
1.24278
1.2382
1.23405
1.23027
1.22683
1.2237
1.22086
1.21826
1.2159
1.21373
1.21176
1.20995
1.2083
1.20678
1.20538
1.2041
1.20292
1.20184
1.20083
1.19991
1.19906
1.19826
1.19753
1.19684
1.1962
1.1956
1.19504
1.19451
1.19401
1.19353
1.19309
1.19266
1.19225
1.19187
1.19149
1.19114
1.1908
1.19047
1.19015
1.18984
1.18954
1.18925
1.18897
1.18869
1.18843
1.18816
1.1879
1.18765
1.1874
1.18715
1.18691
1.18667
1.18643
1.18619
1.18595
1.18572
1.18549
1.18525
1.18502
1.18479
1.18455
1.18432
1.18409
1.18385
1.18361
1.18338
1.18314
1.1829
1.18266
1.18241
1.18217
1.18192
1.18167
1.18141
1.18115
1.18088
1.1806
1.18031
1.18001
1.1797
1.17936
1.17899
1.17859
1.17815
1.17764
1.17708
1.17644
1.17576
1.17513
1.1748
4.75503
2.00463
1.55605
1.41819
1.3723
1.36492
1.37661
1.3985
1.42596
1.4564
1.48833
1.5209
1.55368
1.58649
1.6193
1.65221
1.68535
1.71891
1.75304
1.7879
1.82362
1.86025
1.89784
1.93632
1.97561
2.01541
2.05545
2.09536
2.13474
2.17315
2.21011
2.24513
2.27773
2.30744
2.33384
2.35655
2.37529
2.38981
2.39996
2.40566
2.40692
2.40379
2.39641
2.38498
2.36983
2.35124
2.3295
2.30491
2.27778
2.2484
2.21706
2.18406
2.14967
2.11416
2.07778
2.04078
2.00338
1.9658
1.92825
1.89092
1.85398
1.8176
1.78192
1.74709
1.71323
1.68044
1.64882
1.61845
1.58939
1.5617
1.5354
1.51052
1.48707
1.46505
1.44444
1.42521
1.40732
1.39074
1.37542
1.36128
1.34829
1.33637
1.32546
1.31548
1.30639
1.29811
1.29057
1.28372
1.27751
1.27187
1.26675
1.26211
1.2579
1.25408
1.25062
1.24747
1.24461
1.24201
1.23964
1.23748
1.23551
1.23371
1.23207
1.23056
1.22917
1.2279
1.22672
1.22564
1.22464
1.22372
1.22286
1.22206
1.22132
1.22062
1.21997
1.21936
1.21878
1.21824
1.21772
1.21723
1.21676
1.21632
1.21589
1.21548
1.21509
1.21471
1.21435
1.21399
1.21365
1.21332
1.21299
1.21267
1.21236
1.21206
1.21176
1.21146
1.21117
1.21089
1.2106
1.21032
1.21004
1.20977
1.20949
1.20922
1.20895
1.20867
1.2084
1.20813
1.20786
1.20758
1.20731
1.20703
1.20676
1.20648
1.2062
1.20592
1.20564
1.20535
1.20507
1.20478
1.20448
1.20419
1.20389
1.20358
1.20327
1.20295
1.20262
1.20229
1.20194
1.20157
1.20118
1.20076
1.2003
1.19981
1.19925
1.19863
1.19793
1.19716
1.19639
1.19579
5.16301
2.16121
1.66127
1.5012
1.44244
1.42654
1.43225
1.44987
1.47437
1.50289
1.53377
1.56603
1.59909
1.63268
1.66667
1.70108
1.73597
1.77147
1.80768
1.84472
1.88267
1.92158
1.96144
2.00218
2.04366
2.08554
2.12752
2.16922
2.21019
2.24994
2.28793
2.32364
2.35653
2.38612
2.41198
2.43375
2.45114
2.46397
2.47213
2.4756
2.47445
2.46881
2.45893
2.44511
2.42763
2.40682
2.38298
2.35644
2.3275
2.29646
2.26363
2.22927
2.19366
2.15705
2.11967
2.08177
2.04354
2.00519
1.96692
1.92889
1.89127
1.85422
1.81789
1.78239
1.74786
1.7144
1.6821
1.65104
1.6213
1.59292
1.56595
1.54041
1.51632
1.49368
1.47247
1.45267
1.43425
1.41718
1.40139
1.38684
1.37346
1.3612
1.34998
1.33974
1.33041
1.32192
1.31421
1.30722
1.30088
1.29514
1.28994
1.28524
1.28099
1.27713
1.27365
1.27049
1.26762
1.26502
1.26266
1.26051
1.25855
1.25676
1.25513
1.25364
1.25227
1.25101
1.24985
1.24878
1.24779
1.24687
1.24602
1.24523
1.24449
1.2438
1.24315
1.24254
1.24196
1.24141
1.24089
1.2404
1.23992
1.23947
1.23904
1.23862
1.23822
1.23783
1.23745
1.23709
1.23673
1.23639
1.23605
1.23571
1.23539
1.23507
1.23475
1.23444
1.23413
1.23383
1.23353
1.23323
1.23293
1.23263
1.23234
1.23204
1.23175
1.23145
1.23116
1.23086
1.23057
1.23027
1.22997
1.22967
1.22937
1.22907
1.22876
1.22845
1.22814
1.22783
1.22752
1.2272
1.22688
1.22655
1.22622
1.22589
1.22554
1.22519
1.22484
1.22447
1.22408
1.22368
1.22326
1.22281
1.22233
1.2218
1.22122
1.22057
1.21984
1.21904
1.2182
1.21748
5.50138
2.29563
1.75269
1.57353
1.5036
1.48032
1.48086
1.49484
1.51684
1.5438
1.57389
1.606
1.63947
1.67392
1.70917
1.74515
1.78189
1.81943
1.85786
1.89725
1.93766
1.97909
2.02151
2.0648
2.10879
2.15307
2.1973
2.24105
2.2838
2.325
2.36403
2.40031
2.43328
2.46243
2.48732
2.50764
2.52313
2.53369
2.53927
2.53994
2.53589
2.52737
2.51469
2.49816
2.47813
2.45493
2.42889
2.40034
2.36961
2.33699
2.30277
2.26721
2.23056
2.19306
2.15494
2.11638
2.07759
2.03874
2.00001
1.96156
1.92354
1.88609
1.84935
1.81344
1.77847
1.74456
1.71178
1.68024
1.64999
1.6211
1.5936
1.56754
1.54292
1.51977
1.49806
1.47779
1.45892
1.44141
1.42522
1.41031
1.39659
1.38403
1.37254
1.36205
1.35252
1.34385
1.33599
1.32887
1.32242
1.3166
1.31134
1.30659
1.30229
1.29842
1.29492
1.29175
1.28889
1.2863
1.28395
1.28182
1.27988
1.27811
1.27651
1.27503
1.27369
1.27245
1.27131
1.27027
1.2693
1.2684
1.26757
1.26679
1.26606
1.26538
1.26474
1.26414
1.26357
1.26303
1.26252
1.26203
1.26156
1.26111
1.26068
1.26026
1.25986
1.25947
1.2591
1.25873
1.25837
1.25802
1.25768
1.25735
1.25702
1.25669
1.25637
1.25605
1.25574
1.25543
1.25512
1.25481
1.2545
1.2542
1.25389
1.25359
1.25329
1.25298
1.25268
1.25237
1.25206
1.25176
1.25145
1.25113
1.25082
1.2505
1.25019
1.24987
1.24954
1.24922
1.24889
1.24856
1.24822
1.24788
1.24754
1.24718
1.24683
1.24646
1.24609
1.2457
1.24531
1.24489
1.24445
1.24399
1.24349
1.24296
1.24237
1.24171
1.24098
1.24018
1.23933
1.23858
5.76194
2.40563
1.829
1.63418
1.55482
1.52519
1.52128
1.53213
1.55201
1.57766
1.60712
1.63919
1.67313
1.70849
1.74502
1.7826
1.82122
1.86089
1.90166
1.94357
1.98664
2.03087
2.07616
2.12237
2.16923
2.21629
2.26312
2.3092
2.35391
2.3966
2.4366
2.47322
2.5059
2.53412
2.55747
2.57568
2.58862
2.59621
2.59858
2.59595
2.5886
2.57686
2.56109
2.54165
2.51892
2.49327
2.46503
2.43456
2.40217
2.36814
2.33275
2.29624
2.25883
2.22075
2.18218
2.1433
2.10427
2.06526
2.02642
1.98787
1.94977
1.91223
1.87538
1.83933
1.8042
1.77009
1.73708
1.70527
1.67472
1.6455
1.61766
1.59123
1.56624
1.5427
1.52061
1.49996
1.48073
1.46288
1.44637
1.43115
1.41715
1.40433
1.39262
1.38193
1.37222
1.3634
1.35542
1.34819
1.34167
1.33578
1.33047
1.32568
1.32137
1.31748
1.31398
1.31083
1.30798
1.3054
1.30308
1.30097
1.29906
1.29733
1.29575
1.29431
1.29299
1.29179
1.29068
1.28966
1.28872
1.28785
1.28704
1.28628
1.28558
1.28492
1.2843
1.28371
1.28316
1.28263
1.28214
1.28166
1.2812
1.28077
1.28035
1.27994
1.27955
1.27917
1.2788
1.27844
1.27809
1.27774
1.27741
1.27708
1.27675
1.27643
1.27611
1.2758
1.27549
1.27518
1.27487
1.27456
1.27426
1.27396
1.27365
1.27335
1.27304
1.27274
1.27243
1.27213
1.27182
1.27151
1.2712
1.27089
1.27057
1.27025
1.26993
1.26961
1.26928
1.26896
1.26862
1.26829
1.26795
1.26761
1.26726
1.2669
1.26654
1.26617
1.2658
1.26541
1.26501
1.26459
1.26415
1.26369
1.2632
1.26267
1.26208
1.26144
1.26074
1.25996
1.25914
1.25841
5.93537
2.48871
1.88894
1.6823
1.59542
1.56059
1.55297
1.56118
1.57928
1.60386
1.63285
1.66498
1.69944
1.73572
1.77355
1.81276
1.8533
1.89518
1.93841
1.98302
2.02902
2.07635
2.12491
2.1745
2.22465
2.2749
2.32467
2.37331
2.42006
2.46415
2.50481
2.5413
2.57303
2.59958
2.62056
2.63575
2.64524
2.64917
2.64778
2.6414
2.63038
2.61514
2.59608
2.57363
2.5482
2.52016
2.48987
2.45767
2.42387
2.38872
2.35248
2.31536
2.27757
2.23928
2.20065
2.16183
2.12296
2.08417
2.04557
2.0073
1.96946
1.93217
1.89554
1.85967
1.82467
1.79063
1.75765
1.72581
1.69519
1.66585
1.63784
1.61122
1.58601
1.56223
1.53989
1.51898
1.49949
1.48139
1.46463
1.44917
1.43497
1.42195
1.41005
1.39922
1.38937
1.38043
1.37235
1.36505
1.35846
1.35253
1.34719
1.34239
1.33807
1.33419
1.3307
1.32756
1.32473
1.32219
1.31989
1.31782
1.31595
1.31425
1.31271
1.31131
1.31003
1.30886
1.30779
1.30681
1.3059
1.30506
1.30428
1.30356
1.30288
1.30225
1.30165
1.30109
1.30056
1.30006
1.29958
1.29912
1.29868
1.29826
1.29786
1.29747
1.29709
1.29673
1.29637
1.29603
1.29569
1.29536
1.29503
1.29471
1.2944
1.29409
1.29378
1.29348
1.29318
1.29288
1.29258
1.29228
1.29198
1.29169
1.29139
1.2911
1.2908
1.2905
1.2902
1.2899
1.2896
1.2893
1.289
1.28869
1.28838
1.28807
1.28776
1.28744
1.28712
1.2868
1.28647
1.28614
1.28581
1.28547
1.28513
1.28478
1.28442
1.28406
1.28369
1.28331
1.28292
1.28251
1.28208
1.28163
1.28115
1.28064
1.28008
1.27947
1.2788
1.27807
1.2773
1.27662
6.01214
2.54256
1.93158
1.71754
1.6254
1.5867
1.57623
1.58241
1.59916
1.62297
1.65171
1.68404
1.71912
1.7564
1.79557
1.83646
1.87901
1.9232
1.96906
2.0166
2.06582
2.11665
2.16891
2.22236
2.27633
2.33021
2.3832
2.43442
2.48297
2.52798
2.56867
2.60403
2.63361
2.65716
2.67453
2.68576
2.69102
2.6906
2.68488
2.67428
2.65929
2.64036
2.61797
2.59256
2.56456
2.53437
2.50232
2.46873
2.43389
2.39803
2.36137
2.32409
2.28634
2.24829
2.21003
2.17171
2.13341
2.09524
2.0573
2.01967
1.98247
1.94579
1.90971
1.87434
1.83977
1.8061
1.77341
1.74179
1.71133
1.68208
1.65411
1.62748
1.60221
1.57834
1.55588
1.53484
1.51519
1.49693
1.48001
1.4644
1.45005
1.43689
1.42487
1.41392
1.40397
1.39496
1.38681
1.37946
1.37284
1.36689
1.36154
1.35673
1.35242
1.34856
1.34509
1.34198
1.33919
1.33668
1.33443
1.3324
1.33057
1.32891
1.32742
1.32606
1.32482
1.3237
1.32267
1.32173
1.32086
1.32006
1.31931
1.31862
1.31798
1.31737
1.31681
1.31628
1.31577
1.3153
1.31484
1.31441
1.314
1.3136
1.31322
1.31285
1.31249
1.31215
1.31181
1.31148
1.31116
1.31085
1.31054
1.31024
1.30994
1.30964
1.30935
1.30906
1.30878
1.30849
1.30821
1.30792
1.30764
1.30736
1.30708
1.30679
1.30651
1.30623
1.30594
1.30565
1.30536
1.30507
1.30478
1.30449
1.30419
1.30389
1.30359
1.30329
1.30298
1.30267
1.30236
1.30204
1.30172
1.3014
1.30107
1.30073
1.30039
1.30004
1.29968
1.29932
1.29894
1.29855
1.29814
1.29771
1.29725
1.29676
1.29624
1.29566
1.29504
1.29437
1.29368
1.29306
5.98324
2.56536
1.95672
1.74047
1.64577
1.60488
1.5927
1.59767
1.61368
1.63719
1.66604
1.69886
1.73477
1.77323
1.81391
1.85663
1.90135
1.94807
1.99681
2.0476
2.10044
2.15523
2.21175
2.2696
2.32786
2.38575
2.44193
2.49523
2.54461
2.58912
2.62794
2.66047
2.68635
2.70549
2.71797
2.72404
2.72407
2.71853
2.70792
2.69277
2.67362
2.65101
2.62541
2.5973
2.56708
2.53513
2.50177
2.46728
2.4319
2.39584
2.35926
2.32232
2.28512
2.24777
2.21037
2.17299
2.1357
2.09857
2.06169
2.02511
1.98891
1.95318
1.918
1.88344
1.84961
1.81658
1.78446
1.75331
1.72323
1.69429
1.66656
1.6401
1.61494
1.59113
1.56869
1.54763
1.52795
1.50962
1.49263
1.47694
1.46251
1.44928
1.43718
1.42617
1.41617
1.40712
1.39893
1.39156
1.38493
1.37897
1.37363
1.36884
1.36456
1.36072
1.35729
1.35422
1.35147
1.34901
1.3468
1.34482
1.34304
1.34143
1.33998
1.33867
1.33749
1.33641
1.33542
1.33452
1.3337
1.33294
1.33223
1.33158
1.33097
1.3304
1.32987
1.32937
1.32889
1.32845
1.32802
1.32762
1.32723
1.32686
1.3265
1.32616
1.32583
1.3255
1.32519
1.32489
1.32459
1.32429
1.32401
1.32372
1.32344
1.32317
1.3229
1.32262
1.32236
1.32209
1.32182
1.32156
1.32129
1.32103
1.32076
1.3205
1.32023
1.31996
1.3197
1.31943
1.31915
1.31888
1.31861
1.31833
1.31805
1.31777
1.31749
1.3172
1.31691
1.31662
1.31632
1.31602
1.31572
1.31541
1.3151
1.31478
1.31446
1.31413
1.31379
1.31345
1.31309
1.31272
1.31233
1.31193
1.3115
1.31105
1.31056
1.31004
1.30947
1.30887
1.30825
1.3077
5.83972
2.55628
1.96537
1.75304
1.65914
1.6182
1.60584
1.61076
1.62694
1.6509
1.68049
1.71433
1.75157
1.79164
1.83421
1.87916
1.92644
1.97609
2.02818
2.08275
2.13981
2.19922
2.2607
2.32334
2.38584
2.44689
2.50504
2.55888
2.60718
2.64901
2.68371
2.711
2.73084
2.74346
2.74926
2.74874
2.74247
2.73108
2.71515
2.6953
2.67209
2.64603
2.61762
2.58728
2.55538
2.52226
2.48819
2.4534
2.41808
2.3824
2.34647
2.3104
2.27426
2.23812
2.20204
2.16605
2.13019
2.09452
2.05908
2.02391
1.98908
1.95464
1.92066
1.88723
1.85442
1.82231
1.791
1.76057
1.7311
1.70268
1.67537
1.64925
1.62437
1.60077
1.57849
1.55754
1.53792
1.51964
1.50267
1.48698
1.47253
1.45928
1.44718
1.43615
1.42613
1.41707
1.40889
1.40152
1.3949
1.38897
1.38365
1.37889
1.37464
1.37085
1.36746
1.36444
1.36174
1.35933
1.35718
1.35525
1.35352
1.35197
1.35058
1.34932
1.34818
1.34715
1.34621
1.34536
1.34458
1.34386
1.34319
1.34258
1.34201
1.34148
1.34098
1.34052
1.34008
1.33966
1.33927
1.33889
1.33854
1.33819
1.33786
1.33755
1.33724
1.33694
1.33665
1.33637
1.3361
1.33583
1.33556
1.3353
1.33504
1.33479
1.33454
1.33429
1.33404
1.33379
1.33355
1.3333
1.33306
1.33282
1.33257
1.33232
1.33208
1.33183
1.33158
1.33133
1.33108
1.33083
1.33058
1.33032
1.33006
1.3298
1.32954
1.32927
1.329
1.32873
1.32845
1.32817
1.32789
1.32761
1.32732
1.32702
1.32672
1.32641
1.3261
1.32578
1.32545
1.3251
1.32475
1.32437
1.32398
1.32357
1.32312
1.32265
1.32214
1.32161
1.32107
1.3206
5.57097
2.52152
1.96246
1.76043
1.67117
1.63284
1.62231
1.6288
1.64654
1.67217
1.70358
1.73944
1.7789
1.82143
1.86675
1.91473
1.96539
2.0188
2.07507
2.13427
2.1964
2.26126
2.32838
2.39581
2.46184
2.52461
2.58232
2.63341
2.67677
2.71173
2.73817
2.7563
2.76666
2.76992
2.76682
2.7581
2.74448
2.72665
2.70523
2.68079
2.65384
2.62485
2.59423
2.56233
2.52946
2.49587
2.46178
2.42737
2.39277
2.35808
2.32339
2.28874
2.25419
2.21975
2.18544
2.15129
2.11729
2.08347
2.04984
2.01645
1.98332
1.9505
1.91805
1.88603
1.85453
1.82361
1.79337
1.76389
1.73526
1.70757
1.68089
1.6553
1.63086
1.60762
1.58563
1.56491
1.54548
1.52734
1.51047
1.49487
1.48049
1.46728
1.45521
1.44422
1.43424
1.4252
1.41705
1.40972
1.40314
1.39724
1.39197
1.38726
1.38306
1.37932
1.37599
1.37303
1.37039
1.36803
1.36594
1.36407
1.3624
1.3609
1.35956
1.35836
1.35727
1.35629
1.35541
1.3546
1.35386
1.35318
1.35256
1.35199
1.35146
1.35096
1.3505
1.35007
1.34966
1.34928
1.34892
1.34857
1.34824
1.34793
1.34762
1.34733
1.34705
1.34678
1.34651
1.34626
1.346
1.34576
1.34551
1.34528
1.34504
1.34481
1.34458
1.34435
1.34412
1.34389
1.34367
1.34344
1.34322
1.34299
1.34277
1.34254
1.34232
1.34209
1.34186
1.34163
1.3414
1.34116
1.34093
1.34069
1.34045
1.34021
1.33997
1.33972
1.33947
1.33922
1.33897
1.33871
1.33845
1.33818
1.33791
1.33764
1.33736
1.33707
1.33678
1.33649
1.33618
1.33586
1.33553
1.33519
1.33483
1.33445
1.33405
1.33362
1.33317
1.3327
1.33224
1.33184
5.25433
2.48263
1.95922
1.77076
1.68914
1.65611
1.64983
1.6601
1.68146
1.71069
1.74579
1.78547
1.82893
1.87567
1.92545
1.97818
2.03392
2.09279
2.15492
2.2204
2.28916
2.36094
2.4337
2.50472
2.57158
2.63189
2.68366
2.72556
2.75707
2.77843
2.79042
2.79416
2.79085
2.78163
2.76751
2.74932
2.72778
2.70347
2.67689
2.64847
2.61857
2.58753
2.55562
2.52309
2.49014
2.45694
2.42364
2.39034
2.35712
2.32405
2.29115
2.25844
2.22593
2.19361
2.16147
2.12951
2.0977
2.06604
2.03453
2.00319
1.97203
1.94109
1.91042
1.88006
1.85009
1.82058
1.79162
1.7633
1.7357
1.70891
1.68303
1.65812
1.63427
1.61154
1.58997
1.5696
1.55046
1.53255
1.51589
1.50044
1.48619
1.4731
1.46113
1.45021
1.44031
1.43134
1.42325
1.41598
1.40946
1.40363
1.39842
1.39377
1.38964
1.38596
1.38269
1.37979
1.37722
1.37493
1.3729
1.37109
1.36948
1.36804
1.36676
1.36561
1.36458
1.36365
1.36281
1.36205
1.36136
1.36073
1.36015
1.35962
1.35912
1.35867
1.35825
1.35785
1.35748
1.35713
1.3568
1.35648
1.35619
1.3559
1.35563
1.35537
1.35511
1.35487
1.35463
1.3544
1.35417
1.35395
1.35373
1.35352
1.3533
1.3531
1.35289
1.35268
1.35248
1.35228
1.35207
1.35187
1.35167
1.35147
1.35127
1.35106
1.35086
1.35066
1.35045
1.35024
1.35003
1.34982
1.34961
1.3494
1.34918
1.34897
1.34875
1.34852
1.3483
1.34807
1.34784
1.34761
1.34737
1.34713
1.34689
1.34664
1.34639
1.34613
1.34587
1.3456
1.34532
1.34504
1.34474
1.34443
1.34411
1.34377
1.34341
1.34304
1.34265
1.34225
1.34186
1.34154
4.87985
2.43285
1.95666
1.78739
1.71746
1.69316
1.69423
1.71121
1.73899
1.77453
1.81596
1.86207
1.91208
1.96555
2.02226
2.08215
2.1453
2.21183
2.28185
2.35533
2.43197
2.51074
2.58683
2.65712
2.71855
2.76858
2.80567
2.82956
2.8411
2.84196
2.83421
2.81984
2.80059
2.77782
2.75249
2.7253
2.6967
2.66702
2.63649
2.60531
2.57364
2.54163
2.50941
2.4771
2.4448
2.41262
2.38062
2.34886
2.31737
2.28617
2.25526
2.22464
2.19428
2.16416
2.13424
2.10449
2.07489
2.04541
2.01602
1.98674
1.95757
1.92852
1.89964
1.87097
1.84257
1.81451
1.78689
1.75977
1.73327
1.70746
1.68244
1.65829
1.63511
1.61294
1.59187
1.57192
1.55314
1.53554
1.51913
1.5039
1.48983
1.4769
1.46506
1.45427
1.44446
1.43559
1.4276
1.42041
1.41397
1.40821
1.40307
1.3985
1.39444
1.39083
1.38764
1.3848
1.3823
1.38007
1.3781
1.37636
1.37481
1.37343
1.37221
1.37111
1.37014
1.36926
1.36847
1.36776
1.36711