/*--------------------------------*- C++ -*----------------------------------*\
  =========                 |
  \\      /  F ield         | OpenFOAM: The Open Source CFD Toolbox
   \\    /   O peration     | Website:  https://openfoam.org
    \\  /    A nd           | Version:  6
     \\/     M anipulation  |
\*---------------------------------------------------------------------------*/
FoamFile
{
    version     2.0;
    format      ascii;
    class       volScalarField;
    location    "0.06";
    object      k;
}
// * * * * * * * * * * * * * * * * * * * * * * * * * * * * * * * * * * * * * //

dimensions      [0 2 -2 0 0 0 0];

internalField   nonuniform List<scalar> 
12225
(
0.246434
0.158837
0.119026
0.0972468
0.0837982
0.074852
0.0685141
0.0637566
0.0600127
0.0569626
0.0544166
0.0522557
0.0504009
0.0488057
0.0474374
0.0462743
0.0453584
0.0448433
0.339494
0.260114
0.208282
0.175364
0.153393
0.137862
0.126254
0.117161
0.10979
0.103669
0.0984965
0.094069
0.0902418
0.0869159
0.0840168
0.0814861
0.0793233
0.0774998
0.347488
0.292336
0.248543
0.216274
0.192366
0.174252
0.160134
0.148815
0.13952
0.131744
0.12514
0.119468
0.114552
0.110269
0.106516
0.103224
0.100361
0.0979293
0.351365
0.309038
0.27192
0.242002
0.218279
0.199393
0.184152
0.171648
0.161224
0.152411
0.144873
0.138363
0.1327
0.127743
0.123384
0.119544
0.116179
0.113294
0.353915
0.319272
0.287233
0.259899
0.237174
0.21839
0.202793
0.189722
0.178657
0.169195
0.161033
0.153938
0.147734
0.142277
0.137457
0.133194
0.129436
0.126189
0.355677
0.326039
0.297902
0.27299
0.25156
0.233323
0.217818
0.204581
0.193211
0.183379
0.174822
0.167331
0.160741
0.154913
0.149742
0.145149
0.141081
0.137542
0.356918
0.330718
0.305602
0.282834
0.262758
0.245284
0.230137
0.216997
0.205562
0.195567
0.186791
0.179055
0.172203
0.166112
0.160683
0.155838
0.151529
0.147757
0.357803
0.334036
0.311269
0.290343
0.271569
0.254944
0.240305
0.227432
0.216098
0.206095
0.19724
0.189378
0.182371
0.176108
0.170499
0.165471
0.16098
0.157027
0.358434
0.336412
0.315472
0.296101
0.278521
0.262753
0.248696
0.236195
0.225078
0.215181
0.206354
0.198461
0.191385
0.185027
0.179306
0.174157
0.169537
0.165451
0.358882
0.338114
0.318585
0.300503
0.283984
0.269036
0.255585
0.243512
0.232687
0.222976
0.214255
0.206407
0.199333
0.192946
0.187172
0.181953
0.177252
0.173074
0.359196
0.339322
0.32087
0.303837
0.288238
0.274043
0.261184
0.249563
0.239071
0.229599
0.221039
0.213294
0.206278
0.199913
0.194136
0.188893
0.184152
0.179919
0.359395
0.340098
0.322385
0.306118
0.291229
0.277649
0.265299
0.254087
0.243916
0.234688
0.226311
0.218699
0.211775
0.20547
0.199726
0.194496
0.189752
0.185501
0.359536
0.340657
0.323506
0.307853
0.293559
0.280517
0.268631
0.257807
0.247951
0.238975
0.230796
0.223336
0.216525
0.210302
0.204614
0.199419
0.194692
0.19044
0.359644
0.34109
0.324401
0.309281
0.29553
0.283003
0.27158
0.261158
0.251644
0.242951
0.235004
0.22773
0.221066
0.214957
0.209354
0.20422
0.199532
0.195299
0.35972
0.341397
0.325054
0.310358
0.297064
0.284991
0.273996
0.263963
0.254791
0.246395
0.238699
0.231635
0.225144
0.219175
0.213682
0.208633
0.204007
0.19981
0.359768
0.341592
0.325481
0.311084
0.298133
0.28642
0.275782
0.266086
0.257225
0.249107
0.241656
0.234803
0.228492
0.222672
0.217303
0.212352
0.207801
0.203656
0.359794
0.341698
0.32572
0.311505
0.298773
0.287302
0.276914
0.267467
0.258843
0.250946
0.243694
0.237018
0.230861
0.225173
0.219914
0.215053
0.210572
0.206475
0.359804
0.341741
0.325818
0.311681
0.299047
0.287689
0.277424
0.268101
0.259598
0.251816
0.244669
0.238088
0.232012
0.226393
0.22119
0.216372
0.211922
0.207842
0.359801
0.341728
0.325787
0.311624
0.298956
0.287558
0.277246
0.267874
0.25932
0.251483
0.244281
0.237644
0.231512
0.225835
0.220574
0.215698
0.21119
0.207053
0.359775
0.341619
0.32554
0.311184
0.298277
0.286608
0.276006
0.266336
0.257487
0.249365
0.241892
0.235001
0.228632
0.222738
0.217277
0.212219
0.207544
0.20326
0.359715
0.341373
0.324999
0.310259
0.29691
0.28477
0.273697
0.263571
0.254294
0.245779
0.237949
0.230738
0.224085
0.21794
0.212257
0.207004
0.20216
0.197731
0.359585
0.340847
0.32389
0.308451
0.294359
0.281485
0.269724
0.258976
0.249149
0.240155
0.231914
0.224354
0.217406
0.211013
0.205123
0.199696
0.19471
0.190169
0.359328
0.339829
0.321843
0.305277
0.290083
0.276208
0.263575
0.252091
0.241655
0.232166
0.223529
0.215654
0.208461
0.201879
0.195845
0.190312
0.185248
0.180658
0.358859
0.338002
0.318352
0.300134
0.283468
0.268362
0.254743
0.242494
0.231478
0.221561
0.212617
0.20453
0.197199
0.190536
0.184464
0.178925
0.173879
0.169329
0.358049
0.334902
0.312731
0.292262
0.273781
0.257304
0.242698
0.229768
0.218308
0.208123
0.199041
0.190911
0.183604
0.177012
0.171044
0.165629
0.160718
0.156311
0.356705
0.329792
0.303947
0.280578
0.260034
0.242201
0.226775
0.213406
0.20177
0.191587
0.182622
0.174683
0.167613
0.161283
0.155588
0.150448
0.145805
0.141655
0.354514
0.32132
0.290208
0.263305
0.240673
0.221783
0.205969
0.192625
0.181256
0.171473
0.162977
0.155534
0.148964
0.143122
0.137896
0.1332
0.12897
0.125199
0.350895
0.306577
0.267876
0.237029
0.212824
0.19372
0.178402
0.165884
0.155466
0.146654
0.139097
0.13254
0.126792
0.121709
0.117182
0.113125
0.109476
0.106224
0.342433
0.275903
0.227213
0.193449
0.169702
0.152436
0.139358
0.129055
0.120674
0.113688
0.107753
0.102636
0.0981696
0.0942328
0.0907335
0.0876015
0.0847848
0.0822632
0.259299
0.173101
0.131334
0.107385
0.092075
0.0816453
0.0741787
0.0685768
0.0641914
0.0606343
0.0576666
0.0551359
0.052941
0.0510121
0.0492991
0.047765
0.0463819
0.0451327
0.00230144
0.00552857
0.00798482
0.00993143
0.0115616
0.0130069
0.0143262
0.0155526
0.0167084
0.0178098
0.0188692
0.0198958
0.0208965
0.0218758
0.0228369
0.0237814
0.0247101
0.025623
0.0265199
0.0274007
0.0282653
0.0291151
0.0299529
0.0307846
0.0316211
0.0324815
0.0333414
0.0341543
0.0349188
0.0356334
0.0362962
0.0369046
0.037456
0.0379479
0.0383778
0.0387436
0.0390437
0.0392767
0.0394419
0.0395392
0.0395691
0.0395332
0.0394341
0.0392761
0.0390665
0.0388171
0.0385463
0.038279
0.0380345
0.0377945
0.0375284
0.0372298
0.0368993
0.0365394
0.0361533
0.0357443
0.0353159
0.0348715
0.0344147
0.0339487
0.0334767
0.0330017
0.0325267
0.0320542
0.0315867
0.0311264
0.0306754
0.0302355
0.0298081
0.0293946
0.0289961
0.0286133
0.0282469
0.0278974
0.0275649
0.0272496
0.0269514
0.02667
0.0264051
0.0261563
0.025923
0.0257048
0.0255008
0.0253106
0.0251334
0.0249684
0.0248151
0.0246726
0.0245403
0.0244176
0.0243038
0.0241983
0.0241005
0.0240099
0.0239259
0.023848
0.0237758
0.0237089
0.0236468
0.0235892
0.0235357
0.0234859
0.0234396
0.0233963
0.0233556
0.0233185
0.0232845
0.0232532
0.0232241
0.023197
0.0231717
0.0231479
0.0231254
0.0231043
0.0230843
0.0230653
0.0230472
0.0230299
0.0230135
0.0229977
0.0229825
0.022968
0.0229539
0.0229404
0.0229273
0.0229145
0.0229022
0.0228902
0.0228785
0.022867
0.0228558
0.0228448
0.022834
0.0228234
0.0228129
0.0228025
0.0227923
0.0227821
0.0227721
0.0227621
0.0227521
0.0227422
0.0227323
0.0227225
0.0227126
0.0227027
0.0226928
0.0226829
0.0226729
0.0226629
0.0226528
0.0226426
0.0226324
0.022622
0.0226116
0.0226011
0.0225904
0.0225796
0.0225686
0.0225574
0.022546
0.0225343
0.0225223
0.0225099
0.022497
0.0224835
0.0224692
0.0224538
0.0224371
0.0224186
0.0223976
0.0223734
0.0223445
0.0223088
0.0222629
0.0222006
0.0221101
0.0219664
0.0217208
0.0212745
0.00717592
0.0157257
0.0203587
0.0240079
0.0271808
0.0300238
0.0326047
0.0349704
0.0371613
0.0392134
0.0411577
0.043021
0.0448249
0.0465868
0.0483199
0.050034
0.0517357
0.0534291
0.0551162
0.056797
0.0584699
0.0601321
0.0617796
0.0634069
0.0650075
0.0665744
0.0680855
0.069548
0.0709599
0.0723159
0.0736088
0.0748313
0.0759755
0.0770337
0.0779984
0.0788629
0.079621
0.0802673
0.0807978
0.0812094
0.0815002
0.0816698
0.0817191
0.0816505
0.0814676
0.0811751
0.0807783
0.0802823
0.0797015
0.0790431
0.078309
0.0775044
0.0766362
0.0757117
0.0747388
0.0737252
0.0726786
0.0716065
0.070516
0.0694143
0.0683078
0.0672028
0.0661051
0.06502
0.0639523
0.0629066
0.0618865
0.0608955
0.0599365
0.0590118
0.0581233
0.0572724
0.0564601
0.055687
0.0549533
0.0542588
0.0536031
0.0529855
0.0524051
0.0518607
0.051351
0.0508746
0.0504301
0.0500159
0.0496304
0.0492719
0.048939
0.0486299
0.0483433
0.0480775
0.0478312
0.0476029
0.0473915
0.0471956
0.0470142
0.046846
0.0466902
0.0465457
0.0464116
0.0462872
0.0461716
0.0460641
0.045964
0.0458707
0.0457834
0.0457004
0.0456228
0.0455507
0.0454836
0.0454209
0.0453623
0.0453074
0.0452557
0.0452069
0.0451607
0.045117
0.0450753
0.0450356
0.0449977
0.0449613
0.0449264
0.0448928
0.0448605
0.0448291
0.0447988
0.0447694
0.0447408
0.0447128
0.0446856
0.0446589
0.0446327
0.044607
0.0445817
0.0445567
0.044532
0.0445076
0.0444834
0.0444594
0.0444355
0.0444118
0.0443881
0.0443645
0.0443409
0.0443174
0.0442938
0.0442702
0.0442465
0.0442227
0.0441988
0.0441748
0.0441506
0.0441263
0.0441018
0.0440771
0.0440522
0.0440271
0.0440017
0.043976
0.04395
0.0439237
0.0438969
0.0438696
0.0438418
0.0438133
0.0437839
0.0437535
0.0437218
0.0436884
0.0436527
0.0436142
0.0435718
0.043524
0.0434687
0.0434025
0.0433197
0.0432103
0.0430545
0.0428181
0.0424068
0.0418431
0.0109643
0.0228693
0.0289919
0.0335701
0.0374598
0.0409273
0.0440818
0.0469815
0.0496676
0.0521754
0.0545362
0.0567782
0.0589253
0.060998
0.063013
0.0649837
0.0669207
0.0688321
0.0707235
0.0725989
0.0744605
0.0763089
0.0781432
0.0799615
0.0817601
0.0835344
0.0852734
0.086974
0.0886301
0.0902335
0.0917748
0.093244
0.0946306
0.095924
0.0971141
0.0981913
0.0991468
0.0999731
0.100664
0.101214
0.10162
0.10188
0.101994
0.101963
0.101789
0.101477
0.101031
0.100456
0.0997712
0.0989821
0.0980962
0.0971219
0.096068
0.094944
0.0937593
0.0925234
0.0912459
0.0899357
0.0886019
0.0872529
0.0858969
0.0845416
0.083194
0.0818609
0.0805482
0.0792615
0.0780055
0.0767846
0.0756023
0.0744616
0.0733652
0.0723147
0.0713115
0.0703564
0.0694498
0.0685915
0.0677812
0.067018
0.0663007
0.0656281
0.0649985
0.0644102
0.0638615
0.0633503
0.0628747
0.0624327
0.0620223
0.0616415
0.0612885
0.0609613
0.0606582
0.0603775
0.0601175
0.0598767
0.0596536
0.059447
0.0592554
0.0590778
0.058913
0.0587599
0.0586177
0.0584855
0.0583623
0.0582474
0.0581401
0.0580393
0.0579443
0.0578556
0.0577726
0.0576948
0.0576217
0.0575529
0.057488
0.0574266
0.0573683
0.057313
0.0572602
0.0572099
0.0571616
0.0571153
0.0570708
0.0570279
0.0569865
0.0569463
0.0569074
0.0568696
0.0568327
0.0567968
0.0567616
0.0567271
0.0566932
0.0566599
0.056627
0.0565946
0.0565626
0.0565308
0.0564993
0.056468
0.0564369
0.056406
0.0563751
0.0563442
0.0563134
0.0562826
0.0562518
0.0562209
0.0561899
0.0561587
0.0561275
0.056096
0.0560644
0.0560326
0.0560005
0.0559682
0.0559356
0.0559028
0.0558696
0.055836
0.0558021
0.0557678
0.0557329
0.0556975
0.0556614
0.0556245
0.0555867
0.0555476
0.0555071
0.0554647
0.0554199
0.0553719
0.0553198
0.0552619
0.055196
0.0551187
0.0550244
0.0549036
0.0547386
0.0544995
0.0541205
0.0535947
0.0137873
0.0283869
0.0357214
0.0410205
0.0454125
0.0492736
0.052766
0.0559715
0.0589399
0.061708
0.0643065
0.0667624
0.0690998
0.0713397
0.0735009
0.0755992
0.0776482
0.0796593
0.0816418
0.083603
0.0855484
0.0874816
0.0894043
0.0913167
0.0932166
0.0950999
0.096958
0.0987855
0.100575
0.102316
0.103999
0.105611
0.107141
0.108576
0.109904
0.111113
0.112193
0.113135
0.113931
0.114574
0.115059
0.115384
0.115548
0.11555
0.115394
0.115081
0.114618
0.114014
0.113283
0.112432
0.111472
0.110412
0.109262
0.108032
0.106734
0.105376
0.103971
0.102527
0.101055
0.0995636
0.0980626
0.0965602
0.0950645
0.0935828
0.0921221
0.0906884
0.0892875
0.0879243
0.0866028
0.0853268
0.0840992
0.0829222
0.0817974
0.0807261
0.0797088
0.0787454
0.0778356
0.0769786
0.0761733
0.0754182
0.0747115
0.0740515
0.073436
0.0728629
0.07233
0.071835
0.0713757
0.0709498
0.0705553
0.0701898
0.0698515
0.0695384
0.0692485
0.0689803
0.0687319
0.0685018
0.0682887
0.0680911
0.0679078
0.0677376
0.0675795
0.0674324
0.0672954
0.0671676
0.0670482
0.0669364
0.0668312
0.0667326
0.0666402
0.0665534
0.0664717
0.0663946
0.0663217
0.0662526
0.0661869
0.0661244
0.0660647
0.0660075
0.0659528
0.0659001
0.0658494
0.0658005
0.0657531
0.0657072
0.0656626
0.0656192
0.0655768
0.0655354
0.0654949
0.0654551
0.0654159
0.0653774
0.0653394
0.0653018
0.0652647
0.0652278
0.0651912
0.0651548
0.0651187
0.0650826
0.0650466
0.0650107
0.0649747
0.0649388
0.0649028
0.0648667
0.0648305
0.0647941
0.0647576
0.0647209
0.0646839
0.0646467
0.0646093
0.0645715
0.0645334
0.064495
0.0644563
0.0644171
0.0643775
0.0643374
0.0642968
0.0642555
0.0642136
0.0641707
0.0641269
0.0640817
0.0640351
0.0639864
0.0639353
0.0638809
0.0638223
0.0637578
0.0636853
0.0636016
0.0635012
0.0633756
0.0632099
0.0629797
0.0626421
0.0621965
0.016095
0.0328166
0.0411536
0.0470606
0.0518708
0.0560424
0.0597825
0.0631982
0.0663529
0.0692894
0.0720407
0.0746341
0.0770938
0.0794413
0.081696
0.0838754
0.0859948
0.0880677
0.0901058
0.0921186
0.0941138
0.0960971
0.0980717
0.100039
0.101998
0.103944
0.105871
0.107772
0.10964
0.111465
0.113235
0.114937
0.116558
0.118084
0.119501
0.120798
0.121961
0.12298
0.123847
0.124554
0.125095
0.125467
0.125668
0.125698
0.125559
0.125254
0.12479
0.124179
0.12343
0.122554
0.121559
0.120457
0.119257
0.117972
0.116611
0.115185
0.113707
0.112185
0.11063
0.109053
0.107462
0.105867
0.104277
0.102699
0.101141
0.0996096
0.0981109
0.0966506
0.0952332
0.093863
0.0925432
0.0912767
0.0900654
0.0889107
0.0878136
0.0867741
0.0857921
0.084867
0.0839975
0.0831822
0.0824194
0.0817071
0.0810431
0.0804252
0.079851
0.079318
0.0788237
0.0783658
0.0779419
0.0775496
0.0771868
0.0768512
0.0765408
0.0762538
0.0759882
0.0757424
0.0755149
0.075304
0.0751085
0.0749271
0.0747585
0.0746018
0.0744558
0.0743198
0.0741926
0.0740736
0.073962
0.073857
0.0737586
0.073666
0.0735787
0.0734962
0.0734181
0.0733439
0.0732734
0.0732061
0.0731418
0.0730802
0.073021
0.0729641
0.0729092
0.0728562
0.0728048
0.0727549
0.0727064
0.0726591
0.0726129
0.0725678
0.0725235
0.07248
0.0724372
0.0723949
0.0723533
0.0723121
0.0722712
0.0722307
0.0721905
0.0721505
0.0721106
0.0720709
0.0720313
0.0719916
0.071952
0.0719124
0.0718726
0.0718327
0.0717928
0.0717526
0.0717122
0.0716716
0.0716308
0.0715897
0.0715483
0.0715065
0.0714644
0.071422
0.0713791
0.0713359
0.0712921
0.0712478
0.0712029
0.0711574
0.0711111
0.0710639
0.0710156
0.070966
0.0709148
0.0708617
0.070806
0.070747
0.0706837
0.0706146
0.0705377
0.0704496
0.0703457
0.070218
0.0700539
0.0698342
0.0695306
0.0691501
0.0180324
0.0364594
0.0456244
0.0520427
0.0572089
0.0616425
0.065584
0.0691621
0.0724534
0.0755085
0.0783647
0.0810513
0.0835934
0.0860131
0.0883304
0.0905634
0.0927286
0.0948406
0.0969124
0.0989551
0.100978
0.102988
0.104989
0.106984
0.108972
0.110949
0.11291
0.11485
0.116762
0.118634
0.120455
0.122212
0.12389
0.125474
0.12695
0.128304
0.129523
0.130595
0.131511
0.132262
0.132843
0.13325
0.13348
0.133534
0.133414
0.133122
0.132669
0.132064
0.131317
0.130436
0.129432
0.128316
0.127099
0.12579
0.124402
0.122945
0.12143
0.119868
0.11827
0.116645
0.115003
0.113354
0.111706
0.110068
0.108449
0.106854
0.10529
0.103764
0.102281
0.100845
0.0994608
0.0981304
0.0968567
0.0956414
0.0944858
0.0933902
0.0923548
0.0913789
0.0904615
0.0896013
0.0887966
0.0880453
0.0873453
0.0866941
0.0860893
0.0855283
0.0850086
0.0845274
0.0840824
0.083671
0.0832908
0.0829395
0.082615
0.0823152
0.082038
0.0817818
0.0815447
0.0813252
0.0811219
0.0809333
0.0807582
0.0805955
0.080444
0.0803029
0.080171
0.0800477
0.0799321
0.0798234
0.0797213
0.0796253
0.0795346
0.0794489
0.0793676
0.0792904
0.0792168
0.0791466
0.0790795
0.0790151
0.0789532
0.0788935
0.078836
0.0787803
0.0787264
0.0786739
0.0786229
0.0785731
0.0785245
0.0784768
0.0784301
0.0783841
0.0783389
0.0782942
0.0782501
0.0782065
0.0781632
0.0781203
0.0780776
0.0780351
0.0779928
0.0779506
0.0779084
0.0778663
0.0778241
0.0777819
0.0777396
0.0776972
0.0776546
0.0776118
0.0775688
0.0775255
0.077482
0.0774382
0.077394
0.0773495
0.0773046
0.0772594
0.0772137
0.0771675
0.0771209
0.0770736
0.0770258
0.0769773
0.0769279
0.0768777
0.0768263
0.0767736
0.0767193
0.076663
0.0766042
0.0765421
0.0764757
0.0764037
0.0763239
0.0762335
0.0761278
0.0760002
0.0758398
0.0756314
0.0753567
0.0750275
0.0196748
0.039482
0.049327
0.0561682
0.0616314
0.0662842
0.0703921
0.0741002
0.077496
0.0806377
0.0835671
0.0863165
0.0889124
0.0913777
0.0937332
0.0959973
0.0981871
0.100318
0.102404
0.104457
0.106487
0.108502
0.110508
0.112507
0.114501
0.116483
0.118453
0.120406
0.122335
0.124229
0.126077
0.127864
0.129576
0.131196
0.132709
0.134101
0.135357
0.136466
0.137417
0.138202
0.138814
0.139248
0.139504
0.139581
0.13948
0.13921
0.138777
0.13819
0.137458
0.136591
0.135598
0.134491
0.13328
0.131974
0.130586
0.129126
0.127605
0.126033
0.124421
0.122779
0.121116
0.119443
0.117767
0.116099
0.114445
0.112814
0.111212
0.109646
0.108121
0.106643
0.105215
0.103841
0.102524
0.101266
0.100069
0.0989333
0.0978593
0.0968465
0.0958942
0.0950011
0.0941657
0.0933859
0.0926595
0.0919841
0.0913572
0.0907762
0.0902382
0.0897408
0.0892811
0.0888566
0.0884647
0.0881031
0.0877693
0.0874613
0.087177
0.0869144
0.0866717
0.0864473
0.0862395
0.086047
0.0858685
0.0857026
0.0855484
0.0854047
0.0852706
0.0851453
0.0850278
0.0849174
0.0848137
0.084716
0.0846238
0.0845365
0.0844538
0.0843751
0.0843001
0.0842284
0.0841599
0.0840941
0.0840308
0.0839698
0.0839109
0.0838539
0.0837985
0.0837448
0.0836924
0.0836413
0.0835913
0.0835423
0.0834941
0.0834468
0.0834002
0.0833542
0.0833087
0.0832637
0.083219
0.0831746
0.0831305
0.0830866
0.0830429
0.0829992
0.0829556
0.082912
0.0828683
0.0828246
0.0827807
0.0827367
0.0826926
0.0826482
0.0826036
0.0825587
0.0825135
0.082468
0.0824222
0.082376
0.0823294
0.0822824
0.082235
0.0821871
0.0821386
0.0820896
0.0820399
0.0819895
0.0819383
0.0818862
0.0818329
0.0817783
0.0817222
0.081664
0.0816032
0.0815393
0.0814712
0.0813976
0.0813166
0.0812254
0.0811199
0.0809941
0.0808391
0.0806431
0.0803941
0.0801065
0.021063
0.0419776
0.052374
0.0595563
0.0652589
0.0700879
0.0743283
0.0781372
0.0816108
0.0848133
0.0877907
0.090578
0.0932035
0.0956913
0.0980626
0.100336
0.10253
0.10466
0.106741
0.108784
0.110801
0.112801
0.114791
0.116773
0.11875
0.120717
0.122675
0.124622
0.126549
0.128448
0.130305
0.132107
0.133837
0.135479
0.137017
0.138435
0.139718
0.140855
0.141833
0.142645
0.143283
0.143744
0.144025
0.144126
0.144053
0.14381
0.143407
0.14285
0.142148
0.141312
0.140349
0.13927
0.138086
0.136807
0.135443
0.134004
0.132501
0.130945
0.129345
0.127711
0.126054
0.124381
0.122703
0.121029
0.119365
0.117721
0.116103
0.114518
0.112972
0.11147
0.110017
0.108617
0.107274
0.105989
0.104765
0.103602
0.102502
0.101464
0.100488
0.0995719
0.0987151
0.0979156
0.097171
0.096479
0.0958371
0.0952426
0.0946927
0.0941846
0.0937156
0.093283
0.0928841
0.0925165
0.0921778
0.0918655
0.0915776
0.0913121
0.091067
0.0908406
0.0906313
0.0904376
0.0902581
0.0900916
0.0899368
0.0897928
0.0896585
0.089533
0.0894155
0.0893052
0.0892015
0.0891038
0.0890115
0.0889242
0.0888413
0.0887625
0.0886874
0.0886156
0.0885468
0.0884809
0.0884174
0.0883561
0.088297
0.0882396
0.088184
0.0881299
0.0880772
0.0880257
0.0879754
0.087926
0.0878775
0.0878297
0.0877827
0.0877362
0.0876903
0.0876448
0.0875996
0.0875547
0.0875101
0.0874657
0.0874214
0.0873771
0.0873329
0.0872887
0.0872444
0.0872001
0.0871556
0.087111
0.0870662
0.0870211
0.0869758
0.0869302
0.0868844
0.0868382
0.0867916
0.0867447
0.0866973
0.0866495
0.0866013
0.0865526
0.0865033
0.0864534
0.0864029
0.0863517
0.0862997
0.0862467
0.0861926
0.0861372
0.0860802
0.0860212
0.0859597
0.0858952
0.0858266
0.0857527
0.0856718
0.0855813
0.0854776
0.0853553
0.0852073
0.0850243
0.0847989
0.0845463
0.0222157
0.0439953
0.054827
0.0622744
0.0681602
0.0731221
0.0774603
0.0813407
0.0848662
0.0881054
0.0911076
0.0939103
0.0965433
0.0990316
0.101397
0.10366
0.105837
0.107945
0.109999
0.112013
0.113998
0.115963
0.117916
0.119862
0.121803
0.123737
0.125668
0.127593
0.129505
0.131395
0.133251
0.135057
0.136797
0.138454
0.14001
0.141449
0.142756
0.143916
0.14492
0.145758
0.146423
0.146912
0.147222
0.147356
0.147318
0.147115
0.146753
0.14624
0.145584
0.144794
0.143878
0.142848
0.141711
0.140478
0.13916
0.137765
0.136303
0.134785
0.13322
0.131618
0.129988
0.128339
0.126681
0.125021
0.123369
0.121731
0.120117
0.118531
0.116982
0.115474
0.114012
0.112602
0.111246
0.109947
0.108708
0.107531
0.106415
0.105363
0.104372
0.103442
0.102572
0.10176
0.101005
0.100303
0.0996518
0.0990494
0.0984928
0.097979
0.0975053
0.0970688
0.096667
0.0962972
0.0959568
0.0956436
0.0953552
0.0950896
0.0948449
0.0946191
0.0944107
0.0942181
0.0940398
0.0938746
0.0937213
0.0935787
0.0934459
0.0933219
0.0932059
0.0930971
0.0929948
0.0928985
0.0928075
0.0927213
0.0926396
0.0925618
0.0924877
0.0924168
0.092349
0.0922838
0.0922211
0.0921606
0.0921021
0.0920455
0.0919904
0.0919369
0.0918848
0.0918338
0.0917839
0.091735
0.0916869
0.0916395
0.0915929
0.0915468
0.0915011
0.0914559
0.0914111
0.0913665
0.0913221
0.091278
0.0912339
0.0911899
0.0911459
0.0911018
0.0910578
0.0910136
0.0909693
0.0909248
0.0908801
0.0908352
0.09079
0.0907445
0.0906988
0.0906527
0.0906062
0.0905593
0.0905121
0.0904643
0.0904162
0.0903675
0.0903183
0.0902685
0.090218
0.0901668
0.0901148
0.0900619
0.0900079
0.0899526
0.0898957
0.0898369
0.0897758
0.0897117
0.0896437
0.0895707
0.0894911
0.0894025
0.0893019
0.0891846
0.0890447
0.0888752
0.0886719
0.0884495
0.0231368
0.0455557
0.0567157
0.0643573
0.0703726
0.0754249
0.079826
0.0837488
0.0873004
0.090553
0.0935581
0.0963549
0.0989744
0.101443
0.103782
0.106012
0.108152
0.110218
0.112225
0.114189
0.11612
0.118031
0.119929
0.12182
0.123707
0.125593
0.127483
0.129374
0.131262
0.133136
0.134983
0.136789
0.138536
0.140204
0.141777
0.143237
0.144567
0.145754
0.146787
0.147656
0.148351
0.148873
0.149222
0.1494
0.149411
0.149261
0.148955
0.148502
0.147908
0.147182
0.146333
0.145369
0.144299
0.143133
0.14188
0.14055
0.13915
0.137691
0.136182
0.134632
0.13305
0.131445
0.129825
0.1282
0.126577
0.124965
0.123371
0.121802
0.120264
0.118765
0.117309
0.115901
0.114545
0.113245
0.112003
0.11082
0.1097
0.108641
0.107643
0.106708
0.105832
0.105014
0.104254
0.103547
0.102893
0.102287
0.101728
0.101213
0.100739
0.100302
0.0999007
0.0995318
0.0991929
0.0988814
0.0985952
0.098332
0.0980899
0.0978669
0.0976614
0.0974718
0.0972965
0.0971344
0.096984
0.0968445
0.0967146
0.0965935
0.0964803
0.0963743
0.0962746
0.0961807
0.0960921
0.0960082
0.0959286
0.0958529
0.0957807
0.0957117
0.0956456
0.0955821
0.0955211
0.0954621
0.0954052
0.0953499
0.0952963
0.0952442
0.0951933
0.0951435
0.0950949
0.0950471
0.0950001
0.0949539
0.0949083
0.0948632
0.0948187
0.0947744
0.0947306
0.0946869
0.0946435
0.0946002
0.0945571
0.0945139
0.0944708
0.0944277
0.0943845
0.0943411
0.0942976
0.094254
0.0942101
0.094166
0.0941217
0.094077
0.0940321
0.0939867
0.0939411
0.093895
0.0938485
0.0938016
0.0937542
0.0937064
0.0936579
0.0936089
0.0935593
0.0935089
0.0934578
0.0934057
0.0933525
0.0932982
0.0932423
0.0931846
0.0931246
0.0930618
0.0929953
0.0929242
0.0928469
0.0927615
0.0926651
0.0925539
0.0924231
0.0922674
0.0920847
0.0918889
0.0238206
0.0466629
0.0580508
0.0658212
0.0719165
0.0770196
0.0814511
0.0853887
0.0889426
0.092187
0.0951749
0.0979463
0.100533
0.102962
0.105255
0.107433
0.109515
0.111519
0.113459
0.115352
0.11721
0.119046
0.120869
0.122687
0.124504
0.126327
0.128163
0.130012
0.131867
0.133719
0.135555
0.137358
0.13911
0.140792
0.142384
0.143867
0.145227
0.146445
0.147509
0.148412
0.14915
0.149721
0.150125
0.150363
0.150439
0.150359
0.150127
0.149751
0.149238
0.148594
0.14783
0.146952
0.145969
0.144889
0.143722
0.142474
0.141156
0.139776
0.138341
0.136862
0.135346
0.133803
0.13224
0.130666
0.129089
0.127518
0.125959
0.124421
0.122911
0.121433
0.119995
0.118602
0.117257
0.115966
0.11473
0.113552
0.112434
0.111377
0.110381
0.109446
0.10857
0.107753
0.106992
0.106287
0.105633
0.105029
0.104472
0.103959
0.103487
0.103053
0.102655
0.10229
0.101955
0.101647
0.101365
0.101107
0.100869
0.100651
0.10045
0.100265
0.100094
0.0999363
0.0997903
0.099655
0.0995293
0.0994122
0.0993029
0.0992007
0.0991046
0.0990142
0.0989288
0.098848
0.0987714
0.0986986
0.0986291
0.0985628
0.0984992
0.0984382
0.0983794
0.0983227
0.0982679
0.0982148
0.0981633
0.0981131
0.0980641
0.0980162
0.0979694
0.0979234
0.0978782
0.0978336
0.0977897
0.0977462
0.0977032
0.0976606
0.0976183
0.0975762
0.0975342
0.0974925
0.0974507
0.0974091
0.0973674
0.0973257
0.0972839
0.097242
0.0971999
0.0971577
0.0971152
0.0970725
0.0970296
0.0969863
0.0969428
0.0968989
0.0968546
0.0968099
0.0967649
0.0967194
0.0966734
0.0966269
0.09658
0.0965324
0.0964842
0.0964353
0.0963856
0.0963351
0.0962835
0.0962308
0.0961766
0.0961206
0.0960626
0.0960019
0.0959378
0.0958694
0.0957953
0.0957139
0.0956226
0.0955183
0.0953972
0.0952553
0.095092
0.0949199
0.0242551
0.0473125
0.0588357
0.0666765
0.0728089
0.0779289
0.0823631
0.0862925
0.0898288
0.0930472
0.0960012
0.0987312
0.101269
0.103642
0.105872
0.10798
0.109986
0.111907
0.11376
0.115561
0.117325
0.119065
0.120793
0.122517
0.124247
0.125994
0.127765
0.12956
0.131375
0.133199
0.13502
0.136819
0.138576
0.140274
0.141889
0.143398
0.144786
0.14604
0.147149
0.148105
0.148904
0.149542
0.150019
0.150337
0.150497
0.150506
0.150368
0.150089
0.149675
0.149135
0.148474
0.147701
0.146824
0.145849
0.144785
0.143639
0.14242
0.141135
0.139793
0.138401
0.136968
0.135502
0.134012
0.132504
0.130989
0.129472
0.127963
0.126469
0.124997
0.123554
0.122145
0.120777
0.119454
0.11818
0.116959
0.115794
0.114687
0.113639
0.11265
0.111721
0.110851
0.110039
0.109284
0.108583
0.107934
0.107335
0.106783
0.106275
0.105808
0.10538
0.104988
0.104628
0.104299
0.103998
0.103722
0.10347
0.103238
0.103026
0.102831
0.102652
0.102487
0.102335
0.102194
0.102064
0.101944
0.101832
0.101727
0.101629
0.101538
0.101451
0.10137
0.101293
0.10122
0.101151
0.101085
0.101022
0.100961
0.100903
0.100848
0.100794
0.100742
0.100691
0.100642
0.100594
0.100548
0.100502
0.100458
0.100414
0.100371
0.100329
0.100287
0.100246
0.100205
0.100164
0.100124
0.100084
0.100044
0.100004
0.0999641
0.0999244
0.0998846
0.0998448
0.0998049
0.0997649
0.0997247
0.0996844
0.0996438
0.099603
0.0995619
0.0995206
0.0994789
0.0994369
0.0993945
0.0993518
0.0993086
0.099265
0.099221
0.0991765
0.0991315
0.0990859
0.0990397
0.0989928
0.0989452
0.0988967
0.0988473
0.0987967
0.0987448
0.0986913
0.0986358
0.0985778
0.0985167
0.0984517
0.0983815
0.0983048
0.0982193
0.0981226
0.0980115
0.0978833
0.097738
0.0975873
0.0244242
0.0474983
0.0590745
0.066938
0.0730745
0.0781867
0.0826045
0.0865101
0.0900158
0.0931968
0.0961062
0.098784
0.101262
0.103566
0.10572
0.107743
0.109656
0.111476
0.113222
0.114911
0.116559
0.118181
0.119792
0.121401
0.123027
0.124682
0.126373
0.128101
0.129864
0.131651
0.133454
0.135242
0.136997
0.138701
0.140333
0.141873
0.143304
0.144613
0.145786
0.146816
0.147696
0.148423
0.148995
0.149414
0.149681
0.1498
0.149776
0.149614
0.149321
0.148902
0.148364
0.147715
0.14696
0.146107
0.145163
0.144136
0.143032
0.141858
0.140623
0.139334
0.137998
0.136624
0.135219
0.133791
0.132349
0.1309
0.129453
0.128014
0.126592
0.125193
0.123823
0.122489
0.121196
0.119949
0.118751
0.117606
0.116516
0.115482
0.114507
0.11359
0.112731
0.111929
0.111182
0.11049
0.109849
0.109258
0.108714
0.108214
0.107755
0.107334
0.10695
0.106598
0.106277
0.105983
0.105715
0.10547
0.105246
0.105041
0.104853
0.104681
0.104523
0.104377
0.104243
0.104119
0.104004
0.103898
0.103799
0.103706
0.10362
0.103538
0.103461
0.103389
0.10332
0.103255
0.103193
0.103133
0.103077
0.103022
0.10297
0.102919
0.10287
0.102823
0.102777
0.102732
0.102688
0.102646
0.102604
0.102563
0.102522
0.102482
0.102443
0.102404
0.102366
0.102328
0.10229
0.102252
0.102214
0.102177
0.102139
0.102102
0.102064
0.102027
0.101989
0.101951
0.101914
0.101875
0.101837
0.101799
0.10176
0.101721
0.101681
0.101642
0.101602
0.101561
0.10152
0.101479
0.101437
0.101395
0.101353
0.101309
0.101266
0.101221
0.101176
0.10113
0.101083
0.101035
0.100986
0.100936
0.100883
0.100828
0.100771
0.10071
0.100644
0.100572
0.100493
0.100405
0.100304
0.100189
0.10006
0.0999288
0.024309
0.0472172
0.0587793
0.0666331
0.0727551
0.0778483
0.0822426
0.0861201
0.0895925
0.0927338
0.0955963
0.0982189
0.100632
0.102862
0.104931
0.106859
0.108666
0.110371
0.111992
0.113549
0.11506
0.116542
0.118011
0.119483
0.120983
0.122529
0.124121
0.125763
0.127451
0.129177
0.130929
0.132688
0.134434
0.136146
0.137805
0.139388
0.140879
0.14226
0.143519
0.144644
0.145628
0.146467
0.147158
0.1477
0.148095
0.148346
0.148457
0.148432
0.148277
0.147997
0.1476
0.147089
0.146473
0.145757
0.144948
0.144052
0.143076
0.142027
0.140911
0.139736
0.138509
0.137238
0.135931
0.134594
0.133236
0.131866
0.13049
0.129117
0.127753
0.126408
0.125086
0.123795
0.12254
0.121326
0.120158
0.119038
0.117972
0.116959
0.116002
0.115101
0.114257
0.113468
0.112735
0.112054
0.111425
0.110844
0.11031
0.10982
0.109371
0.10896
0.108585
0.108243
0.107931
0.107646
0.107387
0.107151
0.106935
0.106738
0.106558
0.106394
0.106243
0.106105
0.105977
0.10586
0.105752
0.105651
0.105558
0.105472
0.10539
0.105314
0.105242
0.105175
0.105111
0.10505
0.104992
0.104937
0.104884
0.104833
0.104784
0.104737
0.104692
0.104648
0.104605
0.104564
0.104523
0.104484
0.104445
0.104407
0.104369
0.104332
0.104296
0.104259
0.104224
0.104188
0.104153
0.104118
0.104083
0.104048
0.104013
0.103978
0.103943
0.103908
0.103873
0.103838
0.103803
0.103767
0.103731
0.103695
0.103659
0.103623
0.103586
0.103549
0.103511
0.103473
0.103435
0.103397
0.103358
0.103318
0.103278
0.103238
0.103197
0.103155
0.103113
0.10307
0.103026
0.102981
0.102935
0.102888
0.102839
0.102788
0.102734
0.102677
0.102616
0.10255
0.102478
0.102397
0.102306
0.102204
0.102091
0.101977
0.0238843
0.0464686
0.0579732
0.0658074
0.0719167
0.0769976
0.0813776
0.085237
0.0886861
0.0917972
0.094621
0.0971952
0.0995498
0.101708
0.103692
0.105521
0.107215
0.108795
0.110279
0.111688
0.113042
0.114361
0.115663
0.116975
0.118322
0.119718
0.121172
0.122689
0.124268
0.125903
0.127585
0.129299
0.131026
0.132746
0.134436
0.136074
0.137639
0.139113
0.140478
0.141721
0.142833
0.143806
0.144637
0.145324
0.145867
0.146268
0.146531
0.146659
0.146658