/*--------------------------------*- C++ -*----------------------------------*\
  =========                 |
  \\      /  F ield         | OpenFOAM: The Open Source CFD Toolbox
   \\    /   O peration     | Website:  https://openfoam.org
    \\  /    A nd           | Version:  6
     \\/     M anipulation  |
\*---------------------------------------------------------------------------*/
FoamFile
{
    version     2.0;
    format      ascii;
    class       volScalarField;
    location    "0.06";
    object      nut;
}
// * * * * * * * * * * * * * * * * * * * * * * * * * * * * * * * * * * * * * //

dimensions      [0 2 -1 0 0 0 0];

internalField   nonuniform List<scalar> 
12225
(
1.77721e-05
1.4268e-05
1.2351e-05
1.11638e-05
1.03628e-05
9.79366e-06
9.36937e-06
9.03762e-06
8.76753e-06
8.54096e-06
8.34689e-06
8.1783e-06
8.03045e-06
7.90017e-06
7.78627e-06
7.68737e-06
7.60697e-06
7.55744e-06
0.000144881
0.000101917
8.79127e-05
8.05683e-05
7.61319e-05
7.31755e-05
7.09018e-05
6.89305e-05
6.7136e-05
6.54923e-05
6.39933e-05
6.26333e-05
6.14033e-05
6.02894e-05
5.92853e-05
5.83973e-05
5.76714e-05
5.71901e-05
0.00032334
0.0002236
0.000189845
0.000172638
0.000162153
0.000155114
0.000149921
0.000145737
0.000142161
0.000139013
0.000136207
0.000133695
0.00013145
0.000129449
0.000127665
0.000126116
0.000124873
0.000124109
0.000493988
0.000355282
0.000299512
0.000269758
0.000251284
0.000238764
0.000229648
0.000222563
0.000216771
0.000211871
0.000207636
0.000203933
0.00020069
0.000197837
0.000195332
0.000193181
0.000191445
0.000190281
0.000624491
0.000478736
0.000407462
0.000366375
0.000339879
0.00032152
0.000308053
0.000297669
0.000289329
0.000282421
0.000276572
0.000271551
0.000267221
0.000263448
0.000260171
0.000257372
0.000255084
0.000253425
0.000713129
0.000583422
0.000506647
0.000458115
0.000425199
0.00040166
0.000384072
0.000370416
0.000359465
0.000350456
0.000342897
0.000336471
0.00033097
0.000326209
0.000322096
0.000318585
0.00031568
0.000313458
0.000769338
0.000665649
0.000592442
0.000541386
0.000504667
0.000477381
0.000456469
0.000439981
0.000426656
0.000415663
0.000406448
0.000398638
0.000391948
0.000386176
0.000381197
0.000376935
0.00037337
0.000370545
0.000803483
0.000726373
0.000662686
0.000613661
0.000576087
0.000546928
0.000523892
0.000505345
0.000490147
0.0004775
0.000466843
0.000457781
0.000449988
0.000443256
0.000437437
0.000432435
0.000428208
0.000424772
0.000823648
0.000768988
0.000717359
0.000673663
0.000637903
0.000608822
0.00058505
0.00056543
0.000549059
0.000535256
0.000523519
0.000513447
0.000504737
0.000497179
0.000490615
0.00048494
0.000480099
0.000476085
0.000835335
0.000797648
0.000757967
0.000721339
0.000689355
0.000662052
0.000638903
0.000619256
0.000602511
0.000588164
0.0005758
0.00056507
0.000555716
0.00054754
0.000540393
0.000534169
0.000528809
0.000524289
0.000842025
0.000816243
0.000786859
0.000757626
0.000730495
0.000706192
0.000684792
0.000666083
0.000649759
0.000635508
0.00062302
0.000612046
0.00060238
0.000593854
0.000586339
0.000579739
0.000573999
0.000569088
0.000845515
0.000826977
0.000804961
0.000781879
0.000759401
0.00073843
0.000719334
0.000702175
0.000686866
0.000673235
0.000661105
0.000650307
0.00064069
0.000632126
0.000624509
0.000617765
0.000611846
0.000606728
0.000847625
0.000833975
0.000817565
0.000799714
0.000781614
0.000764085
0.000747596
0.00073237
0.000718454
0.000705817
0.000694382
0.000684057
0.000674746
0.000666363
0.000658833
0.000652103
0.000646138
0.000640916
0.000848986
0.000838802
0.000826839
0.000813611
0.000799778
0.00078592
0.000772457
0.000759646
0.00074763
0.000736467
0.000726163
0.000716696
0.000708026
0.000700111
0.000692911
0.000686398
0.000680555
0.000675357
0.000849787
0.000841811
0.000832983
0.000823365
0.0008132
0.000802784
0.000792386
0.000782218
0.000772428
0.000763109
0.000754315
0.00074607
0.00073838
0.00073124
0.000724644
0.000718588
0.00071307
0.000708067
0.000850212
0.000843482
0.000836587
0.000829412
0.000821962
0.000814316
0.000806585
0.00079888
0.000791299
0.000783921
0.000776802
0.000769984
0.000763495
0.000757355
0.000751578
0.00074618
0.000741171
0.000736526
0.000850411
0.00084429
0.000838408
0.000832619
0.000826838
0.000821029
0.000815194
0.000809355
0.000803546
0.000797805
0.000792166
0.000786662
0.000781321
0.000776169
0.000771229
0.000766526
0.000762074
0.000757844
0.000850482
0.000844586
0.000839096
0.000833876
0.000828823
0.000823861
0.000818948
0.000814061
0.000809194
0.000804354
0.000799554
0.000794812
0.000790147
0.000785581
0.000781139
0.000776845
0.000772713
0.00076871
0.000850461
0.000844496
0.000838887
0.000833494
0.000828217
0.000822992
0.000817784
0.000812581
0.000807386
0.000802212
0.000797076
0.000791998
0.000786998
0.000782099
0.000777325
0.0007727
0.000768239
0.000763912
0.000850262
0.000843688
0.000837054
0.000830232
0.000823195
0.000815981
0.000808658
0.000801305
0.000793997
0.000786796
0.000779751
0.000772897
0.000766264
0.000759871
0.000753738
0.000747881
0.000742311
0.000736996
0.000849705
0.00084152
0.000832411
0.000822474
0.000811965
0.000801179
0.000790378
0.000779762
0.000769472
0.000759594
0.000750176
0.000741239
0.000732784
0.000724805
0.000717293
0.000710239
0.000703637
0.000697446
0.00084816
0.000835926
0.000821358
0.0008054
0.000788974
0.000772769
0.000757222
0.000742568
0.000728901
0.000716234
0.000704529
0.000693723
0.000683746
0.000674527
0.000666006
0.000658133
0.000650871
0.000644164
0.000844081
0.000822715
0.000797851
0.00077233
0.000747877
0.000725308
0.000704884
0.000686575
0.00067021
0.000655576
0.000642456
0.000630649
0.000619978
0.000610294
0.000601476
0.00059343
0.000586091
0.000579394
0.000833782
0.000794205
0.000753259
0.000715813
0.00068322
0.000655377
0.000631694
0.000611486
0.000594124
0.000579082
0.000565933
0.000554337
0.000544024
0.000534784
0.000526453
0.000518911
0.000512078
0.000505889
0.000809065
0.000738636
0.000678391
0.000630646
0.000593169
0.000563501
0.000539671
0.000520195
0.000503996
0.000490298
0.000478535
0.000468293
0.000459267
0.000451228
0.000444006
0.000437481
0.000431578
0.000426247
0.000753674
0.000642622
0.000568094
0.000517352
0.000481207
0.000454447
0.000433952
0.000417752
0.000404573
0.000393581
0.000384212
0.000376077
0.000368906
0.000362502
0.000356727
0.000351485
0.00034672
0.00034241
0.000641459
0.000499087
0.000426662
0.000383767
0.000355527
0.000335693
0.000321031
0.000309666
0.000300485
0.000292808
0.000286211
0.000280417
0.000275244
0.000270565
0.000266295
0.000262375
0.000258775
0.0002555
0.000448552
0.000320144
0.000270198
0.000243323
0.000226498
0.000215128
0.000206895
0.000200495
0.000195209
0.00019065
0.000186605
0.000182945
0.000179594
0.000176501
0.000173631
0.000170959
0.000168476
0.000166199
0.000203092
0.000143527
0.00012293
0.000111636
0.000104706
0.000100218
9.69867e-05
9.43485e-05
9.20087e-05
8.98587e-05
8.78595e-05
8.59943e-05
8.42528e-05
8.2627e-05
8.1109e-05
7.96914e-05
7.83686e-05
7.71429e-05
2.40293e-05
1.96332e-05
1.71015e-05
1.5464e-05
1.43196e-05
1.34846e-05
1.28537e-05
1.23593e-05
1.19582e-05
1.16228e-05
1.13355e-05
1.10847e-05
1.08627e-05
1.06638e-05
1.04842e-05
1.03207e-05
1.01712e-05
1.00342e-05
2.78929e-06
8.98659e-06
1.08515e-05
1.21494e-05
1.31205e-05
1.39229e-05
1.46172e-05
1.52349e-05
1.57959e-05
1.63138e-05
1.67981e-05
1.72558e-05
1.76917e-05
1.81092e-05
1.85105e-05
1.88973e-05
1.92705e-05
1.96307e-05
1.99782e-05
2.03133e-05
2.06364e-05
2.09478e-05
2.12481e-05
2.15388e-05
2.18221e-05
2.2101e-05
2.24026e-05
2.26848e-05
2.29475e-05
2.31914e-05
2.34166e-05
2.3623e-05
2.38101e-05
2.39777e-05
2.41252e-05
2.42523e-05
2.43586e-05
2.44437e-05
2.45074e-05
2.45495e-05
2.45698e-05
2.45683e-05
2.45447e-05
2.44987e-05
2.44296e-05
2.43367e-05
2.42207e-05
2.4093e-05
2.39818e-05
2.38967e-05
2.38093e-05
2.37119e-05
2.36029e-05
2.34825e-05
2.33513e-05
2.32101e-05
2.30598e-05
2.29015e-05
2.27362e-05
2.25647e-05
2.23883e-05
2.22078e-05
2.20243e-05
2.18387e-05
2.16521e-05
2.14653e-05
2.12792e-05
2.10947e-05
2.09126e-05
2.07335e-05
2.05581e-05
2.03869e-05
2.02206e-05
2.00594e-05
1.99038e-05
1.97539e-05
1.96101e-05
1.94724e-05
1.93409e-05
1.92156e-05
1.90964e-05
1.89832e-05
1.88759e-05
1.87743e-05
1.86781e-05
1.85872e-05
1.85013e-05
1.84202e-05
1.83436e-05
1.82711e-05
1.82027e-05
1.81379e-05
1.80766e-05
1.80185e-05
1.79634e-05
1.7911e-05
1.78612e-05
1.78137e-05
1.77684e-05
1.77251e-05
1.76836e-05
1.76437e-05
1.76054e-05
1.75684e-05
1.75325e-05
1.74978e-05
1.74646e-05
1.74325e-05
1.74014e-05
1.7371e-05
1.73413e-05
1.73123e-05
1.72837e-05
1.72557e-05
1.7228e-05
1.72006e-05
1.71736e-05
1.71468e-05
1.71202e-05
1.70938e-05
1.70675e-05
1.70414e-05
1.70153e-05
1.69894e-05
1.69634e-05
1.69376e-05
1.69117e-05
1.68858e-05
1.68599e-05
1.6834e-05
1.6808e-05
1.6782e-05
1.67559e-05
1.67297e-05
1.67034e-05
1.6677e-05
1.66505e-05
1.66239e-05
1.65972e-05
1.65703e-05
1.65433e-05
1.65161e-05
1.64888e-05
1.64613e-05
1.64336e-05
1.64058e-05
1.63777e-05
1.63495e-05
1.63211e-05
1.62925e-05
1.62637e-05
1.62347e-05
1.62055e-05
1.6176e-05
1.61464e-05
1.61165e-05
1.60863e-05
1.6056e-05
1.60253e-05
1.59944e-05
1.59633e-05
1.59318e-05
1.59e-05
1.58678e-05
1.58353e-05
1.58024e-05
1.57689e-05
1.57349e-05
1.57002e-05
1.56647e-05
1.5628e-05
1.559e-05
1.55501e-05
1.55077e-05
1.54614e-05
1.54091e-05
1.53467e-05
1.52656e-05
1.51488e-05
1.49617e-05
4.88499e-06
3.68806e-05
5.79366e-05
7.04539e-05
7.91043e-05
8.59112e-05
9.17468e-05
9.7023e-05
0.000101961
0.000106695
0.000111316
0.000115891
0.000120467
0.000125079
0.000129749
0.00013449
0.000139305
0.000144189
0.000149127
0.000154096
0.000159064
0.000163988
0.000168814
0.00017347
0.000177874
0.000181935
0.000185594
0.000189094
0.000192487
0.000195777
0.000198957
0.000202015
0.000204935
0.000207704
0.000210306
0.000212728
0.000214955
0.000216975
0.000218775
0.000220342
0.000221666
0.000222735
0.000223535
0.000224051
0.000224263
0.000224151
0.0002237
0.000222911
0.000221837
0.000220544
0.000219057
0.000217393
0.000215567
0.000213594
0.000211489
0.000209266
0.00020694
0.000204525
0.000202038
0.000199491
0.0001969
0.000194278
0.00019164
0.000188997
0.000186363
0.00018375
0.000181169
0.000178629
0.000176141
0.000173714
0.000171353
0.000169066
0.000166859
0.000164735
0.000162698
0.000160751
0.000158893
0.000157127
0.000155452
0.000153866
0.000152369
0.000150957
0.000149629
0.000148381
0.000147209
0.000146111
0.000145082
0.00014412
0.000143219
0.000142377
0.000141589
0.000140852
0.000140162
0.000139517
0.000138913
0.000138347
0.000137815
0.000137316
0.000136847
0.000136405
0.000135988
0.000135594
0.000135221
0.000134867
0.000134528
0.000134188
0.000133859
0.000133544
0.000133244
0.000132957
0.000132683
0.00013242
0.000132167
0.000131923
0.000131687
0.000131458
0.000131235
0.000131018
0.000130805
0.000130598
0.000130394
0.000130193
0.000129996
0.000129801
0.000129609
0.000129419
0.00012923
0.000129043
0.000128857
0.000128672
0.000128488
0.000128304
0.00012812
0.000127937
0.000127753
0.00012757
0.000127386
0.000127202
0.000127017
0.000126832
0.000126646
0.000126459
0.000126271
0.000126082
0.000125892
0.000125701
0.000125509
0.000125316
0.000125121
0.000124925
0.000124727
0.000124528
0.000124327
0.000124125
0.000123921
0.000123715
0.000123507
0.000123298
0.000123086
0.000122872
0.000122655
0.000122436
0.000122213
0.000121987
0.000121757
0.000121521
0.00012128
0.00012103
0.000120771
0.0001205
0.000120211
0.0001199
0.000119555
0.000119161
0.000118689
0.000118086
0.000117234
0.000115916
0.000113474
0.000109476
6.08662e-06
5.2012e-05
9.09268e-05
0.00011741
0.000136524
0.000151494
0.000164108
0.000175343
0.000185744
0.000195629
0.000205188
0.00021454
0.000223762
0.000232898
0.000241976
0.000251004
0.000259979
0.000268889
0.000277713
0.000286423
0.000294983
0.000303354
0.000311491
0.000319346
0.000326872
0.000334023
0.000340813
0.000347351
0.000353678
0.000359797
0.000365697
0.000371357
0.000376756
0.000381867
0.000386665
0.000391124
0.000395221
0.000398931
0.000402233
0.000405108
0.000407536
0.000409502
0.000410991
0.000411992
0.000412494
0.000412492
0.000411988
0.000410993
0.000409545
0.000407688
0.000405455
0.000402874
0.000399971
0.00039677
0.000393296
0.000389577
0.000385637
0.000381504
0.000377203
0.000372762
0.000368207
0.000363565
0.000358862
0.000354121
0.000349369
0.000344629
0.000339922
0.000335269
0.00033069
0.000326203
0.000321823
0.000317565
0.000313439
0.000309458
0.000305628
0.000301956
0.000298446
0.000295101
0.000291922
0.000288907
0.000286057
0.000283366
0.000280832
0.000278449
0.000276211
0.000274114
0.000272149
0.000270311
0.000268592
0.000266986
0.000265485
0.000264083
0.000262774
0.000261551
0.000260408
0.00025934
0.00025834
0.000257403
0.000256526
0.000255702
0.000254927
0.000254199
0.000253512
0.000252863
0.000252246
0.000251655
0.00025108
0.000250532
0.000250009
0.000249509
0.00024903
0.000248571
0.000248131
0.000247707
0.000247298
0.000246902
0.000246519
0.000246147
0.000245785
0.000245433
0.000245088
0.00024475
0.000244419
0.000244094
0.000243774
0.000243458
0.000243146
0.000242837
0.000242531
0.000242228
0.000241926
0.000241626
0.000241327
0.000241029
0.000240732
0.000240435
0.000240137
0.00023984
0.000239542
0.000239243
0.000238943
0.000238642
0.00023834
0.000238037
0.000237732
0.000237425
0.000237117
0.000236806
0.000236494
0.000236179
0.000235861
0.000235542
0.000235219
0.000234894
0.000234566
0.000234235
0.000233901
0.000233564
0.000233222
0.000232877
0.000232528
0.000232174
0.000231814
0.000231448
0.000231074
0.000230692
0.000230299
0.000229892
0.000229469
0.000229023
0.000228547
0.000228032
0.00022746
0.000226805
0.000226023
0.000225035
0.000223683
0.000221667
0.000218275
0.000212849
6.83161e-06
6.18263e-05
0.000114117
0.000152586
0.000181526
0.000204449
0.000223608
0.000240388
0.000255631
0.00026985
0.000283361
0.000296359
0.000308964
0.000321251
0.000333263
0.000345023
0.000356541
0.000367815
0.000378841
0.000389606
0.000400096
0.000410293
0.00042018
0.000429736
0.000438943
0.000447779
0.000456266
0.000464468
0.000472411
0.000480099
0.000487518
0.00049465
0.000501468
0.000507944
0.000514047
0.000519746
0.000525012
0.000529814
0.000534125
0.000537921
0.000541179
0.00054388
0.000546008
0.000547554
0.000548508
0.000548871
0.000548644
0.000547836
0.000546477
0.0005446
0.000542235
0.000539411
0.000536157
0.000532501
0.000528474
0.000524105
0.000519426
0.000514469
0.000509268
0.000503856
0.000498265
0.00049253
0.000486682
0.000480756
0.000474782
0.000468793
0.000462816
0.000456882
0.000451016
0.000445242
0.000439585
0.000434063
0.000428694
0.000423495
0.000418478
0.000413652
0.000409027
0.000404608
0.000400397
0.000396396
0.000392604
0.000389019
0.000385636
0.000382451
0.000379458
0.000376648
0.000374014
0.000371548
0.000369241
0.000367085
0.000365071
0.00036319
0.000361434
0.000359793
0.000358261
0.00035683
0.000355492
0.000354241
0.000353069
0.000351971
0.000350941
0.000349973
0.000349063
0.000348204
0.000347392
0.00034662
0.000345881
0.000345175
0.000344503
0.000343861
0.000343247
0.000342659
0.000342096
0.000341554
0.000341031
0.000340528
0.00034004
0.000339568
0.000339109
0.000338663
0.000338228
0.000337803
0.000337387
0.000336979
0.000336578
0.000336184
0.000335795
0.000335411
0.000335031
0.000334655
0.000334281
0.00033391
0.000333541
0.000333174
0.000332807
0.000332442
0.000332076
0.000331711
0.000331345
0.000330979
0.000330612
0.000330243
0.000329874
0.000329502
0.000329129
0.000328754
0.000328377
0.000327997
0.000327615
0.00032723
0.000326843
0.000326452
0.000326058
0.00032566
0.000325259
0.000324854
0.000324446
0.000324033
0.000323615
0.000323193
0.000322765
0.000322331
0.00032189
0.000321441
0.000320983
0.000320514
0.000320031
0.000319531
0.00031901
0.000318461
0.000317876
0.00031724
0.000316536
0.000315733
0.000314779
0.00031359
0.000312005
0.000309738
0.000306231
0.000301089
7.37804e-06
6.8581e-05
0.00013094
0.000179156
0.000216546
0.000246533
0.000271541
0.000293185
0.00031252
0.000330229
0.000346754
0.000362377
0.000377283
0.000391591
0.000405379
0.000418698
0.000431582
0.000444056
0.000456135
0.000467833
0.000479158
0.000490117
0.000500716
0.000510956
0.000520836
0.00053035
0.000539532
0.000548436
0.000557085
0.000565486
0.00057363
0.0005815
0.000589071
0.000596313
0.000603194
0.000609678
0.00061573
0.000621317
0.000626403
0.000630959
0.000634957
0.000638373
0.000641186
0.000643381
0.000644948
0.000645882
0.000646178
0.000645839
0.000644893
0.000643367
0.000641286
0.000638676
0.000635564
0.00063198
0.000627954
0.000623517
0.000618702
0.000613544
0.000608079
0.000602341
0.000596368
0.000590197
0.000583864
0.000577406
0.00057086
0.000564261
0.000557644
0.000551041
0.000544485
0.000538005
0.000531629
0.000525381
0.000519285
0.000513361
0.000507624
0.00050209
0.000496771
0.000491674
0.000486805
0.000482169
0.000477766
0.000473594
0.000469652
0.000465934
0.000462434
0.000459146
0.000456061
0.00045317
0.000450464
0.000447933
0.000445568
0.000443359
0.000441296
0.00043937
0.000437571
0.000435891
0.000434321
0.000432854
0.000431481
0.000430195
0.00042899
0.000427858
0.000426795
0.000425794
0.000424849
0.000423955
0.000423104
0.000422293
0.000421521
0.000420786
0.000420084
0.000419412
0.000418768
0.000418149
0.000417554
0.00041698
0.000416425
0.000415889
0.000415368
0.000414862
0.00041437
0.000413889
0.000413419
0.000412959
0.000412508
0.000412064
0.000411627
0.000411196
0.000410771
0.000410349
0.000409932
0.000409518
0.000409106
0.000408696
0.000408288
0.000407881
0.000407474
0.000407068
0.000406662
0.000406255
0.000405848
0.000405439
0.000405029
0.000404617
0.000404204
0.000403788
0.00040337
0.000402949
0.000402526
0.0004021
0.00040167
0.000401237
0.0004008
0.00040036
0.000399916
0.000399467
0.000399014
0.000398557
0.000398094
0.000397626
0.000397151
0.00039667
0.000396181
0.000395683
0.000395174
0.000394653
0.000394117
0.000393562
0.000392983
0.000392373
0.000391723
0.000391018
0.000390239
0.000389352
0.000388307
0.000387019
0.000385342
0.000383031
0.000379688
0.000375158
7.8e-06
7.33672e-05
0.000143285
0.000199232
0.000243585
0.000279535
0.000309524
0.000335275
0.00035798
0.000378449
0.000397231
0.000414696
0.000431098
0.000446608
0.000461347
0.000475404
0.000488845
0.00050172
0.000514074
0.000525945
0.000537365
0.000548365
0.000558971
0.000569204
0.000579082
0.000588605
0.000597835
0.000606826
0.00061561
0.000624198
0.000632588
0.000640766
0.000648709
0.000656386
0.000663764
0.000670802
0.000677461
0.0006837
0.000689476
0.000694753
0.000699494
0.000703667
0.000707246
0.000710206
0.00071253
0.000714206
0.00071521
0.00071556
0.000715275
0.000714373
0.000712873
0.000710799
0.000708174
0.000705026
0.000701383
0.000697276
0.000692737
0.000687801
0.000682503
0.00067688
0.00067097
0.000664811
0.000658441
0.000651901
0.000645227
0.00063846
0.000631636
0.000624791
0.000617962
0.000611181
0.000604479
0.000597886
0.000591428
0.000585129
0.000579009
0.000573087
0.000567377
0.000561891
0.000556637
0.000551623
0.00054685
0.000542319
0.000538031
0.00053398
0.000530161
0.000526569
0.000523196
0.000520032
0.000517068
0.000514296
0.000511703
0.000509281
0.000507019
0.000504906
0.000502934
0.000501091
0.000499371
0.000497762
0.000496258
0.00049485
0.000493531
0.000492294
0.000491132
0.000490039
0.000489009
0.000488036
0.000487113
0.000486235
0.000485401
0.000484606
0.000483848
0.000483124
0.00048243
0.000481764
0.000481123
0.000480506
0.00047991
0.000479334
0.000478776
0.000478233
0.000477706
0.000477192
0.000476689
0.000476198
0.000475716
0.000475243
0.000474777
0.000474319
0.000473866
0.000473418
0.000472975
0.000472535
0.000472098
0.000471664
0.000471232
0.000470801
0.00047037
0.000469941
0.000469511
0.000469081
0.000468651
0.000468219
0.000467786
0.000467351
0.000466915
0.000466476
0.000466035
0.000465591
0.000465144
0.000464694
0.000464241
0.000463784
0.000463323
0.000462859
0.00046239
0.000461917
0.000461439
0.000460955
0.000460467
0.000459972
0.000459471
0.000458963
0.000458447
0.000457921
0.000457383
0.000456833
0.000456266
0.00045568
0.000455069
0.000454425
0.000453739
0.000452997
0.000452178
0.000451249
0.000450163
0.00044884
0.000447153
0.000444903
0.000441818
0.000437893
8.13312e-06
7.67663e-05
0.000152285
0.000214224
0.000264137
0.000304938
0.000339007
0.000368106
0.000393501
0.000416092
0.000436513
0.000455211
0.000472502
0.000488613
0.00050371
0.00051792
0.000531342
0.000544059
0.000556141
0.000567653
0.00057865
0.000589187
0.000599308
0.000609056
0.000618467
0.000627555
0.000636411
0.000645098
0.000653657
0.000662109
0.000670459
0.000678696
0.000686801
0.000694743
0.000702483
0.000709978
0.00071718
0.000724039
0.000730505
0.00073653
0.000742068
0.000747076
0.000751518
0.000755361
0.000758577
0.000761123
0.000763004
0.000764226
0.000764798
0.00076473
0.000764037
0.000762737
0.000760849
0.000758398
0.000755409
0.000751912
0.000747936
0.000743516
0.000738686
0.000733482
0.000727942
0.000722105
0.00071601
0.000709697
0.000703205
0.000696576
0.000689848
0.00068306
0.00067625
0.000669453
0.000662704
0.000656036
0.000649477
0.000643054
0.000636793
0.000630713
0.000624833
0.000619167
0.000613728
0.000608524
0.000603559
0.000598838
0.000594361
0.000590126
0.000586128
0.000582364
0.000578824
0.000575502
0.000572389
0.000569474
0.000566747
0.000564199
0.000561819
0.000559597
0.000557522
0.000555584
0.000553774
0.000552083
0.000550502
0.000549023
0.000547638
0.000546339
0.00054512
0.000543974
0.000542895
0.000541876
0.000540912
0.000539997
0.000539128
0.0005383
0.000537512
0.000536758
0.000536037
0.000535345
0.00053468
0.00053404
0.000533422
0.000532824
0.000532246
0.000531684
0.000531138
0.000530606
0.000530087
0.000529579
0.000529082
0.000528593
0.000528113
0.00052764
0.000527174
0.000526713
0.000526256
0.000525804
0.000525355
0.000524908
0.000524464
0.000524021
0.00052358
0.000523139
0.000522698
0.000522257
0.000521815
0.000521372
0.000520928
0.000520483
0.000520035
0.000519586
0.000519133
0.000518678
0.000518221
0.000517759
0.000517295
0.000516827
0.000516355
0.000515878
0.000515398
0.000514913
0.000514422
0.000513927
0.000513426
0.000512919
0.000512405
0.000511884
0.000511354
0.000510815
0.000510264
0.000509699
0.000509118
0.000508517
0.000507891
0.000507231
0.00050653
0.000505772
0.000504937
0.000503996
0.000502902
0.000501586
0.000499938
0.000497802
0.000495
0.000491602
8.39712e-06
7.91122e-05
0.000158654
0.000225094
0.000279301
0.000323907
0.000361193
0.000392913
0.000420369
0.000444519
0.000466059
0.000485497
0.000503204
0.000519458
0.000534468
0.000548397
0.00056138
0.000573527
0.000584938
0.000595701
0.000605897
0.000615601
0.000624881
0.000633798
0.000642403
0.000650751
0.000658948
0.000667072
0.000675176
0.000683293
0.000691436
0.0006996
0.000707766
0.000715902
0.000723966
0.000731905
0.000739663
0.000747179
0.000754391
0.000761238
0.000767662
0.000773609
0.000779031
0.000783868
0.000788075
0.000791638
0.000794547
0.000796798
0.00079839
0.000799327
0.000799617
0.000799272
0.000798309
0.000796747
0.00079461
0.000791923
0.000788716
0.000785021
0.00078087
0.000776299
0.000771345
0.000766047
0.000760443
0.000754575
0.000748483
0.000742207
0.000735789
0.000729268
0.000722685
0.000716077
0.00070948
0.00070293
0.000696459
0.000690096
0.000683868
0.0006778
0.000671912
0.000666223
0.000660745
0.000655491
0.000650469
0.000645683
0.000641136
0.000636829
0.000632758
0.000628919
0.000625307
0.000621915
0.000618733
0.000615753
0.000612965
0.000610358
0.000607924
0.00060565
0.000603528
0.000601546
0.000599696
0.000597967
0.000596352
0.000594841
0.000593427
0.000592101
0.000590858
0.00058969
0.00058859
0.000587553
0.000586573
0.000585643
0.000584761
0.000583921
0.000583122
0.000582358
0.000581627
0.000580926
0.000580252
0.000579604
0.000578979
0.000578374
0.000577789
0.000577222
0.00057667
0.000576133
0.000575608
0.000575096
0.000574594
0.000574101
0.000573617
0.00057314
0.00057267
0.000572205
0.000571746
0.00057129
0.000570839
0.000570389
0.000569943
0.000569497
0.000569053
0.00056861
0.000568167
0.000567724
0.00056728
0.000566835
0.000566389
0.000565942
0.000565492
0.00056504
0.000564586
0.000564129
0.000563669
0.000563206
0.000562739
0.000562269
0.000561795
0.000561316
0.000560833
0.000560346
0.000559853
0.000559356
0.000558852
0.000558342
0.000557826
0.000557302
0.000556769
0.000556227
0.000555673
0.000555105
0.000554522
0.000553918
0.000553289
0.000552628
0.000551925
0.000551167
0.000550335
0.000549401
0.000548324
0.000547041
0.000545463
0.000543469
0.000540943
0.000537994
8.60318e-06
8.06042e-05
0.000162851
0.000232501
0.000289873
0.00033733
0.000377035
0.000410704
0.000439649
0.000464858
0.000487069
0.000506838
0.000524582
0.000540618
0.000555194
0.00056851
0.000580729
0.000591992
0.000602423
0.000612138
0.000621239
0.000629825
0.000637987
0.000645806
0.000653354
0.000660732
0.000668063
0.000675444
0.000682945
0.000690609
0.000698459
0.000706495
0.000714699
0.000723034
0.000731451
0.000739887
0.000748273
0.000756534
0.000764593
0.000772375
0.000779803
0.000786815
0.000793306
0.000799241
0.000804584
0.000809305
0.000813384
0.000816804
0.000819558
0.00082164
0.000823055
0.000823808
0.000823913
0.000823384
0.000822244
0.000820514
0.000818223
0.0008154
0.000812077
0.000808289
0.000804072
0.000799464
0.000794505
0.000789234
0.000783692
0.000777922
0.000771965
0.000765862
0.000759654
0.000753381
0.00074708
0.000740789
0.000734542
0.000728372
0.000722308
0.000716377
0.000710602
0.000705003
0.000699598
0.0006944
0.00068942
0.000684665
0.000680139
0.000675845
0.000671781
0.000667945
0.000664332
0.000660937
0.00065775
0.000654765
0.000651971
0.000649359
0.000646919
0.000644641
0.000642514
0.000640529
0.000638676
0.000636946
0.00063533
0.000633819
0.000632405
0.000631081
0.000629839
0.000628673
0.000627575
0.000626541
0.000625565
0.00062464
0.000623762
0.000622927
0.000622132
0.000621372
0.000620646
0.000619949
0.00061928
0.000618637
0.000618016
0.000617416
0.000616835
0.000616272
0.000615725
0.000615192
0.000614672
0.000614164
0.000613666
0.000613178
0.000612698
0.000612226
0.00061176
0.0006113
0.000610845
0.000610395
0.000609947
0.000609503
0.000609061
0.00060862
0.000608181
0.000607743
0.000607304
0.000606866
0.000606427
0.000605987
0.000605546
0.000605104
0.000604659
0.000604212
0.000603763
0.000603311
0.000602856
0.000602398
0.000601937
0.000601471
0.000601002
0.000600529
0.000600051
0.000599568
0.000599081
0.000598588
0.00059809
0.000597585
0.000597074
0.000596555
0.000596028
0.00059549
0.000594942
0.000594381
0.000593803
0.000593206
0.000592584
0.000591931
0.000591238
0.000590492
0.000589676
0.000588765
0.000587721
0.000586491
0.000585001
0.00058316
0.000580894
0.000578326
8.75746e-06
8.13629e-05
0.000165175
0.000236898
0.000296426
0.000345874
0.000387274
0.000422285
0.000452205
0.000478032
0.000500532
0.00052029
0.000537756
0.000553283
0.000567151
0.000579587
0.000590785
0.00060091
0.000610114
0.000618534
0.000626299
0.00063353
0.000640343
0.000646844
0.000653129
0.000659354
0.000665666
0.000672179
0.000678983
0.000686135
0.000693667
0.000701582
0.00070986
0.000718459
0.000727316
0.000736355
0.000745491
0.000754628
0.000763671
0.000772535
0.000781077
0.000789234
0.000796935
0.000804123
0.000810746
0.000816764
0.000822145
0.000826862
0.0008309
0.000834248
0.000836903
0.000838867
0.000840149
0.000840762
0.000840724
0.000840057
0.000838785
0.000836938
0.000834546
0.000831644
0.000828266
0.000824452
0.00082024
0.000815671
0.000810785
0.000805626
0.000800234
0.000794653
0.000788925
0.000783089
0.000777187
0.000771256
0.000765334
0.000759454
0.000753648
0.000747946
0.000742373
0.000736952
0.000731702
0.00072664
0.000721778
0.000717126
0.000712691
0.000708475
0.000704481
0.000700707
0.000697149
0.000693802
0.00069066
0.000687716
0.00068496
0.000682384
0.000679977
0.000677731
0.000675634
0.000673679
0.000671854
0.00067015
0.00066856
0.000667074
0.000665684
0.000664383
0.000663163
0.000662019
0.000660942
0.000659929
0.000658972
0.000658067
0.000657207
0.00065639
0.000655612
0.000654869
0.000654159
0.000653478
0.000652824
0.000652195
0.000651588
0.000651002
0.000650435
0.000649884
0.00064935
0.000648829
0.000648321
0.000647825
0.000647339
0.000646862
0.000646394
0.000645933
0.000645478
0.000645029
0.000644585
0.000644145
0.000643709
0.000643275
0.000642844
0.000642414
0.000641985
0.000641558
0.00064113
0.000640702
0.000640274
0.000639845
0.000639414
0.000638982
0.000638549
0.000638113
0.000637674
0.000637233
0.000636789
0.000636341
0.000635891
0.000635436
0.000634978
0.000634515
0.000634049
0.000633577
0.000633101
0.000632619
0.000632132
0.000631639
0.000631139
0.000630631
0.000630116
0.000629591
0.000629055
0.000628506
0.000627941
0.000627358
0.000626751
0.000626115
0.000625441
0.000624717
0.000623927
0.000623049
0.00062205
0.000620886
0.000619495
0.000617809
0.000615786
0.000613544
8.863e-06
8.14624e-05
0.000165824
0.000238602
0.000299379
0.000350042
0.000392488
0.000428299
0.000458742
0.000484808
0.000507269
0.00052673
0.000543664
0.000558448
0.000571385
0.000582729
0.000592695
0.000601474
0.00060924
0.000616156
0.000622374
0.000628041
0.000633301
0.000638287
0.000643131
0.000648054
0.000653227
0.000658788
0.000664847
0.000671477
0.000678717
0.000686572
0.000695017
0.000703997
0.000713432
0.000723225
0.00073328
0.000743453
0.000753606
0.000763637
0.00077344
0.000782921
0.000791994
0.000800586
0.000808632
0.000816078
0.000822883
0.000829011
0.00083444
0.000839152
0.00084314
0.000846402
0.000848944
0.000850776
0.000851915
0.00085238
0.000852197
0.000851392
0.000849998
0.000848047
0.000845575
0.000842621
0.000839222
0.000835421
0.000831259
0.000826779
0.000822022
0.000817033
0.000811854
0.000806528
0.000801095
0.000795595
0.000790068
0.000784547
0.000779069
0.000773663
0.000768357
0.000763177
0.000758145
0.000753278
0.000748592
0.000744099
0.000739806
0.00073572
0.000731843
0.000728175
0.000724715
0.000721458
0.000718399
0.000715532
0.000712849
0.00071034
0.000707997
0.000705811
0.000703772
0.00070187
0.000700097
0.000698443
0.0006969
0.000695458
0.000694111
0.000692851
0.000691671
0.000690563
0.000689523
0.000688543
0.000687619
0.000686746
0.000685917
0.000685129
0.000684378
0.000683662
0.000682977
0.00068232
0.00068169
0.000681083
0.000680498
0.000679934
0.000679387
0.000678857
0.000678341
0.00067784
0.00067735
0.000676872
0.000676404