/*--------------------------------*- C++ -*----------------------------------*\
  =========                 |
  \\      /  F ield         | OpenFOAM: The Open Source CFD Toolbox
   \\    /   O peration     | Website:  https://openfoam.org
    \\  /    A nd           | Version:  6
     \\/     M anipulation  |
\*---------------------------------------------------------------------------*/
FoamFile
{
    version     2.0;
    format      ascii;
    class       volScalarField;
    location    "0.06";
    object      p;
}
// * * * * * * * * * * * * * * * * * * * * * * * * * * * * * * * * * * * * * //

dimensions      [0 2 -2 0 0 0 0];

internalField   nonuniform List<scalar> 
12225
(
0.345175
0.0926852
0.0146181
0.00409041
-0.000506077
-0.00523498
-0.00798295
-0.00966453
-0.0113261
-0.0131269
-0.0150111
-0.0170171
-0.0192184
-0.0217074
-0.024674
-0.02838
-0.0339393
-0.0425459
-0.0370425
-0.00663031
-0.00569815
0.000713323
-2.72406e-05
-0.00416244
-0.00716668
-0.00918224
-0.0110626
-0.0129862
-0.0149493
-0.0170186
-0.0192867
-0.0218447
-0.0248639
-0.0285672
-0.0337792
-0.0404331
-0.0736328
-0.00273254
-0.00105419
0.00118567
0.000221977
-0.00351757
-0.00648458
-0.00863303
-0.0106419
-0.0126647
-0.0147146
-0.016864
-0.0192055
-0.0218241
-0.0248689
-0.028483
-0.0331405
-0.0380412
-0.028292
0.0104479
0.00239288
0.00102523
-0.000114541
-0.00337295
-0.00613981
-0.00828348
-0.0103306
-0.0123983
-0.0144988
-0.0166976
-0.0190784
-0.0217157
-0.0247209
-0.0281589
-0.0322212
-0.0361499
-0.00794093
0.0103749
0.0019201
0.000307658
-0.000689034
-0.0034955
-0.0060369
-0.0081241
-0.0101562
-0.0122224
-0.0143326
-0.0165419
-0.0189201
-0.0215258
-0.0244301
-0.0276408
-0.0311866
-0.0345077
-0.00557716
0.00611149
0.000765173
-0.000387405
-0.00129339
-0.00372079
-0.00604885
-0.0080626
-0.0100531
-0.0120889
-0.0141792
-0.0163679
-0.0187091
-0.0212439
-0.0240088
-0.0269779
-0.0300994
-0.0329874
-0.00540349
0.00324376
7.12751e-05
-0.000949588
-0.00186522
-0.00398061
-0.00611204
-0.00804295
-0.00997523
-0.0119615
-0.0140094
-0.016152
-0.0184284
-0.0208631
-0.0234671
-0.0261979
-0.0289749
-0.031548
-0.00436164
0.00168329
-0.000388271
-0.00142909
-0.00237782
-0.00423843
-0.00619144
-0.00803312
-0.00989521
-0.0118169
-0.0138035
-0.0158782
-0.0180663
-0.020379
-0.0228105
-0.0253139
-0.0278095
-0.0301449
-0.00330221
0.000609806
-0.00081128
-0.00184235
-0.00281287
-0.00446779
-0.00626014
-0.00800813
-0.00979063
-0.0116351
-0.0135442
-0.0155319
-0.0176124
-0.0197869
-0.0220404
-0.0243289
-0.0265875
-0.0287271
-0.00263106
-0.000228653
-0.00120764
-0.00218468
-0.00316102
-0.00464948
-0.00629619
-0.00794668
-0.00964141
-0.0113975
-0.0132145
-0.0150988
-0.0170558
-0.0190802
-0.0211531
-0.0232375
-0.0252859
-0.0272467
-0.0022713
-0.000858037
-0.00155449
-0.00245822
-0.00342276
-0.00477315
-0.00628551
-0.00783434
-0.00943354
-0.0110909
-0.0128029
-0.01457
-0.0163908
-0.0182562
-0.0201471
-0.0220343
-0.0238853
-0.0256684
-0.00210436
-0.00127179
-0.00181844
-0.00265059
-0.00358745
-0.00482727
-0.00622294
-0.00767391
-0.00917814
-0.0107361
-0.0123415
-0.0139904
-0.0156774
-0.0173915
-0.0191151
-0.0208249
-0.0224989
-0.0241126
-0.00202395
-0.00157677
-0.00201944
-0.00278259
-0.00368264
-0.00482178
-0.00610751
-0.00745973
-0.0088648
-0.0103175
-0.0118093
-0.013333
-0.0148804
-0.01644
-0.017996
-0.0195307
-0.0210286
-0.0224684
-0.00199147
-0.00180926
-0.00217927
-0.00286543
-0.00370951
-0.00474099
-0.00590476
-0.00713973
-0.00842431
-0.00974817
-0.0111006
-0.0124718
-0.0138517
-0.0152288
-0.0165896
-0.0179207
-0.0192109
-0.0204413
-0.00197184
-0.00194098
-0.00226409
-0.00286745
-0.00363363
-0.00454897
-0.00557758
-0.00667435
-0.00781418
-0.00898257
-0.0101669
-0.0113555
-0.0125374
-0.0137014
-0.0148364
-0.0159322
-0.0169792
-0.017961
-0.00190261
-0.00194027
-0.00222579
-0.00274322
-0.00341241
-0.00420144
-0.00508177
-0.00601963
-0.00698988
-0.00797532
-0.0089619
-0.00993717
-0.0108899
-0.0118097
-0.0126872
-0.0135144
-0.0142821
-0.0149766
-0.00169962
-0.00175723
-0.00200175
-0.00243099
-0.00298984
-0.00364282
-0.00436359
-0.00512497
-0.00590344
-0.00668083
-0.00744249
-0.00817598
-0.00887057
-0.00951699
-0.0101074
-0.0106355
-0.0110925
-0.0114685
-0.00126563
-0.00131892
-0.00151414
-0.0018532
-0.00229612
-0.0028087
-0.00336496
-0.00394079
-0.00451431
-0.00506756
-0.00558626
-0.00605882
-0.00647579
-0.00682955
-0.00711412
-0.00732501
-0.00745506
-0.00749962
-0.000500722
-0.000534399
-0.000668952
-0.000917609
-0.00124911
-0.00162784
-0.00202679
-0.00242241
-0.00279321
-0.00312181
-0.0033952
-0.00360363
-0.00373978
-0.00379844
-0.00377618
-0.00367113
-0.00347883
-0.00320006
0.000416023
0.000424003
0.000354261
0.000160896
-0.000113591
-0.000422031
-0.000735993
-0.00102864
-0.00127521
-0.00145859
-0.00156801
-0.00159619
-0.00153835
-0.00139194
-0.00115615
-0.000831649
-0.000416821
8.42754e-05
0.00116917
0.00128167
0.00129467
0.00111801
0.000856409
0.000569787
0.000280134
2.35949e-05
-0.000167386
-0.000276663
-0.000296614
-0.000222334
-5.12677e-05
0.000216746
0.000580189
0.00103632
0.00158446
0.0022189
0.00169815
0.00211601
0.00226062
0.00204611
0.00176413
0.00146418
0.00114811
0.000877323
0.000696309
0.00061617
0.000639682
0.000769612
0.0010063
0.00134733
0.0017889
0.00232639
0.00295708
0.00367414
0.00177868
0.00291492
0.00325186
0.00293978
0.00263386
0.00228852
0.00188951
0.00155909
0.00135247
0.00126667
0.00129848
0.00144943
0.00171734
0.0020968
0.00258169
0.00316567
0.00384421
0.00461014
0.00141203
0.00383618
0.00424096
0.00376447
0.00349683
0.00307106
0.0025193
0.00208755
0.00182765
0.00170859
0.00172183
0.00186875
0.00214374
0.00253757
0.0030417
0.00364815
0.00435066
0.00514214
0.00125061
0.00589239
0.00550486
0.004555
0.00439423
0.00382636
0.00303837
0.00246904
0.00213488
0.00196145
0.00193719
0.00206391
0.00233083
0.00272393
0.00323205
0.00384562
0.0045566
0.00535824
-0.000427134
0.0103668
0.00782826
0.00561857
0.0054207
0.00455282
0.00343263
0.00269541
0.0022711
0.00202974
0.00195864
0.0020585
0.00231101
0.00269646
0.00320092
0.00381328
0.00452383
0.00532569
-0.017373
0.0124481
0.0100982
0.0070264
0.00660601
0.00518215
0.00363951
0.00271513
0.00219291
0.0018834
0.00177118
0.00185099
0.00209415
0.00247464
0.00297606
0.00358608
0.00429357
0.00509172
-0.0614515
-0.000789791
0.00608109
0.00719672
0.00740389
0.00536679
0.00342351
0.00235845
0.00177357
0.00142932
0.00130796
0.00139458
0.00164874
0.00203878
0.00254723
0.00316173
0.00387006
0.00466484
-0.0413965
-0.0107884
-0.00387086
0.00492395
0.00689281
0.00454143
0.00246935
0.00148148
0.000976724
0.000686341
0.000611134
0.000740016
0.0010281
0.00144215
0.00196655
0.00259161
0.00330634
0.00409092
0.323179
0.103472
0.026469
0.0135925
0.00858969
0.00386131
0.00136666
0.000569065
0.000301994
0.000172411
0.000196365
0.000387934
0.000715148
0.00115206
0.00168904
0.00232208
0.00305063
0.00388597
-0.066437
-0.0668476
-0.0674473
-0.0681853
-0.0690587
-0.0700538
-0.0711435
-0.0722983
-0.0734867
-0.0746735
-0.0758185
-0.0768771
-0.0778
-0.0785342
-0.0790241
-0.079213
-0.079044
-0.0784621
-0.0774153
-0.0758563
-0.0737446
-0.0710493
-0.0677513
-0.0638446
-0.059317
-0.0541165
-0.0482034
-0.0416012
-0.0343558
-0.0265135
-0.018123
-0.00923678
8.74542e-05
0.00978747
0.0197969
0.0300462
0.0404637
0.0509767
0.0615128
0.0720007
0.082372
0.0925613
0.102508
0.112156
0.121458
0.130373
0.138875
0.146962
0.154616
0.161795
0.168477
0.174653
0.180323
0.185492
0.19017
0.194369
0.198109
0.201408
0.204288
0.206774
0.20889
0.210662
0.212115
0.213277
0.214172
0.214826
0.215261
0.215503
0.215572
0.215489
0.215274
0.214943
0.214515
0.214004
0.213423
0.212786
0.212102
0.211383
0.210637
0.209872
0.209094
0.20831
0.207525
0.206743
0.205967
0.205202
0.204449
0.203712
0.20299
0.202287
0.201602
0.200937
0.200292
0.199668
0.199065
0.198483
0.197922
0.197382
0.196861
0.196361
0.19588
0.195418
0.194975
0.194551
0.194146
0.193758
0.193385
0.193024
0.192677
0.192345
0.192026
0.19172
0.191427
0.191146
0.190875
0.190615
0.190365
0.190124
0.189891
0.189667
0.18945
0.189241
0.189038
0.188841
0.188651
0.188466
0.188286
0.188111
0.187939
0.187772
0.187608
0.187448
0.187289
0.187134
0.18698
0.186828
0.186677
0.186527
0.186379
0.18623
0.186083
0.185935
0.185788
0.185641
0.185494
0.185347
0.1852
0.185053
0.184906
0.18476
0.184613
0.184466
0.184319
0.184173
0.184026
0.183879
0.183733
0.183588
0.183443
0.183299
0.183157
0.183017
0.18288
0.182748
0.182621
0.182502
0.182393
0.182297
0.18222
0.182168
0.18215
0.182178
0.182271
0.182458
0.182784
0.183325
0.184234
0.185751
0.188663
0.193208
-0.0638629
-0.0648719
-0.0656683
-0.0661321
-0.066611
-0.0672643
-0.0681017
-0.0690981
-0.0702206
-0.0714289
-0.0726762
-0.0739104
-0.0750748
-0.0761094
-0.0769517
-0.0775384
-0.0778063
-0.0776941
-0.0771436
-0.0761005
-0.0745155
-0.072345
-0.0695498
-0.0660909
-0.0619382
-0.0571087
-0.0516452
-0.0455646
-0.0388746
-0.0315969
-0.0237651
-0.0154217
-0.00661615
0.0025955
0.0121524
0.0219897
0.03204
0.0422341
0.0525027
0.0627775
0.072992
0.0830827
0.0929904
0.102661
0.112044
0.121091
0.129754
0.137973
0.145724
0.153014
0.159835
0.166182
0.17205
0.177443
0.182368
0.186834
0.190856
0.19445
0.197635
0.200431
0.202861
0.204947
0.206714
0.208185
0.209384
0.210333
0.211057
0.211576
0.211911
0.212084
0.212112
0.212012
0.211803
0.211497
0.21111
0.210654
0.210141
0.20958
0.208981
0.208353
0.207702
0.207035
0.206358
0.205676
0.204992
0.204312
0.203637
0.20297
0.202314
0.20167
0.20104
0.200425
0.199826
0.199244
0.198679
0.198132
0.197602
0.19709
0.196596
0.19612
0.19566
0.195218
0.194793
0.194383
0.19399
0.193611
0.193249
0.192901
0.192567
0.192246
0.191936
0.191639
0.191353
0.191078
0.190814
0.190559
0.190313
0.190076
0.189847
0.189626
0.189412
0.189205
0.189005
0.18881
0.188622
0.188438
0.18826
0.188086
0.187916
0.187749
0.187586
0.187426
0.187269
0.187114
0.186961
0.186809
0.186659
0.186509
0.186361
0.186213
0.186065
0.185918
0.185771
0.185624
0.185477
0.18533
0.185183
0.185037
0.18489
0.184743
0.184597
0.18445
0.184303
0.184157
0.18401
0.183864
0.183718
0.183573
0.183428
0.183285
0.183143
0.183004
0.182868
0.182736
0.18261
0.182492
0.182384
0.182291
0.182216
0.182166
0.182151
0.182184
0.182282
0.182474
0.182805
0.183341
0.184222
0.185623
0.188205
0.191947
-0.0607158
-0.0627412
-0.0647156
-0.0658139
-0.0664991
-0.0671816
-0.0679902
-0.0689422
-0.0700239
-0.0712055
-0.0724452
-0.0736935
-0.0748953
-0.0759923
-0.0769241
-0.0776301
-0.0780501
-0.078126
-0.0778022
-0.0770273
-0.0757545
-0.0739423
-0.071554
-0.0685561
-0.064923
-0.0606482
-0.0557402
-0.0502088
-0.0440669
-0.0373359
-0.0300454
-0.0222332
-0.0139439
-0.00522846
0.00385679
0.0132513
0.0228912
0.0327111
0.0426443
0.052625
0.0625887
0.0724736
0.0822215
0.0917788
0.101096
0.110127
0.118828
0.127157
0.135088
0.142601
0.149679
0.15631
0.162487
0.168208
0.173477
0.178301
0.182689
0.186657
0.190218
0.193392
0.196197
0.198655
0.200786
0.202613
0.204158
0.205443
0.206489
0.207318
0.207949
0.208403
0.208698
0.208851
0.208879
0.208797
0.20862
0.208359
0.208028
0.207637
0.207196
0.206714
0.206198
0.205656
0.205095
0.204519
0.203934
0.203343
0.202751
0.202161
0.201574
0.200995
0.200423
0.199862
0.199313
0.198776
0.198252
0.197742
0.197247
0.196767
0.196301
0.195851
0.195416
0.194995
0.194589
0.194198
0.193821
0.193458
0.193109
0.192774
0.192451
0.19214
0.19184
0.191552
0.191274
0.191006
0.190748
0.190498
0.190258
0.190026
0.189801
0.189584
0.189373
0.189169
0.188972
0.18878
0.188593
0.188412
0.188235
0.188063
0.187894
0.187729
0.187567
0.187408
0.187252
0.187097
0.186945
0.186794
0.186644
0.186495
0.186347
0.186199
0.186052
0.185905
0.185758
0.185611
0.185464
0.185318
0.185171
0.185024
0.184878
0.184731
0.184585
0.184438
0.184292
0.184146
0.183999
0.183853
0.183708
0.183562
0.183418
0.183275
0.183134
0.182995
0.182859
0.182728
0.182603
0.182486
0.18238
0.182288
0.182215
0.182168
0.182156
0.182192
0.182294
0.18249
0.182822
0.183349
0.184192
0.185465
0.187636
0.190253
-0.0592139
-0.0620334
-0.0651497
-0.0671857
-0.0684779
-0.0695349
-0.0705744
-0.0716666
-0.0728316
-0.074064
-0.0753389
-0.0766184
-0.0778557
-0.0789985
-0.0799909
-0.0807751
-0.0812926
-0.0814859
-0.0812994
-0.0806807
-0.0795811
-0.0779575
-0.0757723
-0.0729946
-0.0696026
-0.0655855
-0.0609408
-0.0556719
-0.0497894
-0.0433118
-0.0362661
-0.0286873
-0.0206177
-0.0121064
-0.00320826
0.00601733
0.0155076
0.0251974
0.0350208
0.0449119
0.0548063
0.0646418
0.0743596
0.0839048
0.0932273
0.102282
0.111029
0.119436
0.127472
0.135111
0.142335
0.14913
0.155489
0.161407
0.166887
0.171932
0.176552
0.180758
0.184564
0.187986
0.191042
0.193751
0.196132
0.198207
0.199995
0.201518
0.202796
0.20385
0.204699
0.205362
0.205857
0.206202
0.206412
0.206503
0.206489
0.206383
0.206197
0.205942
0.205628
0.205265
0.204861
0.204423
0.203959
0.203472
0.20297
0.202457
0.201936
0.201412
0.200887
0.200363
0.199844
0.199331
0.198825
0.198329
0.197843
0.197368
0.196904
0.196453
0.196014
0.195588
0.195175
0.194775
0.194388
0.194014
0.193653
0.193304
0.192968
0.192645
0.192332
0.192032
0.191741
0.191462
0.191192
0.190931
0.190679
0.190436
0.190201
0.189974
0.189754
0.189541
0.189334
0.189133
0.188939
0.188749
0.188565
0.188386
0.188211
0.188041
0.187874
0.18771
0.18755
0.187392
0.187237
0.187083
0.186931
0.186781
0.186632
0.186484
0.186336
0.186189
0.186042
0.185895
0.185748
0.185602
0.185455
0.185308
0.185162
0.185016
0.184869
0.184723
0.184577
0.18443
0.184284
0.184138
0.183991
0.183846
0.1837
0.183555
0.183411
0.183268
0.183127
0.182988
0.182852
0.182721
0.182596
0.182479
0.182372
0.18228
0.182207
0.182159
0.182146
0.182179
0.182277
0.182463
0.182776
0.183266
0.184023
0.185108
0.186798
0.188532
-0.0601807
-0.0634407
-0.0672896
-0.0700732
-0.0719681
-0.0734784
-0.0748541
-0.0761934
-0.0775394
-0.0789051
-0.0802801
-0.0816374
-0.0829385
-0.0841376
-0.0851835
-0.0860223
-0.0865983
-0.0868559
-0.0867408
-0.0862007
-0.0851871
-0.083656
-0.0815688
-0.0788937
-0.0756066
-0.0716925
-0.0671438
-0.0619612
-0.0561535
-0.0497379
-0.0427408
-0.0351969
-0.0271486
-0.0186455
-0.00974326
-0.000502284
0.00901348
0.0187378
0.0286036
0.038544
0.0484938
0.05839
0.0681735
0.0777888
0.0871852
0.0963174
0.105147
0.113642
0.121771
0.129511
0.136845
0.143759
0.150244
0.156298
0.161921
0.167117
0.171894
0.176263
0.180236
0.183828
0.187057
0.18994
0.192496
0.194745
0.196706
0.198399
0.199845
0.201062
0.20207
0.202888
0.203532
0.20402
0.204368
0.204591
0.204702
0.204716
0.204643
0.204495
0.204283
0.204015
0.2037
0.203346
0.20296
0.202548
0.202114
0.201665
0.201204
0.200735
0.200262
0.199787
0.199312
0.19884
0.198373
0.197912
0.197459
0.197014
0.196579
0.196154
0.195739
0.195335
0.194943
0.194561
0.194192
0.193834
0.193488
0.193153
0.192829
0.192517
0.192215
0.191924
0.191643
0.191371
0.191109
0.190855
0.19061
0.190373
0.190143
0.189921
0.189705
0.189496
0.189293
0.189096
0.188905
0.188718
0.188537
0.18836
0.188187
0.188019
0.187854
0.187692
0.187533
0.187376
0.187222
0.187069
0.186918
0.186769
0.18662
0.186473
0.186326
0.186179
0.186032
0.185886
0.185739
0.185593
0.185447
0.1853
0.185154
0.185008
0.184862
0.184716
0.184569
0.184423
0.184277
0.184131
0.183985
0.183839
0.183693
0.183548
0.183404
0.183261
0.183119
0.18298
0.182844
0.182712
0.182587
0.182468
0.18236
0.182266
0.18219
0.182139
0.18212
0.182145
0.18223
0.182396
0.182674
0.183102
0.183745
0.18462
0.185872
0.186961
-0.063569
-0.0670511
-0.0713283
-0.0746374
-0.077022
-0.0789447
-0.0806561
-0.0822636
-0.0838216
-0.0853541
-0.0868607
-0.088323
-0.0897092
-0.090979
-0.0920855
-0.092978
-0.0936031
-0.0939066
-0.0938347
-0.0933351
-0.0923586
-0.0908597
-0.0887985
-0.0861408
-0.0828603
-0.0789392
-0.0743676
-0.0691447
-0.0632786
-0.0567869
-0.0496966
-0.0420439
-0.0338734
-0.025237
-0.0161931
-0.00680488
0.00286103
0.0127358
0.0227502
0.0328354
0.042925
0.0529553
0.0628665
0.0726033
0.0821147
0.0913572
0.100293
0.10889
0.117121
0.124962
0.132398
0.139416
0.146008
0.152171
0.157907
0.16322
0.168117
0.172609
0.176709
0.18043
0.183789
0.186804
0.189493
0.191874
0.193967
0.195791
0.197365
0.19871
0.199842
0.20078
0.201542
0.202144
0.202602
0.20293
0.203142
0.203252
0.203272
0.203212
0.203083
0.202894
0.202654
0.202371
0.202051
0.201701
0.201327
0.200933
0.200524
0.200104
0.199676
0.199243
0.198808
0.198373
0.197941
0.197512
0.197088
0.196672
0.196262
0.195861
0.195469
0.195086
0.194712
0.194349
0.193996
0.193654
0.193322
0.193
0.192689
0.192387
0.192096
0.191815
0.191542
0.191279
0.191024
0.190778
0.190539
0.190308
0.190083
0.189866
0.189655
0.18945
0.189251
0.189057
0.188869
0.188686
0.188507
0.188333
0.188162
0.187996
0.187832
0.187672
0.187515
0.18736
0.187206
0.187055
0.186905
0.186757
0.186609
0.186462
0.186315
0.186169
0.186023
0.185877
0.185731
0.185585
0.185439
0.185293
0.185147
0.185001
0.184855
0.184709
0.184563
0.184417
0.18427
0.184124
0.183978
0.183832
0.183686
0.183541
0.183397
0.183253
0.183111
0.182972
0.182835
0.182702
0.182575
0.182455
0.182344
0.182247
0.182166
0.182108
0.18208
0.182092
0.182158
0.182296
0.182528
0.182883
0.183398
0.184066
0.184949
0.185554
-0.069082
-0.0726463
-0.077135
-0.0807739
-0.0835138
-0.0857666
-0.0877685
-0.0896255
-0.0913944
-0.093104
-0.0947594
-0.0963471
-0.0978399
-0.0992006
-0.100385
-0.101345
-0.102027
-0.102377
-0.102341
-0.101866
-0.100901
-0.0993981
-0.0973152
-0.0946159
-0.091272
-0.0872632
-0.0825786
-0.0772167
-0.0711862
-0.0645062
-0.057206
-0.0493251
-0.0409119
-0.0320227
-0.0227204
-0.0130726
-0.00315041
0.00697368
0.0172271
0.0275387
0.0378404
0.0480672
0.0581589
0.0680598
0.0777211
0.0871013
0.0961637
0.104877
0.113216
0.121159
0.128692
0.135804
0.142489
0.148745
0.154573
0.15998
0.164972
0.169561
0.173758
0.17758
0.18104
0.184157
0.186949
0.189433
0.191629
0.193556
0.195233
0.196678
0.197909
0.198944
0.1998
0.200494
0.201041
0.201455
0.201751
0.201941
0.202037
0.202051
0.201992
0.20187
0.201694
0.201471
0.201208
0.200913
0.20059
0.200244
0.199881
0.199504
0.199116
0.198722
0.198322
0.197921
0.19752
0.197121
0.196725
0.196335
0.195949
0.195571
0.1952
0.194837
0.194482
0.194136
0.193799
0.193471
0.193153
0.192844
0.192545
0.192255
0.191974
0.191702
0.191439
0.191184
0.190936
0.190697
0.190465
0.190239
0.190021
0.189808
0.189602
0.189402
0.189206
0.189017
0.188832
0.188652
0.188476
0.188304
0.188136
0.187972
0.18781
0.187652
0.187496
0.187343
0.187191
0.187041
0.186892
0.186744
0.186597
0.186451
0.186305
0.186159
0.186014
0.185868
0.185722
0.185577
0.185431
0.185285
0.18514
0.184994
0.184848
0.184702
0.184556
0.18441
0.184264
0.184118
0.183972
0.183826
0.18368
0.183535
0.18339
0.183246
0.183103
0.182963
0.182825
0.18269
0.182561
0.182438
0.182324
0.182222
0.182135
0.182069
0.182029
0.182025
0.182067
0.18217
0.18235
0.182624
0.183011
0.183485
0.184059
0.184293
-0.0763508
-0.0798969
-0.0844329
-0.0882377
-0.0912046
-0.0936968
-0.0959298
-0.0980016
-0.0999665
-0.101853
-0.103668
-0.1054
-0.107023
-0.108501
-0.10979
-0.110842
-0.111603
-0.112018
-0.11203
-0.111584
-0.110625
-0.109104
-0.106974
-0.104196
-0.10074
-0.0965841
-0.0917163
-0.0861355
-0.0798519
-0.0728876
-0.065276
-0.0570618
-0.0482993
-0.0390512
-0.029387
-0.0193806
-0.00910881
0.00135088
0.0119219
0.0225301
0.033105
0.0435802
0.0538951
0.0639961
0.0738369
0.0833768
0.092581
0.10142
0.109872
0.117917
0.125543
0.132742
0.139509
0.145844
0.15175
0.157233
0.162302
0.166967
0.171243
0.175143
0.178683
0.181881
0.184754
0.18732
0.189599
0.191608
0.193366
0.194892
0.196203
0.197317
0.19825
0.19902
0.19964
0.200126
0.200491
0.200748
0.200909
0.200984
0.200985
0.200921
0.200799
0.200629
0.200417
0.200169
0.199891
0.199588
0.199266
0.198927
0.198577
0.198216
0.19785
0.19748
0.197108
0.196736
0.196367
0.196
0.195638
0.195281
0.19493
0.194586
0.194249
0.19392
0.193598
0.193286
0.192981
0.192685
0.192398
0.192119
0.191848
0.191586
0.191331
0.191085
0.190845
0.190613
0.190387
0.190168
0.189955
0.189748
0.189547
0.189351
0.18916
0.188974
0.188793
0.188616
0.188443
0.188274
0.188109
0.187947
0.187788
0.187631
0.187477
0.187325
0.187175
0.187026
0.186878
0.186732
0.186586
0.18644
0.186295
0.18615
0.186005
0.185859
0.185714
0.185569
0.185424
0.185278
0.185133
0.184987
0.184842
0.184696
0.18455
0.184405
0.184258
0.184112
0.183966
0.18382
0.183674
0.183528
0.183383
0.183238
0.183095
0.182953
0.182813
0.182677
0.182545
0.182419
0.182301
0.182193
0.182099
0.182022
0.181969
0.181945
0.18196
0.182024
0.182147
0.182338
0.182601
0.182898
0.183212
0.183162
-0.0849714
-0.0884199
-0.0928727
-0.0967074
-0.0997893
-0.102437
-0.104842
-0.107092
-0.109236
-0.111299
-0.113285
-0.115182
-0.116963
-0.118591
-0.120022
-0.121203
-0.122079
-0.122591
-0.122679
-0.122282
-0.121342
-0.119804
-0.117618
-0.114742
-0.111141
-0.106793
-0.101684
-0.0958157
-0.0892002
-0.0818644
-0.0738482
-0.0652036
-0.0559933
-0.0462889
-0.0361685
-0.0257141
-0.0150098
-0.00413929
0.00681602
0.0177779
0.0286733
0.039436
0.0500069
0.060335
0.0703749
0.0800879
0.089442
0.0984112
0.106975
0.115119
0.122833
0.13011
0.136948
0.143351
0.149321
0.154866
0.159996
0.164723
0.16906
0.173023
0.176627
0.179889
0.182827
0.185459
0.187804
0.189879
0.191704
0.193296
0.194673
0.195852
0.19685
0.197682
0.198364
0.19891
0.199334
0.199648
0.199864
0.199993
0.200046
0.200031
0.199957
0.199833
0.199664
0.199459
0.199221
0.198957
0.198672
0.198368
0.198051
0.197723
0.197387
0.197045
0.196701
0.196355
0.19601
0.195667
0.195326
0.19499
0.194659
0.194333
0.194013
0.1937
0.193394
0.193096
0.192805
0.192522
0.192246
0.191979
0.191718
0.191466
0.19122
0.190982
0.19075
0.190525
0.190306
0.190094
0.189887
0.189685
0.189489
0.189297
0.189111
0.188929
0.188751
0.188578
0.188408
0.188243
0.18808
0.18792
0.187763
0.187609
0.187457
0.187307
0.187158
0.18701
0.186864
0.186718
0.186573
0.186429
0.186284
0.18614
0.185995
0.185851
0.185706
0.185561
0.185416
0.185271
0.185126
0.184981
0.184836
0.18469
0.184545
0.184399
0.184253
0.184107
0.18396
0.183814
0.183668
0.183521
0.183375
0.18323
0.183086
0.182943
0.182801
0.182663
0.182528
0.182398
0.182275
0.18216
0.182057
0.181969
0.1819
0.181855
0.18184
0.181863
0.181928
0.182036
0.182182
0.182319
0.182418
0.182148
-0.0945083
-0.0977878
-0.102044
-0.105791
-0.108892
-0.111621
-0.114149
-0.116547
-0.118858
-0.1211
-0.123274
-0.125364
-0.127341
-0.129163
-0.130782
-0.132142
-0.133183
-0.133839
-0.134045
-0.133733
-0.13284
-0.131303
-0.129067
-0.126084
-0.122317
-0.11774
-0.112341
-0.106122
-0.0991001
-0.0913096
-0.0827989
-0.0736305
-0.0638783
-0.0536254
-0.0429614
-0.0319782
-0.0207687
-0.00942515
0.00196561
0.0133227
0.0245728
0.0356507
0.0464989
0.057067
0.0673129
0.0772012
0.0867035
0.0957978
0.104467
0.112701
0.120491
0.127835
0.134733
0.141189
0.14721
0.152804
0.157982
0.162756
0.167142
0.171153
0.174807
0.17812
0.18111
0.183795
0.186194
0.188323
0.190203
0.19185
0.193281
0.194515
0.195566
0.196452
0.197186
0.197784
0.198258
0.198621
0.198885
0.19906
0.199158
0.199187
0.199156
0.199072
0.198943
0.198775
0.198574
0.198346
0.198094
0.197822
0.197536
0.197237
0.19693
0.196615
0.196296
0.195975
0.195653
0.195332
0.195013
0.194696
0.194384
0.194076
0.193774
0.193477
0.193186
0.192902
0.192624
0.192354
0.19209
0.191834
0.191584
0.191341
0.191105
0.190875
0.190652
0.190434
0.190222
0.190016
0.189815
0.189619
0.189428
0.189241
0.189059
0.188882
0.188708
0.188538
0.188372
0.188209
0.18805
0.187893
0.187738
0.187586
0.187436
0.187287
0.18714
0.186994
0.186849
0.186705
0.186561
0.186417
0.186273
0.186129
0.185986
0.185842
0.185697
0.185553
0.185409
0.185264
0.185119
0.184975
0.18483
0.184684
0.184539
0.184393
0.184247
0.184101
0.183955
0.183808
0.183661
0.183515
0.183368
0.183222
0.183076
0.182932
0.182789
0.182648
0.182509
0.182375
0.182247
0.182125
0.182012
0.181911
0.181825
0.181757
0.181711
0.181691
0.181698
0.181726
0.181763
0.18176
0.181678
0.181237
-0.104486
-0.107525
-0.111477
-0.115032
-0.118067
-0.120818
-0.123427
-0.125954
-0.128429
-0.130864
-0.133254
-0.135577
-0.137796
-0.139868
-0.141735
-0.143338
-0.144606
-0.145468
-0.145849
-0.145674
-0.144869
-0.143364
-0.141095
-0.138007
-0.13406
-0.129224
-0.123489
-0.116859
-0.109358
-0.10103
-0.091935
-0.0821505
-0.0717651
-0.0608765
-0.0495894
-0.0380088
-0.0262385
-0.0143767
-0.00251433
0.00926616
0.0208909
0.032295
0.0434229
0.0542282
0.0646725
0.0747253
0.0843627
0.0935672
0.102327
0.110633
0.118484
0.125878
0.13282
0.139314
0.145371
0.150998
0.15621
0.161018
0.165439
0.169486
0.173178
0.17653
0.179561
0.182289
0.18473
0.186905
0.188829
0.190522
0.191999
0.193279
0.194376
0.195307
0.196086
0.196728
0.197246
0.197651
0.197957
0.198174
0.198311
0.198379
0.198386
0.198339
0.198245
0.198112
0.197944
0.197748
0.197527
0.197286
0.197028
0.196757
0.196476
0.196187
0.195893
0.195595
0.195295
0.194995
0.194697
0.1944
0.194106
0.193816
0.19353
0.193249
0.192973
0.192703
0.192439
0.192181
0.19193
0.191685
0.191445
0.191212
0.190986
0.190764
0.190549
0.190339
0.190134
0.189935
0.18974
0.18955
0.189364
0.189183
0.189006
0.188832
0.188663
0.188497
0.188334
0.188175
0.188018
0.187864
0.187712
0.187562
0.187414
0.187267
0.187122
0.186977
0.186834
0.186691
0.186548
0.186405
0.186262
0.186119
0.185976
0.185832
0.185689
0.185545
0.185401
0.185257
0.185113
0.184968
0.184824
0.184679
0.184533
0.184388
0.184242
0.184096
0.183949
0.183802
0.183655
0.183508
0.183361
0.183214
0.183067
0.18292
0.182775
0.182631
0.18249
0.182351
0.182216
0.182086
0.181963
0.181849
0.181745
0.181653
0.181576
0.181513
0.181463
0.181416
0.181353
0.181226
0.180994
0.180418
-0.114376
-0.117099
-0.120642
-0.123909
-0.126806
-0.129529
-0.132191
-0.134838
-0.137488
-0.140142
-0.142787
-0.145393
-0.147917
-0.150305
-0.152495
-0.154416
-0.15599
-0.157134
-0.157762
-0.157788
-0.157126
-0.155694
-0.153418
-0.150237
-0.146102
-0.140982
-0.134865
-0.127762
-0.119705
-0.110753
-0.100983
-0.090492
-0.079388
-0.0677895
-0.055817
-0.0435879
-0.0312161
-0.0188059
-0.00645301
0.00575795
0.0177538
0.0294728
0.0408635
0.0518846
0.0625034
0.072695
0.0824413
0.09173
0.100554
0.108909
0.116796
0.124219
0.131184
0.137698
0.143772
0.149418
0.154647
0.159476
0.163918
0.167989
0.171707
0.175088
0.17815
0.18091
0.183386
0.185596
0.187558
0.189288
0.190804
0.192123
0.193259
0.194229
0.195047
0.195728
0.196284
0.196727
0.19707
0.197323
0.197497
0.1976
0.19764
0.197627
0.197566
0.197464
0.197327
0.19716
0.196968
0.196755
0.196525
0.19628
0.196024
0.195759
0.195488
0.195213
0.194935
0.194656
0.194377
0.194099
0.193824
0.193551
0.193281
0.193016
0.192755
0.1925
0.192249
0.192004
0.191765
0.191531
0.191302
0.191079
0.190862
0.19065
0.190443
0.19024
0.190043
0.18985
0.189662
0.189478
0.189298
0.189122
0.188949
0.188781
0.188616
0.188454
0.188295
0.188138
0.187985
0.187833
0.187684
0.187537
0.187391
0.187246
0.187103
0.18696
0.186818
0.186676
0.186534
0.186392
0.18625
0.186108
0.185966
0.185823
0.18568
0.185537
0.185393
0.18525
0.185106
0.184962
0.184818
0.184673
0.184528
0.184382
0.184237
0.18409
0.183944
0.183797
0.183649
0.183501
0.183353
0.183205
0.183057
0.182909
0.182761
0.182615
0.182469
0.182325
0.182184
0.182046
0.181913
0.181784
0.181662
0.181546
0.181437
0.181333
0.181228
0.18111
0.180957
0.180722
0.180364
0.179681
-0.123584
-0.125913
-0.128945
-0.131837
-0.134534
-0.137193
-0.139895
-0.142667
-0.145514
-0.148427
-0.15138
-0.154333
-0.157235
-0.160022
-0.162622
-0.164951
-0.166921
-0.168435
-0.169394
-0.169696
-0.169242
-0.167935
-0.165687
-0.162427
-0.158097
-0.152664
-0.146116
-0.138472
-0.12978
-0.120117
-0.109588
-0.0983105
-0.0864173
-0.0740478
-0.0613404
-0.0484282
-0.0354356
-0.0224743
-0.00964215
0.00297714
0.0153139
0.0273116
0.0389253
0.0501205
0.0608716
0.0711606
0.0809759
0.0903108
0.0991632
0.107534
0.115429
0.122853
0.129815
0.136326
0.142397
0.148042
0.153273
0.158106
0.162556
0.166639
0.170372
0.173771
0.176853
0.179637
0.18214
0.184378
0.186369
0.188131
0.189679
0.19103
0.1922
0.193204
0.194057
0.194771
0.195361
0.195838
0.196215
0.196501
0.196706
0.196841
0.196913
0.19693
0.196899
0.196827
0.196719
0.19658
0.196415
0.196228
0.196023
0.195804
0.195572
0.195331
0.195082
0.194829
0.194572
0.194313
0.194054
0.193795
0.193537
0.193281
0.193028
0.192779
0.192533
0.192292
0.192055
0.191822
0.191595
0.191372
0.191155
0.190942
0.190734
0.190531
0.190332
0.190138
0.189948
0.189763
0.189581
0.189403
0.189229
0.189058
0.188891
0.188727
0.188566
0.188408
0.188253
0.1881
0.18795
0.187802
0.187655
0.18751
0.187367
0.187224
0.187082
0.186941
0.186801
0.18666
0.186519
0.186379
0.186238
0.186097
0.185955
0.185813
0.185671
0.185528
0.185386
0.185243
0.185099
0.184955
0.184811
0.184667
0.184522
0.184377
0.184231
0.184085
0.183938
0.183791
0.183643
0.183495
0.183346
0.183196
0.183047
0.182897
0.182747
0.182597
0.182448
0.182299
0.182151
0.182005
0.18186
0.181718
0.181577
0.181438
0.181298
0.181153
0.180996
0.180813
0.180579
0.18025
0.179787
0.179018
-0.13145
-0.13331
-0.135736
-0.138179
-0.140631
-0.143204
-0.145946
-0.148864
-0.151947
-0.155172
-0.158499
-0.161877
-0.165243
-0.168522
-0.171627
-0.174465
-0.17693
-0.178911
-0.180292
-0.180954
-0.180777
-0.179648
-0.177462
-0.174135
-0.169599
-0.163817
-0.156787
-0.148536
-0.139134
-0.128682
-0.117313
-0.105177
-0.0924362
-0.0792551
-0.0657934
-0.0521996
-0.0386064
-0.0251291
-0.0118648
0.00110737
0.0137242
0.025937
0.0377096
0.0490161
0.0598392
0.0701688
0.08
0.0893325
0.0981693
0.106516
0.114381
0.121774
0.128706
0.135188
0.141233
0.146856
0.152071
0.156892
0.161336
0.165417
0.169153
0.17256
0.175654
0.178453
0.180974
0.183233
0.185248
0.187034
0.188609
0.189989
0.191188
0.192221
0.193103
0.193848
0.194468
0.194976
0.195382
0.195698
0.195934
0.196098
0.196199
0.196244
0.196242
0.196197
0.196116
0.196003
0.195864
0.195703
0.195523
0.195327
0.195119
0.1949
0.194674
0.194442
0.194206
0.193967
0.193726
0.193486
0.193246
0.193007
0.192771
0.192537
0.192306
0.192079
0.191855
0.191636
0.191421
0.19121
0.191003
0.190801
0.190603
0.190409
0.190219
0.190033
0.18985
0.189672
0.189497
0.189325
0.189157
0.188992
0.18883
0.188671
0.188515
0.188361
0.18821
0.188061
0.187914
0.187769
0.187625
0.187483
0.187342
0.187201
0.187061
0.186922
0.186783
0.186644
0.186504
0.186365
0.186225
0.186085
0.185944
0.185803
0.185661
0.18552
0.185378
0.185235
0.185092
0.184949
0.184805
0.184661
0.184517
0.184372
0.184226
0.18408
0.183933