/*--------------------------------*- C++ -*----------------------------------*\
  =========                 |
  \\      /  F ield         | OpenFOAM: The Open Source CFD Toolbox
   \\    /   O peration     | Website:  https://openfoam.org
    \\  /    A nd           | Version:  6
     \\/     M anipulation  |
\*---------------------------------------------------------------------------*/
FoamFile
{
    version     2.0;
    format      ascii;
    class       surfaceScalarField;
    location    "0.06";
    object      phi;
}
// * * * * * * * * * * * * * * * * * * * * * * * * * * * * * * * * * * * * * //

dimensions      [0 3 -1 0 0 0 0];

internalField   nonuniform List<scalar> 
24170
(
3.25689e-07
-6.84827e-09
3.19473e-07
6.21595e-09
3.1596e-07
3.5125e-09
3.09018e-07
6.94221e-09
3.02251e-07
6.7669e-09
2.97501e-07
4.75011e-09
2.94498e-07
3.003e-09
2.92537e-07
1.96134e-09
2.91181e-07
1.35548e-09
2.90242e-07
9.39499e-10
2.8963e-07
6.11845e-10
2.89298e-07
3.31555e-10
2.89206e-07
9.21932e-11
2.89332e-07
-1.25536e-10
2.89748e-07
-4.1575e-10
2.9056e-07
-8.12016e-10
2.92673e-07
-2.11309e-09
-4.76782e-09
2.9744e-07
3.50361e-07
-1.54849e-08
3.4784e-07
8.73728e-09
3.44167e-07
7.18541e-09
3.4243e-07
8.67975e-09
3.40415e-07
8.78162e-09
3.38139e-07
7.02618e-09
3.36064e-07
5.07808e-09
3.34395e-07
3.63061e-09
3.33135e-07
2.61462e-09
3.32227e-07
1.8478e-09
3.31613e-07
1.22576e-09
3.31258e-07
6.86844e-10
3.31164e-07
1.85637e-10
3.31359e-07
-3.19907e-10
3.31878e-07
-9.35124e-10
3.32845e-07
-1.77855e-09
3.34319e-07
-3.58765e-09
-6.55233e-09
3.36104e-07
3.63443e-07
-1.26764e-08
3.66608e-07
5.57222e-09
3.66842e-07
6.95189e-09
3.67126e-07
8.39516e-09
3.66915e-07
8.99345e-09
3.66134e-07
7.80667e-09
3.65115e-07
6.09713e-09
3.64136e-07
4.60954e-09
3.63332e-07
3.41837e-09
3.62743e-07
2.43697e-09
3.62372e-07
1.59738e-09
3.62215e-07
8.43727e-10
3.62281e-07
1.19437e-10
3.62595e-07
-6.33908e-10
3.63187e-07
-1.52697e-09
3.64112e-07
-2.70396e-09
3.65202e-07
-4.67747e-09
-7.53312e-09
3.66183e-07
3.89255e-07
-9.39282e-09
3.91518e-07
3.30994e-09
3.92532e-07
5.9369e-09
3.93322e-07
7.60583e-09
3.93768e-07
8.5468e-09
3.93733e-07
7.84246e-09
3.93378e-07
6.45162e-09
3.92921e-07
5.06627e-09
3.92508e-07
3.83181e-09
3.92211e-07
2.7337e-09
3.92066e-07
1.7424e-09
3.92093e-07
8.174e-10
3.92307e-07
-9.53729e-11
3.92732e-07
-1.05894e-09
3.93383e-07
-2.17748e-09
3.94261e-07
-3.58201e-09
3.9518e-07
-5.5963e-09
-8.23841e-09
3.95885e-07
4.18289e-07
-6.9696e-09
4.19482e-07
2.11746e-09
4.20459e-07
4.95961e-09
4.21359e-07
6.70641e-09
4.22104e-07
7.80115e-09
4.22501e-07
7.44627e-09
4.22598e-07
6.3539e-09
4.22546e-07
5.1185e-09
4.22467e-07
3.91057e-09
4.2244e-07
2.76087e-09
4.22513e-07
1.66958e-09
4.22718e-07
6.12803e-10
4.23077e-07
-4.54438e-10
4.23608e-07
-1.59054e-09
4.24315e-07
-2.88401e-09
4.2517e-07
-4.43739e-09
4.26011e-07
-6.43735e-09
-8.8478e-09
4.26621e-07
4.49057e-07
-5.11833e-09
4.49685e-07
1.49037e-09
4.50525e-07
4.11939e-09
4.51434e-07
5.79714e-09
4.52326e-07
6.90872e-09
4.52987e-07
6.78612e-09
4.534e-07
5.94007e-09
4.53662e-07
4.85668e-09
4.53866e-07
3.70641e-09
4.54083e-07
2.54467e-09
4.54361e-07
1.39127e-09
4.54737e-07
2.36639e-10
4.55235e-07
-9.52644e-10
4.55869e-07
-2.22472e-09
4.56633e-07
-3.6478e-09
4.57489e-07
-5.29273e-09
4.58304e-07
-7.2524e-09
-9.4635e-09
4.58919e-07
4.81783e-07
-3.6298e-09
4.82145e-07
1.1289e-09
4.82857e-07
3.40748e-09
4.83732e-07
4.92192e-09
4.84684e-07
5.95635e-09
4.85503e-07
5.96746e-09
4.86138e-07
5.30556e-09
4.86641e-07
4.35341e-09
4.87079e-07
3.26797e-09
4.87509e-07
2.11494e-09
4.87975e-07
9.25254e-10
4.88511e-07
-2.99682e-10
4.8914e-07
-1.58161e-09
4.89872e-07
-2.95592e-09
4.90694e-07
-4.46983e-09
4.91566e-07
-6.16549e-09
4.92391e-07
-8.07676e-09
-1.01361e-08
4.93063e-07
5.16779e-07
-2.45044e-09
5.16998e-07
9.09377e-10
5.17599e-07
2.80677e-09
5.18418e-07
4.10278e-09
5.19378e-07
4.99658e-09
5.20285e-07
5.06012e-09
5.21071e-07
4.52022e-09
5.21756e-07
3.66811e-09
5.22383e-07
2.64043e-09
5.22995e-07
1.5038e-09
5.23626e-07
2.93993e-10
5.24306e-07
-9.79861e-10
5.25053e-07
-2.329e-09
5.25873e-07
-3.77589e-09
5.26752e-07
-5.34883e-09
5.27654e-07
-7.06715e-09
5.28509e-07
-8.93142e-09
-1.08825e-08
5.29255e-07
5.54242e-07
-1.55917e-09
5.54381e-07
7.70983e-10
5.54894e-07
2.29395e-09
5.55652e-07
3.34438e-09
5.5659e-07
4.05844e-09
5.5754e-07
4.11034e-09
5.58424e-07
3.63605e-09
5.59243e-07
2.84973e-09
5.60018e-07
1.86518e-09
5.60777e-07
7.44277e-10
5.61548e-07
-4.76628e-10
5.62351e-07
-1.78341e-09
5.63201e-07
-3.17858e-09
5.64098e-07
-4.67311e-09
5.65029e-07
-6.27987e-09
5.65964e-07
-8.00199e-09
5.66857e-07
-9.8239e-09
-1.16992e-08
5.67673e-07
5.94341e-07
-9.2236e-10
5.94444e-07
6.68163e-10
5.94896e-07
1.84179e-09
5.956e-07
2.64026e-09
5.96503e-07
3.1551e-09
5.97465e-07
3.14808e-09
5.9841e-07
2.69186e-09
5.99321e-07
1.93863e-09
6.00206e-07
9.79672e-10
6.01081e-07
-1.30848e-10
6.01963e-07
-1.35859e-09
6.02867e-07
-2.6866e-09
6.03799e-07
-4.11066e-09
6.04758e-07
-5.63246e-09
6.05732e-07
-7.25343e-09
6.06696e-07
-8.96643e-09
6.07622e-07
-1.07499e-08
-1.25701e-08
6.08493e-07
6.37258e-07
-4.98811e-10
6.37358e-07
5.6795e-10
6.37776e-07
1.42336e-09
6.38438e-07
1.97817e-09
6.39303e-07
2.29001e-09
6.4026e-07
2.19179e-09
6.41235e-07
1.71627e-09
6.42206e-07
9.67867e-10
6.43168e-07
1.73364e-11
6.44127e-07
-1.08988e-09
6.45092e-07
-2.32284e-09
6.46069e-07
-3.66337e-09
6.4706e-07
-5.10249e-09
6.48063e-07
-6.63507e-09
6.49064e-07
-8.25482e-09
6.50047e-07
-9.94893e-09
6.50992e-07
-1.16952e-08
-1.34698e-08
6.51892e-07
5.73859e-07
-2.74792e-10
5.73955e-07
4.7286e-10
5.74299e-07
1.07854e-09
5.74837e-07
1.44013e-09
5.7554e-07
1.58719e-09
5.76335e-07
1.39663e-09
5.77168e-07
8.83848e-10
5.78013e-07
1.22606e-10
5.78862e-07
-8.3197e-10
5.79714e-07
-1.94156e-09
5.8057e-07
-3.1784e-09
5.8143e-07
-4.52421e-09
5.82295e-07
-5.96733e-09
5.83159e-07
-7.4986e-09
5.84012e-07
-9.10758e-09
5.84842e-07
-1.0779e-08
5.85639e-07
-1.24921e-08
-1.42295e-08
5.86398e-07
6.9967e-07
-1.29e-10
6.99816e-07
3.26264e-10
7.00209e-07
6.86011e-10
7.00807e-07
8.42316e-10
7.01584e-07
8.09685e-10
7.02474e-07
5.06346e-10
7.03423e-07
-6.49791e-11
7.04402e-07
-8.5568e-10
7.05394e-07
-1.82478e-09
7.06394e-07
-2.94151e-09
7.07398e-07
-4.18191e-09
7.08402e-07
-5.52826e-09
7.09402e-07
-6.96712e-09
7.1039e-07
-8.48648e-09
7.11355e-07
-1.00732e-08
7.12287e-07
-1.17111e-08
7.13177e-07
-1.33817e-08
-1.50734e-08
7.14021e-07
8.53025e-07
-6.97038e-11
8.53236e-07
1.15244e-10
8.53692e-07
2.30799e-10
8.54357e-07
1.77178e-10
8.55208e-07
-4.2043e-11
8.56189e-07
-4.73844e-10
8.57246e-07
-1.12209e-09
8.58347e-07
-1.95732e-09
8.59473e-07
-2.95046e-09
8.60609e-07
-4.07785e-09
8.61747e-07
-5.31959e-09
8.62878e-07
-6.65918e-09
8.63993e-07
-8.08249e-09
8.65083e-07
-9.57598e-09
8.66135e-07
-1.11253e-08
8.67138e-07
-1.27145e-08
8.68084e-07
-1.43275e-08
-1.5957e-08
8.68968e-07
1.03995e-06
-9.2958e-11
1.04023e-06
-1.66642e-10
1.04075e-06
-2.96949e-10
1.04149e-06
-5.60933e-10
1.04242e-06
-9.64979e-10
1.04347e-06
-1.53266e-09
1.04462e-06
-2.269e-09
1.04582e-06
-3.15771e-09
1.04705e-06
-4.17927e-09
1.04829e-06
-5.31609e-09
1.04952e-06
-6.55217e-09
1.05074e-06
-7.87284e-09
1.05192e-06
-9.26427e-09
1.05305e-06
-1.07127e-08
1.05413e-06
-1.22039e-08
1.05514e-06
-1.37228e-08
1.05607e-06
-1.52554e-08
-1.67968e-08
1.05691e-06
1.26777e-06
-1.81017e-10
1.26812e-06
-5.15119e-10
1.26871e-06
-8.92867e-10
1.26952e-06
-1.36574e-09
1.2705e-06
-1.94631e-09
1.27161e-06
-2.64666e-09
1.27281e-06
-3.47088e-09
1.27407e-06
-4.41107e-09
1.27534e-06
-5.45509e-09
1.27662e-06
-6.59051e-09
1.27787e-06
-7.80496e-09
1.27908e-06
-9.08602e-09
1.28024e-06
-1.04211e-08
1.28132e-06
-1.17974e-08
1.28232e-06
-1.32015e-08
1.28322e-06
-1.46197e-08
1.284e-06
-1.60399e-08
-1.74581e-08
1.28466e-06
1.54545e-06
-3.08048e-10
1.54584e-06
-9.08449e-10
1.54648e-06
-1.53118e-09
1.54732e-06
-2.2078e-09
1.54832e-06
-2.95109e-09
1.54945e-06
-3.76946e-09
1.55064e-06
-4.66701e-09
1.55187e-06
-5.64142e-09
1.5531e-06
-6.68664e-09
1.55431e-06
-7.79509e-09
1.55546e-06
-8.95813e-09
1.55654e-06
-1.01661e-08
1.55753e-06
-1.14086e-08
1.55841e-06
-1.26744e-08
1.55916e-06
-1.39519e-08
1.55977e-06
-1.52292e-08
1.56022e-06
-1.64958e-08
-1.77482e-08
1.56051e-06
1.8839e-06
-4.45004e-10
1.8843e-06
-1.30442e-09
1.88493e-06
-2.16077e-09
1.88575e-06
-3.02804e-09
1.88671e-06
-3.91266e-09
1.88776e-06
-4.82227e-09
1.88886e-06
-5.76249e-09
1.88995e-06
-6.73569e-09
1.89101e-06
-7.74187e-09
1.89199e-06
-8.77899e-09
1.89287e-06
-9.84299e-09
1.89364e-06
-1.0928e-08
1.89425e-06
-1.20267e-08
1.89471e-06
-1.31306e-08
1.89499e-06
-1.42308e-08
1.89508e-06
-1.53175e-08
1.89496e-06
-1.63824e-08
-1.74226e-08
1.89464e-06
2.29644e-06
-5.50569e-10
2.29676e-06
-1.62824e-09
2.2973e-06
-2.70007e-09
2.29801e-06
-3.73946e-09
2.29884e-06
-4.73811e-09
2.29972e-06
-5.70348e-09
2.3006e-06
-6.64177e-09
2.30142e-06
-7.5599e-09
2.30215e-06
-8.4659e-09
2.30273e-06
-9.36568e-09
2.30315e-06
-1.02619e-08
2.30338e-06
-1.11543e-08
2.30339e-06
-1.20404e-08
2.30318e-06
-1.29161e-08
2.30272e-06
-1.37759e-08
2.30202e-06
-1.46136e-08
2.30106e-06
-1.54234e-08
-1.62037e-08
2.29984e-06
1.68106e-06
-5.40051e-10
1.68114e-06
-1.70654e-09
1.68137e-06
-2.92909e-09
1.68172e-06
-4.08824e-09
1.68214e-06
-5.16328e-09
1.6826e-06
-6.15984e-09
1.68303e-06
-7.07791e-09
1.6834e-06
-7.92861e-09
1.68367e-06
-8.72991e-09
1.6838e-06
-9.49655e-09
1.68377e-06
-1.02381e-08
1.68358e-06
-1.09601e-08
1.6832e-06
-1.16649e-08
1.68264e-06
-1.23522e-08
1.68188e-06
-1.30197e-08
1.68093e-06
-1.3664e-08
1.67979e-06
-1.42812e-08
-1.48703e-08
1.67846e-06
1.46329e-06
-3.73648e-10
1.46317e-06
-1.58797e-09
1.46324e-06
-3.00168e-09
1.46346e-06
-4.3012e-09
1.46377e-06
-5.47524e-09
1.46413e-06
-6.51822e-09
1.46446e-06
-7.41331e-09
1.46472e-06
-8.1828e-09
1.46485e-06
-8.86288e-09
1.46483e-06
-9.48104e-09
1.46465e-06
-1.00559e-08
1.46429e-06
-1.06003e-08
1.46375e-06
-1.1122e-08
1.46302e-06
-1.16249e-08
1.46211e-06
-1.21095e-08
1.46102e-06
-1.25746e-08
1.45976e-06
-1.30178e-08
-1.34385e-08
1.45833e-06
1.27356e-06
8.06057e-11
1.27323e-06
-1.25493e-09
1.27321e-06
-2.98302e-09
1.27338e-06
-4.47571e-09
1.27371e-06
-5.80039e-09
1.2741e-06
-6.913e-09
1.27446e-06
-7.77185e-09
1.27471e-06
-8.43182e-09
1.27481e-06
-8.96142e-09
1.27473e-06
-9.4057e-09
1.27447e-06
-9.79471e-09
1.27402e-06
-1.01498e-08
1.27338e-06
-1.04843e-08
1.27256e-06
-1.08054e-08
1.27157e-06
-1.11155e-08
1.27041e-06
-1.14146e-08
1.26909e-06
-1.1701e-08
-1.19738e-08
1.26763e-06
1.10818e-06
9.9258e-10
1.10765e-06
-7.19498e-10
1.10763e-06
-2.96629e-09
1.10788e-06
-4.72291e-09
1.10834e-06
-6.25956e-09
1.10886e-06
-7.44205e-09
1.10931e-06
-8.21609e-09
1.10959e-06
-8.71024e-09
1.10967e-06
-9.04166e-09
1.10954e-06
-9.27588e-09
1.1092e-06
-9.45521e-09
1.10866e-06
-9.60896e-09
1.10793e-06
-9.7544e-09
1.10702e-06
-9.89967e-09
1.10595e-06
-1.00474e-08
1.10474e-06
-1.01971e-08
1.10338e-06
-1.03463e-08
-1.04929e-08
1.1019e-06
9.6399e-07
2.52435e-09
9.63323e-07
-5.28449e-11
9.63427e-07
-3.07063e-09
9.63863e-07
-5.15856e-09
9.64553e-07
-6.9499e-09
9.65258e-07
-8.14646e-09
9.65778e-07
-8.73605e-09
9.66046e-07
-8.97821e-09
9.66054e-07
-9.05002e-09
9.65813e-07
-9.03529e-09
9.65344e-07
-8.98565e-09
9.6467e-07
-8.93459e-09
9.63814e-07
-8.89887e-09
9.62798e-07
-8.88407e-09
9.61641e-07
-8.88998e-09
9.60357e-07
-8.9136e-09
9.58962e-07
-8.95037e-09
-8.99622e-09
9.57465e-07
8.38098e-07
4.9616e-09
8.37572e-07
4.7353e-10
8.3798e-07
-3.47879e-09
8.38711e-07
-5.88962e-09
8.39674e-07
-7.91295e-09
8.40512e-07
-8.98421e-09
8.41015e-07
-9.23915e-09
8.41162e-07
-9.12505e-09
8.40989e-07
-8.87704e-09
8.4054e-07
-8.58719e-09
8.39862e-07
-8.30751e-09
8.38995e-07
-8.06725e-09
8.37972e-07
-7.87571e-09
8.36819e-07
-7.73096e-09
8.35556e-07
-7.62684e-09
8.34198e-07
-7.55606e-09
8.32759e-07
-7.51094e-09
-7.48482e-09
8.31247e-07
7.27602e-07
9.08807e-09
7.27979e-07
9.6248e-11
7.28996e-07
-4.4952e-09
7.30121e-07
-7.01526e-09
7.3132e-07
-9.11144e-09
7.32147e-07
-9.81121e-09
7.32452e-07
-9.54442e-09
7.32302e-07
-8.97481e-09
7.31797e-07
-8.37257e-09
7.31026e-07
-7.81589e-09
7.30058e-07
-7.33921e-09
7.28945e-07
-6.95422e-09
7.27723e-07
-6.65445e-09
7.26418e-07
-6.42595e-09
7.25046e-07
-6.25454e-09
7.23618e-07
-6.12794e-09
7.22143e-07
-6.03559e-09
-5.96833e-09
7.20626e-07
6.302e-07
1.5895e-08
6.32643e-07
-2.34711e-09
6.34474e-07
-6.32584e-09
6.3604e-07
-8.58171e-09
6.37329e-07
-1.03999e-08
6.37876e-07
-1.03582e-08
6.37701e-07
-9.37002e-09
6.37015e-07
-8.28857e-09
6.36003e-07
-7.36101e-09
6.34795e-07
-6.60779e-09
6.33473e-07
-6.01659e-09
6.32085e-07
-5.56616e-09
6.30658e-07
-5.22822e-09
6.29208e-07
-4.97556e-09
6.2774e-07
-4.7868e-09
6.26259e-07
-4.64627e-09
6.24765e-07
-4.54205e-09
-4.46353e-09
6.2326e-07
5.47174e-07
2.32673e-08
5.51744e-07
-6.91744e-09
5.53322e-07
-7.90294e-09
5.54848e-07
-1.01081e-08
5.55707e-07
-1.12594e-08
5.55431e-07
-1.00818e-08
5.54323e-07
-8.26174e-09
5.52783e-07
-6.74863e-09
5.51076e-07
-5.65387e-09
5.49338e-07
-4.87006e-09
5.47628e-07
-4.30718e-09
5.45967e-07
-3.90438e-09
5.44353e-07
-3.61502e-09
5.42782e-07
-3.40443e-09
5.41245e-07
-3.24945e-09
5.39734e-07
-3.13573e-09
5.38246e-07
-3.05324e-09
-2.99342e-09
5.36776e-07
4.91583e-07
1.44446e-08
4.90627e-07
-5.96052e-09
4.87109e-07
-4.38539e-09
4.86007e-07
-9.00632e-09
4.84367e-07
-9.61894e-09
4.81773e-07
-7.48774e-09
4.78817e-07
-5.30582e-09
4.7595e-07
-3.88144e-09
4.73343e-07
-3.04695e-09
4.71011e-07
-2.53825e-09
4.68914e-07
-2.20988e-09
4.67001e-07
-1.9919e-09
4.6523e-07
-1.84346e-09
4.63564e-07
-1.73884e-09
4.61978e-07
-1.66343e-09
4.60454e-07
-1.61144e-09
4.58984e-07
-1.58336e-09
-1.6232e-09
4.57614e-07
4.34712e-07
4.28752e-07
4.24366e-07
4.1536e-07
4.05741e-07
3.98253e-07
3.92947e-07
3.89066e-07
3.86019e-07
3.83481e-07
3.81271e-07
3.79279e-07
3.77436e-07
3.75697e-07
3.74033e-07
3.72422e-07
3.70839e-07
3.69215e-07
6.59137e-09
-6.59137e-09
2.59155e-09
3.99982e-09
-7.91887e-09
1.05104e-08
-2.23112e-08
1.43923e-08
-3.89675e-08
1.66563e-08
-5.6973e-08
1.80056e-08
-7.57767e-08
1.88036e-08
-9.50098e-08
1.92331e-08
-1.14401e-07
1.93914e-08
-1.33732e-07
1.93305e-08
-1.52809e-07
1.90774e-08
-1.71456e-07
1.86467e-08
-1.89504e-07
1.80477e-08
-2.06791e-07
1.72878e-08
-2.23166e-07
1.63746e-08
-2.38483e-07
1.53166e-08
-2.52606e-07
1.41234e-08
-2.65412e-07
1.28059e-08
-2.76788e-07
1.13757e-08
-2.86633e-07
9.84515e-09
-2.9486e-07
8.22714e-09
-3.01395e-07
6.53481e-09
-3.06177e-07
4.78211e-09
-3.09163e-07
2.98633e-09
-3.10343e-07
1.18029e-09
-3.09774e-07
-5.69335e-10
-3.07552e-07
-2.22258e-09
-3.03755e-07
-3.79702e-09
-2.98443e-07
-5.31193e-09
-2.91667e-07
-6.77533e-09
-2.83479e-07
-8.18829e-09
-2.73931e-07
-9.54837e-09
-2.63079e-07
-1.08513e-08
-2.50988e-07
-1.20918e-08
-2.37723e-07
-1.32646e-08
-2.23358e-07
-1.43644e-08
-2.07972e-07
-1.53862e-08
-1.91647e-07
-1.63255e-08
-1.74469e-07
-1.71783e-08
-1.56527e-07
-1.79413e-08
-1.37916e-07
-1.86115e-08
-1.18729e-07
-1.91866e-08
-9.90648e-08
-1.96643e-08
-7.90226e-08
-2.00422e-08
-5.8704e-08
-2.03186e-08
-3.82083e-08
-2.04957e-08
-1.76196e-08
-2.05887e-08
3.02651e-09
-2.06461e-08
2.36778e-08
-2.06513e-08
4.42398e-08
-2.05621e-08
6.46309e-08
-2.03911e-08
8.47797e-08
-2.01488e-08
1.04623e-07
-1.98429e-08
1.24102e-07
-1.94793e-08
1.43165e-07
-1.90635e-08
1.61766e-07
-1.86009e-08
1.79863e-07
-1.80963e-08
1.97417e-07
-1.75548e-08
2.14399e-07
-1.69814e-08
2.3078e-07
-1.6381e-08
2.46538e-07
-1.57583e-08
2.61656e-07
-1.51182e-08
2.76121e-07
-1.4465e-08
2.89925e-07
-1.38033e-08
3.03062e-07
-1.31372e-08
3.15533e-07
-1.24709e-08
3.27341e-07
-1.1808e-08
3.38493e-07
-1.1152e-08
3.48999e-07
-1.05062e-08
3.58872e-07
-9.87348e-09
3.68129e-07
-9.25639e-09
3.76786e-07
-8.65719e-09
3.84864e-07
-8.07777e-09
3.92383e-07
-7.51972e-09
3.99368e-07
-6.98427e-09
4.0584e-07
-6.47236e-09
4.11825e-07
-5.98461e-09
4.17346e-07
-5.52138e-09
4.22429e-07
-5.08277e-09
4.27097e-07
-4.66865e-09
4.31376e-07
-4.2787e-09
4.35289e-07
-3.91243e-09
4.38858e-07
-3.5692e-09
4.42106e-07
-3.24825e-09
4.45055e-07
-2.94875e-09
4.47725e-07
-2.66976e-09
4.50135e-07
-2.41035e-09
4.52304e-07
-2.16949e-09
4.54251e-07
-1.94619e-09
4.5599e-07
-1.73945e-09
4.57538e-07
-1.54826e-09
4.5891e-07
-1.3717e-09
4.60119e-07
-1.20882e-09
4.61178e-07
-1.05877e-09
4.62098e-07
-9.20653e-10
4.62892e-07
-7.93662e-10
4.63569e-07
-6.76989e-10
4.64139e-07
-5.69851e-10
4.6461e-07
-4.71524e-10
4.64992e-07
-3.81292e-10
4.6529e-07
-2.98473e-10
4.65512e-07
-2.22252e-10
4.65664e-07
-1.51724e-10
4.65749e-07
-8.50448e-11
4.65766e-07
-1.67423e-11
4.65714e-07
5.21897e-11
4.656e-07
1.13692e-10
4.65434e-07
1.65528e-10
4.65225e-07
2.09339e-10
4.64978e-07
2.46953e-10
4.64698e-07
2.79655e-10
4.6439e-07
3.08431e-10
4.64056e-07
3.34043e-10
4.63699e-07
3.5705e-10
4.63321e-07
3.77847e-10
4.62924e-07
3.96727e-10
4.6251e-07
4.13904e-10
4.62081e-07
4.29588e-10
4.61637e-07
4.4391e-10
4.6118e-07
4.57038e-10
4.60711e-07
4.69073e-10
4.60231e-07
4.80146e-10
4.5974e-07
4.90347e-10
4.59241e-07
4.99784e-10
4.58732e-07
5.08534e-10
4.58215e-07
5.16673e-10
4.57691e-07
5.24292e-10
4.5716e-07
5.31441e-10
4.56621e-07
5.38191e-10
4.56077e-07
5.44599e-10
4.55526e-07
5.50701e-10
4.5497e-07
5.56558e-10
4.54407e-07
5.62189e-10
4.5384e-07
5.67644e-10
4.53267e-07
5.72947e-10
4.52689e-07
5.78131e-10
4.52105e-07
5.83207e-10
4.51517e-07
5.88222e-10
4.50924e-07
5.93181e-10
4.50326e-07
5.9811e-10
4.49723e-07
6.03035e-10
4.49115e-07
6.07971e-10
4.48502e-07
6.12946e-10
4.47884e-07
6.1797e-10
4.47261e-07
6.23067e-10
4.46633e-07
6.28251e-10
4.45999e-07
6.33551e-10
4.4536e-07
6.38989e-10
4.44716e-07
6.44593e-10
4.44065e-07
6.50386e-10
4.43409e-07
6.5639e-10
4.42746e-07
6.62648e-10
4.42077e-07
6.69199e-10
4.41401e-07
6.76083e-10
4.40717e-07
6.83369e-10
4.40026e-07
6.91134e-10
4.39327e-07
6.99488e-10
4.38618e-07
7.08558e-10
4.379e-07
7.18522e-10
4.3717e-07
7.29607e-10
4.36428e-07
7.42128e-10
4.35672e-07
7.56476e-10
4.34898e-07
7.73195e-10
4.34105e-07
7.92987e-10
4.33289e-07
8.16822e-10
4.32443e-07
8.46001e-10
4.3156e-07
8.82301e-10
4.30632e-07
9.28228e-10
4.29645e-07
9.87325e-10
4.2858e-07
1.06474e-09
4.27412e-07
1.1682e-09
4.26102e-07
1.30971e-09
4.24593e-07
1.50896e-09
4.22793e-07
1.7998e-09
4.20546e-07
2.24756e-09
4.17568e-07
2.97816e-09
4.1325e-07
4.31733e-09
4.06402e-07
6.84826e-09
3.93346e-07
1.30561e-08
2.37829e-08
3.69563e-07
-1.1685e-08
5.09367e-09
-2.44238e-08
1.67386e-08
-3.83291e-08
2.44157e-08
-5.37377e-08
2.98009e-08
-7.04884e-08
3.3407e-08
-8.81763e-08
3.56934e-08
-1.06378e-07
3.70058e-08
-1.24723e-07
3.75774e-08
-1.42897e-07
3.75659e-08
-1.60645e-07
3.70782e-08
-1.77755e-07
3.61875e-08
-1.94055e-07
3.49467e-08
-2.09403e-07
3.33961e-08
-2.23685e-07
3.15698e-08
-2.36809e-07
2.94981e-08
-2.48702e-07
2.72096e-08
-2.5931e-07
2.47318e-08
-2.68596e-07
2.20913e-08
-2.76534e-07
1.93142e-08
-2.83115e-07
1.64261e-08
-2.8834e-07
1.3452e-08
-2.92222e-07
1.04168e-08
-2.94786e-07
7.34611e-09
-2.96067e-07
4.26713e-09
-2.96093e-07
1.20648e-09
-2.9484e-07
-1.82222e-09
-2.92247e-07
-4.8158e-09
-2.88278e-07
-7.76553e-09
-2.82931e-07
-1.06592e-08
-2.76222e-07
-1.34848e-08
-2.6818e-07
-1.62303e-08
-2.58845e-07
-1.8883e-08
-2.48266e-07
-2.14303e-08
-2.36498e-07
-2.38599e-08
-2.23603e-07
-2.61599e-08
-2.09648e-07
-2.83194e-08
-1.94706e-07
-3.03284e-08
-1.78853e-07
-3.21784e-08
-1.62169e-07
-3.3862e-08
-1.44737e-07
-3.53735e-08
-1.2664e-07
-3.67085e-08
-1.07962e-07
-3.7864e-08
-8.8788e-08
-3.88386e-08
-6.91983e-08
-3.96319e-08
-4.92712e-08
-4.02457e-08
-2.90824e-08
-4.06846e-08
-8.71115e-09
-4.09599e-08
1.17285e-08
-4.10858e-08
3.21416e-08
-4.10644e-08
5.24747e-08
-4.08951e-08
7.26693e-08
-4.05857e-08
9.2666e-08
-4.01455e-08
1.12407e-07
-3.9584e-08
1.31839e-07
-3.89107e-08
1.5091e-07
-3.8135e-08
1.69575e-07
-3.72663e-08
1.87793e-07
-3.6314e-08
2.05526e-07
-3.52874e-08
2.2274e-07
-3.4196e-08
2.39408e-07
-3.30489e-08
2.55505e-07
-3.18551e-08
2.7101e-07
-3.06235e-08
2.85908e-07
-2.93629e-08
3.00186e-07
-2.80815e-08
3.13836e-07
-2.67874e-08
3.26854e-07
-2.54884e-08
3.39238e-07
-2.41917e-08
3.5099e-07
-2.29042e-08
3.62116e-07
-2.16322e-08
3.72624e-07
-2.03815e-08
3.82525e-07
-1.91573e-08
3.91832e-07
-1.79643e-08
4.00561e-07
-1.68065e-08
4.08728e-07
-1.56872e-08
4.16353e-07
-1.46094e-08
4.23456e-07
-1.35751e-08
4.30058e-07
-1.25862e-08
4.3618e-07
-1.16435e-08
4.41845e-07
-1.07479e-08
4.47076e-07
-9.89928e-09
4.51894e-07
-9.09753e-09
4.56324e-07
-8.34198e-09
4.60386e-07
-7.63169e-09
4.64104e-07
-6.96544e-09
4.67497e-07
-6.34183e-09
4.70586e-07
-5.75925e-09
4.73392e-07
-5.21602e-09
4.75933e-07
-4.71029e-09
4.78227e-07
-4.24025e-09
4.80291e-07
-3.80399e-09
4.82143e-07
-3.39966e-09
4.83796e-07
-3.02541e-09
4.85267e-07
-2.67943e-09
4.86568e-07
-2.35997e-09
4.87713e-07
-2.06529e-09
4.88713e-07
-1.79375e-09
4.8958e-07
-1.54371e-09
4.90324e-07
-1.31367e-09
4.90954e-07
-1.10211e-09
4.9148e-07
-9.07652e-10
4.91911e-07
-7.28926e-10
4.92253e-07
-5.64591e-10
4.92515e-07
-4.13315e-10
4.92704e-07
-2.73746e-10
4.92831e-07
-1.44286e-10
4.92906e-07
-2.27871e-11
4.92929e-07
9.09874e-11
4.92899e-07
1.95341e-10
4.92819e-07
2.89778e-10
4.92691e-07
3.74911e-10
4.92519e-07
4.51598e-10
4.92306e-07
5.20754e-10
4.92057e-07
5.83253e-10
4.91774e-07
6.39895e-10
4.91461e-07
6.91331e-10
4.91119e-07
7.38154e-10
4.90752e-07
7.80845e-10
4.90362e-07
8.19822e-10
4.89951e-07
8.55465e-10
4.8952e-07
8.88106e-10
4.89071e-07
9.18036e-10
4.88605e-07
9.45528e-10
4.88125e-07
9.70823e-10
4.8763e-07
9.94151e-10
4.87123e-07
1.01572e-09
4.86604e-07
1.03573e-09
4.86074e-07
1.05433e-09
4.85534e-07
1.07171e-09
4.84984e-07
1.08801e-09
4.84425e-07
1.10336e-09
4.83858e-07
1.11788e-09
4.83283e-07
1.13168e-09
4.827e-07
1.14486e-09
4.8211e-07
1.1575e-09
4.81514e-07
1.1697e-09
4.8091e-07
1.18149e-09
4.803e-07
1.19298e-09
4.79684e-07
1.2042e-09
4.79062e-07
1.21521e-09
4.78435e-07
1.22607e-09
4.77801e-07
1.23682e-09
4.77161e-07
1.24749e-09
4.76516e-07
1.25816e-09
4.75865e-07
1.26884e-09
4.75209e-07
1.2796e-09
4.74546e-07
1.29047e-09
4.73878e-07
1.3015e-09
4.73205e-07
1.31274e-09
4.72525e-07
1.32425e-09
4.71839e-07
1.33608e-09
4.71147e-07
1.34829e-09
4.70449e-07
1.36095e-09
4.69744e-07
1.37412e-09
4.69032e-07
1.38792e-09
4.68313e-07
1.40244e-09
4.67587e-07
1.41784e-09
4.66852e-07
1.43429e-09
4.66108e-07
1.45204e-09
4.65355e-07
1.4714e-09
4.64592e-07
1.49278e-09
4.63818e-07
1.51673e-09
4.6303e-07
1.54393e-09
4.62228e-07
1.57533e-09
4.61409e-07
1.6122e-09
4.60569e-07
1.6562e-09
4.59706e-07
1.70961e-09
4.58813e-07
1.77552e-09
4.57883e-07
1.85823e-09
4.56906e-07
1.96378e-09
4.5587e-07
2.10088e-09
4.54756e-07
2.28234e-09
4.53538e-07
2.52767e-09
4.52179e-07
2.86803e-09
4.50624e-07
3.35498e-09
4.48788e-07
4.08294e-09
4.46544e-07
5.22294e-09
4.43678e-07
7.18255e-09
4.39874e-07
1.06529e-08
4.34609e-07
1.83203e-08
3.28128e-08
4.2558e-07
-1.81859e-08
2.32795e-08
-3.48569e-08
3.34097e-08
-5.06859e-08
4.02447e-08
-6.62429e-08
4.53579e-08
-8.18717e-08
4.90358e-08
-9.76556e-08
5.14773e-08
-1.13521e-07
5.28714e-08
-1.29326e-07
5.33822e-08
-1.44906e-07
5.31465e-08
-1.60104e-07
5.2276e-08
-1.74776e-07
5.08597e-08
-1.88799e-07
4.89696e-08
-2.02068e-07
4.6665e-08
-2.14495e-07
4.39964e-08
-2.26005e-07
4.10082e-08
-2.36536e-07
3.77403e-08
-2.46034e-07
3.42298e-08
-2.54454e-07
3.05111e-08
-2.61756e-07
2.66164e-08
-2.67906e-07
2.25767e-08
-2.72876e-07
1.84213e-08
-2.76637e-07
1.41783e-08
-2.79166e-07
9.87482e-09
-2.80435e-07
5.53647e-09
-2.80415e-07
1.18581e-09
-2.79077e-07
-3.15956e-09
-2.7641e-07
-7.48289e-09
-2.72412e-07
-1.17639e-08
-2.6709e-07
-1.59809e-08
-2.60463e-07
-2.0112e-08
-2.52558e-07
-2.41352e-08
-2.43412e-07
-2.80291e-08
-2.33069e-07
-3.17731e-08
-2.21581e-07
-3.53475e-08
-2.09007e-07
-3.87339e-08
-1.95411e-07
-4.19154e-08
-1.80863e-07
-4.48772e-08
-1.65434e-07
-4.76066e-08
-1.49204e-07
-5.00929e-08
-1.32249e-07
-5.23279e-08
-1.14652e-07
-5.43061e-08
-9.64917e-08
-5.60239e-08
-7.78498e-08
-5.74805e-08
-5.88047e-08
-5.8677e-08
-3.94332e-08
-5.96172e-08
-1.98103e-08
-6.03075e-08
-1.46337e-11
-6.07556e-08
1.98697e-08
-6.09701e-08
3.97671e-08
-6.09618e-08
5.96126e-08
-6.07406e-08
7.93447e-08
-6.03177e-08
9.89046e-08
-5.97054e-08
1.18237e-07
-5.89163e-08
1.3729e-07
-5.79636e-08
1.56015e-07
-5.68605e-08
1.74369e-07
-5.56203e-08
1.92312e-07
-5.42564e-08
2.09807e-07
-5.27822e-08
2.26821e-07
-5.12108e-08
2.43328e-07
-4.95554e-08
2.59302e-07
-4.78287e-08
2.74721e-07
-4.60435e-08
2.89571e-07
-4.4212e-08
3.03835e-07
-4.23462e-08
3.17506e-07
-4.04577e-08
3.30575e-07
-3.85576e-08
3.43039e-07
-3.66564e-08
3.54899e-07
-3.47641e-08
3.66157e-07
-3.28899e-08
3.76818e-07
-3.10425e-08
3.8689e-07
-2.92296e-08
3.96384e-07
-2.74583e-08
4.05312e-07
-2.57348e-08
4.1369e-07
-2.40645e-08
4.21532e-07
-2.24517e-08
4.28857e-07
-2.09002e-08
4.35684e-07
-1.94127e-08
4.42032e-07
-1.79915e-08
4.47921e-07
-1.66377e-08
4.53374e-07
-1.53519e-08
4.58411e-07
-1.41343e-08
4.63053e-07
-1.29842e-08
4.67322e-07
-1.19005e-08
4.71238e-07
-1.08819e-08
4.74823e-07
-9.92647e-09
4.78096e-07
-9.03215e-09
4.81076e-07
-8.1966e-09
4.83783e-07
-7.41735e-09
4.86235e-07
-6.6918e-09
4.88448e-07
-6.01729e-09
4.9044e-07
-5.39114e-09
4.92225e-07
-4.81067e-09
4.93819e-07
-4.27323e-09
4.95235e-07
-3.77623e-09
4.96487e-07
-3.31711e-09
4.97587e-07
-2.89341e-09
4.98546e-07
-2.50273e-09
4.99375e-07
-2.14276e-09
5.00084e-07
-1.81134e-09
5.00683e-07
-1.50635e-09
5.01179e-07
-1.2258e-09
5.01583e-07
-9.67786e-10
5.019e-07
-7.3051e-10
5.02138e-07
-5.12292e-10
5.02306e-07
-3.11504e-10
5.02409e-07
-1.26052e-10
5.02454e-07
4.576e-11
5.02445e-07
2.04347e-10
5.02385e-07
3.49887e-10
5.02277e-07
4.82949e-10
5.02124e-07
6.04351e-10
5.0193e-07
7.14982e-10
5.01697e-07
8.15777e-10
5.0143e-07
9.07666e-10
5.01129e-07
9.91496e-10
5.008e-07
1.06804e-09
5.00442e-07
1.13799e-09
5.0006e-07
1.20199e-09
4.99655e-07
1.26059e-09
4.99229e-07
1.31431e-09
4.98783e-07
1.36361e-09
4.9832e-07
1.40892e-09
4.9784e-07
1.45062e-09
4.97345e-07
1.48909e-09
4.96836e-07
1.52464e-09
4.96314e-07
1.55758e-09
4.95781e-07
1.5882e-09
4.95236e-07
1.61675e-09
4.9468e-07
1.64347e-09
4.94115e-07
1.66858e-09
4.9354e-07
1.69227e-09
4.92957e-07
1.71472e-09
4.92366e-07
1.73609e-09
4.91767e-07
1.75652e-09
4.91161e-07
1.77614e-09
4.90547e-07
1.79508e-09
4.89927e-07
1.81343e-09
4.893e-07
1.8313e-09
4.88666e-07
1.84876e-09
4.88026e-07
1.86591e-09
4.8738e-07
1.88282e-09
4.86728e-07
1.89956e-09
4.8607e-07
1.91621e-09
4.85406e-07
1.93283e-09
4.84736e-07
1.94951e-09
4.8406e-07
1.96629e-09
4.83379e-07
1.98327e-09
4.82691e-07
2.00052e-09
4.81997e-07
2.01812e-09
4.81297e-07
2.03616e-09
4.8059e-07
2.05472e-09
4.79878e-07
2.0739e-09
4.79158e-07
2.09383e-09
4.78431e-07
2.11465e-09
4.77697e-07
2.13651e-09
4.76955e-07
2.15963e-09
4.76205e-07
2.18429e-09
4.75446e-07
2.21083e-09
4.74678e-07
2.23969e-09
4.73899e-07
2.27148e-09
4.73109e-07
2.30696e-09
4.72306e-07
2.34717e-09
4.71488e-07
2.39344e-09
4.70653e-07
2.44757e-09
4.69797e-07
2.51196e-09
4.68917e-07
2.58986e-09
4.68006e-07
2.68568e-09
4.67059e-07
2.80553e-09
4.66065e-07
2.95793e-09
4.65011e-07
3.15508e-09
4.63878e-07
3.41481e-09
4.62642e-07
3.76392e-09
4.61266e-07
4.2443e-09
4.59697e-07
4.92386e-09
4.57859e-07
5.9212e-09
4.55637e-07
7.4444e-09
4.52885e-07
9.93471e-09
4.49399e-07
1.41389e-08
4.45441e-07
2.22784e-08
3.66969e-08
4.41557e-07
-1.93957e-08
4.26753e-08
-3.73057e-08
5.13196e-08
-5.39779e-08
5.69168e-08
-6.97868e-08
6.11668e-08
-8.50458e-08
6.42948e-08
-9.99451e-08
6.63766e-08
-1.14564e-07
6.74905e-08
-1.28905e-07
6.77234e-08
-1.42924e-07
6.71653e-08
-1.56551e-07
6.59025e-08
-1.69705e-07
6.40141e-08
-1.82306e-07
6.15706e-08
-1.94275e-07
5.8634e-08
-2.05538e-07
5.52594e-08
-2.16026e-07
5.14959e-08
-2.25674e-07
4.73882e-08
-2.34421e-07
4.29773e-08
-2.42211e-07
3.83013e-08
-2.48991e-07
3.33958e-08
-2.54709e-07
2.8295e-08
-2.59319e-07
2.30313e-08
-2.62777e-07
1.76362e-08
-2.65042e-07
1.21402e-08
-2.66078e-07
6.57281e-09
-2.65855e-07
9.6249e-10
-2.64351e-07
-4.66371e-09
-2.61556e-07
-1.0278e-08
-2.57469e-07
-1.58508e-08
-2.52098e-07
-2.13515e-08
-2.45461e-07
-2.67489e-08
-2.37584e-07
-3.20121e-08
-2.28502e-07
-3.71112e-08
-2.18258e-07
-4.2017e-08
-2.06904e-07
-4.67023e-08
-1.94495e-07
-5.1142e-08
-1.81098e-07
-5.53131e-08
-1.66779e-07
-5.91957e-08
-1.51613e-07
-6.2773e-08
-1.35675e-07
-6.60312e-08
-1.19043e-07
-6.89601e-08
-1.01796e-07
-7.15527e-08
-8.40143e-08
-7.38054e-08
-6.57769e-08
-7.57179e-08
-4.71614e-08
-7.72925e-08
-2.82436e-08
-7.85349e-08
-9.09804e-09
-7.94531e-08
1.02019e-08
-8.00555e-08
2.95854e-08
-8.03536e-08
4.89848e-08
-8.03612e-08
6.83365e-08
-8.00923e-08
8.75808e-08
-7.95621e-08
1.06662e-07
-7.87864e-08
1.25527e-07
-7.77819e-08
1.44129e-07
-7.65651e-08
1.62422e-07
-7.51531e-08
1.80364e-07
-7.35628e-08
1.97919e-07
-7.18113e-08
2.15052e-07
-6.99154e-08
2.31733e-07
-6.78919e-08
2.47935e-07
-6.57573e-08
2.63634e-07
-6.35278e-08
2.7881e-07
-6.12195e-08
2.93446e-07
-5.88479e-08
3.07528e-07
-5.64283e-08
3.21046e-07
-5.39753e-08
3.33991e-07
-5.1503e-08
3.4636e-07
-4.90251e-08
3.5815e-07
-4.65542e-08
3.69363e-07
-4.41025e-08
3.80001e-07
-4.16812e-08
3.90072e-07
-3.93005e-08
3.99584e-07
-3.69697e-08
4.08546e-07
-3.46973e-08
4.16972e-07
-3.24904e-08
4.24876e-07
-3.03553e-08
4.32273e-07
-2.82971e-08
4.3918e-07
-2.63199e-08
4.45615e-07
-2.44269e-08
4.51598e-07
-2.26203e-08
4.57147e-07
-2.09012e-08
4.62283e-07
-1.92701e-08
4.67025e-07
-1.77266e-08
4.71395e-07
-1.62698e-08
4.75411e-07
-1.48981e-08
4.79094e-07
-1.36094e-08
4.82463e-07
-1.24012e-08
4.85537e-07
-1.12707e-08
4.88334e-07
-1.02149e-08
4.90873e-07
-9.23039e-09
4.9317e-07
-8.31397e-09
4.95241e-07
-7.46216e-09
4.97101e-07
-6.67151e-09
4.98767e-07
-5.93858e-09
5.00251e-07
-5.25998e-09
5.01566e-07
-4.63239e-09
5.02725e-07
-4.05253e-09
5.0374e-07
-3.51727e-09
5.0462e-07
-3.02359e-09
5.05378e-07
-2.56859e-09
5.06021e-07
-2.14949e-09
5.06559e-07
-1.7637e-09
5.07e-07
-1.40872e-09
5.07351e-07
-1.0822e-09
5.07621e-07
-7.81979e-10
5.07815e-07
-5.0597e-10
5.07941e-07
-2.51942e-10
5.08005e-07
-1.77409e-11
5.08011e-07
1.98105e-10
5.07964e-07
3.96664e-10
5.07868e-07
5.78953e-10
5.07727e-07
7.46043e-10
5.07543e-07
8.99043e-10
5.07319e-07
1.03904e-09
5.0706e-07
1.16712e-09
5.06767e-07
1.28432e-09
5.06443e-07
1.39159e-09
5.06092e-07
1.48981e-09
5.05714e-07
1.57981e-09
5.05312e-07
1.66233e-09
5.04888e-07
1.73806e-09
5.04444e-07
1.80763e-09
5.03982e-07
1.87161e-09
5.03502e-07
1.93054e-09
5.03006e-07