/*--------------------------------*- C++ -*----------------------------------*\
  =========                 |
  \\      /  F ield         | OpenFOAM: The Open Source CFD Toolbox
   \\    /   O peration     | Website:  https://openfoam.org
    \\  /    A nd           | Version:  6
     \\/     M anipulation  |
\*---------------------------------------------------------------------------*/
FoamFile
{
    version     2.0;
    format      ascii;
    class       volVectorField;
    location    "0.06";
    object      U;
}
// * * * * * * * * * * * * * * * * * * * * * * * * * * * * * * * * * * * * * //

dimensions      [0 1 -1 0 0 0 0];

internalField   nonuniform List<vector> 
12225
(
(0.948798 -0.405349 0)
(1.01282 -0.190425 0)
(1.01507 -0.0513187 0)
(0.984098 -0.00518469 0)
(0.956622 0.00441391 0)
(0.938957 0.00407749 0)
(0.927669 0.0023902 0)
(0.920138 0.0012412 0)
(0.915032 0.000637507 0)
(0.911527 0.000312538 0)
(0.909151 9.97772e-05 0)
(0.907687 -7.53305e-05 0)
(0.907067 -0.000232707 0)
(0.907141 -0.000374125 0)
(0.907881 -0.000569746 0)
(0.910102 -0.000807908 0)
(0.913055 -0.00178898 0)
(0.926266 -0.0030616 0)
(1.03693 0.0761084 0)
(1.02001 0.0532499 0)
(1.01154 0.0192706 0)
(1.00483 0.00884053 0)
(0.998925 0.00648438 0)
(0.992774 0.00496866 0)
(0.986372 0.00362489 0)
(0.980762 0.00266354 0)
(0.97646 0.00199999 0)
(0.973334 0.00148763 0)
(0.971141 0.00104955 0)
(0.969734 0.000645996 0)
(0.96905 0.00025537 0)
(0.969194 -0.000152591 0)
(0.970189 -0.000697906 0)
(0.972374 -0.00148344 0)
(0.975615 -0.00352663 0)
(0.981172 -0.00716192 0)
(0.998323 0.0131099 0)
(0.995428 0.0118074 0)
(1.00108 0.00622162 0)
(1.0025 0.00626076 0)
(1.00228 0.0066554 0)
(1.00097 0.00584344 0)
(0.998418 0.00463874 0)
(0.995514 0.00359153 0)
(0.993005 0.00275197 0)
(0.991096 0.00204455 0)
(0.989785 0.00141452 0)
(0.98906 0.000817884 0)
(0.988917 0.000206411 0)
(0.989421 -0.000476248 0)
(0.990621 -0.00135638 0)
(0.992699 -0.00261975 0)
(0.995436 -0.00504545 0)
(0.998762 -0.00914508 0)
(0.995113 -0.00698214 0)
(0.992582 0.00113894 0)
(0.998899 0.00371335 0)
(1.00146 0.00559409 0)
(1.00272 0.0065356 0)
(1.00331 0.00611757 0)
(1.00276 0.00513641 0)
(1.00159 0.00414027 0)
(1.0004 0.00323944 0)
(0.999466 0.00241295 0)
(0.998887 0.00163222 0)
(0.998722 0.000860264 0)
(0.999012 4.4113e-05 0)
(0.999813 -0.00088523 0)
(1.00116 -0.00205906 0)
(1.00313 -0.00367051 0)
(1.00549 -0.00626671 0)
(1.00786 -0.0100736 0)
(0.996679 -0.00696462 0)
(0.993927 0.000683756 0)
(0.998375 0.00345568 0)
(1.00073 0.00507906 0)
(1.00249 0.00609585 0)
(1.00395 0.00596496 0)
(1.00452 0.00522469 0)
(1.00448 0.0043418 0)
(1.00425 0.00344705 0)
(1.00409 0.00255647 0)
(1.00412 0.00166434 0)
(1.00444 0.000744226 0)
(1.00509 -0.000254058 0)
(1.00614 -0.00140193 0)
(1.0076 -0.0028219 0)
(1.00949 -0.00468127 0)
(1.01159 -0.00732761 0)
(1.01349 -0.0108289 0)
(0.997835 -0.00419051 0)
(0.995268 0.00108553 0)
(0.998208 0.00310244 0)
(1.00026 0.00445922 0)
(1.00216 0.00547399 0)
(1.00399 0.00553708 0)
(1.00519 0.00500066 0)
(1.00587 0.00424008 0)
(1.00634 0.0033829 0)
(1.00677 0.00246445 0)
(1.0073 0.00149382 0)
(1.00801 0.000454017 0)
(1.00896 -0.000698665 0)
(1.01021 -0.00203068 0)
(1.01176 -0.00364651 0)
(1.01359 -0.00567594 0)
(1.01551 -0.00832191 0)
(1.01719 -0.0115765 0)
(0.998459 -0.00263203 0)
(0.99633 0.000934406 0)
(0.9983 0.00258176 0)
(1.00005 0.00381194 0)
(1.0019 0.0047761 0)
(1.00383 0.00494859 0)
(1.00536 0.00456114 0)
(1.00649 0.00390381 0)
(1.00743 0.00308974 0)
(1.00831 0.00216084 0)
(1.00921 0.00113335 0)
(1.01023 -2.97638e-06 0)
(1.01143 -0.00128425 0)
(1.01283 -0.00276748 0)
(1.01445 -0.0045354 0)
(1.01623 -0.00668036 0)
(1.01804 -0.00930919 0)
(1.01962 -0.0123816 0)
(0.998893 -0.00181025 0)
(0.997242 0.000689842 0)
(0.99858 0.00211003 0)
(1.00005 0.0032015 0)
(1.00176 0.00405874 0)
(1.00364 0.00426944 0)
(1.0053 0.00397547 0)
(1.0067 0.00339152 0)
(1.00794 0.00261163 0)
(1.00912 0.00167652 0)
(1.01031 0.000604106 0)
(1.01156 -0.000611605 0)
(1.01293 -0.00199926 0)
(1.01444 -0.00360465 0)
(1.01609 -0.00548907 0)
(1.01783 -0.00771302 0)
(1.01956 -0.0103244 0)
(1.02112 -0.0132765 0)
(0.999243 -0.00121704 0)
(0.998029 0.0005475 0)
(0.998948 0.00172738 0)
(1.00018 0.00263948 0)
(1.00171 0.00335031 0)
(1.00347 0.00354334 0)
(1.00515 0.00329247 0)
(1.00668 0.00274917 0)
(1.0081 0.00198735 0)
(1.00947 0.00104215 0)
(1.01084 -7.00952e-05 0)
(1.01225 -0.00135304 0)
(1.01373 -0.00282863 0)
(1.0153 -0.00453157 0)
(1.01696 -0.00650454 0)
(1.01865 -0.00878372 0)
(1.02032 -0.0113845 0)
(1.02186 -0.0142675 0)
(0.999512 -0.000753078 0)
(0.998676 0.000473503 0)
(0.999332 0.00140406 0)
(1.00037 0.00212073 0)
(1.00173 0.00266539 0)
(1.00334 0.00279911 0)
(1.00497 0.00254843 0)
(1.00653 0.00201447 0)
(1.00804 0.00125201 0)
(1.00951 0.000288633 0)
(1.01098 -0.000862639 0)
(1.01247 -0.00220436 0)
(1.01401 -0.00375283 0)
(1.0156 -0.00553306 0)
(1.01724 -0.00757293 0)
(1.01888 -0.00989191 0)
(1.02048 -0.0124899 0)
(1.02199 -0.0153395 0)
(0.999703 -0.000423744 0)
(0.999181 0.000413269 0)
(0.999688 0.00111107 0)
(1.00058 0.00163556 0)
(1.00179 0.00200816 0)
(1.00325 0.00205337 0)
(1.00479 0.00176853 0)
(1.00632 0.00121641 0)
(1.00784 0.000434911 0)
(1.00934 -0.000556302 0)
(1.01085 -0.00174812 0)
(1.01237 -0.00314274 0)
(1.01391 -0.00475201 0)
(1.01547 -0.00659308 0)
(1.01705 -0.00868303 0)
(1.01862 -0.0110309 0)
(1.02013 -0.0136309 0)
(1.02158 -0.0164672 0)
(0.999819 -0.000228806 0)
(0.999524 0.00034845 0)
(0.999963 0.000854042 0)
(1.00076 0.00121258 0)
(1.00185 0.0014308 0)
(1.00319 0.00137881 0)
(1.00462 0.00103998 0)
(1.00609 0.000451559 0)
(1.00757 -0.000361573 0)
(1.00905 -0.00138636 0)
(1.01054 -0.00261711 0)
(1.01203 -0.00405606 0)
(1.01353 -0.00571197 0)
(1.01504 -0.00759654 0)
(1.01654 -0.00972012 0)
(1.01801 -0.0120862 0)
(1.01943 -0.0146881 0)
(1.0208 -0.0175178 0)
(0.999899 -0.000112566 0)
(0.999776 0.000268194 0)
(1.00018 0.000600526 0)
(1.00092 0.000804651 0)
(1.00191 0.000876198 0)
(1.00312 0.000720529 0)
(1.00445 0.00031488 0)
(1.00583 -0.000321908 0)
(1.00724 -0.00117555 0)
(1.00867 -0.00223866 0)
(1.0101 -0.00350851 0)
(1.01154 -0.00498754 0)
(1.01297 -0.00668215 0)
(1.01439 -0.00860002 0)
(1.01579 -0.0107468 0)
(1.01716 -0.0131229 0)
(1.01846 -0.0157224 0)
(1.01971 -0.0185441 0)
(0.999956 -5.12463e-05 0)
(0.999969 0.000151451 0)
(1.00036 0.000310315 0)
(1.00104 0.000353028 0)
(1.00193 0.000268166 0)
(1.00302 -8.2292e-06 0)
(1.00423 -0.000500548 0)
(1.0055 -0.00120359 0)
(1.00681 -0.0021117 0)
(1.00814 -0.00322256 0)
(1.00947 -0.00453622 0)
(1.01081 -0.00605539 0)
(1.01213 -0.00778464 0)
(1.01342 -0.0097285 0)
(1.01468 -0.0118894 0)
(1.01589 -0.0142659 0)
(1.01703 -0.0168534 0)
(1.01812 -0.0196558 0)
(0.999991 -4.44812e-05 0)
(1.0001 -1.25983e-05 0)
(1.00048 -2.79086e-05 0)
(1.0011 -0.000149987 0)
(1.00191 -0.000395108 0)
(1.00287 -0.000803699 0)
(1.00394 -0.00139813 0)
(1.00507 -0.0021819 0)
(1.00625 -0.00315554 0)
(1.00744 -0.00432056 0)
(1.00863 -0.00567916 0)
(1.00981 -0.00723426 0)
(1.01096 -0.00898903 0)
(1.01208 -0.0109458 0)
(1.01315 -0.0131048 0)
(1.01416 -0.0154635 0)
(1.01509 -0.0180185 0)
(1.01595 -0.0207758 0)
(1.00001 -8.38062e-05 0)
(1.00016 -0.000224502 0)
(1.00052 -0.000416919 0)
(1.00108 -0.00070539 0)
(1.0018 -0.00110884 0)
(1.00263 -0.00165303 0)
(1.00355 -0.00235645 0)
(1.00453 -0.00322697 0)
(1.00553 -0.00426897 0)
(1.00654 -0.00548632 0)
(1.00754 -0.00688248 0)
(1.00852 -0.00846038 0)
(1.00945 -0.0102221 0)
(1.01034 -0.0121684 0)
(1.01117 -0.0142982 0)
(1.01192 -0.0166081 0)
(1.01258 -0.0190947 0)
(1.01317 -0.0217641 0)
(1.00001 -0.000154981 0)
(1.00017 -0.000474946 0)
(1.0005 -0.00084699 0)
(1.00098 -0.00130161 0)
(1.00159 -0.00185692 0)
(1.00228 -0.00253093 0)
(1.00304 -0.00333841 0)
(1.00383 -0.0042887 0)
(1.00463 -0.00538819 0)
(1.00543 -0.00664197 0)
(1.00619 -0.00805402 0)
(1.00692 -0.00962703 0)
(1.00759 -0.0113623 0)
(1.0082 -0.0132593 0)
(1.00873 -0.015316 0)
(1.00917 -0.0175282 0)
(1.00952 -0.0198919 0)
(1.00977 -0.0224112 0)
(1.00001 -0.000240616 0)
(1.00015 -0.000742066 0)
(1.00042 -0.00129123 0)
(1.00081 -0.00190655 0)
(1.00129 -0.00260143 0)
(1.00183 -0.00338912 0)
(1.0024 -0.00428147 0)
(1.00299 -0.00528777 0)
(1.00356 -0.00641536 0)
(1.00411 -0.00767008 0)
(1.00461 -0.0090562 0)
(1.00505 -0.0105762 0)
(1.00542 -0.012231 0)
(1.00571 -0.0140193 0)
(1.00591 -0.0159382 0)
(1.00601 -0.0179831 0)
(1.006 -0.0201493 0)
(1.00589 -0.0224384 0)
(1.00001 -0.000321342 0)
(1.0001 -0.000990736 0)
(1.00028 -0.00170433 0)
(1.00055 -0.0024642 0)
(1.0009 -0.00327507 0)
(1.00127 -0.00414577 0)
(1.00166 -0.00508509 0)
(1.00204 -0.00610159 0)
(1.00238 -0.00720352 0)
(1.00267 -0.00839786 0)
(1.0029 -0.00968968 0)
(1.00304 -0.011082 0)
(1.00309 -0.0125759 0)
(1.00305 -0.0141704 0)
(1.00291 -0.0158628 0)
(1.00266 -0.0176486 0)
(1.0023 -0.0195229 0)
(1.00183 -0.021486 0)
(0.999998 -0.000354289 0)
(1 -0.00112507 0)
(1.00008 -0.00195703 0)
(1.00026 -0.00281847 0)
(1.0005 -0.00370361 0)
(1.00077 -0.00461582 0)
(1.00104 -0.00555768 0)
(1.00129 -0.00653607 0)
(1.00148 -0.00756116 0)
(1.0016 -0.00864237 0)
(1.00164 -0.00978692 0)
(1.00158 -0.0109998 0)
(1.00141 -0.0122837 0)
(1.00113 -0.0136393 0)
(1.00074 -0.0150652 0)
(1.00023 -0.0165584 0)
(0.999615 -0.018115 0)
(0.99888 -0.0197345 0)
(0.999973 -0.000307215 0)
(0.999832 -0.00112221 0)
(0.999795 -0.00205851 0)
(0.999899 -0.00300798 0)
(1.00009 -0.0039593 0)
(1.00033 -0.00490735 0)
(1.00058 -0.00584264 0)
(1.00079 -0.0067716 0)
(1.00093 -0.00770958 0)
(1.00097 -0.00867058 0)
(1.00091 -0.0096655 0)
(1.00073 -0.0107026 0)
(1.00042 -0.0117875 0)
(0.999988 -0.0129231 0)
(0.999429 -0.0141101 0)
(0.998746 -0.0153469 0)
(0.997944 -0.0166312 0)
(0.997023 -0.0179624 0)
(0.999902 -0.00013074 0)
(0.999479 -0.000977875 0)
(0.999305 -0.00206186 0)
(0.99939 -0.00312731 0)
(0.999608 -0.00417462 0)
(0.999905 -0.0051762 0)
(1.00022 -0.00610251 0)
(1.00047 -0.00696747 0)
(1.00062 -0.00779935 0)
(1.00063 -0.00862066 0)
(1.0005 -0.0094485 0)
(1.00022 -0.0102964 0)
(0.999797 -0.0111741 0)
(0.999225 -0.0120874 0)
(0.998513 -0.0130392 0)
(0.997667 -0.0140296 0)
(0.996695 -0.0150575 0)
(0.995604 -0.0161225 0)
(0.999754 0.000228664 0)
(0.998835 -0.000723376 0)
(0.998552 -0.00203036 0)
(0.998725 -0.00325097 0)
(0.99908 -0.00444216 0)
(0.999547 -0.00551576 0)
(1.00001 -0.00641684 0)
(1.00036 -0.00718751 0)
(1.00053 -0.00788154 0)
(1.00051 -0.00853441 0)
(1.0003 -0.0091721 0)
(0.999899 -0.0098151 0)
(0.999325 -0.0104776 0)
(0.998587 -0.0111682 0)
(0.997695 -0.0118913 0)
(0.996663 -0.0126482 0)
(0.995503 -0.0134383 0)
(0.994224 -0.014261 0)
(0.999503 0.000888221 0)
(0.9978 -0.000453003 0)
(0.997546 -0.00209185 0)
(0.997985 -0.00348408 0)
(0.998612 -0.00485237 0)
(0.999365 -0.00598618 0)
(1.00004 -0.00681127 0)
(1.00047 -0.00743127 0)
(1.00061 -0.00793899 0)
(1.00049 -0.0083857 0)
(1.00012 -0.00880739 0)
(0.999524 -0.0092314 0)
(0.998727 -0.00967527 0)
(0.997755 -0.0101485 0)
(0.996627 -0.0106555 0)
(0.99536 -0.0111974 0)
(0.993971 -0.0117728 0)
(0.992473 -0.0123805 0)
(0.998974 0.0024856 0)
(0.996155 1.24689e-05 0)
(0.996375 -0.00229573 0)
(0.997373 -0.00392175 0)
(0.998404 -0.00547132 0)
(0.999506 -0.00659549 0)
(1.00036 -0.00724844 0)
(1.00076 -0.00763595 0)
(1.00073 -0.0078981 0)
(1.00035 -0.00810062 0)
(0.999672 -0.00828717 0)
(0.998745 -0.0084887 0)
(0.997613 -0.0087223 0)
(0.996313 -0.00899512 0)
(0.994872 -0.00930901 0)
(0.99331 -0.00966293 0)
(0.991644 -0.0100538 0)
(0.98989 -0.0104786 0)
(0.997455 0.00610668 0)
(0.993375 0.00138949 0)
(0.995113 -0.00230609 0)
(0.997172 -0.00449741 0)
(0.99871 -0.00627032 0)
(1.0001 -0.00726311 0)
(1.00094 -0.00761174 0)
(1.00104 -0.00767404 0)
(1.00055 -0.00763668 0)
(0.999653 -0.00757262 0)
(0.998449 -0.00752553 0)
(0.997014 -0.00752232 0)
(0.99541 -0.00757326 0)
(0.993678 -0.00767868 0)
(0.991845 -0.00783507 0)
(0.989929 -0.00803765 0)
(0.987943 -0.0082808 0)
(0.985902 -0.0085593 0)
(0.994443 0.00857108 0)
(0.989396 0.00222159 0)
(0.993935 -0.00210823 0)
(0.997631 -0.00505717 0)
(0.999736 -0.0070867 0)
(1.00114 -0.00778628 0)
(1.00147 -0.00768975 0)
(1.00074 -0.00735491 0)
(0.999335 -0.0069996 0)
(0.997551 -0.00668609 0)
(0.995545 -0.00644339 0)
(0.993405 -0.00628323 0)
(0.991188 -0.00620195 0)
(0.988927 -0.00618924 0)
(0.986635 -0.00623464 0)
(0.984319 -0.00632934 0)
(0.981982 -0.0064655 0)
(0.979634 -0.00663541 0)
(0.994523 -0.00660813 0)
(0.989432 -0.00853359 0)
(0.995302 -0.00539167 0)
(0.999609 -0.00641032 0)
(1.00167 -0.00789041 0)
(1.00217 -0.00793816 0)
(1.00091 -0.00724995 0)
(0.998389 -0.00650326 0)
(0.995347 -0.00588372 0)
(0.992198 -0.00540054 0)
(0.989079 -0.00504496 0)
(0.986037 -0.00480369 0)
(0.983083 -0.00465634 0)
(0.980214 -0.00458213 0)
(0.977415 -0.00456507 0)
(0.974669 -0.0045942 0)
(0.971965 -0.00466181 0)
(0.969297 -0.00475513 0)
(1.02646 -0.0702274 0)
(1.01701 -0.0623994 0)
(1.01167 -0.0292587 0)
(1.00812 -0.0149782 0)
(1.00503 -0.0105034 0)
(1.00078 -0.00807927 0)
(0.995047 -0.00627405 0)
(0.988859 -0.0050656 0)
(0.983096 -0.00430436 0)
(0.977985 -0.00380869 0)
(0.973428 -0.00347652 0)
(0.969297 -0.00325865 0)
(0.965496 -0.00312341 0)
(0.961948 -0.00304727 0)
(0.95859 -0.00301464 0)
(0.955375 -0.00301758 0)
(0.952276 -0.00305421 0)
(0.949277 -0.00314546 0)
(0.966205 0.350114 0)
(1.02688 0.19408 0)
(1.0325 0.0677829 0)
(1.00411 0.0151594 0)
(0.975516 -0.00137368 0)
(0.955029 -0.00444048 0)
(0.940616 -0.00374989 0)
(0.929983 -0.00263414 0)
(0.921838 -0.00185488 0)
(0.915298 -0.00140517 0)
(0.909738 -0.00116222 0)
(0.904788 -0.00103745 0)
(0.90025 -0.000979683 0)
(0.896004 -0.000960287 0)
(0.891968 -0.000963798 0)
(0.888083 -0.000984354 0)
(0.884292 -0.00101755 0)
(0.880553 -0.00111347 0)
(0.00255138 -0.0106623 -1.90665e-21)
(0.00511852 0.00196118 1.79447e-21)
(-0.0013518 0.0117177 0)
(-0.0128634 0.0169093 0)
(-0.0269385 0.0193656 0)
(-0.042474 0.0205748 -1.53866e-21)
(-0.0589245 0.0211873 0)
(-0.075915 0.0214525 0)
(-0.0931706 0.0214762 0)
(-0.110479 0.0213029 0)
(-0.127659 0.0209485 1.36178e-21)
(-0.144549 0.0204168 0)
(-0.160994 0.0197082 0)
(-0.176847 0.0188232 0)
(-0.191968 0.0177645 0)
(-0.206222 0.0165376 1.23829e-21)
(-0.219482 0.0151506 0)
(-0.231633 0.0136141 0)
(-0.242565 0.0119414 0)
(-0.252181 0.0101479 0)
(-0.260397 0.00825228 0)
(-0.267138 0.00627788 0)
(-0.272349 0.0042564 0)
(-0.275986 0.00223055 9.01616e-22)
(-0.278014 0.000261173 -8.35679e-22)
(-0.278349 -0.00157722 7.61902e-22)
(-0.277209 -0.00326897 6.80699e-22)
(-0.274638 -0.00485462 0)
(-0.27068 -0.00636488 0)
(-0.26538 -0.0078126 -3.94587e-22)
(-0.258782 -0.00920211 -2.84983e-22)
(-0.25093 -0.0105336 0)
(-0.24187 -0.0118051 0)
(-0.231656 -0.0130137 8.5517e-23)
(-0.220343 -0.0141557 0)
(-0.207993 -0.0152276 0)
(-0.194673 -0.0162257 -5.14901e-22)
(-0.180453 -0.0171466 0)
(-0.165408 -0.0179864 -8.30475e-22)
(-0.149616 -0.0187414 -1.99217e-21)
(-0.13316 -0.0194071 0)
(-0.116122 -0.019978 0)
(-0.0985903 -0.0204467 0)
(-0.0806527 -0.0208023 0)
(-0.0623998 -0.0210293 0)
(-0.043922 -0.0211084 -4.15003e-21)
(-0.0253006 -0.0210219 -4.53e-21)
(-0.00659076 -0.0207637 -4.79787e-21)
(0.0121699 -0.020372 0)
(0.0309224 -0.0199036 5.0043e-21)
(0.049583 -0.0193825 0)
(0.06808 -0.0188201 -5.12208e-21)
(0.0863515 -0.0182243 -5.15802e-21)
(0.104342 -0.0176012 0)
(0.122 -0.0169564 0)
(0.139281 -0.0162946 0)
(0.156144 -0.0156202 -5.18395e-21)
(0.172551 -0.0149376 0)
(0.188471 -0.0142508 0)
(0.203876 -0.0135634 0)
(0.218743 -0.012879 0)
(0.233051 -0.0122008 0)
(0.246788 -0.0115321 0)
(0.25994 -0.0108754 0)
(0.272503 -0.0102335 0)
(0.284472 -0.00960842 4.862e-21)
(0.295847 -0.00900231 0)
(0.306634 -0.00841686 0)
(0.316838 -0.00785347 -4.71194e-21)
(0.326469 -0.00731333 -4.66127e-21)
(0.33554 -0.00679731 0)
(0.344064 -0.00630602 4.5606e-21)
(0.352059 -0.00583984 -4.511e-21)
(0.359542 -0.0053989 0)
(0.366532 -0.00498311 4.41403e-21)
(0.37305 -0.00459219 0)
(0.379118 -0.00422568 0)
(0.384757 -0.00388298 -4.27566e-21)
(0.389988 -0.00356333 0)
(0.394835 -0.0032659 4.18882e-21)
(0.399318 -0.00298976 0)
(0.403459 -0.00273392 -4.10654e-21)
(0.40728 -0.00249736 -4.06711e-21)
(0.4108 -0.00227902 -4.02881e-21)
(0.41404 -0.00207784 -7.98326e-21)
(0.417018 -0.00189276 7.91106e-21)
(0.419753 -0.00172275 0)
(0.422262 -0.00156679 0)
(0.42456 -0.00142389 0)
(0.426665 -0.00129311 7.64291e-21)
(0.42859 -0.00117357 7.58071e-21)
(0.430349 -0.0010644 -7.5203e-21)
(0.431955 -0.000964834 0)
(0.43342 -0.000874125 7.4046e-21)
(0.434755 -0.000791581 7.34917e-21)
(0.435972 -0.000716546 7.29525e-21)
(0.437079 -0.000648402 0)
(0.438086 -0.000586566 0)
(0.439001 -0.000530491 0)
(0.439833 -0.000479661 7.09345e-21)
(0.440587 -0.000433593 0)
(0.441272 -0.000391743 0)
(0.441891 -0.000353577 -6.95492e-21)
(0.442451 -0.000318254 0)
(0.442956 -0.000281982 0)
(0.443393 -0.0002431 -6.82585e-21)
(0.443772 -0.00020624 0)
(0.444103 -0.000175407 0)
(0.444393 -0.000151016 6.70471e-21)
(0.444649 -0.000131819 6.66592e-21)
(0.444875 -0.000116497 0)
(0.445077 -0.000104021 -6.59045e-21)
(0.445256 -9.3636e-05 0)
(0.445417 -8.48196e-05 6.51749e-21)
(0.445561 -7.72315e-05 0)
(0.44569 -7.06498e-05 6.44678e-21)
(0.445806 -6.49217e-05 6.41218e-21)
(0.445911 -5.9934e-05 0)
(0.446005 -5.55971e-05 0)
(0.44609 -5.1836e-05 0)
(0.446167 -4.85851e-05 0)
(0.446238 -4.57864e-05 0)
(0.446302 -4.33876e-05 0)
(0.446361 -4.13414e-05 0)
(0.446416 -3.96053e-05 6.15031e-21)
(0.446467 -3.81407e-05 -6.11913e-21)
(0.446514 -3.69126e-05 0)
(0.446559 -3.58895e-05 0)
(0.446602 -3.50437e-05 0)
(0.446643 -3.43505e-05 0)
(0.446682 -3.37884e-05 -1.19345e-20)
(0.44672 -3.33389e-05 0)
(0.446756 -3.2986e-05 1.18162e-20)
(0.446792 -3.27157e-05 -1.17576e-20)
(0.446828 -3.25155e-05 0)
(0.446863 -3.23746e-05 0)
(0.446898 -3.22831e-05 0)
(0.446932 -3.22311e-05 1.15267e-20)
(0.446967 -3.22095e-05 1.14697e-20)
(0.447001 -3.22095e-05 0)
(0.447036 -3.22223e-05 1.13566e-20)
(0.447071 -3.2239e-05 1.13004e-20)
(0.447106 -3.22516e-05 -1.12445e-20)
(0.447141 -3.2252e-05 0)
(0.447176 -3.22324e-05 0)
(0.447211 -3.21851e-05 -1.10782e-20)
(0.447246 -3.21015e-05 0)
(0.447281 -3.19734e-05 0)
(0.447316 -3.17921e-05 0)
(0.447351 -3.15493e-05 0)
(0.447385 -3.12357e-05 1.08061e-20)
(0.447418 -3.08403e-05 1.07525e-20)
(0.447451 -3.03501e-05 0)
(0.447482 -2.97489e-05 1.06459e-20)
(0.447512 -2.90155e-05 0)
(0.44754 -2.81222e-05 0)
(0.447565 -2.70328e-05 1.04882e-20)
(0.447588 -2.57002e-05 0)
(0.447606 -2.40628e-05 1.03846e-20)
(0.44762 -2.20394e-05 0)
(0.447628 -1.95235e-05 0)
(0.447628 -1.63752e-05 1.02319e-20)
(0.447618 -1.24097e-05 0)
(0.447595 -7.38192e-06 1.01325e-20)
(0.447556 -9.63728e-07 0)
(0.447496 7.28729e-06 0)
(0.447409 1.79751e-05 0)
(0.447285 3.19369e-05 -9.94289e-21)
(0.447114 5.03541e-05 0)
(0.446878 7.49324e-05 9.85615e-21)
(0.446556 0.000108212 0)
(0.446113 0.0001541 0)
(0.445502 0.000218976 0)
(0.444644 0.000313569 0)
(0.443421 0.000458801 0)
(0.441586 0.000692206 0)
(0.438817 0.00112057 0)
(0.433775 0.00189299 -1.95705e-20)
(0.426507 0.00390788 0)
(0.403912 0.00694566 0)
(-0.00975971 -0.00199436 5.07528e-21)
(-0.0163538 0.0178788 -3.97629e-21)
(-0.027163 0.0315803 0)
(-0.0403611 0.0408681 1.99447e-21)
(-0.054886 0.0466691 0)
(-0.0703293 0.0500518 9.05557e-22)
(-0.0863934 0.0518062 -1.70652e-21)
(-0.102749 0.0524271 -1.65537e-21)
(-0.119095 0.0522168 0)
(-0.135178 0.0513598 -1.58286e-21)
(-0.150792 0.049971 -7.96111e-22)
(-0.165769 0.0481265 0)
(-0.17997 0.0458823 0)
(-0.193279 0.0432845 0)
(-0.205605 0.0403748 0)
(-0.216873 0.0371931 -7.29714e-22)
(-0.227026 0.0337784 0)
(-0.236022 0.030169 1.38692e-21)
(-0.243832 0.0264023 0)
(-0.25044 0.0225147 0)
(-0.255839 0.0185412 -1.26392e-21)
(-0.260035 0.014516 0)
(-0.263044 0.0104738 1.15145e-21)
(-0.264885 0.00645366 -5.23471e-22)
(-0.265583 0.00250329 4.83207e-22)
(-0.265196 -0.00132287 -4.38195e-22)
(-0.263626 -0.00499788 -3.89413e-22)
(-0.260819 -0.00852697 0)
(-0.256769 -0.0119149 0)
(-0.251482 -0.0151617 2.21637e-22)
(-0.244977 -0.0182626 -2.49461e-22)
(-0.237284 -0.0212096 0)
(-0.22844 -0.0239937 0)
(-0.21849 -0.0266054 -4.66274e-23)
(-0.207486 -0.0290357 0)
(-0.195483 -0.0312765 0)
(-0.182544 -0.033321 2.73765e-22)
(-0.168733 -0.0351638 0)
(-0.154121 -0.0368011 -2.90229e-22)
(-0.138778 -0.0382308 1.03132e-21)
(-0.122779 -0.039452 0)
(-0.106199 -0.0404655 0)
(-0.0891123 -0.0412729 2.74501e-21)
(-0.0715923 -0.0418765 3.07719e-21)
(-0.0537104 -0.0422789 3.41142e-21)
(-0.0355356 -0.0424822 -1.70956e-21)
(-0.017138 -0.0424869 2.19799e-21)
(0.00139603 -0.0422926 6.65499e-21)
(0.0199719 -0.0419126 -4.53711e-21)
(0.0385213 -0.0413732 -2.51841e-21)
(0.0569936 -0.0406952 0)
(0.0753368 -0.0398956 2.67883e-21)
(0.0934972 -0.0389886 -2.46945e-21)
(0.111424 -0.037987 0)
(0.129068 -0.0369026 0)
(0.146386 -0.035747 0)
(0.163338 -0.0345312 2.95413e-21)
(0.179886 -0.0332657 0)
(0.195998 -0.0319608 -5.83115e-21)
(0.211646 -0.0306262 0)
(0.226803 -0.0292713 -5.94798e-21)
(0.241449 -0.0279049 0)
(0.255567 -0.0265356 6.02995e-21)
(0.269143 -0.025171 0)
(0.282166 -0.0238186 -6.08221e-21)
(0.294629 -0.0224851 2.98054e-21)
(0.306528 -0.0211765 0)
(0.317864 -0.0198984 6.11518e-21)
(0.328639 -0.0186556 3.11361e-21)
(0.338858 -0.0174523 3.108e-21)
(0.348529 -0.016292 0)
(0.357661 -0.0151776 3.00373e-21)
(0.366268 -0.0141114 3.08193e-21)
(0.374363 -0.0130949 0)
(0.381962 -0.0121293 -3.05867e-21)
(0.389082 -0.0112151 6.0278e-21)
(0.395741 -0.0103523 0)
(0.401958 -0.00954041 3.01793e-21)
(0.407753 -0.0087787 0)
(0.413146 -0.00806599 -8.91959e-21)
(0.418157 -0.00740085 0)
(0.422806 -0.0067816 8.83438e-21)
(0.427114 -0.00620638 2.94171e-21)
(0.4311 -0.00567321 -2.8944e-21)
(0.434783 -0.00517999 -5.7627e-21)
(0.438182 -0.00472457 5.73618e-21)
(0.441317 -0.0043048 0)
(0.444203 -0.00391851 0)
(0.446858 -0.00356357 0)
(0.449297 -0.0032379 -1.6956e-20)
(0.451537 -0.00293951 -5.63357e-21)
(0.453592 -0.00266649 5.60341e-21)
(0.455474 -0.002417 0)
(0.457198 -0.00218932 5.5194e-21)
(0.458775 -0.00198179 -5.51522e-21)
(0.460217 -0.00179284 -5.48663e-21)
(0.461534 -0.00162098 0)
(0.462736 -0.0014648 0)
(0.463833 -0.00132299 0)
(0.464832 -0.0011943 -5.37644e-21)
(0.465742 -0.00107756 0)
(0.466571 -0.000971555 1.06361e-20)
(0.467325 -0.000875088 1.58838e-20)
(0.46801 -0.000786539 -1.0536e-20)
(0.468635 -0.000702822 0)
(0.469216 -0.000623234 -5.21522e-21)
(0.469751 -0.00055088 0)
(0.47024 -0.000487594 -1.03426e-20)
(0.470685 -0.000432803 5.14473e-21)
(0.471088 -0.000385247 5.12177e-21)
(0.471451 -0.000343836 0)
(0.471779 -0.000307667 1.52387e-20)
(0.472075 -0.000275967 -1.01127e-20)
(0.472342 -0.000248099 -5.03598e-21)
(0.472582 -0.000223556 0)
(0.472799 -0.000201928 -4.99187e-21)
(0.472995 -0.000182874 -1.49076e-20)
(0.473172 -0.000166104 0)
(0.473332 -0.000151368 -9.85217e-21)
(0.473477 -0.000138445 -9.81e-21)
(0.473609 -0.00012714 -9.76812e-21)
(0.473729 -0.000117277 0)
(0.473838 -0.0001087 0)
(0.473938 -0.000101264 0)
(0.47403 -9.48391e-05 4.80087e-21)
(0.474114 -8.93079e-05 4.78195e-21)
(0.474192 -8.45627e-05 0)
(0.474264 -8.05066e-05 9.48175e-21)
(0.474332 -7.70528e-05 9.44159e-21)
(0.474395 -7.41234e-05 0)
(0.474455 -7.16498e-05 9.36272e-21)
(0.474512 -6.95709e-05 1.86438e-20)
(0.474566 -6.78332e-05 -9.28318e-21)
(0.474618 -6.63895e-05 -9.24174e-21)
(0.474668 -6.51977e-05 0)
(0.474716 -6.42209e-05 0)
(0.474763 -6.34257e-05 0)
(0.474809 -6.27818e-05 -9.08565e-21)
(0.474854 -6.22615e-05 9.04474e-21)
(0.474899 -6.18394e-05 1.80124e-20)
(0.474943 -6.14918e-05 -8.96763e-21)
(0.474986 -6.11964e-05 8.92688e-21)
(0.47503 -6.09323e-05 8.88907e-21)
(0.475073 -6.06794e-05 0)
(0.475116 -6.04176e-05 0)
(0.475158 -6.01267e-05 -8.77005e-21)
(0.475201 -5.97858e-05 0)
(0.475243 -5.93735e-05 0)
(0.475286 -5.88679e-05 1.73069e-20)
(0.475328 -5.8247e-05 0)
(0.47537 -5.7487e-05 8.5748e-21)
(0.475411 -5.65614e-05 -8.53717e-21)
(0.475451 -5.54392e-05 0)
(0.475491 -5.40835e-05 8.45826e-21)
(0.47553 -5.2448e-05 0)
(0.475567 -5.04732e-05 0)
(0.475602 -4.80827e-05 -8.34355e-21)
(0.475635 -4.51773e-05 1.66091e-20)
(0.475665 -4.16279e-05 -8.26676e-21)
(0.475691 -3.72654e-05 0)
(0.475713 -3.18684e-05 0)
(0.475728 -2.51461e-05 8.15178e-21)
(0.475736 -1.67149e-05 0)
(0.475734 -6.06601e-06 8.07715e-21)
(0.475719 7.47995e-06 0)
(0.475689 2.48385e-05 0)
(0.475637 4.72568e-05 0)
(0.475557 7.64588e-05 7.93438e-21)
(0.475442 0.00011487 0)
(0.475278 0.000165976 -7.86824e-21)
(0.475051 0.000234941 0)
(0.474735 0.000329657 0)
(0.474301 0.000462856 1.55714e-20)
(0.473698 0.00065584 -1.55325e-20)
(0.472858 0.000948701 0)
(0.471654 0.00141482 0)
(0.469972 0.0022401 0)
(0.467263 0.00372599 4.6856e-20)
(0.464101 0.0072062 0)
(0.457225 0.013413 -3.21029e-20)
(-0.0141305 0.0269064 -1.16778e-22)
(-0.0250026 0.0464649 4.43119e-21)
(-0.0377955 0.0597045 0)
(-0.0516467 0.0692545 -3.05359e-21)
(-0.0656463 0.0757606 0)
(-0.0796898 0.0797849 0)
(-0.0938237 0.081834 -2.24597e-23)
(-0.107979 0.0823148 1.19224e-21)
(-0.12202 0.0815411 1.18057e-21)
(-0.1358 0.0797501 1.13293e-21)
(-0.149184 0.0771203 0)
(-0.162052 0.0737886 0)
(-0.174304 0.0698648 -1.09699e-21)
(-0.185853 0.0654403 -2.1624e-21)
(-0.196626 0.0605953 2.13046e-21)
(-0.206562 0.0554014 0)
(-0.215609 0.0499246 2.05899e-21)
(-0.223721 0.0442257 -9.84413e-22)
(-0.23086 0.0383616 0)
(-0.236991 0.0323854 1.91371e-21)
(-0.242086 0.0263465 8.95418e-22)
(-0.246117 0.0202916 -1.78046e-21)
(-0.249061 0.0142638 -8.14541e-22)
(-0.250892 0.00830186 0)
(-0.251584 0.00243619 1.51345e-21)
(-0.251109 -0.00331781 1.40089e-21)
(-0.249445 -0.00894808 0)
(-0.246582 -0.0144314 1.14795e-21)
(-0.242524 -0.0197428 0)
(-0.237279 -0.024858 8.58259e-22)
(-0.230866 -0.0297542 2.8415e-22)
(-0.223313 -0.0344099 0)
(-0.214653 -0.0388052 0)
(-0.20493 -0.0429217 0)
(-0.19419 -0.0467434 0)
(-0.182487 -0.0502564 0)
(-0.16988 -0.0534493 0)
(-0.156432 -0.0563138 -5.98007e-22)
(-0.14221 -0.0588443 1.29494e-21)
(-0.127281 -0.0610383 0)
(-0.111718 -0.0628962 0)
(-0.0955916 -0.0644213 0)
(-0.0789741 -0.0656196 -1.95791e-22)
(-0.0619363 -0.0664998 -2.05737e-21)
(-0.0445478 -0.0670731 -4.34573e-21)
(-0.0268765 -0.0673538 4.77431e-21)
(-0.00899085 -0.0673592 2.48383e-21)
(0.00903562 -0.067108 -2.85555e-21)
(0.0271295 -0.0666162 1.95645e-22)
(0.0452272 -0.065897 -2.96454e-21)
(0.0632722 -0.0649663 0)
(0.0812102 -0.0638418 -3.24031e-21)
(0.0989892 -0.0625417 1.75307e-22)
(0.11656 -0.0610841 0)
(0.133877 -0.0594868 0)
(0.150899 -0.0577673 3.69496e-21)
(0.167585 -0.0559425 0)
(0.183902 -0.0540291 0)
(0.199817 -0.0520428 -3.81907e-21)
(0.215301 -0.0499991 -8.06154e-21)
(0.230331 -0.0479128 4.22319e-21)
(0.244885 -0.0457978 0)
(0.258944 -0.0436675 -4.32728e-21)
(0.272493 -0.0415345 0)
(0.285522 -0.0394105 -4.20967e-21)
(0.298021 -0.0373066 -4.44394e-21)
(0.309984 -0.0352328 8.77005e-21)
(0.32141 -0.0331982 4.33299e-21)
(0.332298 -0.0312111 0)
(0.342651 -0.0292787 -8.93153e-21)
(0.352475 -0.0274074 0)
(0.361776 -0.0256024 -1.35663e-20)
(0.370565 -0.0238681 -9.02788e-21)
(0.378853 -0.0222078 -9.04768e-21)
(0.386654 -0.0206242 9.06203e-21)
(0.393981 -0.0191187 -1.36537e-20)
(0.400852 -0.0176922 0)
(0.407283 -0.0163449 0)
(0.413292 -0.015076 9.07293e-21)
(0.418897 -0.0138844 1.36328e-20)
(0.424118 -0.0127685 0)
(0.428973 -0.011726 -4.54997e-21)
(0.433481 -0.0107544 0)
(0.437661 -0.00985105 1.35368e-20)
(0.441533 -0.00901282 4.46606e-23)
(0.445113 -0.00823661 -4.09733e-23)
(0.448421 -0.00751915 -8.94207e-21)
(0.451473 -0.00685718 0)
(0.454286 -0.0062474 8.89042e-21)
(0.456876 -0.00568658 2.88515e-23)
(0.459258 -0.00517157 0)
(0.461447 -0.00469931 0)
(0.463457 -0.00426683 0)
(0.4653 -0.00387132 -8.76525e-21)
(0.466989 -0.00351004 0)
(0.468536 -0.00318042 0)
(0.469951 -0.00288 0)
(0.471245 -0.00260646 0)
(0.472427 -0.00235762 0)
(0.473507 -0.00213143 -8.55681e-21)
(0.474491 -0.00192596 0)
(0.475389 -0.00173938 -8.50285e-21)
(0.476206 -0.00156997 -8.47023e-21)
(0.476951 -0.00141614 8.43776e-21)
(0.47763 -0.00127648 0)
(0.47825 -0.00114905 8.37345e-21)
(0.478818 -0.00103236 0)
(0.479337 -0.000926219 8.30872e-21)
(0.479811 -0.000830563 -8.27655e-21)
(0.480243 -0.000744922 -2.47246e-20)
(0.480635 -0.000668567 0)
(0.480991 -0.000600656 -2.45362e-20)
(0.481314 -0.000540323 -8.14299e-21)
(0.481606 -0.000486747 0)
(0.48187 -0.000439189 -1.61696e-20)
(0.48211 -0.000396994 -1.61083e-20)
(0.482326 -0.000359588 2.40732e-20)
(0.482523 -0.000326465 0)
(0.482701 -0.000297176 7.96482e-21)
(0.482862 -0.000271324 7.9344e-21)
(0.483009 -0.000248551 2.37089e-20)
(0.483143 -0.000228535 0)
(0.483264 -0.000210985 0)
(0.483376 -0.000195636 0)
(0.483478 -0.000182248 7.78109e-21)
(0.483571 -0.000170601 0)
(0.483658 -0.000160497 0)
(0.483738 -0.000151754 -7.69339e-21)
(0.483813 -0.000144212 -7.66342e-21)
(0.483882 -0.000137722 0)
(0.483948 -0.000132155 0)
(0.484009 -0.000127393 -1.5147e-20)
(0.484068 -0.000123333 0)
(0.484123 -0.000119882 1.50268e-20)
(0.484177 -0.00011696 1.49655e-20)
(0.484228 -0.000114493 0)
(0.484278 -0.000112417 0)
(0.484326 -0.000110673 -1.47845e-20)
(0.484373 -0.000109209 -9.8197e-25)
(0.484419 -0.000107977 -9.50831e-25)
(0.484465 -0.000106934 0)
(0.48451 -0.000106037 -2.90833e-20)
(0.484554 -0.000105249 0)
(0.484598 -0.000104532 0)
(0.484641 -0.00010385 0)
(0.484685 -0.000103166 1.42967e-20)
(0.484728 -0.000102443 0)
(0.484771 -0.000101645 -2.83452e-20)
(0.484813 -0.000100733 -1.41116e-20)
(0.484856 -9.96682e-05 0)
(0.484898 -9.84109e-05 -1.39878e-20)
(0.484939 -9.69165e-05 0)
(0.48498 -9.51345e-05 0)
(0.48502 -9.30056e-05 -4.14038e-20)
(0.485058 -9.04572e-05 2.74779e-20)
(0.485096 -8.73979e-05 0)
(0.485131 -8.37113e-05 2.72297e-20)
(0.485164 -7.92468e-05 -1.35535e-20)
(0.485194 -7.38096e-05 0)
(0.485221 -6.71459e-05 0)
(0.485243 -5.89235e-05 0)
(0.485258 -4.87069e-05 -3.99191e-20)
(0.485266 -3.5923e-05 0)
(0.485264 -1.98125e-05 -1.3185e-20)
(0.48525 6.35607e-07 0)
(0.485219 2.67802e-05 0)
(0.485167 6.04655e-05 0)
(0.485088 0.000104227 0)
(0.484972 0.000161611 0)
(0.484807 0.000237668 0)
(0.484579 0.000339791 -2.55826e-20)
(0.484263 0.000479118 0)
(0.483828 0.000673183 -1.27053e-20)
(0.483228 0.000950616 3.80188e-20)
(0.482398 0.00136241 0)
(0.481229 0.00199932 0)
(0.479616 0.00306347 -2.5337e-20)
(0.477225 0.0049004 -2.54867e-20)
(0.474424 0.00864372 2.56976e-20)
(0.470456 0.0155824 2.62003e-20)
(-0.0146228 0.0623861 -8.4914e-21)