/*--------------------------------*- C++ -*----------------------------------*\
  =========                 |
  \\      /  F ield         | OpenFOAM: The Open Source CFD Toolbox
   \\    /   O peration     | Website:  https://openfoam.org
    \\  /    A nd           | Version:  6
     \\/     M anipulation  |
\*---------------------------------------------------------------------------*/
FoamFile
{
    version     2.0;
    format      ascii;
    class       volScalarField;
    location    "0.22";
    object      epsilon;
}
// * * * * * * * * * * * * * * * * * * * * * * * * * * * * * * * * * * * * * //

dimensions      [0 2 -3 0 0 0 0];

internalField   nonuniform List<scalar> 
12225
(
307.554
159.142
103.206
76.1798
60.8911
51.3532
44.9133
40.2534
36.6894
33.8492
31.5173
29.5602
27.8898
26.4451
25.1813
24.0662
23.0739
22.2383
71.6109
59.7633
44.4174
34.349
27.8021
23.3527
20.2004
17.8781
16.1024
14.6993
13.5605
12.6163
11.8199
11.1387
10.5495
10.0349
9.58087
9.17229
33.6139
34.4055
29.2906
24.3864
20.5356
17.6092
15.3794
13.6554
12.2959
11.2018
10.3045
9.55639
8.92379
8.38234
7.91411
7.5056
7.14644
6.82852
22.4947
24.1974
22.2225
19.542
17.0649
14.9827
13.2827
11.9021
10.7747
9.8448
9.06891
8.41417
7.85579
7.37498
6.95741
6.59206
6.2706
5.98832
18.0525
19.1659
18.2265
16.5959
14.8967
13.3495
12.0108
10.8752
9.91684
9.10649
8.41758
7.82791
7.31952
6.87809
6.49224
6.15298
5.85359
5.59108
15.9662
16.4002
15.7672
14.6433
13.3964
12.1983
11.1154
10.1639
9.33794
8.62362
8.00539
7.4686
7.0005
6.59031
6.2291
5.90963
5.62651
5.37785
14.903
14.7895
14.1897
13.3006
12.3143
11.3432
10.4411
9.62825
8.9069
8.27129
7.71249
7.22094
6.78762
6.40446
6.06451
5.76198
5.49261
5.25527
14.3404
13.8261
13.1601
12.3652
11.5232
10.6961
9.91942
9.20916
8.56933
7.9976
7.48864
7.036
6.63316
6.27402
5.95314
5.6659
5.40892
5.18163
14.0387
13.2461
12.4873
11.7147
10.9458
10.2062
9.51375
8.87735
8.29946
7.77844
7.31046
6.89076
6.51438
6.17651
5.87279
5.59947
5.35388
5.13583
13.8768
12.8995
12.0524
11.2678
10.5298
9.83968
9.20107
8.61587
8.0835
7.60149
7.16627
6.77377
6.41982
6.10041
5.81189
5.55112
5.31594
5.10639
13.7906
12.6958
11.7767
10.9671
10.2363
9.57092
8.96457
8.41313
7.91282
7.45973
7.0498
6.67903
6.34354
6.03971
5.76432
5.5146
5.28873
5.08688
13.7489
12.5882
11.6206
10.7868
10.0518
9.3952
8.80488
8.27256
7.79192
7.35761
6.96487
6.60943
6.28737
5.99522
5.72988
5.48883
5.27039
5.07477
13.7254
12.5235
11.521
10.6659
9.92274
9.26802
8.68592
8.16532
7.69784
7.27686
6.89688
6.55321
6.24179
5.9591
5.70212
5.46839
5.25635
5.06616
13.7116
12.4831
11.4547
10.5809
9.8278
9.17069
8.5918
8.07804
7.61945
7.20827
6.83822
6.50414
6.20171
5.92727
5.67776
5.45076
5.2447
5.05969
13.7045
12.4608
11.416
10.5284
9.76602
9.1045
8.52534
8.01439
7.56071
7.15569
6.79242
6.4653
6.1697
5.90178
5.65839
5.43703
5.23613
5.05567
13.7012
12.4503
11.3966
10.5006
9.7316
9.06588
8.48494
7.97432
7.52261
7.12074
6.76139
6.43862
6.14755
5.88418
5.64521
5.42809
5.23117
5.05429
13.7
12.4461
11.3886
10.4886
9.71594
9.04748
8.4649
7.95375
7.50248
7.10184
6.74433
6.42383
6.1353
5.87461
5.63838
5.42398
5.22968
5.05523
13.6996
12.4449
11.3862
10.4848
9.71086
9.0413
8.45796
7.94642
7.49517
7.0949
6.73806
6.41845
6.13099
5.87149
5.63652
5.42341
5.2304
5.05716
13.6998
12.4453
11.387
10.486
9.71247
9.04326
8.46018
7.94881
7.49762
7.09732
6.74038
6.42063
6.13299
5.87328
5.63808
5.42474
5.2315
5.05805
13.701
12.4493
11.3947
10.4976
9.72764
9.06119
8.47987
7.96922
7.51782
7.11652
6.75796
6.43613
6.14611
5.88383
5.64599
5.42999
5.23415
5.05828
13.7054
12.4634
11.4201
10.5336
9.7719
9.11064
8.5315
8.02045
7.56664
7.16151
6.79817
6.47103
6.17545
5.90761
5.66433
5.44311
5.24237
5.06209
13.7204
12.5081
11.4948
10.6317
9.88426
9.22861
8.64818
8.13095
7.66784
7.25169
6.87662
6.53772
6.2308
5.95227
5.69909
5.46882
5.25988
5.07244
13.767
12.633
11.6842
10.8596
10.1263
9.46683
8.87115
8.3324
7.84513
7.40449
7.00597
6.64538
6.31884
6.02281
5.75418
5.51032
5.28953
5.09202
13.9007
12.9462
12.1086
11.3251
10.5843
9.88982
9.24647
8.65674
8.12025
7.63465
7.19636
6.80127
6.44518
6.12402
5.83407
5.57217
5.33609
5.12594
14.2607
13.6658
12.974
12.1888
11.3719
10.5738
9.8239
9.13626
8.5147
7.95739
7.45968
7.01583
6.61989
6.26621
5.94969
5.66598
5.41192
5.18718
15.1941
15.2319
14.6347
13.6937
12.6456
11.6176
10.6673
9.81511
9.0623
8.40177
7.82333
7.31634
6.87088
6.47817
6.13068
5.82217
5.54803
5.30713
17.6338
18.6177
17.7644
16.2579
14.6629
13.1886
11.8967
10.7899
9.849
9.04945
8.36751
7.78264
7.27786
6.83935
6.45601
6.11899
5.82175
5.56197
24.7058
26.4228
23.9014
20.7811
17.9998
15.7043
13.8525
12.3634
11.1581
10.1718
9.35475
8.66955
8.08833
7.59016
7.15918
6.7833
6.45359
6.1662
51.9669
47.7357
37.7987
30.1744
24.7627
20.8813
18.0409
15.9128
14.2759
12.9836
11.9391
11.0777
10.3552
9.74059
9.21142
8.75132
8.3483
7.99639
251.833
137.373
90.8043
67.1602
53.3514
44.5812
38.6438
34.3886
31.1842
28.6715
26.6376
24.9505
23.5243
22.3009
21.2389
20.3084
19.4868
18.7594
0.0584032
0.0634968
0.0802558
0.0856676
0.0926805
0.102595
0.115151
0.130828
0.151774
0.175714
0.201684
0.230653
0.262823
0.29812
0.336297
0.377005
0.419852
0.464443
0.5104
0.557375
0.605058
0.653177
0.701502
0.749841
0.798042
0.845989
0.893599
0.940818
0.987618
1.03399
1.07996
1.12553
1.17076
1.21567
1.26033
1.30476
1.34903
1.39318
1.43725
1.48128
1.52532
1.56938
1.61352
1.65775
1.70213
1.7467
1.79152
1.83669
1.88237
1.92876
1.9762
2.02517
2.07451
2.12363
2.17251
2.22105
2.26911
2.31652
2.36309
2.40859
2.45281
2.49547
2.53631
2.57505
2.61139
2.64503
2.67568
2.70302
2.72677
2.74664
2.76237
2.77371
2.78047
2.78245
2.77953
2.77161
2.75864
2.74061
2.71759
2.68967
2.657
2.61977
2.57822
2.53262
2.48329
2.43054
2.37476
2.31631
2.25565
2.19335
2.13044
2.06928
2.01496
1.97184
1.93269
1.8937
1.85443
1.81491
1.77527
1.73566
1.69624
1.65714
1.6185
1.58041
1.54299
1.5063
1.47043
1.43541
1.4013
1.36811
1.33587
1.30458
1.27424
1.24484
1.21635
1.18876
1.16201
1.13609
1.11093
1.08651
1.06276
1.03964
1.0171
0.995095
0.973567
0.952475
0.931777
0.911435
0.891419
0.871702
0.852267
0.833101
0.814202
0.795573
0.777227
0.75918
0.741453
0.724067
0.707036
0.690364
0.674054
0.658148
0.642838
0.628507
0.615173
0.602791
0.591329
0.580764
0.571071
0.562223
0.554193
0.546953
0.540468
0.534705
0.529623
0.525182
0.52134
0.518051
0.515271
0.512954
0.511055
0.50953
0.508334
0.507427
0.506766
0.506313
0.506027
0.50587
0.5058
0.505775
0.505745
0.505653
0.505424
0.504958
0.504108
0.502635
0.500151
0.49588
0.488636
0.475736
0.162741
0.104246
0.100363
0.110139
0.125101
0.144299
0.167149
0.19218
0.217632
0.242089
0.265158
0.28697
0.307696
0.327479
0.346454
0.364754
0.382514
0.399861
0.416912
0.433762
0.450484
0.467129
0.483731
0.500305
0.516857
0.533383
0.549876
0.566329
0.582731
0.599075
0.615357
0.631572
0.647719
0.663799
0.679813
0.695764
0.711656
0.727492
0.743278
0.759018
0.774719
0.790388
0.806035
0.821674
0.837322
0.853005
0.868759
0.884632
0.90069
0.917025
0.933749
0.950985
0.968581
0.98614
1.00359
1.02087
1.03795
1.05476
1.07125
1.08732
1.10292
1.11795
1.13231
1.14592
1.15867
1.17046
1.18118
1.19072
1.19897
1.20584
1.21122
1.21501
1.21715
1.21754
1.21614
1.2129
1.2078
1.20081
1.19195
1.18124
1.16872
1.15446
1.13853
1.12104
1.10208
1.08178
1.06029
1.03778
1.01443
0.990507
0.966371
0.942526
0.919864
0.899035
0.878805
0.858676
0.838558
0.818479
0.798492
0.778658
0.759036
0.739678
0.720632
0.701937
0.683628
0.665734
0.648275
0.631268
0.614726
0.598654
0.583055
0.567929
0.55327
0.539069
0.525317
0.512001
0.499105
0.486612
0.474506
0.462767
0.451376
0.440314
0.429562
0.419101
0.408913
0.398981
0.389291
0.37983
0.370585
0.361548
0.352713
0.344074
0.33563
0.327383
0.319334
0.31149
0.303857
0.296444
0.289259
0.282314
0.275626
0.269226
0.263171
0.257579
0.252465
0.247705
0.243273
0.239164
0.23537
0.231883
0.228695
0.225792
0.223166
0.220802
0.218688
0.216811
0.215156
0.213711
0.212459
0.211387
0.210479
0.209721
0.2091
0.208602
0.208214
0.207925
0.207724
0.207601
0.207549
0.207561
0.207634
0.207768
0.207968
0.208253
0.208661
0.209278
0.210299
0.21218
0.216015
0.225118
0.322546
0.171037
0.157478
0.161256
0.172521
0.188768
0.208109
0.228474
0.248091
0.266005
0.2821
0.296705
0.310251
0.323132
0.33566
0.348067
0.360512
0.37309
0.385846
0.398783
0.411878
0.425087
0.438359
0.451639
0.464879
0.478033
0.491067
0.503954
0.516677
0.529224
0.541592
0.553782
0.565799
0.57765
0.589348
0.600904
0.612333
0.623652
0.634876
0.646026
0.657121
0.668184
0.679238
0.690309
0.701424
0.712614
0.72391
0.735344
0.746948
0.758753
0.77078
0.783043
0.795429
0.807841
0.820236
0.832581
0.844842
0.856982
0.868958
0.880721
0.892215
0.903377
0.91414
0.924429
0.934163
0.94326
0.95163
0.959184
0.96583
0.971476
0.976035
0.979423
0.981561
0.982379
0.981818
0.979829
0.976377
0.971442
0.965016
0.957112
0.947753
0.936983
0.924857
0.911447
0.896839
0.88113
0.864434
0.846877
0.828605
0.809785
0.790608
0.771335
0.752618
0.734325
0.716222
0.698196
0.68024
0.662388
0.644687
0.627188
0.609938
0.592979
0.576347
0.560075
0.544186
0.528701
0.513636
0.499001
0.484803
0.471044
0.457725
0.444841
0.432386
0.420352
0.408728
0.397502
0.38666
0.376187
0.366069
0.356289
0.346831
0.337678
0.328815
0.320227
0.311898
0.303815
0.295965
0.288336
0.280919
0.273705
0.266688
0.259862
0.253225
0.246774
0.240511
0.234436
0.228552
0.222865
0.217379
0.212102
0.207043
0.202217
0.19764
0.193338
0.189325
0.185612
0.182166
0.178977
0.176034
0.173332
0.170862
0.168614
0.166579
0.164747
0.163109
0.161652
0.160365
0.159237
0.158257
0.157412
0.156691
0.156084
0.155578
0.155165
0.154833
0.154575
0.154383
0.154248
0.154165
0.154129
0.154137
0.154189
0.154287
0.15444
0.154671
0.155024
0.155598
0.156624
0.158619
0.162902
0.48571
0.241527
0.20874
0.204289
0.209285
0.219246
0.23195
0.245664
0.259142
0.271785
0.283548
0.294682
0.30551
0.316306
0.32726
0.338481
0.350012
0.36185
0.373957
0.386278
0.398748
0.4113
0.423869
0.4364
0.448842
0.461158
0.473318
0.485299
0.497087
0.508675
0.52006
0.531245
0.542235
0.55304
0.563671
0.574142
0.584469
0.594671
0.604767
0.614778
0.624726
0.634636
0.644532
0.654439
0.664383
0.674389
0.684482
0.694683
0.705011
0.715482
0.726104
0.736883
0.747772
0.758727
0.769722
0.780735
0.79174
0.802707
0.8136
0.824377
0.834987
0.845373
0.855471
0.865209
0.87451
0.88329
0.891459
0.898925
0.905595
0.911372
0.916165
0.919882
0.92244
0.923761
0.923779
0.922439
0.919699
0.91553
0.909921
0.902876
0.894414
0.884573
0.873404
0.860973
0.847361
0.832662
0.816979
0.800426
0.783131
0.765232
0.746883
0.728552
0.710294
0.692107
0.673969
0.655885
0.637888
0.620025
0.602349
0.58491
0.567754
0.550923
0.534452
0.518369
0.5027
0.487461
0.472666
0.458326
0.444444
0.431022
0.418058
0.405548
0.393483
0.381856
0.370653
0.359863
0.349472
0.339464
0.329824
0.320535
0.311582
0.302948
0.294617
0.286572
0.278801
0.271287
0.264018
0.256983
0.250169
0.243568
0.237172
0.230974
0.224969
0.219154
0.213527
0.208087
0.202835
0.197772
0.192902
0.188229
0.183758
0.179496
0.175451
0.171633
0.16805
0.164709
0.16161
0.158739
0.156089
0.153654
0.151426
0.149397
0.147559
0.145903
0.144419
0.143098
0.141929
0.140901
0.140004
0.139228
0.138562
0.137997
0.137521
0.137127
0.136805
0.136548
0.136348
0.136198
0.136093
0.136029
0.136002
0.136011
0.136058
0.136148
0.136294
0.136528
0.13691
0.137575
0.138792
0.141079
0.620025
0.290691
0.244118
0.233175
0.2327
0.237142
0.244334
0.252954
0.262155
0.271516
0.280938
0.290497
0.300316
0.310495
0.321084
0.33209
0.343484
0.355217
0.367227
0.379447
0.391812
0.404258
0.41673
0.429177
0.441557
0.453834
0.465979
0.47797
0.48979
0.501426
0.512874
0.524128
0.535191
0.546066
0.556762
0.567289
0.577659
0.587889
0.597995
0.607998
0.617918
0.627779
0.637602
0.647412
0.657232
0.667086
0.676995
0.68698
0.697058
0.707247
0.717558
0.728003
0.738566
0.749224
0.759958
0.770752
0.781585
0.792431
0.803256
0.814019
0.824672
0.835158
0.84541
0.855356
0.864913
0.873993
0.882502
0.890342
0.89741
0.903604
0.908823
0.912968
0.915947
0.917676
0.91808
0.917097
0.914681
0.910798
0.905433
0.898587
0.890279
0.880546
0.869439
0.857026
0.843389
0.82862
0.812826
0.796111
0.778605
0.760491
0.74208
0.723472
0.704747
0.685962
0.667164
0.648404
0.62974
0.61123
0.592935
0.574906
0.557194
0.539839
0.522879
0.506342
0.490254
0.474631
0.459488
0.444834
0.430672
0.417003
0.403825
0.391133
0.378918
0.36717
0.355877
0.345025
0.3346
0.324586
0.314965
0.305722
0.296839
0.288298
0.280083
0.272177
0.264565
0.25723
0.250158
0.243336
0.236753
0.230396
0.224256
0.218326
0.212599
0.207069
0.201732
0.196587
0.19163
0.186863
0.182287
0.177902
0.173713
0.169722
0.165934
0.162354
0.158985
0.155833
0.1529
0.15018
0.147667
0.145355
0.143238
0.141307
0.139556
0.137976
0.136559
0.135294
0.134172
0.133183
0.132318
0.131567
0.130919
0.130365
0.129896
0.129503
0.129179
0.128914
0.128703
0.128539
0.128416
0.128331
0.12828
0.128261
0.128274
0.128324
0.12842
0.128583
0.128854
0.12932
0.130132
0.131515
0.709663
0.32119
0.264337
0.248629
0.244376
0.245178
0.248867
0.254368
0.261053
0.268572
0.276758
0.285548
0.29492
0.304851
0.31531
0.326248
0.337609
0.349331
0.361351
0.373607
0.386042
0.398602
0.411236
0.423899
0.436551
0.449157
0.461684
0.474106
0.486401
0.49855
0.510539
0.522359
0.534003
0.545468
0.556757
0.567873
0.578826
0.589625
0.600284
0.61082
0.621252
0.631598
0.64188
0.65212
0.662342
0.672568
0.68282
0.69312
0.703488
0.713943
0.724503
0.735182
0.745984
0.756894
0.767899
0.778985
0.790136
0.801327
0.812524
0.823688
0.834768
0.845706
0.856431
0.866867
0.876927
0.886515
0.895531
0.903868
0.911417
0.918067
0.923708
0.928233
0.931543
0.933546
0.934163
0.933325
0.930982
0.927098
0.921658
0.914662
0.906131
0.896104
0.884634
0.871794
0.857671
0.842358
0.825976
0.808596
0.790525
0.771908
0.752876
0.733539
0.713998
0.694336
0.674633
0.654962
0.635397
0.616005
0.59685
0.577991
0.559478
0.541357
0.523664
0.50643
0.489681
0.473435
0.457706
0.442502
0.427829
0.413686
0.400071
0.386977
0.374396
0.362317
0.350728
0.339613
0.328958
0.318745
0.308957
0.299576
0.290584
0.281962
0.273692
0.265756
0.258137
0.250818
0.243784
0.237019
0.23051
0.224245
0.218211
0.2124
0.206803
0.201412
0.196223
0.19123
0.186432
0.181825
0.177409
0.173184
0.169151
0.165312
0.161668
0.158222
0.154977
0.151934
0.149096
0.14646
0.144022
0.141776
0.139717
0.137837
0.13613
0.134587
0.1332
0.131961
0.13086
0.129887
0.129034
0.12829
0.127647
0.127094
0.126623
0.126225
0.125893
0.125619
0.125397
0.125219
0.125082
0.12498
0.124909
0.124868
0.124857
0.124878
0.124937
0.12505
0.125245
0.12558
0.126145
0.127048
0.765453
0.33719
0.272769
0.253737
0.247198
0.245995
0.247833
0.251714
0.257099
0.263664
0.271202
0.279576
0.288689
0.298458
0.308811
0.319683
0.331008
0.342728
0.354786
0.36713
0.379708
0.392476
0.405387
0.418399
0.431473
0.444572
0.45766
0.470707
0.483684
0.496566
0.509331
0.521962
0.534446
0.546772
0.558936
0.570934
0.58277
0.594449
0.60598
0.617374
0.628646
0.639814
0.650896
0.661913
0.672886
0.683838
0.694792
0.70577
0.716794
0.727885
0.739063
0.750345
0.761742
0.773246
0.784848
0.796537
0.808295
0.820098
0.831914
0.8437
0.855404
0.866964
0.878305
0.889345
0.899991
0.910141
0.919688
0.928518
0.936513
0.943555
0.949527
0.954315
0.957815
0.959929
0.960573
0.959678
0.957192
0.953079
0.947324
0.939931
0.930923
0.920346
0.908259
0.894731
0.879875
0.863755
0.846574
0.828516
0.809716
0.790309
0.770423
0.750178
0.729686
0.709046
0.688354
0.667697
0.647157
0.626808
0.60672
0.586955
0.567565
0.548597
0.530091
0.512078
0.494585
0.477631
0.46123
0.445391
0.430118
0.415413
0.401272
0.387689
0.374655
0.362158
0.350185
0.338722
0.327751
0.317255
0.307217
0.297616
0.288433
0.27965
0.271246
0.263202
0.255501
0.248123
0.241051
0.234269
0.227762
0.221516
0.215517
0.209754
0.204217
0.198898
0.193788
0.188882
0.184175
0.179664
0.175346
0.17122
0.167285
0.163541
0.159989
0.156629
0.153463
0.150491
0.147714
0.145132
0.142741
0.140535
0.13851
0.13666
0.134977
0.133455
0.132084
0.130857
0.129765
0.128798
0.127948
0.127205
0.12656
0.126004
0.125527
0.125123
0.124783
0.1245
0.124266
0.124077
0.123926
0.12381
0.123723
0.123665
0.123634
0.123631
0.123661
0.123735
0.123874
0.124116
0.124516
0.125133
0.793416
0.342674
0.273124
0.251882
0.244069
0.241925
0.24296
0.246143
0.250951
0.257063
0.264261
0.272382
0.2813
0.290915
0.301145
0.311922
0.323186
0.334886
0.346973
0.359405
0.372138
0.385133
0.398348
0.411745
0.425283
0.438925
0.452632
0.466371
0.480107
0.493809
0.50745
0.521005
0.534454
0.547781
0.560972
0.57402
0.58692
0.599672
0.61228
0.624751
0.637095
0.649326
0.661459
0.673513
0.685508
0.697464
0.709403
0.721348
0.733319
0.745339
0.757426
0.769599
0.781868
0.79423
0.806677
0.819197
0.831774
0.84438
0.856981
0.869531
0.881975
0.894245
0.906262
0.917937
0.929171
0.939857
0.949879
0.959117
0.967448
0.974748
0.980895
0.985773
0.989271
0.991293
0.991752
0.990581
0.987729
0.983164
0.976878
0.968877
0.959187
0.947868
0.93499
0.920586
0.904873
0.887969
0.870003
0.851119
0.831457
0.811154
0.79034
0.769143
0.74768
0.726063
0.704394
0.682768
0.661273
0.639989
0.618988
0.598334
0.578082
0.55828
0.538969
0.520183
0.501948
0.484283
0.467204
0.450721
0.434837
0.419555
0.40487
0.390776
0.377265
0.364325
0.351942
0.3401
0.328784
0.317974
0.307652
0.297798
0.288391
0.279412
0.27084
0.262654
0.254834
0.247362
0.240218
0.233385
0.226845
0.220583
0.214584
0.208836
0.203326
0.198043
0.19298
0.188128
0.183482
0.179035
0.174784
0.170727
0.166861
0.163185
0.159698
0.156401
0.153293
0.150373
0.147643
0.1451
0.142743
0.140567
0.138566
0.136736
0.13507
0.13356
0.132199
0.130979
0.129891
0.128926
0.128076
0.127331
0.126682
0.126121
0.125639
0.125228
0.12488
0.124587
0.124344
0.124144
0.123982
0.123853
0.123754
0.123681
0.123633
0.123611
0.123617
0.12366
0.123754
0.123926
0.124211
0.124644
0.799514
0.340891
0.268398
0.245801
0.237327
0.234821
0.235603
0.238567
0.243167
0.249078
0.256081
0.264013
0.272748
0.282191
0.292264
0.302906
0.314068
0.325708
0.337788
0.350273
0.363127
0.376317
0.389805
0.403556
0.417531
0.431692
0.446
0.460418
0.474908
0.489436
0.50397
0.518478
0.532937
0.547322
0.561615
0.575802
0.589873
0.603822
0.617647
0.63135
0.644937
0.658416
0.671801
0.685105
0.698345
0.711539
0.724707
0.737869
0.751043
0.764248
0.777502
0.790819
0.804206
0.817659
0.831168
0.844719
0.858292
0.871856
0.885371
0.898786
0.912041
0.925061
0.937761
0.950047
0.961813
0.972943
0.983318
0.992814
1.0013
1.00866
1.01477
1.0195
1.02275
1.02443
1.02445
1.02275
1.01929
1.01404
1.007
0.998198
0.987633
0.975407
0.961644
0.946416
0.929857
0.912094
0.893262
0.873501
0.852949
0.831747
0.810027
0.78792
0.765547
0.743025
0.72046
0.697951
0.675589
0.653457
0.631627
0.610166
0.58913
0.568568
0.548522
0.529025
0.510105
0.491782
0.474071
0.456984
0.440524
0.424694
0.40949
0.394906
0.380934
0.367561
0.354776
0.342561
0.3309
0.319775
0.309166
0.299053
0.289415
0.280231
0.27148
0.263141
0.255191
0.247612
0.240382
0.233482
0.226895
0.220603
0.214589
0.20884
0.203341
0.198082
0.19305
0.188237
0.183636
0.179239
0.175042
0.171039
0.167229
0.163609
0.160177
0.156931
0.153871
0.150997
0.148306
0.145798
0.14347
0.141319
0.13934
0.137527
0.135874
0.134375
0.133022
0.131808
0.130723
0.12976
0.128909
0.128162
0.12751
0.126945
0.126457
0.126039
0.125684
0.125384
0.125132
0.124923
0.124751
0.124612
0.124501
0.124415
0.124353
0.124315
0.124302
0.124319
0.124378
0.124496
0.124697
0.125007
0.788881
0.334206
0.260699
0.237424
0.228654
0.226056
0.226817
0.229759
0.2343
0.240108
0.246965
0.254719
0.263257
0.272493
0.282365
0.292823
0.303829
0.315352
0.327364
0.339838
0.352746
0.36606
0.37975
0.393781
0.408119
0.422727
0.437566
0.4526
0.467789
0.483096
0.498485
0.513925
0.529383
0.544834
0.560253
0.575621
0.590923
0.606147
0.621287
0.636338
0.651302
0.666182
0.680986
0.695723
0.710406
0.725048
0.739665
0.754272
0.768884
0.783514
0.798176
0.812878
0.827615
0.842377
0.857152
0.871917
0.886644
0.901296
0.915825
0.930173
0.94427
0.958035
0.971377
0.984193
0.996371
1.00779
1.01833
1.02786
1.03625
1.0434
1.04916
1.05345
1.05615
1.05717
1.05645
1.05394
1.0496
1.04339
1.03539
1.02561
1.0141
1.00095
0.986251
0.970112
0.952655
0.934009
0.914308
0.893692
0.872299
0.850267
0.827732
0.804822
0.781661
0.758365
0.735042
0.711791
0.688703
0.665862
0.643341
0.621205
0.599512
0.57831
0.557641
0.537539
0.518033
0.499142
0.480884
0.463268
0.446301
0.429984
0.414316
0.39929
0.384899
0.371131
0.357974
0.345413
0.333431
0.322008
0.311127
0.300767
0.290907
0.281525
0.2726
0.264109
0.25603
0.248343
0.241026
0.234058
0.227421
0.221095
0.215063
0.209308
0.203817
0.198574
0.193569
0.188791
0.18423
0.179878
0.175729
0.171778
0.168019
0.164451
0.161069
0.157872
0.154859
0.152027
0.149375
0.146901
0.144603
0.142478
0.14052
0.138726
0.137088
0.135601
0.134257
0.133049
0.131968
0.131008
0.130158
0.12941
0.128756
0.128187
0.127695
0.127272
0.126911
0.126604
0.126345
0.126129
0.125948
0.1258
0.125679
0.125583
0.125509
0.125457
0.125427
0.125423
0.125453
0.12553
0.12567
0.125893
0.765488
0.324254
0.251422
0.228038
0.219204
0.216627
0.217435
0.220399
0.22491
0.230626
0.237333
0.24489
0.253198
0.262187
0.271808
0.282024
0.292811
0.304147
0.316014
0.328395
0.341269
0.354615
0.368408
0.38262
0.397221
0.412176
0.42745
0.443008
0.45881
0.474821
0.491003
0.507323
0.523746
0.540244
0.556788
0.573356
0.589927
0.606484
0.623016
0.639513
0.655971
0.672387
0.688763
0.705102
0.721411
0.737698
0.753972
0.770241
0.786515
0.8028
0.8191
0.835417
0.851725
0.868005
0.88423
0.90037
0.916384
0.932223
0.947827
0.963127
0.978044
0.992487
1.00636
1.01955
1.03194
1.04341
1.05383
1.06308
1.07104
1.07761
1.08267
1.08613
1.0879
1.08789
1.08609
1.08244
1.07694
1.06961
1.06047
1.04957
1.03699
1.0228
1.00711
0.990018
0.971658
0.952155
0.93164
0.910251
0.888123
0.865392
0.842188
0.818637
0.79486
0.77097
0.747073
0.723267
0.699639
0.676272
0.653236
0.630598
0.608412
0.586726
0.565583
0.545017
0.525054
0.505717
0.487023
0.468981
0.451601
0.434883
0.418827
0.403428
0.38868
0.374573
0.361093
0.348228
0.33596
0.324273
0.313148
0.302565
0.292502
0.282939
0.273853
0.265222
0.257024
0.249237
0.241839
0.234808
0.228125
0.221768
0.21572
0.209962
0.204479
0.199256
0.194278
0.189535
0.185015
0.180709
0.176609
0.172709
0.169004
0.165488
0.162158
0.159011
0.156046
0.153258
0.150648
0.148211
0.145946
0.14385
0.141917
0.140144
0.138524
0.137051
0.135719
0.13452
0.133446
0.13249
0.131643
0.130896
0.130242
0.129672
0.129177
0.128751
0.128385
0.128073
0.127809
0.127586
0.127398
0.127242
0.127113
0.127008
0.126924
0.12686
0.126817
0.126796
0.126803
0.126847
0.126941
0.127102
0.732195
0.312136
0.241472
0.218489
0.209778
0.207275
0.208129
0.211096
0.215552
0.221149
0.227678
0.235006
0.243047
0.251746
0.261067
0.270987
0.281491
0.292568
0.30421
0.31641
0.329156
0.342434
0.356228
0.370515
0.385272
0.40047
0.416079
0.432066
0.448396
0.465034
0.481946
0.499096
0.516451
0.53398
0.551652
0.569442
0.587323
0.605276
0.623283
0.641328
0.659401
0.677492
0.695595
0.713707
0.731827
0.749954
0.76809
0.786235
0.804388
0.822548
0.840708
0.858856
0.876936
0.894911
0.912739
0.930372
0.947753
0.964815
0.981485
0.997679
1.0133
1.02826
1.04244
1.05574
1.06806
1.07922
1.08912
1.09766
1.10474
1.11026
1.11415
1.11633
1.11673
1.11532
1.11208
1.10699
1.10007
1.09135
1.08088
1.06871
1.05493
1.03963
1.0229
1.00487
0.985649
0.965362
0.944139
0.922109
0.899403
0.876148
0.852468
0.828482
0.804304
0.780042
0.755794
0.731654
0.707707
0.684029
0.660689
0.63775
0.615264
0.59328
0.571838
0.55097
0.530706
0.511066
0.492068
0.473724
0.456043
0.439027
0.422677
0.406991
0.391963
0.377583
0.363843
0.350727
0.338223
0.326313
0.31498
0.304205
0.293968
0.284247
0.275022
0.266269
0.257967
0.250093
0.242625
0.235541
0.228819
0.222439
0.216381
0.210626
0.205157
0.199957
0.195012
0.190307
0.185833
0.181577
0.17753
0.173686
0.170037
0.166577
0.163303
0.160211
0.157298
0.154559
0.151994
0.1496
0.147372
0.145309
0.143406
0.141658
0.14006
0.138606
0.137289
0.136103
0.13504
0.134091
0.133249
0.132507
0.131854
0.131285
0.130789
0.130361
0.129993
0.129678
0.129409
0.129181
0.128988
0.128826
0.12869
0.128577
0.128485
0.128411
0.128356
0.128321
0.12831
0.128329
0.128388
0.128504
0.690607
0.29859
0.231462
0.209364
0.200958
0.198579
0.199473
0.202413
0.206779
0.212224
0.218543
0.225612
0.233356
0.241733
0.250719
0.260306
0.270477
0.281235
0.292586
0.304531
0.31707
0.330199
0.343908
0.358187
0.373017
0.38838
0.40425
0.420601
0.437404
0.454627
0.472239
0.490207
0.508497
0.527079
0.54592
0.56499
0.584262
0.603709
0.623308
0.643036
0.662874
0.682805
0.702815
0.72289
0.743019
0.763192
0.783399
0.803631
0.823876
0.84412
0.864343
0.884502
0.904504
0.924292
0.943801
0.962959
0.981687
0.999899
1.0175
1.03439
1.05047
1.06562
1.07974
1.09271
1.10442
1.11476
1.12362
1.13092
1.13658
1.14054
1.14274
1.14315
1.14173
1.13848
1.13341
1.12654
1.1179
1.10755
1.09554
1.08197
1.0669
1.05044
1.03269
1.01376
0.993755
0.972804
0.951022
0.928528
0.905442
0.881878
0.857952
0.83377
0.809436
0.78505
0.760701
0.736475
0.712451
0.6887
0.665286
0.642267
0.619695
0.597614
0.576063
0.555075
0.534678
0.514893
0.49574
0.47723
0.459373
0.442175
0.425637
0.409759
0.394537
0.379964
0.366031
0.352729
0.340044
0.32796
0.316463
0.305535
0.295156
0.285306
0.275966
0.267113
0.258726
0.250781
0.243258
0.236133
0.229384
0.22299
0.216931
0.211187
0.205739
0.200569
0.195663
0.191004
0.186581
0.18238
0.178393
0.174609
0.171022
0.167626
0.164413
0.161381
0.158525
0.155842
0.153328
0.150981
0.148797
0.146772
0.144904
0.143187
0.141616
0.140185
0.138888
0.137719
0.136669
0.135731
0.134899
0.134162
0.133515
0.132948
0.132454
0.132027
0.131657
0.13134
0.131069
0.130837
0.13064
0.130473
0.130332
0.130213
0.130113
0.130032
0.129967
0.129921
0.129895
0.129895
0.129928
0.130011
0.642944
0.284994
0.222063
0.201192
0.193256
0.191067
0.192012
0.194915
0.199173
0.204446
0.210539
0.217335
0.224768
0.232804
0.241431
0.250646
0.260455
0.27087
0.281903
0.293568
0.305875
0.318829
0.332434
0.346686
0.361579
0.377102
0.393238
0.40997
0.427274
0.445125
0.463494
0.482353
0.501668
0.521408
0.541541
0.562032
0.582849
0.60396
0.625333
0.646937
0.668745
0.690727
0.712858
0.735112
0.757464
0.779893
0.802375
0.824887
0.847404
0.869898
0.89234
0.91459
0.936556
0.958146
0.979265
0.999814
1.01969
1.03878
1.05698
1.07418
1.09024
1.10508
1.11856
1.1306
1.14109
1.14995
1.1571
1.1625
1.16608
1.16784
1.16775
1.16582
1.16206
1.15651
1.14921
1.14021
1.12957
1.11737
1.10368
1.08859
1.07219
1.05458
1.03585
1.01611
0.995461
0.974008
0.951856
0.929109
0.905871
0.882242
0.858321
0.834202
0.809976
0.785728
0.76154
0.737486
0.713637
0.690058
0.666806
0.643936
0.621495
0.599525
0.578063
0.557142
0.536787
0.517022
0.497866
0.479332
0.461432
0.444173
0.427558
0.41159
0.396267
0.381585
0.367537
0.354115
0.341309
0.329106
0.317493
0.306452
0.295969
0.286023
0.276597
0.267668
0.259216
0.25122
0.243657
0.236505
0.229742
0.223346
0.217296
0.211571
0.206153
0.201022
0.196161
0.191556
0.18719
0.183052
0.179131
0.175415
0.171897
0.168569
0.165425
0.162459
0.159667
0.157045
0.154589
0.152295
0.150161
0.148182
0.146354
0.144673
0.143134
0.141732
0.140459
0.139311
0.138279
0.137356
0.136536
0.135809
0.135169
0.134608
0.134118
0.133692
0.133324
0.133006
0.132734
0.1325
0.1323
0.132129
0.131984
0.13186
0.131755
0.131667
0.131595
0.131539
0.131502
0.131487
0.131502
0.131559
0.594874
0.27341
0.214292
0.194611
0.187167
0.18518
0.186173
0.189026
0.193161
0.198254
0.204119
0.21065
0.217789
0.22551
0.233811
0.242701
0.252196
0.26232
0.273096
0.284549
0.2967
0.309566
0.323162
0.337496
0.352572
0.368389
0.384941
0.402217
0.420202
0.438875
0.458213
0.478188
0.498768
0.519922
0.541612
0.5638
0.586446
0.60951
0.632949
0.656722
0.680786
0.705097
0.729616
0.7543
0.77911
0.804005
0.828947
0.853895
0.87881
0.903649
0.928315
0.952598
0.97638
0.999541
1.02196
1.0435
1.06405
1.08347
1.10163
1.11843
1.13373
1.14745
1.15947
1.16972
1.17812
1.18464
1.18924
1.19191
1.19265
1.19148
1.18844
1.18358
1.17696
1.16867
1.15876
1.14733
1.13447
1.12026
1.10479
1.08816
1.07045
1.05175
1.03216
1.01176
0.990638
0.968883
0.946581
0.923817
0.900674
0.877235
0.85358
0.829786
0.805929
0.78208
0.758308
0.734677
0.711248
0.688078
0.665218
0.642716
0.620617
0.598959
0.577778
0.557103
0.536963
0.517378
0.49837
0.479954
0.462141
0.444942
0.428364
0.412409
0.397079
0.382373
0.368287
0.354816
0.341952
0.329686
0.318006
0.306898
0.296349
0.286341
0.276858
0.26788
0.259387
0.251358
0.243773
0.236609
0.229845
0.223458
0.217428
0.211733
0.206353
0.201269
0.196462
0.191917
0.187617
0.183549
0.1797
0.176059
0.172617
0.169365
0.166296
0.163403
0.160682
0.158128
0.155736
0.153502
0.151424
0.149496
0.147715
0.146076
0.144575
0.143206
0.141963
0.14084
0.13983
0.138926
0.138121
0.137407
0.136777
0.136224
0.13574
0.135319
0.134954
0.134637
0.134365
0.13413
0.133929
0.133756
0.133607
0.13348
0.13337
0.133277
0.133199
0.133137
0.133091
0.133065
0.133065
0.133104
0.540263
0.261489
0.207446
0.189364
0.182616
0.180949
0.182067
0.184926
0.188987
0.193954
0.199657
0.206002
0.212944
0.220469
0.228584
0.237308
0.246672
0.256707
0.267452
0.27894
0.291206
0.304279
0.318185
0.332944
0.348572
0.365077
0.382462
0.400723
0.41985
0.439827
0.460633
0.482238
0.50461
0.52771
0.551494
0.575914
0.600917
0.62645
0.652454
0.678869
0.705632
0.732683
0.759958
0.787396
0.814934
0.842514
0.870075
0.897558
0.924906
0.95205
0.978655
1.00457
1.02965
1.05374
1.0767
1.09837
1.11863
1.13732
1.15434
1.16956
1.18289
1.19425
1.20357
1.2108
1.21594
1.21899
1.21996
1.2189
1.21587
1.21096
1.20425
1.19585
1.18586
1.17439
1.16156
1.14747
1.13223
1.11593
1.09867
1.08053
1.0616
1.04195
1.02165
1.00078
0.979396
0.957568
0.935356
0.912823
0.89003
0.867037
0.843905
0.820692
0.797456
0.774254
0.751141
0.728169
0.705389
0.68285
0.660595
0.638669
0.61711
0.595953
0.575232
0.554976
0.535211
0.515961
0.497245
0.479081
0.461483
0.444462
0.428028
0.412187
0.396942
0.382297
0.36825
0.3548
0.341941
0.329667
0.31797
0.30684
0.296264
0.286228
0.276718
0.267716
0.259205
0.251164
0.243575
0.236414
0.229663
0.223298
0.217299
0.211643
0.206311
0.201283
0.196539
0.192063
0.187837
0.183846
0.180078
0.17652
0.173161
0.169992
0.167006
0.164194
0.161551
0.159072
0.156751
0.154585
0.152569
0.150699
0.148971
0.147381
0.145923
0.144592