/*--------------------------------*- C++ -*----------------------------------*\
  =========                 |
  \\      /  F ield         | OpenFOAM: The Open Source CFD Toolbox
   \\    /   O peration     | Website:  https://openfoam.org
    \\  /    A nd           | Version:  6
     \\/     M anipulation  |
\*---------------------------------------------------------------------------*/
FoamFile
{
    version     2.0;
    format      ascii;
    class       volScalarField;
    location    "0.22";
    object      k;
}
// * * * * * * * * * * * * * * * * * * * * * * * * * * * * * * * * * * * * * //

dimensions      [0 2 -2 0 0 0 0];

internalField   nonuniform List<scalar> 
12225
(
0.24644
0.158838
0.119005
0.097198
0.0837143
0.0747267
0.0683408
0.0635281
0.0597206
0.0565974
0.0539672
0.0517093
0.0497426
0.0480095
0.0464676
0.0450854
0.0438375
0.0427727
0.339526
0.260132
0.208255
0.175288
0.153263
0.137671
0.125994
0.116823
0.109363
0.10314
0.0978523
0.0932923
0.0893132
0.0858062
0.0826906
0.0798983
0.0774083
0.0751511
0.347498
0.292336
0.24851
0.216195
0.192228
0.174046
0.159848
0.148438
0.139041
0.131146
0.124408
0.118581
0.113487
0.108993
0.104997
0.101419
0.0982128
0.095354
0.35137
0.309033
0.271886
0.241924
0.218143
0.199186
0.183862
0.171262
0.160727
0.151789
0.144108
0.137433
0.131579
0.126401
0.121788
0.117655
0.113946
0.110653
0.353917
0.319265
0.2872
0.259824
0.237043
0.218187
0.202505
0.189335
0.178156
0.168565
0.160254
0.152988
0.146585
0.140902
0.135825
0.131268
0.127172
0.12354
0.355677
0.326031
0.29787
0.272919
0.251433
0.233126
0.217536
0.204199
0.192714
0.182749
0.17404
0.166374
0.159581
0.153526
0.148099
0.143216
0.13882
0.134916
0.356917
0.33071
0.305572
0.282766
0.262638
0.245095
0.229864
0.216624
0.205073
0.194944
0.186016
0.178101
0.171049
0.164733
0.159051
0.153923
0.149297
0.145181
0.357802
0.334027
0.311241
0.29028
0.271455
0.254764
0.240043
0.227072
0.215624
0.205488
0.19648
0.188441
0.181236
0.174753
0.168898
0.163597
0.158804
0.154528
0.358433
0.336404
0.315445
0.296042
0.278414
0.262583
0.248448
0.235851
0.224623
0.214595
0.205617
0.197552
0.190285
0.183715
0.177758
0.172348
0.167443
0.163055
0.358881
0.338106
0.31856
0.300448
0.283886
0.268879
0.255352
0.243189
0.232256
0.222419
0.213552
0.205541
0.198285
0.191696
0.185698
0.180234
0.175267
0.170809
0.359195
0.339315
0.320847
0.303787
0.288148
0.273899
0.26097
0.249263
0.238669
0.229077
0.220381
0.212483
0.205297
0.198743
0.192757
0.187286
0.1823
0.177811
0.359394
0.340091
0.322364
0.306073
0.291147
0.277517
0.265103
0.253811
0.243545
0.234207
0.225703
0.217949
0.210866
0.204386
0.198448
0.193008
0.188038
0.183551
0.359535
0.340651
0.323487
0.307814
0.293487
0.2804
0.268456
0.257559
0.247617
0.238541
0.230247
0.222657
0.215702
0.209319
0.203456
0.19807
0.193139
0.188676
0.359643
0.341084
0.324385
0.309247
0.295468
0.282902
0.271429
0.260944
0.251355
0.242576
0.234528
0.227142
0.220352
0.214104
0.208348
0.203049
0.198185
0.19377
0.359719
0.341392
0.325041
0.31033
0.297014
0.28491
0.273874
0.26379
0.254558
0.246091
0.238314
0.231158
0.224564
0.218481
0.212864
0.207681
0.202913
0.198571
0.359767
0.341588
0.325471
0.311064
0.298097
0.286362
0.275694
0.265962
0.257057
0.248888
0.241377
0.234457
0.228071
0.222169
0.21671
0.211662
0.207009
0.202759
0.359793
0.341696
0.325715
0.311494
0.298752
0.287268
0.276864
0.267396
0.258748
0.250821
0.243535
0.236821
0.230621
0.224886
0.219576
0.21466
0.210122
0.205967
0.359804
0.341741
0.325817
0.311679
0.299043
0.287683
0.277414
0.268087
0.259581
0.251793
0.244641
0.238053
0.23197
0.226343
0.221131
0.216304
0.211844
0.207756
0.359801
0.341729
0.32579
0.311631
0.29897
0.28758
0.27728
0.267923
0.259386
0.251571
0.244393
0.237782
0.23168
0.226035
0.220809
0.215969
0.211499
0.207402
0.359775
0.341622
0.325547
0.3112
0.298308
0.286657
0.27608
0.266441
0.257629
0.249551
0.242126
0.235289
0.228981
0.223151
0.217759
0.212772
0.208173
0.203965
0.359715
0.341377
0.32501
0.310283
0.296955
0.284843
0.273804
0.263723
0.254497
0.246041
0.238278
0.23114
0.224567
0.218507
0.212914
0.207755
0.203009
0.198679
0.359586
0.340852
0.323905
0.308483
0.294417
0.281579
0.269863
0.259169
0.249405
0.240483
0.232322
0.224848
0.217994
0.2117
0.205915
0.200598
0.195723
0.191295
0.359329
0.339835
0.321861
0.305316
0.290154
0.276321
0.263741
0.252319
0.241955
0.232547
0.223998
0.21622
0.209129
0.202655
0.196734
0.191318
0.186375
0.181906
0.35886
0.338009
0.318374
0.30018
0.283551
0.268493
0.254932
0.242751
0.231813
0.221982
0.213131
0.205145
0.197921
0.19137
0.185416
0.179998
0.175076
0.170649
0.358051
0.334911
0.312756
0.292315
0.273875
0.257449
0.242906
0.230048
0.218668
0.208572
0.199585
0.191556
0.184357
0.177878
0.172027
0.166733
0.161946
0.157662
0.356707
0.329803
0.303977
0.280639
0.260138
0.242359
0.226997
0.213701
0.202146
0.192051
0.18318
0.175342
0.168377
0.162157
0.156578
0.151556
0.147034
0.143004
0.354518
0.321336
0.290244
0.263374
0.240787
0.221951
0.206201
0.192929
0.181638
0.171941
0.163535
0.156189
0.14972
0.143984
0.138868
0.134285
0.13017
0.126514
0.350901
0.3066
0.26792
0.237106
0.212945
0.193894
0.178637
0.166187
0.155842
0.147109
0.139638
0.13317
0.127516
0.122532
0.118106
0.114154
0.110612
0.107466
0.342446
0.275934
0.227262
0.193529
0.169821
0.152602
0.139577
0.129332
0.121013
0.114094
0.108231
0.103189
0.0988023
0.0949477
0.0915333
0.0884886
0.0857609
0.0833283
0.259302
0.173114
0.131362
0.107434
0.0921502
0.0817523
0.0743223
0.068761
0.0644202
0.0609115
0.0579957
0.0555203
0.053384
0.0515167
0.0498681
0.0484007
0.0470864
0.0459073
0.00113184
0.00198495
0.00232093
0.00242538
0.00255199
0.00272762
0.00294296
0.0032016
0.00353095
0.00389376
0.00426817
0.00466719
0.00509119
0.00553697
0.00599971
0.00647413
0.00695522
0.00743862
0.00792063
0.0083983
0.00886929
0.00933184
0.00978469
0.010227
0.0106582
0.0110782
0.011487
0.0118849
0.0122723
0.0126497
0.0130177
0.0133771
0.0137285
0.0140726
0.0144101
0.0147416
0.0150677
0.015389
0.0157059
0.016019
0.0163285
0.016635
0.0169387
0.0172399
0.017539
0.0178364
0.0181325
0.018428
0.0187238
0.0190213
0.0193223
0.0196296
0.0199389
0.020244
0.0205448
0.0208409
0.0211317
0.0214162
0.0216934
0.0219623
0.0222215
0.0224698
0.0227057
0.0229279
0.0231349
0.0233251
0.023497
0.0236491
0.0237799
0.023888
0.0239721
0.0240309
0.0240633
0.0240683
0.0240453
0.0239936
0.0239128
0.0238029
0.0236638
0.0234959
0.0232998
0.0230762
0.022826
0.0225506
0.0222512
0.0219293
0.0215866
0.021225
0.0208464
0.0204536
0.0200514
0.0196508
0.0192787
0.0189722
0.0187071
0.0184443
0.0181786
0.0179094
0.0176376
0.017364
0.0170896
0.0168153
0.016542
0.0162704
0.0160014
0.0157356
0.0154734
0.0152154
0.0149619
0.0147134
0.0144699
0.0142317
0.0139989
0.0137716
0.0135496
0.0133329
0.0131214
0.012915
0.0127133
0.0125161
0.0123231
0.0121341
0.0119487
0.0117665
0.0115873
0.0114106
0.0112363
0.0110639
0.0108933
0.0107242
0.0105564
0.0103899
0.0102246
0.0100605
0.00989765
0.00973621
0.00957636
0.00941828
0.00926215
0.00910807
0.00895607
0.00880632
0.00865986
0.00851968
0.0083879
0.00826407
0.00814804
0.00803971
0.00793896
0.0078457
0.00775977
0.007681
0.00760919
0.00754409
0.00748539
0.00743279
0.00738591
0.00734437
0.00730777
0.0072757
0.00724772
0.00722342
0.00720237
0.00718417
0.00716841
0.0071547
0.00714264
0.00713185
0.00712194
0.00711246
0.00710297
0.00709289
0.00708152
0.00706793
0.00705073
0.00702771
0.00699524
0.00694608
0.00686907
0.00673859
0.00224019
0.00437446
0.00558194
0.00649198
0.00717032
0.0078029
0.00848456
0.00920641
0.00991986
0.0105908
0.0112203
0.0118244
0.0124185
0.0130138
0.0136177
0.014235
0.0148684
0.0155188
0.0161857
0.0168676
0.0175619
0.0182654
0.0189746
0.019686
0.020396
0.0211018
0.0218008
0.022491
0.0231709
0.0238398
0.0244972
0.0251431
0.025778
0.0264023
0.0270169
0.0276228
0.028221
0.0288124
0.0293983
0.0299795
0.030557
0.0311319
0.0317048
0.0322765
0.0328477
0.0334187
0.0339901
0.034562
0.0351346
0.0357078
0.0362813
0.0368551
0.0374261
0.0379973
0.0385688
0.0391397
0.039709
0.0402754
0.0408371
0.0413923
0.041939
0.0424747
0.0429969
0.043503
0.0439898
0.0444545
0.0448936
0.0453041
0.0456825
0.0460256
0.04633
0.0465928
0.0468108
0.0469815
0.0471023
0.0471712
0.0471866
0.0471471
0.047052
0.0469009
0.046694
0.0464319
0.0461157
0.045747
0.0453278
0.0448605
0.044348
0.0437933
0.0432001
0.0425726
0.0419157
0.0412348
0.0405426
0.0398573
0.0391673
0.0384688
0.0377627
0.0370512
0.0363368
0.0356218
0.0349084
0.0341989
0.033495
0.0327985
0.0321109
0.0314334
0.0307673
0.0301133
0.0294723
0.0288449
0.0282314
0.0276322
0.0270475
0.0264772
0.0259213
0.0253795
0.0248516
0.0243373
0.023836
0.0233472
0.0228704
0.0224051
0.0219506
0.0215063
0.0210716
0.0206459
0.0202288
0.0198196
0.0194181
0.0190237
0.0186364
0.0182559
0.0178822
0.0175154
0.0171555
0.0168029
0.0164579
0.0161209
0.0157925
0.0154732
0.0151635
0.0148643
0.0145761
0.014299
0.0140347
0.0137872
0.0135571
0.0133438
0.0131468
0.0129656
0.0127996
0.0126483
0.0125111
0.0123874
0.0122766
0.0121778
0.0120903
0.0120134
0.0119461
0.0118876
0.0118371
0.0117937
0.0117567
0.0117251
0.0116984
0.0116756
0.0116562
0.0116394
0.0116247
0.0116112
0.0115985
0.0115857
0.0115721
0.0115565
0.0115377
0.0115137
0.011481
0.0114378
0.0113658
0.0113565
0.00353255
0.00705531
0.00871373
0.00974138
0.0105407
0.0112828
0.0120344
0.0127955
0.0135421
0.0142613
0.0149602
0.0156562
0.0163666
0.0171042
0.0178765
0.0186862
0.0195323
0.0204109
0.0213161
0.022241
0.0231783
0.0241206
0.0250615
0.025995
0.0269163
0.0278217
0.0287085
0.029575
0.0304202
0.031244
0.0320466
0.0328287
0.0335916
0.0343363
0.0350643
0.0357771
0.0364764
0.0371636
0.0378403
0.038508
0.0391683
0.0398226
0.0404722
0.0411186
0.0417628
0.0424061
0.0430494
0.0436938
0.0443399
0.0449883
0.0456396
0.0462941
0.0469518
0.0476123
0.0482751
0.0489392
0.0496035
0.0502665
0.0509266
0.0515817
0.0522294
0.0528672
0.0534919
0.0541004
0.0546891
0.0552542
0.0557916
0.0562974
0.0567671
0.0571966
0.0575814
0.0579176
0.0582011
0.0584283
0.0585958
0.0587006
0.0587402
0.0587129
0.0586171
0.0584522
0.0582181
0.0579152
0.0575447
0.0571084
0.0566085
0.056048
0.0554301
0.0547586
0.0540379
0.0532727
0.0524678
0.0516304
0.0507819
0.049921
0.0490465
0.0481595
0.0472624
0.0463583
0.0454504
0.0445418
0.0436355
0.0427341
0.0418401
0.0409556
0.0400826
0.0392228
0.0383775
0.037548
0.0367352
0.03594
0.0351629
0.0344043
0.0336644
0.0329433
0.0322408
0.0315569
0.0308911
0.030243
0.0296121
0.0289978
0.0283993
0.0278161
0.0272473
0.0266922
0.0261501
0.0256202
0.0251019
0.0245945
0.0240974
0.0236102
0.0231325
0.0226641
0.0222047
0.0217544
0.0213133
0.0208816
0.0204596
0.0200478
0.0196467
0.0192569
0.0188792
0.0185142
0.0181626
0.0178252
0.0175026
0.0171958
0.0169078
0.0166392
0.0163897
0.0161592
0.0159473
0.0157537
0.0155777
0.0154187
0.0152759
0.0151484
0.0150355
0.0149359
0.0148488
0.0147731
0.0147076
0.0146514
0.0146034
0.0145626
0.014528
0.0144986
0.0144736
0.0144522
0.0144335
0.0144166
0.0144009
0.0143854
0.0143692
0.0143512
0.0143299
0.0143033
0.0142682
0.014221
0.0141489
0.0140792
0.00464334
0.00929178
0.011216
0.0123778
0.0132286
0.0139631
0.0146721
0.0153869
0.0161125
0.0168516
0.0176124
0.0184061
0.019242
0.0201253
0.0210564
0.0220316
0.0230446
0.0240875
0.0251516
0.0262282
0.0273093
0.0283877
0.0294571
0.0305125
0.0315499
0.0325663
0.0335597
0.034529
0.0354734
0.0363931
0.0372884
0.0381602
0.0390093
0.0398372
0.040645
0.0414343
0.0422067
0.0429638
0.0437071
0.0444383
0.0451592
0.0458712
0.0465761
0.0472754
0.0479705
0.048663
0.049354
0.050045
0.0507368
0.0514304
0.0521265
0.0528256
0.0535288
0.0542358
0.0549461
0.0556589
0.0563735
0.0570884
0.0578021
0.0585124
0.0592171
0.0599133
0.0605979
0.0612671
0.0619173
0.062544
0.0631428
0.0637088
0.0642373
0.0647231
0.0651613
0.0655469
0.0658753
0.0661419
0.0663427
0.066474
0.0665328
0.0665166
0.0664235
0.0662525
0.0660032
0.065676
0.0652719
0.0647927
0.0642409
0.0636196
0.0629324
0.0621834
0.0613773
0.0605191
0.0596145
0.0586823
0.0577259
0.0567477
0.0557504
0.0547372
0.0537116
0.0526776
0.0516389
0.0505991
0.0495618
0.04853
0.0475066
0.046494
0.0454946
0.0445103
0.0435428
0.0425936
0.0416637
0.0407542
0.0398658
0.0389988
0.0381537
0.0373306
0.0365294
0.0357499
0.0349917
0.0342545
0.0335376
0.0328404
0.0321621
0.031502
0.0308592
0.0302329
0.0296223
0.0290264
0.0284445
0.0278758
0.0273197
0.0267756
0.0262429
0.0257214
0.0252107
0.0247107
0.0242215
0.0237431
0.023276
0.0228204
0.0223768
0.021946
0.0215285
0.021125
0.0207364
0.0203634
0.0200068
0.0196673
0.0193462
0.0190453
0.0187649
0.0185048
0.0182648
0.0180448
0.0178441
0.0176622
0.0174983
0.0173516
0.0172211
0.0171057
0.0170044
0.016916
0.0168393
0.0167732
0.0167165
0.0166681
0.0166269
0.0165919
0.0165621
0.0165365
0.0165142
0.0164944
0.0164762
0.0164586
0.0164408
0.0164217
0.0163999
0.0163739
0.0163412
0.016299
0.0162407
0.0161782
0.00546637
0.0107469
0.0129812
0.0143046
0.015226
0.0159722
0.0166625
0.0173568
0.0180827
0.0188534
0.0196768
0.0205572
0.0214956
0.0224896
0.0235335
0.02462
0.0257401
0.0268851
0.0280462
0.0292152
0.0303852
0.0315497
0.0327037
0.0338429
0.0349638
0.0360638
0.0371411
0.0381943
0.0392228
0.0402261
0.0412043
0.0421577
0.043087
0.043993
0.0448766
0.0457392
0.0465819
0.0474063
0.0482137
0.0490058
0.0497842
0.0505505
0.0513064
0.0520536
0.0527938
0.0535284
0.054259
0.0549871
0.0557139
0.0564407
0.0571684
0.0578979
0.0586309
0.0593675
0.0601077
0.0608511
0.061597
0.0623443
0.0630918
0.0638373
0.0645787
0.065313
0.066037
0.066747
0.0674387
0.0681077
0.0687489
0.0693573
0.0699273
0.0704534
0.0709301
0.0713517
0.071713
0.0720089
0.0722346
0.072386
0.0724595
0.0724522
0.0723619
0.0721871
0.0719272
0.0715824
0.0711538
0.070643
0.0700527
0.0693861
0.0686469
0.0678392
0.0669683
0.0660416
0.0650726
0.0640668
0.0630291
0.0619638
0.0608752
0.0597677
0.0586458
0.0575139
0.0563763
0.0552371
0.0541
0.0529687
0.0518463
0.0507355
0.049639
0.048559
0.0474974
0.0464558
0.0454356
0.0444379
0.0434635
0.042513
0.0415868
0.0406852
0.0398081
0.0389554
0.0381267
0.0373217
0.0365396
0.0357799
0.0350418
0.0343245
0.0336269
0.0329483
0.0322877
0.0316442
0.0310168
0.0304047
0.0298072
0.0292234
0.0286529
0.0280951
0.0275496
0.0270163
0.026495
0.0259858
0.0254889
0.0250046
0.0245333
0.0240757
0.0236322
0.0232037
0.0227909
0.0223945
0.0220154
0.0216541
0.0213115
0.0209894
0.0206882
0.020408
0.0201488
0.0199104
0.0196923
0.019494
0.0193148
0.0191539
0.0190103
0.0188829
0.0187707
0.0186724
0.0185869
0.0185128
0.0184491
0.0183944
0.0183478
0.0183079
0.0182739
0.0182446
0.0182192
0.0181967
0.0181761
0.0181566
0.0181373
0.0181171
0.0180948
0.0180691
0.018038
0.0179996
0.0179504
0.0178991
0.00598273
0.0116254
0.0140892
0.0155629
0.0165817
0.0173858
0.0181099
0.0188304
0.0195884
0.0204042
0.0212857
0.0222339
0.0232449
0.0243124
0.0254283
0.0265836
0.0277695
0.0289776
0.0302
0.0314298
0.0326608
0.0338878
0.0351061
0.036312
0.0375023
0.0386743
0.039826
0.0409557
0.0420621
0.0431444
0.0442021
0.045235
0.046243
0.0472265
0.048186
0.0491223
0.0500362
0.0509289
0.0518016
0.0526556
0.0534925
0.0543138
0.055121
0.0559159
0.0567002
0.0574756
0.0582437
0.059006
0.0597643
0.0605198
0.0612739
0.0620279
0.0627836
0.0635417
0.0643027
0.0650667
0.0658332
0.0666016
0.0673707
0.0681388
0.0689035
0.0696623
0.0704118
0.0711482
0.0718672
0.0725641
0.0732336
0.0738703
0.0744683
0.0750218
0.0755246
0.0759708
0.0763545
0.0766702
0.0769127
0.0770775
0.0771604
0.0771583
0.0770685
0.0768894
0.0766202
0.0762609
0.0758124
0.0752764
0.0746557
0.0739532
0.0731734
0.072319
0.0714025
0.0704308
0.0694104
0.0683474
0.0672472
0.0661154
0.064957
0.0637772
0.0625811
0.0613734
0.060159
0.0589423
0.0577273
0.0565178
0.0553174
0.0541291
0.0529557
0.0517997
0.0506631
0.0495479
0.0484556
0.0473873
0.0463441
0.0453267
0.0443357
0.0433713
0.0424337
0.0415226
0.0406379
0.0397791
0.0389457
0.038137
0.0373522
0.0365904
0.0358507
0.0351322
0.0344339
0.0337547
0.0330936
0.0324497
0.0318221
0.0312101
0.0306128
0.0300297
0.0294603
0.0289043
0.0283614
0.0278316
0.027315
0.0268118
0.0263224
0.0258473
0.025387
0.0249421
0.0245134
0.0241016
0.0237074
0.0233317
0.022975
0.0226384
0.0223229
0.0220288
0.021756
0.0215044
0.0212737
0.0210634
0.0208729
0.0207013
0.0205477
0.0204111
0.0202903
0.0201842
0.0200915
0.020011
0.0199414
0.0198816
0.0198303
0.0197863
0.0197487
0.0197162
0.019688
0.019663
0.0196403
0.0196191
0.0195983
0.019577
0.0195541
0.0195284
0.0194983
0.0194623
0.0194188
0.0193754
0.00629334
0.0120641
0.0146734
0.0162714
0.0173979
0.018291
0.0190869
0.0198674
0.0206795
0.0215475
0.0224808
0.0234798
0.0245398
0.0256538
0.0268134
0.0280101
0.0292361
0.0304839
0.0317468
0.0330188
0.0342948
0.0355701
0.0368406
0.0381026
0.0393529
0.0405889
0.041808
0.0430082
0.0441876
0.045345
0.0464791
0.0475891
0.0486743
0.0497347
0.05077
0.0517806
0.0527669
0.0537295
0.0546694
0.0555876
0.0564853
0.0573639
0.0582249
0.0590698
0.0599004
0.0607183
0.0615252
0.0623228
0.0631129
0.063897
0.0646767
0.0654534
0.0662292
0.0670053
0.0677826
0.0685616
0.0693423
0.0701244
0.0709069
0.0716882
0.0724665
0.0732392
0.0740029
0.074754
0.075488
0.0762003
0.0768854
0.0775377
0.0781511
0.0787195
0.0792365
0.0796958
0.0800913
0.080417
0.0806675
0.0808379
0.0809238
0.0809217
0.0808288
0.0806433
0.0803641
0.0799912
0.0795254
0.0789681
0.0783227
0.0775909
0.0767802
0.0758979
0.0749501
0.0739432
0.0728835
0.0717772
0.0706302
0.0694484
0.0682376
0.0670033
0.0657509
0.0644856
0.0632124
0.061936
0.0606607
0.0593906
0.0581294
0.0568803
0.0556464
0.0544304
0.0532344
0.0520607
0.0509108
0.0497861
0.0486879
0.0476169
0.0465738
0.0455591
0.0445728
0.043615
0.0426855
0.0417839
0.0409097
0.0400623
0.0392409
0.0384446
0.0376724
0.0369234
0.0361965
0.0354907
0.0348049
0.034138
0.0334891
0.0328572
0.0322416
0.0316415
0.0310563
0.0304855
0.0299289
0.0293862
0.0288575
0.0283428
0.0278425
0.0273569
0.0268864
0.0264317
0.0259935
0.0255723
0.0251689
0.0247841
0.0244184
0.0240726
0.0237479
0.0234444
0.0231624
0.0229017
0.0226621
0.0224432
0.0222443
0.0220647
0.0219036
0.0217599
0.0216325
0.0215202
0.0214218
0.0213361
0.0212618
0.0211977
0.0211425
0.0210951
0.0210543
0.0210191
0.0209884
0.0209612
0.0209367
0.0209139
0.0208918
0.0208695
0.0208459
0.02082
0.0207905
0.0207563
0.0207165
0.0206786
0.00644626
0.0121886
0.0148752
0.0165668
0.0177944
0.0187851
0.0196684
0.0205238
0.0213989
0.0223198
0.0232976
0.0243343
0.0254265
0.0265684
0.0277531
0.0289733
0.0302225
0.0314945
0.0327838
0.0340854
0.0353946
0.0367075
0.0380201
0.039329
0.0406309
0.0419229
0.0432022
0.0444664
0.0457131
0.0469403
0.0481465
0.0493301
0.0504899
0.0516251
0.0527352
0.0538197
0.0548787
0.0559124
0.0569212
0.0579058
0.0588671
0.0598063
0.0607244
0.061623
0.0625035
0.0633676
0.0642168
0.0650531
0.065878
0.0666933
0.0675005
0.0683014
0.0690977
0.0698913
0.0706834
0.0714749
0.0722662
0.0730573
0.0738474
0.0746354
0.0754195
0.0761972
0.0769656
0.0777209
0.0784589
0.0791748
0.0798633
0.0805186
0.0811348
0.0817054
0.0822241
0.0826845
0.0830801
0.083405
0.0836536
0.0838207
0.0839019
0.0838935
0.0837925
0.0835971
0.0833058
0.082919
0.0824373
0.0818609
0.0811961
0.080447
0.0796184
0.078716
0.0777458
0.0767138
0.0756264
0.0744897
0.07331
0.0720933
0.0708455
0.0695726
0.06828
0.0669733
0.0656575
0.0643376
0.0630179
0.0617029
0.0603962
0.0591013
0.0578216
0.0565597
0.0553182
0.0540993
0.0529047
0.0517361
0.0505948
0.0494817
0.0483977
0.0473433
0.0463187
0.0453241
0.0443594
0.0434242
0.0425182
0.0416407
0.0407911
0.0399683
0.0391716
0.0383999
0.0376521
0.0369271
0.0362237
0.035541
0.0348778
0.034233
0.0336059
0.0329954
0.032401
0.031822
0.0312581
0.0307088
0.0301741
0.0296539
0.0291485
0.028658
0.028183
0.0277238
0.0272811
0.0268555
0.0264477
0.0260583
0.025688
0.0253373
0.0250072
0.0246983
0.0244106
0.0241441
0.0238986
0.0236738
0.0234692
0.023284
0.0231174
0.0229684
0.022836
0.0227191
0.0226163
0.0225265
0.0224484
0.0223808
0.0223224
0.0222721
0.0222287
0.0221911
0.0221583
0.0221293
0.0221032
0.022079
0.0220557
0.0220325
0.0220084
0.0219824
0.0219533
0.0219204
0.0218834
0.0218493
0.00647948
0.012097
0.0148122
0.0165681
0.0178802
0.018961
0.0199296
0.0208595
0.0217959
0.0227649
0.0237792
0.024843
0.0259551
0.0271119
0.0283084
0.0295392
0.0307993
0.0320838
0.0333883
0.0347086
0.0360408
0.0373812
0.0387263
0.0400726
0.041417
0.0427563
0.0440874
0.0454076
0.0467142
0.0480048
0.049277
0.050529
0.0517591
0.0529658
0.054148
0.0553049
0.056436
0.0575409
0.0586196
0.0596725
0.0606999
0.0617027
0.0626818
0.0636382
0.0645732
0.0654883
0.0663849
0.0672646
0.0681291
0.0689799
0.0698188
0.0706472
0.0714668
0.0722797
0.0730876
0.0738915
0.0746921
0.0754896
0.0762837
0.0770734
0.077857
0.0786325
0.079397
0.0801469
0.0808783
0.0815864
0.082266
0.0829115
0.0835172
0.0840767
0.0845838
0.0850321
0.0854154
0.0857275
0.0859629
0.0861167
0.0861843
0.086162
0.086047
0.0858372
0.0855309
0.0851287
0.084633
0.0840452
0.083369
0.0826084
0.0817681
0.0808533
0.0798696
0.0788229
0.0777193
0.0765649
0.0753659
0.0741284
0.0728585
0.071562
0.0702446
0.0689118
0.0675687
0.0662204
0.0648715
0.0635262
0.0621886
0.0608621
0.0595503
0.0582559
0.0569817
0.05573
0.0545027
0.0533016
0.0521282
0.0509836
0.0498688
0.0487843
0.0477307
0.0467082
0.0457168
0.0447562
0.0438262
0.0429262
0.0420556
0.0412136
0.0403991
0.0396113
0.038849
0.0381112
0.0373966
0.036704
0.0360324
0.0353806
0.0347477
0.0341326
0.0335346
0.0329528
0.0323869
0.0318362
0.0313007
0.0307801
0.0302745
0.0297841
0.0293091
0.02885
0.0284073
0.0279815
0.0275733
0.0271833
0.026812
0.02646
0.0261282
0.025817
0.0255267
0.0252572
0.0250086
0.0247804
0.0245723
0.0243835
0.0242133
0.0240608
0.0239249
0.0238046
0.0236985
0.0236057
0.0235246
0.0234543
0.0233934
0.0233407
0.0232952
0.0232557
0.0232212
0.0231907
0.0231632
0.0231378
0.0231135
0.0230896
0.0230651
0.023039
0.0230104
0.0229785
0.0229439
0.0229128
0.00642187
0.0118596
0.0145708
0.0163668
0.0177433
0.0188986
0.0199405
0.0209354
0.0219247
0.0229336
0.0239757
0.0250572
0.0261794
0.0273409
0.028539
0.0297701
0.0310309
0.0323177
0.0336272
0.034956
0.0363008
0.0376584
0.0390255
0.040399
0.0417756
0.0431521
0.0445253
0.0458922
0.0472497
0.0485952
0.049926
0.0512396
0.0525341
0.0538073
0.0550578
0.0562842
0.0574854
0.0586607
0.0598096
0.0609319
0.0620276
0.0630971
0.0641408
0.0651595
0.066154
0.0671254
0.068075
0.0690041
0.0699139
0.070806
0.0716819
0.0725428
0.0733901
0.0742261
0.0750524
0.0758703
0.0766807
0.0774839
0.0782797
0.0790673
0.0798455
0.0806122
0.0813648
0.0821001
0.0828143
0.0835029
0.084161
0.0847833
0.0853644
0.0858985
0.0863796
0.0868017
0.0871589
0.0874451
0.0876551
0.0877844
0.0878286
0.0877839
0.0876479
0.0874193
0.0870971
0.0866818
0.0861748
0.085578
0.0848944
0.0841279
0.0832825
0.0823632
0.0813753
0.0803243
0.079216
0.0780564
0.0768514
0.0756071
0.0743294
0.073024
0.0716966
0.0703527
0.0689973
0.0676354
0.0662717
0.0649105
0.0635559
0.0622114
0.0608806
0.0595665
0.0582719
0.0569992
0.0557505
0.0545278
0.0533327
0.0521665
0.0510302
0.0499247
0.0488507
0.0478083
0.0467979
0.0458194
0.0448725
0.0439568
0.0430718
0.0422166
0.0413905
0.0405924
0.0398214
0.0390762
0.0383556
0.0376585
0.0369837
0.0363299
0.0356961
0.0350813
0.0344844
0.0339046
0.0333413
0.0327939
0.032262
0.0317453
0.0312439
0.0307576
0.0302869
0.0298318
0.0293929
0.0289707
0.0285657
0.0281785
0.0278095
0.0274594
0.0271288
0.0268183
0.0265281
0.0262583
0.0260089
0.0257796
0.02557
0.0253795
0.0252075
0.0250529
0.0249149
0.0247924
0.0246842
0.0245892
0.0245061
0.0244337
0.0243709
0.0243165
0.0242693
0.0242283
0.0241924
0.0241606
0.024132
0.0241057
0.0240807
0.0240562
0.0240314
0.0240053
0.0239772
0.0239466
0.0239139
0.0238854
0.00629408
0.0115247
0.014212
0.0160299
0.0174522
0.0186643
0.019764
0.0208103
0.0218412
0.02288
0.023941
0.0250317
0.0261556
0.0273133
0.0285042
0.0297267
0.0309788
0.0322582
0.0335625
0.0348893
0.036236
0.0375997
0.0389777
0.0403669
0.0417643
0.0431666
0.0445708
0.0459736
0.047372
0.0487628
0.0501432
0.0515105
0.0528622
0.0541959
0.0555096
0.0568016
0.0580703
0.0593144
0.060533
0.0617254
0.0628911
0.0640299
0.0651418
0.0662271
0.0672861
0.0683196
0.0693282
0.0703128
0.0712745
0.0722143
0.0731333
0.0740326
0.0749131
0.0757767
0.0766253
0.0774599
0.0782815
0.0790904
0.0798864
0.080669
0.0814369
0.0821884
0.0829211
0.0836324
0.0843186
0.0849755
0.0855986
0.0861833
0.0867248
0.087218
0.0876575
0.0880381
0.0883548
0.0886008
0.0887721
0.0888649
0.0888756
0.0888011
0.0886393
0.0883888
0.0880488
0.0876198
0.0871027
0.0864995
0.0858127
0.0850456
0.0842021
0.0832867
0.082304
0.0812593
0.080158
0.0790057
0.077808
0.0765706
0.0752992
0.0739994
0.0726766
0.071336
0.0699828
0.0686217
0.0672574
0.0658942
0.0645361
0.0631868
0.0618498
0.0605282
0.059225
0.0579426
0.0566834
0.0554495
0.0542425
0.053064
0.0519152
0.0507971
0.0497105
0.048656
0.0476338
0.0466441
0.0456867
0.0447615
0.0438679
0.0430052
0.0421728
0.0413696
0.0405948
0.039847
0.0391252
0.0384281
0.0377545
0.0371032
0.0364728
0.0358624
0.0352708
0.034697
0.0341404
0.0336002
0.0330758
0.032567
0.0320734
0.0315951
0.0311321
0.0306846
0.030253
0.0298376
0.029439
0.0290576
0.028694
0.0283486
0.028022
0.0277148
0.0274272
0.0271594
0.0269114
0.026683
0.0264738
0.0262834
0.026111
0.0259558
0.025817
0.0256934
0.0255841
0.0254879
0.0254035
0.0253299
0.0252658
0.0252101
0.0251617
0.0251196
0.0250826
0.0250499
0.0250205
0.0249934
0.0249679
0.0249431
0.0249181
0.0248923
0.0248648
0.0248353
0.0248046
0.0247783
0.00610994
0.011125
0.0137784
0.0156062
0.0170598
0.0183131
0.0194553
0.0205397
0.0216004
0.0226594
0.0237306
0.0248227
0.0259407
0.0270872
0.0282632
0.0294689
0.0307034
0.0319658
0.0332549
0.0345689
0.0359061
0.0372643
0.0386411
0.0400339
0.0414398
0.0428559
0.0442792
0.0457064
0.0471345
0.0485603
0.0499809
0.0513931
0.0527944
0.0541819
0.0555534
0.0569067
0.0582397
0.0595507
0.0608383
0.0621012
0.0633383
0.064549
0.0657325
0.0668886
0.0680172
0.0691182
0.0701918
0.0712383
0.0722583
0.0732521
0.0742206
0.0751642
0.0760832
0.0769795
0.0778542
0.0787084
0.0795425
0.080357
0.0811514
0.0819253
0.0826776
0.0834066
0.0841106
0.0847872
0.0854341
0.086046
0.0866194
0.0871509
0.0876365
0.088072
0.0884532
0.0887757
0.0890351
0.0892271
0.0893478
0.089394
0.0893626
0.0892513
0.0890581
0.0887819
0.0884221
0.0879788
0.087453
0.0868461
0.0861604
0.0853987
0.0845643
0.0836611
0.0826934
0.0816657
0.080583
0.0794502
0.0782727
0.0770557
0.0758044
0.0745241
0.07322
0.0718969
0.0705599
0.0692135
0.0678622
0.0665103
0.0651617
0.0638202
0.0624892
0.061172
0.0598714
0.0585902
0.0573309
0.0560955
0.0548859
0.053704
0.052551
0.0514282
0.0503366
0.0492769
0.0482496
0.0472549
0.046293
0.0453638
0.0444668
0.0436017
0.0427678
0.0419641
0.0411898
0.0404437
0.0397248
0.0390317
0.0383632
0.037718
0.0370948
0.0364924
0.0359097
0.0353456
0.0347992
0.0342696
0.0337562
0.0332585
0.0327761
0.032309
0.0318569
0.0314201
0.0309988
0.0305932
0.0302039
0.0298311
0.0294755
0.0291374
0.0288173
0.0285157
0.028233
0.0279693
0.0277247
0.027499
0.027292
0.0271032
0.026932
0.0267776
0.0266391
0.0265157
0.0264062
0.0263096
0.0262247
0.0261504
0.0260857
0.0260292
0.0259801
0.0259372
0.0258996
0.0258662
0.0258362
0.0258087
0.0257829
0.0257579
0.0257331
0.0257076
0.0256809
0.0256527
0.0256239
0.0255996
0.00587606
0.0106816
0.0132992
0.0151317
0.0166075
0.0178905
0.0190633
0.0201745
0.0212549
0.0223252
0.0233991
0.0244858
0.0255913
0.02672
0.0278743
0.0290563
0.0302649
0.0315011
0.0327648
0.0340554
0.0353718
0.0367126
0.0380761
0.0394601
0.0408624
0.0422801
0.0437106
0.0451509
0.046598
0.0480487
0.0495001
0.050949
0.0523924
0.0538276
0.0552518
0.0566623
0.0580569
0.0594332
0.0607892
0.0621231
0.0634333
0.0647183
0.0659769
0.0672079
0.0684106
0.0695843
0.0707283
0.0718425
0.0729264
0.0739801
0.0750034
0.0759961
0.0769583
0.0778908
0.0787943
0.0796692
0.0805158
0.081334
0.0821233
0.0828831
0.0836124
0.0843099
0.0849739
0.0856027
0.0861939
0.0867448
0.0872525
0.0877145
0.0881279
0.0884897
0.0887969
0.0890463
0.089235
0.0893599
0.0894183
0.0894077
0.0893258
0.0891708
0.0889411
0.0886359
0.0882545
0.0877971
0.0872642
0.086657
0.0859772
0.085227
0.0844091
0.0835267
0.0825835
0.0815833
0.0805304
0.0794291
0.0782842
0.0771003
0.0758821
0.0746346
0.0733623
0.0720701
0.0707624
0.0694437
0.0681183
0.0667902
0.0654634
0.0641415
0.062828
0.0615261
0.0602388
0.058969
0.0577191
0.0564914
0.0552881
0.054111
0.0529616
0.0518415
0.0507518
0.0496934
0.048667
0.0476731
0.046712
0.0457838
0.0448883
0.0440252
0.0431939
0.0423938
0.0416239
0.0408832
0.0401706
0.0394849
0.0388249
0.0381891
0.0375763
0.0369852
0.0364145
0.035863
0.0353298
0.0348139
0.0343144
0.0338308
0.0333625
0.0329093
0.0324711
0.0320477
0.0316394
0.0312463
0.0308688
0.0305072
0.0301619
0.0298334
0.029522
0.0292283
0.0289525
0.0286949
0.0284555
0.0282344
0.0280312
0.0278455
0.0276767
0.0275243
0.0273874
0.027265
0.0271563
0.0270602
0.0269755
0.0269013
0.0268364
0.0267798
0.0267303
0.0266871
0.0266491
0.0266154
0.0265851
0.0265574
0.0265315
0.0265065
0.0264819
0.026457
0.0264312
0.0264044
0.0263775
0.0263552
0.00560171
0.0101995
0.0127933
0.0146336
0.0161291
0.017436
0.0186318
0.0197619
0.0208546
0.0219295
0.0229998
0.0240751
0.0251624
0.0262669
0.0273923
0.0285414
0.0297161
0.0309178
0.0321473
0.0334051
0.0346911
0.0360045
0.0373444
0.0387094
0.0400975
0.0415068
0.0429347
0.0443787
0.0458359
0.0473035
0.0487783
0.0502573
0.0517374
0.0532155
0.0546887
0.0561538
0.0576082
0.059049
0.0604736
0.0618796
0.0632645
0.0646262
0.0659626
0.067272
0.0685525
0.0698027
0.0710211
0.0722067
0.0733583
0.074475
0.0755561
0.0766001
0.0776067
0.0785758
0.0795072
0.0804006
0.0812558
0.0820721
0.082849
0.0835858
0.0842815
0.0849352
0.0855459
0.0861122
0.086633
0.0871067
0.0875321
0.0879077
0.0882321
0.0885039
0.0887216
0.0888836
0.0889885
0.0890345
0.0890201
0.0889439
0.0888043
0.0886002
0.0883304
0.0879941
0.0875908
0.0871204
0.086583
0.0859794
0.0853107
0.0845783
0.0837843
0.0829312
0.0820216
0.0810587
0.0800459
0.078987
0.0778859
0.0767467
0.0755735
0.0743705
0.0731422
0.0718926
0.0706262
0.0693469
0.0680588
0.0667659
0.0654718
0.0641803
0.0628946
0.0616181
0.0603538
0.0591045
0.0578729
0.0566614
0.0554723
0.0543076
0.053169
0.0520583
0.0509767
0.0499255
0.0489055
0.0479176
0.0469622
0.0460395
0.0451497
0.0442925
0.0434676