/*--------------------------------*- C++ -*----------------------------------*\
  =========                 |
  \\      /  F ield         | OpenFOAM: The Open Source CFD Toolbox
   \\    /   O peration     | Website:  https://openfoam.org
    \\  /    A nd           | Version:  6
     \\/     M anipulation  |
\*---------------------------------------------------------------------------*/
FoamFile
{
    version     2.0;
    format      ascii;
    class       volScalarField;
    location    "0.22";
    object      nut;
}
// * * * * * * * * * * * * * * * * * * * * * * * * * * * * * * * * * * * * * //

dimensions      [0 2 -1 0 0 0 0];

internalField   nonuniform List<scalar> 
12225
(
1.77723e-05
1.42681e-05
1.23501e-05
1.11613e-05
1.03583e-05
9.78647e-06
9.35898e-06
9.02342e-06
8.74884e-06
8.517e-06
8.31675e-06
8.14091e-06
7.98459e-06
7.84428e-06
7.71729e-06
7.60166e-06
7.49572e-06
7.40414e-06
0.00014488
0.000101905
8.78782e-05
8.05072e-05
7.60392e-05
7.3045e-05
7.07271e-05
6.87039e-05
6.68485e-05
6.5133e-05
6.35491e-05
6.20875e-05
6.07382e-05
5.949e-05
5.83342e-05
5.7254e-05
5.62876e-05
5.54161e-05
0.000323316
0.000223553
0.000189759
0.000172498
0.000161945
0.000154821
0.000149527
0.000145222
0.000141503
0.000138186
0.00013518
0.000132428
0.000129894
0.000127549
0.000125371
0.000123337
0.000121476
0.000119838
0.000493959
0.000355209
0.000299381
0.000269547
0.00025097
0.000238324
0.000229055
0.000221788
0.000215781
0.000210628
0.000206092
0.00020203
0.000198347
0.000194976
0.00019187
0.000188991
0.00018635
0.00018402
0.000624463
0.000478649
0.000407295
0.000366101
0.000339472
0.00032095
0.000307285
0.000296667
0.000288051
0.000280817
0.000274583
0.0002691
0.000264205
0.000259781
0.000255745
0.000252041
0.000248659
0.000245674
0.000713104
0.000583329
0.000506455
0.000457795
0.000424718
0.000400982
0.000383159
0.000369224
0.000357945
0.000348549
0.000340533
0.00033356
0.000327399
0.000321886
0.000316902
0.000312366
0.000308252
0.000304623
0.000769316
0.000665556
0.000592239
0.000541038
0.000504135
0.000476625
0.000455446
0.000438642
0.000424945
0.000413515
0.000403782
0.000395351
0.000387941
0.000381347
0.000375421
0.000370063
0.000365229
0.000360967
0.000803464
0.000726286
0.000662485
0.000613303
0.00057553
0.000546126
0.000522798
0.000503906
0.000488302
0.000475177
0.000463955
0.000454221
0.000445669
0.000438073
0.000431266
0.000425133
0.000419619
0.000414755
0.000823632
0.00076891
0.000717169
0.000673314
0.000637347
0.000608009
0.00058393
0.000563944
0.000547142
0.000532832
0.000520493
0.00050973
0.000500243
0.000491803
0.000484238
0.000477428
0.000471313
0.000465908
0.000835321
0.00079758
0.000757797
0.000721014
0.000688825
0.000661263
0.000637799
0.000617778
0.000600589
0.000585716
0.000572739
0.000561318
0.000551188
0.000542136
0.000533999
0.000526664
0.00052007
0.00051422
0.000842014
0.000816186
0.000786711
0.000757336
0.00073001
0.000705456
0.000683746
0.000664663
0.000647894
0.000633115
0.000620031
0.000608386
0.000597963
0.000588587
0.000580116
0.000572452
0.000565542
0.000559379
0.000845506
0.00082693
0.000804836
0.000781627
0.00075897
0.000737763
0.000718371
0.00070085
0.000685104
0.000670971
0.000658271
0.000646828
0.000636484
0.000627103
0.000618575
0.00061082
0.000603797
0.000597505
0.000847618
0.000833937
0.000817463
0.000799504
0.000781246
0.000763504
0.000746743
0.000731177
0.00071686
0.000703759
0.000691793
0.000680865
0.000670875
0.00066173
0.000653352
0.000645686
0.000638705
0.000632406
0.00084898
0.000838773
0.00082676
0.000813445
0.00079948
0.00078544
0.000771738
0.000758633
0.000746266
0.000734693
0.000723918
0.000713913
0.000704637
0.000696043
0.000688089
0.000680747
0.000674008
0.000667867
0.000849782
0.00084179
0.000832926
0.000823243
0.000812977
0.000802418
0.000791833
0.00078143
0.000771355
0.0007617
0.000752516
0.000743825
0.00073563
0.000727925
0.000720702
0.00071396
0.000707705
0.000701929
0.000850209
0.000843469
0.00083655
0.000829333
0.000821815
0.000814073
0.000806212
0.000798341
0.000790556
0.000782933
0.000775529
0.000768382
0.000761519
0.000754959
0.000748718
0.000742813
0.000737261
0.000732052
0.000850409
0.000844283
0.000838388
0.000832578
0.000826761
0.0008209
0.000814994
0.000809062
0.000803138
0.000797257
0.000791454
0.000785759
0.000780199
0.000774801
0.000769588
0.000764587
0.000759818
0.000755263
0.000850482
0.000844584
0.000839091
0.000833867
0.000828806
0.000823834
0.000818905
0.000813999
0.000809108
0.000804239
0.000799404
0.00079462
0.000789908
0.000785287
0.000780783
0.000776421
0.000772218
0.000768144
0.000850461
0.000844499
0.000838897
0.000833517
0.000828261
0.000823066
0.000817901
0.000812755
0.000807631
0.000802543
0.000797508
0.000792544
0.000787673
0.000782915
0.000778294
0.000773831
0.000769542
0.000765393
0.000850264
0.000843699
0.000837082
0.000830294
0.000823311
0.000816173
0.000808954
0.000801734
0.000794587
0.000787576
0.000780749
0.000774144
0.000767786
0.000761693
0.000755883
0.000750368
0.000745156
0.000740206
0.000849709
0.000841538
0.000832463
0.000822583
0.000812163
0.0008015
0.000790858
0.000780438
0.00077038
0.00076077
0.000751654
0.000743052
0.000734963
0.000727378
0.000720285
0.000713674
0.000707531
0.000701809
0.000848165
0.000835955
0.000821438
0.000805566
0.000789266
0.000773227
0.000757886
0.000743477
0.000730094
0.000717746
0.000706395
0.000695976
0.000686417
0.000677645
0.000669596
0.000662218
0.000655468
0.000649282
0.000844088
0.000822755
0.000797961
0.000772554
0.000748257
0.000725883
0.000705695
0.000687658
0.0006716
0.000657308
0.000644562
0.000633159
0.000622922
0.0006137
0.000605368
0.000597831
0.000591017
0.000584851
0.000833791
0.00079425
0.000753396
0.000716083
0.00068366
0.000656024
0.000632582
0.000612647
0.00059559
0.000580884
0.0005681
0.000556897
0.000547006
0.000538213
0.000530353
0.000523303
0.000516977
0.000511302
0.000809076
0.000738694
0.000678547
0.000630935
0.000593624
0.000564153
0.000540548
0.000521326
0.000505409
0.00049202
0.000480592
0.000470713
0.000462073
0.000454445
0.000447656
0.000441583
0.000436146
0.000431287
0.000753685
0.000642687
0.000568249
0.000517626
0.000481626
0.000455036
0.000434737
0.000418757
0.000405822
0.000395097
0.000386018
0.000378197
0.00037136
0.000365312
0.000359912
0.000355061
0.000350701
0.0003468
0.000641466
0.000499156
0.000426795
0.000383992
0.000355866
0.000336168
0.000321661
0.000310471
0.000301484
0.00029402
0.000287654
0.00028211
0.000277203
0.000272807
0.000268835
0.000265225
0.000261947
0.000258996
0.000448553
0.000320189
0.00027029
0.000243477
0.00022673
0.000215453
0.000207327
0.000201046
0.000195893
0.000191481
0.000187592
0.000184102
0.000180932
0.000178029
0.000175358
0.000172895
0.000170626
0.000168565
0.000203095
0.000143552
0.000122976
0.00011171
0.000104816
0.000100371
9.71881e-05
9.46034e-05
9.23219e-05
9.02348e-05
8.8303e-05
8.65093e-05
8.48432e-05
8.32964e-05
8.18605e-05
8.05274e-05
7.92909e-05
7.81508e-05
2.40294e-05
1.96339e-05
1.71031e-05
1.54672e-05
1.43248e-05
1.34924e-05
1.28647e-05
1.23741e-05
1.19771e-05
1.16464e-05
1.13642e-05
1.11191e-05
1.09031e-05
1.07107e-05
1.05379e-05
1.03817e-05
1.02398e-05
1.01108e-05
1.97412e-06
5.58459e-06
6.04076e-06
6.17997e-06
6.3243e-06
6.52659e-06
6.76934e-06
7.05142e-06
7.39314e-06
7.76561e-06
8.12932e-06
8.49952e-06
8.87603e-06
9.25542e-06
9.63341e-06
1.00059e-05
1.03698e-05
1.07225e-05
1.10625e-05
1.13888e-05
1.1701e-05
1.1999e-05
1.22831e-05
1.25536e-05
1.28111e-05
1.30562e-05
1.32896e-05
1.35122e-05
1.37247e-05
1.39278e-05
1.41224e-05
1.4309e-05
1.44885e-05
1.46614e-05
1.48284e-05
1.499e-05
1.51466e-05
1.52987e-05
1.54467e-05
1.55909e-05
1.57317e-05
1.58693e-05
1.6004e-05
1.61359e-05
1.62653e-05
1.63923e-05
1.65173e-05
1.66404e-05
1.67621e-05
1.68828e-05
1.70031e-05
1.71239e-05
1.72477e-05
1.73682e-05
1.74857e-05
1.76002e-05
1.77115e-05
1.78193e-05
1.79233e-05
1.80233e-05
1.81186e-05
1.82091e-05
1.82941e-05
1.83733e-05
1.84461e-05
1.85122e-05
1.85709e-05
1.86218e-05
1.86644e-05
1.86982e-05
1.87229e-05
1.87378e-05
1.87428e-05
1.87373e-05
1.87211e-05
1.8694e-05
1.86556e-05
1.8606e-05
1.8545e-05
1.84726e-05
1.83889e-05
1.82939e-05
1.8188e-05
1.80713e-05
1.79441e-05
1.78069e-05
1.76601e-05
1.75041e-05
1.73393e-05
1.71662e-05
1.69849e-05
1.67951e-05
1.66008e-05
1.64287e-05
1.62964e-05
1.6168e-05
1.6038e-05
1.59056e-05
1.57709e-05
1.56342e-05
1.54959e-05
1.53564e-05
1.52162e-05
1.50755e-05
1.49347e-05
1.47943e-05
1.46545e-05
1.45155e-05
1.43777e-05
1.42411e-05
1.41062e-05
1.39729e-05
1.38414e-05
1.37118e-05
1.35842e-05
1.34586e-05
1.33351e-05
1.32135e-05
1.30939e-05
1.29762e-05
1.28603e-05
1.2746e-05
1.26333e-05
1.2522e-05
1.24119e-05
1.23029e-05
1.21948e-05
1.20874e-05
1.19806e-05
1.18741e-05
1.17679e-05
1.16619e-05
1.15559e-05
1.14499e-05
1.13438e-05
1.12377e-05
1.11317e-05
1.10257e-05
1.092e-05
1.08148e-05
1.07098e-05
1.06049e-05
1.04994e-05
1.03939e-05
1.02932e-05
1.01968e-05
1.01046e-05
1.00167e-05
9.933e-06
9.85366e-06
9.77865e-06
9.70798e-06
9.64161e-06
9.57948e-06
9.52149e-06
9.46751e-06
9.41737e-06
9.37086e-06
9.32775e-06
9.28781e-06
9.25076e-06
9.21634e-06
9.18426e-06
9.15424e-06
9.12599e-06
9.09925e-06
9.07374e-06
9.04917e-06
9.02526e-06
9.00172e-06
8.97823e-06
8.95439e-06
8.92977e-06
8.90372e-06
8.87539e-06
8.84336e-06
8.80535e-06
8.75679e-06
8.69065e-06
8.59042e-06
2.77532e-06
1.65208e-05
2.79408e-05
3.44393e-05
3.69879e-05
3.79746e-05
3.87611e-05
3.96931e-05
4.06941e-05
4.16992e-05
4.27313e-05
4.38496e-05
4.51088e-05
4.65444e-05
4.81733e-05
4.99988e-05
5.20144e-05
5.42059e-05
5.65536e-05
5.90333e-05
6.16177e-05
6.42782e-05
6.69861e-05
6.97141e-05
7.24376e-05
7.51352e-05
7.77897e-05
8.03878e-05
8.29204e-05
8.5382e-05
8.77705e-05
9.00863e-05
9.23322e-05
9.45125e-05
9.6633e-05
9.86999e-05
0.00010072
0.000102701
0.000104649
0.000106571
0.000108473
0.00011036
0.000112238
0.000114108
0.000115974
0.000117834
0.000119687
0.000121529
0.000123349
0.000125138
0.000126876
0.000128547
0.000130153
0.000131768
0.000133401
0.000135053
0.000136724
0.00013841
0.000140108
0.000141815
0.000143527
0.000145239
0.000146944
0.000148636
0.000150309
0.000151955
0.000153566
0.000155134
0.000156651
0.000158107
0.000159495
0.000160805
0.000162029
0.000163159
0.000164188
0.000165109
0.000165915
0.000166602
0.000167164
0.000167598
0.000167901
0.000168072
0.00016811
0.000168015
0.000167788
0.000167429
0.000166941
0.000166324
0.000165574
0.000164682
0.000163626
0.000162359
0.00016082
0.000159031
0.000157108
0.000155107
0.000153051
0.000150953
0.000148821
0.000146665
0.000144491
0.000142306
0.000140117
0.000137928
0.000135746
0.000133575
0.00013142
0.000129284
0.000127171
0.000125084
0.000123026
0.000120999
0.000119003
0.000117042
0.000115115
0.000113224
0.000111368
0.000109548
0.000107762
0.000106011
0.000104292
0.000102606
0.000100951
9.93241e-05
9.77252e-05
9.61521e-05
9.46033e-05
9.30773e-05
9.15727e-05
9.00882e-05
8.8623e-05
8.71765e-05
8.57482e-05
8.43384e-05
8.29475e-05
8.15765e-05
8.02268e-05
7.89003e-05
7.75991e-05
7.63253e-05
7.50799e-05
7.38613e-05
7.26588e-05
7.14405e-05
7.02176e-05
6.90653e-05
6.7996e-05
6.70054e-05
6.60899e-05
6.52466e-05
6.44731e-05
6.37671e-05
6.31259e-05
6.25466e-05
6.20259e-05
6.15603e-05
6.11457e-05
6.0778e-05
6.0453e-05
6.01663e-05
5.99134e-05
5.969e-05
5.94917e-05
5.93143e-05
5.91537e-05
5.90058e-05
5.88667e-05
5.87322e-05
5.8598e-05
5.84593e-05
5.83106e-05
5.81447e-05
5.79518e-05
5.77171e-05
5.74167e-05
5.70097e-05
5.64113e-05
5.54906e-05
5.38216e-05
5.1561e-05
3.482e-06
2.61929e-05
4.33942e-05
5.29623e-05
5.79615e-05
6.06944e-05
6.26323e-05
6.44936e-05
6.65278e-05
6.88133e-05
7.14029e-05
7.43516e-05
7.77041e-05
8.1483e-05
8.56856e-05
9.02867e-05
9.52426e-05
0.000100497
0.000105985
0.000111638
0.000117391
0.000123181
0.000128952
0.000134657
0.00014026
0.000145731
0.000151051
0.000156207
0.000161194
0.00016601
0.000170661
0.000175151
0.00017949
0.000183689
0.000187759
0.000191712
0.000195559
0.000199313
0.000202984
0.000206583
0.00021012
0.000213602
0.000217038
0.000220432
0.00022379
0.000227114
0.000230406
0.000233664
0.000236887
0.000240072
0.000243218
0.000246325
0.000249428
0.000252554
0.000255711
0.000258898
0.000262114
0.000265356
0.000268617
0.000271891
0.000275172
0.000278449
0.000281712
0.000284951
0.000288151
0.0002913
0.000294383
0.000297384
0.000300286
0.000303075
0.000305733
0.000308243
0.000310591
0.000312759
0.000314734
0.000316502
0.000318051
0.000319369
0.000320447
0.000321279
0.000321857
0.000322178
0.000322239
0.000322041
0.000321582
0.000320865
0.000319891
0.00031866
0.00031717
0.000315414
0.000313377
0.000311035
0.00030838
0.000305436
0.000302282
0.000298971
0.000295537
0.000292001
0.000288382
0.000284695
0.000280955
0.000277174
0.000273365
0.00026954
0.00026571
0.000261884
0.000258072
0.000254281
0.00025052
0.000246796
0.000243113
0.000239476
0.000235891
0.000232361
0.000228887
0.000225472
0.000222116
0.000218821
0.000215585
0.000212407
0.000209286
0.00020622
0.000203206
0.000200242
0.000197323
0.000194446
0.000191609
0.000188807
0.000186038
0.000183298
0.000180586
0.0001779
0.000175237
0.000172599
0.000169985
0.000167396
0.000164836
0.000162306
0.00015981
0.000157352
0.000154934
0.000152558
0.000150219
0.000147909
0.000145626
0.000143378
0.000141238
0.000139222
0.000137336
0.000135582
0.00013396
0.000132469
0.000131108
0.000129872
0.000128759
0.000127761
0.000126872
0.000126085
0.00012539
0.000124781
0.000124246
0.000123779
0.000123368
0.000123006
0.000122684
0.000122392
0.000122123
0.000121868
0.000121618
0.000121363
0.000121091
0.000120791
0.000120442
0.000120021
0.000119487
0.000118773
0.000117754
0.00011621
0.000113588
0.000109514
3.99508e-06
3.21718e-05
5.42393e-05
6.74976e-05
7.52543e-05
8.00338e-05
8.35284e-05
8.67365e-05
9.01633e-05
9.40373e-05
9.84588e-05
0.000103469
0.000109073
0.000115245
0.000121932
0.000129063
0.000136552
0.00014431
0.000152247
0.00016028
0.000168331
0.000176337
0.000184243
0.000192005
0.000199592
0.00020698
0.000214154
0.000221106
0.000227833
0.000234337
0.000240623
0.000246699
0.000252576
0.000258263
0.000263773
0.000269119
0.000274311
0.000279364
0.000284288
0.000289095
0.000293795
0.0002984
0.000302917
0.000307357
0.000311726
0.00031603
0.000320277
0.000324472
0.000328619
0.000332724
0.000336791
0.000340826
0.000344865
0.000348923
0.000353006
0.000357116
0.000361252
0.000365411
0.000369588
0.000373777
0.00037797
0.000382156
0.000386324
0.00039046
0.000394549
0.000398576
0.000402521
0.000406367
0.000410094
0.000413681
0.000417108
0.000420354
0.000423399
0.000426222
0.000428805
0.00043113
0.00043318
0.00043494
0.000436398
0.000437542
0.000438363
0.000438856
0.000439016
0.000438839
0.000438326
0.000437478
0.000436295
0.000434781
0.000432935
0.000430759
0.000428246
0.000425399
0.000422226
0.000418761
0.000415049
0.00041113
0.000407038
0.000402796
0.000398426
0.000393949
0.000389383
0.000384744
0.00038005
0.000375316
0.000370556
0.000365784
0.000361012
0.000356252
0.000351514
0.000346808
0.000342142
0.000337523
0.000332959
0.000328453
0.000324011
0.000319635
0.000315327
0.000311089
0.00030692
0.000302819
0.000298785
0.000294816
0.000290908
0.000287057
0.00028326
0.000279511
0.000275806
0.000272141
0.000268511
0.000264911
0.000261339
0.000257792
0.000254267
0.000250763
0.000247281
0.000243823
0.00024039
0.000236986
0.000233616
0.000230285
0.000226999
0.000223761
0.000220575
0.000217442
0.000214368
0.000211357
0.000208433
0.000205654
0.00020303
0.00020057
0.000198278
0.000196157
0.000194208
0.000192428
0.000190814
0.00018936
0.000188059
0.000186901
0.000185876
0.000184973
0.000184181
0.000183487
0.000182878
0.000182344
0.000181871
0.000181447
0.000181061
0.0001807
0.000180353
0.000180005
0.000179642
0.000179248
0.000178799
0.000178265
0.000177602
0.000176736
0.000175539
0.000173791
0.000171037
0.000166972
4.33742e-06
3.57585e-05
6.21256e-05
7.89793e-05
8.96645e-05
9.68191e-05
0.000102268
0.000107187
0.000112256
0.000117823
0.000124034
0.000130927
0.000138473
0.000146605
0.000155238
0.000164271
0.000173603
0.000183135
0.000192777
0.000202446
0.000212075
0.000221603
0.000230984
0.000240182
0.000249168
0.000257922
0.000266431
0.000274688
0.000282689
0.000290436
0.000297931
0.000305182
0.000312195
0.00031898
0.000325547
0.000331906
0.00033807
0.000344048
0.000349853
0.000355496
0.000360989
0.000366342
0.000371566
0.000376673
0.000381671
0.000386571
0.000391382
0.000396114
0.000400775
0.000405374
0.000409919
0.000414415
0.000418896
0.000423379
0.000427871
0.000432378
0.000436903
0.000441444
0.000445999
0.000450565
0.000455134
0.000459698
0.000464247
0.000468769
0.000473248
0.000477668
0.000482013
0.000486262
0.000490394
0.000494389
0.000498224
0.000501876
0.000505322
0.00050854
0.000511508
0.000514205
0.000516612
0.000518709
0.000520483
0.000521917
0.000523001
0.000523725
0.000524082
0.000524067
0.000523679
0.000522916
0.000521779
0.000520273
0.000518399
0.000516159
0.000513556
0.000510607
0.000507331
0.000503754
0.000499909
0.000495827
0.000491536
0.00048706
0.000482423
0.000477646
0.00047275
0.000467753
0.000462675
0.000457533
0.000452343
0.000447122
0.000441883
0.000436641
0.000431409
0.000426196
0.000421015
0.000415873
0.00041078
0.00040574
0.000400761
0.000395846
0.000390999
0.00038622
0.000381512
0.000376873
0.000372302
0.000367797
0.000363354
0.00035897
0.000354639
0.000350356
0.000346117
0.000341915
0.000337745
0.000333603
0.000329484
0.000325384
0.000321301
0.000317233
0.00031318
0.000309143
0.000305126
0.000301132
0.000297166
0.000293236
0.000289348
0.000285509
0.000281728
0.000278012
0.00027437
0.00027081
0.000267341
0.000264016
0.000260858
0.000257877
0.000255084
0.000252485
0.000250083
0.000247879
0.00024587
0.000244051
0.000242415
0.000240953
0.000239653
0.000238505
0.000237494
0.000236606
0.000235828
0.000235144
0.000234541
0.000234003
0.000233516
0.000233066
0.000232638
0.000232217
0.000231786
0.000231324
0.000230807
0.000230203
0.000229466
0.000228524
0.000227259
0.000225478
0.000222848
0.000219244
4.53931e-06
3.787e-05
6.75863e-05
8.7674e-05
0.000101261
0.000110956
0.000118606
0.000125458
0.000132285
0.000139515
0.00014734
0.000155809
0.00016489
0.000174507
0.000184561
0.00019495
0.000205573
0.000216337
0.000227158
0.000237963
0.000248692
0.000259292
0.000269723
0.00027995
0.00028995
0.000299703
0.000309194
0.000318416
0.000327364
0.000336034
0.000344429
0.000352551
0.000360405
0.000367997
0.000375335
0.000382427
0.000389281
0.000395909
0.00040232
0.000408525
0.000414535
0.00042036
0.000426013
0.000431505
0.000436848
0.000442052
0.00044713
0.000452092
0.000456951
0.000461715
0.000466395
0.000471
0.000475559
0.000480093
0.000484616
0.000489137
0.000493663
0.000498199
0.000502746
0.000507304
0.00051187
0.000516439
0.000521003
0.000525554
0.000530079
0.000534564
0.000538992
0.000543347
0.000547606
0.000551751
0.000555757
0.000559601
0.00056326
0.000566708
0.000569923
0.000572881
0.00057556
0.000577939
0.000579998
0.000581721
0.000583093
0.000584101
0.000584735
0.000584988
0.000584854
0.000584332
0.00058342
0.000582124
0.000580435
0.000578365
0.000575928
0.000573142
0.000570026
0.000566602
0.000562894
0.00055893
0.000554732
0.000550325
0.000545732
0.000540973
0.00053607
0.000531044
0.000525913
0.000520697
0.000515413
0.000510078
0.000504708
0.000499319
0.000493923
0.000488535
0.000483164
0.000477822
0.000472519
0.00046726
0.000462054
0.000456906
0.000451818
0.000446795
0.000441838
0.000436946
0.000432118
0.000427353
0.000422647
0.000417995
0.000413394
0.000408837
0.00040432
0.000399835
0.000395377
0.00039094
0.00038652
0.000382111
0.000377712
0.000373319
0.000368933
0.000364554
0.000360184
0.00035583
0.000351495
0.000347188
0.000342917
0.000338691
0.000334522
0.00033042
0.000326396
0.000322462
0.000318631
0.00031493
0.000311397
0.000308049
0.000304896
0.000301948
0.00029921
0.000296687
0.000294376
0.000292274
0.000290376
0.000288673
0.000287153
0.000285805
0.000284615
0.000283567
0.000282647
0.000281838
0.000281124
0.000280489
0.000279918
0.000279394
0.000278901
0.000278421
0.000277937
0.000277426
0.000276864
0.000276217
0.000275441
0.000274468
0.000273195
0.000271463
0.00026904
0.000265936
4.65678e-06
3.88472e-05
7.10406e-05
9.39086e-05
0.000110203
0.000122403
0.000132298
0.000141129
0.000149701
0.000158485
0.000167716
0.000177472
0.00018774
0.000198456
0.000209533
0.000220879
0.000232404
0.000244024
0.000255667
0.000267268
0.000278772
0.000290135
0.000301318
0.000312292
0.00032303
0.000333515
0.00034373
0.000353666
0.000363314
0.00037267
0.000381731
0.000390497
0.000398969
0.00040715
0.000415045
0.000422659
0.000429999
0.000437072
0.000443887
0.000450453
0.00045678
0.000462878
0.000468758
0.000474432
0.000479911
0.000485208
0.000490335
0.000495305
0.000500131
0.000504824
0.000509398
0.000513862
0.000518243
0.000522569
0.000526858
0.000531128
0.00053539
0.000539653
0.000543927
0.000548214
0.000552518
0.000556837
0.00056117
0.00056551
0.00056985
0.000574179
0.000578482
0.000582744
0.000586948
0.000591072
0.000595095
0.000598993
0.000602742
0.000606316
0.00060969
0.000612839
0.000615738
0.000618364
0.000620693
0.000622706
0.000624385
0.000625713
0.000626677
0.000627269
0.000627475
0.000627298
0.000626723
0.00062575
0.000624388
0.000622648
0.000620543
0.000618088
0.000615301
0.000612199
0.000608805
0.000605139
0.000601224
0.000597081
0.000592732
0.000588199
0.000583502
0.000578662
0.000573698
0.000568631
0.000563477
0.000558255
0.000552982
0.000547673
0.000542343
0.000537006
0.000531674
0.000526358
0.000521069
0.000515815
0.000510604
0.000505442
0.000500333
0.000495281
0.000490288
0.000485355
0.00048048
0.000475662
0.000470898
0.000466183
0.000461514
0.000456884
0.000452287
0.000447717
0.000443167
0.000438631
0.000434105
0.000429582
0.000425059
0.000420533
0.000416004
0.000411472
0.000406939
0.00040241
0.00039789
0.000393388
0.000388912
0.000384474
0.000380086
0.00037576
0.000371509
0.000367349
0.000363292
0.000359358
0.000355586
0.000351995
0.0003486
0.000345411
0.000342438
0.000339686
0.000337155
0.000334844
0.000332748
0.00033086
0.00032917
0.000327665
0.000326332
0.000325155
0.000324119
0.000323207
0.000322403
0.000321689
0.000321048
0.000320463
0.000319916
0.00031939
0.000318866
0.00031832
0.000317728
0.000317058
0.000316266
0.000315291
0.000314046
0.000312403
0.000310207
0.000307548
4.71365e-06
3.90184e-05
7.29139e-05
9.80665e-05
0.000116761
0.000131277
0.0001433
0.000154017
0.000164225
0.000174415
0.000184855
0.000195659
0.000206846
0.000218378
0.000230191
0.000242211
0.000254361
0.000266573
0.000278783
0.000290934
0.000302979
0.000314876
0.000326592
0.000338095
0.000349363
0.000360376
0.000371116
0.00038157
0.000391729
0.000401584
0.00041113
0.000420363
0.000429281
0.000437883
0.000446172
0.00045415
0.000461819
0.000469186
0.000476256
0.000483037
0.000489535
0.000495762
0.000501725
0.000507436
0.000512907
0.000518149
0.000523175
0.000528
0.000532635
0.000537097
0.000541398
0.000545553
0.000549587
0.000553531
0.000557414
0.000561256
0.000565078
0.000568894
0.000572719
0.000576563
0.000580434
0.000584338
0.000588277
0.00059225
0.000596254
0.000600281
0.000604322
0.000608364
0.000612391
0.000616385
0.000620324
0.000624185
0.000627944
0.000631575
0.00063505
0.000638344
0.000641428
0.000644277
0.000646864
0.000649166
0.000651164
0.000652834
0.000654158
0.000655136
0.000655731
0.000655941
0.000655765
0.000655206
0.000654269
0.00065296
0.000651291
0.000649274
0.000646923
0.000644254
0.000641286
0.000638036
0.000634525
0.000630773
0.0006268
0.000622628
0.000618275
0.000613763
0.000609112
0.00060434
0.000599466
0.000594508
0.000589484
0.00058441
0.000579301
0.000574172
0.000569035
0.000563903
0.000558786
0.000553695
0.000548637
0.000543618
0.000538646
0.000533722
0.000528851
0.000524032
0.000519267
0.000514552
0.000509886
0.000505265
0.000500682
0.000496134
0.000491613
0.000487113
0.000482626
0.000478147
0.000473669
0.000469186
0.000464695
0.000460191
0.000455674
0.000451142
0.000446599
0.000442047
0.000437493
0.000432945
0.000428411
0.000423904
0.000419436
0.000415021
0.000410674
0.00040641
0.000402245
0.000398194
0.000394294
0.000390566
0.000387026
0.000383689
0.000380566
0.000377662
0.000374982
0.000372526
0.00037029
0.000368268
0.000366452
0.000364829
0.000363387
0.00036211
0.000360984
0.00035999
0.000359113
0.000358335
0.000357638
0.000357004
0.000356415
0.000355854
0.000355299
0.00035473
0.00035412
0.000353439
0.000352648
0.000351692
0.000350495
0.00034896
0.000346987
0.000344704
4.72603e-06
3.86351e-05
7.35698e-05
0.000100509
0.000121238
0.000137793
0.000151726
0.000164149
0.000175828
0.000187257
0.000198728
0.00021039
0.000222293
0.000234433
0.000246773
0.000259258
0.000271832
0.000284437
0.000297021
0.000309536
0.000321938
0.000334191
0.000346263
0.000358125
0.000369753
0.000381126
0.000392227
0.00040304
0.000413553
0.000423755
0.000433638
0.000443194
0.000452418
0.000461308
0.000469861
0.000478076
0.000485955
0.000493499
0.000500712
0.000507598
0.000514164
0.000520416
0.000526362
0.000532011
0.000537375
0.000542464
0.000547291
0.00055187
0.000556215
0.000560343
0.000564268
0.000568009
0.000571589
0.000575047
0.000578417
0.000581726
0.000585001
0.000588264
0.000591536
0.000594833
0.000598169
0.000601557
0.000605004
0.000608515
0.000612091
0.00061573
0.000619425
0.000623167
0.000626943
0.000630737
0.000634529
0.000638296
0.000642015
0.000645657
0.000649195
0.0006526
0.000655846
0.000658901
0.000661734
0.000664319
0.000666642
0.000668665
0.000670359
0.000671716
0.000672722
0.000673367
0.000673646
0.000673558
0.000673105
0.00067229
0.000671121
0.000669607
0.00066776
0.000665593
0.000663121
0.000660362
0.000657333
0.000654052
0.000650539
0.000646813
0.000642894
0.000638801
0.000634555
0.000630174
0.000625678
0.000621084
0.00061641
0.000611672
0.000606888
0.000602071
0.000597235
0.000592394
0.000587558
0.000582738
0.000577943
0.00057318
0.000568455
0.000563773
0.000559137
0.000554549
0.000550008
0.000545514
0.000541063
0.000536652
0.000532277
0.00052793
0.000523606
0.000519297
0.000514997
0.000510697
0.000506392
0.000502074
0.000497739
0.000493383
0.000489002
0.000484597
0.000480168
0.000475719
0.000471254
0.000466782
0.000462312
0.000457854
0.000453422
0.000449031
0.000444696
0.000440433
0.000436258
0.000432187
0.000428252
0.000424476
0.000420877
0.00041747
0.000414269
0.000411283
0.000408516
0.000405971
0.000403645
0.000401535
0.000399632
0.000397927
0.000396407
0.000395057
0.000393863
0.000392808
0.000391876
0.000391048
0.000390307
0.000389636
0.000389015
0.000388427
0.000387852
0.000387268
0.00038665
0.00038597
0.000385191
0.000384265
0.00038313
0.00038171
0.000379944
0.000377977
4.70494e-06
3.78761e-05
7.32937e-05
0.000101542
0.000123917
0.000142195
0.000157776
0.000171685
0.000184644
0.000197142
0.000209483
0.000221843
0.000234305
0.000246895
0.000259602
0.000272395
0.000285234
0.000298077
0.00031088
0.000323604
0.000336211
0.000348669
0.000360947
0.000373018
0.000384859
0.000396448
0.000407767
0.000418798
0.000429528
0.000439943
0.000450032
0.000459785
0.000469196
0.000478257
0.000486963
0.000495311
0.0005033
0.000510927
0.000518194
0.000525102
0.000531656
0.000537859
0.000543717
0.000549238
0.000554431
0.000559306
0.000563875
0.000568151
0.000572149
0.000575886
0.000579379
0.000582648
0.00058572
0.000588639
0.000591444
0.00059417
0.00059685
0.000599512
0.000602182
0.000604885
0.000607641
0.000610467
0.000613377
0.000616382
0.000619487
0.000622695
0.000626004
0.000629407
0.000632894
0.000636451
0.000640061
0.000643703
0.000647354
0.000650981
0.000654556
0.000658051
0.00066144
0.000664696
0.000667762
0.000670617
0.000673237
0.000675595
0.000677665
0.00067943
0.000680872
0.000681979
0.000682743
0.000683159
0.000683223
0.000682937
0.000682305
0.000681333
0.00068003
0.000678406
0.000676475
0.000674251
0.00067175
0.000668989
0.000665986
0.000662759
0.000659328
0.00065571
0.000651927
0.000647996
0.000643937
0.000639768
0.000635507
0.000631171
0.000626776
0.000622338
0.000617872
0.000613391
0.000608907
0.000604431
0.000599972
0.00059554
0.00059114
0.000586779
0.000582458
0.000578182
0.000573949
0.00056976
0.000565612
0.000561501
0.000557421
0.000553368
0.000549334
0.000545312
0.000541293
0.000537271
0.000533237
0.000529184
0.000525106
0.000520999
0.000516857
0.000512681
0.00050847
0.000504225
0.000499952
0.000495658
0.000491351
0.000487041
0.000482743
0.00047847
0.000474239
0.000470065
0.000465965
0.000461956
0.000458065
0.000454316
0.000450729
0.000447321
0.000444106
0.000441096
0.000438296
0.000435712
0.000433342
0.000431184
0.000429232
0.000427476
0.000425906
0.000424509
0.000423269
0.000422172
0.0004212
0.000420336
0.000419564
0.000418866
0.000418223
0.000417617
0.000417029
0.000416438
0.00041582
0.000415149
0.000414391
0.000413504
0.000412438
0.000411133
0.000409557
0.000407855
4.65767e-06
3.6865e-05
7.23021e-05
0.000101414
0.000125053
0.000144729
0.000161682
0.000176844
0.000190891
0.00020429
0.000217355
0.000230278
0.00024317
0.000256083
0.000269029
0.000282
0.000294974
0.00030792
0.000320808
0.000333604
0.000346279
0.000358802
0.000371147
0.000383289
0.000395204
0.000406871
0.000418271
0.000429387
0.000440202
0.000450702
0.000460874
0.000470706
0.000480188
0.000489311
0.000498068
0.000506453
0.00051446
0.000522087
0.000529331
0.000536192
0.00054267
0.000548768
0.000554489
0.000559837
0.000564821
0.000569448
0.000573729
0.000577677
0.000581305
0.000584631
0.000587673
0.000590453
0.000593004
0.000595377
0.000597615
0.000599757
0.000601843
0.000603907
0.000605982
0.000608096
0.000610276
0.000612545
0.000614922
0.000617424
0.00062006
0.000622837
0.000625758
0.000628818
0.00063201
0.000635323
0.000638742
0.000642249
0.000645827
0.000649428
0.000653028
0.000656598
0.000660107
0.000663522
0.000666804
0.000669922
0.000672847
0.000675549
0.000678002
0.000680184
0.000682075
0.000683658
0.000684921
0.000685855
0.000686453
0.000686714
0.000686638
0.000686227
0.000685488
0.00068443
0.000683062
0.000681397
0.000679449
0.000677234
0.000674768
0.000672068
0.000669153
0.000666041
0.000662752
0.000659303
0.000655715
0.000652005
0.000648192
0.000644293
0.000640325
0.000636305
0.000632248
0.000628168
0.000624078
0.00061999
0.000615914
0.000611859
0.000607834
0.000603843
0.000599892
0.000595982
0.000592116
0.000588291
0.000584507
0.000580759
0.000577043
0.000573351