/*--------------------------------*- C++ -*----------------------------------*\
  =========                 |
  \\      /  F ield         | OpenFOAM: The Open Source CFD Toolbox
   \\    /   O peration     | Website:  https://openfoam.org
    \\  /    A nd           | Version:  6
     \\/     M anipulation  |
\*---------------------------------------------------------------------------*/
FoamFile
{
    version     2.0;
    format      ascii;
    class       volScalarField;
    location    "0.22";
    object      p;
}
// * * * * * * * * * * * * * * * * * * * * * * * * * * * * * * * * * * * * * //

dimensions      [0 2 -2 0 0 0 0];

internalField   nonuniform List<scalar> 
12225
(
0.306361
0.0540072
-0.0238444
-0.0340689
-0.0382173
-0.0423564
-0.0443716
-0.0451639
-0.0457604
-0.0462972
-0.0466891
-0.0469354
-0.0470603
-0.0470587
-0.0469294
-0.0465994
-0.0463278
-0.0452131
-0.0754893
-0.0452134
-0.0441629
-0.0374297
-0.0377085
-0.041241
-0.043497
-0.0446063
-0.0454033
-0.0460432
-0.0464919
-0.0467745
-0.0469237
-0.0469372
-0.0468182
-0.0464908
-0.0461298
-0.0452404
-0.112501
-0.0414782
-0.0395343
-0.0369253
-0.037408
-0.0405283
-0.0427287
-0.0439504
-0.0448531
-0.0455666
-0.0460732
-0.0464031
-0.0465882
-0.0466279
-0.0465271
-0.0462116
-0.045816
-0.0447788
-0.0671327
-0.0282465
-0.036047
-0.0370519
-0.0377037
-0.0403314
-0.0423182
-0.0435202
-0.0444452
-0.0451867
-0.045727
-0.0460911
-0.046306
-0.0463719
-0.0462919
-0.0460053
-0.0455846
-0.0446488
-0.0467174
-0.0282898
-0.0365068
-0.0377554
-0.0382571
-0.040426
-0.0421803
-0.043319
-0.0442229
-0.0449588
-0.0455085
-0.0458905
-0.0461261
-0.0462156
-0.0461598
-0.0459152
-0.0455145
-0.0447665
-0.0443615
-0.0325746
-0.0376771
-0.0384575
-0.0388631
-0.0406504
-0.0421906
-0.0432569
-0.0441234
-0.044838
-0.0453845
-0.045776
-0.0460283
-0.0461425
-0.0461185
-0.0459292
-0.0455893
-0.0450286
-0.0442276
-0.035486
-0.0384071
-0.0390504
-0.0394643
-0.0409419
-0.042291
-0.0432839
-0.0441071
-0.0447949
-0.0453334
-0.0457313
-0.0460008
-0.0461436
-0.0461605
-0.0460385
-0.0457872
-0.0454042
-0.0432398
-0.0371064
-0.0389257
-0.0395891
-0.0400397
-0.0412705
-0.0424539
-0.0433761
-0.0441555
-0.0448159
-0.0453458
-0.0457506
-0.0460396
-0.0462161
-0.0462829
-0.0462377
-0.0460914
-0.0458767
-0.0422531
-0.0382611
-0.0394352
-0.0400948
-0.0405764
-0.0416161
-0.0426597
-0.0435169
-0.0442557
-0.0448913
-0.0454144
-0.0458284
-0.0461408
-0.0463563
-0.0464803
-0.0465184
-0.0464848
-0.0464262
-0.0416797
-0.0392068
-0.0399493
-0.0405665
-0.0410699
-0.0419655
-0.0428936
-0.0436932
-0.0443964
-0.0450119
-0.045532
-0.0459587
-0.0462988
-0.0465583
-0.0467451
-0.0468695
-0.0469489
-0.0470318
-0.0414464
-0.0399724
-0.0404468
-0.0410083
-0.0415233
-0.0423117
-0.0431456
-0.0438951
-0.0445687
-0.0451694
-0.0456909
-0.0461347
-0.0465067
-0.0468141
-0.0470667
-0.0472775
-0.0474649
-0.0476739
-0.0414272
-0.0405412
-0.0408821
-0.0413938
-0.0419093
-0.0426236
-0.0433872
-0.0440971
-0.0447487
-0.0453407
-0.0458676
-0.0463305
-0.046735
-0.0470889
-0.0474025
-0.0476897
-0.0479684
-0.0482784
-0.0415245
-0.0410285
-0.0412846
-0.0417534
-0.0422659
-0.0429231
-0.0436313
-0.0443101
-0.0449456
-0.0455338
-0.0460699
-0.0465548
-0.0469936
-0.0473943
-0.0477673
-0.0481263
-0.048488
-0.0488843
-0.0417349
-0.041509
-0.0417172
-0.0421438
-0.0426461
-0.0432542
-0.0439133
-0.044564
-0.045187
-0.0457758
-0.0463263
-0.0468389
-0.0473182
-0.0477717
-0.0482093
-0.0486431
-0.0490879
-0.0495667
-0.0420469
-0.0419791
-0.0421706
-0.04256
-0.0430446
-0.0436135
-0.0442325
-0.0448601
-0.0454755
-0.0460704
-0.0466409
-0.0471868
-0.0477117
-0.048222
-0.0487261
-0.0492337
-0.0497564
-0.0503098
-0.0424262
-0.0424355
-0.0426256
-0.0429868
-0.0434514
-0.0439919
-0.0445828
-0.0451951
-0.0458099
-0.0464176
-0.0470136
-0.0475972
-0.0481705
-0.0487381
-0.0493061
-0.0498814
-0.0504719
-0.0510869
-0.0428191
-0.0428598
-0.0430515
-0.0433957
-0.0438455
-0.0443703
-0.0449479
-0.0455567
-0.0461801
-0.0468079
-0.0474348
-0.0480586
-0.0486799
-0.049301
-0.0499256
-0.0505575
-0.051201
-0.0518613
-0.0431531
-0.0432042
-0.0433966
-0.0437351
-0.0441829
-0.0447091
-0.0452925
-0.0459144
-0.0465594
-0.0472167
-0.0478796
-0.0485449
-0.0492112
-0.0498787
-0.0505486
-0.0512224
-0.0519017
-0.0525886
-0.043327
-0.0433779
-0.043568
-0.0439134
-0.0443794
-0.0449316
-0.0455466
-0.0462055
-0.0468914
-0.047592
-0.0482995
-0.0490091
-0.049718
-0.0504248
-0.0511289
-0.0518302
-0.0525286
-0.0532244
-0.0432251
-0.0432484
-0.0434205
-0.0437882
-0.0442996
-0.0449058
-0.0455812
-0.0463018
-0.0470454
-0.0477979
-0.0485512
-0.0493004
-0.0500425
-0.0507759
-0.0514996
-0.0522132
-0.0529165
-0.0536092
-0.043032
-0.0429596
-0.0430819
-0.0434865
-0.0440541
-0.0447216
-0.0454687
-0.0462606
-0.0470663
-0.0478707
-0.0486675
-0.0494522
-0.0502222
-0.0509764
-0.0517145
-0.0524365
-0.0531422
-0.0538314
-0.0429077
-0.0425382
-0.0425553
-0.0430374
-0.0436745
-0.0444132
-0.0452526
-0.0461319
-0.0470065
-0.0478657
-0.0487066
-0.0495257
-0.0503213
-0.0510937
-0.0518437
-0.0525719
-0.0532788
-0.0539641
-0.0431069
-0.0420275
-0.0418733
-0.0424802
-0.0431733
-0.0439944
-0.0449586
-0.0459434
-0.0468932
-0.0478104
-0.0486974
-0.0495512
-0.0503717
-0.0511613
-0.0519223
-0.0526565
-0.0533651
-0.0540479
-0.0436568
-0.0412983
-0.0410915
-0.0418785
-0.0425505
-0.043472
-0.0446118
-0.0457235
-0.0467543
-0.0477341
-0.0486702
-0.0495591
-0.0504036
-0.0512092
-0.0519804
-0.05272
-0.0534302
-0.0541107
-0.0439299
-0.0393605
-0.0399541
-0.0412204
-0.0417914
-0.0428623
-0.0442475
-0.0455078
-0.046625
-0.0476723
-0.0486596
-0.0495823
-0.0504481
-0.0512671
-0.0520459
-0.0527888
-0.0534991
-0.0541766
-0.0456763
-0.034952
-0.0376939
-0.0402182
-0.040825
-0.042195
-0.0439127
-0.0453418
-0.0465507
-0.0476676
-0.0487032
-0.049654
-0.0505347
-0.051361
-0.0521421
-0.0528839
-0.053591
-0.0542635
-0.0626985
-0.0329265
-0.0354516
-0.0388224
-0.0396439
-0.0415637
-0.0436978
-0.0453081
-0.0466085
-0.0477867
-0.0488559
-0.0498184
-0.0506993
-0.0515204
-0.0522936
-0.0530258
-0.0537232
-0.0543862
-0.106833
-0.0462197
-0.0394897
-0.0386391
-0.0388154
-0.0413362
-0.043859
-0.0455972
-0.0469469
-0.0481455
-0.0492085
-0.0501479
-0.0510006
-0.0517942
-0.0525414
-0.0532495
-0.0539259
-0.0545725
-0.0864621
-0.0560572
-0.0493902
-0.0408764
-0.0392793
-0.0420982
-0.0447321
-0.0463743
-0.0476241
-0.0487485
-0.0497442
-0.0506194
-0.0514154
-0.0521615
-0.0528687
-0.0535415
-0.0541859
-0.0548169
0.277854
0.058118
-0.0190217
-0.0321758
-0.0375444
-0.0427297
-0.0457747
-0.0472131
-0.0482099
-0.0491571
-0.0500367
-0.0508317
-0.0515705
-0.0522752
-0.0529508
-0.0535959
-0.0542053
-0.054759
-0.0741616
-0.0742909
-0.0747006
-0.0751927
-0.0755868
-0.0759242
-0.0762956
-0.0767515
-0.0773189
-0.0780184
-0.0788704
-0.0798993
-0.0811305
-0.0825861
-0.0842823
-0.086226
-0.0884138
-0.0908311
-0.093453
-0.0962465
-0.0991726
-0.102189
-0.105254
-0.108326
-0.111369
-0.11435
-0.117241
-0.120021
-0.12267
-0.125176
-0.127527
-0.129718
-0.131741
-0.133593
-0.135269
-0.136768
-0.138085
-0.139217
-0.140161
-0.140911
-0.141463
-0.141809
-0.141945
-0.141861
-0.141551
-0.141005
-0.140215
-0.139174
-0.137876
-0.136322
-0.134499
-0.132366
-0.129892
-0.127069
-0.123898
-0.120374
-0.116491
-0.112243
-0.107624
-0.10263
-0.0972594
-0.0915135
-0.0853959
-0.0789134
-0.0720761
-0.0648976
-0.057395
-0.0495889
-0.0415033
-0.0331656
-0.0246062
-0.0158583
-0.00695743
0.00205879
0.0111514
0.0202806
0.0294062
0.0384881
0.0474872
0.0563657
0.0650875
0.0736191
0.0819293
0.0899901
0.0977767
0.105268
0.112445
0.119293
0.125802
0.131962
0.137768
0.143222
0.148331
0.153108
0.157555
0.16167
0.165462
0.168942
0.172123
0.175018
0.177642
0.180009
0.182133
0.184029
0.185712
0.187195
0.188493
0.189619
0.190585
0.191404
0.192088
0.192647
0.193092
0.193431
0.193676
0.193832
0.193909
0.193913
0.193851
0.193728
0.193551
0.193324
0.193051
0.192738
0.192388
0.192005
0.191592
0.191153
0.190691
0.190209
0.189711
0.189199
0.188676
0.188146
0.187612
0.187076
0.186542
0.186013
0.18549
0.184977
0.184478
0.183994
0.183533
0.183084
0.182638
0.182203
0.181787
0.18139
0.181014
0.180657
0.180321
0.180003
0.179704
0.179423
0.179159
0.178912
0.178682
0.178466
0.178266
0.17808
0.177909
0.177752
0.177609
0.177481
0.177368
0.177273
0.177197
0.177143
0.177116
0.177123
0.177172
0.177278
0.177459
0.177745
0.178182
0.178844
0.17987
0.181461
0.184201
0.18808
-0.0741564
-0.0747023
-0.0752262
-0.0755484
-0.0756036
-0.0754853
-0.0754019
-0.0755012
-0.0758141
-0.0763215
-0.0770306
-0.0779704
-0.0791709
-0.0806559
-0.0824383
-0.0845172
-0.0868769
-0.0894883
-0.0923112
-0.0952987
-0.0984005
-0.101567
-0.104751
-0.107913
-0.111016
-0.114032
-0.116939
-0.119719
-0.122359
-0.124852
-0.127189
-0.129367
-0.131384
-0.133235
-0.13492
-0.136436
-0.13778
-0.13895
-0.139942
-0.140751
-0.141371
-0.141797
-0.142022
-0.142036
-0.141831
-0.141396
-0.140721
-0.139791
-0.138592
-0.137106
-0.135315
-0.133222
-0.130836
-0.128146
-0.125131
-0.121776
-0.118072
-0.114009
-0.109581
-0.104783
-0.0996124
-0.0940691
-0.0881558
-0.0818781
-0.0752448
-0.0682683
-0.060964
-0.0533512
-0.0454523
-0.0372932
-0.0289028
-0.0203129
-0.0115577
-0.00267332
0.00630227
0.0153302
0.0243711
0.0333857
0.0423351
0.0511818
0.0598897
0.0684251
0.0767566
0.0848556
0.0926967
0.100258
0.10752
0.114469
0.121092
0.127381
0.133331
0.138938
0.144192
0.149087
0.153637
0.157859
0.161763
0.16536
0.16866
0.171676
0.174422
0.176911
0.179157
0.181173
0.182974
0.184574
0.185985
0.18722
0.188293
0.189216
0.189999
0.190654
0.191191
0.19162
0.191949
0.192187
0.192343
0.192422
0.192432
0.19238
0.192269
0.192107
0.191897
0.191644
0.191353
0.191027
0.19067
0.190286
0.189877
0.189447
0.189
0.188538
0.188065
0.187584
0.187096
0.186607
0.186117
0.185631
0.18515
0.184677
0.184216
0.183768
0.183329
0.1829
0.182484
0.182082
0.181695
0.181323
0.180968
0.180629
0.180307
0.180002
0.179714
0.179441
0.179184
0.178943
0.178716
0.178503
0.178304
0.178119
0.177947
0.177789
0.177645
0.177515
0.1774
0.177303
0.177224
0.177168
0.177138
0.177142
0.177188
0.177289
0.177464
0.17774
0.178161
0.17879
0.179747
0.181175
0.183546
0.186762
-0.0720679
-0.0730614
-0.0738892
-0.0742905
-0.0744138
-0.0744496
-0.0745413
-0.0747838
-0.0752298
-0.0759117
-0.0768559
-0.0780825
-0.0796005
-0.0814061
-0.0834835
-0.0858067
-0.0883418
-0.0910504
-0.093892
-0.0968262
-0.0998147
-0.102823
-0.105819
-0.108776
-0.111672
-0.114488
-0.117207
-0.119818
-0.12231
-0.124676
-0.126908
-0.129002
-0.130954
-0.132759
-0.134414
-0.135915
-0.137258
-0.138439
-0.139453
-0.140296
-0.14096
-0.141439
-0.141726
-0.141813
-0.14169
-0.141349
-0.140778
-0.139966
-0.138902
-0.137567
-0.135948
-0.134035
-0.131825
-0.129308
-0.126471
-0.123303
-0.119793
-0.115931
-0.111711
-0.107127
-0.102175
-0.0968545
-0.0911664
-0.0851154
-0.078709
-0.0719582
-0.0648772
-0.0574835
-0.0497981
-0.0418455
-0.0336529
-0.0252508
-0.0166717
-0.00795079
0.000875436
0.00976914
0.0186919
0.027605
0.0364704
0.0452508
0.0539104
0.0624154
0.0707343
0.0788382
0.0867011
0.0943003
0.101616
0.108633
0.115339
0.121723
0.127781
0.133505
0.138891
0.14394
0.148659
0.153055
0.157133
0.160905
0.164379
0.167568
0.170484
0.173139
0.175548
0.177723
0.179679
0.181428
0.182984
0.184359
0.185567
0.186618
0.187525
0.188299
0.18895
0.189487
0.18992
0.190258
0.190509
0.190679
0.190777
0.190808
0.190778
0.190693
0.190558
0.190377
0.190156
0.189898
0.189607
0.189286
0.188941
0.188572
0.188185
0.187782
0.187366
0.18694
0.186508
0.186071
0.185633
0.185196
0.184763
0.184336
0.183917
0.183508
0.183107
0.182715
0.182333
0.181961
0.181602
0.181255
0.180921
0.180602
0.180297
0.180006
0.17973
0.179467
0.179218
0.178982
0.178759
0.178549
0.178352
0.178168
0.177996
0.177837
0.177691
0.177559
0.177442
0.177341
0.17726
0.1772
0.177168
0.177168
0.177209
0.177305
0.177473
0.177739
0.17814
0.178732
0.179612
0.180868
0.182801
0.185034
-0.0689671
-0.0704455
-0.0719045
-0.072778
-0.0733
-0.0737411
-0.0742464
-0.074897
-0.0757432
-0.0768156
-0.0781305
-0.0796918
-0.0814925
-0.0835166
-0.085741
-0.0881384
-0.0906789
-0.0933325
-0.0960695
-0.0988615
-0.101682
-0.104507
-0.107314
-0.110083
-0.112798
-0.115444
-0.118007
-0.120477
-0.122844
-0.125102
-0.127244
-0.129264
-0.131156
-0.132917
-0.134543
-0.136027
-0.137367
-0.138556
-0.13959
-0.140462
-0.141166
-0.141695
-0.142039
-0.142192
-0.142142
-0.14188
-0.141396
-0.140677
-0.139711
-0.138487
-0.136992
-0.135216
-0.133148
-0.130778
-0.128092
-0.12508
-0.121729
-0.118031
-0.113977
-0.109561
-0.104778
-0.0996263
-0.0941063
-0.0882216
-0.0819785
-0.0753871
-0.0684604
-0.0612152
-0.0536715
-0.0458528
-0.0377856
-0.0294996
-0.0210269
-0.0124019
-0.00366065
0.00515932
0.0140198
0.0228825
0.0317093
0.0404628
0.0491074
0.0576089
0.0659356
0.0740583
0.0819505
0.0895891
0.096954
0.104029
0.110799
0.117255
0.123389
0.129198
0.13468
0.139836
0.144668
0.149179
0.153376
0.157267
0.160862
0.164173
0.167209
0.169985
0.172513
0.174805
0.176876
0.178738
0.180404
0.181886
0.183198
0.18435
0.185355
0.186223
0.186965
0.187591
0.188109
0.188529
0.188858
0.189105
0.189276
0.189378
0.189416
0.189398
0.189327
0.189209
0.189048
0.188849
0.188616
0.188352
0.188061
0.187747
0.187412
0.187061
0.186695
0.186319
0.185935
0.185545
0.185153
0.18476
0.18437
0.183983
0.183603
0.183229
0.182861
0.182501
0.18215
0.181808
0.181476
0.181154
0.180844
0.180546
0.18026
0.179985
0.179722
0.179471
0.179232
0.179004
0.178788
0.178582
0.178389
0.178206
0.178035
0.177876
0.17773
0.177596
0.177477
0.177374
0.177289
0.177226
0.177188
0.177182
0.177217
0.177303
0.177457
0.177702
0.178071
0.178606
0.179378
0.180428
0.181909
0.183365
-0.0666482
-0.068527
-0.0705477
-0.0719178
-0.0728768
-0.0737324
-0.0746399
-0.0756793
-0.0768961
-0.0783116
-0.0799299
-0.0817446
-0.0837417
-0.0859026
-0.0882058
-0.0906283
-0.0931466
-0.0957377
-0.0983794
-0.101051
-0.103733
-0.106407
-0.109057
-0.111668
-0.114228
-0.116725
-0.119148
-0.12149
-0.123742
-0.125897
-0.12795
-0.129895
-0.131727
-0.13344
-0.135031
-0.136493
-0.137823
-0.139013
-0.140059
-0.140954
-0.14169
-0.14226
-0.142656
-0.142867
-0.142886
-0.1427
-0.142299
-0.141671
-0.140804
-0.139685
-0.138303
-0.136644
-0.134699
-0.132453
-0.129894
-0.127011
-0.12379
-0.120223
-0.1163
-0.112013
-0.107358
-0.102331
-0.0969322
-0.0911637
-0.0850315
-0.0785447
-0.0717157
-0.0645608
-0.0570996
-0.0493552
-0.0413538
-0.0331251
-0.0247011
-0.0161162
-0.0074067
0.00138971
0.0102346
0.0190893
0.0279155
0.0366755
0.0453332
0.0538543
0.0622067
0.0703607
0.0782899
0.0859705
0.093382
0.100507
0.107332
0.113846
0.120042
0.125915
0.131463
0.136688
0.14159
0.146174
0.150447
0.154416
0.158091
0.161482
0.164601
0.167459
0.170069
0.172444
0.174597
0.176539
0.178285
0.179846
0.181235
0.182464
0.183543
0.184483
0.185296
0.18599
0.186575
0.18706
0.187452
0.18776
0.187991
0.18815
0.188245
0.188281
0.188264
0.188197
0.188087
0.187938
0.187753
0.187536
0.187292
0.187022
0.186732
0.186424
0.186102
0.185767
0.185423
0.185073
0.184719
0.184363
0.184008
0.183656
0.183307
0.182963
0.182625
0.182293
0.181968
0.181651
0.181343
0.181044
0.180755
0.180476
0.180206
0.179947
0.179697
0.179458
0.179228
0.179008
0.178799
0.178599
0.178409
0.17823
0.17806
0.177902
0.177756
0.177621
0.1775
0.177394
0.177306
0.177238
0.177194
0.177181
0.177205
0.177278
0.177412
0.177629
0.177953
0.178415
0.179062
0.179899
0.180983
0.181867
-0.0660142
-0.0680987
-0.0704137
-0.0721173
-0.0734152
-0.0746043
-0.0758317
-0.0771696
-0.0786571
-0.0803099
-0.0821275
-0.0840992
-0.0862093
-0.0884393
-0.0907696
-0.0931809
-0.0956544
-0.0981722
-0.100718
-0.103275
-0.105831
-0.10837
-0.110883
-0.113357
-0.115783
-0.118151
-0.120455
-0.122686
-0.124838
-0.126905
-0.128881
-0.130761
-0.13254
-0.134213
-0.135774
-0.137219
-0.138542
-0.139736
-0.140796
-0.141715
-0.142484
-0.143096
-0.143542
-0.143811
-0.143895
-0.143782
-0.143461
-0.142919
-0.142144
-0.141123
-0.139843
-0.138291
-0.136454
-0.134318
-0.13187
-0.129097
-0.125988
-0.12253
-0.118714
-0.114531
-0.109975
-0.105043
-0.099733
-0.0940469
-0.08799
-0.0815707
-0.0748013
-0.0676976
-0.0602792
-0.0525691
-0.044594
-0.0363836
-0.0279703
-0.0193892
-0.010677
-0.00187201
0.00698677
0.0158601
0.0247089
0.0334953
0.0421825
0.050736
0.0591231
0.0673142
0.0752823
0.0830037
0.0904576
0.0976264
0.104496
0.111057
0.117301
0.123224
0.128823
0.134098
0.139053
0.143692
0.148021
0.152048
0.155782
0.159234
0.162414
0.165334
0.168007
0.170444
0.17266
0.174665
0.176474
0.178097
0.179548
0.180837
0.181976
0.182975
0.183846
0.184596
0.185237
0.185776
0.186222
0.186581
0.186862
0.187071
0.187214
0.187297
0.187326
0.187305
0.187238
0.187132
0.186989
0.186813
0.186609
0.186379
0.186127
0.185857
0.18557
0.185271
0.184962
0.184646
0.184324
0.184
0.183675
0.183352
0.183031
0.182714
0.182401
0.182093
0.181791
0.181497
0.18121
0.18093
0.180659
0.180397
0.180142
0.179897
0.179659
0.179431
0.179211
0.178999
0.178796
0.178602
0.178416
0.17824
0.178073
0.177916
0.17777
0.177635
0.177512
0.177404
0.177311
0.177238
0.177188
0.177165
0.177177
0.177232
0.177343
0.177524
0.177795
0.178176
0.178692
0.179323
0.180072
0.180527
-0.0670994
-0.0691633
-0.0715106
-0.0733542
-0.0748454
-0.0762409
-0.0776681
-0.0791878
-0.0808319
-0.0826125
-0.0845273
-0.0865653
-0.0887111
-0.0909476
-0.093258
-0.0956256
-0.098035
-0.100472
-0.102923
-0.105377
-0.107822
-0.110247
-0.112645
-0.115006
-0.117322
-0.119586
-0.121792
-0.123934
-0.126005
-0.128001
-0.129917
-0.131746
-0.133486
-0.135129
-0.136671
-0.138107
-0.139431
-0.140636
-0.141716
-0.142663
-0.143469
-0.144126
-0.144624
-0.144954
-0.145104
-0.145064
-0.14482
-0.144362
-0.143675
-0.142747
-0.141562
-0.140107
-0.138369
-0.136333
-0.133985
-0.131311
-0.128298
-0.124933
-0.121207
-0.117109
-0.112632
-0.107772
-0.102527
-0.0968986
-0.0908906
-0.0845114
-0.0777731
-0.0706916
-0.0632866
-0.0555815
-0.0476035
-0.0393827
-0.0309526
-0.0223487
-0.013609
-0.00477236
0.00412129
0.0130319
0.0219197
0.0307461
0.039474
0.0480682
0.0564958
0.0647271
0.0727346
0.0804946
0.0879864
0.0951932
0.102102
0.108701
0.114983
0.120945
0.126583
0.131898
0.136894
0.141575
0.145947
0.150019
0.153798
0.157297
0.160524
0.163493
0.166215
0.168703
0.170969
0.173025
0.174884
0.176558
0.17806
0.179399
0.180588
0.181637
0.182556
0.183355
0.184044
0.184629
0.185121
0.185526
0.185851
0.186103
0.186289
0.186413
0.186483
0.186501
0.186474
0.186406
0.1863
0.186161
0.185992
0.185797
0.185579
0.185342
0.185088
0.18482
0.184542
0.184255
0.183962
0.183665
0.183367
0.183068
0.182772
0.182477
0.182187
0.1819
0.181619
0.181344
0.181075
0.180813
0.180559
0.180311
0.180071
0.179838
0.179612
0.179393
0.179182
0.178979
0.178782
0.178594
0.178413
0.17824
0.178076
0.17792
0.177774
0.177639
0.177515
0.177403
0.177307
0.177228
0.177169
0.177136
0.177133
0.177169
0.177251
0.177393
0.177606
0.177902
0.178288
0.178729
0.179197
0.179322
-0.0694196
-0.071313
-0.0735084
-0.0753304
-0.0768772
-0.0783542
-0.0798652
-0.0814588
-0.0831601
-0.0849782
-0.0869102
-0.0889458
-0.0910711
-0.0932709
-0.09553
-0.0978341
-0.10017
-0.102525
-0.104888
-0.107249
-0.109599
-0.11193
-0.114233
-0.116503
-0.118732
-0.120915
-0.123046
-0.125119
-0.12713
-0.129075
-0.130947
-0.132743
-0.134457
-0.136085
-0.137621
-0.13906
-0.140395
-0.14162
-0.142728
-0.143711
-0.144561
-0.145268
-0.145823
-0.146216
-0.146436
-0.146469
-0.146305
-0.14593
-0.145329
-0.14449
-0.143397
-0.142035
-0.14039
-0.138446
-0.136189
-0.133604
-0.130677
-0.127394
-0.123744
-0.119716
-0.115302
-0.110498
-0.1053
-0.099709
-0.0937295
-0.0873693
-0.0806405
-0.0735591
-0.0661452
-0.0584229
-0.0504199
-0.0421675
-0.0336998
-0.0250539
-0.0162683
-0.00738336
0.00156021
0.0105214
0.0194596
0.0283353
0.0371112
0.0457514
0.0542227
0.0624949
0.070541
0.0783376
0.0858645
0.0931051
0.100046
0.106676
0.11299
0.118981
0.12465
0.129997
0.135024
0.139737
0.144142
0.148247
0.152062
0.155596
0.158861
0.161869
0.16463
0.167158
0.169465
0.171563
0.173464
0.17518
0.176724
0.178106
0.179338
0.18043
0.181391
0.182232
0.182962
0.183589
0.184121
0.184566
0.184931
0.185222
0.185446
0.185608
0.185714
0.185768
0.185776
0.185743
0.185671
0.185565
0.185428
0.185264
0.185077
0.18487
0.184645
0.184405
0.184153
0.183892
0.183625
0.183352
0.183077
0.182801
0.182526
0.182252
0.181981
0.181714
0.181451
0.181193
0.180941
0.180694
0.180454
0.18022
0.179992
0.179771
0.179556
0.179347
0.179145
0.178949
0.178759
0.178576
0.1784
0.178231
0.178069
0.177916
0.17777
0.177635
0.177509
0.177395
0.177294
0.177209
0.177141
0.177096
0.177077
0.17709
0.177143
0.177242
0.177395
0.177604
0.177866
0.178135
0.178368
0.178238
-0.0724012
-0.0740434
-0.0759788
-0.077667
-0.0791649
-0.0806269
-0.0821329
-0.08372
-0.0854068
-0.0871994
-0.0890946
-0.091083
-0.0931522
-0.0952885
-0.097478
-0.0997079
-0.101966
-0.104241
-0.106523
-0.108804
-0.111074
-0.113327
-0.115556
-0.117755
-0.119919
-0.122041
-0.124118
-0.126145
-0.128116
-0.130028
-0.131876
-0.133656
-0.135362
-0.13699
-0.138534
-0.139989
-0.141348
-0.142604
-0.14375
-0.144778
-0.145679
-0.146443
-0.147062
-0.147523
-0.147815
-0.147926
-0.147842
-0.14755
-0.147036
-0.146284
-0.14528
-0.144007
-0.142451
-0.140594
-0.138422
-0.135919
-0.133068
-0.129857
-0.126272
-0.122303
-0.117939
-0.113177
-0.108011
-0.102443
-0.0964759
-0.0901185
-0.0833825
-0.0762845
-0.0688452
-0.0610894
-0.0530458
-0.0447466
-0.0362273
-0.027526
-0.0186827
-0.00973876
-0.000736076
0.00828333
0.0172779
0.0262075
0.0350336
0.0437205
0.052235
0.0605469
0.0686297
0.0764599
0.0840176
0.0912865
0.0982535
0.104909
0.111246
0.11726
0.122952
0.128321
0.133371
0.138108
0.142538
0.146669
0.150511
0.154073
0.157368
0.160406
0.163199
0.16576
0.168101
0.170234
0.172171
0.173924
0.175505
0.176924
0.178193
0.179322
0.180321
0.1812
0.181967
0.182631
0.1832
0.183681
0.184082
0.184408
0.184667
0.184863
0.185003
0.185091
0.185132
0.185129
0.185089
0.185013
0.184906
0.184771
0.184612
0.184431
0.184232
0.184018
0.183791
0.183554
0.183309
0.183058
0.182804
0.182548
0.182292
0.182036
0.181783
0.181532
0.181286
0.181043
0.180806
0.180573
0.180346
0.180125
0.179909
0.179699
0.179494
0.179294
0.1791
0.178912
0.178729
0.178551
0.17838
0.178214
0.178056
0.177904
0.177759
0.177623
0.177496
0.177379
0.177273
0.177181
0.177105
0.177046
0.17701
0.177
0.17702
0.177075
0.177167
0.177292
0.177438
0.177554
0.177591
0.177264
-0.0755415
-0.0768972
-0.078519
-0.080005
-0.0813839
-0.0827652
-0.0842066
-0.0857343
-0.0873608
-0.0890896
-0.0909165
-0.0928328
-0.0948271
-0.0968869
-0.0989996
-0.101153
-0.103336
-0.105538
-0.107749
-0.109962
-0.112168
-0.114361
-0.116535
-0.118684
-0.120802
-0.122886
-0.12493
-0.126931
-0.128883
-0.130782
-0.132625
-0.134407
-0.136122
-0.137766
-0.139333
-0.140818
-0.142213
-0.143511
-0.144706
-0.145788
-0.146749
-0.147578
-0.148266
-0.1488
-0.149169
-0.149359
-0.149357
-0.14915
-0.148721
-0.148056
-0.147138
-0.145952
-0.14448
-0.142706
-0.140612
-0.138183
-0.135402
-0.132254
-0.128725
-0.124803
-0.120479
-0.115747
-0.110601
-0.105043
-0.0990765
-0.0927091
-0.0859535
-0.0788268
-0.0713503
-0.0635498
-0.0554552
-0.0470999
-0.0385205
-0.0297567
-0.0208498
-0.0118423
-0.00277751
0.0063012
0.0153518
0.0243338
0.0332083
0.0419392
0.0504934
0.0588408
0.0669549
0.0748126
0.0823945
0.0896847
0.0966707
0.103343
0.109696
0.115726
0.121433
0.126817
0.131884
0.136637
0.141085
0.145235
0.149097
0.152682
0.156
0.159063
0.161883
0.164472
0.166841
0.169004
0.170973
0.172758
0.174371
0.175824
0.177126
0.17829
0.179323
0.180236
0.181037
0.181735
0.182338
0.182853
0.183287
0.183647
0.183938
0.184167
0.184338
0.184457
0.184528
0.184556
0.184544
0.184496
0.184417
0.184309
0.184176
0.18402
0.183845
0.183654
0.18345
0.183234
0.18301
0.182779
0.182544
0.182306
0.182067
0.181828
0.18159
0.181355
0.181123
0.180895
0.180671
0.180451
0.180237
0.180027
0.179822
0.179622
0.179426
0.179235
0.179049
0.178868
0.178691
0.178519
0.178353
0.178191
0.178035
0.177885
0.177742
0.177605
0.177477
0.177357
0.177246
0.177147
0.177061
0.176989
0.176935
0.1769
0.176887
0.176898
0.17693
0.176974
0.177013
0.176995
0.176868
0.176387
-0.0784348
-0.0794974
-0.0807892
-0.0820384
-0.083258
-0.0845196
-0.0858612
-0.0872995
-0.0888415
-0.0904875
-0.0922324
-0.0940676
-0.0959823
-0.0979647
-0.100003
-0.102086
-0.104202
-0.106342
-0.108497
-0.110658
-0.112817
-0.114969
-0.117107
-0.119226
-0.121321
-0.123387
-0.12542
-0.127414
-0.129367
-0.131274
-0.133131
-0.134932
-0.136673
-0.138349
-0.139954
-0.141482
-0.142926
-0.144278
-0.145532
-0.146677
-0.147705
-0.148605
-0.149367
-0.149978
-0.150426
-0.150698
-0.15078
-0.150656
-0.150312
-0.149731
-0.148897
-0.147792
-0.1464
-0.144703
-0.142682
-0.14032
-0.137599
-0.134505
-0.131022
-0.127139
-0.122844
-0.11813
-0.112995
-0.107436
-0.10146
-0.0950725
-0.0882881
-0.0811242
-0.073603
-0.0657515
-0.0576006
-0.0491853
-0.040544
-0.0317173
-0.0227477
-0.013679
-0.00455555
0.00457852
0.0136804
0.0227091
0.0316254
0.040393
0.0489788
0.0573531
0.0654895
0.0733657
0.0809626
0.0882651
0.0952612
0.101942
0.108303
0.11434
0.120054
0.125447
0.130522
0.135286
0.139745
0.143908
0.147786
0.151387
0.154724
0.157807
0.160649
0.163262
0.165657
0.167847
0.169843
0.171657
0.1733
0.174784
0.176118
0.177312
0.178378
0.179323
0.180156
0.180887
0.181522
0.182069
0.182534
0.182926
0.183248
0.183507
0.183708
0.183857
0.183957
0.184012
0.184028
0.184007
0.183954
0.183871
0.183762
0.18363
0.183478
0.183309
0.183125
0.18293
0.182724
0.182512
0.182294
0.182073
0.181849
0.181626
0.181403
0.181182
0.180963
0.180748
0.180536
0.180328
0.180125
0.179926
0.179731
0.17954
0.179354
0.179171
0.178993
0.178818
0.178648
0.178482
0.17832
0.178162
0.178009
0.177861
0.177719
0.177582
0.177452
0.177329
0.177214
0.177107
0.177011
0.176925
0.176852
0.176793
0.176747
0.176714
0.176688
0.176657
0.176599
0.176463
0.176199
0.175595
-0.0807699
-0.0815527
-0.0825233
-0.0835264
-0.0845692
-0.0856932
-0.0869197
-0.0882568
-0.0897065
-0.0912659
-0.0929289
-0.0946862
-0.0965275
-0.0984413
-0.100416
-0.102441
-0.104506
-0.1066
-0.108715
-0.110843
-0.112976
-0.115107
-0.11723
-0.119341
-0.121433
-0.123502
-0.125544
-0.127553
-0.129527
-0.13146
-0.133348
-0.135186
-0.136969
-0.138692
-0.140348
-0.141931
-0.143435
-0.144851
-0.146171
-0.147387
-0.148488
-0.149463
-0.150303
-0.150993
-0.151522
-0.151875
-0.152039
-0.151997
-0.151734
-0.151233
-0.150478
-0.14945
-0.148131
-0.146502
-0.144545
-0.142241
-0.139572
-0.136522
-0.133075
-0.129218
-0.124942
-0.120238
-0.115102
-0.109534
-0.103539
-0.0971257
-0.0903072
-0.0831022
-0.075534
-0.0676306
-0.0594244
-0.0509515
-0.0422516
-0.0333668
-0.0243406
-0.0152181
-0.0060446
0.00313514
0.0122777
0.0213415
0.0302874
0.0390792
0.0476841
0.0560726
0.064219
0.0721015
0.0797018
0.0870053
0.0940008
0.100681
0.107039
0.113075
0.118788
0.124181
0.129258
0.134026
0.138491
0.142662
0.146549
0.150163
0.153515
0.156615
0.159476
0.162109
0.164527
0.166741
0.168763
0.170604
0.172275
0.173787
0.175151
0.176376
0.177471
0.178447
0.179312
0.180073
0.180739
0.181317
0.181813
0.182235
0.182587
0.182876
0.183106
0.183283
0.18341
0.183493
0.183536
0.183541
0.183512
0.183453
0.183368
0.183258
0.183127
0.182979
0.182814
0.182637
0.18245
0.182254
0.182053
0.181847
0.181638
0.181429
0.181219
0.181011
0.180805
0.180601
0.180401
0.180204
0.180011
0.179822
0.179637
0.179455
0.179277
0.179103
0.178932
0.178764
0.1786
0.178439
0.178282
0.178128
0.177979
0.177833
0.177691
0.177555
0.177423
0.177297
0.177176
0.177063
0.176956
0.176857
0.176765
0.176681
0.176603
0.176527
0.176446
0.176345
0.1762
0.17596
0.175582
0.174882
-0.0823123
-0.0828555
-0.0835313
-0.0842962
-0.0851612
-0.0861453
-0.0872556
-0.0884929
-0.0898545
-0.0913349
-0.0929259
-0.094618
-0.0964004
-0.0982618
-0.100191
-0.102177
-0.10421
-0.106279
-0.108375
-0.110491
-0.112619
-0.114751
-0.116881
-0.119005
-0.121116
-0.123209
-0.12528
-0.127324
-0.129337
-0.131314
-0.13325
-0.13514
-0.136979
-0.138761
-0.140479
-0.142128
-0.1437
-0.145186
-0.146579
-0.147869
-0.149046
-0.150098
-0.151015
-0.151784
-0.152391
-0.152823
-0.153064
-0.153099
-0.152911
-0.152484
-0.1518
-0.15084
-0.149586
-0.148016
-0.146112
-0.143854
-0.141225
-0.138207
-0.134785
-0.130945
-0.126676
-0.121972
-0.116828
-0.111245
-0.105226
-0.0987818
-0.0919267
-0.0846799
-0.077066
-0.0691142
-0.0608579
-0.0523348
-0.0435855
-0.0346534
-0.0255833
-0.0164211
-0.00721261
0.00199672
0.0111632
0.0202451
0.0292035
0.0380024
0.0466095
0.0549958
0.0631365
0.0710102
0.0785996
0.0858908
0.0928734
0.09954
0.105887
0.111911
0.117615
0.123
0.128072
0.132836
0.137301
0.141475
0.145368
0.148991
0.152353
0.155467
0.158345
0.160996
0.163435
0.165671
0.167717
0.169583
0.171281
0.172821
0.174213
0.175467
0.176593
0.177599
0.178494
0.179285
0.179982
0.18059
0.181116
0.181567
0.181948
0.182266
0.182525
0.182729
0.182884
0.182993
0.183061
0.183091
0.183086
0.183051
0.182987
0.182899
0.182789
0.18266
0.182514
0.182355
0.182184
0.182005
0.181818
0.181627
0.181432
0.181236
0.181039
0.180843
0.180648
0.180456
0.180266
0.18008
0.179897
0.179717
0.179541
0.179368
0.179198
0.179031
0.178867
0.178706
0.178548
0.178393
0.17824
0.17809
0.177944
0.1778
0.17766
0.177523
0.17739
0.177261
0.177136
0.177015
0.176898
0.176785
0.176675
0.176567
0.176457
0.176341
0.176208
0.176043
0.175819
0.175491
0.175016
0.174238
-0.0828918
-0.0832706
-0.0836911
-0.0842399
-0.0849389
-0.0857919
-0.0867954
-0.087944
-0.089231
-0.0906479
-0.0921848
-0.0938312
-0.0955756
-0.0974065
-0.0993127
-0.101283
-0.103307
-0.105374
-0.107475
-0.109603
-0.111748
-0.113903
-0.116063
-0.118221
-0.120371
-0.122508
-0.124627
-0.126724
-0.128792
-0.130828
-0.132825
-0.13478
-0.136685
-0.138535
-0.140324
-0.142045
-0.143689
-0.145249
-0.146716
-0.14808
-0.149331
-0.150459
-0.15145
-0.152292
-0.152971
-0.153474
-0.153785
-0.153888
-0.153767
-0.153404
-0.15278
-0.151877
-0.150674
-0.14915
-0.147285
-0.145061
-0.142458
-0.139459
-0.136048
-0.132213
-0.127943
-0.12323
-0.11807
-0.112465
-0.10642
-0.0999445
-0.0930545
-0.0857702
-0.0781173
-0.0701261
-0.0618313
-0.0532717
-0.0444889
-0.0355271
-0.0264322
-0.0172505
-0.0080284
0.00118859
0.0103567
0.0194346
0.0283835
0.0371681
0.0457566
0.054121
0.0622371
0.0700845
0.0776466
0.0849103
0.091866
0.098507
0.10483
0.110833
0.116517
0.121887
0.126946
0.131702
0.136161
0.140333
0.144228
0.147855
0.151225
0.15435
0.157242
0.15991