/*--------------------------------*- C++ -*----------------------------------*\
  =========                 |
  \\      /  F ield         | OpenFOAM: The Open Source CFD Toolbox
   \\    /   O peration     | Website:  https://openfoam.org
    \\  /    A nd           | Version:  6
     \\/     M anipulation  |
\*---------------------------------------------------------------------------*/
FoamFile
{
    version     2.0;
    format      ascii;
    class       surfaceScalarField;
    location    "0.22";
    object      phi;
}
// * * * * * * * * * * * * * * * * * * * * * * * * * * * * * * * * * * * * * //

dimensions      [0 3 -1 0 0 0 0];

internalField   nonuniform List<scalar> 
24170
(
3.2567e-07
-6.82893e-09
3.19409e-07
6.26071e-09
3.15792e-07
3.61638e-09
3.08689e-07
7.10302e-09
3.01703e-07
6.98599e-09
2.96671e-07
5.0324e-09
2.93318e-07
3.35303e-09
2.90931e-07
2.38653e-09
2.89065e-07
1.86645e-09
2.87515e-07
1.54989e-09
2.86176e-07
1.33873e-09
2.8498e-07
1.19602e-09
2.83881e-07
1.09961e-09
2.82842e-07
1.03894e-09
2.81843e-07
9.9861e-10
2.80829e-07
1.01386e-09
2.79959e-07
8.70022e-10
1.06843e-09
2.78891e-07
3.50377e-07
-1.54814e-08
3.47809e-07
8.82952e-09
3.44047e-07
7.37758e-09
3.42176e-07
8.97469e-09
3.39974e-07
9.18729e-09
3.37455e-07
7.55139e-09
3.35076e-07
5.73247e-09
3.33035e-07
4.42741e-09
3.3133e-07
3.57166e-09
3.29892e-07
2.9881e-09
3.28651e-07
2.57888e-09
3.27555e-07
2.29231e-09
3.26562e-07
2.09264e-09
3.25639e-07
1.96164e-09
3.24764e-07
1.87442e-09
3.239e-07
1.87749e-09
3.23016e-07
1.75441e-09
2.03084e-09
3.22053e-07
3.63433e-07
-1.26624e-08
3.66546e-07
5.71643e-09
3.66684e-07
7.23969e-09
3.66822e-07
8.83678e-09
3.66407e-07
9.60159e-09
3.65364e-07
8.59501e-09
3.64015e-07
7.08107e-09
3.62634e-07
5.80878e-09
3.61347e-07
4.85868e-09
3.60183e-07
4.15154e-09
3.59133e-07
3.62924e-09
3.58174e-07
3.25069e-09
3.57285e-07
2.98172e-09
3.56444e-07
2.80286e-09
3.55627e-07
2.69182e-09
3.54824e-07
2.67988e-09
3.53936e-07
2.64325e-09
2.93442e-09
3.53032e-07
3.89234e-07
-9.35729e-09
3.91438e-07
3.51263e-09
3.92345e-07
6.33221e-09
3.92972e-07
8.20955e-09
3.93198e-07
9.37564e-09
3.92878e-07
8.91519e-09
3.92169e-07
7.78987e-09
3.91281e-07
6.69694e-09
3.90351e-07
5.78921e-09
3.8944e-07
5.06163e-09
3.88572e-07
4.49746e-09
3.87748e-07
4.07498e-09
3.8696e-07
3.76971e-09
3.86197e-07
3.5662e-09
3.8544e-07
3.4486e-09
3.84681e-07
3.43867e-09
3.83844e-07
3.4806e-09
3.78261e-09
3.82996e-07
4.18265e-07
-6.90951e-09
4.19389e-07
2.38836e-09
4.20246e-07
5.47574e-09
4.20967e-07
7.48811e-09
4.21474e-07
8.8692e-09
4.21564e-07
8.82466e-09
4.21283e-07
8.07078e-09
4.20772e-07
7.20838e-09
4.20144e-07
6.41663e-09
4.19468e-07
5.73756e-09
4.18779e-07
5.1865e-09
4.18093e-07
4.76122e-09
4.17413e-07
4.44976e-09
4.16736e-07
4.24351e-09
4.1605e-07
4.13417e-09
4.1535e-07
4.13891e-09
4.14591e-07
4.23989e-09
4.55881e-09
4.13814e-07
4.4903e-07
-5.03058e-09
4.49579e-07
1.83961e-09
4.50285e-07
4.7694e-09
4.51001e-07
6.77234e-09
4.51636e-07
8.23413e-09
4.51969e-07
8.49097e-09
4.51981e-07
8.05908e-09
4.51757e-07
7.43205e-09
4.51384e-07
6.79018e-09
4.5092e-07
6.2015e-09
4.50404e-07
5.70259e-09
4.49858e-07
5.30703e-09
4.49293e-07
5.01478e-09
4.48712e-07
4.82474e-09
4.4811e-07
4.73567e-09
4.47487e-07
4.76241e-09
4.46821e-07
4.90602e-09
5.23653e-09
4.46143e-07
4.81752e-07
-3.51033e-09
4.82025e-07
1.5664e-09
4.8259e-07
4.2042e-09
4.83257e-07
6.10583e-09
4.83934e-07
7.55666e-09
4.84406e-07
8.01863e-09
4.84617e-07
7.84875e-09
4.84611e-07
7.43832e-09
4.84446e-07
6.95505e-09
4.84169e-07
6.47822e-09
4.83815e-07
6.05623e-09
4.83409e-07
5.71366e-09
4.82963e-07
5.46012e-09
4.82487e-07
5.30113e-09
4.81982e-07
5.24102e-09
4.81451e-07
5.2931e-09
4.80891e-07
5.46595e-09
5.79726e-09
4.8033e-07
5.16743e-07
-2.29492e-09
5.16864e-07
1.44489e-09
5.17305e-07
3.7629e-09
5.17901e-07
5.51019e-09
5.18569e-07
6.88846e-09
5.19112e-07
7.47598e-09
5.19453e-07
7.50737e-09
5.19608e-07
7.28328e-09
5.19612e-07
6.95174e-09
5.19497e-07
6.59331e-09
5.19292e-07
6.26105e-09
5.1902e-07
5.98592e-09
5.18695e-07
5.78421e-09
5.1833e-07
5.66635e-09
5.17931e-07
5.64035e-09
5.17506e-07
5.71804e-09
5.17063e-07
5.90906e-09
6.23083e-09
5.16629e-07
5.54202e-07
-1.36361e-09
5.54233e-07
1.41392e-09
5.54575e-07
3.42177e-09
5.55095e-07
4.98929e-09
5.55727e-07
6.25712e-09
5.56296e-07
6.90701e-09
5.56719e-07
7.08369e-09
5.56991e-07
7.01136e-09
5.57128e-07
6.81548e-09
5.57149e-07
6.57162e-09
5.57078e-07
6.3324e-09
5.56933e-07
6.13128e-09
5.56728e-07
5.98832e-09
5.56478e-07
5.91683e-09
5.56192e-07
5.9267e-09
5.55882e-07
6.02793e-09
5.55563e-07
6.22815e-09
6.53251e-09
5.55261e-07
5.94297e-07
-6.83507e-10
5.94284e-07
1.42701e-09
5.94554e-07
3.15248e-09
5.95008e-07
4.53515e-09
5.95591e-07
5.67354e-09
5.9616e-07
6.33841e-09
5.96632e-07
6.612e-09
5.96986e-07
6.65687e-09
5.97226e-07
6.57582e-09
5.97362e-07
6.43591e-09
5.97408e-07
6.28593e-09
5.9738e-07
6.15889e-09
5.97293e-07
6.07605e-09
5.97158e-07
6.05178e-09
5.96988e-07
6.09621e-09
5.96799e-07
6.21729e-09
5.96607e-07
6.41962e-09
6.70137e-09
5.96439e-07
6.37212e-07
-2.14176e-10
6.37189e-07
1.44954e-09
6.37416e-07
2.92607e-09
6.37818e-07
4.13296e-09
6.38354e-07
5.13778e-09
6.38908e-07
5.78405e-09
6.39405e-07
6.11487e-09
6.39817e-07
6.2451e-09
6.40136e-07
6.25643e-09
6.40366e-07
6.20584e-09
6.40516e-07
6.13637e-09
6.40596e-07
6.07848e-09
6.4062e-07
6.05264e-09
6.40599e-07
6.07274e-09
6.40547e-07
6.14802e-09
6.4048e-07
6.28427e-09
6.40416e-07
6.48318e-09
6.73942e-09
6.40378e-07
5.7382e-07
4.96413e-11
5.73808e-07
1.46089e-09
5.73987e-07
2.74776e-09
5.74301e-07
3.81886e-09
5.74722e-07
4.7165e-09
5.75176e-07
5.32979e-09
5.75606e-07
5.68501e-09
5.75985e-07
5.86624e-09
5.76303e-07
5.93877e-09
5.76557e-07
5.95101e-09
5.76753e-07
5.94053e-09
5.76897e-07
5.93459e-09
5.76998e-07
5.95196e-09
5.77065e-07
6.00528e-09
5.77111e-07
6.10249e-09
5.77148e-07
6.24759e-09
5.7719e-07
6.44048e-09
6.67392e-09
5.77256e-07
6.99624e-07
2.40905e-10
6.99648e-07
1.43712e-09
6.99849e-07
2.54684e-09
7.0019e-07
3.47758e-09
7.00647e-07
4.25939e-09
7.01153e-07
4.82445e-09
7.01651e-07
5.18692e-09
7.02112e-07
5.4054e-09
7.0252e-07
5.52991e-09
7.02872e-07
5.59943e-09
7.03168e-07
5.64492e-09
7.03413e-07
5.68939e-09
7.03616e-07
5.74889e-09
7.03787e-07
5.83399e-09
7.03939e-07
5.95083e-09
7.04085e-07
6.10162e-09
7.04241e-07
6.28462e-09
6.49225e-09
7.04422e-07
8.52976e-07
3.49717e-10
8.53051e-07
1.36166e-09
8.53295e-07
2.30315e-09
8.53678e-07
3.09476e-09
8.54179e-07
3.75813e-09
8.54742e-07
4.26171e-09
8.55315e-07
4.61363e-09
8.55868e-07
4.85279e-09
8.56382e-07
5.01584e-09
8.56849e-07
5.13232e-09
8.57268e-07
5.22604e-09
8.57642e-07
5.31494e-09
8.5798e-07
5.41153e-09
8.5829e-07
5.5237e-09
8.58585e-07
5.65548e-09
8.58879e-07
5.80741e-09
8.59187e-07
5.97668e-09
6.15636e-09
8.59523e-07
1.03989e-06
3.76989e-10
1.04004e-06
1.21944e-09
1.04035e-06
1.99372e-09
1.04079e-06
2.64721e-09
1.04136e-06
3.19351e-09
1.04199e-06
3.62542e-09
1.04266e-06
3.95007e-09
1.04332e-06
4.19237e-09
1.04396e-06
4.37769e-09
1.04456e-06
4.52693e-09
1.04513e-06
4.65681e-09
1.04567e-06
4.77989e-09
1.04617e-06
4.90468e-09
1.04666e-06
5.03616e-09
1.04714e-06
5.17622e-09
1.04762e-06
5.32407e-09
1.04812e-06
5.47648e-09
5.62769e-09
1.04865e-06
1.26772e-06
3.34988e-10
1.26794e-06
9.98242e-10
1.26834e-06
1.59671e-09
1.26888e-06
2.10581e-09
1.26954e-06
2.53386e-09
1.27028e-06
2.88517e-09
1.27106e-06
3.16729e-09
1.27186e-06
3.39557e-09
1.27265e-06
3.58604e-09
1.27343e-06
3.75191e-09
1.27418e-06
3.90337e-09
1.27491e-06
4.04776e-09
1.27563e-06
4.1897e-09
1.27633e-06
4.33131e-09
1.27704e-06
4.47267e-09
1.27775e-06
4.61208e-09
1.27848e-06
4.7464e-09
4.87124e-09
1.27923e-06
1.54541e-06
2.40203e-10
1.54572e-06
6.92006e-10
1.54622e-06
1.09288e-09
1.54689e-06
1.43871e-09
1.54769e-06
1.73711e-09
1.54858e-06
1.99495e-09
1.54953e-06
2.21848e-09
1.55051e-06
2.4158e-09
1.5515e-06
2.59484e-09
1.55249e-06
2.76171e-09
1.55347e-06
2.92062e-09
1.55444e-06
3.07413e-09
1.55541e-06
3.22323e-09
1.55637e-06
3.36761e-09
1.55734e-06
3.50587e-09
1.55832e-06
3.63582e-09
1.55931e-06
3.75467e-09
3.85927e-09
1.56032e-06
1.8839e-06
1.06665e-10
1.88429e-06
3.00081e-10
1.88492e-06
4.64291e-10
1.88575e-06
6.11127e-10
1.88673e-06
7.52403e-10
1.88783e-06
8.93689e-10
1.88901e-06
1.03762e-09
1.89024e-06
1.18562e-09
1.8915e-06
1.33769e-09
1.89277e-06
1.49267e-09
1.89404e-06
1.6488e-09
1.89531e-06
1.80396e-09
1.89658e-06
1.95577e-09
1.89784e-06
2.10165e-09
1.89911e-06
2.23896e-09
1.90038e-06
2.3651e-09
1.90166e-06
2.47759e-09
2.57417e-09
1.90294e-06
2.29649e-06
-4.78678e-11
2.29695e-06
-1.62976e-10
2.29772e-06
-3.01666e-10
2.29874e-06
-4.16059e-10
2.29998e-06
-4.83087e-10
2.30137e-06
-4.99998e-10
2.30288e-06
-4.6732e-10
2.30445e-06
-3.90333e-10
2.30607e-06
-2.78683e-10
2.30771e-06
-1.42537e-10
2.30935e-06
9.23301e-12
2.31098e-06
1.69088e-10
2.31261e-06
3.30676e-10
2.31422e-06
4.88766e-10
2.31582e-06
6.39137e-10
2.3174e-06
7.78452e-10
2.31898e-06
9.04122e-10
1.01423e-09
2.32054e-06
1.68113e-06
-1.03532e-10
1.68139e-06
-4.26991e-10
1.68192e-06
-8.28166e-10
1.68267e-06
-1.17079e-09
1.68361e-06
-1.42285e-09
1.68469e-06
-1.58255e-09
1.68587e-06
-1.64639e-09
1.68711e-06
-1.62535e-09
1.68837e-06
-1.53993e-09
1.68964e-06
-1.40939e-09
1.69089e-06
-1.2493e-09
1.69214e-06
-1.0723e-09
1.69335e-06
-8.88481e-10
1.69455e-06
-7.05569e-10
1.69572e-06
-5.29303e-10
1.69686e-06
-3.6385e-10
1.69798e-06
-2.12136e-10
-7.61824e-11
1.69907e-06
1.46336e-06
-1.13645e-11
1.46345e-06
-5.16682e-10
1.46386e-06
-1.23113e-09
1.46452e-06
-1.83012e-09
1.46539e-06
-2.29538e-09
1.46642e-06
-2.61696e-09
1.46755e-06
-2.77666e-09
1.46873e-06
-2.79784e-09
1.46991e-06
-2.71966e-09
1.47107e-06
-2.57401e-09
1.47221e-06
-2.38497e-09
1.47331e-06
-2.17155e-09
1.47437e-06
-1.9482e-09
1.47539e-06
-1.72529e-09
1.47637e-06
-1.51001e-09
1.47731e-06
-1.30722e-09
1.47822e-06
-1.12003e-09
-9.50376e-10
1.47909e-06
1.27363e-06
3.68645e-10
1.27351e-06
-3.89871e-10
1.27381e-06
-1.53691e-09
1.27442e-06
-2.44084e-09
1.27529e-06
-3.16668e-09
1.27635e-06
-3.66894e-09
1.27748e-06
-3.90627e-09
1.27861e-06
-3.93532e-09
1.27972e-06
-3.82762e-09
1.28078e-06
-3.63221e-09
1.28178e-06
-3.38383e-09
1.28272e-06
-3.10899e-09
1.28359e-06
-2.82656e-09
1.28442e-06
-2.54896e-09
1.28519e-06
-2.28406e-09
1.28592e-06
-2.03664e-09
1.28661e-06
-1.80935e-09
-1.6035e-09
1.28726e-06
1.10825e-06
1.21192e-09
1.1079e-06
-4.32647e-11
1.10818e-06
-1.81652e-09
1.10883e-06
-3.08729e-09
1.10979e-06
-4.12718e-09
1.11092e-06
-4.8029e-09
1.11208e-06
-5.06158e-09
1.11318e-06
-5.03382e-09
1.11419e-06
-4.83952e-09
1.1151e-06
-4.54759e-09
1.11593e-06
-4.20421e-09
1.11666e-06
-3.8429e-09
1.11732e-06
-3.48527e-09
1.11791e-06
-3.14378e-09
1.11845e-06
-2.82523e-09
1.11895e-06
-2.53291e-09
1.11941e-06
-2.26787e-09
-2.03001e-09
1.11983e-06
9.64049e-07
2.68456e-09
9.63545e-07
4.60098e-10
9.63909e-07
-2.17962e-09
9.64696e-07
-3.87499e-09
9.65832e-07
-5.26292e-09
9.67077e-07
-6.04776e-09
9.68235e-07
-6.2194e-09
9.6924e-07
-6.03932e-09
9.70088e-07
-5.68691e-09
9.70789e-07
-5.24872e-09
9.71364e-07
-4.7794e-09
9.71837e-07
-4.31572e-09
9.72229e-07
-3.87782e-09
9.7256e-07
-3.47462e-09
9.72844e-07
-3.10912e-09
9.73092e-07
-2.78128e-09
9.73314e-07
-2.48923e-09
-2.23066e-09
9.73514e-07
8.38145e-07
5.07509e-09
8.37754e-07
8.50773e-10
8.38383e-07
-2.8082e-09
8.39418e-07
-4.91032e-09
8.4077e-07
-6.61458e-09
8.42082e-07
-7.36022e-09
8.43148e-07
-7.28547e-09
8.43948e-07
-6.83922e-09
8.4452e-07
-6.25843e-09
8.44908e-07
-5.6372e-09
8.45158e-07
-5.02977e-09
8.4531e-07
-4.46779e-09
8.45396e-07
-3.96311e-09
8.45437e-07
-3.51634e-09
8.45452e-07
-3.12373e-09
8.45451e-07
-2.78019e-09
8.45442e-07
-2.48007e-09
-2.21825e-09
8.45429e-07
7.27634e-07
9.16904e-09
7.28122e-07
3.63147e-10
7.29324e-07
-4.01046e-09
7.3071e-07
-6.29597e-09
7.32244e-07
-8.14821e-09
7.33483e-07
-8.59951e-09
7.3428e-07
-8.08228e-09
7.34702e-07
-7.26141e-09
7.34852e-07
-6.40823e-09
7.34817e-07
-5.60226e-09
7.34666e-07
-4.8794e-09
7.34452e-07
-4.25304e-09
7.34207e-07
-3.7185e-09
7.33954e-07
-3.26374e-09
7.33707e-07
-2.87632e-09
7.33472e-07
-2.54559e-09
7.33255e-07
-2.26235e-09
-2.01868e-09
7.33055e-07
6.30219e-07
1.59563e-08
6.3275e-07
-2.16763e-09
6.34736e-07
-5.99653e-09
6.36523e-07
-8.08235e-09
6.38097e-07
-9.72265e-09
6.38999e-07
-9.50131e-09
6.3925e-07
-8.33372e-09
6.39062e-07
-7.07343e-09
6.38622e-07
-5.9679e-09
6.38058e-07
-5.0382e-09
6.37451e-07
-4.27287e-09
6.3685e-07
-3.65177e-09
6.36279e-07
-3.14786e-09
6.35751e-07
-2.73527e-09
6.35269e-07
-2.39392e-09
6.34832e-07
-2.10928e-09
6.3444e-07
-1.87027e-09
-1.66693e-09
6.34088e-07
5.47192e-07
2.33107e-08
5.51826e-07
-6.80119e-09
5.53527e-07
-7.69759e-09
5.55234e-07
-9.79019e-09
5.56334e-07
-1.08226e-08
5.56361e-07
-9.5276e-09
5.55619e-07
-7.59232e-09
5.54511e-07
-5.96512e-09
5.533e-07
-4.75709e-09
5.52123e-07
-3.86097e-09
5.51037e-07
-3.18719e-09
5.50061e-07
-2.67563e-09
5.49194e-07
-2.28049e-09
5.48427e-07
-1.96801e-09
5.47749e-07
-1.7159e-09
5.4715e-07
-1.51066e-09
5.46623e-07
-1.343e-09
-1.20438e-09
5.4616e-07
4.91615e-07
1.44567e-08
4.907e-07
-5.88673e-09
4.87265e-07
-4.26255e-09
4.86305e-07
-8.83006e-09
4.84864e-07
-9.3811e-09
4.82527e-07
-7.19107e-09
4.79887e-07
-4.95185e-09
4.77392e-07
-3.47057e-09
4.75214e-07
-2.57932e-09
4.73367e-07
-2.01412e-09
4.7181e-07
-1.62986e-09
4.70492e-07
-1.35706e-09
4.69366e-07
-1.15538e-09
4.68398e-07
-9.99601e-10
4.67558e-07
-8.75666e-10
4.66825e-07
-7.78389e-10
4.66192e-07
-7.09496e-10
-7.15159e-10
4.65703e-07
4.34724e-07
4.28838e-07
4.24575e-07
4.15745e-07
4.06364e-07
3.99173e-07
3.94221e-07
3.9075e-07
3.88171e-07
3.86157e-07
3.84527e-07
3.8317e-07
3.82015e-07
3.81015e-07
3.80139e-07
3.79361e-07
3.78652e-07
3.77936e-07
1.70986e-08
-1.70986e-08
3.10668e-08
-1.39682e-08
3.84948e-08
-7.42796e-09
3.97308e-08
-1.23599e-09
3.56583e-08
4.07244e-09
2.77087e-08
7.94959e-09
1.74338e-08
1.02749e-08
5.88204e-09
1.15518e-08
-6.68802e-09
1.25701e-08
-2.05007e-08
1.38126e-08
-3.57412e-08
1.52406e-08
-5.24498e-08
1.67086e-08
-7.05456e-08
1.80958e-08
-8.98503e-08
1.93047e-08
-1.10118e-07
2.02678e-08
-1.31065e-07
2.09466e-08
-1.52393e-07
2.13286e-08
-1.73816e-07
2.14227e-08
-1.9507e-07
2.12538e-08
-2.15927e-07
2.08573e-08
-2.36201e-07
2.02744e-08
-2.55749e-07
1.95478e-08
-2.74468e-07
1.87185e-08
-2.92291e-07
1.78236e-08
-3.09186e-07
1.6895e-08
-3.25145e-07
1.59588e-08
-3.4018e-07
1.50353e-08
-3.5432e-07
1.41393e-08
-3.676e-07
1.32807e-08
-3.80066e-07
1.24655e-08
-3.91762e-07
1.16962e-08
-4.02735e-07
1.09729e-08
-4.13029e-07
1.02937e-08
-4.22684e-07
9.65529e-09
-4.31738e-07
9.05346e-09
-4.40221e-07
8.48344e-09
-4.48161e-07
7.94013e-09
-4.55579e-07
7.41827e-09
-4.62492e-07
6.91258e-09
-4.6891e-07
6.41787e-09
-4.74839e-07
5.929e-09
-4.8028e-07
5.44099e-09
-4.85229e-07
4.94895e-09
-4.89677e-07
4.44817e-09
-4.93611e-07
3.93414e-09
-4.97014e-07
3.40262e-09
-4.99864e-07
2.84973e-09
-5.02136e-07
2.27209e-09
-5.03802e-07
1.66602e-09
-5.04832e-07
1.03058e-09
-5.05212e-07
3.80257e-10
-5.04964e-07
-2.48751e-10
-5.04121e-07
-8.42264e-10
-5.027e-07
-1.42166e-09
-5.00694e-07
-2.0058e-09
-4.9809e-07
-2.60368e-09
-4.94871e-07
-3.21885e-09
-4.91019e-07
-3.85248e-09
-4.86515e-07
-4.50439e-09
-4.81341e-07
-5.17363e-09
-4.75482e-07
-5.85865e-09
-4.68925e-07
-6.55744e-09
-4.61657e-07
-7.26756e-09
-4.53671e-07
-7.98618e-09
-4.44961e-07
-8.71014e-09
-4.35525e-07
-9.43593e-09
-4.25365e-07
-1.01598e-08
-4.14487e-07
-1.08778e-08
-4.02902e-07
-1.15857e-08
-3.90622e-07
-1.22793e-08
-3.77668e-07
-1.29542e-08
-3.64062e-07
-1.36062e-08
-3.49831e-07
-1.42312e-08
-3.35006e-07
-1.48251e-08
-3.19622e-07
-1.53841e-08
-3.03717e-07
-1.59049e-08
-2.87332e-07
-1.63844e-08
-2.70512e-07
-1.68199e-08
-2.53303e-07
-1.72092e-08
-2.35752e-07
-1.75508e-08
-2.17909e-07
-1.78433e-08
-1.99823e-07
-1.80861e-08
-1.81544e-07
-1.8279e-08
-1.63122e-07
-1.84224e-08
-1.44605e-07
-1.8517e-08
-1.26041e-07
-1.85636e-08
-1.07478e-07
-1.85635e-08
-8.896e-08
-1.85176e-08
-7.05339e-08
-1.84261e-08
-5.22462e-08
-1.82877e-08
-3.41475e-08
-1.80987e-08
-1.62852e-08
-1.78623e-08
1.33114e-09
-1.76163e-08
1.87037e-08
-1.73726e-08
3.58028e-08
-1.70991e-08
5.25967e-08
-1.67938e-08
6.90649e-08
-1.64682e-08
8.5192e-08
-1.61271e-08
1.00966e-07
-1.57735e-08
1.16376e-07
-1.54101e-08
1.31415e-07
-1.5039e-08
1.46077e-07
-1.46625e-08
1.6036e-07
-1.42825e-08
1.74261e-07
-1.39009e-08
1.8778e-07
-1.35194e-08
2.00919e-07
-1.31395e-08
2.13682e-07
-1.27625e-08
2.26072e-07
-1.23896e-08
2.38093e-07
-1.20219e-08
2.49754e-07
-1.16601e-08
2.61058e-07
-1.13049e-08
2.72015e-07
-1.09566e-08
2.82631e-07
-1.06156e-08
2.92913e-07
-1.0282e-08
3.02868e-07
-9.95556e-09
3.12504e-07
-9.63611e-09
3.21827e-07
-9.32316e-09
3.30844e-07
-9.01609e-09
3.39558e-07
-8.71414e-09
3.47974e-07
-8.41636e-09
3.56096e-07
-8.1217e-09
3.63925e-07
-7.82899e-09
3.71462e-07
-7.53698e-09
3.78706e-07
-7.24431e-09
3.85656e-07
-6.94964e-09
3.92307e-07
-6.65162e-09
3.98656e-07
-6.34891e-09
4.04696e-07
-6.04031e-09
4.10421e-07
-5.72473e-09
4.15822e-07
-5.40126e-09
4.20892e-07
-5.06927e-09
4.2562e-07
-4.72836e-09
4.29999e-07
-4.3785e-09
4.34019e-07
-4.01998e-09
4.37672e-07
-3.6535e-09
4.40952e-07
-3.28007e-09
4.43853e-07
-2.90097e-09
4.46371e-07
-2.5174e-09
4.485e-07
-2.12951e-09
4.50234e-07
-1.73388e-09
4.51553e-07
-1.31924e-09
4.52416e-07
-8.63236e-10
4.52776e-07
-3.5922e-10
4.52659e-07
1.16402e-10
4.52175e-07
4.84512e-10
4.51416e-07
7.58537e-10
4.50442e-07
9.74109e-10
4.49293e-07
1.14896e-09
4.48002e-07
1.29136e-09
4.46596e-07
1.40598e-09
4.451e-07
1.49579e-09
4.43537e-07
1.56327e-09
4.41926e-07
1.6108e-09
4.40285e-07
1.64079e-09
4.38629e-07
1.65564e-09
4.36972e-07
1.65773e-09
4.35322e-07
1.64937e-09
4.3369e-07
1.63275e-09
4.3208e-07
1.61e-09
4.30496e-07
1.58312e-09
4.28942e-07
1.55407e-09
4.27418e-07
1.5247e-09
4.25921e-07
1.49693e-09
4.24448e-07
1.47271e-09
4.22994e-07
1.45418e-09
4.2155e-07
1.44379e-09
4.20106e-07
1.4445e-09
4.18645e-07
1.46011e-09
4.1715e-07
1.49569e-09
4.15591e-07
1.55833e-09
4.13933e-07
1.65844e-09
4.12121e-07
1.81185e-09
4.10077e-07
2.04406e-09
4.07679e-07
2.39786e-09
4.04727e-07
2.95262e-09
4.00874e-07
3.85299e-09
3.95426e-07
5.44788e-09
3.87163e-07
8.26249e-09
3.72497e-07
1.46664e-08
2.38904e-08
3.48607e-07
6.06166e-09
-2.31603e-08
3.12666e-09
-1.10332e-08
-3.10768e-09
-1.19362e-09
-1.12274e-08
6.88373e-09
-2.08857e-08
1.37308e-08
-3.23271e-08
1.9391e-08
-4.59167e-08
2.38645e-08
-6.17867e-08
2.74217e-08
-7.96656e-08
3.0449e-08
-9.90317e-08
3.31787e-08
-1.19417e-07
3.56261e-08
-1.40413e-07
3.77048e-08
-1.61639e-07
3.93216e-08
-1.82748e-07
4.04134e-08
-2.03438e-07
4.09578e-08
-2.23462e-07
4.09703e-08
-2.4263e-07
4.04973e-08
-2.60814e-07
3.96065e-08
-2.77937e-07
3.8377e-08
-2.93971e-07
3.68912e-08
-3.08925e-07
3.52279e-08
-3.22835e-07
3.34579e-08
-3.35758e-07
3.16412e-08
-3.4776e-07
2.98261e-08
-3.58914e-07
2.80491e-08
-3.69292e-07
2.63363e-08
-3.78961e-07
2.47043e-08
-3.87984e-07
2.31625e-08
-3.96417e-07
2.17139e-08
-4.04309e-07
2.03573e-08
-4.11701e-07
1.90883e-08
-4.18628e-07
1.79e-08
-4.25119e-07
1.67845e-08
-4.31197e-07
1.57329e-08
-4.36879e-07
1.47361e-08
-4.42181e-07
1.3785e-08
-4.47111e-07
1.28708e-08
-4.51678e-07
1.19851e-08
-4.55885e-07
1.11199e-08
-4.59735e-07
1.02678e-08
-4.63228e-07
9.42186e-09
-4.66363e-07
8.57589e-09
-4.69138e-07
7.72417e-09
-4.71552e-07
6.86167e-09
-4.73602e-07
5.98413e-09
-4.75287e-07
5.08806e-09
-4.76609e-07
4.171e-09
-4.77568e-07
3.23166e-09
-4.78173e-07
2.27056e-09
-4.78433e-07
1.29096e-09
-4.78349e-07
2.95936e-10
-4.77875e-07
-7.22114e-10
-4.76942e-07
-1.77591e-09
-4.75494e-07
-2.86941e-09
-4.73497e-07
-4.0024e-09
-4.70926e-07
-5.17521e-09
-4.67757e-07
-6.38777e-09
-4.6397e-07
-7.63925e-09
-4.59546e-07
-8.92797e-09
-4.54469e-07
-1.02514e-08
-4.48721e-07
-1.16063e-08
-4.4229e-07
-1.29885e-08
-4.35165e-07
-1.43931e-08
-4.27336e-07
-1.58145e-08
-4.188e-07
-1.72466e-08
-4.09553e-07
-1.86823e-08
-3.99599e-07
-2.01144e-08
-3.88942e-07
-2.15349e-08
-3.77592e-07
-2.29357e-08
-3.65562e-07
-2.43084e-08
-3.52872e-07
-2.56445e-08
-3.39543e-07
-2.69357e-08
-3.256e-07
-2.81736e-08
-3.11075e-07
-2.93506e-08
-2.96e-07
-3.04591e-08
-2.80412e-07
-3.14925e-08
-2.64352e-07
-3.24447e-08
-2.47861e-07
-3.33105e-08
-2.30985e-07
-3.40855e-08
-2.13769e-07
-3.47664e-08
-1.96262e-07
-3.53508e-08
-1.78511e-07
-3.58374e-08
-1.60564e-07
-3.62257e-08
-1.4247e-07
-3.65163e-08
-1.24276e-07
-3.67105e-08
-1.0603e-07
-3.68104e-08
-8.77743e-08
-3.68187e-08
-6.95535e-08
-3.67383e-08
-5.14074e-08
-3.65722e-08
-3.33722e-08
-3.63229e-08
-1.5477e-08
-3.59939e-08
2.25552e-09
-3.55949e-08
1.97797e-08
-3.51405e-08
3.70457e-08
-3.46385e-08
5.40354e-08
-3.40888e-08
7.07369e-08
-3.34953e-08
8.71338e-08
-3.28651e-08
1.03211e-07
-3.22042e-08
1.18955e-07
-3.15177e-08
1.34355e-07
-3.08104e-08
1.49403e-07
-3.00869e-08
1.64092e-07
-2.93514e-08
1.78418e-07
-2.86079e-08
1.92377e-07
-2.78602e-08
2.05969e-07
-2.71115e-08
2.19195e-07
-2.63651e-08
2.32056e-07
-2.56234e-08
2.44555e-07
-2.48891e-08
2.56697e-07
-2.41639e-08
2.68487e-07
-2.34497e-08
2.79929e-07
-2.27477e-08
2.91032e-07
-2.20588e-08
3.018e-07
-2.13837e-08
3.1224e-07
-2.07226e-08
3.2236e-07
-2.00754e-08
3.32166e-07
-1.94416e-08
3.41663e-07
-1.88205e-08
3.50858e-07
-1.82109e-08
3.59755e-07
-1.76116e-08
3.6836e-07
-1.70206e-08
3.76674e-07
-1.64362e-08
3.84701e-07
-1.58562e-08
3.92442e-07
-1.52781e-08
3.99898e-07
-1.46995e-08
4.07066e-07
-1.41178e-08
4.13945e-07
-1.35306e-08
4.20531e-07
-1.29352e-08
4.2682e-07
-1.23293e-08
4.32806e-07
-1.17108e-08
4.38483e-07
-1.1078e-08
4.43843e-07
-1.04295e-08
4.48879e-07
-9.76454e-09
4.53584e-07
-9.08277e-09
4.57948e-07
-8.38461e-09
4.61966e-07
-7.67113e-09
4.6563e-07
-6.94402e-09
4.68934e-07
-6.20543e-09
4.71874e-07
-5.4576e-09
4.74447e-07
-4.702e-09
4.76651e-07
-3.93808e-09
4.78495e-07
-3.16318e-09
4.8001e-07
-2.37811e-09
4.81251e-07
-1.59998e-09
4.82225e-07
-8.58037e-10
4.82889e-07
-1.79254e-10
4.83225e-07
4.22772e-10
4.83248e-07
9.50928e-10
4.82984e-07
1.41254e-09
4.82462e-07
1.81321e-09
4.81711e-07
2.15713e-09
4.80759e-07
2.44765e-09
4.79635e-07
2.68797e-09
4.78364e-07
2.88145e-09
4.76973e-07
3.0318e-09
4.75486e-07
3.143e-09
4.73924e-07
3.2193e-09
4.72308e-07
3.26511e-09
4.70656e-07
3.28491e-09
4.68983e-07
3.28319e-09
4.67302e-07
3.26438e-09
4.65623e-07
3.23287e-09
4.63955e-07
3.19293e-09
4.62303e-07
3.14885e-09
4.6067e-07
3.10497e-09
4.59059e-07
3.06579e-09
4.57466e-07
3.03622e-09
4.55889e-07
3.02185e-09
4.5432e-07
3.02943e-09
4.52748e-07
3.06748e-09
4.51159e-07
3.14746e-09
4.49532e-07
3.28544e-09
4.47839e-07
3.50502e-09
4.4604e-07
3.84292e-09
4.4408e-07
4.35805e-09
4.41877e-07
5.15537e-09
4.39316e-07
6.41341e-09
4.36216e-07
8.54863e-09
4.32316e-07
1.21625e-08
4.27222e-07
1.976e-08
3.32204e-08
4.17892e-07
-9.95935e-09
-1.32009e-08
-2.18409e-08
8.48336e-10
-3.40329e-08
1.09984e-08
-4.67492e-08
1.96001e-08
-6.01491e-08
2.71306e-08
-7.4412e-08
3.36539e-08
-8.97363e-08
3.91888e-08
-1.06145e-07
4.38305e-08
-1.23399e-07
4.77026e-08
-1.41096e-07
5.08758e-08
-1.58825e-07
5.33549e-08
-1.76237e-07
5.5117e-08
-1.93067e-07
5.61519e-08
-2.09134e-07
5.64807e-08
-2.24334e-07
5.61578e-08
-2.38628e-07
5.52637e-08
-2.52025e-07
5.38948e-08
-2.64572e-07
5.2153e-08
-2.76333e-07
5.01378e-08
-2.87382e-07
4.79403e-08
-2.97794e-07
4.56397e-08
-3.07637e-07
4.33014e-08
-3.16973e-07
4.09769e-08
-3.25852e-07
3.8705e-08
-3.34315e-07
3.6513e-08
-3.42397e-07
3.44183e-08
-3.50124e-07
3.24305e-08
-3.57514e-07
3.0553e-08
-3.64585e-07
2.87843e-08
-3.71347e-07
2.71196e-08
-3.7781e-07
2.55516e-08
-3.83981e-07
2.40713e-08
-3.89866e-07
2.26689e-08
-3.95467e-07
2.13341e-08
-4.00787e-07
2.00565e-08
-4.05828e-07
1.88257e-08
-4.10589e-07
1.76318e-08
-4.15069e-07
1.64651e-08
-4.19266e-07
1.53167e-08
-4.23176e-07
1.4178e-08
-4.26796e-07
1.30411e-08
-4.30118e-07
1.18986e-08
-4.33138e-07
1.07437e-08
-4.35847e-07
9.57057e-09
-4.38236e-07
8.37368e-09
-4.40297e-07
7.14835e-09
-4.42016e-07
5.89051e-09
-4.43381e-07
4.59665e-09
-4.44374e-07
3.26376e-09
-4.44972e-07
1.8888e-09
-4.45143e-07
4.66873e-10
-4.44855e-07
-1.00993e-09
-4.44083e-07
-2.54796e-09
-4.42803e-07
-4.14931e-09
-4.40991e-07
-5.81417e-09
-4.38625e-07
-7.54193e-09
-4.35681e-07
-9.33129e-09
-4.3214e-07
-1.11802e-08
-4.27983e-07
-1.30857e-08
-4.2319e-07
-1.50437e-08
-4.17748e-07
-1.70491e-08
-4.1164e-07
-1.90956e-08
-4.04857e-07
-2.11762e-08
-3.9739e-07
-2.32823e-08
-3.89232e-07
-2.54046e-08
-3.80381e-07
-2.7533e-08
-3.70839e-07
-2.96565e-08
-3.6061e-07
-3.17633e-08
-3.49705e-07
-3.38414e-08
-3.38135e-07
-3.58784e-08
-3.25918e-07
-3.78616e-08
-3.13075e-07
-3.97786e-08
-2.99631e-07
-4.16172e-08
-2.85616e-07
-4.33659e-08
-2.71061e-07
-4.50136e-08
-2.56003e-07
-4.65504e-08
-2.40481e-07
-4.79674e-08
-2.24534e-07
-4.92568e-08
-2.08208e-07
-5.04121e-08
-1.91546e-07
-5.14285e-08
-1.74594e-07
-5.23024e-08
-1.574e-07
-5.30318e-08
-1.40009e-07
-5.36159e-08
-1.2247e-07
-5.40556e-08
-1.04828e-07
-5.4353e-08
-8.7127e-08
-5.45112e-08
-6.94112e-08
-5.45346e-08
-5.17214e-08
-5.44282e-08
-3.40957e-08
-5.41979e-08
-1.6568e-08
-5.38506e-08
8.31876e-10
-5.33938e-08
1.80729e-08
-5.28358e-08
3.51203e-08
-5.2188e-08
5.1942e-08
-5.14602e-08
6.85139e-08
-5.06607e-08
8.48164e-08
-4.97978e-08
1.00831e-07
-4.88799e-08
1.16542e-07
-4.79152e-08
1.31936e-07
-4.69113e-08
1.47001e-07
-4.58752e-08
1.61728e-07
-4.48139e-08
1.7611e-07
-4.37337e-08
1.90143e-07
-4.26406e-08
2.03823e-07
-4.15402e-08
2.17148e-07
-4.04374e-08
2.3012e-07
-3.93368e-08
2.42739e-07
-3.82424e-08
2.55008e-07
-3.71578e-08
2.6693e-07
-3.60861e-08
2.7851e-07
-3.50296e-08
2.89753e-07
-3.39904e-08
3.00664e-07
-3.297e-08
3.11249e-07
-3.19693e-08
3.21515e-07
-3.09887e-08
3.31468e-07
-3.00283e-08
3.41114e-07
-2.90875e-08
3.50459e-07
-2.81652e-08
3.59508e-07
-2.726e-08
3.68266e-07
-2.63699e-08
3.76738e-07
-2.54926e-08
3.84927e-07
-2.46254e-08
3.92836e-07
-2.37651e-08
4.00467e-07
-2.29085e-08
4.07819e-07
-2.20521e-08
4.14894e-07
-2.11922e-08
4.21688e-07
-2.03251e-08
4.282e-07
-1.94473e-08
4.34427e-07
-1.85555e-08
4.40362e-07
-1.76466e-08
4.46002e-07
-1.67179e-08
4.5134e-07
-1.57676e-08
4.5637e-07
-1.47943e-08
4.61085e-07
-1.37974e-08
4.65478e-07
-1.27775e-08
4.69542e-07
-1.17357e-08
4.73273e-07
-1.06744e-08
4.76664e-07
-9.59651e-09
4.79712e-07
-8.50544e-09
4.82414e-07
-7.40466e-09
4.84774e-07
-6.29736e-09
4.86798e-07
-5.18764e-09
4.88505e-07
-4.08479e-09
4.89911e-07
-3.00621e-09
4.91024e-07
-1.97099e-09
4.91841e-07
-9.96269e-10
4.92359e-07
-9.57464e-11
4.92586e-07
7.24192e-10
4.92536e-07
1.46226e-09
4.9223e-07
2.11925e-09
4.91691e-07
2.69674e-09
4.90942e-07
3.1968e-09
4.90007e-07
3.62212e-09
4.88913e-07
3.97615e-09
4.87681e-07
4.26307e-09
4.86337e-07
4.48782e-09
4.849e-07
4.65593e-09
4.83392e-07
4.77343e-09
4.8183e-07
4.84665e-09
4.80231e-07
4.88213e-09
4.78609e-07
4.88652e-09
4.76975e-07
4.86645e-09
4.7534e-07
4.82856e-09
4.73709e-07
4.77949e-09
4.72088e-07
4.72596e-09
4.70479e-07
4.67494e-09
4.68881e-07
4.63387e-09
4.67292e-07
4.61112e-09
4.65705e-07
4.6165e-09
4.6411e-07
4.66217e-09
4.62494e-07
4.76408e-09
4.60835e-07
4.9441e-09
4.59106e-07
5.23373e-09
4.57269e-07
5.68061e-09
4.55267e-07
6.35941e-09
4.53026e-07
7.39693e-09
4.50435e-07
9.00402e-09
4.47367e-07
1.16167e-08
4.43631e-07
1.58985e-08
4.39574e-07
2.38168e-08
3.7352e-08
4.35443e-07
-1.77601e-08
4.55914e-09
-3.42431e-08
1.73313e-08
-4.98823e-08
2.66376e-08
-6.5075e-08
3.47929e-08
-8.00796e-08
4.21351e-08
-9.50697e-08
4.86441e-08
-1.1013e-07
5.42495e-08
-1.25216e-07
5.89164e-08
-1.40163e-07
6.26488e-08
-1.54752e-07
6.54654e-08
-1.68788e-07
6.73905e-08
-1.82132e-07
6.8461e-08
-1.94716e-07
6.87359e-08
-2.06533e-07
6.82975e-08
-2.17621e-07
6.72459e-08
-2.28047e-07
6.56904e-08
-2.37893e-07
6.37409e-08
-2.47241e-07
6.15009e-08
-2.56167e-07
5.90631e-08
-2.64733e-07
5.65073e-08
-2.72993e-07
5.38994e-08
-2.80984e-07
5.12918e-08
-2.88731e-07
4.87247e-08
-2.96254e-07
4.62274e-08
-3.03561e-07
4.38199e-08
-3.10657e-07
4.15146e-08
-3.17544e-07
3.93176e-08
-3.24221e-07
3.723e-08
-3.30686e-07
3.52494e-08
-3.36937e-07
3.33701e-08
-3.4297e-07
3.15849e-08
-3.48783e-07
2.98846e-08
-3.54374e-07
2.82595e-08
-3.59739e-07
2.66991e-08
-3.64875e-07
2.51929e-08
-3.6978e-07
2.373e-08
-3.74448e-07
2.23e-08
-3.78875e-07
2.08927e-08
-3.83057e-07
1.94981e-08
-3.86986e-07
1.81068e-08
-3.90654e-07
1.67096e-08
-3.94054e-07
1.52981e-08
-3.97174e-07
1.38643e-08
-4.00004e-07
1.24005e-08
-4.0253e-07
1.08999e-08
-4.04738e-07
9.35589e-09
-4.0661e-07
7.76244e-09
-4.08127e-07
6.11387e-09
-4.09268e-07
4.40476e-09
-4.10009e-07
2.62965e-09
-4.10325e-07
7.8263e-10
-4.10192e-07
-1.14231e-09
-4.09591e-07
-3.14968e-09
-4.08498e-07
-5.24189e-09
-4.06892e-07
-7.41962e-09
-4.04752e-07
-9.68226e-09
-4.02055e-07
-1.20281e-08
-3.98781e-07
-1.44544e-08
-3.9491e-07
-1.6957e-08
-3.90423e-07
-1.95303e-08
-3.85305e-07
-2.21677e-08
-3.7954e-07
-2.48607e-08
-3.73116e-07
-2.75997e-08
-3.66025e-07
-3.03736e-08
-3.58259e-07
-3.317e-08
-3.49817e-07
-3.59754e-08
-3.40698e-07
-3.8775e-08
-3.30908e-07
-4.15536e-08
-3.20455e-07
-4.42948e-08
-3.09351e-07
-4.69823e-08
-2.97613e-07
-4.95995e-08
-2.85262e-07
-5.21297e-08
-2.72322e-07
-5.45569e-08
-2.58822e-07
-5.68657e-08
-2.44794e-07
-5.90418e-08
-2.30273e-07
-6.10718e-08
-2.15296e-07
-6.2944e-08
-1.99905e-07
-6.46483e-08
-1.8414e-07
-6.61763e-08
-1.68048e-07
-6.75214e-08
-1.51671e-07
-6.8679e-08
-1.35056e-07
-6.96466e-08
-1.18249e-07
-7.04234e-08
-1.01294e-07
-7.10105e-08
-8.42359e-08
-7.14107e-08
-6.71185e-08
-7.16286e-08
-4.9983e-08
-7.167e-08
-3.2869e-08
-7.15422e-08
-1.58131e-08
-7.12538e-08
1.15021e-09
-7.08139e-08
1.79887e-08
-7.02322e-08
3.46728e-08
-6.95199e-08
5.11738e-08
-6.8689e-08
6.74646e-08
-6.77511e-08
8.35212e-08
-6.67173e-08
9.93223e-08
-6.55989e-08
1.14849e-07
-6.44069e-08
1.30086e-07
-6.31519e-08
1.45019e-07
-6.1844e-08
1.59636e-07
-6.04929e-08
1.7393e-07
-5.91075e-08
1.87893e-07
-5.76963e-08
2.01519e-07
-5.62673e-08
2.14807e-07
-5.48276e-08
2.27753e-07
-5.33839e-08
2.40359e-07
-5.19422e-08
2.52624e-07
-5.05078e-08
2.64551e-07
-4.90853e-08
2.76144e-07
-4.76788e-08
2.87406e-07
-4.62916e-08
2.98342e-07
-4.49262e-08
3.08957e-07
-4.35848e-08
3.19256e-07
-4.22687e-08
3.29246e-07
-4.09785e-08
3.38932e-07
-3.97143e-08
3.4832e-07
-3.84755e-08
3.57416e-07
-3.72608e-08
3.66224e-07
-3.60685e-08
3.74751e-07
-3.48962e-08
3.82999e-07
-3.37409e-08
3.90973e-07
-3.25991e-08
3.98675e-07
-3.14672e-08
4.06107e-07
-3.03408e-08
4.13271e-07