/*--------------------------------*- C++ -*----------------------------------*\
  =========                 |
  \\      /  F ield         | OpenFOAM: The Open Source CFD Toolbox
   \\    /   O peration     | Website:  https://openfoam.org
    \\  /    A nd           | Version:  6
     \\/     M anipulation  |
\*---------------------------------------------------------------------------*/
FoamFile
{
    version     2.0;
    format      ascii;
    class       volVectorField;
    location    "0.22";
    object      U;
}
// * * * * * * * * * * * * * * * * * * * * * * * * * * * * * * * * * * * * * //

dimensions      [0 1 -1 0 0 0 0];

internalField   nonuniform List<vector> 
12225
(
(0.948757 -0.405569 0)
(1.0127 -0.190669 0)
(1.01474 -0.051392 0)
(0.983366 -0.00514002 0)
(0.9553 0.00452707 0)
(0.93685 0.00424125 0)
(0.924577 0.00260259 0)
(0.915838 0.00150778 0)
(0.909274 0.000968069 0)
(0.904024 0.000720039 0)
(0.899565 0.000600607 0)
(0.895626 0.000541349 0)
(0.892044 0.00051485 0)
(0.888724 0.000512372 0)
(0.885494 0.000522412 0)
(0.882596 0.000568003 0)
(0.878649 0.000610313 0)
(0.880021 9.44997e-06 0)
(1.03699 0.0761211 0)
(1.02001 0.0533196 0)
(1.01136 0.0193997 0)
(1.00432 0.00901949 0)
(0.997951 0.00673138 0)
(0.991177 0.00529992 0)
(0.983979 0.00405325 0)
(0.977385 0.00320497 0)
(0.971894 0.00267592 0)
(0.967349 0.00232566 0)
(0.963475 0.00208502 0)
(0.960084 0.00192522 0)
(0.957044 0.00182625 0)
(0.954267 0.00177961 0)
(0.951621 0.0017636 0)
(0.949201 0.00185033 0)
(0.946398 0.00168053 0)
(0.944517 0.00245093 0)
(0.998333 0.0132123 0)
(0.995362 0.0119563 0)
(1.00082 0.00641047 0)
(1.00191 0.00652849 0)
(1.00122 0.00703243 0)
(0.999278 0.00635186 0)
(0.995919 0.00529983 0)
(0.992022 0.00443101 0)
(0.988311 0.00380255 0)
(0.984967 0.00334791 0)
(0.981957 0.00302437 0)
(0.979226 0.00280561 0)
(0.976715 0.00266917 0)
(0.974369 0.00260486 0)
(0.972105 0.0025957 0)
(0.96994 0.00268969 0)
(0.967598 0.00271511 0)
(0.965329 0.00313685 0)
(0.995105 -0.0069506 0)
(0.992485 0.00125637 0)
(0.998594 0.00394505 0)
(1.00081 0.00596531 0)
(1.00159 0.00706833 0)
(1.00155 0.0068367 0)
(1.00019 0.00607142 0)
(0.998018 0.00532748 0)
(0.995629 0.00472453 0)
(0.993265 0.0042538 0)
(0.990995 0.00390334 0)
(0.98884 0.00366046 0)
(0.98679 0.00350997 0)
(0.984824 0.00344544 0)
(0.982891 0.00345747 0)
(0.980986 0.00358397 0)
(0.978959 0.00374289 0)
(0.97684 0.00424623 0)
(0.996671 -0.00693914 0)
(0.993818 0.00083338 0)
(0.998046 0.00376483 0)
(1.00005 0.00557241 0)
(1.00131 0.00680052 0)
(1.00213 0.00691381 0)
(1.0019 0.00645688 0)
(1.00086 0.00590513 0)
(0.99945 0.00540095 0)
(0.997876 0.00497569 0)
(0.996242 0.00464448 0)
(0.994601 0.00441084 0)
(0.992977 0.00427044 0)
(0.991368 0.00422336 0)
(0.989751 0.00426905 0)
(0.988118 0.00444102 0)
(0.986395 0.00471635 0)
(0.984553 0.00530426 0)
(0.997828 -0.00414662 0)
(0.995151 0.00128726 0)
(0.997859 0.00350108 0)
(0.999549 0.00508598 0)
(1.00095 0.00636388 0)
(1.00214 0.00673152 0)
(1.00254 0.0065489 0)
(1.00224 0.00620184 0)
(1.00154 0.00583173 0)
(1.00059 0.00549206 0)
(0.999485 0.00521631 0)
(0.998299 0.00502167 0)
(0.997064 0.00491457 0)
(0.995794 0.00490237 0)
(0.994484 0.00499289 0)
(0.993131 0.00521763 0)
(0.991709 0.00558663 0)
(0.990187 0.00623403 0)
(0.998451 -0.00256699 0)
(0.996204 0.00119279 0)
(0.997934 0.0030772 0)
(0.999322 0.00458254 0)
(1.00067 0.00586423 0)
(1.00196 0.00640411 0)
(1.0027 0.00644348 0)
(1.00288 0.00628474 0)
(1.00267 0.00605694 0)
(1.00219 0.00582257 0)
(1.00153 0.00562495 0)
(1.00073 0.00549057 0)
(0.999848 0.00543456 0)
(0.998893 0.0054707 0)
(0.997876 0.00561344 0)
(0.996805 0.00589268 0)
(0.99568 0.00633308 0)
(0.994484 0.00701881 0)
(0.998884 -0.00172334 0)
(0.99711 0.00100968 0)
(0.9982 0.00271046 0)
(0.999306 0.0041266 0)
(1.00052 0.00535788 0)
(1.00177 0.00600092 0)
(1.00265 0.00620886 0)
(1.00312 0.0062105 0)
(1.00325 0.00611765 0)
(1.00313 0.00599346 0)
(1.00281 0.00588465 0)
(1.00235 0.00582284 0)
(1.00176 0.0058291 0)
(1.0011 0.00592184 0)
(1.00035 0.0061197 0)
(0.999556 0.00645055 0)
(0.998717 0.00694247 0)
(0.997836 0.00764703 0)
(0.999233 -0.00110607 0)
(0.997892 0.00093503 0)
(0.99856 0.00244152 0)
(0.999425 0.00372953 0)
(1.00047 0.00487248 0)
(1.00161 0.00556431 0)
(1.00254 0.00589176 0)
(1.00316 0.00602196 0)
(1.00352 0.00604807 0)
(1.00366 0.00602889 0)
(1.0036 0.00601024 0)
(1.0034 0.00602542 0)
(1.00308 0.00609866 0)
(1.00267 0.0062509 0)
(1.00218 0.00650255 0)
(1.00164 0.00687855 0)
(1.00107 0.00740442 0)
(1.00048 0.00811021 0)
(0.999502 -0.000615901 0)
(0.998537 0.000934573 0)
(0.998942 0.00223988 0)
(0.999619 0.00338503 0)
(1.0005 0.00442088 0)
(1.00152 0.00512055 0)
(1.00242 0.00552486 0)
(1.00312 0.00575186 0)
(1.00362 0.00587655 0)
(1.00393 0.00595077 0)
(1.00408 0.00601668 0)
(1.00409 0.00610673 0)
(1.00399 0.00624588 0)
(1.0038 0.00645557 0)
(1.00354 0.0067559 0)
(1.00323 0.00716809 0)
(1.0029 0.00771243 0)
(1.00258 0.0084049 0)
(0.999692 -0.000257859 0)
(0.999044 0.000953678 0)
(0.999303 0.00207635 0)
(0.999845 0.003083 0)
(1.00059 0.00400634 0)
(1.00148 0.00468456 0)
(1.00234 0.00513054 0)
(1.00306 0.00542494 0)
(1.00363 0.00562638 0)
(1.00406 0.00577861 0)
(1.00436 0.00591869 0)
(1.00453 0.00607642 0)
(1.00461 0.0062756 0)
(1.00461 0.00653651 0)
(1.00455 0.00687734 0)
(1.00445 0.00731518 0)
(1.00434 0.00786448 0)
(1.00424 0.00853212 0)
(0.999809 -3.65722e-05 0)
(0.999392 0.00096408 0)
(0.999591 0.00194208 0)
(1.00005 0.00283253 0)
(1.0007 0.00365573 0)
(1.0015 0.00429708 0)
(1.00229 0.00475653 0)
(1.003 0.00508972 0)
(1.00361 0.00534228 0)
(1.00411 0.00555061 0)
(1.0045 0.00574656 0)
(1.00479 0.00595654 0)
(1.005 0.00620207 0)
(1.00515 0.00650132 0)
(1.00524 0.00686983 0)
(1.00531 0.00732081 0)
(1.00537 0.0078639 0)
(1.00545 0.00850049 0)
(0.99989 0.000107817 0)
(0.999651 0.000960799 0)
(0.999832 0.00181324 0)
(1.00024 0.00259857 0)
(1.00082 0.00332797 0)
(1.00153 0.00392364 0)
(1.00227 0.00438022 0)
(1.00296 0.00473521 0)
(1.00359 0.00502327 0)
(1.00413 0.00527399 0)
(1.00459 0.00551397 0)
(1.00498 0.00576586 0)
(1.0053 0.00604829 0)
(1.00556 0.00637674 0)
(1.00579 0.00676381 0)
(1.00599 0.00721907 0)
(1.00621 0.00774813 0)
(1.00643 0.00834874 0)
(0.999947 0.000199297 0)
(0.999857 0.00092999 0)
(1.00005 0.00166286 0)
(1.00043 0.00234169 0)
(1.00096 0.00297253 0)
(1.00159 0.00350967 0)
(1.00227 0.00394685 0)
(1.00294 0.00430792 0)
(1.00357 0.00461806 0)
(1.00415 0.0049 0)
(1.00467 0.00517467 0)
(1.00513 0.0054602 0)
(1.00555 0.00577154 0)
(1.00592 0.00612075 0)
(1.00627 0.00651695 0)
(1.00662 0.00696607 0)
(1.00697 0.00747011 0)
(1.00733 0.00802473 0)
(0.999983 0.000238073 0)
(1 0.000858369 0)
(1.00021 0.00147521 0)
(1.00059 0.00204775 0)
(1.00108 0.00257872 0)
(1.00167 0.00304688 0)
(1.0023 0.0034484 0)
(1.00295 0.00379795 0)
(1.00357 0.00411314 0)
(1.00417 0.00441045 0)
(1.00474 0.00470513 0)
(1.00527 0.00501045 0)
(1.00577 0.00533719 0)
(1.00625 0.00569356 0)
(1.00671 0.0060851 0)
(1.00717 0.0065144 0)
(1.00764 0.0069807 0)
(1.00813 0.00747872 0)
(1 0.00022956 0)
(1.00009 0.000736684 0)
(1.00033 0.00123376 0)
(1.0007 0.00169682 0)
(1.00118 0.00212673 0)
(1.00174 0.00251707 0)
(1.00235 0.00286757 0)
(1.00298 0.00318748 0)
(1.00361 0.00348851 0)
(1.00423 0.00378178 0)
(1.00483 0.00407736 0)
(1.00542 0.00438374 0)
(1.00599 0.0047075 0)
(1.00654 0.00505312 0)
(1.0071 0.00542285 0)
(1.00765 0.0058166 0)
(1.00822 0.00623184 0)
(1.0088 0.00666316 0)
(1.00001 0.000183405 0)
(1.00013 0.000559892 0)
(1.00039 0.000924209 0)
(1.00077 0.00126652 0)
(1.00125 0.00158823 0)
(1.0018 0.00188984 0)
(1.0024 0.00217348 0)
(1.00303 0.00244504 0)
(1.00367 0.00271157 0)
(1.00431 0.00297956 0)
(1.00495 0.00325446 0)
(1.00559 0.00354051 0)
(1.00621 0.00384048 0)
(1.00684 0.00415562 0)
(1.00746 0.00448558 0)
(1.00809 0.00482845 0)
(1.00872 0.00518082 0)
(1.00937 0.00553769 0)
(1.00001 0.000109318 0)
(1.00014 0.000326549 0)
(1.00041 0.000534247 0)
(1.0008 0.000733394 0)
(1.00129 0.000928587 0)
(1.00185 0.00112316 0)
(1.00246 0.00131991 0)
(1.0031 0.00152207 0)
(1.00376 0.00173256 0)
(1.00444 0.00195352 0)
(1.00511 0.00218626 0)
(1.00579 0.00243124 0)
(1.00646 0.00268803 0)
(1.00713 0.00295529 0)
(1.0078 0.00323081 0)
(1.00848 0.00351161 0)
(1.00915 0.003794 0)
(1.00983 0.00407362 0)
(1.00001 1.52761e-05 0)
(1.00014 3.69183e-05 0)
(1.0004 5.02488e-05 0)
(1.00079 6.98798e-05 0)
(1.00129 0.000106199 0)
(1.00187 0.000164075 0)
(1.0025 0.000246345 0)
(1.00318 0.000353745 0)
(1.00388 0.000484967 0)
(1.00459 0.000637655 0)
(1.0053 0.000809046 0)
(1.00602 0.000996117 0)
(1.00673 0.00119561 0)
(1.00743 0.00140411 0)
(1.00813 0.00161803 0)
(1.00883 0.00183373 0)
(1.00951 0.00204749 0)
(1.0102 0.00225553 0)
(1.00001 -5.57209e-05 0)
(1.00008 -0.000212895 0)
(1.0003 -0.000399186 0)
(1.00069 -0.000568479 0)
(1.0012 -0.000702369 0)
(1.00181 -0.000793306 0)
(1.00249 -0.000835066 0)
(1.00321 -0.000827987 0)
(1.00396 -0.000777832 0)
(1.00471 -0.000691677 0)
(1.00546 -0.000576321 0)
(1.00621 -0.000438186 0)
(1.00694 -0.000283239 0)
(1.00766 -0.000116898 0)
(1.00836 5.59684e-05 0)
(1.00905 0.000230985 0)
(1.00972 0.000404209 0)
(1.01038 0.000571985 0)
(0.999981 -5.3419e-05 0)
(0.999933 -0.000343172 0)
(1.00008 -0.000722658 0)
(1.00045 -0.0010722 0)
(1.00098 -0.00137076 0)
(1.00164 -0.00160493 0)
(1.00239 -0.00175882 0)
(1.00319 -0.00183441 0)
(1.004 -0.00184432 0)
(1.0048 -0.00180156 0)
(1.00559 -0.00171756 0)
(1.00635 -0.00160264 0)
(1.00709 -0.00146582 0)
(1.0078 -0.00131467 0)
(1.00849 -0.00115549 0)
(1.00914 -0.0009935 0)
(1.00978 -0.000833036 0)
(1.01038 -0.000677853 0)
(0.999912 7.56065e-05 0)
(0.999594 -0.000337957 0)
(0.999627 -0.000955296 0)
(1.00001 -0.0015133 0)
(1.00061 -0.00200591 0)
(1.00138 -0.00239994 0)
(1.00225 -0.00266162 0)
(1.00316 -0.00280207 0)
(1.00404 -0.00284804 0)
(1.0049 -0.0028218 0)
(1.00571 -0.00274143 0)
(1.00647 -0.00262264 0)
(1.00718 -0.00247833 0)
(1.00785 -0.00231852 0)
(1.00847 -0.00215094 0)
(1.00906 -0.00198154 0)
(1.00962 -0.00181493 0)
(1.01015 -0.00165481 0)
(0.999764 0.000389303 0)
(0.998957 -0.000215487 0)
(0.99889 -0.00113978 0)
(0.999378 -0.00193921 0)
(1.00014 -0.00266759 0)
(1.0011 -0.00323362 0)
(1.00216 -0.00357988 0)
(1.00319 -0.00374679 0)
(1.00415 -0.00378734 0)
(1.00502 -0.00373714 0)
(1.0058 -0.00362327 0)
(1.0065 -0.00346816 0)
(1.00713 -0.00328885 0)
(1.00769 -0.00309742 0)
(1.0082 -0.00290238 0)
(1.00867 -0.00270979 0)
(1.0091 -0.00252386 0)
(1.0095 -0.00234779 0)
(0.999513 0.001008 0)
(0.99792 -6.23357e-05 0)
(0.997882 -0.00139342 0)
(0.998638 -0.00244256 0)
(0.999678 -0.00343206 0)
(1.00094 -0.00415018 0)
(1.00223 -0.00452146 0)
(1.00336 -0.00464851 0)
(1.00432 -0.00462376 0)
(1.00512 -0.00449878 0)
(1.00578 -0.00431051 0)
(1.00631 -0.00408796 0)
(1.00676 -0.00385098 0)
(1.00713 -0.00361193 0)
(1.00744 -0.00337855 0)
(1.00772 -0.00315567 0)
(1.00796 -0.00294606 0)
(1.00818 -0.00275164 0)
(0.998981 0.00257234 0)
(0.996265 0.000305194 0)
(0.996695 -0.00176183 0)
(0.998005 -0.00311521 0)
(0.999447 -0.00436201 0)
(1.00106 -0.0051538 0)
(1.00253 -0.0054445 0)
(1.00366 -0.00543932 0)
(1.00446 -0.00527814 0)
(1.00501 -0.00502699 0)
(1.00538 -0.00473029 0)
(1.00561 -0.00442026 0)
(1.00575 -0.00411579 0)
(1.00582 -0.00382628 0)
(1.00585 -0.00355616 0)
(1.00585 -0.00330728 0)
(1.00584 -0.00307977 0)
(1.00583 -0.00287344 0)
(0.997457 0.00616941 0)
(0.993469 0.00160473 0)
(0.995407 -0.00190897 0)
(0.997771 -0.00389169 0)
(0.999714 -0.00543043 0)
(1.00161 -0.00616569 0)
(1.00307 -0.00623428 0)
(1.00389 -0.00599377 0)
(1.00424 -0.00563071 0)
(1.00429 -0.0052182 0)
(1.00415 -0.00480043 0)
(1.00389 -0.00440519 0)
(1.00356 -0.00404407 0)
(1.00322 -0.0037191 0)
(1.00287 -0.00342871 0)
(1.00254 -0.00317026 0)
(1.00223 -0.00294046 0)
(1.00195 -0.00273645 0)
(0.994438 0.00860455 0)
(0.989472 0.00236508 0)
(0.994197 -0.00182749 0)
(0.998187 -0.00462202 0)
(1.00069 -0.00647794 0)
(1.00259 -0.00698673 0)
(1.00354 -0.00668362 0)
(1.00353 -0.00612629 0)
(1.00296 -0.00553225 0)
(1.00213 -0.00496372 0)
(1.00119 -0.00444993 0)
(1.00023 -0.00400316 0)
(0.999301 -0.00362067 0)
(0.998435 -0.0032934 0)
(0.99764 -0.00301232 0)
(0.996919 -0.00277015 0)
(0.996268 -0.00256062 0)
(0.99569 -0.00237761 0)
(0.994525 -0.00664988 0)
(0.989503 -0.00850078 0)
(0.995535 -0.00523124 0)
(1.00011 -0.00612355 0)
(1.00255 -0.00747658 0)
(1.00354 -0.0073914 0)
(1.00288 -0.00656178 0)
(1.00108 -0.00566378 0)
(0.998874 -0.00488223 0)
(0.996676 -0.00422601 0)
(0.994625 -0.00368639 0)
(0.992762 -0.0032505 0)
(0.991099 -0.00289859 0)
(0.989628 -0.00261077 0)
(0.988328 -0.00237208 0)
(0.98718 -0.00217272 0)
(0.986165 -0.00200604 0)
(0.985275 -0.00186021 0)
(1.02649 -0.0702256 0)
(1.0171 -0.0623764 0)
(1.01189 -0.0291842 0)
(1.00856 -0.0148158 0)
(1.00582 -0.0102493 0)
(1.00204 -0.00773675 0)
(0.996901 -0.00584204 0)
(0.991425 -0.00453994 0)
(0.986492 -0.00367957 0)
(0.982326 -0.00307859 0)
(0.97883 -0.00263473 0)
(0.975872 -0.00229894 0)
(0.973356 -0.00204005 0)
(0.9712 -0.00183516 0)
(0.969336 -0.0016694 0)
(0.967714 -0.00153578 0)
(0.966301 -0.00143367 0)
(0.965082 -0.00138635 0)
(0.966187 0.350228 0)
(1.02696 0.194276 0)
(1.0328 0.067939 0)
(1.00478 0.0152961 0)
(0.976678 -0.00122792 0)
(0.956825 -0.00427025 0)
(0.943184 -0.00354478 0)
(0.93346 -0.00238684 0)
(0.926359 -0.0015607 0)
(0.920998 -0.00106101 0)
(0.916751 -0.000765726 0)
(0.913246 -0.000586599 0)
(0.91028 -0.000472727 0)
(0.907732 -0.000395758 0)
(0.905514 -0.000340553 0)
(0.903558 -0.000301663 0)
(0.901799 -0.000275744 0)
(0.900186 -0.00031308 0)
(0.0093706 -0.0301912 -2.47513e-21)
(0.0222605 -0.0321775 2.29359e-21)
(0.0310742 -0.0230212 0)
(0.036003 -0.0122892 0)
(0.0348952 -0.00223582 0)
(0.0290369 0.00530246 -2.18834e-21)
(0.0205206 0.00940844 0)
(0.0106437 0.0108227 0)
(-7.42769e-05 0.0113376 0)
(-0.0117546 0.0122103 0)
(-0.0246761 0.0135535 2.14604e-21)
(-0.0389364 0.0151678 0)
(-0.0545081 0.0168453 0)
(-0.0712691 0.0184169 0)
(-0.0890235 0.0197585 0)
(-0.107529 0.0207899 1.87491e-21)
(-0.126522 0.021471 0)
(-0.145738 0.0217963 0)
(-0.164929 0.0217865 0)
(-0.183875 0.021481 0)
(-0.20239 0.0209298 0)
(-0.220329 0.0201873 0)
(-0.23758 0.0193067 0)
(-0.25407 0.0183366 1.77259e-21)
(-0.269755 0.017319 -1.77431e-21)
(-0.284617 0.016288 1.77685e-21)
(-0.298658 0.01527 1.77976e-21)
(-0.311897 0.0142841 0)
(-0.324363 0.013343 0)
(-0.336092 0.012454 -1.78739e-21)
(-0.347123 0.0116203 -1.7888e-21)
(-0.357496 0.0108419 0)
(-0.367253 0.0101163 0)
(-0.376431 0.00943937 -1.78764e-21)
(-0.385062 0.00880589 0)
(-0.393179 0.00821002 0)
(-0.400805 0.00764554 1.77671e-21)
(-0.407963 0.00710613 0)
(-0.414668 0.00658545 1.76324e-21)
(-0.420932 0.00607732 3.50901e-21)
(-0.426762 0.00557573 0)
(-0.43216 0.00507492 0)
(-0.437124 0.00456953 0)
(-0.441647 0.00405471 0)
(-0.445719 0.00352639 0)
(-0.449325 0.00298153 3.34125e-21)
(-0.452445 0.00241924 3.30163e-21)
(-0.455057 0.00184144 3.25829e-21)
(-0.457141 0.00125309 0)
(-0.458676 0.000667354 -3.15992e-21)
(-0.459624 0.000110223 0)
(-0.459949 -0.000396648 3.04304e-21)
(-0.459743 -0.000861462 2.97587e-21)
(-0.459016 -0.00130913 0)
(-0.457762 -0.00175606 0)
(-0.455968 -0.00220935 0)
(-0.453621 -0.00267168 2.64951e-21)
(-0.450702 -0.00314389 0)
(-0.447193 -0.00362584 0)
(-0.443076 -0.00411684 0)
(-0.438335 -0.00461576 0)
(-0.432955 -0.00512123 0)
(-0.426923 -0.00563157 0)
(-0.420228 -0.00614491 0)
(-0.412863 -0.00665917 0)
(-0.404822 -0.0071721 -1.5172e-21)
(-0.396103 -0.00768133 0)
(-0.38671 -0.00818437 0)
(-0.376646 -0.00867868 1.00482e-21)
(-0.365923 -0.0091617 8.19139e-22)
(-0.354554 -0.00963087 0)
(-0.342555 -0.0100837 -4.26511e-22)
(-0.32995 -0.0105179 2.20093e-22)
(-0.316762 -0.0109312 0)
(-0.303022 -0.0113216 2.11282e-22)
(-0.288761 -0.0116874 0)
(-0.274015 -0.0120269 0)
(-0.258822 -0.0123392 -8.98416e-22)
(-0.243223 -0.0126231 0)
(-0.227261 -0.0128782 1.37752e-21)
(-0.210979 -0.0131042 0)
(-0.194422 -0.0133012 -1.86831e-21)
(-0.177636 -0.0134693 -2.11664e-21)
(-0.160667 -0.0136093 -2.36613e-21)
(-0.143559 -0.0137214 -5.2324e-21)
(-0.126357 -0.0138062 5.73251e-21)
(-0.109105 -0.0138634 0)
(-0.0918456 -0.0138913 0)
(-0.0746228 -0.0138857 0)
(-0.0574797 -0.0138372 7.71018e-21)
(-0.0404619 -0.0137279 8.19372e-21)
(-0.0236139 -0.013529 -8.67112e-21)
(-0.00696299 -0.0132109 0)
(0.00948822 -0.012796 9.25465e-21)
(0.0257301 -0.0123483 9.29917e-21)
(0.0417331 -0.0119015 9.32565e-21)
(0.0574693 -0.0114621 0)
(0.0729205 -0.0110319 0)
(0.0880732 -0.0106116 0)
(0.102916 -0.010202 9.28893e-21)
(0.117441 -0.00980349 0)
(0.13164 -0.00941636 0)
(0.145509 -0.00904098 -9.15357e-21)
(0.159045 -0.0086776 0)
(0.172247 -0.00832641 0)
(0.185114 -0.00798752 -8.96054e-21)
(0.197649 -0.00766096 0)
(0.209853 -0.0073467 0)
(0.221731 -0.0070446 8.73231e-21)
(0.233287 -0.00675449 8.65136e-21)
(0.244527 -0.00647609 0)
(0.255455 -0.00620906 -8.48507e-21)
(0.266079 -0.005953 0)
(0.276405 -0.00570745 8.31545e-21)
(0.286439 -0.00547187 0)
(0.296188 -0.00524569 8.14495e-21)
(0.305656 -0.00502826 8.06e-21)
(0.31485 -0.0048189 0)
(0.323774 -0.00461689 0)
(0.332432 -0.00442146 0)
(0.340827 -0.00423184 0)
(0.348961 -0.00404723 0)
(0.356834 -0.00386682 0)
(0.364445 -0.00368982 0)
(0.371793 -0.00351546 7.40961e-21)
(0.378875 -0.00334302 -7.33385e-21)
(0.385685 -0.00317182 0)
(0.392217 -0.00300126 0)
(0.398465 -0.00283083 0)
(0.404421 -0.00266013 0)
(0.410074 -0.0024889 -1.39606e-20)
(0.415417 -0.00231701 0)
(0.420438 -0.00214448 1.37045e-20)
(0.425128 -0.00197149 -1.35827e-20)
(0.429477 -0.00179839 0)
(0.433478 -0.00162565 0)
(0.437122 -0.00145386 0)
(0.440403 -0.00128359 1.31398e-20)
(0.443316 -0.00111477 1.30406e-20)
(0.445854 -0.000944913 0)
(0.448007 -0.000766018 1.28568e-20)
(0.449746 -0.00056309 1.2773e-20)
(0.451015 -0.000330648 -1.26951e-20)
(0.451757 -0.000108335 0)
(0.452089 5.49161e-05 0)
(0.452121 0.000158487 -1.24783e-20)
(0.451916 0.000225091 0)
(0.451522 0.000270076 0)
(0.450974 0.000300705 0)
(0.450302 0.000320648 0)
(0.449531 0.000331999 1.21689e-20)
(0.448683 0.00033625 1.21123e-20)
(0.447782 0.000334674 0)
(0.446844 0.000328429 1.20029e-20)
(0.445886 0.000318567 0)
(0.444923 0.000306033 0)
(0.443966 0.000291666 1.18457e-20)
(0.443025 0.0002762 0)
(0.442107 0.000260281 1.17444e-20)
(0.441218 0.000244476 0)
(0.440361 0.000229299 0)
(0.439537 0.00021523 1.15966e-20)
(0.438746 0.000202737 0)
(0.437985 0.000192313 1.15012e-20)
(0.43725 0.000184508 0)
(0.436534 0.000179978 0)
(0.435827 0.000179552 0)
(0.435116 0.000184326 -1.13222e-20)
(0.434384 0.000195809 0)
(0.433605 0.000216147 1.1243e-20)
(0.432748 0.000248507 0)
(0.431764 0.000297727 0)
(0.430588 0.000371598 0)
(0.429115 0.000483012 0)
(0.427189 0.000656148 0)
(0.424509 0.000932265 0)
(0.420685 0.00142242 0)
(0.4143 0.00224461 -2.25534e-20)
(0.405445 0.00427807 0)
(0.381476 0.0066314 0)
(0.00162966 -0.0468572 6.98882e-21)
(0.0044153 -0.0280605 -6.21345e-21)
(0.000329284 -0.0102523 0)
(-0.0060002 0.00383873 3.52121e-21)
(-0.0136194 0.0151693 0)
(-0.0229554 0.0238 1.61742e-21)
(-0.0341921 0.0299329 -3.08989e-21)
(-0.0474224 0.0344213 -2.98417e-21)
(-0.0625446 0.0382311 0)
(-0.0792244 0.0418636 -2.79333e-21)
(-0.0970436 0.0453321 -1.37361e-21)
(-0.115606 0.0484478 0)
(-0.134556 0.0510113 0)
(-0.153565 0.0528801 0)
(-0.172343 0.0539832 0)
(-0.19064 0.0543156 -1.24019e-21)
(-0.208261 0.0539259 0)
(-0.225063 0.0529005 2.45093e-21)
(-0.240955 0.0513483 0)
(-0.255892 0.0493868 0)
(-0.269866 0.0471318 -2.46247e-21)
(-0.282899 0.0446895 0)
(-0.295034 0.0421517 2.48607e-21)
(-0.306327 0.039594 -1.24722e-21)
(-0.316841 0.0370754 1.255e-21)
(-0.32664 0.0346391 -1.26269e-21)
(-0.335786 0.0323143 -1.27004e-21)
(-0.344337 0.0301187 0)
(-0.352346 0.0280607 0)
(-0.359858 0.0261412 1.28823e-21)
(-0.366915 0.0243562 -1.28635e-21)
(-0.373548 0.0226975 0)
(-0.379787 0.0211549 0)
(-0.385653 0.0197166 1.30005e-21)
(-0.391164 0.0183705 0)
(-0.396334 0.017104 0)
(-0.401174 0.0159052 -1.29805e-21)
(-0.40569 0.0147624 0)
(-0.409887 0.013665 1.28458e-21)
(-0.413768 0.0126027 -2.57168e-21)
(-0.417332 0.0115662 0)
(-0.42058 0.0105469 0)
(-0.423508 0.00953686 -5.0458e-21)
(-0.426116 0.00852896 -5.0068e-21)
(-0.428399 0.00751673 -4.96231e-21)
(-0.430358 0.00649441 2.45903e-21)
(-0.431989 0.00545712 -2.42308e-21)
(-0.433296 0.00440126 -7.18326e-21)
(-0.434279 0.00332555 4.72429e-21)
(-0.434944 0.00223425 2.31357e-21)
(-0.435297 0.00114188 0)
(-0.435351 6.7016e-05 -2.22114e-21)
(-0.435014 -0.000991772 2.19985e-21)
(-0.434222 -0.00205135 0)
(-0.432945 -0.00312291 0)
(-0.431155 -0.00421243 0)
(-0.428829 -0.00532199 -1.91074e-21)
(-0.425946 -0.0064515 0)
(-0.422487 -0.00759945 3.57562e-21)
(-0.418435 -0.00876333 0)
(-0.413772 -0.00993985 3.2384e-21)
(-0.408484 -0.011125 0)
(-0.402559 -0.0123142 -2.86303e-21)
(-0.395985 -0.0135024 0)
(-0.388755 -0.0146839 2.44971e-21)
(-0.380864 -0.0158529 -1.17068e-21)
(-0.372311 -0.0170029 0)
(-0.363096 -0.0181277 -1.76121e-21)
(-0.353227 -0.0192205 -6.91306e-22)
(-0.342711 -0.0202749 -5.60816e-22)
(-0.331562 -0.0212844 0)
(-0.319797 -0.0222427 -4.39226e-22)
(-0.307437 -0.0231442 -1.48416e-22)
(-0.294505 -0.0239832 0)
(-0.28103 -0.0247551 -1.40999e-22)
(-0.267042 -0.0254557 4.07488e-22)
(-0.252577 -0.0260814 0)
(-0.237671 -0.0266296 5.9019e-22)
(-0.222363 -0.0270984 0)
(-0.206694 -0.0274868 -2.50156e-21)
(-0.190707 -0.0277947 0)
(-0.174446 -0.0280225 3.41734e-21)
(-0.157953 -0.0281718 1.3554e-21)
(-0.141275 -0.0282445 -1.31548e-21)
(-0.124453 -0.0282434 -2.93264e-21)
(-0.107533 -0.0281717 3.23281e-21)
(-0.0905555 -0.0280328 0)
(-0.0735616 -0.0278301 0)
(-0.0565899 -0.0275666 0)
(-0.0396759 -0.0272442 -1.39848e-20)
(-0.0228501 -0.0268623 -5.07055e-21)
(-0.00613755 -0.0264166 5.32122e-21)
(0.0104307 -0.025901 0)
(0.0268113 -0.0253211 5.2755e-21)
(0.0429705 -0.0246986 -5.72556e-21)
(0.058893 -0.0240525 -5.82288e-21)
(0.0745661 -0.0233924 0)
(0.0899748 -0.0227237 0)
(0.105105 -0.0220503 0)
(0.119945 -0.0213755 -6.10405e-21)
(0.134484 -0.0207022 0)
(0.148716 -0.0200331 1.21399e-20)
(0.162634 -0.0193707 1.84331e-20)
(0.176235 -0.0187173 -1.2272e-20)
(0.189516 -0.0180747 0)
(0.202476 -0.0174446 -6.07822e-21)
(0.215116 -0.0168284 0)
(0.227437 -0.0162273 -1.23852e-20)
(0.239443 -0.0156422 6.11068e-21)
(0.251137 -0.0150736 6.11194e-21)
(0.262523 -0.014522 0)
(0.273607 -0.0139876 1.85909e-20)
(0.284394 -0.0134702 -1.23194e-20)
(0.294889 -0.0129696 -6.20674e-21)
(0.305099 -0.0124854 0)
(0.315028 -0.0120167 -6.15967e-21)
(0.324684 -0.0115629 -1.82916e-20)
(0.334069 -0.0111228 0)
(0.34319 -0.0106953 -1.20544e-20)
(0.35205 -0.010279 -1.19982e-20)
(0.360652 -0.00987257 -1.19396e-20)
(0.368999 -0.00947451 0)
(0.37709 -0.00908325 0)
(0.384928 -0.00869719 0)
(0.392509 -0.00831479 5.81105e-21)
(0.399833 -0.00793451 5.84523e-21)
(0.406895 -0.00755495 0)
(0.413692 -0.00717481 1.14971e-20)
(0.420216 -0.00679299 1.14331e-20)
(0.426461 -0.00640863 0)
(0.432421 -0.00602112 1.13528e-20)
(0.438086 -0.00563016 2.24911e-20)
(0.443447 -0.0052358 -1.12245e-20)
(0.448498 -0.00483843 -1.10909e-20)
(0.453227 -0.0044388 0)
(0.457629 -0.00403796 0)
(0.461695 -0.00363718 0)
(0.465418 -0.00323761 -1.09339e-20)
(0.468794 -0.00283964 1.08392e-20)
(0.471818 -0.00244167 2.1627e-20)
(0.474492 -0.00203908 -1.07851e-20)
(0.476827 -0.00162566 1.0712e-20)
(0.478867 -0.00120681 1.06981e-20)
(0.48068 -0.000816109 0)
(0.482213 -0.000485834 0)
(0.483423 -0.000215625 -1.05573e-20)
(0.484318 7.91416e-06 0)
(0.48492 0.000194074 0)
(0.485255 0.000348218 2.08915e-20)
(0.485351 0.000473976 0)
(0.485237 0.000574085 1.03695e-20)
(0.48494 0.00065096 -1.03329e-20)
(0.484487 0.000706953 0)
(0.483904 0.000744428 1.02603e-20)
(0.483216 0.000765752 0)
(0.482445 0.000773268 0)
(0.481613 0.00076926 -1.01458e-20)
(0.480739 0.000755929 2.02213e-20)
(0.47984 0.000735366 -1.00707e-20)
(0.478929 0.00070955 0)
(0.47802 0.000680349 0)
(0.477121 0.000649538 9.96209e-21)
(0.47624 0.000618827 0)
(0.475381 0.000589907 9.88629e-21)
(0.474547 0.00056452 0)
(0.473738 0.000544545 0)
(0.47295 0.000532134 0)
(0.47218 0.000529901 9.73633e-21)
(0.471417 0.000541212 0)
(0.470648 0.000570633 -9.67037e-21)
(0.469856 0.000624673 0)
(0.469015 0.00071303 0)
(0.46809 0.000850996 1.91866e-20)
(0.46703 0.00106348 -1.91553e-20)
(0.465769 0.00139587 0)
(0.464181 0.00192621 0)
(0.462192 0.00284444 0)
(0.459268 0.00440769 5.796e-20)
(0.456148 0.00784737 0)
(0.449755 0.0133502 -3.95297e-20)
(-0.00958282 -0.0350489 -1.59802e-22)
(-0.0148349 -0.0106522 7.32858e-21)
(-0.0245164 0.00787983 0)
(-0.0355067 0.0234313 -5.57268e-21)
(-0.0471639 0.0366963 0)
(-0.0594664 0.0478027 0)
(-0.0726424 0.0568648 1.85114e-23)
(-0.0868273 0.0642372 2.31846e-21)
(-0.101921 0.0703401 2.24365e-21)
(-0.117614 0.0754167 2.17923e-21)
(-0.133525 0.0794937 0)
(-0.149305 0.0824949 0)
(-0.164681 0.0843512 -2.06419e-21)
(-0.179453 0.0850512 -4.078e-21)
(-0.193494 0.0846512 4.04062e-21)
(-0.206744 0.0832646 0)
(-0.219193 0.0810432 3.99741e-21)
(-0.230868 0.0781585 -1.95238e-21)
(-0.241821 0.0747847 0)
(-0.252115 0.0710855 3.98511e-21)
(-0.261819 0.067206 1.96214e-21)
(-0.270995 0.0632674 -3.99568e-21)
(-0.279703 0.0593659 -1.97775e-21)
(-0.287991 0.0555734 0)
(-0.295901 0.05194 4.02159e-21)
(-0.303465 0.0484973 4.03062e-21)
(-0.310709 0.0452616 0)
(-0.317653 0.0422375 4.04692e-21)
(-0.324312 0.0394209 0)
(-0.330699 0.0368016 4.05903e-21)
(-0.336822 0.0343654 2.03102e-21)
(-0.342687 0.0320956 0)
(-0.348301 0.0299745 0)
(-0.353665 0.0279841 0)
(-0.358784 0.0261067 0)
(-0.363658 0.0243256 0)
(-0.368287 0.0226247 0)
(-0.37267 0.0209896 4.03285e-21)
(-0.376805 0.0194066 -6.03004e-21)
(-0.38069 0.0178638 0)
(-0.38432 0.0163501 0)
(-0.387691 0.0148561 0)
(-0.390797 0.0133734 -2.45945e-25)
(-0.39363 0.011895 3.89409e-21)
(-0.396183 0.0104152 7.71692e-21)
(-0.398448 0.00892971 -7.63493e-21)
(-0.400413 0.00743547 -3.77648e-21)
(-0.402068 0.00593047 3.71587e-21)
(-0.403399 0.00441316 1.47539e-23)
(-0.404385 0.00288111 3.61518e-21)
(-0.405 0.00132775 0)
(-0.405217 -0.000260444 3.4775e-21)
(-0.405005 -0.00189268 2.96443e-23)
(-0.404342 -0.00356803 0)
(-0.403205 -0.00528396 0)
(-0.401573 -0.0070382 -3.12093e-21)
(-0.399424 -0.00882836 0)
(-0.396736 -0.0106514 0)
(-0.393492 -0.0125035 2.83876e-21)
(-0.389672 -0.0143798 5.31732e-21)
(-0.38526 -0.0162743 -2.46284e-21)
(-0.38024 -0.0181803 0)
(-0.374601 -0.0200901 2.16784e-21)
(-0.36833 -0.0219952 0)
(-0.36142 -0.0238865 2.00763e-21)
(-0.353865 -0.0257543 1.67574e-21)
(-0.345664 -0.0275883 -3.17726e-21)
(-0.336817 -0.029378 -1.50408e-21)
(-0.327331 -0.0311128 0)
(-0.317213 -0.0327821 2.07694e-21)
(-0.306475 -0.0343756 0)
(-0.295134 -0.0358833 1.83351e-21)
(-0.28321 -0.0372959 8.91625e-22)
(-0.270726 -0.0386049 4.81716e-22)
(-0.25771 -0.0398026 -6.60096e-23)
(-0.244191 -0.0408824 -6.52505e-22)
(-0.230202 -0.0418389 0)
(-0.21578 -0.042668 0)
(-0.200962 -0.0433669 1.63473e-21)
(-0.185789 -0.043934 3.22568e-21)
(-0.1703 -0.0443692 0)
(-0.15454 -0.0446736 -1.59289e-21)
(-0.138549 -0.0448496 0)
(-0.122372 -0.0449006 5.79257e-21)
(-0.106051 -0.0448311 2.67192e-22)
(-0.0896267 -0.0446464 -2.67439e-22)
(-0.0731409 -0.0443525 -5.02134e-21)
(-0.0566324 -0.0439559 0)
(-0.040138 -0.0434636 5.82894e-21)
(-0.0236913 -0.0428825 2.63737e-22)
(-0.00732197 -0.0422205 0)
(0.00894242 -0.041486 0)
(0.0250719 -0.0406904 0)
(0.0410336 -0.039845 -7.61543e-21)
(0.0568 -0.0389568 0)
(0.0723509 -0.0380325 0)
(0.0876687 -0.0370791 0)
(0.102737 -0.0361034 0)
(0.117541 -0.0351116 0)
(0.132068 -0.0341095 -8.45037e-21)
(0.146309 -0.0331023 0)
(0.160255 -0.032095 -8.87649e-21)
(0.1739 -0.031092 -8.97674e-21)
(0.18724 -0.0300973 9.06635e-21)
(0.200273 -0.0291144 0)
(0.212996 -0.0281464 9.21602e-21)
(0.225411 -0.0271959 0)
(0.237518 -0.0262652 9.33016e-21)
(0.249319 -0.025356 -9.37528e-21)
(0.260818 -0.0244696 -2.79957e-20)
(0.272019 -0.023607 0)
(0.282925 -0.0227688 -2.81854e-20)
(0.293543 -0.0219551 -9.27686e-21)
(0.303877 -0.0211659 0)
(0.313933 -0.0204007 -1.8828e-20)
(0.323716 -0.0196585 -1.88449e-20)
(0.33323 -0.0189384 2.83658e-20)
(0.342482 -0.018239 0)
(0.351475 -0.0175585 9.5008e-21)
(0.360213 -0.0168951 9.48978e-21)
(0.3687 -0.0162469 2.82866e-20)
(0.376938 -0.0156115 0)
(0.384928 -0.0149868 0)
(0.392671 -0.0143702 0)
(0.400167 -0.0137596 9.28479e-21)
(0.407413 -0.0131525 0)
(0.414407 -0.0125467 0)
(0.421145 -0.0119404 -9.32534e-21)
(0.427624 -0.0113318 -9.29964e-21)
(0.433836 -0.0107194 0)
(0.439775 -0.0101023 0)
(0.445435 -0.00947993 -1.84438e-20)
(0.450809 -0.00885222 0)
(0.455887 -0.00821964 1.83431e-20)
(0.460664 -0.00758319 1.82378e-20)
(0.465131 -0.00694434 0)
(0.469283 -0.00630493 0)
(0.473112 -0.00566691 -1.81172e-20)
(0.476616 -0.00503196 -3.81979e-23)
(0.479792 -0.00440115 -3.39929e-23)
(0.482644 -0.0037757 0)
(0.485182 -0.00316033 -3.59916e-20)
(0.487426 -0.00256598 0)
(0.48939 -0.00200506 0)
(0.491072 -0.00148783 0)
(0.492466 -0.00102146 1.78803e-20)
(0.493571 -0.000608018 0)
(0.494398 -0.000245974 -3.55805e-20)
(0.494965 6.73982e-05 -1.77568e-20)
(0.495293 0.000334891 0)
(0.495404 0.000559189 -1.76704e-20)
(0.495322 0.000743031 0)
(0.495071 0.000889342 0)
(0.494675 0.00100127 -5.25927e-20)
(0.494157 0.00108219 3.49639e-20)
(0.493541 0.00113559 0)
(0.492845 0.00116507 3.47539e-20)
(0.49209 0.00117424 -1.73176e-20)
(0.491294 0.00116664 0)
(0.490471 0.00114574 0)
(0.489634 0.00111486 0)
(0.488794 0.00107724 -5.12458e-20)
(0.487961 0.00103597 0)
(0.487139 0.000994118 -1.69538e-20)
(0.486333 0.000954756 0)
(0.485543 0.000921099 0)
(0.484768 0.000896679 0)
(0.484003 0.000885598 0)
(0.483241 0.000892916 0)
(0.482468 0.000925243 0)
(0.481667 0.000991687 -3.30786e-20)
(0.480814 0.00110542 0)
(0.479873 0.00128658 -1.64538e-20)
(0.478797 0.00156697 4.92772e-20)
(0.477518 0.0020018 0)
(0.475928 0.00268359 0)
(0.473939 0.00381439 -3.2917e-20)
(0.471244 0.00569694 -3.31469e-20)
(0.468226 0.00935089 3.33702e-20)
(0.464331 0.0158357 3.39662e-20)
(-0.0146881 -0.00741019 -1.26216e-20)
(-0.0245984 0.016511 -9.76648e-21)
(-0.0372513 0.0344582 -5.2849e-21)
(-0.0508321 0.0499262 -2.3176e-21)
(-0.0643489 0.063522 0)
(-0.0777231 0.0752876 4.19709e-21)
(-0.0911236 0.0851913 -2.03016e-21)
(-0.104601 0.0932828 0)
(-0.118055 0.0996712 -1.90795e-21)
(-0.131301 0.10445 0)
(-0.144141 0.107677 3.71555e-21)
(-0.156423 0.109404 0)
(-0.168053 0.10972 1.76229e-21)