/*--------------------------------*- C++ -*----------------------------------*\
  =========                 |
  \\      /  F ield         | OpenFOAM: The Open Source CFD Toolbox
   \\    /   O peration     | Website:  https://openfoam.org
    \\  /    A nd           | Version:  6
     \\/     M anipulation  |
\*---------------------------------------------------------------------------*/
FoamFile
{
    version     2.0;
    format      ascii;
    class       volScalarField;
    location    "0.09";
    object      epsilon;
}
// * * * * * * * * * * * * * * * * * * * * * * * * * * * * * * * * * * * * * //

dimensions      [0 2 -3 0 0 0 0];

internalField   nonuniform List<scalar> 
3032
(
307.554
159.148
103.222
76.2089
60.9354
51.4148
44.9941
40.3558
36.8159
34.0027
31.7011
29.7783
28.147
26.7477
25.538
24.4885
23.6116
22.9717
71.6104
59.7619
44.4177
34.3522
27.8089
23.3637
20.2157
17.8983
16.128
14.7306
13.5979
12.6602
11.8707
11.1966
10.614
10.1057
9.66385
9.26637
33.6138
34.4046
29.2899
24.3867
20.5377
17.6135
15.3862
13.6649
12.3085
11.2176
10.3237
9.57922
8.95029
8.41248
7.94756
7.54166
7.18564
6.86971
22.4946
24.1967
22.2216
19.5414
17.0654
14.9847
13.2864
11.9078
10.7826
9.85499
9.0816
8.42947
7.87375
7.39557
6.98041
6.61699
6.29731
6.01635
18.0524
19.1653
18.2256
16.5951
14.8965
13.3503
12.0129
10.8788
9.92223
9.11378
8.4269
7.83936
7.33316
6.89391
6.51011
6.17262
5.87481
5.61373
15.9661
16.3997
15.7664
14.6424
13.3959
12.1985
11.1166
10.1664
9.34187
8.62917
8.01268
7.47774
7.01156
6.60329
6.24395
5.92621
5.6447
5.39761
14.9029
14.7891
14.189
13.2998
12.3137
11.3431
10.4419
9.63002
8.90991
8.2757
7.71844
7.22855
6.79696
6.41557
6.07738
5.77656
5.50883
5.27312
14.3403
13.8257
13.1595
12.3645
11.5226
10.6959
9.9199
9.21051
8.57175
8.00126
7.49367
7.04252
6.64127
6.28378
5.96458
5.67899
5.42366
5.19802
14.0386
13.2459
12.4869
11.7141
10.9454
10.2061
9.51413
8.87847
8.30151
7.78158
7.31483
6.89649
6.52156
6.18522
5.88308
5.61136
5.36737
5.15093
13.8768
12.8993
12.052
11.2674
10.5295
9.83962
9.20146
8.6169
8.08533
7.60428
7.17017
6.77889
6.42627
6.10827
5.82122
5.56195
5.3283
5.12029
13.7906
12.6956
11.7764
10.9669
10.2362
9.57098
8.96502
8.41414
7.91453
7.46229
7.05334
6.68366
6.34937
6.04682
5.77277
5.52445
5.30001
5.0996
13.7488
12.5881
11.6204
10.7867
10.0517
9.39539
8.80541
8.27359
7.79357
7.36001
6.96815
6.61368
6.2927
6.00169
5.73758
5.4978
5.28067
5.08637
13.7254
12.5235
11.5209
10.6659
9.92284
9.26833
8.68656
8.16639
7.69947
7.27915
6.89994
6.55713
6.24666
5.96498
5.70908
5.4765
5.26563
5.07662
13.7116
12.4831
11.4547
10.581
9.82801
9.1711
8.59251
8.07913
7.62102
7.2104
6.841
6.50765
6.20601
5.93244
5.68386
5.45783
5.25277
5.06877
13.7045
12.4608
11.416
10.5285
9.76629
9.10496
8.52605
8.01543
7.56214
7.15757
6.79482
6.46828
6.17331
5.90609
5.66343
5.44284
5.24273
5.06306
13.7012
12.4503
11.3967
10.5007
9.73187
9.0663
8.48556
7.97519
7.52377
7.12222
6.76324
6.44088
6.15027
5.88737
5.64891
5.43232
5.23593
5.05959
13.7
12.4462
11.3887
10.4887
9.71612
9.04776
8.4653
7.95428
7.50317
7.10272
6.7454
6.42511
6.13681
5.87635
5.64036
5.4262
5.23215
5.05794
13.6996
12.4449
11.3862
10.4848
9.71087
9.04132
8.45798
7.94645
7.49519
7.09491
6.73805
6.41842
6.13093
5.87138
5.63636
5.42318
5.23008
5.05674
13.6998
12.4453
11.387
10.4859
9.71228
9.04297
8.45975
7.94821
7.49683
7.09631
6.73911
6.41907
6.1311
5.87104
5.63547
5.42172
5.22804
5.05414
13.701
12.4493
11.3946
10.4974
9.72734
9.06071
8.47916
7.96823
7.51648
7.11479
6.75578
6.43345
6.14288
5.88
5.64151
5.42482
5.22826
5.05165
13.7054
12.4634
11.4201
10.5335
9.77163
9.11016
8.53074
8.01935
7.56511
7.15946
6.79553
6.46773
6.17143
5.90281
5.65868
5.43657
5.2349
5.05367
13.7204
12.5081
11.4949
10.6317
9.88413
9.22828
8.64754
8.1299
7.66628
7.2495
6.87372
6.53402
6.22622
5.94675
5.69256
5.46123
5.2512
5.06264
13.7671
12.6331
11.6843
10.8597
10.1264
9.46672
8.87069
8.33146
7.84358
7.4022
7.00283
6.64131
6.31374
6.01663
5.74684
5.50179
5.27976
5.08101
13.9007
12.9463
12.1089
11.3255
10.5847
9.88991
9.24615
8.65582
8.1186
7.63213
7.19285
6.79669
6.43944
6.11705
5.82583
5.56261
5.32519
5.11368
14.2608
13.6661
12.9745
12.1894
11.3725
10.574
9.82355
9.13517
8.51272
7.95438
7.45553
7.01046
6.61322
6.25818
5.94026
5.65512
5.39961
5.17343
15.1942
15.2323
14.6355
13.6945
12.6462
11.6177
10.6667
9.81351
9.05959
8.39784
7.81808
7.3097
6.86278
6.46856
6.11952
5.80944
5.53371
5.29124
17.6339
18.6184
17.7653
16.2588
14.6633
13.1882
11.8952
10.7871
9.8449
9.04386
8.36033
7.77382
7.26734
6.82709
6.44196
6.10314
5.80407
5.54249
24.7059
26.4237
23.9024
20.7817
17.9993
15.7025
13.8492
12.3583
11.1511
10.1629
9.34377
8.65644
8.07304
7.57263
7.13936
6.76115
6.4291
6.13936
51.9672
47.7373
37.7995
30.1734
24.7592
20.8752
18.032
15.901
14.261
12.9654
11.9174
11.0525
10.3263
9.70792
9.17488
8.71082
8.30376
7.94776
251.832
137.368
90.7926
67.1393
53.3201
44.5383
38.5885
34.3202
31.1017
28.5742
26.5248
24.8214
23.3782
22.1372
21.0571
20.1078
19.267
18.5202
0.142834
0.161673
0.255314
0.363969
0.475687
0.575376
0.672262
0.768583
0.865629
0.964498
1.06603
1.17075
1.27887
1.39035
1.50498
1.62246
1.7424
1.8644
1.98805
2.11296
2.23878
2.36517
2.49185
2.61859
2.7452
2.8716
2.99779
3.12396
3.25052
3.37824
3.50845
3.6433
3.77909
3.91106
4.03897
4.16242
4.28084
4.39357
4.49986
4.59897
4.69012
4.77258
4.84563
4.90862
0.605182
0.381363
0.398313
0.455564
0.527575
0.601626
0.672213
0.737381
0.79716
0.852392
0.904061
0.953018
0.999917
1.04524
1.08931
1.13239
1.17465
1.2162
1.25715
1.29756
1.33751
1.37703
1.4162
1.45509
1.49376
1.53234
1.57094
1.60976
1.64901
1.689
1.7301
1.77268
1.81705
1.86107
1.90417
1.94609
1.98658
2.02537
2.06218
2.09673
2.12871
2.15782
2.18378
2.20632
1.20464
0.609571
0.552447
0.570349
0.612115
0.662223
0.713138
0.761113
0.804805
0.844231
0.879993
0.912833
0.943431
0.972337
0.999969
1.02664
1.05259
1.078
1.10301
1.12778
1.15241
1.17704
1.20178
1.22676
1.25211
1.27794
1.30437
1.33152
1.35949
1.38837
1.41821
1.44903
1.48061
1.51239
1.54407
1.5754
1.60617
1.63613
1.66502
1.69258
1.71853
1.74259
1.76448
1.78393
1.71141
0.793775
0.674841
0.661172
0.678925
0.709216
0.743985
0.779017
0.812256
0.842962
0.871121
0.897041
0.921127
0.94377
0.965307
0.986015
1.00613
1.02583
1.04532
1.06473
1.08423
1.10396
1.12406
1.14467
1.1659
1.18788
1.2107
1.23443
1.25914
1.28485
1.31156
1.33923
1.36769
1.39665
1.42588
1.45518
1.48432
1.51303
1.54107
1.56813
1.59394
1.61817
1.64052
1.66071
2.11701
0.937094
0.76692
0.728432
0.728306
0.743976
0.766711
0.792114
0.817823
0.842662
0.866159
0.888237
0.909014
0.928688
0.947477
0.965595
0.983241
1.0006
1.01785
1.03516
1.05268
1.07056
1.08895
1.10799
1.12779
1.14847
1.17011
1.19278
1.21654
1.2414
1.26735
1.29435
1.32226
1.3509
1.38007
1.40955
1.43911
1.4685
1.49741
1.52555
1.55258
1.57816
1.60195
1.62363
2.44349
1.04879
0.835728
0.777344
0.763781
0.768833
0.782849
0.801194
0.821343
0.841895
0.862114
0.881667
0.900456
0.91852
0.935965
0.952931
0.969571
0.986043
1.00251
1.01911
1.03602
1.05337
1.0713
1.08995
1.10944
1.12987
1.15134
1.17393
1.19767
1.22261
1.24873
1.27601
1.30434
1.33357
1.36351
1.39397
1.42469
1.4554
1.48579
1.51551
1.54421
1.5715
1.59701
1.62035
2.69889
1.13538
0.887027
0.81245
0.788451
0.785578
0.79319
0.806331
0.822334
0.839672
0.857461
0.875216
0.892699
0.909829
0.926619
0.94314
0.959495
0.975805
0.992202
1.00882
1.0258
1.04327
1.06136
1.08021
1.09993
1.12063
1.14242
1.16537
1.18955
1.21499
1.24171
1.26968
1.29883
1.32903
1.3601
1.39185
1.42403
1.45633
1.48842
1.51993
1.55045
1.57956
1.60684
1.63185
2.88986
1.20114
0.924758
0.837064
0.804766
0.79578
0.798548
0.807774
0.820649
0.835549
0.851505
0.867939
0.884525
0.901099
0.917604
0.934052
0.950497
0.967022
0.983728
1.00073
1.01813
1.03606
1.05464
1.07399
1.09424
1.11548
1.13783
1.16137
1.1862
1.21235
1.23985
1.26871
1.29886
1.3302
1.36257
1.39576
1.42952
1.46353
1.49741
1.53076
1.56314
1.59406
1.62306
1.64966
3.02194
1.24892
0.951548
0.853512
0.814606
0.800803
0.799811
0.806029
0.816506
0.829543
0.844107
0.859565
0.87553
0.891784
0.908215
0.92479
0.94152
0.958453
0.975658
0.99322
1.01123
1.0298
1.04904
1.06905
1.08995
1.11187
1.1349
1.15916
1.18473
1.21169
1.24008
1.26992
1.30118
1.33375
1.3675
1.40221
1.4376
1.47335
1.50904
1.54423
1.57841
1.61106
1.64166
1.66966
3.0996
1.28075
0.969251
0.863518
0.819481
0.801897
0.79796
0.801838
0.810466
0.822076
0.835592
0.850338
0.865889
0.881984
0.898476
0.915291
0.932408
0.949843
0.967638
0.985852
1.00456
1.02385
1.04382
1.06456
1.08621
1.10886
1.13264
1.15767
1.18406
1.21189
1.24124
1.27214
1.30457
1.33845
1.37363
1.40989
1.44695
1.48442
1.52186
1.55878
1.59463
1.62881
1.66076
1.68988
3.12651
1.29821
0.979316
0.868492
0.820732
0.80029
0.794099
0.796185
0.803408
0.813953
0.826709
0.84097
0.856281
0.872353
0.889007
0.906143
0.923712
0.941702
0.960133
0.979043
0.998488
1.01854
1.03928
1.06081
1.08324
1.10668
1.13127
1.15713
1.18439
1.21316
1.24354
1.27559
1.30929
1.34456
1.38124
1.41908
1.45776
1.49686
1.53591
1.57433
1.61154
1.6469
1.67976
1.7095
3.10576
1.30262
0.983002
0.86973
0.819672
0.797289
0.789502
0.790308
0.796539
0.806356
0.818627
0.832625
0.847875
0.864065
0.880994
0.898538
0.916628
0.935233
0.954351
0.974003
0.994232
1.01509
1.03667
1.05904
1.08232
1.10663
1.13211
1.1589
1.18714
1.21697
1.24851
1.28185
1.31696
1.35373
1.39197
1.43139
1.4716
1.51213
1.55243
1.5919
1.6299
1.66579
1.69892
1.72846
3.03969
1.29518
0.981522
0.868554
0.817714
0.794366
0.785686
0.785752
0.791425
0.800874
0.812962
0.826951
0.842354
0.858844
0.876203
0.894291
0.913021
0.932347
0.952254
0.972749
0.993863
1.01564
1.03816
1.06151
1.08578
1.11112
1.13766
1.16555
1.19498
1.22609
1.25903
1.29391
1.33063
1.36903
1.40892
1.44986
1.49135
1.53286
1.57379
1.61347
1.65124
1.68642
1.7184
1.74659
2.92685
1.27753
0.97644
0.866589
0.816578
0.793337
0.784543
0.784477
0.790088
0.799587
0.811853
0.826153
0.841994
0.859043
0.877071
0.895927
0.915513
0.935771
0.956676
0.978228
1.00045
1.02338
1.0471
1.07168
1.09724
1.12391
1.15184
1.18121
1.21219
1.24498
1.27973
1.31651
1.35507
1.39514
1.43639
1.47833
1.5204
1.56199
1.60241
1.64101
1.67712
1.71015
1.73956
1.76492
2.79844
1.26154
0.972927
0.867148
0.818942
0.796641
0.788436
0.788841
0.794923
0.804952
0.817841
0.832871
0.849556
0.867559
0.886646
0.906658
0.92749
0.949075
0.971381
0.994404
1.01816
1.04269
1.06807
1.09437
1.12171
1.15023
1.1801
1.21148
1.24458
1.2796
1.31674
1.35577
1.39633
1.43799
1.48023
1.52247
1.56404
1.60425
1.64244
1.67797
1.7103
1.73902
1.76377
1.78433
2.63009
1.2399
0.970354
0.871306
0.826567
0.806445
0.799841
0.801596
0.808944
0.820253
0.834489
0.850964
0.869205
0.888879
0.909754
0.931663
0.954496
0.978182
1.00268
1.02799
1.05411
1.0811
1.109
1.13792
1.16796
1.19926
1.23199
1.26632
1.30246
1.34059
1.38085
1.42245
1.46486
1.50748
1.54961
1.59049
1.6294
1.66565
1.69867
1.72806
1.75352
1.77492
1.79224
1.80552
2.44245
1.214
0.969115
0.879639
0.840344
0.82402
0.820462
0.824916
0.83483
0.848692
0.865538
0.884721
0.905788
0.928415
0.95237
0.977483
1.00364
1.03076
1.0588
1.08775
1.11762
1.14843
1.18027
1.21319
1.24733
1.2828
1.31977
1.3584
1.39889
1.44144
1.48503
1.52882
1.57201
1.61377
1.65321
1.68951
1.72197
1.75012
1.77369
1.79269
1.80729
1.81778
1.82455
1.82795
2.24451
1.18308
0.967974
0.891086
0.859496
0.848958
0.85034
0.859358
0.873696
0.891968
0.913276
0.937006
0.96272
0.990098
1.0189
1.04895
1.08013
1.11234
1.14552
1.17967
1.21476
1.25083
1.28792
1.32611
1.36547
1.40613
1.44821
1.49186
1.53723
1.58356
1.62904
1.67275
1.71367
1.7508
1.78322
1.81026
1.83153
1.84702
1.85702
1.8621
1.863
1.86046
1.8552
1.8478
2.04559
1.14685
0.965807
0.904896
0.884048
0.882278
0.891603
0.908213
0.929998
0.955667
0.98436
1.01548
1.04857
1.08332
1.11945
1.15679
1.19519
1.23452
1.27473
1.31576
1.35759
1.40022
1.44366
1.48794
1.53313
1.57928
1.62648
1.67482
1.72372
1.77033
1.81355
1.85222
1.88525
1.91172
1.93103
1.943
1.94788
1.94635
1.93942
1.92827
1.91408
1.89793
1.88067
1.86292
1.85502
1.10534
0.962485
0.922241
0.917016
0.929043
0.951391
0.980616
1.01473
1.05247
1.09297
1.1356
1.1799
1.2255
1.27211
1.31951
1.36752
1.416
1.46484
1.51397
1.56332
1.61285
1.66253
1.71236
1.76233
1.81247
1.86279
1.91261
1.95815
1.99821
2.03159
2.05724
2.07438
2.08264
2.08212
2.07346
2.05777
2.03649
2.01124
1.98359
1.95493
1.92638
1.89866
1.87221
1.68202
1.05992
0.961113
0.949808
0.969073
1.0038
1.04781
1.09785
1.15194
1.20876
1.26737
1.32708
1.38735
1.44777
1.508
1.56779
1.62691
1.68523
1.74261
1.79896
1.8542
1.90826
1.96111
2.01268
2.06303
2.11219
2.15866
2.19831
2.23003
2.25281
2.26585
2.2687
2.26138
2.24441
2.21889
2.18635
2.14862
2.10766
2.06534
2.02325
1.98264
1.94431
1.90869
1.87588
1.53578
1.01637
0.974247
1.00842
1.0689
1.14221
1.22258
1.30668
1.39236
1.47813
1.56288
1.64581
1.72631
1.80396
1.87845
1.9496
2.01729
2.0815
2.14221
2.19945
2.25327
2.30369
2.35079
2.39453
2.4354
2.47004
2.49517
2.51011
2.51429
2.5074
2.4895
2.46113
2.42331
2.37754
2.32571
2.2699
2.21226
2.15475
2.09903
2.04631
1.99738
1.95259
1.91194
1.87518
1.42495
0.994471
1.04088
1.15532
1.2898
1.43113
1.5732
1.71211
1.84519
1.97063
2.08732
2.19464
2.29238
2.38063
2.45971
2.53007
2.59225
2.64681
2.69433
2.73529
2.77017
2.79938
2.82349
2.84196
2.85033
2.8477
2.83396
2.80914
2.77352
2.72774
2.67277
2.61003
2.54127
2.4685
2.39387
2.31943
2.24705
2.17823
2.11404
2.05512
2.00168
1.95359
1.91047
1.87179
1.35604
1.06027
1.28021
1.5562
1.83457
2.09901
2.34159
2.55761
2.74488
2.90335
3.03434
3.14005
3.22312
3.28639
3.33261
3.3643
3.3837
3.39275
3.39322
3.3862
3.37303
3.35439
3.3272
3.28978
3.24284
3.18676
3.12205
3.04936
2.96958
2.88389
2.79375
2.70084
2.60699
2.51408
2.42385
2.33783
2.25722
2.18281
2.11501
2.05385
1.99905
1.95012
1.90642
1.86725
1.36237
1.46434
2.1129
2.75566
3.30957
3.75713
4.09883
4.34352
4.50477
4.59807
4.63783
4.63674
4.60541
4.55246
4.48456
4.40654
4.3219
4.2332
4.14333
4.05179
3.95699
3.85767
3.75493
3.64884
3.53963
3.42758
3.31312
3.19688
3.07969
2.96261
2.84688
2.73383
2.62479
2.52099
2.4235
2.33309
2.25021
2.17501
2.10734
2.0468
1.99279
1.94461
1.9015
1.86269
1.58285
3.43066
5.1316
6.40428
7.16502
7.53428
7.62062
7.52324
7.31652
7.05244
6.76198
6.46509
6.17386
5.89533
5.63286
5.3869
5.15684
4.94125
4.73707
4.5436
4.35968
4.1837
4.0145
3.85113
3.69284
3.53919
3.39001
3.24539
3.10566
2.97136
2.84313
2.72166
2.60763
2.50156
2.40382
2.31456
2.23369
2.1609
2.0957
2.03745
1.9854
1.93879
1.89683
1.85879
3.86423
10.8091
13.0853
13.5575
13.1257
12.2987
11.3686
10.4638
9.63185
8.88471
8.22224
7.63721
7.12024
6.66165
6.25271
5.88644
5.55654
5.25744
4.98406
4.73245
4.49938
4.28211
4.07839
3.88647
3.705
3.53302
3.36991
3.21531
3.06913
2.93142
2.80233
2.68205
2.57072
2.46838
2.37496
2.2902
2.21371
2.14497
2.08332
2.02806
1.97842
1.93364
1.893
1.85583
17.8077
15.0143
13.4757
12.4754
11.6853
10.9701
10.287
9.63137
9.00918
8.42611
7.88542
7.38774
6.93169
6.51461
6.13324
5.78421
5.4642
5.16999
4.89849
4.64698
4.41311
4.19485
3.99047
3.7986
3.61814
3.44826
3.2884
3.13816
2.99732
2.86576
2.74341
2.63019
2.52598
2.43059
2.34372
2.26496
2.1938
2.12966
2.07185
2.0197
1.97249
1.92953
1.89015
1.8538
8.73736
8.27626
7.95273
7.7523
7.63125
7.53654
7.42641
7.28012
7.09402
6.8738
6.62874
6.36844
6.10117
5.83337
5.56974
5.31346
5.06657
4.8302
4.60482
4.39048
4.18698
3.99396
3.81104
3.63782
3.47398
3.31923
3.17338
3.03629
2.90786
2.78802
2.67668
2.5737
2.47891
2.39205
2.31276
2.24062
2.17512
2.11569
2.06174
2.01263
1.96775
1.92649
1.88828
1.85265
6.61886
6.38176
6.17585
6.01314
5.89456
5.81056
5.74576
5.6849
5.61631
5.53288
5.43166
5.31276
5.17821
5.03103
4.87451
4.71182
4.54578
4.37877
4.21272
4.04912
3.88914
3.73365
3.58332
3.43864
3.29999
3.16769
3.04197
2.92302
2.81098
2.70593
2.60789
2.51681
2.43255
2.35491
2.28358
2.21822
2.15837
2.10358
2.05333
2.0071
1.96437
1.92464
1.88745
1.85241
5.81549
5.62931
5.45613
5.30117
5.16773
5.05579
4.96213
4.88148
4.80801
4.73631
4.66212
4.58251
4.49586
4.40164
4.30014
4.19219
4.07895
3.96171
3.84182
3.72054
3.59904
3.47838
3.35947
3.2431
3.12996
3.02063
2.91558
2.81523
2.71986
2.6297
2.54488
2.46544
2.39135
2.32248
2.25863
2.19953
2.14485
2.09422
2.04725
2.00352
1.96263
1.92417
1.88777
1.85313
5.43056
5.26357
5.10516
4.95706
4.82093
4.69765
4.58694
4.4874
4.39686
4.31279
4.23264
4.15412
4.07541
3.99515
3.91252
3.8271
3.73885
3.64802
3.55504
3.46049
3.36502
3.26929
3.17399
3.07976
2.98721
2.89688
2.80926
2.72477
2.64374
2.56645
2.49306
2.42369
2.35836
2.29701
2.23952
2.18572
2.13536
2.08818
2.04389
2.00215
1.96267
1.92514
1.88926
1.8548
5.2241
5.06751
4.91784
4.77558
4.64133
4.5156
4.39854
4.28987
4.18887
4.0945
4.00553
3.92067
3.8387
3.75852
3.67927
3.60027
3.52108
3.44146
3.36134
3.28082
3.20008
3.11942
3.03916
2.95969
2.88139
2.80463
2.72977
2.65714
2.587
2.51958
2.45505
2.39351
2.335
2.27952
2.22698
2.17727
2.13023
2.08566
2.04333
2.00302
1.96449
1.9275
1.89184
1.85732
5.1066
4.9573
4.81399
4.67673
4.54566
4.42097
4.30275
4.19095
4.08533
3.98548
3.89083
3.80073
3.71449
3.6314
3.55083
3.47223
3.39514
3.31921
3.24422
3.17001
3.09656
3.02389
2.95211
2.88137
2.81185
2.74374
2.67724
2.61256
2.54986
2.48929
2.43097
2.37496
2.32129
2.26997
2.22092
2.17408
2.12932
2.08649
2.04543
2.00596
1.9679
1.93108
1.89534
1.86053
5.03739
4.89409
4.75607
4.62328
4.4957
4.37333
4.25619
4.14424
4.03738
3.93542
3.8381
3.74508
3.65598
3.5704
3.48793
3.40819
3.33082
3.25553
3.18205
3.11021
3.03987
2.97096
2.90344
2.83733
2.77266
2.70952
2.64796
2.58809
2.52998
2.47369
2.41928
2.36678
2.31619
2.26749
2.22063
2.17553
2.1321
2.09022
2.04977
2.01062
1.97261
1.93561
1.89951
1.8642
4.99566
4.85768
4.7244
4.59574
4.47163
4.35203
4.2369
4.12618
4.0198
3.91766
3.8196
3.72546
3.63501
3.54802
3.46423
3.3834
3.30528
3.22965
3.1563
3.08504
3.01575
2.94831
2.88262
2.81864
2.75634
2.6957
2.63671
2.5794
2.52377
2.46982
2.41756
2.36698
2.31805
2.27072
2.22496
2.18067
2.13779
2.0962
2.05581
2.01651
1.97818
1.94072
1.90403
1.86803
4.96998
4.83682
4.70788
4.58308
4.46234
4.34561
4.23282
4.12393
4.01885
3.91752
3.81983
3.72568
3.63493
3.54743
3.46304
3.38157
3.30288
3.22679
3.15315
3.08181
3.01266
2.94556
2.88044
2.8172
2.75579
2.69614
2.63822
2.58199
2.52741
2.47446
2.42309
2.37327
2.32495
2.27808
2.23259
2.1884
2.14545
2.10363
2.06287
2.02307
1.98413
1.94597
1.9085
1.87167
4.95384
4.82506
4.70008
4.57885
4.4613
4.34736
4.23699
4.13011
4.02667
3.92661
3.82984
3.7363
3.64587
3.55848
3.47401
3.39234
3.31336
3.23696
3.16302
3.09142
3.02206
2.95484
2.88966
2.82645
2.76513
2.70562
2.64787
2.59181
2.53739
2.48456
2.43326
2.38343
2.33501
2.28794
2.24214
2.19755
2.15409
2.11168
2.07023
2.02966
1.9899
1.95087
1.91251
1.87475
4.94432
4.81911
4.69742
4.57918
4.46433
4.35282
4.24459
4.13958
4.03773
3.939
3.84331
3.75059
3.66078
3.5738
3.48957
3.408
3.329
3.25248
3.17836
3.10653
3.03691
2.96942
2.90397
2.84048
2.77887
2.71909
2.66105
2.60468
2.54994
2.49674
2.44504
2.39475
2.34582
2.29818
2.25176
2.20648
2.16228
2.11907
2.07678
2.03534
1.99468
1.95473
1.91544
1.87675
4.93789
4.81584
4.69706
4.58148
4.46907
4.35975
4.25349
4.15023
4.04991
3.95248
3.85788
3.76606
3.67696
3.59051
3.50664
3.42528
3.34637
3.26983
3.19559
3.12356
3.05368
2.98587
2.92005
2.85616
2.79412
2.73387
2.67533
2.61844
2.56313
2.50934
2.457
2.40604
2.35639
2.30799
2.26077
2.21466
2.16959
2.12548
2.08228
2.03991
1.99831
1.95742
1.91719
1.87758
4.93323
4.81423
4.69826
4.58529
4.47527
4.36813
4.26384
4.16234
4.06358
3.9675
3.87407
3.78322
3.69491
3.60907
3.52565
3.44459
3.36583
3.28931
3.21496
3.14274
3.07256
3.00436
2.93809
2.87367
2.81105
2.75015
2.69092
2.63329
2.57719
2.52257
2.46935
2.41749
2.3669
2.31752
2.2693
2.22216
2.17604
2.13088
2.08661
2.04318
2.00052
1.95859
1.91734
1.87674
4.93032
4.81402
4.70058
4.58996
4.48211
4.37697
4.2745
4.17464
4.07734
3.98255
3.89023
3.80032
3.71277
3.62754
3.54457
3.46381
3.38521
3.30871
3.23427
3.16181
3.0913
3.02267
2.95587
2.89084
2.82752
2.76586
2.7058
2.64728
2.59024
2.53463
2.48038
2.42744
2.37575
2.32524
2.27587
2.22756
2.18027
2.13394
2.0885
2.04391
2.00013
1.95709
1.91477
4.92903
4.81486
4.70344
4.59471
4.48862
4.3851
4.28412
4.1856
4.08951
3.99578
3.90438
3.81524
3.72833
3.64358
3.56096
3.48041
3.40189
3.32535
3.25073
3.178
3.10709
3.03797
2.97057
2.90486
2.84077
2.77827
2.7173
2.6578
2.59973
2.54303
2.48766
2.43356
2.38068
2.32896
2.27836
2.22883
2.18031
2.13275
2.08611
2.04034
1.9954
1.95124
1.90782
4.92877
4.81599
4.70589
4.5984
4.49347
4.39104
4.29103
4.1934
4.09808
4.00503
3.91419
3.82551
3.73894
3.65443
3.57193
3.49139
3.41278
3.33603
3.2611
3.18796
3.11655
3.04683
2.97876
2.91228
2.84736
2.78395
2.72201
2.66149
2.60235
2.54454
2.48801
2.43273
2.37865
2.32573
2.27391
2.22316
2.17343
2.12468
2.07687
2.02996
1.98391
1.93869
1.89425
4.92811
4.81588
4.7063
4.59929
4.49478
4.39271
4.29301
4.19563
4.10049
4.00756
3.91676
3.82804
3.74136
3.65667
3.5739
3.49303
3.414
3.33676
3.26128
3.18751
3.1154
3.04492
2.97602
2.90866
2.84281
2.77842
2.71546
2.65388
2.59365
2.53473
2.47707
2.42065
2.36541
2.31134
2.25838
2.2065
2.15566
2.10583
2.05698
2.00906
1.96205
1.9159
1.8706
4.92507
4.81239
4.70233
4.5948
4.48975
4.38709
4.28678
4.18874
4.09292
3.99926
3.90771
3.81821
3.73071
3.64517
3.56153
3.47975
3.39978
3.32159
3.24512
3.17034
3.09721
3.02568
2.95572
2.88729
2.82036
2.75489
2.69083
2.62816
2.56685
2.50685
2.44813
2.39066
2.33441
2.27934
2.22541
2.1726
2.12088
2.0702
2.02055
1.97188
1.92418
1.8774
1.83151
4.92071
4.80612
4.69414
4.58469
4.4777
4.37313
4.27091
4.17099
4.07332
3.97783
3.88449
3.79323
3.70403
3.61681
3.53155
3.4482
3.36671
3.28704
3.20916
3.13301
3.05856
2.98577
2.9146
2.84502
2.77698
2.71046
2.64541
2.58181
2.5196
2.45877
2.39928
2.34109
2.28417
2.22849
2.17401
2.12071
2.06854
2.01749
1.96751
1.91859
1.87068
1.82375
1.77778
4.91966
4.80204
4.68707
4.5747
4.46488
4.35755
4.25268
4.15019
4.05006
3.95222
3.85664
3.76326
3.67203
3.58291
3.49585
3.41081
3.32774
3.2466
3.16734
3.08992
3.0143
2.94044
2.86829
2.79782
2.72898
2.66173
2.59604
2.53187
2.46918
2.40793
2.34808
2.2896
2.23246
2.17662
2.12203
2.06868
2.01652
1.96552
1.91566
1.86688
1.81918
1.7725
1.72682
4.92395
4.80178
4.68246
4.56594
4.45218
4.34113
4.23274
4.12696
4.02373
3.92301
3.82474
3.72888
3.63536
3.54413
3.45515
3.36835
3.2837
3.20113
3.12059
3.04204
2.96543
2.8907
2.81781
2.74671
2.67735
2.60968
2.54367
2.47927
2.41643
2.35511
2.29526
2.23686
2.17985
2.1242
2.06986
2.01681
1.96499
1.91438
1.86494
1.81663
1.76942
1.72328
1.67816
4.93605
4.80788
4.68296
4.56122
4.44262
4.32708
4.21456
4.10499
3.99829
3.89441
3.79327
3.69481
3.59897
3.50566
3.41483
3.32642
3.24034
3.15655
3.07497
2.99554
2.9182
2.8429
2.76956
2.69814
2.62857
2.5608
2.49479
2.43046
2.36778
2.30669
2.24714
2.18909
2.13249
2.07729
2.02345
1.97093
1.91968
1.86966
1.82084
1.77317
1.72662
1.68115
1.63671
4.96129
4.826
4.69457
4.5669
4.4429
4.32248
4.20554
4.09199
3.98174
3.87468
3.77073
3.66979
3.57176
3.47656
3.3841
3.29429
3.20705
3.12228
3.03992
2.95987
2.88207
2.80644
2.73291
2.66141
2.59186
2.5242
2.45838
2.39432
2.33196
2.27126
2.21215
2.15457
2.09848
2.04382
1.99054
1.93861
1.88796
1.83855
1.79035
1.7433
1.69737
1.65252
1.60871
5.01298
4.86991
4.73147
4.59752
4.4679
4.34246
4.22106
4.10355
3.9898
3.87966
3.77301
3.66972
3.56966
3.47271
3.37875
3.28768
3.19938
3.11376
3.0307
2.95012
2.87191
2.796
2.72228
2.65069
2.58114
2.51355
2.44785
2.38397
2.32184
2.2614
2.20257
2.14531
2.08954
2.03523
1.9823
1.93071
1.88041
1.83135
1.78348
1.73677
1.69116
1.64662
1.6031
5.1225
4.97114
4.82531
4.68476
4.54925
4.41857
4.2925
4.17083
4.05338
3.93995
3.83038
3.72449
3.62213
3.52315
3.42739
3.33473
3.24503
3.15817
3.07402
2.99248
2.91342
2.83675
2.76237
2.69019
2.6201
2.55203
2.48589
2.42161
2.3591
2.2983
2.23913
2.18153
2.12544
2.07079
2.01752
1.96559
1.91494
1.86552
1.81727
1.77016
1.72414
1.67917
1.63521
5.3646
5.20368
5.04919
4.90079
4.75812
4.62089
4.48882
4.36163
4.23909
4.12098
4.00706
3.89714
3.79103
3.68854
3.58951
3.49376
3.40116
3.31154
3.22478
3.14074
3.05929
2.98032
2.90372
2.82938
2.7572
2.68708
2.61893
2.55267
2.48821
2.42548
2.36439
2.30488
2.24688
2.19033
2.13516
2.08132
2.02874
1.97739
1.9272
1.87814
1.83015
1.7832
1.73725
5.94792
5.77245
5.60429
5.44293
5.28796
5.13904
4.99582
4.85802
4.72535
4.59754
4.47435
4.35553
4.24086
4.13012
4.02312
3.91967
3.81958
3.72269
3.62884
3.53789
3.44968
3.36409
3.28099
3.20026
3.12179
3.04547
2.97119
2.89888
2.82842
2.75974
2.69276
2.6274
2.56358
2.50124
2.4403
2.38072
2.32242
2.26536
2.20948
2.15473
2.10107
2.04846
1.99686
7.72169
7.50966
7.30549
7.10883
6.91948
6.7372
6.5617
6.39265
6.22974
6.07263
5.92103
5.77463
5.63314
5.4963
5.36384
5.23553
5.11115
4.99049
4.87334
4.75953
4.64888
4.54123
4.43642
4.3343
4.23475
4.13763
4.04281
3.95018
3.85964
3.77108
3.6844
3.59951
3.51633
3.43477
3.35475
3.27622
3.1991
3.12333
3.04885
2.97562
2.90358
2.8327
2.76294
18.0418
17.5897
17.153
16.7315
16.325
15.9326
15.5537
15.1874
14.833
14.4897
14.1567
13.8335
13.5193
13.2135
12.9158
12.6255
12.3423
12.0657
11.7953
11.5308
11.2719
11.0182
10.7694
10.5253
10.2857
10.0503
9.81885
9.59128
9.36736
9.14694
8.9299
8.7161
8.50546
8.29788
8.09329
7.89162
7.69285
7.49692
7.30383
7.11356
6.92611
6.74149
6.55974
)
;

boundaryField
{
    inlet
    {
        type            fixedValue;
        value           uniform 14.855;
    }
    outlet
    {
        type            zeroGradient;
    }
    upperWall
    {
        Cmu             0.09;
        kappa           0.41;
        E               9.8;
        type            epsilonWallFunction;
        value           nonuniform List<scalar> 
61
(
251.832
137.368
90.7926
67.1393
53.3201
44.5383
38.5885
34.3202
31.1017
28.5742
26.5248
24.8214
23.3782
22.1372
21.0571
20.1078
19.267
18.5202
18.0418
17.5897
17.153
16.7315
16.325
15.9326
15.5537
15.1874
14.833
14.4897
14.1567
13.8335
13.5193
13.2135
12.9158
12.6255
12.3423
12.0657
11.7953
11.5308
11.2719
11.0182
10.7694
10.5253
10.2857
10.0503
9.81885
9.59128
9.36736
9.14694
8.9299
8.7161
8.50546
8.29788
8.09329
7.89162
7.69285
7.49692
7.30383
7.11356
6.92611
6.74149
6.55974
)
;
    }
    lowerWall
    {
        Cmu             0.09;
        kappa           0.41;
        E               9.8;
        type            epsilonWallFunction;
        value           nonuniform List<scalar> 
89
(
307.554
159.148
103.222
76.2089
60.9354
51.4148
44.9941
40.3558
36.8159
34.0027
31.7011
29.7783
28.147
26.7477
25.538
24.4885
23.6116
22.9717
0.142834
0.605182
1.20464
1.71141
2.11701
2.44349
2.69889
2.88986
3.02194
3.0996
3.12651
3.10576
3.03969
2.92685
2.79844
2.63009
2.44245
2.24451
2.04559
1.85502
1.68202
1.53578
1.42495
1.35604
1.36237
1.58285
3.86423
0.142834
0.161673
0.255314
0.363969
0.475687
0.575376
0.672262
0.768583
0.865629
0.964498
1.06603
1.17075
1.27887
1.39035
1.50498
1.62246
1.7424
1.8644
1.98805
2.11296
2.23878
2.36517
2.49185
2.61859
2.7452
2.8716
2.99779
3.12396
3.25052
3.37824
3.50845
3.6433
3.77909
3.91106
4.03897
4.16242
4.28084
4.39357
4.49986
4.59897
4.69012
4.77258
4.84563
4.90862
)
;
    }
    frontAndBack
    {
        type            empty;
    }
    procBoundary2to3
    {
        type            processor;
        value           nonuniform List<scalar> 
58
(
4.96095
2.22516
1.80061
1.67827
1.64263
1.64089
1.65387
1.67306
1.69425
1.71531
1.73525
1.75368
1.77026
1.78565
1.80032
1.81465
1.82812
1.83854
1.84492
1.84707
1.84563
1.84179
1.83683
1.8318
1.82737
1.82388
1.8214
1.81981
1.81902
1.81902
1.81984
1.82143
1.82369
1.82645
1.82951
1.83258
1.83536
1.83751
1.83858
1.83851
1.83669
1.8731
1.8731
1.86512
1.85058
1.82611
1.7865
1.73275
1.68212
1.63404
1.59329
1.56591
1.56058
1.59222
1.69225
1.94623
2.69426
6.38086
)
;
    }
}


// ************************************************************************* //
