/*--------------------------------*- C++ -*----------------------------------*\
  =========                 |
  \\      /  F ield         | OpenFOAM: The Open Source CFD Toolbox
   \\    /   O peration     | Website:  https://openfoam.org
    \\  /    A nd           | Version:  6
     \\/     M anipulation  |
\*---------------------------------------------------------------------------*/
FoamFile
{
    version     2.0;
    format      ascii;
    class       volScalarField;
    location    "0.09";
    object      k;
}
// * * * * * * * * * * * * * * * * * * * * * * * * * * * * * * * * * * * * * //

dimensions      [0 2 -2 0 0 0 0];

internalField   nonuniform List<scalar> 
3032
(
0.24644
0.158841
0.119017
0.0972217
0.0837533
0.074784
0.0684195
0.0636314
0.0598522
0.0567613
0.0541682
0.0519528
0.0500353
0.04836
0.0468873
0.0455899
0.044487
0.0436676
0.339525
0.260138
0.208274
0.175326
0.153323
0.137758
0.126112
0.116976
0.109555
0.103377
0.0981393
0.0936365
0.0897227
0.0862913
0.083265
0.0805765
0.0782172
0.0761405
0.347499
0.292343
0.24853
0.216233
0.192292
0.17414
0.159978
0.148608
0.139256
0.131413
0.124734
0.118973
0.113954
0.109546
0.10565
0.10219
0.099125
0.0964473
0.35137
0.30904
0.271904
0.241962
0.218206
0.19928
0.183994
0.171436
0.16095
0.152067
0.144447
0.137843
0.132067
0.126979
0.12247
0.118458
0.11489
0.111769
0.353918
0.319271
0.287217
0.25986
0.237104
0.21828
0.202635
0.18951
0.178381
0.168846
0.160599
0.153405
0.147083
0.141492
0.13652
0.132084
0.128128
0.124656
0.355678
0.326036
0.297886
0.272952
0.251492
0.233216
0.217664
0.204371
0.192937
0.18303
0.174386
0.166793
0.160082
0.15412
0.148798
0.144034
0.139774
0.136022
0.356918
0.330715
0.305587
0.282798
0.262693
0.245181
0.229988
0.216792
0.205292
0.195221
0.186357
0.178516
0.171546
0.165323
0.159745
0.154734
0.15024
0.146266
0.357802
0.334032
0.311254
0.290309
0.271507
0.254845
0.240161
0.227234
0.215836
0.205757
0.196814
0.188847
0.181724
0.175333
0.16958
0.164393
0.159725
0.155583
0.358434
0.336408
0.315458
0.296069
0.278463
0.26266
0.24856
0.236005
0.224825
0.214854
0.205939
0.197945
0.190758
0.184277
0.178419
0.173119
0.168333
0.164068
0.358882
0.33811
0.318572
0.300473
0.283931
0.26895
0.255457
0.243334
0.232447
0.222664
0.213858
0.205916
0.198736
0.192233
0.18633
0.18097
0.176114
0.17177
0.359196
0.339318
0.320857
0.30381
0.288188
0.273964
0.261066
0.249397
0.238847
0.229305
0.220667
0.212834
0.205721
0.199248
0.193352
0.187978
0.183094
0.178709
0.359394
0.340094
0.322373
0.306094
0.291184
0.277576
0.26519
0.253933
0.243708
0.234417
0.225967
0.218274
0.21126
0.204855
0.199002
0.19365
0.188774
0.184383
0.359536
0.340653
0.323496
0.307831
0.293519
0.280452
0.268533
0.257668
0.247763
0.23873
0.230485
0.222952
0.216059
0.209747
0.203959
0.198653
0.193807
0.18943
0.359644
0.341087
0.324392
0.309262
0.295496
0.282947
0.271495
0.261038
0.251481
0.24274
0.234736
0.227399
0.220665
0.214477
0.208787
0.203557
0.198767
0.194425
0.35972
0.341394
0.325047
0.310342
0.297036
0.284945
0.273928
0.263866
0.254661
0.246226
0.238485
0.23137
0.224822
0.218788
0.213225
0.208098
0.203389
0.199105
0.359767
0.34159
0.325475
0.311073
0.298113
0.286388
0.275733
0.266018
0.257133
0.248987
0.241503
0.234613
0.22826
0.222394
0.216973
0.211966
0.207355
0.203147
0.359793
0.341697
0.325717
0.311499
0.298761
0.287283
0.276887
0.267429
0.258791
0.250878
0.243607
0.236911
0.23073
0.225015
0.219726
0.214832
0.210317
0.206184
0.359804
0.341741
0.325817
0.31168
0.299045
0.287686
0.277418
0.268093
0.259588
0.251803
0.244653
0.238067
0.231987
0.226362
0.221152
0.216327
0.211868
0.207781
0.359801
0.341728
0.325788
0.311627
0.298963
0.287569
0.277263
0.267899
0.259353
0.251528
0.244338
0.237713
0.231595
0.225934
0.22069
0.21583
0.211339
0.20722
0.359775
0.34162
0.325544
0.311192
0.298293
0.286633
0.276044
0.266391
0.257561
0.249461
0.242013
0.235149
0.228811
0.222949
0.217522
0.212498
0.20786
0.203612
0.359715
0.341375
0.325004
0.310271
0.296933
0.284808
0.273753
0.26365
0.2544
0.245915
0.238119
0.230946
0.224334
0.218231
0.212594
0.207388
0.202592
0.198212
0.359585
0.34085
0.323898
0.308468
0.294389
0.281534
0.269797
0.259077
0.249282
0.240325
0.232126
0.22461
0.21771
0.211367
0.20553
0.200159
0.195228
0.190742
0.359329
0.339832
0.321852
0.305297
0.29012
0.276267
0.263662
0.25221
0.241811
0.232364
0.223773
0.215948
0.208807
0.20228
0.196303
0.190829
0.185825
0.181295
0.35886
0.338006
0.318364
0.300158
0.283512
0.268431
0.254842
0.242628
0.231653
0.221781
0.212885
0.20485
0.197574
0.190967
0.184956
0.179477
0.174494
0.170005
0.35805
0.334907
0.312745
0.29229
0.27383
0.25738
0.242807
0.229914
0.218496
0.208357
0.199324
0.191246
0.183995
0.17746
0.171552
0.166198
0.161349
0.157004
0.356706
0.329799
0.303964
0.28061
0.260089
0.242284
0.226891
0.213561
0.201967
0.191829
0.182913
0.175026
0.16801
0.161736
0.1561
0.15102
0.146438
0.142348
0.354517
0.32133
0.290229
0.263342
0.240734
0.221871
0.206091
0.192784
0.181456
0.171717
0.163268
0.155875
0.149357
0.143569
0.1384
0.13376
0.129589
0.125875
0.3509
0.306593
0.267902
0.237072
0.212889
0.193812
0.178525
0.166042
0.155662
0.146891
0.139379
0.132868
0.127168
0.122136
0.117661
0.113656
0.110062
0.106862
0.342446
0.275929
0.227245
0.193494
0.169766
0.152524
0.139473
0.1292
0.120851
0.1139
0.108002
0.102924
0.0984982
0.0946035
0.0911474
0.0880595
0.0852876
0.0828104
0.259302
0.17311
0.131351
0.107412
0.0921154
0.0817019
0.0742541
0.0686732
0.0643109
0.0607789
0.0578381
0.055336
0.0531712
0.0512739
0.0495938
0.0480935
0.0467451
0.045531
0.00206021
0.00368718
0.00495088
0.00624871
0.00747962
0.00849217
0.00942045
0.0103001
0.0111502
0.011985
0.0128138
0.013642
0.0144721
0.015304
0.0161366
0.0169679
0.0177958
0.0186182
0.019433
0.0202386
0.0210335
0.0218165
0.0225868
0.0233439
0.0240874
0.0248176
0.025535
0.0262413
0.0269386
0.0276311
0.0283246
0.0290281
0.0297445
0.0304325
0.0310919
0.0317222
0.0323217
0.0328882
0.0334189
0.0339111
0.034362
0.0347687
0.0351287
0.0354392
0.0053401
0.0114548
0.0144972
0.0168048
0.0188718
0.0207595
0.0224766
0.0240399
0.0254807
0.0268354
0.0281368
0.0294109
0.0306764
0.0319457
0.0332263
0.0345219
0.0358339
0.0371618
0.0385041
0.0398586
0.0412228
0.0425943
0.0439707
0.0453497
0.0467291
0.0481068
0.0494806
0.0508486
0.0522081
0.0535567
0.0548913
0.0562088
0.0574944
0.0587596
0.0600046
0.0612259
0.0624184
0.0635761
0.0646925
0.0657606
0.0667731
0.0677228
0.0686023
0.0694047
0.00845214
0.0171729
0.0212295
0.0241058
0.0265248
0.0287033
0.0307095
0.0325716
0.0343157
0.0359709
0.0375654
0.0391226
0.0406596
0.0421873
0.0437119
0.0452358
0.0467594
0.0482817
0.0498012
0.0513168
0.0528276
0.0543332
0.055834
0.0573307
0.0588242
0.0603156
0.0618059
0.0632958
0.0647856
0.066275
0.0677631
0.0692482
0.0707274
0.0722007
0.0736647
0.0751144
0.0765428
0.0779423
0.0793042
0.0806191
0.0818775
0.0830692
0.0841845
0.0852136
0.0106864
0.0213439
0.0262772
0.0296265
0.032312
0.0346629
0.0368159
0.038831
0.0407408
0.0425693
0.0443361
0.0460571
0.0477437
0.0494037
0.0510417
0.0526601
0.0542602
0.0558429
0.0574091
0.0589603
0.0604983
0.0620258
0.0635458
0.0650616
0.0665767
0.0680944
0.0696177
0.071149
0.07269
0.0742417
0.0758037
0.0773745
0.0789529
0.0805371
0.0821229
0.0837044
0.0852739
0.0868225
0.0883403
0.0898164
0.0912392
0.0925967
0.093877
0.0950682
0.0123057
0.0243616
0.0299998
0.0337687
0.0367173
0.0392386
0.041515
0.0436357
0.0456472
0.0475761
0.0494396
0.0512494
0.0530135
0.0547376
0.0564257
0.0580806
0.0597049
0.0613011
0.0628723
0.0644219
0.0659539
0.0674729
0.0689836
0.0704911
0.0720005
0.0735164
0.0750432
0.0765844
0.0781427
0.0797198
0.0813159
0.08293
0.0845614
0.0862086
0.0878676
0.0895324
0.0911949
0.0928458
0.0944739
0.0960673
0.0976128
0.099097
0.100506
0.101826
0.0135285
0.0265402
0.0327157
0.0368342
0.0400267
0.0427186
0.0451162
0.0473278
0.0494124
0.0514035
0.0533204
0.055175
0.056975
0.0587256
0.0604309
0.0620944
0.0637194
0.0653097
0.0668695
0.0684033
0.0699163
0.0714141
0.0729027
0.0743879
0.0758759
0.0773724
0.0788826
0.0804111
0.0819615
0.0835364
0.0851369
0.0867627
0.0884137
0.0900895
0.0917868
0.0935
0.0952211
0.0969405
0.0986465
0.100326
0.101965
0.103549
0.105062
0.106488
0.0144418
0.0280913
0.0346612
0.0390524
0.0424506
0.0452966
0.047807
0.0501001
0.0522436
0.0542775
0.0562253
0.0581013
0.0599146
0.0616715
0.0633766
0.065034
0.0666479
0.0682226
0.0697626
0.0712732
0.0727599
0.0742288
0.0756863
0.0771389
0.0785933
0.0800559
0.0815328
0.0830295
0.0845506
0.0860998
0.0876794
0.08929
0.0909326
0.0926082
0.0943146
0.096047
0.0977981
0.0995583
0.101316
0.103057
0.104766
0.106428
0.108024
0.109538
0.0151008
0.0291525
0.0360012
0.0405943
0.0441531
0.0471263
0.0497335
0.0520972
0.05429
0.0563562
0.0583234
0.0602091
0.0620243
0.0637769
0.0654727
0.0671165
0.0687127
0.0702661
0.0717814
0.0732637
0.0747188
0.0761527
0.0775718
0.0789829
0.080393
0.0818089
0.0832375
0.0846853
0.086158
0.0876603
0.0891961
0.0907674
0.0923766
0.0940262
0.0957156
0.0974414
0.0991969
0.100973
0.102758
0.104538
0.106297
0.108018
0.109681
0.111269
0.0155429
0.0298157
0.036852
0.0415869
0.0452639
0.048335
0.05102
0.0534419
0.0556754
0.0577675
0.0597486
0.0616386
0.0634509
0.0651947
0.0668771
0.0685035
0.0700788
0.0716078
0.0730951
0.0745458
0.0759651
0.0773589
0.0787333
0.0800952
0.0814515
0.0828095
0.0841766
0.0855601
0.0869669
0.0884033
0.0898746
0.0913845
0.0929373
0.0945373
0.0961857
0.0978806
0.0996167
0.101386
0.103176
0.104974
0.106763
0.108525
0.110239
0.111885
0.0157938
0.0301459
0.037299
0.0421284
0.0458882
0.0490315
0.0517762
0.0542446
0.0565117
0.0586257
0.0606184
0.0625115
0.06432
0.0660545
0.0677229
0.0693313
0.0708849
0.0723884
0.0738463
0.0752632
0.076644
0.077994
0.079319
0.0806255
0.0819203
0.083211
0.0845054
0.0858116
0.0871376
0.0884911
0.0898792
0.0913078
0.0927832
0.0943118
0.0958967
0.0975378
0.0992313
0.10097
0.102744
0.104539
0.106338
0.108121
0.109868
0.111557
0.0158714
0.0301923
0.0374092
0.042299
0.0461157
0.0493115
0.0521022
0.0546085
0.0569046
0.0590389
0.0610437
0.0629417
0.0647488
0.0664764
0.0681332
0.0697257
0.0712592
0.0727384
0.0741674
0.0755504
0.0768918
0.0781964
0.0794693
0.0807166
0.0819448
0.0831616
0.084375
0.0855937
0.0868268
0.0880836
0.0893729
0.0907028
0.0920823
0.0935196
0.0950199
0.096585
0.098213
0.0998984
0.101632
0.103399
0.105185
0.106969
0.108729
0.110441
0.0157883
0.0299939
0.0372382
0.0421672
0.0460257
0.0492628
0.052092
0.0546323
0.0569567
0.0591129
0.0611333
0.0630407
0.0648515
0.0665776
0.0682279
0.0698091
0.0713267
0.0727851
0.0741882
0.0755398
0.0768435
0.0781036
0.0793247
0.0805122
0.0816723
0.0828123
0.0839404
0.0850658
0.0861984
0.0873487
0.0885275
0.0897452
0.0910135
0.0923423
0.093739
0.095207
0.0967463
0.0983531
0.100019
0.101733
0.103478
0.105236
0.106987
0.108697
0.0155517
0.0295822
0.0368332
0.0417939
0.0456905
0.0489674
0.0518354
0.0544117
0.0567682
0.0589517
0.0609943
0.0629186
0.064741
0.0664733
0.0681247
0.0697019
0.0712103
0.0726542
0.0740372
0.0753625
0.0766335
0.0778537
0.079027
0.0801584
0.0812533
0.0823188
0.0833628
0.0843947
0.085425
0.0864651
0.0875276
0.0886251
0.0897716
0.0909785
0.0922558
0.0936079
0.0950352
0.0965364
0.0981053
0.0997313
0.1014
0.103092
0.104787
0.106459
0.0151559
0.0289745
0.0362337
0.0412348
0.0451787
0.0485036
0.0514184
0.054039
0.0564361
0.0586561
0.0607304
0.0626814
0.0645252
0.0662738
0.0679361
0.0695189
0.0710275
0.0724659
0.0738375
0.0751454
0.0763923
0.0775813
0.0787157
0.0797996
0.0808383
0.0818378
0.0828059
0.0837516
0.0846857
0.0856202
0.0865686
0.0875457
0.0885656
0.08964
0.0907787
0.0919891
0.093275
0.0946368
0.096071
0.0975694
0.0991202
0.100707
0.102312
0.103913
0.0147018
0.028173
0.0354625
0.0405261
0.0445364
0.0479266
0.0509038
0.053583
0.0560344
0.058304
0.0604231
0.0624138
0.0642922
0.0660701
0.0677565
0.069358
0.0708798
0.072326
0.0736997
0.0750036
0.0762402
0.077412
0.0785219
0.0795733
0.0805706
0.0815194
0.0824265
0.0833005
0.0841516
0.084992
0.0858351
0.0866972
0.08759
0.0885249
0.0895125
0.0905616
0.0916785
0.0928668
0.0941267
0.0954547
0.0968437
0.0982824
0.0997564
0.101248
0.0140983
0.0271596
0.0344981
0.0396608
0.0437716
0.0472567
0.050322
0.0530826
0.055609
0.0579476
0.0601299
0.0621783
0.0641091
0.0659342
0.0676626
0.0693011
0.0708549
0.0723278
0.0737229
0.0750427
0.0762893
0.0774648
0.0785714
0.0796118
0.0805895
0.0815091
0.0823765
0.083199
0.0839861
0.0847492
0.0855017
0.0862554
0.0870205
0.0878078
0.0886278
0.0894907
0.0904057
0.0913808
0.092422
0.0935327
0.0947126
0.0959576
0.0972585
0.0986017
0.0134143
0.0260816
0.0334623
0.0387401
0.0429721
0.046573
0.0497465
0.0526076
0.0552277
0.0576536
0.0599178
0.0620432
0.0640465
0.0659401
0.0677331
0.0694325
0.0710433
0.0725694
0.0740137
0.0753782
0.0766647
0.0778745
0.0790093
0.0800707
0.0810612
0.0819838
0.082843
0.0836445
0.0843961
0.085108
0.0857866
0.0864391
0.0870741
0.0877014
0.0883319
0.0889781
0.0896539
0.090374
0.0911528
0.0920032
0.092934
0.0939489
0.095045
0.0962126
0.0126765
0.024995
0.0324051
0.0378028
0.0421674
0.0458981
0.049195
0.0521729
0.0549035
0.0574346
0.0597994
0.0620217
0.0641188
0.0661035
0.0679851
0.0697705
0.0714649
0.0730718
0.0745937
0.0760321
0.077388
0.0786621
0.0798547
0.0809664
0.0819981
0.0829512
0.0838283
0.0846332
0.0853718
0.0860467
0.0866563
0.0872063
0.0877038
0.0881585
0.0885838
0.088997
0.0894191
0.0898741
0.0903863
0.0909782
0.0916671
0.0924629
0.0933664
0.0943696
0.0119158
0.0239328
0.0313495
0.0368587
0.0413587
0.0452292
0.0486645
0.0517775
0.0546393
0.0572982
0.059788
0.0621328
0.0643504
0.0664539
0.0684526
0.0703532
0.0721604
0.0738772
0.0755052
0.077045
0.0784964
0.0798588
0.0811311
0.0823122
0.083401
0.084397
0.0853007
0.0861137
0.0868358
0.0874547
0.0879723
0.0883927
0.0887239
0.088979
0.0891772
0.0893443
0.0895112
0.0897121
0.0899808
0.0903471
0.090833
0.0914504
0.0922
0.093072
0.0111664
0.0229283
0.0303323
0.0359424
0.0405813
0.0446053
0.0481995
0.0514724
0.0544934
0.0573102
0.0599564
0.0624564
0.0648278
0.0670832
0.0692314
0.0712784
0.0732276
0.0750808
0.0768382
0.0784989
0.0800609
0.0815219
0.0828787
0.0841281
0.0852672
0.0862933
0.0872048
0.0879976
0.0886509
0.0891636
0.0895374
0.0897792
0.0899023
0.0899278
0.0898849
0.0898103
0.0897451
0.0897319
0.0898101
0.0900114
0.0903569
0.0908554
0.0915032
0.0922861
0.0104661
0.0220215
0.0294158
0.0351347
0.0399323
0.0441376
0.0479236
0.0513929
0.0546124
0.0576281
0.0604727
0.0631693
0.0657343
0.0681785
0.070509
0.0727297
0.0748422
0.076846
0.0787395
0.0805196
0.0821825
0.0837238
0.0851384
0.0864213
0.0875682
0.0885755
0.0894323
0.0901149
0.0906211
0.0909525
0.0911165
0.0911279
0.0910102
0.090796
0.0905258
0.0902459
0.0900041
0.0898458
0.0898091
0.0899214
0.0901971
0.0906378
0.0912333
0.0919642
0.0098576
0.021276
0.0287127
0.0345929
0.0396034
0.0440458
0.0480817
0.0518081
0.0552876
0.0585627
0.0616621
0.0646053
0.0674047
0.0700678
0.0725983
0.0749975
0.0772647
0.0793975
0.0813925
0.0832456
0.0849518
0.0865058
0.0879019
0.0891348
0.0902019
0.0910824
0.0917581
0.0922286
0.0924977
0.0925756
0.0924799
0.0922371
0.0918826
0.0914594
0.0910158
0.0906019
0.0902653
0.0900465
0.089976
0.0900714
0.0903376
0.0907679
0.0913456
0.0920476
0.00938567
0.0208268
0.0284477
0.0346225
0.0399715
0.0447727
0.0491774
0.0532725
0.0571106
0.0607245
0.0641353
0.0673559
0.0703941
0.0732546
0.0759395
0.07845
0.0807857
0.0829455
0.0849278
0.0867299
0.0883489
0.0897814
0.0910251
0.0920734
0.0929017
0.0935062
0.0938901
0.0940612
0.0940334
0.0938278
0.0934731
0.0930061
0.09247
0.0919123
0.0913819
0.0909249
0.090581
0.0903805
0.090342
0.0904723
0.0907669
0.091212
0.0917871
0.0924673
0.00908828
0.0209903
0.0291521
0.0359623
0.0419623
0.0473929
0.0523817
0.0569945
0.0612683
0.0652289
0.0688961
0.0722859
0.0754121
0.0782869
0.0809213
0.0833246
0.0855045
0.0874672
0.0892181
0.0907592
0.0920939
0.0932231
0.0941308
0.0948094
0.0952652
0.0955058
0.0955427
0.0953926
0.0950783
0.094629
0.09408
0.0934719
0.0928484
0.0922539
0.0917303
0.0913138
0.0910321
0.0909033
0.0909348
0.0911238
0.0914593
0.0919234
0.0924944
0.093148
0.00913716
0.0226716
0.0324992
0.0408446
0.0481036
0.0544735
0.0600974
0.0650726
0.0694784
0.0733867
0.0768588
0.0799467
0.0826943
0.0851382
0.0873086
0.0892285
0.0909159
0.0923846
0.0936503
0.0947128
0.0955674
0.0962111
0.0966536
0.0969008
0.0969619
0.0968493
0.0965795
0.0961738
0.0956586
0.0950648
0.0944277
0.0937846
0.0931735
0.0926299
0.092185
0.0918632
0.0916806
0.0916448
0.0917546
0.0920014
0.0923707
0.0928436
0.093399
0.0940151
0.0101207
0.0303266
0.0436198
0.0543125
0.0625499
0.0689499
0.0740243
0.0781366
0.0815332
0.0843887
0.0868156
0.0888963
0.0906912
0.092246
0.0935933
0.0947529
0.0957384
0.0965577
0.0972092
0.0977009
0.0980375
0.0982211
0.0982567
0.0981509
0.0979133
0.0975567
0.0970982
0.0965589
0.0959635
0.0953402
0.094719
0.0941305
0.0936037
0.0931643
0.092833
0.0926241
0.092545
0.0925961
0.0927714
0.0930594
0.0934449
0.0939097
0.0944346
0.0950008
0.018501
0.047911
0.0627375
0.0721289
0.0784234
0.0828666
0.0862124
0.088839
0.0909457
0.0926534
0.0940571
0.095223
0.0961977
0.097012
0.0976866
0.0982379
0.0986749
0.0990021
0.0992195
0.0993287
0.0993312
0.0992289
0.0990256
0.0987273
0.0983432
0.0978855
0.0973698
0.0968149
0.0962422
0.0956749
0.095137
0.0946516
0.0942397
0.0939187
0.0937015
0.0935953
0.0936021
0.0937183
0.0939357
0.0942424
0.0946234
0.0950627
0.0955433
0.096049
0.0467177
0.0528742
0.0608244
0.0689598
0.0761741
0.0820263
0.0865454
0.0899626
0.0925373
0.0944864
0.0959736
0.0971167
0.0979983
0.0986757
0.0991883
0.099564
0.0998215
0.0999732
0.100027
0.0999893
0.0998647
0.0996586
0.0993772
0.0990281
0.0986214
0.0981691
0.0976858
0.0971881
0.0966941
0.0962225
0.0957919
0.0954197
0.0951205
0.0949061
0.0947838
0.0947567
0.0948237
0.0949794
0.0952148
0.0955186
0.0958771
0.0962761
0.096701
0.0971382
0.0755357
0.0758598
0.0771167
0.0792268
0.0819632
0.0849702
0.0879109
0.0905691
0.0928506
0.0947415
0.0962706
0.0974841
0.0984301
0.0991525
0.0996881
0.100067
0.100312
0.100442
0.10047
0.100409
0.100268
0.100057
0.0997828
0.099457
0.09909
0.0986941
0.0982828
0.0978704
0.0974721
0.0971028
0.0967768
0.0965068
0.096303
0.0961727
0.0961201
0.0961455
0.0962461
0.0964159
0.0966461
0.0969262
0.0972443
0.0975879
0.0979447
0.0983033
0.0949763
0.0938787
0.0931527
0.0928674
0.0930425
0.0936182
0.0944781
0.0954929
0.0965497
0.0975644
0.0984833
0.0992776
0.0999368
0.100461
0.100859
0.101138
0.101312
0.10139
0.101382
0.1013
0.101151
0.100945
0.100691
0.100399
0.100079
0.0997421
0.0993998
0.0990641
0.0987471
0.0984602
0.0982139
0.0980172
0.097877
0.0977975
0.0977806
0.0978251
0.0979273
0.0980812
0.0982788
0.0985106
0.0987665
0.0990356
0.0993078
0.0995736
0.10987
0.108255
0.106818
0.105602
0.104643
0.103952
0.103509
0.103275
0.103199
0.103229
0.103318
0.10343
0.103536
0.103617
0.10366
0.103659
0.103611
0.103516
0.103374
0.10319
0.102968
0.102713
0.102431
0.102129
0.101815
0.101496
0.101182
0.100882
0.100603
0.100355
0.100144
0.099976
0.0998553
0.099784
0.0997622
0.0997877
0.0998566
0.099963
0.1001
0.100258
0.10043
0.100606
0.100778
0.100937
0.122445
0.120526
0.118719
0.117045
0.115525
0.114176
0.113004
0.112003
0.111156
0.110441
0.109836
0.109315
0.108856
0.108441
0.108054
0.107684
0.107322
0.106962
0.106599
0.106232
0.10586
0.105485
0.105108
0.104732
0.104363
0.104004
0.103661
0.103339
0.103044
0.10278
0.102552
0.102363
0.102214
0.102106
0.102038
0.102007
0.102008
0.102036
0.102085
0.102147
0.102215
0.10228
0.102336
0.102377
0.133559
0.131421
0.129371
0.127417
0.125571
0.123844
0.122244
0.120774
0.119433
0.118213
0.117105
0.116096
0.115174
0.114327
0.113543
0.112811
0.112123
0.111472
0.110853
0.11026
0.109691
0.109145
0.108621
0.108118
0.107639
0.107186
0.106759
0.106363
0.105999
0.105669
0.105375
0.105117
0.104897
0.104712
0.10456
0.104438
0.104341
0.104264
0.104202
0.104147
0.104092
0.104033
0.103961
0.103872
0.143598
0.141289
0.139058
0.136909
0.134846
0.132876
0.131005
0.129236
0.127572
0.126013
0.124554
0.123192
0.121919
0.120731
0.119618
0.118575
0.117594
0.116671
0.1158
0.114976
0.114196
0.113458
0.112759
0.112098
0.111474
0.110888
0.110339
0.109827
0.109353
0.108917
0.108518
0.108155
0.107827
0.107531
0.107265
0.107025
0.106805
0.106602
0.106409
0.106221
0.106031
0.105834
0.105624
0.105397
0.152749
0.150305
0.147935
0.145639
0.143419
0.141279
0.139222
0.13725
0.135367
0.133573
0.131868
0.130251
0.12872
0.127271
0.1259
0.124603
0.123377
0.122217
0.121119
0.12008
0.119096
0.118166
0.117285
0.116454
0.115669
0.114929
0.114234
0.113582
0.112971
0.112401
0.11187
0.111375
0.110914
0.110485
0.110083
0.109704
0.109344
0.108998
0.108661
0.108328
0.107992
0.107649
0.107295
0.106925
0.161104
0.158555
0.156076
0.153668
0.15133
0.149064
0.146872
0.144756
0.142716
0.140755
0.138873
0.137071
0.135347
0.1337
0.132128
0.13063
0.129203
0.127844
0.126551
0.125321
0.124151
0.12304
0.121985
0.120983
0.120034
0.119135
0.118283
0.117478
0.116717
0.115998
0.115319
0.114676
0.114067
0.113489
0.112937
0.112408
0.111896
0.111398
0.110908
0.110422
0.109935
0.109442
0.108939
0.108422
0.168707
0.166078
0.163517
0.161023
0.158595
0.156235
0.153942
0.151718
0.149564
0.14748
0.145467
0.143526
0.141656
0.139858
0.13813
0.136472
0.134881
0.133358
0.131899
0.130504
0.129169
0.127894
0.126677
0.125515
0.124406
0.123349
0.122341
0.121381
0.120465
0.119592
0.118758
0.117961
0.117197
0.116463
0.115754
0.115068
0.1144
0.113745
0.113098
0.112457
0.111815
0.11117
0.110518
0.109854
0.175574
0.172889
0.170269
0.167712
0.165218
0.162786
0.160418
0.158113
0.155872
0.153695
0.151583
0.149536
0.147554
0.145638
0.143786
0.142
0.140277
0.138617
0.137019
0.135481
0.134003
0.132582
0.131217
0.129907
0.12865
0.127443
0.126285
0.125173
0.124105
0.123078
0.12209
0.121138
0.120218
0.119328
0.118463
0.117619
0.116793
0.115981
0.115179
0.114383
0.113589
0.112793
0.111992
0.111184
0.181219
0.178506
0.175853
0.173259
0.170725
0.168249
0.165831
0.163473
0.161173
0.158934
0.156754
0.154634
0.152574
0.150574
0.148634
0.146754
0.144933
0.143171
0.141467
0.13982
0.138228
0.136691
0.135207
0.133775
0.132393
0.131059
0.129771
0.128528
0.127326
0.126164
0.125039
0.123948
0.122888
0.121855
0.120847
0.119861
0.118891
0.117936
0.116991
0.116054
0.115119
0.114186
0.113249
0.112308
0.186245
0.183515
0.180841
0.178222
0.175658
0.173149
0.170694
0.168294
0.16595
0.16366
0.161425
0.159245
0.157121
0.155052
0.153038
0.151079
0.149175
0.147325
0.145528
0.143784
0.142091
0.14045
0.138858
0.137314
0.135818
0.134366
0.132958
0.131591
0.130264
0.128974
0.127718
0.126495
0.125302
0.124134
0.122991
0.121868
0.120763
0.119672
0.118592
0.11752
0.116453
0.115389
0.114325
0.113258
0.191233
0.188492
0.185803
0.183165
0.180577
0.17804
0.175553
0.173116
0.17073
0.168393
0.166107
0.163871
0.161685
0.159549
0.157463
0.155427
0.15344
0.151501
0.149612
0.14777
0.145975
0.144227
0.142523
0.140864
0.139248
0.137673
0.136138
0.134642
0.133182
0.131756
0.130363
0.129
0.127665
0.126355
0.125068
0.123801
0.122551
0.121316
0.120094
0.118881
0.117675
0.116474
0.115275
0.114077
0.195919
0.193178
0.190484
0.187835
0.185233
0.182675
0.180164
0.177697
0.175275
0.172898
0.170566
0.168278
0.166035
0.163837
0.161683
0.159573
0.157506
0.155483
0.153503
0.151565
0.149669
0.147815
0.146
0.144225
0.142488
0.140789
0.139126
0.137497
0.135901
0.134337
0.132802
0.131295
0.129815
0.128358
0.126923
0.125509
0.124111
0.122729
0.12136
0.120003
0.118654
0.117313
0.115977
0.199982
0.197251
0.194561
0.191911
0.189301
0.186732
0.184202
0.181712
0.179262
0.176851
0.174479
0.172146
0.169852
0.167596
0.165379
0.1632
0.161059
0.158956
0.15689
0.154861
0.152868
0.150911
0.148989
0.147101
0.145247
0.143426
0.141637
0.139878
0.138149
0.136448
0.134775
0.133127
0.131503
0.129901
0.128321
0.12676
0.125217
0.123689
0.122176
0.120676
0.119187
0.117707
0.116236
0.203046
0.200328
0.197644
0.194997
0.192384
0.189806
0.187262
0.184752
0.182277
0.179836
0.177428
0.175053
0.172712
0.170404
0.168129
0.165887
0.163676
0.161498
0.159352
0.157238
0.155154
0.153101
0.151079
0.149086
0.147122
0.145187
0.143279
0.141399
0.139545
0.137716
0.135912
0.134132
0.132373
0.130637
0.12892
0.127222
0.125543
0.123879
0.122232
0.120598
0.118978
0.11737
0.115773
0.204653
0.201934
0.199246
0.196588
0.193962
0.191366
0.188801
0.186265
0.183759
0.181282
0.178835
0.176417
0.174028
0.171667
0.169335
0.167031
0.164754
0.162506
0.160285
0.158092
0.155925
0.153785
0.151672
0.149584
0.147522
0.145486
0.143474
0.141486
0.139522
0.137582
0.135664
0.133768
0.131893
0.130039
0.128205
0.126389
0.124592
0.122813
0.12105
0.119304
0.117572
0.115855
0.114152
0.204057
0.201296
0.198565
0.195863
0.19319
0.190546
0.187931
0.185344
0.182786
0.180255
0.177752
0.175276
0.172827
0.170406
0.168011
0.165642
0.1633
0.160984
0.158694
0.156429
0.15419
0.151976
0.149786
0.147621
0.14548
0.143364
0.14127
0.1392
0.137153
0.135129
0.133126
0.131146
0.129186
0.127248
0.125329
0.123431
0.121552
0.119692
0.11785
0.116026
0.114219
0.112429
0.110655
0.200351
0.197496
0.194674
0.191885
0.189128
0.186403
0.18371
0.181049
0.178419
0.17582
0.173252
0.170714
0.168206
0.165727
0.163278
0.160858
0.158466
0.156102
0.153766
0.151458
0.149176
0.146922
0.144693
0.142491
0.140314
0.138162
0.136036
0.133933
0.131855
0.129801
0.127769
0.125761
0.123775
0.121811
0.119869
0.117948
0.116048
0.114168
0.112308
0.110468
0.108647
0.106844
0.105061
0.194859
0.191917
0.189013
0.186148
0.183321
0.180532
0.17778
0.175065
0.172386
0.169743
0.167135
0.164562
0.162024
0.159519
0.157047
0.154607
0.1522
0.149825
0.14748
0.145165
0.142881
0.140625
0.138399
0.1362
0.134029
0.131886
0.129769
0.127678
0.125613
0.123573
0.121558
0.119567
0.1176
0.115656
0.113735
0.111836
0.109959
0.108104
0.10627
0.104456
0.102663
0.10089
0.099137
0.187329
0.184324
0.181366
0.178455
0.175588
0.172766
0.169987
0.167252
0.164559
0.161908
0.159297
0.156726
0.154193
0.1517
0.149243
0.146823
0.144439
0.14209
0.139775
0.137493
0.135244
0.133026
0.13084
0.128684
0.126558
0.124461
0.122392
0.120351
0.118336
0.116348
0.114386
0.11245
0.110537
0.108649
0.106785
0.104944
0.103125
0.101329
0.0995539
0.0978004
0.0960678
0.0943558
0.0926639
0.177875
0.174855
0.17189
0.168978
0.166119
0.163311
0.160554
0.157845
0.155185
0.152571
0.150002
0.147478
0.144997
0.142558
0.140161
0.137802
0.135483
0.133202
0.130957
0.128747
0.126572
0.124431
0.122323
0.120246
0.1182
0.116184
0.114198
0.11224
0.110309
0.108406
0.106528
0.104677
0.10285
0.101048
0.0992688
0.0975132
0.0957802
0.0940694
0.0923802
0.0907122
0.089065
0.0874382
0.0858315
0.16665
0.163675
0.160761
0.157908
0.155113
0.152376
0.149694
0.147066
0.14449
0.141964
0.139488
0.137059
0.134676
0.132337
0.130042
0.127788
0.125575
0.123401
0.121264
0.119165
0.117101
0.115071
0.113074
0.111109
0.109175
0.107272
0.105397
0.103551
0.101733
0.0999406
0.0981743
0.0964331
0.0947163
0.0930232
0.0913531
0.0897056
0.08808
0.0864759
0.0848927
0.0833299
0.0817873
0.0802643
0.0787607
0.153796
0.150933
0.148138
0.145407
0.142739
0.140131
0.137582
0.135089
0.132651
0.130265
0.127929
0.125642
0.123402
0.121207
0.119056
0.116946
0.114878
0.112848
0.110855
0.108899
0.106977
0.105089
0.103234
0.10141
0.0996155
0.0978503
0.0961133
0.0944033
0.0927196
0.0910613
0.0894275
0.0878174
0.0862305
0.084666
0.0831232
0.0816017
0.0801008
0.07862
0.0771589
0.075717
0.074294
0.0728895
0.0715033
0.139373
0.136695
0.134086
0.131543
0.129064
0.126646
0.124286
0.121983
0.119734
0.117536
0.115388
0.113288
0.111233
0.109222
0.107253
0.105325
0.103435
0.101582
0.0997652
0.0979824
0.0962324
0.0945141
0.092826
0.0911671
0.0895363
0.0879324
0.0863546
0.0848018
0.0832732
0.081768
0.0802852
0.0788243
0.0773845
0.0759652
0.0745659
0.0731858
0.0718246
0.0704818
0.069157
0.0678497
0.0665597
0.0652867
0.0640304
0.123219
0.120801
0.118449
0.116161
0.113935
0.111766
0.109653
0.107593
0.105584
0.103624
0.10171
0.0998396
0.0980119
0.0962246
0.0944758
0.0927638
0.0910872
0.0894442
0.0878336
0.0862538
0.0847036
0.0831817
0.081687
0.0802183
0.0787747
0.0773551
0.0759586
0.0745843
0.0732314
0.0718991
0.0705868
0.0692938
0.0680193
0.066763
0.0655243
0.0643026
0.0630976
0.0619089
0.0607361
0.0595789
0.0584371
0.0573103
0.0561985
0.104619
0.102544
0.100529
0.098571
0.0966684
0.0948182
0.0930175
0.091264
0.0895552
0.0878888
0.0862628
0.0846751
0.0831239
0.0816075
0.0801242
0.0786724
0.0772508
0.0758579
0.0744924
0.0731532
0.071839
0.0705487
0.0692815
0.0680362
0.066812
0.065608
0.0644235
0.0632576
0.0621097
0.0609792
0.0598655
0.0587679
0.0576861
0.0566195
0.0555677
0.0545304
0.0535071
0.0524976
0.0515017
0.050519
0.0495494
0.0485927
0.0476488
0.0811162
0.0795164
0.0779666
0.0764643
0.0750065
0.0735903
0.0722131
0.0708725
0.0695664
0.068293
0.0670505
0.0658374
0.0646521
0.0634933
0.0623598
0.0612503
0.0601637
0.0590991
0.0580553
0.0570315
0.0560267
0.0550402
0.0540711
0.0531187
0.0521823
0.0512614
0.0503551
0.0494631
0.0485847
0.0477195
0.046867
0.0460268
0.0451985
0.0443817
0.0435761
0.0427813
0.0419972
0.0412234
0.0404597
0.0397059
0.0389618
0.0382272
0.0375021
0.0447299
0.0439516
0.0431936
0.0424559
0.0417384
0.0410403
0.0403607
0.0396985
0.0390527
0.0384223
0.0378062
0.0372035
0.0366134
0.0360349
0.0354675
0.0349102
0.0343626
0.0338239
0.0332937
0.0327713
0.0322563
0.0317481
0.0312464
0.0307507
0.0302606
0.0297758
0.0292959
0.0288206
0.0283496
0.0278827
0.0274197
0.0269603
0.0265043
0.0260517
0.0256023
0.025156
0.0247127
0.0242724
0.023835
0.0234007
0.0229693
0.022541
0.0221158
)
;

boundaryField
{
    inlet
    {
        type            fixedValue;
        value           uniform 0.375;
    }
    outlet
    {
        type            zeroGradient;
    }
    upperWall
    {
        type            kqRWallFunction;
        value           nonuniform List<scalar> 
61
(
0.259302
0.17311
0.131351
0.107412
0.0921154
0.0817019
0.0742541
0.0686732
0.0643109
0.0607789
0.0578381
0.055336
0.0531712
0.0512739
0.0495938
0.0480935
0.0467451
0.045531
0.0447299
0.0439516
0.0431936
0.0424559
0.0417384
0.0410403
0.0403607
0.0396985
0.0390527
0.0384223
0.0378062
0.0372035
0.0366134
0.0360349
0.0354675
0.0349102
0.0343626
0.0338239
0.0332937
0.0327713
0.0322563
0.0317481
0.0312464
0.0307507
0.0302606
0.0297758
0.0292959
0.0288206
0.0283496
0.0278827
0.0274197
0.0269603
0.0265043
0.0260517
0.0256023