/*--------------------------------*- C++ -*----------------------------------*\
  =========                 |
  \\      /  F ield         | OpenFOAM: The Open Source CFD Toolbox
   \\    /   O peration     | Website:  https://openfoam.org
    \\  /    A nd           | Version:  6
     \\/     M anipulation  |
\*---------------------------------------------------------------------------*/
FoamFile
{
    version     2.0;
    format      ascii;
    class       volScalarField;
    location    "0.09";
    object      nut;
}
// * * * * * * * * * * * * * * * * * * * * * * * * * * * * * * * * * * * * * //

dimensions      [0 2 -1 0 0 0 0];

internalField   nonuniform List<scalar> 
3032
(
1.77723e-05
1.42682e-05
1.23507e-05
1.11625e-05
1.03604e-05
9.78975e-06
9.36368e-06
9.02982e-06
8.75725e-06
8.52775e-06
8.33023e-06
8.15759e-06
8.00502e-06
7.86915e-06
7.74757e-06
7.63865e-06
7.54368e-06
7.47081e-06
0.000144881
0.000101912
8.78937e-05
8.05341e-05
7.60804e-05
7.31034e-05
7.08055e-05
6.88055e-05
6.6977e-05
6.52931e-05
6.37463e-05
6.23291e-05
6.10338e-05
5.98537e-05
5.87878e-05
5.78223e-05
5.69767e-05
5.63072e-05
0.000323319
0.000223569
0.000189794
0.000172558
0.000162036
0.000154952
0.000149703
0.000145452
0.000141797
0.000138555
0.000135635
0.000132987
0.000130577
0.000128384
0.000126401
0.000124622
0.000123068
0.000121867
0.000493963
0.000355234
0.000299434
0.000269637
0.000251108
0.00023852
0.00022932
0.000222135
0.000216223
0.000211181
0.000206775
0.000202867
0.000199366
0.000196216
0.000193385
0.000190858
0.000188648
0.000186876
0.000624469
0.00047868
0.000407363
0.000366219
0.000339652
0.000321204
0.000307629
0.000297116
0.000288622
0.00028153
0.000275462
0.000270174
0.000265509
0.000261359
0.00025766
0.000254374
0.000251498
0.000249126
0.000713111
0.000583365
0.000506536
0.000457935
0.000424931
0.000401285
0.000383568
0.000369758
0.000358624
0.000349396
0.000341575
0.000334831
0.000328938
0.000323741
0.000319138
0.000315063
0.000311497
0.000308504
0.000769323
0.000665594
0.000592326
0.000541191
0.000504372
0.000476963
0.000455905
0.000439241
0.000425708
0.000414467
0.000404955
0.000396778
0.000389664
0.000383418
0.000377903
0.000373033
0.000368767
0.000365143
0.000803471
0.000726322
0.000662573
0.000613462
0.000575779
0.000546486
0.000523289
0.00050455
0.000489124
0.000476205
0.00046522
0.00045576
0.000447525
0.000440298
0.000433921
0.000428289
0.000423348
0.00041911
0.000823638
0.000768944
0.000717253
0.00067347
0.000637597
0.000608374
0.000584433
0.000564609
0.000547994
0.000533901
0.000521811
0.000511335
0.000502177
0.000494118
0.000486992
0.000480688
0.000475136
0.000470334
0.000835327
0.00079761
0.000757873
0.00072116
0.000689064
0.000661618
0.000638294
0.000618438
0.000601441
0.00058679
0.000574068
0.00056294
0.000553144
0.000544475
0.000536778
0.000529942
0.000523891
0.000518614
0.000842019
0.000816212
0.000786777
0.000757466
0.000730228
0.000705786
0.000684214
0.000665295
0.000648717
0.000634159
0.000621329
0.000609974
0.000599884
0.000590886
0.000582847
0.00057566
0.000569264
0.000563637
0.00084551
0.000826951
0.000804892
0.00078174
0.000759164
0.000738062
0.0007188
0.000701436
0.000685875
0.000671957
0.000659503
0.000648343
0.000638322
0.000629308
0.000621194
0.000613889
0.00060735
0.000601559
0.000847621
0.000833954
0.000817509
0.000799599
0.000781411
0.000763763
0.000747121
0.0007317
0.000717555
0.000704655
0.000692921
0.00068226
0.000672575
0.000663778
0.000655782
0.000648531
0.000641994
0.000636155
0.000848983
0.000838786
0.000826795
0.000813519
0.000799613
0.000785652
0.000772053
0.000759076
0.000746863
0.000735471
0.000724907
0.000715147
0.000706151
0.000697866
0.000690251
0.000683277
0.000676929
0.000671191
0.000849784
0.000841799
0.000832951
0.000823297
0.000813075
0.000802579
0.000792077
0.000781779
0.000771832
0.000762331
0.00075333
0.000744848
0.000736887
0.00072944
0.0007225
0.000716063
0.00071013
0.000704685
0.00085021
0.000843475
0.000836566
0.000829368
0.000821881
0.000814182
0.00080638
0.000798587
0.0007909
0.000783395
0.000776126
0.000769135
0.000762447
0.00075608
0.000750049
0.000744371
0.000739058
0.000734089
0.00085041
0.000844286
0.000838397
0.000832597
0.000826797
0.000820961
0.00081509
0.000809204
0.000803336
0.000797524
0.0007918
0.000786197
0.000780741
0.000775456
0.000770369
0.000765501
0.000760871
0.00075645
0.000850482
0.000844585
0.000839093
0.000833871
0.000828814
0.000823847
0.000818927
0.000814031
0.000809153
0.000804299
0.000799482
0.000794719
0.000790029
0.000785433
0.000780956
0.000776621
0.000772443
0.00076839
0.000850461
0.000844497
0.000838892
0.000833505
0.000828239
0.00082303
0.000817844
0.00081267
0.000807512
0.000802382
0.000797297
0.000792278
0.000787343
0.000782514
0.000777815
0.000773269
0.00076889
0.000764644
0.000850263
0.000843693
0.000837068
0.000830264
0.000823255
0.000816081
0.000808812
0.000801528
0.000794304
0.000787201
0.000780269
0.000773543
0.000767049
0.000760807
0.000754834
0.000749147
0.000743752
0.000738615
0.000849707
0.000841529
0.000832438
0.000822531
0.000812069
0.000801347
0.000790629
0.000780115
0.000769946
0.000760207
0.000750946
0.000742182
0.000733914
0.000726136
0.000718836
0.000712005
0.000705631
0.000699672
0.000848163
0.000835941
0.0008214
0.000805487
0.000789126
0.000773009
0.00075757
0.000743043
0.000729524
0.000717024
0.000705502
0.000694896
0.000685134
0.000676143
0.000667862
0.000660239
0.000653232
0.000646785
0.000844085
0.000822736
0.000797908
0.000772447
0.000748075
0.000725608
0.000705308
0.00068714
0.000670936
0.00065648
0.000643553
0.000631955
0.000621507
0.000612059
0.000603488
0.0005957
0.000588624
0.000582191
0.000833787
0.000794228
0.00075333
0.000715953
0.000683449
0.000655714
0.000632157
0.000612091
0.000594889
0.000580021
0.000567061
0.000555668
0.000545572
0.000536561
0.000528469
0.000521175
0.000514597
0.000508663
0.00080907
0.000738665
0.00067847
0.000630794
0.000593404
0.000563839
0.000540127
0.000520784
0.000504732
0.000491194
0.000479605
0.00046955
0.000460723
0.000452893
0.000445892
0.000439595
0.000433925
0.000428829
0.000753678
0.000642653
0.000568171
0.000517491
0.000481422
0.000454751
0.000434359
0.000418274
0.000405222
0.000394369
0.00038515
0.000377178
0.000370178
0.000363956
0.000358371
0.000353326
0.000348764
0.000344657
0.00064146
0.000499119
0.000426727
0.00038388
0.0003557
0.000335938
0.000321357
0.000310084
0.000301004
0.000293438
0.00028696
0.000281295
0.000276258
0.000271724
0.000267605
0.000263841
0.000260401
0.000257287
0.000448549
0.000320165
0.000270242
0.0002434
0.000226616
0.000215295
0.000207119
0.00020078
0.000195564
0.000191081
0.000187117
0.000183545
0.000180286
0.00017729
0.00017452
0.000171953
0.000169576
0.000167405
0.000203094
0.000143542
0.000122954
0.000111674
0.000104762
0.000100297
9.70909e-05
9.44806e-05
9.21712e-05
9.00538e-05
8.80894e-05
8.62608e-05
8.45577e-05
8.29717e-05
8.14949e-05
8.01192e-05
7.88387e-05
7.76546e-05
2.40294e-05
1.96337e-05
1.71025e-05
1.54658e-05
1.43224e-05
1.34888e-05
1.28595e-05
1.23671e-05
1.19682e-05
1.16352e-05
1.13506e-05
1.11028e-05
1.08839e-05
1.06884e-05
1.05123e-05
1.03526e-05
1.0207e-05
1.00742e-05
2.67444e-06
7.56821e-06
8.64037e-06
9.65512e-06
1.05848e-05
1.12805e-05
1.18808e-05
1.24231e-05
1.29264e-05
1.34034e-05
1.3862e-05
1.43066e-05
1.47394e-05
1.51611e-05
1.55716e-05
1.59707e-05
1.6358e-05
1.67332e-05
1.70961e-05
1.74466e-05
1.7785e-05
1.81114e-05
1.8426e-05
1.87293e-05
1.90216e-05
1.93035e-05
1.95756e-05
1.98384e-05
2.00929e-05
2.03399e-05
2.05805e-05
2.08154e-05
2.10701e-05
2.13119e-05
2.15411e-05
2.17583e-05
2.19636e-05
2.21567e-05
2.23371e-05
2.25043e-05
2.26577e-05
2.27965e-05
2.292e-05
2.30277e-05
4.24087e-06
3.09654e-05
4.74882e-05
5.57906e-05
6.07557e-05
6.44686e-05
6.76391e-05
7.05369e-05
7.33028e-05
7.60358e-05
7.8812e-05
8.16878e-05
8.47007e-05
8.78725e-05
9.12121e-05
9.47186e-05
9.83838e-05
0.000102195
0.000106138
0.000110194
0.000114346
0.000118577
0.000122869
0.000127205
0.000131564
0.000135926
0.000140266
0.000144557
0.000148763
0.000152841
0.000156739
0.000160406
0.000163729
0.00016697
0.000170179
0.00017336
0.000176507
0.000179608
0.000182651
0.000185623
0.000188508
0.000191292
0.000193959
0.000196495
5.33728e-06
4.35416e-05
7.34231e-05
9.16953e-05
0.000103446
0.00011197
0.000119019
0.00012545
0.000131685
0.000137938
0.000144325
0.000150906
0.00015771
0.000164736
0.000171971
0.000179386
0.000186949
0.000194621
0.000202368
0.000210155
0.00021795
0.000225727
0.000233462
0.000241133
0.000248721
0.000256208
0.000263573
0.000270797
0.000277858
0.000284733
0.0002914
0.000297839
0.000304073
0.000310214
0.000316298
0.000322328
0.000328292
0.000334174
0.000339951
0.000345597
0.000351086
0.000356392
0.000361485
0.000366338
6.00558e-06
5.16529e-05
9.20872e-05
0.000119478
0.000138404
0.000152474
0.000163965
0.000174202
0.000183911
0.000193476
0.000203086
0.000212826
0.000222718
0.000232753
0.0002429
0.000253118
0.000263362
0.000273591
0.000283764
0.000293847
0.000303814
0.000313642
0.000323315
0.000332822
0.000342156
0.000351312
0.000360285
0.000369073
0.000377675
0.000386087
0.000394306
0.00040233
0.000410197
0.000417973
0.000425683
0.000433332
0.000440908
0.000448394
0.000455763
0.000462989
0.000470039
0.000476881
0.00048348
0.000489802
6.43776e-06
5.69996e-05
0.000105616
0.00014089
0.000166598
0.000186256
0.000202312
0.000216341
0.000229304
0.00024175
0.000253978
0.000266128
0.000278256
0.000290366
0.000302432
0.00031442
0.000326289
0.000338001
0.000349524
0.000360831
0.000371903
0.000382728
0.000393302
0.000403624
0.0004137
0.000423538
0.000433151
0.000442549
0.000451744
0.000460747
0.000469566
0.000478206
0.000486708
0.00049513
0.0005035
0.000511826
0.000520103
0.000528316
0.000536445
0.000544462
0.000552336
0.000560032
0.000567513
0.000574742
6.74105e-06
6.04455e-05
0.000115263
0.000157084
0.000188788
0.000213622
0.000234008
0.000251616
0.000267541
0.000282468
0.0002968
0.000310759
0.000324451
0.000337916
0.000351157
0.000364155
0.000376883
0.000389316
0.000401432
0.000413213
0.000424651
0.000435743
0.000446496
0.000456921
0.000467033
0.000476855
0.000486408
0.000495717
0.000504806
0.000513696
0.000522406
0.00053095
0.000539375
0.000547742
0.000556088
0.000564433
0.000572782
0.000581127
0.000589454
0.000597741
0.000605958
0.000614073
0.000622048
0.000629843
6.95501e-06
6.25528e-05
0.000121897
0.000168944
0.000205701
0.000235063
0.000259327
0.00028016
0.000298718
0.000315771
0.000331811
0.000347135
0.000361912
0.000376228
0.00039012
0.000403597
0.000416652
0.000429275
0.000441456
0.000453191
0.000464478
0.000475327
0.000485752
0.000495773
0.000505416
0.000514713
0.000523698
0.000532405
0.00054087
0.000549127
0.000557207
0.000565136
0.000572967
0.000580775
0.000588612
0.000596508
0.000604484
0.000612544
0.000620682
0.000628885
0.000637127
0.000645377
0.0006536
0.000661753
7.10175e-06
6.36799e-05
0.000126139
0.00017718
0.00021802
0.000251175
0.000278766
0.0003024
0.000323239
0.0003421
0.000359535
0.000375904
0.000391432
0.000406253
0.000420443
0.00043404
0.000447061
0.000459513
0.000471401
0.000482732
0.000493514
0.000503764
0.000513505
0.000522765
0.000531579
0.000539986
0.000548031
0.000555759
0.000563218
0.000570455
0.000577516
0.00058444
0.000591294
0.000598169
0.000605132
0.000612234
0.00061951
0.00062698
0.000634651
0.000642518
0.000650563
0.000658759
0.000667069
0.00067545
7.19484e-06
6.40618e-05
0.00012845
0.000182367
0.000226359
0.000262567
0.000292911
0.000318901
0.000341672
0.000362052
0.000380628
0.000397805
0.000413854
0.000428951
0.000443208
0.000456693
0.000469447
0.000481496
0.000492858
0.000503551
0.000513593
0.000523008
0.000531825
0.00054008
0.000547813
0.000555072
0.00056191
0.000568384
0.000574554
0.000580481
0.000586226
0.000591847
0.000597428
0.000603078
0.000608888
0.000614927
0.000621252
0.0006279
0.000634895
0.000642242
0.000649932
0.000657943
0.000666237
0.000674768
7.24286e-06
6.38611e-05
0.000129182
0.000184979
0.000231263
0.00026982
0.000302358
0.00033027
0.000354638
0.000376276
0.000395783
0.000413591
0.000430004
0.000445232
0.000459416
0.000472652
0.000485003
0.000496511
0.00050721
0.000517126
0.000526287
0.000534723
0.000542468
0.000549561
0.00055605
0.000561989
0.000567438
0.000572464
0.000577139
0.000581539
0.000585742
0.000589828
0.000593903
0.0005981
0.000602533
0.000607298
0.000612475
0.000618123
0.000624283
0.000630975
0.0006382
0.000645939
0.000654154
0.000662792
7.25128e-06
6.31961e-05
0.000128611
0.000185411
0.000233206
0.000273458
0.000307666
0.000337092
0.000362745
0.000385406
0.000405668
0.000423974
0.000440645
0.000455917
0.000469953
0.000482871
0.000494753
0.000505657
0.000515629
0.000524704
0.000532918
0.000540304
0.0005469
0.000552751
0.000557906
0.000562425
0.000566373
0.000569826
0.000572868
0.00057559
0.000578087
0.00058046
0.000582852
0.00058542
0.000588306
0.000591637
0.000595518
0.000600036
0.00060525
0.000611198
0.000617889
0.000625308
0.000633416
0.000642148
7.22347e-06
6.21567e-05
0.00012696
0.000183995
0.000232596
0.000273946
0.000309337
0.000339896
0.000366543
0.000390013
0.000410877
0.000429571
0.000446428
0.000461693
0.000475547
0.000488124
0.000499521
0.000509809
0.000519044
0.00052727
0.000534527
0.000540852
0.000546286
0.000550876
0.000554672
0.000557736
0.000560139
0.000561963
0.000563301
0.000564256
0.000564946
0.000565492
0.000566084
0.000566907
0.000568136
0.000569931
0.00057243
0.000575745
0.000579959
0.000585122
0.000591255
0.000598348
0.000606365
0.0006152
7.16091e-06
6.08096e-05
0.0001244
0.000180997
0.00022977
0.000271666
0.000307784
0.000339111
0.000366473
0.000390545
0.000411861
0.000430845
0.000447823
0.000463045
0.000476702
0.000488937
0.00049986
0.00050955
0.000518072
0.000525476
0.000531807
0.000537105
0.000541413
0.000544775
0.000547246
0.000548885
0.000549765
0.000549972
0.000549607
0.000548786
0.000547641
0.000546326
0.000545084
0.000544134
0.000543681
0.000543926
0.000545044
0.00054717
0.000550405
0.000554811
0.00056041
0.000567186
0.000575082
0.000584005
7.06327e-06
5.9143e-05
0.00012101
0.000176587
0.000224963
0.000266891
0.000303294
0.000335025
0.000362812
0.00038726
0.000408863
0.000428015
0.000445033
0.000460163
0.000473597
0.000485485
0.000495942
0.000505056
0.000512899
0.000519526
0.000524985
0.000529319
0.00053257
0.000534784
0.000536013
0.000536315
0.000535763
0.000534445
0.000532465
0.000529948
0.000527043
0.000523949
0.00052097
0.000518354
0.000516344
0.000515163
0.000515009
0.000516043
0.000518384
0.000522105
0.000527232
0.000533743
0.000541576
0.000550629
6.95134e-06
5.6625e-05
0.000116333
0.000170459
0.000217981
0.000259498
0.000295785
0.000327571
0.00035549
0.000380075
0.000401772
0.000420946
0.000437892
0.000452849
0.000466008
0.00047752
0.000487505
0.000496056
0.00050325
0.000509148
0.0005138
0.000517252
0.000519547
0.000520731
0.000520852
0.00051997
0.000518155
0.000515492
0.000512089
0.00050807
0.000503583
0.000498961
0.000494497
0.000490477
0.000487169
0.00048482
0.000483648
0.000483827
0.000485489
0.000488713
0.000493528
0.000499909
0.000507789
0.000517056
6.80156e-06
5.35428e-05
0.000110383
0.000162478
0.000208617
0.000249227
0.000284941
0.000316367
0.000344044
0.000368439
0.000389944
0.000408892
0.000425559
0.00044017
0.000452914
0.000463942
0.000473377
0.000481319
0.000487847
0.000493028
0.000496916
0.000499559
0.000501
0.000501286
0.000500463
0.000498588
0.000495728
0.000491966
0.000487409
0.000482188
0.000476481
0.000470738
0.000465252
0.000460316
0.000456206
0.000453176
0.000451448
0.000451201
0.000452567
0.000455628
0.000460413
0.000466897
0.000475008
0.000484629
6.63059e-06
5.04304e-05
0.000103987
0.000153553
0.000197769
0.000236904
0.000271461
0.000301946
0.00032882
0.000352489
0.000373308
0.000391583
0.000407574
0.000421502
0.00043355
0.000443873
0.000452597
0.000459825
0.000465642
0.000470116
0.000473304
0.000475256
0.000476013
0.00047562
0.000474119
0.000471563
0.000468011
0.000463541
0.000458251
0.000452258
0.000446011
0.000439853
0.000434074
0.000428956
0.000424765
0.000421744
0.000420102
0.000420013
0.000421604
0.000424955
0.000430096
0.000437002
0.0004456
0.000455767
6.44351e-06
4.75263e-05
9.7635e-05
0.000144334
0.000186189
0.000223329
0.000256149
0.000285075
0.000310515
0.000332844
0.000352399
0.000369477
0.000384338
0.000397203
0.000408261
0.000417668
0.000425553
0.000432023
0.000437162
0.00044104
0.000443711
0.000445221
0.000445609
0.000444912
0.000443166
0.000440415
0.000436708
0.000432112
0.000426708
0.000420801
0.000414871
0.000409174
0.000403972
0.000399517
0.000396047
0.000393779
0.000392906
0.000393587
0.000395942
0.000400049
0.000405936
0.000413578
0.000422896
0.000433763
6.24703e-06
4.49491e-05
9.15828e-05
0.000135121
0.000174141
0.000208677
0.000239054
0.000265666
0.000288916
0.000309185
0.000326825
0.000342148
0.000355424
0.000366883
0.000376717
0.000385083
0.000392108
0.000397891
0.00040251
0.000406025
0.000408481
0.000409914
0.000410349
0.000409812
0.000408325
0.000405917
0.000402622
0.000398492
0.000393707
0.000388825
0.000384065
0.000379649
0.000375798
0.000372729
0.000370647
0.000369746
0.000370199
0.000372154
0.000375725
0.000380981
0.000387944
0.000396582
0.000406809
0.00041849
6.04948e-06
4.28043e-05
8.60317e-05
0.00012607
0.000161629
0.000192744
0.00021977
0.00024316
0.000263379
0.000280865
0.00029601
0.00030915
0.000320567
0.000330488
0.000339097
0.000346533
0.000352906
0.000358292
0.000362749
0.000366313
0.000369009
0.000370849
0.000371841
0.000371989
0.000371295
0.000369765
0.000367417
0.000364383
0.000361213
0.000358077
0.000355153
0.000352621
0.000350667
0.000349475
0.000349229
0.000350105
0.000352263
0.000355839
0.000360936
0.000367609
0.000375866
0.000385659
0.000396889
0.000409413
5.86109e-06
4.11777e-05
8.10269e-05
0.000116972
0.000148093
0.000174668
0.000197268
0.000216523
0.000233021
0.00024727
0.000259692
0.000270619
0.000280311
0.00028896
0.000296708
0.000303655
0.000309864
0.000315374
0.000320205
0.000324358
0.000327828
0.000330599
0.000332653
0.000333971
0.000334527
0.0003343
0.000333462
0.000332466
0.00033143
0.000330482
0.000329765
0.000329433
0.000329647
0.000330577
0.000332392
0.000335257
0.000339319
0.000344697
0.000351474
0.000359681
0.000369304
0.000380273
0.000392477
0.000405766
5.69451e-06
4.00837e-05
7.61591e-05
0.0001068
0.00013206
0.000152864
0.000170187
0.000184872
0.000197582
0.00020882
0.000218954
0.000228244
0.000236866
0.000244936
0.00025252
0.000259652
0.000266339
0.000272571
0.000278324
0.000283564
0.000288254
0.000292353
0.000295819
0.000298618
0.000300679
0.000302278
0.00030369
0.000304987
0.00030626
0.000307618
0.000309189
0.000311114
0.000313545
0.000316644
0.000320569
0.00032547
0.000331473
0.000338672
0.000347118
0.000356816
0.000367721
0.000379748
0.000392774
0.000406653
5.56383e-06
3.92551e-05
6.99744e-05
9.33806e-05
0.000111486
0.000126063
0.000138353
0.000149182
0.000159087
0.000168409
0.000177357
0.00018605
0.000194549
0.000202871
0.000211006
0.000218925
0.000226587
0.000233941
0.000240931
0.000247502
0.000253593
0.000259151
0.000264106
0.000268468
0.000272517
0.000276331
0.000279955
0.000283459
0.000286929
0.000290471
0.000294208
0.000298277
0.000302826
0.000308004
0.000313952
0.000320794
0.000328627
0.000337511
0.000347462
0.000358456
0.000370427
0.000383277
0.000396885
0.000411113
5.48194e-06
3.73993e-05
5.97447e-05
7.47953e-05
8.63826e-05
9.6306e-05
0.000105461
0.000114307
0.000123081
0.000131894
0.000140789
0.000149766
0.000158799
0.000167842
0.000176842
0.000185735
0.000194459
0.000202947
0.000211123
0.000218933
0.0002263
0.000233172
0.000239677
0.000245911
0.000251876
0.000257604
0.000263146
0.000268574
0.000273975
0.000279455
0.000285134
0.000291143
0.000297613
0.000304673
0.000312437
0.000320997
0.000330413
0.00034071
0.000351876
0.000363863
0.000376595
0.000389973
0.000403883
0.000418203
5.51533e-06
3.15913e-05
4.49892e-05
5.44862e-05
6.29252e-05
7.10815e-05
7.93037e-05
8.77399e-05
9.64427e-05
0.000105415
0.000114634
0.00012406
0.000133637
0.0001433
0.000152981
0.000162612
0.000172126
0.000181457
0.000190507
0.000199257
0.000207729
0.000215957
0.000223912
0.000231602
0.000239049
0.00024629
0.000253382
0.000260394
0.000267414
0.000274541
0.000281885
0.000289557
0.000297669
0.000306319
0.000315588
0.000325533
0.000336182
0.000347533
0.000359553
0.000372182
0.000385344
0.000398946
0.000412887
0.000427067
5.82408e-06
2.41276e-05
3.337e-05
4.14545e-05
4.91449e-05
5.67895e-05
6.47144e-05
7.30375e-05
8.17725e-05
9.08808e-05
0.000100315
0.000110011
0.000119899
0.000129906
0.00013996
0.000149999
0.000159967
0.000169816
0.000179534
0.000189077
0.000198414
0.000207535
0.000216439
0.000225135
0.00023365
0.000242021
0.000250302
0.000258559
0.00026687
0.000275321
0.000284002
0.000293001
0.000302401
0.000312271
0.00032266
0.000333597
0.000345084
0.000357102
0.000369607
0.00038254
0.000395826
0.000409385
0.000423133
0.000436985
7.97205e-06
1.91127e-05
2.70715e-05
3.45367e-05
4.21706e-05
5.02506e-05
5.88401e-05
6.78832e-05
7.72853e-05
8.69605e-05
9.68357e-05
0.000106854
0.000116971
0.000127149
0.000137355
0.000147553
0.000157707
0.000167786
0.000177768
0.000187632
0.000197361
0.000206948
0.000216396
0.000225716
0.000234932
0.00024408
0.000253205
0.000262363
0.000271618
0.000281035
0.000290685
0.00030063
0.000310925
0.000321613
0.00033272
0.000344253
0.000356199
0.000368528
0.000381196
0.000394144
0.000407307
0.000420617
0.000434003
0.000447395
1.10306e-05
1.67581e-05
2.47085e-05
3.43068e-05
4.46908e-05
5.51999e-05
6.55302e-05
7.56272e-05
8.55443e-05
9.53572e-05
0.000105129
0.0001149
0.000124693
0.000134516
0.000144369
0.000154242
0.000164121
0.000173988
0.00018383
0.000193633
0.000203386
0.000213087
0.000222737
0.000232346
0.000241935
0.000251531
0.000261169
0.000270891
0.000280743
0.000290774
0.00030103
0.000311553
0.000322375
0.000333518
0.000344989
0.000356781
0.000368875
0.000381234
0.000393815
0.000406566
0.000419428
0.000432343
0.000445253
0.0004581
5.87715e-05
6.25795e-05
6.73012e-05
7.28713e-05
7.92292e-05
8.62192e-05
9.36589e-05
0.000101406
0.000109375
0.000117524
0.000125834
0.0001343
0.000142918
0.000151681
0.000160581
0.000169607
0.000178744
0.000187977
0.00019729
0.000206671
0.000216108
0.000225595
0.000235131
0.000244721
0.000254376
0.000264112
0.000273952
0.000283924
0.000294055
0.000304376
0.000314912
0.000325687
0.000336714
0.000347998
0.000359534
0.000371307
0.000383289
0.000395446
0.000407734
0.000420107
0.000432514
0.000444906
0.000457233
0.000469446
0.000122656
0.00012429
0.000126455
0.000129083
0.000132176
0.000135752
0.000139816
0.000144365
0.00014938
0.000154837
0.000160707
0.000166965
0.000173585
0.000180544
0.000187818
0.000195382
0.000203214
0.000211289
0.000219587
0.000228087
0.000236772
0.000245629
0.000254648
0.000263825
0.00027316
0.000282655
0.00029232
0.000302164
0.0003122
0.000322438
0.000332889
0.000343556
0.000354439
0.000365531
0.000376817
0.000388275
0.000399874
0.000411581
0.000423354
0.000435151
0.000446929
0.000458645
0.000470255
0.000481719
0.000186817
0.000187361
0.00018821
0.000189327
0.000190706
0.000192362
0.000194327
0.000196645
0.000199356
0.00020249
0.000206069
0.000210102
0.00021459
0.000219526
0.000224897
0.000230685
0.00023687
0.000243429
0.000250341
0.000257582
0.000265132
0.000272972
0.000281084
0.000289456
0.000298075
0.000306935
0.000316029
0.000325353
0.000334904
0.000344678
0.00035467
0.000364871
0.000375268
0.000385845
0.000396579
0.000407444
0.000418408
0.000429436
0.00044049
0.000451532
0.000462522
0.000473423
0.000484197
0.000494808
0.000248473
0.000248382
0.00024847
0.000248726
0.000249151
0.000249754
0.000250558
0.000251596
0.000252908
0.000254535
0.000256519
0.000258892
0.000261682
0.000264907
0.000268578
0.000272696
0.000277258
0.000282256
0.000287677
0.000293506
0.000299724
0.000306315
0.000313261
0.000320543
0.000328146
0.000336055
0.000344253
0.000352727
0.000361464
0.000370447
0.000379661
0.000389088
0.000398706
0.000408491
0.000418418
0.000428455
0.000438569
0.000448726
0.00045889
0.000469025
0.000479093
0.000489062
0.000498898
0.000508567
0.000307312
0.000306744
0.000306294
0.000305963
0.000305756
0.000305685
0.000305764
0.000306018
0.000306474
0.000307165
0.000308129
0.000309398
0.000311008
0.000312985
0.000315355
0.000318134
0.000321335
0.000324963
0.000329019
0.000333499
0.000338396
0.000343698
0.000349392
0.000355464
0.000361897
0.000368673
0.000375776
0.000383186
0.000390884
0.000398849
0.000407058
0.000415487
0.000424111
0.000432902
0.000441829
0.000450861
0.000459965
0.000469105
0.000478247
0.000487356
0.0004964
0.000505345
0.000514162
0.000522819
0.00036342
0.000362421
0.000361519
0.000360716
0.000360018
0.000359435
0.000358982
0.000358674
0.000358533
0.000358584
0.000358852
0.000359367
0.000360155
0.000361247
0.000362665
0.000364434
0.000366571
0.000369091
0.000372004
0.000375314
0.000379023
0.000383128
0.000387623
0.000392498
0.000397741
0.000403338
0.000409272
0.000415524
0.000422074
0.0004289
0.000435977
0.000443279
0.00045078
0.00045845
0.000466257
0.000474171
0.000482157
0.000490183
0.000498214
0.000506219
0.000514165
0.000522024
0.000529765
0.00053736
0.000416862
0.000415447
0.000414127
0.000412901
0.000411776
0.000410759
0.000409861
0.000409095
0.000408478
0.000408027
0.000407763
0.000407706
0.000407878
0.000408303
0.000409002
0.000409995
0.000411301
0.000412937
0.000414916
0.000417247
0.000419937
0.000422988
0.000426401
0.00043017
0.000434288
0.000438746
0.000443529
0.000448622
0.000454006
0.000459662
0.000465566
0.000471693
0.000478016
0.000484508
0.000491139
0.000497877
0.000504692
0.000511551
0.000518424
0.00052528
0.000532089
0.000538823
0.000545456
0.000551959
0.000467585
0.00046577
0.000464053
0.000462436
0.000460921
0.000459512
0.000458219
0.000457051
0.00045602
0.00045514
0.000454426
0.000453893
0.000453558
0.000453439
0.000453554
0.000453918
0.000454548
0.000455459
0.000456663
0.000458171
0.000459991
0.000462129
0.000464586
0.000467363
0.000470456
0.000473857
0.000477558
0.000481546
0.000485805
0.000490319
0.000495068
0.000500028
0.000505177
0.000510488
0.000515934
0.000521487
0.000527119
0.0005328
0.000538501
0.000544194
0.000549852
0.000555449
0.000560961
0.000566361
0.000515409
0.000513223
0.000511143
0.000509167
0.000507296
0.000505532
0.000503881
0.000502351
0.000500949
0.000499685
0.000498571
0.000497619
0.000496842
0.000496252
0.000495863
0.000495688
0.00049574
0.000496031
0.000496571
0.000497371
0.000498438
0.000499777
0.000501392
0.000503284
0.000505452
0.000507892
0.000510597
0.000513557
0.000516761
0.000520194
0.000523839
0.000527678
0.000531691
0.000535854
0.000540143
0.000544534
0.000549002
0.00055352
0.000558062
0.000562604
0.000567121
0.000571589
0.000575987
0.00058029
0.000560043
0.000557538
0.000555144
0.000552856
0.000550673
0.000548596
0.000546628
0.000544773
0.000543039
0.000541431
0.000539958
0.00053863
0.000537456
0.000536445
0.000535609
0.000534955
0.000534496
0.000534239
0.000534194
0.000534369
0.000534768
0.000535399
0.000536263
0.000537363
0.000538698
0.000540265
0.000542059
0.000544074
0.0005463
0.000548725
0.000551336
0.000554118
0.000557052
0.00056012
0.000563302
0.000566576
0.00056992
0.000573312
0.000576729
0.00058015
0.000583552
0.000586916
0.000590221
0.000593447
0.000597781
0.00059509
0.000592494
0.000589996
0.000587596
0.000585295
0.000583095
0.000581002
0.000579018
0.00057715
0.000575404
0.000573787
0.000572305
0.000570968
0.000569781
0.000568753
0.000567892
0.000567204
0.000566696
0.000566374
0.000566242
0.000566305
0.000566565
0.000567023
0.000567678
0.000568528
0.00056957
0.000570797
0.000572202
0.000573774
0.000575504
0.000577377
0.000579379
0.000581495
0.000583706
0.000585995
0.000588344
0.000590733
0.000593143
0.000595555
0.000597951
0.000600314
0.000602625
0.000604867
0.000632224
0.000629382
0.000626628
0.000623962
0.000621384
0.000618896
0.000616501
0.0006142
0.000611997
0.000609897
0.000607903
0.000606022
0.000604259
0.000602618
0.000601107
0.00059973
0.000598494
0.000597404
0.000596464
0.000595679
0.000595052
0.000594586
0.000594283
0.000594144
0.000594167
0.000594351
0.000594692
0.000595186
0.000595825
0.000596603
0.000597509
0.000598534
0.000599664
0.000600887
0.000602189
0.000603554
0.000604967
0.000606412
0.000607872
0.000609333
0.000610778
0.000612193
0.000613562
0.000614871
0.000667167
0.000664205
0.000661317
0.000658503
0.000655764
0.000653101
0.000650515
0.000648008
0.000645583
0.000643243
0.00064099
0.00063883
0.000636765
0.000634799
0.000632938
0.000631184
0.000629543
0.000628017
0.000626611
0.000625327
0.000624167
0.000623134
0.000622229
0.000621452
0.000620801
0.000620276
0.000619874
0.00061959
0.00061942
0.000619357
0.000619394
0.000619522
0.000619732
0.000620013
0.000620355
0.000620745
0.00062117
0.000621618
0.000622076
0.000622532
0.000622972
0.000623385
0.000623758
0.000624079
0.000700683
0.000697674
0.000694717
0.000691813
0.000688962
0.000686166
0.000683425
0.000680742
0.000678118
0.000675555
0.000673056
0.000670623
0.00066826
0.000665968
0.000663752
0.000661613
0.000659556
0.000657581
0.000655692
0.000653891
0.000652179
0.000650558
0.000649029
0.00064759
0.000646243
0.000644985
0.000643814
0.000642727
0.000641721
0.000640791
0.000639931
0.000639135
0.000638397
0.000637707
0.000637059
0.000636442
0.000635848
0.000635267
0.000634689
0.000634105
0.000633505
0.000632879
0.000632219
0.000730238
0.000727274
0.000724331
0.000721412
0.000718517
0.000715648
0.000712805
0.000709991
0.000707208
0.000704456
0.000701739
0.000699058
0.000696414
0.000693812
0.000691251
0.000688736
0.000686267
0.000683846
0.000681476
0.000679158
0.000676893
0.000674682
0.000672526
0.000670424
0.000668377
0.000666383
0.000664442
0.000662552
0.000660709
0.000658911
0.000657155
0.000655436
0.000653749
0.00065209
0.000650452
0.000648829
0.000647216
0.000645605
0.00064399
0.000642364
0.000640721
0.000639055
0.000637359
0.000752825
0.000749961
0.000747086
0.0007442
0.000741305
0.000738402
0.000735494
0.000732583
0.000729668
0.000726754
0.000723841
0.000720931
0.000718025
0.000715127
0.000712238
0.000709359
0.000706492
0.000703638
0.0007008
0.000697979
0.000695175
0.000692391
0.000689625
0.00068688
0.000684155
0.00068145
0.000678765
0.000676099
0.00067345
0.000670818
0.0006682
0.000665595
0.000662999
0.00066041
0.000657824