/*--------------------------------*- C++ -*----------------------------------*\
  =========                 |
  \\      /  F ield         | OpenFOAM: The Open Source CFD Toolbox
   \\    /   O peration     | Website:  https://openfoam.org
    \\  /    A nd           | Version:  6
     \\/     M anipulation  |
\*---------------------------------------------------------------------------*/
FoamFile
{
    version     2.0;
    format      ascii;
    class       volScalarField;
    location    "0.09";
    object      p;
}
// * * * * * * * * * * * * * * * * * * * * * * * * * * * * * * * * * * * * * //

dimensions      [0 2 -2 0 0 0 0];

internalField   nonuniform List<scalar> 
3032
(
0.32895
0.0765668
-0.00137437
-0.0117523
-0.0161153
-0.0205324
-0.0228921
-0.0241009
-0.0251937
-0.026317
-0.0273987
-0.0284567
-0.0295428
-0.0306947
-0.0319855
-0.0334761
-0.0358508
-0.0392221
-0.0528972
-0.0226551
-0.0217002
-0.0151247
-0.0156222
-0.0194377
-0.0220445
-0.0235775
-0.0248789
-0.0261138
-0.0272616
-0.0283656
-0.0294856
-0.0306602
-0.0319672
-0.0334679
-0.0356392
-0.0381911
-0.0899076
-0.0189216
-0.0170801
-0.0146359
-0.0153444
-0.0187554
-0.021315
-0.0229697
-0.0243869
-0.0257065
-0.0269243
-0.0280883
-0.0292566
-0.0304668
-0.0317897
-0.0332503
-0.0351283
-0.0367374
-0.0445375
-0.00569266
-0.0136011
-0.0147758
-0.0156584
-0.0185823
-0.0209344
-0.0225759
-0.0240224
-0.0253771
-0.0266352
-0.0278387
-0.029038
-0.0302656
-0.031573
-0.0329547
-0.0345219
-0.0356984
-0.0241166
-0.00573302
-0.014063
-0.0154854
-0.0162215
-0.0186897
-0.0208124
-0.0223936
-0.0238214
-0.0251719
-0.0264389
-0.0276556
-0.028863
-0.0300854
-0.031353
-0.032641
-0.0339638
-0.034937
-0.0217501
-0.0100078
-0.0152273
-0.0161846
-0.0168266
-0.0189144
-0.0208233
-0.0223315
-0.0237198
-0.0250447
-0.0263002
-0.0275119
-0.0287103
-0.0299117
-0.0311287
-0.0323285
-0.0334801
-0.0343465
-0.0215994
-0.0129013
-0.0159414
-0.0167633
-0.0174139
-0.0191911
-0.0209064
-0.0223368
-0.023675
-0.0249626
-0.0261943
-0.0273882
-0.028566
-0.0297366
-0.0309011
-0.0320261
-0.033067
-0.0338913
-0.020587
-0.0144944
-0.0164326
-0.0172744
-0.01796
-0.0194867
-0.0210306
-0.0223819
-0.0236644
-0.0249079
-0.0261073
-0.0272743
-0.0284232
-0.0295575
-0.0306719
-0.0317377
-0.0327142
-0.0335392
-0.0195659
-0.015611
-0.0169017
-0.0177369
-0.0184493
-0.0197783
-0.021173
-0.0224465
-0.0236708
-0.0248661
-0.0260272
-0.0271608
-0.0282752
-0.0293707
-0.0304398
-0.0314606
-0.0324044
-0.0332513
-0.0189464
-0.0165065
-0.0173608
-0.0181481
-0.018875
-0.0200499
-0.0213155
-0.0225134
-0.023679
-0.0248238
-0.0259426
-0.027038
-0.0281144
-0.0291702
-0.0301986
-0.0311853
-0.0321142
-0.032988
-0.0186536
-0.0172082
-0.0177877
-0.0185113
-0.019239
-0.0202926
-0.021446
-0.0225707
-0.0236773
-0.0247703
-0.0258439
-0.0268979
-0.0279338
-0.0289498
-0.0299409
-0.0308995
-0.0318198
-0.0327143
-0.018565
-0.0177043
-0.0181426
-0.0188063
-0.0195216
-0.0204847
-0.0215468
-0.0226058
-0.0236579
-0.0247021
-0.0257321
-0.0267458
-0.0277432
-0.0287226
-0.029681
-0.0306153
-0.0315256
-0.0324269
-0.0185788
-0.0181059
-0.0184506
-0.0190593
-0.0197561
-0.0206422
-0.0216243
-0.0226218
-0.0236209
-0.0246165
-0.025602
-0.0265741
-0.0275318
-0.0284738
-0.029399
-0.0303075
-0.0312031
-0.0320984
-0.0186749
-0.0184698
-0.0187551
-0.0193056
-0.0199711
-0.0207815
-0.0216815
-0.0226109
-0.0235492
-0.0244883
-0.0254209
-0.0263429
-0.0272524
-0.0281487
-0.0290321
-0.0299046
-0.0307715
-0.0316416
-0.0188307
-0.0187805
-0.0190352
-0.0195275
-0.0201477
-0.0208837
-0.0217004
-0.0225548
-0.0234241
-0.0242976
-0.0251674
-0.0260288
-0.0268793
-0.0277183
-0.0285467
-0.0293671
-0.0301838
-0.0310021
-0.0189982
-0.0190214
-0.0192578
-0.0196952
-0.02026
-0.0209226
-0.0216563
-0.0224301
-0.0232225
-0.024021
-0.024817
-0.0256053
-0.0263828
-0.0271486
-0.0279031
-0.0286484
-0.0293864
-0.0301194
-0.0191093
-0.0191585
-0.0193767
-0.019764
-0.0202696
-0.0208607
-0.0215135
-0.0222043
-0.0229135
-0.0236279
-0.0243385
-0.0250394
-0.0257268
-0.0263989
-0.0270553
-0.0276968
-0.0283227
-0.0289334
-0.0190789
-0.0191316
-0.019327
-0.0196689
-0.0201189
-0.0206448
-0.0212235
-0.0218342
-0.0224588
-0.0230839
-0.0236997
-0.0242999
-0.0248801
-0.0254377
-0.0259713
-0.0264805
-0.0269632
-0.0274193
-0.0188055
-0.0188488
-0.0190141
-0.0193163
-0.0197226
-0.020198
-0.0207177
-0.0212608
-0.0218086
-0.0223468
-0.0228653
-0.0233574
-0.0238185
-0.0242456
-0.024637
-0.0249918
-0.0253076
-0.025585
-0.0183133
-0.018322
-0.0184464
-0.0187331
-0.0191346
-0.0196029
-0.020111
-0.0206337
-0.0211478
-0.0216377
-0.0220942
-0.0225111
-0.0228847
-0.0232126
-0.023494
-0.0237287
-0.0239152
-0.024055
-0.0178508
-0.0177594
-0.0178178
-0.018115
-0.0185384
-0.0190265
-0.019558
-0.0200975
-0.0206132
-0.0210895
-0.0215191
-0.0218971
-0.0222208
-0.022489
-0.022702
-0.0228607
-0.0229647
-0.0230161
-0.0175313
-0.0171386
-0.0170787
-0.0174336
-0.0179019
-0.0184319
-0.019022
-0.019611
-0.0201543
-0.0206404
-0.0210664
-0.0214286
-0.0217257
-0.0219583
-0.0221282
-0.0222374
-0.0222871
-0.0222796
-0.0175953
-0.0164884
-0.0162467
-0.0167127
-0.0172207
-0.017814
-0.0185071
-0.0191774
-0.0197691
-0.0202845
-0.020726
-0.0210908
-0.0213794
-0.0215949
-0.021741
-0.0218211
-0.0218374
-0.0217927
-0.0180564
-0.0156656
-0.0153639
-0.0160021
-0.0164801
-0.0171632
-0.0180196
-0.0188028
-0.01946
-0.0200213
-0.0204941
-0.0208752
-0.0211682
-0.0213799
-0.0215159
-0.021581
-0.021579
-0.0215124
-0.018275
-0.0136687
-0.0141638
-0.0152788
-0.0156527
-0.016481
-0.0175774
-0.0185027
-0.0192391
-0.0198598
-0.0203749
-0.0207808
-0.0210858
-0.0213012
-0.0214353
-0.0214942
-0.0214831
-0.0214047
-0.0199908
-0.00922651
-0.0118702
-0.0142451
-0.0146559
-0.0157834
-0.0172115
-0.0183045
-0.0191309
-0.0198193
-0.0203807
-0.0208124
-0.0211302
-0.0213511
-0.0214858
-0.021542
-0.0215266
-0.0214424
-0.0369986
-0.00718642
-0.00961699
-0.0128425
-0.0134717
-0.0151517
-0.0169988
-0.0182753
-0.0191959
-0.0199482
-0.0205462
-0.0209928
-0.0213143
-0.0215339
-0.0216647
-0.0217159
-0.0216955
-0.0216067
-0.0811283
-0.020479
-0.0136605
-0.0126699
-0.0126585
-0.0149445
-0.0171855
-0.0185959
-0.0195719
-0.0203513
-0.0209502
-0.0213813
-0.0216826
-0.0218829
-0.0219968
-0.022033
-0.022001
-0.0219052
-0.060756
-0.0303178
-0.0235689
-0.0149227
-0.0131455
-0.0157373
-0.0180978
-0.019421
-0.0203064
-0.0210213
-0.0215631
-0.0219406
-0.0221963
-0.0223608
-0.0224465
-0.0224599
-0.0224089
-0.0223106
0.303563
0.0838571
0.00679288
-0.00623421
-0.0114271
-0.0163904
-0.0191681
-0.0202945
-0.0209345
-0.0214802
-0.021914
-0.0222199
-0.0224273
-0.0225594
-0.022623
-0.0226187
-0.0225433
-0.022381
-0.0746025
-0.0749394
-0.0753839
-0.0759306
-0.0766589
-0.0776174
-0.078825
-0.0802949
-0.0820326
-0.084036
-0.086294
-0.0887857
-0.0914798
-0.094335
-0.0973009
-0.100319
-0.103327
-0.106257
-0.109039
-0.111607
-0.113894
-0.115838
-0.11738
-0.118468
-0.119054
-0.119098
-0.118563
-0.117426
-0.115671
-0.113298
-0.110291
-0.106591
-0.10213
-0.0969033
-0.0909477
-0.0842946
-0.0769729
-0.0690142
-0.0604542
-0.0513346
-0.041703
-0.031613
-0.0211235
-0.0102981
-0.0724993
-0.0735868
-0.0742036
-0.0742816
-0.0744209
-0.0748951
-0.075749
-0.0769834
-0.0785948
-0.0805722
-0.0828942
-0.0855279
-0.0884289
-0.0915418
-0.094803
-0.098142
-0.101485
-0.104757
-0.107885
-0.110798
-0.113428
-0.115716
-0.117603
-0.119038
-0.119976
-0.120374
-0.120192
-0.119396
-0.117952
-0.115821
-0.112972
-0.109415
-0.105197
-0.100334
-0.0948082
-0.0886161
-0.0817691
-0.0742876
-0.0662001
-0.0575424
-0.048357
-0.038693
-0.0286051
-0.0181531
-0.0684588
-0.0705513
-0.0724163
-0.0733022
-0.0738388
-0.074531
-0.0755492
-0.0769382
-0.0787052
-0.0808363
-0.0833007
-0.0860548
-0.0890454
-0.0922126
-0.095492
-0.0988174
-0.102122
-0.105342
-0.108413
-0.111277
-0.113877
-0.11616
-0.118078
-0.119585
-0.120638
-0.121199
-0.121231
-0.120703
-0.119581
-0.117835
-0.115434
-0.112366
-0.108634
-0.104241
-0.0991852
-0.0934687
-0.0871018
-0.0801017
-0.0724931
-0.0643073
-0.0555831
-0.0463654
-0.0367053
-0.0266588
-0.0654163
-0.0684141
-0.0715926
-0.0736104
-0.074955
-0.0762124
-0.0776368
-0.079321
-0.0812998
-0.0835755
-0.0861281
-0.088923
-0.0919154
-0.0950545
-0.0982854
-0.101551
-0.104795
-0.107959
-0.110989
-0.113829
-0.116429
-0.118738
-0.120709
-0.122296
-0.123457
-0.12415
-0.12434
-0.123989
-0.123067
-0.121544
-0.119396
-0.116609
-0.113171
-0.109075
-0.104315
-0.0988928
-0.0928152
-0.0860964
-0.0787581
-0.0708295
-0.0623471
-0.0533541
-0.0439001
-0.0340403
-0.0651365
-0.0686148
-0.0725562
-0.0753649
-0.077374
-0.0791528
-0.0809768
-0.0829618
-0.0851609
-0.0875912
-0.0902442
-0.0930945
-0.096106
-0.099236
-0.102438
-0.105662
-0.108858
-0.111977
-0.114967
-0.117781
-0.12037
-0.122687
-0.124688
-0.126327
-0.127564
-0.128356
-0.128666
-0.128456
-0.127692
-0.126343
-0.124383
-0.121789
-0.118545
-0.114637
-0.110057
-0.104804
-0.0988815
-0.092302
-0.0850856
-0.0772602
-0.0688618
-0.0599336
-0.0505256
-0.040694
-0.0676179
-0.0711983
-0.0754206
-0.0786673
-0.081127
-0.0832985
-0.0854419
-0.0876746
-0.0900576
-0.0926171
-0.0953535
-0.0982499
-0.101278
-0.104402
-0.107582
-0.110775
-0.113939
-0.117026
-0.119994
-0.122796
-0.125387
-0.127723
-0.12976
-0.131455
-0.132764
-0.133645
-0.134059
-0.133966
-0.133329
-0.132114
-0.130289
-0.127829
-0.124711
-0.120918
-0.116439
-0.111267
-0.105407
-0.0988672
-0.0916677
-0.0838361
-0.0754092
-0.0664315
-0.056955
-0.0470383
-0.0721935
-0.0756436
-0.079824
-0.0832265
-0.0859295
-0.0883453
-0.0907014
-0.093106
-0.0956189
-0.0982702
-0.101066
-0.103997
-0.107039
-0.110164
-0.113336
-0.11652
-0.119674
-0.122758
-0.12573
-0.128547
-0.131166
-0.133544
-0.135637
-0.137401
-0.138793
-0.139769
-0.140286
-0.140303
-0.139779
-0.138676
-0.136959
-0.134597
-0.131563
-0.127837
-0.123403
-0.118252
-0.112385
-0.10581
-0.0985467
-0.0906232
-0.0820781
-0.0729585
-0.0633202
-0.0532257
-0.0781607
-0.0813407
-0.0852676
-0.0886118
-0.0913804
-0.0939026
-0.0963681
-0.0988694
-0.10146
-0.10417
-0.107007
-0.109965
-0.113025
-0.116163
-0.119347
-0.122545
-0.125718
-0.128829
-0.131838
-0.134704
-0.137384
-0.139835
-0.142013
-0.143874
-0.145372
-0.146461
-0.147096
-0.147232
-0.146826
-0.145833
-0.144215
-0.141938
-0.138968
-0.135281
-0.130856
-0.125683
-0.11976
-0.113093
-0.105702
-0.097618
-0.0888809
-0.0795425
-0.0696638
-0.0593132
-0.0848723
-0.0876954
-0.0912312
-0.0943623
-0.0970587
-0.0995751
-0.102063
-0.104597
-0.107222
-0.109962
-0.112827
-0.11581
-0.118896
-0.122061
-0.125279
-0.128518
-0.131742
-0.134915
-0.137998
-0.14095
-0.143728
-0.146291
-0.148591
-0.150583
-0.15222
-0.153453
-0.154233
-0.154512
-0.154241
-0.153373
-0.151862
-0.14967
-0.146759
-0.143099
-0.138665
-0.133442
-0.127427
-0.120625
-0.113057
-0.104755
-0.0957642
-0.0861419
-0.0759558
-0.0652821
-0.0917289
-0.094142
-0.0971988
-0.10001
-0.102532
-0.104958
-0.1074
-0.109918
-0.112544
-0.115297
-0.118182
-0.121194
-0.124318
-0.127531
-0.130808
-0.134118
-0.137427
-0.140699
-0.143895
-0.146975
-0.149895
-0.152611
-0.155076
-0.157241
-0.159057
-0.160472
-0.161433
-0.161887
-0.16178
-0.161061
-0.159677
-0.157584
-0.154739
-0.151105
-0.146654
-0.141366
-0.135234
-0.128264
-0.120478
-0.111911
-0.102614
-0.0926522
-0.0821013
-0.0710477
-0.0981857
-0.100158
-0.102682
-0.105102
-0.107381
-0.109655
-0.112006
-0.114473
-0.117079
-0.119836
-0.122744
-0.125796
-0.128975
-0.13226
-0.135624
-0.139039
-0.14247
-0.14588
-0.149232
-0.152482
-0.155588
-0.158503
-0.161177
-0.163561
-0.1656
-0.167239
-0.168421
-0.169088
-0.169181
-0.168641
-0.167411
-0.165439
-0.162675
-0.159076
-0.154607
-0.149245
-0.142979
-0.135816
-0.127778
-0.118907
-0.109259
-0.0989094
-0.0879455
-0.0764659
-0.103755
-0.105271
-0.107236
-0.109223
-0.111215
-0.1133
-0.11553
-0.117928
-0.120507
-0.123268
-0.126209
-0.129317
-0.132575
-0.13596
-0.139446
-0.143001
-0.146592
-0.150181
-0.15373
-0.157195
-0.16053
-0.163688
-0.166616
-0.169262
-0.171567
-0.173473
-0.174917
-0.175836
-0.176165
-0.175838
-0.17479
-0.172963
-0.170298
-0.166745
-0.162262
-0.156821
-0.150408
-0.14303
-0.134712
-0.125501
-0.115466
-0.104693
-0.0932847
-0.0813515
-0.108003
-0.109068
-0.11047
-0.112007
-0.113689
-0.115567
-0.117665
-0.11999
-0.122544
-0.125323
-0.128314
-0.131503
-0.134868
-0.138386
-0.142027
-0.14576
-0.14955
-0.153359
-0.157146
-0.160866
-0.164472
-0.167913
-0.171136
-0.174083
-0.176693
-0.178903
-0.180645
-0.18185
-0.182445
-0.182359
-0.181518
-0.179856
-0.177304
-0.173804
-0.169308
-0.163781
-0.15721
-0.1496
-0.140982
-0.131411
-0.120967
-0.109751
-0.0978782
-0.0854771
-0.11049
-0.111203
-0.112064
-0.113154
-0.114523
-0.116192
-0.11816
-0.120422
-0.122967
-0.125782
-0.12885
-0.13215
-0.135656
-0.139342
-0.143176
-0.147126
-0.151153
-0.155219
-0.15928
-0.163291
-0.167202
-0.170961
-0.174509
-0.177788
-0.180731
-0.183271
-0.185336
-0.186848
-0.187731
-0.187903
-0.187284
-0.185798
-0.183367
-0.179923
-0.17541
-0.16979
-0.163046
-0.155187
-0.146251
-0.136303
-0.125436
-0.113768
-0.101433
-0.0885749
-0.110963
-0.111359
-0.111714
-0.112391
-0.113474
-0.114956
-0.116816
-0.119039
-0.121603
-0.124487
-0.127666
-0.131113
-0.134798
-0.13869
-0.142755
-0.146957
-0.151257
-0.155613
-0.159981
-0.164311
-0.168552
-0.17265
-0.176544
-0.18017
-0.183461
-0.186342
-0.188737
-0.190564
-0.191737
-0.192167
-0.191767
-0.190449
-0.188126
-0.184722
-0.180174
-0.174441
-0.167505
-0.159382
-0.150117
-0.13979
-0.128511
-0.116414
-0.103652
-0.0903854
-0.109352
-0.10933
-0.1092
-0.10951
-0.110349
-0.111681
-0.113469
-0.115689
-0.118311
-0.121305
-0.124638
-0.128276
-0.132185
-0.136327
-0.140665
-0.14516
-0.149769
-0.154448
-0.15915
-0.163824
-0.168416
-0.172868
-0.177117
-0.181097
-0.184735
-0.187954
-0.190672
-0.1928
-0.194248
-0.194921
-0.19472
-0.193542
-0.191294
-0.187892
-0.18327
-0.177385
-0.170225
-0.161812
-0.152205
-0.1415
-0.129826
-0.117338
-0.104205
-0.090604
-0.105523
-0.105051
-0.10448
-0.104485
-0.105141
-0.106377
-0.108145
-0.110412
-0.113139
-0.116287
-0.119816
-0.123684
-0.12785
-0.132273
-0.13691
-0.141718
-0.146651
-0.151661
-0.156699
-0.161711
-0.166642
-0.171429
-0.176008
-0.18031
-0.184257
-0.187768
-0.190758
-0.193132
-0.194793
-0.19564
-0.195562
-0.194446
-0.192195
-0.188722
-0.183961
-0.177874
-0.170457
-0.161744
-0.151811
-0.140774
-0.128779
-0.115999
-0.102619
-0.0888255
-0.100351
-0.0994394
-0.0984999
-0.098276
-0.0988115
-0.100002
-0.101791
-0.104136
-0.106992
-0.11031
-0.114041
-0.118139
-0.122557
-0.127246
-0.132162
-0.137256
-0.142479
-0.147781
-0.153109
-0.158408
-0.163618
-0.168677
-0.173516
-0.178063
-0.182238
-0.185957
-0.189129
-0.191657
-0.193439
-0.19436
-0.1943
-0.193147
-0.190805
-0.187188
-0.182237
-0.175923
-0.168254
-0.159282
-0.149098
-0.137837
-0.125659
-0.112749
-0.099299
-0.0854983
-0.0947474
-0.0933928
-0.0921203
-0.091708
-0.0921466
-0.0933034
-0.0951134
-0.0975289
-0.100497
-0.10396
-0.107866
-0.11216
-0.116791
-0.121707
-0.126857
-0.132189
-0.137652
-0.143192
-0.148754
-0.154277
-0.159702
-0.164962
-0.169987
-0.1747
-0.179021
-0.18286
-0.186126
-0.188717
-0.190519
-0.191407
-0.191264
-0.189984
-0.187473
-0.183655
-0.178481
-0.171935
-0.164042
-0.15487
-0.144529
-0.133164
-0.120948
-0.108067
-0.094712
-0.0810685
-0.0894401
-0.0876264
-0.0860004
-0.0853798
-0.0856863
-0.0867618
-0.0885378
-0.0909631
-0.0939795
-0.0975268
-0.101546
-0.105979
-0.110769
-0.11586
-0.121194
-0.126717
-0.13237
-0.138097
-0.143837
-0.14953
-0.155111
-0.16051
-0.165654
-0.170465
-0.174858
-0.178744
-0.182026
-0.18459
-0.186312
-0.187074
-0.186766
-0.18529
-0.182558
-0.178508
-0.173104
-0.166348
-0.158284
-0.148994
-0.138601
-0.127258
-0.11514
-0.102429
-0.0893102
-0.0759558
-0.0849032
-0.0826318
-0.080602
-0.0796903
-0.0797525
-0.0806207
-0.0822365
-0.0845552
-0.0875197
-0.0910672
-0.0951327
-0.0996506
-0.104555
-0.109781
-0.115264
-0.120942
-0.12675
-0.132626
-0.138507
-0.144327
-0.150016
-0.155504
-0.160714
-0.165565
-0.169972
-0.17384
-0.17706
-0.179509
-0.18107
-0.181638
-0.181111
-0.179396
-0.176422
-0.172139
-0.16653
-0.159614
-0.151451
-0.142136
-0.131799
-0.120595
-0.108692
-0.096265
-0.0834854
-0.0705123
-0.081394
-0.0786927
-0.0761836
-0.0747873
-0.074366
-0.0748026
-0.0760761
-0.0781564
-0.0809839
-0.0844816
-0.0885671
-0.093157
-0.0981696
-0.103526
-0.109151
-0.114972
-0.120919
-0.126924
-0.132917
-0.13883
-0.144591
-0.150126
-0.155357
-0.160201
-0.164568
-0.168347
-0.171425
-0.17369
-0.17504
-0.175374
-0.174599
-0.172636
-0.169427
-0.16494
-0.159175
-0.152168
-0.143989
-0.134742
-0.124558
-0.113585
-0.101986
-0.0899201
-0.0775453
-0.0650064
-0.0790248
-0.0759012
-0.0726949
-0.0703871
-0.0691148
-0.068888
-0.0697048
-0.0715189
-0.0742328
-0.0777268
-0.0818822
-0.086588
-0.0917416
-0.0972487
-0.103023
-0.108985
-0.115058
-0.12117
-0.127248
-0.133222
-0.139018
-0.144561
-0.14977
-0.154553
-0.158808
-0.162427
-0.165309
-0.167356
-0.168467
-0.168552
-0.167529
-0.165334
-0.161924
-0.157284
-0.151428
-0.144403
-0.136288
-0.127187
-0.117229
-0.106554
-0.0953118
-0.0836497
-0.0717102
-0.0596254
-0.0777747
-0.0741187
-0.0695758
-0.0657534
-0.0634172
-0.0625486
-0.063027
-0.0647234
-0.067462
-0.0710605
-0.075361
-0.0802284
-0.0855446
-0.0912053
-0.0971181
-0.103199
-0.109369
-0.115554
-0.12168
-0.127676
-0.133466
-0.138967
-0.144092
-0.148744
-0.152829
-0.156251
-0.158915
-0.160727
-0.161595
-0.161439
-0.160191
-0.157799
-0.154237
-0.149502
-0.143619
-0.136643
-0.128655
-0.119758
-0.110072
-0.0997307
-0.0888694
-0.0776235
-0.0661224
-0.0544873
-0.0777003
-0.0729988
-0.0660714
-0.0605226
-0.0573729
-0.056142
-0.0565147
-0.0582674
-0.0611377
-0.0648921
-0.0693514
-0.0743705
-0.0798246
-0.0856054
-0.0916176
-0.0977755
-0.104
-0.110216
-0.116347
-0.122313
-0.128037
-0.133434
-0.138419
-0.142903
-0.146795
-0.150005
-0.152443
-0.15402
-0.154658
-0.154285
-0.152846
-0.150304
-0.14664
-0.141864
-0.136008
-0.12913
-0.12131
-0.112648
-0.103257
-0.0932584
-0.0827785
-0.0719407
-0.0608631
-0.0496574
-0.0774557
-0.0707797
-0.0609623
-0.0546295
-0.0513096
-0.0500102
-0.0504594
-0.052375
-0.0554145
-0.0593237
-0.0639254
-0.0690735
-0.07464
-0.080513
-0.0865936
-0.0927937
-0.099032
-0.105231
-0.111313
-0.1172
-0.122813
-0.128071
-0.132891
-0.137188
-0.140876
-0.143868
-0.146082
-0.147439
-0.147867
-0.147308
-0.145715
-0.143062
-0.13934
-0.134563
-0.12877
-0.122019
-0.114388
-0.105971
-0.0968752
-0.0872124
-0.0770985
-0.0666472
-0.055967
-0.0451619
-0.0780847
-0.0614601
-0.0508212
-0.0467234
-0.0444964
-0.0435351
-0.0442881
-0.0465514
-0.0499127
-0.0541035
-0.0589484
-0.0642943
-0.070008
-0.0759801
-0.0821173
-0.0883346
-0.0945526
-0.100695
-0.106689
-0.11246
-0.11793
-0.123022
-0.127656
-0.131751
-0.135226
-0.138001
-0.14
-0.141151
-0.141393
-0.140674
-0.138958
-0.136224
-0.132472
-0.127721
-0.122009
-0.115397
-0.107958
-0.0997815
-0.0909677
-0.0816209
-0.0718482
-0.0617544
-0.05144
-0.0410028
-0.0489025
-0.0371585
-0.0327812
-0.0333925
-0.0342738
-0.0354878
-0.0378008
-0.0411261
-0.0451763
-0.0498093
-0.0549365
-0.0604546
-0.0662604
-0.0722637
-0.0783843
-0.0845463
-0.0906763
-0.0967024
-0.102554
-0.10816
-0.113447
-0.11834
-0.122762
-0.126637
-0.129888
-0.132441
-0.134227
-0.135181
-0.135247
-0.134384
-0.132559
-0.129761
-0.125992
-0.121274
-0.115649
-0.109173
-0.101919
-0.0939705
-0.0854212
-0.0763687
-0.0669121
-0.057149
-0.0471728
-0.0370755
-0.0415817
-0.0371088
-0.0332509
-0.0319642
-0.0317985
-0.0326914
-0.0349187
-0.0382458
-0.0423314
-0.0469863
-0.0520996
-0.0575667
-0.0632889
-0.0691808
-0.0751659
-0.0811712
-0.0871258
-0.0929601
-0.0986048
-0.10399
-0.109045
-0.113697
-0.117874
-0.121501
-0.124509
-0.126827
-0.128393
-0.129147
-0.129042
-0.128041
-0.126118
-0.123267
-0.119493
-0.114822
-0.109293
-0.102962
-0.0958991
-0.0881823
-0.0798986
-0.071139
-0.0619956
-0.052559
-0.0429163
-0.0331537
-0.0381586
-0.0360463
-0.0327833
-0.0312889
-0.0312999
-0.0323391
-0.034427
-0.037469
-0.0412485
-0.0456025
-0.050419
-0.0555949
-0.0610315
-0.0666411
-0.0723444
-0.078067
-0.0837367
-0.0892833
-0.0946373
-0.0997295
-0.10449
-0.108848
-0.112735
-0.11608
-0.118817
-0.120881
-0.122215
-0.122766
-0.122492
-0.121361
-0.119354
-0.116467
-0.112708
-0.108103
-0.102692
-0.0965275
-0.0896746
-0.082207
-0.0742051
-0.0657529
-0.0569358
-0.0478373
-0.0385384
-0.0291199
-0.0363771
-0.0351315
-0.0329957
-0.0319192
-0.0320404
-0.0330353
-0.0349044
-0.037626
-0.0410536
-0.0450418
-0.0494811
-0.0542736
-0.0593262
-0.0645538
-0.0698779
-0.0752244
-0.0805218
-0.0856999
-0.09069
-0.0954234
-0.099832
-0.103848
-0.107403
-0.110433
-0.112875
-0.114668
-0.115761
-0.116106
-0.115666
-0.114414
-0.112334
-0.109425
-0.105697
-0.101176
-0.095899
-0.0899165
-0.0832886
-0.0760833
-0.0683747
-0.0602402
-0.051758
-0.0430054
-0.0340573
-0.0249889
-0.0352754
-0.0346168
-0.0334876
-0.0329188
-0.0331659
-0.0341324
-0.035832
-0.0382636
-0.0413349
-0.0449325
-0.0489596
-0.0533268
-0.057948
-0.0627419
-0.0676326
-0.0725481
-0.0774184
-0.082175
-0.0867508
-0.0910792
-0.0950944
-0.0987311
-0.101926
-0.104616
-0.106744
-0.108256
-0.109101
-0.109239
-0.108636
-0.10727
-0.105127
-0.102207
-0.0985228
-0.0940973
-0.0889666
-0.0831768
-0.0767832
-0.0698484
-0.0624399
-0.0546285
-0.0464861
-0.0380835
-0.0294899
-0.0207751
-0.0346105
-0.0343947
-0.033958
-0.0338284
-0.0342537
-0.0352558
-0.0368552
-0.0390558
-0.0418054
-0.0450254
-0.0486381
-0.052567
-0.0567356
-0.0610694
-0.0654973
-0.0699502
-0.0743612
-0.0786646
-0.0827956
-0.0866905
-0.0902866
-0.0935222
-0.0963374
-0.0986745
-0.100479
-0.101702
-0.102298
-0.102231
-0.10147
-0.0999957
-0.0977977
-0.0948767
-0.0912443
-0.0869231
-0.0819459
-0.076355
-0.0702008
-0.0635401
-0.0564345
-0.0489482
-0.0411467
-0.0330949
-0.0248566
-0.0164962
-0.0342188
-0.0343163
-0.0343345
-0.0345523
-0.0351608
-0.0362196
-0.0377543
-0.0397722
-0.0422454
-0.0451222
-0.0483433
-0.0518458
-0.0555647
-0.0594344
-0.06339
-0.0673678
-0.071305
-0.0751396
-0.0788106
-0.0822579
-0.0854223
-0.0882462
-0.0906739
-0.0926519
-0.0941307
-0.0950648
-0.0954141
-0.095145
-0.0942314
-0.0926557
-0.0904093
-0.0874933
-0.0839189
-0.0797067
-0.0748866
-0.0694969
-0.0635832
-0.0571966
-0.0503926
-0.0432297
-0.0357671
-0.028064
-0.0201788
-0.0121709
-0.0339776
-0.0342963
-0.0346156
-0.0350877
-0.035845
-0.0369493
-0.0384285
-0.0402918
-0.0425247
-0.0450931
-0.0479525
-0.0510529
-0.05434
-0.0577573
-0.0612476
-0.0647533
-0.068217
-0.0715816
-0.0747904
-0.0777878
-0.0805189
-0.0829303
-0.0849709
-0.0865917
-0.0877476
-0.0883973
-0.0885048
-0.0880401
-0.0869799
-0.0853087
-0.0830192
-0.0801128
-0.0765995
-0.0724981
-0.0678355
-0.0626459
-0.0569701
-0.0508541
-0.0443477
-0.0375032
-0.0303745
-0.023015
-0.0154783
-0.00781854
-0.0338029
-0.0342765
-0.034792
-0.0354352
-0.0362943
-0.0374207
-0.0388399
-0.0405615
-0.0425777
-0.0448656
-0.047392
-0.0501171
-0.0529964
-0.055982
-0.0590242
-0.0620719
-0.0650737
-0.067978
-0.0707331
-0.0732883
-0.0755934
-0.0775998
-0.0792609
-0.0805324
-0.0813735
-0.0817471
-0.0816209
-0.0809681
-0.0797681
-0.0780073
-0.0756792
-0.0727852
-0.0693343
-0.0653432
-0.0608358
-0.0558425
-0.0503996
-0.0445479
-0.0383319
-0.0317986
-0.0249961
-0.0179729
-0.0107775
-0.00345944
-0.0336349
-0.0342115
-0.0348476
-0.0355939
-0.0365084
-0.0376291
-0.038977
-0.0405601
-0.0423739
-0.0444024
-0.0466203
-0.0489961
-0.0514933
-0.0540716
-0.0566883
-0.0592989
-0.0618581
-0.0643197
-0.0666376
-0.0687659
-0.0706597
-0.0722752
-0.0735704
-0.0745056
-0.0750443
-0.0751534
-0.0748041
-0.0739728
-0.072641
-0.0707968
-0.0684345
-0.0655552
-0.062167
-0.0582844
-0.0539285
-0.0491261
-0.0439091
-0.0383136
-0.0323792
-0.0261476
-0.0196619
-0.0129655
-0.00610249
0.000882201
-0.0334287
-0.0340663
-0.0347673
-0.0355634
-0.0364921
-0.0375799
-0.0388421
-0.0402846
-0.0419042
-0.0436888
-0.0456189
-0.047669
-0.0498091
-0.0520057
-0.0542222
-0.0564203
-0.0585604
-0.0606019
-0.0625041
-0.0642264
-0.0657287
-0.066972
-0.0679191
-0.0685349
-0.0687868
-0.0686455
-0.0680858
-0.0670866
-0.0656318
-0.0637107
-0.0613184
-0.0584558
-0.0551297
-0.0513529
-0.0471437
-0.0425255
-0.0375262
-0.0321777
-0.0265146
-0.020574
-0.0143941
-0.00801382
-0.00147281
0.00518818
-0.0331781
-0.0338387
-0.0345607
-0.0353653
-0.036277
-0.0373133
-0.0384848
-0.0397949
-0.0412405
-0.0428116
-0.0444921
-0.0462611
-0.0480933
-0.0499601
-0.0518304
-0.0536708
-0.0554467
-0.0571224
-0.058662
-0.0600294
-0.061189
-0.0621062
-0.062748
-0.0630831
-0.0630826
-0.0627208
-0.0619751
-0.0608269
-0.0592623
-0.0572717
-0.0548507
-0.0520003
-0.0487263
-0.0450401
-0.0409576
-0.0364995
-0.0316904
-0.0265584
-0.0211342
-0.0154507
-0.00954222
-0.0034435
0.00280953
0.00917977
-0.0328665
-0.0335259
-0.0342416
-0.0350277
-0.0358989
-0.0368664
-0.0379368
-0.0391117
-0.0403874
-0.0417551
-0.0432015
-0.0447086
-0.0462552
-0.0478168
-0.0493665
-0.0508757
-0.0523141
-0.0536506
-0.0548536
-0.0558914
-0.0567327
-0.057347
-0.0577052
-0.0577797
-0.0575451
-0.0569787
-0.0560608
-0.0547752
-0.0531094
-0.0510552
-0.0486088
-0.0457709
-0.0425468
-0.0389463
-0.0349833
-0.0306761
-0.0260461
-0.0211182
-0.0159195
-0.0104791
-0.00482759
0.00100391
0.00698271
0.0130756
-0.0323982
-0.0330329
-0.0337155
-0.0344543
-0.0352568
-0.0361289
-0.0370738
-0.0380912
-0.0391771
-0.0403234
-0.0415189
-0.0427484
-0.0439943
-0.045236
-0.046451
-0.0476152
-0.0487027
-0.0496873
-0.0505418
-0.0512391
-0.0517524
-0.0520555
-0.0521234
-0.0519322
-0.0514603
-0.050688
-0.0495984
-0.0481776
-0.0464148
-0.044303
-0.0418387
-0.0390226
-0.035859
-0.0323561
-0.028526
-0.024384
-0.0199486
-0.0152412
-0.0102853
-0.00510624
0.000269536
0.00581412
0.0114989
0.0172943
-0.0317161
-0.0322993
-0.0329193
-0.0335801
-0.0342839
-0.0350327
-0.0358271
-0.0366652
-0.0375424
-0.0384516
-0.0393828
-0.0403236
-0.0412593
-0.0421731
-0.0430465
-0.0438596
-0.0445912
-0.0452194
-0.0457218
-0.0460759
-0.0462594
-0.0462503
-0.0460277
-0.0455718
-0.0448644
-0.0438891
-0.0426317
-0.0410804
-0.0392264
-0.0370635
-0.0345887
-0.0318025
-0.0287082
-0.0253127
-0.0216258
-0.0176602
-0.0134314
-0.00895733
-0.00425782
0.00064567
0.00573027
0.0109721
0.0163462
-0.0307554
-0.0312588
-0.0317867
-0.0323395
-0.032916
-0.0335153
-0.0341363
-0.0347759
-0.0354294
-0.0360901
-0.0367493
-0.0373969
-0.0380208
-0.0386075
-0.0391421
-0.0396086
-0.0399901
-0.040269
-0.0404272
-0.0404467
-0.0403093
-0.0399975
-0.0394943
-0.0387838
-0.037851
-0.0366827
-0.0352673
-0.0335953
-0.0316592
-0.0294541
-0.0269773
-0.024229
-0.0212118
-0.017931
-0.0143945
-0.0106126
-0.0065977
-0.00236449
0.00207069
0.00669005
0.0114745
0.0164039
0.0214571
-0.0294548
-0.0298521
-0.0302613
-0.0306798
-0.0311044
-0.0315328
-0.0319625
-0.03239
-0.0328105
-0.0332179
-0.0336049
-0.033963
-0.0342824
-0.0345526
-0.0347617
-0.0348973
-0.0349461
-0.0348945
-0.0347284
-0.0344337
-0.0339964
-0.0334026
-0.0326392
-0.0316937
-0.0305543
-0.0292107
-0.0276537
-0.0258757
-0.0238708
-0.021635
-0.019166
-0.0164638
-0.0135302
-0.0103693
-0.00698714
-0.00339171
0.000407114
0.00439778
0.00856718
0.012901
0.0173836
0.0219985
0.0267284
-0.0277966
-0.0280678
-0.0283384
-0.0286037
-0.0288599
-0.0291039
-0.0293329
-0.0295432
-0.0297301
-0.0298883
-0.0300115
-0.030093
-0.030125
-0.030099
-0.0300062
-0.0298369
-0.029581
-0.0292282
-0.028768
-0.0281897
-0.0274826
-0.0266364
-0.0256411
-0.0244873
-0.0231662
-0.0216697
-0.019991
-0.0181243
-0.016065
-0.0138098
-0.0113572
-0.00870669
-0.00585982
-0.00281947
0.00040982
0.00382199
0.00740948
0.0111634
0.0150735
0.0191285
0.023316
0.0276228
0.0320349
-0.0257957
-0.0259289
-0.0260509
-0.0261553
-0.0262381
-0.0262966
-0.026328
-0.0263286
-0.0262943
-0.0262205
-0.0261022
-0.0259338
-0.0257093
-0.0254221
-0.0250655
-0.0246323
-0.0241149
-0.0235056
-0.0227965
-0.0219799
-0.0210479
-0.0199928
-0.0188073
-0.0174844
-0.0160177
-0.0144012
-0.0126299
-0.0106993
-0.00860613
-0.00634787
-0.0039232
-0.00133188
0.00142515
0.00434576
0.00742663
0.0106632
0.0140499
0.0175799
0.0212454
0.0250377
0.0289471
0.0329632
0.0370748
-0.0241397
-0.0241705
-0.0241831
-0.0241705
-0.0241291
-0.0240564
-0.0239498
-0.0238057
-0.0236204
-0.0233897
-0.0231095
-0.0227748
-0.0223807
-0.0219219
-0.0213929
-0.0207877
-0.0201005
-0.0193251
-0.0184555
-0.0174855
-0.0164089
-0.01522
-0.013913
-0.0124826
-0.0109239
-0.00923226
-0.00740388
-0.00543546
-0.00332441
-0.00106893
0.00133197
0.00387839
0.00656952
0.00940365
0.0123781
0.0154892
0.0187325
0.0221024
0.0255928
0.0291965
0.0329056
0.0367116
0.0406052
-0.0230202
-0.0229859
-0.0229294
-0.0228438
-0.0227254
-0.0225719
-0.0223809
-0.0221489
-0.0218726
-0.0215481
-0.0211715
-0.0207387
-0.0202452
-0.0196864
-0.0190575
-0.0183535
-0.0175694
-0.0167001
-0.0157403
-0.0146849
-0.0135288
-0.0122671
-0.0108952
-0.00940846
-0.00780293
-0.00607486
-0.00422102
-0.0022387
-0.000125789
0.00211918
0.004497
0.00700773
0.00965064
0.0124242
0.0153263
0.0183535
0.0215022
0.0247676
0.0281443
0.0316261
0.0352063
0.0388773
0.0426309
-0.022231
-0.0221533
-0.0220511
-0.0219176
-0.0217487
-0.0215426
-0.0212966
-0.0210077
-0.0206725
-0.0202876
-0.0198494
-0.019354
-0.0187973
-0.0181754
-0.0174837
-0.016718
-0.0158737
-0.0149463
-0.0139313
-0.0128241
-0.0116203
-0.0103157
-0.00890613
-0.00738776
-0.00575705
-0.00401079
-0.0021462
-0.00016095
0.00194678
0.00417824
0.00653409
0.00901435
0.0116184
0.0143448
0.0171916
0.020156
0.0232345
0.0264229
0.0297164
0.0331095
0.0365961
0.0401694
0.043822
-0.0217118
-0.0216063
-0.021475
-0.0213112
-0.0211105
-0.0208711
-0.0205905
-0.0202657
-0.0198937
-0.0194712
-0.0189947
-0.0184606
-0.0178653
-0.0172049
-0.0164754
-0.0156728
-0.014793
-0.0138319
-0.0127853
-0.0116491
-0.0104193
-0.00909214
-0.00766381
-0.00613086
-0.00449009
-0.00273862
-0.000873926
0.00110608
0.00320305
0.00541811
0.00775186
0.0102043
0.0127749
0.0154623
0.0182647
0.0211797
0.0242039
0.0273337
0.0305644
0.0338912
0.0373082
0.0408093
0.0443878
-0.0214138
-0.0212916
-0.0211426
-0.0209607
-0.0207412
-0.0204821
-0.020181
-0.0198352
-0.0194416
-0.0189972
-0.0184986
-0.0179424
-0.0173253
-0.0166434
-0.0158932
-0.0150708
-0.0141724
-0.013194
-0.0121319
-0.0109822
-0.00974119
-0.00840522
-0.00697086
-0.00543487
-0.00379426
-0.00204633
-0.000188737
0.0017805
0.00386291
0.00605959
0.00837111
0.0107975
0.0133382
0.0159922
0.0187577
0.0216323
0.0246132
0.0276967
0.0308787
0.0341544
0.0375185
0.0409652
0.0444881
-0.021298
-0.0211663
-0.0210065
-0.0208143
-0.0205846