/*--------------------------------*- C++ -*----------------------------------*\
  =========                 |
  \\      /  F ield         | OpenFOAM: The Open Source CFD Toolbox
   \\    /   O peration     | Website:  https://openfoam.org
    \\  /    A nd           | Version:  6
     \\/     M anipulation  |
\*---------------------------------------------------------------------------*/
FoamFile
{
    version     2.0;
    format      ascii;
    class       surfaceScalarField;
    location    "0.09";
    object      phi;
}
// * * * * * * * * * * * * * * * * * * * * * * * * * * * * * * * * * * * * * //

dimensions      [0 3 -1 0 0 0 0];

internalField   nonuniform List<scalar> 
5945
(
3.25675e-07
-6.8339e-09
3.1944e-07
6.23497e-09
3.15872e-07
3.56786e-09
3.08842e-07
7.02965e-09
3.01956e-07
6.88568e-09
2.97052e-07
4.90386e-09
2.93858e-07
3.19428e-09
2.91664e-07
2.19431e-09
2.90028e-07
1.63621e-09
2.88752e-07
1.27561e-09
2.8774e-07
1.01222e-09
2.86934e-07
8.05526e-10
2.86307e-07
6.27215e-10
2.8585e-07
4.56631e-10
2.85597e-07
2.53875e-10
2.85528e-07
6.90622e-11
2.86154e-07
-6.26543e-10
-1.76074e-09
2.87915e-07
3.5038e-07
-1.54891e-08
3.47829e-07
8.78597e-09
3.44106e-07
7.29128e-09
3.42295e-07
8.84069e-09
3.40179e-07
9.00176e-09
3.37771e-07
7.31152e-09
3.35531e-07
5.43454e-09
3.33659e-07
4.06586e-09
3.32156e-07
3.13893e-09
3.30958e-07
2.4742e-09
3.3e-07
1.97041e-09
3.29235e-07
1.57046e-09
3.28632e-07
1.22959e-09
3.28175e-07
9.14099e-10
3.27867e-07
5.62107e-10
3.27782e-07
1.53842e-10
3.27934e-07
-7.78359e-10
-2.06441e-09
3.28237e-07
3.63438e-07
-1.26755e-08
3.66574e-07
5.64967e-09
3.66757e-07
7.10875e-09
3.66963e-07
8.63477e-09
3.66642e-07
9.32269e-09
3.65719e-07
8.23417e-09
3.64522e-07
6.63221e-09
3.63324e-07
5.26368e-09
3.62256e-07
4.20647e-09
3.61353e-07
3.37796e-09
3.60608e-07
2.71527e-09
3.60008e-07
2.17005e-09
3.59541e-07
1.69622e-09
3.59202e-07
1.25377e-09
3.58986e-07
7.77526e-10
3.58923e-07
2.16805e-10
3.58881e-07
-7.36164e-10
-1.9489e-09
3.58766e-07
3.89241e-07
-9.37817e-09
3.91473e-07
3.41816e-09
3.92431e-07
6.15045e-09
3.93134e-07
7.93202e-09
3.93462e-07
8.99469e-09
3.93273e-07
8.42345e-09
3.92726e-07
7.1786e-09
3.92035e-07
5.95495e-09
3.91339e-07
4.90205e-09
3.90707e-07
4.01064e-09
3.90164e-07
3.25801e-09
3.8972e-07
2.61364e-09
3.89378e-07
2.03902e-09
3.89136e-07
1.49549e-09
3.88989e-07
9.24497e-10
3.88931e-07
2.74384e-10
3.88832e-07
-6.36515e-10
-1.71131e-09
3.88594e-07
4.18275e-07
-6.94016e-09
4.19431e-07
2.26193e-09
4.20344e-07
5.23732e-09
4.21148e-07
7.12776e-09
4.21765e-07
8.37762e-09
4.21997e-07
8.19216e-09
4.21889e-07
7.28587e-09
4.21588e-07
6.25669e-09
4.2121e-07
5.28007e-09
4.20827e-07
4.39306e-09
4.20481e-07
3.60417e-09
4.20193e-07
2.90131e-09
4.19975e-07
2.2575e-09
4.1983e-07
1.64086e-09
4.19749e-07
1.00502e-09
4.19713e-07
3.10021e-10
4.19617e-07
-5.39652e-10
-1.46039e-09
4.19366e-07
4.49042e-07
-5.07317e-09
4.49627e-07
1.67687e-09
4.50396e-07
4.46851e-09
4.51201e-07
6.32206e-09
4.51955e-07
7.62352e-09
4.52439e-07
7.70807e-09
4.52636e-07
7.08964e-09
4.52634e-07
6.25853e-09
4.52523e-07
5.39085e-09
4.52367e-07
4.54916e-09
4.52209e-07
3.76264e-09
4.52075e-07
3.03461e-09
4.51982e-07
2.35026e-09
4.51936e-07
1.68722e-09
4.51928e-07
1.01337e-09
4.51934e-07
3.03909e-10
4.51875e-07
-4.80868e-10
-1.26785e-09
4.51683e-07
4.81766e-07
-3.5671e-09
4.8208e-07
1.36285e-09
4.82713e-07
3.83501e-09
4.83477e-07
5.55859e-09
4.84282e-07
6.81885e-09
4.84914e-07
7.07609e-09
4.85319e-07
6.68452e-09
4.85545e-07
6.03179e-09
4.85655e-07
5.28107e-09
4.85699e-07
4.50583e-09
4.85714e-07
3.74698e-09
4.8573e-07
3.01906e-09
4.85762e-07
2.3182e-09
4.85817e-07
1.63205e-09
4.85888e-07
9.4221e-10
4.85954e-07
2.37949e-10
4.85961e-07
-4.8749e-10
-1.17455e-09
4.85867e-07
5.16759e-07
-2.36809e-09
5.16926e-07
1.19597e-09
5.17441e-07
3.31956e-09
5.18141e-07
4.85914e-09
5.18944e-07
6.01568e-09
5.19655e-07
6.36519e-09
5.202e-07
6.13906e-09
5.20598e-07
5.63396e-09
5.20886e-07
4.99318e-09
5.21101e-07
4.29143e-09
5.21273e-07
3.5745e-09
5.21428e-07
2.86419e-09
5.21581e-07
2.16535e-09
5.21738e-07
1.47468e-09
5.21895e-07
7.85314e-10
5.22036e-07
9.73432e-11
5.22127e-07
-5.79265e-10
-1.19971e-09
5.22153e-07
5.54221e-07
-1.45517e-09
5.54302e-07
1.11515e-09
5.54723e-07
2.89856e-09
5.55354e-07
4.22789e-09
5.56127e-07
5.24219e-09
5.56872e-07
5.62033e-09
5.57508e-07
5.50339e-09
5.5803e-07
5.1114e-09
5.58459e-07
4.56503e-09
5.58816e-07
3.93419e-09
5.59125e-07
3.26488e-09
5.59407e-07
2.58271e-09
5.59674e-07
1.89878e-09
5.59931e-07
1.21699e-09
5.60177e-07
5.39018e-10
5.60403e-07
-1.28003e-10
5.60591e-07
-7.67765e-10
-1.34914e-09
5.60741e-07
5.94318e-07
-7.9511e-10
5.94358e-07
1.07435e-09
5.94713e-07
2.54414e-09
5.95283e-07
3.6575e-09
5.96015e-07
4.51028e-09
5.96766e-07
4.8696e-09
5.97455e-07
4.81374e-09
5.98066e-07
4.50099e-09
5.98601e-07
4.02947e-09
5.99075e-07
3.46105e-09
5.99501e-07
2.83881e-09
5.99894e-07
2.18955e-09
6.00264e-07
1.52822e-09
6.00618e-07
8.63681e-10
6.00954e-07
2.03164e-10
6.01268e-07
-4.42589e-10
6.01557e-07
-1.05679e-09
-1.61957e-09
6.01828e-07
6.37233e-07
-3.47114e-10
6.37268e-07
1.03965e-09
6.37584e-07
2.2282e-09
6.38107e-07
3.13428e-09
6.38796e-07
3.82144e-09
6.39537e-07
4.12884e-09
6.40255e-07
4.09526e-09
6.40925e-07
3.83131e-09
6.4154e-07
3.41428e-09
6.42104e-07
2.89664e-09
6.42626e-07
2.31685e-09
6.43115e-07
1.7009e-09
6.43578e-07
1.06551e-09
6.44019e-07
4.22373e-10
6.44441e-07
-2.18396e-10
6.44843e-07
-8.45024e-10
6.45229e-07
-1.44296e-09
-2.00072e-09
6.4561e-07
5.73838e-07
-1.01934e-10
5.73877e-07
1.00126e-09
5.74133e-07
1.97212e-09
5.74551e-07
2.71568e-09
5.75104e-07
3.26899e-09
5.75717e-07
3.51602e-09
5.76333e-07
3.47851e-09
5.76928e-07
3.23633e-09
5.77492e-07
2.85074e-09
5.78022e-07
2.36632e-09
5.78522e-07
1.81706e-09
5.78996e-07
1.22727e-09
5.79447e-07
6.13854e-10
5.7988e-07
-1.04941e-11
5.80297e-07
-6.3475e-10
5.80699e-07
-1.24753e-09
5.81093e-07
-1.83684e-09
-2.39669e-09
5.81489e-07
6.99646e-07
6.79474e-11
6.99727e-07
9.19915e-10
7.00018e-07
1.68147e-09
7.00479e-07
2.25437e-09
7.01086e-07
2.66213e-09
7.01771e-07
2.83094e-09
7.02479e-07
2.77017e-09
7.03181e-07
2.53433e-09
7.03862e-07
2.16991e-09
7.04516e-07
1.71286e-09
7.05141e-07
1.19178e-09
7.0574e-07
6.28314e-10
7.06315e-07
3.84779e-11
7.0687e-07
-5.65145e-10
7.07407e-07
-1.17176e-09
7.0793e-07
-1.77123e-09
7.08448e-07
-2.35458e-09
-2.9201e-09
7.08972e-07
8.52999e-07
1.53384e-10
8.53139e-07
7.80661e-10
8.53482e-07
1.33837e-09
8.53997e-07
1.73889e-09
8.54663e-07
1.99622e-09
8.55422e-07
2.0721e-09
8.56223e-07
1.96952e-09
8.57033e-07
1.72352e-09
8.57835e-07
1.36779e-09
8.58618e-07
9.29812e-10
8.59378e-07
4.32305e-10
8.60113e-07
-1.06646e-10
8.60824e-07
-6.72923e-10
8.61514e-07
-1.25515e-09
8.62186e-07
-1.84373e-09
8.62845e-07
-2.43031e-09
8.63499e-07
-3.00868e-09
-3.5799e-09
8.64159e-07
1.03992e-06
1.56668e-10
1.04013e-06
5.72305e-10
1.04054e-06
9.25671e-10
1.04112e-06
1.15383e-09
1.04186e-06
1.26184e-09
1.0427e-06
1.23528e-09
1.04359e-06
1.07599e-09
1.04451e-06
8.05232e-10
1.04543e-06
4.46109e-10
1.04634e-06
1.8416e-11
1.04723e-06
-4.60982e-10
1.04811e-06
-9.78075e-10
1.04895e-06
-1.52147e-09
1.04978e-06
-2.0818e-09
1.05059e-06
-2.65126e-09
1.05138e-06
-3.22342e-09
1.05217e-06
-3.79407e-09
-4.36552e-09
1.05295e-06
1.26774e-06
9.25602e-11
1.26803e-06
2.90154e-10
1.26852e-06
4.33442e-10
1.26919e-06
4.86057e-10
1.27e-06
4.47303e-10
1.27092e-06
3.14132e-10
1.27191e-06
8.88953e-11
1.27293e-06
-2.16337e-10
1.27396e-06
-5.87137e-10
1.27499e-06
-1.01049e-09
1.27601e-06
-1.47505e-09
1.277e-06
-1.97102e-09
1.27797e-06
-2.49015e-09
1.27891e-06
-3.02549e-09
1.27983e-06
-3.57118e-09
1.28073e-06
-4.12242e-09
1.28161e-06
-4.67622e-09
-5.23489e-09
1.28248e-06
1.54543e-06
-1.81343e-11
1.54578e-06
-5.90342e-11
1.54635e-06
-1.3685e-10
1.5471e-06
-2.68146e-10
1.548e-06
-4.54217e-10
1.54901e-06
-6.95185e-10
1.55009e-06
-9.89614e-10
1.55121e-06
-1.33213e-09
1.55234e-06
-1.71576e-09
1.55346e-06
-2.13382e-09
1.55456e-06
-2.58022e-09
1.55564e-06
-3.0494e-09
1.55669e-06
-3.53634e-09
1.5577e-06
-4.03655e-09
1.55868e-06
-4.54603e-09
1.55961e-06
-5.06124e-09
1.56052e-06
-5.57984e-09
-6.10344e-09
1.56139e-06
1.8839e-06
-1.54327e-10
1.8843e-06
-4.55804e-10
1.88493e-06
-7.70813e-10
1.88576e-06
-1.09964e-09
1.88675e-06
-1.43856e-09
1.88784e-06
-1.78823e-09
1.889e-06
-2.15007e-09
1.89019e-06
-2.52469e-09
1.89139e-06
-2.9124e-09
1.89257e-06
-3.31323e-09
1.89372e-06
-3.72664e-09
1.89482e-06
-4.15152e-09
1.89587e-06
-4.5863e-09
1.89686e-06
-5.02904e-09
1.89779e-06
-5.47759e-09
1.89866e-06
-5.92961e-09
1.89946e-06
-6.38326e-09
-6.83932e-09
1.9002e-06
2.29647e-06
-2.86929e-10
2.29687e-06
-8.56671e-10
2.29753e-06
-1.43588e-09
2.29842e-06
-1.98691e-09
2.29947e-06
-2.49342e-09
2.30064e-06
-2.95766e-09
2.30188e-06
-3.38316e-09
2.30313e-06
-3.77637e-09
2.30436e-06
-4.14661e-09
2.30555e-06
-4.50254e-09
2.30668e-06
-4.85059e-09
2.30772e-06
-5.1952e-09
2.30867e-06
-5.53913e-09
2.30953e-06
-5.8837e-09
2.31028e-06
-6.2291e-09
2.31092e-06
-6.57465e-09
2.31146e-06
-6.91936e-09
-7.26385e-09
2.31188e-06
1.6811e-06
-3.11792e-10
1.68127e-06
-1.03467e-09
1.68166e-06
-1.82504e-09
1.68223e-06
-2.55475e-09
1.68293e-06
-3.19702e-09
1.68373e-06
-3.75382e-09
1.68457e-06
-4.22368e-09
1.68541e-06
-4.61807e-09
1.68622e-06
-4.95674e-09
1.68698e-06
-5.2573e-09
1.68766e-06
-5.53295e-09
1.68826e-06
-5.7935e-09
1.68876e-06
-6.04584e-09
1.68918e-06
-6.29431e-09
1.68949e-06
-6.54125e-09
1.6897e-06
-6.78745e-09
1.68981e-06
-7.0328e-09
-7.27793e-09
1.68983e-06
1.46333e-06
-1.84578e-10
1.46332e-06
-1.02662e-09
1.46357e-06
-2.07341e-09
1.46402e-06
-3.00562e-09
1.46463e-06
-3.80826e-09
1.46535e-06
-4.47371e-09
1.46611e-06
-4.98481e-09
1.46686e-06
-5.36482e-09
1.46755e-06
-5.6519e-09
1.46817e-06
-5.8763e-09
1.4687e-06
-6.05993e-09
1.46913e-06
-6.2193e-09
1.46945e-06
-6.36611e-09
1.46966e-06
-6.5079e-09
1.46977e-06
-6.64899e-09
1.46977e-06
-6.79146e-09
1.46968e-06
-6.93586e-09
-7.08275e-09
1.46948e-06
1.2736e-06
2.3086e-10
1.27337e-06
-8.02198e-10
1.27353e-06
-2.22612e-09
1.27393e-06
-3.41087e-09
1.27455e-06
-4.4226e-09
1.27529e-06
-5.21676e-09
1.27606e-06
-5.75221e-09
1.27678e-06
-6.08512e-09
1.27741e-06
-6.28595e-09
1.27794e-06
-6.40223e-09
1.27834e-06
-6.46683e-09
1.27863e-06
-6.50415e-09
1.27879e-06
-6.53078e-09
1.27884e-06
-6.55678e-09
1.27878e-06
-6.5877e-09
1.27861e-06
-6.62607e-09
1.27835e-06
-6.67239e-09
-6.72667e-09
1.278e-06
1.10822e-06
1.10729e-09
1.10778e-06
-3.65626e-10
1.10792e-06
-2.36514e-09
1.10838e-06
-3.86824e-09
1.1091e-06
-5.14582e-09
1.10995e-06
-6.06446e-09
1.11077e-06
-6.57098e-09
1.11148e-06
-6.79532e-09
1.11205e-06
-6.85638e-09
1.11247e-06
-6.82179e-09
1.11274e-06
-6.7362e-09
1.11286e-06
-6.63139e-09
1.11286e-06
-6.52713e-09
1.11274e-06
-6.43402e-09
1.11251e-06
-6.357e-09
1.11218e-06
-6.29756e-09
1.11176e-06
-6.255e-09
-6.22796e-09
1.11126e-06
9.6402e-07
2.60898e-09
9.63438e-07
2.15963e-10
9.63678e-07
-2.60506e-09
9.64299e-07
-4.48868e-09
9.65223e-07
-6.06993e-09
9.66211e-07
-7.0524e-09
9.67065e-07
-7.42537e-09
9.67719e-07
-7.44963e-09
9.68167e-07
-7.30371e-09
9.68418e-07
-7.07312e-09
9.68493e-07
-6.81134e-09
9.68416e-07
-6.55377e-09
9.68208e-07
-6.31914e-09
9.67888e-07
-6.11491e-09
9.67474e-07
-5.94263e-09
9.66977e-07
-5.80086e-09
9.66409e-07
-5.68635e-09
-5.5956e-09
9.65776e-07
8.38121e-07
5.02341e-09
8.37665e-07
6.71817e-10
8.38189e-07
-3.12874e-09
8.39079e-07
-5.37929e-09
8.40246e-07
-7.23653e-09
8.41332e-07
-8.13854e-09
8.42129e-07
-8.22272e-09
8.42617e-07
-7.93736e-09
8.42832e-07
-7.51873e-09
8.42819e-07
-7.06017e-09
8.42623e-07
-6.61507e-09
8.42283e-07
-6.21409e-09
8.41832e-07
-5.86799e-09
8.41293e-07
-5.5763e-09
8.40685e-07
-5.33417e-09
8.4002e-07
-5.13547e-09
8.39307e-07
-4.97348e-09
-4.84202e-09
8.38553e-07
7.27616e-07
9.13589e-09
7.28051e-07
2.37004e-10
7.29165e-07
-4.24315e-09
7.30427e-07
-6.64143e-09
7.31801e-07
-8.61039e-09
7.32844e-07
-9.18089e-09
7.33405e-07
-8.78437e-09
7.33553e-07
-8.08521e-09
7.33389e-07
-7.35435e-09
7.32999e-07
-6.67082e-09
7.32454e-07
-6.06997e-09
7.31805e-07
-5.5645e-09
7.31086e-07
-5.149e-09
7.3032e-07
-4.81057e-09
7.29522e-07
-4.536e-09
7.287e-07
-4.31388e-09
7.27861e-07
-4.13427e-09
-3.98834e-09
7.27007e-07
6.30206e-07
1.59367e-08
6.32695e-07
-2.25188e-09
6.34608e-07
-6.15672e-09
6.36291e-07
-8.32375e-09
6.37729e-07
-1.00485e-08
6.38461e-07
-9.91304e-09
6.38508e-07
-8.83178e-09
6.38081e-07
-7.65804e-09
6.37366e-07
-6.63922e-09
6.36491e-07
-5.79618e-09
6.35539e-07
-5.11718e-09
6.34556e-07
-4.58161e-09
6.33569e-07
-4.16192e-09
6.3259e-07
-3.83165e-09
6.31624e-07
-3.57012e-09
6.30672e-07
-3.36228e-09
6.29734e-07
-3.19663e-09
-3.06255e-09
6.28809e-07
5.47183e-07
2.33e-08
5.51785e-07
-6.85345e-09
5.53427e-07
-7.79943e-09
5.55049e-07
-9.94554e-09
5.56034e-07
-1.10336e-08
5.55916e-07
-9.79436e-09
5.54998e-07
-7.9144e-09
5.53683e-07
-6.3423e-09
5.52233e-07
-5.1894e-09
5.50785e-07
-4.34842e-09
5.49397e-07
-3.72965e-09
5.48088e-07
-3.27266e-09
5.46858e-07
-2.93128e-09
5.45698e-07
-2.67137e-09
5.44598e-07
-2.47022e-09
5.43549e-07
-2.31393e-09
5.42546e-07
-2.1929e-09
-2.09821e-09
5.41581e-07
4.91611e-07
1.44499e-08
4.90675e-07
-5.91767e-09
4.87196e-07
-4.32032e-09
4.86166e-07
-8.91565e-09
4.84628e-07
-9.49539e-09
4.82167e-07
-7.33375e-09
4.79375e-07
-5.1223e-09
4.76701e-07
-3.66857e-09
4.74317e-07
-2.80499e-09
4.72236e-07
-2.26764e-09
4.70418e-07
-1.91125e-09
4.68811e-07
-1.66616e-09
4.67372e-07
-1.4918e-09
4.66063e-07
-1.36272e-09
4.64858e-07
-1.2646e-09
4.63736e-07
-1.19196e-09
4.62689e-07
-1.14596e-09
-1.17148e-09
4.61762e-07
4.34717e-07
4.288e-07
4.2448e-07
4.15564e-07
4.06068e-07
3.98735e-07
3.93612e-07
3.89944e-07
3.87139e-07
3.84871e-07
3.8296e-07
3.81294e-07
3.79802e-07
3.78439e-07
3.77175e-07
3.75983e-07
3.74837e-07
3.73665e-07
1.54498e-08
-1.54498e-08
1.87794e-08
-3.32955e-09
1.19124e-08
6.86703e-09
-1.45134e-09
1.33637e-08
-1.83111e-08
1.68597e-08
-3.72006e-08
1.88895e-08
-5.7426e-08
2.02255e-08
-7.86519e-08
2.12258e-08
-1.00676e-07
2.20245e-08
-1.2333e-07
2.26533e-08
-1.46433e-07
2.31039e-08
-1.69792e-07
2.33584e-08
-1.93194e-07
2.34026e-08
-2.16425e-07
2.32309e-08
-2.39272e-07
2.28466e-08
-2.61533e-07
2.2261e-08
-2.83024e-07
2.14913e-08
-3.03582e-07
2.05582e-08
-3.23067e-07
1.94841e-08
-3.41358e-07
1.8291e-08
-3.58357e-07
1.69995e-08
-3.73985e-07
1.56279e-08
-3.88177e-07
1.41916e-08
-4.00879e-07
1.27028e-08
-4.12051e-07
1.11714e-08
-4.21656e-07
9.60468e-09
-4.29664e-07
8.00806e-09
-4.36049e-07
6.38572e-09
-4.4079e-07
4.74072e-09
-4.43869e-07
3.07904e-09
-4.45295e-07
1.42606e-09
-4.45134e-07
-1.61203e-10
-4.43493e-07
-1.64049e-09
-4.40462e-07
-3.03136e-09
-4.36089e-07
-4.37273e-09
-4.30405e-07
-5.68413e-09
-4.23432e-07
-6.97301e-09
-4.15192e-07
-8.24065e-09
-4.05707e-07
-9.48488e-09
-3.95005e-07
-1.07016e-08
-3.8312e-07
-1.18855e-08
-3.70089e-07
-1.30308e-08
-3.55957e-07
-1.41314e-08
-1.51808e-08
-8.35345e-09
-7.09639e-09
-2.1589e-08
9.90599e-09
-3.61376e-08
2.14156e-08
-5.26707e-08
2.98968e-08
-7.16173e-08
3.58063e-08
-9.25221e-08
3.97943e-08
-1.14754e-07
4.24575e-08
-1.37728e-07
4.41994e-08
-1.6096e-07
4.52568e-08
-1.84064e-07
4.57571e-08
-2.06729e-07
4.5769e-08
-2.28707e-07
4.53365e-08
-2.49801e-07
4.44969e-08
-2.6986e-07
4.32895e-08
-2.88771e-07
4.17575e-08
-3.06457e-07
3.99467e-08
-3.22869e-07
3.79033e-08
-3.37982e-07
3.5672e-08
-3.51792e-07
3.32936e-08
-3.64305e-07
3.08042e-08
-3.75539e-07
2.82339e-08
-3.85519e-07
2.56074e-08
-3.94271e-07
2.29438e-08
-4.01826e-07
2.02578e-08
-4.08215e-07
1.75601e-08
-4.13469e-07
1.48589e-08
-4.17621e-07
1.21602e-08
-4.20705e-07
9.46993e-09
-4.22759e-07
6.79491e-09
-4.23825e-07
4.14495e-09
-4.23929e-07
1.52964e-09
-4.23036e-07
-1.05446e-09
-4.21052e-07
-3.62446e-09
-4.17895e-07
-6.18789e-09
-4.13527e-07
-8.74075e-09
-4.07933e-07
-1.12781e-08
-4.01113e-07
-1.37935e-08
-3.93075e-07
-1.62786e-08
-3.83836e-07
-1.87236e-08
-3.7342e-07
-2.11174e-08
-3.61858e-07
-2.34481e-08
-3.49185e-07
-2.57033e-08
-3.35446e-07
-2.78705e-08
-2.99372e-08
-2.10079e-08
1.39115e-08
-4.0399e-08
2.9297e-08
-5.87368e-08
3.97535e-08
-7.67294e-08
4.78894e-08
-9.50151e-08
5.4092e-08
-1.13819e-07
5.85977e-08
-1.33039e-07
6.16783e-08
-1.5243e-07
6.35899e-08
-1.71715e-07
6.45422e-08
-1.90653e-07
6.46949e-08
-2.09053e-07
6.41689e-08
-2.26777e-07
6.30604e-08
-2.43732e-07
6.14518e-08
-2.5986e-07
5.94173e-08
-2.75128e-07
5.70257e-08
-2.89521e-07
5.434e-08
-3.03035e-07
5.1417e-08
-3.15669e-07
4.83066e-08
-3.27427e-07
4.50512e-08
-3.38309e-07
4.16858e-08
-3.48313e-07
3.82384e-08
-3.57436e-07
3.47303e-08
-3.6567e-07
3.11776e-08
-3.73004e-07
2.75917e-08
-3.79424e-07
2.39806e-08
-3.84915e-07
2.03496e-08
-3.89457e-07
1.67026e-08
-3.9303e-07
1.30422e-08
-3.95606e-07
9.37103e-09
-3.97152e-07
5.691e-09
-3.97624e-07
2.00203e-09
-3.96979e-07
-1.70007e-09
-3.95185e-07
-5.41839e-09
-3.92223e-07
-9.14914e-09
-3.88081e-07
-1.28835e-08
-3.82749e-07
-1.66096e-08
-3.76229e-07
-2.03138e-08
-3.68527e-07
-2.39804e-08
-3.59658e-07
-2.75927e-08
-3.49643e-07
-3.11324e-08
-3.38511e-07
-3.45806e-08
-3.26296e-07
-3.7918e-08
-3.13041e-07
-4.11255e-08
-4.4184e-08
-2.38353e-08
3.77469e-08
-4.5193e-08
5.06547e-08
-6.47467e-08
5.93071e-08
-8.30499e-08
6.61927e-08
-1.00598e-07
7.16397e-08
-1.17719e-07
7.57188e-08
-1.34562e-07
7.85212e-08
-1.51145e-07
8.01732e-08
-1.67419e-07
8.0816e-08
-1.83312e-07
8.05879e-08
-1.98757e-07
7.96143e-08
-2.13703e-07
7.80066e-08
-2.28114e-07
7.58625e-08
-2.41965e-07
7.32684e-08
-2.5524e-07
7.03002e-08
-2.67924e-07
6.70241e-08
-2.80004e-07
6.34969e-08
-2.91463e-07
5.9766e-08
-3.02283e-07
5.58709e-08
-3.1244e-07
5.18426e-08
-3.21907e-07
4.77055e-08
-3.30654e-07
4.34779e-08
-3.3865e-07
3.9173e-08
-3.45858e-07
3.47999e-08
-3.52242e-07
3.03646e-08
-3.57763e-07
2.58712e-08
-3.62383e-07
2.13221e-08
-3.6606e-07
1.67193e-08
-3.68753e-07
1.20644e-08
-3.70422e-07
7.35933e-09
-3.71026e-07
2.60599e-09
-3.70533e-07
-2.193e-09
-3.68919e-07
-7.03232e-09
-3.66165e-07
-1.19025e-08
-3.62259e-07
-1.67897e-08
-3.57192e-07
-2.16767e-08
-3.50962e-07
-2.65436e-08
-3.43575e-07
-3.13682e-08
-3.35041e-07
-3.61263e-08
-3.25381e-07
-4.07922e-08
-3.14622e-07
-4.53396e-08
-3.02798e-07
-4.97416e-08
-2.89952e-07
-5.39717e-08
-5.80042e-08
-2.31883e-08
6.09352e-08
-4.42602e-08
7.17266e-08
-6.34713e-08
7.85181e-08
-8.11896e-08
8.3911e-08
-9.777e-08
8.82201e-08
-1.13508e-07
9.14571e-08
-1.28618e-07
9.36308e-08
-1.43233e-07
9.47879e-08
-1.57425e-07
9.50082e-08
-1.71227e-07
9.43902e-08
-1.8465e-07
9.30375e-08
-1.97694e-07
9.10504e-08
-2.10353e-07
8.85213e-08
-2.22617e-07
8.55326e-08
-2.34474e-07
8.21567e-08
-2.45905e-07
7.84556e-08
-2.5689e-07
7.44816e-08
-2.67401e-07
7.02777e-08
-2.77409e-07
6.58788e-08
-2.86879e-07
6.13122e-08
-2.95772e-07
5.65989e-08
-3.04048e-07
5.17541e-08
-3.11664e-07
4.67888e-08
-3.18575e-07
4.17104e-08
-3.24734e-07
3.65238e-08
-3.30095e-07
3.12319e-08
-3.3461e-07
2.58372e-08
-3.38233e-07
2.03418e-08
-3.40917e-07
1.47485e-08
-3.42618e-07
9.06112e-09
-3.43298e-07
3.28548e-09
-3.4292e-07
-2.57044e-09
-3.41457e-07
-8.49548e-09
-3.38885e-07
-1.44747e-08
-3.35186e-07
-2.0489e-08
-3.30347e-07
-2.65151e-08
-3.24364e-07
-3.25266e-08
-3.17239e-07
-3.84937e-08
-3.08981e-07
-4.43846e-08
-2.99608e-07
-5.01652e-08
-2.89147e-07
-5.58007e-08
-2.77632e-07
-6.12558e-08
-2.65108e-07
-6.64959e-08
-7.14878e-08
-2.14004e-08
8.23356e-08
-4.10617e-08
9.1388e-08
-5.9049e-08
9.65054e-08
-7.55969e-08
1.00459e-07
-9.0951e-08
1.03574e-07
-1.05346e-07
1.05852e-07
-1.18984e-07
1.07269e-07
-1.32027e-07
1.07831e-07
-1.44594e-07
1.07575e-07
-1.56765e-07
1.06561e-07
-1.68591e-07
1.04864e-07
-1.80103e-07
1.02562e-07
-1.91315e-07
9.97329e-08
-2.02228e-07
9.64459e-08
-2.12835e-07
9.27641e-08
-2.23121e-07
8.87415e-08
-2.33063e-07
8.44236e-08
-2.42633e-07
7.98477e-08
-2.51798e-07
7.50433e-08
-2.60519e-07
7.00335e-08
-2.68756e-07
6.48355e-08
-2.76463e-07
5.94614e-08
-2.83594e-07
5.39196e-08
-2.90099e-07
4.82157e-08
-2.95928e-07
4.23528e-08
-3.01029e-07
3.63334e-08
-3.05352e-07
3.01593e-08
-3.08843e-07
2.38331e-08
-3.11453e-07
1.73587e-08
-3.13134e-07
1.07423e-08
-3.13841e-07
3.99275e-09
-3.13534e-07
-2.87754e-09
-3.12177e-07
-9.85246e-09
-3.0974e-07
-1.69117e-08
-3.06199e-07
-2.40302e-08
-3.01536e-07
-3.1178e-08
-2.95742e-07
-3.8321e-08
-2.88814e-07
-4.54213e-08
-2.80761e-07
-5.24377e-08
-2.716e-07
-5.93268e-08
-2.61356e-07
-6.60441e-08
-2.50067e-07
-7.25445e-08
-2.37779e-07
-7.87843e-08
-8.47216e-08
-1.91653e-08
1.01501e-07
-3.69021e-08
1.09125e-07
-5.32028e-08
1.12806e-07
-6.82202e-08
1.15476e-07
-8.21228e-08
1.17477e-07
-9.50879e-08
1.18817e-07
-1.07286e-07
1.19467e-07
-1.18869e-07
1.19414e-07
-1.29962e-07
1.18668e-07
-1.40662e-07
1.17261e-07
-1.51039e-07
1.15241e-07
-1.61139e-07
1.12663e-07
-1.70991e-07
1.09585e-07
-1.80607e-07
1.06061e-07
-1.89986e-07
1.02143e-07
-1.99119e-07
9.78745e-08
-2.07987e-07
9.32915e-08
-2.16564e-07
8.84248e-08
-2.24819e-07
8.32979e-08
-2.32714e-07
7.79288e-08
-2.40208e-07
7.23301e-08
-2.47257e-07
6.65105e-08
-2.53813e-07
6.0475e-08
-2.59824e-07
5.42265e-08
-2.65237e-07
4.77663e-08
-2.69999e-07
4.10949e-08
-2.74053e-07
3.42134e-08
-2.77344e-07
2.71241e-08
-2.79816e-07
1.98315e-08
-2.81417e-07
1.23431e-08
-2.82095e-07
4.67045e-09
-2.81802e-07
-3.17068e-09
-2.80495e-07
-1.11597e-08
-2.78136e-07
-1.92708e-08
-2.74693e-07
-2.74725e-08
-2.70144e-07
-3.57274e-08
-2.64472e-07
-4.39925e-08
-2.57673e-07
-5.22202e-08
-2.49752e-07
-6.03588e-08
-2.40726e-07
-6.83536e-08
-2.30621e-07
-7.61485e-08
-2.19478e-07
-8.36875e-08
-2.07346e-07
-9.0916e-08
-9.77827e-08
-1.67372e-08
1.18238e-07
-3.23102e-08
1.24698e-07
-4.66697e-08
1.27166e-07
-5.99186e-08
1.28725e-07
-7.21752e-08
1.29733e-07
-8.35727e-08
1.30214e-07
-9.42485e-08
1.30143e-07
-1.04333e-07
1.29499e-07
-1.13944e-07
1.28278e-07
-1.23177e-07
1.26494e-07
-1.32107e-07
1.24171e-07
-1.40791e-07
1.21346e-07
-1.49265e-07
1.18058e-07
-1.57549e-07
1.14346e-07
-1.65652e-07
1.10247e-07
-1.73571e-07
1.05793e-07
-1.81291e-07
1.01012e-07
-1.88792e-07
9.5926e-08
-1.96046e-07
9.05522e-08
-2.0302e-07
8.49025e-08
-2.09674e-07
7.89843e-08
-2.15965e-07
7.28017e-08
-2.21846e-07
6.63557e-08
-2.27265e-07
5.96456e-08
-2.32169e-07
5.26697e-08
-2.365e-07
4.54259e-08
-2.40199e-07
3.79133e-08
-2.43208e-07
3.01331e-08
-2.45466e-07
2.20891e-08
-2.46912e-07
1.37893e-08
-2.47489e-07
5.24686e-09
-2.4714e-07
-3.51969e-09
-2.45814e-07
-1.24857e-08
-2.43464e-07
-2.16201e-08
-2.40052e-07
-3.08843e-08
-2.35547e-07
-4.02325e-08
-2.29928e-07
-4.96117e-08
-2.23186e-07
-5.89627e-08
-2.15323e-07
-6.82212e-08
-2.06357e-07
-7.73194e-08
-1.96318e-07
-8.61877e-08
-1.85249e-07
-9.47567e-08
-1.73206e-07
-1.02959e-07
-1.10733e-07
-1.42201e-08
1.32458e-07
-2.74932e-08
1.37971e-07
-3.97447e-08
1.39417e-07
-5.10463e-08
1.40027e-07
-6.1484e-08
1.40171e-07
-7.11591e-08
1.39889e-07
-8.01812e-08
1.39165e-07
-8.86599e-08
1.37978e-07
-9.66979e-08
1.36316e-07
-1.04385e-07
1.34181e-07
-1.11796e-07
1.31582e-07
-1.1899e-07
1.2854e-07
-1.26008e-07
1.25076e-07
-1.32877e-07
1.21216e-07
-1.39613e-07
1.16983e-07
-1.46219e-07
1.12398e-07
-1.52687e-07
1.0748e-07
-1.59003e-07
1.02242e-07
-1.65143e-07
9.66925e-08
-1.71079e-07
9.08379e-08
-1.76774e-07
8.46795e-08
-1.82188e-07
7.82158e-08
-1.87275e-07
7.1443e-08
-1.91985e-07
6.43559e-08
-1.96264e-07
5.69484e-08
-2.00053e-07
4.9215e-08
-2.03292e-07
4.11516e-08
-2.05915e-07
3.27566e-08
-2.07859e-07
2.40324e-08
-2.09055e-07
1.4986e-08
-2.0944e-07
5.63121e-09
-2.08948e-07
-4.01161e-09
-2.07519e-07
-1.39144e-08
-2.05098e-07
-2.40407e-08
-2.01638e-07
-3.43446e-08
-1.971e-07
-4.47708e-08
-1.91457e-07
-5.52547e-08
-1.84696e-07
-6.57236e-08
-1.76819e-07
-7.60983e-08
-1.67843e-07
-8.62951e-08
-1.57803e-07
-9.62281e-08
-1.46747e-07
-1.05813e-07
-1.34739e-07
-1.14967e-07
-1.23617e-07
-1.16408e-08
1.44099e-07
-2.25088e-08
1.48839e-07
-3.25177e-08
1.49426e-07
-4.1719e-08
1.49228e-07
-5.01772e-08
1.48629e-07
-5.79707e-08
1.47683e-07
-6.51877e-08
1.46382e-07
-7.19195e-08
1.4471e-07
-7.82549e-08
1.42652e-07
-8.42751e-08
1.40201e-07
-9.00509e-08
1.37358e-07
-9.56402e-08
1.34129e-07
-1.01088e-07
1.30524e-07
-1.06427e-07
1.26554e-07
-1.11676e-07
1.22232e-07
-1.16845e-07
1.17567e-07
-1.21934e-07
1.12569e-07
-1.26932e-07
1.0724e-07
-1.31823e-07
1.01584e-07
-1.36582e-07
9.55969e-08
-1.41178e-07
8.92754e-08
-1.45574e-07
8.26113e-08
-1.49726e-07
7.55951e-08
-1.53586e-07
6.82159e-08
-1.571e-07
6.04627e-08
-1.6021e-07
5.23249e-08
-1.62852e-07
4.37939e-08
-1.6496e-07
3.48645e-08
-1.66463e-07
2.55357e-08
-1.6729e-07
1.58126e-08
-1.67367e-07
5.70829e-09
-1.66622e-07
-4.75619e-09
-1.64987e-07
-1.555e-08
-1.62396e-07
-2.66318e-08
-1.58793e-07
-3.79478e-08
-1.54131e-07
-4.9432e-08
-1.48379e-07
-6.10066e-08
-1.4152e-07
-7.25829e-08
-1.33555e-07
-8.4064e-08
-1.24503e-07
-9.5347e-08
-1.14404e-07
-1.06327e-07
-1.03315e-07
-1.16901e-07
-9.13107e-08
-1.26971e-07
-1.36449e-07
-8.98882e-09
1.53088e-07
-1.73448e-08
1.57195e-07
-2.49822e-08
1.57063e-07
-3.19374e-08
1.56183e-07
-3.82594e-08
1.54951e-07
-4.40105e-08
1.53434e-07
-4.92623e-08
1.51634e-07
-5.40913e-08
1.49539e-07
-5.8574e-08
1.47134e-07
-6.27831e-08
1.4441e-07
-6.6784e-08
1.41359e-07
-7.06329e-08
1.37978e-07
-7.43755e-08
1.34267e-07
-7.80469e-08
1.30226e-07
-8.16715e-08
1.25857e-07
-8.52635e-08
1.21159e-07
-8.88278e-08
1.16133e-07
-9.23606e-08
1.10773e-07
-9.585e-08
1.05073e-07
-9.92764e-08
9.90234e-08
-1.02614e-07
9.26125e-08
-1.05828e-07
8.58258e-08
-1.0888e-07
7.86472e-08
-1.11724e-07
7.10596e-08
-1.14307e-07
6.30458e-08
-1.16571e-07
5.45893e-08
-1.18453e-07
4.5676e-08
-1.19884e-07
3.62953e-08
-1.2079e-07
2.64417e-08
-1.21095e-07
1.6117e-08
-1.20718e-07
5.33193e-09
-1.19582e-07
-5.89281e-09
-1.17607e-07
-1.75247e-08
-1.14721e-07
-2.95177e-08
-1.10859e-07
-4.181e-08
-1.05967e-07
-5.43239e-08
-1.00007e-07
-6.6966e-08
-9.29611e-08
-7.96291e-08
-8.48304e-08
-9.21947e-08
-7.56397e-08
-1.04538e-07
-6.54362e-08
-1.16531e-07
-5.42881e-08
-1.28049e-07
-4.22819e-08
-1.38977e-07
-1.49212e-07
-6.2286e-09
1.59316e-07
-1.19512e-08
1.62918e-07
-1.70825e-08
1.62195e-07
-2.16435e-08
1.60744e-07
-2.56719e-08
1.5898e-07
-2.92177e-08
1.5698e-07
-3.23402e-08
1.54756e-07
-3.5104e-08
1.52303e-07
-3.75756e-08
1.49606e-07
-3.98194e-08
1.46654e-07
-4.18953e-08
1.43435e-07
-4.38568e-08
1.3994e-07
-4.5749e-08
1.36159e-07
-4.76082e-08
1.32085e-07
-4.94615e-08
1.2771e-07
-5.13271e-08
1.23025e-07
-5.32143e-08
1.1802e-07
-5.51241e-08
1.12683e-07
-5.70493e-08
1.06998e-07
-5.89753e-08
1.00949e-07
-6.08802e-08
9.45174e-08
-6.27349e-08
8.76805e-08
-6.45034e-08
8.04157e-08
-6.61428e-08
7.2699e-08
-6.76034e-08
6.45064e-08
-6.88287e-08
5.58146e-08
-6.97556e-08
4.66029e-08
-7.03146e-08
3.68543e-08
-7.04305e-08
2.65576e-08
-7.00234e-08
1.57099e-08
-6.90099e-08
4.31842e-09
-6.73044e-08
-7.59827e-09
-6.48224e-08
-2.00068e-08
-6.14831e-08
-3.2857e-08
-5.72147e-08
-4.60784e-08
-5.19582e-08
-5.95804e-08
-4.56724e-08
-7.32518e-08
-3.8338e-08
-8.69634e-08
-2.9961e-08
-1.00572e-07
-2.05737e-08
-1.13925e-07
-1.02348e-08
-1.26869e-07
9.73818e-10
-1.39258e-07
1.29508e-08
-1.50954e-07
-1.61841e-07
-3.30429e-09
1.62621e-07
-6.25411e-09
1.65867e-07
-8.73474e-09
1.64675e-07
-1.07481e-08
1.62758e-07
-1.23221e-08
1.60554e-07
-1.34981e-08
1.58156e-07
-1.43262e-08
1.55584e-07
-1.48617e-08
1.52838e-07
-1.51625e-08
1.49907e-07
-1.52859e-08
1.46777e-07
-1.52863e-08
1.43436e-07
-1.52132e-08
1.39867e-07
-1.511e-08
1.36056e-07
-1.50127e-08
1.31988e-07
-1.49497e-08
1.27647e-07
-1.49411e-08
1.23017e-07
-1.49994e-08
1.18078e-07
-1.51288e-08
1.12812e-07
-1.53261e-08
1.07195e-07
-1.55807e-08
1.01204e-07
-1.58744e-08
9.48111e-08
-1.61821e-08
8.79882e-08
-1.64715e-08
8.0705e-08
-1.67029e-08
7.29305e-08
-1.68298e-08
6.46333e-08
-1.67981e-08
5.57829e-08
-1.65465e-08
4.63513e-08
-1.60067e-08
3.63145e-08
-1.51036e-08
2.56545e-08
-1.37565e-08
1.43627e-08
-1.18798e-08
2.4418e-09
-9.38505e-09
-1.00931e-08
-6.18326e-09
-2.32086e-08
-2.1897e-09
-3.68505e-08
2.67131e-09
-5.09394e-08
8.46078e-09
-6.53698e-08
1.5219e-08
-8.00101e-08
2.29609e-08
-9.47053e-08
3.16719e-08
-1.09283e-07
4.13076e-08
-1.23561e-07
5.17939e-08
-1.37356e-07
6.30315e-08
-1.50495e-07
7.49016e-08
-1.62825e-07
-1.74214e-07
2.05581e-10
1.62415e-07
-8.51166e-11
1.66158e-07
1.76976e-10
1.64413e-07
8.56439e-10
1.62078e-07
1.89726e-09
1.59513e-07
3.25532e-09
1.56798e-07
4.88477e-09
1.53955e-07
6.73671e-09
1.50986e-07
8.76048e-09
1.47883e-07
1.09056e-08
1.44632e-07
1.31235e-08
1.41218e-07
1.53692e-08
1.37621e-07
1.76029e-08
1.33822e-07
1.97905e-08
1.298e-07
2.19044e-08
1.25533e-07
2.39243e-08
1.20997e-07
2.58368e-08
1.16166e-07
2.76357e-08
1.11013e-07
2.93222e-08
1.05509e-07
3.09044e-08
9.96218e-08
3.23976e-08
9.3318e-08
3.38239e-08
8.65619e-08
3.52126e-08
7.93163e-08
3.66001e-08
7.1543e-08
3.80301e-08
6.32032e-08
3.95537e-08
5.42593e-08
4.12293e-08
4.46757e-08
4.31228e-08
3.4421e-08
4.53072e-08
2.34702e-08
4.78616e-08
1.18083e-08
5.08709e-08
-5.67506e-10
5.44237e-08
-1.36459e-08
5.86093e-08
-2.73942e-08
6.3512e-08
-4.17531e-08
6.92046e-08
-5.66321e-08
7.57424e-08
-7.19076e-08
8.31563e-08
-8.7424e-08
9.14478e-08
-1.02997e-07
1.00586e-07
-1.18421e-07
1.10506e-07
-1.33481e-07
1.21115e-07
-1.47965e-07
1.32294e-07
-1.61674e-07
1.43908e-07
-1.74439e-07
-1.86122e-07
4.34349e-09
1.58072e-07
6.75682e-09
1.63745e-07
9.83723e-09
1.61333e-07
1.33307e-08
1.58585e-07
1.71274e-08
1.55716e-07
2.11668e-08
1.52758e-07
2.54005e-08
1.49721e-07
2.97828e-08
1.46604e-07
3.42684e-08
1.43397e-07
3.88131e-08
1.40088e-07
4.33746e-08
1.36656e-07
4.7914e-08
1.33081e-07
5.2396e-08
1.2934e-07
5.67907e-08
1.25405e-07
6.10736e-08
1.2125e-07
6.52263e-08
1.16844e-07
6.92366e-08
1.12156e-07
7.30989e-08
1.07151e-07
7.68141e-08
1.01794e-07
8.03895e-08
9.60463e-08
8.38393e-08
8.98682e-08
8.71841e-08
8.32172e-08
9.04511e-08
7.60493e-08
9.36747e-08
6.83194e-08
9.6896e-08
5.9982e-08
1.00163e-07
5.09922e-08
1.03531e-07
4.13074e-08
1.07063e-07
3.08891e-08
1.10828e-07
1.97058e-08
1.14899e-07
7.73648e-09
1.1936e-07
-5.02797e-09
1.24293e-07
-1.85791e-08
1.29781e-07
-3.28825e-08
1.35899e-07
-4.78706e-08
1.42705e-07
-6.3438e-08
1.50237e-07
-7.94395e-08
1.58503e-07
-9.56907e-08
1.67481e-07
-1.11975e-07
1.77112e-07
-1.28052e-07
1.87304e-07
-1.43673e-07
1.9794e-07
-1.586e-07
2.08883e-07
-1.72617e-07
2.19988e-07
-1.85544e-07
-1.97248e-07
9.35974e-09
1.48712e-07
1.54406e-08
1.57664e-07
2.20024e-08
1.54771e-07
2.89401e-08
1.51647e-07