/*--------------------------------*- C++ -*----------------------------------*\
  =========                 |
  \\      /  F ield         | OpenFOAM: The Open Source CFD Toolbox
   \\    /   O peration     | Website:  https://openfoam.org
    \\  /    A nd           | Version:  6
     \\/     M anipulation  |
\*---------------------------------------------------------------------------*/
FoamFile
{
    version     2.0;
    format      ascii;
    class       volVectorField;
    location    "0.09";
    object      U;
}
// * * * * * * * * * * * * * * * * * * * * * * * * * * * * * * * * * * * * * //

dimensions      [0 1 -1 0 0 0 0];

internalField   nonuniform List<vector> 
3032
(
(0.948757 -0.405568 0)
(1.01274 -0.190679 0)
(1.01489 -0.0514169 0)
(0.983707 -0.00517994 0)
(0.955913 0.00447169 0)
(0.937821 0.00416826 0)
(0.925995 0.00250881 0)
(0.917804 0.00138944 0)
(0.911897 0.000820745 0)
(0.907433 0.000538186 0)
(0.903909 0.000376788 0)
(0.901084 0.000265032 0)
(0.898841 0.000170084 0)
(0.897155 7.55394e-05 0)
(0.895966 -5.88031e-05 0)
(0.895819 -0.000175387 0)
(0.895325 -0.000646824 0)
(0.902635 -0.00146943 0)
(1.03698 0.0761166 0)
(1.02003 0.0532976 0)
(1.01146 0.0193536 0)
(1.00456 0.00894302 0)
(0.998404 0.00661984 0)
(0.991916 0.00514945 0)
(0.985082 0.00385899 0)
(0.978938 0.00296002 0)
(0.973987 0.00237102 0)
(0.970086 0.00194871 0)
(0.96697 0.00161994 0)
(0.96447 0.00134968 0)
(0.96248 0.00110745 0)
(0.960947 0.000866682 0)
(0.959793 0.000564214 0)
(0.959243 0.000223378 0)
(0.959099 -0.000841141 0)
(0.960453 -0.00217936 0)
(0.998332 0.0132055 0)
(0.995395 0.0119187 0)
(1.00094 0.00633502 0)
(1.00218 0.00640815 0)
(1.00171 0.00685957 0)
(1.00006 0.006119 0)
(0.997072 0.00499824 0)
(0.993629 0.00404956 0)
(0.990464 0.00332705 0)
(0.987771 0.00276011 0)
(0.985528 0.00230032 0)
(0.983698 0.00191263 0)
(0.982244 0.00156027 0)
(0.981149 0.00120842 0)
(0.980377 0.000787774 0)
(0.980012 0.000238637 0)
(0.979853 -0.000900761 0)
(0.979954 -0.00265446 0)
(0.995105 -0.00696119 0)
(0.992526 0.00120382 0)
(0.998732 0.00383843 0)
(1.00111 0.00579466 0)
(1.00211 0.00682354 0)
(1.00236 0.00650713 0)
(1.00138 0.00564447 0)
(0.999661 0.00478745 0)
(0.997819 0.00405166 0)
(0.996104 0.00342291 0)
(0.994597 0.00288164 0)
(0.993335 0.00240378 0)
(0.99233 0.00195602 0)
(0.991587 0.0015014 0)
(0.991087 0.000971805 0)
(0.99085 0.000294722 0)
(0.99069 -0.000832703 0)
(0.990424 -0.0023638 0)
(0.996672 -0.00695517 0)
(0.993865 0.000761175 0)
(0.998196 0.00362125 0)
(1.00036 0.00534504 0)
(1.00186 0.00647638 0)
(1.00297 0.00647861 0)
(1.00311 0.00589378 0)
(1.00253 0.00519347 0)
(1.00166 0.00451507 0)
(1.00072 0.00388323 0)
(0.999841 0.00330372 0)
(0.999077 0.00276652 0)
(0.998469 0.00224641 0)
(0.998036 0.00171003 0)
(0.997769 0.001099 0)
(0.997655 0.00035112 0)
(0.997546 -0.000708126 0)
(0.997215 -0.00200046 0)
(0.99783 -0.00416955 0)
(0.995203 0.00119248 0)
(0.998019 0.00331654 0)
(0.999877 0.00479679 0)
(1.00151 0.0059541 0)
(1.00299 0.00618322 0)
(1.00376 0.00584084 0)
(1.00392 0.00530821 0)
(1.00374 0.00472083 0)
(1.00342 0.00412432 0)
(1.00306 0.00354145 0)
(1.00272 0.00297427 0)
(1.00246 0.00240699 0)
(1.00231 0.00181352 0)
(1.00225 0.00114984 0)
(1.00227 0.000372416 0)
(1.00225 -0.000604744 0)
(1.002 -0.00169944 0)
(0.998454 -0.00259822 0)
(0.996261 0.00107257 0)
(0.998102 0.00284779 0)
(0.999661 0.00422654 0)
(1.00124 0.00536274 0)
(1.00283 0.00573549 0)
(1.00393 0.00558205 0)
(1.00454 0.00519952 0)
(1.00486 0.00471017 0)
(1.005 0.00416771 0)
(1.00504 0.00360376 0)
(1.00506 0.00302884 0)
(1.00511 0.00243589 0)
(1.0052 0.00180754 0)
(1.00533 0.00111492 0)
(1.00549 0.000333523 0)
(1.00559 -0.000567099 0)
(1.00551 -0.00151145 0)
(0.998888 -0.00176428 0)
(0.997171 0.000861041 0)
(0.998375 0.00243216 0)
(0.999652 0.00369882 0)
(1.00109 0.00475873 0)
(1.00263 0.00520505 0)
(1.00388 0.00518616 0)
(1.00477 0.00492485 0)
(1.00541 0.00452545 0)
(1.00588 0.00404159 0)
(1.00624 0.00350778 0)
(1.00655 0.00293961 0)
(1.00684 0.0023371 0)
(1.00714 0.00169134 0)
(1.00745 0.000986909 0)
(1.00774 0.000214978 0)
(1.00799 -0.000623676 0)
(1.00809 -0.0014662 0)
(0.999238 -0.00115808 0)
(0.997955 0.000754944 0)
(0.99874 0.0021103 0)
(0.999775 0.00322512 0)
(1.00104 0.00417005 0)
(1.00247 0.00463482 0)
(1.00375 0.00470075 0)
(1.00479 0.00452837 0)
(1.00563 0.00420277 0)
(1.00633 0.00377283 0)
(1.00692 0.00327204 0)
(1.00745 0.00271832 0)
(1.00794 0.00211684 0)
(1.00841 0.00146574 0)
(1.00886 0.000760126 0)
(1.00929 2.07214e-06 0)
(1.00968 -0.000793103 0)
(1.00997 -0.00157782 0)
(0.999506 -0.000680027 0)
(0.998602 0.00072032 0)
(0.999124 0.00185205 0)
(0.999969 0.00279964 0)
(1.00107 0.0036103 0)
(1.00237 0.00405218 0)
(1.00361 0.00416009 0)
(1.0047 0.00404496 0)
(1.00566 0.00377338 0)
(1.0065 0.00338712 0)
(1.00725 0.00291635 0)
(1.00794 0.00237926 0)
(1.00858 0.00178429 0)
(1.00918 0.0011347 0)
(1.00976 0.00043272 0)
(1.01031 -0.000313338 0)
(1.01082 -0.00108402 0)
(1.01128 -0.00184664 0)
(0.999697 -0.000335336 0)
(0.999108 0.000702486 0)
(0.999483 0.00162821 0)
(1.00019 0.00241239 0)
(1.00115 0.00308308 0)
(1.00231 0.00347272 0)
(1.00348 0.00358767 0)
(1.00457 0.00350108 0)
(1.00558 0.00326298 0)
(1.0065 0.00290724 0)
(1.00735 0.0024596 0)
(1.00814 0.00193711 0)
(1.00889 0.00134974 0)
(1.00959 0.000703872 0)
(1.01027 5.74683e-06 0)
(1.01092 -0.000733953 0)
(1.01153 -0.00149727 0)
(1.01212 -0.00226422 0)
(0.999814 -0.00012636 0)
(0.999454 0.000677781 0)
(0.999765 0.00143666 0)
(1.00039 0.00208152 0)
(1.00124 0.00262696 0)
(1.00228 0.00295194 0)
(1.00338 0.00304938 0)
(1.00444 0.00296725 0)
(1.00545 0.00274258 0)
(1.0064 0.0024023 0)
(1.0073 0.00196776 0)
(1.00815 0.0014542 0)
(1.00895 0.000871743 0)
(1.00972 0.000227987 0)
(1.01046 -0.000469425 0)
(1.01117 -0.00121003 0)
(1.01186 -0.00197937 0)
(1.01254 -0.0027664 0)
(0.999894 4.81968e-06 0)
(0.99971 0.000638455 0)
(0.999997 0.00124951 0)
(1.00056 0.00176626 0)
(1.00133 0.00219335 0)
(1.00227 0.00244577 0)
(1.00329 0.00251079 0)
(1.0043 0.00241809 0)
(1.00529 0.00219394 0)
(1.00625 0.00185893 0)
(1.00716 0.00143021 0)
(1.00804 0.000920795 0)
(1.00888 0.00034016 0)
(1.00968 -0.000303981 0)
(1.01046 -0.00100398 0)
(1.01122 -0.00175075 0)
(1.01196 -0.0025339 0)
(1.0127 -0.00334986 0)
(0.999952 8.20906e-05 0)
(0.99991 0.000567293 0)
(1.00019 0.00103355 0)
(1.00071 0.0014181 0)
(1.00142 0.0017196 0)
(1.00226 0.00188444 0)
(1.00319 0.00189865 0)
(1.00414 0.00177822 0)
(1.00509 0.00154028 0)
(1.00602 0.0011993 0)
(1.00693 0.000767953 0)
(1.00781 0.000256464 0)
(1.00865 -0.00032717 0)
(1.00947 -0.000976188 0)
(1.01027 -0.00168412 0)
(1.01105 -0.00244417 0)
(1.01182 -0.00325028 0)
(1.01259 -0.00410461 0)
(0.999987 0.000105701 0)
(1.00005 0.000452051 0)
(1.00034 0.000774925 0)
(1.00083 0.00102562 0)
(1.00147 0.00119874 0)
(1.00224 0.0012647 0)
(1.00308 0.00121165 0)
(1.00396 0.00104658 0)
(1.00484 0.000779508 0)
(1.00573 0.000419613 0)
(1.0066 -2.4758e-05 0)
(1.00745 -0.000546487 0)
(1.00827 -0.00113974 0)
(1.00908 -0.00179952 0)
(1.00987 -0.00252135 0)
(1.01063 -0.00330109 0)
(1.01139 -0.00413635 0)
(1.01215 -0.00503292 0)
(1.00001 8.24797e-05 0)
(1.00012 0.000287444 0)
(1.00042 0.000463341 0)
(1.00089 0.000577397 0)
(1.00148 0.000621954 0)
(1.00217 0.000582067 0)
(1.00293 0.000449494 0)
(1.00373 0.000226069 0)
(1.00454 -8.33311e-05 0)
(1.00536 -0.000473831 0)
(1.00616 -0.000940876 0)
(1.00696 -0.00148045 0)
(1.00773 -0.00208919 0)
(1.00849 -0.00276429 0)
(1.00922 -0.00350347 0)
(1.00994 -0.00430496 0)
(1.01064 -0.00516885 0)
(1.01133 -0.00610236 0)
(1.00001 2.4176e-05 0)
(1.00015 7.50008e-05 0)
(1.00044 9.54495e-05 0)
(1.00088 6.64805e-05 0)
(1.00142 -1.89932e-05 0)
(1.00204 -0.000168761 0)
(1.00272 -0.000388261 0)
(1.00344 -0.0006784 0)
(1.00417 -0.00103806 0)
(1.0049 -0.00146586 0)
(1.00562 -0.00196045 0)
(1.00633 -0.00252064 0)
(1.00702 -0.00314546 0)
(1.00768 -0.00383419 0)
(1.00833 -0.00458637 0)
(1.00895 -0.00540187 0)
(1.00954 -0.00628187 0)
(1.01012 -0.00723326 0)
(1.00001 -5.59123e-05 0)
(1.00015 -0.000175888 0)
(1.00042 -0.000322895 0)
(1.00081 -0.000504892 0)
(1.0013 -0.000725224 0)
(1.00185 -0.000988169 0)
(1.00246 -0.00129771 0)
(1.00309 -0.00165649 0)
(1.00372 -0.00206643 0)
(1.00436 -0.00252926 0)
(1.00498 -0.00304653 0)
(1.00558 -0.00361956 0)
(1.00615 -0.00424951 0)
(1.00669 -0.00493736 0)
(1.0072 -0.00568393 0)
(1.00768 -0.00648991 0)
(1.00813 -0.00735667 0)
(1.00854 -0.00828968 0)
(1.00001 -0.00014438 0)
(1.00012 -0.000448426 0)
(1.00035 -0.000777426 0)
(1.00069 -0.00112473 0)
(1.00112 -0.00148675 0)
(1.00161 -0.00186513 0)
(1.00213 -0.00226266 0)
(1.00268 -0.00268328 0)
(1.00322 -0.00313193 0)
(1.00376 -0.00361363 0)
(1.00426 -0.00413284 0)
(1.00474 -0.00469338 0)
(1.00517 -0.00529836 0)
(1.00557 -0.00595023 0)
(1.00592 -0.00665079 0)
(1.00622 -0.00740125 0)
(1.00648 -0.00820277 0)
(1.00669 -0.00905923 0)
(1 -0.000197928 0)
(1.00005 -0.000645459 0)
(1.0002 -0.00113723 0)
(1.00049 -0.00163406 0)
(1.00088 -0.0021234 0)
(1.00133 -0.00260304 0)
(1.00182 -0.00307123 0)
(1.00233 -0.00353181 0)
(1.00282 -0.00399312 0)
(1.00329 -0.00446399 0)
(1.00372 -0.00495212 0)
(1.00411 -0.0054641 0)
(1.00444 -0.00600533 0)
(1.00471 -0.00657997 0)
(1.00493 -0.00719107 0)
(1.00508 -0.00784063 0)
(1.00518 -0.00853003 0)
(1.00522 -0.00926221 0)
(0.999977 -0.000174655 0)
(0.999885 -0.000713627 0)
(0.999945 -0.00135742 0)
(1.00019 -0.00199191 0)
(1.00056 -0.00260065 0)
(1.00103 -0.00317438 0)
(1.00155 -0.00370061 0)
(1.00207 -0.00418386 0)
(1.00257 -0.00463858 0)
(1.00302 -0.00507889 0)
(1.00342 -0.00551668 0)
(1.00374 -0.0059621 0)
(1.004 -0.00642343 0)
(1.00418 -0.00690698 0)
(1.00429 -0.00741728 0)
(1.00433 -0.00795736 0)
(1.0043 -0.00852916 0)
(1.0042 -0.00913527 0)
(0.999907 -2.31413e-05 0)
(0.999539 -0.00064283 0)
(0.999474 -0.00148226 0)
(0.999718 -0.002282 0)
(1.00014 -0.00303905 0)
(1.00069 -0.00372315 0)
(1.0013 -0.00430286 0)
(1.00189 -0.00479107 0)
(1.00243 -0.00521577 0)
(1.00289 -0.00559991 0)
(1.00326 -0.00596177 0)
(1.00353 -0.00631675 0)
(1.00371 -0.00667697 0)
(1.00379 -0.0070513 0)
(1.00379 -0.00744587 0)
(1.0037 -0.00786474 0)
(1.00353 -0.00831031 0)
(1.00329 -0.00878494 0)
(0.999759 0.000312435 0)
(0.998898 -0.000457678 0)
(0.998729 -0.00156454 0)
(0.999068 -0.00256509 0)
(0.999636 -0.00351465 0)
(1.00037 -0.00432365 0)
(1.00114 -0.00493619 0)
(1.00185 -0.00539388 0)
(1.00243 -0.00575052 0)
(1.00288 -0.00604218 0)
(1.00319 -0.00629596 0)
(1.00337 -0.00653399 0)
(1.00343 -0.00677262 0)
(1.00337 -0.0070229 0)
(1.00321 -0.00729201 0)
(1.00295 -0.00758441 0)
(1.00262 -0.00790242 0)
(1.0022 -0.0082478 0)
(0.999508 0.000951004 0)
(0.997861 -0.000248517 0)
(0.99772 -0.00172691 0)
(0.998326 -0.00294024 0)
(0.99917 -0.00411106 0)
(1.00019 -0.00502852 0)
(1.00119 -0.00561805 0)
(1.00199 -0.00598305 0)
(1.00256 -0.00621649 0)
(1.00291 -0.00637025 0)
(1.00308 -0.00648127 0)
(1.00307 -0.0065783 0)
(1.00292 -0.00668058 0)
(1.00265 -0.00679967 0)
(1.00226 -0.00694221 0)
(1.00179 -0.00711175 0)
(1.00124 -0.00730948 0)
(1.00062 -0.00753587 0)
(0.998977 0.00253228 0)
(0.99621 0.000166618 0)
(0.996539 -0.00201678 0)
(0.997702 -0.00350116 0)
(0.998948 -0.00489308 0)
(1.00032 -0.00584439 0)
(1.0015 -0.00630951 0)
(1.00228 -0.00649414 0)
(1.00268 -0.00653854 0)
(1.00278 -0.00650896 0)
(1.00265 -0.00644982 0)
(1.00232 -0.00639317 0)
(1.00185 -0.00635743 0)
(1.00125 -0.00635136 0)
(1.00057 -0.00637856 0)
(0.999806 -0.0064399 0)
(0.998984 -0.00653424 0)
(0.998114 -0.00666001 0)
(0.997453 0.00614292 0)
(0.993419 0.00150525 0)
(0.995263 -0.00209767 0)
(0.997482 -0.0041817 0)
(0.999232 -0.00583301 0)
(1.00089 -0.00669194 0)
(1.00205 -0.00689543 0)
(1.00253 -0.00680138 0)
(1.00248 -0.0065966 0)
(1.00207 -0.00635442 0)
(1.00141 -0.00611906 0)
(1.00059 -0.00591821 0)
(0.999642 -0.00576316 0)
(0.998622 -0.00565544 0)
(0.99755 -0.00559287 0)
(0.996441 -0.00557209 0)
(0.995304 -0.00558891 0)
(0.994152 -0.00563921 0)
(0.994436 0.00858814 0)
(0.98943 0.00229695 0)
(0.994067 -0.00196095 0)
(0.997918 -0.00483044 0)
(1.00023 -0.00676998 0)
(1.0019 -0.0073704 0)
(1.00255 -0.00716681 0)
(1.0022 -0.00671711 0)
(1.00122 -0.00623912 0)
(0.999932 -0.00579529 0)
(0.998478 -0.00541497 0)
(0.996946 -0.00511041 0)
(0.995392 -0.00487865 0)
(0.993846 -0.0047103 0)
(0.992318 -0.00459586 0)
(0.990812 -0.00452755 0)
(0.989329 -0.00449853 0)
(0.987872 -0.00450172 0)
(0.994525 -0.00665965 0)
(0.989469 -0.0085474 0)
(0.995422 -0.00532273 0)
(0.99987 -0.00626613 0)
(1.00213 -0.0076765 0)
(1.00288 -0.00765408 0)
(1.00194 -0.00689231 0)
(0.999791 -0.00606745 0)
(0.997183 -0.00536469 0)
(0.994526 -0.00479314 0)
(0.991959 -0.00434418 0)
(0.989525 -0.00400491 0)
(0.987234 -0.00375543 0)
(0.985081 -0.00357561 0)
(0.983047 -0.00345015 0)
(0.981112 -0.00336885 0)
(0.979263 -0.00332473 0)
(0.97749 -0.00330523 0)
(1.02649 -0.0702317 0)
(1.01708 -0.062403 0)
(1.0118 -0.0292383 0)
(1.00836 -0.0149034 0)
(1.00545 -0.0103749 0)
(1.00144 -0.00790283 0)
(0.996015 -0.00605064 0)
(0.990197 -0.00479351 0)
(0.984865 -0.00398118 0)
(0.980243 -0.00343171 0)
(0.976235 -0.00304294 0)
(0.97271 -0.00276583 0)
(0.96957 -0.00256908 0)
(0.966736 -0.00242958 0)
(0.964142 -0.00233221 0)
(0.961738 -0.0022696 0)
(0.959493 -0.00224071 0)
(0.957392 -0.00226728 0)
(0.966188 0.350229 0)
(1.02692 0.194265 0)
(1.03266 0.0679107 0)
(1.00447 0.0152505 0)
(0.976129 -0.0012906 0)
(0.955971 -0.00435076 0)
(0.941959 -0.0036446 0)
(0.931796 -0.00250767 0)
(0.924192 -0.00170421 0)
(0.918262 -0.00122873 0)
(0.913379 -0.000959046 0)
(0.909172 -0.000806834 0)
(0.905439 -0.000721107 0)
(0.902059 -0.000673423 0)
(0.898946 -0.000648516 0)
(0.896035 -0.000640765 0)
(0.893265 -0.000646393 0)
(0.890587 -0.000715439 0)
(0.00673598 -0.0283143 -2.44222e-21)
(0.0174837 -0.0156899 2.29153e-21)
(0.0157185 0.00291108 0)
(0.00577126 0.014171 0)
(-0.0082453 0.0187137 0)
(-0.024345 0.0205354 -2.06051e-21)
(-0.0418417 0.0215248 0)
(-0.0603417 0.0223091 0)
(-0.0796429 0.0230373 0)
(-0.0995954 0.0236997 0)
(-0.12005 0.0242432 1.77644e-21)
(-0.140839 0.0246134 0)
(-0.161782 0.0247691 0)
(-0.182687 0.0246859 0)
(-0.203361 0.0243555 0)
(-0.223618 0.0237836 1.69627e-21)
(-0.243285 0.0229858 0)
(-0.262207 0.0219845 0)
(-0.280245 0.0208057 0)
(-0.297284 0.0194759 0)
(-0.313226 0.0180204 0)
(-0.32799 0.016462 0)
(-0.341511 0.0148202 0)
(-0.353735 0.0131115 1.64078e-21)
(-0.364618 0.01135 -1.6234e-21)
(-0.374122 0.0095481 1.60201e-21)
(-0.382217 0.00771829 1.57625e-21)
(-0.388877 0.00587635 0)
(-0.394083 0.00404341 0)
(-0.397829 0.00225275 -1.46988e-21)
(-0.400085 0.000557841 -1.42372e-21)
(-0.400813 -0.000989911 0)
(-0.400168 -0.0023832 0)
(-0.398276 -0.00366742 -1.24245e-21)
(-0.395157 -0.00489183 0)
(-0.39084 -0.00607854 0)
(-0.385347 -0.00723669 9.99405e-22)
(-0.378695 -0.00836914 0)
(-0.370901 -0.00947543 8.02273e-22)
(-0.361987 -0.0105532 1.3862e-21)
(-0.351978 -0.0115993 0)
(-0.340903 -0.0126097 0)
(-0.328799 -0.0135804 0)
(-0.315707 -0.0145071 0)
(-0.00894504 -0.0245969 6.61597e-21)
(-0.0136774 0.00415667 -5.30165e-21)
(-0.024543 0.0246931 0)
(-0.0385204 0.039324 2.65813e-21)
(-0.0546433 0.0486895 0)
(-0.0725556 0.0544243 1.20974e-21)
(-0.091892 0.0579673 -2.28352e-21)
(-0.112143 0.0601904 -2.21873e-21)
(-0.132835 0.0615328 0)
(-0.153584 0.0621842 -2.13967e-21)
(-0.174086 0.0622181 -1.07899e-21)
(-0.194092 0.0616685 0)
(-0.213406 0.0605655 0)
(-0.231873 0.0589494 0)
(-0.249376 0.0568722 0)
(-0.26583 0.0543955 -1.07243e-21)
(-0.281179 0.0515851 0)
(-0.295391 0.0485074 2.1492e-21)
(-0.308451 0.045225 0)
(-0.320361 0.0417941 0)
(-0.331131 0.0382634 -2.16456e-21)
(-0.340779 0.0346726 0)
(-0.349327 0.0310534 2.15405e-21)
(-0.356799 0.0274298 -1.06532e-21)
(-0.363221 0.0238191 1.05364e-21)
(-0.368621 0.0202335 -1.03859e-21)
(-0.373024 0.0166814 -1.02003e-21)
(-0.376461 0.0131689 0)
(-0.37896 0.00970334 0)
(-0.38055 0.00629917 9.42578e-22)
(-0.381262 0.00298416 -9.5126e-22)
(-0.381137 -0.000204739 0)
(-0.380092 -0.00325707 0)
(-0.377996 -0.00619622 7.80747e-22)
(-0.374819 -0.00904651 0)
(-0.370539 -0.0118211 0)
(-0.365148 -0.0145232 -6.15796e-22)
(-0.358648 -0.01715 0)
(-0.351048 -0.0196948 5.79615e-22)
(-0.342365 -0.0221488 -8.34872e-22)
(-0.332622 -0.0245018 0)
(-0.321846 -0.0267434 0)
(-0.310073 -0.0288628 -9.98668e-22)
(-0.297342 -0.0308494 -6.85926e-22)
(-0.0173346 0.00759097 -2.07499e-22)
(-0.028936 0.0362255 5.80459e-21)
(-0.0437047 0.0563363 0)
(-0.0597398 0.0716013 -4.04187e-21)
(-0.076027 0.0826945 0)
(-0.092613 0.0903036 0)
(-0.109611 0.09519 -2.10399e-23)
(-0.126888 0.097998 1.63864e-21)
(-0.144204 0.099196 1.63348e-21)
(-0.161322 0.0990988 1.58442e-21)
(-0.178048 0.0979201 0)
(-0.194238 0.0958182 0)
(-0.20979 0.0929268 -1.59676e-21)
(-0.224639 0.0893693 -3.19906e-21)
(-0.238746 0.0852632 3.20867e-21)
(-0.25209 0.0807202 0)
(-0.264664 0.0758431 3.23189e-21)
(-0.276464 0.0707239 -1.59668e-21)
(-0.287493 0.0654422 0)
(-0.297751 0.0600637 3.25234e-21)
(-0.307238 0.0546416 1.60397e-21)
(-0.315949 0.0492167 -3.24221e-21)
(-0.323879 0.0438197 -1.59267e-21)
(-0.331018 0.0384727 0)
(-0.337353 0.033191 3.17448e-21)
(-0.342871 0.0279856 3.13543e-21)
(-0.347555 0.022864 0)
(-0.351385 0.0178322 3.0299e-21)
(-0.354339 0.0128944 0)
(-0.356388 0.00805259 2.88532e-21)
(-0.357495 0.00330185 1.36051e-21)
(-0.35762 -0.0013756 0)
(-0.356725 -0.0059966 0)
(-0.354785 -0.0105592 0)
(-0.351784 -0.0150517 0)
(-0.347712 -0.0194604 0)
(-0.342562 -0.0237707 0)
(-0.336337 -0.0279668 1.83845e-21)
(-0.329044 -0.0320315 -2.42235e-21)
(-0.320697 -0.0359467 0)
(-0.311318 -0.0396939 0)
(-0.300932 -0.0432549 0)
(-0.289573 -0.0466115 -1.64531e-22)
(-0.27728 -0.0497467 4.8068e-22)
(-0.018777 0.0491395 -1.08897e-20)
(-0.0328499 0.0750505 -7.6206e-21)
(-0.0488686 0.0923995 -3.98835e-21)
(-0.06548 0.105813 -1.76083e-21)
(-0.0815257 0.115993 0)
(-0.0969888 0.123226 3.01794e-21)
(-0.112127 0.127851 -1.50329e-21)
(-0.127048 0.130244 0)
(-0.141735 0.130769 -1.3374e-21)
(-0.156126 0.129744 0)
(-0.170157 0.127436 2.72964e-21)
(-0.183776 0.124071 0)
(-0.196944 0.119839 1.30684e-21)
(-0.209634 0.114908 2.61909e-21)
(-0.221829 0.109423 -2.62811e-21)
(-0.233515 0.103511 0)
(-0.244681 0.0972794 -2.65018e-21)
(-0.255313 0.09082 0)
(-0.265394 0.0842065 0)
(-0.274904 0.0774977 -2.67325e-21)
(-0.283822 0.0707389 0)
(-0.292119 0.0639636 -7.41852e-23)
(-0.299768 0.057196 0)
(-0.306737 0.0504525 0)
(-0.312993 0.043744 7.43927e-23)
(-0.318501 0.0370772 -2.59205e-21)
(-0.323224 0.0304561 -2.63188e-21)
(-0.327127 0.0238834 -2.50895e-21)
(-0.33017 0.0173612 0)
(-0.332314 0.0108912 -4.86897e-21)
(-0.333523 0.00447449 0)
(-0.33376 -0.00188943 -2.3247e-21)
(-0.333 -0.00819831 0)
(-0.331221 -0.014443 0)
(-0.328408 -0.0206076 2.016e-21)
(-0.324548 -0.0266721 0)
(-0.319636 -0.0326136 -1.76609e-21)
(-0.313671 -0.0384073 1.11371e-22)
(-0.306659 -0.0440269 2.85215e-21)
(-0.298612 -0.0494451 -2.66039e-21)
(-0.289549 -0.0546341 0)
(-0.279496 -0.059567 0)
(-0.268486 -0.0642175 -9.54738e-22)
(-0.256559 -0.0685613 0)
(-0.0177603 0.0934903 6.76585e-21)
(-0.0321475 0.115352 4.70707e-21)
(-0.0480426 0.128965 3.64239e-21)
(-0.0642154 0.139433 3.11721e-21)
(-0.0795478 0.14745 0)
(-0.0939484 0.153132 -5.41688e-21)
(-0.107676 0.156597 -1.2477e-22)
(-0.120921 0.15803 0)
(-0.133778 0.157669 0)
(-0.14629 0.155765 0)
(-0.158473 0.152561 -2.36569e-21)
(-0.170331 0.148278 0)
(-0.18186 0.143111 0)
(-0.193054 0.137233 0)
(-0.203902 0.130787 0)
(-0.214391 0.1239 0)
(-0.224502 0.116673 2.48873e-21)
(-0.234215 0.109192 2.49503e-21)
(-0.243502 0.101525 0)
(-0.252335 0.0937256 0)
(-0.26068 0.0858339 -2.50543e-21)
(-0.268501 0.0778806 4.91725e-21)
(-0.27576 0.0698875 0)
(-0.282416 0.0618698 2.48761e-21)
(-0.288427 0.0538378 -2.38391e-21)
(-0.293751 0.0457985 0)
(-0.298345 0.0377567 7.18254e-21)
(-0.302164 0.0297168 -4.78014e-21)
(-0.305166 0.0216829 4.69765e-21)
(-0.307309 0.0136604 2.20584e-21)
(-0.308553 0.0056563 0)
(-0.308863 -0.00232035 6.41658e-21)
(-0.30821 -0.0102566 0)
(-0.306568 -0.0181343 0)
(-0.303917 -0.0259298 -1.8e-21)
(-0.300241 -0.0336148 3.59046e-21)
(-0.29553 -0.0411577 4.93801e-21)
(-0.289782 -0.0485238 -4.56992e-21)
(-0.282999 -0.0556769 -1.32373e-21)
(-0.275192 -0.0625792 2.37373e-21)
(-0.26638 -0.0691931 0)
(-0.256588 -0.0754816 0)
(-0.24585 -0.0814096 -2.05123e-22)
(-0.234206 -0.0869443 0)
(-0.0160269 0.136031 0)
(-0.0297247 0.153931 -4.79361e-21)
(-0.0447182 0.16391 0)
(-0.0598287 0.171335 0)
(-0.0740767 0.176892 0)
(-0.0873275 0.180631 -1.42782e-22)
(-0.0997953 0.182573 -1.409e-22)
(-0.111674 0.182793 -2.47723e-21)
(-0.123093 0.181428 0)
(-0.134141 0.178652 0)
(-0.144874 0.174654 0)
(-0.155327 0.16962 0)
(-0.16552 0.163723 0)
(-0.175458 0.157117 -4.7109e-21)
(-0.185138 0.149935 0)
(-0.19455 0.142291 4.72735e-21)
(-0.203676 0.13428 -2.26064e-21)
(-0.212493 0.125977 -2.27071e-21)
(-0.220974 0.117445 0)
(-0.229085 0.108732 0)
(-0.236791 0.0998733 2.29389e-21)
(-0.244053 0.0908968 -2.29678e-21)
(-0.250829 0.0818219 0)
(-0.257074 0.0726626 -2.29126e-21)
(-0.262744 0.0634288 4.75995e-21)
(-0.267792 0.0541279 0)
(-0.27217 0.0447661 -4.49069e-21)
(-0.275831 0.0353501 4.43543e-21)
(-0.278728 0.0258875 -4.36613e-21)
(-0.280815 0.0163887 0)
(-0.282049 0.00686711 0)
(-0.282391 -0.0026599 -4.05295e-21)
(-0.281804 -0.0121705 0)
(-0.280257 -0.0216378 0)
(-0.277725 -0.0310293 3.76681e-21)
(-0.274185 -0.0403075 -6.92799e-21)
(-0.269625 -0.0494302 -3.14589e-21)
(-0.264037 -0.058352 6.04042e-21)
(-0.257421 -0.067025 -2.87768e-21)
(-0.249788 -0.0753998 0)
(-0.241154 -0.083427 0)
(-0.231547 -0.0910585 0)
(-0.221002 -0.0982486 1.57967e-21)
(-0.209563 -0.104956 0)
(-0.0141081 0.17468 0)
(-0.0266186 0.189231 4.62125e-21)
(-0.0402876 0.196028 0)
(-0.053984 0.200673 6.33637e-21)
(-0.0668904 0.203859 5.68943e-21)
(-0.0788566 0.205632 -2.80376e-21)
(-0.0900467 0.205976 -2.67278e-21)
(-0.10063 0.204909 -2.5859e-21)
(-0.110737 0.202502 -4.77762e-21)
(-0.120464 0.198864 0)
(-0.129887 0.194129 0)
(-0.139057 0.188439 4.63318e-21)
(-0.148004 0.181934 0)
(-0.156748 0.17474 8.99907e-21)
(-0.165292 0.166973 0)
(-0.173632 0.158729 -4.41006e-21)
(-0.181753 0.150091 0)
(-0.189637 0.141124 0)
(-0.197256 0.131883 4.69136e-21)
(-0.20458 0.122408 0)
(-0.211573 0.112731 4.72433e-21)
(-0.218196 0.102875 0)
(-0.224407 0.0928569 0)
(-0.23016 0.0826882 0)
(-0.235409 0.0723779 2.09993e-22)
(-0.240105 0.0619334 0)
(-0.244197 0.0513618 0)
(-0.247634 0.0406717 0)
(-0.250366 0.0298739 0)
(-0.252341 0.0189831 0)
(-0.253512 0.00801873 0)
(-0.253833 -0.00299482 -4.32057e-21)
(-0.253261 -0.0140276 0)
(-0.251757 -0.0250437 4.02665e-21)
(-0.24929 -0.036001 2.18497e-22)
(-0.245831 -0.0468508 3.44576e-21)
(-0.241362 -0.0575394 0)
(-0.235872 -0.0680082 -3.01855e-21)
(-0.229358 -0.0781958 2.78184e-21)
(-0.221828 -0.0880389 0)
(-0.213302 -0.0974746 0)
(-0.203806 -0.106441 0)
(-0.19338 -0.114881 0)
(-0.182072 -0.122743 0)
(-0.0121706 0.208791 1.49164e-20)
(-0.0232328 0.220605 0)
(-0.0353367 0.224693 0)
(-0.0474077 0.226905 -1.26345e-20)
(-0.0587833 0.227949 -5.46085e-21)
(-0.0693175 0.227889 -3.11827e-22)
(-0.0791335 0.226702 4.80473e-21)
(-0.0883715 0.224381 -2.77535e-22)
(-0.0971471 0.220956 4.52607e-21)
(-0.105556 0.216489 0)
(-0.113673 0.211069 0)
(-0.121558 0.204794 -4.38943e-21)
(-0.129251 0.19777 0)
(-0.136777 0.190094 -4.38715e-21)
(-0.144148 0.181857 0)
(-0.151365 0.173139 0)
(-0.158421 0.164006 0)
(-0.165299 0.154512 0)
(-0.171978 0.144701 -4.49652e-21)
(-0.17843 0.134607 0)
(-0.184622 0.124254 -4.54692e-21)
(-0.190516 0.11366 0)
(-0.196072 0.102837 0)
(-0.201244 0.0917953 -4.8077e-21)
(-0.205985 0.0805401 -4.59397e-21)
(-0.210245 0.0690777 -4.8055e-21)
(-0.21397 0.057415 -4.78953e-21)
(-0.217107 0.0455611 0)
(-0.2196 0.0335289 -4.72014e-21)
(-0.221395 0.0213364 -4.66372e-21)
(-0.222436 0.00900776 -4.59094e-21)
(-0.22267 -0.00342635 4.25175e-21)
(-0.222049 -0.0159282 0)
(-0.220526 -0.0284527 -3.97177e-21)
(-0.218061 -0.0409469 2.28359e-22)
(-0.21462 -0.0533497 3.84403e-21)
(-0.210178 -0.0655933 3.63615e-21)
(-0.204719 -0.0776041 0)
(-0.198239 -0.0893044 -3.16588e-21)
(-0.190745 -0.100614 0)
(-0.182256 -0.111455 0)
(-0.172803 -0.121749 4.6872e-21)
(-0.162431 -0.131424 4.09064e-21)
(-0.151192 -0.140416 0)
(-0.0102702 0.238174 -1.45313e-20)
(-0.0197222 0.247754 -1.09607e-20)
(-0.0301003 0.249552 0)
(-0.0403972 0.24967 6.37571e-21)
(-0.0500879 0.248834 0)
(-0.059044 0.24713 -2.97817e-22)
(-0.0673587 0.244544 5.20306e-21)
(-0.0751453 0.24106 4.74216e-21)
(-0.0825031 0.236682 0)
(-0.0895183 0.231444 4.77385e-21)
(-0.0962643 0.225395 0)
(-0.1028 0.218602 0)
(-0.109171 0.211136 0)
(-0.115406 0.203066 4.67211e-21)
(-0.121525 0.194461 0)
(-0.127535 0.185378 0)
(-0.133433 0.175869 -4.72989e-21)
(-0.13921 0.165975 0)
(-0.144849 0.155727 0)
(-0.150325 0.14515 4.82849e-21)
(-0.155609 0.13426 0)
(-0.160667 0.12307 4.89497e-21)
(-0.165459 0.111585 0)
(-0.169943 0.0998093 9.68041e-21)
(-0.174071 0.087746 -4.96476e-21)
(-0.177791 0.0753978 -2.21984e-22)
(-0.18105 0.0627694 -2.25828e-22)
(-0.183791 0.0498692 4.95885e-21)
(-0.185953 0.0367103 4.69846e-21)
(-0.187478 0.0233124 9.54185e-21)
(-0.188304 0.00970341 -2.39688e-22)
(-0.188371 -0.00408072 0)
(-0.187623 -0.0179949 0)
(-0.186004 -0.0319847 8.91827e-21)
(-0.183467 -0.0459853 -4.05379e-21)
(-0.179971 -0.0599215 -3.86774e-21)
(-0.175484 -0.0737092 -3.66139e-21)
(-0.169987 -0.0872569 0)
(-0.163472 -0.100468 1.00036e-20)
(-0.155946 -0.113242 -6.27218e-21)
(-0.14743 -0.12548 -5.69893e-21)
(-0.137961 -0.137087 -4.72374e-21)
(-0.127587 -0.147974 -4.12084e-21)
(-0.116372 -0.158063 0)
(-0.00841379 0.262721 0)
(-0.016127 0.270472 1.08498e-20)
(-0.0246499 0.27034 0)
(-0.0330477 0.268671 7.06983e-21)
(-0.0409162 0.266211 0)
(-0.0481516 0.263068 5.4153e-21)
(-0.054826 0.25924 -5.10046e-21)
(-0.061031 0.25471 5.117e-21)
(-0.0668505 0.249472 0)
(-0.0723607 0.243537 -4.6624e-21)
(-0.0776295 0.23693 0)
(-0.0827142 0.229688 0)
(-0.0876606 0.221855 0)
(-0.092503 0.213476 -4.5733e-21)
(-0.0972642 0.204595 4.77617e-21)
(-0.101957 0.195252 0)
(-0.106585 0.185479 9.48681e-21)
(-0.111144 0.175305 -4.87574e-21)
(-0.115621 0.164747 0)
(-0.119997 0.153821 -4.77434e-21)
(-0.124248 0.142534 0)
(-0.128342 0.130888 -4.86006e-21)
(-0.132243 0.118883 -5.10232e-21)
(-0.13591 0.106518 -1.00758e-20)
(-0.139297 0.0937874 1.01378e-20)
(-0.142352 0.0806909 4.98258e-21)
(-0.145021 0.0672291 1.5428e-20)
(-0.147245 0.0534073 -4.99173e-21)
(-0.14896 0.0392371 1.04238e-20)
(-0.150102 0.0247383 -1.53177e-20)
(-0.150605 0.00994077 4.89722e-21)
(-0.150402 -0.00511522 0)
(-0.149428 -0.020378 9.86564e-21)
(-0.14762 -0.0357837 -9.08709e-21)
(-0.144922 -0.0512546 -9.24603e-21)
(-0.141286 -0.0666998 0)
(-0.136673 -0.0820164 0)
(-0.131061 -0.0970913 7.94193e-21)
(-0.124438 -0.111804 -6.97241e-21)
(-0.116813 -0.126032 1.326e-20)
(-0.108212 -0.139652 1.20633e-20)
(-0.0986756 -0.152546 0)
(-0.088263 -0.164608 0)
(-0.0770459 -0.175742 0)
(-0.00658517 0.282311 1.73952e-20)
(-0.0124347 0.288569 -1.22108e-20)
(-0.01898 0.286817 0)
(-0.0253584 0.283637 -7.0584e-21)
(-0.0312719 0.279791 0)
(-0.036645 0.275409 -5.8657e-21)
(-0.0415356 0.270502 0)
(-0.0460179 0.265059 -5.06567e-21)
(-0.0501628 0.259067 0)
(-0.0540369 0.252525 4.97293e-21)
(-0.0577019 0.245439 0)
(-0.0612123 0.237825 0)
(-0.0646134 0.229703 0)
(-0.0679412 0.221098 -4.86568e-21)
(-0.0712221 0.212032 -4.73415e-21)
(-0.0744731 0.202527 0)
(-0.0777027 0.192599 -4.80742e-21)
(-0.0809112 0.18226 4.85492e-21)
(-0.0840913 0.171516 0)
(-0.0872291 0.160371 0)
(-0.0903037 0.148821 0)
(-0.0932884 0.13686 0)
(-0.0961503 0.124478 5.13117e-21)
(-0.0988508 0.111666 5.18271e-21)
(-0.101346 0.0984127 -5.22896e-21)
(-0.103585 0.0847098 0)
(-0.105514 0.0705521 -1.05953e-20)
(-0.107072 0.0559403 1.10797e-20)
(-0.108195 0.0408824 -2.17429e-20)
(-0.108814 0.0253963 1.06161e-20)
(-0.108857 0.00951203 0)
(-0.108252 -0.00672734 0)
(-0.106928 -0.0232646 -1.01628e-20)
(-0.104813 -0.0400265 0)
(-0.101843 -0.056922 9.5557e-21)
(-0.0979627 -0.0738421 -9.65743e-21)
(-0.0931285 -0.090662 0)
(-0.0873125 -0.107243 -1.69274e-20)
(-0.0805047 -0.123439 0)
(-0.0727154 -0.139095 -7.09549e-21)
(-0.0639755 -0.154063 -6.46238e-21)
(-0.0543359 -0.168198 6.1591e-21)
(-0.0438658 -0.181372 0)
(-0.0326494 -0.193473 0)
(-0.00475278 0.29679 -1.72454e-20)
(-0.00860253 0.301834 1.22361e-20)
(-0.0130453 0.298742 -9.42981e-21)
(-0.0172798 0.294297 0)
(-0.0211036 0.289285 0)
(-0.0244718 0.283855 -1.56064e-22)
(-0.0274324 0.278034 0)
(-0.0300462 0.271815 0)
(-0.032373 0.265186 0)
(-0.0344714 0.258136 1.12088e-22)
(-0.036397 0.25066 0)
(-0.0382004 0.242756 0)
(-0.0399257 0.234428 0)
(-0.0416092 0.225682 4.86526e-21)
(-0.0432792 0.216521 1.00121e-20)
(-0.0449558 0.206949 0)
(-0.0466512 0.196968 0)
(-0.0483701 0.186575 0)
(-0.0501095 0.175764 1.04796e-20)
(-0.0518597 0.164524 1.06329e-20)
(-0.0536045 0.152841 -1.07936e-20)
(-0.0553208 0.140699 -1.09584e-20)
(-0.0569796 0.12808 0)
(-0.0585453 0.114962 0)
(-0.0599765 0.101329 0)
(-0.0612251 0.0871613 0)
(-0.0622373 0.072448 0)
(-0.0629531 0.0571824 4.21445e-22)
(-0.0633069 0.0413668 1.14482e-20)
(-0.0632276 0.0250153 0)
(-0.0626414 0.00815647 0)
(-0.0614705 -0.0091661 0)
(-0.0596375 -0.0268908 0)
(-0.0570649 -0.0449354 0)
(-0.0536823 -0.0631943 0)
(-0.0494281 -0.0815387 1.01122e-20)
(-0.0442547 -0.0998185 0)
(-0.0381323 -0.117866 9.12208e-21)
(-0.0310529 -0.135499 0)
(-0.023032 -0.152533 0)
(-0.0141093 -0.168784 0)
(-0.00434826 -0.184082 -6.45053e-21)
(0.00616917 -0.198272 0)
(0.0173452 -0.211225 0)
(-0.00288612 0.305854 0)
(-0.00456829 0.310024 0)
(-0.00677455 0.305855 9.55409e-21)
(-0.0087351 0.300374 0)
(-0.0103306 0.294401 0)
(-0.011549 0.288109 6.11605e-21)
(-0.0124323 0.281536 0)
(-0.0130308 0.274683 5.48147e-21)
(-0.0133954 0.267539 0)
(-0.0135775 0.26009 5.22367e-21)
(-0.0136271 0.25232 0)
(-0.0135906 0.244218 0)
(-0.0135095 0.235771 0)
(-0.0134194 0.22697 0)
(-0.0133489 0.217803 -1.01121e-20)
(-0.0133198 0.208258 1.03571e-20)
(-0.0133467 0.198323 0)
(-0.013437 0.18798 0)
(-0.0135913 0.177209 -1.06417e-20)
(-0.0138033 0.16599 -1.08164e-20)
(-0.0140604 0.154295 -2.25851e-22)
(-0.0143432 0.142099 1.11917e-20)
(-0.0146259 0.129371 0)
(-0.0148764 0.116083 0)
(-0.0150561 0.102204 0)
(-0.0151196 0.0877101 0)
(-0.015015 0.0725785 0)
(-0.0146838 0.0567948 -2.48879e-20)
(-0.0140611 0.0403542 0)