/*--------------------------------*- C++ -*----------------------------------*\
  =========                 |
  \\      /  F ield         | OpenFOAM: The Open Source CFD Toolbox
   \\    /   O peration     | Website:  https://openfoam.org
    \\  /    A nd           | Version:  6
     \\/     M anipulation  |
\*---------------------------------------------------------------------------*/
FoamFile
{
    version     2.0;
    format      ascii;
    class       volScalarField;
    location    "0";
    object      k;
}
// * * * * * * * * * * * * * * * * * * * * * * * * * * * * * * * * * * * * * //

dimensions      [0 2 -2 0 0 0 0];

internalField   uniform 0.001;

boundaryField
{
    Outlet
    {
        type            zeroGradient;
    }
    Inlet
    {
        type            turbulentIntensityKineticEnergyInlet;
        intensity       0.02;
        value           nonuniform 0();
    }
    Others
    {
        type            empty;
    }
    walls
    {
        type            kqRWallFunction;
        value           uniform 0;
    }
    procBoundary3to0
    {
        type            processor;
        value           uniform 0.001;
    }
    procBoundary3to2
    {
        type            processor;
        value           uniform 0.001;
    }
}


// ************************************************************************* //
