/*--------------------------------*- C++ -*----------------------------------*\
  =========                 |
  \\      /  F ield         | OpenFOAM: The Open Source CFD Toolbox
   \\    /   O peration     | Website:  https://openfoam.org
    \\  /    A nd           | Version:  6
     \\/     M anipulation  |
\*---------------------------------------------------------------------------*/
FoamFile
{
    version     2.0;
    format      ascii;
    class       volScalarField;
    location    "0.05";
    object      epsilon;
}
// * * * * * * * * * * * * * * * * * * * * * * * * * * * * * * * * * * * * * //

dimensions      [0 2 -3 0 0 0 0];

internalField   nonuniform List<scalar> 
3081
(
3.5458
3.53868
3.53224
3.52644
3.52123
3.51657
3.51241
3.50873
3.50547
3.50258
3.50002
3.49801
3.49647
3.4953
3.49443
3.49384
3.4935
3.49337
3.49345
3.49371
3.49414
3.49474
3.49547
3.49635
3.49735
3.49847
3.49971
3.50105
3.5025
3.50404
3.50567
3.50739
3.50919
3.51107
3.51303
3.51507
3.51718
3.51935
3.52159
3.5239
3.52626
3.52869
3.53117
3.53371
3.5363
3.53894
3.54163
3.54436
3.54714
3.54997
3.55283
3.55574
3.55868
3.56166
3.56467
3.56772
3.5708
1.8161
1.81298
1.81012
1.80752
1.80516
1.80301
1.80107
1.79931
1.79773
1.79631
1.79504
1.79401
1.79316
1.79247
1.79189
1.79142
1.79105
1.79075
1.79053
1.79038
1.7903
1.79027
1.79029
1.79036
1.79048
1.79064
1.79084
1.79108
1.79136
1.79167
1.79201
1.79238
1.79279
1.79322
1.79368
1.79416
1.79467
1.7952
1.79576
1.79633
1.79693
1.79755
1.79819
1.79884
1.79952
1.80021
1.80092
1.80164
1.80238
1.80313
1.80389
1.80467
1.80546
1.80627
1.80708
1.80791
1.80874
1.58203
1.57953
1.57724
1.57513
1.5732
1.57143
1.56981
1.56833
1.56698
1.56575
1.56463
1.56363
1.56276
1.56199
1.56132
1.56073
1.56021
1.55976
1.55936
1.55901
1.55871
1.55845
1.55823
1.55805
1.5579
1.55777
1.55768
1.55761
1.55757
1.55755
1.55755
1.55757
1.55762
1.55768
1.55776
1.55785
1.55796
1.55809
1.55823
1.55839
1.55855
1.55873
1.55893
1.55913
1.55934
1.55957
1.5598
1.56004
1.56029
1.56055
1.56082
1.56109
1.56137
1.56165
1.56194
1.56224
1.56254
1.53736
1.53505
1.53292
1.53097
1.52916
1.52751
1.52598
1.52458
1.52328
1.52209
1.521
1.52
1.51909
1.51828
1.51754
1.51687
1.51626
1.51571
1.5152
1.51474
1.51432
1.51394
1.51359
1.51326
1.51297
1.5127
1.51245
1.51223
1.51202
1.51184
1.51167
1.51151
1.51138
1.51125
1.51114
1.51105
1.51096
1.51089
1.51083
1.51078
1.51073
1.5107
1.51067
1.51065
1.51064
1.51064
1.51064
1.51065
1.51066
1.51068
1.5107
1.51073
1.51076
1.51079
1.51083
1.51086
1.51091
1.54364
1.5414
1.53933
1.53743
1.53568
1.53406
1.53257
1.53119
1.52992
1.52874
1.52764
1.52664
1.52571
1.52486
1.52407
1.52335
1.52268
1.52207
1.5215
1.52096
1.52047
1.52
1.51956
1.51916
1.51877
1.51841
1.51807
1.51774
1.51744
1.51715
1.51688
1.51662
1.51637
1.51613
1.51591
1.51569
1.51549
1.51529
1.51511
1.51493
1.51475
1.51459
1.51443
1.51428
1.51413
1.51398
1.51384
1.51371
1.51357
1.51344
1.51332
1.51319
1.51307
1.51295
1.51283
1.51271
1.51259
1.56715
1.56494
1.56291
1.56104
1.55931
1.55771
1.55624
1.55487
1.5536
1.55243
1.55134
1.55033
1.54939
1.54852
1.54771
1.54696
1.54626
1.5456
1.54499
1.54441
1.54387
1.54335
1.54286
1.5424
1.54196
1.54154
1.54114
1.54075
1.54038
1.54003
1.53969
1.53936
1.53904
1.53873
1.53844
1.53815
1.53786
1.53759
1.53732
1.53706
1.53681
1.53656
1.53631
1.53607
1.53583
1.5356
1.53537
1.53514
1.53491
1.53468
1.53446
1.53424
1.53401
1.53379
1.53357
1.53335
1.53313
1.59381
1.5918
1.58995
1.58824
1.58666
1.5852
1.58385
1.5826
1.58144
1.58036
1.57935
1.57842
1.57754
1.57673
1.57596
1.57525
1.57457
1.57394
1.57334
1.57277
1.57222
1.57171
1.57121
1.57074
1.57029
1.56985
1.56943
1.56903
1.56863
1.56825
1.56788
1.56752
1.56717
1.56683
1.56649
1.56616
1.56584
1.56552
1.56521
1.5649
1.5646
1.5643
1.56401
1.56371
1.56342
1.56313
1.56284
1.56256
1.56227
1.56198
1.5617
1.56141
1.56113
1.56084
1.56055
1.56026
1.62302
1.62103
1.6192
1.61752
1.61597
1.61454
1.61321
1.61198
1.61084
1.60978
1.60879
1.60786
1.607
1.60619
1.60543
1.60472
1.60404
1.6034
1.60279
1.60222
1.60166
1.60114
1.60063
1.60015
1.59968
1.59923
1.59879
1.59837
1.59796
1.59755
1.59716
1.59678
1.59641
1.59604
1.59568
1.59533
1.59498
1.59464
1.5943
1.59396
1.59363
1.5933
1.59297
1.59265
1.59232
1.592
1.59168
1.59136
1.59103
1.59071
1.59039
1.59007
1.58974
1.58942
1.58909
1.58876
1.6484
1.6466
1.64495
1.64343
1.64203
1.64073
1.63953
1.63842
1.63739
1.63642
1.63552
1.63468
1.63389
1.63315
1.63244
1.63178
1.63115
1.63055
1.62998
1.62943
1.62891
1.62841
1.62792
1.62746
1.627
1.62657
1.62614
1.62573
1.62532
1.62493
1.62454
1.62416
1.62379
1.62342
1.62306
1.6227
1.62235
1.622
1.62165
1.6213
1.62096
1.62062
1.62028
1.61994
1.61961
1.61927
1.61893
1.61859
1.61825
1.61791
1.61757
1.61723
1.61689
1.61654
1.61619
1.67294
1.67118
1.66957
1.66809
1.66673
1.66547
1.66431
1.66323
1.66224
1.66131
1.66044
1.65963
1.65886
1.65814
1.65746
1.65682
1.65621
1.65563
1.65508
1.65455
1.65404
1.65355
1.65308
1.65263
1.65219
1.65176
1.65134
1.65094
1.65054
1.65015
1.64977
1.6494
1.64903
1.64867
1.64831
1.64795
1.6476
1.64726
1.64691
1.64657
1.64623
1.64589
1.64555
1.64521
1.64487
1.64453
1.64419
1.64385
1.64351
1.64317
1.64283
1.64248
1.64213
1.64178
1.64143
1.69435
1.69264
1.69107
1.68964
1.68832
1.68711
1.68599
1.68496
1.684
1.68311
1.68228
1.6815
1.68078
1.68009
1.67944
1.67883
1.67825
1.67769
1.67716
1.67666
1.67617
1.67571
1.67526
1.67482
1.6744
1.67399
1.6736
1.67321
1.67283
1.67246
1.67209
1.67173
1.67138
1.67103
1.67068
1.67034
1.67
1.66967
1.66934
1.669
1.66867
1.66834
1.66801
1.66769
1.66736
1.66703
1.6667
1.66637
1.66603
1.6657
1.66537
1.66503
1.66469
1.66435
1.664
1.71264
1.71099
1.70947
1.70809
1.70682
1.70566
1.70459
1.7036
1.70269
1.70184
1.70105
1.70032
1.69963
1.69898
1.69837
1.69779
1.69724
1.69672
1.69622
1.69574
1.69529
1.69485
1.69443
1.69402
1.69362
1.69324
1.69286
1.6925
1.69214
1.69179
1.69145
1.69111
1.69078
1.69045
1.69013
1.6898
1.68949
1.68917
1.68885
1.68854
1.68823
1.68792
1.6876
1.68729
1.68698
1.68667
1.68636
1.68604
1.68573
1.68541
1.68509
1.68477
1.68444
1.68412
1.68379
1.68346
1.72802
1.72641
1.72495
1.72362
1.7224
1.72129
1.72027
1.71933
1.71847
1.71767
1.71692
1.71623
1.71558
1.71498
1.7144
1.71386
1.71335
1.71286
1.7124
1.71196
1.71153
1.71113
1.71074
1.71036
1.70999
1.70964
1.70929
1.70895
1.70862
1.7083
1.70798
1.70767
1.70736
1.70706
1.70676
1.70646
1.70617
1.70587
1.70558
1.70529
1.705
1.70471
1.70442
1.70413
1.70384
1.70355
1.70326
1.70297
1.70267
1.70238
1.70208
1.70178
1.70148
1.70118
1.70087
1.70056
1.73919
1.73779
1.73651
1.73535
1.73428
1.73332
1.73243
1.73161
1.73086
1.73016
1.72951
1.7289
1.72834
1.7278
1.7273
1.72683
1.72638
1.72595
1.72555
1.72516
1.72478
1.72442
1.72408
1.72374
1.72342
1.7231
1.72279
1.72249
1.7222
1.72191
1.72163
1.72135
1.72107
1.7208
1.72053
1.72026
1.71999
1.71972
1.71946
1.71919
1.71893
1.71867
1.7184
1.71814
1.71787
1.71761
1.71734
1.71707
1.7168
1.71653
1.71626
1.71598
1.7157
1.71542
1.71514
1.74962
1.74827
1.74705
1.74594
1.74493
1.74402
1.74318
1.74241
1.7417
1.74105
1.74044
1.73988
1.73935
1.73886
1.7384
1.73796
1.73755
1.73716
1.73679
1.73643
1.73609
1.73577
1.73546
1.73515
1.73486
1.73458
1.7343
1.73403
1.73376
1.7335
1.73325
1.733
1.73275
1.7325
1.73226
1.73202
1.73178
1.73154
1.7313
1.73107
1.73083
1.73059
1.73035
1.73012
1.72988
1.72964
1.7294
1.72916
1.72891
1.72867
1.72842
1.72817
1.72792
1.72767
1.72742
1.75818
1.75689
1.75573
1.75468
1.75372
1.75285
1.75206
1.75134
1.75067
1.75006
1.7495
1.74898
1.74849
1.74804
1.74761
1.74721
1.74684
1.74648
1.74614
1.74582
1.74552
1.74522
1.74494
1.74467
1.74441
1.74415
1.7439
1.74366
1.74342
1.74319
1.74296
1.74274
1.74252
1.7423
1.74208
1.74187
1.74165
1.74144
1.74123
1.74102
1.7408
1.74059
1.74038
1.74017
1.73995
1.73974
1.73953
1.73931
1.73909
1.73887
1.73865
1.73843
1.7382
1.73798
1.73775
1.76479
1.76357
1.76246
1.76146
1.76056
1.75973
1.75899
1.75831
1.75769
1.75712
1.7566
1.75611
1.75566
1.75525
1.75486
1.7545
1.75416
1.75384
1.75353
1.75325
1.75297
1.75271
1.75246
1.75222
1.75199
1.75176
1.75154
1.75133
1.75112
1.75092
1.75072
1.75052
1.75033
1.75014
1.74995
1.74976
1.74958
1.74939
1.7492
1.74902
1.74884
1.74865
1.74847
1.74828
1.74809
1.74791
1.74772
1.74753
1.74734
1.74715
1.74695
1.74676
1.74656
1.74637
1.74617
1.76846
1.7674
1.76644
1.76559
1.76481
1.76411
1.76347
1.76289
1.76236
1.76187
1.76143
1.76102
1.76064
1.76029
1.75996
1.75966
1.75937
1.7591
1.75885
1.75861
1.75838
1.75816
1.75795
1.75775
1.75755
1.75736
1.75718
1.757
1.75683
1.75666
1.75649
1.75633
1.75617
1.75601
1.75585
1.75569
1.75553
1.75538
1.75522
1.75507
1.75491
1.75476
1.7546
1.75444
1.75429
1.75413
1.75397
1.75381
1.75365
1.75349
1.75332
1.75316
1.75299
1.75283
1.77101
1.77011
1.76929
1.76856
1.76789
1.7673
1.76675
1.76626
1.76581
1.7654
1.76502
1.76468
1.76436
1.76407
1.7638
1.76354
1.7633
1.76308
1.76287
1.76267
1.76248
1.7623
1.76213
1.76197
1.76181
1.76165
1.7615
1.76136
1.76122
1.76108
1.76094
1.76081
1.76068
1.76055
1.76042
1.76029
1.76016
1.76003
1.75991
1.75978
1.75965
1.75953
1.7594
1.75927
1.75914
1.75901
1.75888
1.75875
1.75862
1.75849
1.75836
1.75822
1.75809
1.77364
1.77278
1.77201
1.77132
1.7707
1.77013
1.76962
1.76916
1.76875
1.76837
1.76802
1.76771
1.76742
1.76716
1.76692
1.76669
1.76648
1.76629
1.7661
1.76593
1.76577
1.76562
1.76547
1.76533
1.7652
1.76507
1.76495
1.76483
1.76471
1.7646
1.76449
1.76438
1.76427
1.76417
1.76406
1.76396
1.76386
1.76376
1.76366
1.76356
1.76346
1.76336
1.76326
1.76315
1.76305
1.76295
1.76285
1.76275
1.76264
1.76254
1.76244
1.76233
1.76223
1.77554
1.77474
1.77401
1.77335
1.77276
1.77223
1.77175
1.77132
1.77093
1.77058
1.77026
1.76997
1.76971
1.76948
1.76926
1.76906
1.76888
1.76871
1.76855
1.7684
1.76826
1.76813
1.76801
1.76789
1.76778
1.76768
1.76758
1.76748
1.76739
1.7673
1.76721
1.76712
1.76704
1.76695
1.76687
1.76679
1.76671
1.76663
1.76656
1.76648
1.7664
1.76632
1.76625
1.76617
1.76609
1.76602
1.76594
1.76586
1.76578
1.7657
1.76562
1.76555
1.76547
1.7769
1.77614
1.77544
1.77482
1.77426
1.77375
1.7733
1.77289
1.77253
1.77221
1.77191
1.77165
1.77142
1.7712
1.77101
1.77083
1.77067
1.77052
1.77038
1.77026
1.77014
1.77003
1.76993
1.76983
1.76974
1.76965
1.76957
1.76949
1.76942
1.76935
1.76928
1.76921
1.76914
1.76908
1.76902
1.76896
1.7689
1.76884
1.76878
1.76872
1.76866
1.7686
1.76855
1.76849
1.76843
1.76838
1.76832
1.76826
1.76821
1.76815
1.76809
1.76804
1.76798
1.77784
1.77711
1.77645
1.77585
1.77532
1.77483
1.77441
1.77402
1.77368
1.77338
1.77311
1.77287
1.77265
1.77246
1.77229
1.77213
1.77199
1.77186
1.77174
1.77163
1.77153
1.77144
1.77135
1.77127
1.7712
1.77113
1.77106
1.771
1.77094
1.77089
1.77083
1.77078
1.77073
1.77068
1.77064
1.77059
1.77055
1.7705
1.77046
1.77042
1.77037
1.77033
1.77029
1.77025
1.77021
1.77017
1.77013
1.77009
1.77005
1.77001
1.76998
1.76994
1.7699
1.77845
1.77775
1.77711
1.77654
1.77602
1.77557
1.77516
1.7748
1.77448
1.7742
1.77395
1.77372
1.77353
1.77335
1.77319
1.77305
1.77293
1.77281
1.77271
1.77261
1.77253
1.77245
1.77238
1.77232
1.77225
1.7722
1.77215
1.7721
1.77205
1.77201
1.77197
1.77193
1.77189
1.77186
1.77182
1.77179
1.77176
1.77173
1.7717
1.77167
1.77164
1.77161
1.77158
1.77156
1.77153
1.7715
1.77148
1.77145
1.77142
1.7714
1.77137
1.77135
1.77133
1.77877
1.7781
1.77749
1.77694
1.77645
1.77601
1.77562
1.77528
1.77498
1.77471
1.77448
1.77428
1.7741
1.77394
1.77379
1.77367
1.77355
1.77345
1.77336
1.77328
1.77321
1.77315
1.77309
1.77303
1.77298
1.77294
1.7729
1.77286
1.77282
1.77279
1.77276
1.77273
1.77271
1.77268
1.77266
1.77263
1.77261
1.77259
1.77257
1.77255
1.77253
1.77251
1.77249
1.77248
1.77246
1.77244
1.77243
1.77241
1.7724
1.77238
1.77237
1.77235
1.77234
1.77886
1.77821
1.77763
1.7771
1.77663
1.77621
1.77584
1.77552
1.77523
1.77498
1.77477
1.77458
1.77441
1.77427
1.77414
1.77402
1.77392
1.77384
1.77376
1.77369
1.77362
1.77357
1.77352
1.77347
1.77343
1.7734
1.77337
1.77334
1.77331
1.77328
1.77326
1.77324
1.77322
1.7732
1.77319
1.77317
1.77315
1.77314
1.77313
1.77311
1.7731
1.77309
1.77308
1.77307
1.77306
1.77305
1.77304
1.77303
1.77302
1.77302
1.77301
1.773
1.773
1.77873
1.77812
1.77755
1.77705
1.7766
1.7762
1.77585
1.77554
1.77527
1.77504
1.77484
1.77466
1.77451
1.77438
1.77426
1.77416
1.77407
1.77399
1.77392
1.77386
1.77381
1.77376
1.77372
1.77368
1.77365
1.77362
1.77359
1.77357
1.77354
1.77352
1.77351
1.77349
1.77348
1.77346
1.77345
1.77344
1.77343
1.77342
1.77341
1.7734
1.77339
1.77339
1.77338
1.77337
1.77337
1.77336
1.77336
1.77335
1.77335
1.77334
1.77334
1.77334
1.77334
1.77841
1.77782
1.77728
1.7768
1.77637
1.77599
1.77566
1.77537
1.77512
1.7749
1.77472
1.77455
1.77441
1.77429
1.77418
1.77409
1.77401
1.77394
1.77388
1.77383
1.77378
1.77374
1.7737
1.77367
1.77364
1.77362
1.77359
1.77357
1.77356
1.77354
1.77353
1.77351
1.7735
1.77349
1.77348
1.77347
1.77346
1.77345
1.77345
1.77344
1.77343
1.77343
1.77342
1.77342
1.77341
1.77341
1.7734
1.7734
1.77339
1.77339
1.77339
1.77339
1.77339
1.77784
1.77728
1.77677
1.77632
1.77591
1.77555
1.77524
1.77497
1.77474
1.77454
1.77436
1.77421
1.77408
1.77397
1.77387
1.77379
1.77371
1.77365
1.77359
1.77355
1.7735
1.77347
1.77343
1.7734
1.77338
1.77335
1.77333
1.77331
1.77329
1.77328
1.77326
1.77325
1.77324
1.77322
1.77321
1.7732
1.77319
1.77318
1.77317
1.77316
1.77315
1.77314
1.77313
1.77312
1.77311
1.77311
1.7731
1.77309
1.77308
1.77307
1.77306
1.77306
1.77305
1.77705
1.77651
1.77603
1.7756
1.77522
1.77488
1.77459
1.77434
1.77412
1.77393
1.77377
1.77363
1.77351
1.7734
1.77331
1.77323
1.77316
1.7731
1.77305
1.773
1.77296
1.77292
1.77289
1.77286
1.77283
1.77281
1.77278
1.77276
1.77274
1.77272
1.7727
1.77268
1.77266
1.77264
1.77263
1.77261
1.77259
1.77257
1.77256
1.77254
1.77252
1.7725
1.77249
1.77247
1.77245
1.77243
1.77241
1.7724
1.77238
1.77236
1.77234
1.77232
1.77231
1.776
1.77549
1.77503
1.77463
1.77427
1.77395
1.77368
1.77344
1.77324
1.77306
1.77291
1.77278
1.77266
1.77256
1.77248
1.7724
1.77233
1.77227
1.77222
1.77217
1.77213
1.77209
1.77205
1.77201
1.77198
1.77195
1.77192
1.77189
1.77186
1.77183
1.7718
1.77177
1.77174
1.77172
1.77169
1.77166
1.77163
1.7716
1.77157
1.77154
1.77151
1.77148
1.77145
1.77141
1.77138
1.77135
1.77131
1.77128
1.77125
1.77121
1.77118
1.77114
1.77111
1.77467
1.77419
1.77376
1.77337
1.77304
1.77274
1.77248
1.77226
1.77207
1.7719
1.77176
1.77163
1.77152
1.77142
1.77134
1.77126
1.77119
1.77113
1.77107
1.77101
1.77096
1.77092
1.77087
1.77082
1.77078
1.77074
1.7707
1.77065
1.77061
1.77057
1.77053
1.77048
1.77044
1.7704
1.77035
1.7703
1.77026
1.77021
1.77016
1.77011
1.77006
1.77001
1.76996
1.76991
1.76985
1.7698
1.76974
1.76968
1.76963
1.76957
1.76951
1.76945
1.76939
1.77302
1.77256
1.77216
1.7718
1.77148
1.7712
1.77096
1.77074
1.77056
1.7704
1.77026
1.77013
1.77002
1.76993
1.76984
1.76975
1.76968
1.76961
1.76954
1.76948
1.76941
1.76935
1.7693
1.76924
1.76918
1.76912
1.76906
1.769
1.76894
1.76888
1.76881
1.76875
1.76869
1.76862
1.76855
1.76848
1.76841
1.76834
1.76826
1.76819
1.76811
1.76803
1.76795
1.76787
1.76778
1.7677
1.76761
1.76752
1.76743
1.76734
1.76725
1.76716
1.76706
1.771
1.77057
1.77018
1.76984
1.76954
1.76928
1.76904
1.76884
1.76866
1.7685
1.76836
1.76823
1.76812
1.76801
1.76792
1.76782
1.76774
1.76765
1.76757
1.76749
1.76741
1.76734
1.76726
1.76718
1.7671
1.76702
1.76693
1.76685
1.76676
1.76667
1.76658
1.76649
1.7664
1.7663
1.7662
1.7661
1.76599
1.76589
1.76578
1.76567
1.76556
1.76544
1.76532
1.7652
1.76508
1.76495
1.76483
1.7647
1.76456
1.76443
1.76429
1.76415
1.76401
1.76855
1.76814
1.76777
1.76744
1.76715
1.7669
1.76667
1.76647
1.76629
1.76613
1.76598
1.76585
1.76572
1.76561
1.76549
1.76539
1.76528
1.76518
1.76508
1.76497
1.76487
1.76477
1.76466
1.76455
1.76444
1.76433
1.76422
1.7641
1.76398
1.76386
1.76373
1.7636
1.76347
1.76333
1.76319
1.76305
1.7629
1.76275
1.7626
1.76244
1.76228
1.76212
1.76195
1.76178
1.76161
1.76143
1.76125
1.76107
1.76088
1.76069
1.76049
1.76029
1.76009
1.76558
1.76518
1.76483
1.76451
1.76422
1.76397
1.76375
1.76354
1.76336
1.76319
1.76303
1.76288
1.76274
1.7626
1.76247
1.76234
1.76221
1.76208
1.76194
1.76181
1.76168
1.76154
1.7614
1.76125
1.7611
1.76095
1.7608
1.76064
1.76047
1.7603
1.76013
1.75995
1.75977
1.75958
1.75939
1.75919
1.75899
1.75879
1.75858
1.75836
1.75814
1.75792
1.75769
1.75746
1.75722
1.75697
1.75672
1.75647
1.75621
1.75595
1.75568
1.75541
1.75513
1.76198
1.76159
1.76124
1.76092
1.76064
1.76038
1.76015
1.75994
1.75974
1.75955
1.75937
1.7592
1.75903
1.75887
1.75871
1.75854
1.75838
1.75821
1.75804
1.75787
1.75769
1.75751
1.75732
1.75713
1.75693
1.75673
1.75652
1.7563
1.75608
1.75586
1.75562
1.75538
1.75514
1.75489
1.75463
1.75437
1.7541
1.75382
1.75354
1.75325
1.75296
1.75266
1.75235
1.75204
1.75172
1.75139
1.75106
1.75072
1.75037
1.75002
1.74965
1.74929
1.74891
1.75761
1.75722
1.75687
1.75655
1.75626
1.75599
1.75574
1.7555
1.75528
1.75507
1.75486
1.75466
1.75446
1.75426
1.75405
1.75385
1.75363
1.75342
1.7532
1.75297
1.75274
1.7525
1.75226
1.752
1.75174
1.75148
1.7512
1.75092
1.75063
1.75033
1.75002
1.74971
1.74939
1.74906
1.74872
1.74837
1.74802
1.74766
1.74729
1.74691
1.74652
1.74612
1.74572
1.74531
1.74489
1.74446
1.74402
1.74357
1.74312
1.74265
1.74218
1.74169
1.7412
1.75251
1.7521
1.75174
1.7514
1.75109
1.7508
1.75052
1.75026
1.75
1.74975
1.7495
1.74925
1.749
1.74875
1.74849
1.74823
1.74796
1.74768
1.7474
1.74711
1.74681
1.7465
1.74618
1.74585
1.74551
1.74516
1.7448
1.74443
1.74406
1.74367
1.74327
1.74286
1.74245
1.74202
1.74158
1.74113
1.74067
1.7402
1.73972
1.73923
1.73873
1.73822
1.7377
1.73717
1.73662
1.73607
1.7355
1.73492
1.73433
1.73373
1.73311
1.73249
1.73185
1.74644
1.74602
1.74563
1.74526
1.74492
1.74459
1.74428
1.74397
1.74367
1.74336
1.74306
1.74275
1.74244
1.74212
1.7418
1.74146
1.74112
1.74076
1.7404
1.74002
1.73964
1.73924
1.73883
1.73841
1.73797
1.73753
1.73707
1.7366
1.73611
1.73562
1.73511
1.73459
1.73405
1.73351
1.73295
1.73238
1.73179
1.73119
1.73058
1.72996
1.72932
1.72867
1.728
1.72732
1.72663
1.72592
1.7252
1.72446
1.72371
1.72294
1.72216
1.72136
1.72055
1.73858
1.73813
1.73771
1.73731
1.73692
1.73655
1.73618
1.73582
1.73546
1.73509
1.73472
1.73434
1.73395
1.73355
1.73314
1.73272
1.73229
1.73184
1.73138
1.73091
1.73042
1.72992
1.7294
1.72887
1.72832
1.72776
1.72718
1.72659
1.72598
1.72536
1.72472
1.72407
1.7234
1.72271
1.72201
1.7213
1.72057
1.71982
1.71906
1.71828
1.71748
1.71667
1.71584
1.71499
1.71413
1.71325
1.71235
1.71143
1.7105
1.70954
1.70857
1.70758
1.70657
1.72819
1.7277
1.72724
1.72679
1.72635
1.72592
1.72549
1.72506
1.72462
1.72418
1.72372
1.72326
1.72278
1.72229
1.72178
1.72126
1.72072
1.72017
1.7196
1.71901
1.7184
1.71778
1.71714
1.71648
1.7158
1.71511
1.71439
1.71366
1.71291
1.71215
1.71136
1.71056
1.70974
1.7089
1.70804
1.70717
1.70627
1.70536
1.70443
1.70347
1.7025
1.70151
1.7005
1.69947
1.69842
1.69735
1.69626
1.69515
1.69401
1.69286
1.69168
1.69048
1.68926
1.71437
1.71384
1.71333
1.71283
1.71234
1.71184
1.71134
1.71083
1.71031
1.70978
1.70924
1.70868
1.7081
1.70751
1.7069
1.70627
1.70562
1.70495
1.70426
1.70355
1.70282
1.70207
1.7013
1.70051
1.69969
1.69886
1.69801
1.69714
1.69624
1.69533
1.6944
1.69344
1.69247
1.69147
1.69046
1.68942
1.68836
1.68728
1.68619
1.68506
1.68392
1.68276
1.68157
1.68037
1.67914
1.67788
1.67661
1.67531
1.67399
1.67264
1.67128
1.66988
1.66847
1.6959
1.69535
1.6948
1.69425
1.6937
1.69315
1.69259
1.69201
1.69142
1.69082
1.69019
1.68955
1.68889
1.6882
1.6875
1.68677
1.68602
1.68525
1.68446
1.68364
1.6828
1.68194
1.68106
1.68016
1.67923
1.67828
1.67731
1.67632
1.67531
1.67428
1.67322
1.67214
1.67105
1.66993
1.66878
1.66762
1.66644
1.66523
1.664
1.66275
1.66148
1.66019
1.65887
1.65754
1.65618
1.6548
1.65339
1.65196
1.65051
1.64904
1.64754
1.64602
1.64447
1.67067
1.6701
1.66954
1.66898
1.66841
1.66783
1.66723
1.66662
1.66599
1.66534
1.66467
1.66398
1.66326
1.66253
1.66177
1.66098
1.66018
1.65935
1.65849
1.65762
1.65672
1.6558
1.65485
1.65389
1.6529
1.65189
1.65086
1.64981
1.64874
1.64764
1.64653
1.6454
1.64424
1.64307
1.64187
1.64066
1.63942
1.63817
1.63689
1.6356
1.63428
1.63295
1.63159
1.63022
1.62882
1.62741
1.62598
1.62452
1.62305
1.62155
1.62004
1.61851
1.61695
1.63554
1.63504
1.63453
1.63402
1.6335
1.63296
1.6324
1.63183
1.63123
1.63062
1.62998
1.62932
1.62864
1.62793
1.6272
1.62645
1.62568
1.62489
1.62407
1.62323
1.62237
1.62149
1.62059
1.61967
1.61873
1.61777
1.61679
1.6158
1.61478
1.61375
1.6127
1.61163
1.61055
1.60945
1.60834
1.60721
1.60606
1.6049
1.60372
1.60253
1.60132
1.60009
1.59886
1.5976
1.59634
1.59506
1.59376
1.59246
1.59113
1.5898
1.58845
1.58709
1.58571
1.59532
1.59497
1.59462
1.59426
1.59388
1.59348
1.59306
1.59263
1.59217
1.59169
1.59119
1.59067
1.59013
1.58957
1.58898
1.58837
1.58775
1.5871
1.58643
1.58575
1.58504
1.58432
1.58358
1.58282
1.58205
1.58127
1.58046
1.57965
1.57882
1.57797
1.57711
1.57624
1.57536
1.57447
1.57356
1.57265
1.57172
1.57078
1.56983
1.56888
1.56791
1.56693
1.56595
1.56496
1.56396
1.56295
1.56193
1.56091
1.55988
1.55884
1.5578
1.55675
1.55569
1.56011
1.55994
1.55977
1.55958
1.55938
1.55915
1.55891
1.55864
1.55836
1.55805
1.55773
1.55738
1.55701
1.55662
1.55621
1.55579
1.55534
1.55488
1.5544
1.5539
1.55339
1.55286
1.55232
1.55176
1.55119
1.55061
1.55002
1.54942
1.54881
1.54819
1.54755
1.54692
1.54627
1.54561
1.54495
1.54428
1.54361
1.54293
1.54224
1.54155
1.54086
1.54016
1.53945
1.53875
1.53804
1.53733
1.53662
1.53591
1.53519
1.53448
1.53376
1.53305
1.53234
1.53024
1.53031
1.53036
1.5304
1.53042
1.53042
1.53039
1.53035
1.53029
1.53021
1.53011
1.52999
1.52985
1.52969
1.52951
1.52932
1.52911
1.52888
1.52864
1.52839
1.52812
1.52785
1.52756
1.52726
1.52695
1.52663
1.52631
1.52598
1.52564
1.52529
1.52494
1.52459
1.52423
1.52387
1.52351
1.52314
1.52278
1.52241
1.52204
1.52167
1.5213
1.52094
1.52057
1.52021
1.51985
1.51949
1.51914
1.51879
1.51845
1.51811
1.51778
1.51746
1.51714
1.51683
1.50968
1.51003
1.51036
1.51067
1.51096
1.51123
1.51148
1.51171
1.51192
1.51211
1.51228
1.51244
1.51257
1.51269
1.51279
1.51288
1.51296
1.51302
1.51307
1.51311
1.51313
1.51315
1.51317
1.51317
1.51317
1.51316
1.51315
1.51314
1.51312
1.5131
1.51308
1.51306
1.51304
1.51302
1.51301
1.51299
1.51298
1.51297
1.51297
1.51297
1.51298
1.51299
1.51301
1.51304
1.51307
1.51312
1.51317
1.51323
1.51331
1.51339
1.51349
1.5136
1.51372
1.51386
1.5036
1.50428
1.50493
1.50556
1.50617
1.50676
1.50733
1.50788
1.50841
1.50893
1.50942
1.50989
1.51035
1.5108
1.51123
1.51165
1.51205
1.51244
1.51283
1.51321
1.51358
1.51394
1.5143
1.51465
1.515
1.51535
1.5157
1.51605
1.5164
1.51676
1.51711
1.51747
1.51784
1.5182
1.51858
1.51896
1.51935
1.51975
1.52016
1.52057
1.521
1.52144
1.52189
1.52235
1.52283
1.52332
1.52383
1.52435
1.52489
1.52544
1.52602
1.52661
1.52722
1.52786
1.51969
1.52075
1.52178
1.5228
1.52379
1.52476
1.52571
1.52664
1.52754
1.52843
1.5293
1.53016
1.531
1.53182
1.53263
1.53343
1.53422
1.53501
1.53578
1.53655
1.53731
1.53808
1.53884
1.53959
1.54035
1.54111
1.54188
1.54264
1.54342
1.5442
1.54498
1.54577
1.54658
1.54739
1.54821
1.54905
1.54989
1.55075
1.55163
1.55252
1.55342
1.55434
1.55528
1.55624
1.55722
1.55821
1.55923
1.56027
1.56133
1.56242
1.56353
1.56467
1.56583
1.56702
1.57142
1.57295
1.57446
1.57594
1.5774
1.57884
1.58025
1.58164
1.58301
1.58436
1.58569
1.587
1.5883
1.58959
1.59087
1.59213
1.59339
1.59464
1.59588
1.59712
1.59836
1.5996
1.60084
1.60208
1.60333
1.60458
1.60584
1.60711
1.60839
1.60967
1.61097
1.61228
1.61361
1.61495
1.6163
1.61768
1.61907
1.62048
1.62191
1.62336
1.62483
1.62633
1.62785
1.62939
1.63096
1.63256
1.63418
1.63584
1.63752
1.63924
1.64099
1.64277
1.64458
1.64643
1.68722
1.68939
1.69153
1.69364
1.69572
1.69778
1.69981
1.70181
1.70379
1.70575
1.7077
1.70962
1.71153
1.71343
1.71531
1.71719
1.71906
1.72093
1.72279
1.72465
1.72652
1.72838
1.73025
1.73213
1.73402
1.73591
1.73782
1.73974
1.74167
1.74363
1.74559
1.74758
1.74959
1.75162
1.75367
1.75575
1.75785
1.75997
1.76213
1.76431
1.76653
1.76877
1.77105
1.77336
1.7757
1.77809
1.78051
1.78296
1.78546
1.788
1.79058
1.79321
1.79588
1.79859
1.94358
1.94675
1.94988
1.95297
1.95603
1.95906
1.96206
1.96503
1.96797
1.97089
1.97379
1.97666
1.97953
1.98238
1.98522
1.98805
1.99087
1.9937
1.99652
1.99935
2.00218
2.00502
2.00788
2.01074
2.01362
2.01651
2.01942
2.02236
2.02532
2.0283
2.03131
2.03435
2.03741
2.04051
2.04365
2.04681
2.05002
2.05326
2.05654
2.05987
2.06324
2.06665
2.0701
2.07361
2.07716
2.08077
2.08443
2.08814
2.09191
2.09573
2.09962
2.10356
2.10757
2.11164
2.64769
2.65304
2.65833
2.66357
2.66877
2.67392
2.67903
2.6841
2.68914
2.69415
2.69913
2.70409
2.70904
2.71396
2.71888
2.7238
2.72871
2.73363
2.73855
2.74348
2.74843
2.75339
2.75838
2.76339
2.76844
2.77351
2.77862
2.78377
2.78895
2.79419
2.79947
2.8048
2.81018
2.81562
2.82112
2.82668
2.8323
2.83798
2.84373
2.84955
2.85545
2.86142
2.86746
2.87359
2.8798
2.88609
2.89247
2.89894
2.9055
2.91216
2.91891
2.92576
2.93272
2.93978
6.48406
6.49997
6.51574
6.53135
6.54682
6.56217
6.57739
6.59251
6.60753
6.62247
6.63734
6.65214
6.66689
6.68161
6.69631
6.711
6.72568
6.74038
6.7551
6.76986
6.78466
6.79952
6.81445
6.82945
6.84454
6.85973
6.87502
6.89043
6.90596
6.92162
6.93743
6.95338
6.96948
6.98575
7.00218
7.01879
7.03558
7.05256
7.06974
7.08711
7.1047
7.1225
7.14052
7.15877
7.17726
7.19599
7.21497
7.2342
7.2537
7.27347
7.29352
7.31384
7.33446
7.35537
)
;

boundaryField
{
    inlet
    {
        type            fixedValue;
        value           nonuniform 0();
    }
    outlet
    {
        type            zeroGradient;
    }
    upperWall
    {
        Cmu             0.09;
        kappa           0.41;
        E               9.8;
        type            epsilonWallFunction;
        value           nonuniform List<scalar> 
54
(
6.48406
6.49997
6.51574
6.53135
6.54682
6.56217
6.57739
6.59251
6.60753
6.62247
6.63734
6.65214
6.66689
6.68161
6.69631
6.711
6.72568
6.74038
6.7551
6.76986
6.78466
6.79952
6.81445
6.82945
6.84454
6.85973
6.87502
6.89043
6.90596
6.92162
6.93743
6.95338
6.96948
6.98575
7.00218
7.01879
7.03558
7.05256
7.06974
7.08711
7.1047
7.1225
7.14052
7.15877
7.17726
7.19599
7.21497
7.2342
7.2537
7.27347
7.29352
7.31384
7.33446
7.35537
)
;
    }
    lowerWall
    {
        Cmu             0.09;
        kappa           0.41;
        E               9.8;
        type            epsilonWallFunction;
        value           nonuniform List<scalar> 
57
(
3.5458
3.53868
3.53224
3.52644
3.52123
3.51657
3.51241
3.50873
3.50547
3.50258
3.50002
3.49801
3.49647
3.4953
3.49443
3.49384
3.4935
3.49337
3.49345
3.49371
3.49414
3.49474
3.49547
3.49635
3.49735
3.49847
3.49971
3.50105
3.5025
3.50404
3.50567
3.50739
3.50919
3.51107
3.51303
3.51507
3.51718
3.51935
3.52159
3.5239
3.52626
3.52869
3.53117
3.53371
3.5363
3.53894
3.54163
3.54436
3.54714
3.54997
3.55283
3.55574
3.55868
3.56166
3.56467
3.56772
3.5708
)
;
    }
    frontAndBack
    {
        type            empty;
    }
    procBoundary1to0
    {
        type            processor;
        value           nonuniform List<scalar> 
59
(
3.57392
1.80959
1.56285
1.51095
1.51247
1.5329
1.55997
1.58843
1.61584
1.64108
1.66366
1.66366
1.68313
1.70025
1.71486
1.72716
1.73752
1.74596
1.75266
1.75795
1.76212
1.76539
1.76793
1.76987
1.77131
1.77233
1.773
1.77334
1.77339
1.77305
1.77229
1.77107
1.76933
1.76697
1.76387
1.75989
1.75484
1.74853
1.7407
1.7312
1.71972
1.70554
1.68802
1.66702
1.6429
1.61538
1.58433
1.55463
1.53163
1.53163
1.51653
1.51402
1.52851
1.56824
1.64832
1.80136
2.11578
2.94695
7.37658
)
;
    }
    procBoundary1to3
    {
        type            processor;
        value           nonuniform List<scalar> 
62
(
3.55366
1.81952
1.58476
1.53987
1.54607
1.56955
1.59599
1.59599
1.62518
1.65035
1.65035
1.67485
1.69621
1.71446
1.72978
1.74074
1.74074
1.75109
1.75959
1.76613
1.76959
1.76959
1.772
1.772
1.77455
1.7764
1.77771
1.77861
1.77917
1.77945
1.7795
1.77934
1.77898
1.77839
1.77757
1.7765
1.77515
1.77348
1.77145
1.76899
1.76601
1.7624
1.75803
1.75293
1.74688
1.73905
1.72869
1.71491
1.69647
1.67123
1.63604
1.59565
1.56026
1.53016
1.50932
1.50291
1.51861
1.56986
1.68502
1.94038
2.64229
6.46797
)
;
    }
}


// ************************************************************************* //
