/*--------------------------------*- C++ -*----------------------------------*\
  =========                 |
  \\      /  F ield         | OpenFOAM: The Open Source CFD Toolbox
   \\    /   O peration     | Website:  https://openfoam.org
    \\  /    A nd           | Version:  6
     \\/     M anipulation  |
\*---------------------------------------------------------------------------*/
FoamFile
{
    version     2.0;
    format      ascii;
    class       volScalarField;
    location    "0.05";
    object      k;
}
// * * * * * * * * * * * * * * * * * * * * * * * * * * * * * * * * * * * * * //

dimensions      [0 2 -2 0 0 0 0];

internalField   nonuniform List<scalar> 
3081
(
0.0274628
0.0274049
0.0273508
0.0273002
0.0272528
0.0272083
0.0271666
0.0271274
0.0270905
0.0270556
0.0270223
0.0269917
0.0269637
0.0269375
0.026913
0.0268899
0.026868
0.0268471
0.0268273
0.0268082
0.02679
0.0267725
0.0267556
0.0267393
0.0267235
0.0267082
0.0266934
0.0266789
0.0266648
0.026651
0.0266375
0.0266244
0.0266114
0.0265987
0.0265862
0.0265739
0.0265617
0.0265498
0.0265379
0.0265262
0.0265145
0.026503
0.0264916
0.0264802
0.0264688
0.0264575
0.0264462
0.0264349
0.0264236
0.0264123
0.026401
0.0263896
0.0263782
0.0263667
0.0263551
0.0263435
0.0263317
0.0546493
0.0545227
0.0544042
0.0542933
0.0541893
0.0540917
0.0540001
0.0539139
0.0538328
0.0537562
0.0536836
0.0536137
0.0535477
0.0534857
0.0534272
0.0533719
0.0533195
0.0532697
0.0532222
0.0531769
0.0531334
0.0530916
0.0530514
0.0530126
0.0529751
0.0529387
0.0529034
0.052869
0.0528355
0.0528028
0.0527708
0.0527395
0.0527088
0.0526785
0.0526488
0.0526195
0.0525906
0.0525621
0.0525338
0.0525058
0.052478
0.0524505
0.052423
0.0523958
0.0523685
0.0523414
0.0523143
0.0522872
0.05226
0.0522328
0.0522056
0.0521782
0.0521507
0.052123
0.0520952
0.0520672
0.052039
0.0693988
0.0692448
0.0691007
0.0689657
0.068839
0.0687201
0.0686084
0.0685032
0.0684041
0.0683105
0.0682219
0.0681377
0.0680574
0.0679815
0.0679095
0.0678412
0.0677761
0.067714
0.0676547
0.0675978
0.0675431
0.0674905
0.0674397
0.0673907
0.0673431
0.067297
0.0672521
0.0672083
0.0671656
0.0671239
0.067083
0.0670429
0.0670035
0.0669647
0.0669265
0.0668888
0.0668516
0.0668147
0.0667782
0.066742
0.0667061
0.0666704
0.0666348
0.0665994
0.066564
0.0665287
0.0664935
0.0664582
0.0664229
0.0663875
0.0663519
0.0663163
0.0662804
0.0662444
0.0662082
0.0661717
0.066135
0.079946
0.0797766
0.0796181
0.0794695
0.0793301
0.0791993
0.0790762
0.0789604
0.0788512
0.078748
0.0786503
0.0785576
0.0784693
0.0783856
0.078306
0.0782302
0.0781579
0.0780886
0.0780223
0.0779586
0.0778972
0.077838
0.0777809
0.0777255
0.0776717
0.0776195
0.0775686
0.0775189
0.0774704
0.0774229
0.0773762
0.0773305
0.0772854
0.0772411
0.0771973
0.0771541
0.0771113
0.077069
0.077027
0.0769853
0.0769438
0.0769026
0.0768615
0.0768206
0.0767797
0.0767388
0.076698
0.0766571
0.0766161
0.0765751
0.0765339
0.0764925
0.0764509
0.0764091
0.076367
0.0763246
0.076282
0.0883171
0.0881386
0.0879715
0.087815
0.0876682
0.0875304
0.0874008
0.0872788
0.0871637
0.087055
0.0869521
0.0868545
0.0867616
0.0866733
0.0865892
0.086509
0.0864323
0.0863588
0.0862882
0.0862203
0.0861548
0.0860916
0.0860304
0.0859711
0.0859135
0.0858573
0.0858026
0.0857492
0.0856969
0.0856457
0.0855954
0.0855459
0.0854972
0.0854492
0.0854017
0.0853548
0.0853084
0.0852624
0.0852167
0.0851713
0.0851262
0.0850812
0.0850364
0.0849917
0.0849471
0.0849024
0.0848578
0.0848131
0.0847682
0.0847233
0.0846781
0.0846328
0.0845873
0.0845414
0.0844953
0.0844489
0.0844022
0.0952318
0.0950485
0.094877
0.0947165
0.0945661
0.0944248
0.0942921
0.0941671
0.0940492
0.0939379
0.0938325
0.0937325
0.0936374
0.093547
0.0934607
0.0933783
0.0932995
0.0932238
0.093151
0.093081
0.0930134
0.092948
0.0928847
0.0928232
0.0927634
0.0927052
0.0926484
0.0925928
0.0925384
0.0924851
0.0924327
0.0923811
0.0923303
0.0922801
0.0922305
0.0921815
0.0921329
0.0920847
0.0920368
0.0919893
0.0919419
0.0918947
0.0918476
0.0918006
0.0917537
0.0917067
0.0916597
0.0916126
0.0915654
0.0915181
0.0914705
0.0914227
0.0913747
0.0913263
0.0912777
0.0912287
0.0911794
0.100856
0.100684
0.100522
0.100371
0.100229
0.100096
0.0999705
0.0998522
0.0997406
0.0996349
0.0995347
0.0994394
0.0993487
0.0992622
0.0991794
0.0991001
0.099024
0.0989508
0.0988802
0.098812
0.098746
0.0986821
0.09862
0.0985595
0.0985006
0.0984431
0.0983869
0.0983317
0.0982776
0.0982244
0.0981721
0.0981204
0.0980695
0.0980191
0.0979691
0.0979197
0.0978706
0.0978218
0.0977732
0.0977249
0.0976767
0.0976287
0.0975806
0.0975326
0.0974846
0.0974365
0.0973883
0.09734
0.0972915
0.0972428
0.0971938
0.0971446
0.097095
0.0970452
0.096995
0.0969444
0.105771
0.1056
0.10544
0.10529
0.10515
0.105018
0.104894
0.104778
0.104668
0.104563
0.104465
0.104371
0.104281
0.104196
0.104115
0.104036
0.103961
0.103889
0.103819
0.103752
0.103686
0.103623
0.103562
0.103502
0.103443
0.103386
0.103331
0.103276
0.103222
0.103169
0.103117
0.103066
0.103015
0.102965
0.102915
0.102866
0.102817
0.102769
0.10272
0.102672
0.102624
0.102576
0.102528
0.10248
0.102432
0.102384
0.102336
0.102287
0.102239
0.10219
0.102141
0.102092
0.102042
0.101992
0.101942
0.101891
0.109767
0.109611
0.109464
0.109327
0.109199
0.109079
0.108965
0.108858
0.108757
0.108661
0.10857
0.108483
0.108401
0.108321
0.108245
0.108172
0.108102
0.108034
0.107969
0.107905
0.107844
0.107784
0.107726
0.107669
0.107613
0.107559
0.107506
0.107453
0.107402
0.107351
0.107301
0.107251
0.107202
0.107154
0.107106
0.107058
0.10701
0.106963
0.106916
0.106869
0.106822
0.106775
0.106728
0.10668
0.106633
0.106586
0.106538
0.106491
0.106443
0.106395
0.106346
0.106297
0.106248
0.106199
0.106149
0.113293
0.113142
0.113001
0.112869
0.112745
0.112629
0.11252
0.112417
0.11232
0.112228
0.112141
0.112058
0.111979
0.111903
0.11183
0.11176
0.111693
0.111628
0.111565
0.111504
0.111445
0.111388
0.111332
0.111278
0.111225
0.111172
0.111121
0.111071
0.111022
0.110973
0.110925
0.110877
0.11083
0.110784
0.110737
0.110691
0.110646
0.1106
0.110555
0.110509
0.110464
0.110419
0.110373
0.110328
0.110282
0.110237
0.110191
0.110145
0.110099
0.110052
0.110005
0.109958
0.109911
0.109863
0.109815
0.116265
0.11612
0.115985
0.115859
0.115741
0.11563
0.115527
0.115429
0.115337
0.11525
0.115168
0.115089
0.115014
0.114942
0.114873
0.114807
0.114744
0.114682
0.114623
0.114566
0.11451
0.114456
0.114403
0.114351
0.114301
0.114252
0.114204
0.114156
0.114109
0.114063
0.114018
0.113973
0.113928
0.113884
0.11384
0.113797
0.113754
0.11371
0.113667
0.113624
0.113581
0.113538
0.113495
0.113452
0.113409
0.113365
0.113322
0.113278
0.113234
0.11319
0.113145
0.1131
0.113055
0.11301
0.112964
0.118755
0.118617
0.118489
0.11837
0.118258
0.118154
0.118057
0.117965
0.117879
0.117797
0.11772
0.117646
0.117576
0.117509
0.117445
0.117383
0.117324
0.117266
0.117211
0.117157
0.117105
0.117055
0.117006
0.116958
0.116911
0.116865
0.11682
0.116776
0.116732
0.116689
0.116647
0.116605
0.116563
0.116522
0.116481
0.11644
0.1164
0.11636
0.116319
0.116279
0.116239
0.116199
0.116158
0.116118
0.116077
0.116037
0.115996
0.115955
0.115914
0.115872
0.11583
0.115788
0.115746
0.115703
0.11566
0.115616
0.120828
0.120697
0.120577
0.120465
0.12036
0.120263
0.120172
0.120086
0.120006
0.11993
0.119859
0.119791
0.119726
0.119664
0.119604
0.119547
0.119492
0.11944
0.119389
0.119339
0.119291
0.119245
0.119199
0.119155
0.119112
0.11907
0.119028
0.118988
0.118948
0.118908
0.118869
0.118831
0.118792
0.118754
0.118717
0.118679
0.118642
0.118605
0.118568
0.11853
0.118493
0.118456
0.118419
0.118382
0.118344
0.118307
0.118269
0.118231
0.118193
0.118154
0.118116
0.118077
0.118037
0.117998
0.117958
0.117917
0.122416
0.122303
0.122198
0.122101
0.122011
0.121927
0.121848
0.121774
0.121704
0.121638
0.121576
0.121516
0.121459
0.121405
0.121353
0.121303
0.121255
0.121208
0.121163
0.12112
0.121077
0.121036
0.120996
0.120957
0.120919
0.120881
0.120844
0.120808
0.120772
0.120736
0.120701
0.120666
0.120632
0.120598
0.120564
0.12053
0.120496
0.120462
0.120428
0.120394
0.12036
0.120327
0.120293
0.120258
0.120224
0.12019
0.120155
0.12012
0.120085
0.12005
0.120014
0.119978
0.119942
0.119905
0.119868
0.123823
0.123718
0.123621
0.123531
0.123448
0.12337
0.123298
0.12323
0.123166
0.123107
0.12305
0.122996
0.122944
0.122895
0.122848
0.122803
0.122759
0.122717
0.122677
0.122638
0.1226
0.122563
0.122527
0.122491
0.122457
0.122423
0.12239
0.122357
0.122325
0.122293
0.122262
0.122231
0.1222
0.122169
0.122139
0.122108
0.122078
0.122047
0.122017
0.121986
0.121956
0.121925
0.121895
0.121864
0.121833
0.121802
0.121771
0.121739
0.121708
0.121676
0.121644
0.121611
0.121578
0.121545
0.121512
0.124986
0.124889
0.124799
0.124717
0.12464
0.12457
0.124504
0.124442
0.124385
0.12433
0.124279
0.12423
0.124184
0.12414
0.124097
0.124057
0.124018
0.123981
0.123944
0.123909
0.123875
0.123842
0.12381
0.123779
0.123748
0.123718
0.123688
0.123659
0.123631
0.123602
0.123574
0.123546
0.123519
0.123491
0.123464
0.123437
0.123409
0.123382
0.123355
0.123328
0.1233
0.123273
0.123246
0.123218
0.12319
0.123162
0.123134
0.123106
0.123077
0.123048
0.123019
0.12299
0.12296
0.122931
0.1229
0.125892
0.125803
0.125721
0.125646
0.125576
0.125512
0.125453
0.125397
0.125345
0.125297
0.125251
0.125207
0.125166
0.125127
0.12509
0.125054
0.125019
0.124986
0.124955
0.124924
0.124894
0.124865
0.124837
0.12481
0.124783
0.124757
0.124731
0.124705
0.12468
0.124656
0.124631
0.124607
0.124583
0.124559
0.124535
0.124511
0.124487
0.124463
0.124439
0.124416
0.124392
0.124368
0.124344
0.124319
0.124295
0.12427
0.124246
0.124221
0.124196
0.12417
0.124145
0.124119
0.124093
0.124067
0.12404
0.126478
0.126403
0.126335
0.126272
0.126214
0.126161
0.126111
0.126065
0.126022
0.125981
0.125943
0.125907
0.125873
0.12584
0.125809
0.125779
0.125751
0.125723
0.125697
0.125672
0.125647
0.125623
0.1256
0.125577
0.125554
0.125533
0.125511
0.12549
0.125469
0.125448
0.125428
0.125407
0.125387
0.125367
0.125347
0.125327
0.125307
0.125287
0.125267
0.125247
0.125226
0.125206
0.125186
0.125165
0.125144
0.125123
0.125102
0.125081
0.12506
0.125038
0.125017
0.124995
0.124972
0.12495
0.126909
0.126847
0.12679
0.126738
0.12669
0.126646
0.126605
0.126567
0.126532
0.126498
0.126467
0.126437
0.126409
0.126383
0.126358
0.126333
0.12631
0.126288
0.126267
0.126246
0.126226
0.126206
0.126187
0.126169
0.126151
0.126133
0.126116
0.126099
0.126082
0.126065
0.126048
0.126032
0.126015
0.125999
0.125982
0.125966
0.12595
0.125933
0.125917
0.1259
0.125884
0.125867
0.12585
0.125834
0.125817
0.125799
0.125782
0.125765
0.125747
0.12573
0.125712
0.125694
0.125675
0.127283
0.127227
0.127176
0.127129
0.127086
0.127047
0.127011
0.126978
0.126947
0.126918
0.126891
0.126865
0.126842
0.126819
0.126798
0.126778
0.126758
0.12674
0.126722
0.126705
0.126689
0.126673
0.126657
0.126642
0.126628
0.126614
0.1266
0.126586
0.126572
0.126559
0.126546
0.126532
0.126519
0.126506
0.126493
0.126481
0.126468
0.126455
0.126442
0.126429
0.126416
0.126403
0.126389
0.126376
0.126363
0.126349
0.126336
0.126322
0.126308
0.126295
0.126281
0.126266
0.126252
0.127558
0.127507
0.127461
0.127419
0.127381
0.127346
0.127314
0.127285
0.127258
0.127233
0.12721
0.127189
0.127169
0.12715
0.127132
0.127115
0.127099
0.127084
0.12707
0.127056
0.127043
0.12703
0.127018
0.127006
0.126995
0.126984
0.126973
0.126962
0.126951
0.126941
0.126931
0.126921
0.126911
0.126901
0.126891
0.126881
0.126871
0.126861
0.126851
0.126841
0.126832
0.126822
0.126812
0.126802
0.126792
0.126781
0.126771
0.126761
0.12675
0.12674
0.126729
0.126719
0.126708
0.127757
0.12771
0.127669
0.127631
0.127597
0.127566
0.127539
0.127513
0.12749
0.127469
0.127449
0.127431
0.127414
0.127398
0.127384
0.12737
0.127357
0.127345
0.127333
0.127323
0.127312
0.127302
0.127293
0.127284
0.127275
0.127266
0.127258
0.12725
0.127242
0.127234
0.127227
0.127219
0.127212
0.127205
0.127197
0.12719
0.127183
0.127176
0.127168
0.127161
0.127154
0.127147
0.12714
0.127132
0.127125
0.127118
0.12711
0.127103
0.127095
0.127088
0.12708
0.127072
0.127065
0.127897
0.127854
0.127816
0.127782
0.127752
0.127725
0.127701
0.127679
0.127659
0.12764
0.127624
0.127609
0.127595
0.127582
0.12757
0.127559
0.127549
0.127539
0.12753
0.127522
0.127514
0.127506
0.127499
0.127492
0.127486
0.127479
0.127473
0.127468
0.127462
0.127456
0.127451
0.127446
0.127441
0.127435
0.12743
0.127425
0.12742
0.127415
0.12741
0.127405
0.1274
0.127395
0.127391
0.127386
0.127381
0.127376
0.127371
0.127366
0.12736
0.127355
0.12735
0.127345
0.12734
0.127989
0.127951
0.127916
0.127886
0.127859
0.127835
0.127813
0.127794
0.127777
0.127762
0.127748
0.127735
0.127724
0.127713
0.127704
0.127695
0.127687
0.127679
0.127672
0.127666
0.12766
0.127655
0.12765
0.127645
0.12764
0.127636
0.127632
0.127628
0.127624
0.12762
0.127616
0.127613
0.12761
0.127606
0.127603
0.1276
0.127596
0.127593
0.12759
0.127587
0.127584
0.127581
0.127578
0.127574
0.127571
0.127568
0.127565
0.127562
0.127559
0.127556
0.127552
0.127549
0.127546
0.128044
0.128009
0.127977
0.12795
0.127926
0.127905
0.127886
0.127869
0.127855
0.127841
0.12783
0.127819
0.12781
0.127802
0.127794
0.127787
0.127781
0.127775
0.12777
0.127766
0.127761
0.127758
0.127754
0.127751
0.127748
0.127745
0.127742
0.12774
0.127737
0.127735
0.127733
0.127731
0.127729
0.127727
0.127725
0.127723
0.127721
0.127719
0.127717
0.127716
0.127714
0.127712
0.127711
0.127709
0.127707
0.127705
0.127704
0.127702
0.1277
0.127699
0.127697
0.127695
0.127694
0.128067
0.128035
0.128007
0.127982
0.12796
0.127941
0.127925
0.127911
0.127898
0.127887
0.127877
0.127869
0.127861
0.127854
0.127848
0.127843
0.127838
0.127834
0.127831
0.127827
0.127824
0.127822
0.127819
0.127817
0.127815
0.127814
0.127812
0.127811
0.12781
0.127808
0.127807
0.127806
0.127805
0.127804
0.127803
0.127802
0.127802
0.127801
0.1278
0.127799
0.127798
0.127798
0.127797
0.127796
0.127795
0.127795
0.127794
0.127793
0.127793
0.127792
0.127791
0.127791
0.12779
0.128064
0.128034
0.128009
0.127986
0.127967
0.12795
0.127936
0.127923
0.127912
0.127903
0.127895
0.127888
0.127882
0.127876
0.127872
0.127868
0.127864
0.127861
0.127858
0.127856
0.127854
0.127853
0.127851
0.12785
0.127849
0.127848
0.127847
0.127847
0.127846
0.127845
0.127845
0.127845
0.127844
0.127844
0.127844
0.127843
0.127843
0.127843
0.127843
0.127842
0.127842
0.127842
0.127842
0.127842
0.127841
0.127841
0.127841
0.127841
0.127841
0.127841
0.127841
0.127841
0.12784
0.128036
0.128009
0.127986
0.127965
0.127948
0.127933
0.127921
0.12791
0.1279
0.127892
0.127886
0.12788
0.127875
0.127871
0.127867
0.127864
0.127862
0.127859
0.127858
0.127856
0.127855
0.127854
0.127853
0.127852
0.127852
0.127851
0.127851
0.127851
0.12785
0.12785
0.12785
0.12785
0.12785
0.12785
0.12785
0.12785
0.12785
0.12785
0.127849
0.127849
0.127849
0.127849
0.127849
0.127849
0.127849
0.127849
0.127849
0.127849
0.127849
0.127849
0.127849
0.127849
0.127849
0.12798
0.127955
0.127934
0.127915
0.1279
0.127886
0.127875
0.127866
0.127858
0.127851
0.127845
0.12784
0.127836
0.127833
0.12783
0.127827
0.127825
0.127823
0.127822
0.127821
0.12782
0.127819
0.127818
0.127817
0.127817
0.127816
0.127816
0.127815
0.127815
0.127815
0.127814
0.127814
0.127813
0.127813
0.127813
0.127812
0.127812
0.127811
0.127811
0.12781
0.12781
0.127809
0.127808
0.127808
0.127807
0.127806
0.127806
0.127805
0.127804
0.127804
0.127803
0.127802
0.127801
0.127893
0.12787
0.12785
0.127834
0.12782
0.127808
0.127798
0.127789
0.127782
0.127776
0.127771
0.127766
0.127763
0.127759
0.127757
0.127754
0.127752
0.12775
0.127749
0.127747
0.127746
0.127745
0.127744
0.127742
0.127741
0.12774
0.127739
0.127738
0.127737
0.127736
0.127735
0.127733
0.127732
0.127731
0.127729
0.127728
0.127726
0.127725
0.127723
0.127721
0.127719
0.127718
0.127716
0.127714
0.127712
0.12771
0.127708
0.127706
0.127703
0.127701
0.127699
0.127697
0.127694
0.127772
0.127751
0.127733
0.127717
0.127705
0.127694
0.127684
0.127677
0.12767
0.127664
0.127659
0.127655
0.127651
0.127648
0.127645
0.127642
0.12764
0.127637
0.127635
0.127633
0.127631
0.127628
0.127626
0.127624
0.127622
0.12762
0.127617
0.127615
0.127612
0.12761
0.127607
0.127604
0.127601
0.127598
0.127595
0.127592
0.127589
0.127585
0.127582
0.127578
0.127575
0.127571
0.127567
0.127563
0.127559
0.127554
0.12755
0.127546
0.127541
0.127537
0.127532
0.127527
0.127522
0.127613
0.127593
0.127576
0.127562
0.12755
0.12754
0.127531
0.127523
0.127517
0.127511
0.127506
0.127501
0.127497
0.127493
0.127489
0.127486
0.127482
0.127479
0.127475
0.127472
0.127468
0.127464
0.127461
0.127457
0.127453
0.127449
0.127445
0.12744
0.127436
0.127431
0.127426
0.127421
0.127416
0.12741
0.127405
0.127399
0.127393
0.127387
0.127381
0.127375
0.127368
0.127361
0.127355
0.127348
0.12734
0.127333
0.127326
0.127318
0.12731
0.127302
0.127294
0.127286
0.127278
0.12741
0.127391
0.127375
0.127362
0.12735
0.12734
0.127331
0.127324
0.127317
0.12731
0.127304
0.127299
0.127294
0.127288
0.127283
0.127278
0.127273
0.127268
0.127263
0.127257
0.127252
0.127246
0.12724
0.127234
0.127227
0.12722
0.127214
0.127206
0.127199
0.127191
0.127184
0.127175
0.127167
0.127158
0.12715
0.12714
0.127131
0.127121
0.127112
0.127101
0.127091
0.12708
0.12707
0.127059
0.127047
0.127036
0.127024
0.127012
0.127
0.126987
0.126975
0.126962
0.126948
0.127156
0.127138
0.127123
0.12711
0.127098
0.127088
0.127078
0.12707
0.127062
0.127054
0.127047
0.12704
0.127033
0.127026
0.127019
0.127012
0.127004
0.126997
0.126989
0.126981
0.126972
0.126963
0.126954
0.126945
0.126935
0.126925
0.126915
0.126904
0.126893
0.126881
0.12687
0.126857
0.126845
0.126832
0.126819
0.126805
0.126791
0.126777
0.126762
0.126747
0.126732
0.126716
0.1267
0.126684
0.126667
0.12665
0.126633
0.126615
0.126597
0.126578
0.12656
0.12654
0.126521
0.126842
0.126824
0.126809
0.126796
0.126783
0.126772
0.126762
0.126752
0.126742
0.126733
0.126724
0.126715
0.126705
0.126696
0.126686
0.126676
0.126665
0.126654
0.126643
0.126631
0.126619
0.126606
0.126593
0.12658
0.126565
0.126551
0.126536
0.12652
0.126505
0.126488
0.126471
0.126454
0.126436
0.126417
0.126399
0.126379
0.126359
0.126339
0.126318
0.126297
0.126275
0.126253
0.126231
0.126207
0.126184
0.12616
0.126135
0.12611
0.126084
0.126058
0.126032
0.126005
0.125977
0.126456
0.126439
0.126423
0.126408
0.126395
0.126382
0.12637
0.126358
0.126346
0.126334
0.126322
0.12631
0.126297
0.126284
0.126271
0.126256
0.126242
0.126227
0.126211
0.126194
0.126177
0.12616
0.126141
0.126123
0.126103
0.126083
0.126062
0.126041
0.126019
0.125996
0.125972
0.125948
0.125924
0.125899
0.125873
0.125846
0.125819
0.125791
0.125763
0.125733
0.125704
0.125673
0.125642
0.125611
0.125578
0.125545
0.125512
0.125477
0.125442
0.125407
0.12537
0.125333
0.125295
0.125985
0.125966
0.125949
0.125933
0.125918
0.125903
0.125888
0.125873
0.125858
0.125842
0.125826
0.12581
0.125793
0.125775
0.125757
0.125738
0.125718
0.125697
0.125676
0.125654
0.12563
0.125606
0.125582
0.125556
0.12553
0.125502
0.125474
0.125446
0.125416
0.125385
0.125354
0.125322
0.125289
0.125255
0.12522
0.125185
0.125148
0.125111
0.125073
0.125034
0.124995
0.124954
0.124913
0.124871
0.124827
0.124783
0.124739
0.124693
0.124646
0.124599
0.12455
0.1245
0.12445
0.12541
0.12539
0.125371
0.125352
0.125334
0.125315
0.125297
0.125278
0.125258
0.125238
0.125217
0.125196
0.125173
0.125149
0.125125
0.125099
0.125073
0.125045
0.125017
0.124987
0.124956
0.124925
0.124892
0.124858
0.124823
0.124787
0.12475
0.124712
0.124673
0.124633
0.124592
0.124549
0.124506
0.124462
0.124416
0.12437
0.124322
0.124274
0.124224
0.124173
0.124121
0.124068
0.124014
0.123959
0.123903
0.123846
0.123787
0.123727
0.123666
0.123604
0.12354
0.123476
0.12341
0.124738
0.124715
0.124692
0.124669
0.124647
0.124623
0.1246
0.124575
0.12455
0.124524
0.124497
0.124468
0.124438
0.124407
0.124375
0.124342
0.124307
0.124271
0.124233
0.124194
0.124154
0.124113
0.12407
0.124026
0.123981
0.123934
0.123886
0.123836
0.123786
0.123734
0.123681
0.123626
0.12357
0.123513
0.123454
0.123394
0.123333
0.12327
0.123206
0.123141
0.123074
0.123006
0.122936
0.122865
0.122792
0.122718
0.122643
0.122566
0.122487
0.122407
0.122325
0.122242
0.122157
0.123939
0.123911
0.123884
0.123856
0.123827
0.123798
0.123768
0.123736
0.123704
0.12367
0.123634
0.123597
0.123559
0.123518
0.123477
0.123433
0.123388
0.123341
0.123293
0.123243
0.123191
0.123138
0.123083
0.123027
0.122969
0.122909
0.122847
0.122784
0.12272
0.122653
0.122585
0.122516
0.122445
0.122372
0.122297
0.122221
0.122143
0.122063
0.121982
0.121899
0.121814
0.121727
0.121639
0.121549
0.121457
0.121363
0.121267
0.121169
0.121069
0.120967
0.120863
0.120757
0.120649
0.122905
0.122872
0.122838
0.122804
0.122768
0.122731
0.122693
0.122653
0.122611
0.122568
0.122522
0.122475
0.122426
0.122375
0.122321
0.122266
0.122209
0.12215
0.122088
0.122025
0.12196
0.121893
0.121823
0.121752
0.121679
0.121604
0.121527
0.121448
0.121367
0.121283
0.121198
0.121111
0.121022
0.120931
0.120838
0.120743
0.120646
0.120546
0.120445
0.120341
0.120235
0.120127
0.120017
0.119905
0.11979
0.119673
0.119553
0.119432
0.119307
0.119181
0.119051
0.118919
0.118785
0.121539
0.121499
0.121458
0.121416
0.121371
0.121325
0.121277
0.121227
0.121174
0.121119
0.121062
0.121003
0.120941
0.120877
0.12081
0.120741
0.120669
0.120595
0.120519
0.12044
0.120359
0.120275
0.120189
0.120101
0.120011
0.119918
0.119822
0.119725
0.119625
0.119522
0.119418
0.119311
0.119201
0.119089
0.118975
0.118858
0.118739
0.118617
0.118493
0.118366
0.118236
0.118104
0.117969
0.117832
0.117691
0.117548
0.117402
0.117254
0.117102
0.116947
0.116789
0.116628
0.116464
0.119722
0.119675
0.119625
0.119573
0.119519
0.119463
0.119404
0.119342
0.119277
0.11921
0.11914
0.119067
0.118991
0.118912
0.118831
0.118746
0.118659
0.118569
0.118476
0.118381
0.118282
0.118181
0.118077
0.117971
0.117862
0.11775
0.117635
0.117518
0.117398
0.117275
0.117149
0.117021
0.11689
0.116756
0.116619
0.11648
0.116338
0.116192
0.116044
0.115893
0.115739
0.115582
0.115422
0.115259
0.115092
0.114922
0.114749
0.114573
0.114393
0.11421
0.114024
0.113833
0.113639
0.117286
0.117231
0.117173
0.117112
0.117049
0.116982
0.116912
0.116839
0.116763
0.116684
0.116601
0.116515
0.116426
0.116333
0.116237
0.116139
0.116036
0.115931
0.115823
0.115711
0.115597
0.115479
0.115359
0.115235
0.115109
0.114979
0.114847
0.114711
0.114573
0.114431
0.114287
0.114139
0.113989
0.113835
0.113679
0.113519
0.113356
0.11319
0.113021
0.112849
0.112674
0.112495
0.112313
0.112127
0.111938
0.111746
0.11155
0.11135
0.111147
0.11094
0.110729
0.110514
0.110296
0.113918
0.113857
0.113792
0.113725
0.113653
0.113579
0.1135
0.113418
0.113333
0.113244
0.113151
0.113054
0.112954
0.112851
0.112744
0.112634
0.11252
0.112403
0.112282
0.112158
0.112031
0.111901
0.111768
0.111631
0.111492
0.111349
0.111203
0.111054
0.110903
0.110747
0.110589
0.110428
0.110264
0.110096
0.109926
0.109752
0.109575
0.109395
0.109212
0.109026
0.108836
0.108643
0.108446
0.108246
0.108043
0.107836
0.107626
0.107412
0.107194
0.106973
0.106748
0.106518
0.106286
0.109091
0.109029
0.108963
0.108893
0.10882
0.108742
0.108661
0.108576
0.108487
0.108394
0.108298
0.108198
0.108094
0.107986
0.107875
0.107761
0.107643
0.107522
0.107397
0.10727
0.107139
0.107005
0.106868
0.106727
0.106584
0.106438
0.106289
0.106137
0.105982
0.105824
0.105663
0.105499
0.105332
0.105163
0.10499
0.104815
0.104636
0.104455
0.104271
0.104083
0.103893
0.1037
0.103503
0.103304
0.103101
0.102895
0.102686
0.102474
0.102258
0.102039
0.101817
0.101591
0.101362
0.103167
0.10311
0.10305
0.102985
0.102917
0.102844
0.102768
0.102687
0.102603
0.102515
0.102423
0.102327
0.102228
0.102125
0.102019
0.101909
0.101796
0.10168
0.101561
0.101439
0.101313
0.101185
0.101054
0.10092
0.100783
0.100644
0.100502
0.100357
0.100209
0.100059
0.099906
0.0997506
0.0995925
0.0994319
0.0992687
0.0991029
0.0989345
0.0987635
0.0985899
0.0984137
0.0982349
0.0980534
0.0978693
0.0976824
0.0974929
0.0973006
0.0971056
0.0969078
0.0967072
0.0965037
0.0962973
0.0960879
0.0958756
0.0973274
0.0972764
0.0972213
0.097162
0.0970985
0.097031
0.0969594
0.0968839
0.0968045
0.0967214
0.0966345
0.0965441
0.0964501
0.0963528
0.0962521
0.0961481
0.096041
0.0959308
0.0958177
0.0957016
0.0955826
0.0954609
0.0953365
0.0952094
0.0950797
0.0949474
0.0948127
0.0946754
0.0945357
0.0943935
0.094249
0.0941021
0.0939528
0.0938012
0.0936473
0.093491
0.0933324
0.0931714
0.0930081
0.0928425
0.0926745
0.0925042
0.0923315
0.0921564
0.091979
0.0917991
0.0916167
0.0914319
0.0912447
0.0910549
0.0908626
0.0906677
0.0904702
0.0912303
0.0911862
0.0911379
0.0910854
0.0910288
0.0909682
0.0909036
0.0908352
0.090763
0.0906871
0.0906077
0.0905248
0.0904385
0.0903489
0.0902562
0.0901604
0.0900616
0.0899599
0.0898554
0.0897481
0.0896382
0.0895257
0.0894106
0.0892931
0.0891732
0.089051
0.0889264
0.0887996
0.0886705
0.0885392
0.0884058
0.0882702
0.0881325
0.0879926
0.0878507
0.0877067
0.0875605
0.0874124
0.0872621
0.0871098
0.0869553
0.0867988
0.0866402
0.0864795
0.0863167
0.0861517
0.0859846
0.0858154
0.085644
0.0854704
0.0852945
0.0851165
0.0849361
0.0847535
0.0849443
0.0849079
0.0848674
0.0848227
0.0847741
0.0847216
0.0846652
0.0846052
0.0845415
0.0844743
0.0844037
0.0843298
0.0842527
0.0841726
0.0840894
0.0840033
0.0839145
0.0838229
0.0837287
0.083632
0.0835328
0.0834312
0.0833273
0.0832212
0.0831128
0.0830023
0.0828896
0.082775
0.0826583
0.0825396
0.0824189
0.0822964
0.0821719
0.0820456
0.0819173
0.0817872
0.0816553
0.0815215
0.0813859
0.0812484
0.0811092
0.080968
0.0808251
0.0806802
0.0805336
0.0803851
0.0802347
0.0800824
0.0799282
0.0797722
0.0796142
0.0794542
0.0792923
0.0791284
0.0784979
0.0784695
0.0784371
0.0784008
0.0783607
0.0783168
0.0782693
0.0782182
0.0781638
0.078106
0.078045
0.0779809
0.0779139
0.0778439
0.0777711
0.0776957
0.0776177
0.0775371
0.0774542
0.0773689
0.0772814
0.0771916
0.0770998
0.0770059
0.07691
0.0768121
0.0767124
0.0766108
0.0765074
0.0764022
0.0762952
0.0761866
0.0760762
0.0759642
0.0758506
0.0757352
0.0756183
0.0754997
0.0753795
0.0752577
0.0751343
0.0750093
0.0748827
0.0747544
0.0746246
0.0744931
0.0743601
0.0742254
0.074089
0.073951
0.0738114
0.07367
0.073527
0.0733822
0.0718694
0.0718488
0.0718245
0.0717964
0.0717648
0.0717296
0.071691
0.0716491
0.071604
0.0715558
0.0715047
0.0714506
0.0713938
0.0713343
0.0712723
0.0712078
0.0711409
0.0710717
0.0710003
0.0709268
0.0708512
0.0707736
0.0706942
0.0706129
0.0705297
0.0704449
0.0703583
0.0702701
0.0701803
0.0700889
0.0699959
0.0699015
0.0698055
0.0697081
0.0696092
0.0695089
0.0694071
0.069304
0.0691994
0.0690934
0.068986
0.0688772
0.0687671
0.0686555
0.0685426
0.0684282
0.0683125
0.0681954
0.0680768
0.0679569
0.0678355
0.0677127
0.0675884
0.0674626
0.064965
0.0649518
0.064935
0.0649148
0.0648912
0.0648644
0.0648344
0.0648014
0.0647654
0.0647266
0.0646851
0.0646409
0.0645942
0.0645451
0.0644936
0.0644399
0.064384
0.064326
0.0642661
0.0642043
0.0641406
0.0640751
0.064008
0.0639392
0.0638688
0.0637968
0.0637233
0.0636484
0.0635721
0.0634944
0.0634153
0.063335
0.0632533
0.0631703
0.0630861
0.0630006
0.0629139
0.062826
0.0627368
0.0626464
0.0625549
0.0624621
0.0623682
0.062273
0.0621767
0.0620792
0.0619805
0.0618806
0.0617795
0.0616772
0.0615737
0.061469
0.0613631
0.0612559
0.0575643
0.0575576
0.0575476
0.0575345
0.0575183
0.0574992
0.0574772
0.0574525
0.0574251
0.0573952
0.0573628
0.057328
0.057291
0.0572518
0.0572105
0.0571673
0.0571221
0.0570751
0.0570263
0.0569759
0.0569238
0.0568702
0.056815
0.0567585
0.0567005
0.0566412
0.0565806
0.0565188
0.0564557
0.0563915
0.056326
0.0562595
0.0561918
0.056123
0.0560532
0.0559823
0.0559103
0.0558373
0.0557633
0.0556883
0.0556122
0.0555352
0.0554571
0.0553781
0.055298
0.055217
0.0551349
0.0550519
0.0549679
0.0548828
0.0547968
0.0547097
0.0546217
0.0545325
0.049155
0.0491534
0.0491491
0.0491419
0.0491321
0.0491198
0.0491049
0.0490877
0.0490682
0.0490465
0.0490226
0.0489967
0.0489689
0.0489392
0.0489078
0.0488746
0.0488398
0.0488034
0.0487655
0.0487262
0.0486856
0.0486436
0.0486003
0.0485559
0.0485103
0.0484635
0.0484157
0.0483668
0.0483169
0.048266
0.0482142
0.0481614
0.0481077
0.0480531
0.0479976
0.0479413
0.0478841
0.047826
0.0477671
0.0477074
0.0476469
0.0475855
0.0475233
0.0474603
0.0473965
0.0473319
0.0472666
0.0472004
0.0471334
0.0470656
0.046997
0.0469275
0.0468573
0.0467862
0.0382802
0.0382816
0.0382809
0.038278
0.038273
0.0382661
0.0382573
0.0382466
0.0382341
0.03822
0.0382042
0.0381868
0.0381679
0.0381477
0.038126
0.038103
0.0380788
0.0380534
0.0380269
0.0379992
0.0379706
0.0379409
0.0379103
0.0378787
0.0378463
0.037813
0.0377789
0.037744
0.0377084
0.037672
0.0376349
0.0375971
0.0375587
0.0375195
0.0374797
0.0374393
0.0373982
0.0373565
0.0373142
0.0372712
0.0372277
0.0371835
0.0371388
0.0370935
0.0370475
0.037001
0.0369539
0.0369063
0.036858
0.0368092
0.0367597
0.0367097
0.0366591
0.0366078
0.0198905
0.0198909
0.0198905
0.0198893
0.0198874
0.0198848
0.0198814
0.0198774
0.0198727
0.0198674
0.0198614
0.0198549
0.0198478
0.0198401
0.0198319
0.0198232
0.0198139
0.0198043
0.0197941
0.0197836
0.0197726
0.0197612
0.0197494
0.0197373
0.0197248
0.019712
0.0196988
0.0196853
0.0196715
0.0196574
0.019643
0.0196284
0.0196134
0.0195982
0.0195827
0.0195669
0.0195509
0.0195346
0.0195181
0.0195013
0.0194842
0.0194669
0.0194494
0.0194316
0.0194136
0.0193953
0.0193768
0.019358
0.019339
0.0193198
0.0193003
0.0192806
0.0192606
0.0192403
)
;

boundaryField
{
    inlet
    {
        type            fixedValue;
        value           nonuniform 0();
    }
    outlet
    {
        type            zeroGradient;
    }
    upperWall
    {
        type            kqRWallFunction;
        value           nonuniform List<scalar> 
54
(
0.0198905
0.0198909
0.0198905
0.0198893
0.0198874
0.0198848
0.0198814
0.0198774
0.0198727
0.0198674
0.0198614
0.0198549
0.0198478
0.0198401
0.0198319
0.0198232
0.0198139
0.0198043
0.0197941
0.0197836
0.0197726
0.0197612
0.0197494
0.0197373
0.0197248
0.019712
0.0196988
0.0196853
0.0196715
0.0196574
0.019643
0.0196284
0.0196134
0.0195982
0.0195827
0.0195669
0.0195509
0.0195346
0.0195181
0.0195013
0.0194842
0.0194669
0.0194494
0.0194316
0.0194136
0.0193953
0.0193768
0.019358
0.019339
0.0193198
0.0193003
0.0192806
0.0192606
0.0192403
)
;
    }
    lowerWall
    {
        type            kqRWallFunction;
        value           nonuniform List<scalar> 
57
(
0.0274628
0.0274049
0.0273508
0.0273002