/*--------------------------------*- C++ -*----------------------------------*\
  =========                 |
  \\      /  F ield         | OpenFOAM: The Open Source CFD Toolbox
   \\    /   O peration     | Website:  https://openfoam.org
    \\  /    A nd           | Version:  6
     \\/     M anipulation  |
\*---------------------------------------------------------------------------*/
FoamFile
{
    version     2.0;
    format      ascii;
    class       volScalarField;
    location    "0.05";
    object      nut;
}
// * * * * * * * * * * * * * * * * * * * * * * * * * * * * * * * * * * * * * //

dimensions      [0 2 -1 0 0 0 0];

internalField   nonuniform List<scalar> 
3081
(
1.91433e-05
1.91011e-05
1.90604e-05
1.90212e-05
1.89832e-05
1.89464e-05
1.89107e-05
1.88759e-05
1.88421e-05
1.88091e-05
1.87766e-05
1.87449e-05
1.87142e-05
1.86842e-05
1.86548e-05
1.86259e-05
1.85974e-05
1.85692e-05
1.85413e-05
1.85137e-05
1.84862e-05
1.84589e-05
1.84317e-05
1.84047e-05
1.83777e-05
1.83508e-05
1.83239e-05
1.8297e-05
1.82701e-05
1.82432e-05
1.82163e-05
1.81893e-05
1.81623e-05
1.81352e-05
1.81081e-05
1.80808e-05
1.80535e-05
1.80261e-05
1.79985e-05
1.79708e-05
1.7943e-05
1.79151e-05
1.7887e-05
1.78588e-05
1.78305e-05
1.78019e-05
1.77732e-05
1.77444e-05
1.77153e-05
1.76861e-05
1.76566e-05
1.7627e-05
1.75972e-05
1.75672e-05
1.75369e-05
1.75064e-05
1.74757e-05
0.000148003
0.000147572
0.000147163
0.000146775
0.000146404
0.000146051
0.000145714
0.000145391
0.000145081
0.000144783
0.000144494
0.000144201
0.000143915
0.000143637
0.000143369
0.00014311
0.000142859
0.000142616
0.000142379
0.000142148
0.000141923
0.000141702
0.000141486
0.000141273
0.000141064
0.000140858
0.000140654
0.000140453
0.000140253
0.000140055
0.000139859
0.000139664
0.00013947
0.000139276
0.000139084
0.000138891
0.0001387
0.000138508
0.000138316
0.000138124
0.000137932
0.00013774
0.000137547
0.000137354
0.00013716
0.000136965
0.00013677
0.000136573
0.000136375
0.000136177
0.000135977
0.000135776
0.000135573
0.000135369
0.000135164
0.000134957
0.000134749
0.000273988
0.000273205
0.000272465
0.000271764
0.000271099
0.000270467
0.000269866
0.000269293
0.000268746
0.000268222
0.000267719
0.000267228
0.000266748
0.000266284
0.000265834
0.0002654
0.000264979
0.000264571
0.000264175
0.000263789
0.000263414
0.000263047
0.000262689
0.000262338
0.000261994
0.000261655
0.000261322
0.000260993
0.000260669
0.000260348
0.000260031
0.000259716
0.000259404
0.000259094
0.000258785
0.000258478
0.000258171
0.000257866
0.000257561
0.000257256
0.000256952
0.000256647
0.000256342
0.000256036
0.000255729
0.000255421
0.000255112
0.000254802
0.000254491
0.000254177
0.000253862
0.000253545
0.000253226
0.000252905
0.000252581
0.000252255
0.000251927
0.000374163
0.00037314
0.000372174
0.00037126
0.000370395
0.000369574
0.000368795
0.000368054
0.000367348
0.000366674
0.000366028
0.000365406
0.000364803
0.00036422
0.000363658
0.000363114
0.000362588
0.000362078
0.000361584
0.000361103
0.000360635
0.000360179
0.000359733
0.000359298
0.000358871
0.000358452
0.000358041
0.000357636
0.000357237
0.000356842
0.000356453
0.000356067
0.000355685
0.000355305
0.000354928
0.000354554
0.00035418
0.000353809
0.000353438
0.000353067
0.000352697
0.000352327
0.000351957
0.000351587
0.000351215
0.000350842
0.000350469
0.000350093
0.000349716
0.000349338
0.000348957
0.000348573
0.000348187
0.000347799
0.000347408
0.000347014
0.000346616
0.000454765
0.000453586
0.000452474
0.000451423
0.000450429
0.000449487
0.000448594
0.000447745
0.000446938
0.000446168
0.000445431
0.000444725
0.000444044
0.000443388
0.000442756
0.000442145
0.000441555
0.000440983
0.000440428
0.000439889
0.000439365
0.000438855
0.000438357
0.00043787
0.000437394
0.000436927
0.000436468
0.000436017
0.000435574
0.000435136
0.000434703
0.000434276
0.000433852
0.000433432
0.000433015
0.000432601
0.000432189
0.000431778
0.000431369
0.000430961
0.000430553
0.000430145
0.000429738
0.00042933
0.000428921
0.000428511
0.0004281
0.000427687
0.000427273
0.000426856
0.000426438
0.000426016
0.000425592
0.000425166
0.000424736
0.000424302
0.000423866
0.00052083
0.000519559
0.000518359
0.000517227
0.000516156
0.000515143
0.000514183
0.000513271
0.000512404
0.000511578
0.000510789
0.000510034
0.000509309
0.000508611
0.000507938
0.000507289
0.000506662
0.000506055
0.000505467
0.000504896
0.00050434
0.0005038
0.000503272
0.000502757
0.000502254
0.00050176
0.000501276
0.0005008
0.000500331
0.00049987
0.000499414
0.000498963
0.000498517
0.000498076
0.000497637
0.000497202
0.000496768
0.000496337
0.000495908
0.000495479
0.000495051
0.000494624
0.000494196
0.000493768
0.000493339
0.00049291
0.000492479
0.000492047
0.000491612
0.000491176
0.000490737
0.000490296
0.000489852
0.000489405
0.000488954
0.0004885
0.000488043
0.000574397
0.000573156
0.000571985
0.000570879
0.000569832
0.00056884
0.000567898
0.000567004
0.000566152
0.00056534
0.000564562
0.000563817
0.0005631
0.00056241
0.000561745
0.000561102
0.00056048
0.000559878
0.000559293
0.000558724
0.000558171
0.000557631
0.000557105
0.000556589
0.000556085
0.00055559
0.000555104
0.000554626
0.000554154
0.000553689
0.00055323
0.000552775
0.000552324
0.000551877
0.000551434
0.000550992
0.000550553
0.000550116
0.000549679
0.000549244
0.000548809
0.000548374
0.000547938
0.000547502
0.000547065
0.000546627
0.000546187
0.000545745
0.000545301
0.000544855
0.000544406
0.000543954
0.000543499
0.000543041
0.000542579
0.000542113
0.00062037
0.000619121
0.000617944
0.000616832
0.00061578
0.000614784
0.000613839
0.000612942
0.000612088
0.000611274
0.000610495
0.000609749
0.000609033
0.000608343
0.000607678
0.000607036
0.000606414
0.000605812
0.000605228
0.00060466
0.000604108
0.000603569
0.000603043
0.000602529
0.000602026
0.000601532
0.000601047
0.00060057
0.0006001
0.000599636
0.000599178
0.000598725
0.000598276
0.000597831
0.000597389
0.000596949
0.000596512
0.000596076
0.000595641
0.000595208
0.000594774
0.000594341
0.000593907
0.000593473
0.000593038
0.000592601
0.000592163
0.000591723
0.000591281
0.000590836
0.000590389
0.000589939
0.000589486
0.000589029
0.000588569
0.000588105
0.000657846
0.000656688
0.000655595
0.000654561
0.000653583
0.000652655
0.000651774
0.000650936
0.000650137
0.000649374
0.000648643
0.000647942
0.000647266
0.000646614
0.000645985
0.000645377
0.000644787
0.000644215
0.000643659
0.000643118
0.000642591
0.000642076
0.000641573
0.00064108
0.000640596
0.000640122
0.000639655
0.000639195
0.000638741
0.000638293
0.00063785
0.00063741
0.000636975
0.000636542
0.000636112
0.000635684
0.000635258
0.000634832
0.000634408
0.000633984
0.00063356
0.000633135
0.00063271
0.000632284
0.000631856
0.000631427
0.000630996
0.000630563
0.000630128
0.00062969
0.000629249
0.000628805
0.000628358
0.000627907
0.000627452
0.000690511
0.00068939
0.000688334
0.000687336
0.000686391
0.000685497
0.000684647
0.00068384
0.00068307
0.000682335
0.000681632
0.000680956
0.000680305
0.000679678
0.000679072
0.000678486
0.000677919
0.000677368
0.000676833
0.000676312
0.000675804
0.000675308
0.000674824
0.000674349
0.000673884
0.000673427
0.000672977
0.000672534
0.000672097
0.000671666
0.000671239
0.000670816
0.000670396
0.000669979
0.000669565
0.000669153
0.000668742
0.000668332
0.000667923
0.000667514
0.000667105
0.000666696
0.000666286
0.000665875
0.000665462
0.000665048
0.000664632
0.000664215
0.000663794
0.000663371
0.000662946
0.000662517
0.000662085
0.000661649
0.000661209
0.000718021
0.000716953
0.000715947
0.000714998
0.000714101
0.000713251
0.000712445
0.000711678
0.000710948
0.000710252
0.000709585
0.000708945
0.000708328
0.000707733
0.000707159
0.000706603
0.000706065
0.000705542
0.000705035
0.000704541
0.000704059
0.000703589
0.000703129
0.000702679
0.000702238
0.000701804
0.000701378
0.000700957
0.000700543
0.000700133
0.000699728
0.000699326
0.000698928
0.000698532
0.000698138
0.000697747
0.000697356
0.000696967
0.000696578
0.000696189
0.0006958
0.000695411
0.000695021
0.00069463
0.000694237
0.000693843
0.000693447
0.000693049
0.000692649
0.000692246
0.000691841
0.000691432
0.00069102
0.000690604
0.000690185
0.000741106
0.000740102
0.000739157
0.000738267
0.000737426
0.00073663
0.000735875
0.000735158
0.000734476
0.000733824
0.000733202
0.000732603
0.000732027
0.000731471
0.000730934
0.000730415
0.000729911
0.000729423
0.000728948
0.000728486
0.000728036
0.000727596
0.000727166
0.000726745
0.000726332
0.000725927
0.000725528
0.000725134
0.000724746
0.000724363
0.000723983
0.000723607
0.000723234
0.000722863
0.000722495
0.000722127
0.000721761
0.000721396
0.000721031
0.000720666
0.000720301
0.000719936
0.00071957
0.000719202
0.000718834
0.000718463
0.000718091
0.000717717
0.00071734
0.000716961
0.00071658
0.000716195
0.000715807
0.000715416
0.000715021
0.000714622
0.000760372
0.00075944
0.000758563
0.000757738
0.000756959
0.000756224
0.000755527
0.000754865
0.000754235
0.000753635
0.000753061
0.000752509
0.000751977
0.000751465
0.00075097
0.000750491
0.000750027
0.000749576
0.000749139
0.000748712
0.000748297
0.000747891
0.000747495
0.000747106
0.000746725
0.000746351
0.000745983
0.00074562
0.000745261
0.000744907
0.000744557
0.000744209
0.000743864
0.000743521
0.00074318
0.00074284
0.000742502
0.000742163
0.000741826
0.000741488
0.000741149
0.000740811
0.000740471
0.00074013
0.000739788
0.000739444
0.000739099
0.000738751
0.000738402
0.000738049
0.000737695
0.000737337
0.000736976
0.000736612
0.000736245
0.000735874
0.000775481
0.000774677
0.000773922
0.00077321
0.000772538
0.000771902
0.000771299
0.000770725
0.000770179
0.000769656
0.000769154
0.000768671
0.000768204
0.000767754
0.000767318
0.000766896
0.000766486
0.000766088
0.0007657
0.000765322
0.000764953
0.000764592
0.000764238
0.000763892
0.000763551
0.000763215
0.000762885
0.000762558
0.000762235
0.000761916
0.000761599
0.000761284
0.000760971
0.00076066
0.00076035
0.00076004
0.000759731
0.000759422
0.000759113
0.000758803
0.000758493
0.000758182
0.00075787
0.000757557
0.000757242
0.000756925
0.000756606
0.000756285
0.000755962
0.000755636
0.000755307
0.000754976
0.000754641
0.000754304
0.000753962
0.000788679
0.000787948
0.000787262
0.000786618
0.000786011
0.000785438
0.000784895
0.00078438
0.000783889
0.00078342
0.000782969
0.000782535
0.000782116
0.000781712
0.00078132
0.000780941
0.000780574
0.000780216
0.000779868
0.000779529
0.000779198
0.000778874
0.000778556
0.000778245
0.000777939
0.000777637
0.00077734
0.000777047
0.000776756
0.000776469
0.000776184
0.000775901
0.000775619
0.000775338
0.000775059
0.000774779
0.000774501
0.000774222
0.000773943
0.000773663
0.000773383
0.000773101
0.000772819
0.000772535
0.00077225
0.000771963
0.000771674
0.000771383
0.00077109
0.000770795
0.000770497
0.000770196
0.000769892
0.000769585
0.000769275
0.000799652
0.000798993
0.000798377
0.000797801
0.000797259
0.000796749
0.000796266
0.000795808
0.000795373
0.000794956
0.000794555
0.00079417
0.000793798
0.000793439
0.000793091
0.000792755
0.000792428
0.00079211
0.000791801
0.000791499
0.000791204
0.000790916
0.000790633
0.000790356
0.000790083
0.000789814
0.000789549
0.000789287
0.000789027
0.00078877
0.000788515
0.000788262
0.000788009
0.000787758
0.000787507
0.000787256
0.000787005
0.000786754
0.000786503
0.000786251
0.000785999
0.000785745
0.00078549
0.000785234
0.000784976
0.000784717
0.000784456
0.000784192
0.000783927
0.000783659
0.000783389
0.000783116
0.00078284
0.000782561
0.000782279
0.000808254
0.000807667
0.00080712
0.000806611
0.000806135
0.000805687
0.000805265
0.000804865
0.000804484
0.00080412
0.00080377
0.000803434
0.00080311
0.000802797
0.000802494
0.000802201
0.000801917
0.00080164
0.000801371
0.000801108
0.000800851
0.0008006
0.000800354
0.000800112
0.000799874
0.00079964
0.000799409
0.00079918
0.000798954
0.000798729
0.000798506
0.000798284
0.000798064
0.000797843
0.000797623
0.000797404
0.000797184
0.000796964
0.000796743
0.000796522
0.000796299
0.000796076
0.000795852
0.000795626
0.000795399
0.00079517
0.000794939
0.000794707
0.000794472
0.000794236
0.000793997
0.000793755
0.000793511
0.000793264
0.000793014
0.000814104
0.000813628
0.000813184
0.00081277
0.000812383
0.000812019
0.000811675
0.000811347
0.000811035
0.000810735
0.000810448
0.000810172
0.000809906
0.000809648
0.000809399
0.000809158
0.000808923
0.000808695
0.000808473
0.000808255
0.000808043
0.000807835
0.000807631
0.00080743
0.000807232
0.000807037
0.000806845
0.000806654
0.000806465
0.000806277
0.00080609
0.000805903
0.000805718
0.000805532
0.000805347
0.000805161
0.000804975
0.000804789
0.000804602
0.000804414
0.000804226
0.000804036
0.000803845
0.000803653
0.000803459
0.000803264
0.000803067
0.000802869
0.000802668
0.000802465
0.000802261
0.000802054
0.000801844
0.000801631
0.000818479
0.000818095
0.000817739
0.000817407
0.000817097
0.000816805
0.000816528
0.000816265
0.000816013
0.000815773
0.000815542
0.00081532
0.000815105
0.000814898
0.000814698
0.000814503
0.000814315
0.000814131
0.000813952
0.000813777
0.000813606
0.000813438
0.000813274
0.000813112
0.000812952
0.000812794
0.000812638
0.000812484
0.00081233
0.000812178
0.000812026
0.000811874
0.000811723
0.000811572
0.000811421
0.000811269
0.000811117
0.000810965
0.000810812
0.000810658
0.000810503
0.000810347
0.00081019
0.000810033
0.000809873
0.000809713
0.000809551
0.000809387
0.000809221
0.000809054
0.000808885
0.000808714
0.00080854
0.000822094
0.00082176
0.000821454
0.000821172
0.000820911
0.000820667
0.000820437
0.000820219
0.000820011
0.000819813
0.000819624
0.000819442
0.000819267
0.000819099
0.000818936
0.000818779
0.000818627
0.000818479
0.000818335
0.000818195
0.000818058
0.000817924
0.000817793
0.000817664
0.000817537
0.000817412
0.000817288
0.000817166
0.000817045
0.000816924
0.000816804
0.000816685
0.000816566
0.000816446
0.000816327
0.000816208
0.000816088
0.000815968
0.000815848
0.000815726
0.000815605
0.000815482
0.000815359
0.000815235
0.000815109
0.000814983
0.000814855
0.000814727
0.000814597
0.000814465
0.000814332
0.000814197
0.00081406
0.000824763
0.000824474
0.000824213
0.000823977
0.00082376
0.000823559
0.000823371
0.000823194
0.000823026
0.000822867
0.000822715
0.00082257
0.000822431
0.000822297
0.000822168
0.000822044
0.000821924
0.000821808
0.000821696
0.000821587
0.000821481
0.000821377
0.000821276
0.000821177
0.000821079
0.000820984
0.000820889
0.000820796
0.000820703
0.000820612
0.000820521
0.00082043
0.000820339
0.000820249
0.000820158
0.000820068
0.000819977
0.000819886
0.000819795
0.000819704
0.000819611
0.000819519
0.000819426
0.000819332
0.000819237
0.000819142
0.000819045
0.000818948
0.00081885
0.000818751
0.00081865
0.000818548
0.000818444
0.000826702
0.000826454
0.000826235
0.000826039
0.000825862
0.0008257
0.00082555
0.00082541
0.000825277
0.000825152
0.000825033
0.00082492
0.000824813
0.00082471
0.000824611
0.000824516
0.000824425
0.000824337
0.000824253
0.000824171
0.000824092
0.000824015
0.00082394
0.000823866
0.000823795
0.000823725
0.000823656
0.000823588
0.00082352
0.000823454
0.000823388
0.000823322
0.000823256
0.000823191
0.000823125
0.00082306
0.000822995
0.000822929
0.000822863
0.000822797
0.000822731
0.000822664
0.000822597
0.00082253
0.000822462
0.000822393
0.000822324
0.000822254
0.000822184
0.000822113
0.00082204
0.000821967
0.000821891
0.000828071
0.000827861
0.000827679
0.000827519
0.000827378
0.00082725
0.000827134
0.000827026
0.000826925
0.000826831
0.000826741
0.000826656
0.000826576
0.0008265
0.000826427
0.000826358
0.000826291
0.000826228
0.000826167
0.000826109
0.000826053
0.000825998
0.000825946
0.000825895
0.000825845
0.000825797
0.000825749
0.000825703
0.000825657
0.000825611
0.000825567
0.000825522
0.000825478
0.000825433
0.000825389
0.000825345
0.000825301
0.000825257
0.000825212
0.000825168
0.000825123
0.000825078
0.000825033
0.000824988
0.000824942
0.000824896
0.00082485
0.000824803
0.000824756
0.000824708
0.000824659
0.000824609
0.000824558
0.00082899
0.000828813
0.000828665
0.000828537
0.000828427
0.00082833
0.000828243
0.000828163
0.00082809
0.000828022
0.000827958
0.000827897
0.000827841
0.000827787
0.000827737
0.000827689
0.000827644
0.000827601
0.00082756
0.000827522
0.000827485
0.00082745
0.000827416
0.000827383
0.000827352
0.000827322
0.000827292
0.000827263
0.000827235
0.000827207
0.000827179
0.000827152
0.000827125
0.000827098
0.000827071
0.000827044
0.000827017
0.00082699
0.000826963
0.000826936
0.000826909
0.000826882
0.000826855
0.000826827
0.0008268
0.000826772
0.000826744
0.000826715
0.000826687
0.000826658
0.000826628
0.000826598
0.000826566
0.000829547
0.0008294
0.000829281
0.000829183
0.0008291
0.000829029
0.000828967
0.000828911
0.000828861
0.000828815
0.000828772
0.000828733
0.000828696
0.000828662
0.00082863
0.000828601
0.000828573
0.000828547
0.000828523
0.0008285
0.000828479
0.000828459
0.000828441
0.000828423
0.000828406
0.00082839
0.000828375
0.00082836
0.000828346
0.000828332
0.000828318
0.000828304
0.00082829
0.000828277
0.000828263
0.00082825
0.000828236
0.000828223
0.000828209
0.000828195
0.000828182
0.000828168
0.000828154
0.00082814
0.000828126
0.000828112
0.000828098
0.000828084
0.000828069
0.000828055
0.00082804
0.000828024
0.000828006
0.000829808
0.000829688
0.000829595
0.000829521
0.000829461
0.000829413
0.000829371
0.000829336
0.000829305
0.000829277
0.000829252
0.00082923
0.000829209
0.000829191
0.000829174
0.000829159
0.000829145
0.000829133
0.000829122
0.000829112
0.000829103
0.000829095
0.000829088
0.000829082
0.000829076
0.000829071
0.000829066
0.000829062
0.000829057
0.000829053
0.000829049
0.000829045
0.000829042
0.000829038
0.000829034
0.00082903
0.000829026
0.000829021
0.000829017
0.000829013
0.000829009
0.000829004
0.000829
0.000828996
0.000828991
0.000828987
0.000828982
0.000828978
0.000828973
0.000828968
0.000828963
0.000828957
0.00082895
0.000829824
0.000829727
0.000829655
0.000829601
0.000829561
0.00082953
0.000829506
0.000829487
0.000829471
0.000829458
0.000829447
0.000829438
0.00082943
0.000829423
0.000829418
0.000829414
0.000829411
0.000829408
0.000829407
0.000829406
0.000829406
0.000829406
0.000829407
0.000829409
0.000829411
0.000829413
0.000829415
0.000829417
0.00082942
0.000829422
0.000829424
0.000829426
0.000829429
0.00082943
0.000829432
0.000829434
0.000829435
0.000829437
0.000829438
0.000829439
0.00082944
0.000829441
0.000829442
0.000829443
0.000829444
0.000829445
0.000829445
0.000829446
0.000829447
0.000829447
0.000829447
0.000829447
0.000829445
0.000829619
0.000829541
0.000829487
0.00082945
0.000829426
0.00082941
0.0008294
0.000829394
0.00082939
0.000829389
0.000829388
0.000829389
0.000829391
0.000829394
0.000829397
0.0008294
0.000829404
0.000829409
0.000829414
0.000829419
0.000829425
0.00082943
0.000829436
0.000829442
0.000829448
0.000829454
0.00082946
0.000829466
0.000829471
0.000829476
0.000829481
0.000829486
0.00082949
0.000829495
0.000829498
0.000829502
0.000829505
0.000829508
0.000829511
0.000829513
0.000829516
0.000829518
0.00082952
0.000829522
0.000829524
0.000829525
0.000829527
0.000829528
0.00082953
0.000829531
0.000829532
0.000829532
0.000829531
0.000829149
0.000829087
0.000829048
0.000829024
0.000829012
0.000829007
0.000829006
0.000829009
0.000829014
0.00082902
0.000829027
0.000829034
0.000829041
0.000829048
0.000829056
0.000829063
0.00082907
0.000829077
0.000829083
0.00082909
0.000829096
0.000829102
0.000829108
0.000829114
0.000829119
0.000829123
0.000829128
0.000829131
0.000829135
0.000829137
0.000829139
0.000829141
0.000829142
0.000829142
0.000829142
0.000829141
0.00082914
0.000829139
0.000829137
0.000829134
0.000829131
0.000829128
0.000829125
0.000829121
0.000829117
0.000829112
0.000829108
0.000829103
0.000829097
0.000829092
0.000829086
0.000829079
0.000829071
0.000828392
0.000828344
0.000828316
0.000828301
0.000828297
0.000828299
0.000828305
0.000828313
0.000828322
0.000828331
0.00082834
0.000828349
0.000828357
0.000828365
0.000828372
0.000828378
0.000828383
0.000828387
0.000828391
0.000828394
0.000828396
0.000828397
0.000828398
0.000828397
0.000828396
0.000828394
0.000828391
0.000828388
0.000828383
0.000828377
0.000828371
0.000828363
0.000828355
0.000828345
0.000828335
0.000828324
0.000828312
0.000828299
0.000828286
0.000828272
0.000828257
0.000828242
0.000828226
0.000828209
0.000828192
0.000828174
0.000828156
0.000828137
0.000828117
0.000828097
0.000828076
0.000828055
0.000828032
0.000827316
0.000827277
0.000827257
0.000827248
0.000827248
0.000827253
0.000827261
0.00082727
0.000827279
0.000827287
0.000827295
0.000827301
0.000827306
0.000827309
0.00082731
0.00082731
0.000827309
0.000827306
0.000827301
0.000827296
0.000827288
0.000827279
0.000827269
0.000827258
0.000827245
0.00082723
0.000827215
0.000827197
0.000827179
0.000827159
0.000827137
0.000827114
0.00082709
0.000827065
0.000827038
0.000827009
0.00082698
0.000826949
0.000826918
0.000826885
0.000826851
0.000826816
0.000826779
0.000826742
0.000826704
0.000826665
0.000826625
0.000826584
0.000826542
0.000826499
0.000826455
0.00082641
0.000826363
0.000825875
0.000825844
0.000825827
0.000825821
0.000825822
0.000825826
0.000825831
0.000825837
0.000825842
0.000825845
0.000825846
0.000825844
0.000825841
0.000825835
0.000825826
0.000825815
0.000825802
0.000825786
0.000825768
0.000825748
0.000825725
0.0008257
0.000825674
0.000825645
0.000825614
0.000825581
0.000825546
0.000825509
0.00082547
0.000825429
0.000825385
0.00082534
0.000825293
0.000825244
0.000825193
0.00082514
0.000825086
0.00082503
0.000824972
0.000824912
0.00082485
0.000824787
0.000824723
0.000824657
0.000824589
0.00082452
0.000824449
0.000824377
0.000824303
0.000824228
0.000824151
0.000824072
0.000823991
0.000824015
0.000823987
0.000823972
0.000823964
0.000823961
0.00082396
0.000823959
0.000823957
0.000823953
0.000823945
0.000823935
0.000823921
0.000823904
0.000823883
0.000823859
0.000823831
0.0008238
0.000823765
0.000823727
0.000823687
0.000823643
0.000823596
0.000823546
0.000823493
0.000823437
0.000823379
0.000823317
0.000823253
0.000823186
0.000823116
0.000823043
0.000822968
0.00082289
0.000822809
0.000822726
0.00082264
0.000822552
0.000822461
0.000822367
0.000822272
0.000822174
0.000822073
0.000821971
0.000821866
0.000821758
0.000821648
0.000821536
0.000821422
0.000821306
0.000821187
0.000821065
0.000820941
0.000820814
0.000821666
0.000821639
0.00082162
0.000821607
0.000821596
0.000821586
0.000821573
0.000821558
0.00082154
0.000821517
0.000821489
0.000821457
0.00082142
0.000821378
0.000821332
0.000821281
0.000821225
0.000821165
0.000821101
0.000821032
0.000820959
0.000820883
0.000820802
0.000820717
0.000820629
0.000820536
0.00082044
0.00082034
0.000820236
0.000820129
0.000820018
0.000819903
0.000819785
0.000819663
0.000819538
0.000819409
0.000819277
0.000819141
0.000819002
0.00081886
0.000818714
0.000818565
0.000818413
0.000818257
0.000818098
0.000817936
0.00081777
0.000817602
0.000817429
0.000817254
0.000817075
0.000816892
0.000816705
0.000818744
0.000818712
0.000818686
0.000818663
0.000818639
0.000818613
0.000818584
0.00081855
0.000818511
0.000818466
0.000818415
0.000818358
0.000818294
0.000818225
0.000818149
0.000818067
0.000817979
0.000817886
0.000817787
0.000817682
0.000817572
0.000817457
0.000817337
0.000817211
0.000817081
0.000816945
0.000816805
0.000816659
0.000816509
0.000816354
0.000816194
0.000816029
0.000815859
0.000815685
0.000815507
0.000815323
0.000815135
0.000814943
0.000814745
0.000814544
0.000814338
0.000814127
0.000813912
0.000813692
0.000813468
0.000813239
0.000813005
0.000812767
0.000812524
0.000812277
0.000812024
0.000811767
0.000811504
0.000815143
0.000815102
0.000815063
0.000815023
0.000814981
0.000814934
0.000814881
0.000814821
0.000814755
0.00081468
0.000814598
0.000814508
0.00081441
0.000814304
0.00081419
0.000814069
0.00081394
0.000813804
0.000813661
0.000813511
0.000813354
0.00081319
0.00081302
0.000812843
0.000812659
0.00081247
0.000812273
0.000812071
0.000811862
0.000811647
0.000811426
0.000811199
0.000810966
0.000810726
0.000810481
0.000810229
0.000809972
0.000809708
0.000809438
0.000809163
0.000808881
0.000808594
0.0008083
0.000808
0.000807694
0.000807382
0.000807063
0.000806739
0.000806408
0.00080607
0.000805725
0.000805374
0.000805016
0.000810733
0.000810675
0.000810617
0.000810554
0.000810485
0.00081041
0.000810326
0.000810233
0.00081013
0.000810018
0.000809895
0.000809763
0.000809621
0.000809469
0.000809308
0.000809137
0.000808956
0.000808767
0.000808569
0.000808362
0.000808146
0.000807922
0.00080769
0.000807449
0.0008072
0.000806943
0.000806678
0.000806406
0.000806125
0.000805836
0.00080554
0.000805235
0.000804923
0.000804603
0.000804276
0.00080394
0.000803597
0.000803246
0.000802887
0.000802521
0.000802146
0.000801764
0.000801373
0.000800975
0.000800569
0.000800154
0.000799731
0.000799299
0.000798859
0.000798411
0.000797953
0.000797487
0.000797011
0.000805352
0.000805271
0.000805184
0.00080509
0.000804987
0.000804874
0.00080475
0.000804614
0.000804465
0.000804305
0.000804132
0.000803947
0.000803749
0.00080354
0.000803319
0.000803086
0.000802842
0.000802587
0.000802321
0.000802044
0.000801756
0.000801458
0.00080115
0.000800831
0.000800502
0.000800163
0.000799814
0.000799456
0.000799087
0.000798708
0.00079832
0.000797922
0.000797514
0.000797096
0.000796668
0.000796231
0.000795783
0.000795326
0.000794859
0.000794382
0.000793894
0.000793397
0.000792889
0.00079237
0.000791842
0.000791302
0.000790752
0.000790191
0.000789619
0.000789035
0.00078844
0.000787833
0.000787214
0.000799061
0.000798946
0.000798821
0.000798684
0.000798535
0.000798372
0.000798195
0.000798003
0.000797797
0.000797575
0.000797338
0.000797086
0.00079682
0.000796539
0.000796244
0.000795934
0.000795611
0.000795274
0.000794924
0.000794561
0.000794185
0.000793795
0.000793394
0.000792979
0.000792552
0.000792113
0.000791661
0.000791198
0.000790721
0.000790233
0.000789732
0.000789219
0.000788694
0.000788157
0.000787607
0.000787045
0.00078647
0.000785883
0.000785284
0.000784671
0.000784046
0.000783407
0.000782756
0.000782091
0.000781413
0.000780721
0.000780015
0.000779296
0.000778562
0.000777813
0.00077705
0.000776271
0.000775477
0.000791598
0.000791437
0.000791261
0.000791069
0.000790861
0.000790635
0.000790392
0.00079013
0.00078985
0.000789553
0.000789237
0.000788903
0.000788552
0.000788183
0.000787797
0.000787395
0.000786975
0.000786539
0.000786088
0.00078562
0.000785136
0.000784637
0.000784122
0.000783593
0.000783048
0.000782487
0.000781912
0.000781322
0.000780716
0.000780096
0.00077946
0.000778809
0.000778143
0.000777462
0.000776766
0.000776054
0.000775327
0.000774584
0.000773825
0.00077305
0.000772259
0.000771452
0.000770628
0.000769787
0.00076893
0.000768055
0.000767162
0.000766252
0.000765323
0.000764377
0.000763411
0.000762426
0.000761421
0.000781965
0.000781746
0.000781507
0.000781248
0.000780968
0.000780667
0.000780343
0.000779999
0.000779632
0.000779243
0.000778834
0.000778403
0.00077795
0.000777478
0.000776985
0.000776472
0.000775939
0.000775386
0.000774815
0.000774224
0.000773614
0.000772986
0.000772339
0.000771674
0.000770991
0.00077029
0.00076957
0.000768832
0.000768076
0.000767302
0.000766509
0.000765699
0.000764869
0.000764022
0.000763155
0.00076227
0.000761366
0.000760443
0.0007595
0.000758538
0.000757556
0.000756554
0.000755532
0.000754489
0.000753425
0.00075234
0.000751233
0.000750104
0.000748953
0.000747778
0.000746581
0.00074536
0.000744114
0.00076928
0.000768991
0.000768676
0.000768336
0.00076797
0.000767578
0.00076716
0.000766716
0.000766246
0.000765751
0.00076523
0.000764685
0.000764114
0.00076352
0.000762901
0.000762259
0.000761594
0.000760906
0.000760195
0.000759462
0.000758706
0.000757929
0.00075713
0.000756309
0.000755466
0.000754602
0.000753717
0.00075281
0.000751881
0.000750931
0.00074996
0.000748966
0.000747951
0.000746913
0.000745854
0.000744772
0.000743667
0.00074254
0.000741389
0.000740216
0.000739018
0.000737796
0.00073655
0.000735279
0.000733984
0.000732662
0.000731315
0.000729941
0.00072854
0.000727111
0.000725655
0.00072417
0.000722656
0.000752471
0.000752102
0.000751702
0.000751271
0.000750809
0.000750317
0.000749793
0.00074924
0.000748656
0.000748043
0.0007474
0.000746729
0.000746029
0.000745301
0.000744546
0.000743764
0.000742955
0.00074212
0.000741259
0.000740372
0.000739459
0.000738522
0.000737559
0.000736571
0.000735559
0.000734522
0.00073346
0.000732373
0.000731262
0.000730126
0.000728965
0.000727779
0.000726568
0.000725332
0.00072407
0.000722782
0.000721468
0.000720128
0.000718762
0.000717368
0.000715947
0.000714498
0.000713022
0.000711516
0.000709982
0.000708418
0.000706824
0.0007052
0.000703544
0.000701857
0.000700137
0.000698385
0.000696598
0.00073002
0.000729572
0.000729088
0.000728568
0.000728013
0.000727422
0.000726796
0.000726135
0.000725441
0.000724714
0.000723953
0.000723161
0.000722337
0.000721481
0.000720595
0.000719679
0.000718734
0.000717759
0.000716756
0.000715724
0.000714664
0.000713576
0.00071246
0.000711317
0.000710147
0.00070895
0.000707725
0.000706474
0.000705195
0.00070389
0.000702556
0.000701196
0.000699808
0.000698393
0.000696949
0.000695478
0.000693978
0.000692449
0.000690891
0.000689304
0.000687687
0.00068604
0.000684362
0.000682653
0.000680912
0.00067914
0.000677334
0.000675496
0.000673623
0.000671716
0.000669774
0.000667797
0.000665782
0.000699092
0.000698578
0.000698024
0.00069743
0.000696795
0.000696122
0.000695411
0.000694662
0.000693876
0.000693054
0.000692197
0.000691305
0.00069038
0.000689421
0.000688429
0.000687405
0.00068635
0.000685265
0.000684148
0.000683002
0.000681826
0.000680621
0.000679388
0.000678125
0.000676834
0.000675515
0.000674167
0.000672792
0.000671388
0.000669957
0.000668497
0.000667009
0.000665493
0.000663948
0.000662374
0.000660772
0.000659141
0.00065748
0.00065579
0.00065407
0.000652319
0.000650537
0.000648725
0.00064688
0.000645004
0.000643095
0.000641153
0.000639177
0.000637167
0.000635122
0.000633042
0.000630925
0.000628772
0.000654872
0.000654328
0.000653741
0.000653111
0.00065244
0.000651728
0.000650976
0.000650186
0.000649358
0.000648493
0.000647591
0.000646655
0.000645685
0.000644681
0.000643644
0.000642576
0.000641476
0.000640345
0.000639185
0.000637995
0.000636776
0.000635528
0.000634252
0.000632949
0.000631617
0.000630259
0.000628873
0.000627461
0.000626021
0.000624555