/*--------------------------------*- C++ -*----------------------------------*\
  =========                 |
  \\      /  F ield         | OpenFOAM: The Open Source CFD Toolbox
   \\    /   O peration     | Website:  https://openfoam.org
    \\  /    A nd           | Version:  6
     \\/     M anipulation  |
\*---------------------------------------------------------------------------*/
FoamFile
{
    version     2.0;
    format      ascii;
    class       volScalarField;
    location    "0.05";
    object      p;
}
// * * * * * * * * * * * * * * * * * * * * * * * * * * * * * * * * * * * * * //

dimensions      [0 2 -2 0 0 0 0];

internalField   nonuniform List<scalar> 
3081
(
0.200179
0.199683
0.199203
0.198739
0.198292
0.197859
0.197442
0.197039
0.196651
0.196276
0.195917
0.195571
0.195235
0.194908
0.194591
0.194286
0.19399
0.193704
0.193428
0.193161
0.192902
0.192651
0.192407
0.192171
0.191941
0.191718
0.1915
0.191288
0.191082
0.19088
0.190682
0.190489
0.1903
0.190114
0.189931
0.189752
0.189576
0.189402
0.18923
0.189061
0.188894
0.188728
0.188564
0.188402
0.18824
0.18808
0.187921
0.187763
0.187605
0.187447
0.187291
0.187134
0.186977
0.186821
0.186665
0.186508
0.186351
0.199833
0.199366
0.198912
0.198471
0.198045
0.197633
0.197233
0.196847
0.196474
0.196113
0.195763
0.195425
0.195099
0.194784
0.194478
0.194182
0.193896
0.193617
0.193348
0.193087
0.192833
0.192587
0.192348
0.192115
0.191889
0.191669
0.191455
0.191246
0.191041
0.190842
0.190646
0.190455
0.190267
0.190083
0.189902
0.189724
0.189548
0.189376
0.189205
0.189036
0.18887
0.188705
0.188542
0.18838
0.188219
0.188059
0.1879
0.187742
0.187585
0.187427
0.187271
0.187114
0.186958
0.186802
0.186646
0.186489
0.186333
0.19946
0.199022
0.198596
0.198181
0.197778
0.197387
0.197007
0.196639
0.196283
0.195937
0.195601
0.195276
0.194962
0.194658
0.194362
0.194075
0.193797
0.193527
0.193264
0.19301
0.192762
0.192521
0.192287
0.192059
0.191837
0.191621
0.19141
0.191204
0.191003
0.190805
0.190612
0.190423
0.190237
0.190055
0.189875
0.189699
0.189525
0.189353
0.189183
0.189016
0.18885
0.188686
0.188523
0.188362
0.188201
0.188042
0.187884
0.187726
0.187569
0.187412
0.187256
0.187099
0.186943
0.186787
0.186631
0.186475
0.186319
0.199113
0.198702
0.1983
0.197909
0.197527
0.197156
0.196794
0.196443
0.196101
0.195769
0.195447
0.195134
0.19483
0.194536
0.194249
0.193971
0.193701
0.193438
0.193183
0.192935
0.192693
0.192458
0.192229
0.192005
0.191788
0.191575
0.191368
0.191165
0.190966
0.190772
0.190581
0.190394
0.19021
0.19003
0.189852
0.189677
0.189504
0.189333
0.189165
0.188998
0.188834
0.18867
0.188508
0.188348
0.188188
0.188029
0.187871
0.187714
0.187557
0.187401
0.187245
0.187089
0.186933
0.186777
0.186621
0.186466
0.186309
0.198792
0.198405
0.198025
0.197654
0.197291
0.196937
0.196592
0.196256
0.195928
0.195609
0.195299
0.194997
0.194704
0.194418
0.194141
0.193871
0.193608
0.193352
0.193104
0.192861
0.192625
0.192395
0.192171
0.191952
0.191738
0.19153
0.191326
0.191126
0.19093
0.190738
0.19055
0.190365
0.190184
0.190005
0.189829
0.189655
0.189484
0.189315
0.189148
0.188982
0.188818
0.188656
0.188495
0.188335
0.188176
0.188017
0.18786
0.187703
0.187547
0.187391
0.187235
0.18708
0.186924
0.186769
0.186613
0.186457
0.186301
0.198484
0.198118
0.197759
0.197406
0.197061
0.196724
0.196394
0.196072
0.195757
0.195451
0.195152
0.194861
0.194577
0.194301
0.194032
0.19377
0.193515
0.193266
0.193024
0.192787
0.192557
0.192332
0.192113
0.191898
0.191689
0.191484
0.191283
0.191086
0.190894
0.190705
0.190519
0.190337
0.190157
0.18998
0.189806
0.189634
0.189464
0.189296
0.18913
0.188966
0.188803
0.188642
0.188481
0.188322
0.188164
0.188006
0.187849
0.187693
0.187537
0.187382
0.187226
0.187071
0.186916
0.186761
0.186605
0.18645
0.186294
0.197838
0.197497
0.197162
0.196834
0.196512
0.196197
0.195888
0.195586
0.195292
0.195004
0.194723
0.194449
0.194182
0.193921
0.193667
0.193419
0.193178
0.192942
0.192712
0.192487
0.192267
0.192052
0.191843
0.191637
0.191436
0.191239
0.191046
0.190856
0.19067
0.190487
0.190307
0.19013
0.189955
0.189783
0.189612
0.189444
0.189278
0.189113
0.18895
0.188788
0.188628
0.188468
0.18831
0.188152
0.187996
0.187839
0.187684
0.187528
0.187373
0.187218
0.187063
0.186908
0.186753
0.186598
0.186443
0.186287
0.19756
0.197237
0.196919
0.196607
0.1963
0.195998
0.195703
0.195414
0.195131
0.194854
0.194583
0.194319
0.194061
0.193808
0.193562
0.193322
0.193087
0.192858
0.192633
0.192414
0.1922
0.19199
0.191785
0.191584
0.191387
0.191194
0.191004
0.190818
0.190634
0.190454
0.190277
0.190102
0.189929
0.189759
0.18959
0.189424
0.189259
0.189096
0.188934
0.188773
0.188614
0.188455
0.188298
0.188141
0.187985
0.187829
0.187674
0.187519
0.187365
0.18721
0.187056
0.186901
0.186746
0.186592
0.186436
0.186281
0.196977
0.196676
0.196378
0.196086
0.195798
0.195515
0.195238
0.194967
0.194701
0.19444
0.194185
0.193936
0.193692
0.193454
0.193221
0.192993
0.192771
0.192553
0.192339
0.192131
0.191926
0.191726
0.191529
0.191336
0.191147
0.190961
0.190778
0.190597
0.19042
0.190245
0.190073
0.189902
0.189734
0.189567
0.189403
0.189239
0.189078
0.188917
0.188758
0.1886
0.188442
0.188286
0.18813
0.187974
0.187819
0.187665
0.187511
0.187356
0.187202
0.187048
0.186894
0.18674
0.186585
0.18643
0.186275
0.196716
0.19643
0.196148
0.195869
0.195595
0.195325
0.19506
0.194799
0.194544
0.194293
0.194048
0.193808
0.193573
0.193342
0.193117
0.192897
0.192681
0.192469
0.192262
0.192059
0.191859
0.191664
0.191472
0.191283
0.191098
0.190915
0.190736
0.190559
0.190384
0.190212
0.190042
0.189874
0.189708
0.189544
0.189381
0.189219
0.189059
0.1889
0.188742
0.188585
0.188429
0.188273
0.188118
0.187964
0.187809
0.187656
0.187502
0.187348
0.187195
0.187041
0.186887
0.186733
0.186579
0.186424
0.186269
0.196453
0.196182
0.195914
0.195649
0.195388
0.195131
0.194877
0.194628
0.194383
0.194143
0.193907
0.193676
0.193449
0.193227
0.19301
0.192797
0.192588
0.192382
0.192181
0.191984
0.19179
0.1916
0.191412
0.191228
0.191047
0.190868
0.190692
0.190519
0.190347
0.190178
0.190011
0.189845
0.189682
0.189519
0.189358
0.189199
0.18904
0.188883
0.188726
0.18857
0.188415
0.18826
0.188106
0.187953
0.187799
0.187646
0.187493
0.18734
0.187187
0.187034
0.186881
0.186727
0.186573
0.186419
0.186264
0.196187
0.195931
0.195677
0.195426
0.195177
0.194932
0.194691
0.194453
0.194218
0.193988
0.193762
0.19354
0.193323
0.193109
0.192899
0.192693
0.192491
0.192293
0.192098
0.191907
0.191718
0.191533
0.19135
0.191171
0.190994
0.190819
0.190647
0.190477
0.190309
0.190143
0.189978
0.189815
0.189654
0.189494
0.189335
0.189177
0.18902
0.188864
0.188709
0.188555
0.188401
0.188247
0.188094
0.187942
0.187789
0.187637
0.187484
0.187332
0.187179
0.187027
0.186874
0.186721
0.186567
0.186413
0.186258
0.186103
0.195917
0.195676
0.195436
0.195198
0.194963
0.19473
0.1945
0.194273
0.19405
0.19383
0.193614
0.193401
0.193192
0.192987
0.192785
0.192587
0.192392
0.192201
0.192012
0.191827
0.191644
0.191464
0.191287
0.191112
0.190939
0.190769
0.1906
0.190434
0.190269
0.190106
0.189944
0.189784
0.189625
0.189467
0.189311
0.189155
0.189
0.188846
0.188692
0.188539
0.188386
0.188234
0.188082
0.18793
0.187778
0.187627
0.187475
0.187324
0.187172
0.18702
0.186867
0.186714
0.186561
0.186407
0.186253
0.186098
0.195416
0.195191
0.194966
0.194743
0.194523
0.194305
0.194089
0.193877
0.193667
0.193461
0.193258
0.193058
0.192861
0.192668
0.192477
0.19229
0.192105
0.191923
0.191744
0.191567
0.191393
0.19122
0.19105
0.190882
0.190716
0.190552
0.190389
0.190228
0.190068
0.189909
0.189752
0.189596
0.18944
0.189286
0.189132
0.188979
0.188826
0.188674
0.188522
0.188371
0.18822
0.188069
0.187918
0.187768
0.187617
0.187466
0.187315
0.187164
0.187012
0.18686
0.186708
0.186555
0.186401
0.186247
0.186093
0.195152
0.194941
0.19473
0.19452
0.194312
0.194105
0.193901
0.1937
0.193501
0.193305
0.193111
0.19292
0.192733
0.192547
0.192365
0.192185
0.192007
0.191832
0.191659
0.191488
0.191319
0.191152
0.190987
0.190824
0.190662
0.190502
0.190343
0.190185
0.190029
0.189873
0.189719
0.189565
0.189412
0.18926
0.189108
0.188957
0.188806
0.188656
0.188505
0.188355
0.188206
0.188056
0.187906
0.187756
0.187607
0.187457
0.187306
0.187156
0.187005
0.186853
0.186701
0.186549
0.186396
0.186242
0.186087
0.194878
0.194681
0.194484
0.194287
0.194092
0.193898
0.193706
0.193516
0.193328
0.193142
0.192958
0.192777
0.192598
0.192422
0.192247
0.192075
0.191905
0.191737
0.19157
0.191406
0.191243
0.191081
0.190921
0.190763
0.190606
0.19045
0.190295
0.190141
0.189988
0.189835
0.189684
0.189533
0.189383
0.189233
0.189083
0.188934
0.188785
0.188636
0.188488
0.188339
0.188191
0.188042
0.187894
0.187745
0.187596
0.187447
0.187297
0.187147
0.186997
0.186846
0.186695
0.186543
0.18639
0.186236
0.186082
0.194604
0.194421
0.194237
0.194054
0.193871
0.19369
0.193509
0.19333
0.193153
0.192978
0.192804
0.192632
0.192463
0.192295
0.192129
0.191964
0.191802
0.19164
0.19148
0.191322
0.191165
0.191009
0.190854
0.190701
0.190548
0.190396
0.190246
0.190095
0.189946
0.189797
0.189648
0.1895
0.189353
0.189205
0.189058
0.188911
0.188764
0.188617
0.18847
0.188323
0.188175
0.188028
0.187881
0.187733
0.187585
0.187437
0.187288
0.187139
0.186989
0.186839
0.186688
0.186536
0.186384
0.186231
0.186077
0.194173
0.194003
0.193832
0.193661
0.193491
0.193321
0.193153
0.192986
0.19282
0.192656
0.192494
0.192333
0.192173
0.192015
0.191858
0.191702
0.191547
0.191394
0.191241
0.19109
0.190939
0.19079
0.190641
0.190492
0.190345
0.190198
0.190051
0.189905
0.189759
0.189614
0.189468
0.189323
0.189178
0.189033
0.188888
0.188742
0.188597
0.188452
0.188306
0.18816
0.188014
0.187868
0.187721
0.187574
0.187427
0.187279
0.18713
0.186981
0.186832
0.186681
0.18653
0.186378
0.186225
0.186071
0.19378
0.19362
0.19346
0.193301
0.193142
0.192983
0.192826
0.19267
0.192515
0.192361
0.192208
0.192056
0.191905
0.191755
0.191606
0.191457
0.19131
0.191163
0.191017
0.190872
0.190727
0.190582
0.190438
0.190295
0.190151
0.190008
0.189865
0.189723
0.18958
0.189437
0.189294
0.189151
0.189008
0.188865
0.188722
0.188578
0.188434
0.18829
0.188145
0.188
0.187855
0.18771
0.187563
0.187417
0.18727
0.187122
0.186974
0.186825
0.186675
0.186524
0.186372
0.18622
0.186066
0.193567
0.193418
0.193269
0.19312
0.19297
0.192821
0.192673
0.192526
0.192379
0.192233
0.192088
0.191943
0.191799
0.191656
0.191513
0.191371
0.191229
0.191088
0.190947
0.190806
0.190666
0.190526
0.190386
0.190246
0.190106
0.189967
0.189827
0.189687
0.189547
0.189407
0.189266
0.189125
0.188984
0.188843
0.188701
0.188559
0.188417
0.188274
0.18813
0.187987
0.187843
0.187698
0.187553
0.187407
0.187261
0.187114
0.186966
0.186817
0.186668
0.186518
0.186367
0.186214
0.186061
0.193364
0.193226
0.193086
0.192946
0.192806
0.192666
0.192527
0.192387
0.192249
0.19211
0.191972
0.191835
0.191698
0.191561
0.191424
0.191287
0.191151
0.191015
0.190879
0.190743
0.190607
0.190471
0.190335
0.190199
0.190062
0.189926
0.189789
0.189652
0.189514
0.189377
0.189238
0.1891
0.188961
0.188821
0.188681
0.18854
0.188399
0.188258
0.188116
0.187973
0.18783
0.187687
0.187542
0.187397
0.187252
0.187105
0.186958
0.18681
0.186662
0.186512
0.186361
0.186209
0.186056
0.193171
0.193042
0.192912
0.192781
0.192649
0.192518
0.192386
0.192255
0.192124
0.191993
0.191862
0.191731
0.1916
0.191469
0.191338
0.191207
0.191075
0.190944
0.190813
0.190681
0.19055
0.190418
0.190285
0.190153
0.19002
0.189886
0.189752
0.189618
0.189483
0.189347
0.189211
0.189075
0.188937
0.1888
0.188661
0.188522
0.188382
0.188242
0.188101
0.18796
0.187818
0.187675
0.187532
0.187388
0.187243
0.187097
0.186951
0.186803
0.186655
0.186506
0.186355
0.186204
0.186051
0.192986
0.192866
0.192745
0.192622
0.192499
0.192375
0.192251
0.192128
0.192004
0.191879
0.191755
0.19163
0.191505
0.19138
0.191255
0.191129
0.191002
0.190876
0.190749
0.190622
0.190494
0.190366
0.190237
0.190108
0.189978
0.189847
0.189716
0.189584
0.189452
0.189319
0.189185
0.18905
0.188915
0.188778
0.188641
0.188504
0.188365
0.188227
0.188087
0.187947
0.187806
0.187664
0.187521
0.187378
0.187234
0.187089
0.186943
0.186796
0.186649
0.1865
0.18635
0.186198
0.186046
0.192809
0.192698
0.192584
0.19247
0.192354
0.192238
0.192122
0.192005
0.191888
0.19177
0.191652
0.191533
0.191414
0.191294
0.191174
0.191053
0.190932
0.19081
0.190687
0.190564
0.19044
0.190315
0.19019
0.190064
0.189937
0.18981
0.189681
0.189552
0.189422
0.18929
0.189159
0.189026
0.188892
0.188757
0.188622
0.188486
0.188349
0.188211
0.188073
0.187933
0.187793
0.187653
0.187511
0.187369
0.187225
0.187081
0.186936
0.186789
0.186642
0.186494
0.186344
0.186193
0.186041
0.192639
0.192535
0.19243
0.192323
0.192215
0.192107
0.191997
0.191887
0.191776
0.191665
0.191553
0.19144
0.191326
0.191211
0.191096
0.19098
0.190863
0.190745
0.190627
0.190508
0.190387
0.190266
0.190144
0.190021
0.189897
0.189773
0.189647
0.18952
0.189392
0.189263
0.189133
0.189002
0.18887
0.188737
0.188603
0.188468
0.188332
0.188196
0.188058
0.18792
0.187781
0.187641
0.187501
0.187359
0.187216
0.187073
0.186928
0.186782
0.186636
0.186488
0.186338
0.186188
0.186036
0.192475
0.192379
0.192281
0.192182
0.192081
0.191979
0.191876
0.191773
0.191668
0.191563
0.191456
0.191349
0.19124
0.191131
0.19102
0.190909
0.190796
0.190683
0.190568
0.190452
0.190336
0.190218
0.190099
0.189979
0.189858
0.189736
0.189613
0.189488
0.189362
0.189235
0.189107
0.188978
0.188848
0.188716
0.188584
0.18845
0.188316
0.188181
0.188044
0.187907
0.187769
0.18763
0.18749
0.187349
0.187208
0.187065
0.186921
0.186775
0.186629
0.186482
0.186333
0.186183
0.186031
0.192316
0.192228
0.192137
0.192045
0.191951
0.191856
0.19176
0.191662
0.191564
0.191464
0.191363
0.19126
0.191157
0.191052
0.190946
0.190839
0.190731
0.190621
0.190511
0.190399
0.190286
0.190171
0.190056
0.189939
0.18982
0.1897
0.189579
0.189457
0.189333
0.189208
0.189082
0.188955
0.188826
0.188696
0.188565
0.188433
0.1883
0.188166
0.188031
0.187894
0.187757
0.187619
0.18748
0.18734
0.187199
0.187057
0.186913
0.186769
0.186623
0.186476
0.186327
0.186178
0.186027
0.192156
0.192075
0.191992
0.191906
0.191819
0.191731
0.191641
0.19155
0.191457
0.191363
0.191267
0.19117
0.191072
0.190972
0.190871
0.190768
0.190664
0.190559
0.190452
0.190344
0.190234
0.190123
0.19001
0.189896
0.18978
0.189663
0.189545
0.189425
0.189303
0.18918
0.189056
0.18893
0.188803
0.188675
0.188545
0.188415
0.188283
0.18815
0.188016
0.187881
0.187745
0.187608
0.187469
0.18733
0.18719
0.187048
0.186905
0.186761
0.186616
0.18647
0.186322
0.186172
0.186022
0.19199
0.191916
0.19184
0.191762
0.191682
0.191601
0.191518
0.191433
0.191346
0.191258
0.191168
0.191076
0.190983
0.190888
0.190792
0.190694
0.190594
0.190493
0.19039
0.190286
0.19018
0.190072
0.189962
0.189851
0.189739
0.189624
0.189508
0.189391
0.189271
0.189151
0.189028
0.188904
0.188779
0.188652
0.188524
0.188395
0.188265
0.188133
0.188
0.187866
0.187731
0.187595
0.187458
0.18732
0.18718
0.187039
0.186897
0.186754
0.186609
0.186463
0.186316
0.186167
0.186017
0.191821
0.191755
0.191687
0.191617
0.191544
0.191469
0.191393
0.191314
0.191234
0.191152
0.191067
0.190981
0.190893
0.190804
0.190712
0.190619
0.190524
0.190427
0.190328
0.190227
0.190125
0.19002
0.189914
0.189806
0.189697
0.189585
0.189471
0.189356
0.189239
0.18912
0.189
0.188878
0.188755
0.18863
0.188503
0.188375
0.188246
0.188116
0.187985
0.187852
0.187718
0.187583
0.187447
0.187309
0.18717
0.18703
0.186889
0.186746
0.186602
0.186456
0.186309
0.186161
0.186011
0.191649
0.191592
0.191531
0.191468
0.191403
0.191336
0.191266
0.191194
0.19112
0.191044
0.190965
0.190885
0.190802
0.190718
0.190631
0.190543
0.190452
0.190359
0.190265
0.190168
0.190069
0.189968
0.189865
0.189761
0.189654
0.189545
0.189434
0.189321
0.189207
0.18909
0.188972
0.188851
0.18873
0.188606
0.188482
0.188356
0.188228
0.188099
0.187969
0.187837
0.187704
0.18757
0.187435
0.187298
0.18716
0.187021
0.18688
0.186738
0.186595
0.18645
0.186303
0.186156
0.186006
0.191474
0.191425
0.191373
0.191318
0.19126
0.1912
0.191137
0.191072
0.191004
0.190934
0.190862
0.190787
0.19071
0.190631
0.19055
0.190466
0.19038
0.190291
0.190201
0.190108
0.190013
0.189916
0.189816
0.189714
0.18961
0.189504
0.189396
0.189286
0.189173
0.189059
0.188943
0.188825
0.188705
0.188583
0.18846
0.188335
0.188209
0.188082
0.187953
0.187822
0.187691
0.187558
0.187423
0.187287
0.18715
0.187012
0.186872
0.18673
0.186587
0.186443
0.186297
0.18615
0.186001
0.191296
0.191255
0.191212
0.191165
0.191115
0.191062
0.191007
0.190948
0.190887
0.190824
0.190758
0.190689
0.190617
0.190543
0.190467
0.190388
0.190307
0.190223
0.190136
0.190047
0.189956
0.189862
0.189766
0.189668
0.189567
0.189464
0.189358
0.18925
0.18914
0.189028
0.188914
0.188798
0.18868
0.18856
0.188438
0.188315
0.188191
0.188064
0.187937
0.187808
0.187677
0.187545
0.187411
0.187277
0.18714
0.187002
0.186863
0.186722
0.18658
0.186436
0.186291
0.186144
0.185996
0.191115
0.191083
0.191048
0.191009
0.190967
0.190922
0.190874
0.190823
0.190769
0.190712
0.190652
0.190589
0.190523
0.190455
0.190383
0.190309
0.190233
0.190153
0.190071
0.189986
0.189899
0.189809
0.189716
0.189621
0.189523
0.189422
0.18932
0.189214
0.189107
0.188997
0.188884
0.18877
0.188654
0.188536
0.188416
0.188295
0.188172
0.188047
0.187921
0.187793
0.187663
0.187532
0.1874
0.187266
0.18713
0.186993
0.186855
0.186715
0.186573
0.18643
0.186285
0.186139
0.185991
0.190931
0.190909
0.190882
0.190852
0.190818
0.190781
0.19074
0.190696
0.190649
0.190599
0.190545
0.190488
0.190428
0.190365
0.190299
0.19023
0.190158
0.190084
0.190006
0.189925
0.189841
0.189755
0.189666
0.189574
0.189479
0.189381
0.189281
0.189178
0.189073
0.188965
0.188855
0.188743
0.188629
0.188513
0.188395
0.188275
0.188153
0.18803
0.187905
0.187778
0.18765
0.18752
0.187388
0.187255
0.18712
0.186984
0.186846
0.186707
0.186566
0.186423
0.186279
0.186134
0.185986
0.190745
0.190731
0.190714
0.190692
0.190667
0.190638
0.190605
0.190568
0.190528
0.190484
0.190437
0.190387
0.190333
0.190275
0.190215
0.190151
0.190084
0.190013
0.18994
0.189863
0.189784
0.189701
0.189615
0.189526
0.189434
0.18934
0.189242
0.189142
0.189039
0.188934
0.188826
0.188716
0.188603
0.188489
0.188373
0.188254
0.188134
0.188012
0.187889
0.187763
0.187636
0.187507
0.187376
0.187244
0.18711
0.186975
0.186838
0.186699
0.186559
0.186417
0.186273
0.186128
0.185981
0.190555
0.190552
0.190543
0.190531
0.190514
0.190493
0.190468
0.190439
0.190406
0.190369
0.190329
0.190284
0.190236
0.190185
0.19013
0.190071
0.190009
0.189943
0.189874
0.189802
0.189726
0.189647
0.189564
0.189479
0.18939
0.189298
0.189203
0.189106
0.189005
0.188902
0.188797
0.188689
0.188578
0.188466
0.188351
0.188234
0.188116
0.187995
0.187873
0.187748
0.187622
0.187495
0.187365
0.187234
0.187101
0.186966
0.18683
0.186692
0.186552
0.186411
0.186268
0.186123
0.185977
0.190363
0.190369
0.190371
0.190367
0.19036
0.190347
0.19033
0.190309
0.190283
0.190253
0.190219
0.190181
0.190139
0.190094
0.190044
0.189991
0.189933
0.189872
0.189808
0.189739
0.189668
0.189592
0.189513
0.189431
0.189346
0.189257
0.189165
0.18907
0.188972
0.188871
0.188767
0.188662
0.188553
0.188442
0.18833
0.188214
0.188097
0.187978
0.187857
0.187734
0.187609
0.187482
0.187354
0.187223
0.187091
0.186957
0.186822
0.186684
0.186545
0.186405
0.186262
0.186118
0.185972
0.190176
0.190192
0.190202
0.190208
0.190209
0.190205
0.190196
0.190182
0.190163
0.19014
0.190113
0.190081
0.190045
0.190005
0.189961
0.189912
0.18986
0.189804
0.189743
0.189679
0.189611
0.189539
0.189464
0.189385
0.189302
0.189216
0.189127
0.189035
0.188939
0.18884
0.188739
0.188635
0.188529
0.18842
0.188309
0.188195
0.18808
0.187962
0.187842
0.18772
0.187596
0.18747
0.187343
0.187213
0.187082
0.186949
0.186814
0.186677
0.186539
0.186399
0.186257
0.186113
0.185968
0.189988
0.190014
0.190034
0.190049
0.190058
0.190063
0.190061
0.190055
0.190044
0.190028
0.190007
0.189982
0.189952
0.189917
0.189878
0.189835
0.189787
0.189736
0.18968
0.18962
0.189555
0.189487
0.189415
0.189339
0.18926
0.189177
0.18909
0.189
0.188907
0.188811
0.188712
0.18861
0.188505
0.188398
0.188288
0.188176
0.188062
0.187946
0.187827
0.187707
0.187584
0.187459
0.187332
0.187204
0.187073
0.186941
0.186807
0.186671
0.186533
0.186393
0.186252
0.186109
0.185964
0.189787
0.189823
0.189854
0.189879
0.189898
0.189911
0.189919
0.189921
0.189917
0.189909
0.189895
0.189877
0.189853
0.189825
0.189792
0.189754
0.189711
0.189665
0.189613
0.189557
0.189497
0.189433
0.189365
0.189292
0.189216
0.189136
0.189052
0.188965
0.188874
0.18878
0.188683
0.188584
0.188481
0.188376
0.188268
0.188158
0.188045
0.18793
0.187813
0.187693
0.187571
0.187448
0.187322
0.187194
0.187065
0.186933
0.1868
0.186664
0.186527
0.186388
0.186247
0.186105
0.185961
0.189569
0.189617
0.18966
0.189696
0.189725
0.189749
0.189766
0.189777
0.189783
0.189782
0.189777
0.189765
0.189749
0.189727
0.1897
0.189669
0.189632
0.18959
0.189544
0.189493
0.189437
0.189377
0.189312
0.189244
0.189171
0.189094
0.189013
0.188928
0.18884
0.188749
0.188655
0.188557
0.188457
0.188353
0.188247
0.188139
0.188028
0.187914
0.187798
0.18768
0.187559
0.187437
0.187312
0.187185
0.187056
0.186925
0.186793
0.186658
0.186521
0.186383
0.186243
0.186101
0.185958
0.189335
0.189397
0.189452
0.189501
0.189542
0.189576
0.189604
0.189626
0.189641
0.189649
0.189652
0.189649
0.18964
0.189626
0.189606
0.18958
0.189549
0.189513
0.189472
0.189426
0.189375
0.189319
0.189259
0.189194
0.189125
0.189051
0.188974
0.188892
0.188807
0.188718
0.188626
0.188531
0.188433
0.188331
0.188227
0.18812
0.188011
0.187899
0.187784
0.187667
0.187548
0.187426
0.187302
0.187177
0.187049
0.186918
0.186786
0.186652
0.186517
0.186379
0.186239
0.186098
0.185955
0.189086
0.189163
0.189233
0.189294
0.189349
0.189395
0.189435
0.189467
0.189492
0.189511
0.189523
0.189529
0.189528
0.189521
0.189508
0.18949
0.189465
0.189435
0.1894
0.189359
0.189313
0.189262
0.189206
0.189145
0.189079
0.189009
0.188935
0.188857
0.188774
0.188688
0.188599
0.188506
0.18841
0.18831
0.188208
0.188103
0.187995
0.187884
0.187771
0.187655
0.187537
0.187417
0.187294
0.187169
0.187042
0.186912
0.186781
0.186648
0.186512
0.186375
0.186236
0.186095
0.185953
0.188818
0.188912
0.188997
0.189074
0.189142
0.189203
0.189255
0.1893
0.189336
0.189366
0.189388
0.189403
0.189412
0.189413
0.189408
0.189397
0.189379
0.189356
0.189326
0.189291
0.18925
0.189204
0.189152
0.189096
0.189034
0.188968
0.188897
0.188822
0.188743
0.188659
0.188572
0.188482
0.188388
0.188291
0.18819
0.188087
0.18798
0.187871
0.187759
0.187645
0.187528
0.187408
0.187286
0.187162
0.187036
0.186907
0.186777
0.186644
0.186509
0.186372
0.186234
0.186093
0.185951
0.188526
0.188639
0.188743
0.188837
0.188921
0.188997
0.189064
0.189122
0.189171
0.189213
0.189246
0.189272
0.18929
0.189301
0.189304
0.189301
0.189291
0.189274
0.189251
0.189222
0.189186
0.189145
0.189099
0.189047
0.188989
0.188927
0.188859
0.188788
0.188711
0.188631
0.188547
0.188459
0.188367
0.188272
0.188173
0.188072
0.187967
0.187859
0.187749
0.187635
0.187519
0.187401
0.18728
0.187157
0.187031
0.186903
0.186773
0.186641
0.186506
0.18637
0.186232
0.186092
0.18595
0.188261
0.188393
0.188513
0.188623
0.188723
0.188813
0.188893
0.188964
0.189025
0.189077
0.189121
0.189156
0.189183
0.189202
0.189213
0.189217
0.189214
0.189203
0.189186
0.189162
0.189132
0.189095
0.189053
0.189005
0.188951
0.188892
0.188828
0.188759
0.188685
0.188607
0.188525
0.188439
0.188349
0.188256
0.188159
0.188059
0.187955
0.187849
0.187739
0.187627
0.187512
0.187394
0.187274
0.187151
0.187026
0.186899
0.186769
0.186638
0.186504
0.186368
0.18623
0.186091
0.185949
0.188057
0.188202
0.188337
0.188459
0.188571
0.188672
0.188763
0.188843
0.188914
0.188975
0.189026
0.189069
0.189103
0.189128
0.189145
0.189155
0.189156
0.189151
0.189138
0.189118
0.189091
0.189058
0.189019
0.188974
0.188923
0.188866
0.188804
0.188738
0.188666
0.18859
0.18851
0.188425
0.188337
0.188245
0.188149
0.18805
0.187947
0.187842
0.187733
0.187622
0.187507
0.18739
0.18727
0.187148
0.187024
0.186897
0.186767
0.186636
0.186502
0.186367
0.186229
0.18609
0.185949
0.187884
0.188042
0.188188
0.188322
0.188444
0.188554
0.188654
0.188743
0.188821
0.18889
0.188948
0.188997
0.189037
0.189067
0.18909
0.189104
0.18911
0.189108
0.189099
0.189082
0.189059
0.189029
0.188992
0.18895
0.188901
0.188846
0.188786
0.188721
0.188652
0.188577
0.188498
0.188415
0.188327
0.188236
0.188142
0.188043
0.187942
0.187837
0.187729
0.187618
0.187504
0.187387
0.187268
0.187146
0.187022
0.186895
0.186766
0.186635
0.186501
0.186366
0.186229
0.186089
0.185948
0.185805
0.187735
0.187905
0.188061
0.188205
0.188336
0.188455
0.188563
0.188659
0.188744
0.188819
0.188883
0.188937
0.188982
0.189017
0.189044
0.189062
0.189072
0.189073
0.189067
0.189054
0.189033
0.189005
0.188971
0.18893
0.188883
0.188831
0.188772
0.188709
0.18864
0.188567
0.188489
0.188407
0.18832
0.18823
0.188136
0.188038
0.187937
0.187833
0.187725
0.187615
0.187501
0.187385
0.187266
0.187144
0.18702
0.186894
0.186765
0.186634
0.186501
0.186366
0.186228
0.186089
0.185948
0.185805
0.187608
0.187787
0.187952
0.188105
0.188244
0.18837
0.188485
0.188588
0.188679
0.188759
0.188828
0.188887
0.188936
0.188976
0.189006
0.189028
0.18904
0.189045
0.189042
0.189031
0.189012
0.188986
0.188954
0.188915
0.18887
0.188818
0.188761
0.188699
0.188631
0.188559
0.188482
0.188401
0.188315
0.188225
0.188132
0.188035
0.187934
0.18783
0.187723
0.187613
0.1875
0.187384
0.187265
0.187143
0.18702
0.186893
0.186765
0.186634
0.1865
0.186365
0.186228
0.186089
0.185948
0.185805
0.187496
0.187684
0.187858
0.188018
0.188164
0.188298
0.188418
0.188527
0.188623
0.188708
0.188782
0.188845
0.188898
0.188941
0.188975
0.188999
0.189015
0.189022
0.189021
0.189012
0.188995
0.188971
0.18894
0.188903
0.188859
0.188808
0.188753
0.188691
0.188625
0.188553
0.188477
0.188396
0.188311
0.188222
0.188129
0.188032
0.187932
0.187828
0.187721
0.187611
0.187498
0.187383
0.187264
0.187143
0.187019
0.186893
0.186764
0.186633
0.1865
0.186365
0.186228
0.186089
0.185947
0.185805
0.187398
0.187594
0.187775
0.187942
0.188095
0.188234
0.188361
0.188474
0.188575
0.188665
0.188743
0.188809
0.188866
0.188912
0.188948
0.188975
0.188993
0.189002
0.189003
0.188996
0.188981
0.188959
0.188929
0.188893
0.18885
0.188801
0.188746
0.188685
0.188619
0.188548
0.188473
0.188392
0.188308
0.188219
0.188127
0.18803
0.18793
0.187827
0.18772
0.18761
0.187498
0.187382
0.187264
0.187142
0.187019
0.186892
0.186764
0.186633
0.1865
0.186365
0.186227
0.186088
0.185947
0.185804
0.18731
0.187514
0.187702
0.187875
0.188034
0.188179
0.18831
0.188428
0.188533
0.188627
0.188708
0.188778
0.188838
0.188886
0.188925
0.188955
0.188975
0.188986
0.188989
0.188983
0.188969
0.188948
0.18892
0.188885
0.188843
0.188794
0.18874
0.18868
0.188615
0.188545
0.188469
0.18839
0.188305
0.188217
0.188125
0.188029
0.187929
0.187826
0.187719
0.18761
0.187497
0.187381
0.187263
0.187142
0.187018
0.186892
0.186763
0.186632
0.186499
0.186364
0.186227
0.186088
0.185946
0.185804
0.187232
0.187442
0.187636
0.187815
0.18798
0.188129
0.188265
0.188387
0.188497
0.188594
0.188678
0.188751
0.188813
0.188865
0.188906
0.188938
0.188959
0.188972
0.188976
0.188972
0.18896
0.18894
0.188913
0.188878
0.188837
0.188789
0.188736
0.188677
0.188612
0.188542
0.188467
0.188388
0.188304
0.188216
0.188124
0.188028
0.187928
0.187825
0.187719
0.187609
0.187497
0.187381
0.187263
0.187142
0.187018
0.186892
0.186763
0.186632
0.186499
0.186364
0.186227
0.186087
0.185946
0.185803
0.187169
0.187385
0.187585
0.187769
0.187938
0.188092
0.188231
0.188357
0.18847
0.188569
0.188657
0.188732
0.188797
0.18885
0.188893
0.188926
0.18895
0.188964
0.188969
0.188966
0.188955
0.188936
0.188909
0.188876
0.188835
0.188788
0.188735
0.188676
0.188612
0.188542
0.188468
0.188389
0.188305
0.188217
0.188125
0.18803
0.18793
0.187827
0.187721
0.187611
0.187499
0.187383
0.187265
0.187144
0.18702
0.186894
0.186765
0.186634
0.186501
0.186366
0.186228
0.186089
0.185948
0.185805
0.187134
0.187354
0.187557
0.187744
0.187915
0.188072
0.188214
0.188342
0.188457
0.188558
0.188647
0.188724
0.18879
0.188845
0.188889
0.188923
0.188947
0.188963
0.188969
0.188966
0.188956
0.188937
0.188911
0.188878
0.188837
0.188791
0.188738
0.188679
0.188615
0.188546
0.188472
0.188393
0.188309
0.188221
0.188129
0.188034
0.187934
0.187832
0.187725
0.187616
0.187503
0.187388
0.187269
0.187148
0.187024
0.186898
0.186769
0.186638
0.186505
0.18637
0.186232
0.186093
0.185952
0.185808
)
;

boundaryField
{
    inlet
    {
        type            zeroGradient;
    }
    outlet
    {
        type            fixedValue;
        value           nonuniform 0();
    }
    upperWall
    {
        type            zeroGradient;
    }
    lowerWall
    {
        type            zeroGradient;
    }
    frontAndBack
    {
        type            empty;
    }
    procBoundary1to0
    {
        type            processor;
        value           nonuniform List<scalar> 
59
(
0.186194
0.186176
0.186162
0.186153
0.186145
0.186138
0.186131
0.186125
0.18612
0.186114
0.186109
0.186109
0.185948
0.185942
0.185937
0.185932
0.185927
0.185922
0.185917
0.185912
0.185907
0.185902
0.185897
0.185892
0.185888
0.185883
0.185879
0.185874
0.18587
0.185865
0.18586
0.185855
0.185851
0.185846
0.185841
0.185837
0.185833
0.185829
0.185825
0.185821
0.185818
0.185815
0.185812
0.18581
0.185808
0.185808
0.185807
0.185806
0.185806
0.185806
0.185661
0.185661
0.18566
0.18566
0.18566
0.185659
0.185658
0.18566
0.185664
)
;
    }
    procBoundary1to3
    {
        type            processor;
        value           nonuniform List<scalar> 
62
(
0.200691
0.200315
0.199909
0.199533
0.199187
0.198855
0.198183
0.198183
0.197886
0.197283
0.197283
0.197005
0.196726
0.196444
0.196158
0.195642
0.195642
0.195364
0.195075
0.194786
0.194343
0.194343
0.193938
0.193938
0.193715
0.193502
0.193298
0.193104
0.192919
0.19274
0.192568
0.192402
0.192235
0.192061
0.191884
0.191704
0.19152
0.191333
0.191143
0.19095
0.190754
0.190555
0.190352
0.190155
0.189957
0.189744
0.189514
0.189266
0.189001
0.188715
0.188403
0.188119
0.187899
0.187712
0.187552
0.187414
0.187293
0.187186
0.187091
0.187005
0.186936
0.186897
)
;
    }
}


// ************************************************************************* //
