/*--------------------------------*- C++ -*----------------------------------*\
  =========                 |
  \\      /  F ield         | OpenFOAM: The Open Source CFD Toolbox
   \\    /   O peration     | Website:  https://openfoam.org
    \\  /    A nd           | Version:  6
     \\/     M anipulation  |
\*---------------------------------------------------------------------------*/
FoamFile
{
    version     2.0;
    format      ascii;
    class       surfaceScalarField;
    location    "0.05";
    object      phi;
}
// * * * * * * * * * * * * * * * * * * * * * * * * * * * * * * * * * * * * * //

dimensions      [0 3 -1 0 0 0 0];

internalField   nonuniform List<scalar> 
6046
(
4.64105e-07
-7.37968e-10
4.64745e-07
-6.40007e-10
4.65294e-07
-5.49282e-10
4.65759e-07
-4.65279e-10
4.66147e-07
-3.87481e-10
4.66462e-07
-3.15415e-10
4.66711e-07
-2.48591e-10
4.66897e-07
-1.8643e-10
4.67025e-07
-1.28235e-10
4.67098e-07
-7.24999e-11
4.67112e-07
-1.46284e-11
4.67068e-07
4.42762e-11
4.66971e-07
9.72534e-11
4.66829e-07
1.42341e-10
4.66648e-07
1.80921e-10
4.66433e-07
2.14494e-10
4.66189e-07
2.44114e-10
4.65918e-07
2.70582e-10
4.65624e-07
2.94513e-10
4.65308e-07
3.16342e-10
4.64971e-07
3.36385e-10
4.64616e-07
3.54873e-10
4.64244e-07
3.71999e-10
4.63856e-07
3.879e-10
4.63454e-07
4.02731e-10
4.63037e-07
4.16574e-10
4.62608e-07
4.29554e-10
4.62166e-07
4.41731e-10
4.61713e-07
4.53194e-10
4.61249e-07
4.63993e-10
4.60774e-07
4.74196e-10
4.60291e-07
4.83843e-10
4.59798e-07
4.92974e-10
4.59296e-07
5.01651e-10
4.58786e-07
5.09892e-10
4.58268e-07
5.17745e-10
4.57743e-07
5.25249e-10
4.57211e-07
5.3242e-10
4.56671e-07
5.39309e-10
4.56125e-07
5.45925e-10
4.55573e-07
5.52312e-10
4.55015e-07
5.58492e-10
4.5445e-07
5.64495e-10
4.5388e-07
5.70337e-10
4.53304e-07
5.76066e-10
4.52722e-07
5.81693e-10
4.52135e-07
5.87248e-10
4.51542e-07
5.92765e-10
4.50944e-07
5.98268e-10
4.5034e-07
6.03791e-10
4.49731e-07
6.09353e-10
4.49116e-07
6.14982e-10
4.48495e-07
6.207e-10
4.47868e-07
6.26536e-10
4.47236e-07
6.32512e-10
4.46597e-07
6.38658e-10
6.4499e-10
4.89977e-07
-1.62921e-09
4.90758e-07
-1.42091e-09
4.91436e-07
-1.22772e-09
4.92019e-07
-1.04858e-09
4.92514e-07
-8.82497e-10
4.92928e-07
-7.28495e-10
4.93265e-07
-5.85666e-10
4.93531e-07
-4.53054e-10
4.93733e-07
-3.29758e-10
4.93875e-07
-2.14753e-10
4.93967e-07
-1.06753e-10
4.94016e-07
-4.20285e-12
4.9402e-07
9.27186e-11
4.9398e-07
1.82351e-10
4.93897e-07
2.64188e-10
4.93773e-07
3.38653e-10
4.9361e-07
4.06429e-10
4.93413e-07
4.68212e-10
4.93183e-07
5.24703e-10
4.92922e-07
5.76517e-10
4.92635e-07
6.24196e-10
4.92321e-07
6.68168e-10
4.91984e-07
7.08849e-10
4.91626e-07
7.46569e-10
4.91247e-07
7.8162e-10
4.90849e-07
8.14275e-10
4.90434e-07
8.44766e-10
4.90002e-07
8.73292e-10
4.89556e-07
9.00037e-10
4.89094e-07
9.25155e-10
4.8862e-07
9.48793e-10
4.88133e-07
9.71082e-10
4.87633e-07
9.92129e-10
4.87123e-07
1.01203e-09
4.86602e-07
1.0309e-09
4.86071e-07
1.04882e-09
4.8553e-07
1.06586e-09
4.84981e-07
1.0821e-09
4.84422e-07
1.09763e-09
4.83856e-07
1.1125e-09
4.83281e-07
1.12678e-09
4.82699e-07
1.14054e-09
4.8211e-07
1.15383e-09
4.81514e-07
1.16672e-09
4.8091e-07
1.17926e-09
4.80301e-07
1.19151e-09
4.79684e-07
1.20353e-09
4.79062e-07
1.21539e-09
4.78433e-07
1.22712e-09
4.77798e-07
1.23881e-09
4.77157e-07
1.25049e-09
4.76509e-07
1.26225e-09
4.75856e-07
1.27411e-09
4.75196e-07
1.28615e-09
4.7453e-07
1.2984e-09
4.73858e-07
1.31093e-09
1.32379e-09
4.98938e-07
-2.59045e-09
4.99784e-07
-2.26656e-09
5.00522e-07
-1.96587e-09
5.0116e-07
-1.68682e-09
5.01706e-07
-1.4279e-09
5.02165e-07
-1.1877e-09
5.02544e-07
-9.64848e-10
5.02849e-07
-7.58063e-10
5.03085e-07
-5.66114e-10
5.03258e-07
-3.87843e-10
5.03374e-07
-2.22082e-10
5.03437e-07
-6.73193e-11
5.03452e-07
7.75176e-11
5.03422e-07
2.12436e-10
5.03349e-07
3.37385e-10
5.03235e-07
4.52671e-10
5.03082e-07
5.58838e-10
5.02894e-07
6.56558e-10
5.02672e-07
7.46527e-10
5.02419e-07
8.2944e-10
5.02138e-07
9.05968e-10
5.01829e-07
9.76711e-10
5.01496e-07
1.04222e-09
5.01139e-07
1.10297e-09
5.00761e-07
1.15944e-09
5.00364e-07
1.21202e-09
4.99947e-07
1.26106e-09
4.99514e-07
1.3069e-09
4.99064e-07
1.34983e-09
4.98599e-07
1.3901e-09
4.9812e-07
1.42795e-09
4.97627e-07
1.46358e-09
4.97122e-07
1.4972e-09
4.96605e-07
1.52895e-09
4.96077e-07
1.55901e-09
4.95539e-07
1.58752e-09
4.9499e-07
1.61461e-09
4.94432e-07
1.64039e-09
4.93864e-07
1.665e-09
4.93288e-07
1.68855e-09
4.92704e-07
1.71113e-09
4.92111e-07
1.73283e-09
4.91512e-07
1.75378e-09
4.90904e-07
1.77405e-09
4.9029e-07
1.79373e-09
4.89668e-07
1.81292e-09
4.8904e-07
1.8317e-09
4.88405e-07
1.85017e-09
4.87764e-07
1.86841e-09
4.87116e-07
1.88651e-09
4.86462e-07
1.90456e-09
4.85802e-07
1.92264e-09
4.85135e-07
1.94084e-09
4.84462e-07
1.95924e-09
4.83783e-07
1.97793e-09
4.83096e-07
1.99698e-09
2.01648e-09
5.0415e-07
-3.59048e-09
5.05032e-07
-3.14828e-09
5.05804e-07
-2.73748e-09
5.06473e-07
-2.35597e-09
5.07047e-07
-2.00178e-09
5.07532e-07
-1.67304e-09
5.07935e-07
-1.36795e-09
5.08262e-07
-1.08486e-09
5.08518e-07
-8.22157e-10
5.08709e-07
-5.78384e-10
5.08839e-07
-3.5212e-10
5.08913e-07
-1.41786e-10
5.08937e-07
5.40405e-11
5.08913e-07
2.3625e-10
5.08845e-07
4.05417e-10
5.08735e-07
5.62176e-10
5.08587e-07
7.07219e-10
5.08402e-07
8.41305e-10
5.08183e-07
9.65243e-10
5.07933e-07
1.07982e-09
5.07653e-07
1.18581e-09
5.07346e-07
1.28396e-09
5.07013e-07
1.37496e-09
5.06657e-07
1.45942e-09
5.06278e-07
1.53793e-09
5.05879e-07
1.61105e-09
5.05461e-07
1.67924e-09
5.05025e-07
1.74294e-09
5.04572e-07
1.80257e-09
5.04104e-07
1.85846e-09
5.03621e-07
1.91095e-09
5.03124e-07
1.96035e-09
5.02615e-07
2.00689e-09
5.02093e-07
2.05085e-09
5.01559e-07
2.09242e-09
5.01015e-07
2.13183e-09
5.0046e-07
2.16924e-09
4.99896e-07
2.20484e-09
4.99322e-07
2.23879e-09
4.98739e-07
2.27125e-09
4.98148e-07
2.30235e-09
4.97549e-07
2.33224e-09
4.96941e-07
2.36105e-09
4.96327e-07
2.3889e-09
4.95704e-07
2.41592e-09
4.95075e-07
2.44224e-09
4.94439e-07
2.46797e-09
4.93796e-07
2.49322e-09
4.93146e-07
2.51812e-09
4.9249e-07
2.54279e-09
4.91827e-07
2.56733e-09
4.91158e-07
2.59187e-09
4.90482e-07
2.61652e-09
4.898e-07
2.64139e-09
4.89111e-07
2.66659e-09
4.88416e-07
2.69223e-09
2.71841e-09
5.07875e-07
-4.60838e-09
5.08773e-07
-4.04685e-09
5.0956e-07
-3.52486e-09
5.10244e-07
-3.03984e-09
5.10832e-07
-2.58932e-09
5.1133e-07
-2.17097e-09
5.11744e-07
-1.7826e-09
5.12082e-07
-1.42213e-09
5.12347e-07
-1.0876e-09
5.12546e-07
-7.77206e-10
5.12683e-07
-4.89181e-10
5.12763e-07
-2.2178e-10
5.1279e-07
2.66773e-11
5.12769e-07
2.57548e-10
5.12703e-07
4.71926e-10
5.12594e-07
6.70817e-10
5.12446e-07
8.55187e-10
5.12261e-07
1.026e-09
5.12042e-07
1.1842e-09
5.11791e-07
1.33074e-09
5.11511e-07
1.46652e-09
5.11202e-07
1.59241e-09
5.10868e-07
1.70922e-09
5.1051e-07
1.81774e-09
5.10129e-07
1.91866e-09
5.09727e-07
2.01264e-09
5.09306e-07
2.1003e-09
5.08867e-07
2.18219e-09
5.08411e-07
2.2588e-09
5.07939e-07
2.33059e-09
5.07452e-07
2.398e-09
5.06951e-07
2.46139e-09
5.06436e-07
2.52111e-09
5.0591e-07
2.57746e-09
5.05371e-07
2.63075e-09
5.04822e-07
2.68123e-09
5.04262e-07
2.72914e-09
5.03692e-07
2.77471e-09
5.03113e-07
2.81816e-09
5.02525e-07
2.85968e-09
5.01927e-07
2.89945e-09
5.01322e-07
2.93765e-09
5.00709e-07
2.97445e-09
5.00087e-07
3.01002e-09
4.99459e-07
3.04451e-09
4.98823e-07
3.07807e-09
4.9818e-07
3.11085e-09
4.9753e-07
3.14301e-09
4.96874e-07
3.17467e-09
4.96211e-07
3.20601e-09
4.95541e-07
3.23714e-09
4.94864e-07
3.26822e-09
4.94182e-07
3.29939e-09
4.93492e-07
3.33078e-09
4.92796e-07
3.36254e-09
4.92094e-07
3.39479e-09
3.42768e-09
5.10837e-07
5.11736e-07
-4.94595e-09
5.12524e-07
-4.31304e-09
5.13209e-07
-3.72466e-09
5.13798e-07
-3.17787e-09
5.14297e-07
-2.66991e-09
5.14712e-07
-2.19817e-09
5.1505e-07
-1.76017e-09
5.15316e-07
-1.35361e-09
5.15515e-07
-9.76296e-10
5.15652e-07
-6.26158e-10
5.15732e-07
-3.01182e-10
5.15758e-07
5.34268e-13
5.15735e-07
2.80702e-10
5.15666e-07
5.40804e-10
5.15554e-07
7.82195e-10
5.15403e-07
1.00613e-09
5.15216e-07
1.21382e-09
5.14993e-07
1.40639e-09
5.14739e-07
1.58498e-09
5.14455e-07
1.75062e-09
5.14143e-07
1.90435e-09
5.13805e-07
2.0471e-09
5.13443e-07
2.17978e-09
5.13059e-07
2.30323e-09
5.12653e-07
2.41823e-09
5.12228e-07
2.5255e-09
5.11784e-07
2.62569e-09
5.11324e-07
2.71943e-09
5.10847e-07
2.80725e-09
5.10355e-07
2.88968e-09
5.0985e-07
2.96719e-09
5.09331e-07
3.04017e-09
5.08799e-07
3.10904e-09
5.08256e-07
3.17414e-09
5.07701e-07
3.23579e-09
5.07136e-07
3.29429e-09
5.06561e-07
3.34992e-09
5.05976e-07
3.40294e-09
5.05382e-07
3.4536e-09
5.04779e-07
3.50212e-09
5.04168e-07
3.54872e-09
5.03549e-07
3.59359e-09
5.02922e-07
3.63695e-09
5.02288e-07
3.67898e-09
5.01646e-07
3.71985e-09
5.00997e-07
3.75977e-09
5.00341e-07
3.79889e-09
4.99678e-07
3.83738e-09
4.99009e-07
3.87544e-09
4.98333e-07
3.91322e-09
4.9765e-07
3.95089e-09
4.96961e-07
3.98861e-09
4.96265e-07
4.02656e-09
4.95563e-07
4.06488e-09
4.94854e-07
4.10375e-09
4.14332e-09
5.14252e-07
-5.83061e-09
5.15028e-07
-5.08821e-09
5.15701e-07
-4.39771e-09
5.16279e-07
-3.75573e-09
5.16768e-07
-3.15909e-09
5.17174e-07
-2.60477e-09
5.17504e-07
-2.08994e-09
5.17762e-07
-1.61189e-09
5.17954e-07
-1.16812e-09
5.18084e-07
-7.56214e-10
5.18157e-07
-3.73907e-10
5.18177e-07
-1.90242e-11
5.18147e-07
3.10424e-10
5.18071e-07
6.16247e-10
5.17953e-07
9.00102e-10
5.17796e-07
1.16353e-09
5.17602e-07
1.40798e-09
5.17374e-07
1.63479e-09
5.17113e-07
1.84528e-09
5.16823e-07
2.04066e-09
5.16505e-07
2.2221e-09
5.16162e-07
2.39069e-09
5.15794e-07
2.54746e-09
5.15404e-07
2.69339e-09
5.14993e-07
2.82936e-09
5.14562e-07
2.9562e-09
5.14113e-07
3.07469e-09
5.13647e-07
3.18554e-09
5.13165e-07
3.2894e-09
5.12668e-07
3.38686e-09
5.12156e-07
3.47848e-09
5.11632e-07
3.56476e-09
5.11095e-07
3.64614e-09
5.10546e-07
3.72306e-09
5.09986e-07
3.79589e-09
5.09415e-07
3.865e-09
5.08834e-07
3.93071e-09
5.08244e-07
3.99334e-09
5.07644e-07
4.05316e-09
5.07036e-07
4.11046e-09
5.06419e-07
4.16547e-09
5.05794e-07
4.21846e-09
5.05162e-07
4.26963e-09
5.04521e-07
4.31924e-09
5.03874e-07
4.36747e-09
5.03219e-07
4.41454e-09
5.02557e-07
4.46066e-09
5.01889e-07
4.50602e-09
5.01213e-07
4.55084e-09
5.00531e-07
4.59528e-09
4.99842e-07
4.63956e-09
4.99147e-07
4.68386e-09
4.98445e-07
4.72835e-09
4.97737e-07
4.77324e-09
4.97022e-07
4.8187e-09
4.86493e-09
5.16504e-07
5.17253e-07
-5.83726e-09
5.17902e-07
-5.04689e-09
5.18459e-07
-4.31176e-09
5.18928e-07
-3.62825e-09
5.19316e-07
-2.99299e-09
5.19629e-07
-2.40274e-09
5.19871e-07
-1.85449e-09
5.20049e-07
-1.34539e-09
5.20165e-07
-8.72714e-10
5.20225e-07
-4.33908e-10
5.20233e-07
-2.65668e-11
5.20191e-07
3.51582e-10
5.20105e-07
7.02626e-10
5.19977e-07
1.0285e-09
5.19809e-07
1.33098e-09
5.19605e-07
1.61177e-09
5.19368e-07
1.87243e-09
5.19099e-07
2.11445e-09
5.188e-07
2.33921e-09
5.18474e-07
2.54805e-09
5.18123e-07
2.74218e-09
5.17747e-07
2.92279e-09
5.1735e-07
3.09095e-09
5.16931e-07
3.24768e-09
5.16494e-07
3.39392e-09
5.16038e-07
3.53056e-09
5.15565e-07
3.65839e-09
5.15076e-07
3.77816e-09
5.14573e-07
3.89055e-09
5.14055e-07
3.9962e-09
5.13524e-07
4.09568e-09
5.12981e-07
4.18951e-09
5.12425e-07
4.27819e-09
5.11859e-07
4.36216e-09
5.11282e-07
4.44183e-09
5.10695e-07
4.51758e-09
5.10099e-07
4.58977e-09
5.09493e-07
4.65874e-09
5.08879e-07
4.72479e-09
5.08256e-07
4.78822e-09
5.07625e-07
4.84929e-09
5.06987e-07
4.9083e-09
5.06341e-07
4.96547e-09
5.05687e-07
5.02105e-09
5.05026e-07
5.07529e-09
5.04359e-07
5.12842e-09
5.03684e-07
5.18065e-09
5.03002e-07
5.23222e-09
5.02314e-07
5.28333e-09
5.0162e-07
5.33421e-09
5.00919e-07
5.38506e-09
5.00211e-07
5.4361e-09
4.99497e-07
5.48752e-09
4.98776e-07
5.53954e-09
5.59237e-09
5.19313e-07
-6.54771e-09
5.19927e-07
-5.6607e-09
5.20451e-07
-4.83531e-09
5.2089e-07
-4.06758e-09
5.21251e-07
-3.35375e-09
5.21538e-07
-2.69025e-09
5.21758e-07
-2.07374e-09
5.21913e-07
-1.50104e-09
5.2201e-07
-9.69165e-10
5.22051e-07
-4.75274e-10
5.22041e-07
-1.67001e-11
5.21984e-07
4.09069e-10
5.21882e-07
8.04377e-10
5.21739e-07
1.1714e-09
5.21558e-07
1.51216e-09
5.21341e-07
1.82857e-09
5.21091e-07
2.12241e-09
5.2081e-07
2.39532e-09
5.205e-07
2.6489e-09
5.20164e-07
2.8846e-09
5.19802e-07
3.1038e-09
5.19417e-07
3.3078e-09
5.1901e-07
3.49781e-09
5.18583e-07
3.67495e-09
5.18137e-07
3.84028e-09
5.17673e-07
3.99477e-09
5.17192e-07
4.13933e-09
5.16695e-07
4.27478e-09
5.16184e-07
4.4019e-09
5.15658e-07
4.5214e-09
5.1512e-07
4.63391e-09
5.1457e-07
4.74005e-09
5.14008e-07
4.84036e-09
5.13434e-07
4.93534e-09
5.12851e-07
5.02547e-09
5.12257e-07
5.11117e-09
5.11654e-07
5.19286e-09
5.11042e-07
5.2709e-09
5.10421e-07
5.34564e-09
5.09792e-07
5.41742e-09
5.09155e-07
5.48655e-09
5.0851e-07
5.55333e-09
5.07857e-07
5.61804e-09
5.07197e-07
5.68094e-09
5.0653e-07
5.74233e-09
5.05856e-07
5.80243e-09
5.05175e-07
5.86151e-09
5.04488e-07
5.91982e-09
5.03793e-07
5.97757e-09
5.03093e-07
6.03503e-09
5.02385e-07
6.09241e-09
5.01671e-07
6.14993e-09
5.00951e-07
6.20785e-09
5.00224e-07
6.26636e-09
6.32573e-09
5.21281e-07
-7.20773e-09
5.21848e-07
-6.22816e-09
5.22329e-07
-5.31625e-09
5.2273e-07
-4.4677e-09
5.23054e-07
-3.67839e-09
5.23308e-07
-2.94446e-09
5.23497e-07
-2.26225e-09
5.23624e-07
-1.6283e-09
5.23694e-07
-1.03932e-09
5.23711e-07
-4.92242e-10
5.23679e-07
1.58484e-11
5.236e-07
4.8771e-10
5.23479e-07
9.25896e-10
5.23317e-07
1.33283e-09
5.23119e-07
1.71075e-09
5.22885e-07
2.06176e-09
5.2262e-07
2.38781e-09
5.22324e-07
2.69078e-09
5.22001e-07
2.97237e-09
5.21651e-07
3.23421e-09
5.21277e-07
3.47781e-09
5.20881e-07
3.7046e-09
5.20463e-07
3.9159e-09
5.20025e-07
4.11295e-09
5.19568e-07
4.29692e-09
5.19094e-07
4.46885e-09
5.18603e-07
4.62977e-09
5.18098e-07
4.78058e-09
5.17577e-07
4.92212e-09
5.17044e-07
5.0552e-09
5.16497e-07
5.18051e-09
5.15938e-07
5.29874e-09
5.15368e-07
5.41048e-09
5.14787e-07
5.5163e-09
5.14196e-07
5.61674e-09
5.13595e-07
5.71224e-09
5.12984e-07
5.80329e-09
5.12365e-07
5.89028e-09
5.11737e-07
5.97362e-09
5.11101e-07
6.05366e-09
5.10457e-07
6.13077e-09
5.09805e-07
6.20525e-09
5.09145e-07
6.27743e-09
5.08479e-07
6.34761e-09
5.07805e-07
6.41608e-09
5.07124e-07
6.48312e-09
5.06437e-07
6.549e-09
5.05742e-07
6.614e-09
5.05042e-07
6.67835e-09
5.04334e-07
6.74233e-09
5.03621e-07
6.80618e-09
5.029e-07
6.87016e-09
5.02174e-07
6.93449e-09
5.01441e-07
6.99943e-09
7.06524e-09
5.23205e-07
-7.80623e-09
5.23716e-07
-6.73899e-09
5.24145e-07
-5.74504e-09
5.24497e-07
-4.81976e-09
5.24777e-07
-3.95873e-09
5.2499e-07
-3.1578e-09
5.25141e-07
-2.41303e-09
5.25234e-07
-1.72067e-09
5.25271e-07
-1.07721e-09
5.25259e-07
-4.79313e-10
5.25198e-07
7.61516e-11
5.25094e-07
5.92157e-10
5.24948e-07
1.07147e-09
5.24764e-07
1.51673e-09
5.24545e-07
1.93035e-09
5.24292e-07
2.31464e-09
5.24008e-07
2.67172e-09
5.23695e-07
3.00363e-09
5.23355e-07
3.31223e-09
5.2299e-07
3.59928e-09
5.22602e-07
3.86645e-09
5.22191e-07
4.11526e-09
5.2176e-07
4.34715e-09
5.21309e-07
4.56349e-09
5.2084e-07
4.7655e-09
5.20355e-07
4.95437e-09
5.19854e-07
5.13117e-09
5.19337e-07
5.2969e-09
5.18807e-07
5.45248e-09
5.18263e-07
5.59878e-09
5.17707e-07
5.73658e-09
5.17139e-07
5.8666e-09
5.1656e-07
5.98952e-09
5.15971e-07
6.10596e-09
5.15371e-07
6.21647e-09
5.14762e-07
6.3216e-09
5.14143e-07
6.42184e-09
5.13516e-07
6.51763e-09
5.1288e-07
6.60943e-09
5.12236e-07
6.69761e-09
5.11584e-07
6.78257e-09
5.10925e-07
6.86466e-09
5.10258e-07
6.94423e-09
5.09584e-07
7.02159e-09
5.08903e-07
7.09708e-09
5.08215e-07
7.17098e-09
5.0752e-07
7.24359e-09
5.06819e-07
7.31521e-09
5.06112e-07
7.38611e-09
5.05397e-07
7.45655e-09
5.04677e-07
7.5268e-09
5.0395e-07
7.59714e-09
5.03216e-07
7.66782e-09
5.02477e-07
7.7391e-09
7.81126e-09
5.25117e-07
-8.33296e-09
5.25562e-07
-7.18365e-09
5.2593e-07
-6.11282e-09
5.26226e-07
-5.11555e-09
5.26454e-07
-4.18716e-09
5.26619e-07
-3.32322e-09
5.26726e-07
-2.51952e-09
5.26777e-07
-1.77211e-09
5.26777e-07
-1.07721e-09
5.26729e-07
-4.3129e-10
5.26637e-07
1.68999e-10
5.26502e-07
7.26835e-10
5.26328e-07
1.24518e-09
5.26118e-07
1.72683e-09
5.25874e-07
2.17443e-09
5.25598e-07
2.5904e-09
5.25293e-07
2.97707e-09
5.2496e-07
3.33659e-09
5.24601e-07
3.671e-09
5.24218e-07
3.98216e-09
5.23813e-07
4.27188e-09
5.23386e-07
4.54179e-09
5.2294e-07
4.79344e-09
5.22475e-07
5.02828e-09
5.21993e-07
5.24766e-09
5.21495e-07
5.45282e-09
5.20981e-07
5.64493e-09
5.20453e-07
5.82507e-09
5.19911e-07
5.99422e-09
5.19356e-07
6.15333e-09
5.1879e-07
6.30321e-09
5.18212e-07
6.44469e-09
5.17623e-07
6.57846e-09
5.17023e-07
6.70522e-09
5.16414e-07
6.82556e-09
5.15796e-07
6.94008e-09
5.15168e-07
7.0493e-09
5.14532e-07
7.1537e-09
5.13888e-07
7.25378e-09
5.13236e-07
7.34995e-09
5.12576e-07
7.44263e-09
5.11908e-07
7.5322e-09
5.11233e-07
7.61903e-09
5.10551e-07
7.70348e-09
5.09863e-07
7.78587e-09
5.09167e-07
7.86655e-09
5.08465e-07
7.94581e-09
5.07756e-07
8.02397e-09
5.07041e-07
8.10131e-09
5.06319e-07
8.17814e-09
5.05591e-07
8.25472e-09
5.04857e-07
8.33134e-09
5.04117e-07
8.40826e-09
5.0337e-07
8.48578e-09
5.02617e-07
8.56417e-09
8.64373e-09
5.27037e-07
5.27407e-07
-7.55351e-09
5.27705e-07
-6.41156e-09
5.27937e-07
-5.3476e-09
5.28107e-07
-4.35672e-09
5.28218e-07
-3.43424e-09
5.28274e-07
-2.57575e-09
5.28279e-07
-1.77705e-09
5.28236e-07
-1.03419e-09
5.28148e-07
-3.43415e-10
5.28018e-07
2.98818e-10
5.27849e-07
8.95834e-10
5.27644e-07
1.45079e-09
5.27404e-07
1.96666e-09
5.27132e-07
2.4462e-09
5.26831e-07
2.89204e-09
5.26501e-07
3.30662e-09
5.26145e-07
3.69224e-09
5.25765e-07
4.05104e-09
5.25363e-07
4.38506e-09
5.24938e-07
4.69615e-09
5.24494e-07
4.9861e-09
5.24031e-07
5.25654e-09
5.2355e-07
5.50901e-09
5.23053e-07
5.74494e-09
5.2254e-07
5.96567e-09
5.22012e-07
6.17242e-09
5.21471e-07
6.36635e-09
5.20917e-07
6.54853e-09
5.2035e-07
6.71993e-09
5.19772e-07
6.88147e-09
5.19183e-07
7.03398e-09
5.18583e-07
7.17824e-09
5.17973e-07
7.31499e-09
5.17354e-07
7.44485e-09
5.16725e-07
7.56849e-09
5.16088e-07
7.68642e-09
5.15443e-07
7.79923e-09
5.14789e-07
7.90738e-09
5.14128e-07
8.01135e-09
5.13459e-07
8.11158e-09
5.12783e-07
8.20848e-09
5.12099e-07
8.30244e-09
5.11409e-07
8.39384e-09
5.10712e-07
8.48304e-09
5.10008e-07
8.57037e-09
5.09297e-07
8.65618e-09
5.08581e-07
8.74078e-09
5.07858e-07
8.82448e-09
5.07128e-07
8.90758e-09
5.06392e-07
8.99039e-09
5.05651e-07
9.07318e-09
5.04903e-07
9.15625e-09
5.04148e-07
9.23989e-09
5.03388e-07
9.32439e-09
9.41007e-09
5.29259e-07
-7.84092e-09
5.29482e-07
-6.63412e-09
5.29644e-07
-5.50927e-09
5.29748e-07
-4.46123e-09
5.29799e-07
-3.48513e-09
5.298e-07
-2.57636e-09
5.29753e-07
-1.73054e-09
5.29663e-07
-9.43523e-10
5.29531e-07
-2.11389e-10
5.2936e-07
4.69566e-10
5.29153e-07
1.10283e-09
5.28912e-07
1.69172e-09
5.28639e-07
2.23934e-09
5.28337e-07
2.7486e-09
5.28007e-07
3.22225e-09
5.2765e-07
3.66287e-09
5.2727e-07
4.07287e-09
5.26866e-07
4.45452e-09
5.26441e-07
4.80995e-09
5.25996e-07
5.14113e-09
5.25533e-07
5.44992e-09
5.25051e-07
5.73806e-09
5.24553e-07
6.00716e-09
5.24039e-07
6.25874e-09
5.23511e-07
6.49421e-09
5.22968e-07
6.71485e-09
5.22413e-07
6.92191e-09
5.21845e-07
7.11648e-09
5.21265e-07
7.29962e-09
5.20674e-07
7.47229e-09
5.20073e-07
7.63538e-09
5.19461e-07
7.78972e-09
5.1884e-07
7.93606e-09
5.1821e-07
8.07512e-09
5.17571e-07
8.20755e-09
5.16923e-07
8.33394e-09
5.16268e-07
8.45488e-09
5.15604e-07
8.57088e-09
5.14933e-07
8.68245e-09
5.14255e-07
8.79003e-09
5.13569e-07
8.89408e-09
5.12876e-07
8.99502e-09
5.12177e-07
9.09322e-09
5.11471e-07
9.18907e-09
5.10758e-07
9.28295e-09
5.10039e-07
9.37518e-09
5.09314e-07
9.4661e-09
5.08583e-07
9.55605e-09
5.07845e-07
9.64533e-09
5.07101e-07
9.73425e-09
5.06351e-07
9.82311e-09
5.05595e-07
9.91221e-09
5.04833e-07
1.00019e-08
5.04065e-07
1.00923e-08
1.0184e-08
5.31122e-07
-8.03936e-09
5.31262e-07
-6.77442e-09
5.31348e-07
-5.59487e-09
5.31382e-07
-4.4954e-09
5.31368e-07
-3.47096e-09
5.31308e-07
-2.51677e-09
5.31206e-07
-1.62829e-09
5.31063e-07
-8.01235e-10
5.30884e-07
-3.1527e-11
5.30668e-07
6.84678e-10
5.3042e-07
1.35102e-09
5.30141e-07
1.97092e-09
5.29833e-07
2.54762e-09
5.29497e-07
3.08415e-09
5.29136e-07
3.58338e-09
5.28751e-07
4.048e-09
5.28343e-07
4.48052e-09
5.27914e-07
4.8833e-09
5.27466e-07
5.25858e-09
5.26999e-07
5.60841e-09
5.26514e-07
5.93474e-09
5.26012e-07
6.23938e-09
5.25496e-07
6.52403e-09
5.24964e-07
6.79027e-09
5.24419e-07
7.03957e-09
5.2386e-07
7.27329e-09
5.23289e-07
7.4927e-09
5.22707e-07
7.699e-09
5.22113e-07
7.89326e-09
5.21509e-07
8.0765e-09
5.20895e-07
8.24966e-09
5.20271e-07
8.41361e-09
5.19638e-07
8.56914e-09
5.18996e-07
8.717e-09
5.18346e-07
8.85788e-09
5.17687e-07
8.99241e-09
5.17021e-07
9.1212e-09
5.16347e-07
9.24481e-09
5.15666e-07
9.36372e-09
5.14977e-07
9.47846e-09
5.14282e-07
9.58948e-09
5.1358e-07
9.69721e-09
5.12871e-07
9.80206e-09
5.12155e-07
9.90443e-09
5.11434e-07
1.00047e-08
5.10706e-07
1.01032e-08
5.09971e-07
1.02004e-08
5.09231e-07
1.02964e-08
5.08485e-07
1.03918e-08
5.07732e-07
1.04867e-08
5.06974e-07
1.05815e-08
5.06209e-07
1.06765e-08
5.05439e-07
1.0772e-08
5.04663e-07
1.08683e-08
1.09658e-08
5.55789e-07
-7.97279e-09
5.55667e-07
-6.65306e-09
5.55494e-07
-5.42174e-09
5.55272e-07
-4.27341e-09
5.55004e-07
-3.20286e-09
5.54693e-07
-2.20517e-09
5.5434e-07
-1.27567e-09
5.53949e-07
-4.09914e-10
5.53521e-07
3.96279e-10
5.53059e-07
1.14689e-09
5.52564e-07
1.84566e-09
5.52039e-07
2.49615e-09
5.51485e-07
3.10169e-09
5.50903e-07
3.66543e-09
5.50296e-07
4.19034e-09
5.49665e-07
4.67919e-09
5.49011e-07
5.13461e-09
5.48335e-07
5.55903e-09
5.47639e-07
5.95478e-09
5.46924e-07
6.32399e-09
5.4619e-07
6.66868e-09
5.45438e-07
6.99075e-09
5.4467e-07
7.29195e-09
5.43887e-07
7.57393e-09
5.43088e-07
7.83821e-09
5.42275e-07
8.08623e-09
5.41448e-07
8.31931e-09
5.40609e-07
8.53867e-09
5.39757e-07
8.74547e-09
5.38892e-07
8.94075e-09
5.38016e-07
9.1255e-09
5.37129e-07
9.30063e-09
5.36232e-07
9.46696e-09
5.35323e-07
9.62528e-09
5.34405e-07
9.77631e-09
5.33477e-07
9.92073e-09
5.32539e-07
1.00591e-08
5.31591e-07
1.01921e-08
5.30635e-07
1.03203e-08
5.29669e-07
1.0444e-08
5.28695e-07
1.05639e-08
5.27712e-07
1.06803e-08
5.2672e-07
1.07938e-08
5.2572e-07
1.09046e-08
5.24711e-07
1.10133e-08
5.23694e-07
1.11201e-08
5.22669e-07
1.12255e-08
5.21636e-07
1.13298e-08
5.20594e-07
1.14332e-08
5.19545e-07
1.15362e-08
5.18487e-07
1.16391e-08
5.17422e-07
1.17421e-08
5.16348e-07
1.18456e-08
5.15266e-07
1.19499e-08
1.20553e-08
5.18101e-07
5.1819e-07
-6.74214e-09
5.18241e-07
-5.47215e-09
5.18254e-07
-4.28731e-09
5.18234e-07
-3.1823e-09
5.18181e-07
-2.15212e-09
5.18097e-07
-1.19199e-09
5.17985e-07
-2.97375e-10
5.17845e-07
5.35997e-10
5.1768e-07
1.31219e-09
5.1749e-07
2.03503e-09
5.17278e-07
2.70817e-09
5.17045e-07
3.335e-09
5.16792e-07
3.91876e-09
5.16519e-07
4.46248e-09
5.1623e-07
4.96901e-09
5.15923e-07
5.44105e-09
5.15601e-07
5.88109e-09
5.15264e-07
6.29152e-09
5.14914e-07
6.67454e-09
5.1455e-07
7.03223e-09
5.14174e-07
7.36653e-09
5.13787e-07
7.67925e-09
5.13389e-07
7.97208e-09
5.12981e-07
8.24661e-09
5.12563e-07
8.50431e-09
5.12135e-07
8.74653e-09
5.11699e-07
8.97456e-09
5.11255e-07
9.18956e-09
5.10803e-07
9.39264e-09
5.10344e-07
9.5848e-09
5.09878e-07
9.76698e-09
5.09405e-07
9.94005e-09
5.08925e-07
1.01048e-08
5.08439e-07
1.0262e-08
5.07948e-07
1.04124e-08
5.0745e-07
1.05565e-08
5.06948e-07
1.0695e-08
5.06439e-07
1.08284e-08
5.05926e-07
1.09573e-08
5.05408e-07
1.10822e-08
5.04885e-07
1.12035e-08
5.04357e-07
1.13217e-08
5.03824e-07
1.14372e-08
5.03287e-07
1.15504e-08
5.02746e-07
1.16616e-08
5.022e-07
1.17713e-08
5.0165e-07
1.18799e-08
5.01095e-07
1.19875e-08
5.00537e-07
1.20946e-08
4.99975e-07
1.22016e-08
4.99408e-07
1.23086e-08
4.98838e-07
1.2416e-08
4.98263e-07
1.25242e-08
1.26334e-08
4.84408e-07
4.84668e-07
-5.7314e-09
4.84901e-07
-4.52043e-09
4.85109e-07
-3.39081e-09
4.85294e-07
-2.33744e-09
4.85458e-07
-1.3555e-09
4.85601e-07
-4.4039e-10
4.85725e-07
4.12226e-10
4.85831e-07
1.20647e-09
4.85919e-07
1.94622e-09
4.85992e-07
2.63518e-09
4.86051e-07
3.2768e-09
4.86095e-07
3.87437e-09
4.86126e-07
4.43097e-09
4.86146e-07
4.94951e-09
4.86154e-07
5.43271e-09
4.86152e-07
5.88315e-09
4.8614e-07
6.30322e-09
4.8612e-07
6.69518e-09
4.86091e-07
7.06117e-09
4.86054e-07
7.40314e-09
4.86011e-07
7.72297e-09
4.8596e-07
8.02238e-09
4.85904e-07
8.30298e-09
4.85842e-07
8.56627e-09
4.85775e-07
8.81366e-09
4.85703e-07
9.04645e-09
4.85627e-07
9.26584e-09
4.85546e-07
9.47296e-09
4.85462e-07
9.66883e-09
4.85375e-07
9.85443e-09
4.85284e-07
1.00306e-08
4.85191e-07
1.01983e-08
4.85095e-07
1.03581e-08
4.84996e-07
1.05109e-08
4.84895e-07
1.06573e-08
4.84792e-07
1.07978e-08
4.84688e-07
1.09331e-08
4.84581e-07
1.10638e-08
4.84473e-07
1.11902e-08
4.84364e-07
1.1313e-08
4.84253e-07
1.14324e-08
4.84141e-07
1.15491e-08
4.84028e-07
1.16634e-08
4.83914e-07
1.17756e-08
4.83799e-07
1.18862e-08
4.83684e-07
1.19955e-08
4.83567e-07
1.21039e-08
4.8345e-07
1.22116e-08
4.83333e-07
1.2319e-08
4.83215e-07
1.24265e-08
4.83097e-07
1.25343e-08
4.82978e-07
1.26427e-08
1.27521e-08
4.54421e-07
-6.18546e-09
4.54857e-07
-4.95707e-09
4.55278e-07
-3.81109e-09
4.55682e-07
-2.74239e-09
4.56073e-07
-1.74608e-09
4.5645e-07
-8.17556e-10
4.56815e-07
4.757e-11
4.57168e-07
8.53444e-10
4.5751e-07
1.604e-09
4.57842e-07
2.30294e-09
4.58165e-07
2.95378e-09
4.5848e-07
3.55982e-09
4.58787e-07
4.12419e-09
4.59086e-07
4.64982e-09
4.5938e-07
5.13947e-09
4.59667e-07
5.59573e-09
4.59949e-07
6.02106e-09
4.60227e-07
6.41774e-09
4.605e-07
6.78791e-09
4.6077e-07
7.13359e-09
4.61036e-07
7.45665e-09
4.61299e-07
7.75887e-09
4.6156e-07
8.04187e-09
4.6182e-07
8.30718e-09
4.62077e-07
8.55624e-09
4.62333e-07
8.79035e-09
4.62588e-07
9.01076e-09
4.62842e-07
9.21859e-09
4.63096e-07
9.41491e-09
4.6335e-07
9.6007e-09
4.63604e-07
9.77687e-09
4.63858e-07
9.94425e-09
4.64112e-07
1.01036e-08
4.64368e-07
1.02557e-08
4.64624e-07
1.04012e-08
4.64881e-07
1.05408e-08
4.65139e-07
1.06749e-08
4.65399e-07
1.08042e-08
4.6566e-07
1.09292e-08
4.65922e-07
1.10503e-08
4.66187e-07
1.11681e-08
4.66453e-07
1.12829e-08
4.66721e-07
1.13952e-08
4.66991e-07
1.15054e-08
4.67264e-07
1.16138e-08
4.67538e-07
1.17208e-08
4.67816e-07
1.18267e-08
4.68095e-07
1.19319e-08
4.68378e-07
1.20367e-08
4.68663e-07
1.21414e-08
4.6895e-07
1.22464e-08
4.69241e-07
1.23519e-08
1.24582e-08
4.27179e-07
-6.82073e-09
4.27804e-07
-5.58221e-09
4.28419e-07
-4.4268e-09
4.29026e-07
-3.34934e-09
4.29625e-07
-2.34495e-09
4.30217e-07
-1.409e-09
4.30801e-07
-5.37072e-10
4.3138e-07
2.74985e-10
4.31953e-07
1.03112e-09
4.32521e-07
1.73506e-09
4.33084e-07
2.39033e-09
4.33644e-07
3.00026e-09
4.342e-07
3.56799e-09
4.34753e-07
4.09646e-09
4.35304e-07
4.58847e-09
4.35853e-07
5.04663e-09
4.36401e-07
5.4734e-09
4.36947e-07
5.87109e-09
4.37494e-07
6.24187e-09
4.38039e-07
6.58777e-09
4.38585e-07
6.91069e-09
4.39132e-07
7.21241e-09
4.39679e-07
7.49459e-09
4.40227e-07
7.75878e-09
4.40777e-07
8.0064e-09
4.41329e-07
8.23881e-09
4.41882e-07
8.45725e-09
4.42438e-07
8.66288e-09
4.42996e-07
8.85676e-09
4.43557e-07
9.03989e-09
4.44121e-07
9.21319e-09
4.44687e-07
9.37751e-09
4.45257e-07
9.53365e-09
4.45831e-07
9.68234e-09
4.46408e-07
9.82426e-09
4.46989e-07
9.96005e-09
4.47573e-07
1.00903e-08
4.48162e-07
1.02156e-08
4.48755e-07
1.03364e-08
4.49352e-07
1.04532e-08
4.49953e-07
1.05666e-08
4.50559e-07
1.06768e-08
4.5117e-07
1.07844e-08
4.51786e-07
1.08898e-08
4.52406e-07
1.09933e-08
4.53032e-07
1.10952e-08
4.53662e-07
1.1196e-08
4.54298e-07
1.12959e-08
4.5494e-07
1.13953e-08
4.55587e-07
1.14945e-08
4.56239e-07
1.15938e-08
4.56898e-07
1.16934e-08
1.17938e-08
4.0265e-07
-7.62398e-09
4.0345e-07
-6.3814e-09
4.04245e-07
-5.22236e-09
4.05038e-07
-4.14169e-09
4.05827e-07
-3.13452e-09
4.06614e-07
-2.19619e-09
4.074e-07
-1.3223e-09
4.08183e-07
-5.08702e-10
4.08966e-07
2.48569e-10
4.09748e-07
9.53242e-10
4.10529e-07
1.60885e-09
4.11311e-07
2.21872e-09
4.12093e-07
2.786e-09
4.12875e-07
3.31366e-09
4.13659e-07
3.80449e-09
4.14445e-07
4.26111e-09
4.15232e-07
4.68601e-09
4.16022e-07
5.08149e-09
4.16814e-07
5.44975e-09
4.17609e-07
5.79283e-09
4.18407e-07
6.11264e-09
4.19208e-07
6.41097e-09
4.20014e-07
6.6895e-09
4.20823e-07
6.94977e-09
4.21636e-07
7.19325e-09
4.22453e-07
7.42128e-09
4.23275e-07
7.63513e-09
4.24102e-07
7.83595e-09
4.24934e-07
8.02483e-09
4.25771e-07
8.20277e-09
4.26614e-07
8.3707e-09
4.27462e-07
8.52949e-09
4.28316e-07
8.67993e-09
4.29175e-07
8.82276e-09
4.30041e-07
8.95867e-09
4.30912e-07
9.08831e-09
4.31791e-07
9.21227e-09
4.32675e-07
9.33111e-09
4.33566e-07
9.44536e-09
4.34464e-07
9.5555e-09
4.35368e-07
9.66201e-09
4.3628e-07
9.76532e-09
4.37198e-07
9.86585e-09
4.38124e-07
9.964e-09
4.39057e-07
1.00601e-08
4.39998e-07
1.01546e-08
4.40946e-07
1.02478e-08
4.41902e-07
1.034e-08
4.42866e-07
1.04315e-08
4.43838e-07
1.05226e-08
4.44818e-07
1.06137e-08
4.45806e-07
1.0705e-08
1.07968e-08
3.80573e-07
-8.58235e-09
3.81532e-07
-7.3408e-09
3.82493e-07
-6.183e-09
3.83455e-07
-5.10379e-09
3.84419e-07
-4.09828e-09
3.85385e-07
-3.16185e-09
3.86352e-07
-2.29012e-09
3.87323e-07
-1.47892e-09
3.88295e-07
-7.24304e-10
3.89271e-07
-2.25492e-11
3.9025e-07
6.29871e-10
3.91233e-07
1.23629e-09
3.92219e-07
1.79985e-09
3.93209e-07
2.32352e-09
3.94203e-07
2.8101e-09
3.95202e-07
3.26221e-09
3.96206e-07
3.68234e-09
3.97215e-07
4.07281e-09
3.98228e-07
4.43582e-09
3.99248e-07
4.77341e-09
4.00273e-07
5.0875e-09
4.01304e-07
5.37989e-09
4.02341e-07
5.65227e-09
4.03385e-07
5.90619e-09
4.04435e-07
6.14311e-09
4.05492e-07
6.36441e-09
4.06556e-07
6.57133e-09
4.07627e-07
6.76505e-09
4.08705e-07
6.94666e-09
4.0979e-07
7.11717e-09
4.10884e-07
7.27752e-09
4.11985e-07
7.42857e-09
4.13093e-07
7.57113e-09
4.1421e-07
7.70593e-09
4.15335e-07
7.83368e-09
4.16468e-07
7.95502e-09
4.1761e-07
8.07055e-09
4.1876e-07
8.18082e-09
4.19919e-07
8.28637e-09
4.21087e-07
8.38769e-09
4.22264e-07
8.48524e-09
4.2345e-07
8.57946e-09
4.24645e-07
8.67077e-09
4.25849e-07
8.75955e-09
4.27063e-07
8.84619e-09
4.28287e-07
8.93103e-09
4.2952e-07
9.01441e-09
4.30764e-07
9.09666e-09
4.32017e-07
9.17809e-09
4.33281e-07
9.25898e-09
4.34555e-07
9.33964e-09
4.35839e-07
9.42034e-09
9.50136e-09
3.60707e-07
-9.68345e-09
3.61814e-07
-8.44719e-09
3.62925e-07
-7.29471e-09
3.64042e-07
-6.22086e-09
3.65165e-07
-5.2208e-09
3.66293e-07
-4.2899e-09
3.67427e-07
-3.42381e-09
3.68566e-07
-2.61837e-09
3.69712e-07
-1.86966e-09
3.70863e-07
-1.17396e-09
3.72021e-07
-5.27747e-10
3.73185e-07
7.22912e-11
3.74355e-07
6.29297e-10
3.75532e-07
1.14623e-09
3.76717e-07
1.62589e-09
3.77908e-07
2.0709e-09
3.79107e-07
2.48374e-09
3.80313e-07
2.86675e-09
3.81526e-07
3.2221e-09
3.82748e-07