/*--------------------------------*- C++ -*----------------------------------*\
  =========                 |
  \\      /  F ield         | OpenFOAM: The Open Source CFD Toolbox
   \\    /   O peration     | Website:  https://openfoam.org
    \\  /    A nd           | Version:  6
     \\/     M anipulation  |
\*---------------------------------------------------------------------------*/
FoamFile
{
    version     2.0;
    format      ascii;
    class       volVectorField;
    location    "0.05";
    object      U;
}
// * * * * * * * * * * * * * * * * * * * * * * * * * * * * * * * * * * * * * //

dimensions      [0 1 -1 0 0 0 0];

internalField   nonuniform List<vector> 
3081
(
(0.436314 -0.000704446 7.36856e-21)
(0.43737 -0.000645411 7.31808e-21)
(0.438342 -0.000591341 7.26877e-21)
(0.439238 -0.00054184 0)
(0.440061 -0.000496529 0)
(0.440819 -0.000455047 0)
(0.441517 -0.000417052 7.08226e-21)
(0.442158 -0.00038214 0)
(0.442746 -0.000349928 0)
(0.443286 -0.000319705 -6.95238e-21)
(0.443781 -0.000288177 0)
(0.444218 -0.000254065 0)
(0.444606 -0.000221618 -6.82975e-21)
(0.444953 -0.000194367 0)
(0.445265 -0.000172591 0)
(0.445547 -0.000155155 6.71329e-21)
(0.445803 -0.000140919 6.6757e-21)
(0.446037 -0.000129022 0)
(0.446251 -0.000118846 -6.60214e-21)
(0.446448 -0.000109972 0)
(0.446628 -0.00010213 6.53056e-21)
(0.446795 -9.51416e-05 0)
(0.446948 -8.88803e-05 6.46078e-21)
(0.44709 -8.32512e-05 6.42651e-21)
(0.447222 -7.8179e-05 0)
(0.447344 -7.36022e-05 0)
(0.447457 -6.94695e-05 0)
(0.447562 -6.57379e-05 0)
(0.447661 -6.23713e-05 0)
(0.447753 -5.9339e-05 0)
(0.447839 -5.6614e-05 0)
(0.44792 -5.41726e-05 6.16462e-21)
(0.447996 -5.19927e-05 -6.13319e-21)
(0.448068 -5.00533e-05 0)
(0.448137 -4.83347e-05 0)
(0.448202 -4.68179e-05 0)
(0.448264 -4.54852e-05 0)
(0.448324 -4.43199e-05 -1.1959e-20)
(0.448381 -4.33064e-05 0)
(0.448437 -4.243e-05 1.1839e-20)
(0.44849 -4.16766e-05 -1.17796e-20)
(0.448543 -4.10324e-05 0)
(0.448594 -4.04843e-05 0)
(0.448644 -4.00189e-05 0)
(0.448694 -3.96228e-05 1.15452e-20)
(0.448742 -3.92825e-05 1.14875e-20)
(0.44879 -3.89849e-05 0)
(0.448838 -3.87167e-05 1.13728e-20)
(0.448885 -3.8465e-05 1.13159e-20)
(0.448932 -3.8218e-05 -1.12593e-20)
(0.448979 -3.79642e-05 0)
(0.449025 -3.76934e-05 0)
(0.449071 -3.73956e-05 -1.1091e-20)
(0.449116 -3.70619e-05 0)
(0.449161 -3.66838e-05 0)
(0.449205 -3.62536e-05 0)
(0.449248 -3.57641e-05 0)
(0.460586 -0.00171956 5.43203e-21)
(0.461803 -0.0015728 -5.42519e-21)
(0.462926 -0.00143831 -5.3991e-21)
(0.463961 -0.00131513 0)
(0.464915 -0.00120233 0)
(0.465794 -0.00109905 0)
(0.466603 -0.00100447 -5.29819e-21)
(0.467349 -0.000917731 0)
(0.468035 -0.000837956 1.04896e-20)
(0.468667 -0.000763845 1.56687e-20)
(0.46925 -0.00069286 -1.03965e-20)
(0.469797 -0.000624669 0)
(0.470308 -0.000562172 -5.14879e-21)
(0.47078 -0.00050702 0)
(0.471215 -0.00045877 -1.02145e-20)
(0.471615 -0.000416411 5.08227e-21)
(0.471981 -0.000379077 5.06045e-21)
(0.472317 -0.000346041 0)
(0.472626 -0.000316677 1.50604e-20)
(0.472909 -0.000290474 -9.99586e-21)
(0.473169 -0.000267024 -4.97838e-21)
(0.473408 -0.000245994 0)
(0.473628 -0.000227105 -4.93586e-21)
(0.473832 -0.000210117 -1.47416e-20)
(0.474019 -0.000194826 0)
(0.474193 -0.000181053 -9.74381e-21)
(0.474353 -0.000168642 -9.70265e-21)
(0.474502 -0.000157459 -9.66168e-21)
(0.474641 -0.000147386 0)
(0.474769 -0.000138319 0)
(0.474889 -0.000130168 0)
(0.475002 -0.00012285 4.74892e-21)
(0.475107 -0.000116292 4.73042e-21)
(0.475205 -0.000110429 0)
(0.475298 -0.0001052 9.37925e-21)
(0.475385 -0.000100547 9.33939e-21)
(0.475468 -9.64204e-05 0)
(0.475547 -9.27712e-05 9.26113e-21)
(0.475622 -8.95551e-05 1.84407e-20)
(0.475694 -8.67302e-05 -9.18189e-21)
(0.475762 -8.42571e-05 -9.14027e-21)
(0.475829 -8.20985e-05 0)
(0.475893 -8.02189e-05 0)
(0.475955 -7.8584e-05 0)
(0.476016 -7.71603e-05 -8.98493e-21)
(0.476075 -7.59153e-05 8.94388e-21)
(0.476133 -7.48174e-05 1.78112e-20)
(0.47619 -7.38356e-05 -8.86734e-21)
(0.476246 -7.29397e-05 8.82652e-21)
(0.476302 -7.21008e-05 8.78913e-21)
(0.476356 -7.12912e-05 0)
(0.476411 -7.04846e-05 0)
(0.476464 -6.96559e-05 -8.67047e-21)
(0.476518 -6.87813e-05 0)
(0.47657 -6.78386e-05 0)
(0.476622 -6.68062e-05 1.7109e-20)
(0.476674 -6.56653e-05 0)
(0.468985 -0.00300203 -8.59467e-21)
(0.470274 -0.00274764 0)
(0.471463 -0.0025142 0)
(0.47256 -0.00230012 0)
(0.473572 -0.00210389 0)
(0.474505 -0.00192407 0)
(0.475365 -0.00175933 -8.39784e-21)
(0.476157 -0.0016084 0)
(0.476887 -0.00147007 -8.34537e-21)
(0.477559 -0.00134322 -8.31463e-21)
(0.478179 -0.00122679 8.28402e-21)
(0.478751 -0.00111937 0)
(0.479282 -0.00101999 8.22274e-21)
(0.479773 -0.000928809 0)
(0.480227 -0.000845929 8.16128e-21)
(0.480646 -0.000771061 -8.13075e-21)
(0.481032 -0.000703669 -2.42929e-20)
(0.481387 -0.000643106 0)
(0.481714 -0.000588692 -2.41127e-20)
(0.482014 -0.00053978 -8.00347e-21)
(0.482291 -0.000495785 0)
(0.482545 -0.000456186 -1.58944e-20)
(0.48278 -0.000420522 -1.58351e-20)
(0.482996 -0.000388385 2.36661e-20)
(0.483196 -0.000359415 0)
(0.483381 -0.000333291 7.83077e-21)
(0.483552 -0.000309732 7.80111e-21)
(0.48371 -0.000288485 2.33111e-20)
(0.483857 -0.000269329 0)
(0.483993 -0.000252067 0)
(0.48412 -0.000236525 0)
(0.484239 -0.000222545 7.65058e-21)
(0.48435 -0.000209989 0)
(0.484454 -0.00019873 0)
(0.484552 -0.000188653 -7.56411e-21)
(0.484644 -0.000179653 -7.53443e-21)
(0.484731 -0.000171635 0)
(0.484813 -0.000164509 0)
(0.484891 -0.000158193 -1.48903e-20)
(0.484966 -0.00015261 0)
(0.485038 -0.000147688 1.4771e-20)
(0.485107 -0.00014336 1.47098e-20)
(0.485173 -0.000139562 0)
(0.485237 -0.000136234 0)
(0.485299 -0.000133318 -1.45298e-20)
(0.48536 -0.000130756 -1.14748e-24)
(0.485419 -0.000128495 -1.10888e-24)
(0.485478 -0.000126482 0)
(0.485535 -0.000124665 -2.85779e-20)
(0.485591 -0.000122996 0)
(0.485647 -0.000121425 0)
(0.485702 -0.000119907 0)
(0.485756 -0.000118398 1.40462e-20)
(0.485809 -0.000116857 0)
(0.485862 -0.000115243 -2.7846e-20)
(0.485915 -0.00011352 -1.38626e-20)
(0.485966 -0.000111651 0)
(0.473872 -0.0043512 -1.46229e-20)
(0.4752 -0.00398413 1.45808e-20)
(0.476426 -0.00364702 1.45381e-20)
(0.477559 -0.00333762 -1.44949e-20)
(0.478603 -0.0030538 -1.44511e-20)
(0.479567 -0.00279358 0)
(0.480455 -0.0025551 -7.17361e-21)
(0.481274 -0.00233662 0)
(0.482029 -0.00213652 0)
(0.482724 -0.00195331 -1.4227e-20)
(0.483364 -0.00178557 0)
(0.483955 -0.00163171 0)
(0.4845 -0.00149036 -1.4089e-20)
(0.485003 -0.00136079 0)
(0.485468 -0.00124252 0)
(0.485897 -0.00113496 0)
(0.486293 -0.00103742 2.78056e-20)
(0.486657 -0.000949135 0)
(0.486993 -0.00086933 2.76145e-20)
(0.487302 -0.00079724 1.37621e-20)
(0.487586 -0.000732144 1.37091e-20)
(0.487848 -0.000673374 4.47503e-24)
(0.48809 -0.00062032 1.36177e-20)
(0.488312 -0.000572428 -2.71353e-20)
(0.488518 -0.000529197 -1.35178e-20)
(0.488708 -0.000490174 0)
(0.488883 -0.000454955 -1.34215e-20)
(0.489046 -0.000423176 -2.67493e-20)
(0.489196 -0.000394512 0)
(0.489336 -0.000368671 0)
(0.489466 -0.000345393 0)
(0.489587 -0.000324444 -1.99406e-24)
(0.489701 -0.000305614 0)
(0.489807 -0.000288714 0)
(0.489906 -0.000273571 0)
(0.489999 -0.000260029 0)
(0.490088 -0.000247944 2.58649e-20)
(0.490171 -0.000237185 0)
(0.49025 -0.000227629 -2.56655e-20)
(0.490326 -0.000219162 0)
(0.490398 -0.000211678 -2.54647e-20)
(0.490467 -0.00020508 -1.26829e-20)
(0.490533 -0.000199272 2.52624e-20)
(0.490597 -0.000194168 -2.51608e-20)
(0.490659 -0.000189682 -1.25285e-20)
(0.49072 -0.000185735 1.24774e-20)
(0.490779 -0.000182249 -1.24276e-20)
(0.490836 -0.000179148 0)
(0.490893 -0.000176361 -1.23229e-20)
(0.490948 -0.000173816 0)
(0.491003 -0.000171445 0)
(0.491057 -0.000169184 0)
(0.49111 -0.000166969 -2.423e-20)
(0.491163 -0.000164742 0)
(0.491215 -0.000162446 1.18405e-24)
(0.491266 -0.000160026 0)
(0.491317 -0.000157429 0)
(0.477367 -0.00573387 2.61494e-20)
(0.478715 -0.00525181 -1.30511e-20)
(0.47996 -0.00480881 -2.60149e-20)
(0.48111 -0.00440196 1.2981e-20)
(0.482172 -0.00402852 1.2945e-20)
(0.483151 -0.00368596 0)
(0.484054 -0.00337189 1.30961e-23)
(0.484887 -0.0030841 0)
(0.485655 -0.00282051 -1.2785e-20)
(0.486362 -0.00257922 1.27581e-20)
(0.487014 -0.00235843 0)
(0.487614 -0.00215632 0)
(0.488167 -0.0019712 1.26414e-20)
(0.488677 -0.00180178 -1.25931e-20)
(0.489148 -0.00164701 0)
(0.489582 -0.00150592 0)
(0.489982 -0.00137756 -1.24781e-20)
(0.49035 -0.00126097 0)
(0.49069 -0.00115523 -1.23959e-20)
(0.491003 -0.00105943 0)
(0.491291 -0.000972699 -1.23132e-20)
(0.491556 -0.00089423 1.22717e-20)
(0.4918 -0.00082327 -2.44527e-20)
(0.492025 -0.000759123 1.21883e-20)
(0.492233 -0.000701154 1.21463e-20)
(0.492425 -0.000648784 0)
(0.492602 -0.000601489 1.2062e-20)
(0.492766 -0.000558792 1.20196e-20)
(0.492918 -0.000520264 0)
(0.493059 -0.000485521 0)
(0.493189 -0.000454213 2.3779e-20)
(0.493311 -0.000426027 -1.18484e-20)
(0.493425 -0.000400681 2.36069e-20)
(0.493531 -0.000377921 0)
(0.49363 -0.000357513 0)
(0.493723 -0.000339248 0)
(0.493811 -0.000322932 -4.65177e-20)
(0.493894 -0.000308388 0)
(0.493973 -0.000295453 2.30826e-20)
(0.494048 -0.000283974 0)
(0.494119 -0.000273812 2.29036e-20)
(0.494187 -0.000264833 0)
(0.494252 -0.000256916 -2.27228e-20)
(0.494316 -0.000249943 2.26318e-20)
(0.494377 -0.000243803 2.25404e-20)
(0.494436 -0.000238392 -2.24486e-20)
(0.494493 -0.000233608 0)
(0.49455 -0.000229354 0)
(0.494605 -0.000225537 1.17264e-24)
(0.494659 -0.000222065 0)
(0.494712 -0.000218851 0)
(0.494764 -0.000215812 0)
(0.494816 -0.000212866 2.17949e-20)
(0.494866 -0.000209936 0)
(0.494917 -0.00020695 2.16046e-20)
(0.494966 -0.000203836 0)
(0.495015 -0.000200525 2.14121e-20)
(0.480154 -0.00712594 -1.20295e-20)
(0.481505 -0.00652864 0)
(0.482753 -0.00597941 1.19727e-20)
(0.483907 -0.00547472 0)
(0.484972 -0.00501124 -1.18988e-20)
(0.485955 -0.00458588 0)
(0.486862 -0.00419574 1.19248e-23)
(0.487699 -0.00383811 0)
(0.488469 -0.00351049 1.17854e-20)
(0.48918 -0.00321054 0)
(0.489834 -0.00293606 0)
(0.490437 -0.00268494 0)
(0.490993 -0.0024552 0)
(0.491504 -0.00224513 1.16145e-20)
(0.491976 -0.00205324 0)
(0.49241 -0.00187818 0)
(0.492811 -0.0017187 2.29996e-20)
(0.493179 -0.00157361 0)
(0.493519 -0.00144178 0)
(0.493831 -0.00132213 0)
(0.494119 -0.00121362 2.27071e-20)
(0.494384 -0.00111531 0)
(0.494629 -0.00102629 2.25656e-20)
(0.494854 -0.000945723 0)
(0.495061 -0.000872855 -2.24085e-20)
(0.495252 -0.000806978 2.23328e-20)
(0.495429 -0.00074745 0)
(0.495592 -0.000693687 -2.21801e-20)
(0.495743 -0.000645158 0)
(0.495883 -0.000601383 0)
(0.496012 -0.000561927 -4.38994e-20)
(0.496133 -0.000526397 2.18696e-20)
(0.496245 -0.000494437 -2.17939e-20)
(0.49635 -0.000465727 0)
(0.496448 -0.000439973 0)
(0.49654 -0.00041691 0)
(0.496626 -0.000396294 4.29447e-20)
(0.496708 -0.000377902 0)
(0.496785 -0.000361528 -2.13086e-20)
(0.496858 -0.000346983 0)
(0.496927 -0.000334088 0)
(0.496994 -0.00032268 0)
(0.497057 -0.000312605 0)
(0.497119 -0.000303717 -2.08941e-20)
(0.497178 -0.000295881 0)
(0.497235 -0.000288965 2.07252e-20)
(0.497291 -0.000282847 -2.064e-20)
(0.497345 -0.000277406 -2.05544e-20)
(0.497398 -0.000272528 2.04694e-20)
(0.497449 -0.000268103 0)
(0.4975 -0.000264024 0)
(0.49755 -0.000260191 0)
(0.4976 -0.000256505 0)
(0.497648 -0.000252872 0)
(0.497696 -0.000249203 0)
(0.497744 -0.000245411 0)
(0.497791 -0.000241409 -1.9766e-20)
(0.483881 -0.00780113 0)
(0.485119 -0.00714646 -2.24126e-20)
(0.486263 -0.00654458 0)
(0.48732 -0.00599159 1.11686e-20)
(0.488296 -0.00548386 0)
(0.489196 -0.00501797 -1.1091e-20)
(0.490027 -0.00459076 0)
(0.490792 -0.00419927 2.2092e-20)
(0.491498 -0.00384073 2.20342e-20)
(0.492148 -0.00351258 -2.19754e-20)
(0.492747 -0.00321236 0)
(0.493298 -0.00293781 0)
(0.493806 -0.00268686 2.17895e-20)
(0.494274 -0.00245765 0)
(0.494704 -0.00224849 2.16585e-20)
(0.495101 -0.00205784 -1.07694e-23)
(0.495466 -0.00188424 -2.15256e-20)
(0.495802 -0.00172634 0)
(0.496111 -0.00158287 0)
(0.496396 -0.00145263 -2.1331e-20)
(0.496658 -0.0013345 0)
(0.496899 -0.00122743 0)
(0.497121 -0.00113046 -2.11166e-20)
(0.497326 -0.00104269 2.10525e-20)
(0.497514 -0.000963294 -4.19585e-20)
(0.497688 -0.000891515 0)
(0.497849 -0.000826664 2.08393e-20)
(0.497997 -0.000768109 0)
(0.498134 -0.000715279 0)
(0.498261 -0.000667651 4.12406e-20)
(0.498379 -0.000624754 -2.05487e-20)
(0.498489 -0.000586161 0)
(0.498591 -0.000551483 0)
(0.498687 -0.000520366 0)
(0.498776 -0.000492489 0)
(0.49886 -0.000467559 -2.01751e-20)
(0.498939 -0.000445305 2.0097e-20)
(0.499013 -0.000425479 2.00224e-20)
(0.499083 -0.000407852 0)
(0.49915 -0.000392211 0)
(0.499214 -0.00037836 0)
(0.499275 -0.000366113 1.97099e-20)
(0.499334 -0.000355298 3.92635e-20)
(0.49939 -0.000345751 0)
(0.499445 -0.000337318 -5.84171e-20)
(0.499498 -0.000329853 1.93928e-20)
(0.499549 -0.000323213 1.9312e-20)
(0.499599 -0.000317266 0)
(0.499648 -0.000311882 -3.82966e-20)
(0.499696 -0.000306936 0)
(0.499744 -0.00030231 0)
(0.49979 -0.000297891 0)
(0.499836 -0.000293567 0)
(0.499881 -0.000289235 -3.74679e-20)
(0.499926 -0.000284793 0)
(0.49997 -0.000280138 0)
(0.486014 -0.00905636 0)
(0.487228 -0.0082981 2.13134e-20)
(0.488351 -0.00760067 0)
(0.489388 -0.00695961 2.11946e-20)
(0.490346 -0.00637077 0)
(0.491231 -0.00583024 2.11189e-20)
(0.492047 -0.00533441 0)
(0.492799 -0.00487987 -2.10136e-20)
(0.493492 -0.00446346 -4.19013e-20)
(0.494131 -0.00408223 2.09041e-20)
(0.49472 -0.00373342 0)
(0.495261 -0.00341442 -2.07762e-20)
(0.49576 -0.00312286 -2.07289e-20)
(0.496219 -0.00285657 0)
(0.496641 -0.00261354 -2.06047e-20)
(0.49703 -0.00239193 -2.05419e-20)
(0.497388 -0.00219006 2.04788e-20)
(0.497717 -0.00200633 -2.04061e-20)
(0.49802 -0.00183927 2.03427e-20)
(0.498298 -0.0016875 2.02789e-20)
(0.498554 -0.00154975 0)
(0.49879 -0.00142481 0)
(0.499007 -0.00131158 6.12722e-24)
(0.499206 -0.00120904 0)
(0.49939 -0.00111624 1.99578e-20)
(0.499559 -0.00103231 1.98858e-20)
(0.499715 -0.000956456 0)
(0.499859 -0.00088795 0)
(0.499992 -0.000826128 1.96827e-20)
(0.500115 -0.000770386 -1.96174e-20)
(0.500229 -0.000720175 0)
(0.500335 -0.000674993 0)
(0.500433 -0.000634388 0)
(0.500525 -0.000597946 1.9334e-20)
(0.50061 -0.00056529 1.92628e-20)
(0.50069 -0.000536075 0)
(0.500766 -0.000509985 -1.91207e-20)
(0.500836 -0.000486731 0)
(0.500903 -0.000466043 0)
(0.500967 -0.000447675 0)
(0.501027 -0.000431395 0)
(0.501085 -0.00041699 -1.87514e-20)
(0.50114 -0.000404258 -1.8676e-20)
(0.501193 -0.000393011 -3.71983e-20)
(0.501244 -0.000383069 3.7048e-20)
(0.501293 -0.000374265 3.68927e-20)
(0.501341 -0.000366435 3.67385e-20)
(0.501388 -0.000359428 0)
(0.501434 -0.000353094 7.28562e-20)
(0.501479 -0.000347294 0)
(0.501523 -0.000341892 0)
(0.501566 -0.000336758 0)
(0.501608 -0.000331769 0)
(0.50165 -0.000326805 3.56354e-20)
(0.501692 -0.000321749 0)
(0.501732 -0.000316485 0)
(0.489187 -0.00942291 2.04139e-20)
(0.490277 -0.0086325 0)
(0.491284 -0.00790568 -2.03544e-20)
(0.492215 -0.00723779 0)
(0.493074 -0.00662447 2.02409e-20)
(0.493867 -0.00606165 0)
(0.494598 -0.00554553 2.01456e-20)
(0.495272 -0.00507255 2.01133e-20)
(0.495893 -0.0046394 -2.00456e-20)
(0.496464 -0.00424299 0)
(0.496991 -0.00388041 3.98955e-20)
(0.497475 -0.00354899 0)
(0.497921 -0.00324626 0)
(0.498331 -0.00296993 0)
(0.498708 -0.00271791 0)
(0.499055 -0.00248825 0)
(0.499374 -0.00227914 1.95988e-20)
(0.499667 -0.00208892 -1.95379e-20)
(0.499936 -0.00191603 -1.94765e-20)
(0.500184 -0.00175901 0)
(0.500411 -0.00161653 0)
(0.50062 -0.00148735 6.10895e-24)
(0.500812 -0.0013703 0)
(0.500989 -0.00126433 1.91574e-20)
(0.501152 -0.00116846 -3.81921e-20)
(0.501301 -0.00108179 0)
(0.501439 -0.0010035 3.79291e-20)
(0.501566 -0.000932841 -5.67014e-20)
(0.501684 -0.00086912 0)
(0.501792 -0.000811714 -3.7534e-20)
(0.501893 -0.000760054 0)
(0.501986 -0.000713621 0)
(0.502073 -0.000671942 -1.85673e-20)
(0.502153 -0.000634587 -1.84986e-20)
(0.502229 -0.00060116 3.68548e-20)
(0.502299 -0.0005713 3.67159e-20)
(0.502366 -0.000544676 0)
(0.502428 -0.000520981 0)
(0.502487 -0.000499932 0)
(0.502543 -0.000481267 0)
(0.502596 -0.000464741 0)
(0.502647 -0.000450127 0)
(0.502696 -0.00043721 7.14324e-20)
(0.502743 -0.000425788 0)
(0.502788 -0.000415671 -1.87482e-24)
(0.502832 -0.000406676 -3.52733e-20)
(0.502875 -0.000398633 3.51219e-20)
(0.502916 -0.000391375 -3.49728e-20)
(0.502957 -0.000384746 0)
(0.502997 -0.000378596 0)
(0.503036 -0.00037278 0)
(0.503075 -0.000367161 0)
(0.503113 -0.000361605 3.42049e-20)
(0.503151 -0.000355982 0)
(0.503188 -0.000350163 3.38925e-20)
(0.491065 -0.01051 -2.63157e-23)
(0.492111 -0.00963011 -1.96885e-20)
(0.493078 -0.00882065 0)
(0.493971 -0.00807653 0)
(0.494797 -0.00739295 -3.91499e-20)
(0.495558 -0.00676544 0)
(0.496261 -0.00618979 -1.80423e-23)
(0.496908 -0.00566208 0)
(0.497505 -0.00517867 1.93963e-20)
(0.498055 -0.00473613 0)
(0.49856 -0.00433128 -1.92945e-20)
(0.499025 -0.00396116 0)
(0.499453 -0.00362302 0)
(0.499847 -0.00331432 -1.91148e-20)
(0.500208 -0.00303271 0)
(0.50054 -0.00277602 0)
(0.500846 -0.00254224 0)
(0.501126 -0.00232949 1.88863e-20)
(0.501383 -0.00213604 1.88279e-20)
(0.50162 -0.00196029 0)
(0.501836 -0.00180075 3.7419e-20)
(0.502035 -0.00165604 1.86557e-20)
(0.502218 -0.00152489 -3.71781e-20)
(0.502386 -0.0014061 -1.85333e-20)
(0.50254 -0.00129861 -1.84617e-20)
(0.502681 -0.00120142 3.68089e-20)
(0.502812 -0.00111361 -8.20335e-24)
(0.502931 -0.00103434 3.6565e-20)
(0.503042 -0.000962848 3.64301e-20)
(0.503143 -0.000898437 7.26099e-20)
(0.503237 -0.000840468 -3.61723e-20)
(0.503324 -0.000788361 0)
(0.503405 -0.000741585 -3.59103e-20)
(0.503479 -0.000699656 -3.57777e-20)
(0.503549 -0.000662131 -3.56483e-20)
(0.503614 -0.000628604 -3.83117e-24)
(0.503674 -0.000598702 0)
(0.503731 -0.000572083 0)
(0.503785 -0.00054843 0)
(0.503836 -0.000527447 0)
(0.503884 -0.000508863 0)
(0.50393 -0.000492422 0)
(0.503974 -0.000477886 -6.90782e-20)
(0.504015 -0.000465031 0)
(0.504056 -0.000453645 -6.8505e-20)
(0.504095 -0.000443527 0)
(0.504133 -0.000434488 -6.79243e-20)
(0.50417 -0.000426345 0)
(0.504206 -0.000418927 3.36674e-20)
(0.504241 -0.000412069 0)
(0.504276 -0.000405614 -3.33699e-20)
(0.50431 -0.000399411 0)
(0.504343 -0.000393314 -6.61391e-20)
(0.504376 -0.000387181 0)
(0.504409 -0.000380869 -3.27658e-20)
(0.492906 -0.0115493 -1.92022e-20)
(0.493898 -0.0105841 1.9165e-20)
(0.494816 -0.00969589 0)
(0.495664 -0.00887906 0)
(0.496447 -0.00812841 1.90439e-20)
(0.49717 -0.00743908 0)
(0.497837 -0.00680651 -3.78943e-20)
(0.498452 -0.00622644 0)
(0.499018 -0.00569489 0)
(0.49954 -0.00520814 0)
(0.500019 -0.00476274 -1.87519e-20)
(0.500461 -0.00435546 0)
(0.500866 -0.00398329 0)
(0.501239 -0.00364345 5.57864e-20)
(0.501581 -0.00333337 0)
(0.501896 -0.00305067 0)
(0.502184 -0.00279312 0)
(0.502449 -0.00255867 -5.51204e-20)
(0.502691 -0.00234544 -1.83219e-20)
(0.502914 -0.00215165 0)
(0.503117 -0.00197568 -3.6412e-20)
(0.503304 -0.00181602 -3.62823e-20)
(0.503475 -0.00167127 7.23411e-20)
(0.503632 -0.00154015 -3.60463e-20)
(0.503776 -0.00142146 3.59365e-20)
(0.503908 -0.00131412 -9.00239e-24)
(0.504028 -0.00121713 -3.56926e-20)
(0.504139 -0.00112957 0)
(0.504241 -0.00105059 -3.54446e-20)
(0.504334 -0.000979422 -3.5319e-20)
(0.50442 -0.000915374 3.51924e-20)
(0.5045 -0.000857799 0)
(0.504573 -0.000806112 4.99796e-24)
(0.50464 -0.000759778 6.96083e-20)
(0.504703 -0.000718307 0)
(0.504761 -0.000681251 -3.4544e-20)
(0.504815 -0.000648197 0)
(0.504866 -0.000618768 0)
(0.504913 -0.000592611 0)
(0.504958 -0.000569404 0)
(0.505 -0.000548846 0)
(0.50504 -0.000530656 0)
(0.505078 -0.000514572 3.35935e-20)
(0.505114 -0.000500349 0)
(0.505149 -0.000487754 3.33131e-20)
(0.505182 -0.00047657 -3.31699e-20)
(0.505215 -0.000466588 3.3029e-20)
(0.505246 -0.000457614 0)
(0.505276 -0.000449459 -3.27412e-20)
(0.505306 -0.000441947 0)
(0.505336 -0.000434906 1.16802e-24)
(0.505364 -0.000428176 0)
(0.505393 -0.000421598 1.03846e-24)
(0.505421 -0.000415019 0)
(0.505449 -0.000408286 0)
(0.494741 -0.0125312 1.87319e-20)
(0.49567 -0.0114858 0)
(0.496529 -0.0105234 0)
(0.497323 -0.00963796 -1.86251e-20)
(0.498057 -0.00882402 0)
(0.498735 -0.00807631 0)
(0.49936 -0.00738993 1.85224e-20)
(0.499936 -0.00676032 1.84616e-20)
(0.500466 -0.00618319 0)
(0.500954 -0.00565456 0)
(0.501404 -0.0051707 1.83382e-20)
(0.501816 -0.00472813 -3.6546e-20)
(0.502196 -0.00432363 0)
(0.502544 -0.0039542 -3.63601e-20)
(0.502863 -0.00361703 0)
(0.503156 -0.00330956 0)
(0.503425 -0.00302938 -3.60164e-20)
(0.503671 -0.00277428 3.59242e-20)
(0.503896 -0.00254219 3.57969e-20)
(0.504102 -0.00233122 0)
(0.504291 -0.00213959 0)
(0.504463 -0.00196568 3.54721e-20)
(0.504621 -0.00180798 -3.53565e-20)
(0.504765 -0.00166508 3.52398e-20)
(0.504897 -0.00153572 -3.51123e-20)
(0.505017 -0.00141871 -3.50034e-20)
(0.505127 -0.00131297 -3.48753e-20)
(0.505227 -0.00121749 -3.47551e-20)
(0.505319 -0.00113137 0)
(0.505403 -0.00105377 3.45115e-20)
(0.50548 -0.000983926 3.43881e-20)
(0.50555 -0.00092114 0)
(0.505615 -0.000864774 3.4143e-20)
(0.505674 -0.000814245 -4.64565e-24)
(0.505729 -0.000769019 3.38834e-20)
(0.505779 -0.000728606 0)
(0.505826 -0.000692556 0)
(0.505869 -0.000660457 0)
(0.505909 -0.000631926 0)
(0.505947 -0.000606611 0)
(0.505982 -0.000584184 0)
(0.506015 -0.000564342 -3.29594e-20)
(0.506046 -0.000546799 0)
(0.506076 -0.000531289 -3.26862e-20)
(0.506104 -0.000517563 0)
(0.506132 -0.000505384 3.24108e-20)
(0.506158 -0.000494529 0)
(0.506183 -0.000484788 0)
(0.506207 -0.000475961 -3.19865e-20)
(0.506231 -0.000467857 0)
(0.506254 -0.000460296 6.34014e-20)
(0.506277 -0.000453105 0)
(0.5063 -0.000446116 3.14113e-20)
(0.506322 -0.000439165 0)
(0.506344 -0.00043209 0)
(0.506366 -0.000424724 0)
(0.496587 -0.013447 -2.55289e-23)
(0.497444 -0.0123271 0)
(0.498237 -0.0112956 0)
(0.49897 -0.0103464 1.82897e-20)
(0.499648 -0.00947349 0)
(0.500274 -0.00867132 0)
(0.50085 -0.00793472 3.63038e-20)
(0.501382 -0.00725881 1.80936e-20)
(0.501872 -0.00663906 0)
(0.502322 -0.00607122 0)
(0.502736 -0.00555133 0)
(0.503116 -0.00507569 3.58792e-20)
(0.503465 -0.00464085 0)
(0.503786 -0.00424361 0)
(0.504079 -0.00388099 0)
(0.504348 -0.00355023 0)
(0.504594 -0.00324876 7.06895e-20)
(0.504819 -0.00297421 -3.52287e-20)
(0.505024 -0.00272438 -1.5988e-23)
(0.505212 -0.00249721 3.50116e-20)
(0.505383 -0.00229084 0)
(0.505539 -0.0021035 -3.47901e-20)
(0.505681 -0.00193359 0)
(0.50581 -0.00177961 3.45642e-20)
(0.505928 -0.00164019 3.44595e-20)
(0.506035 -0.00151406 0)
(0.506133 -0.00140007 3.42253e-20)
(0.506221 -0.00129714 6.82053e-20)
(0.506302 -0.00120428 0)
(0.506375 -0.00112062 -3.38659e-20)
(0.506442 -0.00104531 -6.74819e-20)
(0.506502 -0.000977621 0)
(0.506557 -0.000916852 0)
(0.506607 -0.000862377 -6.67388e-20)
(0.506653 -0.000813621 -4.32741e-24)
(0.506695 -0.000770055 0)
(0.506733 -0.000731194 0)
(0.506768 -0.000696593 0)
(0.506801 -0.00066584 -3.27273e-20)
(0.50683 -0.000638556 0)
(0.506858 -0.000614388 0)
(0.506883 -0.000593008 6.4664e-20)
(0.506907 -0.000574113 3.21966e-20)
(0.50693 -0.000557415 3.20634e-20)
(0.506951 -0.000542648 0)
(0.506971 -0.000529559 0)
(0.50699 -0.000517912 -3.16501e-20)
(0.507008 -0.000507483 0)
(0.507026 -0.000498058 -3.13698e-20)
(0.507043 -0.000489438 0)
(0.50706 -0.000481431 -3.10897e-20)
(0.507076 -0.000473855 0)
(0.507092 -0.000466532 -6.16048e-20)
(0.507108 -0.000459291 -6.13162e-20)
(0.507124 -0.000451962 6.10259e-20)
(0.50714 -0.000444367 0)
(0.499229 -0.0131008 3.60881e-20)
(0.499949 -0.012006 0)
(0.500615 -0.0109982 0)
(0.50123 -0.0100711 -3.58813e-20)
(0.501798 -0.00921887 0)
(0.502322 -0.00843602 -3.57649e-20)
(0.502804 -0.00771745 -3.56825e-20)
(0.503248 -0.00705839 0)
(0.503657 -0.00645435 -3.54809e-20)
(0.504032 -0.00590117 0)
(0.504376 -0.00539493 0)
(0.504691 -0.00493199 3.51881e-20)
(0.50498 -0.00450899 0)
(0.505245 -0.00412276 0)
(0.505486 -0.00377039 0)
(0.505707 -0.00344915 -1.87547e-23)
(0.505908 -0.00315653 3.46925e-20)
(0.506092 -0.0028902 -3.45852e-20)
(0.506259 -0.00264799 -3.44768e-20)
(0.506411 -0.0024279 0)
(0.506549 -0.00222807 6.85009e-20)
(0.506674 -0.0020468 -3.41333e-20)
(0.506787 -0.00188251 -3.40326e-20)
(0.506889 -0.00173373 3.39086e-20)
(0.506982 -0.00159912 0)
(0.507066 -0.00147745 -3.36793e-20)
(0.507141 -0.00136758 -3.3571e-20)
(0.50721 -0.00126847 -3.34455e-20)
(0.507271 -0.00117916 0)
(0.507326 -0.00109879 3.32133e-20)
(0.507376 -0.00102653 0)
(0.50742 -0.000961677 0)
(0.50746 -0.000903541 6.56867e-20)
(0.507496 -0.000851513 -3.27211e-20)
(0.507528 -0.000805027 0)
(0.507557 -0.000763567 0)
(0.507584 -0.000726657 0)
(0.507607 -0.000693856 3.22119e-20)
(0.507628 -0.000664762 0)
(0.507647 -0.000638997 0)
(0.507665 -0.000616213 -3.18191e-20)
(0.507681 -0.000596086 -3.16862e-20)
(0.507695 -0.000578313 -6.31005e-20)
(0.507708 -0.00056261 6.28311e-20)
(0.507721 -0.00054871 -6.25597e-20)
(0.507732 -0.000536364 3.11448e-20)
(0.507743 -0.000525334 0)
(0.507753 -0.000515398 6.17368e-20)
(0.507763 -0.000506346 0)
(0.507773 -0.000497976 0)
(0.507782 -0.000490099 0)
(0.507791 -0.000482529 6.061e-20)
(0.5078 -0.000475088 1.20646e-19)
(0.50781 -0.000467597 -6.00365e-20)
(0.507819 -0.000459875 -5.97456e-20)
(0.501026 -0.0138005 -3.57937e-20)
(0.501667 -0.0126487 0)
(0.50226 -0.0115879 0)
(0.502808 -0.0106118 3.55855e-20)
(0.503313 -0.00971425 0)
(0.503779 -0.0088895 0)
(0.504208 -0.00813223 3.53166e-20)
(0.504603 -0.00743746 0)
(0.504965 -0.00680052 3.51816e-20)
(0.505298 -0.00621703 3.50555e-20)
(0.505602 -0.00568292 0)
(0.505881 -0.00519438 -3.48855e-20)
(0.506136 -0.00474786 0)
(0.506369 -0.00434006 0)
(0.506582 -0.00396793 0)
(0.506775 -0.00362861 -6.89308e-20)
(0.506951 -0.00331945 -3.43517e-20)
(0.50711 -0.00303801 0)
(0.507255 -0.00278201 0)
(0.507386 -0.00254935 0)
(0.507504 -0.00233809 -1.31844e-23)
(0.50761 -0.00214641 6.76382e-20)
(0.507706 -0.00197265 -3.37016e-20)
(0.507792 -0.00181529 -3.35995e-20)
(0.507869 -0.00167291 -3.34753e-20)
(0.507938 -0.0015442 6.67295e-20)
(0.508 -0.00142798 3.32441e-20)
(0.508054 -0.00132314 3.31343e-20)
(0.508103 -0.00122866 0)
(0.508146 -0.00114364 0)
(0.508183 -0.00106722 0)
(0.508217 -0.000998627 0)
(0.508246 -0.00093715 -6.5049e-20)
(0.508271 -0.000882138 -3.23976e-20)
(0.508293 -0.000832995 -3.2272e-20)
(0.508312 -0.000789172 0)
(0.508329 -0.000750167 0)
(0.508343 -0.000715515 0)
(0.508355 -0.000684788 0)
(0.508365 -0.000657589 0)
(0.508374 -0.00063355 0)
(0.508381 -0.000612328 0)
(0.508387 -0.000593606 6.24589e-20)
(0.508392 -0.000577084 -6.21878e-20)
(0.508396 -0.000562483 6.19148e-20)
(0.508399 -0.00054954 0)
(0.508402 -0.000538009 0)
(0.508405 -0.000527657 0)
(0.508407 -0.000518265 6.08009e-20)
(0.508409 -0.000509624 0)
(0.50841 -0.000501537 0)
(0.508412 -0.000493813 0)
(0.508414 -0.000486266 -5.96624e-20)
(0.508416 -0.000478714 0)
(0.508418 -0.00047097 1.18161e-19)
(0.502867 -0.0144341 0)
(0.503423 -0.0132306 3.43909e-20)
(0.503936 -0.0121219 -3.43383e-20)
(0.50441 -0.0111014 0)
(0.504847 -0.0101626 0)
(0.50525 -0.00929973 -3.41621e-20)
(0.505621 -0.00850724 -3.55e-23)
(0.505961 -0.00777993 0)
(0.506274 -0.00711296 -3.39568e-20)
(0.50656 -0.00650179 -3.39052e-20)
(0.506822 -0.0059422 3.37933e-20)
(0.507061 -0.00543022 0)
(0.507279 -0.00496216 -3.36247e-20)
(0.507477 -0.0045346 0)
(0.507657 -0.00414435 -3.34511e-20)
(0.50782 -0.00378843 3.3382e-20)
(0.507968 -0.00346409 3.32907e-20)
(0.508101 -0.00316877 0)
(0.508222 -0.00290011 0)
(0.508329 -0.0026559 0)
(0.508426 -0.00243411 -3.29132e-20)
(0.508512 -0.00223287 -6.56189e-20)
(0.508589 -0.00205043 6.54226e-20)
(0.508657 -0.00188518 0)
(0.508717 -0.00173566 3.25162e-20)
(0.50877 -0.0016005 -6.48186e-20)
(0.508816 -0.00147845 -8.4458e-24)
(0.508856 -0.00136835 3.21978e-20)
(0.508891 -0.00126914 -3.20925e-20)
(0.50892 -0.00117987 3.19859e-20)
(0.508945 -0.00109964 0)
(0.508966 -0.00102763 0)
(0.508984 -0.00096311 3.16636e-20)
(0.508998 -0.000905383 3.15516e-20)
(0.509009 -0.000853827 3.14383e-20)
(0.509017 -0.000807864 0)
(0.509023 -0.000766968 0)
(0.509027 -0.000730649 0)
(0.509029 -0.000698459 0)
(0.509029 -0.000669981 0)
(0.509029 -0.000644829 0)
(0.509026 -0.000622646 6.12218e-20)
(0.509023 -0.000603098 -6.09774e-20)
(0.509019 -0.000585872 -6.07309e-20)
(0.509015 -0.000570679 6.04821e-20)
(0.509009 -0.000557243 0)
(0.509003 -0.00054531 0)
(0.508997 -0.000534639 0)
(0.508991 -0.000525001 -5.94683e-20)
(0.508985 -0.000516183 -5.92065e-20)
(0.508978 -0.000507981 0)
(0.508972 -0.000500198 5.8682e-20)
(0.508966 -0.000492646 0)
(0.50896 -0.000485136 0)
(0.508954 -0.000477478 -1.15763e-19)
(0.504673 -0.01497 0)
(0.50514 -0.0137231 -3.51441e-20)
(0.505572 -0.0125739 7.0099e-20)
(0.50597 -0.0115157 -3.49542e-20)
(0.506337 -0.0105421 -3.48776e-20)
(0.506675 -0.00964683 3.48348e-20)
(0.506986 -0.00882435 -3.47507e-20)
(0.507271 -0.00806931 0)
(0.507532 -0.0073767 3.05046e-23)
(0.50777 -0.00674187 3.44356e-20)
(0.507987 -0.00616045 -3.43618e-20)
(0.508185 -0.00562835 3.42331e-20)
(0.508365 -0.0051418 3.41537e-20)
(0.508528 -0.00469723 3.40262e-20)
(0.508675 -0.00429136 2.05234e-23)
(0.508807 -0.00392113 0)
(0.508926 -0.00358368 0)
(0.509033 -0.00327638 3.35987e-20)
(0.509128 -0.00299676 0)
(0.509212 -0.00274256 -3.33782e-20)
(0.509287 -0.00251167 3.32663e-20)
(0.509352 -0.00230215 3.31655e-20)
(0.50941 -0.00211218 -1.13926e-23)
(0.509459 -0.00194012 0)
(0.509502 -0.00178441 0)
(0.509538 -0.00164366 3.26989e-20)
(0.509569 -0.00151656 -8.27461e-24)
(0.509594 -0.00140191 -3.24594e-20)
(0.509615 -0.00129862 3.2338e-20)
(0.509631 -0.00120568 -3.22157e-20)
(0.509643 -0.00112216 0)
(0.509651 -0.00104722 0)
(0.509657 -0.000980074 0)
(0.509659 -0.000920018 0)
(0.509659 -0.000866397 0)
(0.509657 -0.00081861 0)
(0.509652 -0.000776107 0)
(0.509646 -0.00073838 0)
(0.509638 -0.00070496 0)
(0.509629 -0.000675416 0)
(0.509619 -0.000649347 -6.16037e-20)
(0.509607 -0.00062638 -6.13409e-20)
(0.509595 -0.000606168 1.22138e-19)
(0.509582 -0.00058839 1.21596e-19)
(0.509568 -0.000572744 -6.05271e-20)
(0.509554 -0.000558947 -6.02492e-20)
(0.50954 -0.000546736 0)
(0.509525 -0.000535862 0)
(0.50951 -0.000526093 0)
(0.509496 -0.000517209 1.18274e-19)
(0.509481 -0.000509001 0)
(0.509467 -0.000501269 -5.85716e-20)
(0.509452 -0.000493821 0)
(0.509439 -0.000486467 0)
(0.509425 -0.000479015 5.77112e-20)
(0.506714 -0.0141086 -3.53242e-20)
(0.507069 -0.0129279 -3.52802e-20)