/*--------------------------------*- C++ -*----------------------------------*\
  =========                 |
  \\      /  F ield         | OpenFOAM: The Open Source CFD Toolbox
   \\    /   O peration     | Website:  https://openfoam.org
    \\  /    A nd           | Version:  6
     \\/     M anipulation  |
\*---------------------------------------------------------------------------*/
FoamFile
{
    version     2.0;
    format      ascii;
    class       volScalarField;
    location    "0.09";
    object      epsilon;
}
// * * * * * * * * * * * * * * * * * * * * * * * * * * * * * * * * * * * * * //

dimensions      [0 2 -3 0 0 0 0];

internalField   nonuniform List<scalar> 
3080
(
1.67881
1.68032
1.68185
1.6834
1.68497
1.68657
1.68817
1.68979
1.69142
1.69306
1.6947
1.69633
1.69795
1.69954
1.7011
1.70261
1.70404
1.70537
1.70655
1.70752
1.70821
1.7085
1.70822
1.70709
1.7047
1.70029
1.69249
1.67846
1.65294
1.60562
0.786824
0.787242
0.787669
0.788105
0.78855
0.789003
0.789464
0.789931
0.790405
0.790884
0.791369
0.791857
0.792349
0.792843
0.793337
0.793831
0.794322
0.794807
0.795282
0.795743
0.796186
0.796604
0.796992
0.797349
0.797691
0.798076
0.798704
0.800139
0.804198
0.816926
0.648213
0.648383
0.648558
0.648739
0.648925
0.649115
0.64931
0.649509
0.649712
0.649918
0.650127
0.650339
0.650552
0.650767
0.650983
0.651199
0.651415
0.651628
0.651838
0.652043
0.652241
0.652431
0.652613
0.652791
0.652981
0.653227
0.653654
0.654609
0.657028
0.6636
0.610692
0.610741
0.610794
0.610852
0.610912
0.610976
0.611043
0.611112
0.611184
0.611257
0.611332
0.611408
0.611486
0.611564
0.611642
0.611719
0.611796
0.61187
0.611941
0.612008
0.61207
0.612125
0.612174
0.61222
0.612275
0.612369
0.612581
0.613126
0.614498
0.617833
0.602438
0.602411
0.602386
0.602363
0.602344
0.602326
0.60231
0.602295
0.602282
0.60227
0.602259
0.602248
0.602237
0.602226
0.602214
0.602201
0.602186
0.602168
0.602146
0.60212
0.602087
0.602047
0.602
0.601946
0.601894
0.601863
0.601907
0.602155
0.602885
0.604618
0.605841
0.605758
0.605678
0.605598
0.605521
0.605444
0.605368
0.605294
0.60522
0.605146
0.605072
0.604998
0.604924
0.604849
0.604772
0.604693
0.604611
0.604526
0.604435
0.604339
0.604236
0.604124
0.604002
0.60387
0.603732
0.603601
0.603511
0.603542
0.603853
0.604717
0.614511
0.614387
0.614264
0.614142
0.614021
0.613901
0.613781
0.613661
0.613541
0.613421
0.613301
0.61318
0.613057
0.612933
0.612808
0.612679
0.612547
0.61241
0.612268
0.612119
0.611961
0.611793
0.611613
0.61142
0.611214
0.611004
0.61081
0.610682
0.610714
0.611075
0.625576
0.625422
0.625268
0.625115
0.624961
0.624807
0.624653
0.624499
0.624345
0.62419
0.624034
0.623878
0.623719
0.623559
0.623396
0.62323
0.623059
0.622884
0.622703
0.622513
0.622314
0.622103
0.621879
0.621638
0.621381
0.62111
0.620839
0.620597
0.620445
0.620504
0.637573
0.637398
0.637221
0.637043
0.636864
0.636685
0.636506
0.636327
0.636147
0.635967
0.635785
0.635602
0.635417
0.63523
0.635039
0.634845
0.634647
0.634443
0.634232
0.634013
0.633783
0.633541
0.633283
0.633008
0.632713
0.632399
0.632072
0.631753
0.631482
0.631358
0.649695
0.649504
0.649309
0.649114
0.648918
0.648721
0.648524
0.648327
0.648129
0.64793
0.64773
0.647529
0.647325
0.647118
0.646908
0.646695
0.646476
0.646252
0.64602
0.64578
0.645529
0.645264
0.644984
0.644685
0.644365
0.644022
0.64366
0.643292
0.642949
0.642717
0.66148
0.661271
0.661066
0.660859
0.660651
0.660443
0.660234
0.660025
0.659816
0.659605
0.659393
0.659179
0.658963
0.658744
0.658521
0.658295
0.658063
0.657826
0.657581
0.657327
0.657062
0.656784
0.65649
0.656177
0.655842
0.655484
0.655103
0.654709
0.654327
0.654036
0.672432
0.672217
0.672002
0.671788
0.671574
0.67136
0.671144
0.670928
0.670711
0.670493
0.670272
0.670049
0.669823
0.669594
0.669361
0.669122
0.668878
0.668626
0.668366
0.668094
0.66781
0.667509
0.667191
0.66685
0.666486
0.6661
0.665697
0.665301
0.664983
0.682813
0.682601
0.682388
0.682174
0.681958
0.681742
0.681525
0.681308
0.681089
0.680868
0.680646
0.680421
0.680193
0.679962
0.679727
0.679487
0.67924
0.678987
0.678725
0.678453
0.678168
0.677868
0.677551
0.677213
0.676853
0.676471
0.676073
0.675679
0.675357
0.692349
0.692143
0.691934
0.691723
0.691511
0.691297
0.691082
0.690867
0.69065
0.690431
0.690211
0.689988
0.689763
0.689534
0.689301
0.689064
0.68882
0.68857
0.688312
0.688044
0.687764
0.687469
0.687159
0.68683
0.686481
0.686112
0.685729
0.68535
0.685038
0.701007
0.700808
0.700607
0.700402
0.700195
0.699987
0.699778
0.699567
0.699356
0.699143
0.698928
0.698711
0.698491
0.698268
0.698041
0.69781
0.697573
0.69733
0.697079
0.696819
0.696548
0.696264
0.695965
0.69565
0.695317
0.694968
0.694607
0.694252
0.69396
0.708857
0.708666
0.708471
0.708272
0.708072
0.707869
0.707665
0.707461
0.707255
0.707047
0.706838
0.706627
0.706414
0.706197
0.705976
0.705752
0.705522
0.705286
0.705043
0.704792
0.704531
0.704258
0.703973
0.703672
0.703357
0.703029
0.702692
0.702364
0.702094
0.715766
0.715586
0.715401
0.715213
0.715022
0.714829
0.714636
0.714441
0.714245
0.714048
0.71385
0.713649
0.713447
0.713241
0.713032
0.712819
0.712602
0.712379
0.712149
0.711912
0.711667
0.711411
0.711143
0.710864
0.710573
0.710271
0.709965
0.70967
0.709431
0.721657
0.721495
0.721327
0.721155
0.720981
0.720805
0.720628
0.720451
0.720273
0.720094
0.719913
0.719732
0.719548
0.719361
0.719172
0.718979
0.718783
0.718581
0.718374
0.71816
0.717938
0.717708
0.717469
0.71722
0.716962
0.716697
0.716431
0.716178
0.715979
0.726654
0.726513
0.726365
0.726214
0.72606
0.725904
0.725748
0.725592
0.725436
0.725279
0.725121
0.724962
0.724802
0.72464
0.724475
0.724307
0.724136
0.723961
0.723781
0.723595
0.723403
0.723204
0.722998
0.722785
0.722565
0.722342
0.722121
0.721917
0.721763
0.730861
0.730741
0.730616
0.730486
0.730353
0.73022
0.730087
0.729954
0.729821
0.729688
0.729555
0.729422
0.729287
0.729151
0.729013
0.728872
0.728729
0.728582
0.728432
0.728276
0.728116
0.727951
0.72778
0.727605
0.727426
0.727246
0.727072
0.726917
0.72681
0.734366
0.734268
0.734164
0.734056
0.733945
0.733834
0.733723
0.733614
0.733505
0.733396
0.733288
0.733179
0.73307
0.73296
0.732849
0.732736
0.732621
0.732503
0.732382
0.732258
0.73213
0.731998
0.731862
0.731724
0.731585
0.731449
0.731321
0.731214
0.731152
0.737243
0.737166
0.737082
0.736994
0.736904
0.736813
0.736724
0.736637
0.73655
0.736465
0.73638
0.736296
0.736211
0.736126
0.73604
0.735953
0.735865
0.735774
0.735682
0.735587
0.735489
0.735389
0.735287
0.735184
0.735083
0.734986
0.734902
0.734839
0.73482
0.739553
0.739495
0.739429
0.739359
0.739287
0.739216
0.739146
0.739079
0.739013
0.738948
0.738885
0.738822
0.738759
0.738697
0.738634
0.738571
0.738507
0.738441
0.738374
0.738305
0.738235
0.738163
0.738092
0.738021
0.737953
0.737893
0.737846
0.737824
0.737842
0.741347
0.741304
0.741254
0.741199
0.741143
0.741088
0.741036
0.740985
0.740937
0.74089
0.740845
0.740801
0.740757
0.740714
0.740671
0.740628
0.740585
0.74054
0.740495
0.740449
0.740402
0.740356
0.740309
0.740266
0.740227
0.740198
0.740184
0.740195
0.740246
0.742663
0.742633
0.742595
0.742553
0.742511
0.742469
0.74243
0.742394
0.742359
0.742327
0.742297
0.742268
0.74224
0.742212
0.742185
0.742158
0.742131
0.742104
0.742076
0.742048
0.74202
0.741993
0.741968
0.741946
0.74193
0.741925
0.741938
0.741976
0.742052
0.743536
0.743514
0.743486
0.743453
0.743421
0.743389
0.74336
0.743334
0.74331
0.743288
0.743269
0.74325
0.743233
0.743217
0.743201
0.743186
0.743171
0.743156
0.743141
0.743126
0.743111
0.743098
0.743088
0.743081
0.743083
0.743096
0.743127
0.743184
0.74328
0.743988
0.743973
0.74395
0.743924
0.743898
0.743873
0.74385
0.74383
0.743812
0.743797
0.743783
0.743771
0.74376
0.74375
0.74374
0.743732
0.743723
0.743715
0.743707
0.743699
0.743693
0.743688
0.743685
0.743688
0.743699
0.743722
0.743764
0.743833
0.74394
0.744047
0.744034
0.744014
0.743991
0.743968
0.743945
0.743924
0.743906
0.743889
0.743875
0.743863
0.743852
0.743842
0.743833
0.743824
0.743817
0.743809
0.743802
0.743795
0.743789
0.743783
0.74378
0.743779
0.743784
0.743796
0.743822
0.743866
0.743938
0.744049
0.743588
0.74357
0.743546
0.743519
0.74349
0.743462
0.743435
0.743411
0.743388
0.743366
0.743347
0.743328
0.74331
0.743293
0.743277
0.743261
0.743244
0.743229
0.743213
0.743197
0.743183
0.743169
0.743159
0.743153
0.743155
0.743169
0.743203
0.743264
0.743365
0.742598
0.742567
0.742531
0.742491
0.742449
0.742408
0.742367
0.742328
0.74229
0.742253
0.742218
0.742183
0.742149
0.742115
0.742081
0.742047
0.742013
0.741978
0.741943
0.741908
0.741874
0.74184
0.741808
0.74178
0.741759
0.741749
0.741758
0.741794
0.741874
0.741056
0.741005
0.740949
0.740888
0.740826
0.740763
0.7407
0.740638
0.740577
0.740517
0.740457
0.740397
0.740337
0.740277
0.740217
0.740156
0.740094
0.740031
0.739967
0.739903
0.739837
0.739772
0.739707
0.739646
0.739589
0.739543
0.739514
0.739512
0.739557
0.738937
0.738858
0.738773
0.738684
0.738593
0.738501
0.738408
0.738315
0.738223
0.73813
0.738037
0.737943
0.737849
0.737754
0.737658
0.73756
0.737461
0.73736
0.737257
0.737153
0.737046
0.736938
0.73683
0.736722
0.736619
0.736523
0.736442
0.736388
0.736386
0.736207
0.736092
0.735971
0.735846
0.735717
0.735587
0.735456
0.735324
0.735191
0.735057
0.734923
0.734787
0.734649
0.73451
0.734368
0.734224
0.734078
0.733929
0.733777
0.733622
0.733463
0.733302
0.733138
0.732973
0.73281
0.732651
0.732506
0.732387
0.732326
0.732825
0.732666
0.732501
0.732331
0.732158
0.731982
0.731803
0.731624
0.731442
0.731258
0.731073
0.730885
0.730695
0.730502
0.730305
0.730106
0.729903
0.729695
0.729484
0.729267
0.729046
0.72882
0.728589
0.728355
0.728119
0.727886
0.727663
0.727465
0.727333
0.728744
0.728534
0.728317
0.728094
0.727867
0.727637
0.727403
0.727167
0.726927
0.726685
0.72644
0.726191
0.725939
0.725682
0.725422
0.725156
0.724886
0.72461
0.724329
0.724041
0.723746
0.723444
0.723135
0.72282
0.7225
0.722179
0.721866
0.721577
0.721361
0.723912
0.723643
0.723366
0.723082
0.722794
0.7225
0.722203
0.721901
0.721595
0.721286
0.720972
0.720653
0.720329
0.72
0.719666
0.719325
0.718978
0.718624
0.718262
0.717892
0.717513
0.717125
0.716727
0.71632
0.715904
0.715485
0.715069
0.714677
0.714367
0.718273
0.717937
0.717592
0.717239
0.716881
0.716516
0.716147
0.715772
0.715391
0.715005
0.714614
0.714216
0.713812
0.713402
0.712984
0.712559
0.712126
0.711684
0.711233
0.710771
0.710299
0.709814
0.709317
0.708808
0.708287
0.707758
0.70723
0.706727
0.706315
0.711767
0.711356
0.710936
0.710508
0.710072
0.709629
0.709179
0.708723
0.70826
0.70779
0.707314
0.706829
0.706337
0.705837
0.705329
0.704811
0.704283
0.703745
0.703196
0.702635
0.70206
0.701471
0.700867
0.700248
0.699614
0.698968
0.698322
0.697701
0.697184
0.704438
0.703944
0.70344
0.702926
0.702404
0.701873
0.701334
0.700788
0.700233
0.69967
0.699098
0.698518
0.697928
0.697328
0.696719
0.696098
0.695467
0.694823
0.694166
0.693495
0.692808
0.692105
0.691385
0.690646
0.68989
0.68912
0.688349
0.687605
0.686981
0.696208
0.695624
0.695029
0.694424
0.693808
0.693184
0.692549
0.691906
0.691252
0.690589
0.689916
0.689233
0.688539
0.687834
0.687118
0.686389
0.685648
0.684892
0.684122
0.683336
0.682533
0.681712
0.680871
0.680009
0.67913
0.678236
0.677342
0.676482
0.675759
0.686775
0.686104
0.685422
0.684728
0.684023
0.683307
0.682582
0.681845
0.681098
0.68034
0.679572
0.678792
0.678
0.677197
0.67638
0.675551
0.674708
0.673851
0.672977
0.672087
0.671179
0.670251
0.669303
0.668334
0.667347
0.666349
0.665358
0.664411
0.66363
0.675992
0.675245
0.674485
0.673714
0.672932
0.672138
0.671333
0.670518
0.669692
0.668854
0.668005
0.667145
0.666273
0.665389
0.664492
0.663582
0.662659
0.66172
0.660767
0.659796
0.658808
0.657801
0.656775
0.65573
0.654671
0.653606
0.652563
0.651585
0.650815
0.664092
0.663296
0.662489
0.66167
0.660841
0.660001
0.65915
0.65829
0.657419
0.656537
0.655646
0.654744
0.653831
0.652907
0.651972
0.651025
0.650066
0.649094
0.648108
0.647108
0.646092
0.645059
0.644011
0.642948
0.641878
0.640814
0.639795
0.638877
0.638234
0.651509
0.650715
0.649912
0.649099
0.648277
0.647446
0.646607
0.645759
0.644903
0.644039
0.643167
0.642287
0.641398
0.640502
0.639597
0.638683
0.63776
0.636827
0.635885
0.634931
0.633966
0.63299
0.632002
0.631007
0.630015
0.629044
0.628151
0.627411
0.62705
0.638366
0.637644
0.636915
0.636179
0.635437
0.634689
0.633936
0.633178
0.632415
0.631647
0.630875
0.630098
0.629317
0.628532
0.627743
0.626949
0.626151
0.625347
0.624539
0.623725
0.622905
0.622079
0.621249
0.62042
0.619605
0.618831
0.618174
0.61774
0.617841
0.624991
0.62443
0.623864
0.623295
0.622724
0.62215
0.621575
0.620999
0.620422
0.619844
0.619267
0.618689
0.618111
0.617534
0.616957
0.61638
0.615804
0.615228
0.614651
0.614074
0.613496
0.612918
0.612343
0.611775
0.611234
0.610752
0.610433
0.610426
0.611176
0.613939
0.613578
0.613216
0.612853
0.612491
0.61213
0.611772
0.611415
0.611061
0.61071
0.610362
0.610017
0.609676
0.609338
0.609005
0.608675
0.608349
0.608027
0.607708
0.607392
0.607079
0.606769
0.606466
0.606176
0.60592
0.605741
0.605771
0.606224
0.607754
0.607103
0.606932
0.606765
0.6066
0.60644
0.606284
0.606132
0.605986
0.605846
0.605712
0.605584
0.605462
0.605347
0.60524
0.605139
0.605046
0.604959
0.60488
0.604807
0.60474
0.604679
0.604625
0.604581
0.604554
0.604567
0.604671
0.605033
0.605952
0.608395
0.605142
0.605177
0.605221
0.605271
0.605328
0.605393
0.605466
0.605548
0.605638
0.605738
0.605847
0.605966
0.606095
0.606234
0.606384
0.606543
0.606711
0.606889
0.607076
0.607271
0.607475
0.607689
0.607922
0.6082
0.608577
0.609259
0.610653
0.614185
0.609729
0.609983
0.610245
0.610515
0.610796
0.611087
0.611389
0.611702
0.612027
0.612364
0.612713
0.613075
0.613449
0.613836
0.614236
0.614649
0.615073
0.615509
0.615956
0.616412
0.616876
0.617352
0.617845
0.61838
0.619019
0.619999
0.621866
0.626706
0.623021
0.623506
0.624002
0.624508
0.625028
0.62556
0.626106
0.626665
0.62724
0.627829
0.628433
0.629053
0.629688
0.630339
0.631005
0.631686
0.632381
0.633089
0.633808
0.634536
0.635272
0.636016
0.636771
0.637561
0.638448
0.639701
0.642023
0.648454
0.648937
0.649679
0.650434
0.651204
0.651989
0.65279
0.653608
0.654443
0.655296
0.656166
0.657055
0.657963
0.658888
0.659832
0.660794
0.661772
0.662767
0.663774
0.664793
0.66582
0.666849
0.66788
0.66891
0.669959
0.67108
0.672576
0.675306
0.683713
0.694919
0.695969
0.697037
0.698123
0.699227
0.700351
0.701496
0.702662
0.703849
0.705058
0.706289
0.707542
0.708817
0.710113
0.71143
0.712765
0.714117
0.715482
0.716856
0.718234
0.719606
0.720966
0.722302
0.723627
0.72497
0.726667
0.729713
0.74065
0.777371
0.778838
0.780327
0.78184
0.783377
0.784939
0.786527
0.788141
0.789782
0.79145
0.793145
0.794867
0.796615
0.798388
0.800185
0.802002
0.803837
0.805682
0.807531
0.809374
0.811194
0.812977
0.814692
0.816339
0.817892
0.819723
0.822877
0.837155
0.941443
0.943593
0.945775
0.947989
0.950236
0.952517
0.954834
0.957186
0.959573
0.961997
0.964456
0.96695
0.969477
0.972036
0.974621
0.977229
0.979853
0.98248
0.985098
0.987686
0.990215
0.992649
0.994922
0.997002
0.998735
1.00052
1.00322
1.02177
1.37009
1.37383
1.37762
1.38147
1.38536
1.38932
1.39333
1.3974
1.40153
1.40571
1.40995
1.41424
1.41857
1.42295
1.42737
1.4318
1.43624
1.44066
1.44502
1.44928
1.45336
1.45717
1.46055
1.46331
1.46499
1.46568
1.46537
1.48407
3.61486
3.62609
3.63748
3.64901
3.6607
3.67254
3.68454
3.69669
3.70899
3.72143
3.734
3.74669
3.75946
3.77229
3.78513
3.79792
3.81056
3.82292
3.83484
3.84603
3.85614
3.8645
3.87043
3.87158
3.86705
3.84436
3.79724
3.63472
1.71113
1.76244
1.81447
1.86128
1.89893
1.93203
1.96459
1.99763
2.03132
2.06609
2.10232
2.1402
2.18046
2.22349
2.26991
2.3204
2.37601
2.43722
2.50608
2.58093
2.67025
2.75824
2.8901
2.97493
3.27138
0.81663
0.819002
0.824878
0.834021
0.844529
0.855176
0.865786
0.876492
0.887368
0.898459
0.90983
0.921567
0.933972
0.947085
0.961028
0.976033
0.992323
1.01026
1.02992
1.05216
1.07661
1.10524
1.13704
1.17764
1.22715
0.663966
0.665142
0.6675
0.671545
0.676831
0.682668
0.688725
0.694921
0.701225
0.707616
0.714098
0.720707
0.727555
0.734714
0.74226
0.750321
0.759031
0.768586
0.779056
0.790862
0.803811
0.819029
0.835423
0.857284
0.878657
0.619085
0.620376
0.621997
0.624468
0.627763
0.631557
0.635616
0.639836
0.644158
0.648538
0.652955
0.657418
0.661979
0.666696
0.671626
0.676861
0.682501
0.688682
0.695474
0.703133
0.711573
0.721491
0.732153
0.746462
0.759356
0.606179
0.60762
0.60903
0.610827
0.613124
0.615788
0.618684
0.621733
0.624875
0.628062
0.631266
0.634479
0.637726
0.641048
0.644491
0.648126
0.652034
0.65632
0.661053
0.66641
0.672356
0.679377
0.68695
0.697205
0.706124
0.606319
0.607834
0.609172
0.610635
0.612367
0.614336
0.616477
0.618741
0.621081
0.623454
0.62583
0.628196
0.630559
0.632949
0.635402
0.637976
0.640738
0.643775
0.647149
0.650998
0.655309
0.660457
0.66603
0.673719
0.680274
0.612601
0.614117
0.61541
0.616687
0.618076
0.619594
0.62122
0.62293
0.624692
0.626473
0.628245
0.629991
0.631713
0.633429
0.635169
0.636978
0.638915
0.641054
0.643451
0.64622
0.649354
0.653171
0.657312
0.663208
0.668138
0.621902
0.623365
0.624609
0.625764
0.626933
0.628148
0.629415
0.630725
0.632062
0.6334
0.634717
0.635995
0.637233
0.638442
0.639645
0.640881
0.642198
0.643661
0.645319
0.647274
0.649517
0.652332
0.655383
0.659945
0.663651
0.632612
0.633987
0.635167
0.636229
0.637246
0.638254
0.639266
0.640287
0.641308
0.642313
0.643283
0.644205
0.645073
0.645894
0.646686
0.647482
0.648323
0.649265
0.650351
0.651674
0.653219
0.655256
0.657446
0.660976
0.663702
0.643825
0.645092
0.646195
0.647175
0.648081
0.648941
0.649772
0.650583
0.651371
0.652127
0.652835
0.653485
0.65407
0.654594
0.655072
0.655529
0.656001
0.656538
0.657175
0.658001
0.658992
0.660411
0.661906
0.664614
0.666527
0.655004
0.656154
0.657172
0.658075
0.658892
0.659644
0.660346
0.661005
0.661624
0.662195
0.662709
0.663154
0.663526
0.663826
0.664064
0.664263
0.66445
0.664672
0.664957
0.665389
0.665936
0.666859
0.667787
0.669826
0.67105
0.665822
0.666853
0.667781
0.66861
0.669354
0.670025
0.670632
0.671184
0.671682
0.672121
0.672493
0.672789
0.673004
0.673138
0.673197
0.673201
0.673173
0.673152
0.673161
0.673283
0.673474
0.673997
0.674458
0.675948
0.67658
0.676079
0.676994
0.677833
0.67859
0.67927
0.679878
0.680418
0.680894
0.681308
0.681655
0.681928
0.68212
0.682224
0.682239
0.682171
0.682033
0.681844
0.68164
0.681437
0.681315
0.681222
0.681422
0.681498
0.682534
0.682653
0.685656
0.686461
0.687213
0.687903
0.688527
0.689084
0.689575
0.690001
0.690359
0.690645
0.690854
0.690977
0.691008
0.690944
0.690788
0.690551
0.690248
0.689909
0.689545
0.689235
0.688917
0.688858
0.688617
0.689275
0.688949
0.694486
0.695191
0.695862
0.696488
0.697062
0.697578
0.698034
0.698426
0.69875
0.699001
0.699171
0.699254
0.699242
0.69913
0.69892
0.69862
0.698239
0.697806
0.697324
0.696871
0.696377
0.696113
0.695611
0.695956
0.695243
0.70254
0.703154
0.703749
0.704317
0.704846
0.70533
0.70576
0.706131
0.706437
0.706671
0.706825
0.70689
0.706858
0.706725
0.706488
0.706152
0.705724
0.705228
0.704664
0.704106
0.703477
0.70305
0.702335
0.70242
0.701372
0.709809
0.710342
0.710871
0.711386
0.711876
0.712332
0.712744
0.713105
0.713405
0.713635
0.713788
0.713852
0.71382
0.713684
0.713441
0.713092
0.712641
0.712109
0.71149
0.710858
0.710126
0.709573
0.708686
0.708555
0.707218
0.716304
0.716767
0.717237
0.717704
0.71816
0.718594
0.718994
0.71935
0.719653
0.71989
0.720053
0.720129
0.72011
0.719986
0.719752
0.719408
0.718953
0.718404
0.717753
0.717071
0.716265
0.715614
0.714589
0.714281
0.712695
0.722044
0.722447
0.722866
0.723293
0.723719
0.724135
0.724527
0.724884
0.725194
0.725445
0.725626
0.725723
0.725726
0.725625
0.725412
0.725084
0.724638
0.724088
0.723421
0.722709
0.72185
0.721126
0.719991
0.719538
0.717739
0.727057
0.727409
0.727784
0.728176
0.728577
0.728978
0.729365
0.729727
0.730048
0.730317
0.73052
0.730643
0.730675
0.730603
0.730418
0.730115
0.729687
0.729147
0.728478
0.727749
0.726854
0.726076
0.724854
0.724283
0.722304
0.731371
0.73168
0.732018
0.732381
0.732762
0.733151
0.733536
0.733903
0.734239
0.734527
0.734755
0.734907
0.73497
0.73493
0.734777
0.734503
0.734099
0.733576
0.732912
0.732178
0.73126
0.730442
0.729152
0.728485
0.726357
0.735017
0.735291
0.735599
0.735938
0.736302
0.736682
0.737067
0.737441
0.73779
0.738099
0.738351
0.738532
0.738626
0.738619
0.738498
0.738255
0.737877
0.737373
0.736721
0.735987
0.735055
0.73421
0.732868
0.732123
0.729872
0.738023
0.738268
0.738552
0.738872
0.739223
0.739597
0.739982
0.740364
0.740726
0.741054
0.74133
0.741537
0.74166
0.741684
0.741594
0.741379
0.741027
0.740544
0.739904
0.739174
0.738235
0.73737
0.735988
0.735181
0.732833
0.740414
0.740638
0.740903
0.741209
0.74155
0.74192
0.742307
0.742695
0.74307
0.743414
0.74371
0.743941
0.74409
0.74414
0.744076
0.743887
0.743557
0.743092
0.742465
0.74174
0.740797
0.739916
0.738506
0.737649
0.735226
0.742212
0.742421
0.742673
0.742969
0.743304
0.743672
0.744061
0.744456
0.744841
0.745199
0.745511
0.745761
0.745929
0.746001
0.745957
0.745788
0.745475
0.745024
0.744406
0.743685
0.74274
0.741847
0.740418
0.739518
0.737045
0.743435
0.743634
0.743879
0.744169
0.744502
0.744869
0.745261
0.745661
0.746054
0.746422
0.746746
0.747008
0.747191
0.747276
0.747247
0.747089
0.746788
0.746344
0.745732
0.745012
0.744065
0.743161
0.741721
0.740783
0.738286
0.744094
0.74429
0.744533
0.744822
0.745155
0.745524
0.745918
0.746323
0.746721
0.747095
0.747426
0.747695
0.747884
0.747975
0.747951
0.747798
0.7475
0.747058
0.746446
0.745723
0.744774
0.743858
0.742415
0.741441
0.738948
0.744207
0.744406
0.744653
0.744946
0.745283
0.745656
0.746054
0.746461
0.746862
0.747238
0.74757
0.747839
0.748026
0.748115
0.748088
0.747931
0.747627
0.747178
0.746561
0.74583
0.744878
0.743948
0.74251
0.741501
0.739036
0.743533
0.743745
0.744004
0.744308
0.744654
0.745034
0.745436
0.745845
0.746245
0.746616
0.746941
0.7472
0.747376
0.74745
0.747407
0.747232
0.74691
0.746445
0.745813
0.745068
0.74411
0.743168
0.74174
0.740711
0.738296
0.742056
0.742291
0.742569
0.74289
0.74325
0.743639
0.744046
0.744455
0.74485
0.745211
0.745521
0.745761
0.745913
0.745962
0.74589
0.745686
0.745336
0.744845
0.744191
0.743428
0.742461
0.741514
0.740099
0.739075
0.736721
0.739759
0.740025
0.740332
0.740677
0.741055
0.741457
0.741869
0.742276
0.742661
0.743007
0.743294
0.743506
0.743626
0.743638
0.743528
0.743284
0.742897
0.742371
0.74169
0.740908
0.739933
0.738987
0.737591
0.736594
0.734321
0.736615
0.736922
0.737266
0.737642
0.738043
0.73846
0.738878
0.739282
0.739655
0.739979
0.740238
0.740415
0.740494
0.740461
0.740304
0.740013
0.739582
0.739017
0.738306
0.737505
0.736524
0.735587
0.734222
0.733274
0.731109
0.732587
0.732947
0.733336
0.733751
0.734181
0.734615
0.73504
0.73544
0.735798
0.736098
0.736324
0.73646
0.736493
0.736409
0.736199
0.735857
0.735378
0.734774
0.734034
0.733217
0.732239
0.731324
0.730005
0.72913
0.727104
0.727635
0.728059
0.728504
0.728964
0.729428
0.729884
0.730316
0.730711
0.731053
0.731327
0.731517
0.73161
0.731594
0.731458
0.731194
0.7308
0.730275
0.729634
0.728871
0.728049
0.727085
0.726208
0.724957
0.724184
0.722332
0.721715
0.722215
0.722726
0.723239
0.723742
0.724222
0.724664
0.725056
0.725382
0.725629
0.725785
0.725836
0.725773
0.725586
0.725272
0.724831
0.724266
0.723599
0.722825
0.722011
0.72108
0.720264
0.719108
0.71847
0.716835
0.714783
0.715373
0.71596
0.716534
0.717082
0.717589
0.718043
0.718433
0.718746
0.71897
0.719096
0.719111
0.719007
0.718778
0.718423
0.717946
0.717356
0.716677
0.71591
0.715128
0.714256
0.713529
0.712502
0.71204
0.710669
0.706805
0.707498
0.708171
0.708813
0.709409
0.709947
0.710417
0.710809
0.711115
0.711325
0.711429
0.711419
0.711288
0.711032
0.710652
0.710158
0.709563
0.708896
0.708164
0.707444
0.706663
0.706064
0.705208
0.704971
0.70392
0.697762
0.698572
0.699339
0.700053
0.700702
0.701275
0.701765
0.702168
0.702477
0.702685
0.702784
0.702768
0.702629
0.702368
0.701989
0.701505
0.700934
0.700312
0.699651
0.699032
0.698386
0.697963
0.697331
0.697379
0.696709
0.687662
0.688598
0.689466
0.690256
0.690961
0.691573
0.692092
0.692517
0.692845
0.693072
0.69319
0.693194
0.693078
0.692844
0.692499
0.692062
0.691556
0.691023
0.690479
0.690012
0.689556
0.689368
0.689023
0.689429
0.689212
0.676556
0.677625
0.678594
0.679463
0.680225
0.680884
0.681444
0.68191
0.682283
0.682558
0.68273
0.682791
0.682738
0.682573
0.682308
0.681967
0.681577
0.681189
0.680822
0.680571
0.680372
0.680494
0.680513
0.681369
0.681686
0.664559
0.665762
0.666831
0.667776
0.668602
0.669318
0.669939
0.670476
0.670929
0.671295
0.671567
0.671736
0.671799
0.67176
0.671634
0.67145
0.671243
0.67107
0.670955
0.671001
0.671144
0.67167
0.672146
0.673565
0.674511
0.651893
0.653226
0.654388
0.655407
0.656303
0.657098
0.657814
0.658465
0.659051
0.659567
0.660002
0.660345
0.660593
0.660751
0.66084
0.660893
0.660953
0.661083
0.661314
0.66176
0.66235
0.663397
0.664445
0.666578
0.668259
0.639507
0.640959
0.642198
0.64329
0.64427
0.645175
0.646033
0.646857
0.647643
0.648379
0.649051
0.649644
0.650155
0.65059
0.650976
0.651353
0.651769
0.652299
0.652977
0.653929
0.655076
0.656771
0.658506
0.661512
0.664027
0.628544
0.630094
0.631392
0.63256
0.633651
0.63471
0.635767
0.636827
0.637879
0.638904
0.63988
0.640792
0.641634
0.642417
0.643171
0.643947
0.644797
0.645808
0.647017
0.648565
0.650363
0.652806
0.655328
0.659329
0.662761
0.619584
0.621203
0.622543
0.623802
0.625045
0.626318
0.62764
0.629007
0.630396
0.631778
0.633126
0.634422
0.635662
0.636861
0.638055
0.639302
0.640664
0.642238
0.644064
0.6463
0.648845
0.652141
0.65556
0.660683
0.665147
0.613192
0.614842
0.616216
0.617596
0.619053
0.620612
0.622279
0.62403
0.625829
0.627639
0.629428
0.631177
0.632883
0.634568
0.636275
0.638071
0.640027
0.642252
0.644789
0.647816
0.651217
0.655486
0.659932
0.666328
0.671978
0.610019
0.611661
0.613068
0.614625
0.616378
0.618316
0.620417
0.622637
0.624924
0.627237
0.62954
0.631814
0.634061
0.63631
0.638611
0.641043
0.643687
0.646664
0.650023
0.65396
0.658348
0.663736
0.669371
0.677226
0.684277
0.610871
0.612468
0.613932
0.615753
0.617913
0.62034
0.622977
0.62576
0.628624
0.631523
0.634422
0.637306
0.640181
0.643085
0.646079
0.649252
0.652696
0.656549
0.660866
0.665864
0.671404
0.678099
0.68513
0.694693
0.703443
0.616826
0.618364
0.619948
0.622162
0.624873
0.627922
0.631217
0.634671
0.638216
0.641803
0.6454
0.648997
0.65261
0.656286
0.660096
0.664145
0.668538
0.67343
0.678882
0.685142
0.692053
0.700313
0.709017
0.720632
0.731518
0.629464
0.630975
0.632794
0.635589
0.639041
0.642879
0.646978
0.651242
0.655599
0.660005
0.664435
0.668887
0.673387
0.677995
0.682792
0.687904
0.693449
0.699606
0.706443
0.714247
0.722838
0.733029
0.743803
0.757965
0.771642
0.651292
0.652886
0.655147
0.658794
0.663242
0.668084
0.673184
0.678443
0.683796
0.689209
0.694667
0.70018
0.705786
0.711558
0.717595
0.724044
0.731043
0.7388
0.747391
0.757161
0.767893
0.780562
0.794008
0.811466
0.828973
0.686655
0.688581
0.691629
0.696538
0.702341
0.708493
0.714876
0.721409
0.72804
0.734751
0.741544
0.748441
0.7555
0.762806
0.770482
0.778703
0.787634
0.797523
0.80846
0.820867
0.834483
0.850505
0.867606
0.889567
0.912658
0.743895
0.74666
0.751106
0.757936
0.765648
0.77359
0.78172
0.789994
0.798383
0.806895
0.815552
0.824398
0.833509
0.842991
0.852999
0.863752
0.875448
0.888401
0.902715
0.918937
0.936745
0.957653
0.980176
1.00873
1.04068
0.841476
0.846136
0.853195
0.863148
0.873755
0.884372
0.895131
0.906049
0.917137
0.928435
0.940003
0.951913
0.96426
0.977191
0.99091
1.0057
1.02182
1.03969
1.05944
1.08183
1.10647
1.13532
1.16691
1.20611
1.25401
1.03017
1.03932
1.05208
1.06788
1.08355
1.09889
1.11437
1.1301
1.14614
1.16261
1.17962
1.1973
1.21576
1.23523
1.25602
1.27852
1.30313
1.33044
1.36071
1.39501
1.4331
1.4773
1.52732
1.58672
1.66959
1.51382
1.5373
1.56817
1.59882
1.62651
1.65353
1.6809
1.70882
1.73759
1.76742
1.79866
1.83139
1.86591
1.90266
1.94217
1.98516
2.03241
2.08492
2.14358
2.20971
2.28492
2.36962
2.47319
2.58264
2.77535
3.98268
4.11922
4.2786
4.38229
4.46518
4.55062
4.63763
4.72674
4.81975
4.9173
5.01999
5.12862
5.24432
5.36828
5.50263
5.64888
5.81166
5.99024
6.19697
6.41719
6.69511
6.95482
7.376
7.63232
8.5369
)
;

boundaryField
{
    inlet
    {
        type            fixedValue;
        value           nonuniform 0();
    }
    outlet
    {
        type            zeroGradient;
    }
    upperWall
    {
        Cmu             0.09;
        kappa           0.41;
        E               9.8;
        type            epsilonWallFunction;
        value           nonuniform List<scalar> 
53
(
3.61486
3.62609
3.63748
3.64901
3.6607
3.67254
3.68454
3.69669
3.70899
3.72143
3.734
3.74669
3.75946
3.77229
3.78513
3.79792
3.81056
3.82292
3.83484
3.84603
3.85614
3.8645
3.87043
3.87158
3.86705
3.84436
3.79724
3.63472
3.98268
4.11922
4.2786
4.38229
4.46518
4.55062
4.63763
4.72674
4.81975
4.9173
5.01999
5.12862
5.24432
5.36828
5.50263
5.64888
5.81166
5.99024
6.19697
6.41719
6.69511
6.95482
7.376
7.63232
8.5369
)
;
    }
    lowerWall
    {
        Cmu             0.09;
        kappa           0.41;
        E               9.8;
        type            epsilonWallFunction;
        value           nonuniform List<scalar> 
55
(
1.67881
1.68032
1.68185
1.6834
1.68497
1.68657
1.68817
1.68979
1.69142
1.69306
1.6947
1.69633
1.69795
1.69954
1.7011
1.70261
1.70404
1.70537
1.70655
1.70752
1.70821
1.7085
1.70822
1.70709
1.7047
1.70029
1.69249
1.67846
1.65294
1.60562
1.71113
1.76244
1.81447
1.86128
1.89893
1.93203
1.96459
1.99763
2.03132
2.06609
2.10232
2.1402
2.18046
2.22349
2.26991
2.3204
2.37601
2.43722
2.50608
2.58093
2.67025
2.75824
2.8901
2.97493
3.27138
)
;
    }
    frontAndBack
    {
        type            empty;
    }
    procBoundary0to1
    {
        type            processor;
        value           nonuniform List<scalar> 
59
(
1.67733
0.786417
0.648051
0.610647
0.602469
0.605926
0.614635
0.625729
0.637745
0.649876
0.661658
0.672633
0.672633
0.683007
0.692538
0.701189
0.709031
0.715927
0.721798
0.72677
0.730951
0.734429
0.737281
0.739569
0.741343
0.742645
0.743507
0.743955
0.744016
0.743567
0.742593
0.741075
0.738986
0.736293
0.732956
0.728927
0.724156
0.718585
0.712154
0.704909
0.696769
0.687425
0.676721
0.664872
0.652289
0.639078
0.625547
0.614295
0.607262
0.605105
0.605105
0.609477
0.622541