/*--------------------------------*- C++ -*----------------------------------*\
  =========                 |
  \\      /  F ield         | OpenFOAM: The Open Source CFD Toolbox
   \\    /   O peration     | Website:  https://openfoam.org
    \\  /    A nd           | Version:  6
     \\/     M anipulation  |
\*---------------------------------------------------------------------------*/
FoamFile
{
    version     2.0;
    format      ascii;
    class       volScalarField;
    location    "0.09";
    object      k;
}
// * * * * * * * * * * * * * * * * * * * * * * * * * * * * * * * * * * * * * //

dimensions      [0 2 -2 0 0 0 0];

internalField   nonuniform List<scalar> 
3080
(
0.0160171
0.01601
0.0160029
0.0159957
0.0159886
0.0159814
0.0159741
0.0159667
0.0159593
0.0159517
0.0159439
0.0159359
0.0159276
0.015919
0.0159101
0.0159006
0.0158904
0.0158794
0.0158673
0.0158538
0.0158383
0.0158201
0.0157982
0.0157709
0.0157357
0.0156878
0.015619
0.0155116
0.0153332
0.0150189
0.0300842
0.0300676
0.0300509
0.0300342
0.0300174
0.0300004
0.0299833
0.029966
0.0299485
0.0299308
0.0299127
0.0298942
0.0298753
0.0298559
0.0298358
0.0298149
0.029793
0.0297698
0.0297449
0.0297177
0.0296877
0.0296536
0.029614
0.0295664
0.0295068
0.0294287
0.0293189
0.0291575
0.0288833
0.0285572
0.0380677
0.0380458
0.0380239
0.0380018
0.0379797
0.0379574
0.0379349
0.0379122
0.0378893
0.037866
0.0378424
0.0378183
0.0377937
0.0377685
0.0377426
0.0377158
0.0376878
0.0376584
0.0376271
0.0375934
0.0375566
0.0375155
0.0374686
0.0374133
0.037346
0.0372603
0.0371449
0.0369817
0.036729
0.0363992
0.0438838
0.0438579
0.043832
0.043806
0.0437799
0.0437536
0.0437271
0.0437004
0.0436734
0.043646
0.0436183
0.04359
0.0435613
0.0435318
0.0435016
0.0434704
0.0434381
0.0434042
0.0433685
0.0433304
0.043289
0.0432433
0.0431918
0.0431322
0.043061
0.0429726
0.0428576
0.0427016
0.0424785
0.0421961
0.0486179
0.048589
0.04856
0.0485308
0.0485016
0.0484722
0.0484425
0.0484126
0.0483824
0.0483518
0.0483207
0.0482892
0.0482572
0.0482244
0.0481908
0.0481563
0.0481205
0.0480832
0.048044
0.0480023
0.0479575
0.0479084
0.0478535
0.0477908
0.0477169
0.047627
0.0475132
0.0473642
0.0471634
0.0469209
0.0526601
0.0526288
0.0525973
0.0525658
0.0525341
0.0525022
0.0524701
0.0524377
0.052405
0.0523719
0.0523383
0.0523043
0.0522696
0.0522343
0.0521981
0.0521609
0.0521224
0.0520825
0.0520406
0.0519963
0.0519487
0.051897
0.0518397
0.0517748
0.0516993
0.0516088
0.0514969
0.0513545
0.0511714
0.0509594
0.0561949
0.0561617
0.0561285
0.0560951
0.0560616
0.0560279
0.0559939
0.0559596
0.0559251
0.0558901
0.0558546
0.0558187
0.0557821
0.0557448
0.0557066
0.0556675
0.0556271
0.0555852
0.0555413
0.0554951
0.0554456
0.0553922
0.0553332
0.055267
0.0551908
0.0551007
0.0549912
0.0548556
0.0546873
0.0544995
0.0593256
0.0592912
0.0592567
0.0592221
0.0591873
0.0591523
0.0591171
0.0590816
0.0590457
0.0590094
0.0589726
0.0589353
0.0588974
0.0588588
0.0588193
0.0587788
0.0587371
0.0586938
0.0586487
0.0586012
0.0585506
0.058496
0.0584363
0.0583696
0.0582935
0.0582047
0.0580986
0.0579698
0.0578148
0.0576468
0.0621178
0.0620827
0.0620474
0.0620121
0.0619766
0.0619408
0.0619048
0.0618685
0.0618318
0.0617948
0.0617572
0.0617192
0.0616805
0.061641
0.0616008
0.0615595
0.061517
0.061473
0.0614272
0.0613791
0.061328
0.0612731
0.0612133
0.0611469
0.0610718
0.060985
0.0608829
0.0607614
0.0606186
0.0604676
0.0646165
0.0645812
0.0645457
0.06451
0.0644742
0.0644382
0.0644019
0.0643653
0.0643284
0.064291
0.0642532
0.0642148
0.0641758
0.0641361
0.0640956
0.0640541
0.0640114
0.0639672
0.0639213
0.0638731
0.0638222
0.0637675
0.0637083
0.0636429
0.0635695
0.0634856
0.0633881
0.063274
0.0631428
0.0630067
0.0668553
0.0668201
0.0667848
0.0667493
0.0667136
0.0666778
0.0666416
0.0666052
0.0665684
0.0665312
0.0664935
0.0664553
0.0664165
0.066377
0.0663367
0.0662954
0.0662529
0.0662091
0.0661636
0.0661159
0.0660656
0.0660118
0.0659537
0.06589
0.065819
0.0657385
0.0656462
0.0655397
0.0654194
0.0652967
0.0688256
0.0687908
0.0687559
0.0687208
0.0686854
0.0686499
0.0686139
0.0685777
0.068541
0.0685039
0.0684663
0.0684281
0.0683892
0.0683495
0.0683089
0.0682672
0.0682241
0.0681794
0.0681327
0.0680836
0.0680312
0.0679748
0.0679133
0.0678452
0.0677687
0.0676818
0.0675831
0.0674733
0.0673628
0.070619
0.0705851
0.0705511
0.0705169
0.0704824
0.0704477
0.0704127
0.0703774
0.0703416
0.0703055
0.0702688
0.0702315
0.0701936
0.0701549
0.0701154
0.0700748
0.0700329
0.0699895
0.0699442
0.0698966
0.0698461
0.0697919
0.069733
0.0696682
0.0695961
0.0695151
0.069424
0.0693242
0.069225
0.0722182
0.0721856
0.0721528
0.0721197
0.0720865
0.072053
0.0720193
0.0719851
0.0719506
0.0719157
0.0718803
0.0718444
0.0718078
0.0717705
0.0717323
0.0716931
0.0716528
0.0716111
0.0715676
0.0715219
0.0714736
0.071422
0.0713661
0.0713051
0.0712377
0.0711626
0.0710792
0.070989
0.0709002
0.0736389
0.0736077
0.0735764
0.0735449
0.0735131
0.0734812
0.0734489
0.0734163
0.0733833
0.07335
0.0733161
0.0732818
0.0732468
0.0732111
0.0731747
0.0731373
0.0730988
0.073059
0.0730177
0.0729743
0.0729285
0.0728798
0.0728273
0.0727703
0.0727078
0.0726387
0.0725629
0.0724817
0.0724026
0.0749066
0.0748768
0.0748469
0.0748167
0.0747864
0.0747558
0.0747249
0.0746937
0.0746622
0.0746302
0.0745978
0.0745649
0.0745315
0.0744973
0.0744625
0.0744267
0.07439
0.074352
0.0743125
0.0742713
0.0742279
0.0741818
0.0741325
0.0740793
0.0740213
0.0739579
0.0738889
0.0738159
0.0737453
0.0760091
0.0759813
0.0759533
0.0759252
0.0758968
0.0758682
0.0758394
0.0758102
0.0757807
0.0757508
0.0757204
0.0756896
0.0756583
0.0756263
0.0755937
0.0755602
0.0755259
0.0754903
0.0754535
0.0754151
0.0753748
0.0753321
0.0752866
0.0752376
0.0751847
0.0751274
0.0750655
0.0750007
0.0749386
0.0769414
0.0769165
0.0768915
0.0768664
0.076841
0.0768155
0.0767896
0.0767636
0.0767371
0.0767104
0.0766833
0.0766557
0.0766276
0.076599
0.0765698
0.0765398
0.076509
0.0764772
0.0764442
0.0764098
0.0763738
0.0763357
0.0762952
0.0762519
0.0762052
0.076155
0.0761012
0.0760454
0.0759924
0.0777273
0.077706
0.0776845
0.0776629
0.0776411
0.0776191
0.077597
0.0775745
0.0775518
0.0775289
0.0775055
0.0774818
0.0774577
0.077433
0.0774079
0.0773821
0.0773555
0.0773281
0.0772997
0.0772701
0.077239
0.0772063
0.0771715
0.0771343
0.0770945
0.0770518
0.0770065
0.0769599
0.0769161
0.0783862
0.0783685
0.0783508
0.0783329
0.0783149
0.0782968
0.0782785
0.07826
0.0782413
0.0782223
0.0782031
0.0781835
0.0781635
0.0781432
0.0781223
0.078101
0.078079
0.0780563
0.0780327
0.0780081
0.0779823
0.0779551
0.0779262
0.0778954
0.0778625
0.0778275
0.0777905
0.0777529
0.0777182
0.0789335
0.0789195
0.0789055
0.0788914
0.0788772
0.0788628
0.0788484
0.0788338
0.078819
0.0788041
0.0787889
0.0787734
0.0787576
0.0787415
0.078725
0.0787081
0.0786906
0.0786725
0.0786538
0.0786342
0.0786136
0.0785918
0.0785687
0.0785442
0.078518
0.0784903
0.0784613
0.0784322
0.0784058
0.0793819
0.0793714
0.0793609
0.0793503
0.0793397
0.079329
0.0793181
0.0793072
0.0792962
0.079285
0.0792736
0.0792621
0.0792502
0.0792382
0.0792258
0.079213
0.0791998
0.0791862
0.0791719
0.079157
0.0791413
0.0791247
0.079107
0.0790883
0.0790684
0.0790474
0.0790257
0.0790042
0.0789855
0.0797417
0.0797344
0.079727
0.0797196
0.0797121
0.0797047
0.0796971
0.0796896
0.0796819
0.0796741
0.0796662
0.0796581
0.0796498
0.0796414
0.0796327
0.0796237
0.0796144
0.0796047
0.0795945
0.0795838
0.0795725
0.0795605
0.0795477
0.0795342
0.0795198
0.0795047
0.0794895
0.0794748
0.0794627
0.0800212
0.0800165
0.0800118
0.0800071
0.0800024
0.0799977
0.079993
0.0799883
0.0799834
0.0799786
0.0799736
0.0799685
0.0799633
0.079958
0.0799524
0.0799466
0.0799406
0.0799343
0.0799276
0.0799205
0.079913
0.0799049
0.0798963
0.0798871
0.0798774
0.0798674
0.0798575
0.0798485
0.079842
0.080227
0.0802244
0.0802219
0.0802194
0.0802169
0.0802144
0.0802119
0.0802094
0.0802069
0.0802043
0.0802017
0.080199
0.0801962
0.0801933
0.0801903
0.0801871
0.0801837
0.08018
0.0801761
0.0801719
0.0801674
0.0801624
0.0801571
0.0801514
0.0801454
0.0801394
0.0801338
0.0801293
0.0801271
0.0803644
0.0803634
0.0803623
0.0803614
0.0803604
0.0803595
0.0803586
0.0803577
0.0803568
0.0803559
0.0803549
0.0803539
0.0803529
0.0803517
0.0803505
0.0803491
0.0803475
0.0803458
0.0803439
0.0803417
0.0803392
0.0803365
0.0803335
0.0803303
0.080327
0.0803238
0.0803212
0.0803199
0.0803209
0.0804375
0.0804373
0.0804372
0.0804371
0.080437
0.0804369
0.0804369
0.0804369
0.0804369
0.0804368
0.0804368
0.0804367
0.0804366
0.0804364
0.0804361
0.0804357
0.0804351
0.0804345
0.0804336
0.0804325
0.0804312
0.0804297
0.080428
0.0804262
0.0804243
0.0804227
0.0804219
0.0804223
0.0804252
0.0804505
0.0804505
0.0804505
0.0804505
0.0804506
0.0804506
0.0804507
0.0804508
0.0804509
0.0804509
0.080451
0.080451
0.0804509
0.0804508
0.0804506
0.0804503
0.0804499
0.0804493
0.0804485
0.0804476
0.0804464
0.0804451
0.0804435
0.0804418
0.0804402
0.0804389
0.0804383
0.0804392
0.0804425
0.0803827
0.0803817
0.0803806
0.0803796
0.0803785
0.0803774
0.0803764
0.0803752
0.0803741
0.0803729
0.0803717
0.0803704
0.080369
0.0803675
0.080366
0.0803642
0.0803624
0.0803603
0.0803581
0.0803556
0.0803529
0.0803499
0.0803466
0.0803432
0.0803397
0.0803365
0.0803339
0.0803328
0.0803344
0.080231
0.0802278
0.0802246
0.0802212
0.0802178
0.0802144
0.0802108
0.0802073
0.0802036
0.0801998
0.080196
0.080192
0.0801879
0.0801837
0.0801792
0.0801747
0.0801698
0.0801648
0.0801594
0.0801538
0.0801478
0.0801414
0.0801346
0.0801275
0.0801202
0.0801129
0.0801061
0.0801007
0.0800983
0.0799924
0.0799859
0.0799792
0.0799723
0.0799654
0.0799583
0.0799511
0.0799437
0.0799362
0.0799286
0.0799207
0.0799127
0.0799045
0.0798961
0.0798874
0.0798785
0.0798692
0.0798596
0.0798496
0.0798391
0.0798282
0.0798166
0.0798045
0.0797918
0.0797786
0.0797651
0.0797519
0.0797399
0.0797314
0.0796626
0.0796515
0.0796402
0.0796287
0.0796169
0.0796049
0.0795928
0.0795804
0.0795677
0.0795548
0.0795417
0.0795282
0.0795145
0.0795004
0.079486
0.0794712
0.079456
0.0794403
0.079424
0.0794071
0.0793895
0.0793711
0.0793518
0.0793316
0.0793105
0.0792886
0.0792666
0.0792457
0.0792287
0.0792362
0.0792194
0.0792022
0.0791847
0.0791669
0.0791488
0.0791303
0.0791115
0.0790924
0.0790729
0.079053
0.0790328
0.0790121
0.0789909
0.0789693
0.0789471
0.0789243
0.0789009
0.0788767
0.0788517
0.0788257
0.0787986
0.0787702
0.0787405
0.0787094
0.0786771
0.078644
0.0786117
0.078584
0.0787066
0.0786828
0.0786585
0.0786337
0.0786086
0.078583
0.0785569
0.0785303
0.0785033
0.0784758
0.0784478
0.0784192
0.07839
0.0783603
0.0783299
0.0782987
0.0782668
0.078234
0.0782002
0.0781653
0.0781292
0.0780915
0.0780522
0.078011
0.0779678
0.0779226
0.077876
0.0778298
0.0777889
0.0780656
0.0780335
0.0780008
0.0779675
0.0779336
0.0778992
0.0778641
0.0778283
0.077792
0.077755
0.0777173
0.0776789
0.0776397
0.0775998
0.077559
0.0775172
0.0774745
0.0774306
0.0773855
0.0773389
0.0772907
0.0772406
0.0771882
0.0771335
0.0770759
0.0770156
0.076953
0.0768903
0.0768336
0.0773038
0.0772621
0.0772196
0.0771763
0.0771323
0.0770875
0.0770419
0.0769956
0.0769484
0.0769003
0.0768514
0.0768016
0.0767508
0.076699
0.0766461
0.0765921
0.0765368
0.07648
0.0764217
0.0763616
0.0762994
0.0762348
0.0761675
0.0760969
0.0760228
0.075945
0.0758638
0.0757818
0.0757065
0.0764099
0.0763571
0.0763034
0.0762487
0.0761931
0.0761365
0.0760789
0.0760203
0.0759607
0.0759001
0.0758383
0.0757754
0.0757113
0.0756459
0.0755792
0.0755111
0.0754413
0.0753699
0.0752965
0.0752209
0.0751427
0.0750616
0.0749771
0.0748886
0.0747956
0.0746977
0.0745954
0.0744912
0.0743945
0.0753707
0.0753054
0.075239
0.0751714
0.0751026
0.0750326
0.0749615
0.0748891
0.0748154
0.0747404
0.0746641
0.0745864
0.0745072
0.0744265
0.0743441
0.07426
0.074174
0.0740859
0.0739954
0.0739023
0.0738061
0.0737064
0.0736026
0.0734939
0.0733796
0.0732592
0.0731328
0.0730035
0.0728823
0.0741876
0.0741079
0.0740268
0.0739443
0.0738603
0.0737749
0.073688
0.0735996
0.0735097
0.0734182
0.073325
0.0732302
0.0731336
0.0730351
0.0729346
0.072832
0.0727272
0.0726198
0.0725096
0.0723963
0.0722793
0.0721582
0.0720321
0.0719002
0.0717616
0.0716153
0.0714615
0.0713031
0.0711533
0.0728395
0.0727435
0.0726458
0.0725464
0.0724453
0.0723424
0.0722378
0.0721313
0.072023
0.0719127
0.0718005
0.0716863
0.0715699
0.0714513
0.0713304
0.0712069
0.0710807
0.0709515
0.070819
0.0706828
0.0705424
0.0703971
0.070246
0.070088
0.069922
0.0697468
0.0695621
0.069371
0.0691884
0.0712624
0.0711492
0.071034
0.0709168
0.0707975
0.0706763
0.0705529
0.0704274
0.0702997
0.0701697
0.0700375
0.0699029
0.0697657
0.069626
0.0694835
0.0693381
0.0691895
0.0690375
0.0688816
0.0687215
0.0685566
0.068386
0.0682088
0.0680237
0.0678293
0.067624
0.0674071
0.0671813
0.0669638
0.0694059
0.069275
0.0691419
0.0690065
0.0688688
0.0687288
0.0685863
0.0684414
0.068294
0.0681441
0.0679914
0.0678361
0.0676779
0.0675167
0.0673524
0.0671848
0.0670136
0.0668385
0.0666591
0.066475
0.0662853
0.0660894
0.065886
0.0656738
0.0654509
0.0652154
0.0649662
0.0647053
0.0644516
0.067268
0.0671213
0.066972
0.0668203
0.066666
0.0665091
0.0663496
0.0661873
0.0660224
0.0658546
0.0656839
0.0655101
0.0653333
0.0651531
0.0649696
0.0647823
0.0645912
0.0643958
0.0641957
0.0639904
0.0637791
0.0635609
0.0633347
0.0630987
0.0628509
0.0625888
0.0623108
0.0620178
0.0617308
0.0648674
0.0647099
0.0645498
0.0643871
0.0642217
0.0640537
0.0638828
0.0637092
0.0635327
0.0633533
0.0631708
0.0629852
0.0627963
0.0626041
0.0624082
0.0622085
0.0620047
0.0617965
0.0615835
0.0613649
0.0611401
0.0609081
0.0606676
0.0604167
0.0601531
0.0598739
0.0595769
0.0592613
0.0589504
0.0621283
0.0619681
0.0618053
0.06164
0.0614722
0.0613017
0.0611285
0.0609526
0.0607739
0.0605924
0.0604079
0.0602204
0.0600297
0.0598356
0.0596381
0.0594369
0.0592316
0.059022
0.0588075
0.0585877
0.0583616
0.0581283
0.0578863
0.0576337
0.057368
0.0570855
0.0567838
0.05646
0.0561396
0.0589208
0.0587699
0.0586168
0.0584615
0.0583039
0.058144
0.0579818
0.0578172
0.0576501
0.0574805
0.0573083
0.0571334
0.0569557
0.0567751
0.0565914
0.0564043
0.0562136
0.056019
0.05582
0.0556159
0.0554061
0.0551893
0.0549642
0.0547287
0.0544801
0.0542141
0.053928
0.0536161
0.0533067
0.0554945
0.0553597
0.055223
0.0550844
0.0549439
0.0548015
0.054657
0.0545106
0.0543621
0.0542114
0.0540586
0.0539035
0.053746
0.053586
0.0534233
0.0532578
0.0530891
0.0529169
0.0527407
0.0525601
0.052374
0.0521816
0.0519812
0.0517706
0.0515471
0.0513058
0.0510434
0.0507514
0.0504615
0.052213
0.0520909
0.0519671
0.0518417
0.0517145
0.0515857
0.0514552
0.0513228
0.0511887
0.0510527
0.0509148
0.0507749
0.0506329
0.0504886
0.050342
0.0501928
0.0500408
0.0498855
0.0497267
0.0495636
0.0493955
0.0492213
0.0490393
0.0488473
0.0486424
0.0484192
0.0481737
0.0478942
0.0476159
0.0488198
0.048709
0.0485968
0.0484831
0.048368
0.0482513
0.0481331
0.0480134
0.047892
0.0477689
0.047644
0.0475173
0.0473886
0.0472578
0.0471247
0.046989
0.0468503
0.0467084
0.0465625
0.0464118
0.0462553
0.0460913
0.0459174
0.0457306
0.0455249
0.0452958
0.0450276
0.0447594
0.0455401
0.0454421
0.0453429
0.0452424
0.0451406
0.0450375
0.044933
0.0448272
0.0447199
0.0446112
0.0445009
0.044389
0.0442753
0.0441597
0.044042
0.043922
0.0437993
0.0436736
0.0435441
0.0434102
0.0432706
0.0431237
0.0429672
0.0427977
0.0426087
0.0423952
0.0421369
0.0418761
0.0422301
0.0421444
0.0420576
0.0419698
0.0418808
0.0417906
0.0416993
0.0416068
0.041513
0.041418
0.0413215
0.0412237
0.0411243
0.0410231
0.0409201
0.040815
0.0407074
0.040597
0.0404831
0.0403649
0.0402414
0.0401108
0.0399706
0.0398175
0.0396445
0.0394454
0.0391952
0.0389381
0.0388475
0.0387734
0.0386985
0.0386226
0.0385457
0.0384678
0.038389
0.038309
0.038228
0.0381459
0.0380626
0.037978
0.037892
0.0378045
0.0377153
0.0376242
0.0375308
0.0374348
0.0373355
0.0372323
0.0371238
0.0370085
0.0368839
0.0367463
0.0365883
0.0364027
0.0361587
0.0359002
0.0353167
0.0352537
0.0351899
0.0351253
0.0350599
0.0349937
0.0349265
0.0348585
0.0347895
0.0347196
0.0346486
0.0345765
0.0345032
0.0344286
0.0343524
0.0342745
0.0341945
0.0341121
0.0340266
0.0339374
0.0338431
0.0337424
0.0336324
0.0335096
0.0333661
0.0331932
0.0329536
0.032688
0.0314983
0.0314459
0.0313928
0.031339
0.0312846
0.0312294
0.0311735
0.0311168
0.0310593
0.031001
0.0309418
0.0308817
0.0308204
0.030758
0.0306943
0.030629
0.0305618
0.0304923
0.0304201
0.0303443
0.0302638
0.030177
0.0300814
0.0299729
0.0298438
0.0296834
0.0294469
0.0291691
0.0270999
0.0270579
0.0270154
0.0269723
0.0269287
0.0268845
0.0268397
0.0267942
0.0267481
0.0267014
0.0266538
0.0266055
0.0265563
0.026506
0.0264546
0.0264018
0.0263473
0.0262908
0.0262318
0.0261696
0.0261029
0.0260304
0.0259495
0.0258562
0.0257428
0.0255962
0.0253642
0.0250756
0.0213507
0.0213203
0.0212896
0.0212584
0.0212269
0.0211949
0.0211624
0.0211295
0.0210961
0.0210621
0.0210276
0.0209925
0.0209567
0.02092
0.0208824
0.0208437
0.0208037
0.0207619
0.0207181
0.0206714
0.0206211
0.0205656
0.0205028
0.0204287
0.020337
0.0202123
0.0200009
0.0197449
0.0120302
0.0120187
0.0120071
0.0119952
0.0119832
0.011971
0.0119585
0.0119458
0.0119329
0.0119196
0.0119061
0.0118922
0.0118779
0.0118631
0.0118477
0.0118315
0.0118144
0.0117961
0.0117762
0.0117542
0.0117293
0.0117003
0.0116657
0.011621
0.0115644
0.0114711
0.011329
0.0109559
0.015558
0.0157768
0.0159897
0.0161619
0.0162717
0.0163469
0.0164105
0.0164679
0.0165197
0.0165674
0.0166128
0.0166558
0.0166987
0.0167427
0.0167893
0.0168403
0.0168987
0.0169646
0.0170448
0.0171287
0.0172498
0.0173361
0.0175699
0.0175763
0.0183482
0.0293044
0.0296468
0.0298302
0.0299668
0.0300594
0.0301144
0.0301462
0.0301624
0.0301651
0.0301555
0.0301345
0.0301025
0.0300596
0.0300095
0.0299546
0.0298967
0.029839
0.0297808
0.0297288
0.0296695
0.029635
0.029555
0.0295893
0.0294303
0.0299828
0.0369309
0.0372963
0.0375216
0.0376846
0.0377988
0.0378715
0.0379133
0.0379316
0.0379296
0.0379093
0.0378721
0.0378189
0.0377503
0.0376693
0.0375788
0.0374817
0.0373815
0.0372786
0.0371792
0.037072
0.0369829
0.0368561
0.0368179
0.036641
0.0370657
0.0425873
0.0429161
0.0431342
0.0432933
0.0434075
0.0434823
0.043525
0.0435411
0.0435338
0.0435048
0.0434555
0.043387
0.0433002
0.0431977
0.0430824
0.0429574
0.0428265
0.042691
0.042556
0.0424139
0.0422835
0.0421255
0.0420315
0.0418538
0.0421685
0.0472261
0.0475176
0.0477193
0.0478668
0.0479729
0.0480426
0.0480808
0.0480916
0.0480775
0.04804
0.0479801
0.0478988
0.0477972
0.0476772
0.0475419
0.0473945
0.0472385
0.047076
0.0469112
0.0467393
0.0465739
0.046388
0.0462477
0.0460622
0.0462845
0.0512062
0.0514648
0.0516493
0.051784
0.0518801
0.0519421
0.0519737
0.0519781
0.051957
0.0519115
0.0518425
0.0517505
0.0516367
0.0515026
0.0513511
0.0511853
0.0510086
0.0508234
0.0506334
0.0504357
0.0502402
0.0500289
0.0498491
0.0496505
0.0497926
0.0547029
0.0549322
0.0551001
0.0552225
0.0553087
0.0553626
0.0553874
0.0553854
0.0553578
0.0553055
0.0552288
0.0551283
0.0550048
0.0548596
0.0546953
0.0545147
0.0543213
0.0541173
0.0539061
0.0536863
0.053465
0.0532308
0.0530167
0.0528024
0.0528732
0.057816
0.0580188
0.0581706
0.0582816
0.0583585
0.058405
0.0584234
0.0584157
0.0583826
0.0583247
0.0582422
0.0581353
0.0580045
0.057851
0.0576769
0.057485
0.0572782
0.0570591
0.0568305
0.0565921
0.0563487
0.0560944
0.0558506
0.0556195
0.0556262
0.0606087
0.0607872
0.0609235
0.0610235
0.0610921
0.0611319
0.0611449
0.0611325
0.0610951
0.0610332
0.0609465
0.0608351
0.0606994
0.0605402
0.0603592
0.060159
0.0599422
0.0597113
0.0594687
0.0592151
0.0589532
0.0586815
0.0584119
0.0581639
0.0581126
0.0631243
0.0632804
0.0634018
0.0634914
0.0635523
0.0635864
0.0635949
0.0635788
0.0635385
0.063474
0.0633848
0.0632709
0.0631324
0.0629698
0.0627845
0.0625788
0.0623549
0.0621153
0.0618619
0.0615961
0.061319
0.0610325
0.0607407
0.0604765
0.0603725
0.0653944
0.06553
0.0656372
0.0657169
0.0657707
0.0657998
0.0658047
0.0657862
0.0657441
0.0656783
0.0655882
0.0654736
0.0653342
0.0651703
0.0649831
0.0647744
0.0645462
0.0643006
0.0640393
0.0637641
0.0634748
0.0631761
0.0628654
0.0625855
0.0624341
0.0674434
0.0675604
0.0676542
0.0677245
0.0677718
0.0677965
0.0677987
0.0677786
0.0677359
0.0676701
0.0675805
0.0674667
0.0673281
0.0671649
0.0669779
0.0667684
0.0665381
0.0662892
0.0660225
0.0657405
0.0654417
0.0651332
0.0648064
0.0645121
0.0643178
0.0692911
0.0693912
0.0694725
0.069534
0.0695753
0.0695962
0.0695963
0.0695755
0.0695331
0.0694684
0.0693806
0.0692689
0.0691327
0.0689718
0.0687867
0.0685784
0.0683482
0.0680979
0.0678283
0.0675418
0.0672359
0.0669197
0.0665794
0.0662721
0.0660391
0.0709539
0.0710388
0.0711086
0.0711619
0.0711977
0.0712153
0.071214
0.0711932
0.0711519
0.0710892
0.0710042
0.0708958
0.0707632
0.070606
0.0704242
0.0702187
0.0699904
0.0697407
0.06947
0.069181
0.0688702
0.0685482
0.0681968
0.067878
0.0676103
0.0724459
0.0725173
0.0725767
0.0726224
0.0726533
0.0726681
0.0726658
0.0726455
0.0726059
0.072546
0.0724646
0.0723604
0.0722324
0.07208
0.0719028
0.0717015
0.0714764
0.0712289
0.0709587
0.070669
0.070355
0.070029
0.0696686
0.0693397
0.0690411
0.0737794
0.0738389
0.073889
0.0739279
0.0739543
0.0739668
0.0739639
0.0739445
0.0739072
0.0738506
0.0737734
0.0736741
0.0735515
0.0734046
0.0732331
0.0730369
0.0728162
0.072572
0.0723038
0.0720147
0.0716992
0.0713705
0.0710031
0.0706655
0.0703393
0.0749653
0.0750145
0.0750564
0.0750893
0.0751118
0.0751222
0.0751192
0.075101
0.0750663
0.0750134
0.0749408
0.0748468
0.0747301
0.0745894
0.0744241
0.0742338
0.0740183
0.0737785
0.0735133
0.0732259
0.0729101
0.07258
0.072207
0.0718622
0.0715116
0.0760135
0.0760539
0.0760886
0.0761163
0.0761354
0.0761442
0.0761412
0.0761245
0.0760926
0.0760436
0.0759758
0.0758874
0.0757769
0.0756428
0.075484
0.0753
0.0750903
0.0748555
0.074594
0.0743092
0.0739942
0.0736636
0.0732865
0.0729355
0.0725635
0.076933
0.0769658
0.0769945
0.0770176
0.0770338
0.0770413
0.0770385
0.0770235
0.0769945
0.0769494
0.0768865
0.0768038
0.0766995
0.076572
0.0764199
0.0762425
0.0760389
0.0758093
0.0755521
0.0752705
0.0749568
0.0746265
0.0742464
0.0738903
0.0734999
0.0777318
0.0777583
0.0777817
0.077801
0.0778148
0.0778213
0.0778189
0.0778056
0.0777794
0.0777383
0.0776801
0.077603
0.0775048
0.0773837
0.0772382
0.0770673
0.0768697
0.0766456
0.0763928
0.0761146
0.0758029
0.0754734
0.0750911
0.074731
0.0743246
0.0784169
0.0784381
0.0784573
0.0784734
0.0784851
0.0784909
0.078489
0.0784774
0.0784539
0.0784165
0.078363
0.078291
0.0781986
0.0780837
0.0779445
0.0777797
0.077588
0.0773691
0.0771207
0.0768461
0.0765365
0.0762082
0.0758245
0.075461
0.0750412
0.0789947
0.0790116
0.0790272
0.0790407
0.0790509
0.0790562
0.0790548
0.0790448
0.079024
0.07899
0.0789406
0.0788735
0.0787863
0.078677
0.0785435
0.0783844
0.0781981
0.077984
0.0777399
0.0774686
0.0771613
0.0768342
0.0764497
0.0760835
0.0756526
0.0794706
0.079484
0.0794968
0.0795082
0.0795172
0.0795222
0.0795215
0.079513
0.0794944
0.0794635
0.0794178
0.0793549
0.0792724
0.0791679
0.0790395
0.0788854
0.0787038
0.078494
0.0782536
0.0779854
0.0776802
0.0773544
0.0769694
0.076601
0.0761612
0.0798489
0.0798597
0.0798704
0.0798803
0.0798885
0.0798934
0.0798933
0.0798861
0.0798695
0.0798412
0.0797986
0.0797392
0.0796605
0.0795602
0.079436
0.079286
0.0791083
0.0789021
0.0786648
0.0783991
0.0780957
0.0777711
0.0773859
0.0770156
0.076569
0.0801335
0.0801424
0.0801516
0.0801606
0.0801682
0.0801732
0.0801737
0.0801676
0.0801527
0.0801264
0.0800863
0.0800296
0.079954
0.0798568
0.0797357
0.0795889
0.0794141
0.0792107
0.0789757
0.0787119
0.07841
0.0780861
0.0777009
0.077329
0.0768776
0.080327
0.0803348
0.0803432
0.0803516
0.0803591
0.0803643
0.0803653
0.0803602
0.0803465
0.0803217
0.0802833
0.0802286
0.080155
0.0800599
0.079941
0.0797961
0.0796233
0.0794215
0.079188
0.0789254
0.0786245
0.0783009
0.0779159
0.0775424
0.0770885
0.0804314
0.0804388
0.080447
0.0804554
0.0804631
0.0804686
0.0804702
0.0804657
0.0804528
0.080429
0.0803915
0.0803378
0.0802652
0.0801711
0.0800532
0.0799092
0.0797371
0.079536
0.0793031
0.0790408
0.0787403
0.0784166
0.078032
0.0776566
0.0772025
0.0804492
0.0804571
0.0804658
0.0804748
0.080483
0.0804891
0.0804912
0.0804872
0.0804747
0.0804511
0.0804139
0.0803603
0.0802877
0.0801935
0.0800752
0.0799309
0.0797583
0.0795567
0.0793234
0.0790606
0.0787599
0.0784354
0.0780512
0.0776739
0.0772216
0.0803421
0.0803517
0.0803619
0.0803722
0.0803816
0.0803884
0.080391
0.0803871
0.0803744
0.0803503
0.0803122
0.0802573
0.0801831
0.0800871
0.0799668
0.0798203
0.0796456
0.0794418
0.0792065
0.078942
0.0786401
0.0783143
0.0779303
0.0775516
0.0771029
0.0801075
0.0801198
0.0801325
0.0801449
0.0801558
0.0801636
0.0801666
0.0801625
0.0801489
0.0801233
0.0800831
0.0800257
0.0799484
0.0798489
0.0797249
0.0795745
0.0793959
0.0791885
0.0789499
0.0786825
0.0783786
0.078051
0.0776667
0.0772876
0.0768442
0.0797424
0.0797586
0.0797748
0.0797899
0.0798028
0.0798119
0.0798151
0.0798104
0.0797953
0.0797674
0.079724
0.0796626
0.0795808
0.0794763
0.079347
0.0791911
0.0790071
0.0787947
0.0785516
0.0782804
0.0779736
0.077644
0.0772591
0.0768805
0.0764441
0.0792421
0.0792636
0.0792841
0.0793028
0.0793182
0.0793286
0.0793321
0.0793264
0.0793092
0.079278
0.0792304
0.0791639
0.0790763
0.0789654
0.0788293
0.0786665
0.0784759
0.0782571
0.0780086
0.0777328
0.0774225
0.0770906
0.0767053
0.0763282
0.0759009
0.0786003
0.0786283
0.0786544
0.0786774
0.0786958
0.0787078
0.0787113
0.0787043
0.0786844
0.0786492
0.0785964
0.0785238
0.0784292
0.0783107
0.0781666
0.0779958
0.0777974
0.0775715
0.0773166
0.0770357
0.0767216
0.0763875
0.0760021
0.0756274
0.0752118
0.077809
0.0778449
0.0778776
0.0779058
0.0779277
0.0779414
0.0779449
0.0779362
0.077913
0.0778732
0.0778145
0.0777349
0.0776324
0.0775054
0.0773524
0.0771727
0.0769657
0.076732
0.0764705
0.0761842
0.0758664
0.0755303
0.0751453
0.0747743
0.074373
0.0768583
0.0769037
0.0769443
0.0769784
0.0770043
0.0770199
0.0770233
0.0770126
0.0769858
0.0769407
0.0768755
0.0767883
0.0766772
0.076541
0.0763785
0.0761895
0.0759736
0.0757319
0.0754636
0.0751721
0.0748509
0.0745135
0.0741298
0.073764
0.07338
0.0757369
0.0757936
0.0758432
0.0758841
0.0759143
0.0759319
0.0759351
0.0759222
0.0758913
0.0758407
0.0757686
0.0756733
0.0755534
0.0754078
0.0752356
0.0750371
0.0748124
0.0745629
0.0742883
0.0739922
0.0736683
0.0733305
0.0729493
0.0725904
0.0722269
0.0744317
0.0745014
0.0745613
0.0746097
0.0746445
0.0746642
0.0746671
0.0746517
0.0746166
0.0745602
0.0744811
0.0743777
0.074249
0.074094
0.0739125
0.0737048
0.0734718
0.0732153
0.0729352
0.0726355
0.0723101
0.0719733
0.0715963
0.0712464
0.0709069
0.0729279
0.0730124
0.0730837
0.07314
0.0731798
0.0732014
0.0732038
0.0731859
0.0731465
0.0730844
0.0729984
0.0728872
0.0727501
0.0725865
0.0723962
0.0721804
0.0719401
0.0716778
0.0713935
0.0710919
0.0707666
0.0704327
0.0700616
0.0697231
0.0694113
0.0712087
0.0713095
0.0713931
0.0714578
0.0715024
0.0715258
0.0715276
0.071507
0.0714635
0.071396
0.0713036
0.0711855
0.0710409
0.0708695
0.0706719
0.0704493
0.0702034
0.0699369
0.0696505
0.0693489
0.0690258
0.0686971
0.0683343
0.0680101
0.0677297
0.0692545
0.0693732
0.0694695
0.0695425
0.0695917
0.0696167
0.0696177
0.0695946
0.0695472
0.069475
0.0693772
0.0692532
0.0691025
0.0689251
0.0687218
0.0684944
0.068245
0.0679769
0.0676906
0.0673916
0.0670734
0.0667526
0.0664006
0.0660941
0.065849
0.0670424
0.0671798
0.0672889
0.06737
0.0674232
0.0674494
0.0674495
0.0674242
0.0673737
0.0672977
0.0671959
0.0670676
0.0669127
0.0667314
0.0665248
0.0662952
0.0660451
0.0657781
0.0654951
0.0652019
0.0648915
0.064582
0.0642436
0.0639585
0.0637525
0.0645437
0.0647005
0.0648222
0.0649105
0.0649671
0.064994
0.0649933
0.0649663
0.0649137
0.0648354
0.0647313
0.0646009
0.0644442
0.0642616
0.0640547
0.0638262
0.0635786
0.0633163
0.0630401
0.0627564
0.0624572
0.062163
0.061841
0.061582
0.0614182
0.0618423
0.0620189
0.062152
0.0622461
0.062305
0.0623322
0.0623309
0.0623032
0.0622498
0.0621712
0.0620671
0.0619372
0.0617816
0.061601
0.0613971
0.0611731
0.0609318
0.0606779
0.060412
0.0601413
0.0598568
0.0595813
0.0592782
0.0590488
0.0589284
0.0590856
0.0592815
0.0594245
0.0595233
0.0595839
0.0596116
0.0596106
0.0595833
0.059531
0.059454
0.0593521
0.0592253
0.0590735
0.0588976
0.0586998
0.0584833
0.0582511
0.0580085
0.0577557
0.0575006
0.057233
0.056978
0.0566952
0.056496
0.0564179
0.0563048
0.0565195
0.0566712
0.0567737
0.0568358
0.0568643
0.0568644
0.0568388
0.056789
0.0567154
0.0566178
0.056496
0.0563503
0.0561815
0.0559921
0.0557855
0.0555649
0.0553356
0.055098
0.0548602
0.0546112
0.0543777
0.0541163
0.0539465
0.0539099
0.0535124
0.0537456
0.0539047
0.0540102
0.0540736
0.0541036
0.0541056
0.0540828
0.0540367
0.0539679
0.053876
0.053761
0.053623
0.0534631
0.053284
0.0530891
0.0528819
0.0526677
0.0524467
0.0522274
0.051998
0.0517865
0.0515473
0.0514053
0.051409
0.0507156
0.0509665
0.0511316
0.0512395
0.0513044
0.0513361
0.0513407
0.0513216
0.0512802
0.0512171
0.0511321
0.0510251
0.0508961
0.0507466
0.050579
0.0503972
0.0502045
0.0500065
0.0498031
0.0496029
0.049394
0.0492042
0.0489879
0.0488713
0.0489146
0.0479168
0.0481827
0.0483522
0.048462
0.0485285
0.0485622
0.0485699
0.0485548
0.0485188
0.0484621
0.0483848
0.0482865
0.0481675
0.0480292
0.0478742
0.0477064
0.0475291
0.0473479
0.0471627
0.0469818
0.0467936
0.0466249
0.046432
0.0463382
0.0464201
0.0451094
0.0453874
0.0455599
0.0456712
0.0457389
0.0457748
0.0457856
0.0457749
0.0457444
0.0456945
0.0456253
0.0455363
0.0454278
0.0453013
0.0451595
0.0450063
0.0448449
0.0446807
0.044514
0.0443523
0.044185
0.0440365
0.0438671
0.0437933
0.0439128
0.0422781
0.0425651
0.0427393
0.0428516
0.0429202
0.0429578
0.0429715
0.0429651
0.0429402
0.0428973
0.0428362
0.0427568
0.0426591
0.0425449
0.0424166
0.0422782
0.0421329
0.041986
0.0418378
0.0416949
0.0415483
0.0414188
0.0412732
0.0412161
0.0413725
0.0393966
0.0396892
0.0398638
0.0399763
0.0400448
0.0400834
0.0400997
0.0400972
0.0400777
0.0400416
0.0399888
0.0399189
0.0398322
0.0397303
0.0396159
0.0394924
0.0393634
0.0392336
0.0391037
0.0389792
0.0388531
0.0387415
0.0386199
0.0385759
0.0387689
0.0364221
0.0367158
0.0368893
0.0370006
0.0370675
0.037106
0.037124
0.0371249
0.0371104
0.037081
0.0370363
0.036976
0.0369003
0.0368109
0.0367104
0.036602
0.0364893
0.0363765
0.0362649
0.0361583
0.0360526
0.0359576
0.0358603
0.0358255
0.0360553
0.0332836
0.0335715
0.0337412
0.0338491
0.033912
0.0339488
0.0339676
0.0339714
0.0339615