/*--------------------------------*- C++ -*----------------------------------*\
  =========                 |
  \\      /  F ield         | OpenFOAM: The Open Source CFD Toolbox
   \\    /   O peration     | Website:  https://openfoam.org
    \\  /    A nd           | Version:  6
     \\/     M anipulation  |
\*---------------------------------------------------------------------------*/
FoamFile
{
    version     2.0;
    format      ascii;
    class       volScalarField;
    location    "0.09";
    object      nut;
}
// * * * * * * * * * * * * * * * * * * * * * * * * * * * * * * * * * * * * * //

dimensions      [0 2 -1 0 0 0 0];

internalField   nonuniform List<scalar> 
3080
(
1.37534e-05
1.37288e-05
1.37041e-05
1.36793e-05
1.36543e-05
1.36291e-05
1.36037e-05
1.35782e-05
1.35524e-05
1.35264e-05
1.35001e-05
1.34736e-05
1.34468e-05
1.34198e-05
1.33923e-05
1.33645e-05
1.33362e-05
1.33074e-05
1.3278e-05
1.32477e-05
1.32165e-05
1.31839e-05
1.31496e-05
1.31129e-05
1.30727e-05
1.3027e-05
1.29724e-05
1.29017e-05
1.28012e-05
1.26437e-05
0.000103524
0.000103355
0.000103184
0.000103013
0.000102839
0.000102664
0.000102487
0.000102309
0.000102128
0.000101945
0.000101759
0.000101571
0.00010138
0.000101185
0.000100986
0.000100782
0.000100571
0.000100353
0.000100126
9.98852e-05
9.96278e-05
9.93472e-05
9.90335e-05
9.8671e-05
9.82316e-05
9.76651e-05
9.68616e-05
9.56261e-05
9.33626e-05
8.98442e-05
0.000201205
0.000200921
0.000200635
0.000200347
0.000200056
0.000199762
0.000199466
0.000199166
0.000198863
0.000198556
0.000198244
0.000197928
0.000197606
0.000197277
0.000196941
0.000196596
0.000196239
0.000195869
0.000195481
0.00019507
0.000194629
0.000194147
0.000193607
0.000192984
0.000192234
0.000191281
0.000189973
0.000188033
0.000184789
0.000179688
0.00028381
0.000283453
0.000283094
0.000282732
0.000282367
0.000281998
0.000281626
0.00028125
0.000280869
0.000280484
0.000280093
0.000279695
0.000279291
0.000278878
0.000278456
0.000278022
0.000277573
0.000277107
0.000276619
0.000276102
0.000275547
0.000274942
0.000274265
0.000273488
0.000272561
0.000271402
0.000269858
0.000267659
0.000264278
0.000259367
0.00035312
0.000352716
0.00035231
0.0003519
0.000351488
0.000351072
0.000350651
0.000350227
0.000349797
0.000349362
0.000348921
0.000348472
0.000348016
0.00034755
0.000347073
0.000346583
0.000346077
0.000345551
0.000345
0.000344417
0.000343792
0.000343111
0.000342353
0.000341486
0.000340461
0.000339196
0.000337553
0.000335301
0.000332062
0.000327713
0.000411953
0.000411519
0.000411082
0.000410643
0.000410201
0.000409755
0.000409304
0.00040885
0.000408389
0.000407923
0.00040745
0.00040697
0.000406481
0.000405982
0.000405471
0.000404946
0.000404405
0.000403842
0.000403253
0.00040263
0.000401963
0.000401238
0.000400433
0.000399518
0.000398444
0.000397137
0.000395475
0.000393271
0.00039027
0.000386491
0.000462494
0.000462042
0.000461587
0.00046113
0.00046067
0.000460206
0.000459738
0.000459266
0.000458788
0.000458303
0.000457812
0.000457313
0.000456805
0.000456287
0.000455756
0.000455211
0.000454649
0.000454065
0.000453454
0.000452809
0.00045212
0.000451372
0.000450544
0.000449609
0.00044852
0.00044721
0.000445578
0.000443475
0.000440735
0.000437454
0.000506345
0.000505883
0.000505419
0.000504953
0.000504484
0.000504012
0.000503536
0.000503054
0.000502567
0.000502074
0.000501574
0.000501066
0.000500548
0.00050002
0.00049948
0.000498926
0.000498354
0.00049776
0.00049714
0.000496485
0.000495787
0.000495032
0.000494199
0.000493263
0.000492181
0.000490896
0.000489322
0.000487345
0.000484862
0.000482002
0.000544684
0.000544218
0.000543751
0.000543283
0.000542813
0.00054234
0.000541862
0.000541379
0.00054089
0.000540395
0.000539893
0.000539383
0.000538863
0.000538334
0.000537792
0.000537236
0.000536662
0.000536067
0.000535447
0.000534793
0.000534096
0.000533345
0.00053252
0.000531596
0.000530539
0.000529295
0.000527797
0.000525957
0.000523713
0.000521209
0.00057839
0.000577926
0.000577464
0.000577
0.000576534
0.000576065
0.000575591
0.000575112
0.000574627
0.000574136
0.000573637
0.000573131
0.000572616
0.00057209
0.000571553
0.000571001
0.000570433
0.000569844
0.00056923
0.000568584
0.000567897
0.000567158
0.00056635
0.000565451
0.000564428
0.000563239
0.000561825
0.000560125
0.000558102
0.000555899
0.000608132
0.000607683
0.000607229
0.000606774
0.000606317
0.000605856
0.000605391
0.00060492
0.000604444
0.000603961
0.000603471
0.000602974
0.000602467
0.000601951
0.000601423
0.000600881
0.000600323
0.000599746
0.000599144
0.000598512
0.000597842
0.000597122
0.000596339
0.000595471
0.000594491
0.000593363
0.000592041
0.000590477
0.000588656
0.00058671
0.000634007
0.00063357
0.000633128
0.000632683
0.000632234
0.000631781
0.000631323
0.000630859
0.000630389
0.000629911
0.000629427
0.000628933
0.00062843
0.000627916
0.000627389
0.000626846
0.000626284
0.0006257
0.000625087
0.000624438
0.000623744
0.00062299
0.00062216
0.00062123
0.000620168
0.000618938
0.000617506
0.000615869
0.000614146
0.00065733
0.000656903
0.000656475
0.000656045
0.000655611
0.000655173
0.000654731
0.000654283
0.000653829
0.000653368
0.000652899
0.000652423
0.000651937
0.00065144
0.00065093
0.000650406
0.000649865
0.000649302
0.000648712
0.000648089
0.000647424
0.000646706
0.000645918
0.000645041
0.000644048
0.000642912
0.000641606
0.000640136
0.000638609
0.000677972
0.00067756
0.000677148
0.000676735
0.000676319
0.0006759
0.000675476
0.000675047
0.000674612
0.00067417
0.000673722
0.000673265
0.000672799
0.000672323
0.000671835
0.000671334
0.000670815
0.000670277
0.000669714
0.000669121
0.00066849
0.00066781
0.000667067
0.000666246
0.000665325
0.00066428
0.000663094
0.000661777
0.000660423
0.000696201
0.000695809
0.000695417
0.000695024
0.00069463
0.000694232
0.00069383
0.000693422
0.000693009
0.00069259
0.000692164
0.00069173
0.000691288
0.000690835
0.000690372
0.000689896
0.000689404
0.000688894
0.000688361
0.0006878
0.000687205
0.000686566
0.000685873
0.000685109
0.00068426
0.000683305
0.000682233
0.000681055
0.000679856
0.0007124
0.000712025
0.000711652
0.000711278
0.000710903
0.000710525
0.000710142
0.000709755
0.000709362
0.000708963
0.000708557
0.000708144
0.000707722
0.000707291
0.00070685
0.000706396
0.000705928
0.000705443
0.000704937
0.000704407
0.000703845
0.000703244
0.000702594
0.000701884
0.000701099
0.000700226
0.000699255
0.0006982
0.000697133
0.000726445
0.000726096
0.000725749
0.000725402
0.000725054
0.000724703
0.000724348
0.000723988
0.000723622
0.000723251
0.000722873
0.000722488
0.000722094
0.000721693
0.000721281
0.000720858
0.000720422
0.00071997
0.000719499
0.000719006
0.000718485
0.00071793
0.000717332
0.000716682
0.000715967
0.000715179
0.000714309
0.000713373
0.000712432
0.000738297
0.000737987
0.000737679
0.000737372
0.000737064
0.000736753
0.000736438
0.000736119
0.000735795
0.000735465
0.000735129
0.000734786
0.000734435
0.000734077
0.000733709
0.000733332
0.000732942
0.000732539
0.000732118
0.000731678
0.000731214
0.000730719
0.000730188
0.000729611
0.000728981
0.000728289
0.000727531
0.00072672
0.000725909
0.000748276
0.000748011
0.00074775
0.00074749
0.000747229
0.000746966
0.000746699
0.000746429
0.000746153
0.000745872
0.000745585
0.000745292
0.000744993
0.000744686
0.000744371
0.000744047
0.000743712
0.000743365
0.000743004
0.000742625
0.000742225
0.0007418
0.000741343
0.000740848
0.000740308
0.000739717
0.000739073
0.000738387
0.000737705
0.000756635
0.000756418
0.000756206
0.000755996
0.000755786
0.000755574
0.000755358
0.000755139
0.000754915
0.000754686
0.000754452
0.000754212
0.000753967
0.000753715
0.000753456
0.000753189
0.000752913
0.000752626
0.000752327
0.000752013
0.000751681
0.000751327
0.000750947
0.000750535
0.000750086
0.000749596
0.000749063
0.000748499
0.000747939
0.000763577
0.000763408
0.000763245
0.000763084
0.000762925
0.000762763
0.000762599
0.00076243
0.000762258
0.000762081
0.000761899
0.000761713
0.000761521
0.000761324
0.000761121
0.000760911
0.000760693
0.000760466
0.000760228
0.000759978
0.000759713
0.000759429
0.000759124
0.000758793
0.000758432
0.000758037
0.00075761
0.000757158
0.000756713
0.000769264
0.00076914
0.000769024
0.000768911
0.000768799
0.000768685
0.000768569
0.000768449
0.000768325
0.000768197
0.000768065
0.000767929
0.000767788
0.000767643
0.000767492
0.000767335
0.000767172
0.000767002
0.000766822
0.000766633
0.00076643
0.000766213
0.000765978
0.000765722
0.000765442
0.000765135
0.000764803
0.000764454
0.00076411
0.000773828
0.000773746
0.000773672
0.000773601
0.000773532
0.000773461
0.000773388
0.000773312
0.000773232
0.000773148
0.000773061
0.00077297
0.000772875
0.000772776
0.000772673
0.000772565
0.000772451
0.000772332
0.000772205
0.000772069
0.000771923
0.000771765
0.000771592
0.000771403
0.000771195
0.000770966
0.000770718
0.000770458
0.000770203
0.000777377
0.00077733
0.000777292
0.000777258
0.000777225
0.000777191
0.000777155
0.000777115
0.000777073
0.000777027
0.000776978
0.000776925
0.00077687
0.000776811
0.000776748
0.000776681
0.00077661
0.000776533
0.000776451
0.000776361
0.000776264
0.000776156
0.000776037
0.000775904
0.000775757
0.000775593
0.000775416
0.00077523
0.000775049
0.000779995
0.000779977
0.000779967
0.000779962
0.000779958
0.000779953
0.000779946
0.000779936
0.000779922
0.000779906
0.000779887
0.000779866
0.000779841
0.000779814
0.000779783
0.000779749
0.000779711
0.000779669
0.000779623
0.00077957
0.00077951
0.000779443
0.000779365
0.000779278
0.000779178
0.000779067
0.000778945
0.000778817
0.000778695
0.00078175
0.000781752
0.000781763
0.000781778
0.000781794
0.000781809
0.000781822
0.000781832
0.00078184
0.000781845
0.000781847
0.000781847
0.000781844
0.000781839
0.000781831
0.00078182
0.000781806
0.000781788
0.000781766
0.00078174
0.000781707
0.000781668
0.00078162
0.000781564
0.000781498
0.000781423
0.000781341
0.000781254
0.000781173
0.000782696
0.00078271
0.000782731
0.000782756
0.000782782
0.000782807
0.00078283
0.000782851
0.00078287
0.000782886
0.000782899
0.00078291
0.000782919
0.000782926
0.00078293
0.000782932
0.00078293
0.000782926
0.000782917
0.000782904
0.000782886
0.000782862
0.000782831
0.000782792
0.000782745
0.00078269
0.000782628
0.000782566
0.000782508
0.000782887
0.000782901
0.000782922
0.000782947
0.000782972
0.000782998
0.000783021
0.000783042
0.000783061
0.000783077
0.000783091
0.000783103
0.000783112
0.00078312
0.000783124
0.000783127
0.000783126
0.000783122
0.000783115
0.000783103
0.000783086
0.000783063
0.000783034
0.000782997
0.000782952
0.000782899
0.000782841
0.000782782
0.00078273
0.000782051
0.00078205
0.000782055
0.000782064
0.000782073
0.000782082
0.000782088
0.000782093
0.000782095
0.000782094
0.000782091
0.000782085
0.000782077
0.000782067
0.000782053
0.000782037
0.000782017
0.000781994
0.000781967
0.000781935
0.000781897
0.000781853
0.000781801
0.00078174
0.000781671
0.000781592
0.000781508
0.000781422
0.000781346
0.000780142
0.000780112
0.000780086
0.000780064
0.000780041
0.000780017
0.000779992
0.000779963
0.000779931
0.000779897
0.000779859
0.000779819
0.000779775
0.000779728
0.000779678
0.000779624
0.000779567
0.000779505
0.000779437
0.000779364
0.000779284
0.000779195
0.000779097
0.000778988
0.000778868
0.000778736
0.000778595
0.000778452
0.000778323
0.000777121
0.000777047
0.000776977
0.000776908
0.000776838
0.000776766
0.000776692
0.000776614
0.000776532
0.000776447
0.000776357
0.000776264
0.000776168
0.000776067
0.000775961
0.000775852
0.000775737
0.000775616
0.000775488
0.000775353
0.000775208
0.000775053
0.000774886
0.000774704
0.000774506
0.000774293
0.000774066
0.000773836
0.000773623
0.000772937
0.000772804
0.000772673
0.000772543
0.00077241
0.000772274
0.000772135
0.000771991
0.000771843
0.00077169
0.000771532
0.000771369
0.000771201
0.000771028
0.000770849
0.000770664
0.000770472
0.000770272
0.000770064
0.000769846
0.000769615
0.000769371
0.00076911
0.000768831
0.00076853
0.000768207
0.000767864
0.000767515
0.000767189
0.000767521
0.000767314
0.000767108
0.0007669
0.000766689
0.000766473
0.000766252
0.000766026
0.000765794
0.000765555
0.000765311
0.00076506
0.000764803
0.000764538
0.000764267
0.000763987
0.000763699
0.0007634
0.000763091
0.000762768
0.000762429
0.000762073
0.000761695
0.000761292
0.000760861
0.000760399
0.00075991
0.000759409
0.000758938
0.000760789
0.000760493
0.000760195
0.000759894
0.000759587
0.000759275
0.000758956
0.00075863
0.000758296
0.000757954
0.000757605
0.000757248
0.000756882
0.000756507
0.000756123
0.000755729
0.000755323
0.000754905
0.000754472
0.000754022
0.000753553
0.00075306
0.00075254
0.000751988
0.000751398
0.000750768
0.000750101
0.000749415
0.000748763
0.00075264
0.000752238
0.000751832
0.00075142
0.000751001
0.000750574
0.000750139
0.000749694
0.00074924
0.000748777
0.000748304
0.00074782
0.000747326
0.000746821
0.000746304
0.000745774
0.00074523
0.000744669
0.00074409
0.000743491
0.000742866
0.000742212
0.000741524
0.000740795
0.000740017
0.000739188
0.000738308
0.0007374
0.000736533
0.000742948
0.000742422
0.00074189
0.00074135
0.0007408
0.00074024
0.00073967
0.000739088
0.000738495
0.00073789
0.000737273
0.000736642
0.000735999
0.000735342
0.00073467
0.000733982
0.000733276
0.00073255
0.000731801
0.000731027
0.000730222
0.000729381
0.000728497
0.000727562
0.000726567
0.000725505
0.000724376
0.000723207
0.000722084
0.000731563
0.000730896
0.000730219
0.000729531
0.000728831
0.000728119
0.000727393
0.000726654
0.000725901
0.000725132
0.000724349
0.000723551
0.000722736
0.000721903
0.000721053
0.000720183
0.000719291
0.000718375
0.000717431
0.000716456
0.000715443
0.000714387
0.000713279
0.000712108
0.000710863
0.000709533
0.000708117
0.000706644
0.000705221
0.000718306
0.000717477
0.000716635
0.000715779
0.000714908
0.000714022
0.00071312
0.000712201
0.000711265
0.000710311
0.000709339
0.000708348
0.000707337
0.000706306
0.000705252
0.000704174
0.00070307
0.000701936
0.00070077
0.000699566
0.000698318
0.000697017
0.000695653
0.000694214
0.000692684
0.000691049
0.000689305
0.000687481
0.000685708
0.000703173
0.000702155
0.000701122
0.000700071
0.000699001
0.000697913
0.000696805
0.000695677
0.000694527
0.000693357
0.000692164
0.000690948
0.000689708
0.000688443
0.000687152
0.000685831
0.000684478
0.000683091
0.000681664
0.000680193
0.000678668
0.000677082
0.000675422
0.00067367
0.00067181
0.000669821
0.000667694
0.000665457
0.000663266
0.000685863
0.00068463
0.000683377
0.000682103
0.000680806
0.000679486
0.000678142
0.000676773
0.00067538
0.00067396
0.000672514
0.00067104
0.000669538
0.000668004
0.000666439
0.000664838
0.0006632
0.000661521
0.000659795
0.000658015
0.000656175
0.000654261
0.00065226
0.000650152
0.000647915
0.000645521
0.000642954
0.000640239
0.000637555
0.000665501
0.000664037
0.000662547
0.000661032
0.00065949
0.000657921
0.000656323
0.000654696
0.00065304
0.000651352
0.000649633
0.000647882
0.000646096
0.000644274
0.000642414
0.000640513
0.000638567
0.000636573
0.000634525
0.000632416
0.000630236
0.000627971
0.000625606
0.000623117
0.000620476
0.000617649
0.000614608
0.000611368
0.000608131
0.000641348
0.000639639
0.000637901
0.000636132
0.000634333
0.000632501
0.000630637
0.000628738
0.000626806
0.000624837
0.000622832
0.000620789
0.000618706
0.000616581
0.000614412
0.000612195
0.000609928
0.000607605
0.000605221
0.000602766
0.000600231
0.000597601
0.000594857
0.000591973
0.000588914
0.000585635
0.000582097
0.000578297
0.000574451
0.000613241
0.000611301
0.000609328
0.00060732
0.000605277
0.000603198
0.000601083
0.000598929
0.000596737
0.000594504
0.00059223
0.000589913
0.000587551
0.000585143
0.000582684
0.000580173
0.000577606
0.000574976
0.000572277
0.000569502
0.000566637
0.000563668
0.000560573
0.000557323
0.000553876
0.000550178
0.000546171
0.000541824
0.000537362
0.000581266
0.000579153
0.000577003
0.000574817
0.000572593
0.000570331
0.000568029
0.000565688
0.000563304
0.000560878
0.000558408
0.000555892
0.000553329
0.000550715
0.000548049
0.000545327
0.000542544
0.000539696
0.000536775
0.000533772
0.000530676
0.000527469
0.000524128
0.000520621
0.000516902
0.000512904
0.00050855
0.00050377
0.000498785
0.000544192
0.000542001
0.000539775
0.000537513
0.000535213
0.000532876
0.000530499
0.000528082
0.000525624
0.000523124
0.00052058
0.00051799
0.000515353
0.000512667
0.000509928
0.000507133
0.000504278
0.000501358
0.000498366
0.000495292
0.000492125
0.000488846
0.000485432
0.000481848
0.000478043
0.000473939
0.000469441
0.000464428
0.000459096
0.000499925
0.000497816
0.000495675
0.000493502
0.000491296
0.000489055
0.00048678
0.000484468
0.00048212
0.000479734
0.000477309
0.000474843
0.000472335
0.000469783
0.000467184
0.000464534
0.000461831
0.000459068
0.00045624
0.000453336
0.000450345
0.00044725
0.000444026
0.000440637
0.000437029
0.000433115
0.000428778
0.000423838
0.000418446
0.000451458
0.000449532
0.000447579
0.000445599
0.00044359
0.000441553
0.000439486
0.000437389
0.000435261
0.000433101
0.000430908
0.000428681
0.000426418
0.000424118
0.000421777
0.000419394
0.000416965
0.000414484
0.000411946
0.000409341
0.000406658
0.000403881
0.000400985
0.000397934
0.000394671
0.000391101
0.000387091
0.000382389
0.000377081
0.000404146
0.000402371
0.000400571
0.000398747
0.000396899
0.000395026
0.000393127
0.000391202
0.00038925
0.00038727
0.000385262
0.000383225
0.000381156
0.000379055
0.000376919
0.000374746
0.000372533
0.000370274
0.000367964
0.000365595
0.000363155
0.00036063
0.000357995
0.000355214
0.000352232
0.000348946
0.00034521
0.000340698
0.000335398
0.000354468
0.000352841
0.000351192
0.000349522
0.000347831
0.000346118
0.000344383
0.000342624
0.000340843
0.000339037
0.000337206
0.000335349
0.000333464
0.00033155
0.000329603
0.000327622
0.000325601
0.000323536
0.000321419
0.00031924
0.000316984
0.000314629
0.00031214
0.000309464
0.000306495
0.00030308
0.000298817
0.00029357
0.000306121
0.000304678
0.000303219
0.000301743
0.000300248
0.000298736
0.000297205
0.000295655
0.000294086
0.000292496
0.000290886
0.000289254
0.000287598
0.000285918
0.000284211
0.000282475
0.000280705
0.000278898
0.000277046
0.00027514
0.000273168
0.000271108
0.000268929
0.00026658
0.000263958
0.000260906
0.000256963
0.000251832
0.000257622
0.000256379
0.000255121
0.00025385
0.000252565
0.000251265
0.00024995
0.000248619
0.000247274
0.000245911
0.000244532
0.000243136
0.00024172
0.000240284
0.000238827
0.000237345
0.000235836
0.000234296
0.000232719
0.000231097
0.000229418
0.000227665
0.000225809
0.000223805
0.000221556
0.000218907
0.000215357
0.000210432
0.000209298
0.000208263
0.000207218
0.000206162
0.000205094
0.000204016
0.000202926
0.000201824
0.00020071
0.000199583
0.000198444
0.00019729
0.000196122
0.000194938
0.000193737
0.000192517
0.000191275
0.000190009
0.000188713
0.000187381
0.000186003
0.000184564
0.000183041
0.000181393
0.000179536
0.000177325
0.000174248
0.000169653
0.000161536
0.000160717
0.000159891
0.000159057
0.000158214
0.000157364
0.000156505
0.000155637
0.000154761
0.000153875
0.000152979
0.000152073
0.000151157
0.000150229
0.000149288
0.000148333
0.000147362
0.000146373
0.000145361
0.000144322
0.000143248
0.000142128
0.000140942
0.000139658
0.000138208
0.00013646
0.000133935
0.000129839
0.000114865
0.000114268
0.000113665
0.000113057
0.000112443
0.000111824
0.000111199
0.000110568
0.000109931
0.000109288
0.000108638
0.000107982
0.000107318
0.000106646
0.000105966
0.000105276
0.000104576
0.000103863
0.000103135
0.000102388
0.000101617
0.000100813
9.99641e-05
9.90445e-05
9.80068e-05
9.67394e-05
9.48391e-05
9.14707e-05
7.02075e-05
6.98307e-05
6.94508e-05
6.90678e-05
6.86817e-05
6.82924e-05
6.78998e-05
6.75039e-05
6.71045e-05
6.67015e-05
6.62948e-05
6.58842e-05
6.54694e-05
6.50502e-05
6.46261e-05
6.41966e-05
6.37609e-05
6.33181e-05
6.28667e-05
6.24045e-05
6.19287e-05
6.14341e-05
6.09134e-05
6.03498e-05
5.97178e-05
5.8934e-05
5.7715e-05
5.53848e-05
2.99444e-05
2.97781e-05
2.96106e-05
2.94418e-05
2.92718e-05
2.91005e-05
2.8928e-05
2.87541e-05
2.85788e-05
2.84022e-05
2.82241e-05
2.80446e-05
2.78634e-05
2.76806e-05
2.74959e-05
2.73093e-05
2.71203e-05
2.69288e-05
2.67342e-05
2.65357e-05
2.63324e-05
2.61224e-05
2.59032e-05
2.56679e-05
2.54086e-05
2.50862e-05
2.45694e-05
2.36427e-05
3.60327e-06
3.58527e-06
3.56712e-06
3.54884e-06
3.53041e-06
3.51183e-06
3.49311e-06
3.47424e-06
3.45522e-06
3.43604e-06
3.41669e-06
3.39718e-06
3.3775e-06
3.35762e-06
3.33754e-06
3.31724e-06
3.29668e-06
3.27584e-06
3.25466e-06
3.23306e-06
3.21096e-06
3.18817e-06
3.16451e-06
3.13936e-06
3.11249e-06
3.08057e-06
3.04197e-06
2.97211e-06
1.27311e-05
1.27105e-05
1.26815e-05
1.26303e-05
1.25488e-05
1.24481e-05
1.23372e-05
1.22181e-05
1.20911e-05
1.19565e-05
1.18149e-05
1.16659e-05
1.15095e-05
1.13464e-05
1.11764e-05
1.09997e-05
1.08169e-05
1.06276e-05
1.04335e-05
1.02309e-05
1.0029e-05
9.80651e-06
9.61323e-06
9.34587e-06
9.2619e-06
9.46419e-05
9.65856e-05
9.70877e-05
9.69053e-05
9.62915e-05
9.54411e-05
9.44706e-05
9.3417e-05
9.22888e-05
9.10915e-05
8.9828e-05
8.84956e-05
8.7071e-05
8.55798e-05
8.40299e-05
8.24187e-05
8.07526e-05
7.901e-05
7.72316e-05
7.52979e-05
7.34163e-05
7.1129e-05
6.93004e-05
6.61941e-05
6.59309e-05
0.000184874
0.000188217
0.000189825
0.000190324
0.000189985
0.000189085
0.000187836
0.000186341
0.000184647
0.000182783
0.000180769
0.000178609
0.000176286
0.00017382
0.000171227
0.000168513
0.00016569
0.000162731
0.000159689
0.000156399
0.000153141
0.000149267
0.000146034
0.000140946
0.000140724
0.000263664
0.000267195
0.000269214
0.000270131
0.000270132
0.000269436
0.000268241
0.000266669
0.00026479
0.000262652
0.000260285
0.000257703
0.000254905
0.000251904
0.000248722
0.000245369
0.000241861
0.000238176
0.00023436
0.000230262
0.000226133
0.000221361
0.000217165
0.000211205
0.000210753
0.000331135
0.000334441
0.000336506
0.000337592
0.000337821
0.000337337
0.000336292
0.000334794
0.000332916
0.000330709
0.000328211
0.000325443
0.000322414
0.000319135
0.000315631
0.000311917
0.00030801
0.000303896
0.000299612
0.00029503
0.000290355
0.000285065
0.00028022
0.000273887
0.000273044
0.000389212
0.000392173
0.000394123
0.000395232
0.000395578
0.000395253
0.00039436
0.000392984
0.000391186
0.000389015
0.000386507
0.000383687
0.000380569
0.000377166
0.000373503
0.000369597
0.000365468
0.000361107
0.000356544
0.000351673
0.000346657
0.000341067
0.000335786
0.000329315
0.00032801
0.000439628
0.000442228
0.000444
0.000445052
0.000445438
0.000445214
0.000444446
0.000443193
0.000441503
0.000439416
0.000436963
0.000434168
0.000431046
0.000427613
0.000423891
0.0004199
0.00041566
0.000411168
0.000406447
0.000401412
0.000396186
0.000390428
0.000384854
0.000378356
0.000376572
0.000483745
0.000486001
0.000487575
0.000488534
0.000488911
0.000488743
0.000488067
0.000486923
0.000485344
0.000483359
0.000480992
0.000478264
0.00047519
0.000471783
0.000468067
0.00046406
0.000459782
0.000455235
0.000450434
0.000445314
0.000439967
0.000434123
0.000428354
0.000421879
0.000419625
0.000522606
0.000524549
0.000525925
0.000526773
0.000527115
0.000526969
0.000526359
0.000525305
0.000523829
0.000521949
0.000519682
0.000517044
0.000514047
0.000510703
0.000507033
0.000503055
0.000498788
0.000494235
0.000489409
0.000484258
0.000478848
0.000472969
0.000467073
0.000460643
0.000457941
0.000557015
0.000558674
0.000559863
0.000560597
0.000560888
0.000560745
0.000560178
0.000559197
0.000557813
0.000556034
0.000553872
0.000551335
0.000548432
0.000545173
0.000541575
0.000537656
0.000533432
0.000528908
0.000524093
0.000518946
0.000513514
0.000507635
0.000501656
0.000495275
0.000492156
0.000587597
0.000589003
0.000590015
0.000590638
0.000590872
0.00059072
0.000590181
0.00058926
0.000587956
0.000586273
0.000584214
0.000581782
0.000578982
0.000575822
0.000572313
0.000568473
0.000564314
0.000559842
0.000555064
0.000549946
0.000544519
0.00053866
0.000532633
0.000526294
0.000522794
0.000614842
0.000616023
0.000616875
0.000617392
0.000617568
0.000617399
0.00061688
0.000616007
0.000614775
0.000613181
0.000611221
0.000608895
0.000606203
0.000603148
0.00059974
0.00059599
0.000591912
0.000587509
0.000582784
0.000577712
0.00057231
0.000566487
0.000560432
0.00055413
0.000550282
0.000639147
0.000640128
0.000640834
0.000641252
0.000641372
0.000641183
0.000640677
0.000639846
0.000638678
0.000637166
0.000635302
0.00063308
0.000630497
0.000627551
0.000624249
0.0006206
0.000616611
0.000612288
0.000607629
0.000602615
0.000597251
0.000591472
0.000585407
0.000579135
0.00057497
0.000660829
0.000661634
0.000662209
0.000662537
0.000662603
0.000662395
0.000661899
0.000661104
0.000659995
0.000658559
0.000656787
0.000654666
0.000652191
0.000649356
0.000646163
0.000642618
0.000638726
0.000634488
0.000629904
0.000624956
0.000619639
0.00061391
0.000607846
0.0006016
0.000597147
0.000680152
0.000680803
0.000681261
0.000681507
0.000681525
0.000681298
0.000680811
0.000680048
0.000678993
0.00067763
0.000675944
0.000673922
0.000671552
0.000668827
0.000665743
0.000662304
0.000658512
0.000654365
0.00064986
0.000644982
0.000639718
0.000634042
0.000627987
0.000621764
0.00061705
0.000697335
0.000697851
0.000698206
0.00069838
0.000698353
0.00069811
0.00069763
0.000696898
0.000695893
0.000694598
0.000692995
0.000691067
0.0006888
0.000686182
0.000683207
0.000679874
0.000676181
0.000672127
0.000667703
0.000662898
0.000657691
0.00065207
0.000646029
0.000639824
0.000634877
0.00071256
0.00071296
0.000713225
0.000713335
0.000713271
0.000713013
0.000712542
0.000711838
0.000710881
0.00070965
0.000708125
0.000706286
0.000704117
0.000701603
0.000698733
0.000695504
0.00069191
0.000687948
0.000683606
0.000678874
0.000673725
0.000668158
0.000662137
0.000655948
0.000650792
0.000725984
0.000726285
0.000726473
0.000726528
0.000726431
0.000726161
0.000725698
0.000725022
0.00072411
0.000722939
0.000721487
0.000719733
0.000717658
0.000715242
0.000712474
0.000709345
0.000705847
0.000701974
0.000697712
0.000693052
0.000687961
0.000682447
0.000676447
0.000670272
0.00066493
0.000737741
0.000737959
0.000738081
0.000738089
0.000737964
0.000737685
0.000737231
0.000736581
0.000735711
0.000734596
0.000733214
0.000731539
0.00072955
0.000727227
0.000724554
0.00072152
0.000718113
0.000714325
0.000710141
0.00070555
0.000700516
0.000695053
0.000689074
0.000682911
0.000677406
0.000747948
0.000748095
0.000748162
0.00074813
0.000747981
0.000747696
0.000747252
0.000746627
0.000745795
0.000744733
0.000743413
0.000741812
0.000739904
0.000737666
0.000735082
0.000732136
0.000728814
0.000725106
0.000720993
0.000716468
0.000711486
0.000706071
0.000700115
0.000693962
0.000688316
0.000756701
0.00075679
0.00075681
0.000756746
0.000756579
0.000756289
0.000755855
0.000755253
0.000754457
0.000753442
0.00075218
0.000750645
0.00074881
0.00074665
0.000744146
0.000741279
0.000738035
0.000734399
0.000730353
0.000725887
0.000720955
0.000715583
0.000709649
0.000703505
0.000697738
0.000764084
0.000764126
0.000764108
0.000764017
0.000763836
0.000763544
0.00076312
0.000762539
0.000761776
0.000760803
0.000759592
0.000758115
0.000756344
0.000754254
0.00075182
0.000749024
0.000745848
0.000742278
0.00073829
0.000733877
0.000728989
0.000723656
0.000717742
0.000711606
0.000705738
0.000770168
0.000770171
0.000770124
0.000770012
0.00076982
0.000769528
0.000769113
0.000768552
0.000767817
0.000766881
0.000765714
0.000764288
0.000762572
0.00076054
0.000758167
0.000755432
0.000752314
0.000748799
0.000744862
0.000740494
0.000735645
0.000730344
0.000724449
0.000718318
0.000712369
0.000775008
0.000774982
0.000774912
0.000774786
0.000774587
0.000774296
0.000773891
0.000773346
0.000772636
0.00077173
0.0007706
0.000769215
0.000767545
0.000765561
0.000763237
0.000760551
0.000757481
0.00075401
0.000750114
0.000745784
0.000740965
0.000735692
0.000729813
0.000723687
0.000717674
0.000778651
0.000778604
0.000778519
0.000778383
0.00077818
0.000777892
0.000777495
0.000776965
0.000776274
0.000775393
0.000774291
0.000772938
0.000771303
0.000769355
0.000767069
0.00076442
0.000761385
0.000757948
0.000754083
0.00074978
0.000744986
0.000739733
0.000733868
0.000727745
0.000721687
0.000781129
0.00078107
0.000780977
0.000780837
0.000780634
0.000780349
0.000779959
0.000779441
0.000778764
0.000777901
0.00077682
0.000775489
0.000773877
0.000771954
0.000769692
0.000767068
0.000764056
0.000760641
0.000756796
0.000752512
0.000747734
0.000742494
0.000736639
0.000730517
0.000724431
0.000782466
0.000782404
0.000782309
0.000782169
0.000781969
0.000781689
0.000781306
0.000780796
0.000780129
0.000779277
0.000778207
0.000776888
0.000775288
0.000773378
0.000771128
0.000768514
0.000765513
0.000762107
0.000758271
0.000753994
0.000749225
0.000743992
0.000738143
0.00073202
0.000725924
0.000782695
0.000782638
0.000782549
0.000782416
0.000782222
0.000781948
0.000781572
0.000781067
0.000780406
0.000779558
0.000778491
0.000777173
0.000775574
0.000773663
0.000771411
0.000768795
0.00076579
0.000762381
0.000758542
0.000754263
0.000749493
0.000744259
0.000738413
0.000732287
0.000726197
0.00078132
0.000781282
0.000781211
0.000781092
0.00078091
0.000780645
0.000780274
0.000779771
0.000779107
0.000778253
0.000777176
0.000775845
0.000774229
0.000772298
0.000770025
0.000767386
0.000764358
0.000760927
0.000757067
0.000752771
0.000747987
0.000742741
0.000736891
0.00073076
0.000724693
0.000778309
0.000778302
0.000778257
0.000778161
0.000777995
0.000777741
0.000777373
0.000776866
0.000776192
0.000775321
0.000774221
0.000772861
0.000771212
0.000769243
0.000766929
0.000764247
0.000761178
0.000757706
0.000753809
0.00074948
0.000744669
0.000739401
0.000733538
0.000727401
0.000721375
0.000773625
0.000773662
0.000773655
0.000773588
0.000773443
0.0007732
0.000772833
0.000772318
0.000771626
0.000770727
0.000769591
0.000768187
0.000766487
0.000764463
0.000762089
0.000759347
0.000756217
0.000752688
0.000748738
0.000744362
0.000739512
0.000734212
0.000728328
0.000722184
0.000716217
0.00076721
0.000767305
0.000767346
0.000767316
0.000767196
0.000766965
0.000766598
0.000766069
0.000765351
0.000764414
0.000763229
0.000761767
0.00076
0.000757904
0.000755454
0.000752632
0.000749426
0.000745823
0.000741807
0.000737371
0.00073247
0.000727128
0.000721217
0.000715066
0.000709177
0.000758983
0.00075915
0.00075925
0.000759266
0.000759176
0.000758958
0.000758588
0.00075804
0.000757288
0.000756302