/*--------------------------------*- C++ -*----------------------------------*\
  =========                 |
  \\      /  F ield         | OpenFOAM: The Open Source CFD Toolbox
   \\    /   O peration     | Website:  https://openfoam.org
    \\  /    A nd           | Version:  6
     \\/     M anipulation  |
\*---------------------------------------------------------------------------*/
FoamFile
{
    version     2.0;
    format      ascii;
    class       volScalarField;
    location    "0.09";
    object      p;
}
// * * * * * * * * * * * * * * * * * * * * * * * * * * * * * * * * * * * * * //

dimensions      [0 2 -2 0 0 0 0];

internalField   nonuniform List<scalar> 
3080
(
0.182865
0.182732
0.182599
0.182468
0.182337
0.182207
0.182078
0.18195
0.181823
0.181698
0.181575
0.181455
0.181338
0.181226
0.181121
0.181023
0.180937
0.180864
0.180812
0.180785
0.180793
0.18085
0.180974
0.181195
0.181559
0.182141
0.183092
0.18464
0.187512
0.191866
0.182856
0.182722
0.18259
0.182458
0.182327
0.182197
0.182068
0.181939
0.181813
0.181688
0.181565
0.181445
0.181329
0.181217
0.181112
0.181015
0.18093
0.180859
0.180808
0.180783
0.180793
0.180852
0.180979
0.181202
0.181564
0.182133
0.183044
0.184462
0.186989
0.190583
0.182851
0.182717
0.182584
0.182452
0.182321
0.182191
0.182061
0.181933
0.181806
0.181682
0.181559
0.181439
0.181323
0.181212
0.181107
0.181011
0.180926
0.180857
0.180807
0.180783
0.180795
0.180857
0.180985
0.181208
0.181566
0.182119
0.18298
0.184255
0.18636
0.188873
0.182847
0.182713
0.18258
0.182448
0.182317
0.182186
0.182057
0.181929
0.181802
0.181677
0.181554
0.181434
0.181318
0.181207
0.181102
0.181005
0.18092
0.180849
0.180798
0.180773
0.180784
0.180841
0.180963
0.181174
0.18151
0.18202
0.182789
0.183871
0.185505
0.187166
0.182843
0.182709
0.182576
0.182444
0.182312
0.182182
0.182052
0.181924
0.181797
0.181672
0.181548
0.181428
0.181311
0.181199
0.181093
0.180996
0.180909
0.180836
0.180782
0.180752
0.180756
0.180804
0.180912
0.181101
0.1814
0.181846
0.182497
0.183369
0.184579
0.185615
0.182839
0.182705
0.182572
0.18244
0.182308
0.182177
0.182048
0.181919
0.181792
0.181666
0.181542
0.181421
0.181303
0.18119
0.181082
0.180983
0.180893
0.180816
0.180757
0.180721
0.180715
0.18075
0.180837
0.180996
0.181248
0.181618
0.182142
0.182807
0.183659
0.184227
0.182834
0.1827
0.182567
0.182435
0.182304
0.182173
0.182043
0.181914
0.181786
0.18166
0.181535
0.181413
0.181294
0.181179
0.181069
0.180967
0.180873
0.180792
0.180726
0.180681
0.180663
0.18068
0.180743
0.180866
0.181064
0.181353
0.181748
0.182221
0.182772
0.18298
0.182829
0.182695
0.182563
0.18243
0.182299
0.182168
0.182038
0.181908
0.18178
0.181653
0.181527
0.181404
0.181283
0.181166
0.181054
0.180948
0.18085
0.180763
0.180689
0.180633
0.180601
0.180598
0.180633
0.180716
0.180857
0.181061
0.181333
0.18163
0.181929
0.181861
0.182824
0.18269
0.182558
0.182425
0.182294
0.182163
0.182032
0.181903
0.181774
0.181646
0.181519
0.181394
0.181272
0.181153
0.181037
0.180927
0.180824
0.18073
0.180647
0.180579
0.18053
0.180506
0.180511
0.180552
0.180633
0.180755
0.180909
0.181049
0.181138
0.180856
0.182818
0.182685
0.182552
0.18242
0.182289
0.182157
0.182027
0.181896
0.181767
0.181638
0.18151
0.181384
0.18126
0.181138
0.181019
0.180904
0.180795
0.180693
0.180601
0.18052
0.180454
0.180406
0.180379
0.180377
0.1804
0.180441
0.180487
0.180488
0.180401
0.179952
0.182812
0.182679
0.182547
0.182415
0.182283
0.182152
0.182021
0.18189
0.18176
0.18163
0.181501
0.181373
0.181246
0.181121
0.180999
0.18088
0.180765
0.180655
0.180552
0.180457
0.180372
0.1803
0.180241
0.180196
0.180162
0.180127
0.180074
0.179952
0.179719
0.179138
0.182673
0.182541
0.182409
0.182277
0.182146
0.182015
0.181883
0.181752
0.181622
0.181491
0.181361
0.181232
0.181105
0.180978
0.180854
0.180732
0.180614
0.1805
0.180391
0.180288
0.180191
0.1801
0.180013
0.179923
0.179818
0.179675
0.179447
0.179091
0.178405
0.182667
0.182535
0.182403
0.182271
0.18214
0.182008
0.181876
0.181745
0.181613
0.181481
0.18135
0.181218
0.181087
0.180957
0.180827
0.180699
0.180572
0.180447
0.180323
0.180202
0.180081
0.179958
0.179831
0.179689
0.179518
0.179295
0.178973
0.178514
0.177744
0.18266
0.182528
0.182397
0.182265
0.182134
0.182002
0.181869
0.181737
0.181604
0.181471
0.181338
0.181204
0.18107
0.180935
0.180801
0.180665
0.18053
0.180393
0.180256
0.180115
0.179971
0.179818
0.179651
0.179461
0.179231
0.178935
0.178532
0.177986
0.177148
0.182653
0.182522
0.18239
0.182259
0.182127
0.181995
0.181862
0.181729
0.181595
0.181461
0.181325
0.181189
0.181052
0.180914
0.180774
0.180632
0.180488
0.18034
0.180188
0.18003
0.179863
0.179681
0.179478
0.179243
0.178958
0.178599
0.178126
0.177506
0.176612
0.182646
0.182515
0.182384
0.182252
0.182121
0.181988
0.181855
0.181721
0.181586
0.181451
0.181313
0.181175
0.181034
0.180892
0.180747
0.180599
0.180446
0.180288
0.180122
0.179947
0.179758
0.179549
0.179312
0.179036
0.178702
0.178286
0.177753
0.17707
0.176131
0.182638
0.182508
0.182377
0.182246
0.182114
0.181981
0.181848
0.181713
0.181578
0.18144
0.181302
0.181161
0.181017
0.180871
0.180721
0.180566
0.180406
0.180237
0.180059
0.179867
0.179658
0.179424
0.179156
0.178842
0.178464
0.177999
0.177413
0.176677
0.175701
0.18263
0.182501
0.18237
0.182239
0.182108
0.181975
0.181841
0.181706
0.181569
0.181431
0.18129
0.181147
0.181001
0.180851
0.180697
0.180536
0.180368
0.18019
0.18
0.179793
0.179565
0.179307
0.179012
0.178664
0.178248
0.177739
0.177107
0.176326
0.175319
0.182623
0.182494
0.182364
0.182233
0.182101
0.181968
0.181834
0.181699
0.181561
0.181422
0.18128
0.181135
0.180986
0.180833
0.180674
0.180508
0.180333
0.180147
0.179945
0.179725
0.179479
0.179201
0.17888
0.178503
0.178052
0.177506
0.176835
0.176015
0.174981
0.182616
0.182487
0.182357
0.182227
0.182095
0.181962
0.181828
0.181692
0.181554
0.181413
0.18127
0.181123
0.180972
0.180816
0.180653
0.180483
0.180301
0.180107
0.179896
0.179663
0.179402
0.179105
0.178762
0.178359
0.177878
0.177299
0.176595
0.175742
0.174687
0.182608
0.18248
0.182351
0.182221
0.182089
0.181956
0.181822
0.181686
0.181547
0.181406
0.181261
0.181113
0.18096
0.180801
0.180635
0.18046
0.180273
0.180071
0.179851
0.179607
0.179333
0.17902
0.178658
0.178232
0.177725
0.177118
0.176386
0.175505
0.174433
0.182601
0.182474
0.182345
0.182215
0.182084
0.181951
0.181816
0.18168
0.181541
0.181399
0.181253
0.181104
0.180949
0.180788
0.180618
0.180439
0.180248
0.18004
0.179812
0.179559
0.179273
0.178947
0.178567
0.178122
0.177594
0.176964
0.176208
0.175304
0.174217
0.182594
0.182467
0.182339
0.182209
0.182078
0.181945
0.181811
0.181674
0.181535
0.181392
0.181246
0.181095
0.180939
0.180776
0.180604
0.180422
0.180226
0.180013
0.179779
0.179518
0.179223
0.178884
0.178491
0.17803
0.177484
0.176835
0.17606
0.175138
0.174039
0.182587
0.182461
0.182333
0.182204
0.182073
0.18194
0.181806
0.181669
0.181529
0.181387
0.18124
0.181088
0.180931
0.180766
0.180592
0.180407
0.180208
0.179991
0.179752
0.179485
0.179181
0.178833
0.178429
0.177956
0.177396
0.176731
0.175941
0.175005
0.173896
0.18258
0.182455
0.182327
0.182198
0.182068
0.181936
0.181801
0.181664
0.181525
0.181382
0.181234
0.181082
0.180924
0.180758
0.180583
0.180396
0.180194
0.179974
0.179731
0.179459
0.179149
0.178794
0.178382
0.177899
0.177328
0.176653
0.175852
0.174904
0.173789
0.182574
0.182448
0.182322
0.182193
0.182063
0.181931
0.181797
0.18166
0.18152
0.181377
0.18123
0.181077
0.180918
0.180752
0.180575
0.180387
0.180184
0.179962
0.179716
0.17944
0.179127
0.178767
0.178349
0.17786
0.177282
0.176599
0.17579
0.174836
0.173717
0.182567
0.182442
0.182316
0.182188
0.182059
0.181927
0.181793
0.181656
0.181517
0.181374
0.181226
0.181073
0.180914
0.180747
0.18057
0.180381
0.180177
0.179954
0.179706
0.179429
0.179114
0.178751
0.178331
0.177838
0.177257
0.17657
0.175758
0.1748
0.173678
0.18256
0.182436
0.18231
0.182183
0.182054
0.181923
0.181789
0.181653
0.181513
0.18137
0.181223
0.18107
0.180911
0.180744
0.180567
0.180378
0.180174
0.17995
0.179703
0.179425
0.17911
0.178747
0.178326
0.177833
0.177252
0.176565
0.175753
0.174795
0.173673
0.182553
0.182429
0.182304
0.182177
0.182049
0.181918
0.181785
0.181649
0.18151
0.181368
0.181221
0.181069
0.18091
0.180743
0.180567
0.180379
0.180176
0.179953
0.179707
0.179432
0.179119
0.178759
0.178342
0.177853
0.177276
0.176595
0.175788
0.174835
0.173716
0.182545
0.182422
0.182298
0.182172
0.182044
0.181914
0.181782
0.181646
0.181508
0.181366
0.18122
0.181068
0.180911
0.180745
0.18057
0.180384
0.180182
0.179963
0.17972
0.179449
0.179141
0.178787
0.178377
0.177897
0.17733
0.176659
0.175862
0.174921
0.173808
0.182538
0.182416
0.182292
0.182167
0.18204
0.18191
0.181778
0.181644
0.181506
0.181365
0.18122
0.18107
0.180913
0.180749
0.180577
0.180393
0.180194
0.179979
0.179741
0.179476
0.179176
0.178832
0.178433
0.177965
0.177413
0.176758
0.175978
0.175053
0.17395
0.18253
0.182409
0.182287
0.182162
0.182036
0.181907
0.181776
0.181642
0.181505
0.181365
0.181221
0.181072
0.180918
0.180756
0.180586
0.180405
0.180211
0.180001
0.17977
0.179513
0.179223
0.178892
0.178508
0.178058
0.177526
0.176893
0.176135
0.175232
0.174142
0.182523
0.182403
0.182281
0.182157
0.182032
0.181904
0.181774
0.181641
0.181505
0.181366
0.181224
0.181076
0.180924
0.180765
0.180598
0.180422
0.180233
0.180029
0.179807
0.17956
0.179283
0.178968
0.178603
0.178175
0.177668
0.177063
0.176333
0.175459
0.174387
0.182516
0.182397
0.182276
0.182153
0.182028
0.181901
0.181772
0.18164
0.181506
0.181368
0.181227
0.181082
0.180932
0.180776
0.180613
0.180441
0.180259
0.180063
0.179851
0.179616
0.179355
0.179058
0.178716
0.178315
0.177839
0.177268
0.176574
0.175736
0.174686
0.182509
0.182391
0.182271
0.182149
0.182025
0.181899
0.18177
0.18164
0.181507
0.181371
0.181231
0.181088
0.180941
0.180789
0.18063
0.180464
0.180289
0.180102
0.179901
0.179681
0.179437
0.179162
0.178846
0.178478
0.178039
0.177508
0.176858
0.176063
0.175042
0.182502
0.182385
0.182266
0.182145
0.182022
0.181897
0.181769
0.18164
0.181508
0.181374
0.181237
0.181096
0.180952
0.180803
0.18065
0.18049
0.180322
0.180145
0.179957
0.179753
0.179529
0.179279
0.178993
0.178661
0.178266
0.177784
0.177185
0.176445
0.175459
0.182496
0.182379
0.182261
0.182141
0.182019
0.181895
0.181769
0.181641
0.18151
0.181378
0.181243
0.181105
0.180964
0.180819
0.180671
0.180518
0.180359
0.180192
0.180017
0.179831
0.179629
0.179406
0.179156
0.178865
0.178519
0.178095
0.177557
0.176882
0.175939
0.18249
0.182374
0.182257
0.182138
0.182016
0.181893
0.181769
0.181642
0.181513
0.181382
0.181249
0.181114
0.180976
0.180836
0.180693
0.180547
0.180397
0.180243
0.180082
0.179914
0.179736
0.179544
0.179331
0.179087
0.178797
0.178439
0.177974
0.177377
0.176489
0.182484
0.182369
0.182253
0.182135
0.182014
0.181892
0.181769
0.181643
0.181516
0.181387
0.181256
0.181124
0.18099
0.180854
0.180717
0.180578
0.180437
0.180294
0.180149
0.180001
0.179848
0.179688
0.179516
0.179324
0.179097
0.178815
0.178435
0.177935
0.177114
0.182479
0.182365
0.182249
0.182132
0.182013
0.181892
0.181769
0.181645
0.181519
0.181392
0.181264
0.181134
0.181004
0.180872
0.180741
0.180609
0.180478
0.180347
0.180218
0.18009
0.179963
0.179837
0.179709
0.179573
0.179416
0.179222
0.178941
0.178557
0.17782
0.182474
0.182361
0.182246
0.182129
0.182011
0.181891
0.18177
0.181647
0.181523
0.181397
0.181271
0.181145
0.181018
0.180891
0.180765
0.180641
0.180519
0.1804
0.180287
0.18018
0.18008
0.179989
0.179907
0.179831
0.179752
0.179656
0.179491
0.179251
0.178618
0.182469
0.182357
0.182243
0.182127
0.18201
0.181891
0.181771
0.181649
0.181526
0.181403
0.181279
0.181155
0.181032
0.180909
0.180789
0.180672
0.180559
0.180453
0.180355
0.180269
0.180196
0.180141
0.180107
0.180094
0.180098
0.180115
0.180082
0.180021
0.179516
0.182465
0.182354
0.182241
0.182126
0.182009
0.181891
0.181772
0.181652
0.18153
0.181409
0.181287
0.181166
0.181045
0.180927
0.180812
0.180701
0.180597
0.180502
0.180419
0.180351
0.180304
0.180283
0.180295
0.180346
0.180434
0.18057
0.180681
0.180838
0.180477
0.182462
0.182352
0.182239
0.182125
0.182009
0.181892
0.181774
0.181654
0.181534
0.181414
0.181294
0.181175
0.181058
0.180943
0.180832
0.180727
0.18063
0.180545
0.180474
0.180423
0.180398
0.180407
0.18046
0.18057
0.180737
0.180993
0.181247
0.181652
0.181444
0.18246
0.18235
0.182238
0.182125
0.18201
0.181893
0.181776
0.181657
0.181538
0.181419
0.181301
0.181184
0.181068
0.180957
0.18085
0.18075
0.180659
0.180581
0.180521
0.180484
0.180477
0.180513
0.180601
0.180763
0.181002
0.181375
0.181767
0.182448
0.182403
0.182459
0.182349
0.182238
0.182125
0.182011
0.181895
0.181778
0.18166
0.181542
0.181424
0.181307
0.181191
0.181078
0.180969
0.180865
0.180768
0.180683
0.180611
0.180559
0.180534
0.180543
0.1806
0.180718
0.180925
0.181227
0.181711
0.182234
0.183216
0.183343
0.182458
0.182349
0.182238
0.182126
0.182011
0.181896
0.181779
0.181662
0.181545
0.181427
0.181311
0.181196
0.181085
0.180977
0.180875
0.180782
0.1807
0.180633
0.180588
0.18057
0.180591
0.180665
0.180807
0.181052
0.181406
0.181992
0.182633
0.183936
0.184242
0.182458
0.182349
0.182239
0.182126
0.182012
0.181897
0.181781
0.181664
0.181547
0.18143
0.181314
0.1812
0.181089
0.180983
0.180882
0.180791
0.180711
0.180648
0.180607
0.180595
0.180625
0.18071
0.180869
0.181144
0.181538
0.182214
0.182957
0.184586
0.185086
0.18235
0.18224
0.182127
0.182014
0.181898
0.181782
0.181666
0.181549
0.181432
0.181317
0.181203
0.181093
0.180987
0.180887
0.180797
0.180719
0.180657
0.180619
0.180611
0.180646
0.18074
0.18091
0.181206
0.181631
0.182381
0.183211
0.185159
0.185874
0.182352
0.182241
0.182129
0.182015
0.1819
0.181784
0.181667
0.18155
0.181434
0.181318
0.181205
0.181095
0.180989
0.18089
0.1808
0.180723
0.180662
0.180625
0.18062
0.180657
0.180756
0.180934
0.181244
0.181689
0.182496
0.183398
0.185642
0.1866
0.182353
0.182243
0.18213
0.182016
0.181901
0.181785
0.181668
0.181551
0.181435
0.181319
0.181206
0.181096
0.18099
0.180891
0.180801
0.180724
0.180664
0.180627
0.180622
0.180661
0.180762
0.180943
0.181261
0.181717
0.182565
0.183522
0.186028
0.187262
0.182355
0.182244
0.182132
0.182018
0.181903
0.181786
0.181669
0.181552
0.181435
0.18132
0.181206
0.181096
0.18099
0.180891
0.180801
0.180723
0.180663
0.180625
0.18062
0.180658
0.180759
0.18094
0.181261
0.181722
0.182593
0.183592
0.186309
0.187859
0.182357
0.182246
0.182133
0.182019
0.181904
0.181787
0.18167
0.181553
0.181436
0.18132
0.181206
0.181095
0.180989
0.18089
0.180799
0.180721
0.180659
0.180621
0.180615
0.180651
0.18075
0.180928
0.181247
0.181708
0.182585
0.183613
0.186483
0.188391
0.182359
0.182248
0.182135
0.182021
0.181905
0.181788
0.181671
0.181553
0.181436
0.18132
0.181206
0.181094
0.180988
0.180888
0.180796
0.180717
0.180654
0.180615
0.180606
0.18064
0.180735
0.18091
0.181223
0.181678
0.182548
0.183592
0.186546
0.188856
0.182361
0.18225
0.182137
0.182022
0.181906
0.181789
0.181671
0.181554
0.181436
0.18132
0.181205
0.181093
0.180986
0.180885
0.180793
0.180713
0.180649
0.180607
0.180596
0.180627
0.180718
0.180887
0.181191
0.181638
0.182486
0.183536
0.186495
0.189251
0.182365
0.182253
0.18214
0.182025
0.181909
0.181792
0.181674
0.181556
0.181438
0.181321
0.181206
0.181094
0.180986
0.180885
0.180791
0.18071
0.180645
0.180601
0.180588
0.180615
0.180702
0.180865
0.18116
0.181597
0.182421
0.183467
0.186363
0.189572
0.182369
0.182258
0.182144
0.182029
0.181913
0.181795
0.181677
0.181559
0.181441
0.181324
0.181209
0.181097
0.180988
0.180886
0.180793
0.180711
0.180644
0.1806
0.180585
0.180611
0.180694
0.180854
0.181143
0.181574
0.182383
0.183426
0.18627
0.189777
0.201832
0.192927
0.183902
0.179747
0.176602
0.172688
0.168526
0.164457
0.160317
0.155952
0.151325
0.146404
0.141127
0.135429
0.129254
0.122526
0.11519
0.107094
0.098284
0.0882497
0.0777587
0.0643431
0.0530746
0.0306734
0.0264385
0.196492
0.189769
0.182414
0.178663
0.175593
0.171798
0.167756
0.163755
0.15965
0.155307
0.150695
0.145781
0.140506
0.134808
0.12863
0.121894
0.114546
0.106434
0.0976072
0.0875452
0.0770391
0.0635671
0.0523122
0.0297384
0.0257278
0.192145
0.187372
0.181396
0.177758
0.174616
0.170908
0.166975
0.16303
0.15895
0.154626
0.150026
0.145116
0.13984
0.134138
0.127952
0.121203
0.113841
0.105704
0.0968607
0.0867508
0.076253
0.062656
0.05154
0.0285515
0.0251929
0.18905
0.1854
0.180442
0.176926
0.173749
0.170125
0.166287
0.162387
0.158327
0.154019
0.14943
0.144523
0.139245
0.133537
0.127342
0.12058
0.113203
0.105042
0.0961852
0.0860219
0.0755459
0.0617998
0.050881
0.0274015
0.0249237
0.186646
0.183639
0.179467
0.176128
0.172966
0.169429
0.165677
0.161819
0.157781
0.15349
0.148911
0.144007
0.138728
0.133014
0.126811
0.120036
0.112647
0.104461
0.0955947
0.0853797
0.0749318
0.0610379
0.0503323
0.0263866
0.0248366
0.184665
0.182069
0.178503
0.175353
0.172238
0.168789
0.165117
0.161303
0.15729
0.153016
0.148448
0.143548
0.138267
0.132549
0.126339
0.119552
0.112151
0.103944
0.0950696
0.0848057
0.0743892
0.0603547
0.0498648
0.025496
0.0248574
0.183002
0.18069
0.177578
0.174604
0.171552
0.16819
0.164595
0.160826
0.156839
0.152584
0.148027
0.143133
0.137852
0.13213
0.125913
0.119116
0.111705
0.103477
0.0945968
0.0842868
0.0739041
0.0597364
0.049462
0.0247066
0.0249501
0.181588
0.179477
0.176703
0.173885
0.170906
0.167627
0.164105
0.160381
0.156422
0.152187
0.147644
0.142755
0.137476
0.131751
0.125528
0.118721
0.111301
0.103054
0.0941695
0.0838161
0.0734688
0.0591755
0.0491144
0.0240042
0.0250943
0.180371
0.178404
0.175881
0.173199
0.170297
0.167098
0.163643
0.159965
0.156036
0.151821
0.147292
0.14241
0.137133
0.131405
0.125178
0.118362
0.110934
0.10267
0.0937824
0.0833884
0.0730772
0.0586664
0.0488142
0.0233783
0.0252745
0.17931
0.177449
0.175114
0.17255
0.169724
0.1666
0.163209
0.159574
0.155676
0.151483
0.146967
0.142093
0.136819
0.131091
0.124859
0.118036
0.110601
0.10232
0.0934309
0.082999
0.0727243
0.0582041
0.0485545
0.02282
0.0254778
0.178377
0.176596
0.174403
0.171939
0.169185
0.166131
0.1628
0.159208
0.15534
0.151169
0.146668
0.141802
0.136532
0.130803
0.124568
0.117738
0.110296
0.102001
0.093111
0.0826442
0.0724056
0.057784
0.0483294
0.0223217
0.0256944
0.177551
0.175832
0.173747
0.171368
0.168681
0.165691
0.162415
0.158864
0.155026
0.150877
0.146391
0.141534
0.136268
0.130539
0.124302
0.117466
0.110019
0.10171
0.0928197
0.0823206
0.0721174
0.0574025
0.0481339
0.0218767
0.0259168
0.176816
0.175145
0.173143
0.170836
0.168211
0.165279
0.162054
0.158543
0.154734
0.150607
0.146135
0.141288
0.136026
0.130297
0.124059
0.117217
0.109766
0.101445
0.0925545
0.0820258
0.0718567
0.0570564
0.0479639
0.0214795
0.0261393
0.17616
0.174527
0.17259
0.170343
0.167774
0.164896
0.161718
0.158243
0.154463
0.150356
0.145899
0.141061
0.135804
0.130077
0.123837
0.11699
0.109535
0.101203
0.0923133
0.0817576
0.0716211
0.0567432
0.047816
0.0211254
0.0263572
0.175574
0.173973
0.172085
0.16989
0.167371
0.16454
0.161405
0.157965
0.154211
0.150124
0.145682
0.140853
0.135601
0.129875
0.123635
0.116784
0.109325
0.100983
0.0920942
0.0815142
0.0714084
0.0564604
0.047687
0.0208106
0.0265672
0.175051
0.173475
0.171628
0.169475
0.167
0.164212
0.161116
0.157708
0.153979
0.149912
0.145483
0.140663
0.135416
0.129692
0.123451
0.116597
0.109135
0.100784
0.091896
0.0812942
0.071217
0.0562063
0.0475747
0.0205318
0.0267664
0.174585
0.17303
0.171214
0.169098
0.166661
0.163912
0.16085
0.157472
0.153766
0.149717
0.145301
0.14049
0.135248
0.129526
0.123285
0.116428
0.108963
0.100604
0.0917173
0.0810962
0.0710451
0.0559791
0.0474767
0.0202864
0.0269526
0.174171
0.172635
0.170844
0.168757
0.166355
0.163639
0.160609
0.157257
0.153573
0.14954
0.145137
0.140334
0.135096
0.129377
0.123135
0.116276
0.108809
0.100443
0.0915572
0.0809192
0.0708917
0.0557775
0.0473912
0.0200719
0.0271241
0.173806
0.172285
0.170515
0.168453
0.16608
0.163394
0.160391
0.157063
0.153399
0.149382
0.14499
0.140194
0.134961
0.129243
0.123002
0.116141
0.108672
0.1003
0.0914148
0.0807624
0.0707555
0.0556001
0.0473167
0.0198865
0.0272793
0.173487
0.171979
0.170225
0.168185
0.165836
0.163176
0.160197
0.15689
0.153244
0.14924
0.144859
0.14007
0.134842
0.129126
0.122885
0.116022
0.108551
0.100174
0.0912894
0.0806248
0.0706357
0.0554461
0.0472517
0.0197285
0.0274173
0.173212
0.171715
0.169974
0.167951
0.165623
0.162985
0.160027
0.156739
0.153108
0.149117
0.144744
0.139962
0.134737
0.129023
0.122783
0.115918
0.108446
0.100065
0.0911802
0.080506
0.0705313
0.0553144
0.0471951
0.0195967
0.0275371
0.172978
0.171491
0.16976
0.167751
0.165441
0.162821
0.159881
0.156608
0.152991
0.14901
0.144646
0.139869
0.134648
0.128936
0.122695
0.11583
0.108356
0.0999721
0.0910869
0.0804053
0.0704418
0.0552044
0.0471457
0.0194902
0.0276378
0.172785
0.171306
0.169583
0.167585
0.165289
0.162684
0.159758
0.156499
0.152893
0.148921
0.144563
0.139791
0.134573
0.128862
0.122622
0.115756
0.108281
0.0998948
0.0910089
0.0803223
0.0703665
0.0551155
0.0471029
0.0194079
0.0277191
0.172631
0.171158
0.169441
0.167451
0.165167
0.162574
0.15966
0.156411
0.152813
0.148849
0.144497
0.139729
0.134513
0.128803
0.122564
0.115697
0.108221
0.099833
0.090946
0.0802566
0.0703052
0.0550468
0.0470664
0.0193483
0.0277819
0.172516
0.171047
0.169335
0.167351
0.165075
0.162491
0.159585
0.156344
0.152753
0.148794
0.144446
0.139681
0.134467
0.128759
0.122519
0.115652
0.108175
0.0997864
0.0908978
0.0802077
0.0702575
0.0549975
0.0470364
0.0193094
0.0278279
0.172438
0.170971
0.169262
0.167283
0.165012
0.162434
0.159534
0.156299
0.152712
0.148757
0.144411
0.139648
0.134436
0.128728
0.122488
0.115622
0.108144
0.0997549
0.0908639
0.0801759
0.0702222
0.0549692
0.0470087
0.0192975
0.027848
0.172397
0.170932
0.169224
0.167247
0.164979
0.162404
0.159507
0.156274
0.15269
0.148736
0.144392
0.13963
0.134418
0.128711
0.122471
0.115605
0.108125
0.0997389
0.0908429
0.0801637
0.0701939
0.0549717
0.0469646
0.0193444
0.0277984
0.172394
0.170929
0.169221
0.167244
0.164976
0.162401
0.159504
0.156271
0.152687
0.148733
0.144389
0.139627
0.134415
0.128708
0.122468
0.115603
0.108121
0.0997395
0.090834
0.0801737
0.070169
0.0550137
0.0468893
0.0194767
0.0276454
0.172443
0.170975
0.169265
0.167286
0.165014
0.162435
0.159534
0.156298
0.15271
0.148754
0.144408
0.139645
0.134432
0.128725
0.122484
0.11562
0.108137
0.0997588
0.0908484
0.0801996
0.0701754
0.0550569
0.0468677
0.0195596
0.0275738
0.172546
0.171073
0.169358
0.167374
0.165095
0.162507
0.159598
0.156354
0.152761
0.148799
0.14445
0.139683
0.134469
0.128761
0.12252
0.115657
0.108174
0.0997982
0.0908863
0.0802438
0.0702112
0.055108
0.0468893
0.0196119
0.0275566
0.172704
0.171224
0.169502
0.167509
0.165218
0.162618
0.159697
0.156442
0.152838
0.14887
0.144514
0.139744
0.134527
0.128817
0.122576
0.115714
0.108232
0.0998587
0.0909468
0.0803096
0.0702715
0.0551779
0.0469354
0.019668
0.0275485
0.172917
0.171427
0.169696
0.167691
0.165385
0.162767
0.159829
0.156559
0.152943
0.148964
0.144601
0.139825
0.134605
0.128894
0.122653
0.115791
0.108311
0.0999406
0.0910298
0.0803976
0.0703557
0.0552688
0.0470032
0.0197344
0.0275423
0.173189
0.171686
0.169941
0.167921
0.165594
0.162955
0.159996
0.156707
0.153076
0.149084
0.144711
0.139929
0.134705
0.128992
0.12275
0.11589
0.108412
0.100044
0.091136
0.0805082
0.0704649
0.0553808
0.0470947
0.0198104
0.0275421
0.17352
0.172003
0.17024
0.1682
0.165848
0.163181
0.160197
0.156886
0.153235
0.149228
0.144844
0.140054
0.134825
0.129111
0.122869
0.11601
0.108534
0.100171
0.0912661
0.0806421
0.0705999
0.0555147
0.0472117
0.0198961
0.0275511
0.173916
0.172379
0.170594
0.168529
0.166146
0.163446
0.160432
0.157094
0.153421
0.149397
0.145001
0.140202
0.134968
0.129251
0.123009
0.116152
0.10868
0.10032
0.0914208
0.0808002
0.0707619
0.0556714
0.0473563
0.0199925
0.0275722
0.17438
0.172819
0.171005
0.168909
0.166488
0.16375
0.1607
0.157332
0.153635
0.149592
0.145181
0.140373
0.135134
0.129414
0.123173
0.116318
0.10885
0.100494
0.0916012
0.0809835
0.0709523
0.0558524
0.0475307
0.020101
0.0276088
0.174917
0.173326
0.171475
0.169342
0.166877
0.164092
0.161003
0.157601
0.153875
0.149811
0.145385
0.140568
0.135322
0.1296
0.12336
0.116507
0.109044
0.100693
0.0918087
0.0811933
0.0711728
0.0560592
0.0477379
0.0202233
0.0276652
0.175536
0.173907
0.172007
0.169829
0.167311
0.164474
0.161339
0.157899
0.154143
0.150057
0.145615
0.140786
0.135535
0.129811
0.123571
0.116722
0.109265
0.100918
0.0920448
0.0814312
0.0714256
0.0562937
0.0479814
0.0203614
0.0277467
0.176247
0.174568
0.172604
0.170372
0.167792
0.164894
0.161708
0.158227
0.154439
0.150328
0.145869
0.14103
0.135773
0.130047
0.123809
0.116963
0.109513
0.101172
0.0923115
0.0816989
0.071713
0.0565582
0.0482652
0.0205183
0.0278594
0.177061
0.175316
0.173269
0.170973
0.16832
0.165352
0.162111
0.158586
0.154763
0.150627
0.146151
0.141301
0.136038
0.130311
0.124076
0.117234
0.109792
0.101457
0.092611
0.081999
0.0720381
0.0568558
0.0485935
0.0206983
0.0280097
0.178001
0.176163
0.174006
0.171634
0.168896
0.16585
0.162549
0.158976
0.155117
0.150955
0.146461
0.1416
0.136333
0.130605
0.124373
0.117535
0.110104
0.101775
0.0929465
0.0823343
0.0724049
0.0571893
0.0489739
0.0209037
0.0282113
0.179095
0.177117
0.174816
0.172358
0.16952
0.166386
0.16302
0.159397
0.155501
0.151313
0.146802
0.141931
0.13666
0.130931
0.124704
0.117872
0.110452
0.102129
0.0933228
0.0827068
0.0728214
0.0575569
0.0494254
0.0211201
0.0285049
0.180337
0.178141
0.17566
0.173114
0.170164
0.166935
0.163505
0.159832
0.1559
0.151687
0.147161
0.142281
0.137006
0.131279
0.125057
0.11823
0.110823
0.102505
0.0937269
0.0830996
0.0732774
0.0579349
0.0499514
0.0213117
0.0289318
0.181681
0.179176
0.176487
0.173858
0.170789
0.167466
0.163976
0.160257
0.156292
0.152058
0.147518
0.142631
0.137354
0.131628
0.125411
0.118591
0.111198
0.102884
0.0941348
0.0834951
0.0737402
0.0583169
0.0504966
0.0215153
0.0294121
0.18313
0.180206
0.177281
0.17458
0.171388
0.167974
0.164429
0.160669
0.156673
0.15242
0.147869
0.142976
0.137699
0.131975
0.125765
0.11895
0.111571
0.103262
0.0945401
0.0838913
0.0741985
0.058708
0.0510347
0.0217596
0.0298988
0.184693
0.181219
0.178036
0.175276
0.171959
0.168458
0.164864
0.161065
0.157044
0.152775
0.148214
0.143317
0.138039
0.132318
0.126114
0.119305
0.111939
0.103636
0.0949396
0.0842863
0.0746476
0.0591074
0.0515569
0.0220486
0.0303791
0.186381
0.182207
0.178744
0.175942
0.172502
0.168918
0.16528
0.161447
0.157403
0.15312
0.148552
0.143651
0.138374
0.132655
0.126458
0.119656
0.112301
0.104006
0.0953312
0.0846779
0.0750847
0.0595122
0.0520592
0.0223776
0.0308508
0.188197
0.183161
0.1794
0.176576
0.173017
0.169355
0.165678
0.161815
0.15775
0.153456
0.148881
0.143978
0.138702
0.132986
0.126795
0.119999
0.112656
0.104368
0.095713
0.085064
0.0755077
0.0599189
0.0525394
0.0227405
0.0313126
0.190136
0.184078
0.180004
0.177177
0.173505
0.16977
0.166058
0.162169
0.158086
0.153781
0.149201
0.144297
0.139022
0.13331
0.127124
0.120334
0.113001
0.104721
0.0960833
0.0854423
0.0759149
0.0603239
0.0529959
0.02313
0.0317635
0.192187
0.184956
0.180553
0.177744
0.17397
0.170164
0.16642
0.162508
0.15841
0.154096
0.149512
0.144606
0.139333
0.133624
0.127443
0.120659
0.113335
0.105064
0.0964405
0.0858107
0.0763049
0.0607236
0.0534275
0.0235383
0.0322027
0.19433
0.185798
0.18105
0.178277
0.174411
0.170538
0.166766
0.162833
0.15872
0.154399
0.149811
0.144905
0.139633
0.133927
0.127751
0.120973
0.113656
0.105395
0.0967831
0.0861668
0.0766763
0.0611141
0.0538335
0.0239573
0.0326292
0.196541
0.186605
0.181497
0.178777
0.174831
0.170892
0.167095
0.163144
0.159018
0.154689
0.150099
0.145192
0.139921
0.134218
0.128046
0.121274
0.113964
0.105712
0.0971093
0.086508
0.0770274
0.0614913
0.0542128
0.0243783
0.0330411
0.198783
0.187377
0.181898
0.179245
0.17523
0.171227
0.167406
0.163438
0.1593
0.154966
0.150372
0.145465
0.140196
0.134495
0.128326
0.121559
0.114255
0.106012
0.0974172
0.0868318
0.0773566
0.0618514
0.0545642
0.0247936
0.0334357
0.201039
0.188113
0.182265
0.179684
0.17561
0.171544
0.167699
0.163717
0.159568
0.155228
0.150632
0.145724
0.140456
0.134758
0.128592
0.121829
0.11453
0.106295
0.0977058
0.0871366
0.077663
0.0621918
0.0548875
0.0251961
0.0338118
0.203367
0.188818
0.182606
0.180098
0.175972
0.171842
0.167975
0.163979
0.15982
0.155475
0.150876
0.145968
0.140701
0.135004
0.12884
0.122082
0.114786
0.106559
0.0979737
0.0874195
0.0779456
0.0625068
0.0551837
0.0255718
0.0341713
0.205812
0.1895
0.182907
0.180457
0.176291
0.172103
0.168214
0.164208
0.16004
0.15569
0.15109
0.146181
0.140914
0.135219
0.129057
0.122301
0.115008
0.106787
0.0982058
0.0876625
0.0781905
0.0627731
0.0554443
0.0258806
0.034504
0.207907
0.190106
0.183122
0.180685
0.176503
0.17228
0.168376
0.164362
0.160188
0.155836
0.151234
0.146325
0.141058
0.135363
0.129203
0.122448
0.115157
0.106939
0.098362
0.0878223
0.0783574
0.0629424
0.0556305
0.0260616
0.0347524
)
;

boundaryField
{
    inlet
    {
        type            zeroGradient;
    }
    outlet
    {
        type            fixedValue;
        value           uniform 0;
    }
    upperWall
    {
        type            zeroGradient;
    }
    lowerWall
    {
        type            zeroGradient;
    }
    frontAndBack
    {
        type            empty;
    }
    procBoundary0to1
    {
        type            processor;
        value           nonuniform List<scalar> 
59
(
0.183
0.182991
0.182985
0.182982
0.182978
0.182973
0.182969
0.182963
0.182958
0.182952
0.182945
0.182805
0.182805
0.182799
0.182791
0.182784
0.182776
0.182768
0.18276
0.182752
0.182744
0.182736
0.182728
0.18272
0.182713
0.182705
0.182698
0.182691
0.182683
0.182674
0.182666
0.182658
0.182649
0.182641
0.182633
0.182625
0.182618
0.18261
0.182603
0.182596
0.18259
0.182584
0.182579
0.182574
0.18257
0.182567
0.182566
0.182564
0.182564
0.182459
0.182459
0.18246
0.182462
0.182464
0.182466
0.182468
0.18247
0.182474
0.182479
)
;
    }
}


// ************************************************************************* //
