/*--------------------------------*- C++ -*----------------------------------*\
  =========                 |
  \\      /  F ield         | OpenFOAM: The Open Source CFD Toolbox
   \\    /   O peration     | Website:  https://openfoam.org
    \\  /    A nd           | Version:  6
     \\/     M anipulation  |
\*---------------------------------------------------------------------------*/
FoamFile
{
    version     2.0;
    format      ascii;
    class       surfaceScalarField;
    location    "0.09";
    object      phi;
}
// * * * * * * * * * * * * * * * * * * * * * * * * * * * * * * * * * * * * * //

dimensions      [0 3 -1 0 0 0 0];

internalField   nonuniform List<scalar> 
6048
(
4.3941e-07
6.90298e-10
4.38716e-07
6.9362e-10
4.38019e-07
6.97408e-10
4.37317e-07
7.0171e-10
4.36611e-07
7.06612e-10
4.35898e-07
7.12205e-10
4.3518e-07
7.18615e-10
4.34454e-07
7.25985e-10
4.33719e-07
7.34513e-10
4.32975e-07
7.44447e-10
4.32219e-07
7.56129e-10
4.31449e-07
7.69985e-10
4.30662e-07
7.86606e-10
4.29855e-07
8.06755e-10
4.29024e-07
8.31486e-10
4.28162e-07
8.62214e-10
4.27261e-07
9.00878e-10
4.2631e-07
9.50207e-10
4.25296e-07
1.01406e-09
4.24198e-07
1.09806e-09
4.22988e-07
1.2106e-09
4.21623e-07
1.36473e-09
4.20041e-07
1.58177e-09
4.18143e-07
1.89812e-09
4.1576e-07
2.38327e-09
4.12591e-07
3.16885e-09
4.08003e-07
4.58831e-09
4.00793e-07
7.2093e-09
3.87315e-07
1.3478e-08
2.37789e-08
3.63536e-07
4.68644e-07
1.42407e-09
4.67907e-07
1.43068e-09
4.67166e-07
1.43811e-09
4.66422e-07
1.44648e-09
4.65672e-07
1.45592e-09
4.64918e-07
1.46661e-09
4.64158e-07
1.47875e-09
4.63391e-07
1.49261e-09
4.62617e-07
1.50854e-09
4.61835e-07
1.52699e-09
4.61042e-07
1.54852e-09
4.60238e-07
1.5739e-09
4.59421e-07
1.60412e-09
4.58587e-07
1.64052e-09
4.57734e-07
1.68486e-09
4.56856e-07
1.73958e-09
4.55949e-07
1.80795e-09
4.55005e-07
1.89454e-09
4.54013e-07
2.00576e-09
4.5296e-07
2.15084e-09
4.51828e-07
2.34334e-09
4.50589e-07
2.60385e-09
4.49205e-07
2.96513e-09
4.47622e-07
3.48098e-09
4.45756e-07
4.24918e-09
4.43482e-07
5.44361e-09
4.40595e-07
7.47474e-09
4.36796e-07
1.10081e-08
4.31611e-07
1.86639e-08
3.28883e-08
4.22501e-07
4.78611e-07
2.173e-09
4.77859e-07
2.18323e-09
4.77102e-07
2.19463e-09
4.76341e-07
2.20736e-09
4.75576e-07
2.22161e-09
4.74805e-07
2.23763e-09
4.74028e-07
2.25574e-09
4.73244e-07
2.27633e-09
4.72453e-07
2.29987e-09
4.71652e-07
2.32702e-09
4.70842e-07
2.3586e-09
4.70021e-07
2.39569e-09
4.69185e-07
2.43973e-09
4.68333e-07
2.49259e-09
4.67461e-07
2.55681e-09
4.66565e-07
2.6358e-09
4.65639e-07
2.7342e-09
4.64675e-07
2.85842e-09
4.63663e-07
3.01742e-09
4.6259e-07
3.22399e-09
4.61436e-07
3.49676e-09
4.60177e-07
3.86366e-09
4.58774e-07
4.36819e-09
4.57174e-07
5.08031e-09
4.55302e-07
6.12125e-09
4.53045e-07
7.70046e-09
4.50262e-07
1.02577e-08
4.46757e-07
1.45134e-08
4.42815e-07
2.26062e-08
3.6802e-08
4.38901e-07
4.84419e-07
2.93196e-09
4.83657e-07
2.94606e-09
4.8289e-07
2.96165e-09
4.82118e-07
2.97892e-09
4.81341e-07
2.99815e-09
4.80559e-07
3.01966e-09
4.79771e-07
3.04385e-09
4.78976e-07
3.07122e-09
4.78174e-07
3.10244e-09
4.77363e-07
3.13831e-09
4.76541e-07
3.17991e-09
4.75708e-07
3.22865e-09
4.74862e-07
3.28635e-09
4.73999e-07
3.35548e-09
4.73116e-07
3.43925e-09
4.7221e-07
3.54206e-09
4.71274e-07
3.66984e-09
4.70302e-07
3.83075e-09
4.69283e-07
4.03614e-09
4.68205e-07
4.3021e-09
4.6705e-07
4.65185e-09
4.65794e-07
5.11979e-09
4.64404e-07
5.75849e-09
4.62833e-07
6.65064e-09
4.61021e-07
7.93374e-09
4.58884e-07
9.8373e-09
4.56344e-07
1.27979e-08
4.53348e-07
1.75097e-08
4.50325e-07
2.56282e-08
3.88594e-08
4.48268e-07
4.88523e-07
3.69882e-09
4.87752e-07
3.71699e-09
4.86976e-07
3.73692e-09
4.86196e-07
3.75889e-09
4.85411e-07
3.78322e-09
4.84621e-07
3.81029e-09
4.83824e-07
3.84061e-09
4.8302e-07
3.87479e-09
4.82209e-07
3.91362e-09
4.81389e-07
3.95812e-09
4.8056e-07
4.00958e-09
4.79719e-07
4.06972e-09
4.78864e-07
4.14076e-09
4.77994e-07
4.22566e-09
4.77105e-07
4.32833e-09
4.76193e-07
4.45406e-09
4.75253e-07
4.60998e-09
4.74278e-07
4.80583e-09
4.73259e-07
5.05512e-09
4.72184e-07
5.37686e-09
4.71038e-07
5.79818e-09
4.69799e-07
6.3588e-09
4.68439e-07
7.11824e-09
4.66922e-07
8.16799e-09
4.65201e-07
9.65449e-09
4.63225e-07
1.18128e-08
4.60968e-07
1.50549e-08
4.58473e-07
2.00047e-08
4.5618e-07
2.79221e-08
3.9991e-08
4.55048e-07
4.91688e-07
4.47244e-09
4.9091e-07
4.49483e-09
4.90127e-07
4.51925e-09
4.8934e-07
4.54601e-09
4.88548e-07
4.57549e-09
4.8775e-07
4.60817e-09
4.86946e-07
4.64461e-09
4.86135e-07
4.68554e-09
4.85317e-07
4.7319e-09
4.8449e-07
4.78485e-09
4.83654e-07
4.84591e-09
4.82807e-07
4.91708e-09
4.81947e-07
5.00095e-09
4.81071e-07
5.10094e-09
4.80178e-07
5.22159e-09
4.79263e-07
5.36899e-09
4.78322e-07
5.55133e-09
4.77348e-07
5.77978e-09
4.76333e-07
6.0697e-09
4.75267e-07
6.44252e-09
4.74137e-07
6.92857e-09
4.72924e-07
7.57156e-09
4.71607e-07
8.43586e-09
4.70157e-07
9.61795e-09
4.68544e-07
1.12668e-08
4.66745e-07
1.36123e-08
4.6477e-07
1.70294e-08
4.62719e-07
2.20565e-08
4.61e-07
2.96411e-08
4.05614e-08
4.60429e-07
4.94249e-07
5.25209e-09
4.93465e-07
5.27884e-09
4.92676e-07
5.30785e-09
4.91883e-07
5.33947e-09
4.91084e-07
5.37415e-09
4.9028e-07
5.41243e-09
4.8947e-07
5.45495e-09
4.88653e-07
5.50254e-09
4.87828e-07
5.55624e-09
4.86996e-07
5.6174e-09
4.86154e-07
5.68773e-09
4.85302e-07
5.76946e-09
4.84437e-07
5.86551e-09
4.83558e-07
5.97974e-09
4.82663e-07
6.11722e-09
4.81747e-07
6.28476e-09
4.80807e-07
6.49146e-09
4.79837e-07
6.74968e-09
4.7883e-07
7.07632e-09
4.77778e-07
7.49472e-09
4.76669e-07
8.03762e-09
4.75489e-07
8.7515e-09
4.74221e-07
9.70345e-09
4.72848e-07
1.09917e-08
4.71352e-07
1.27628e-08
4.6973e-07
1.5234e-08
4.68021e-07
1.87382e-08
4.66351e-07
2.37271e-08
4.65086e-07
3.0906e-08
4.07629e-08
4.64884e-07
4.96383e-07
6.03728e-09
4.95594e-07
6.06849e-09
4.94799e-07
6.10217e-09
4.94e-07
6.13871e-09
4.93196e-07
6.17861e-09
4.92386e-07
6.22245e-09
4.91569e-07
6.27097e-09
4.90747e-07
6.32508e-09
4.89917e-07
6.38592e-09
4.8908e-07
6.45498e-09
4.88233e-07
6.53414e-09
4.87377e-07
6.62587e-09
4.86509e-07
6.73335e-09
4.85628e-07
6.86082e-09
4.84731e-07
7.0138e-09
4.83816e-07
7.1997e-09
4.82879e-07
7.4284e-09
4.81916e-07
7.71319e-09
4.8092e-07
8.07215e-09
4.79885e-07
8.53008e-09
4.78801e-07
9.12129e-09
4.77659e-07
9.89385e-09
4.76446e-07
1.09158e-08
4.75154e-07
1.22844e-08
4.73776e-07
1.41401e-08
4.72327e-07
1.66833e-08
4.70861e-07
2.02038e-08
4.69515e-07
2.50733e-08
4.68609e-07
3.18126e-08
4.07107e-08
4.68661e-07
4.98196e-07
6.82767e-09
4.97401e-07
6.86343e-09
4.96601e-07
6.90182e-09
4.95797e-07
6.94331e-09
4.94987e-07
6.98841e-09
4.94171e-07
7.03777e-09
4.9335e-07
7.09218e-09
4.92523e-07
7.15263e-09
4.91688e-07
7.22036e-09
4.90846e-07
7.29697e-09
4.89996e-07
7.38448e-09
4.89136e-07
7.48555e-09
4.88266e-07
7.60362e-09
4.87384e-07
7.74319e-09
4.86487e-07
7.9102e-09
4.85574e-07
8.11251e-09
4.84642e-07
8.36058e-09
4.83687e-07
8.66843e-09
4.82704e-07
9.055e-09
4.81688e-07
9.54599e-09
4.80633e-07
1.01766e-08
4.79531e-07
1.09954e-08
4.78377e-07
1.20699e-08
4.77167e-07
1.34943e-08
4.75907e-07
1.54004e-08
4.74621e-07
1.79698e-08
4.73374e-07
2.1451e-08
4.72301e-07
2.61455e-08
4.71679e-07
3.24354e-08
4.04772e-08
4.71912e-07
4.99755e-07
7.62299e-09
4.98955e-07
7.66336e-09
4.9815e-07
7.70652e-09
4.97341e-07
7.75295e-09
4.96526e-07
7.80322e-09
4.95706e-07
7.85803e-09
4.9488e-07
7.91818e-09
4.94048e-07
7.98478e-09
4.93209e-07
8.0591e-09
4.92363e-07
8.14285e-09
4.91509e-07
8.23819e-09
4.90647e-07
8.3479e-09
4.89775e-07
8.47562e-09
4.88892e-07
8.62608e-09
4.87997e-07
8.8055e-09
4.87087e-07
9.0221e-09
4.86161e-07
9.28675e-09
4.85215e-07
9.61397e-09
4.84247e-07
1.00232e-08
4.83253e-07
1.05405e-08
4.82228e-07
1.12015e-08
4.81169e-07
1.20542e-08
4.80075e-07
1.31644e-08
4.78947e-07
1.46217e-08
4.778e-07
1.6548e-08
4.76664e-07
1.9105e-08
4.75611e-07
2.25039e-08
4.7477e-07
2.69867e-08
4.74374e-07
3.28319e-08
4.01105e-08
4.7474e-07
5.01108e-07
5.00304e-07
8.46804e-09
4.99494e-07
8.516e-09
4.9868e-07
8.56737e-09
4.9786e-07
8.62276e-09
4.97035e-07
8.6829e-09
4.96205e-07
8.74867e-09
4.95369e-07
8.82116e-09
4.94526e-07
8.90177e-09
4.93677e-07
8.99223e-09
4.9282e-07
9.09481e-09
4.91955e-07
9.21241e-09
4.91082e-07
9.34878e-09
4.90199e-07
9.50882e-09
4.89306e-07
9.69896e-09
4.884e-07
9.92763e-09
4.87481e-07
1.0206e-08
4.86547e-07
1.05487e-08
4.85594e-07
1.09755e-08
4.84622e-07
1.15125e-08
4.83629e-07
1.21948e-08
4.82614e-07
1.30694e-08
4.81579e-07
1.41994e-08
4.80532e-07
1.56687e-08
4.79491e-07
1.75886e-08
4.78494e-07
2.01017e-08
4.77613e-07
2.33857e-08
4.76966e-07
2.76333e-08
4.76751e-07
3.30467e-08
3.9643e-08
4.77219e-07
5.01481e-07
9.27728e-09
5.00667e-07
9.33003e-09
4.99848e-07
9.38632e-09
4.99024e-07
9.44677e-09
4.98194e-07
9.51215e-09
4.9736e-07
9.58333e-09
4.96519e-07
9.66149e-09
4.95673e-07
9.74803e-09
4.94821e-07
9.84475e-09
4.93961e-07
9.95397e-09
4.93095e-07
1.00787e-08
4.92221e-07
1.02226e-08
4.91339e-07
1.03909e-08
4.90448e-07
1.059e-08
4.89547e-07
1.08285e-08
4.88636e-07
1.11175e-08
4.87713e-07
1.14719e-08
4.86777e-07
1.19112e-08
4.85828e-07
1.24612e-08
4.84867e-07
1.31561e-08
4.83895e-07
1.40412e-08
4.82918e-07
1.51761e-08
4.81948e-07
1.66388e-08
4.81008e-07
1.85294e-08
4.80137e-07
2.09727e-08
4.79405e-07
2.41172e-08
4.78923e-07
2.81158e-08
4.78855e-07
3.31143e-08
3.90976e-08
4.794e-07
5.02511e-07
1.00908e-08
5.01693e-07
1.01484e-08
5.00869e-07
1.02096e-08
5.00041e-07
1.0275e-08
4.99208e-07
1.03455e-08
4.98369e-07
1.04219e-08
4.97525e-07
1.05055e-08
4.96676e-07
1.05976e-08
4.9582e-07
1.07001e-08
4.94959e-07
1.08153e-08
4.94091e-07
1.09463e-08
4.93217e-07
1.10968e-08
4.92336e-07
1.1272e-08
4.91448e-07
1.14783e-08
4.90552e-07
1.17242e-08
4.89649e-07
1.2021e-08
4.88737e-07
1.23831e-08
4.87819e-07
1.28299e-08
4.86894e-07
1.33864e-08
4.85964e-07
1.40855e-08
4.85035e-07
1.49704e-08
4.84114e-07
1.60967e-08
4.83217e-07
1.75359e-08
4.82369e-07
1.93778e-08
4.81611e-07
2.17304e-08
4.81011e-07
2.47175e-08
4.80667e-07
2.84596e-08
4.8072e-07
3.30618e-08
3.84905e-08
4.81327e-07
5.03414e-07
1.09085e-08
5.02592e-07
1.09708e-08
5.01764e-07
1.10369e-08
5.00932e-07
1.11072e-08
5.00095e-07
1.11827e-08
4.99253e-07
1.12642e-08
4.98405e-07
1.13529e-08
4.97553e-07
1.14502e-08
4.96695e-07
1.1558e-08
4.95832e-07
1.16786e-08
4.94963e-07
1.1815e-08
4.94089e-07
1.1971e-08
4.93209e-07
1.21517e-08
4.92324e-07
1.23633e-08
4.91434e-07
1.26145e-08
4.90539e-07
1.2916e-08
4.8964e-07
1.32822e-08
4.88738e-07
1.37315e-08
4.87836e-07
1.42883e-08
4.86938e-07
1.49837e-08
4.8605e-07
1.58584e-08
4.85183e-07
1.69639e-08
4.84354e-07
1.83651e-08
4.8359e-07
2.01416e-08
4.82933e-07
2.23868e-08
4.82448e-07
2.52033e-08
4.82221e-07
2.8686e-08
4.82372e-07
3.29105e-08
3.78338e-08
4.83029e-07
5.04205e-07
1.17299e-08
5.03379e-07
1.17971e-08
5.02548e-07
1.18679e-08
5.01712e-07
1.19431e-08
5.00871e-07
1.20234e-08
5.00026e-07
1.21098e-08
4.99175e-07
1.22034e-08
4.9832e-07
1.23056e-08
4.9746e-07
1.24182e-08
4.96595e-07
1.25436e-08
4.95725e-07
1.26846e-08
4.94851e-07
1.2845e-08
4.93973e-07
1.30298e-08
4.93091e-07
1.32451e-08
4.92207e-07
1.34992e-08
4.9132e-07
1.38026e-08
4.90433e-07
1.4169e-08
4.89548e-07
1.46163e-08
4.88669e-07
1.51675e-08
4.87801e-07
1.58519e-08
4.86952e-07
1.67072e-08
4.86135e-07
1.77808e-08
4.85369e-07
1.91312e-08
4.84682e-07
2.08286e-08
4.84116e-07
2.2953e-08
4.8373e-07
2.55896e-08
4.83603e-07
2.8813e-08
4.83836e-07
3.26774e-08
3.71363e-08
4.84533e-07
5.14392e-07
1.28581e-08
5.13257e-07
1.29324e-08
5.12115e-07
1.30103e-08
5.10965e-07
1.30926e-08
5.09809e-07
1.31799e-08
5.08645e-07
1.32733e-08
5.07475e-07
1.33739e-08
5.06297e-07
1.3483e-08
5.05113e-07
1.36024e-08
5.03922e-07
1.37344e-08
5.02725e-07
1.38817e-08
5.01522e-07
1.4048e-08
5.00314e-07
1.4238e-08
4.99101e-07
1.44578e-08
4.97885e-07
1.47152e-08
4.96667e-07
1.50202e-08
4.9545e-07
1.53861e-08
4.94237e-07
1.58295e-08
4.93033e-07
1.6372e-08
4.91843e-07
1.70412e-08
4.90679e-07
1.78715e-08
4.89554e-07
1.89062e-08
4.88487e-07
2.01974e-08
4.87509e-07
2.18068e-08
4.86659e-07
2.38029e-08
4.85993e-07
2.62563e-08
4.8558e-07
2.92257e-08
4.85507e-07
3.27505e-08
3.67843e-08
4.85859e-07
4.98516e-07
1.34635e-08
4.97907e-07
1.35408e-08
4.97296e-07
1.36218e-08
4.96681e-07
1.3707e-08
4.96064e-07
1.37973e-08
4.95444e-07
1.38935e-08
4.94821e-07
1.39966e-08
4.94196e-07
1.41082e-08
4.93569e-07
1.42297e-08
4.9294e-07
1.43634e-08
4.92309e-07
1.45119e-08
4.91678e-07
1.46788e-08
4.91048e-07
1.48685e-08
4.90419e-07
1.50868e-08
4.89793e-07
1.5341e-08
4.89173e-07
1.56408e-08
4.8856e-07
1.59982e-08
4.87961e-07
1.64292e-08
4.87379e-07
1.69536e-08
4.86824e-07
1.75967e-08
4.86305e-07
1.83901e-08
4.85839e-07
1.93725e-08
4.85446e-07
2.05904e-08
4.85155e-07
2.20974e-08
4.85006e-07
2.39519e-08
4.8505e-07
2.62122e-08
4.85351e-07
2.89245e-08
4.85985e-07
3.21171e-08
3.5746e-08
4.87023e-07
4.84216e-07
1.35985e-08
4.84082e-07
1.36754e-08
4.83948e-07
1.37558e-08
4.83814e-07
1.38403e-08
4.83682e-07
1.39297e-08
4.83551e-07
1.40248e-08
4.8342e-07
1.41267e-08
4.83292e-07
1.42366e-08
4.83166e-07
1.43561e-08
4.83042e-07
1.44872e-08
4.82921e-07
1.46325e-08
4.82805e-07
1.47952e-08
4.82694e-07
1.49796e-08
4.8259e-07
1.51909e-08
4.82495e-07
1.54362e-08
4.82411e-07
1.57242e-08
4.82343e-07
1.60664e-08
4.82295e-07
1.64771e-08
4.82274e-07
1.69747e-08
4.82289e-07
1.75822e-08
4.82351e-07
1.83279e-08
4.82477e-07
1.92464e-08
4.82689e-07
2.03786e-08
4.83015e-07
2.17708e-08
4.83495e-07
2.34723e-08
4.84176e-07
2.55312e-08
4.85116e-07
2.79839e-08
4.86383e-07
3.08505e-08
3.40904e-08
4.88039e-07
4.71342e-07
1.33107e-08
4.71634e-07
1.33839e-08
4.71929e-07
1.34605e-08
4.72228e-07
1.3541e-08
4.72532e-07
1.36262e-08
4.7284e-07
1.37168e-08
4.73153e-07
1.38139e-08
4.73471e-07
1.39185e-08
4.73794e-07
1.40323e-08
4.74125e-07
1.41569e-08
4.74462e-07
1.42949e-08
4.74808e-07
1.44492e-08
4.75164e-07
1.46238e-08
4.75531e-07
1.48234e-08
4.75913e-07
1.50545e-08
4.76312e-07
1.53251e-08
4.76733e-07
1.56457e-08
4.77181e-07
1.60293e-08
4.77663e-07
1.64924e-08
4.7819e-07
1.70556e-08
4.78773e-07
1.77442e-08
4.79431e-07
1.85885e-08
4.80186e-07
1.96241e-08
4.81066e-07
2.08906e-08
4.82109e-07
2.24296e-08
4.8336e-07
2.42803e-08
4.84872e-07
2.64711e-08
4.86706e-07
2.90166e-08
3.18798e-08
4.88917e-07
4.59755e-07
1.2643e-08
4.60429e-07
1.27097e-08
4.6111e-07
1.27796e-08
4.61798e-07
1.28532e-08
4.62493e-07
1.29311e-08
4.63196e-07
1.30142e-08
4.63906e-07
1.31033e-08
4.64625e-07
1.31995e-08
4.65353e-07
1.33042e-08
4.66091e-07
1.34189e-08
4.6684e-07
1.3546e-08
4.67601e-07
1.36881e-08
4.68376e-07
1.38488e-08
4.69167e-07
1.40323e-08
4.69977e-07
1.42446e-08
4.70809e-07
1.44928e-08
4.71669e-07
1.47862e-08
4.72562e-07
1.51364e-08
4.73496e-07
1.55582e-08
4.74482e-07
1.60695e-08
4.75534e-07
1.66926e-08
4.76668e-07
1.74538e-08
4.77909e-07
1.83834e-08
4.79285e-07
1.9515e-08
4.80831e-07
2.08832e-08
4.82592e-07
2.25198e-08
4.84616e-07
2.44469e-08
4.86958e-07
2.66747e-08
2.91708e-08
4.89667e-07
4.49327e-07
1.16343e-08
4.50344e-07
1.16919e-08
4.51372e-07
1.17524e-08
4.52408e-07
1.18164e-08
4.53455e-07
1.18845e-08
4.54512e-07
1.19573e-08
4.55579e-07
1.20357e-08
4.56658e-07
1.21206e-08
4.57749e-07
1.22131e-08
4.58853e-07
1.2315e-08
4.59971e-07
1.24279e-08
4.61105e-07
1.25544e-08
4.62256e-07
1.26976e-08
4.63427e-07
1.28613e-08
4.64621e-07
1.30506e-08
4.65842e-07
1.32719e-08
4.67095e-07
1.35332e-08
4.68387e-07
1.38446e-08
4.69726e-07
1.4219e-08
4.71124e-07
1.46718e-08
4.72595e-07
1.52221e-08
4.74156e-07
1.58922e-08
4.75832e-07
1.67076e-08
4.7765e-07
1.76964e-08
4.79647e-07
1.88868e-08
4.81862e-07
2.03043e-08
4.84343e-07
2.19659e-08
4.87139e-07
2.38787e-08
2.60149e-08
4.90295e-07
4.39941e-07
1.03194e-08
4.41267e-07
1.03656e-08
4.42605e-07
1.04146e-08
4.43955e-07
1.04667e-08
4.45317e-07
1.05225e-08
4.46691e-07
1.05826e-08
4.48079e-07
1.06477e-08
4.49481e-07
1.07187e-08
4.50898e-07
1.07966e-08
4.5233e-07
1.08827e-08
4.53779e-07
1.09787e-08
4.55247e-07
1.10866e-08
4.56736e-07
1.12092e-08
4.58247e-07
1.13496e-08
4.59786e-07
1.15123e-08
4.61355e-07
1.17027e-08
4.6296e-07
1.19275e-08
4.6461e-07
1.21954e-08
4.66311e-07
1.25171e-08
4.68078e-07
1.29056e-08
4.69923e-07
1.33768e-08
4.71866e-07
1.39491e-08
4.7393e-07
1.46435e-08
4.76144e-07
1.54826e-08
4.78542e-07
1.64892e-08
4.81163e-07
1.76833e-08
4.84051e-07
1.90776e-08
4.87252e-07
2.06771e-08
2.24587e-08
4.90809e-07
4.31492e-07
8.72993e-09
4.33094e-07
8.76277e-09
4.34711e-07
8.79803e-09
4.36341e-07
8.83612e-09
4.37986e-07
8.87752e-09
4.39646e-07
8.92275e-09
4.41322e-07
8.97241e-09
4.43013e-07
9.02723e-09
4.44721e-07
9.0881e-09
4.46448e-07
9.15611e-09
4.48194e-07
9.23262e-09
4.49961e-07
9.31936e-09
4.51752e-07
9.41849e-09
4.53569e-07
9.53277e-09
4.55416e-07
9.66569e-09
4.57297e-07
9.82169e-09
4.59218e-07
1.00063e-08
4.61187e-07
1.02266e-08
4.63213e-07
1.04911e-08
4.65308e-07
1.08103e-08
4.67488e-07
1.1197e-08
4.69771e-07
1.16657e-08
4.72181e-07
1.22332e-08
4.74747e-07
1.2917e-08
4.77501e-07
1.37348e-08
4.80483e-07
1.47017e-08
4.83734e-07
1.58271e-08
4.87297e-07
1.71141e-08
1.85446e-08
4.91211e-07
4.23883e-07
6.89433e-09
4.25734e-07
6.91195e-09
4.276e-07
6.93169e-09
4.29483e-07
6.95391e-09
4.31381e-07
6.979e-09
4.33296e-07
7.00743e-09
4.35229e-07
7.03967e-09
4.3718e-07
7.07633e-09
4.3915e-07
7.11812e-09
4.4114e-07
7.16589e-09
4.43152e-07
7.22071e-09
4.45188e-07
7.28393e-09
4.47249e-07
7.35723e-09
4.49339e-07
7.44274e-09
4.51461e-07
7.54315e-09
4.53621e-07
7.66185e-09
4.55824e-07
7.80309e-09
4.58079e-07
7.97218e-09
4.60394e-07
8.17566e-09
4.62783e-07
8.42148e-09
4.65261e-07
8.71914e-09
4.67847e-07
9.07962e-09
4.70565e-07
9.51523e-09
4.73443e-07
1.0039e-08
4.76514e-07
1.06637e-08
4.79816e-07
1.14002e-08
4.83388e-07
1.22549e-08
4.87272e-07
1.32298e-08
1.43111e-08
4.91506e-07
4.17029e-07
4.83819e-09
4.19102e-07
4.83898e-09
4.21192e-07
4.84156e-09
4.23299e-07
4.84624e-09
4.25425e-07
4.85336e-09
4.27569e-07
4.86327e-09
4.29732e-07
4.87637e-09
4.31916e-07
4.8931e-09
4.3412e-07
4.91398e-09
4.36346e-07
4.93965e-09
4.38596e-07
4.97086e-09
4.40871e-07
5.00857e-09
4.43175e-07
5.05396e-09
4.45509e-07
5.1085e-09
4.47878e-07
5.17406e-09
4.50287e-07
5.25296e-09
4.52742e-07
5.34813e-09
4.55251e-07
5.46316e-09
4.57824e-07
5.6025e-09
4.60474e-07
5.77149e-09
4.63217e-07
5.97651e-09
4.66071e-07
6.22487e-09
4.69062e-07
6.52471e-09
4.72216e-07
6.88457e-09
4.75567e-07
7.31267e-09
4.79152e-07
7.81596e-09
4.83008e-07
8.3983e-09
4.87177e-07
9.06044e-09
9.7935e-09
4.91695e-07
4.10849e-07
2.58462e-09
4.13121e-07
2.56713e-09
4.15412e-07
2.55108e-09
4.17721e-07
2.53675e-09
4.2005e-07
2.52441e-09
4.22399e-07
2.51431e-09
4.24769e-07
2.50673e-09
4.2716e-07
2.50197e-09
4.29573e-07
2.50037e-09
4.32011e-07
2.50231e-09
4.34473e-07
2.50826e-09
4.36963e-07
2.51874e-09
4.39483e-07
2.53444e-09
4.42035e-07
2.55616e-09
4.44624e-07
2.58493e-09
4.47255e-07
2.622e-09
4.49934e-07
2.66891e-09
4.5267e-07
2.72756e-09
4.55472e-07
2.80026e-09
4.58354e-07
2.88976e-09
4.61331e-07
2.99931e-09
4.64423e-07
3.13257e-09
4.67654e-07
3.29359e-09
4.71052e-07
3.48651e-09
4.7465e-07
3.71524e-09
4.78483e-07
3.98291e-09
4.8259e-07
4.29107e-09
4.87011e-07
4.63944e-09
5.0238e-09
4.91781e-07
4.05274e-07
1.54428e-10
4.07724e-07
1.17366e-10
4.10193e-07
8.14112e-11
4.12683e-07
4.67761e-11
4.15194e-07
1.36515e-11
4.17726e-07
-1.77888e-11
4.2028e-07
-4.73838e-11
4.22857e-07
-7.49825e-11
4.25458e-07
-1.0044e-10
4.28084e-07
-1.23615e-10
4.30737e-07
-1.44368e-10
4.33418e-07
-1.62556e-10
4.3613e-07
-1.78033e-10
4.38877e-07
-1.90649e-10
4.41662e-07
-2.00243e-10
4.44491e-07
-2.06648e-10
4.4737e-07
-2.09692e-10
4.50306e-07
-2.09199e-10
4.53312e-07
-2.05e-10
4.56398e-07
-1.96944e-10
4.59583e-07
-1.84919e-10
4.62884e-07
-1.68879e-10
4.66326e-07
-1.48875e-10
4.69938e-07
-1.25094e-10
4.73751e-07
-9.79044e-11
4.77802e-07
-6.78632e-11
4.82129e-07
-3.57498e-11
4.86771e-07
-2.74555e-12
3.13843e-11
4.91763e-07
4.71163e-07
-3.24223e-09
4.74586e-07
-3.30632e-09
4.78037e-07
-3.36975e-09
4.81517e-07
-3.43235e-09
4.85024e-07
-3.49402e-09
4.88561e-07
-3.55471e-09
4.92128e-07
-3.61438e-09
4.95726e-07
-3.67307e-09
4.99357e-07
-3.73086e-09
5.03021e-07
-3.7879e-09
5.06721e-07
-3.84443e-09
5.10459e-07
-3.90078e-09
5.14239e-07
-3.95745e-09
5.18063e-07
-4.01507e-09
5.21937e-07
-4.07451e-09
5.25868e-07
-4.13691e-09
5.29862e-07
-4.20375e-09
5.33929e-07
-4.27693e-09
5.38083e-07
-4.35884e-09
5.42339e-07
-4.45249e-09
5.46715e-07
-4.56154e-09
5.51237e-07
-4.69034e-09
5.55932e-07
-4.84389e-09
5.60835e-07
-5.02768e-09
5.65984e-07
-5.24731e-09
5.71424e-07
-5.50793e-09
5.77202e-07
-5.81328e-09
5.83365e-07
-6.16579e-09
-6.56026e-09
5.89956e-07
4.74049e-07
-6.53982e-09
4.77373e-07
-6.6301e-09
4.80723e-07
-6.72013e-09
4.84101e-07
-6.80983e-09
4.87506e-07
-6.89917e-09
4.90939e-07
-6.98821e-09
4.94402e-07
-7.07705e-09
4.97895e-07
-7.1659e-09
5.01419e-07
-7.25507e-09
5.04976e-07
-7.345e-09
5.08568e-07
-7.4363e-09
5.12197e-07
-7.52978e-09
5.15866e-07
-7.62655e-09
5.19579e-07
-7.72803e-09
5.23341e-07
-7.83611e-09
5.27157e-07
-7.95321e-09
5.31036e-07
-8.08244e-09
5.34986e-07
-8.22774e-09
5.39022e-07
-8.39408e-09
5.43157e-07
-8.58759e-09
5.47411e-07
-8.81568e-09
5.51808e-07
-9.08712e-09
5.56376e-07
-9.41193e-09
5.61149e-07
-9.80098e-09
5.66167e-07
-1.02652e-08
5.71474e-07
-1.08147e-08
5.77116e-07
-1.14562e-08
5.83144e-07
-1.21937e-08
-1.3017e-08
5.89601e-07
4.77089e-07
-9.73063e-09
4.80305e-07
-9.84618e-09
4.83547e-07
-9.96188e-09
4.86815e-07
-1.00777e-08
4.90109e-07
-1.01938e-08
4.93431e-07
-1.03102e-08
4.96781e-07
-1.04271e-08
5.00161e-07
-1.05451e-08
5.0357e-07
-1.06646e-08
5.07011e-07
-1.07863e-08
5.10486e-07
-1.09111e-08
5.13997e-07
-1.10405e-08
5.17546e-07
-1.1176e-08
5.21138e-07
-1.13199e-08
5.24777e-07
-1.1475e-08
5.28469e-07
-1.1645e-08
5.32221e-07
-1.18346e-08
5.36043e-07
-1.20498e-08
5.39947e-07
-1.22981e-08
5.43948e-07
-1.25886e-08
5.48065e-07
-1.29326e-08
5.52321e-07
-1.33433e-08
5.56745e-07
-1.38358e-08
5.61371e-07
-1.44266e-08
5.66238e-07
-1.51323e-08
5.71391e-07
-1.59683e-08
5.7688e-07
-1.69449e-08
5.82755e-07
-1.80683e-08
-1.93229e-08
5.89061e-07
4.80294e-07
-1.28065e-08
4.83394e-07
-1.29463e-08
4.86519e-07
-1.30867e-08
4.89669e-07
-1.32276e-08
4.92844e-07
-1.33693e-08
4.96046e-07
-1.35119e-08
4.99275e-07
-1.36559e-08
5.02531e-07
-1.38018e-08
5.05817e-07
-1.39503e-08
5.09133e-07
-1.41025e-08
5.12482e-07
-1.42596e-08
5.15865e-07
-1.44233e-08
5.19284e-07
-1.45959e-08
5.22745e-07
-1.47804e-08
5.26251e-07
-1.49805e-08
5.29807e-07
-1.52012e-08
5.33421e-07
-1.54487e-08
5.37102e-07
-1.57308e-08
5.40861e-07
-1.60576e-08
5.44714e-07
-1.64413e-08
5.48678e-07
-1.68969e-08
5.52777e-07
-1.74421e-08
5.57039e-07
-1.80975e-08
5.61498e-07
-1.88852e-08
5.66194e-07
-1.98284e-08
5.71173e-07
-2.0948e-08
5.76488e-07
-2.22592e-08
5.8219e-07
-2.37705e-08
-2.54615e-08
5.88329e-07
4.83675e-07
-1.57587e-08
4.8665e-07
-1.59217e-08
4.89649e-07
-1.60856e-08
4.92672e-07
-1.62505e-08
4.95719e-07
-1.64166e-08
4.98791e-07
-1.65843e-08
5.0189e-07
-1.67541e-08
5.05014e-07
-1.69266e-08
5.08167e-07
-1.71028e-08
5.11348e-07
-1.72839e-08
5.1456e-07
-1.74716e-08
5.17805e-07
-1.7668e-08
5.21085e-07
-1.78759e-08
5.24403e-07
-1.80988e-08
5.27764e-07
-1.83416e-08
5.31173e-07
-1.86102e-08
5.34637e-07
-1.89123e-08
5.38164e-07
-1.92577e-08
5.41765e-07
-1.96588e-08
5.45455e-07
-2.01309e-08
5.49251e-07
-2.06926e-08
5.53175e-07
-2.13665e-08
5.57256e-07
-2.21783e-08
5.61527e-07
-2.31569e-08
5.66031e-07
-2.43322e-08
5.70815e-07
-2.57321e-08
5.75933e-07
-2.73772e-08
5.81443e-07
-2.92802e-08
-3.14151e-08
5.87397e-07
4.87243e-07
-1.85779e-08
4.90084e-07
-1.87629e-08
4.92947e-07
-1.89491e-08
4.95834e-07
-1.91368e-08
4.98743e-07
-1.93261e-08
5.01676e-07
-1.95175e-08
5.04634e-07
-1.97117e-08
5.07617e-07
-1.99094e-08
5.10626e-07
-2.01117e-08
5.13662e-07
-2.03202e-08
5.16727e-07
-2.05368e-08
5.19823e-07
-2.07638e-08
5.22952e-07
-2.10048e-08
5.26117e-07
-2.12638e-08
5.29322e-07
-2.15464e-08
5.32571e-07
-2.18597e-08
5.35871e-07
-2.22127e-08
5.39231e-07
-2.2617e-08
5.42659e-07
-2.30873e-08
5.4617e-07
-2.36419e-08
5.49781e-07
-2.43031e-08
5.53512e-07
-2.50981e-08
5.57393e-07
-2.60587e-08
5.61456e-07
-2.72205e-08
5.65745e-07
-2.86211e-08
5.7031e-07
-3.0297e-08
5.75209e-07
-3.22756e-08
5.80504e-07
-3.45754e-08
-3.71651e-08
5.86254e-07
4.91009e-07
-2.12543e-08
4.93707e-07
-2.146e-08
4.96425e-07
-2.16673e-08
4.99164e-07
-2.18763e-08
5.01926e-07
-2.20874e-08
5.04709e-07
-2.23011e-08
5.07516e-07
-2.25182e-08
5.10346e-07
-2.27395e-08
5.132e-07
-2.29663e-08
5.16081e-07
-2.32003e-08
5.18987e-07
-2.34437e-08
5.21923e-07
-2.36993e-08
5.24889e-07
-2.39709e-08
5.27888e-07
-2.42631e-08
5.30924e-07
-2.45824e-08
5.34002e-07
-2.49367e-08
5.37125e-07
-2.53363e-08
5.40303e-07
-2.57945e-08
5.43543e-07
-2.63281e-08
5.4686e-07
-2.69582e-08
5.50268e-07
-2.77109e-08
5.53788e-07
-2.86183e-08
5.57447e-07
-2.97181e-08
5.6128e-07
-3.10535e-08
5.6533e-07
-3.26712e-08
5.69651e-07
-3.46175e-08
5.74304e-07
-3.6929e-08
5.79361e-07
-3.96325e-08
-4.26914e-08
5.84887e-07
4.94987e-07
-2.37773e-08
4.97529e-07
-2.40024e-08
5.00091e-07
-2.42293e-08
5.02673e-07
-2.44582e-08
5.05275e-07
-2.46896e-08
5.07898e-07
-2.49241e-08
5.10542e-07
-2.51623e-08
5.13208e-07
-2.54055e-08
5.15897e-07
-2.56549e-08
5.18609e-07
-2.59125e-08
5.21346e-07
-2.61805e-08
5.24109e-07
-2.64623e-08
5.269e-07
-2.67617e-08
5.29721e-07
-2.70842e-08
5.32575e-07
-2.74365e-08
5.35466e-07
-2.78277e-08
5.38398e-07
-2.8269e-08
5.41379e-07
-2.87753e-08
5.44417e-07
-2.93654e-08
5.47521e-07
-3.0063e-08
5.50708e-07
-3.0898e-08
5.53997e-07
-3.19072e-08
5.57414e-07
-3.31348e-08
5.60993e-07
-3.46324e-08
5.64778e-07
-3.64567e-08
5.68827e-07
-3.86663e-08
5.73208e-07
-4.13095e-08
5.78001e-07
-4.44253e-08
-4.79719e-08
5.83281e-07
4.99186e-07
-2.61357e-08
5.01562e-07
-2.63786e-08
5.03956e-07
-2.66236e-08
5.06369e-07
-2.68709e-08
5.088e-07
-2.71209e-08
5.11251e-07
-2.73744e-08
5.1372e-07
-2.76321e-08
5.1621e-07
-2.78952e-08
5.1872e-07
-2.81652e-08
5.21252e-07
-2.84442e-08
5.23806e-07
-2.87345e-08
5.26384e-07
-2.90397e-08
5.28986e-07
-2.93641e-08
5.31615e-07
-2.97134e-08
5.34273e-07
-3.00949e-08
5.36964e-07
-3.05183e-08
5.39691e-07
-3.09959e-08
5.4246e-07
-3.15439e-08
5.45277e-07
-3.21828e-08
5.48153e-07
-3.29388e-08
5.511e-07
-3.38455e-08
5.54137e-07
-3.49443e-08
5.57289e-07
-3.62862e-08
5.60588e-07
-3.79319e-08
5.64081e-07
-3.99498e-08
5.67829e-07
-4.24136e-08
5.71905e-07
-4.53862e-08
5.76405e-07
-4.89247e-08
-5.29826e-08
5.81415e-07
5.03618e-07
-2.83174e-08
5.05815e-07
-2.85766e-08
5.0803e-07
-2.88379e-08
5.10261e-07
-2.91018e-08
5.12509e-07
-2.93688e-08
5.14774e-07
-2.96394e-08
5.17056e-07
-2.99146e-08
5.19357e-07
-3.01957e-08
5.21676e-07
-3.04841e-08
5.24013e-07
-3.0782e-08
5.26371e-07
-3.10921e-08
5.28749e-07
-3.14179e-08
5.31149e-07
-3.1764e-08
5.33572e-07
-3.21364e-08
5.3602e-07
-3.25428e-08
5.38495e-07
-3.29934e-08
5.41001e-07
-3.35015e-08
5.43541e-07
-3.4084e-08
5.46121e-07
-3.47631e-08
5.4875e-07
-3.55675e-08
5.51438e-07
-3.65337e-08
5.54202e-07
-3.77081e-08
5.57064e-07
-3.91485e-08
5.60058e-07
-4.09255e-08
5.63229e-07
-4.31208e-08
5.66642e-07
-4.58264e-08
5.7038e-07
-4.91244e-08
5.74553e-07
-5.30978e-08
-5.76964e-08
5.79267e-07
5.08292e-07
-3.03097e-08
5.10299e-07
-3.05833e-08
5.1232e-07
-3.08593e-08
5.14356e-07
-3.11379e-08
5.16407e-07
-3.14198e-08
5.18473e-07
-3.17056e-08
5.20555e-07
-3.19962e-08
5.22652e-07
-3.2293e-08
5.24766e-07
-3.25975e-08
5.26895e-07
-3.29119e-08
5.29042e-07
-3.32389e-08
5.31207e-07
-3.35822e-08
5.33389e-07
-3.39465e-08
5.35591e-07
-3.43381e-08
5.37813e-07
-3.47648e-08
5.40057e-07
-3.52373e-08
5.42324e-07
-3.57693e-08
5.44619e-07
-3.63786e-08
5.46945e-07
-3.70888e-08
5.49307e-07
-3.79302e-08
5.51716e-07
-3.89424e-08
5.54184e-07
-4.01764e-08
5.56733e-07
-4.16968e-08
5.59392e-07
-4.35849e-08
5.62209e-07
-4.59374e-08
5.65251e-07
-4.88687e-08
5.68611e-07
-5.24847e-08
5.72421e-07
-5.69071e-08
-6.2082e-08
5.76806e-07
4.98873e-07
-3.2558e-08
5.01137e-07
-3.28476e-08
5.03418e-07
-3.31397e-08
5.05714e-07
-3.34346e-08
5.08028e-07
-3.37329e-08
5.10357e-07
-3.40353e-08
5.12704e-07
-3.43426e-08
5.15067e-07
-3.46563e-08
5.17447e-07
-3.49779e-08
5.19845e-07
-3.53097e-08
5.22261e-07
-3.56543e-08
5.24694e-07
-3.60155e-08
5.27145e-07
-3.63981e-08
5.29616e-07
-3.68083e-08
5.32105e-07
-3.72542e-08
5.34614e-07
-3.77465e-08
5.37144e-07
-3.82994e-08
5.39697e-07
-3.89311e-08
5.42274e-07
-3.9666e-08
5.4488e-07
-4.05361e-08
5.47521e-07
-4.15832e-08
5.50207e-07
-4.28626e-08
5.52956e-07
-4.44455e-08
5.55795e-07
-4.64244e-08
5.5877e-07
-4.89126e-08
5.61954e-07
-5.20518e-08
5.65447e-07
-5.59781e-08
5.69409e-07
-6.08696e-08
-6.66702e-08
5.73998e-07
5.14162e-07
-3.42652e-08
5.15881e-07
-3.45664e-08
5.17611e-07
-3.487e-08
5.19353e-07
-3.51766e-08
5.21106e-07
-3.54865e-08
5.22872e-07
-3.58006e-08
5.24649e-07
-3.61198e-08
5.26438e-07
-3.64453e-08
5.28239e-07
-3.67788e-08
5.30051e-07
-3.71224e-08
5.31876e-07
-3.74789e-08
5.33712e-07
-3.78519e-08
5.3556e-07
-3.82462e-08
5.3742e-07
-3.8668e-08
5.39291e-07
-3.91252e-08
5.41173e-07
-3.96287e-08
5.43067e-07
-4.01926e-08
5.44971e-07
-4.08353e-08
5.46886e-07
-4.15815e-08
5.48814e-07
-4.24643e-08
5.50758e-07
-4.35273e-08
5.52725e-07
-4.48291e-08
5.54727e-07
-4.64473e-08
5.56788e-07
-4.84857e-08
5.5895e-07
-5.1075e-08
5.61289e-07
-5.43903e-08
5.63914e-07
-5.86029e-08
5.67019e-07
-6.39754e-08
-7.04462e-08
5.70795e-07
5.32773e-07
-3.5317e-08
5.3383e-07
-3.56243e-08
5.34895e-07
-3.59341e-08
5.35965e-07
-3.62467e-08
5.37041e-07
-3.65626e-08
5.38123e-07
-3.68827e-08
5.39211e-07
-3.72078e-08
5.40305e-07
-3.75392e-08
5.41404e-07
-3.78783e-08
5.42509e-07
-3.82274e-08
5.4362e-07
-3.85891e-08
5.44735e-07
-3.89669e-08
5.45854e-07
-3.93654e-08
5.46976e-07
-3.97906e-08
5.48102e-07
-4.02504e-08
5.49228e-07
-4.07553e-08
5.50355e-07
-4.13191e-08
5.5148e-07
-4.19601e-08
5.52601e-07
-4.2703e-08
5.53718e-07
-4.35808e-08
5.54829e-07
-4.46385e-08
5.55937e-07
-4.59371e-08
5.57049e-07
-4.75594e-08
5.58183e-07
-4.96203e-08
5.59377e-07
-5.2268e-08
5.60704e-07
-5.57178e-08
5.62282e-07
-6.01806e-08
5.64351e-07
-6.6045e-08
-7.32335e-08
5.67139e-07
5.5539e-07
-3.55756e-08
5.55648e-07
-3.58825e-08
5.55906e-07
-3.61918e-08
5.56163e-07
-3.65039e-08
5.56419e-07
-3.68192e-08
5.56675e-07
-3.71384e-08
5.5693e-07
-3.74625e-08
5.57183e-07
-3.77925e-08
5.57435e-07
-3.81301e-08
5.57684e-07
-3.84771e-08
5.57931e-07
-3.88361e-08
5.58175e-07
-3.92105e-08
5.58414e-07
-3.96046e-08