/*--------------------------------*- C++ -*----------------------------------*\
  =========                 |
  \\      /  F ield         | OpenFOAM: The Open Source CFD Toolbox
   \\    /   O peration     | Website:  https://openfoam.org
    \\  /    A nd           | Version:  6
     \\/     M anipulation  |
\*---------------------------------------------------------------------------*/
FoamFile
{
    version     2.0;
    format      ascii;
    class       volVectorField;
    location    "0.09";
    object      U;
}
// * * * * * * * * * * * * * * * * * * * * * * * * * * * * * * * * * * * * * //

dimensions      [0 1 -1 0 0 0 0];

internalField   nonuniform List<vector> 
3080
(
(0.44337 -1.46632e-05 1.20413e-20)
(0.443364 -1.54399e-05 1.19852e-20)
(0.44336 -1.60425e-05 0)
(0.443358 -1.64521e-05 1.18739e-20)
(0.443356 -1.66439e-05 0)
(0.443355 -1.6586e-05 0)
(0.443353 -1.62383e-05 1.17092e-20)
(0.44335 -1.55502e-05 0)
(0.443344 -1.44566e-05 1.1601e-20)
(0.443335 -1.28722e-05 0)
(0.443321 -1.06851e-05 0)
(0.443299 -7.7481e-06 1.14416e-20)
(0.443268 -3.86642e-06 0)
(0.443224 1.2196e-06 1.13381e-20)
(0.443163 7.85832e-06 0)
(0.443079 1.65209e-05 0)
(0.442966 2.78518e-05 0)
(0.442814 4.27454e-05 -1.11415e-20)
(0.442609 6.24653e-05 0)
(0.442334 8.88352e-05 1.10527e-20)
(0.441964 0.00012457 0)
(0.441463 0.000173838 0)
(0.440777 0.000243425 0)
(0.439823 0.00034468 0)
(0.43847 0.000499506 0)
(0.436458 0.000746528 0)
(0.433447 0.00119394 0)
(0.428069 0.0019815 -2.20466e-20)
(0.420392 0.00399924 0)
(0.397466 0.00681079 0)
(0.472866 -2.06172e-05 9.6378e-21)
(0.472863 -2.26047e-05 -9.59726e-21)
(0.472862 -2.42121e-05 0)
(0.472862 -2.53978e-05 9.51407e-21)
(0.472865 -2.61079e-05 0)
(0.472868 -2.62746e-05 0)
(0.472872 -2.58132e-05 -9.39202e-21)
(0.472876 -2.46161e-05 1.87017e-20)
(0.472878 -2.2545e-05 -9.3107e-21)
(0.472879 -1.942e-05 0)
(0.472877 -1.50064e-05 0)
(0.47287 -8.99626e-06 9.18933e-21)
(0.472857 -9.83118e-07 0)
(0.472834 9.57283e-06 9.11046e-21)
(0.4728 2.3394e-05 0)
(0.47275 4.14553e-05 0)
(0.472678 6.50873e-05 0)
(0.472579 9.61305e-05 8.96023e-21)
(0.472443 0.000137175 0)
(0.472257 0.000191943 -8.89149e-21)
(0.472005 0.000265938 0)
(0.471664 0.000367555 0)
(0.471199 0.00051028 1.76158e-20)
(0.470563 0.000716517 -1.7579e-20)
(0.469686 0.00102804 0)
(0.46844 0.00151985 0)
(0.466724 0.00237934 0)
(0.463993 0.00389547 5.3131e-20)
(0.460868 0.00736478 0)
(0.45417 0.0133858 -3.63866e-20)
(0.482923 -3.65183e-05 -1.57358e-20)
(0.48292 -3.98025e-05 0)
(0.482919 -4.2521e-05 0)
(0.482919 -4.46074e-05 -4.66128e-20)
(0.482921 -4.59787e-05 3.09429e-20)
(0.482924 -4.6532e-05 0)
(0.482927 -4.61382e-05 3.06791e-20)
(0.48293 -4.4634e-05 -1.52741e-20)
(0.482932 -4.18107e-05 0)
(0.482932 -3.73986e-05 0)
(0.482929 -3.10477e-05 0)
(0.482921 -2.23004e-05 -4.50359e-20)
(0.482907 -1.0555e-05 0)
(0.482883 4.98528e-06 -1.48833e-20)
(0.482848 2.53828e-05 0)
(0.482796 5.20666e-05 0)
(0.482723 8.69784e-05 0)
(0.482622 0.000132789 0)
(0.482484 0.000193232 0)
(0.482296 0.000273624 0)
(0.482042 0.000381727 -2.89413e-20)
(0.481698 0.000529206 0)
(0.481233 0.000734343 -1.43845e-20)
(0.480597 0.00102677 4.30604e-20)
(0.479728 0.00145888 0)
(0.478516 0.00212225 0)
(0.476861 0.0032191 -2.87355e-20)
(0.474439 0.0050821 -2.89246e-20)
(0.471623 0.00880711 2.91632e-20)
(0.467719 0.0156317 2.97322e-20)
(0.488784 -5.08426e-05 -2.70922e-20)
(0.48878 -5.53512e-05 0)
(0.488777 -5.91134e-05 0)
(0.488776 -6.20361e-05 2.67501e-20)
(0.488777 -6.40049e-05 -6.05399e-25)
(0.488778 -6.48784e-05 0)
(0.48878 -6.448e-05 -2.64061e-20)
(0.488781 -6.25869e-05 -2.62907e-20)
(0.488782 -5.89144e-05 0)
(0.48878 -5.30967e-05 0)
(0.488775 -4.46599e-05 2.59469e-20)
(0.488766 -3.29858e-05 7.86443e-25)
(0.48875 -1.72636e-05 0)
(0.488725 3.57792e-06 2.56066e-20)
(0.488689 3.09639e-05 0)
(0.488637 6.6806e-05 0)
(0.488565 0.000113694 0)
(0.488465 0.000175174 -2.51698e-20)
(0.48833 0.00025618 0)
(0.488146 0.000363688 0)
(0.4879 0.000507788 2.48786e-20)
(0.487568 0.000703454 0)
(0.487121 0.000973711 0)
(0.486518 0.00135508 -4.93226e-20)
(0.485703 0.00190933 0)
(0.484593 0.00274116 0)
(0.483118 0.00405822 2.4672e-20)
(0.481107 0.00619685 4.94465e-20)
(0.478903 0.0100338 -2.50089e-20)
(0.476454 0.0165143 0)
(0.492925 -6.25894e-05 2.42593e-20)
(0.492919 -6.82426e-05 -2.41557e-20)
(0.492915 -7.29843e-05 0)
(0.492912 -7.66943e-05 2.39489e-20)
(0.492911 -7.92269e-05 -2.38457e-20)
(0.49291 -8.04028e-05 0)
(0.49291 -7.99986e-05 -2.3637e-20)
(0.492909 -7.77327e-05 4.70662e-20)
(0.492907 -7.32466e-05 0)
(0.492904 -6.60806e-05 4.66484e-20)
(0.492897 -5.56402e-05 -2.32208e-20)
(0.492887 -4.1152e-05 2.31169e-20)
(0.49287 -2.1603e-05 0)
(0.492845 4.34196e-06 -2.29104e-20)
(0.492809 3.84552e-05 0)
(0.492758 8.31075e-05 0)
(0.492687 0.000141499 0)
(0.492591 0.000217998 2.25105e-20)
(0.492462 0.00031864 0)
(0.492287 0.000451907 0)
(0.492054 0.000629943 0)
(0.491743 0.000870539 0)
(0.491327 0.00120054 0)
(0.490774 0.00166152 2.2033e-20)
(0.490039 0.00232109 0)
(0.489064 0.00328948 4.39071e-20)
(0.487813 0.00476672 0)
(0.486219 0.00706176 -4.41186e-20)
(0.484621 0.0108445 -4.41531e-20)
(0.483179 0.0167584 0)
(0.496119 -7.26543e-05 0)
(0.496111 -7.93745e-05 2.21894e-20)
(0.496105 -8.50347e-05 0)
(0.496101 -8.94889e-05 -6.59912e-20)
(0.496097 -9.25609e-05 0)
(0.496094 -9.40348e-05 4.36077e-20)
(0.496092 -9.36425e-05 2.17075e-20)
(0.496089 -9.10468e-05 -2.16105e-20)
(0.496085 -8.58195e-05 0)
(0.49608 -7.74122e-05 -4.28324e-20)
(0.496072 -6.51174e-05 0)
(0.49606 -4.80162e-05 -4.24424e-20)
(0.496042 -2.49075e-05 0)
(0.496017 5.78867e-06 0)
(0.495982 4.61641e-05 0)
(0.495933 9.90091e-05 0)
(0.495866 0.000168077 0)
(0.495775 0.000258464 4.13018e-20)
(0.495654 0.000377176 4.11217e-20)
(0.495492 0.000533975 0)
(0.495277 0.000742697 0)
(0.494993 0.00102333 0)
(0.494619 0.00140546 0)
(0.494126 0.00193379 -4.03556e-20)
(0.493486 0.00267831 0)
(0.492661 0.00374857 -8.04183e-20)
(0.491645 0.00532858 4.0148e-20)
(0.490438 0.00768703 4.01515e-20)
(0.489371 0.0113243 4.03956e-20)
(0.488667 0.0166602 4.01172e-20)
(0.498705 -8.11655e-05 0)
(0.498695 -8.88915e-05 0)
(0.498686 -9.5426e-05 0)
(0.498679 -0.000100598 1.03381e-24)
(0.498674 -0.000104202 4.0936e-20)
(0.498668 -0.000105989 -4.07543e-20)
(0.498664 -0.000105648 4.057e-20)
(0.498659 -0.00010279 0)
(0.498653 -9.69239e-05 -4.02024e-20)
(0.498646 -8.74187e-05 0)
(0.498636 -7.34638e-05 3.98338e-20)
(0.498623 -5.40075e-05 3.96514e-20)
(0.498605 -2.7678e-05 0)
(0.49858 7.32505e-06 0)
(0.498546 5.33793e-05 3.90996e-20)
(0.4985 0.000113646 3.89184e-20)
(0.498438 0.00019236 3.8739e-20)
(0.498355 0.000295244 -5.72469e-24)
(0.498244 0.000430113 -3.8396e-20)
(0.498098 0.000607768 0)
(0.497906 0.000843343 0)
(0.497654 0.00115839 0)
(0.497326 0.00158419 3.77583e-20)
(0.496903 0.00216682 3.76566e-20)
(0.496364 0.00297588 0)
(0.495694 0.00411594 7.48987e-20)
(0.494909 0.00575096 -8.32542e-23)
(0.494052 0.00810689 -1.20719e-22)
(0.493433 0.011553 -3.72651e-20)
(0.49328 0.0163505 -7.44422e-20)
(0.500859 -8.80255e-05 -3.94308e-20)
(0.500847 -9.67086e-05 0)
(0.500836 -0.000104086 0)
(0.500827 -0.000109963 1.0272e-24)
(0.500819 -0.000114107 -7.74787e-20)
(0.500811 -0.000116237 -3.85641e-20)
(0.500804 -0.000116005 -3.83899e-20)
(0.500797 -0.000112976 3.8213e-20)
(0.500789 -0.000106598 7.60749e-20)
(0.50078 -9.61696e-05 -3.78603e-20)
(0.500769 -8.07873e-05 -1.65735e-24)
(0.500756 -5.92818e-05 0)
(0.500737 -3.01312e-05 0)
(0.500713 8.65746e-06 0)
(0.500681 5.97088e-05 -3.69813e-20)
(0.500639 0.0001265 -3.68073e-20)
(0.500582 0.000213671 -3.66349e-20)
(0.500508 0.000327458 -6.2603e-24)
(0.50041 0.000476316 0)
(0.500282 0.000671828 0)
(0.500115 0.000930044 0)
(0.499899 0.00127348 0)
(0.499622 0.00173415 -3.56862e-20)
(0.499272 0.00235809 0)
(0.49884 0.00321244 0)
(0.498324 0.0043941 -3.53481e-20)
(0.497758 0.00604594 -3.52732e-20)
(0.497209 0.0083535 -3.52127e-20)
(0.496963 0.0115865 3.51623e-20)
(0.497227 0.015897 3.49899e-20)
(0.502689 -9.31159e-05 7.534e-20)
(0.502675 -0.000102721 -3.75039e-20)
(0.502662 -0.000110921 0)
(0.50265 -0.000117502 3.71716e-20)
(0.502639 -0.000122206 3.70037e-20)
(0.502629 -0.000124723 3.68352e-20)
(0.502619 -0.000124674 3.6665e-20)
(0.50261 -0.00012158 -3.64966e-20)
(0.5026 -0.000114842 -3.63265e-20)
(0.50259 -0.000103693 3.61561e-20)
(0.502578 -8.71501e-05 -7.19693e-20)
(0.502563 -6.39445e-05 0)
(0.502545 -3.24263e-05 0)
(0.502522 9.55897e-06 -3.54708e-20)
(0.502493 6.48404e-05 3.53003e-20)
(0.502455 0.000137153 0)
(0.502405 0.000231457 6.99229e-20)
(0.50234 0.000354384 -3.48006e-20)
(0.502256 0.00051486 0)
(0.502148 0.000725002 0)
(0.502008 0.0010014 0)
(0.501831 0.00136698 6.83023e-20)
(0.501609 0.00185372 6.80034e-20)
(0.501335 0.00250644 0)
(0.501009 0.00338845 0)
(0.500642 0.00458758 0)
(0.500279 0.00622616 6.69469e-20)
(0.5 0.00845389 6.66967e-20)
(0.500063 0.0114658 -6.64219e-20)
(0.500644 0.0153412 0)
(0.504264 -9.63315e-05 -1.17303e-24)
(0.504247 -0.00010683 7.21731e-20)
(0.504231 -0.000115843 0)
(0.504217 -0.000123135 0)
(0.504203 -0.000128429 0)
(0.50419 -0.000131391 0)
(0.504179 -0.000131611 -3.5273e-20)
(0.504167 -0.000128579 0)
(0.504155 -0.00012165 0)
(0.504143 -0.000110006 0)
(0.50413 -9.26e-05 1.0383e-19)
(0.504115 -6.80796e-05 6.88861e-20)
(0.504098 -3.46929e-05 0)
(0.504076 9.84327e-06 3.41126e-20)
(0.50405 6.85174e-05 -3.39466e-20)
(0.504016 0.000145261 -6.75536e-20)
(0.503974 0.00024527 -6.72334e-20)
(0.50392 0.000375451 -6.6893e-20)
(0.503851 0.000545035 -6.65664e-20)
(0.503764 0.000766433 6.62433e-20)
(0.503654 0.00105644 0)
(0.503517 0.00143792 -3.73941e-23)
(0.50335 0.00194214 -1.30662e-19)
(0.503153 0.00261192 0)
(0.502931 0.00350582 0)
(0.502705 0.00470212 0)
(0.502526 0.00630417 -1.48584e-22)
(0.502482 0.00843108 -1.94257e-22)
(0.5028 0.0112225 6.37613e-20)
(0.503626 0.0147109 0)
(0.505631 -9.75729e-05 -3.50783e-20)
(0.505611 -0.000108946 -3.49219e-20)
(0.505593 -0.000118769 0)
(0.505575 -0.000126791 6.92106e-20)
(0.505559 -0.000132715 0)
(0.505544 -0.000136189 0)
(0.50553 -0.000136778 0)
(0.505516 -0.000133944 0)
(0.505502 -0.000127011 6.76077e-20)
(0.505489 -0.000115119 0)
(0.505475 -9.71699e-05 -6.69619e-20)
(0.505459 -7.17496e-05 -4.13686e-24)
(0.505442 -3.70294e-05 -6.6306e-20)
(0.505423 9.3677e-06 0)
(0.505399 7.05436e-05 0)
(0.505371 0.000150563 6.53343e-20)
(0.505337 0.000254774 6.49989e-20)
(0.505294 0.000390243 6.46877e-20)
(0.505241 0.000566343 1.79883e-23)
(0.505176 0.000795564 -6.40507e-20)
(0.505097 0.00109461 0)
(0.505001 0.00148587 -6.34304e-20)
(0.50489 0.00199942 1.26209e-19)
(0.504767 0.00267549 0)
(0.504646 0.00356744 0)
(0.504551 0.00474411 6.21558e-20)
(0.504539 0.00629192 -1.23817e-19)
(0.504698 0.00830459 -1.78125e-22)
(0.505227 0.0108812 0)
(0.506246 0.0140248 0)
(0.506802 -0.000108994 0)
(0.50678 -0.000119632 0)
(0.506761 -0.000128407 -1.34569e-19)
(0.506742 -0.00013501 6.6972e-20)
(0.506724 -0.00013907 6.6659e-20)
(0.506707 -0.000140136 0)
(0.506691 -0.000137651 -6.60289e-20)
(0.506676 -0.000130913 -6.57147e-20)
(0.506661 -0.000119034 0)
(0.506645 -0.00010088 0)
(0.50663 -7.49973e-05 -4.16769e-24)
(0.506614 -3.95052e-05 6.44382e-20)
(0.506596 8.03127e-06 0)
(0.506576 7.07809e-05 6.37891e-20)
(0.506554 0.00015288 0)
(0.506528 0.000259746 -6.31551e-20)
(0.506497 0.000398494 0)
(0.506461 0.000578493 1.25016e-19)
(0.506418 0.000812114 0)
(0.506369 0.00111571 6.18565e-20)
(0.506315 0.00151089 0)
(0.506258 0.00202616 -6.12654e-20)
(0.506208 0.00269878 0)
(0.506181 0.00357683 0)
(0.506208 0.00472018 -6.03472e-20)
(0.506346 0.0062005 6.00303e-20)
(0.50668 0.00809087 -1.62634e-22)
(0.507384 0.0104607 -5.9101e-20)
(0.508555 0.0132959 0)
(0.507844 -0.000106916 0)
(0.50782 -0.00011838 0)
(0.507798 -0.000127939 6.56653e-20)
(0.507776 -0.000135273 -2.16721e-24)
(0.507756 -0.000140001 -6.50515e-20)
(0.507737 -0.000141661 0)
(0.507719 -0.000139681 6.44318e-20)
(0.507701 -0.000133345 0)
(0.507685 -0.000121751 0)
(0.507669 -0.000103744 0)
(0.507653 -7.78496e-05 -6.31777e-20)
(0.507637 -4.21642e-05 0)
(0.507622 5.77093e-06 -6.2539e-20)
(0.507606 6.91455e-05 -6.22277e-20)
(0.507589 0.000152108 0)
(0.507572 0.000260065 6.15805e-20)
(0.507553 0.000400078 -6.12596e-20)
(0.507533 0.000581379 -1.79901e-23)
(0.507514 0.000816048 -6.0616e-20)
(0.507495 0.00111987 -2.88669e-23)
(0.507481 0.00151344 0)
(0.507478 0.00202342 5.96428e-20)
(0.507497 0.00268394 0)
(0.507559 0.00353788 0)
(0.507696 0.00463685 0)
(0.507967 0.00603992 -5.82599e-20)
(0.508451 0.00780365 -1.4793e-22)
(0.509302 0.00997611 1.14989e-19)
(0.510596 0.0125335 0)
(0.508759 -0.000102679 6.489e-20)
(0.508732 -0.000114984 6.45918e-20)
(0.508707 -0.000125362 -6.42917e-20)
(0.508682 -0.000133484 -2.18686e-24)
(0.50866 -0.000138966 0)
(0.508638 -0.000141338 0)
(0.508618 -0.000140025 6.30745e-20)
(0.508599 -0.000134305 0)
(0.508581 -0.000123272 -6.24568e-20)
(0.508564 -0.00010577 0)
(0.508548 -8.03213e-05 0)
(0.508533 -4.50282e-05 6.15202e-20)
(0.50852 2.55813e-06 1.22417e-19)
(0.508508 6.56038e-05 0)
(0.508497 0.000148212 0)
(0.508488 0.000255705 -1.20519e-19)
(0.508482 0.000394997 5.99478e-20)
(0.508479 0.000575064 -5.963e-20)
(0.508481 0.000807548 5.93114e-20)
(0.508492 0.00110751 -5.89918e-20)
(0.508518 0.00149431 -5.86353e-20)
(0.508565 0.00199263 -1.1665e-19)
(0.50865 0.00263344 0)
(0.508793 0.00345463 0)
(0.509032 0.00450039 0)
(0.50942 0.00581916 5.69727e-20)
(0.510034 0.00745444 -5.65719e-20)
(0.511006 0.00943901 -5.61229e-20)
(0.5124 0.0117445 0)
(0.509559 -9.62699e-05 -6.38742e-20)
(0.50953 -0.000109435 -6.35748e-20)
(0.509502 -0.000120668 6.32734e-20)
(0.509475 -0.00012964 -2.20394e-24)
(0.50945 -0.000135962 0)
(0.509426 -0.000139167 0)
(0.509404 -0.000138683 -1.24098e-19)
(0.509383 -0.000133793 0)
(0.509364 -0.000123598 1.22856e-19)
(0.509346 -0.000106957 6.11134e-20)
(0.509331 -8.24125e-05 0)
(0.509317 -4.80948e-05 -6.04874e-20)
(0.509306 -1.59955e-06 -6.01706e-20)
(0.509297 6.01737e-05 0)
(0.509293 0.000141228 0)
(0.509292 0.000246736 1.18414e-19)
(0.509298 0.000383378 -5.88763e-20)
(0.509311 0.000559771 -5.85489e-20)
(0.509335 0.000786998 0)
(0.509375 0.00107925 0)
(0.509438 0.00145455 5.758e-20)
(0.509533 0.00193551 5.72438e-20)
(0.509679 0.00254997 -5.68472e-20)
(0.509898 0.00333116 0)
(0.510226 0.00431673 0)
(0.510719 0.00554622 0)
(0.511444 0.00705292 0)
(0.512518 0.00885877 0)
(0.513995 0.0109339 0)
(0.510265 -8.7621e-05 0)
(0.510233 -0.000101677 0)
(0.510202 -0.000113813 -6.17656e-20)
(0.510173 -0.000123702 -1.22976e-19)
(0.510145 -0.000130961 0)
(0.510119 -0.000135129 0)
(0.510095 -0.000135642 2.42714e-24)
(0.510072 -0.000131801 -6.03516e-20)
(0.510051 -0.000122727 -2.95031e-24)
(0.510033 -0.000107307 -3.3794e-24)
(0.510017 -8.41243e-05 -5.94806e-20)
(0.510004 -5.13634e-05 -5.91865e-20)
(0.509995 -6.69548e-06 5.88904e-20)
(0.50999 5.28739e-05 0)
(0.509991 0.000131199 0)
(0.509999 0.000233237 -5.79991e-20)
(0.510016 0.000365362 5.76958e-20)
(0.510045 0.000535741 1.14763e-19)
(0.51009 0.0007548 -5.70602e-20)
(0.510157 0.00103576 0)
(0.510254 0.00139521 0)
(0.510395 0.00185369 -1.1217e-19)
(0.510596 0.00243599 1.67274e-19)
(0.510884 0.0031711 -1.10765e-19)
(0.511293 0.00409091 -1.10008e-19)
(0.511876 0.00522764 0)
(0.512697 0.00660667 1.08305e-19)
(0.513857 0.0082424 0)
(0.515401 0.0101055 0)
(0.510871 -7.68926e-05 6.18395e-20)
(0.510837 -9.18522e-05 0)
(0.510804 -0.000104923 1.22507e-19)
(0.510772 -0.000115783 1.21915e-19)
(0.510743 -0.000124058 0)
(0.510715 -0.000129299 0)
(0.510688 -0.000130961 6.00612e-20)
(0.510664 -0.00012837 5.97594e-20)
(0.510643 -0.000120679 -5.94563e-20)
(0.510624 -0.000106819 -3.20169e-24)
(0.510608 -8.54312e-05 3.73234e-24)
(0.510596 -5.47786e-05 4.43089e-24)
(0.510589 -1.26375e-05 -5.33772e-24)
(0.510588 4.38443e-05 0)
(0.510595 0.000118326 0)
(0.510611 0.000215498 0)
(0.510639 0.000341359 0)
(0.510682 0.000503556 -5.66585e-20)
(0.510747 0.000711779 5.63358e-20)
(0.51084 0.000978205 0)
(0.510971 0.00131796 0)
(0.511153 0.0017495 1.1067e-19)
(0.511405 0.00229476 -1.09967e-19)
(0.511755 0.00297885 1.13344e-22)
(0.512236 0.00382869 1.08466e-19)
(0.512899 0.00487044 0)
(0.513802 0.00612343 -1.06741e-19)
(0.515034 0.0075968 -1.05524e-19)
(0.516635 0.00926282 0)
(0.511376 -6.46011e-05 -1.22047e-19)
(0.51134 -8.04411e-05 0)
(0.511306 -9.44392e-05 -6.04334e-20)
(0.511273 -0.000106283 -6.0136e-20)
(0.511242 -0.000115609 0)
(0.511213 -0.00012199 0)
(0.511186 -0.000124905 0)
(0.511161 -0.000123712 0)
(0.511139 -0.000117608 5.86326e-20)
(0.51112 -0.000105582 -1.16662e-19)
(0.511105 -8.63487e-05 5.80289e-20)
(0.511095 -5.82711e-05 1.15444e-19)
(0.511091 -1.92567e-05 -5.74185e-20)
(0.511094 3.33721e-05 -5.71054e-20)
(0.511106 0.000103041 0)
(0.51113 0.000194124 0)
(0.511169 0.000312194 0)
(0.511227 0.000464316 0)
(0.511311 0.000659382 0)
(0.511428 0.00090848 0)
(0.51159 0.00122524 0)
(0.51181 0.00162611 0)
(0.51211 0.00213031 0)
(0.512514 0.00275944 2.15219e-19)
(0.51306 0.0035361 0)
(0.513793 0.00448148 0)
(0.514768 0.00561016 -1.04977e-19)
(0.516061 0.00692767 1.0415e-19)
(0.517712 0.00840847 0)
(0.511793 -5.09787e-05 6.02827e-20)
(0.511757 -6.76702e-05 5.99863e-20)
(0.511722 -8.25804e-05 5.96915e-20)
(0.511688 -9.54088e-05 -5.93959e-20)
(0.511656 -0.000105811 0)
(0.511627 -0.000113381 0)
(0.511599 -0.000117631 0)
(0.511574 -0.000117958 0)
(0.511552 -0.000113614 -5.79114e-20)
(0.511534 -0.000103655 2.76029e-24)
(0.51152 -8.68878e-05 -5.73098e-20)
(0.511512 -6.1793e-05 -5.70127e-20)
(0.511511 -2.64325e-05 0)
(0.511518 2.16677e-05 5.47378e-24)
(0.511536 8.56643e-05 -5.60983e-20)
(0.511568 0.000169577 5.57909e-20)
(0.511617 0.000278503 5.54805e-20)
(0.511689 0.000418877 0)
(0.51179 0.000598749 0)
(0.51193 0.000828081 0)
(0.512119 0.00111901 0)
(0.512375 0.00148601 -1.07691e-19)
(0.512716 0.00194579 0)
(0.51317 0.00251677 -1.06317e-19)
(0.513773 0.00321777 0)
(0.514566 0.00406589 0)
(0.515602 0.00507205 1.03796e-19)
(0.516949 0.00623933 0)
(0.518642 0.00754465 0)
(0.512135 -3.6241e-05 5.9609e-20)
(0.512098 -5.37505e-05 -5.9321e-20)
(0.512062 -6.95508e-05 -5.90299e-20)
(0.512028 -8.33568e-05 5.87383e-20)
(0.511996 -9.48455e-05 0)
(0.511966 -0.000103639 0)
(0.511938 -0.000109286 0)
(0.511913 -0.000111231 5.75669e-20)
(0.511892 -0.000108788 -5.72737e-20)
(0.511874 -0.000101094 5.69825e-20)
(0.511862 -8.70581e-05 5.66885e-20)
(0.511855 -6.52969e-05 0)
(0.511857 -3.40475e-05 0)
(0.511868 8.93545e-06 5.58016e-20)
(0.511892 6.65098e-05 6.0296e-24)
(0.511931 0.000142304 -1.10398e-19)
(0.511989 0.000240904 -5.48999e-20)
(0.512074 0.000368071 0)
(0.512191 0.000530975 0)
(0.512351 0.000738432 5.39474e-20)
(0.512566 0.0010011 0)
(0.512852 0.00133154 1.06609e-19)
(0.513231 0.00174409 5.29227e-20)
(0.513729 0.0022543 0)
(0.51438 0.00287774 -1.04305e-19)
(0.515226 0.00362808 0)
(0.516315 0.00451343 1.02524e-19)
(0.517707 0.00553525 1.01509e-19)
(0.519437 0.00667312 1.00251e-19)
(0.512407 -2.05938e-05 -5.90081e-20)
(0.51237 -3.88839e-05 0)
(0.512334 -5.55466e-05 -5.84362e-20)
(0.5123 -7.03149e-05 0)
(0.512268 -8.28902e-05 0)
(0.512238 -9.29271e-05 0)
(0.51221 -0.000100015 0)
(0.512185 -0.000103653 -5.70082e-20)
(0.512164 -0.000103225 2.07897e-24)
(0.512148 -9.7957e-05 -5.64325e-20)
(0.512137 -8.68747e-05 0)
(0.512132 -6.87433e-05 0)
(0.512137 -4.1994e-05 0)
(0.512151 -4.63197e-06 -5.52757e-20)
(0.51218 4.58756e-05 5.49881e-20)
(0.512225 0.000112736 1.09381e-19)
(0.512293 0.00019999 0)
(0.512388 0.000312694 -5.40856e-20)
(0.51252 0.000457111 -5.37771e-20)
(0.512698 0.000640895 -1.54031e-23)
(0.512935 0.000873229 -5.31366e-20)
(0.513248 0.00116485 5.27999e-20)
(0.513659 0.00152786 -5.24767e-20)
(0.514195 0.00197522 0)
(0.514888 0.00251962 1.55129e-19)
(0.515779 0.00317191 5.12574e-20)
(0.516912 0.00393802 -1.01703e-19)
(0.518341 0.00481839 -1.50997e-19)
(0.520102 0.00579535 -9.94705e-20)
(0.512618 -4.23202e-06 5.84681e-20)
(0.512581 -2.32627e-05 0)
(0.512545 -4.07552e-05 5.79149e-20)
(0.512511 -5.64633e-05 0)
(0.512479 -7.01159e-05 0)
(0.512449 -8.14032e-05 0)
(0.512421 -8.99601e-05 0)
(0.512397 -9.53462e-05 0)
(0.512376 -9.70197e-05 5.62425e-20)
(0.512361 -9.43057e-05 2.07925e-24)
(0.512351 -8.63558e-05 0)
(0.512348 -7.20975e-05 0)
(0.512355 -5.01711e-05 0)
(0.512373 -1.88513e-05 5.48369e-20)
(0.512405 2.40479e-05 0)
(0.512457 8.12875e-05 -5.66908e-24)
(0.512531 0.000156336 0)
(0.512637 0.000253519 5.36779e-20)
(0.51278 0.00037817 5.33772e-20)
(0.512973 0.000536774 -1.06126e-19)
(0.51323 0.000737062 1.62443e-23)
(0.513566 0.000987998 -5.24237e-20)
(0.514005 0.00129959 0)
(0.514572 0.00168242 5.16878e-20)
(0.515301 0.00214666 -3.48107e-23)
(0.516229 0.00270078 -5.09138e-20)
(0.517399 0.00334905 0)
(0.518859 0.00409129 4.99644e-20)
(0.520646 0.00491259 0)
(0.512771 1.266e-05 -5.7996e-20)
(0.512734 -7.06878e-06 2.88624e-20)
(0.512699 -2.53547e-05 0)
(0.512665 -4.19743e-05 0)
(0.512633 -5.66864e-05 0)
(0.512603 -6.92198e-05 0)
(0.512575 -7.9259e-05 5.63741e-20)
(0.512551 -8.64272e-05 -5.61031e-20)
(0.512531 -9.02645e-05 5.58319e-20)
(0.512516 -9.02007e-05 5.55619e-20)
(0.512507 -8.55221e-05 -5.52875e-20)
(0.512506 -7.53292e-05 0)
(0.512515 -5.84845e-05 -5.47392e-20)
(0.512535 -3.35477e-05 0)
(0.512572 1.3019e-06 5.41838e-20)
(0.512628 4.83587e-05 -5.39068e-20)
(0.512709 0.000110498 0)
(0.512822 0.000191291 -5.33261e-20)
(0.512976 0.000295129 0)
(0.513182 0.000427323 5.27356e-20)
(0.513454 0.000594169 5.24232e-20)
(0.513809 0.000802919 0)
(0.514271 0.0010616 5.17381e-20)
(0.514864 0.00137858 -2.40102e-23)
(0.515622 0.00176183 -1.01998e-19)
(0.51658 0.00221776 0)
(0.517779 0.00274939 5.011e-20)
(0.519264 0.00335617 0)
(0.521071 0.00402599 4.90024e-20)
(0.512871 2.99072e-05 2.87904e-20)
(0.512834 9.52425e-06 -2.86615e-20)
(0.512799 -9.51545e-06 2.85303e-20)
(0.512765 -2.70132e-05 2.83998e-20)
(0.512733 -4.27597e-05 0)
(0.512703 -5.65246e-05 0)
(0.512676 -6.80453e-05 -5.60158e-20)
(0.512653 -7.70122e-05 8.36293e-20)
(0.512633 -8.30515e-05 -5.54905e-20)
(0.512618 -8.57037e-05 0)
(0.51261 -8.43967e-05 8.24432e-20)
(0.51261 -7.84126e-05 2.73477e-20)
(0.51262 -6.68463e-05 5.44306e-20)
(0.512643 -4.85553e-05 0)
(0.512682 -2.20985e-05 -8.08349e-20)
(0.512741 1.43354e-05 0)
(0.512827 6.30101e-05 0)
(0.512947 0.00012673 5.30563e-20)
(0.513109 0.000208929 0)
(0.513325 0.000313745 0)
(0.513609 0.000446058 0)
(0.51398 0.000611451 -5.18291e-20)
(0.514459 0.000816058 -5.15055e-20)
(0.515073 0.00106621 -5.11488e-20)
(0.515853 0.00136785 5.07672e-20)
(0.516834 0.00172565 0)
(0.518056 0.00214161 -4.99073e-20)
(0.51956 0.00261503 0)
(0.521383 0.00313658 -9.75963e-20)
(0.512921 4.73443e-05 -5.72286e-20)
(0.512884 2.63521e-05 -2.84887e-20)
(0.512849 6.60054e-06 -2.83641e-20)
(0.512815 -1.17377e-05 -8.09483e-25)
(0.512783 -2.84869e-05 0)
(0.512754 -4.34598e-05 0)
(0.512727 -5.64486e-05 0)
(0.512703 -6.72138e-05 -2.77321e-20)
(0.512683 -7.54714e-05 0)
(0.512669 -8.08766e-05 0)
(0.512661 -8.30045e-05 -2.73493e-20)
(0.512662 -8.13251e-05 -5.44403e-20)
(0.512672 -7.51741e-05 0)
(0.512697 -6.37158e-05 2.69594e-20)
(0.512737 -4.59001e-05 1.25742e-24)
(0.5128 -2.04107e-05 0)
(0.512889 1.43918e-05 2.65577e-20)
(0.513013 6.05324e-05 -2.64191e-20)
(0.513181 0.000120481 0)
(0.513404 0.000197202 0)
(0.513697 0.000294172 0)
(0.514079 0.000415347 5.165e-20)
(0.514571 0.000565038 0)
(0.5152 0.000747656 0)
(0.515996 0.000967266 0)
(0.516994 0.001227 0)
(0.518232 0.00152805 0)
(0.51975 0.00186968 0)
(0.521584 0.00224531 7.29655e-20)
(0.512923 6.48194e-05 2.84672e-20)
(0.512886 4.32632e-05 2.8347e-20)
(0.512851 2.28435e-05 1.41127e-20)
(0.512817 3.70563e-06 -2.81051e-20)
(0.512785 -1.40094e-05 0)
(0.512755 -3.01587e-05 0)
(0.512728 -4.4591e-05 0)
(0.512704 -5.7139e-05 0)
(0.512684 -6.76108e-05 -1.37468e-20)
(0.51267 -7.57795e-05 0)
(0.512662 -8.13707e-05 0)
(0.512663 -8.40473e-05 4.0683e-20)
(0.512674 -8.3391e-05 0)
(0.512699 -7.88799e-05 -2.68698e-20)
(0.51274 -6.98622e-05 2.67416e-20)
(0.512804 -5.55254e-05 0)
(0.512895 -3.48627e-05 -2.64793e-20)
(0.513022 -6.63683e-06 2.63443e-20)
(0.513193 3.06534e-05 1.3102e-20)
(0.51342 7.87986e-05 1.30304e-20)
(0.513719 0.000139885 0)
(0.514108 0.000216265 -1.28782e-20)
(0.514608 0.00031048 0)
(0.515246 0.00042509 -1.27087e-20)
(0.516052 0.000562408 0)
(0.517061 0.000724145 0)
(0.518309 0.000910815 0)
(0.519835 0.00112172 -1.22822e-20)
(0.521675 0.001353 -2.42767e-20)
(0.512878 8.21652e-05 0)
(0.512842 6.00907e-05 0)
(0.512806 3.90482e-05 -1.44339e-20)
(0.512772 1.91549e-05 0)
(0.51274 5.16212e-07 0)
(0.51271 -1.67702e-05 0)
(0.512682 -3.26106e-05 0)
(0.512658 -4.6911e-05 0)
(0.512637 -5.95732e-05 1.40775e-20)
(0.512622 -7.04899e-05 0)
(0.512614 -7.95396e-05 0)
(0.512614 -8.65805e-05 -1.38949e-20)
(0.512625 -9.14436e-05 0)
(0.51265 -9.39244e-05 0)
(0.512691 -9.3774e-05 0)
(0.512755 -9.06884e-05 0)
(0.512846 -8.42984e-05 0)
(0.512973 -7.41588e-05 0)
(0.513146 -5.97403e-05 -1.34413e-20)
(0.513375 -4.04253e-05 -1.337e-20)
(0.513676 -1.55126e-05 0)
(0.514067 1.57652e-05 1.3218e-20)
(0.51457 5.42031e-05 0)
(0.515212 0.000100559 1.30481e-20)
(0.516022 0.000155452 0)
(0.517035 0.00021924 0)
(0.518287 0.000291826 0)
(0.519815 0.000372586 1.26179e-20)
(0.521657 0.000460327 0)
(0.512781 0.000100735 0)
(0.512744 7.81536e-05 0)
(0.512708 5.64906e-05 0)
(0.512673 3.58322e-05 -1.4125e-20)
(0.51264 1.62443e-05 0)
(0.512609 -2.22545e-06 -1.39969e-20)
(0.512581 -1.95466e-05 1.39323e-20)
(0.512556 -3.5706e-05 0)
(0.512534 -5.07083e-05 1.38022e-20)
(0.512518 -6.4578e-05 0)
(0.512509 -7.73617e-05 1.36705e-20)
(0.512508 -8.91327e-05 0)
(0.512518 -9.99965e-05 -1.35367e-20)
(0.512541 -0.000110098 0)
(0.512581 -0.000119632 0)
(0.512643 -0.000128855 -1.33302e-20)
(0.512733 -0.000138099 -1.32591e-20)
(0.512859 -0.000147791 0)
(0.513029 -0.000158472 -2.62239e-20)
(0.513257 -0.000170814 0)
(0.513556 -0.00018564 2.59107e-20)
(0.513945 -0.000203925 0)
(0.514447 -0.00022679 0)
(0.515086 -0.000255457 0)
(0.515894 -0.000291168 0)
(0.516905 -0.000335048 0)
(0.518154 -0.000387887 0)
(0.519679 -0.00045023 0)
(0.521518 -0.000520453 -2.4169e-20)
(0.512613 0.000120467 0)
(0.512575 9.73925e-05 0)
(0.512538 7.51149e-05 -2.89856e-20)
(0.512502 5.36864e-05 1.44297e-20)
(0.512468 3.313e-05 0)
(0.512435 1.34393e-05 1.43013e-20)
(0.512405 -5.42422e-06 -1.42366e-20)
(0.512378 -2.35349e-05 0)
(0.512356 -4.10089e-05 -1.41061e-20)
(0.512338 -5.8013e-05 0)
(0.512326 -7.47759e-05 1.39735e-20)
(0.512323 -9.16032e-05 -2.78135e-20)
(0.51233 -0.000108897 1.38392e-20)
(0.51235 -0.000127181 2.75417e-20)
(0.512387 -0.000147129 2.74033e-20)
(0.512446 -0.000169605 1.36311e-20)
(0.512532 -0.000195702 -1.356e-20)
(0.512652 -0.000226793 2.6973e-20)
(0.512818 -0.000264581 -1.29329e-24)
(0.513039 -0.000311146 0)
(0.513331 -0.000368972 -2.65041e-20)
(0.513712 -0.000440946 0)
(0.514204 -0.000530298 0)
(0.514834 -0.000640444 -5.19445e-20)
(0.51563 -0.000774703 5.15411e-20)
(0.516628 -0.000935892 0)
(0.517865 -0.00112563 5.06326e-20)
(0.519379 -0.00134444 0)
(0.521206 -0.00158771 -2.4746e-20)
(0.512378 0.000139774 5.85881e-20)
(0.512339 0.000116247 0)
(0.5123 9.33986e-05 2.90409e-20)
(0.512263 7.12466e-05 0)
(0.512227 4.97717e-05 0)
(0.512192 2.8914e-05 0)
(0.51216 8.56715e-06 5.70467e-20)
(0.512131 -1.14291e-05 0)
(0.512106 -3.13004e-05 0)
(0.512085 -5.13531e-05 5.62572e-20)
(0.512071 -7.19942e-05 2.79952e-20)
(0.512064 -9.37574e-05 8.35828e-20)
(0.512067 -0.000117336 0)
(0.512083 -0.000143624 2.75888e-20)
(0.512116 -0.000173767 -2.74489e-20)
(0.512169 -0.000209225 0)
(0.512248 -0.000251843 8.14951e-20)
(0.512361 -0.000303928 -2.70172e-20)
(0.512518 -0.000368337 -2.68715e-20)
(0.512729 -0.000448553 0)
(0.513009 -0.000548728 0)
(0.513375 -0.000673682 0)
(0.513851 -0.000828801 0)
(0.514462 -0.00101977 5.20269e-20)
(0.515238 -0.00125211 -5.16221e-20)
(0.516214 -0.00153047 0)
(0.517429 -0.00185746 -5.07102e-20)
(0.518924 -0.00223372 0)
(0.520731 -0.00265159 -3.32835e-23)
(0.512073 0.000158375 -5.87641e-20)
(0.512032 0.000134441 0)
(0.511991 0.000111072 0)
(0.511952 8.82523e-05 -5.79921e-20)
(0.511914 6.59214e-05 0)
(0.511877 4.39669e-05 0)
(0.511842 2.22169e-05 -9.02796e-25)
(0.51181 4.28097e-07 0)
(0.511782 -2.17309e-05 0)
(0.511758 -4.4701e-05 -5.6419e-20)
(0.511739 -6.90614e-05 2.21657e-25)
(0.511728 -9.55655e-05 -5.58817e-20)
(0.511727 -0.000125187 0)
(0.511737 -0.00015918 1.65582e-24)
(0.511763 -0.000199147 0)
(0.511809 -0.000247126 5.47777e-20)
(0.511879 -0.000305694 -5.44873e-20)
(0.511982 -0.000378078 0)
(0.512126 -0.000468274 1.07794e-19)
(0.512322 -0.000581159 0)
(0.512585 -0.000722568 5.32736e-20)
(0.512931 -0.000899293 0)
(0.513383 -0.00111895 0)
(0.513966 -0.00138965 1.04439e-19)
(0.514713 -0.00171929 0)
(0.515658 -0.00211464 1.02786e-19)
(0.516842 -0.00257955 -1.01852e-19)
(0.518308 -0.00311503 -1.00829e-19)
(0.520088 -0.00371033 1.49265e-19)
(0.511693 0.000175986 5.8999e-20)
(0.51165 0.000151697 -5.87425e-20)
(0.511607 0.000127866 5.84847e-20)
(0.511565 0.000104445 1.54319e-24)
(0.511525 8.13328e-05 0)
(0.511485 5.83679e-05 0)
(0.511447 3.5316e-05 -5.74431e-20)
(0.511412 1.18547e-05 -5.7179e-20)
(0.511379 -1.24474e-05 1.13829e-19)
(0.511351 -3.8159e-05 0)
(0.511328 -6.60219e-05 5.63815e-20)
(0.511312 -9.6998e-05 1.12223e-19)
(0.511304 -0.000132328 0)
(0.511308 -0.000173607 -5.5564e-20)
(0.511326 -0.000222873 1.10579e-19)
(0.511362 -0.00028272 -5.50048e-20)
(0.511421 -0.000356433 1.09449e-19)
(0.51151 -0.00044813 0)
(0.511638 -0.000562925 -5.41275e-20)
(0.511815 -0.000707084 -1.07664e-19)
(0.512055 -0.000888133 -5.35004e-20)
(0.512375 -0.00111489 1.06375e-19)
(0.512796 -0.00139733 -1.05685e-19)
(0.513344 -0.00174616 -1.04892e-19)
(0.514051 -0.00217198 0)
(0.514954 -0.00268402 -1.03237e-19)
(0.516096 -0.00328782 1.02301e-19)
(0.517525 -0.00398514 1.01275e-19)
(0.519269 -0.00476208 1.25581e-22)
(0.511235 0.000192319 -5.93066e-20)
(0.51119 0.000167735 1.77143e-19)
(0.511144 0.000143509 5.87867e-20)
(0.511099 0.000119563 1.75588e-19)
(0.511055 9.57581e-05 0)
(0.511012 7.18866e-05 -1.16014e-19)
(0.51097 4.76555e-05 1.15489e-19)
(0.510931 2.26693e-05 -5.74806e-20)
(0.510894 -3.59651e-06 -2.28866e-19)
(0.510861 -3.18287e-05 1.13901e-19)
(0.510832 -6.29205e-05 -1.13365e-19)
(0.510809 -9.80272e-05 -1.12827e-19)
(0.510795 -0.000138638 0)
(0.51079 -0.000186666 0)
(0.510798 -0.000244558 -1.11183e-19)
(0.510822 -0.000315436 -1.10634e-19)