/*--------------------------------*- C++ -*----------------------------------*\
  =========                 |
  \\      /  F ield         | OpenFOAM: The Open Source CFD Toolbox
   \\    /   O peration     | Website:  https://openfoam.org
    \\  /    A nd           | Version:  6
     \\/     M anipulation  |
\*---------------------------------------------------------------------------*/
FoamFile
{
    version     2.0;
    format      ascii;
    class       volScalarField;
    location    "0.04";
    object      epsilon;
}
// * * * * * * * * * * * * * * * * * * * * * * * * * * * * * * * * * * * * * //

dimensions      [0 2 -3 0 0 0 0];

internalField   nonuniform List<scalar> 
3081
(
4.59245
4.58834
4.58471
4.58152
4.57874
4.57634
4.5743
4.57258
4.57112
4.56993
4.56929
4.56905
4.56911
4.56942
4.56995
4.57067
4.57156
4.57262
4.57382
4.57517
4.57664
4.57824
4.57996
4.58178
4.58371
4.58575
4.58788
4.5901
4.59242
4.59482
4.59731
4.59988
4.60253
4.60526
4.60806
4.61094
4.61389
4.61691
4.62
4.62315
4.62636
4.62963
4.63297
4.63636
4.6398
4.6433
4.64685
4.65045
4.65409
4.65778
4.66152
4.66529
4.66911
4.67297
4.67688
4.68082
4.6848
2.42004
2.41808
2.41631
2.41471
2.41326
2.41197
2.41082
2.40979
2.40888
2.4081
2.40754
2.40714
2.40686
2.40667
2.40657
2.40654
2.40657
2.40666
2.4068
2.40698
2.40722
2.40749
2.4078
2.40815
2.40854
2.40896
2.40942
2.4099
2.41042
2.41096
2.41154
2.41214
2.41277
2.41342
2.4141
2.41481
2.41553
2.41628
2.41706
2.41785
2.41866
2.4195
2.42035
2.42122
2.42211
2.42301
2.42393
2.42487
2.42582
2.42679
2.42777
2.42876
2.42976
2.43078
2.43181
2.43286
2.43391
2.13923
2.13759
2.13608
2.1347
2.13343
2.13227
2.1312
2.13023
2.12934
2.12854
2.12784
2.12725
2.12674
2.1263
2.12592
2.1256
2.12533
2.12509
2.12489
2.12473
2.1246
2.12449
2.12442
2.12436
2.12434
2.12433
2.12435
2.12438
2.12444
2.12451
2.12461
2.12472
2.12484
2.12499
2.12514
2.12532
2.1255
2.1257
2.12592
2.12614
2.12638
2.12662
2.12688
2.12715
2.12743
2.12771
2.12801
2.12831
2.12862
2.12893
2.12926
2.12959
2.12992
2.13026
2.13061
2.13097
2.13132
2.09185
2.09032
2.08889
2.08757
2.08635
2.08521
2.08416
2.08319
2.08229
2.08145
2.08069
2.08
2.07938
2.07882
2.07831
2.07784
2.07741
2.07701
2.07665
2.07631
2.076
2.07571
2.07544
2.07519
2.07497
2.07475
2.07456
2.07438
2.07422
2.07407
2.07393
2.0738
2.07369
2.07359
2.0735
2.07342
2.07335
2.07328
2.07323
2.07318
2.07315
2.07312
2.07309
2.07307
2.07306
2.07305
2.07305
2.07305
2.07306
2.07306
2.07308
2.07309
2.07311
2.07313
2.07315
2.07318
2.07321
2.10452
2.10303
2.10164
2.10036
2.09916
2.09804
2.09699
2.09602
2.09511
2.09426
2.09347
2.09273
2.09205
2.09142
2.09083
2.09028
2.08977
2.08928
2.08882
2.08838
2.08797
2.08757
2.0872
2.08684
2.0865
2.08617
2.08585
2.08555
2.08526
2.08498
2.08471
2.08445
2.0842
2.08396
2.08373
2.0835
2.08328
2.08307
2.08286
2.08266
2.08246
2.08227
2.08208
2.0819
2.08172
2.08154
2.08137
2.08119
2.08102
2.08085
2.08068
2.08052
2.08035
2.08018
2.08002
2.07985
2.07968
2.13558
2.13413
2.13278
2.13153
2.13035
2.12925
2.12822
2.12726
2.12635
2.1255
2.1247
2.12396
2.12325
2.12259
2.12197
2.12138
2.12081
2.12028
2.11977
2.11928
2.11881
2.11836
2.11792
2.1175
2.1171
2.1167
2.11632
2.11595
2.11559
2.11523
2.11489
2.11455
2.11422
2.1139
2.11358
2.11327
2.11297
2.11267
2.11237
2.11208
2.11179
2.1115
2.11122
2.11093
2.11065
2.11037
2.1101
2.10982
2.10954
2.10927
2.10899
2.10871
2.10843
2.10816
2.10788
2.10759
2.10731
2.16945
2.16814
2.16691
2.16577
2.1647
2.1637
2.16276
2.16187
2.16104
2.16025
2.15951
2.15881
2.15814
2.15751
2.15691
2.15633
2.15578
2.15525
2.15474
2.15425
2.15377
2.15331
2.15286
2.15242
2.152
2.15158
2.15118
2.15078
2.15039
2.15001
2.14963
2.14927
2.1489
2.14854
2.14819
2.14783
2.14749
2.14714
2.1468
2.14646
2.14612
2.14578
2.14545
2.14511
2.14478
2.14444
2.14411
2.14377
2.14344
2.1431
2.14276
2.14242
2.14208
2.14173
2.14139
2.14104
2.20341
2.20214
2.20096
2.19986
2.19883
2.19787
2.19696
2.19611
2.1953
2.19454
2.19382
2.19314
2.19248
2.19186
2.19127
2.1907
2.19015
2.18963
2.18912
2.18862
2.18815
2.18768
2.18723
2.18679
2.18636
2.18593
2.18552
2.18511
2.18472
2.18432
2.18393
2.18355
2.18317
2.1828
2.18242
2.18206
2.18169
2.18133
2.18096
2.1806
2.18024
2.17988
2.17952
2.17917
2.17881
2.17845
2.17809
2.17772
2.17736
2.177
2.17663
2.17626
2.17589
2.17551
2.17514
2.17476
2.23262
2.23149
2.23044
2.22945
2.22853
2.22767
2.22685
2.22609
2.22536
2.22467
2.22402
2.2234
2.2228
2.22223
2.22168
2.22116
2.22065
2.22015
2.21968
2.21921
2.21876
2.21832
2.21789
2.21747
2.21706
2.21666
2.21626
2.21587
2.21548
2.2151
2.21472
2.21435
2.21397
2.21361
2.21324
2.21288
2.21251
2.21215
2.21179
2.21143
2.21107
2.21071
2.21035
2.20999
2.20962
2.20926
2.20889
2.20852
2.20816
2.20778
2.20741
2.20703
2.20665
2.20627
2.20588
2.25887
2.25779
2.25679
2.25586
2.25499
2.25417
2.2534
2.25268
2.252
2.25135
2.25074
2.25015
2.24959
2.24905
2.24853
2.24803
2.24755
2.24709
2.24664
2.2462
2.24577
2.24536
2.24495
2.24455
2.24416
2.24378
2.2434
2.24303
2.24266
2.2423
2.24194
2.24158
2.24123
2.24087
2.24052
2.24017
2.23983
2.23948
2.23913
2.23879
2.23844
2.23809
2.23774
2.23739
2.23704
2.23669
2.23634
2.23598
2.23562
2.23526
2.2349
2.23453
2.23416
2.23379
2.23342
2.2809
2.27988
2.27893
2.27805
2.27723
2.27646
2.27574
2.27506
2.27443
2.27382
2.27325
2.2727
2.27218
2.27168
2.2712
2.27074
2.27029
2.26986
2.26944
2.26904
2.26864
2.26826
2.26788
2.26751
2.26715
2.2668
2.26645
2.2661
2.26576
2.26542
2.26509
2.26476
2.26443
2.2641
2.26378
2.26345
2.26313
2.2628
2.26248
2.26215
2.26183
2.26151
2.26118
2.26085
2.26052
2.26019
2.25986
2.25953
2.25919
2.25885
2.25851
2.25817
2.25782
2.25747
2.25712
2.29902
2.29805
2.29715
2.29632
2.29555
2.29484
2.29417
2.29354
2.29295
2.29239
2.29186
2.29135
2.29087
2.29041
2.28997
2.28955
2.28914
2.28875
2.28837
2.288
2.28764
2.28729
2.28694
2.28661
2.28628
2.28596
2.28564
2.28532
2.28501
2.28471
2.2844
2.2841
2.2838
2.28351
2.28321
2.28291
2.28262
2.28232
2.28203
2.28173
2.28144
2.28114
2.28084
2.28055
2.28025
2.27994
2.27964
2.27933
2.27903
2.27872
2.2784
2.27809
2.27777
2.27745
2.27713
2.2768
2.31368
2.31276
2.31191
2.31114
2.31041
2.30974
2.30912
2.30854
2.30799
2.30748
2.30699
2.30653
2.30609
2.30567
2.30527
2.30488
2.30451
2.30416
2.30381
2.30348
2.30316
2.30284
2.30253
2.30223
2.30194
2.30165
2.30137
2.30109
2.30081
2.30054
2.30026
2.3
2.29973
2.29946
2.2992
2.29893
2.29867
2.29841
2.29814
2.29788
2.29761
2.29735
2.29708
2.29682
2.29655
2.29628
2.29601
2.29573
2.29546
2.29518
2.2949
2.29462
2.29433
2.29404
2.29375
2.29346
2.32449
2.32369
2.32296
2.32229
2.32166
2.32108
2.32054
2.32004
2.31957
2.31912
2.3187
2.3183
2.31792
2.31756
2.31721
2.31688
2.31656
2.31625
2.31595
2.31566
2.31538
2.31511
2.31484
2.31458
2.31433
2.31408
2.31383
2.31359
2.31335
2.31311
2.31287
2.31264
2.3124
2.31217
2.31194
2.31171
2.31148
2.31124
2.31101
2.31078
2.31055
2.31031
2.31008
2.30984
2.30961
2.30937
2.30913
2.30888
2.30864
2.30839
2.30814
2.30789
2.30764
2.30738
2.30712
2.33371
2.33296
2.33227
2.33164
2.33106
2.33052
2.33002
2.32956
2.32912
2.32871
2.32833
2.32796
2.32762
2.32729
2.32698
2.32669
2.3264
2.32613
2.32586
2.32561
2.32536
2.32512
2.32489
2.32466
2.32444
2.32422
2.324
2.32379
2.32358
2.32338
2.32317
2.32297
2.32277
2.32256
2.32236
2.32216
2.32196
2.32176
2.32156
2.32136
2.32116
2.32096
2.32075
2.32055
2.32034
2.32014
2.31993
2.31972
2.31951
2.31929
2.31908
2.31886
2.31864
2.31842
2.31819
2.34099
2.34029
2.33964
2.33905
2.33851
2.33801
2.33754
2.33712
2.33672
2.33634
2.33599
2.33566
2.33535
2.33505
2.33478
2.33451
2.33426
2.33401
2.33378
2.33356
2.33334
2.33313
2.33293
2.33273
2.33253
2.33234
2.33216
2.33197
2.33179
2.33161
2.33144
2.33126
2.33109
2.33091
2.33074
2.33057
2.33039
2.33022
2.33005
2.32988
2.3297
2.32953
2.32935
2.32918
2.329
2.32882
2.32864
2.32846
2.32828
2.32809
2.32791
2.32772
2.32753
2.32734
2.32714
2.34639
2.34573
2.34512
2.34457
2.34406
2.3436
2.34317
2.34277
2.3424
2.34206
2.34174
2.34144
2.34116
2.34089
2.34065
2.34041
2.34019
2.33997
2.33977
2.33957
2.33938
2.3392
2.33903
2.33885
2.33869
2.33853
2.33837
2.33821
2.33806
2.3379
2.33775
2.33761
2.33746
2.33731
2.33717
2.33702
2.33688
2.33673
2.33659
2.33644
2.33629
2.33615
2.336
2.33585
2.3357
2.33555
2.3354
2.33525
2.3351
2.33494
2.33479
2.33463
2.33447
2.33431
2.33414
2.34956
2.34899
2.34847
2.34799
2.34756
2.34716
2.34679
2.34645
2.34614
2.34584
2.34557
2.34532
2.34508
2.34486
2.34465
2.34446
2.34427
2.34409
2.34392
2.34376
2.34361
2.34346
2.34331
2.34317
2.34304
2.3429
2.34277
2.34265
2.34252
2.3424
2.34227
2.34215
2.34203
2.34191
2.34179
2.34168
2.34156
2.34144
2.34132
2.3412
2.34108
2.34096
2.34084
2.34072
2.3406
2.34048
2.34036
2.34023
2.34011
2.33998
2.33985
2.33972
2.33959
2.33946
2.35171
2.35122
2.35078
2.35037
2.35
2.34966
2.34934
2.34906
2.34879
2.34854
2.34832
2.3481
2.34791
2.34772
2.34755
2.34739
2.34723
2.34709
2.34695
2.34682
2.34669
2.34657
2.34645
2.34634
2.34623
2.34612
2.34602
2.34592
2.34582
2.34572
2.34562
2.34552
2.34543
2.34533
2.34524
2.34514
2.34505
2.34496
2.34486
2.34477
2.34467
2.34458
2.34448
2.34439
2.34429
2.3442
2.3441
2.344
2.3439
2.3438
2.3437
2.3436
2.3435
2.35363
2.35317
2.35275
2.35237
2.35203
2.35171
2.35142
2.35115
2.35091
2.35068
2.35048
2.35028
2.35011
2.34994
2.34979
2.34965
2.34952
2.34939
2.34927
2.34916
2.34906
2.34896
2.34886
2.34877
2.34868
2.34859
2.3485
2.34842
2.34834
2.34826
2.34818
2.34811
2.34803
2.34796
2.34788
2.34781
2.34774
2.34767
2.34759
2.34752
2.34745
2.34738
2.3473
2.34723
2.34716
2.34708
2.34701
2.34693
2.34686
2.34678
2.34671
2.34663
2.34655
2.35497
2.35454
2.35415
2.3538
2.35347
2.35317
2.3529
2.35265
2.35243
2.35222
2.35203
2.35186
2.3517
2.35155
2.35142
2.3513
2.35118
2.35107
2.35097
2.35088
2.35079
2.3507
2.35062
2.35055
2.35047
2.3504
2.35033
2.35027
2.3502
2.35014
2.35008
2.35002
2.34996
2.34991
2.34985
2.34979
2.34974
2.34968
2.34963
2.34957
2.34952
2.34946
2.34941
2.34935
2.3493
2.34924
2.34919
2.34913
2.34908
2.34902
2.34897
2.34891
2.34886
2.3559
2.3555
2.35513
2.35479
2.35449
2.35421
2.35395
2.35372
2.35351
2.35332
2.35315
2.35299
2.35285
2.35271
2.35259
2.35248
2.35238
2.35229
2.3522
2.35212
2.35205
2.35198
2.35191
2.35185
2.35179
2.35173
2.35168
2.35162
2.35157
2.35153
2.35148
2.35143
2.35139
2.35134
2.3513
2.35126
2.35122
2.35118
2.35113
2.35109
2.35105
2.35101
2.35097
2.35093
2.3509
2.35086
2.35082
2.35078
2.35074
2.3507
2.35066
2.35062
2.35058
2.35653
2.35615
2.3558
2.35548
2.35518
2.35492
2.35468
2.35446
2.35427
2.35409
2.35393
2.35379
2.35365
2.35354
2.35343
2.35333
2.35324
2.35316
2.35309
2.35302
2.35295
2.3529
2.35284
2.35279
2.35274
2.35269
2.35265
2.35261
2.35257
2.35253
2.3525
2.35246
2.35243
2.35239
2.35236
2.35233
2.3523
2.35227
2.35224
2.35221
2.35218
2.35215
2.35213
2.3521
2.35207
2.35204
2.35202
2.35199
2.35196
2.35193
2.35191
2.35188
2.35185
2.35692
2.35656
2.35622
2.35592
2.35564
2.35539
2.35516
2.35496
2.35477
2.35461
2.35446
2.35433
2.35421
2.3541
2.35401
2.35392
2.35384
2.35377
2.35371
2.35365
2.35359
2.35354
2.3535
2.35345
2.35341
2.35338
2.35334
2.35331
2.35328
2.35325
2.35322
2.3532
2.35317
2.35314
2.35312
2.3531
2.35308
2.35305
2.35303
2.35301
2.35299
2.35297
2.35295
2.35293
2.35292
2.3529
2.35288
2.35286
2.35284
2.35283
2.35281
2.35279
2.35278
2.35712
2.35678
2.35646
2.35617
2.35591
2.35567
2.35545
2.35526
2.35509
2.35493
2.3548
2.35467
2.35456
2.35447
2.35438
2.3543
2.35423
2.35417
2.35411
2.35406
2.35402
2.35397
2.35394
2.3539
2.35387
2.35384
2.35381
2.35378
2.35376
2.35374
2.35372
2.3537
2.35368
2.35366
2.35364
2.35363
2.35361
2.35359
2.35358
2.35357
2.35355
2.35354
2.35353
2.35351
2.3535
2.35349
2.35348
2.35347
2.35345
2.35344
2.35343
2.35342
2.35341
2.35718
2.35685
2.35655
2.35627
2.35602
2.35579
2.35558
2.3554
2.35524
2.3551
2.35497
2.35486
2.35476
2.35467
2.35459
2.35452
2.35446
2.3544
2.35435
2.35431
2.35427
2.35423
2.3542
2.35417
2.35414
2.35412
2.3541
2.35408
2.35406
2.35404
2.35402
2.35401
2.35399
2.35398
2.35397
2.35396
2.35394
2.35393
2.35392
2.35391
2.3539
2.3539
2.35389
2.35388
2.35387
2.35386
2.35386
2.35385
2.35384
2.35384
2.35383
2.35382
2.35382
2.3571
2.35679
2.3565
2.35624
2.356
2.35578
2.35559
2.35542
2.35527
2.35513
2.35501
2.35491
2.35482
2.35474
2.35467
2.3546
2.35455
2.3545
2.35445
2.35441
2.35438
2.35435
2.35432
2.35429
2.35427
2.35425
2.35423
2.35422
2.3542
2.35419
2.35417
2.35416
2.35415
2.35414
2.35413
2.35412
2.35411
2.3541
2.3541
2.35409
2.35408
2.35407
2.35407
2.35406
2.35406
2.35405
2.35405
2.35404
2.35404
2.35404
2.35403
2.35403
2.35403
2.3569
2.3566
2.35633
2.35608
2.35586
2.35565
2.35547
2.35531
2.35517
2.35505
2.35494
2.35484
2.35476
2.35468
2.35462
2.35456
2.35451
2.35447
2.35443
2.35439
2.35436
2.35433
2.35431
2.35429
2.35427
2.35425
2.35424
2.35422
2.35421
2.35419
2.35418
2.35417
2.35416
2.35415
2.35415
2.35414
2.35413
2.35412
2.35412
2.35411
2.3541
2.3541
2.35409
2.35409
2.35408
2.35408
2.35408
2.35407
2.35407
2.35406
2.35406
2.35406
2.35406
2.35656
2.35628
2.35602
2.35579
2.35558
2.35539
2.35522
2.35507
2.35494
2.35482
2.35472
2.35463
2.35456
2.35449
2.35443
2.35438
2.35433
2.35429
2.35425
2.35422
2.35419
2.35417
2.35415
2.35412
2.35411
2.35409
2.35407
2.35406
2.35405
2.35403
2.35402
2.35401
2.354
2.35399
2.35398
2.35397
2.35396
2.35395
2.35395
2.35394
2.35393
2.35392
2.35391
2.35391
2.3539
2.35389
2.35389
2.35388
2.35387
2.35387
2.35386
2.35385
2.35385
2.35607
2.35581
2.35557
2.35535
2.35515
2.35498
2.35482
2.35468
2.35456
2.35445
2.35436
2.35428
2.3542
2.35414
2.35409
2.35404
2.35399
2.35395
2.35392
2.35389
2.35386
2.35384
2.35381
2.35379
2.35377
2.35375
2.35374
2.35372
2.3537
2.35369
2.35367
2.35366
2.35364
2.35363
2.35362
2.3536
2.35359
2.35358
2.35356
2.35355
2.35354
2.35352
2.35351
2.3535
2.35349
2.35347
2.35346
2.35345
2.35343
2.35342
2.35341
2.3534
2.35338
2.35543
2.35518
2.35496
2.35475
2.35457
2.3544
2.35426
2.35413
2.35402
2.35392
2.35383
2.35375
2.35368
2.35362
2.35357
2.35352
2.35348
2.35344
2.3534
2.35337
2.35334
2.35331
2.35329
2.35326
2.35324
2.35322
2.3532
2.35317
2.35315
2.35313
2.35311
2.35309
2.35307
2.35305
2.35303
2.35301
2.35298
2.35296
2.35294
2.35292
2.3529
2.35288
2.35285
2.35283
2.35281
2.35279
2.35276
2.35274
2.35272
2.35269
2.35267
2.35264
2.35262
2.3546
2.35437
2.35416
2.35397
2.3538
2.35365
2.35351
2.35339
2.35328
2.35319
2.3531
2.35303
2.35296
2.3529
2.35285
2.3528
2.35276
2.35271
2.35268
2.35264
2.3526
2.35257
2.35254
2.35251
2.35248
2.35245
2.35242
2.35238
2.35235
2.35232
2.35229
2.35226
2.35223
2.3522
2.35217
2.35213
2.3521
2.35207
2.35203
2.352
2.35196
2.35193
2.35189
2.35185
2.35181
2.35178
2.35174
2.3517
2.35166
2.35162
2.35158
2.35154
2.35149
2.35357
2.35335
2.35315
2.35298
2.35281
2.35267
2.35254
2.35243
2.35232
2.35223
2.35215
2.35207
2.352
2.35194
2.35188
2.35183
2.35178
2.35173
2.35169
2.35164
2.3516
2.35155
2.35151
2.35147
2.35143
2.35139
2.35134
2.3513
2.35126
2.35121
2.35116
2.35112
2.35107
2.35102
2.35097
2.35092
2.35087
2.35082
2.35077
2.35071
2.35066
2.3506
2.35055
2.35049
2.35043
2.35037
2.35031
2.35025
2.35018
2.35012
2.35005
2.34999
2.34992
2.35228
2.35207
2.35188
2.35171
2.35156
2.35142
2.3513
2.35118
2.35108
2.35099
2.3509
2.35082
2.35075
2.35068
2.35061
2.35055
2.35049
2.35043
2.35037
2.35032
2.35026
2.3502
2.35014
2.35009
2.35003
2.34997
2.34991
2.34984
2.34978
2.34971
2.34965
2.34958
2.34951
2.34944
2.34937
2.34929
2.34922
2.34914
2.34906
2.34898
2.3489
2.34881
2.34873
2.34864
2.34855
2.34846
2.34837
2.34827
2.34818
2.34808
2.34798
2.34788
2.34778
2.35068
2.35047
2.35029
2.35012
2.34997
2.34983
2.34971
2.34959
2.34949
2.34939
2.34929
2.34921
2.34912
2.34904
2.34896
2.34888
2.34881
2.34873
2.34866
2.34858
2.3485
2.34842
2.34834
2.34826
2.34818
2.3481
2.34801
2.34792
2.34783
2.34774
2.34764
2.34754
2.34744
2.34734
2.34724
2.34713
2.34702
2.34691
2.34679
2.34667
2.34655
2.34643
2.34631
2.34618
2.34605
2.34592
2.34578
2.34564
2.3455
2.34536
2.34521
2.34506
2.34491
2.34867
2.34847
2.34829
2.34812
2.34796
2.34782
2.34769
2.34756
2.34745
2.34734
2.34723
2.34713
2.34702
2.34692
2.34683
2.34673
2.34663
2.34653
2.34643
2.34632
2.34622
2.34611
2.346
2.34589
2.34577
2.34565
2.34553
2.34541
2.34528
2.34515
2.34501
2.34487
2.34473
2.34459
2.34444
2.34429
2.34413
2.34397
2.34381
2.34364
2.34347
2.3433
2.34312
2.34294
2.34276
2.34257
2.34238
2.34218
2.34198
2.34177
2.34156
2.34135
2.34113
2.34616
2.34595
2.34576
2.34558
2.34542
2.34526
2.34512
2.34498
2.34484
2.34471
2.34458
2.34446
2.34433
2.3442
2.34407
2.34394
2.34381
2.34368
2.34354
2.3434
2.34326
2.34311
2.34296
2.3428
2.34265
2.34248
2.34231
2.34214
2.34196
2.34178
2.3416
2.3414
2.34121
2.34101
2.3408
2.34059
2.34038
2.34016
2.33993
2.3397
2.33946
2.33922
2.33898
2.33872
2.33847
2.3382
2.33794
2.33766
2.33738
2.33709
2.3368
2.3365
2.3362
2.34299
2.34277
2.34257
2.34238
2.34219
2.34202
2.34185
2.34168
2.34152
2.34136
2.3412
2.34103
2.34087
2.34071
2.34054
2.34037
2.34019
2.34001
2.33983
2.33964
2.33944
2.33924
2.33904
2.33883
2.33861
2.33839
2.33816
2.33792
2.33768
2.33743
2.33718
2.33692
2.33665
2.33638
2.3361
2.33581
2.33552
2.33522
2.33491
2.3346
2.33428
2.33395
2.33361
2.33327
2.33292
2.33256
2.33219
2.33182
2.33144
2.33104
2.33064
2.33024
2.32982
2.33915
2.33891
2.33868
2.33846
2.33824
2.33803
2.33783
2.33763
2.33742
2.33722
2.33701
2.3368
2.33659
2.33637
2.33615
2.33592
2.33569
2.33545
2.3352
2.33495
2.33469
2.33442
2.33414
2.33386
2.33357
2.33327
2.33296
2.33265
2.33232
2.33199
2.33165
2.3313
2.33094
2.33057
2.3302
2.32981
2.32942
2.32902
2.3286
2.32818
2.32775
2.32731
2.32686
2.3264
2.32593
2.32544
2.32495
2.32445
2.32393
2.32341
2.32287
2.32232
2.32176
2.33442
2.33414
2.33387
2.33361
2.33335
2.33309
2.33284
2.33258
2.33233
2.33206
2.3318
2.33153
2.33125
2.33096
2.33067
2.33037
2.33006
2.32974
2.32941
2.32908
2.32873
2.32838
2.32801
2.32763
2.32725
2.32685
2.32644
2.32602
2.3256
2.32516
2.3247
2.32424
2.32377
2.32328
2.32279
2.32228
2.32176
2.32123
2.32068
2.32012
2.31955
2.31897
2.31837
2.31776
2.31714
2.3165
2.31585
2.31518
2.3145
2.31381
2.3131
2.31237
2.31163
2.32804
2.32771
2.32739
2.32707
2.32675
2.32643
2.32611
2.32579
2.32546
2.32512
2.32478
2.32443
2.32407
2.32369
2.32331
2.32292
2.32251
2.3221
2.32167
2.32123
2.32077
2.32031
2.31983
2.31934
2.31883
2.31832
2.31778
2.31724
2.31668
2.31611
2.31552
2.31492
2.3143
2.31367
2.31303
2.31237
2.31169
2.311
2.3103
2.30957
2.30883
2.30808
2.30731
2.30652
2.30571
2.30489
2.30404
2.30318
2.3023
2.3014
2.30048
2.29954
2.29858
2.31923
2.31883
2.31844
2.31805
2.31766
2.31726
2.31685
2.31644
2.31602
2.31559
2.31515
2.31469
2.31422
2.31374
2.31325
2.31274
2.31221
2.31168
2.31112
2.31055
2.30997
2.30937
2.30875
2.30812
2.30747
2.30681
2.30612
2.30543
2.30471
2.30398
2.30323
2.30246
2.30167
2.30087
2.30005
2.29921
2.29835
2.29747
2.29657
2.29565
2.29472
2.29376
2.29278
2.29178
2.29076
2.28971
2.28865
2.28756
2.28645
2.28531
2.28415
2.28297
2.28176
2.30695
2.30647
2.306
2.30552
2.30503
2.30453
2.30403
2.30351
2.30298
2.30244
2.30188
2.3013
2.30071
2.3001
2.29948
2.29883
2.29817
2.29749
2.2968
2.29608
2.29535
2.29459
2.29382
2.29303
2.29222
2.29139
2.29054
2.28967
2.28878
2.28787
2.28694
2.28599
2.28502
2.28402
2.28301
2.28197
2.28091
2.27983
2.27873
2.2776
2.27645
2.27528
2.27408
2.27286
2.27161
2.27034
2.26904
2.26772
2.26637
2.26499
2.26359
2.26215
2.26069
2.28971
2.28915
2.28858
2.28801
2.28742
2.28683
2.28622
2.28559
2.28494
2.28428
2.2836
2.28291
2.28219
2.28145
2.2807
2.27992
2.27912
2.2783
2.27746
2.2766
2.27572
2.27482
2.27389
2.27295
2.27198
2.27099
2.26998
2.26895
2.2679
2.26682
2.26572
2.2646
2.26346
2.26229
2.2611
2.25988
2.25865
2.25739
2.2561
2.25479
2.25345
2.25209
2.25071
2.2493
2.24786
2.2464
2.2449
2.24339
2.24184
2.24027
2.23867
2.23704
2.23538
2.26487
2.26423
2.26359
2.26294
2.26227
2.26159
2.26089
2.26017
2.25943
2.25867
2.25789
2.25709
2.25627
2.25543
2.25457
2.25368
2.25277
2.25184
2.25089
2.24992
2.24892
2.2479
2.24686
2.2458
2.24472
2.24361
2.24248
2.24133
2.24016
2.23897
2.23775
2.23652
2.23526
2.23397
2.23267
2.23134
2.22999
2.22861
2.22722
2.2258
2.22435
2.22288
2.22139
2.21988
2.21834
2.21677
2.21518
2.21357
2.21193
2.21027
2.20858
2.20687
2.20513
2.22822
2.22758
2.22692
2.22625
2.22556
2.22485
2.22412
2.22338
2.22261
2.22183
2.22102
2.22019
2.21934
2.21847
2.21758
2.21667
2.21573
2.21478
2.2138
2.21281
2.21179
2.21076
2.2097
2.20862
2.20753
2.20641
2.20528
2.20413
2.20296
2.20176
2.20055
2.19933
2.19808
2.19681
2.19553
2.19422
2.1929
2.19156
2.1902
2.18883
2.18743
2.18602
2.18458
2.18313
2.18167
2.18018
2.17868
2.17715
2.17561
2.17406
2.17248
2.17089
2.16928
2.18347
2.18292
2.18236
2.18178
2.18118
2.18057
2.17993
2.17928
2.17861
2.17792
2.1772
2.17647
2.17572
2.17495
2.17416
2.17335
2.17252
2.17168
2.17082
2.16994
2.16904
2.16813
2.1672
2.16625
2.16529
2.16431
2.16332
2.16232
2.1613
2.16026
2.15921
2.15815
2.15708
2.15599
2.15488
2.15377
2.15264
2.1515
2.15035
2.14919
2.14801
2.14683
2.14563
2.14442
2.1432
2.14197
2.14073
2.13949
2.13823
2.13696
2.13568
2.13439
2.1331
2.14225
2.14185
2.14144
2.14101
2.14056
2.14009
2.1396
2.1391
2.13858
2.13804
2.13748
2.1369
2.13631
2.1357
2.13507
2.13443
2.13377
2.13309
2.1324
2.1317
2.13099
2.13026
2.12952
2.12876
2.128
2.12722
2.12644
2.12564
2.12483
2.12402
2.12319
2.12236
2.12152
2.12067
2.11981
2.11895
2.11808
2.1172
2.11632
2.11543
2.11453
2.11364
2.11273
2.11182
2.11091
2.11
2.10908
2.10816
2.10724
2.10632
2.10539
2.10447
2.10354
2.10548
2.1053
2.10511
2.1049
2.10467
2.10443
2.10417
2.10389
2.10359
2.10328
2.10296
2.10261
2.10226
2.10189
2.1015
2.1011
2.1007
2.10027
2.09984
2.0994
2.09895
2.09849
2.09802
2.09754
2.09706
2.09657
2.09607
2.09557
2.09507
2.09455
2.09404
2.09352
2.093
2.09248
2.09196
2.09143
2.0909
2.09038
2.08985
2.08933
2.0888
2.08828
2.08776
2.08724
2.08673
2.08622
2.08571
2.08521
2.08472
2.08423
2.08375
2.08327
2.08281
2.08235
2.07845
2.07857
2.07867
2.07876
2.07883
2.07888
2.07892
2.07894
2.07895
2.07894
2.07892
2.07888
2.07884
2.07878
2.07872
2.07864
2.07856
2.07846
2.07836
2.07826
2.07814
2.07803
2.07791
2.07779
2.07766
2.07753
2.0774
2.07728
2.07715
2.07702
2.07689
2.07677
2.07665
2.07653
2.07642
2.07631
2.07621
2.07611
2.07602
2.07593
2.07586
2.07579
2.07573
2.07568
2.07565
2.07562
2.07561
2.0756
2.07562
2.07564
2.07568
2.07574
2.07581
2.0759
2.0682
2.06868
2.06915
2.0696
2.07004
2.07046
2.07087
2.07126
2.07164
2.07201
2.07237
2.07271
2.07305
2.07338
2.07371
2.07402
2.07433
2.07464
2.07495
2.07525
2.07555
2.07585
2.07615
2.07646
2.07676
2.07707
2.07738
2.0777
2.07802
2.07835
2.07869
2.07904
2.07939
2.07975
2.08012
2.08051
2.0809
2.08131
2.08173
2.08216
2.08261
2.08307
2.08355
2.08405
2.08457
2.0851
2.08566
2.08623
2.08683
2.08744
2.08809
2.08875
2.08944
2.09016
2.08506
2.08599
2.08691
2.0878
2.08869
2.08956
2.09042
2.09126
2.09209
2.09292
2.09373
2.09454
2.09534
2.09614
2.09693
2.09772
2.09851
2.09929
2.10008
2.10087
2.10167
2.10246
2.10327
2.10408
2.10489
2.10572
2.10655
2.1074
2.10826
2.10912
2.11001
2.1109
2.11181
2.11274
2.11368
2.11464
2.11562
2.11661
2.11763
2.11867
2.11973
2.12081
2.12192
2.12305
2.1242
2.12539
2.1266
2.12784
2.12911
2.13042
2.13175
2.13312
2.13452
2.13595
2.14686
2.14834
2.14981
2.15127
2.15271
2.15413
2.15555
2.15695
2.15834
2.15973
2.16111
2.16248
2.16385
2.16522
2.16659
2.16795
2.16933
2.1707
2.17208
2.17347
2.17486
2.17626
2.17768
2.1791
2.18054
2.182
2.18346
2.18495
2.18645
2.18797
2.18951
2.19108
2.19266
2.19427
2.1959
2.19755
2.19923
2.20094
2.20268
2.20444
2.20624
2.20807
2.20993
2.21182
2.21375
2.21572
2.21772
2.21976
2.22184
2.22397
2.22613
2.22834
2.23059
2.23289
2.29059
2.29282
2.29503
2.29722
2.2994
2.30157
2.30372
2.30587
2.308
2.31013
2.31225
2.31438
2.3165
2.31862
2.32075
2.32288
2.32502
2.32716
2.32932
2.33149
2.33368
2.33588
2.33809
2.34033
2.34258
2.34486
2.34716
2.34948
2.35183
2.35421
2.35661
2.35905
2.36151
2.36401
2.36654
2.36911
2.37171
2.37435
2.37703
2.37975
2.38251
2.38531
2.38815
2.39105
2.39399
2.39697
2.40001
2.4031
2.40624
2.40944
2.41269
2.416
2.41937
2.4228
2.61488
2.61826
2.62162
2.62496
2.62828
2.63159
2.63489
2.63817
2.64146
2.64474
2.64801
2.65129
2.65457
2.65786
2.66116
2.66447
2.66779
2.67113
2.67448
2.67786
2.68126
2.68468
2.68814
2.69162
2.69513
2.69867
2.70225
2.70587
2.70952
2.71322
2.71696
2.72074
2.72456
2.72844
2.73236
2.73633
2.74035
2.74443
2.74856
2.75275
2.757
2.7613
2.76568
2.77011
2.77462
2.77919
2.78383
2.78854
2.79333
2.79819
2.80313
2.80815
2.81326
2.81844
3.51416
3.52
3.52581
3.53161
3.53738
3.54314
3.54889
3.55464
3.56038
3.56612
3.57187
3.57763
3.5834
3.58919
3.595
3.60083
3.60669
3.61259
3.61852
3.62449
3.6305
3.63656
3.64266
3.64882
3.65504
3.66131
3.66764
3.67404
3.6805
3.68703
3.69364
3.70032
3.70707
3.71391
3.72083
3.72783
3.73492
3.7421
3.74937
3.75674
3.76421
3.77178
3.77945
3.78723
3.79512
3.80312
3.81124
3.81948
3.82784
3.83632
3.84493
3.85367
3.86254
3.87155
8.46081
8.47829
8.49569
8.51304
8.53035
8.54761
8.56484
8.58206
8.59928
8.61649
8.63373
8.651
8.6683
8.68567
8.70309
8.72059
8.73818
8.75586
8.77365
8.79155
8.80958
8.82774
8.84605
8.86451
8.88313
8.90192
8.92088
8.94004
8.95939
8.97894
8.9987
9.01868
9.03888
9.05931
9.07997
9.10088
9.12204
9.14346
9.16514
9.18709
9.20933
9.23185
9.25467
9.2778
9.30124
9.325
9.34908
9.37351
9.39828
9.4234
9.44888
9.47472
9.50094
9.52755
)
;

boundaryField
{
    inlet
    {
        type            fixedValue;
        value           nonuniform 0();
    }
    outlet
    {
        type            zeroGradient;
    }
    upperWall
    {
        Cmu             0.09;
        kappa           0.41;
        E               9.8;
        type            epsilonWallFunction;
        value           nonuniform List<scalar> 
54
(
8.46081
8.47829
8.49569
8.51304
8.53035
8.54761
8.56484
8.58206
8.59928
8.61649
8.63373
8.651
8.6683
8.68567
8.70309
8.72059
8.73818
8.75586
8.77365
8.79155
8.80958
8.82774
8.84605
8.86451
8.88313
8.90192
8.92088
8.94004
8.95939
8.97894
8.9987
9.01868
9.03888
9.05931
9.07997
9.10088
9.12204
9.14346
9.16514
9.18709
9.20933
9.23185
9.25467
9.2778
9.30124
9.325
9.34908
9.37351
9.39828
9.4234
9.44888
9.47472
9.50094
9.52755
)
;
    }
    lowerWall
    {
        Cmu             0.09;
        kappa           0.41;
        E               9.8;
        type            epsilonWallFunction;
        value           nonuniform List<scalar> 
57
(
4.59245
4.58834
4.58471
4.58152
4.57874
4.57634
4.5743
4.57258
4.57112
4.56993
4.56929
4.56905
4.56911
4.56942
4.56995
4.57067
4.57156
4.57262
4.57382
4.57517
4.57664
4.57824
4.57996
4.58178
4.58371
4.58575
4.58788
4.5901
4.59242
4.59482
4.59731
4.59988
4.60253
4.60526
4.60806
4.61094
4.61389
4.61691
4.62
4.62315
4.62636
4.62963
4.63297
4.63636
4.6398
4.6433
4.64685
4.65045
4.65409
4.65778
4.66152
4.66529
4.66911
4.67297
4.67688
4.68082
4.6848
)
;
    }
    frontAndBack
    {
        type            empty;
    }
    procBoundary1to0
    {
        type            processor;
        value           nonuniform List<scalar> 
59
(
4.68882
2.43498
2.13169
2.07324
2.07952
2.10703
2.14069
2.17438
2.2055
2.23304
2.25676
2.25676
2.27647
2.29316
2.30686
2.31797
2.32695
2.33398
2.33933
2.34339
2.34647
2.3488
2.35054
2.35183
2.35276
2.35341
2.35382
2.35402
2.35405
2.35384
2.35337
2.3526
2.35145
2.34985
2.34767
2.34476
2.34091
2.33589
2.32939
2.32118
2.31087
2.2976
2.28053
2.2592
2.23369
2.20336
2.16765
2.1318
2.10262
2.10262
2.0819
2.07601
2.0909
2.13742
2.23523
2.42629
2.82371
3.8807
9.55453
)
;
    }
    procBoundary1to3
    {
        type            processor;
        value           nonuniform List<scalar> 
62
(
4.59706
2.42219
2.14101
2.09351
2.10612
2.13714
2.17085
2.17085
2.20477
2.23383
2.23383
2.26003
2.282
2.30006
2.31467
2.32535
2.32535
2.33452
2.34176
2.34711
2.35017
2.35017
2.35224
2.35224
2.35412
2.35543
2.35633
2.35692
2.35728
2.35746
2.35749
2.3574
2.35718
2.35682
2.35632
2.35566
2.35483
2.35379
2.35249
2.35088
2.34888
2.34637
2.34322
2.33941
2.33471
2.32837
2.31963
2.30743
2.29027
2.26549
2.22886
2.18401
2.14264
2.10564
2.07832
2.0677
2.08412
2.14536
2.28835
2.61149
3.5083
8.44326
)
;
    }
}


// ************************************************************************* //
