/*--------------------------------*- C++ -*----------------------------------*\
  =========                 |
  \\      /  F ield         | OpenFOAM: The Open Source CFD Toolbox
   \\    /   O peration     | Website:  https://openfoam.org
    \\  /    A nd           | Version:  6
     \\/     M anipulation  |
\*---------------------------------------------------------------------------*/
FoamFile
{
    version     2.0;
    format      ascii;
    class       volScalarField;
    location    "0.04";
    object      k;
}
// * * * * * * * * * * * * * * * * * * * * * * * * * * * * * * * * * * * * * //

dimensions      [0 2 -2 0 0 0 0];

internalField   nonuniform List<scalar> 
3081
(
0.0324601
0.0324178
0.0323778
0.0323399
0.032304
0.0322699
0.0322375
0.0322066
0.0321769
0.0321483
0.0321221
0.0320978
0.0320749
0.0320532
0.0320323
0.0320123
0.031993
0.0319743
0.0319561
0.0319385
0.0319213
0.0319046
0.0318882
0.0318721
0.0318564
0.031841
0.0318258
0.0318108
0.0317961
0.0317816
0.0317672
0.031753
0.031739
0.0317251
0.0317114
0.0316977
0.0316841
0.0316707
0.0316572
0.0316439
0.0316306
0.0316173
0.031604
0.0315907
0.0315774
0.0315641
0.0315508
0.0315374
0.0315239
0.0315104
0.0314968
0.0314831
0.0314693
0.0314554
0.0314414
0.0314273
0.031413
0.0654799
0.0653855
0.0652961
0.0652114
0.0651309
0.0650545
0.0649817
0.0649124
0.064846
0.0647822
0.0647202
0.064661
0.0646047
0.0645508
0.0644993
0.0644497
0.064402
0.0643559
0.0643112
0.0642679
0.0642258
0.0641847
0.0641447
0.0641056
0.0640673
0.0640297
0.0639928
0.0639566
0.0639209
0.0638858
0.0638511
0.0638168
0.063783
0.0637495
0.0637163
0.0636833
0.0636506
0.0636181
0.0635857
0.0635535
0.0635214
0.0634893
0.0634573
0.0634253
0.0633932
0.0633611
0.0633289
0.0632966
0.0632642
0.0632316
0.0631989
0.0631659
0.0631327
0.0630993
0.0630656
0.0630317
0.0629976
0.0831894
0.0830759
0.0829682
0.082866
0.0827689
0.0826766
0.0825885
0.0825045
0.0824241
0.0823469
0.0822725
0.0822011
0.0821326
0.0820667
0.0820032
0.081942
0.0818828
0.0818254
0.0817697
0.0817155
0.0816628
0.0816113
0.0815609
0.0815117
0.0814633
0.0814159
0.0813693
0.0813234
0.0812781
0.0812335
0.0811893
0.0811457
0.0811025
0.0810597
0.0810173
0.0809751
0.0809332
0.0808915
0.0808499
0.0808085
0.0807672
0.0807259
0.0806846
0.0806433
0.0806019
0.0805605
0.0805189
0.0804772
0.0804353
0.0803932
0.0803508
0.0803082
0.0802653
0.0802221
0.0801786
0.0801348
0.0800906
0.095755
0.0956317
0.0955148
0.0954038
0.0952982
0.0951977
0.0951018
0.0950101
0.0949224
0.0948382
0.0947573
0.0946793
0.0946043
0.094532
0.0944621
0.0943945
0.094329
0.0942653
0.0942034
0.0941431
0.0940842
0.0940266
0.0939703
0.093915
0.0938608
0.0938075
0.093755
0.0937032
0.0936522
0.0936017
0.0935518
0.0935024
0.0934534
0.0934048
0.0933566
0.0933086
0.0932608
0.0932133
0.0931659
0.0931186
0.0930713
0.0930241
0.0929768
0.0929295
0.0928821
0.0928346
0.092787
0.0927391
0.092691
0.0926426
0.092594
0.0925451
0.0924958
0.0924462
0.0923962
0.0923459
0.0922951
0.105613
0.105485
0.105364
0.105249
0.10514
0.105035
0.104936
0.10484
0.104749
0.104662
0.104577
0.104496
0.104418
0.104343
0.104269
0.104199
0.10413
0.104063
0.103998
0.103934
0.103872
0.103811
0.103751
0.103692
0.103635
0.103578
0.103522
0.103467
0.103413
0.103359
0.103306
0.103253
0.103201
0.103149
0.103097
0.103045
0.102994
0.102943
0.102892
0.102841
0.10279
0.10274
0.102689
0.102638
0.102587
0.102535
0.102484
0.102432
0.10238
0.102328
0.102275
0.102223
0.102169
0.102116
0.102062
0.102007
0.101952
0.113638
0.113509
0.113387
0.113271
0.113161
0.113056
0.112956
0.11286
0.112768
0.11268
0.112595
0.112513
0.112434
0.112358
0.112284
0.112212
0.112142
0.112074
0.112008
0.111943
0.111879
0.111817
0.111756
0.111696
0.111638
0.11158
0.111522
0.111466
0.11141
0.111355
0.1113
0.111246
0.111192
0.111138
0.111085
0.111032
0.110979
0.110927
0.110874
0.110821
0.110769
0.110716
0.110664
0.110611
0.110558
0.110505
0.110451
0.110398
0.110344
0.11029
0.110235
0.11018
0.110125
0.110069
0.110013
0.109957
0.1099
0.120139
0.120019
0.119905
0.119796
0.119693
0.119594
0.1195
0.11941
0.119323
0.11924
0.119159
0.119081
0.119006
0.118933
0.118862
0.118793
0.118725
0.118659
0.118595
0.118532
0.118471
0.11841
0.118351
0.118292
0.118234
0.118178
0.118121
0.118066
0.118011
0.117956
0.117902
0.117848
0.117795
0.117741
0.117688
0.117635
0.117583
0.11753
0.117477
0.117424
0.117372
0.117319
0.117266
0.117213
0.117159
0.117106
0.117052
0.116998
0.116943
0.116888
0.116833
0.116777
0.116721
0.116665
0.116608
0.11655
0.125643
0.125526
0.125416
0.125311
0.125212
0.125116
0.125025
0.124938
0.124855
0.124774
0.124696
0.124621
0.124548
0.124478
0.124409
0.124342
0.124277
0.124213
0.124151
0.12409
0.12403
0.123971
0.123913
0.123857
0.123801
0.123745
0.12369
0.123636
0.123583
0.12353
0.123477
0.123424
0.123372
0.12332
0.123268
0.123217
0.123165
0.123114
0.123062
0.12301
0.122959
0.122907
0.122855
0.122803
0.122751
0.122698
0.122645
0.122592
0.122539
0.122485
0.12243
0.122376
0.122321
0.122265
0.122209
0.122153
0.130098
0.129993
0.129893
0.129798
0.129708
0.129621
0.129539
0.129459
0.129383
0.129309
0.129238
0.129169
0.129102
0.129036
0.128973
0.128911
0.12885
0.128791
0.128733
0.128676
0.12862
0.128565
0.128511
0.128458
0.128405
0.128353
0.128301
0.12825
0.128199
0.128149
0.128099
0.128049
0.127999
0.12795
0.1279
0.127851
0.127802
0.127752
0.127703
0.127653
0.127604
0.127554
0.127504
0.127454
0.127403
0.127352
0.127301
0.12725
0.127198
0.127146
0.127093
0.12704
0.126987
0.126933
0.126879
0.133878
0.133779
0.133685
0.133596
0.133512
0.133431
0.133354
0.133279
0.133208
0.133139
0.133073
0.133008
0.132945
0.132884
0.132825
0.132767
0.13271
0.132655
0.132601
0.132547
0.132495
0.132444
0.132393
0.132343
0.132294
0.132245
0.132197
0.132149
0.132101
0.132054
0.132007
0.13196
0.131914
0.131867
0.131821
0.131775
0.131728
0.131682
0.131635
0.131589
0.131542
0.131495
0.131448
0.131401
0.131353
0.131305
0.131257
0.131209
0.13116
0.131111
0.131061
0.131011
0.130961
0.13091
0.130858
0.136985
0.136893
0.136806
0.136724
0.136646
0.136571
0.136499
0.136431
0.136365
0.136302
0.136241
0.136181
0.136123
0.136067
0.136012
0.135959
0.135907
0.135856
0.135806
0.135757
0.135709
0.135662
0.135615
0.135569
0.135524
0.135479
0.135434
0.13539
0.135347
0.135303
0.13526
0.135217
0.135174
0.135131
0.135088
0.135045
0.135002
0.13496
0.134917
0.134874
0.13483
0.134787
0.134743
0.1347
0.134656
0.134611
0.134567
0.134522
0.134476
0.134431
0.134385
0.134338
0.134292
0.134244
0.134196
0.13952
0.139435
0.139356
0.13928
0.139208
0.13914
0.139075
0.139013
0.138953
0.138895
0.138839
0.138785
0.138733
0.138682
0.138632
0.138584
0.138536
0.13849
0.138445
0.1384
0.138357
0.138314
0.138272
0.13823
0.138189
0.138149
0.138108
0.138068
0.138029
0.137989
0.13795
0.137911
0.137872
0.137833
0.137794
0.137755
0.137716
0.137677
0.137638
0.137599
0.13756
0.13752
0.137481
0.137441
0.137401
0.13736
0.13732
0.137279
0.137237
0.137196
0.137154
0.137111
0.137068
0.137025
0.136981
0.136937
0.141569
0.141492
0.14142
0.141351
0.141286
0.141224
0.141166
0.141109
0.141056
0.141004
0.140953
0.140905
0.140858
0.140812
0.140767
0.140724
0.140682
0.14064
0.1406
0.14056
0.140522
0.140483
0.140446
0.140409
0.140372
0.140336
0.1403
0.140264
0.140229
0.140193
0.140158
0.140123
0.140089
0.140054
0.140019
0.139984
0.139949
0.139915
0.13988
0.139845
0.139809
0.139774
0.139738
0.139703
0.139667
0.13963
0.139594
0.139557
0.13952
0.139482
0.139445
0.139406
0.139368
0.139329
0.13929
0.13925
0.14314
0.143075
0.143013
0.142954
0.142899
0.142846
0.142796
0.142748
0.142702
0.142657
0.142614
0.142572
0.142532
0.142492
0.142454
0.142417
0.14238
0.142345
0.14231
0.142275
0.142242
0.142209
0.142176
0.142144
0.142112
0.14208
0.142049
0.142018
0.141987
0.141956
0.141925
0.141895
0.141864
0.141833
0.141803
0.141772
0.141741
0.14171
0.14168
0.141648
0.141617
0.141586
0.141554
0.141522
0.14149
0.141458
0.141425
0.141393
0.141359
0.141326
0.141292
0.141258
0.141223
0.141189
0.141153
0.144446
0.144387
0.144331
0.144279
0.14423
0.144183
0.144139
0.144096
0.144055
0.144016
0.143978
0.143941
0.143906
0.143871
0.143838
0.143805
0.143774
0.143743
0.143712
0.143682
0.143653
0.143625
0.143596
0.143568
0.143541
0.143513
0.143486
0.143459
0.143432
0.143406
0.143379
0.143352
0.143326
0.143299
0.143273
0.143246
0.143219
0.143192
0.143166
0.143139
0.143111
0.143084
0.143056
0.143029
0.143001
0.142973
0.142944
0.142916
0.142887
0.142857
0.142828
0.142798
0.142768
0.142737
0.142706
0.145489
0.145436
0.145387
0.14534
0.145297
0.145255
0.145216
0.145179
0.145143
0.145109
0.145076
0.145044
0.145013
0.144983
0.144954
0.144926
0.144898
0.144871
0.144845
0.144819
0.144794
0.14477
0.144745
0.144721
0.144697
0.144674
0.14465
0.144627
0.144604
0.144581
0.144558
0.144535
0.144512
0.144489
0.144466
0.144443
0.14442
0.144397
0.144374
0.144351
0.144327
0.144303
0.144279
0.144255
0.144231
0.144207
0.144182
0.144157
0.144132
0.144106
0.144081
0.144055
0.144028
0.144002
0.143975
0.146272
0.146226
0.146182
0.146141
0.146103
0.146066
0.146032
0.146
0.145968
0.145939
0.14591
0.145882
0.145856
0.14583
0.145806
0.145781
0.145758
0.145735
0.145713
0.145692
0.14567
0.145649
0.145629
0.145609
0.145589
0.145569
0.145549
0.14553
0.14551
0.145491
0.145472
0.145452
0.145433
0.145414
0.145395
0.145375
0.145356
0.145336
0.145317
0.145297
0.145277
0.145257
0.145237
0.145216
0.145196
0.145175
0.145154
0.145133
0.145112
0.14509
0.145069
0.145046
0.145024
0.145002
0.144979
0.146789
0.14675
0.146714
0.14668
0.146649
0.146619
0.146591
0.146564
0.146538
0.146514
0.146491
0.146468
0.146447
0.146426
0.146406
0.146386
0.146367
0.146349
0.146331
0.146314
0.146297
0.14628
0.146263
0.146247
0.146231
0.146215
0.146199
0.146183
0.146167
0.146152
0.146136
0.14612
0.146105
0.146089
0.146073
0.146057
0.146041
0.146025
0.146009
0.145993
0.145977
0.145961
0.145944
0.145928
0.145911
0.145894
0.145877
0.145859
0.145842
0.145824
0.145806
0.145788
0.145769
0.145751
0.147158
0.147126
0.147097
0.147069
0.147043
0.147019
0.146996
0.146974
0.146954
0.146934
0.146915
0.146897
0.14688
0.146863
0.146847
0.146832
0.146817
0.146802
0.146788
0.146775
0.146761
0.146748
0.146735
0.146722
0.146709
0.146697
0.146684
0.146672
0.146659
0.146647
0.146634
0.146622
0.14661
0.146597
0.146585
0.146572
0.14656
0.146547
0.146535
0.146522
0.146509
0.146496
0.146483
0.14647
0.146456
0.146443
0.146429
0.146415
0.146402
0.146387
0.146373
0.146359
0.146344
0.147451
0.147423
0.147397
0.147374
0.147351
0.14733
0.147311
0.147292
0.147275
0.147258
0.147242
0.147228
0.147213
0.1472
0.147187
0.147174
0.147162
0.147151
0.147139
0.147129
0.147118
0.147108
0.147097
0.147087
0.147077
0.147068
0.147058
0.147048
0.147039
0.147029
0.14702
0.14701
0.147001
0.146991
0.146982
0.146972
0.146963
0.146953
0.146943
0.146934
0.146924
0.146914
0.146904
0.146894
0.146884
0.146874
0.146863
0.146853
0.146842
0.146832
0.146821
0.14681
0.146799
0.147662
0.147637
0.147614
0.147593
0.147574
0.147556
0.147539
0.147524
0.147509
0.147495
0.147482
0.14747
0.147458
0.147447
0.147437
0.147427
0.147417
0.147408
0.147399
0.147391
0.147383
0.147375
0.147367
0.147359
0.147352
0.147344
0.147337
0.14733
0.147323
0.147315
0.147308
0.147301
0.147294
0.147287
0.14728
0.147273
0.147266
0.147259
0.147252
0.147245
0.147237
0.14723
0.147223
0.147215
0.147208
0.147201
0.147193
0.147185
0.147178
0.14717
0.147162
0.147154
0.147146
0.147812
0.14779
0.14777
0.147751
0.147734
0.147719
0.147705
0.147691
0.147679
0.147667
0.147657
0.147647
0.147637
0.147628
0.14762
0.147612
0.147604
0.147597
0.147591
0.147584
0.147578
0.147572
0.147566
0.14756
0.147555
0.14755
0.147544
0.147539
0.147534
0.147529
0.147523
0.147518
0.147513
0.147508
0.147503
0.147498
0.147493
0.147488
0.147483
0.147478
0.147473
0.147468
0.147463
0.147457
0.147452
0.147447
0.147442
0.147436
0.147431
0.147425
0.14742
0.147414
0.147409
0.147916
0.147896
0.147879
0.147863
0.147848
0.147835
0.147822
0.147811
0.147801
0.147791
0.147782
0.147774
0.147766
0.147759
0.147752
0.147746
0.147741
0.147735
0.14773
0.147725
0.147721
0.147716
0.147712
0.147708
0.147704
0.1477
0.147696
0.147693
0.147689
0.147686
0.147682
0.147678
0.147675
0.147672
0.147668
0.147665
0.147661
0.147658
0.147654
0.147651
0.147648
0.147644
0.147641
0.147637
0.147634
0.14763
0.147627
0.147623
0.14762
0.147616
0.147612
0.147609
0.147605
0.147986
0.147968
0.147953
0.147938
0.147926
0.147914
0.147903
0.147894
0.147885
0.147877
0.14787
0.147863
0.147857
0.147851
0.147846
0.147841
0.147837
0.147833
0.147829
0.147826
0.147822
0.147819
0.147816
0.147814
0.147811
0.147808
0.147806
0.147803
0.147801
0.147799
0.147796
0.147794
0.147792
0.14779
0.147787
0.147785
0.147783
0.147781
0.147779
0.147777
0.147774
0.147772
0.14777
0.147768
0.147766
0.147764
0.147762
0.147759
0.147757
0.147755
0.147753
0.147751
0.147748
0.148029
0.148013
0.147999
0.147986
0.147975
0.147965
0.147956
0.147948
0.147941
0.147934
0.147928
0.147922
0.147918
0.147913
0.147909
0.147905
0.147902
0.147899
0.147896
0.147894
0.147892
0.14789
0.147888
0.147886
0.147884
0.147883
0.147881
0.14788
0.147878
0.147877
0.147875
0.147874
0.147873
0.147871
0.14787
0.147869
0.147868
0.147866
0.147865
0.147864
0.147863
0.147862
0.14786
0.147859
0.147858
0.147857
0.147856
0.147855
0.147853
0.147852
0.147851
0.14785
0.147849
0.14805
0.148036
0.148023
0.148012
0.148002
0.147993
0.147986
0.147979
0.147972
0.147967
0.147962
0.147957
0.147954
0.14795
0.147947
0.147944
0.147942
0.14794
0.147938
0.147936
0.147935
0.147933
0.147932
0.147931
0.14793
0.147929
0.147928
0.147928
0.147927
0.147926
0.147925
0.147925
0.147924
0.147923
0.147923
0.147922
0.147921
0.147921
0.14792
0.14792
0.147919
0.147919
0.147918
0.147918
0.147917
0.147916
0.147916
0.147915
0.147915
0.147915
0.147914
0.147914
0.147913
0.148053
0.14804
0.148029
0.148019
0.14801
0.148003
0.147996
0.14799
0.147985
0.14798
0.147976
0.147972
0.147969
0.147966
0.147964
0.147962
0.14796
0.147959
0.147957
0.147956
0.147955
0.147955
0.147954
0.147953
0.147953
0.147952
0.147952
0.147951
0.147951
0.147951
0.14795
0.14795
0.14795
0.14795
0.147949
0.147949
0.147949
0.147949
0.147948
0.147948
0.147948
0.147948
0.147948
0.147947
0.147947
0.147947
0.147947
0.147947
0.147947
0.147947
0.147946
0.147946
0.147946
0.14804
0.148029
0.148019
0.14801
0.148002
0.147995
0.147989
0.147984
0.14798
0.147976
0.147972
0.147969
0.147967
0.147965
0.147963
0.147961
0.14796
0.147959
0.147958
0.147957
0.147957
0.147956
0.147956
0.147955
0.147955
0.147955
0.147955
0.147955
0.147954
0.147954
0.147954
0.147954
0.147954
0.147954
0.147954
0.147953
0.147953
0.147953
0.147953
0.147953
0.147953
0.147953
0.147953
0.147952
0.147952
0.147952
0.147952
0.147952
0.147952
0.147952
0.147952
0.147952
0.147952
0.148009
0.147998
0.147989
0.147981
0.147974
0.147968
0.147963
0.147958
0.147954
0.147951
0.147948
0.147945
0.147943
0.147941
0.14794
0.147938
0.147937
0.147936
0.147935
0.147935
0.147934
0.147934
0.147933
0.147933
0.147933
0.147932
0.147932
0.147932
0.147931
0.147931
0.147931
0.14793
0.14793
0.147929
0.147929
0.147929
0.147928
0.147928
0.147927
0.147927
0.147926
0.147926
0.147925
0.147925
0.147924
0.147924
0.147923
0.147923
0.147922
0.147922
0.147921
0.147921
0.14792
0.147957
0.147947
0.147939
0.147932
0.147925
0.14792
0.147915
0.147911
0.147907
0.147904
0.147901
0.147899
0.147896
0.147895
0.147893
0.147891
0.14789
0.147889
0.147888
0.147887
0.147886
0.147885
0.147885
0.147884
0.147883
0.147882
0.147881
0.147881
0.14788
0.147879
0.147878
0.147877
0.147876
0.147875
0.147874
0.147872
0.147871
0.14787
0.147869
0.147868
0.147866
0.147865
0.147863
0.147862
0.147861
0.147859
0.147858
0.147856
0.147855
0.147853
0.147852
0.14785
0.147848
0.147882
0.147873
0.147865
0.147858
0.147852
0.147847
0.147843
0.147839
0.147835
0.147832
0.147829
0.147826
0.147824
0.147822
0.14782
0.147818
0.147816
0.147814
0.147813
0.147811
0.147809
0.147808
0.147806
0.147805
0.147803
0.147801
0.1478
0.147798
0.147796
0.147794
0.147792
0.14779
0.147788
0.147785
0.147783
0.147781
0.147778
0.147776
0.147773
0.147771
0.147768
0.147765
0.147762
0.147759
0.147757
0.147754
0.14775
0.147747
0.147744
0.147741
0.147738
0.147734
0.147731
0.147781
0.147772
0.147764
0.147758
0.147752
0.147747
0.147742
0.147738
0.147734
0.14773
0.147727
0.147724
0.147721
0.147718
0.147715
0.147712
0.14771
0.147707
0.147704
0.147702
0.147699
0.147696
0.147693
0.147691
0.147688
0.147685
0.147681
0.147678
0.147675
0.147671
0.147667
0.147664
0.14766
0.147656
0.147652
0.147647
0.147643
0.147639
0.147634
0.147629
0.147625
0.14762
0.147615
0.14761
0.147605
0.147599
0.147594
0.147588
0.147583
0.147577
0.147571
0.147566
0.14756
0.147647
0.147639
0.147631
0.147625
0.147618
0.147613
0.147608
0.147603
0.147598
0.147594
0.14759
0.147585
0.147581
0.147577
0.147573
0.147569
0.147565
0.147561
0.147557
0.147553
0.147548
0.147544
0.147539
0.147534
0.14753
0.147524
0.147519
0.147514
0.147508
0.147502
0.147496
0.14749
0.147484
0.147477
0.147471
0.147464
0.147457
0.14745
0.147442
0.147435
0.147427
0.147419
0.147411
0.147403
0.147395
0.147386
0.147378
0.147369
0.14736
0.147351
0.147341
0.147332
0.147322
0.147475
0.147467
0.147459
0.147451
0.147445
0.147438
0.147432
0.147426
0.147421
0.147415
0.147409
0.147404
0.147398
0.147392
0.147386
0.14738
0.147374
0.147368
0.147362
0.147355
0.147348
0.147342
0.147334
0.147327
0.147319
0.147311
0.147303
0.147295
0.147286
0.147277
0.147268
0.147259
0.147249
0.147239
0.147229
0.147219
0.147208
0.147197
0.147186
0.147175
0.147163
0.147151
0.147139
0.147126
0.147114
0.147101
0.147087
0.147074
0.14706
0.147046
0.147032
0.147017
0.147002
0.147256
0.147247
0.147238
0.14723
0.147222
0.147214
0.147206
0.147199
0.147191
0.147184
0.147176
0.147168
0.14716
0.147152
0.147143
0.147135
0.147126
0.147117
0.147107
0.147098
0.147088
0.147078
0.147067
0.147056
0.147045
0.147033
0.147021
0.147009
0.146996
0.146983
0.14697
0.146956
0.146942
0.146927
0.146912
0.146897
0.146882
0.146866
0.146849
0.146833
0.146816
0.146798
0.14678
0.146762
0.146744
0.146725
0.146705
0.146686
0.146666
0.146645
0.146624
0.146603
0.146581
0.146978
0.146967
0.146957
0.146947
0.146937
0.146927
0.146917
0.146907
0.146897
0.146887
0.146876
0.146866
0.146854
0.146843
0.146831
0.146819
0.146806
0.146793
0.14678
0.146766
0.146752
0.146737
0.146722
0.146706
0.14669
0.146673
0.146656
0.146639
0.146621
0.146602
0.146583
0.146563
0.146543
0.146523
0.146502
0.14648
0.146458
0.146436
0.146413
0.146389
0.146365
0.14634
0.146315
0.146289
0.146263
0.146236
0.146209
0.146181
0.146152
0.146123
0.146093
0.146063
0.146032
0.146626
0.146613
0.146601
0.146588
0.146575
0.146563
0.14655
0.146536
0.146523
0.146509
0.146494
0.146479
0.146464
0.146448
0.146431
0.146414
0.146397
0.146379
0.14636
0.14634
0.146321
0.1463
0.146279
0.146257
0.146235
0.146212
0.146188
0.146163
0.146138
0.146113
0.146086
0.146059
0.146032
0.146003
0.145974
0.145944
0.145914
0.145883
0.145851
0.145818
0.145785
0.145751
0.145716
0.145681
0.145645
0.145607
0.14557
0.145531
0.145491
0.145451
0.14541
0.145368
0.145325
0.146181
0.146166
0.14615
0.146134
0.146117
0.1461
0.146083
0.146065
0.146047
0.146028
0.146008
0.145988
0.145967
0.145945
0.145922
0.145899
0.145875
0.14585
0.145825
0.145798
0.145771
0.145743
0.145714
0.145684
0.145654
0.145622
0.14559
0.145557
0.145523
0.145488
0.145452
0.145416
0.145378
0.14534
0.145301
0.14526
0.145219
0.145177
0.145134
0.14509
0.145045
0.144999
0.144952
0.144904
0.144854
0.144804
0.144753
0.144701
0.144647
0.144592
0.144537
0.144479
0.144421
0.145642
0.145622
0.145602
0.145581
0.145559
0.145537
0.145514
0.14549
0.145465
0.14544
0.145413
0.145386
0.145357
0.145328
0.145297
0.145266
0.145233
0.1452
0.145166
0.14513
0.145093
0.145056
0.145017
0.144977
0.144936
0.144894
0.144851
0.144807
0.144762
0.144715
0.144668
0.144619
0.144569
0.144517
0.144465
0.144411
0.144356
0.1443
0.144243
0.144184
0.144124
0.144063
0.144
0.143936
0.143871
0.143804
0.143735
0.143665
0.143594
0.143521
0.143446
0.14337
0.143292
0.14498
0.144954
0.144927
0.144899
0.144871
0.144841
0.144811
0.144779
0.144746
0.144712
0.144677
0.144641
0.144603
0.144564
0.144523
0.144482
0.144439
0.144394
0.144349
0.144302
0.144253
0.144204
0.144153
0.1441
0.144046
0.143991
0.143934
0.143876
0.143816
0.143755
0.143692
0.143628
0.143563
0.143495
0.143427
0.143356
0.143284
0.143211
0.143135
0.143058
0.142979
0.142899
0.142817
0.142733
0.142647
0.142559
0.142469
0.142377
0.142283
0.142187
0.14209
0.141989
0.141887
0.144091
0.144058
0.144023
0.143987
0.14395
0.143911
0.143871
0.143829
0.143786
0.143742
0.143695
0.143648
0.143598
0.143547
0.143494
0.14344
0.143383
0.143326
0.143266
0.143205
0.143142
0.143077
0.143011
0.142943
0.142873
0.142801
0.142728
0.142653
0.142575
0.142496
0.142415
0.142333
0.142248
0.142161
0.142072
0.141981
0.141889
0.141794
0.141697
0.141597
0.141496
0.141392
0.141286
0.141178
0.141067
0.140954
0.140839
0.140721
0.1406
0.140477
0.140351
0.140222
0.14009
0.142872
0.142829
0.142784
0.142738
0.142689
0.142639
0.142587
0.142533
0.142477
0.142419
0.142359
0.142297
0.142233
0.142167
0.142099
0.142029
0.141957
0.141882
0.141806
0.141727
0.141647
0.141564
0.141479
0.141392
0.141302
0.141211
0.141117
0.141021
0.140923
0.140822
0.140719
0.140614
0.140506
0.140396
0.140284
0.140169
0.140051
0.139931
0.139808
0.139682
0.139554
0.139423
0.139289
0.139152
0.139013
0.13887
0.138724
0.138575
0.138423
0.138267
0.138109
0.137946
0.137781
0.141185
0.14113
0.141073
0.141014
0.140953
0.140889
0.140823
0.140754
0.140683
0.14061
0.140534
0.140455
0.140374
0.140291
0.140205
0.140116
0.140026
0.139932
0.139836
0.139738
0.139637
0.139533
0.139427
0.139319
0.139207
0.139094
0.138977
0.138858
0.138736
0.138611
0.138484
0.138353
0.13822
0.138084
0.137945
0.137803
0.137658
0.13751
0.137359
0.137205
0.137047
0.136886
0.136722
0.136554
0.136383
0.136209
0.13603
0.135848
0.135662
0.135473
0.135279
0.135081
0.134879
0.138829
0.138762
0.138692
0.138619
0.138544
0.138466
0.138384
0.1383
0.138213
0.138124
0.138031
0.137935
0.137837
0.137735
0.137631
0.137524
0.137414
0.137301
0.137185
0.137067
0.136945
0.136821
0.136694
0.136563
0.13643
0.136294
0.136155
0.136013
0.135867
0.135719
0.135568
0.135413
0.135255
0.135094
0.13493
0.134762
0.134591
0.134417
0.134239
0.134058
0.133873
0.133684
0.133491
0.133295
0.133095
0.132891
0.132683
0.132471
0.132254
0.132034
0.131809
0.131579
0.131345
0.135434
0.135355
0.135273
0.135188
0.135099
0.135008
0.134912
0.134814
0.134713
0.134608
0.1345
0.134388
0.134274
0.134156
0.134036
0.133912
0.133785
0.133655
0.133521
0.133385
0.133246
0.133103
0.132958
0.132809
0.132657
0.132502
0.132344
0.132182
0.132017
0.13185
0.131679
0.131504
0.131326
0.131145
0.130961
0.130773
0.130581
0.130386
0.130187
0.129985
0.129779
0.129569
0.129356
0.129138
0.128917
0.128691
0.128462
0.128228
0.12799
0.127747
0.127501
0.127249
0.126993
0.13036
0.130274
0.130184
0.130091
0.129994
0.129893
0.12979
0.129683
0.129572
0.129458
0.129341
0.12922
0.129096
0.128969
0.128838
0.128705
0.128568
0.128428
0.128285
0.128139
0.12799
0.127838
0.127683
0.127524
0.127363
0.127199
0.127031
0.12686
0.126687
0.12651
0.12633
0.126147
0.125961
0.125772
0.125579
0.125383
0.125184
0.124982
0.124776
0.124567
0.124354
0.124138
0.123919
0.123695
0.123469
0.123238
0.123004
0.122766
0.122524
0.122278
0.122028
0.121774
0.121516
0.123865
0.12378
0.123691
0.123599
0.123503
0.123403
0.1233
0.123193
0.123083
0.12297
0.122853
0.122733
0.12261
0.122483
0.122354
0.122221
0.122085
0.121947
0.121805
0.121661
0.121514
0.121363
0.12121
0.121054
0.120896
0.120734
0.12057
0.120403
0.120233
0.12006
0.119885
0.119706
0.119525
0.119341
0.119154
0.118964
0.118772
0.118576
0.118378
0.118176
0.117972
0.117764
0.117553
0.11734
0.117123
0.116903
0.116679
0.116453
0.116223
0.115989
0.115753
0.115512
0.115269
0.11728
0.117198
0.117112
0.117022
0.116928
0.116831
0.116731
0.116627
0.11652
0.116409
0.116295
0.116178
0.116058
0.115934
0.115808
0.115679
0.115546
0.115411
0.115274
0.115133
0.11499
0.114844
0.114695
0.114544
0.11439
0.114233
0.114074
0.113912
0.113748
0.113581
0.113412
0.11324
0.113065
0.112888
0.112709
0.112526
0.112341
0.112154
0.111964
0.111771
0.111575
0.111377
0.111176
0.110972
0.110765
0.110556
0.110344
0.110129
0.10991
0.109689
0.109465
0.109238
0.109008
0.110251
0.110175
0.110095
0.110011
0.109923
0.109832
0.109738
0.10964
0.109539
0.109434
0.109327
0.109217
0.109103
0.108987
0.108867
0.108745
0.108621
0.108493
0.108363
0.108231
0.108095
0.107958
0.107818
0.107675
0.10753
0.107383
0.107233
0.107081
0.106927
0.10677
0.106611
0.10645
0.106286
0.10612
0.105952
0.105781
0.105608
0.105433
0.105256
0.105075
0.104893
0.104708
0.104521
0.104331
0.104139
0.103945
0.103748
0.103548
0.103346
0.103141
0.102933
0.102723
0.10251
0.102295
0.102879
0.102811
0.102739
0.102663
0.102584
0.102501
0.102415
0.102326
0.102234
0.102139
0.10204
0.101939
0.101835
0.101729
0.101619
0.101507
0.101393
0.101276
0.101157
0.101035
0.100911
0.100784
0.100656
0.100525
0.100392
0.100257
0.10012
0.0999802
0.0998387
0.0996951
0.0995494
0.0994017
0.0992519
0.0991001
0.0989461
0.0987902
0.0986321
0.098472
0.0983098
0.0981455
0.0979791
0.0978106
0.09764
0.0974673
0.0972924
0.0971153
0.0969361
0.0967546
0.0965709
0.096385
0.0961968
0.0960062
0.0958133
0.095618
0.0952192
0.09516
0.0950973
0.0950312
0.0949618
0.0948892
0.0948135
0.0947347
0.094653
0.0945685
0.0944811
0.0943911
0.0942985
0.0942033
0.0941056
0.0940056
0.0939032
0.0937986
0.0936918
0.0935827
0.0934716
0.0933584
0.0932432
0.093126
0.0930068
0.0928856
0.0927626
0.0926377
0.0925109
0.0923822
0.0922517
0.0921194
0.0919853
0.0918493
0.0917115
0.091572
0.0914306
0.0912873
0.0911423
0.0909954
0.0908467
0.0906962
0.0905438
0.0903896
0.0902335
0.0900755
0.0899156
0.0897539
0.0895902
0.0894245
0.0892569
0.0890873
0.0889157
0.088742
0.0872648
0.0872155
0.0871629
0.0871072
0.0870484
0.0869865
0.0869218
0.0868542
0.0867839
0.086711
0.0866355
0.0865575
0.0864771
0.0863944
0.0863094
0.0862223
0.086133
0.0860417
0.0859484
0.0858531
0.0857559
0.0856569
0.085556
0.0854534
0.085349
0.0852429
0.0851351
0.0850256
0.0849145
0.0848017
0.0846874
0.0845714
0.0844538
0.0843347
0.0842139
0.0840916
0.0839677
0.0838422
0.0837152
0.0835865
0.0834563
0.0833245
0.0831911
0.0830561
0.0829195
0.0827813
0.0826415
0.0825
0.0823569
0.0822122
0.0820657
0.0819175
0.0817676
0.081616
0.0789207
0.0788814
0.0788391
0.0787939
0.0787458
0.078695
0.0786415
0.0785853
0.0785267
0.0784657
0.0784023
0.0783367
0.0782689
0.0781991
0.0781271
0.0780533
0.0779775
0.0778998
0.0778204
0.0777393
0.0776564
0.077572
0.0774859
0.0773982
0.077309
0.0772183
0.0771261
0.0770324
0.0769374
0.0768409
0.076743
0.0766437
0.076543
0.0764409
0.0763375
0.0762328
0.0761266
0.0760191
0.0759103
0.0758001
0.0756886
0.0755757
0.0754614
0.0753458
0.0752289
0.0751105
0.0749908
0.0748697
0.0747473
0.0746234
0.0744981
0.0743713
0.0742431
0.0741134
0.069935
0.0699054
0.069873
0.069838
0.0698004
0.0697604
0.0697179
0.0696731
0.069626
0.0695768
0.0695255
0.0694722
0.069417
0.0693599
0.069301
0.0692404
0.0691781
0.0691142
0.0690487
0.0689818
0.0689133
0.0688434
0.0687722
0.0686995
0.0686256
0.0685503
0.0684738
0.068396
0.068317
0.0682368
0.0681554
0.0680728
0.0679891
0.0679042
0.0678181
0.0677309
0.0676425
0.067553
0.0674623
0.0673705
0.0672776
0.0671836
0.0670884
0.0669921
0.0668947
0.0667961
0.0666964
0.0665956
0.0664936
0.0663904
0.066286
0.0661804
0.0660737
0.0659657
0.0596957
0.059675
0.0596519
0.0596265
0.0595989
0.0595691
0.0595373
0.0595034
0.0594676
0.05943
0.0593905
0.0593494
0.0593066
0.0592622
0.0592163
0.0591689
0.0591201
0.0590699
0.0590184
0.0589657
0.0589117
0.0588565
0.0588002
0.0587427
0.0586841
0.0586245
0.0585638
0.058502
0.0584393
0.0583756
0.0583109
0.0582452
0.0581785
0.058111
0.0580424
0.057973
0.0579026
0.0578312
0.057759
0.0576858
0.0576118
0.0575368
0.0574609
0.0573841
0.0573064
0.0572278
0.0571482
0.0570678
0.0569864
0.0569041
0.0568209
0.0567366
0.0566515
0.0565653
0.0464184
0.0464055
0.0463907
0.0463742
0.046356
0.0463361
0.0463145
0.0462915
0.0462669
0.046241
0.0462136
0.046185
0.046155
0.0461239
0.0460916
0.0460582
0.0460237
0.0459882
0.0459517
0.0459142
0.0458758
0.0458365
0.0457963
0.0457552
0.0457134
0.0456707
0.0456273
0.0455831
0.0455381
0.0454924
0.045446
0.0453988
0.045351
0.0453025
0.0452532
0.0452033
0.0451527
0.0451014
0.0450494
0.0449968
0.0449435
0.0448895
0.0448349
0.0447796
0.0447236
0.044667
0.0446097
0.0445518
0.0444932
0.0444339
0.0443739
0.0443132
0.0442518
0.0441897
0.0236521
0.0236462
0.0236396
0.0236324
0.0236246
0.0236162
0.0236072
0.0235977
0.0235876
0.0235771
0.023566
0.0235544
0.0235424
0.02353
0.0235171
0.0235037
0.02349
0.0234759
0.0234614
0.0234466
0.0234314
0.0234158
0.0233999
0.0233837
0.0233671
0.0233503
0.0233331
0.0233157
0.0232979
0.0232799
0.0232615
0.0232429
0.023224
0.0232048
0.0231854
0.0231656
0.0231456
0.0231253
0.0231048
0.0230839
0.0230628
0.0230415
0.0230198
0.0229979
0.0229757
0.0229532
0.0229305
0.0229075
0.0228842
0.0228607
0.0228368
0.0228127
0.0227883
0.0227636
)
;

boundaryField
{
    inlet
    {
        type            fixedValue;
        value           nonuniform 0();
    }
    outlet
    {
        type            zeroGradient;
    }
    upperWall
    {
        type            kqRWallFunction;
        value           nonuniform List<scalar> 
54
(
0.0236521
0.0236462
0.0236396
0.0236324
0.0236246
0.0236162
0.0236072
0.0235977
0.0235876
0.0235771
0.023566
0.0235544
0.0235424
0.02353
0.0235171
0.0235037
0.02349
0.0234759
0.0234614
0.0234466
0.0234314
0.0234158
0.0233999
0.0233837
0.0233671
0.0233503
0.0233331
0.0233157
0.0232979
0.0232799
0.0232615
0.0232429
0.023224
0.0232048
0.0231854
0.0231656
0.0231456
0.0231253
0.0231048
0.0230839
0.0230628
0.0230415
0.0230198
0.0229979
0.0229757
0.0229532
0.0229305
0.0229075
0.0228842
0.0228607
0.0228368
0.0228127
0.0227883
0.0227636
)
;
    }
    lowerWall
    {
        type            kqRWallFunction;
        value           nonuniform List<scalar> 
57
(
0.0324601
0.0324178
0.0323778
0.0323399
0.032304
0.0322699
0.0322375
0.0322066
0.0321769
0.0321483
0.0321221
0.0320978
0.0320749
0.0320532
0.0320323
0.0320123
0.031993
0.0319743
0.0319561
0.0319385
0.0319213
0.0319046
0.0318882
0.0318721
0.0318564
0.031841
0.0318258
0.0318108
0.0317961
0.0317816
0.0317672
0.031753
0.031739
0.0317251