/*--------------------------------*- C++ -*----------------------------------*\
  =========                 |
  \\      /  F ield         | OpenFOAM: The Open Source CFD Toolbox
   \\    /   O peration     | Website:  https://openfoam.org
    \\  /    A nd           | Version:  6
     \\/     M anipulation  |
\*---------------------------------------------------------------------------*/
FoamFile
{
    version     2.0;
    format      ascii;
    class       volScalarField;
    location    "0.04";
    object      nut;
}
// * * * * * * * * * * * * * * * * * * * * * * * * * * * * * * * * * * * * * //

dimensions      [0 2 -1 0 0 0 0];

internalField   nonuniform List<scalar> 
3081
(
2.0649e-05
2.06136e-05
2.05791e-05
2.05452e-05
2.05121e-05
2.04795e-05
2.04475e-05
2.0416e-05
2.03849e-05
2.03539e-05
2.03236e-05
2.0294e-05
2.02648e-05
2.02359e-05
2.02073e-05
2.01789e-05
2.01506e-05
2.01224e-05
2.00942e-05
2.00662e-05
2.00381e-05
2.00101e-05
1.99821e-05
1.9954e-05
1.99259e-05
1.98978e-05
1.98696e-05
1.98413e-05
1.98129e-05
1.97845e-05
1.97559e-05
1.97272e-05
1.96985e-05
1.96696e-05
1.96405e-05
1.96114e-05
1.95821e-05
1.95526e-05
1.9523e-05
1.94933e-05
1.94633e-05
1.94332e-05
1.94029e-05
1.93725e-05
1.93418e-05
1.93109e-05
1.92799e-05
1.92486e-05
1.92171e-05
1.91854e-05
1.91535e-05
1.91214e-05
1.9089e-05
1.90564e-05
1.90235e-05
1.89904e-05
1.89571e-05
0.000159454
0.000159124
0.000158805
0.000158498
0.000158202
0.000157916
0.000157638
0.000157369
0.000157106
0.000156848
0.000156584
0.000156324
0.00015607
0.000155822
0.00015558
0.000155343
0.000155111
0.000154883
0.000154659
0.000154439
0.000154222
0.000154007
0.000153795
0.000153585
0.000153377
0.000153171
0.000152965
0.000152761
0.000152558
0.000152356
0.000152155
0.000151953
0.000151753
0.000151552
0.000151352
0.000151151
0.00015095
0.000150749
0.000150548
0.000150346
0.000150144
0.00014994
0.000149736
0.000149532
0.000149326
0.000149119
0.000148911
0.000148702
0.000148491
0.000148279
0.000148066
0.000147851
0.000147634
0.000147416
0.000147197
0.000146975
0.000146753
0.000291153
0.000290581
0.000290033
0.000289507
0.000289001
0.000288513
0.000288043
0.000287588
0.000287148
0.000286718
0.000286294
0.000285877
0.000285469
0.00028507
0.00028468
0.000284298
0.000283924
0.000283558
0.000283198
0.000282845
0.000282497
0.000282155
0.000281817
0.000281483
0.000281154
0.000280827
0.000280503
0.000280182
0.000279863
0.000279546
0.00027923
0.000278915
0.000278602
0.000278289
0.000277977
0.000277665
0.000277354
0.000277042
0.00027673
0.000276417
0.000276104
0.000275789
0.000275474
0.000275157
0.00027484
0.00027452
0.000274199
0.000273876
0.000273551
0.000273224
0.000272895
0.000272563
0.000272229
0.000271893
0.000271554
0.000271212
0.000270867
0.000394488
0.000393763
0.000393069
0.000392403
0.000391765
0.000391151
0.00039056
0.00038999
0.000389439
0.000388904
0.000388383
0.000387872
0.000387373
0.000386886
0.00038641
0.000385944
0.000385488
0.000385042
0.000384604
0.000384174
0.000383751
0.000383335
0.000382925
0.00038252
0.00038212
0.000381725
0.000381334
0.000380946
0.000380561
0.000380179
0.000379799
0.00037942
0.000379044
0.000378668
0.000378293
0.000377919
0.000377546
0.000377172
0.000376798
0.000376424
0.000376049
0.000375673
0.000375296
0.000374917
0.000374537
0.000374156
0.000373772
0.000373386
0.000372998
0.000372608
0.000372214
0.000371818
0.000371419
0.000371017
0.000370612
0.000370204
0.000369792
0.000477008
0.000476192
0.000475411
0.000474664
0.000473947
0.000473259
0.000472597
0.000471959
0.000471343
0.000470747
0.000470168
0.000469603
0.000469053
0.000468516
0.000467991
0.000467478
0.000466976
0.000466484
0.000466002
0.000465529
0.000465064
0.000464606
0.000464156
0.000463712
0.000463273
0.000462839
0.00046241
0.000461985
0.000461564
0.000461146
0.00046073
0.000460316
0.000459904
0.000459494
0.000459085
0.000458677
0.000458269
0.000457861
0.000457453
0.000457045
0.000456637
0.000456227
0.000455816
0.000455404
0.00045499
0.000454574
0.000454156
0.000453736
0.000453313
0.000452888
0.000452459
0.000452028
0.000451593
0.000451155
0.000450714
0.000450269
0.00044982
0.000544216
0.000543354
0.00054253
0.000541741
0.000540985
0.00054026
0.000539563
0.000538892
0.000538244
0.000537618
0.00053701
0.000536419
0.000535844
0.000535283
0.000534735
0.000534199
0.000533675
0.000533162
0.000532659
0.000532165
0.00053168
0.000531203
0.000530733
0.00053027
0.000529813
0.000529361
0.000528914
0.000528472
0.000528033
0.000527598
0.000527165
0.000526735
0.000526307
0.00052588
0.000525455
0.000525031
0.000524607
0.000524183
0.000523759
0.000523335
0.000522911
0.000522485
0.000522058
0.00052163
0.0005212
0.000520768
0.000520334
0.000519898
0.000519459
0.000519017
0.000518572
0.000518124
0.000517672
0.000517217
0.000516759
0.000516296
0.00051583
0.000598772
0.000597937
0.000597138
0.000596372
0.000595638
0.000594932
0.000594253
0.000593597
0.000592964
0.00059235
0.000591754
0.000591174
0.000590608
0.000590055
0.000589515
0.000588987
0.00058847
0.000587963
0.000587465
0.000586976
0.000586496
0.000586022
0.000585556
0.000585095
0.00058464
0.00058419
0.000583744
0.000583302
0.000582864
0.000582428
0.000581995
0.000581564
0.000581134
0.000580706
0.000580279
0.000579852
0.000579426
0.000578999
0.000578572
0.000578145
0.000577716
0.000577286
0.000576855
0.000576422
0.000575987
0.00057555
0.00057511
0.000574668
0.000574223
0.000573774
0.000573323
0.000572868
0.000572409
0.000571947
0.00057148
0.00057101
0.000644795
0.000643973
0.000643186
0.000642433
0.000641711
0.000641017
0.000640349
0.000639705
0.000639083
0.00063848
0.000637895
0.000637325
0.000636769
0.000636226
0.000635696
0.000635178
0.00063467
0.000634172
0.000633683
0.000633203
0.000632731
0.000632266
0.000631808
0.000631355
0.000630908
0.000630466
0.000630028
0.000629594
0.000629164
0.000628736
0.00062831
0.000627886
0.000627464
0.000627044
0.000626624
0.000626204
0.000625785
0.000625365
0.000624946
0.000624525
0.000624103
0.000623681
0.000623256
0.00062283
0.000622402
0.000621972
0.000621539
0.000621104
0.000620666
0.000620224
0.00061978
0.000619331
0.00061888
0.000618424
0.000617964
0.000617501
0.000682287
0.000681531
0.000680808
0.000680114
0.000679447
0.000678806
0.000678187
0.000677589
0.000677011
0.000676449
0.000675902
0.000675368
0.000674847
0.000674337
0.000673839
0.000673351
0.000672872
0.000672403
0.000671941
0.000671488
0.000671041
0.0006706
0.000670165
0.000669735
0.00066931
0.000668889
0.000668472
0.000668057
0.000667645
0.000667236
0.000666828
0.000666422
0.000666016
0.000665612
0.000665208
0.000664804
0.000664399
0.000663995
0.000663589
0.000663183
0.000662775
0.000662366
0.000661955
0.000661542
0.000661127
0.000660709
0.000660289
0.000659865
0.000659439
0.000659009
0.000658576
0.00065814
0.000657699
0.000657255
0.000656807
0.000714113
0.000713401
0.00071272
0.000712066
0.000711439
0.000710835
0.000710253
0.00070969
0.000709146
0.000708617
0.000708101
0.000707599
0.000707108
0.000706628
0.000706158
0.000705698
0.000705247
0.000704804
0.000704369
0.000703941
0.000703519
0.000703104
0.000702693
0.000702288
0.000701887
0.000701489
0.000701095
0.000700704
0.000700315
0.000699928
0.000699542
0.000699158
0.000698775
0.000698393
0.00069801
0.000697628
0.000697245
0.000696862
0.000696478
0.000696093
0.000695707
0.000695319
0.00069493
0.000694538
0.000694144
0.000693748
0.000693349
0.000692948
0.000692543
0.000692135
0.000691724
0.000691309
0.00069089
0.000690468
0.000690042
0.000740425
0.000739766
0.000739135
0.000738531
0.000737951
0.000737393
0.000736855
0.000736335
0.000735832
0.000735342
0.000734866
0.0007344
0.000733946
0.000733501
0.000733067
0.000732641
0.000732223
0.000731813
0.00073141
0.000731013
0.000730623
0.000730238
0.000729857
0.000729481
0.000729109
0.000728741
0.000728375
0.000728012
0.000727651
0.000727292
0.000726934
0.000726577
0.000726221
0.000725865
0.00072551
0.000725154
0.000724798
0.000724441
0.000724084
0.000723725
0.000723366
0.000723004
0.000722641
0.000722276
0.000721908
0.000721539
0.000721166
0.000720791
0.000720413
0.000720032
0.000719648
0.00071926
0.000718869
0.000718474
0.000718075
0.000762028
0.000761428
0.000760854
0.000760304
0.000759776
0.000759269
0.000758779
0.000758307
0.00075785
0.000757405
0.000756971
0.000756548
0.000756134
0.000755729
0.000755334
0.000754946
0.000754565
0.000754192
0.000753825
0.000753464
0.000753108
0.000752757
0.000752411
0.000752068
0.000751729
0.000751393
0.00075106
0.000750728
0.000750399
0.000750071
0.000749744
0.000749418
0.000749092
0.000748767
0.000748442
0.000748116
0.000747791
0.000747464
0.000747137
0.000746808
0.000746478
0.000746146
0.000745813
0.000745478
0.000745141
0.000744801
0.000744459
0.000744115
0.000743767
0.000743417
0.000743063
0.000742707
0.000742347
0.000741983
0.000741616
0.000741244
0.000779611
0.000779072
0.000778558
0.000778065
0.000777592
0.000777138
0.0007767
0.000776278
0.000775869
0.00077547
0.000775082
0.000774703
0.000774332
0.00077397
0.000773616
0.000773268
0.000772928
0.000772593
0.000772264
0.000771941
0.000771622
0.000771308
0.000770998
0.000770691
0.000770387
0.000770085
0.000769786
0.000769489
0.000769193
0.000768898
0.000768605
0.000768312
0.000768019
0.000767726
0.000767433
0.00076714
0.000766847
0.000766552
0.000766257
0.000765961
0.000765663
0.000765364
0.000765063
0.00076476
0.000764455
0.000764148
0.000763839
0.000763527
0.000763213
0.000762895
0.000762575
0.000762252
0.000761925
0.000761595
0.000761262
0.000760925
0.000793301
0.000792846
0.00079241
0.000791993
0.000791592
0.000791207
0.000790834
0.000790474
0.000790123
0.00078978
0.000789446
0.00078912
0.0007888
0.000788488
0.000788182
0.000787882
0.000787587
0.000787297
0.000787012
0.000786731
0.000786454
0.000786181
0.00078591
0.000785642
0.000785376
0.000785112
0.00078485
0.000784589
0.000784328
0.000784069
0.000783809
0.00078355
0.000783291
0.000783032
0.000782772
0.000782512
0.000782251
0.000781989
0.000781725
0.000781461
0.000781195
0.000780927
0.000780658
0.000780387
0.000780113
0.000779838
0.00077956
0.00077928
0.000778997
0.000778711
0.000778422
0.000778131
0.000777836
0.000777538
0.000777237
0.000804646
0.000804248
0.000803868
0.000803505
0.000803156
0.000802821
0.000802498
0.000802185
0.00080188
0.000801583
0.000801292
0.000801009
0.000800732
0.000800461
0.000800196
0.000799935
0.00079968
0.000799429
0.000799182
0.000798938
0.000798698
0.000798461
0.000798226
0.000797994
0.000797763
0.000797534
0.000797306
0.000797079
0.000796853
0.000796627
0.000796402
0.000796176
0.00079595
0.000795724
0.000795498
0.00079527
0.000795042
0.000794813
0.000794583
0.000794352
0.000794119
0.000793885
0.000793649
0.000793411
0.000793172
0.00079293
0.000792686
0.00079244
0.000792191
0.00079194
0.000791686
0.00079143
0.000791171
0.000790908
0.000790643
0.000813769
0.000813425
0.000813097
0.000812785
0.000812485
0.000812198
0.000811921
0.000811652
0.00081139
0.000811135
0.000810886
0.000810644
0.000810406
0.000810174
0.000809946
0.000809723
0.000809504
0.000809289
0.000809077
0.000808868
0.000808662
0.000808459
0.000808257
0.000808058
0.000807859
0.000807662
0.000807466
0.000807271
0.000807076
0.000806881
0.000806686
0.000806491
0.000806296
0.0008061
0.000805904
0.000805707
0.000805509
0.00080531
0.00080511
0.000804908
0.000804706
0.000804502
0.000804296
0.000804089
0.00080388
0.000803669
0.000803455
0.00080324
0.000803023
0.000802803
0.000802581
0.000802356
0.000802128
0.000801898
0.000801665
0.000820666
0.000820372
0.000820094
0.000819829
0.000819575
0.000819332
0.000819098
0.000818871
0.000818651
0.000818436
0.000818227
0.000818023
0.000817824
0.000817629
0.000817438
0.000817251
0.000817067
0.000816887
0.00081671
0.000816535
0.000816363
0.000816192
0.000816024
0.000815857
0.000815691
0.000815525
0.000815361
0.000815197
0.000815033
0.000814869
0.000814705
0.000814541
0.000814377
0.000814212
0.000814046
0.00081388
0.000813712
0.000813544
0.000813375
0.000813204
0.000813033
0.00081286
0.000812685
0.000812509
0.000812332
0.000812152
0.000811971
0.000811788
0.000811603
0.000811415
0.000811226
0.000811034
0.00081084
0.000810643
0.000810444
0.000825356
0.000825123
0.0008249
0.000824689
0.000824487
0.000824292
0.000824104
0.000823922
0.000823745
0.000823573
0.000823406
0.000823242
0.000823083
0.000822927
0.000822774
0.000822624
0.000822477
0.000822333
0.000822191
0.000822052
0.000821913
0.000821777
0.000821641
0.000821507
0.000821373
0.00082124
0.000821107
0.000820975
0.000820842
0.000820709
0.000820576
0.000820442
0.000820308
0.000820174
0.000820039
0.000819903
0.000819766
0.000819628
0.00081949
0.00081935
0.000819209
0.000819067
0.000818924
0.000818779
0.000818633
0.000818485
0.000818336
0.000818185
0.000818032
0.000817877
0.00081772
0.000817562
0.000817401
0.000817238
0.000828753
0.000828569
0.000828395
0.000828228
0.000828068
0.000827915
0.000827767
0.000827623
0.000827484
0.000827349
0.000827218
0.00082709
0.000826965
0.000826843
0.000826724
0.000826607
0.000826493
0.000826381
0.00082627
0.000826161
0.000826054
0.000825947
0.000825841
0.000825736
0.000825632
0.000825528
0.000825423
0.000825319
0.000825215
0.00082511
0.000825006
0.0008249
0.000824795
0.000824689
0.000824582
0.000824474
0.000824366
0.000824257
0.000824148
0.000824037
0.000823925
0.000823813
0.000823699
0.000823584
0.000823468
0.00082335
0.000823231
0.000823111
0.00082299
0.000822866
0.000822742
0.000822615
0.000822487
0.000831384
0.00083123
0.000831086
0.00083095
0.000830821
0.000830697
0.000830579
0.000830464
0.000830354
0.000830247
0.000830143
0.000830043
0.000829945
0.00082985
0.000829757
0.000829666
0.000829578
0.000829491
0.000829406
0.000829322
0.00082924
0.000829159
0.000829078
0.000828998
0.000828918
0.000828839
0.000828759
0.00082868
0.000828601
0.000828521
0.000828442
0.000828362
0.000828281
0.000828201
0.000828119
0.000828038
0.000827956
0.000827873
0.00082779
0.000827705
0.000827621
0.000827535
0.000827449
0.000827362
0.000827273
0.000827184
0.000827094
0.000827003
0.000826911
0.000826817
0.000826722
0.000826626
0.000826529
0.000833284
0.000833156
0.000833039
0.000832929
0.000832826
0.000832728
0.000832634
0.000832545
0.000832459
0.000832376
0.000832296
0.000832218
0.000832143
0.000832071
0.000832
0.000831931
0.000831865
0.0008318
0.000831736
0.000831674
0.000831613
0.000831553
0.000831493
0.000831434
0.000831376
0.000831317
0.000831259
0.000831201
0.000831143
0.000831084
0.000831026
0.000830967
0.000830908
0.000830849
0.000830789
0.000830729
0.000830669
0.000830609
0.000830548
0.000830486
0.000830424
0.000830362
0.000830298
0.000830235
0.00083017
0.000830105
0.000830039
0.000829973
0.000829906
0.000829837
0.000829768
0.000829698
0.000829627
0.000834646
0.000834541
0.000834445
0.000834358
0.000834277
0.000834201
0.000834129
0.000834061
0.000833995
0.000833932
0.000833872
0.000833814
0.000833758
0.000833704
0.000833652
0.000833602
0.000833553
0.000833506
0.00083346
0.000833416
0.000833372
0.00083333
0.000833288
0.000833246
0.000833205
0.000833164
0.000833123
0.000833082
0.000833041
0.000833
0.000832959
0.000832918
0.000832876
0.000832835
0.000832793
0.000832751
0.000832709
0.000832667
0.000832624
0.000832581
0.000832537
0.000832494
0.00083245
0.000832405
0.00083236
0.000832315
0.000832269
0.000832223
0.000832176
0.000832129
0.00083208
0.000832032
0.000831982
0.000835605
0.000835519
0.000835442
0.000835374
0.000835312
0.000835254
0.000835201
0.00083515
0.000835102
0.000835056
0.000835012
0.00083497
0.000834929
0.000834891
0.000834854
0.000834819
0.000834785
0.000834753
0.000834722
0.000834692
0.000834663
0.000834634
0.000834606
0.000834579
0.000834551
0.000834524
0.000834497
0.00083447
0.000834443
0.000834416
0.000834389
0.000834362
0.000834335
0.000834307
0.00083428
0.000834252
0.000834224
0.000834196
0.000834168
0.00083414
0.000834112
0.000834083
0.000834054
0.000834025
0.000833995
0.000833966
0.000833936
0.000833906
0.000833875
0.000833844
0.000833812
0.00083378
0.000833748
0.000836256
0.000836186
0.000836126
0.000836074
0.000836028
0.000835986
0.000835947
0.000835911
0.000835877
0.000835845
0.000835815
0.000835786
0.000835759
0.000835733
0.000835708
0.000835685
0.000835664
0.000835643
0.000835624
0.000835605
0.000835587
0.00083557
0.000835553
0.000835537
0.000835521
0.000835505
0.000835489
0.000835473
0.000835457
0.00083544
0.000835424
0.000835408
0.000835392
0.000835375
0.000835359
0.000835342
0.000835325
0.000835309
0.000835292
0.000835275
0.000835258
0.000835241
0.000835224
0.000835206
0.000835189
0.000835171
0.000835153
0.000835135
0.000835117
0.000835099
0.00083508
0.000835061
0.000835041
0.000836668
0.000836612
0.000836566
0.000836527
0.000836494
0.000836465
0.000836439
0.000836415
0.000836393
0.000836372
0.000836352
0.000836334
0.000836317
0.000836302
0.000836287
0.000836274
0.000836261
0.00083625
0.000836239
0.00083623
0.000836221
0.000836212
0.000836204
0.000836196
0.000836189
0.000836181
0.000836173
0.000836165
0.000836158
0.00083615
0.000836142
0.000836134
0.000836126
0.000836117
0.000836109
0.000836101
0.000836092
0.000836084
0.000836075
0.000836067
0.000836058
0.000836049
0.000836041
0.000836032
0.000836023
0.000836014
0.000836005
0.000835996
0.000835987
0.000835978
0.000835968
0.000835958
0.000835948
0.000836888
0.000836844
0.00083681
0.000836782
0.00083676
0.000836741
0.000836725
0.00083671
0.000836697
0.000836686
0.000836675
0.000836665
0.000836656
0.000836648
0.000836641
0.000836635
0.00083663
0.000836626
0.000836622
0.000836619
0.000836616
0.000836614
0.000836612
0.000836611
0.000836609
0.000836607
0.000836606
0.000836604
0.000836602
0.0008366
0.000836597
0.000836595
0.000836592
0.00083659
0.000836587
0.000836584
0.000836582
0.000836579
0.000836576
0.000836573
0.00083657
0.000836567
0.000836564
0.000836561
0.000836558
0.000836555
0.000836552
0.000836549
0.000836546
0.000836542
0.000836539
0.000836535
0.000836532
0.000836952
0.000836918
0.000836892
0.000836873
0.000836859
0.000836849
0.00083684
0.000836833
0.000836827
0.000836822
0.000836818
0.000836814
0.000836811
0.000836809
0.000836807
0.000836806
0.000836806
0.000836807
0.000836808
0.000836809
0.000836811
0.000836813
0.000836815
0.000836818
0.00083682
0.000836822
0.000836824
0.000836826
0.000836827
0.000836828
0.00083683
0.000836831
0.000836831
0.000836832
0.000836832
0.000836833
0.000836833
0.000836834
0.000836834
0.000836834
0.000836834
0.000836834
0.000836834
0.000836834
0.000836834
0.000836835
0.000836835
0.000836835
0.000836835
0.000836835
0.000836834
0.000836834
0.000836834
0.000836878
0.000836852
0.000836834
0.000836822
0.000836814
0.00083681
0.000836807
0.000836805
0.000836804
0.000836804
0.000836804
0.000836805
0.000836806
0.000836808
0.00083681
0.000836812
0.000836815
0.000836819
0.000836822
0.000836826
0.000836831
0.000836835
0.000836839
0.000836844
0.000836848
0.000836852
0.000836855
0.000836858
0.000836861
0.000836864
0.000836866
0.000836868
0.00083687
0.000836872
0.000836873
0.000836875
0.000836876
0.000836877
0.000836878
0.000836879
0.000836879
0.00083688
0.000836881
0.000836881
0.000836882
0.000836882
0.000836883
0.000836883
0.000836884
0.000836884
0.000836884
0.000836884
0.000836884
0.000836643
0.000836622
0.000836609
0.000836602
0.000836598
0.000836597
0.000836598
0.000836599
0.000836601
0.000836603
0.000836606
0.000836608
0.000836611
0.000836613
0.000836616
0.00083662
0.000836623
0.000836627
0.00083663
0.000836634
0.000836638
0.000836641
0.000836645
0.000836648
0.000836651
0.000836653
0.000836655
0.000836657
0.000836658
0.000836658
0.000836658
0.000836658
0.000836658
0.000836657
0.000836656
0.000836654
0.000836652
0.00083665
0.000836648
0.000836646
0.000836643
0.00083664
0.000836637
0.000836634
0.000836631
0.000836628
0.000836624
0.000836621
0.000836617
0.000836613
0.000836609
0.000836605
0.0008366
0.000836229
0.000836212
0.000836202
0.000836197
0.000836196
0.000836196
0.000836197
0.000836199
0.000836201
0.000836203
0.000836205
0.000836206
0.000836208
0.000836209
0.00083621
0.000836211
0.000836212
0.000836212
0.000836213
0.000836214
0.000836214
0.000836213
0.000836213
0.000836212
0.00083621
0.000836207
0.000836204
0.0008362
0.000836196
0.000836191
0.000836185
0.000836179
0.000836172
0.000836165
0.000836157
0.000836149
0.00083614
0.000836131
0.000836122
0.000836112
0.000836102
0.000836091
0.00083608
0.000836069
0.000836058
0.000836046
0.000836034
0.000836022
0.000836009
0.000835996
0.000835983
0.000835969
0.000835955
0.000835612
0.000835597
0.000835588
0.000835583
0.00083558
0.000835579
0.000835579
0.000835579
0.000835578
0.000835577
0.000835575
0.000835573
0.00083557
0.000835567
0.000835563
0.000835559
0.000835554
0.000835549
0.000835543
0.000835537
0.00083553
0.000835522
0.000835514
0.000835504
0.000835494
0.000835483
0.000835471
0.000835458
0.000835445
0.00083543
0.000835414
0.000835398
0.000835381
0.000835363
0.000835344
0.000835324
0.000835304
0.000835283
0.000835262
0.00083524
0.000835217
0.000835194
0.00083517
0.000835146
0.00083512
0.000835095
0.000835069
0.000835042
0.000835015
0.000834987
0.000834958
0.000834929
0.000834899
0.000834756
0.000834741
0.00083473
0.000834723
0.000834717
0.000834712
0.000834707
0.000834702
0.000834696
0.000834689
0.00083468
0.000834671
0.000834661
0.000834649
0.000834637
0.000834624
0.00083461
0.000834594
0.000834578
0.000834562
0.000834544
0.000834524
0.000834504
0.000834483
0.00083446
0.000834436
0.000834411
0.000834384
0.000834356
0.000834327
0.000834297
0.000834265
0.000834232
0.000834198
0.000834163
0.000834127
0.00083409
0.000834052
0.000834012
0.000833972
0.000833931
0.000833889
0.000833846
0.000833802
0.000833757
0.000833711
0.000833664
0.000833616
0.000833567
0.000833517
0.000833466
0.000833414
0.000833361
0.000833616
0.000833598
0.000833583
0.00083357
0.000833558
0.000833546
0.000833533
0.00083352
0.000833504
0.000833488
0.000833469
0.000833449
0.000833427
0.000833403
0.000833379
0.000833352
0.000833324
0.000833295
0.000833264
0.000833232
0.000833198
0.000833162
0.000833125
0.000833086
0.000833045
0.000833003
0.000832959
0.000832913
0.000832865
0.000832815
0.000832764
0.000832711
0.000832656
0.0008326
0.000832542
0.000832483
0.000832422
0.000832359
0.000832295
0.000832229
0.000832162
0.000832093
0.000832023
0.000831952
0.000831878
0.000831804
0.000831727
0.000831649
0.00083157
0.000831489
0.000831406
0.000831322
0.000831236
0.000832132
0.000832107
0.000832085
0.000832063
0.000832041
0.000832018
0.000831994
0.000831968
0.000831939
0.000831908
0.000831874
0.000831839
0.0008318
0.00083176
0.000831717
0.000831672
0.000831625
0.000831576
0.000831525
0.000831471
0.000831415
0.000831357
0.000831297
0.000831234
0.000831169
0.000831101
0.000831031
0.000830958
0.000830884
0.000830806
0.000830727
0.000830644
0.00083056
0.000830473
0.000830384
0.000830293
0.0008302
0.000830104
0.000830006
0.000829906
0.000829803
0.000829698
0.000829591
0.000829482
0.00082937
0.000829256
0.00082914
0.000829021
0.0008289
0.000828776
0.00082865
0.000828522
0.00082839
0.000830225
0.000830191
0.000830157
0.000830122
0.000830085
0.000830047
0.000830006
0.000829962
0.000829914
0.000829864
0.00082981
0.000829753
0.000829692
0.000829628
0.000829561
0.000829491
0.000829418
0.000829342
0.000829263
0.000829181
0.000829096
0.000829008
0.000828916
0.000828822
0.000828724
0.000828623
0.000828518
0.000828411
0.0008283
0.000828185
0.000828068
0.000827947
0.000827823
0.000827696
0.000827566
0.000827432
0.000827295
0.000827155
0.000827012
0.000826866
0.000826716
0.000826563
0.000826407
0.000826247
0.000826084
0.000825918
0.000825748
0.000825575
0.000825398
0.000825217
0.000825032
0.000824844
0.000824652
0.000827797
0.000827748
0.000827696
0.000827643
0.000827587
0.000827527
0.000827463
0.000827395
0.000827322
0.000827245
0.000827164
0.000827078
0.000826987
0.000826893
0.000826794
0.000826691
0.000826583
0.000826472
0.000826357
0.000826237
0.000826113
0.000825985
0.000825853
0.000825717
0.000825576
0.000825431
0.000825281
0.000825128
0.000824969
0.000824807
0.00082464
0.000824468
0.000824293
0.000824113
0.000823928
0.000823739
0.000823546
0.000823348
0.000823146
0.000822939
0.000822727
0.000822511
0.000822291
0.000822065
0.000821835
0.0008216
0.00082136
0.000821114
0.000820864
0.000820608
0.000820347
0.000820081
0.000819808
0.000824721
0.000824649
0.000824575
0.000824496
0.000824412
0.000824323
0.000824229
0.000824129
0.000824023
0.000823911
0.000823794
0.00082367
0.000823541
0.000823406
0.000823265
0.000823119
0.000822967
0.00082281
0.000822647
0.000822479
0.000822305
0.000822126
0.000821941
0.000821751
0.000821555
0.000821353
0.000821145
0.000820932
0.000820713
0.000820488
0.000820257
0.000820021
0.000819778
0.00081953
0.000819275
0.000819015
0.000818749
0.000818477
0.000818198
0.000817913
0.000817622
0.000817325
0.000817021
0.000816711
0.000816394
0.00081607
0.000815739
0.000815401
0.000815056
0.000814703
0.000814343
0.000813976
0.0008136
0.000820834
0.000820733
0.000820627
0.000820514
0.000820394
0.000820268
0.000820133
0.000819992
0.000819842
0.000819685
0.00081952
0.000819348
0.000819168
0.000818981
0.000818787
0.000818585
0.000818376
0.00081816
0.000817937
0.000817707
0.00081747
0.000817225
0.000816973
0.000816714
0.000816447
0.000816173
0.000815892
0.000815602
0.000815306
0.000815002
0.00081469
0.00081437
0.000814043
0.000813708
0.000813365
0.000813014
0.000812655
0.000812288
0.000811913
0.000811529
0.000811137
0.000810737
0.000810327
0.000809909
0.000809481
0.000809045
0.000808599
0.000808143
0.000807678
0.000807203
0.000806718
0.000806222
0.000805715
0.000816128
0.000815987
0.000815838
0.00081568
0.000815513
0.000815336
0.00081515
0.000814954
0.000814748
0.000814532
0.000814307
0.000814072
0.000813828
0.000813574
0.000813311
0.000813039
0.000812757
0.000812467
0.000812167
0.000811857
0.000811539
0.000811211
0.000810874
0.000810528
0.000810172
0.000809806
0.000809431
0.000809046
0.000808652
0.000808247
0.000807833
0.000807408
0.000806974
0.000806529
0.000806074
0.000805608
0.000805132
0.000804646
0.000804148
0.000803639
0.000803119
0.000802588
0.000802045
0.00080149
0.000800923
0.000800344
0.000799752
0.000799148
0.000798531
0.0007979
0.000797255
0.000796597
0.000795924
0.00081036
0.000810166
0.000809961
0.000809744
0.000809516
0.000809275
0.000809022
0.000808757
0.00080848
0.00080819
0.000807889
0.000807575
0.000807249
0.000806912
0.000806562
0.000806201
0.000805829
0.000805444
0.000805048
0.00080464
0.000804221
0.00080379
0.000803346
0.000802891
0.000802424
0.000801944
0.000801453
0.000800948
0.000800432
0.000799903
0.000799361
0.000798806
0.000798238
0.000797657
0.000797063
0.000796455
0.000795833
0.000795198
0.000794548
0.000793884
0.000793205
0.000792511
0.000791803
0.000791078
0.000790338
0.000789582
0.00078881
0.00078802
0.000787214
0.00078639
0.000785548
0.000784688
0.000783809
0.000802651
0.00080239
0.000802115
0.000801825
0.00080152
0.000801199
0.000800863
0.000800512
0.000800146
0.000799764
0.000799368
0.000798956
0.00079853
0.000798089
0.000797633
0.000797163
0.000796678
0.000796179
0.000795665
0.000795136
0.000794593
0.000794035
0.000793462
0.000792874
0.000792271
0.000791653
0.000791019
0.00079037
0.000789706
0.000789025
0.000788329
0.000787616
0.000786887
0.000786142
0.00078538
0.0007846
0.000783803
0.000782989
0.000782157
0.000781306
0.000780437
0.000779549
0.000778642
0.000777715
0.000776768
0.000775801
0.000774813
0.000773803
0.000772772
0.000771719
0.000770643
0.000769543
0.00076842
0.000792127
0.000791783
0.000791419
0.000791037
0.000790636
0.000790216
0.000789778
0.00078932
0.000788844
0.00078835
0.000787837
0.000787305
0.000786756
0.000786188
0.000785603
0.000785
0.000784379
0.00078374
0.000783083
0.000782408
0.000781716
0.000781005
0.000780276
0.000779529
0.000778763
0.000777979
0.000777176
0.000776354
0.000775513
0.000774652
0.000773772
0.000772872
0.000771952
0.000771012
0.000770051
0.000769069
0.000768066
0.000767041
0.000765994
0.000764925
0.000763833
0.000762717
0.000761578
0.000760415
0.000759227
0.000758014
0.000756775
0.00075551
0.000754218
0.000752899
0.000751553
0.000750177
0.000748772
0.000777649
0.000777205
0.000776738
0.000776247
0.000775735
0.000775199
0.00077464
0.000774059
0.000773456
0.000772831
0.000772184
0.000771515
0.000770824
0.000770112
0.000769378
0.000768623
0.000767847
0.00076705
0.000766231
0.000765391
0.00076453
0.000763648
0.000762744
0.000761818
0.000760871
0.000759901
0.00075891
0.000757896
0.000756859
0.0007558
0.000754717
0.000753611
0.000752481
0.000751328
0.00075015
0.000748947
0.000747719
0.000746466
0.000745186
0.00074388
0.000742548
0.000741188
0.0007398
0.000738383
0.000736938
0.000735463
0.000733958
0.000732422
0.000730854
0.000729255
0.000727622
0.000725956
0.000724256
0.000757574
0.000757025
0.000756448
0.000755845
0.000755215
0.000754558
0.000753875
0.000753166
0.000752431
0.000751671
0.000750885
0.000750075
0.00074924
0.00074838
0.000747496
0.000746587
0.000745654
0.000744698
0.000743717
0.000742712
0.000741683
0.00074063
0.000739553
0.000738451
0.000737325
0.000736174
0.000734998
0.000733798
0.000732572
0.00073132
0.000730043
0.00072874
0.00072741
0.000726053
0.00072467
0.000723259
0.00072182
0.000720353
0.000718856
0.000717331
0.000715776
0.00071419
0.000712574
0.000710927
0.000709247
0.000707535
0.000705789
0.00070401
0.000702196
0.000700346
0.000698461
0.000696539
0.000694579
0.000728884
0.000728237
0.000727559
0.000726851
0.000726113
0.000725346
0.000724549
0.000723723
0.000722869
0.000721987
0.000721077
0.00072014
0.000719176
0.000718185
0.000717168
0.000716124
0.000715054
0.000713959
0.000712838
0.000711691
0.000710518
0.00070932
0.000708096
0.000706846
0.00070557
0.000704268
0.000702941
0.000701587
0.000700206
0.000698799
0.000697365
0.000695903
0.000694415
0.000692898
0.000691353
0.00068978
0.000688178
0.000686547
0.000684886
0.000683195
0.000681473
0.000679721
0.000677936
0.000676119
0.00067427
0.000672387
0.000670471
0.000668519
0.000666533
0.000664511
0.000662452
0.000660355
0.00065822
0.00068639
0.000685681
0.000684939
0.000684165
0.000683359
0.000682522
0.000681654
0.000680757
0.00067983
0.000678875
0.000677891
0.000676879
0.00067584
0.000674774
0.000673681
0.000672561
0.000671416
0.000670245
0.000669048
0.000667826
0.000666578
0.000665305
0.000664007
0.000662684
0.000661336
0.000659963
0.000658564
0.000657141
0.000655692