/*--------------------------------*- C++ -*----------------------------------*\
  =========                 |
  \\      /  F ield         | OpenFOAM: The Open Source CFD Toolbox
   \\    /   O peration     | Website:  https://openfoam.org
    \\  /    A nd           | Version:  6
     \\/     M anipulation  |
\*---------------------------------------------------------------------------*/
FoamFile
{
    version     2.0;
    format      ascii;
    class       volScalarField;
    location    "0.04";
    object      p;
}
// * * * * * * * * * * * * * * * * * * * * * * * * * * * * * * * * * * * * * //

dimensions      [0 2 -2 0 0 0 0];

internalField   nonuniform List<scalar> 
3081
(
0.199629
0.19924
0.198864
0.1985
0.198148
0.197807
0.197478
0.197159
0.196852
0.196556
0.196269
0.19599
0.195717
0.195453
0.195197
0.194949
0.194708
0.194475
0.194249
0.194029
0.193816
0.193609
0.193407
0.19321
0.193018
0.19283
0.192646
0.192466
0.192289
0.192114
0.191943
0.191774
0.191606
0.191441
0.191278
0.191115
0.190954
0.190794
0.190635
0.190476
0.190317
0.190159
0.190001
0.189842
0.189684
0.189525
0.189365
0.189205
0.189045
0.188884
0.188722
0.18856
0.188397
0.188234
0.18807
0.187905
0.18774
0.199335
0.198967
0.198611
0.198265
0.19793
0.197606
0.197291
0.196986
0.196689
0.196402
0.196123
0.195854
0.195592
0.195337
0.19509
0.19485
0.194616
0.19439
0.194169
0.193955
0.193746
0.193544
0.193346
0.193153
0.192964
0.192779
0.192598
0.19242
0.192245
0.192073
0.191904
0.191736
0.191571
0.191407
0.191245
0.191084
0.190924
0.190765
0.190606
0.190448
0.19029
0.190133
0.189975
0.189817
0.189659
0.1895
0.189341
0.189182
0.189022
0.188861
0.188699
0.188538
0.188375
0.188212
0.188048
0.187884
0.18772
0.199026
0.198682
0.198347
0.198021
0.197704
0.197396
0.197097
0.196806
0.196523
0.196247
0.19598
0.195721
0.195469
0.195223
0.194984
0.194752
0.194525
0.194305
0.194091
0.193882
0.193679
0.193481
0.193287
0.193098
0.192913
0.192731
0.192553
0.192378
0.192206
0.192036
0.191869
0.191703
0.191539
0.191377
0.191216
0.191057
0.190898
0.19074
0.190582
0.190425
0.190268
0.190111
0.189954
0.189797
0.189639
0.189481
0.189323
0.189164
0.189004
0.188843
0.188682
0.188521
0.188358
0.188196
0.188032
0.187868
0.187704
0.198755
0.19843
0.198113
0.197804
0.197503
0.19721
0.196924
0.196646
0.196375
0.19611
0.195853
0.195602
0.195358
0.195121
0.194889
0.194664
0.194444
0.19423
0.194021
0.193818
0.193619
0.193425
0.193236
0.19305
0.192868
0.19269
0.192515
0.192343
0.192173
0.192005
0.19184
0.191676
0.191514
0.191353
0.191194
0.191035
0.190878
0.190721
0.190564
0.190408
0.190252
0.190096
0.189939
0.189783
0.189625
0.189468
0.18931
0.189151
0.188991
0.188831
0.188671
0.188509
0.188347
0.188185
0.188022
0.187858
0.187694
0.198511
0.198203
0.197902
0.197609
0.197322
0.197042
0.196768
0.196501
0.19624
0.195985
0.195737
0.195495
0.195258
0.195028
0.194803
0.194584
0.19437
0.194161
0.193958
0.193759
0.193565
0.193375
0.193189
0.193007
0.192828
0.192653
0.19248
0.19231
0.192143
0.191977
0.191813
0.191651
0.191491
0.191332
0.191174
0.191017
0.19086
0.190704
0.190549
0.190393
0.190238
0.190082
0.189926
0.18977
0.189614
0.189456
0.189299
0.18914
0.188981
0.188821
0.188661
0.1885
0.188338
0.188176
0.188013
0.187849
0.187685
0.198283
0.197991
0.197705
0.197425
0.197151
0.196882
0.19662
0.196363
0.196112
0.195867
0.195627
0.195393
0.195164
0.19494
0.194721
0.194508
0.1943
0.194096
0.193897
0.193703
0.193513
0.193327
0.193144
0.192966
0.19279
0.192617
0.192447
0.19228
0.192114
0.19195
0.191789
0.191628
0.191469
0.191312
0.191155
0.190999
0.190844
0.190689
0.190534
0.190379
0.190225
0.19007
0.189915
0.189759
0.189603
0.189446
0.189289
0.189131
0.188972
0.188813
0.188652
0.188492
0.18833
0.188168
0.188005
0.187842
0.187678
0.197788
0.197515
0.197248
0.196986
0.196729
0.196478
0.196231
0.195989
0.195752
0.19552
0.195294
0.195072
0.194855
0.194642
0.194435
0.194231
0.194033
0.193839
0.193649
0.193462
0.19328
0.193101
0.192926
0.192753
0.192583
0.192415
0.19225
0.192086
0.191925
0.191765
0.191606
0.191449
0.191292
0.191137
0.190982
0.190828
0.190674
0.19052
0.190366
0.190212
0.190058
0.189904
0.189749
0.189593
0.189437
0.18928
0.189122
0.188964
0.188805
0.188645
0.188484
0.188323
0.188161
0.187999
0.187835
0.187672
0.197593
0.197332
0.197077
0.196826
0.19658
0.196339
0.196101
0.195869
0.19564
0.195416
0.195197
0.194981
0.194771
0.194564
0.194362
0.194164
0.193971
0.193781
0.193595
0.193413
0.193234
0.193059
0.192886
0.192716
0.192549
0.192384
0.192221
0.192059
0.1919
0.191741
0.191584
0.191429
0.191274
0.191119
0.190966
0.190812
0.190659
0.190507
0.190354
0.1902
0.190047
0.189893
0.189739
0.189584
0.189428
0.189272
0.189114
0.188956
0.188797
0.188638
0.188478
0.188317
0.188155
0.187993
0.18783
0.187666
0.197154
0.19691
0.19667
0.196434
0.196202
0.195974
0.19575
0.195529
0.195313
0.195101
0.194892
0.194688
0.194487
0.194291
0.194098
0.193909
0.193724
0.193542
0.193364
0.193189
0.193017
0.192847
0.19268
0.192515
0.192353
0.192192
0.192033
0.191875
0.191718
0.191563
0.191409
0.191255
0.191102
0.19095
0.190798
0.190646
0.190494
0.190342
0.190189
0.190036
0.189883
0.189729
0.189575
0.18942
0.189264
0.189107
0.188949
0.188791
0.188632
0.188472
0.188311
0.18815
0.187987
0.187825
0.187661
0.196978
0.196745
0.196515
0.19629
0.196067
0.195848
0.195632
0.195419
0.195211
0.195005
0.194803
0.194605
0.19441
0.194219
0.194032
0.193847
0.193667
0.193489
0.193315
0.193143
0.192974
0.192808
0.192644
0.192482
0.192322
0.192163
0.192006
0.19185
0.191695
0.191542
0.191389
0.191237
0.191085
0.190934
0.190783
0.190632
0.190481
0.19033
0.190178
0.190026
0.189874
0.189721
0.189567
0.189412
0.189256
0.1891
0.188943
0.188785
0.188626
0.188466
0.188306
0.188145
0.187983
0.18782
0.187657
0.196804
0.196581
0.196362
0.196146
0.195932
0.195722
0.195514
0.19531
0.195108
0.19491
0.194714
0.194522
0.194333
0.194148
0.193965
0.193786
0.193609
0.193436
0.193265
0.193097
0.192932
0.192768
0.192607
0.192448
0.19229
0.192134
0.191979
0.191825
0.191672
0.19152
0.191369
0.191218
0.191068
0.190918
0.190768
0.190618
0.190468
0.190318
0.190167
0.190016
0.189864
0.189712
0.189558
0.189404
0.189249
0.189093
0.188937
0.188779
0.18862
0.188461
0.188301
0.18814
0.187978
0.187816
0.187653
0.19663
0.196418
0.196209
0.196002
0.195797
0.195596
0.195396
0.195199
0.195005
0.194813
0.194625
0.194439
0.194255
0.194075
0.193898
0.193723
0.193551
0.193382
0.193215
0.193051
0.192889
0.192729
0.19257
0.192413
0.192258
0.192104
0.191951
0.1918
0.191649
0.191499
0.191349
0.1912
0.191051
0.190902
0.190753
0.190605
0.190456
0.190306
0.190156
0.190006
0.189855
0.189703
0.189551
0.189397
0.189242
0.189087
0.188931
0.188774
0.188615
0.188456
0.188297
0.188136
0.187974
0.187812
0.187649
0.187485
0.196456
0.196254
0.196055
0.195857
0.195662
0.195469
0.195277
0.195088
0.194901
0.194716
0.194534
0.194354
0.194177
0.194002
0.193829
0.19366
0.193492
0.193327
0.193164
0.193004
0.192845
0.192688
0.192533
0.192379
0.192226
0.192074
0.191924
0.191774
0.191625
0.191477
0.191329
0.191181
0.191033
0.190886
0.190739
0.190591
0.190443
0.190295
0.190146
0.189996
0.189846
0.189695
0.189543
0.18939
0.189236
0.189081
0.188925
0.188768
0.188611
0.188452
0.188292
0.188132
0.187971
0.187808
0.187645
0.187482
0.196089
0.1959
0.195712
0.195525
0.19534
0.195157
0.194975
0.194796
0.194618
0.194442
0.194268
0.194097
0.193927
0.19376
0.193595
0.193432
0.193271
0.193112
0.192956
0.1928
0.192646
0.192494
0.192343
0.192193
0.192044
0.191895
0.191748
0.191601
0.191454
0.191308
0.191162
0.191016
0.19087
0.190723
0.190577
0.19043
0.190283
0.190135
0.189986
0.189837
0.189686
0.189535
0.189383
0.189229
0.189075
0.188919
0.188763
0.188606
0.188448
0.188288
0.188128
0.187967
0.187805
0.187642
0.187478
0.195923
0.195743
0.195564
0.195386
0.19521
0.195035
0.194861
0.194688
0.194517
0.194348
0.194181
0.194015
0.193851
0.193689
0.193529
0.193371
0.193214
0.193059
0.192906
0.192754
0.192604
0.192455
0.192306
0.192159
0.192012
0.191866
0.191721
0.191576
0.191431
0.191287
0.191142
0.190998
0.190853
0.190708
0.190563
0.190417
0.190271
0.190124
0.189976
0.189827
0.189678
0.189527
0.189375
0.189223
0.189069
0.188914
0.188758
0.188601
0.188443
0.188285
0.188125
0.187964
0.187802
0.187639
0.187475
0.195749
0.195579
0.19541
0.195241
0.195074
0.194907
0.194741
0.194576
0.194412
0.19425
0.194089
0.193929
0.193771
0.193614
0.193459
0.193306
0.193154
0.193004
0.192854
0.192706
0.192559
0.192413
0.192268
0.192124
0.191979
0.191836
0.191693
0.19155
0.191407
0.191264
0.191122
0.190979
0.190836
0.190692
0.190548
0.190403
0.190258
0.190112
0.189965
0.189818
0.189669
0.189519
0.189368
0.189216
0.189063
0.188908
0.188753
0.188597
0.188439
0.188281
0.188121
0.187961
0.187799
0.187636
0.187473
0.195575
0.195415
0.195255
0.195096
0.194937
0.194778
0.19462
0.194463
0.194306
0.194151
0.193996
0.193843
0.19369
0.193539
0.193389
0.193241
0.193093
0.192947
0.192802
0.192658
0.192514
0.192371
0.192229
0.192088
0.191946
0.191805
0.191664
0.191524
0.191383
0.191242
0.191101
0.19096
0.190818
0.190676
0.190533
0.19039
0.190246
0.190101
0.189955
0.189808
0.18966
0.189511
0.189361
0.189209
0.189057
0.188903
0.188748
0.188592
0.188435
0.188277
0.188118
0.187957
0.187796
0.187634
0.18747
0.195261
0.19511
0.194959
0.194808
0.194657
0.194507
0.194356
0.194207
0.194057
0.193909
0.193761
0.193614
0.193468
0.193323
0.193179
0.193036
0.192894
0.192752
0.192611
0.192471
0.192332
0.192192
0.192053
0.191914
0.191776
0.191637
0.191498
0.191359
0.19122
0.191081
0.190941
0.190801
0.19066
0.190519
0.190377
0.190234
0.19009
0.189945
0.189799
0.189652
0.189503
0.189354
0.189203
0.189051
0.188898
0.188743
0.188588
0.188431
0.188273
0.188115
0.187955
0.187793
0.187631
0.187467
0.194973
0.19483
0.194687
0.194543
0.194399
0.194256
0.194112
0.193969
0.193826
0.193684
0.193542
0.1934
0.19326
0.19312
0.192981
0.192843
0.192705
0.192568
0.19243
0.192294
0.192157
0.192021
0.191884
0.191748
0.191611
0.191474
0.191337
0.1912
0.191062
0.190924
0.190785
0.190645
0.190505
0.190364
0.190222
0.190079
0.189935
0.18979
0.189643
0.189496
0.189347
0.189197
0.189045
0.188893
0.188739
0.188584
0.188428
0.18827
0.188112
0.187952
0.187791
0.187629
0.187465
0.194844
0.194709
0.194572
0.194436
0.194298
0.194161
0.194023
0.193886
0.193748
0.19361
0.193473
0.193336
0.1932
0.193065
0.192929
0.192795
0.19266
0.192526
0.192392
0.192258
0.192124
0.191989
0.191855
0.191721
0.191586
0.191451
0.191316
0.19118
0.191044
0.190907
0.190769
0.190631
0.190492
0.190352
0.190211
0.190069
0.189926
0.189781
0.189636
0.189489
0.189341
0.189191
0.18904
0.188888
0.188735
0.18858
0.188424
0.188267
0.188109
0.187949
0.187789
0.187626
0.187463
0.194723
0.194594
0.194464
0.194334
0.194203
0.194071
0.193939
0.193807
0.193674
0.193541
0.193408
0.193276
0.193144
0.193012
0.19288
0.192749
0.192617
0.192486
0.192355
0.192223
0.192091
0.19196
0.191828
0.191695
0.191562
0.191429
0.191295
0.191161
0.191026
0.190891
0.190754
0.190617
0.190479
0.19034
0.1902
0.190059
0.189917
0.189773
0.189628
0.189482
0.189334
0.189185
0.189035
0.188884
0.188731
0.188576
0.188421
0.188264
0.188106
0.187947
0.187786
0.187624
0.187461
0.194608
0.194486
0.194362
0.194238
0.194113
0.193986
0.193859
0.193732
0.193604
0.193475
0.193347
0.193218
0.19309
0.192962
0.192833
0.192705
0.192577
0.192448
0.192319
0.19219
0.192061
0.191931
0.191801
0.191671
0.19154
0.191408
0.191276
0.191143
0.191009
0.190875
0.19074
0.190604
0.190467
0.190329
0.19019
0.19005
0.189908
0.189765
0.189621
0.189475
0.189328
0.18918
0.18903
0.188879
0.188727
0.188573
0.188418
0.188261
0.188104
0.187945
0.187784
0.187622
0.187459
0.1945
0.194384
0.194266
0.194147
0.194027
0.193906
0.193784
0.193661
0.193537
0.193413
0.193288
0.193164
0.193039
0.192914
0.192789
0.192664
0.192538
0.192412
0.192286
0.192159
0.192032
0.191904
0.191776
0.191647
0.191518
0.191388
0.191257
0.191126
0.190993
0.19086
0.190726
0.190591
0.190455
0.190318
0.19018
0.190041
0.1899
0.189758
0.189614
0.189469
0.189323
0.189175
0.189026
0.188875
0.188723
0.18857
0.188415
0.188259
0.188101
0.187942
0.187782
0.187621
0.187458
0.194398
0.194288
0.194175
0.194062
0.193947
0.19383
0.193713
0.193594
0.193474
0.193354
0.193233
0.193112
0.192991
0.192869
0.192747
0.192624
0.192501
0.192378
0.192254
0.192129
0.192004
0.191878
0.191752
0.191625
0.191497
0.191368
0.191239
0.191109
0.190978
0.190846
0.190713
0.190579
0.190444
0.190308
0.190171
0.190032
0.189892
0.18975
0.189607
0.189463
0.189317
0.18917
0.189021
0.188871
0.188719
0.188566
0.188412
0.188256
0.188099
0.18794
0.18778
0.187619
0.187456
0.194302
0.194197
0.19409
0.193981
0.193871
0.193759
0.193645
0.19353
0.193415
0.193298
0.193181
0.193063
0.192945
0.192826
0.192707
0.192587
0.192466
0.192345
0.192223
0.192101
0.191977
0.191853
0.191729
0.191603
0.191477
0.19135
0.191222
0.191093
0.190963
0.190832
0.1907
0.190567
0.190433
0.190298
0.190161
0.190024
0.189884
0.189743
0.189601
0.189457
0.189312
0.189165
0.189017
0.188867
0.188716
0.188563
0.188409
0.188254
0.188097
0.187939
0.187779
0.187618
0.187455
0.194213
0.194113
0.194011
0.193906
0.1938
0.193692
0.193582
0.193471
0.193359
0.193246
0.193132
0.193017
0.192902
0.192786
0.192669
0.192552
0.192433
0.192314
0.192194
0.192074
0.191952
0.19183
0.191707
0.191583
0.191458
0.191332
0.191206
0.191078
0.190949
0.190819
0.190688
0.190556
0.190423
0.190289
0.190153
0.190016
0.189877
0.189737
0.189595
0.189452
0.189307
0.189161
0.189013
0.188864
0.188713
0.188561
0.188407
0.188252
0.188095
0.187937
0.187777
0.187616
0.187453
0.19413
0.194034
0.193935
0.193835
0.193733
0.193629
0.193522
0.193415
0.193306
0.193196
0.193085
0.192973
0.192861
0.192747
0.192633
0.192518
0.192402
0.192285
0.192167
0.192048
0.191928
0.191808
0.191686
0.191563
0.19144
0.191315
0.19119
0.191063
0.190936
0.190807
0.190677
0.190546
0.190413
0.19028
0.190145
0.190008
0.18987
0.189731
0.189589
0.189447
0.189302
0.189157
0.189009
0.18886
0.18871
0.188558
0.188404
0.18825
0.188093
0.187935
0.187776
0.187615
0.187452
0.194043
0.193951
0.193857
0.193761
0.193663
0.193562
0.19346
0.193356
0.19325
0.193143
0.193036
0.192927
0.192817
0.192706
0.192595
0.192482
0.192368
0.192253
0.192137
0.19202
0.191902
0.191783
0.191663
0.191542
0.19142
0.191297
0.191173
0.191047
0.190921
0.190793
0.190664
0.190534
0.190403
0.19027
0.190136
0.19
0.189863
0.189724
0.189583
0.189441
0.189297
0.189152
0.189005
0.188856
0.188706
0.188555
0.188402
0.188247
0.188091
0.187933
0.187774
0.187613
0.187451
0.193949
0.193862
0.193773
0.193681
0.193586
0.19349
0.193391
0.193291
0.193189
0.193086
0.192982
0.192876
0.192769
0.192661
0.192552
0.192442
0.192331
0.192218
0.192104
0.19199
0.191874
0.191757
0.191638
0.191519
0.191398
0.191277
0.191154
0.19103
0.190905
0.190778
0.19065
0.190521
0.190391
0.190259
0.190126
0.189991
0.189854
0.189716
0.189576
0.189434
0.189291
0.189146
0.189
0.188852
0.188702
0.188551
0.188398
0.188244
0.188088
0.187931
0.187772
0.187611
0.187449
0.193851
0.193769
0.193684
0.193597
0.193507
0.193414
0.19332
0.193223
0.193125
0.193026
0.192925
0.192823
0.192719
0.192614
0.192508
0.192401
0.192292
0.192182
0.19207
0.191958
0.191844
0.191729
0.191612
0.191495
0.191376
0.191256
0.191134
0.191012
0.190888
0.190763
0.190636
0.190508
0.190379
0.190248
0.190115
0.189981
0.189845
0.189708
0.189568
0.189428
0.189285
0.189141
0.188995
0.188847
0.188698
0.188547
0.188395
0.188241
0.188086
0.187929
0.18777
0.187609
0.187447
0.19375
0.193673
0.193593
0.19351
0.193424
0.193336
0.193246
0.193154
0.19306
0.192964
0.192867
0.192768
0.192668
0.192566
0.192463
0.192358
0.192252
0.192144
0.192035
0.191925
0.191813
0.1917
0.191586
0.19147
0.191353
0.191234
0.191115
0.190994
0.190871
0.190747
0.190622
0.190495
0.190367
0.190237
0.190105
0.189972
0.189837
0.1897
0.189561
0.189421
0.189279
0.189135
0.18899
0.188843
0.188694
0.188544
0.188392
0.188238
0.188083
0.187926
0.187768
0.187608
0.187446
0.193646
0.193574
0.193499
0.193421
0.19334
0.193256
0.19317
0.193082
0.192992
0.1929
0.192807
0.192712
0.192615
0.192516
0.192416
0.192314
0.192211
0.192106
0.191999
0.191891
0.191782
0.191671
0.191559
0.191445
0.191329
0.191213
0.191095
0.190975
0.190854
0.190731
0.190607
0.190482
0.190354
0.190225
0.190094
0.189962
0.189828
0.189692
0.189554
0.189414
0.189273
0.18913
0.188985
0.188838
0.18869
0.18854
0.188388
0.188235
0.18808
0.187924
0.187766
0.187606
0.187444
0.193539
0.193472
0.193402
0.193329
0.193252
0.193173
0.193092
0.193008
0.192923
0.192835
0.192745
0.192654
0.19256
0.192465
0.192368
0.192269
0.192169
0.192066
0.191963
0.191857
0.19175
0.191641
0.191531
0.191419
0.191306
0.191191
0.191074
0.190956
0.190836
0.190715
0.190592
0.190468
0.190342
0.190214
0.190084
0.189952
0.189819
0.189684
0.189546
0.189407
0.189267
0.189124
0.18898
0.188834
0.188686
0.188536
0.188385
0.188232
0.188078
0.187921
0.187764
0.187604
0.187443
0.193428
0.193366
0.193302
0.193234
0.193162
0.193088
0.193011
0.192932
0.192851
0.192767
0.192681
0.192594
0.192504
0.192412
0.192318
0.192223
0.192125
0.192026
0.191925
0.191822
0.191717
0.191611
0.191502
0.191393
0.191281
0.191168
0.191053
0.190937
0.190819
0.190699
0.190577
0.190454
0.190329
0.190202
0.190073
0.189942
0.18981
0.189675
0.189539
0.1894
0.18926
0.189118
0.188974
0.188829
0.188681
0.188532
0.188382
0.188229
0.188075
0.187919
0.187761
0.187602
0.187441
0.193313
0.193258
0.193198
0.193136
0.19307
0.193
0.192929
0.192854
0.192777
0.192698
0.192616
0.192532
0.192446
0.192358
0.192268
0.192175
0.192081
0.191984
0.191886
0.191786
0.191683
0.191579
0.191473
0.191366
0.191256
0.191145
0.191032
0.190917
0.190801
0.190682
0.190562
0.19044
0.190316
0.19019
0.190062
0.189933
0.189801
0.189667
0.189531
0.189393
0.189254
0.189112
0.188969
0.188824
0.188677
0.188529
0.188378
0.188226
0.188072
0.187917
0.187759
0.1876
0.18744
0.193195
0.193146
0.193092
0.193035
0.192974
0.19291
0.192843
0.192774
0.192701
0.192626
0.192549
0.192469
0.192387
0.192302
0.192215
0.192126
0.192035
0.191942
0.191846
0.191749
0.191649
0.191547
0.191444
0.191338
0.191231
0.191122
0.19101
0.190897
0.190783
0.190666
0.190547
0.190426
0.190303
0.190178
0.190051
0.189922
0.189791
0.189658
0.189523
0.189386
0.189247
0.189107
0.188964
0.188819
0.188673
0.188525
0.188375
0.188223
0.188069
0.187914
0.187757
0.187598
0.187438
0.193073
0.19303
0.192983
0.192931
0.192876
0.192817
0.192756
0.192691
0.192623
0.192553
0.19248
0.192404
0.192326
0.192245
0.192162
0.192076
0.191988
0.191898
0.191806
0.191711
0.191614
0.191515
0.191414
0.19131
0.191205
0.191098
0.190989
0.190877
0.190764
0.190649
0.190531
0.190412
0.19029
0.190166
0.19004
0.189912
0.189782
0.18965
0.189515
0.189379
0.189241
0.189101
0.188958
0.188814
0.188668
0.188521
0.188371
0.18822
0.188066
0.187911
0.187755
0.187596
0.187436
0.192948
0.192912
0.19287
0.192825
0.192775
0.192722
0.192666
0.192606
0.192544
0.192478
0.19241
0.192338
0.192264
0.192187
0.192108
0.192026
0.191941
0.191854
0.191764
0.191673
0.191578
0.191482
0.191383
0.191282
0.191179
0.191074
0.190966
0.190857
0.190745
0.190632
0.190515
0.190397
0.190277
0.190154
0.190029
0.189902
0.189773
0.189641
0.189508
0.189372
0.189234
0.189095
0.188953
0.188809
0.188664
0.188516
0.188367
0.188216
0.188063
0.187909
0.187753
0.187595
0.187435
0.192826
0.192795
0.19276
0.19272
0.192676
0.192629
0.192578
0.192523
0.192466
0.192405
0.192341
0.192273
0.192203
0.19213
0.192054
0.191976
0.191894
0.191811
0.191724
0.191635
0.191544
0.19145
0.191353
0.191255
0.191154
0.191051
0.190945
0.190837
0.190727
0.190615
0.1905
0.190383
0.190264
0.190142
0.190018
0.189892
0.189763
0.189633
0.1895
0.189365
0.189228
0.189089
0.188948
0.188804
0.188659
0.188513
0.188364
0.188213
0.188061
0.187906
0.18775
0.187593
0.187433
0.192701
0.192677
0.192648
0.192614
0.192576
0.192534
0.192489
0.192439
0.192387
0.19233
0.192271
0.192208
0.192142
0.192073
0.192001
0.191926
0.191848
0.191767
0.191684
0.191598
0.191509
0.191418
0.191324
0.191227
0.191129
0.191027
0.190924
0.190818
0.190709
0.190598
0.190485
0.190369
0.190251
0.19013
0.190007
0.189882
0.189754
0.189624
0.189492
0.189358
0.189221
0.189083
0.188942
0.1888
0.188655
0.188509
0.18836
0.18821
0.188058
0.187904
0.187748
0.187591
0.187432
0.192563
0.192546
0.192524
0.192498
0.192466
0.192431
0.192391
0.192348
0.192301
0.19225
0.192195
0.192137
0.192076
0.192011
0.191943
0.191872
0.191797
0.19172
0.19164
0.191557
0.191472
0.191383
0.191292
0.191198
0.191102
0.191003
0.190901
0.190797
0.19069
0.190581
0.190469
0.190354
0.190238
0.190118
0.189996
0.189872
0.189745
0.189616
0.189484
0.189351
0.189215
0.189077
0.188937
0.188795
0.188651
0.188505
0.188357
0.188207
0.188055
0.187902
0.187746
0.187589
0.18743
0.19241
0.192401
0.192388
0.192369
0.192345
0.192317
0.192284
0.192247
0.192206
0.192161
0.192112
0.19206
0.192003
0.191943
0.19188
0.191813
0.191743
0.19167
0.191594
0.191514
0.191432
0.191346
0.191258
0.191167
0.191073
0.190976
0.190877
0.190775
0.19067
0.190562
0.190452
0.190339
0.190223
0.190105
0.189984
0.189861
0.189735
0.189607
0.189476
0.189343
0.189208
0.189071
0.188931
0.18879
0.188646
0.188501
0.188353
0.188204
0.188053
0.187899
0.187744
0.187588
0.187429
0.192242
0.192243
0.192239
0.192229
0.192213
0.192193
0.192168
0.192139
0.192105
0.192066
0.192024
0.191977
0.191926
0.191872
0.191813
0.191751
0.191686
0.191617
0.191545
0.191469
0.19139
0.191308
0.191223
0.191135
0.191044
0.190949
0.190852
0.190752
0.190649
0.190543
0.190435
0.190323
0.190209
0.190092
0.189972
0.18985
0.189725
0.189598
0.189468
0.189336
0.189202
0.189065
0.188926
0.188785
0.188642
0.188497
0.18835
0.188201
0.18805
0.187898
0.187743
0.187587
0.187428
0.19206
0.192072
0.192078
0.192078
0.192072
0.192061
0.192045
0.192023
0.191997
0.191966
0.19193
0.19189
0.191846
0.191797
0.191744
0.191687
0.191627
0.191562
0.191494
0.191423
0.191348
0.191269
0.191187
0.191102
0.191014
0.190922
0.190828
0.19073
0.190629
0.190525
0.190418
0.190308
0.190195
0.19008
0.189961
0.18984
0.189716
0.18959
0.189461
0.18933
0.189196
0.18906
0.188922
0.188781
0.188639
0.188494
0.188348
0.188199
0.188049
0.187896
0.187742
0.187586
0.187428
0.19186
0.191885
0.191903
0.191915
0.19192
0.191919
0.191912
0.1919
0.191882
0.191859
0.191831
0.191798
0.191761
0.191718
0.191671
0.19162
0.191565
0.191506
0.191442
0.191375
0.191304
0.191229
0.191151
0.191069
0.190984
0.190895
0.190803
0.190708
0.190609
0.190507
0.190402
0.190293
0.190182
0.190068
0.18995
0.18983
0.189708
0.189582
0.189454
0.189324
0.189191
0.189056
0.188918
0.188778
0.188636
0.188492
0.188346
0.188198
0.188048
0.187896
0.187742
0.187586
0.187429
0.191642
0.191681
0.191713
0.191737
0.191754
0.191765
0.191769
0.191767
0.191759
0.191745
0.191726
0.191701
0.191671
0.191635
0.191595
0.19155
0.191501
0.191447
0.191388
0.191326
0.191259
0.191189
0.191114
0.191036
0.190954
0.190868
0.190778
0.190685
0.190589
0.190489
0.190386
0.190279
0.190169
0.190056
0.18994
0.189822
0.1897
0.189576
0.189448
0.189319
0.189187
0.189052
0.188915
0.188776
0.188634
0.188491
0.188345
0.188197
0.188047
0.187896
0.187742
0.187586
0.187429
0.191441
0.191494
0.191539
0.191575
0.191604
0.191626
0.19164
0.191648
0.191649
0.191643
0.191631
0.191614
0.191591
0.191562
0.191528
0.191488
0.191444
0.191395
0.191341
0.191283
0.19122
0.191153
0.191082
0.191007
0.190928
0.190844
0.190757
0.190666
0.190572
0.190474
0.190372
0.190267
0.190158
0.190047
0.189932
0.189814
0.189693
0.18957
0.189443
0.189314
0.189183
0.189049
0.188912
0.188773
0.188632
0.188489
0.188344
0.188196
0.188046
0.187895
0.187741
0.187586
0.187429
0.191285
0.191349
0.191404
0.19145
0.191488
0.191518
0.19154
0.191555
0.191563
0.191565
0.191559
0.191548
0.19153
0.191506
0.191476
0.191442
0.191401
0.191356
0.191306
0.191251
0.191191
0.191127
0.191058
0.190986
0.190909
0.190827
0.190742
0.190653
0.19056
0.190463
0.190362
0.190258
0.190151
0.19004
0.189926
0.189809
0.189689
0.189566
0.18944
0.189312
0.18918
0.189047
0.188911
0.188772
0.188631
0.188488
0.188343
0.188196
0.188046
0.187895
0.187741
0.187586
0.187429
0.191151
0.191224
0.191288
0.191343
0.191389
0.191427
0.191456
0.191478
0.191492
0.191499
0.191499
0.191492
0.191479
0.19146
0.191434
0.191403
0.191366
0.191324
0.191277
0.191225
0.191168
0.191106
0.191039
0.190969
0.190893
0.190814
0.19073
0.190642
0.19055
0.190455
0.190355
0.190252
0.190145
0.190035
0.189922
0.189805
0.189686
0.189563
0.189438
0.18931
0.189179
0.189046
0.18891
0.188771
0.188631
0.188488
0.188343
0.188196
0.188046
0.187895
0.187742
0.187586
0.18743
0.187271
0.191034
0.191117
0.191189
0.191251
0.191304
0.191348
0.191384
0.191411
0.191431
0.191443
0.191448
0.191445
0.191436
0.191421
0.191399
0.191371
0.191337
0.191298
0.191253
0.191203
0.191148
0.191088
0.191024
0.190955
0.190881
0.190803
0.19072
0.190634
0.190543
0.190448
0.190349
0.190247
0.190141
0.190032
0.189919
0.189803
0.189684
0.189561
0.189436
0.189308
0.189178
0.189045
0.188909
0.188771
0.18863
0.188488
0.188343
0.188195
0.188046
0.187895
0.187742
0.187586
0.18743
0.187271
0.190932
0.191022
0.191101
0.19117
0.19123
0.19128
0.191321
0.191354
0.191378
0.191395
0.191403
0.191405
0.1914
0.191387
0.191368
0.191343
0.191312
0.191275
0.191233
0.191185
0.191132
0.191074
0.191011
0.190943
0.190871
0.190794
0.190712
0.190627
0.190537
0.190443
0.190345
0.190243
0.190137
0.190028
0.189916
0.1898
0.189682
0.18956
0.189435
0.189307
0.189177
0.189044
0.188909
0.188771
0.18863
0.188487
0.188342
0.188195
0.188046
0.187895
0.187741
0.187586
0.187429
0.187271
0.190841
0.190938
0.191024
0.191099
0.191164
0.19122
0.191266
0.191303
0.191332
0.191352
0.191365
0.19137
0.191368
0.191358
0.191342
0.19132
0.191291
0.191256
0.191215
0.191169
0.191118
0.191061
0.191
0.190933
0.190862
0.190786
0.190705
0.19062
0.190531
0.190438
0.190341
0.190239
0.190134
0.190026
0.189914
0.189799
0.18968
0.189558
0.189434
0.189306
0.189176
0.189043
0.188908
0.18877
0.18863
0.188487
0.188342
0.188195
0.188046
0.187894
0.187741
0.187586
0.187429
0.18727
0.190758
0.190862
0.190954
0.191035
0.191105
0.191165
0.191216
0.191258
0.19129
0.191314
0.19133
0.191339
0.191339
0.191333
0.191319
0.191299
0.191272
0.191239
0.1912
0.191155
0.191105
0.19105
0.19099
0.190924
0.190854
0.190779
0.190699
0.190615
0.190527
0.190434
0.190337
0.190236
0.190132
0.190023
0.189912
0.189797
0.189678
0.189557
0.189433
0.189305
0.189175
0.189042
0.188907
0.188769
0.188629
0.188486
0.188341
0.188194
0.188045
0.187893
0.18774
0.187585
0.187428
0.187269
0.190682
0.190792
0.190889
0.190975
0.191051
0.191116
0.191171
0.191216
0.191252
0.19128
0.191299
0.19131
0.191313
0.191309
0.191298
0.191279
0.191254
0.191223
0.191186
0.191143
0.191094
0.19104
0.190981
0.190916
0.190847
0.190772
0.190693
0.19061
0.190522
0.19043
0.190333
0.190233
0.190129
0.190021
0.189909
0.189795
0.189677
0.189555
0.189431
0.189304
0.189174
0.189041
0.188906
0.188768
0.188628
0.188485
0.18834
0.188193
0.188043
0.187892
0.187739
0.187583
0.187426
0.187267
0.190611
0.190726
0.190829
0.190921
0.191001
0.19107
0.191129
0.191178
0.191218
0.191248
0.19127
0.191284
0.19129
0.191288
0.191278
0.191262
0.191239
0.191209
0.191173
0.191131
0.191084
0.191031
0.190972
0.190909
0.19084
0.190766
0.190688
0.190605
0.190518
0.190426
0.19033
0.19023
0.190126
0.190018
0.189907
0.189793
0.189675
0.189554
0.18943
0.189302
0.189172
0.18904
0.188904
0.188767
0.188626
0.188484
0.188339
0.188191
0.188042
0.187891
0.187737
0.187582
0.187425
0.187266
0.190552
0.190673
0.190781
0.190876
0.19096
0.191033
0.191096
0.191148
0.191191
0.191224
0.191249
0.191264
0.191272
0.191272
0.191264
0.19125
0.191228
0.191199
0.191165
0.191124
0.191077
0.191025
0.190968
0.190905
0.190837
0.190764
0.190686
0.190603
0.190516
0.190425
0.190329
0.19023
0.190126
0.190019
0.189908
0.189793
0.189675
0.189554
0.18943
0.189303
0.189173
0.189041
0.188906
0.188768
0.188627
0.188485
0.18834
0.188192
0.188043
0.187891
0.187738
0.187583
0.187425
0.187266
0.190519
0.190643
0.190754
0.190852
0.190939
0.191014
0.191079
0.191133
0.191177
0.191212
0.191238
0.191256
0.191265
0.191266
0.191259
0.191245
0.191224
0.191197
0.191163
0.191123
0.191077
0.191025
0.190968
0.190906
0.190838
0.190765
0.190688
0.190606
0.190519
0.190428
0.190332
0.190233
0.190129
0.190022
0.189911
0.189797
0.189679
0.189558
0.189434
0.189307
0.189177
0.189044
0.188909
0.188771
0.188631
0.188488
0.188343
0.188196
0.188046
0.187895
0.187741
0.187586
0.187429
0.187269
)
;

boundaryField
{
    inlet
    {
        type            zeroGradient;
    }
    outlet
    {
        type            fixedValue;
        value           nonuniform 0();
    }
    upperWall
    {
        type            zeroGradient;
    }
    lowerWall
    {
        type            zeroGradient;
    }
    frontAndBack
    {
        type            empty;
    }
    procBoundary1to0
    {
        type            processor;
        value           nonuniform List<scalar> 
59
(
0.187575
0.187554
0.187539
0.187529
0.187521
0.187514
0.187508
0.187502
0.187497
0.187493
0.187489
0.187489
0.18732
0.187317
0.187314
0.187311
0.187308
0.187305
0.187303
0.1873
0.187298
0.187296
0.187295
0.187293
0.187292
0.18729
0.187289
0.187288
0.187287
0.187285
0.187284
0.187282
0.187281
0.18728
0.187278
0.187277
0.187276
0.187274
0.187273
0.187272
0.187271
0.18727
0.187269
0.187269
0.187269
0.187269
0.18727
0.18727
0.187271
0.187271
0.187111
0.187111
0.18711
0.18711
0.187109
0.187107
0.187105
0.187106
0.187109
)
;
    }
    procBoundary1to3
    {
        type            processor;
        value           nonuniform List<scalar> 
62
(
0.200031
0.199713
0.199381
0.199088
0.198826
0.198582
0.198066
0.198066
0.197858
0.197402
0.197402
0.197215
0.19703
0.196845
0.19666
0.196281
0.196281
0.196104
0.19592
0.195736
0.195412
0.195412
0.195116
0.195116
0.194979
0.194851
0.194729
0.194615
0.194507
0.194405
0.194311
0.194223
0.194132
0.194033
0.19393
0.193824
0.193715
0.193602
0.193485
0.193365
0.19324
0.193112
0.192981
0.192851
0.19272
0.192574
0.192412
0.192234
0.19204
0.191828
0.191594
0.191379
0.191211
0.191067
0.190942
0.190831
0.190732
0.190642
0.19056
0.190482
0.190418
0.190382
)
;
    }
}


// ************************************************************************* //
