/*--------------------------------*- C++ -*----------------------------------*\
  =========                 |
  \\      /  F ield         | OpenFOAM: The Open Source CFD Toolbox
   \\    /   O peration     | Website:  https://openfoam.org
    \\  /    A nd           | Version:  6
     \\/     M anipulation  |
\*---------------------------------------------------------------------------*/
FoamFile
{
    version     2.0;
    format      ascii;
    class       surfaceScalarField;
    location    "0.04";
    object      phi;
}
// * * * * * * * * * * * * * * * * * * * * * * * * * * * * * * * * * * * * * //

dimensions      [0 3 -1 0 0 0 0];

internalField   nonuniform List<scalar> 
6046
(
4.67253e-07
-5.25152e-10
4.67705e-07
-4.52636e-10
4.6809e-07
-3.84945e-10
4.68412e-07
-3.21733e-10
4.68675e-07
-2.62637e-10
4.68882e-07
-2.07311e-10
4.69037e-07
-1.55275e-10
4.69143e-07
-1.05985e-10
4.69201e-07
-5.7754e-11
4.69208e-07
-6.98122e-12
4.69164e-07
4.42107e-11
4.69074e-07
8.98621e-11
4.68945e-07
1.29075e-10
4.68782e-07
1.63168e-10
4.68588e-07
1.93344e-10
4.68368e-07
2.20414e-10
4.68123e-07
2.45004e-10
4.67855e-07
2.67582e-10
4.67567e-07
2.88473e-10
4.67259e-07
3.07905e-10
4.66933e-07
3.26059e-10
4.6659e-07
3.43078e-10
4.66231e-07
3.59081e-10
4.65856e-07
3.74155e-10
4.65468e-07
3.88404e-10
4.65066e-07
4.01872e-10
4.64652e-07
4.14646e-10
4.64225e-07
4.26751e-10
4.63787e-07
4.38248e-10
4.63337e-07
4.49161e-10
4.62878e-07
4.59541e-10
4.62408e-07
4.6941e-10
4.6193e-07
4.78801e-10
4.61442e-07
4.87765e-10
4.60946e-07
4.96319e-10
4.60441e-07
5.04505e-10
4.59929e-07
5.12359e-10
4.59409e-07
5.19897e-10
4.58882e-07
5.27166e-10
4.58347e-07
5.34175e-10
4.57806e-07
5.40968e-10
4.57259e-07
5.47567e-10
4.56705e-07
5.54008e-10
4.56145e-07
5.60306e-10
4.55578e-07
5.66517e-10
4.55005e-07
5.72653e-10
4.54427e-07
5.78748e-10
4.53842e-07
5.84836e-10
4.53251e-07
5.90939e-10
4.52654e-07
5.97091e-10
4.52051e-07
6.03302e-10
4.51441e-07
6.09596e-10
4.50825e-07
6.15986e-10
4.50202e-07
6.2249e-10
4.49573e-07
6.29123e-10
4.48937e-07
6.35899e-10
6.42824e-10
4.93264e-07
-1.14314e-09
4.93801e-07
-9.89915e-10
4.94263e-07
-8.46741e-10
4.94654e-07
-7.12926e-10
4.94979e-07
-5.87814e-10
4.95243e-07
-4.70727e-10
4.95448e-07
-3.61013e-10
4.956e-07
-2.57998e-10
4.95704e-07
-1.60863e-10
4.95765e-07
-6.84872e-11
4.95789e-07
2.00671e-11
4.95775e-07
1.04118e-10
4.95722e-07
1.82206e-10
4.95631e-07
2.54044e-10
4.95504e-07
3.20032e-10
4.95344e-07
3.80703e-10
4.95152e-07
4.36634e-10
4.94932e-07
4.88349e-10
4.94684e-07
5.3633e-10
4.94411e-07
5.80977e-10
4.94114e-07
6.22648e-10
4.93795e-07
6.61619e-10
4.93456e-07
6.98174e-10
4.93098e-07
7.32527e-10
4.92722e-07
7.64871e-10
4.92328e-07
7.95387e-10
4.91918e-07
8.24219e-10
4.91494e-07
8.51492e-10
4.91055e-07
8.7732e-10
4.90602e-07
9.01797e-10
4.90137e-07
9.25016e-10
4.89659e-07
9.47068e-10
4.8917e-07
9.68027e-10
4.88669e-07
9.87967e-10
4.88159e-07
1.00697e-09
4.87638e-07
1.02512e-09
4.87108e-07
1.04247e-09
4.86569e-07
1.05909e-09
4.86021e-07
1.07506e-09
4.85465e-07
1.09042e-09
4.849e-07
1.10525e-09
4.84328e-07
1.11961e-09
4.83749e-07
1.13354e-09
4.83162e-07
1.14713e-09
4.82568e-07
1.16042e-09
4.81967e-07
1.17349e-09
4.8136e-07
1.1864e-09
4.80745e-07
1.1992e-09
4.80124e-07
1.21195e-09
4.79497e-07
1.22471e-09
4.78862e-07
1.23753e-09
4.78222e-07
1.25045e-09
4.77574e-07
1.26352e-09
4.7692e-07
1.27677e-09
4.76259e-07
1.29023e-09
4.75591e-07
1.30395e-09
1.31794e-09
5.02291e-07
-1.80051e-09
5.02864e-07
-1.56322e-09
5.03359e-07
-1.34135e-09
5.0378e-07
-1.13391e-09
5.04132e-07
-9.39903e-10
5.04419e-07
-7.58421e-10
5.04647e-07
-5.88552e-10
5.04818e-07
-4.2946e-10
5.04938e-07
-2.80319e-10
5.0501e-07
-1.40232e-10
5.05038e-07
-8.12667e-12
5.05025e-07
1.16505e-10
5.04974e-07
2.33426e-10
5.04886e-07
3.42512e-10
5.04762e-07
4.43995e-10
5.04604e-07
5.38274e-10
5.04415e-07
6.2585e-10
5.04196e-07
7.0728e-10
5.03949e-07
7.83087e-10
5.03676e-07
8.53767e-10
5.03379e-07
9.19796e-10
5.03059e-07
9.81586e-10
5.02718e-07
1.03952e-09
5.02357e-07
1.09392e-09
5.01976e-07
1.14511e-09
5.01578e-07
1.19334e-09
5.01164e-07
1.23885e-09
5.00733e-07
1.28186e-09
5.00288e-07
1.32255e-09
4.99829e-07
1.36108e-09
4.99356e-07
1.39761e-09
4.98871e-07
1.43226e-09
4.98374e-07
1.46518e-09
4.97865e-07
1.49649e-09
4.97346e-07
1.52631e-09
4.96816e-07
1.55476e-09
4.96277e-07
1.58194e-09
4.95728e-07
1.60797e-09
4.9517e-07
1.63294e-09
4.94604e-07
1.65695e-09
4.94029e-07
1.6801e-09
4.93446e-07
1.70248e-09
4.92855e-07
1.72418e-09
4.92257e-07
1.7453e-09
4.91652e-07
1.76594e-09
4.91039e-07
1.78617e-09
4.90419e-07
1.80609e-09
4.89793e-07
1.8258e-09
4.89159e-07
1.84538e-09
4.88519e-07
1.86492e-09
4.87872e-07
1.88448e-09
4.87218e-07
1.90415e-09
4.86558e-07
1.92398e-09
4.85891e-07
1.94403e-09
4.85216e-07
1.96439e-09
4.84535e-07
1.98508e-09
2.00617e-09
5.07512e-07
-2.47707e-09
5.08103e-07
-2.15403e-09
5.08613e-07
-1.85188e-09
5.09049e-07
-1.56926e-09
5.09414e-07
-1.30493e-09
5.09713e-07
-1.05766e-09
5.09951e-07
-8.2631e-10
5.10131e-07
-6.09819e-10
5.10258e-07
-4.07167e-10
5.10335e-07
-2.17341e-10
5.10366e-07
-3.92454e-11
5.10355e-07
1.28028e-10
5.10303e-07
2.84923e-10
5.10214e-07
4.31765e-10
5.10089e-07
5.68939e-10
5.0993e-07
6.96944e-10
5.0974e-07
8.1632e-10
5.0952e-07
9.27656e-10
5.09271e-07
1.03156e-09
5.08996e-07
1.12862e-09
5.08697e-07
1.21937e-09
5.08374e-07
1.30434e-09
5.08029e-07
1.38403e-09
5.07664e-07
1.45885e-09
5.0728e-07
1.52922e-09
5.06878e-07
1.5955e-09
5.06459e-07
1.65801e-09
5.06024e-07
1.71702e-09
5.05574e-07
1.77283e-09
5.05109e-07
1.82564e-09
5.04631e-07
1.87568e-09
5.0414e-07
1.92315e-09
5.03637e-07
1.96822e-09
5.03122e-07
2.01109e-09
5.02597e-07
2.05189e-09
5.02061e-07
2.09081e-09
5.01515e-07
2.12799e-09
5.00959e-07
2.16358e-09
5.00394e-07
2.19771e-09
4.99821e-07
2.23052e-09
4.99239e-07
2.26214e-09
4.98648e-07
2.29269e-09
4.9805e-07
2.3223e-09
4.97445e-07
2.35109e-09
4.96831e-07
2.37919e-09
4.96211e-07
2.4067e-09
4.95583e-07
2.43377e-09
4.94948e-07
2.4605e-09
4.94307e-07
2.487e-09
4.93658e-07
2.51339e-09
4.93003e-07
2.53976e-09
4.92341e-07
2.56622e-09
4.91672e-07
2.59287e-09
4.90996e-07
2.61977e-09
4.90314e-07
2.64701e-09
4.89624e-07
2.67467e-09
2.70282e-09
5.11184e-07
-3.15898e-09
5.1178e-07
-2.74966e-09
5.12295e-07
-2.36668e-09
5.12734e-07
-2.00835e-09
5.13102e-07
-1.67314e-09
5.13404e-07
-1.35954e-09
5.13644e-07
-1.06617e-09
5.13826e-07
-7.91705e-10
5.13953e-07
-5.34896e-10
5.14031e-07
-2.94556e-10
5.14061e-07
-6.94539e-11
5.14047e-07
1.41504e-10
5.13993e-07
3.39178e-10
5.13901e-07
5.24254e-10
5.13772e-07
6.97379e-10
5.1361e-07
8.59221e-10
5.13416e-07
1.01045e-09
5.13192e-07
1.15175e-09
5.12939e-07
1.28381e-09
5.12661e-07
1.40731e-09
5.12357e-07
1.52291e-09
5.1203e-07
1.6312e-09
5.11682e-07
1.73277e-09
5.11312e-07
1.82816e-09
5.10924e-07
1.91785e-09
5.10517e-07
2.0023e-09
5.10093e-07
2.08192e-09
5.09653e-07
2.15707e-09
5.09198e-07
2.22809e-09
5.08728e-07
2.29528e-09
5.08245e-07
2.35893e-09
5.07749e-07
2.41928e-09
5.0724e-07
2.4766e-09
5.0672e-07
2.53107e-09
5.06189e-07
2.58295e-09
5.05648e-07
2.63242e-09
5.05096e-07
2.67967e-09
5.04535e-07
2.72489e-09
5.03964e-07
2.76826e-09
5.03385e-07
2.80994e-09
5.02797e-07
2.8501e-09
5.022e-07
2.8889e-09
5.01596e-07
2.92648e-09
5.00984e-07
2.96302e-09
5.00365e-07
2.99865e-09
4.99738e-07
3.03353e-09
4.99104e-07
3.06779e-09
4.98463e-07
3.1016e-09
4.97815e-07
3.13508e-09
4.9716e-07
3.16837e-09
4.96498e-07
3.20159e-09
4.95829e-07
3.23487e-09
4.95154e-07
3.26833e-09
4.94472e-07
3.30206e-09
4.93782e-07
3.33618e-09
4.93086e-07
3.37077e-09
3.40593e-09
5.14041e-07
5.1463e-07
-3.33917e-09
5.15139e-07
-2.87567e-09
5.15573e-07
-2.44191e-09
5.15936e-07
-2.03603e-09
5.16233e-07
-1.65628e-09
5.16467e-07
-1.30099e-09
5.16644e-07
-9.68604e-10
5.16767e-07
-6.57648e-10
5.16839e-07
-3.66695e-10
5.16864e-07
-9.43846e-11
5.16845e-07
1.60577e-10
5.16785e-07
3.99306e-10
5.16686e-07
6.22791e-10
5.16552e-07
8.31926e-10
5.16383e-07
1.02757e-09
5.16183e-07
1.21056e-09
5.15953e-07
1.38172e-09
5.15695e-07
1.54184e-09
5.15411e-07
1.6917e-09
5.15102e-07
1.83205e-09
5.14769e-07
1.96359e-09
5.14415e-07
2.08701e-09
5.1404e-07
2.20293e-09
5.13646e-07
2.31192e-09
5.13234e-07
2.41453e-09
5.12805e-07
2.51125e-09
5.12359e-07
2.60252e-09
5.11899e-07
2.68875e-09
5.11424e-07
2.77031e-09
5.10935e-07
2.84755e-09
5.10434e-07
2.9208e-09
5.0992e-07
2.99034e-09
5.09394e-07
3.05644e-09
5.08858e-07
3.11939e-09
5.08311e-07
3.17941e-09
5.07754e-07
3.23673e-09
5.07187e-07
3.2916e-09
5.06611e-07
3.34422e-09
5.06026e-07
3.39479e-09
5.05433e-07
3.44352e-09
5.04831e-07
3.49059e-09
5.04222e-07
3.53618e-09
5.03604e-07
3.58049e-09
5.02979e-07
3.62369e-09
5.02347e-07
3.66595e-09
5.01707e-07
3.70746e-09
5.0106e-07
3.74836e-09
5.00406e-07
3.78884e-09
4.99746e-07
3.82904e-09
4.99078e-07
3.86912e-09
4.98404e-07
3.90922e-09
4.97723e-07
3.94947e-09
4.97035e-07
3.99002e-09
4.9634e-07
4.03097e-09
4.95638e-07
4.07244e-09
4.11456e-09
5.16994e-07
-3.91232e-09
5.17488e-07
-3.36943e-09
5.17907e-07
-2.86123e-09
5.18257e-07
-2.38558e-09
5.18541e-07
-1.94047e-09
5.18764e-07
-1.52398e-09
5.1893e-07
-1.13431e-09
5.19042e-07
-7.69731e-10
5.19104e-07
-4.28638e-10
5.19119e-07
-1.09462e-10
5.1909e-07
1.89246e-10
5.1902e-07
4.6884e-10
5.18913e-07
7.30537e-10
5.18769e-07
9.75457e-10
5.18592e-07
1.20465e-09
5.18383e-07
1.41914e-09
5.18145e-07
1.61986e-09
5.17879e-07
1.80775e-09
5.17587e-07
1.9837e-09
5.17271e-07
2.14856e-09
5.16931e-07
2.30314e-09
5.1657e-07
2.44822e-09
5.16189e-07
2.58448e-09
5.15788e-07
2.71262e-09
5.15369e-07
2.83325e-09
5.14934e-07
2.94694e-09
5.14482e-07
3.0542e-09
5.14015e-07
3.15553e-09
5.13534e-07
3.25138e-09
5.13039e-07
3.34213e-09
5.12532e-07
3.42818e-09
5.12012e-07
3.50988e-09
5.11481e-07
3.58754e-09
5.10939e-07
3.66149e-09
5.10387e-07
3.732e-09
5.09824e-07
3.79937e-09
5.09252e-07
3.86385e-09
5.0867e-07
3.92569e-09
5.0808e-07
3.98513e-09
5.07481e-07
4.0424e-09
5.06874e-07
4.09773e-09
5.06259e-07
4.15132e-09
5.05636e-07
4.2034e-09
5.05005e-07
4.25416e-09
5.04368e-07
4.30381e-09
5.03723e-07
4.35254e-09
5.0307e-07
4.40055e-09
5.02411e-07
4.44801e-09
5.01745e-07
4.49512e-09
5.01072e-07
4.54204e-09
5.00392e-07
4.58893e-09
4.99706e-07
4.63596e-09
4.99013e-07
4.68327e-09
4.98313e-07
4.731e-09
4.97606e-07
4.77929e-09
4.82829e-09
5.19061e-07
5.19531e-07
-3.83883e-09
5.19927e-07
-3.25788e-09
5.20256e-07
-2.71401e-09
5.2052e-07
-2.20494e-09
5.20725e-07
-1.72853e-09
5.20873e-07
-1.2827e-09
5.20969e-07
-8.65553e-10
5.21016e-07
-4.75248e-10
5.21016e-07
-1.10041e-10
5.20974e-07
2.31722e-10
5.20891e-07
5.5156e-10
5.20771e-07
8.50906e-10
5.20615e-07
1.13108e-09
5.20426e-07
1.39332e-09
5.20207e-07
1.63878e-09
5.19958e-07
1.86859e-09
5.19682e-07
2.0838e-09
5.1938e-07
2.28541e-09
5.19054e-07
2.47439e-09
5.18706e-07
2.65164e-09
5.18336e-07
2.81802e-09
5.17946e-07
2.97433e-09
5.17538e-07
3.12134e-09
5.17111e-07
3.25972e-09
5.16668e-07
3.39014e-09
5.16209e-07
3.5132e-09
5.15735e-07
3.62943e-09
5.15247e-07
3.73938e-09
5.14746e-07
3.84347e-09
5.14232e-07
3.94217e-09
5.13706e-07
4.03589e-09
5.13168e-07
4.12498e-09
5.1262e-07
4.20982e-09
5.12061e-07
4.29073e-09
5.11493e-07
4.36805e-09
5.10914e-07
4.44205e-09
5.10327e-07
4.51304e-09
5.09731e-07
4.58129e-09
5.09126e-07
4.64705e-09
5.08513e-07
4.71059e-09
5.07893e-07
4.77213e-09
5.07264e-07
4.83195e-09
5.06628e-07
4.89023e-09
5.05984e-07
4.94723e-09
5.05334e-07
5.00317e-09
5.04676e-07
5.05825e-09
5.04011e-07
5.11268e-09
5.0334e-07
5.16666e-09
5.02662e-07
5.22038e-09
5.01976e-07
5.27403e-09
5.01285e-07
5.32778e-09
5.00586e-07
5.3818e-09
4.99881e-07
5.43625e-09
4.99169e-07
5.49127e-09
5.54706e-09
5.21389e-07
-4.27504e-09
5.21754e-07
-3.62368e-09
5.22054e-07
-3.01372e-09
5.22292e-07
-2.44267e-09
5.22472e-07
-1.90811e-09
5.22597e-07
-1.40779e-09
5.22671e-07
-9.3957e-10
5.22697e-07
-5.01415e-10
5.22678e-07
-9.14032e-11
5.22618e-07
2.92293e-10
5.22518e-07
6.51384e-10
5.22381e-07
9.87477e-10
5.2221e-07
1.30207e-09
5.22007e-07
1.59657e-09
5.21773e-07
1.8723e-09
5.21512e-07
2.13051e-09
5.21223e-07
2.37239e-09
5.20909e-07
2.59906e-09
5.20572e-07
2.8116e-09
5.20213e-07
3.01099e-09
5.19833e-07
3.19821e-09
5.19433e-07
3.37413e-09
5.19014e-07
3.53959e-09
5.18579e-07
3.69537e-09
5.18127e-07
3.8422e-09
5.17659e-07
3.98073e-09
5.17177e-07
4.1116e-09
5.16681e-07
4.23537e-09
5.16172e-07
4.35259e-09
5.1565e-07
4.46372e-09
5.15117e-07
4.56925e-09
5.14572e-07
4.6696e-09
5.14017e-07
4.76516e-09
5.13451e-07
4.85633e-09
5.12876e-07
4.94345e-09
5.12291e-07
5.02686e-09
5.11697e-07
5.10689e-09
5.11095e-07
5.18384e-09
5.10484e-07
5.25801e-09
5.09865e-07
5.32967e-09
5.09238e-07
5.3991e-09
5.08603e-07
5.46657e-09
5.07961e-07
5.53234e-09
5.07312e-07
5.59664e-09
5.06655e-07
5.65972e-09
5.05992e-07
5.72182e-09
5.05321e-07
5.78316e-09
5.04644e-07
5.84397e-09
5.0396e-07
5.90444e-09
5.03269e-07
5.96478e-09
5.02572e-07
6.0252e-09
5.01868e-07
6.08584e-09
5.01157e-07
6.14693e-09
5.0044e-07
6.20861e-09
6.27108e-09
5.23142e-07
-4.66953e-09
5.23469e-07
-3.95069e-09
5.23733e-07
-3.27735e-09
5.23937e-07
-2.64679e-09
5.24086e-07
-2.05639e-09
5.24181e-07
-1.50367e-09
5.24228e-07
-9.8631e-10
5.24229e-07
-5.02081e-10
5.24186e-07
-4.88806e-11
5.24103e-07
3.75287e-10
5.23982e-07
7.7229e-10
5.23826e-07
1.14391e-09
5.23636e-07
1.4918e-09
5.23415e-07
1.81753e-09
5.23165e-07
2.12256e-09
5.22887e-07
2.40829e-09
5.22584e-07
2.67601e-09
5.22256e-07
2.92698e-09
5.21905e-07
3.16236e-09
5.21533e-07
3.38325e-09
5.2114e-07
3.59069e-09
5.20729e-07
3.78566e-09
5.20299e-07
3.96907e-09
5.19853e-07
4.14177e-09
5.1939e-07
4.30458e-09
5.18913e-07
4.45819e-09
5.18421e-07
4.60333e-09
5.17916e-07
4.74061e-09
5.17398e-07
4.87062e-09
5.16868e-07
4.99392e-09
5.16326e-07
5.11102e-09
5.15773e-07
5.22238e-09
5.1521e-07
5.32846e-09
5.14636e-07
5.42968e-09
5.14054e-07
5.52643e-09
5.13461e-07
5.61908e-09
5.1286e-07
5.70801e-09
5.1225e-07
5.79353e-09
5.11633e-07
5.87598e-09
5.11007e-07
5.95566e-09
5.10373e-07
6.03288e-09
5.09731e-07
6.10792e-09
5.09083e-07
6.18107e-09
5.08427e-07
6.25259e-09
5.07764e-07
6.32275e-09
5.07094e-07
6.3918e-09
5.06417e-07
6.45998e-09
5.05733e-07
6.52754e-09
5.05043e-07
6.59469e-09
5.04346e-07
6.66165e-09
5.03643e-07
6.72864e-09
5.02933e-07
6.79585e-09
5.02216e-07
6.86348e-09
5.01493e-07
6.93171e-09
7.00075e-09
5.24848e-07
-5.01412e-09
5.25129e-07
-4.2313e-09
5.25349e-07
-3.49781e-09
5.25513e-07
-2.81072e-09
5.25624e-07
-2.16721e-09
5.25685e-07
-1.56462e-09
5.25699e-07
-1.00045e-09
5.25669e-07
-4.72288e-10
5.25598e-07
2.21342e-11
5.25489e-07
4.84962e-10
5.25343e-07
9.18232e-10
5.25163e-07
1.32387e-09
5.24951e-07
1.70367e-09
5.24709e-07
2.05936e-09
5.24439e-07
2.39251e-09
5.24143e-07
2.70467e-09
5.23822e-07
2.99723e-09
5.23477e-07
3.27156e-09
5.2311e-07
3.52892e-09
5.22723e-07
3.7705e-09
5.22316e-07
3.99744e-09
5.21891e-07
4.21079e-09
5.21449e-07
4.41153e-09
5.2099e-07
4.60059e-09
5.20516e-07
4.77883e-09
5.20027e-07
4.94707e-09
5.19524e-07
5.10603e-09
5.19008e-07
5.25641e-09
5.1848e-07
5.39887e-09
5.1794e-07
5.53399e-09
5.17389e-07
5.66234e-09
5.16827e-07
5.78443e-09
5.16254e-07
5.90077e-09
5.15672e-07
6.01181e-09
5.15081e-07
6.11797e-09
5.1448e-07
6.21967e-09
5.13871e-07
6.3173e-09
5.13253e-07
6.41123e-09
5.12627e-07
6.50181e-09
5.11994e-07
6.58937e-09
5.11352e-07
6.67425e-09
5.10703e-07
6.75674e-09
5.10047e-07
6.83717e-09
5.09384e-07
6.91581e-09
5.08714e-07
6.99294e-09
5.08037e-07
7.06885e-09
5.07353e-07
7.14378e-09
5.06663e-07
7.21801e-09
5.05966e-07
7.29175e-09
5.05262e-07
7.36524e-09
5.04552e-07
7.43872e-09
5.03835e-07
7.51238e-09
5.03112e-07
7.58644e-09
5.02383e-07
7.66112e-09
7.73662e-09
5.26545e-07
-5.30117e-09
5.26772e-07
-4.45834e-09
5.26942e-07
-3.6684e-09
5.2706e-07
-2.92819e-09
5.27127e-07
-2.23474e-09
5.27148e-07
-1.5852e-09
5.27124e-07
-9.76906e-10
5.27059e-07
-4.07296e-10
5.26955e-07
1.26061e-10
5.26815e-07
6.25456e-10
5.2664e-07
1.09306e-09
5.26433e-07
1.53094e-09
5.26196e-07
1.94103e-09
5.2593e-07
2.32516e-09
5.25637e-07
2.68507e-09
5.2532e-07
3.02236e-09
5.24978e-07
3.33859e-09
5.24615e-07
3.63519e-09
5.2423e-07
3.91354e-09
5.23826e-07
4.17489e-09
5.23403e-07
4.42048e-09
5.22962e-07
4.65141e-09
5.22505e-07
4.86876e-09
5.22032e-07
5.07351e-09
5.21544e-07
5.2666e-09
5.21042e-07
5.44888e-09
5.20527e-07
5.62116e-09
5.19999e-07
5.78418e-09
5.1946e-07
5.93864e-09
5.18908e-07
6.08519e-09
5.18346e-07
6.22443e-09
5.17774e-07
6.35693e-09
5.17191e-07
6.48322e-09
5.16599e-07
6.60379e-09
5.15998e-07
6.71911e-09
5.15388e-07
6.82963e-09
5.1477e-07
6.93576e-09
5.14143e-07
7.0379e-09
5.13509e-07
7.13643e-09
5.12866e-07
7.23171e-09
5.12216e-07
7.32409e-09
5.11559e-07
7.4139e-09
5.10895e-07
7.50147e-09
5.10224e-07
7.5871e-09
5.09545e-07
7.6711e-09
5.08861e-07
7.75375e-09
5.08169e-07
7.83533e-09
5.07471e-07
7.91611e-09
5.06766e-07
7.99633e-09
5.06055e-07
8.07625e-09
5.05338e-07
8.15611e-09
5.04614e-07
8.23612e-09
5.03884e-07
8.31649e-09
5.03148e-07
8.39749e-09
5.02405e-07
8.47929e-09
8.56218e-09
5.28256e-07
5.28423e-07
-4.62522e-09
5.28538e-07
-3.78293e-09
5.28603e-07
-2.99342e-09
5.28622e-07
-2.25354e-09
5.28597e-07
-1.56033e-09
5.28531e-07
-9.10926e-10
5.28426e-07
-3.02644e-10
5.28285e-07
2.67067e-10
5.2811e-07
8.0065e-10
5.27903e-07
1.30042e-09
5.27665e-07
1.76853e-09
5.27399e-07
2.20705e-09
5.27106e-07
2.61794e-09
5.26788e-07
3.00301e-09
5.26447e-07
3.36402e-09
5.26083e-07
3.70257e-09
5.25698e-07
4.02022e-09
5.25293e-07
4.3184e-09
5.24869e-07
4.59849e-09
5.24428e-07
4.86174e-09
5.2397e-07
5.10939e-09
5.23496e-07
5.34252e-09
5.23008e-07
5.56223e-09
5.22505e-07
5.76947e-09
5.21988e-07
5.96516e-09
5.21459e-07
6.15017e-09
5.20918e-07
6.3253e-09
5.20366e-07
6.49128e-09
5.19802e-07
6.6488e-09
5.19228e-07
6.79853e-09
5.18644e-07
6.94106e-09
5.1805e-07
7.07695e-09
5.17447e-07
7.20675e-09
5.16835e-07
7.33094e-09
5.16215e-07
7.45001e-09
5.15586e-07
7.56439e-09
5.1495e-07
7.67452e-09
5.14305e-07
7.78079e-09
5.13653e-07
7.8836e-09
5.12994e-07
7.98331e-09
5.12328e-07
8.08027e-09
5.11654e-07
8.17483e-09
5.10974e-07
8.26731e-09
5.10287e-07
8.35804e-09
5.09594e-07
8.4473e-09
5.08894e-07
8.5354e-09
5.08187e-07
8.62262e-09
5.07474e-07
8.70921e-09
5.06755e-07
8.79544e-09
5.0603e-07
8.88154e-09
5.05298e-07
8.96777e-09
5.0456e-07
9.05434e-09
5.03816e-07
9.1415e-09
5.03066e-07
9.22948e-09
9.31854e-09
5.30097e-07
-4.72604e-09
5.3015e-07
-3.83587e-09
5.30158e-07
-3.0012e-09
5.30123e-07
-2.21875e-09
5.30048e-07
-1.48541e-09
5.29936e-07
-7.98209e-10
5.29787e-07
-1.54315e-10
5.29605e-07
4.48942e-10
5.29392e-07
1.01412e-09
5.29149e-07
1.54364e-09
5.28877e-07
2.03977e-09
5.2858e-07
2.50469e-09
5.28257e-07
2.94045e-09
5.27911e-07
3.34897e-09
5.27543e-07
3.73207e-09
5.27154e-07
4.09149e-09
5.26746e-07
4.42882e-09
5.26319e-07
4.74559e-09
5.25874e-07
5.04325e-09
5.25412e-07
5.32312e-09
5.24935e-07
5.58648e-09
5.24443e-07
5.83451e-09
5.23937e-07
6.06832e-09
5.23418e-07
6.28895e-09
5.22886e-07
6.49736e-09
5.22341e-07
6.69446e-09
5.21785e-07
6.8811e-09
5.21219e-07
7.05806e-09
5.20641e-07
7.22607e-09
5.20054e-07
7.38583e-09
5.19457e-07
7.53796e-09
5.18851e-07
7.68309e-09
5.18236e-07
7.82175e-09
5.17613e-07
7.95449e-09
5.16981e-07
8.08181e-09
5.16341e-07
8.20418e-09
5.15693e-07
8.32204e-09
5.15038e-07
8.43583e-09
5.14376e-07
8.54595e-09
5.13707e-07
8.65279e-09
5.1303e-07
8.75672e-09
5.12347e-07
8.85811e-09
5.11657e-07
8.95728e-09
5.1096e-07
9.05457e-09
5.10257e-07
9.15032e-09
5.09548e-07
9.2448e-09
5.08832e-07
9.3383e-09
5.0811e-07
9.43113e-09
5.07382e-07
9.52353e-09
5.06648e-07
9.61576e-09
5.05908e-07
9.70806e-09
5.05161e-07
9.80069e-09
5.04409e-07
9.89388e-09
5.03651e-07
9.98787e-09
1.00829e-08
5.31798e-07
-4.75573e-09
5.31784e-07
-3.82246e-09
5.3173e-07
-2.94707e-09
5.31637e-07
-2.12616e-09
5.31509e-07
-1.35651e-09
5.31345e-07
-6.35026e-10
5.3115e-07
4.12093e-11
5.30924e-07
6.74988e-10
5.30669e-07
1.26896e-09
5.30387e-07
1.82564e-09
5.30079e-07
2.34741e-09
5.29747e-07
2.83653e-09
5.29393e-07
3.29513e-09
5.29016e-07
3.72523e-09
5.2862e-07
4.12871e-09
5.28204e-07
4.50739e-09
5.2777e-07
4.86294e-09
5.27318e-07
5.19695e-09
5.26851e-07
5.51092e-09
5.26368e-07
5.80625e-09
5.2587e-07
6.08427e-09
5.25358e-07
6.34621e-09
5.24833e-07
6.59323e-09
5.24296e-07
6.82642e-09
5.23746e-07
7.04678e-09
5.23186e-07
7.25528e-09
5.22614e-07
7.45279e-09
5.22032e-07
7.64014e-09
5.2144e-07
7.8181e-09
5.20838e-07
7.98739e-09
5.20228e-07
8.14868e-09
5.19608e-07
8.30261e-09
5.1898e-07
8.44977e-09
5.18344e-07
8.5907e-09
5.177e-07
8.72596e-09
5.17048e-07
8.85601e-09
5.16388e-07
8.98134e-09
5.15722e-07
9.10241e-09
5.15048e-07
9.2196e-09
5.14368e-07
9.33336e-09
5.1368e-07
9.44406e-09
5.12986e-07
9.55208e-09
5.12286e-07
9.65776e-09
5.11579e-07
9.76148e-09
5.10866e-07
9.86353e-09
5.10146e-07
9.96423e-09
5.09421e-07
1.00639e-08
5.08689e-07
1.01628e-08
5.07951e-07
1.02612e-08
5.07208e-07
1.03594e-08
5.06458e-07
1.04577e-08
5.05703e-07
1.05562e-08
5.04941e-07
1.06553e-08
5.04174e-07
1.07551e-08
1.0856e-08
5.5634e-07
-4.53339e-09
5.56077e-07
-3.55888e-09
5.55774e-07
-2.64437e-09
5.55434e-07
-1.78637e-09
5.55059e-07
-9.81542e-10
5.54651e-07
-2.26717e-10
5.54211e-07
4.81133e-10
5.53741e-07
1.14489e-09
5.53243e-07
1.76729e-09
5.52718e-07
2.35094e-09
5.52167e-07
2.8983e-09
5.51592e-07
3.41171e-09
5.50993e-07
3.89338e-09
5.50373e-07
4.34539e-09
5.49732e-07
4.76972e-09
5.49071e-07
5.16822e-09
5.48392e-07
5.54265e-09
5.47694e-07
5.89465e-09
5.46979e-07
6.22577e-09
5.46248e-07
6.53748e-09
5.45501e-07
6.83116e-09
5.44739e-07
7.10807e-09
5.43963e-07
7.36944e-09
5.43173e-07
7.61639e-09
5.4237e-07
7.84997e-09
5.41554e-07
8.07118e-09
5.40726e-07
8.28093e-09
5.39886e-07
8.48009e-09
5.39034e-07
8.66947e-09
5.38172e-07
8.84981e-09
5.37299e-07
9.02181e-09
5.36415e-07
9.18615e-09
5.35522e-07
9.34344e-09
5.34618e-07
9.49425e-09
5.33705e-07
9.63914e-09
5.32782e-07
9.77863e-09
5.3185e-07
9.9132e-09
5.30909e-07
1.00433e-08
5.2996e-07
1.01694e-08
5.29001e-07
1.0292e-08
5.28034e-07
1.04113e-08
5.27058e-07
1.05279e-08
5.26074e-07
1.0642e-08
5.25081e-07
1.07541e-08
5.2408e-07
1.08644e-08
5.23071e-07
1.09734e-08
5.22054e-07
1.10812e-08
5.21028e-07
1.11882e-08
5.19995e-07
1.12947e-08
5.18953e-07
1.1401e-08
5.17904e-07
1.15072e-08
5.16846e-07
1.16137e-08
5.15781e-07
1.17208e-08
5.14707e-07
1.18286e-08
1.19374e-08
5.18492e-07
5.18466e-07
-3.53362e-09
5.18412e-07
-2.59013e-09
5.18331e-07
-1.70467e-09
5.18223e-07
-8.73843e-10
5.18091e-07
-9.44043e-11
5.17935e-07
6.36741e-10
5.17757e-07
1.32254e-09
5.17559e-07
1.96579e-09
5.17341e-07
2.56915e-09
5.17104e-07
3.13516e-09
5.16849e-07
3.66621e-09
5.16578e-07
4.16456e-09
5.16291e-07
4.63235e-09
5.15989e-07
5.0716e-09
5.15673e-07
5.48421e-09
5.15344e-07
5.87199e-09
5.15002e-07
6.23664e-09
5.14648e-07
6.57974e-09
5.14283e-07
6.9028e-09
5.13907e-07
7.20723e-09
5.1352e-07
7.49436e-09
5.13124e-07
7.76542e-09
5.12719e-07
8.02158e-09
5.12305e-07
8.26392e-09
5.11883e-07
8.49348e-09
5.11453e-07
8.71118e-09
5.11015e-07
8.91794e-09
5.1057e-07
9.11457e-09
5.10118e-07
9.30185e-09
5.09659e-07
9.48052e-09
5.09194e-07
9.65126e-09
5.08723e-07
9.8147e-09
5.08245e-07
9.97144e-09
5.07762e-07
1.01221e-08
5.07274e-07
1.02671e-08
5.0678e-07
1.0407e-08
5.06281e-07
1.05423e-08
5.05777e-07
1.06735e-08
5.05268e-07
1.08009e-08
5.04754e-07
1.09251e-08
5.04236e-07
1.10463e-08
5.03713e-07
1.1165e-08
5.03185e-07
1.12816e-08
5.02654e-07
1.13963e-08
5.02117e-07
1.15096e-08
5.01577e-07
1.16216e-08
5.01032e-07
1.17328e-08
5.00484e-07
1.18434e-08
4.99931e-07
1.19537e-08
4.99374e-07
1.20639e-08
4.98814e-07
1.21744e-08
4.98249e-07
1.22853e-08
4.97681e-07
1.23969e-08
1.25095e-08
4.84588e-07
4.84764e-07
-2.76606e-09
4.84921e-07
-1.86126e-09
4.85059e-07
-1.01217e-09
4.8518e-07
-2.15503e-10
4.85285e-07
5.31879e-10
4.85375e-07
1.23297e-09
4.8545e-07
1.89061e-09
4.85511e-07
2.5075e-09
4.8556e-07
3.08622e-09
4.85597e-07
3.62919e-09
4.85623e-07
4.13872e-09
4.85639e-07
4.61699e-09
4.85644e-07
5.06604e-09
4.8564e-07
5.48783e-09
4.85628e-07
5.88418e-09
4.85608e-07
6.25683e-09
4.8558e-07
6.60739e-09
4.85546e-07
6.93742e-09
4.85505e-07
7.24834e-09
4.85458e-07
7.5415e-09
4.85405e-07
7.81818e-09
4.85347e-07
8.07957e-09
4.85284e-07
8.32677e-09
4.85217e-07
8.56083e-09
4.85145e-07
8.78273e-09
4.8507e-07
8.99336e-09
4.84991e-07
9.19359e-09
4.84908e-07
9.38421e-09
4.84823e-07
9.56597e-09
4.84734e-07
9.73956e-09
4.84644e-07
9.90565e-09
4.8455e-07
1.00648e-08
4.84454e-07
1.02177e-08
4.84357e-07
1.03648e-08
4.84257e-07
1.05067e-08
4.84156e-07
1.06438e-08
4.84053e-07
1.07766e-08
4.83948e-07
1.09055e-08
4.83842e-07
1.1031e-08
4.83735e-07
1.11535e-08
4.83627e-07
1.12734e-08
4.83517e-07
1.1391e-08
4.83407e-07
1.15067e-08
4.83296e-07
1.16207e-08
4.83184e-07
1.17336e-08
4.83071e-07
1.18454e-08
4.82958e-07
1.19566e-08
4.82844e-07
1.20674e-08
4.8273e-07
1.2178e-08
4.82616e-07
1.22888e-08
4.82501e-07
1.24e-08
4.82386e-07
1.25117e-08
1.26244e-08
4.54463e-07
-3.15505e-09
4.5484e-07
-2.23771e-09
4.55204e-07
-1.37687e-09
4.55558e-07
-5.69201e-10
4.55901e-07
1.88452e-10
4.56235e-07
8.99112e-10
4.5656e-07
1.56565e-09
4.56877e-07
2.1908e-09
4.57186e-07
2.77715e-09
4.57488e-07
3.32716e-09
4.57784e-07
3.84316e-09
4.58073e-07
4.32734e-09
4.58358e-07
4.78179e-09
4.58637e-07
5.20848e-09
4.58912e-07
5.60925e-09
4.59183e-07
5.98588e-09
4.5945e-07
6.34e-09
4.59714e-07
6.67317e-09
4.59976e-07
6.98685e-09
4.60235e-07
7.28242e-09
4.60492e-07
7.56116e-09
4.60747e-07
7.82429e-09
4.61001e-07
8.07292e-09
4.61254e-07
8.30813e-09
4.61506e-07
8.53089e-09
4.61757e-07
8.74215e-09
4.62008e-07
8.94275e-09
4.62258e-07
9.13353e-09
4.62509e-07
9.31522e-09
4.6276e-07
9.48856e-09
4.63012e-07
9.65419e-09
4.63264e-07
9.81275e-09
4.63517e-07
9.96483e-09
4.6377e-07
1.0111e-08
4.64025e-07
1.02517e-08
4.64282e-07
1.03876e-08
4.64539e-07
1.0519e-08
4.64798e-07
1.06464e-08
4.65059e-07
1.07703e-08
4.65321e-07
1.0891e-08
4.65586e-07
1.1009e-08
4.65852e-07
1.11246e-08
4.66121e-07
1.12381e-08
4.66392e-07
1.135e-08
4.66665e-07
1.14605e-08
4.6694e-07
1.15699e-08
4.67218e-07
1.16786e-08
4.67499e-07
1.17867e-08
4.67782e-07
1.18946e-08
4.68068e-07
1.20026e-08
4.68358e-07
1.21108e-08
4.6865e-07
1.22195e-08
1.2329e-08
4.2718e-07
-3.74083e-09
4.27759e-07
-2.81666e-09
4.28332e-07
-1.94954e-09
4.28899e-07
-1.13612e-09
4.29461e-07
-3.73239e-10
4.30018e-07
3.42148e-10
4.3057e-07
1.01293e-09
4.31119e-07
1.64184e-09
4.31665e-07
2.23149e-09
4.32208e-07
2.78435e-09
4.32748e-07
3.30277e-09
4.33287e-07
3.78895e-09
4.33823e-07
4.245e-09
4.34359e-07
4.67289e-09
4.34894e-07
5.07451e-09
4.35428e-07
5.45162e-09
4.35962e-07
5.80589e-09
4.36496e-07
6.13888e-09
4.37031e-07
6.45209e-09
4.37567e-07
6.74689e-09
4.38103e-07
7.02458e-09
4.38641e-07
7.28639e-09
4.39181e-07
7.53345e-09
4.39722e-07
7.76685e-09
4.40265e-07
7.98758e-09
4.40811e-07
8.19659e-09
4.41359e-07
8.39474e-09
4.41909e-07
8.58286e-09
4.42463e-07
8.76173e-09
4.43019e-07
8.93205e-09
4.43579e-07
9.0945e-09
4.44142e-07
9.24972e-09
4.44709e-07
9.39831e-09
4.45279e-07
9.54081e-09
4.45853e-07
9.67778e-09
4.46431e-07
9.80969e-09
4.47013e-07
9.93705e-09
4.47599e-07
1.00603e-08
4.48189e-07
1.01798e-08
4.48784e-07
1.02961e-08
4.49383e-07
1.04095e-08
4.49988e-07
1.05204e-08
4.50597e-07
1.06292e-08
4.5121e-07
1.07361e-08
4.51829e-07
1.08416e-08
4.52453e-07
1.09458e-08
4.53083e-07
1.10492e-08
4.53718e-07
1.11519e-08
4.54358e-07
1.12543e-08
4.55004e-07
1.13566e-08
4.55656e-07
1.1459e-08
4.56313e-07
1.15618e-08
1.16652e-08
4.02619e-07
-4.5079e-09
4.03384e-07
-3.58169e-09
4.04148e-07
-2.71289e-09
4.0491e-07
-1.89815e-09
4.05671e-07
-1.13429e-09
4.06431e-07
-4.18284e-10
4.07191e-07
2.5277e-10
4.07952e-07
8.81616e-10
4.08712e-07
1.47087e-09
4.09474e-07
2.023e-09
4.10236e-07
2.54035e-09
4.11e-07
3.02516e-09
4.11765e-07
3.47953e-09
4.12533e-07
3.90544e-09
4.13302e-07
4.3048e-09
4.14075e-07
4.67936e-09
4.1485e-07
5.03082e-09
4.15628e-07
5.36075e-09
4.16409e-07
5.67065e-09
4.17194e-07
5.9619e-09
4.17983e-07
6.23582e-09
4.18776e-07
6.49363e-09
4.19573e-07
6.7365e-09
4.20374e-07
6.9655e-09
4.2118e-07
7.18164e-09
4.21991e-07
7.38587e-09
4.22806e-07
7.57907e-09
4.23627e-07
7.76207e-09
4.24453e-07
7.93565e-09
4.25285e-07
8.10053e-09
4.26122e-07
8.25739e-09
4.26965e-07
8.40688e-09
4.27814e-07
8.54958e-09
4.28668e-07
8.68607e-09
4.29529e-07
8.81688e-09
4.30396e-07
8.94251e-09
4.3127e-07
9.06344e-09
4.3215e-07
9.18013e-09
4.33037e-07
9.29301e-09
4.33931e-07
9.40249e-09
4.34831e-07
9.50896e-09
4.35739e-07
9.6128e-09
4.36654e-07
9.71436e-09
4.37576e-07
9.81397e-09
4.38506e-07
9.91196e-09
4.39443e-07
1.00086e-08
4.40388e-07
1.01043e-08
4.4134e-07
1.01991e-08
4.42301e-07
1.02935e-08
4.4327e-07
1.03876e-08
4.44248e-07
1.04817e-08
4.45233e-07
1.05761e-08
1.06709e-08
3.80513e-07
-5.44148e-09
3.81449e-07
-4.51724e-09
3.82387e-07
-3.65063e-09
3.83327e-07
-2.8383e-09
3.84269e-07
-2.07708e-09
3.85215e-07
-1.36394e-09
3.86164e-07
-6.95989e-10
3.87116e-07
-7.04788e-11
3.88072e-07
5.15197e-10
3.89031e-07
1.06352e-09
3.89995e-07
1.57682e-09
3.90962e-07
2.05735e-09
3.91935e-07
2.5072e-09
3.92912e-07
2.92837e-09
3.93894e-07
3.32277e-09
3.94881e-07
3.69216e-09
3.95874e-07
4.03823e-09
3.96872e-07
4.36257e-09
3.97876e-07
4.66668e-09
3.98886e-07
4.95196e-09
3.99902e-07
5.21971e-09
4.00924e-07
5.47119e-09
4.01953e-07
5.70754e-09
4.02989e-07
5.92986e-09
4.04031e-07
6.13915e-09
4.05081e-07
6.33638e-09
4.06138e-07
6.52242e-09
4.07201e-07
6.69812e-09
4.08273e-07
6.86425e-09
4.09352e-07
7.02155e-09
4.10439e-07
7.17069e-09
4.11533e-07
7.31231e-09
4.12636e-07
7.44702e-09
4.13746e-07
7.57539e-09
4.14865e-07
7.69794e-09
4.15993e-07
7.81519e-09
4.17128e-07
7.92761e-09
4.18273e-07
8.03566e-09
4.19426e-07
8.13976e-09
4.20588e-07
8.24034e-09
4.2176e-07
8.33777e-09
4.2294e-07
8.43243e-09
4.2413e-07
8.52468e-09
4.25329e-07
8.61484e-09
4.26537e-07
8.70324e-09
4.27756e-07
8.79017e-09
4.28984e-07
8.87592e-09
4.30223e-07
8.96076e-09
4.31471e-07
9.04494e-09
4.3273e-07
9.12871e-09
4.33999e-07
9.2123e-09
4.3528e-07
9.29594e-09
9.37987e-09
3.60621e-07
-6.5275e-09
3.61713e-07
-5.60862e-09
3.62809e-07
-4.74747e-09
3.63912e-07
-3.94072e-09
3.6502e-07
-3.1852e-09
3.66134e-07
-2.47789e-09
3.67254e-07
-1.81592e-09
3.6838e-07
-1.19655e-09
3.69512e-07
-6.1717e-10
3.70651e-07
-7.53153e-11
3.71797e-07
4.31362e-10
3.72949e-07
9.05086e-10
3.74108e-07
1.34797e-09
3.75274e-07
1.762e-09
3.76448e-07
2.14909e-09
3.77629e-07
2.51101e-09
3.78818e-07
2.84944e-09
3.80015e-07
3.16599e-09
3.81219e-07
3.46215e-09
3.82432e-07
3.73931e-09
3.83653e-07