/*--------------------------------*- C++ -*----------------------------------*\
  =========                 |
  \\      /  F ield         | OpenFOAM: The Open Source CFD Toolbox
   \\    /   O peration     | Website:  https://openfoam.org
    \\  /    A nd           | Version:  6
     \\/     M anipulation  |
\*---------------------------------------------------------------------------*/
FoamFile
{
    version     2.0;
    format      ascii;
    class       volVectorField;
    location    "0.04";
    object      U;
}
// * * * * * * * * * * * * * * * * * * * * * * * * * * * * * * * * * * * * * //

dimensions      [0 1 -1 0 0 0 0];

internalField   nonuniform List<vector> 
3081
(
(0.439369 -0.000594791 7.27835e-21)
(0.44024 -0.000550558 7.23291e-21)
(0.44105 -0.000509719 7.18838e-21)
(0.441803 -0.000472013 0)
(0.442503 -0.000437178 0)
(0.443154 -0.000404954 0)
(0.443759 -0.000375018 7.01854e-21)
(0.44432 -0.00034709 0)
(0.444841 -0.000320296 0)
(0.445321 -0.000291652 -6.89892e-21)
(0.445752 -0.00026095 0)
(0.446142 -0.000232413 0)
(0.446498 -0.00020859 -6.78465e-21)
(0.446822 -0.000189302 0)
(0.447121 -0.000173478 0)
(0.447396 -0.000160186 6.67528e-21)
(0.447651 -0.000148752 6.63978e-21)
(0.447888 -0.000138704 0)
(0.448109 -0.000129731 -6.57008e-21)
(0.448315 -0.00012163 0)
(0.448506 -0.000114267 6.50198e-21)
(0.448686 -0.000107545 0)
(0.448853 -0.000101391 6.43531e-21)
(0.44901 -9.57474e-05 6.40247e-21)
(0.449158 -9.0567e-05 0)
(0.449296 -8.58119e-05 0)
(0.449426 -8.14505e-05 0)
(0.449548 -7.74564e-05 0)
(0.449663 -7.38069e-05 0)
(0.449772 -7.04815e-05 0)
(0.449875 -6.74605e-05 0)
(0.449973 -6.47246e-05 6.14931e-21)
(0.450066 -6.22537e-05 -6.11866e-21)
(0.450154 -6.00278e-05 0)
(0.450239 -5.80272e-05 0)
(0.450319 -5.62328e-05 0)
(0.450397 -5.4627e-05 0)
(0.450472 -5.31932e-05 -1.1936e-20)
(0.450544 -5.1916e-05 0)
(0.450614 -5.07803e-05 1.18176e-20)
(0.450682 -4.97712e-05 -1.17588e-20)
(0.450749 -4.8873e-05 0)
(0.450813 -4.80704e-05 0)
(0.450877 -4.73472e-05 0)
(0.450939 -4.66872e-05 1.15261e-20)
(0.451 -4.60746e-05 1.14685e-20)
(0.45106 -4.54946e-05 0)
(0.451119 -4.49331e-05 1.13539e-20)
(0.451177 -4.43777e-05 1.12969e-20)
(0.451234 -4.38175e-05 -1.12402e-20)
(0.45129 -4.32435e-05 0)
(0.451346 -4.26485e-05 0)
(0.4514 -4.20264e-05 -1.10712e-20)
(0.451453 -4.13726e-05 0)
(0.451505 -4.0684e-05 0)
(0.451556 -3.99581e-05 0)
(0.451605 -3.9194e-05 0)
(0.463799 -0.0014087 5.28552e-21)
(0.464777 -0.00130065 -5.27843e-21)
(0.465686 -0.00120091 -5.25559e-21)
(0.466531 -0.00110886 0)
(0.467317 -0.00102386 0)
(0.468048 -0.00094532 0)
(0.468727 -0.000872578 -5.16679e-21)
(0.469359 -0.000804976 0)
(0.469946 -0.000741254 1.0239e-20)
(0.470494 -0.00067939 1.52999e-20)
(0.471012 -0.000619836 -1.01556e-20)
(0.471499 -0.000565305 0)
(0.471953 -0.000516889 -5.0332e-21)
(0.472376 -0.00047406 0)
(0.472768 -0.000435994 -9.99129e-21)
(0.473131 -0.00040201 4.97295e-21)
(0.473468 -0.00037153 4.9531e-21)
(0.473781 -0.000344062 0)
(0.474071 -0.000319211 1.47491e-20)
(0.474341 -0.000296659 -9.79199e-21)
(0.474593 -0.000276147 -4.87812e-21)
(0.474827 -0.000257455 0)
(0.475045 -0.000240395 -4.83896e-21)
(0.475249 -0.000224808 -1.44557e-20)
(0.47544 -0.000210555 0)
(0.475618 -0.000197519 -9.5592e-21)
(0.475785 -0.000185596 -9.52083e-21)
(0.475942 -0.000174699 -9.48255e-21)
(0.476089 -0.000164752 0)
(0.476228 -0.000155687 0)
(0.476358 -0.000147439 0)
(0.476481 -0.000139952 4.66415e-21)
(0.476598 -0.000133167 4.6468e-21)
(0.476708 -0.000127032 0)
(0.476813 -0.000121493 9.21596e-21)
(0.476912 -0.000116502 9.17796e-21)
(0.477007 -0.000112011 0)
(0.477098 -0.000107978 9.10324e-21)
(0.477186 -0.00010436 1.81278e-20)
(0.47727 -0.000101118 -9.02707e-21)
(0.477351 -9.82146e-05 -8.98665e-21)
(0.477429 -9.5612e-05 0)
(0.477505 -9.32737e-05 0)
(0.477579 -9.11632e-05 0)
(0.477651 -8.92446e-05 -8.83625e-21)
(0.477722 -8.74829e-05 8.796e-21)
(0.477791 -8.58446e-05 1.75175e-20)
(0.477858 -8.42984e-05 -8.7214e-21)
(0.477925 -8.28151e-05 8.68118e-21)
(0.47799 -8.13686e-05 8.64469e-21)
(0.478055 -7.99356e-05 0)
(0.478118 -7.84959e-05 0)
(0.478181 -7.70313e-05 -8.52775e-21)
(0.478242 -7.55266e-05 0)
(0.478302 -7.39687e-05 0)
(0.478362 -7.23459e-05 1.68269e-20)
(0.47842 -7.06512e-05 0)
(0.472274 -0.00242501 -8.32138e-21)
(0.473295 -0.00223906 0)
(0.474245 -0.00206729 0)
(0.475128 -0.00190865 0)
(0.475949 -0.00176215 0)
(0.476712 -0.00162682 0)
(0.477421 -0.00150177 -8.14726e-21)
(0.478081 -0.00138614 0)
(0.478694 -0.00127911 -8.09981e-21)
(0.479265 -0.00117983 -8.0724e-21)
(0.479798 -0.00108727 8.04494e-21)
(0.480295 -0.00100102 0)
(0.48076 -0.000921409 7.9894e-21)
(0.481194 -0.000848556 0)
(0.481597 -0.000782219 7.93415e-21)
(0.481973 -0.000721964 -7.90661e-21)
(0.482322 -0.00066727 -2.36304e-20)
(0.482646 -0.000617602 0)
(0.482948 -0.000572452 -2.34668e-20)
(0.483228 -0.000531364 -7.79135e-21)
(0.483489 -0.000493932 0)
(0.483733 -0.000459795 -1.54796e-20)
(0.483959 -0.000428634 -1.54252e-20)
(0.484171 -0.00040017 2.30582e-20)
(0.484369 -0.000374155 0)
(0.484553 -0.000350372 7.63259e-21)
(0.484726 -0.000328632 7.60512e-21)
(0.484888 -0.000308768 2.27297e-20)
(0.48504 -0.000290633 0)
(0.485183 -0.000274095 0)
(0.485318 -0.000259034 0)
(0.485445 -0.000245341 7.4645e-21)
(0.485565 -0.000232912 0)
(0.485678 -0.000221649 0)
(0.485786 -0.00021146 -7.38294e-21)
(0.485888 -0.000202257 -7.35479e-21)
(0.485986 -0.000193958 0)
(0.486079 -0.000186485 0)
(0.486168 -0.000179763 -1.45394e-20)
(0.486254 -0.000173725 0)
(0.486337 -0.000168304 1.44249e-20)
(0.486417 -0.000163435 1.43659e-20)
(0.486494 -0.000159057 0)
(0.486569 -0.000155109 0)
(0.486642 -0.000151532 -1.4192e-20)
(0.486714 -0.000148268 -1.21055e-24)
(0.486783 -0.000145262 -1.17534e-24)
(0.486852 -0.00014246 0)
(0.486919 -0.000139815 -2.7915e-20)
(0.486985 -0.000137279 0)
(0.48705 -0.000134812 0)
(0.487113 -0.000132375 0)
(0.487176 -0.000129935 1.37198e-20)
(0.487238 -0.000127463 0)
(0.487299 -0.000124931 -2.71974e-20)
(0.487359 -0.000122318 -1.35394e-20)
(0.487417 -0.000119603 0)
(0.477178 -0.00348887 -1.41626e-20)
(0.478221 -0.00322142 1.41236e-20)
(0.479191 -0.00297425 1.40844e-20)
(0.480093 -0.00274589 -1.40448e-20)
(0.480931 -0.00253495 -1.40049e-20)
(0.481711 -0.00234012 0)
(0.482436 -0.00216021 -6.95637e-21)
(0.483109 -0.00199406 0)
(0.483735 -0.00184062 0)
(0.484317 -0.00169885 -1.38017e-20)
(0.484859 -0.00156759 0)
(0.485364 -0.00144599 0)
(0.485834 -0.00133369 -1.3675e-20)
(0.486272 -0.00123041 0)
(0.48668 -0.00113574 0)
(0.48706 -0.00104916 0)
(0.487413 -0.000970094 2.70114e-20)
(0.487742 -0.000897939 0)
(0.488047 -0.000832105 2.68374e-20)
(0.488332 -0.000772034 1.33771e-20)
(0.488596 -0.000717205 1.33292e-20)
(0.488843 -0.000667143 3.63515e-24)
(0.489072 -0.000621416 1.32449e-20)
(0.489287 -0.000579634 -2.63978e-20)
(0.489486 -0.000541448 -1.3153e-20)
(0.489673 -0.000506547 0)
(0.489848 -0.000474654 -1.30638e-20)
(0.490012 -0.000445522 -2.604e-20)
(0.490165 -0.000418931 0)
(0.490309 -0.000394682 0)
(0.490445 -0.000372597 0)
(0.490572 -0.000352509 -1.73007e-24)
(0.490693 -0.000334266 0)
(0.490807 -0.000317723 0)
(0.490915 -0.000302746 0)
(0.491018 -0.000289206 0)
(0.491115 -0.000276985 2.52064e-20)
(0.491209 -0.000265969 0)
(0.491298 -0.000256052 -2.50158e-20)
(0.491384 -0.000247133 0)
(0.491466 -0.000239117 -2.4823e-20)
(0.491546 -0.000231913 -1.23638e-20)
(0.491623 -0.000225432 2.46279e-20)
(0.491697 -0.000219588 -2.45295e-20)
(0.49177 -0.0002143 -1.22145e-20)
(0.491841 -0.000209487 1.21648e-20)
(0.49191 -0.000205071 -1.21164e-20)
(0.491977 -0.000200979 0)
(0.492044 -0.000197142 -1.20141e-20)
(0.492109 -0.000193496 0)
(0.492173 -0.00018998 0)
(0.492236 -0.000186541 0)
(0.492298 -0.000183128 -2.3621e-20)
(0.492359 -0.000179697 0)
(0.492419 -0.00017621 1.21078e-24)
(0.492478 -0.000172629 0)
(0.492536 -0.000168925 0)
(0.48063 -0.00456931 2.53483e-20)
(0.481681 -0.00421904 -1.26496e-20)
(0.482659 -0.0038952 -2.52213e-20)
(0.483568 -0.00359591 1.25843e-20)
(0.484413 -0.00331939 1.25511e-20)
(0.485199 -0.00306398 0)
(0.485929 -0.00282815 9.64653e-24)
(0.486608 -0.00261046 0)
(0.487239 -0.00240958 -1.24066e-20)
(0.487825 -0.0022242 1.23801e-20)
(0.48837 -0.00205304 0)
(0.488876 -0.00189495 0)
(0.489348 -0.00174911 1.22717e-20)
(0.489787 -0.00161483 -1.22291e-20)
(0.490195 -0.00149143 0)
(0.490576 -0.00137823 0)
(0.490929 -0.00127454 -1.21232e-20)
(0.491258 -0.00117966 0)
(0.491564 -0.00109288 -1.20481e-20)
(0.491848 -0.00101355 0)
(0.492113 -0.000941051 -1.19722e-20)
(0.49236 -0.000874785 1.1934e-20)
(0.492589 -0.00081422 -2.37856e-20)
(0.492803 -0.000758863 1.1857e-20)
(0.493003 -0.000708266 1.18182e-20)
(0.493189 -0.000662026 0)
(0.493363 -0.000619779 1.17398e-20)
(0.493527 -0.000581198 1.17003e-20)
(0.493679 -0.000545989 0)
(0.493823 -0.000513885 0)
(0.493958 -0.000484644 2.31571e-20)
(0.494085 -0.000458043 -1.15395e-20)
(0.494204 -0.000433877 2.29945e-20)
(0.494317 -0.000411955 0)
(0.494425 -0.000392097 0)
(0.494526 -0.000374136 0)
(0.494623 -0.000357912 -4.53268e-20)
(0.494715 -0.000343279 0)
(0.494804 -0.000330096 2.24945e-20)
(0.494888 -0.000318231 0)
(0.494969 -0.000307559 2.23223e-20)
(0.495048 -0.000297961 0)
(0.495124 -0.000289323 -2.21477e-20)
(0.495197 -0.000281535 2.20595e-20)
(0.495268 -0.00027449 2.19708e-20)
(0.495338 -0.000268087 -2.18815e-20)
(0.495405 -0.000262227 0)
(0.495472 -0.000256816 0)
(0.495537 -0.000251767 1.10958e-24)
(0.4956 -0.000246997 0)
(0.495663 -0.000242428 0)
(0.495724 -0.00023799 0)
(0.495785 -0.000233617 2.12414e-20)
(0.495844 -0.000229252 0)
(0.495903 -0.00022484 2.10544e-20)
(0.495961 -0.000220335 0)
(0.496018 -0.000215688 2.08649e-20)
(0.483321 -0.00565002 -1.16752e-20)
(0.484368 -0.00521696 0)
(0.485343 -0.00481644 1.16205e-20)
(0.486249 -0.00444615 0)
(0.487092 -0.00410397 -1.15541e-20)
(0.487875 -0.00378788 0)
(0.488603 -0.00349601 8.4943e-24)
(0.48928 -0.00322661 0)
(0.489909 -0.00297805 1.14458e-20)
(0.490493 -0.00274878 0)
(0.491035 -0.00253731 0)
(0.49154 -0.00234228 0)
(0.492009 -0.0021625 0)
(0.492445 -0.00199696 1.12865e-20)
(0.49285 -0.00184473 0)
(0.493227 -0.00170491 0)
(0.493578 -0.00157665 2.23654e-20)
(0.493904 -0.00145909 0)
(0.494207 -0.00135142 0)
(0.494489 -0.00125288 0)
(0.494751 -0.00116273 2.20958e-20)
(0.494995 -0.00108027 0)
(0.495223 -0.00100487 2.19632e-20)
(0.495434 -0.000935926 0)
(0.495632 -0.000872908 -2.18185e-20)
(0.495816 -0.000815317 2.17479e-20)
(0.495988 -0.000762706 0)
(0.496149 -0.000714667 -2.16049e-20)
(0.4963 -0.000670834 0)
(0.496441 -0.00063087 0)
(0.496574 -0.000594472 -4.27751e-20)
(0.496699 -0.000561358 2.13121e-20)
(0.496816 -0.00053127 -2.12397e-20)
(0.496927 -0.000503968 0)
(0.497033 -0.000479229 0)
(0.497132 -0.000456843 0)
(0.497227 -0.000436614 4.18669e-20)
(0.497318 -0.000418358 0)
(0.497404 -0.000401902 -2.07764e-20)
(0.497487 -0.000387082 0)
(0.497566 -0.000373745 0)
(0.497642 -0.000361744 0)
(0.497716 -0.000350938 0)
(0.497788 -0.000341194 -2.03754e-20)
(0.497857 -0.000332382 0)
(0.497924 -0.00032438 2.02108e-20)
(0.49799 -0.000317068 -2.01276e-20)
(0.498055 -0.000310335 -2.00439e-20)
(0.498117 -0.000304074 1.99605e-20)
(0.498179 -0.000298185 0)
(0.49824 -0.000292573 0)
(0.498299 -0.000287154 0)
(0.498358 -0.000281847 0)
(0.498416 -0.00027658 0)
(0.498473 -0.000271286 0)
(0.498529 -0.000265903 0)
(0.498584 -0.000260372 -1.92685e-20)
(0.486601 -0.00620634 0)
(0.487563 -0.00572984 -2.17956e-20)
(0.488458 -0.00528919 0)
(0.48929 -0.00488189 1.08577e-20)
(0.490063 -0.00450559 0)
(0.490782 -0.00415808 -1.079e-20)
(0.49145 -0.0038373 0)
(0.49207 -0.00354134 2.14897e-20)
(0.492647 -0.00326839 2.14355e-20)
(0.493182 -0.00301673 -2.13805e-20)
(0.493679 -0.00278476 0)
(0.494141 -0.00257105 0)
(0.494571 -0.0023743 2.12031e-20)
(0.49497 -0.00219333 0)
(0.49534 -0.00202703 2.10822e-20)
(0.495685 -0.00187436 -7.3193e-24)
(0.496005 -0.00173431 -2.09594e-20)
(0.496303 -0.00160595 0)
(0.49658 -0.00148837 0)
(0.496837 -0.00138072 -2.07769e-20)
(0.497077 -0.00128221 0)
(0.4973 -0.00119209 0)
(0.497507 -0.00110968 -2.05791e-20)
(0.4977 -0.00103434 2.05178e-20)
(0.497881 -0.000965485 -4.08998e-20)
(0.498049 -0.000902589 0)
(0.498206 -0.000845168 2.03178e-20)
(0.498353 -0.00079278 0)
(0.498491 -0.000745022 0)
(0.498621 -0.000701526 4.0223e-20)
(0.498742 -0.000661956 -2.00432e-20)
(0.498857 -0.000625999 0)
(0.498965 -0.000593366 0)
(0.499067 -0.00056379 0)
(0.499164 -0.000537019 0)
(0.499256 -0.00051282 -1.96864e-20)
(0.499344 -0.000490972 1.96117e-20)
(0.499427 -0.00047127 1.95394e-20)
(0.499507 -0.00045352 0)
(0.499584 -0.000437538 0)
(0.499657 -0.00042315 0)
(0.499729 -0.000410191 1.9237e-20)
(0.499797 -0.000398505 3.83215e-20)
(0.499864 -0.000387939 0)
(0.499929 -0.000378349 -5.70155e-20)
(0.499992 -0.000369599 1.89272e-20)
(0.500054 -0.000361557 1.8848e-20)
(0.500114 -0.000354099 0)
(0.500174 -0.000347109 -3.73747e-20)
(0.500232 -0.000340479 0)
(0.500289 -0.000334106 0)
(0.500345 -0.000327899 0)
(0.5004 -0.00032177 0)
(0.500455 -0.00031564 -3.65579e-20)
(0.500509 -0.000309434 0)
(0.500562 -0.00030308 0)
(0.48856 -0.00717831 0)
(0.4895 -0.00662725 2.0756e-20)
(0.490374 -0.00611753 0)
(0.491187 -0.00564627 2.06474e-20)
(0.491943 -0.00521079 0)
(0.492646 -0.00480857 2.0568e-20)
(0.493299 -0.00443725 0)
(0.493905 -0.00409463 -2.04684e-20)
(0.494468 -0.00377864 -4.08231e-20)
(0.494991 -0.00348733 2.03655e-20)
(0.495477 -0.00321888 0)
(0.495928 -0.00297162 -2.02444e-20)
(0.496347 -0.00274402 -2.0197e-20)
(0.496736 -0.00253466 0)
(0.497098 -0.00234223 -2.00822e-20)
(0.497433 -0.00216549 -2.00241e-20)
(0.497745 -0.00200331 1.99655e-20)
(0.498035 -0.00185457 -1.99005e-20)
(0.498304 -0.00171825 1.98414e-20)
(0.498554 -0.0015934 1.97818e-20)
(0.498787 -0.0014791 0)
(0.499003 -0.0013745 0)
(0.499204 -0.00127883 3.98693e-24)
(0.499392 -0.00119136 0)
(0.499567 -0.00111142 1.9479e-20)
(0.499729 -0.00103841 1.94126e-20)
(0.499882 -0.000971751 0)
(0.500024 -0.000910944 0)
(0.500157 -0.000855518 1.922e-20)
(0.500282 -0.000805042 -1.91569e-20)
(0.500399 -0.000759122 0)
(0.500509 -0.000717393 0)
(0.500613 -0.00067952 0)
(0.500711 -0.000645189 1.88869e-20)
(0.500804 -0.000614109 1.88184e-20)
(0.500892 -0.000586008 0)
(0.500976 -0.00056063 -1.86809e-20)
(0.501056 -0.000537738 0)
(0.501132 -0.000517106 0)
(0.501205 -0.000498523 0)
(0.501275 -0.000481789 0)
(0.501343 -0.000466714 -1.83225e-20)
(0.501408 -0.000453118 -1.8249e-20)
(0.501472 -0.000440829 -3.6348e-20)
(0.501533 -0.000429681 3.62004e-20)
(0.501593 -0.00041952 3.60483e-20)
(0.501652 -0.000410197 3.58968e-20)
(0.501709 -0.000401572 0)
(0.501765 -0.000393513 7.11821e-20)
(0.50182 -0.000385897 0)
(0.501874 -0.000378609 0)
(0.501927 -0.000371542 0)
(0.50198 -0.000364598 0)
(0.502031 -0.000357685 3.48081e-20)
(0.502082 -0.000350716 0)
(0.502133 -0.000343603 0)
(0.491266 -0.00750069 1.99284e-20)
(0.492112 -0.00692381 0)
(0.492899 -0.00639034 -1.98606e-20)
(0.49363 -0.00589727 0)
(0.49431 -0.00544177 1.97572e-20)
(0.494942 -0.00502121 0)
(0.495528 -0.0046331 1.96654e-20)
(0.496073 -0.00427512 1.96291e-20)
(0.496579 -0.00394511 -1.95698e-20)
(0.497049 -0.00364101 0)
(0.497485 -0.00336095 3.89383e-20)
(0.497889 -0.00310315 0)
(0.498265 -0.00286602 0)
(0.498614 -0.00264803 0)
(0.498938 -0.00244778 0)
(0.499238 -0.00226396 0)
(0.499517 -0.00209533 1.91422e-20)
(0.499776 -0.00194073 -1.90852e-20)
(0.500017 -0.00179908 -1.90277e-20)
(0.50024 -0.00166936 0)
(0.500448 -0.00155064 0)
(0.500641 -0.00144203 3.82504e-24)
(0.500821 -0.00134273 0)
(0.500988 -0.00125197 1.87291e-20)
(0.501144 -0.00116907 -3.73401e-20)
(0.501289 -0.0010934 0)
(0.501425 -0.00102438 3.70914e-20)
(0.501552 -0.00096147 -5.54525e-20)
(0.501671 -0.000904184 0)
(0.501782 -0.00085207 -3.67137e-20)
(0.501887 -0.000804714 0)
(0.501985 -0.000761732 0)
(0.502078 -0.000722766 -1.81641e-20)
(0.502166 -0.000687486 -1.80979e-20)
(0.502249 -0.000655581 3.60594e-20)
(0.502328 -0.000626764 3.59248e-20)
(0.502403 -0.000600763 0)
(0.502475 -0.000577325 0)
(0.502544 -0.000556209 0)
(0.50261 -0.00053719 0)
(0.502673 -0.000520056 0)
(0.502734 -0.000504602 0)
(0.502794 -0.000490637 6.98977e-20)
(0.502851 -0.000477976 0)
(0.502907 -0.000466448 -1.38639e-24)
(0.502961 -0.000455886 -3.45128e-20)
(0.503015 -0.000446135 3.43638e-20)
(0.503067 -0.000437049 -3.42161e-20)
(0.503118 -0.000428491 0)
(0.503168 -0.000420334 0)
(0.503218 -0.000412458 0)
(0.503267 -0.000404754 0)
(0.503315 -0.000397117 3.34562e-20)
(0.503362 -0.000389447 0)
(0.503409 -0.000381648 3.31464e-20)
(0.492938 -0.00834246 -1.7151e-23)
(0.493748 -0.00770095 -1.92613e-20)
(0.494501 -0.00710757 0)
(0.495201 -0.00655901 0)
(0.495851 -0.00605215 -3.82892e-20)
(0.496456 -0.00558408 0)
(0.497018 -0.00515207 -1.1476e-23)
(0.497539 -0.00475356 0)
(0.498023 -0.00438614 1.8969e-20)
(0.498472 -0.00404757 0)
(0.498889 -0.00373575 -1.88665e-20)
(0.499275 -0.00344872 0)
(0.499634 -0.00318468 0)
(0.499967 -0.00294194 -1.87019e-20)
(0.500276 -0.00271891 0)
(0.500562 -0.00251414 0)
(0.500828 -0.00232625 0)
(0.501074 -0.00215396 1.84864e-20)
(0.501303 -0.00199606 1.84312e-20)
(0.501515 -0.00185144 0)
(0.501712 -0.00171905 3.66382e-20)
(0.501895 -0.00159792 1.82659e-20)
(0.502065 -0.00148716 -3.64093e-20)
(0.502223 -0.00138593 -1.81497e-20)
(0.502371 -0.00129348 -1.80849e-20)
(0.502508 -0.00120908 3.6057e-20)
(0.502635 -0.00113211 -5.03484e-24)
(0.502755 -0.00106196 3.58208e-20)
(0.502866 -0.000998089 3.56938e-20)
(0.50297 -0.000939987 7.11445e-20)
(0.503068 -0.00088719 -3.54455e-20)
(0.50316 -0.000839269 0)
(0.503247 -0.000795825 -3.51922e-20)
(0.503328 -0.000756488 -3.50637e-20)
(0.503405 -0.000720911 -3.49366e-20)
(0.503478 -0.000688772 -2.49374e-24)
(0.503548 -0.000659771 0)
(0.503614 -0.000633624 0)
(0.503677 -0.000610065 0)
(0.503738 -0.000588845 0)
(0.503796 -0.000569726 0)
(0.503852 -0.000552484 0)
(0.503906 -0.000536908 -6.77045e-20)
(0.503959 -0.000522796 0)
(0.50401 -0.000509957 -6.71391e-20)
(0.504059 -0.000498212 0)
(0.504108 -0.000487389 -6.65648e-20)
(0.504155 -0.00047733 0)
(0.504202 -0.000467885 3.29905e-20)
(0.504248 -0.000458915 0)
(0.504293 -0.000450289 -3.26952e-20)
(0.504337 -0.000441885 0)
(0.504381 -0.000433589 -6.47931e-20)
(0.504424 -0.000425291 0)
(0.504467 -0.00041688 -3.20944e-20)
(0.494569 -0.00914525 -1.88235e-20)
(0.495334 -0.00844219 1.87853e-20)
(0.496047 -0.00779172 0)
(0.496709 -0.00719024 0)
(0.497324 -0.00663439 1.86645e-20)
(0.497896 -0.00612097 0)
(0.498427 -0.00564703 -3.71464e-20)
(0.49892 -0.00520978 0)
(0.499377 -0.00480659 0)
(0.499802 -0.00443503 0)
(0.500195 -0.0040928 -1.83805e-20)
(0.50056 -0.00377777 0)
(0.500899 -0.00348794 0)
(0.501212 -0.00322145 5.46935e-20)
(0.501503 -0.00297659 0)
(0.501772 -0.00275174 0)
(0.502022 -0.00254539 0)
(0.502253 -0.00235613 -5.40621e-20)
(0.502468 -0.00218265 -1.79698e-20)
(0.502667 -0.00202373 0)
(0.502851 -0.00187824 -3.57195e-20)
(0.503022 -0.00174511 -3.56004e-20)
(0.50318 -0.00162337 7.0983e-20)
(0.503328 -0.00151211 -3.53746e-20)
(0.503464 -0.00141048 3.52656e-20)
(0.503591 -0.00131773 -5.36124e-24)
(0.503709 -0.00123314 -3.50316e-20)
(0.503819 -0.00115605 0)
(0.503922 -0.00108587 -3.47928e-20)
(0.504018 -0.00102202 -3.46716e-20)
(0.504108 -0.000964017 3.45492e-20)
(0.504192 -0.000911368 0)
(0.504271 -0.000863638 3.0776e-24)
(0.504345 -0.000820418 6.83463e-20)
(0.504415 -0.000781329 0)
(0.504481 -0.000746016 -3.39187e-20)
(0.504544 -0.000714148 0)
(0.504603 -0.000685415 0)
(0.50466 -0.000659525 0)
(0.504714 -0.000636205 0)
(0.504766 -0.000615196 0)
(0.504816 -0.000596254 0)
(0.504864 -0.000579148 3.2985e-20)
(0.504911 -0.000563661 0)
(0.504956 -0.000549584 3.27076e-20)
(0.505 -0.000536724 -3.25661e-20)
(0.505043 -0.000524897 3.24257e-20)
(0.505084 -0.000513931 0)
(0.505126 -0.000503664 -3.21397e-20)
(0.505166 -0.000493947 0)
(0.505206 -0.000484637 7.82145e-25)
(0.505245 -0.000475605 0)
(0.505283 -0.000466724 6.99428e-25)
(0.505322 -0.000457874 0)
(0.505359 -0.000448935 0)
(0.496194 -0.0099021 1.8417e-20)
(0.496909 -0.0091411 0)
(0.497574 -0.00843684 0)
(0.498192 -0.00778549 -1.83063e-20)
(0.498767 -0.0071834 0)
(0.4993 -0.00662719 0)
(0.499796 -0.00611364 1.81969e-20)
(0.500255 -0.00563978 1.81437e-20)
(0.500682 -0.00520277 0)
(0.501077 -0.00479999 0)
(0.501444 -0.00442896 1.80112e-20)
(0.501783 -0.00408739 -3.5908e-20)
(0.502098 -0.00377311 0)
(0.502389 -0.00348412 -3.57225e-20)
(0.502659 -0.00321854 0)
(0.502908 -0.00297463 0)
(0.50314 -0.00275076 -3.54023e-20)
(0.503353 -0.0025454 3.53077e-20)
(0.503551 -0.00235714 3.51921e-20)
(0.503734 -0.00218467 0)
(0.503904 -0.00202674 0)
(0.504061 -0.00188222 3.48755e-20)
(0.504206 -0.00175006 -3.47646e-20)
(0.50434 -0.00162927 3.46526e-20)
(0.504465 -0.00151895 -3.45336e-20)
(0.50458 -0.00141826 -3.44249e-20)
(0.504687 -0.00132644 -3.43043e-20)
(0.504787 -0.00124277 -3.41879e-20)
(0.504879 -0.0011666 0)
(0.504965 -0.00109731 3.39512e-20)
(0.505045 -0.00103437 3.38311e-20)
(0.50512 -0.000977237 0)
(0.50519 -0.000925447 3.359e-20)
(0.505256 -0.000878552 -2.8067e-24)
(0.505317 -0.000836141 3.33379e-20)
(0.505375 -0.000797826 0)
(0.50543 -0.00076325 0)
(0.505482 -0.000732076 0)
(0.505531 -0.000703989 0)
(0.505578 -0.000678692 0)
(0.505623 -0.000655906 0)
(0.505665 -0.000635369 -3.24274e-20)
(0.505707 -0.000616831 0)
(0.505746 -0.00060006 -3.21565e-20)
(0.505785 -0.000584832 0)
(0.505822 -0.000570941 3.18821e-20)
(0.505858 -0.000558189 0)
(0.505894 -0.000546392 0)
(0.505928 -0.00053538 -3.14597e-20)
(0.505962 -0.000524992 0)
(0.505996 -0.000515077 6.23483e-20)
(0.506029 -0.000505494 0)
(0.506061 -0.000496109 3.08848e-20)
(0.506094 -0.000486793 0)
(0.506126 -0.000477417 0)
(0.506158 -0.000467844 0)
(0.497836 -0.0106066 -1.60852e-23)
(0.498494 -0.00979169 0)
(0.499106 -0.00903739 0)
(0.499674 -0.00833959 1.80139e-20)
(0.500203 -0.00769443 0)
(0.500693 -0.0070983 0)
(0.501149 -0.00654781 3.57669e-20)
(0.501571 -0.00603976 1.78321e-20)
(0.501962 -0.00557115 0)
(0.502325 -0.00513918 0)
(0.502661 -0.00474122 0)
(0.502971 -0.0043748 3.53259e-20)
(0.503259 -0.00403762 0)
(0.503525 -0.00372754 0)
(0.503771 -0.00344254 0)
(0.503998 -0.00318076 0)
(0.504208 -0.00294046 6.96366e-20)
(0.504402 -0.00272 -3.471e-20)
(0.504581 -0.00251788 -9.19765e-24)
(0.504747 -0.00233267 3.45007e-20)
(0.504899 -0.00216308 0)
(0.50504 -0.00200787 -3.42866e-20)
(0.50517 -0.00186593 0)
(0.50529 -0.0017362 3.40676e-20)
(0.505401 -0.00161772 3.39621e-20)
(0.505503 -0.00150959 0)
(0.505597 -0.00141099 3.37349e-20)
(0.505685 -0.00132114 6.72345e-20)
(0.505765 -0.00123935 0)
(0.50584 -0.00116497 -3.33851e-20)
(0.50591 -0.00109739 -6.65285e-20)
(0.505974 -0.00103607 0)
(0.506034 -0.00098048 0)
(0.50609 -0.000930149 -6.58003e-20)
(0.506142 -0.000884632 -2.57401e-24)
(0.506191 -0.000843516 0)
(0.506236 -0.000806414 0)
(0.506279 -0.000772967 0)
(0.50632 -0.000742836 -3.22678e-20)
(0.506358 -0.000715704 0)
(0.506395 -0.000691274 0)
(0.506429 -0.000669263 6.37505e-20)
(0.506462 -0.000649408 3.17411e-20)
(0.506494 -0.000631459 3.16077e-20)
(0.506525 -0.000615182 0)
(0.506554 -0.000600354 0)
(0.506583 -0.000586769 -3.11959e-20)
(0.506611 -0.000574233 0)
(0.506639 -0.000562563 -3.09161e-20)
(0.506665 -0.00055159 0)
(0.506692 -0.000541156 -3.06345e-20)
(0.506718 -0.000531111 0)
(0.506744 -0.000521313 -6.06941e-20)
(0.506769 -0.000511625 -6.04047e-20)
(0.506795 -0.000501908 6.01135e-20)
(0.50682 -0.000492021 0)
(0.500103 -0.0103885 3.56573e-20)
(0.500657 -0.00958825 0)
(0.501171 -0.0088478 0)
(0.501648 -0.00816305 -3.5442e-20)
(0.502091 -0.00753022 0)
(0.502502 -0.00694571 -3.53093e-20)
(0.502882 -0.00640617 -3.52272e-20)
(0.503235 -0.00590844 0)
(0.503561 -0.00544954 -3.50243e-20)
(0.503863 -0.00502672 0)
(0.504142 -0.00463735 0)
(0.5044 -0.00427901 3.47404e-20)
(0.504638 -0.00394942 0)
(0.504857 -0.00364646 0)
(0.50506 -0.00336814 0)
(0.505246 -0.00311263 -1.07904e-23)
(0.505418 -0.00287818 3.42534e-20)
(0.505577 -0.00266321 -3.41498e-20)
(0.505722 -0.00246622 -3.4045e-20)
(0.505856 -0.00228582 0)
(0.505979 -0.00212072 6.76566e-20)
(0.506092 -0.00196972 -3.37169e-20)
(0.506196 -0.00183171 -3.36142e-20)
(0.506291 -0.00170567 3.34977e-20)
(0.506379 -0.00159065 0)
(0.506459 -0.00148576 -3.32735e-20)
(0.506533 -0.0013902 -3.31641e-20)
(0.506601 -0.00130321 -3.30443e-20)
(0.506663 -0.00122412 0)
(0.50672 -0.00115226 3.28137e-20)
(0.506773 -0.00108706 0)
(0.506822 -0.00102797 0)
(0.506867 -0.000974465 6.49018e-20)
(0.506908 -0.000926089 -3.23294e-20)
(0.506947 -0.000882395 0)
(0.506982 -0.000842974 0)
(0.507015 -0.000807443 0)
(0.507046 -0.000775443 3.18255e-20)
(0.507075 -0.000746638 0)
(0.507102 -0.000720711 0)
(0.507128 -0.000697365 -3.14349e-20)
(0.507152 -0.000676322 -3.13023e-20)
(0.507175 -0.000657317 -6.23349e-20)
(0.507197 -0.000640104 6.20654e-20)
(0.507218 -0.00062445 -6.17938e-20)
(0.507239 -0.000610136 3.07608e-20)
(0.507258 -0.00059696 0)
(0.507278 -0.000584732 6.09674e-20)
(0.507296 -0.000573272 0)
(0.507315 -0.000562415 0)
(0.507333 -0.000552005 0)
(0.507351 -0.000541893 5.98355e-20)
(0.507369 -0.000531934 1.19095e-19)
(0.507387 -0.000521984 -5.92588e-20)
(0.507406 -0.000511893 -5.8967e-20)
(0.50174 -0.0109266 -3.54372e-20)
(0.50223 -0.0100849 0)
(0.502685 -0.00930594 0)
(0.503107 -0.00858538 3.5221e-20)
(0.503499 -0.00791931 0)
(0.503861 -0.00730398 0)
(0.504197 -0.00673588 3.4962e-20)
(0.504508 -0.00621171 0)
(0.504795 -0.00572836 3.47983e-20)
(0.50506 -0.00528293 3.46872e-20)
(0.505304 -0.00487269 0)
(0.50553 -0.00449508 -3.45124e-20)
(0.505737 -0.00414772 0)
(0.505928 -0.00382838 0)
(0.506103 -0.00353498 0)
(0.506265 -0.00326558 -6.82182e-20)
(0.506412 -0.00301838 -3.4002e-20)
(0.506548 -0.00279169 0)
(0.506672 -0.00258394 0)
(0.506785 -0.00239367 0)
(0.506889 -0.00221953 -7.52446e-24)
(0.506984 -0.00206026 6.69576e-20)
(0.50707 -0.00191469 -3.33662e-20)
(0.507149 -0.00178175 -3.32616e-20)
(0.50722 -0.00166044 -3.3144e-20)
(0.507285 -0.00154982 6.60669e-20)
(0.507344 -0.00144904 3.29166e-20)
(0.507398 -0.00135733 3.28053e-20)
(0.507447 -0.00127393 0)
(0.507491 -0.00119818 0)
(0.507531 -0.00112946 0)
(0.507567 -0.00106718 0)
(0.5076 -0.0010108 -6.44098e-20)
(0.50763 -0.000959836 -3.20801e-20)
(0.507657 -0.000913812 -3.19555e-20)
(0.507682 -0.0008723 0)
(0.507704 -0.000834894 0)
(0.507724 -0.000801218 0)
(0.507743 -0.000770916 0)
(0.50776 -0.000743659 0)
(0.507776 -0.000719132 0)
(0.50779 -0.000697044 0)
(0.507803 -0.000677118 6.18288e-20)
(0.507816 -0.000659096 -6.15571e-20)
(0.507828 -0.000642736 6.12831e-20)
(0.507839 -0.00062781 0)
(0.50785 -0.000614107 0)
(0.50786 -0.000601427 0)
(0.50787 -0.000589587 6.01643e-20)
(0.50788 -0.000578414 0)
(0.507889 -0.000567745 0)
(0.507899 -0.000557425 0)
(0.507909 -0.000547304 -5.90163e-20)
(0.507919 -0.000537234 0)
(0.507929 -0.000527059 1.16861e-19)
(0.503434 -0.0114124 0)
(0.503855 -0.0105332 3.41457e-20)
(0.504246 -0.00971913 -3.40892e-20)
(0.504609 -0.00896604 0)
(0.504944 -0.00826973 0)
(0.505255 -0.00762634 -3.39059e-20)
(0.505541 -0.00703223 -2.14761e-23)
(0.505806 -0.00648395 0)
(0.50605 -0.00597828 -3.36799e-20)
(0.506275 -0.0055122 -3.36184e-20)
(0.506482 -0.00508288 3.35205e-20)
(0.506672 -0.00468764 0)
(0.506846 -0.00432402 -3.33557e-20)
(0.507006 -0.00398969 0)
(0.507152 -0.00368248 -3.31858e-20)
(0.507285 -0.00340037 3.31103e-20)
(0.507406 -0.00314148 3.30212e-20)
(0.507517 -0.00290405 0)
(0.507617 -0.00268644 0)
(0.507709 -0.00248713 0)
(0.507791 -0.00230471 -3.26525e-20)
(0.507865 -0.00213787 -6.51069e-20)
(0.507932 -0.00198539 6.4914e-20)
(0.507993 -0.00184614 0)
(0.508047 -0.00171906 3.22629e-20)
(0.508095 -0.00160321 -6.43192e-20)
(0.508138 -0.00149768 -4.84328e-24)
(0.508176 -0.00140164 3.19524e-20)
(0.50821 -0.00131433 -3.18481e-20)
(0.508239 -0.00123503 3.17424e-20)
(0.508266 -0.0011631 0)
(0.508288 -0.00109793 0)
(0.508308 -0.00103895 3.14202e-20)
(0.508325 -0.000985646 3.13089e-20)
(0.50834 -0.000937522 3.11962e-20)
(0.508352 -0.000894129 0)
(0.508363 -0.000855045 0)
(0.508371 -0.000819874 0)
(0.508379 -0.000788246 0)
(0.508384 -0.000759815 0)
(0.508389 -0.000734256 0)
(0.508393 -0.000711262 6.07393e-20)
(0.508396 -0.000690547 -6.04935e-20)
(0.508398 -0.000671843 -6.02452e-20)
(0.508399 -0.000654897 5.99944e-20)
(0.5084 -0.000639475 0)
(0.508401 -0.000625357 0)
(0.508401 -0.000612338 0)
(0.508402 -0.000600227 -5.89693e-20)
(0.508402 -0.000588846 -5.87058e-20)
(0.508402 -0.000578026 0)
(0.508402 -0.00056761 5.81752e-20)
(0.508403 -0.000557441 0)
(0.508404 -0.000547367 0)
(0.508405 -0.00053723 -1.14729e-19)
(0.505112 -0.0118212 0)
(0.505463 -0.0109101 -3.49467e-20)
(0.505788 -0.0100664 6.97136e-20)
(0.506089 -0.00928574 -3.47662e-20)
(0.506367 -0.00856377 -3.46867e-20)
(0.506624 -0.00789653 3.46259e-20)
(0.506861 -0.00728027 -3.45305e-20)
(0.507079 -0.00671144 0)
(0.507279 -0.00618672 1.81428e-23)
(0.507462 -0.005703 3.42201e-20)
(0.50763 -0.00525735 -3.41368e-20)
(0.507784 -0.00484703 3.40208e-20)
(0.507924 -0.00446947 3.39331e-20)
(0.508051 -0.00412227 3.38168e-20)
(0.508167 -0.00380321 1.18875e-23)
(0.508271 -0.00351018 0)
(0.508366 -0.00324124 0)
(0.508451 -0.00299457 3.33951e-20)
(0.508527 -0.00276849 0)
(0.508595 -0.00256142 -3.31774e-20)
(0.508656 -0.00237189 3.30667e-20)
(0.508709 -0.00219854 3.29619e-20)
(0.508757 -0.00204011 -6.46737e-24)
(0.508798 -0.00189543 0)
(0.508834 -0.00176342 0)
(0.508865 -0.00164307 3.25011e-20)
(0.508891 -0.00153346 -4.70242e-24)
(0.508913 -0.00143372 -3.22639e-20)
(0.508932 -0.00134306 3.21436e-20)
(0.508947 -0.00126074 -3.20222e-20)
(0.508958 -0.00118608 0)
(0.508967 -0.00111844 0)
(0.508973 -0.00105726 0)
(0.508977 -0.00100197 0)
(0.508979 -0.000952072 0)
(0.508979 -0.000907102 0)
(0.508978 -0.000866616 0)
(0.508974 -0.000830206 0)
(0.50897 -0.000797487 0)
(0.508964 -0.000768101 0)
(0.508958 -0.000741711 -6.12243e-20)
(0.50895 -0.000718 -6.0958e-20)
(0.508942 -0.000696672 1.21372e-19)
(0.508934 -0.000677452 1.20826e-19)
(0.508924 -0.000660078 -6.01388e-20)
(0.508915 -0.000644309 -5.98602e-20)
(0.508905 -0.000629919 0)
(0.508896 -0.000616698 0)
(0.508886 -0.00060445 0)
(0.508876 -0.000592993 1.17472e-19)
(0.508867 -0.000582154 0)
(0.508858 -0.00057177 -5.81637e-20)
(0.508849 -0.000561685 0)
(0.50884 -0.000551741 0)
(0.508832 -0.000541781 5.72933e-20)
(0.506948 -0.0112032 -3.52026e-20)
(0.507212 -0.0103363 -3.51374e-20)