/*--------------------------------*- C++ -*----------------------------------*\
  =========                 |
  \\      /  F ield         | OpenFOAM: The Open Source CFD Toolbox
   \\    /   O peration     | Website:  https://openfoam.org
    \\  /    A nd           | Version:  6
     \\/     M anipulation  |
\*---------------------------------------------------------------------------*/
FoamFile
{
    version     2.0;
    format      ascii;
    class       volScalarField;
    location    "0.04";
    object      epsilon;
}
// * * * * * * * * * * * * * * * * * * * * * * * * * * * * * * * * * * * * * //

dimensions      [0 2 -3 0 0 0 0];

internalField   nonuniform List<scalar> 
12225
(
307.543
159.151
103.261
76.2903
61.0648
51.5986
45.2399
40.6724
37.2138
34.494
32.3003
30.5171
29.052
27.8495
26.8806
26.1392
25.7018
25.7874
71.596
59.7455
44.4118
34.3584
27.8277
23.3956
20.2622
17.9608
16.2086
14.8317
13.7235
12.8203
12.074
11.451
10.9288
10.4905
10.1294
9.82731
33.6093
34.3967
29.2838
24.3853
20.5425
17.6256
15.4066
13.6945
12.3484
11.2691
10.3885
9.66144
9.05417
8.54184
8.10637
7.73382
7.41392
7.1353
22.4926
24.1921
22.2166
19.5384
17.0659
14.9899
13.2974
11.9254
10.8077
9.88851
9.12462
8.48455
7.94339
7.4822
7.08655
6.74512
6.44911
6.19195
18.0514
19.1623
18.2216
16.5917
14.8953
13.3523
12.0192
10.8903
9.93974
9.13807
8.45894
7.88093
7.38605
6.95994
6.59122
6.27075
5.99141
5.74908
15.9655
16.3975
15.7632
14.6393
13.394
12.199
11.1205
10.1744
9.3549
8.64788
8.03817
7.51137
7.05474
6.65755
6.31091
6.00754
5.74176
5.51089
14.9024
14.7875
14.1865
13.2971
12.3118
11.3429
10.4444
9.636
8.92013
8.29089
7.73973
7.25707
6.83394
6.46234
6.13538
5.84728
5.59357
5.3725
14.34
13.8246
13.1576
12.3623
11.5209
10.6956
9.92172
9.21525
8.58012
8.01419
7.51216
7.06758
6.67401
6.32539
6.01637
5.74233
5.49975
5.28756
14.0384
13.245
12.4854
11.7125
10.9441
10.2059
9.5157
8.88252
8.30883
7.79307
7.33142
6.91911
6.55121
6.22301
5.9302
5.66905
5.43676
5.23274
13.8766
12.8988
12.051
11.2662
10.5287
9.83969
9.20305
8.62068
8.09212
7.6149
7.18545
6.7997
6.45354
6.14302
5.86453
5.61496
5.39202
5.19543
13.7905
12.6953
11.7758
10.9662
10.2358
9.57143
8.96683
8.41799
7.92115
7.47239
7.06769
6.70307
6.37468
6.07898
5.81275
5.57325
5.35857
5.16857
13.7488
12.5879
11.6201
10.7864
10.0518
9.39623
8.80756
8.27762
7.80012
7.36973
6.98174
6.63188
6.3163
6.03155
5.77457
5.54284
5.3346
5.14978
13.7253
12.5234
11.5208
10.6659
9.92334
9.26962
8.68909
8.17066
7.70602
7.28858
6.91287
6.57424
6.26866
5.99265
5.74321
5.51788
5.31503
5.13458
13.7116
12.4831
11.4548
10.5814
9.82889
9.17278
8.59535
8.08355
7.62749
7.21942
6.85311
6.52345
6.22613
5.95755
5.71464
5.49498
5.29695
5.12045
13.7045
12.4609
11.4163
10.5291
9.76741
9.10685
8.529
8.01977
7.56825
7.16587
6.80576
6.48234
6.19104
5.92803
5.69016
5.47496
5.28078
5.10743
13.7012
12.4504
11.397
10.5014
9.73299
9.0681
8.48826
7.97903
7.52904
7.12925
6.77237
6.45251
6.16481
5.90528
5.67066
5.45839
5.26676
5.09549
13.7
12.4463
11.3889
10.4892
9.71697
9.04909
8.46726
7.95705
7.50694
7.10771
6.75189
6.43338
6.14718
5.88918
5.65602
5.44507
5.25457
5.08417
13.6997
12.445
11.3864
10.485
9.71122
9.04186
8.45878
7.94761
7.49683
7.09718
6.74112
6.42249
6.13624
5.8782
5.64496
5.43387
5.24313
5.07237
13.6998
12.4453
11.3869
10.4858
9.71204
9.04257
8.45921
7.94755
7.49607
7.09554
6.73842
6.41859
6.13099
5.87148
5.63667
5.42392
5.23147
5.05898
13.701
12.4493
11.3945
10.4972
9.7268
9.05983
8.47786
7.96648
7.51424
7.11206
6.75258
6.42984
6.13894
5.87587
5.63733
5.42077
5.22453
5.04841
13.7054
12.4634
11.42
10.5333
9.77116
9.10929
8.52934
8.01729
7.5623
7.15583
6.79104
6.46237
6.16524
5.89586
5.65109
5.42849
5.22649
5.04509
13.7205
12.5083
11.495
10.6318
9.88402
9.22776
8.64641
8.12796
7.66335
7.24545
6.86844
6.52746
6.21838
5.93767
5.68233
5.44998
5.23908
5.04982
13.7671
12.6334
11.6848
10.8603
10.1268
9.46672
8.86996
8.32972
7.84058
7.39775
6.99679
6.63359
6.30432
6.00554
5.73416
5.48763
5.2643
5.06441
13.9008
12.9467
12.1097
11.3266
10.5856
9.89035
9.24566
8.65404
8.11523
7.62694
7.18569
6.78745
6.42811
6.10366
5.81046
5.54538
5.30628
5.09329
14.2609
13.6666
12.9757
12.1909
11.3738
10.5745
9.82286
9.13282
8.50836
7.94778
7.44655
6.99901
6.59929
6.24182
5.92156
5.63423
5.37671
5.14874
15.1943
15.233
14.637
13.6963
12.6475
11.6178
10.665
9.80969
9.05326
8.38877
7.80616
7.29486
6.84505
6.448
6.09626
5.78363
5.50555
5.26095
17.6337
18.6193
17.7668
16.2602
14.6638
13.1868
11.8913
10.7804
9.83492
9.03048
8.34347
7.75346
7.24351
6.79989
6.41153
6.06965
5.76772
5.50355
24.7051
26.4238
23.9031
20.7816
17.9972
15.6973
13.8403
12.3454
11.1339
10.1411
9.3174
8.62549
8.03756
7.53273
7.09519
6.7129
6.37699
6.08368
51.9641
47.7357
37.7977
30.1682
24.749
20.8589
18.0091
15.871
14.2237
12.9205
11.8648
10.9922
10.2584
9.63238
9.0919
8.62059
8.20653
7.84382
251.827
137.35
90.7575
67.0826
53.2382
44.4285
38.4487
34.1488
30.8975
28.3361
26.252
24.5132
23.0343
21.7571
20.6406
19.6549
18.7779
17.9954
0.37284
0.664011
1.04534
1.39215
1.70965
2.00401
2.2791
2.53755
2.78141
3.01247
3.23231
3.44235
3.64383
3.83788
4.02562
4.20829
4.38757
4.56592
4.74681
4.93524
5.11831
5.29263
5.45728
5.61142
5.75424
5.88497
6.00297
6.10775
6.1991
6.27706
6.34211
6.39534
6.43863
6.47454
6.50592
6.53335
6.55308
6.56276
6.56192
6.5509
6.53033
6.501
6.46376
6.41949
6.36913
6.31359
6.25375
6.19048
6.1246
6.05688
5.98802
5.91866
5.84937
5.78066
5.71298
5.6467
5.58213
5.51952
5.45908
5.40097
5.34529
5.29211
5.24147
5.19339
5.14785
5.1048
5.06421
5.026
4.99009
4.95642
4.92487
4.89538
4.86783
4.84213
4.8182
4.79593
4.77524
4.75604
4.73824
4.72176
4.70653
4.69246
4.67949
4.66755
4.65658
4.64651
4.63729
4.62886
4.62118
4.6142
4.60787
4.60215
4.59701
4.5924
4.5883
4.58468
4.58149
4.57873
4.57634
4.57431
4.57261
4.57116
4.56998
4.56934
4.5691
4.56916
4.56947
4.56998
4.57069
4.57157
4.57262
4.57381
4.57514
4.57661
4.57821
4.57992
4.58175
4.58369
4.58574
4.58788
4.59012
4.59245
4.59487
4.59738
4.59996
4.60263
4.60537
4.60818
4.61107
4.61402
4.61703
4.62012
4.62326
4.62647
4.62973
4.63305
4.63643
4.63986
4.64335
4.64688
4.65047
4.6541
4.65777
4.6615
4.66526
4.66907
4.67293
4.67682
4.68076
4.68474
4.68876
4.69283
4.69693
4.70108
4.70527
4.70949
4.71375
4.71804
4.72236
4.7267
4.73105
4.7354
4.73974
4.74405
4.74831
4.75248
4.75651
4.76036
4.76392
4.76709
4.7697
4.7715
4.77212
4.77096
4.76703
4.75847
4.74164
4.70858
4.64303
4.51151
1.58056
1.03512
1.10788
1.24775
1.39684
1.5408
1.6753
1.79933
1.91316
2.01757
2.11355
2.20212
2.28432
2.3611
2.43342
2.50217
2.56825
2.63255
2.69592
2.7592
2.82207
2.88258
2.94009
2.99429
3.04491
3.09173
3.13453
3.17312
3.20738
3.23722
3.26263
3.28368
3.30049
3.31321
3.32195
3.32663
3.32703
3.32322
3.31535
3.30366
3.28843
3.27
3.24873
3.22498
3.19911
3.1715
3.14249
3.11243
3.08165
3.05043
3.01905
2.98776
2.95678
2.9263
2.89647
2.86745
2.83933
2.81222
2.78617
2.76122
2.73742
2.71478
2.69329
2.67295
2.65374
2.63564
2.6186
2.6026
2.5876
2.57354
2.5604
2.54812
2.53666
2.52597
2.51602
2.50676
2.49815
2.49015
2.48272
2.47583
2.46945
2.46354
2.45807
2.45301
2.44834
2.44403
2.44006
2.43641
2.43305
2.42996
2.42714
2.42455
2.42219
2.42004
2.41808
2.41631
2.41471
2.41327
2.41198
2.41083
2.40981
2.40891
2.40813
2.40757
2.40717
2.40689
2.4067
2.4066
2.40656
2.40659
2.40668
2.40681
2.40699
2.40722
2.4075
2.40781
2.40816
2.40855
2.40897
2.40943
2.40992
2.41044
2.41099
2.41157
2.41218
2.41281
2.41347
2.41415
2.41486
2.41558
2.41633
2.4171
2.4179
2.41871
2.41954
2.42038
2.42125
2.42213
2.42303
2.42395
2.42488
2.42583
2.42679
2.42776
2.42875
2.42975
2.43077
2.4318
2.43284
2.4339
2.43496
2.43605
2.43714
2.43825
2.43937
2.44051
2.44166
2.44281
2.44398
2.44516
2.44635
2.44755
2.44875
2.44995
2.45114
2.45233
2.4535
2.45465
2.45575
2.45679
2.45775
2.45859
2.45926
2.4597
2.45981
2.45947
2.45862
2.45739
2.45765
2.46916
2.64418
1.43721
1.35069
1.40367
1.49212
1.58945
1.68595
1.77767
1.86312
1.94205
2.01479
2.08197
2.14433
2.20264
2.25765
2.31006
2.36047
2.40942
2.45734
2.50456
2.55091
2.59581
2.63892
2.67996
2.71869
2.75487
2.78826
2.81863
2.84576
2.86947
2.88959
2.90603
2.91869
2.92752
2.93251
2.93365
2.93103
2.92483
2.91527
2.90256
2.88698
2.86882
2.84836
2.82594
2.80187
2.77646
2.75001
2.72281
2.69515
2.66728
2.63942
2.6118
2.58458
2.55794
2.53201
2.50689
2.48269
2.45945
2.43724
2.41609
2.396
2.37699
2.35904
2.34214
2.32626
2.31136
2.29742
2.28439
2.27222
2.26088
2.25031
2.24048
2.23135
2.22286
2.21498
2.20767
2.20089
2.1946
2.18878
2.18338
2.17839
2.17376
2.16948
2.16552
2.16186
2.15847
2.15534
2.15245
2.14978
2.14732
2.14504
2.14294
2.14101
2.13923
2.13759
2.13609
2.13471
2.13344
2.13228
2.13121
2.13024
2.12936
2.12856
2.12786
2.12727
2.12676
2.12632
2.12594
2.12562
2.12534
2.1251
2.1249
2.12474
2.1246
2.1245
2.12442
2.12437
2.12435
2.12434
2.12436
2.1244
2.12446
2.12454
2.12463
2.12475
2.12488
2.12502
2.12518
2.12535
2.12554
2.12574
2.12595
2.12617
2.1264
2.12665
2.1269
2.12717
2.12744
2.12773
2.12802
2.12832
2.12862
2.12894
2.12926
2.12958
2.12992
2.13026
2.1306
2.13096
2.13131
2.13168
2.13205
2.13243
2.13281
2.1332
2.13359
2.13399
2.1344
2.13481
2.13522
2.13564
2.13606
2.13648
2.1369
2.13732
2.13773
2.13813
2.13852
2.13888
2.1392
2.13949
2.1397
2.13983
2.13983
2.13967
2.1393
2.1387
2.13805
2.13839
2.1446
3.56762
1.80133
1.59357
1.58735
1.63736
1.7069
1.78233
1.85762
1.93001
1.99835
2.06238
2.12229
2.1785
2.23154
2.28196
2.3303
2.377
2.42244
2.46692
2.51064
2.55339
2.59488
2.63482
2.67296
2.70904
2.74277
2.77389
2.80212
2.82721
2.84893
2.86709
2.88153
2.89213
2.89883
2.9016
2.9005
2.89567
2.88732
2.87568
2.86098
2.84351
2.82354
2.8014
2.77739
2.75183
2.72504
2.69733
2.66898
2.64026
2.61144
2.58275
2.5544
2.52656
2.4994
2.47305
2.44762
2.4232
2.39984
2.3776
2.35649
2.33653
2.31771
2.30002
2.28343
2.26791
2.25343
2.23993
2.22736
2.21569
2.20486
2.19481
2.18551
2.1769
2.16893
2.16157
2.15476
2.14847
2.14265
2.13728
2.13232
2.12773
2.1235
2.11959
2.11597
2.11263
2.10954
2.10668
2.10404
2.1016
2.09933
2.09724
2.09531
2.09351
2.09185
2.09032
2.08889
2.08757
2.08635
2.08522
2.08417
2.0832
2.0823
2.08147
2.08071
2.08002
2.0794
2.07883
2.07832
2.07785
2.07742
2.07702
2.07665
2.07632
2.076
2.07571
2.07545
2.0752
2.07497
2.07476
2.07457
2.07439
2.07423
2.07408
2.07395
2.07383
2.07371
2.07361
2.07352
2.07344
2.07337
2.07331
2.07326
2.07321
2.07317
2.07314
2.07311
2.07309
2.07307
2.07306
2.07306
2.07306
2.07306
2.07307
2.07308
2.07309
2.07311
2.07313
2.07315
2.07317
2.0732
2.07323
2.07326
2.0733
2.07333
2.07337
2.07342
2.07346
2.07351
2.07355
2.0736
2.07365
2.0737
2.07375
2.07379
2.07383
2.07386
2.07388
2.07389
2.07387
2.07383
2.07376
2.07363
2.07343
2.07314
2.07272
2.07215
2.07139
2.07054
2.07012
2.07231
4.41398
2.13582
1.82392
1.771
1.79269
1.84283
1.90432
1.96945
2.03445
2.09748
2.15779
2.21516
2.26975
2.32184
2.37181
2.42003
2.46682
2.51245
2.55712
2.60093
2.64362
2.68494
2.72462
2.76237
2.79791
2.83093
2.86115
2.88827
2.91203
2.93218
2.94853
2.96094
2.96929
2.97355
2.97371
2.96988
2.96226
2.95106
2.93652
2.91891
2.89853
2.87567
2.85068
2.82386
2.79556
2.7661
2.73579
2.70493
2.67382
2.64271
2.61184
2.58142
2.55165
2.52269
2.49466
2.46769
2.44186
2.41722
2.39383
2.3717
2.35083
2.33123
2.31287
2.29571
2.27971
2.26483
2.25102
2.23822
2.22637
2.21542
2.20531
2.19598
2.18739
2.17946
2.17216
2.16544
2.15926
2.15356
2.14832
2.14349
2.13904
2.13494
2.13116
2.12768
2.12446
2.12149
2.11875
2.11622
2.11388
2.11171
2.1097
2.10784
2.10612
2.10451
2.10303
2.10164
2.10036
2.09916
2.09804
2.097
2.09603
2.09512
2.09427
2.09348
2.09274
2.09206
2.09143
2.09084
2.09029
2.08977
2.08929
2.08883
2.08839
2.08797
2.08758
2.0872
2.08684
2.0865
2.08617
2.08586
2.08556
2.08527
2.08499
2.08473
2.08447
2.08422
2.08398
2.08375
2.08352
2.0833
2.08309
2.08288
2.08268
2.08248
2.08229
2.0821
2.08191
2.08173
2.08155
2.08137
2.0812
2.08103
2.08085
2.08068
2.08051
2.08035
2.08018
2.08001
2.07984
2.07968
2.07951
2.07935
2.07918
2.07902
2.07885
2.07869
2.07853
2.07836
2.07819
2.07803
2.07786
2.07769
2.07751
2.07733
2.07715
2.07695
2.07675
2.07653
2.07629
2.07602
2.07572
2.07538
2.07497
2.07448
2.07389
2.07314
2.07223
2.07118
2.07024
2.07045
5.22507
2.45305
2.0449
1.95165
1.95052
1.98602
2.03766
2.09616
2.15688
2.21738
2.27649
2.33368
2.38883
2.44202
2.49346
2.54337
2.59196
2.6394
2.68579
2.73114
2.77509
2.81738
2.85772
2.89581
2.93133
2.96396
2.99339
3.01933
3.04151
3.05972
3.07377
3.08354
3.08897
3.09003
3.08681
3.07947
3.06824
3.05335
3.03509
3.01373
2.98961
2.96304
2.93437
2.90396
2.87213
2.83924
2.80561
2.77154
2.73734
2.70327
2.66959
2.6365
2.6042
2.57286
2.54262
2.51358
2.48584
2.45945
2.43445
2.41087
2.38869
2.36792
2.34851
2.33042
2.31362
2.29805
2.28364
2.27032
2.25805
2.24675
2.23635
2.22679
2.21801
2.20995
2.20256
2.19578
2.18955
2.18384
2.17861
2.1738
2.16939
2.16533
2.16161
2.15818
2.15502
2.15212
2.14944
2.14697
2.14469
2.14258
2.14062
2.13881
2.13714
2.13558
2.13413
2.13278
2.13152
2.13035
2.12925
2.12823
2.12726
2.12636
2.12551
2.12471
2.12396
2.12326
2.1226
2.12198
2.12138
2.12082
2.12029
2.11977
2.11929
2.11882
2.11836
2.11793
2.11751
2.1171
2.11671
2.11633
2.11596
2.1156
2.11524
2.1149
2.11457
2.11424
2.11392
2.1136
2.11329
2.11299
2.11268
2.11239
2.11209
2.1118
2.11151
2.11123
2.11095
2.11066
2.11038
2.1101
2.10982
2.10955
2.10927
2.10899
2.10871
2.10843
2.10815
2.10787
2.10759
2.10731
2.10702
2.10674
2.10646
2.10617
2.10588
2.10559
2.1053
2.105
2.10471
2.10441
2.10411
2.1038
2.10349
2.10318
2.10285
2.10252
2.10217
2.10181
2.10143
2.10103
2.10059
2.10011
2.09958
2.09896
2.09825
2.0974
2.09639
2.09521
2.09399
2.09328
6.02651
2.76229
2.26108
2.13073
2.10984
2.13347
2.17774
2.23181
2.29017
2.34986
2.40931
2.4677
2.52468
2.58016
2.63417
2.68679
2.73812
2.78823
2.83714
2.88465
2.9304
2.97408
3.01535
3.05388
3.08934
3.12138
3.14968
3.17398
3.19401
3.2096
3.2206
3.22693
3.22859
3.22561
3.21818
3.20652
3.19087
3.17152
3.14878
3.12296
3.09441
3.06349
3.03055
2.99597
2.9601
2.92328
2.88586
2.84816
2.81046
2.77306
2.7362
2.70011
2.66497
2.63097
2.59823
2.56687
2.53697
2.5086
2.48178
2.45654
2.43286
2.41073
2.39011
2.37096
2.3532
2.3368
2.32166
2.30772
2.29491
2.28316
2.27238
2.2625
2.25347
2.2452
2.23765
2.23074
2.22443
2.21866
2.21338
2.20855
2.20414
2.20009
2.19639
2.19299
2.18988
2.18701
2.18438
2.18196
2.17972
2.17766
2.17576
2.17399
2.17236
2.17085
2.16944
2.16813
2.16691
2.16577
2.1647
2.1637
2.16276
2.16188
2.16104
2.16026
2.15952
2.15881
2.15815
2.15752
2.15691
2.15634
2.15578
2.15525
2.15474
2.15425
2.15377
2.15331
2.15286
2.15243
2.152
2.15159
2.15119
2.15079
2.1504
2.15002
2.14965
2.14928
2.14891
2.14856
2.1482
2.14785
2.1475
2.14716
2.14681
2.14647
2.14613
2.1458
2.14546
2.14512
2.14479
2.14445
2.14411
2.14378
2.14344
2.1431
2.14276
2.14242
2.14208
2.14173
2.14139
2.14104
2.14069
2.14033
2.13998
2.13962
2.13926
2.1389
2.13854
2.13817
2.1378
2.13742
2.13704
2.13666
2.13627
2.13587
2.13547
2.13506
2.13463
2.13419
2.13373
2.13324
2.13273
2.13217
2.13156
2.13088
2.1301
2.1292
2.12815
2.12693
2.1256
2.12451
6.83062
3.06903
2.47574
2.30985
2.27082
2.28417
2.32254
2.37351
2.43071
2.49066
2.55142
2.61191
2.67156
2.73008
2.78736
2.84336
2.89803
2.95136
3.00325
3.05328
3.10106
3.14623
3.18842
3.22724
3.26233
3.29334
3.31997
3.34196
3.3591
3.37125
3.37834
3.38035
3.37735
3.3695
3.35707
3.34031
3.31954
3.29505
3.26721
3.23637
3.20289
3.16715
3.12954
3.09042
3.05016
3.00913
2.96766
2.92607
2.88467
2.84374
2.80352
2.76426
2.72613
2.68931
2.65395
2.62014
2.58798
2.55751
2.52877
2.50178
2.47651
2.45295
2.43104
2.41074
2.39197
2.37467
2.35876
2.34415
2.33076
2.31851
2.30731
2.29709
2.28776
2.27927
2.27152
2.26447
2.25804
2.25219
2.24686
2.242
2.23757
2.23353
2.22983
2.22646
2.22337
2.22055
2.21795
2.21558
2.21339
2.21138
2.20952
2.20781
2.20623
2.20476
2.2034
2.20213
2.20095
2.19985
2.19883
2.19786
2.19696
2.1961
2.1953
2.19454
2.19382
2.19314
2.19249
2.19187
2.19127
2.19071
2.19016
2.18963
2.18912
2.18863
2.18815
2.18769
2.18723
2.18679
2.18636
2.18594
2.18553
2.18512
2.18472
2.18433
2.18394
2.18356
2.18318
2.18281
2.18244
2.18207
2.1817
2.18134
2.18098
2.18061
2.18025
2.17989
2.17953
2.17917
2.17881
2.17845
2.17809
2.17773
2.17736
2.177
2.17663
2.17626
2.17589
2.17551
2.17514
2.17476
2.17437
2.17399
2.1736
2.17321
2.17282
2.17242
2.17202
2.17162
2.17121
2.1708
2.17038
2.16996
2.16953
2.16909
2.16865
2.16819
2.16773
2.16725
2.16675
2.16622
2.16567
2.16508
2.16444
2.16373
2.16294
2.16204
2.16099
2.15979
2.15847
2.15729
7.63741
3.37468
2.6899
2.48931
2.43301
2.4369
2.47017
2.51879
2.57555
2.63643
2.69914
2.76233
2.82523
2.88737
2.94848
3.00837
3.06688
3.12384
3.17906
3.23185
3.28179
3.32844
3.37138
3.41017
3.44444
3.47383
3.49807
3.51694
3.53031
3.5381
3.54034
3.5371
3.5286
3.51511
3.49696
3.47446
3.44796
3.41784
3.38446
3.34821
3.30949
3.26868
3.22617
3.18235
3.13758
3.09222
3.04661
3.00108
2.95593
2.91143
2.86783
2.82536
2.78422
2.74456
2.70654
2.67026
2.6358
2.60322
2.57253
2.54376
2.51688
2.49185
2.46863
2.44716
2.42736
2.40914
2.39243
2.37713
2.36314
2.35038
2.33875
2.32817
2.31855
2.30981
2.30187
2.29467
2.28812
2.28219
2.2768
2.2719
2.26745
2.2634
2.25972
2.25637
2.25331
2.25052
2.24797
2.24564
2.2435
2.24154
2.23974
2.23808
2.23655
2.23513
2.23382
2.23261
2.23148
2.23043
2.22944
2.22852
2.22766
2.22685
2.22608
2.22536
2.22467
2.22402
2.2234
2.2228
2.22223
2.22169
2.22116
2.22065
2.22016
2.21968
2.21922
2.21877
2.21833
2.2179
2.21748
2.21707
2.21666
2.21626
2.21587
2.21549
2.21511
2.21473
2.21435
2.21398
2.21362
2.21325
2.21288
2.21252
2.21216
2.2118
2.21144
2.21108
2.21071
2.21035
2.20999
2.20963
2.20926
2.20889
2.20853
2.20816
2.20778
2.20741
2.20703
2.20665
2.20627
2.20588
2.20549
2.2051
2.20471
2.20431
2.20391
2.2035
2.20309
2.20268
2.20226
2.20184
2.20141
2.20098
2.20054
2.20009
2.19964
2.19917
2.19869
2.1982
2.19769
2.19716
2.1966
2.19601
2.19537
2.19467
2.1939
2.19303
2.19203
2.1909
2.18967
2.18852
8.43502
3.67652
2.9019
2.66745
2.59444
2.58933
2.61791
2.66459
2.72131
2.78354
2.84865
2.91503
2.98169
3.04799
3.11347
3.1778
3.24067
3.30173
3.36061
3.41639
3.46856
3.51661
3.56002
3.59834
3.63116
3.65816
3.67911
3.69388
3.70244
3.70483
3.70121
3.69183
3.67705
3.65723
3.63275
3.604
3.57138
3.5353
3.49615
3.45435
3.4103
3.36439
3.31702
3.26855
3.21935
3.16978
3.12016
3.07081
3.02202
2.97407
2.9272
2.88164
2.83758
2.79518
2.75458
2.71589
2.67919
2.64453
2.61194
2.58141
2.55293
2.52646
2.50195
2.47931
2.45848
2.43935
2.42185
2.40585
2.39127
2.378
2.36595
2.355
2.34509
2.3361
2.32797
2.32061
2.31395
2.30793
2.30248
2.29755
2.29308
2.28903
2.28536
2.28203
2.27901
2.27625
2.27375
2.27146
2.26937
2.26746
2.26571
2.26411
2.26263
2.26127
2.26002
2.25886
2.25778
2.25678
2.25585
2.25498
2.25416
2.2534
2.25268
2.25199
2.25135
2.25074
2.25015
2.24959
2.24905
2.24854
2.24804
2.24756
2.24709
2.24664
2.24621
2.24578
2.24536
2.24496
2.24456
2.24417
2.24378
2.24341
2.24304
2.24267
2.2423
2.24194
2.24159
2.24123
2.24088
2.24053
2.24018
2.23983
2.23949
2.23914
2.23879
2.23845
2.2381
2.23775
2.2374
2.23705
2.23669
2.23634
2.23598
2.23562
2.23526
2.2349
2.23453
2.23416
2.23379
2.23342
2.23304
2.23266
2.23227
2.23188
2.23149
2.2311
2.2307
2.23029
2.22988
2.22947
2.22905
2.22863
2.2282
2.22776
2.22731
2.22686
2.22639
2.22591
2.22541
2.2249
2.22436
2.22378
2.22317
2.2225
2.22177
2.22096
2.22004
2.21901
2.2179
2.21686
9.19993
3.96779
3.1074
2.84047
2.75138
2.73764
2.7618
2.80679
2.86376
2.9277
2.99562
3.06569
3.13667
3.20775
3.27828
3.34775
3.41565
3.48146
3.54439
3.6034
3.65786
3.70712
3.75059
3.78778
3.81828
3.84184
3.85834
3.8678
3.87032
3.86615
3.85568
3.83933
3.81757
3.79084
3.75959
3.72428
3.68536
3.64324
3.59837
3.55113
3.50195
3.45119
3.39923
3.34643
3.29313
3.23968
3.18638
3.13354
3.08144
3.03034
2.98048
2.93208
2.88532
2.84038
2.79738
2.75644
2.71764
2.68102
2.64662
2.61443
2.58443
2.55657
2.53081
2.50705
2.48522
2.46521
2.44693
2.43027
2.4151
2.40134
2.38886
2.37757
2.36736
2.35814
2.34982
2.34231
2.33554
2.32944
2.32393
2.31896
2.31448
2.31043
2.30677
2.30346
2.30047
2.29775
2.29529
2.29305
2.29101
2.28916
2.28746
2.28591
2.28449
2.28319
2.28199
2.28088
2.27986
2.27891
2.27803
2.27721
2.27645
2.27573
2.27506
2.27442
2.27382
2.27325
2.2727
2.27218
2.27168
2.2712
2.27074
2.2703
2.26987
2.26945
2.26904
2.26865
2.26826
2.26789
2.26752
2.26716
2.2668
2.26645
2.26611
2.26577
2.26543
2.2651
2.26476
2.26444
2.26411
2.26378
2.26346
2.26313
2.26281
2.26248
2.26216
2.26184
2.26151
2.26118
2.26086
2.26053
2.2602
2.25986
2.25953
2.25919
2.25885
2.25851
2.25817
2.25782
2.25747
2.25712
2.25676
2.2564
2.25604
2.25567
2.2553
2.25493
2.25455
2.25417
2.25378
2.25339
2.253
2.2526
2.25219
2.25177
2.25135
2.25092
2.25048
2.25002
2.24955
2.24907
2.24856
2.24802
2.24745
2.24683
2.24615
2.24541
2.24459
2.24368
2.24271
2.24182
9.89768
4.23798
3.29954
3.00258
2.89843
2.87658
2.89665
2.94025
2.9978
3.06386
3.13514
3.20953
3.28561
3.36234
3.43887
3.51444
3.58832
3.65975
3.72719
3.78971
3.84644
3.89656
3.93939
3.97441
4.00132
4.02
4.03052
4.03312
4.0282
4.01632
3.99804
3.97395
3.94462
3.91058
3.87236
3.83047
3.78535
3.73746
3.68721
3.63498
3.58116
3.5261
3.47013
3.4136
3.3568
3.30005
3.24364
3.18785
3.13294
3.07916
3.02675
2.9759
2.92682
2.87966
2.83456
2.79163
2.75095
2.71257
2.67653
2.64281
2.61141
2.58228
2.55535
2.53055
2.50778
2.48694
2.46793
2.45063
2.43492
2.42068
2.40781
2.39618
2.38569
2.37625
2.36774
2.3601
2.35322
2.34703
2.34147
2.33648
2.33198
2.32793
2.32428
2.321
2.31803
2.31536
2.31293
2.31074
2.30875
2.30695
2.30531
2.30381
2.30245
2.3012
2.30005
2.299
2.29803
2.29714
2.29631
2.29554
2.29482
2.29415
2.29353
2.29294
2.29238
2.29185
2.29135
2.29087
2.29041
2.28997
2.28955
2.28914
2.28875
2.28837
2.288
2.28764
2.28729
2.28695
2.28661
2.28628
2.28596
2.28564
2.28533
2.28502
2.28471
2.28441
2.28411
2.28381
2.28351
2.28321
2.28292
2.28262
2.28233
2.28203
2.28174
2.28144
2.28115
2.28085
2.28055
2.28025
2.27995
2.27964
2.27934
2.27903
2.27872
2.2784
2.27809
2.27777
2.27745
2.27713
2.2768
2.27647
2.27614
2.2758
2.27546
2.27511
2.27477
2.27441
2.27406
2.2737
2.27333
2.27296
2.27259
2.2722
2.27181
2.27142
2.27101
2.27059
2.27016
2.26971
2.26924
2.26875
2.26823
2.26767
2.26706
2.2664
2.26568
2.26489
2.26407
2.26334
10.4841
4.47359
3.46951
3.14649
3.02899
2.99992
3.01648
3.05918
3.11784
3.18665
3.26206
3.34172
3.424
3.50762
3.59147
3.67448
3.75556
3.8335
3.90621
3.97252
4.03127
4.08147
4.1224
4.15362
4.17501
4.18678
4.1893
4.18329
4.16952
4.14877
4.12181
4.08937
4.05213
4.0107
3.96566
3.91751
3.86671
3.81368
3.75878
3.70237
3.64477
3.58628
3.52719
3.46779
3.40835
3.34913
3.2904
3.2324
3.17539
3.11958
3.06521
3.01248
2.96157
2.91264
2.86583
2.82126
2.77901
2.73915
2.7017
2.66667
2.63405
2.60378
2.57582
2.55008
2.52647
2.50488
2.4852
2.46732
2.4511
2.43643
2.42318
2.41125
2.40051
2.39085
2.38218
2.37441
2.36743
2.36118
2.35557
2.35054
2.34603
2.34199
2.33835
2.33509
2.33216
2.32952
2.32714
2.32499
2.32305
2.32129
2.3197
2.31826
2.31695
2.31575
2.31466
2.31365
2.31274
2.31189
2.31111
2.31039
2.30973
2.3091
2.30852
2.30798
2.30747
2.30698
2.30652
2.30609
2.30567
2.30527
2.30489
2.30452
2.30416
2.30382
2.30348
2.30316
2.30285
2.30254
2.30224
2.30194
2.30165
2.30137
2.30109
2.30081
2.30054
2.30027
2.3
2.29973
2.29947
2.2992
2.29894
2.29867
2.29841
2.29815
2.29788
2.29762
2.29735
2.29709
2.29682
2.29655
2.29628
2.29601
2.29573
2.29546
2.29518
2.2949
2.29462
2.29433
2.29404
2.29375
2.29346
2.29316
2.29286
2.29256
2.29225
2.29194
2.29163
2.29131
2.29099
2.29066
2.29033
2.29
2.28966
2.28931
2.28896
2.2886
2.28823
2.28786
2.28747
2.28706
2.28664
2.2862
2.28573
2.28524
2.28471
2.28413
2.28351
2.28285
2.28217
2.28159
10.9079
4.6592
3.60754
3.26436
3.13618
3.10136
3.11541
3.15804
3.21866
3.29117
3.37181
3.45806
3.54806
3.64026
3.73324
3.82553
3.91558
4.00102
4.07957
4.14955
4.20943
4.25805
4.29482
4.31958
4.33259
4.33474
4.32707
4.31065
4.28661
4.25597
4.21971
4.17867
4.13363
4.08521
4.03398
3.98041
3.9249
3.86781
3.80942
3.75002
3.68985
3.62914
3.56812
3.50701
3.44603
3.38539
3.32533
3.26606
3.2078
3.15077
3.09519
3.04123
2.9891
2.93895
2.89094
2.84517
2.80175
2.76074
2.72219
2.68611
2.65249
2.6213
2.59247
2.56594
2.54161
2.51937
2.49911
2.48072
2.46406
2.449
2.43543
2.42322
2.41226
2.40242
2.3936
2.38571
2.37865
2.37234
2.36669
2.36164
2.35713
2.35309
2.34947
2.34623
2.34333
2.34072
2.33838
2.33628
2.33438
2.33268
2.33113
2.32974
2.32848
2.32733
2.32628
2.32533
2.32446
2.32367
2.32293
2.32226
2.32164
2.32106
2.32053
2.32002
2.31955
2.31911
2.31869
2.31829
2.31791
2.31755
2.31721
2.31688
2.31656
2.31625
2.31596
2.31567
2.31539
2.31512
2.31485
2.31459
2.31433
2.31408
2.31384
2.31359
2.31335
2.31311
2.31288
2.31264
2.31241
2.31218
2.31194
2.31171
2.31148
2.31125
2.31102
2.31078
2.31055
2.31032
2.31008
2.30985
2.30961
2.30937
2.30913
2.30888
2.30864
2.30839
2.30814
2.30789
2.30764
2.30738
2.30712
2.30686
2.30659
2.30633
2.30606
2.30578
2.3055
2.30522
2.30494
2.30465
2.30436
2.30406
2.30376
2.30346
2.30314
2.30282
2.3025
2.30216
2.30182
2.30146
2.30109
2.3007
2.30029
2.29986
2.2994
2.29891
2.29839
2.29785
2.29731
2.29686
11.1137
4.77906
3.70437
3.34933
3.21441
3.17614
3.18927
3.23313
3.29694
3.37448
3.46188
3.55646
3.65617
3.75916
3.86359
3.96741
4.06833
4.16232
4.24671
4.31916
4.37797
4.42149
4.44996
4.46416
4.46533
4.45498
4.43472
4.40613
4.37065
4.32957
4.28397
4.23476
4.18268
4.12834
4.0722
4.01463
3.95594
3.89636
3.83608
3.77527
3.71407
3.65265
3.59114
3.52969
3.46847
3.40765
3.3474
3.28793
3.22943
3.1721
3.11613
3.06173
3.00908
2.95835
2.9097
2.86325
2.81911
2.77736
2.73807
2.70125
2.66691
2.63502
2.60554
2.57839
2.55348
2.53073
2.51
2.49119
2.47416
2.45879
2.44495
2.43252
2.42136
2.41137
2.40244
2.39446
2.38733
2.38097
2.37529
2.37023
2.36572
2.36169
2.35809
2.35488
2.35201
2.34944
2.34714
2.34508
2.34323
2.34157
2.34007
2.33872
2.33751
2.3364
2.33541
2.3345
2.33368
2.33292
2.33224
2.33161
2.33103
2.33049
2.32999
2.32953
2.3291
2.3287
2.32832
2.32796
2.32761
2.32729
2.32698
2.32669
2.3264
2.32613
2.32587
2.32561
2.32537
2.32513
2.32489
2.32467
2.32444
2.32422
2.32401
2.3238
2.32359
2.32338
2.32318
2.32297
2.32277
2.32257
2.32237
2.32217
2.32197
2.32177
2.32157
2.32136
2.32116
2.32096
2.32076
2.32055
2.32035
2.32014
2.31993
2.31972
2.31951
2.31929
2.31908
2.31886
2.31864
2.31842
2.31819
2.31796
2.31773
2.3175
2.31727
2.31703
2.31679
2.31654
2.3163
2.31604
2.31579
2.31553
2.31527
2.315
2.31473
2.31445
2.31417
2.31388
2.31358
2.31327
2.31294
2.31261
2.31226
2.31189
2.3115
2.31109
2.31066
2.31022
2.3098
2.30948
11.0374
4.82012
3.75529
3.39967
3.26352
3.22515
3.23974
3.28683
3.35572
3.4403
3.53669
3.64218
3.7545
3.87143
3.99052
4.10892
4.2224
4.32498
4.41275
4.48305
4.53443
4.56676
4.58116
4.57958
4.56439
4.538
4.5027
4.46048
4.41303
4.36171
4.30758
4.25147
4.19397
4.13552
4.07643
4.0169
3.95707
3.89702
3.83682
3.7765
3.71611
3.6557
3.59534
3.53509
3.47508
3.41542
3.35625
3.29775
3.24008
3.18343
3.128
3.07399
3.02158
2.97095
2.92228
2.8757
2.83134
2.7893
2.74965
2.71244
2.67768
2.64535
2.61543
2.58786
2.56256
2.53942
2.51835
2.49923
2.48192
2.46631
2.45226
2.43965
2.42836
2.41825
2.40923
2.40118
2.39401
2.38762
2.38193
2.37687
2.37237
2.36836
2.36479
2.36161
2.35877
2.35624
2.35398
2.35197
2.35016
2.34854
2.34709
2.34579
2.34462
2.34356
2.3426
2.34174
2.34096
2.34025
2.3396
2.33901
2.33847
2.33797
2.33751
2.33709
2.33669
2.33632
2.33597
2.33565
2.33534
2.33505
2.33477
2.33451
2.33426
2.33402
2.33378
2.33356
2.33334
2.33313
2.33293
2.33273
2.33254
2.33235
2.33216
2.33198
2.3318
2.33162
2.33144
2.33126
2.33109
2.33092
2.33074
2.33057
2.3304
2.33022
2.33005
2.32988
2.32971
2.32953
2.32936
2.32918
2.329
2.32882
2.32864
2.32846
2.32828
2.32809
2.32791
2.32772
2.32753
2.32734
2.32714
2.32695
2.32675
2.32655
2.32634
2.32614
2.32593
2.32572
2.3255
2.32528
2.32506
2.32484
2.32461
2.32438
2.32414
2.3239
2.32365
2.3234
2.32314
2.32287
2.32259
2.32231
2.322
2.32169
2.32136
2.32103
2.32068
2.32034
2.32002
2.31979
10.65
4.77339
3.7561
3.41425
3.28462
3.25116
3.27086
3.32409
3.40065
3.49489
3.6031
3.7226
3.85092
3.98528
4.12207
4.2565
4.38027
4.48706
4.57189
4.63204
4.66726
4.6794
4.67168
4.64789
4.61176
4.56657
4.51508
4.4594
4.40117
4.34153
4.28129
4.22099
4.16094
4.10131
4.04215
3.98345
3.92515
3.86716
3.8094
3.75179
3.69426
3.63678
3.57934
3.52195
3.46468
3.40759
3.35081
3.29449
3.23877
3.18385
3.12991
3.07716
3.02579
2.976
2.92797
2.88187
2.83784
2.796
2.75644
2.71922
2.68438
2.65194
2.62186
2.5941
2.5686
2.54526
2.524
2.5047
2.48723
2.47147
2.4573
2.44459
2.43321
2.42304
2.41397
2.40589
2.3987
2.39231
2.38663
2.38158
2.3771
2.37312
2.36959
2.36644
2.36365
2.36116
2.35895
2.35697
2.35521
2.35364
2.35223
2.35097
2.34984
2.34883
2.34792
2.3471
2.34635
2.34568
2.34507
2.34452
2.34401
2.34355
2.34312
2.34273
2.34237
2.34203
2.34172
2.34142
2.34115
2.34089
2.34064
2.34041
2.34018
2.33997
2.33977
2.33958
2.33939
2.33921
2.33903
2.33886
2.33869
2.33853
2.33837
2.33822
2.33806
2.33791
2.33776
2.33761
2.33746
2.33732
2.33717
2.33702
2.33688
2.33673
2.33659
2.33644
2.3363
2.33615
2.336
2.33585
2.33571
2.33556
2.3354
2.33525
2.3351
2.33494
2.33479
2.33463
2.33447
2.33431
2.33414
2.33398
2.33381
2.33364
2.33347
2.3333
2.33312
2.33294
2.33276
2.33258
2.33239
2.3322
2.33201
2.33181
2.33161
2.33141
2.3312
2.33098
2.33076
2.33054
2.3303
2.33006
2.32981
2.32955
2.32929
2.32902
2.32875
2.32849
2.32826
2.32813
9.99781
4.67406
3.73125
3.41558
3.30025
3.27727
3.3064
3.36924
3.45633
3.56238
3.68416
3.81921
3.96492
4.11781
4.273
4.42027
4.54879
4.65023
4.71961
4.75614
4.76277
4.74472
4.70797
4.65813
4.59986
4.53674
4.47134
4.40541
4.34007
4.27599
4.21348
4.15266
4.09347
4.03577
3.97935
3.924
3.86947
3.81554
3.762
3.70867
3.65542
3.60214
3.54876
3.49527
3.44168
3.38805
3.33447
3.28109
3.22803
3.1755
3.12369
3.07279
3.02303
2.9746
2.92771
2.88255
2.83927
2.79802
2.75891
2.72202
2.68742
2.65512
2.62512
2.5974
2.5719
2.54854
2.52724
2.50788
2.49037
2.47456
2.46035
2.44761
2.4362
2.42602
2.41695
2.40887
2.40169
2.39532
2.38967
2.38466
2.38021
2.37627
2.37277
2.36967
2.36692
2.36448
2.36231
2.36038
2.35867
2.35714
2.35577
2.35456
2.35347
2.35249
2.35162
2.35084
2.35013
2.34949
2.34892
2.3484
2.34793
2.3475
2.3471
2.34674
2.34641
2.3461
2.34582
2.34555
2.3453
2.34507
2.34486
2.34465
2.34446
2.34427
2.3441