/*--------------------------------*- C++ -*----------------------------------*\
  =========                 |
  \\      /  F ield         | OpenFOAM: The Open Source CFD Toolbox
   \\    /   O peration     | Website:  https://openfoam.org
    \\  /    A nd           | Version:  6
     \\/     M anipulation  |
\*---------------------------------------------------------------------------*/
FoamFile
{
    version     2.0;
    format      ascii;
    class       volScalarField;
    location    "0.04";
    object      k;
}
// * * * * * * * * * * * * * * * * * * * * * * * * * * * * * * * * * * * * * //

dimensions      [0 2 -2 0 0 0 0];

internalField   nonuniform List<scalar> 
12225
(
0.246434
0.158843
0.119046
0.0972877
0.0838663
0.0749537
0.0686565
0.0639474
0.060261
0.0572788
0.0548126
0.0527601
0.0510402
0.0496014
0.0484191
0.0474926
0.0469162
0.0469508
0.339493
0.260123
0.208314
0.175429
0.1535
0.138019
0.126471
0.117449
0.110161
0.10414
0.099087
0.094808
0.0911592
0.0880423
0.0853945
0.0831755
0.0814166
0.0801313
0.347489
0.292347
0.248576
0.216342
0.192479
0.174423
0.160373
0.149136
0.139941
0.132282
0.125825
0.120325
0.115609
0.111556
0.108083
0.105136
0.102708
0.10082
0.351366
0.309049
0.271951
0.242067
0.218392
0.199565
0.184397
0.171981
0.161662
0.152977
0.145599
0.139272
0.133817
0.129105
0.125042
0.121565
0.118643
0.116291
0.353916
0.319282
0.287262
0.259961
0.237284
0.218561
0.203038
0.190059
0.179103
0.169777
0.16178
0.154872
0.148881
0.143677
0.139162
0.135268
0.131955
0.129226
0.355678
0.326048
0.297929
0.273049
0.251666
0.23349
0.218061
0.204917
0.193661
0.18397
0.175577
0.168273
0.161898
0.156328
0.151466
0.147242
0.143613
0.140575
0.356919
0.330727
0.305629
0.282891
0.26286
0.245446
0.230375
0.217329
0.206009
0.196157
0.187543
0.179991
0.173356
0.167523
0.162402
0.157922
0.15404
0.150751
0.357804
0.334044
0.311294
0.290397
0.271666
0.255099
0.240535
0.227757
0.216541
0.206675
0.197978
0.190297
0.183505
0.177497
0.172191
0.16752
0.163441
0.15995
0.358436
0.33642
0.315496
0.296152
0.278613
0.262901
0.248918
0.23651
0.225507
0.215741
0.207065
0.19935
0.192485
0.186378
0.180952
0.176146
0.17192
0.168271
0.358884
0.338122
0.318607
0.30055
0.284071
0.269177
0.255796
0.243813
0.233094
0.223508
0.214932
0.207257
0.200388
0.194242
0.188751
0.183859
0.17953
0.175762
0.359198
0.339329
0.32089
0.303881
0.288318
0.274175
0.261383
0.249844
0.23945
0.230095
0.221674
0.214095
0.207274
0.20114
0.19563
0.190694
0.186301
0.182449
0.359396
0.340105
0.322404
0.306159
0.291304
0.277771
0.265482
0.254346
0.244267
0.23515
0.226905
0.219451
0.212713
0.206627
0.201135
0.196193
0.191773
0.187875
0.359537
0.340663
0.323523
0.307891
0.293627
0.280627
0.268796
0.258041
0.248271
0.239398
0.231343
0.224031
0.217395
0.211375
0.205922
0.200994
0.196565
0.192637
0.359646
0.341096
0.324416
0.309313
0.295589
0.283098
0.271723
0.261363
0.251925
0.243326
0.235492
0.228352
0.221847
0.215922
0.210532
0.205637
0.201217
0.197273
0.359721
0.341402
0.325067
0.310384
0.297112
0.285069
0.274115
0.264134
0.255028
0.246713
0.239115
0.232168
0.225816
0.220007
0.2147
0.209859
0.205465
0.201519
0.359769
0.341595
0.325491
0.311105
0.29817
0.286481
0.275874
0.26622
0.257412
0.24936
0.241989
0.235233
0.229036
0.22335
0.218135
0.213357
0.208999
0.205061
0.359794
0.341701
0.325727
0.31152
0.298799
0.287344
0.276979
0.267561
0.258976
0.251127
0.243936
0.237334
0.231264
0.22568
0.22054
0.215815
0.211485
0.207552
0.359805
0.341743
0.325823
0.311689
0.299061
0.287712
0.277458
0.268153
0.259674
0.251922
0.244814
0.238281
0.232265
0.226717
0.221597
0.216876
0.212535
0.208576
0.359801
0.341729
0.325788
0.311625
0.298957
0.287559
0.277249
0.26788
0.259333
0.251507
0.244321
0.237706
0.231603
0.225966
0.220753
0.215935
0.211495
0.207435
0.359775
0.341619
0.325537
0.311177
0.298265
0.286588
0.275978
0.266299
0.257441
0.249312
0.241834
0.234942
0.228578
0.222695
0.217252
0.212219
0.20758
0.203337
0.359715
0.341371
0.324993
0.310246
0.296887
0.284733
0.273642
0.263497
0.254199
0.245663
0.237813
0.230585
0.223919
0.217764
0.212079
0.206829
0.201996
0.197586
0.359585
0.340845
0.323882
0.308432
0.294325
0.281431
0.269645
0.258869
0.249011
0.239985
0.231713
0.224122
0.217147
0.21073
0.204822
0.199383
0.19439
0.189848
0.359328
0.339826
0.321832
0.305252
0.290039
0.276138
0.263474
0.251955
0.24148
0.231952
0.223275
0.215361
0.20813
0.201514
0.19545
0.189892
0.184809
0.180206
0.358858
0.337998
0.318339
0.300104
0.283415
0.268279
0.254624
0.242334
0.231275
0.221313
0.212322
0.20419
0.196815
0.190111
0.184002
0.17843
0.173356
0.168783
0.358048
0.334898
0.312715
0.292227
0.273719
0.257209
0.242563
0.22959
0.218083
0.20785
0.198718
0.190539
0.183184
0.176547
0.170537
0.165084
0.16014
0.155703
0.356704
0.329786
0.303928
0.280538
0.259965
0.242096
0.226628
0.213214
0.20153
0.191297
0.182282
0.174292
0.167173
0.160796
0.155058
0.149876
0.145196
0.141013
0.354513
0.321312
0.290186
0.26326
0.240598
0.22167
0.205815
0.192426
0.181008
0.171177
0.16263
0.155138
0.148518
0.14263
0.137359
0.13262
0.128352
0.124545
0.350894
0.306567
0.26785
0.23698
0.212743
0.193603
0.178245
0.165683
0.155219
0.146361
0.138757
0.132152
0.126358
0.12123
0.11666
0.112561
0.108874
0.105585
0.342433
0.275896
0.227188
0.193399
0.169622
0.152323
0.13921
0.12887
0.12045
0.113424
0.107449
0.102292
0.0977864
0.093811
0.0902744
0.0871067
0.0842563
0.0817032
0.259299
0.173096
0.131318
0.107354
0.0920245
0.0815722
0.0740807
0.0684518
0.0640377
0.0604506
0.0574518
0.0548889
0.0526612
0.050699
0.0489524
0.0473843
0.0459671
0.044684
0.00373078
0.00916694
0.0124365
0.0150732
0.0173003
0.0192464
0.0209832
0.0225551
0.023993
0.0253201
0.0265545
0.0277106
0.0288
0.0298321
0.0308152
0.0317571
0.0326661
0.0335527
0.0344317
0.0353289
0.036232
0.0370855
0.0378848
0.0386278
0.0393122
0.0399356
0.0404961
0.0409923
0.0414232
0.0417889
0.0420908
0.042332
0.0425182
0.0426582
0.0427643
0.0428508
0.0429231
0.0429648
0.0429634
0.0429163
0.0428249
0.0426921
0.0425212
0.0423159
0.0420802
0.0418179
0.0415329
0.0412292
0.0409103
0.0405799
0.0402413
0.0398974
0.0395513
0.0392053
0.0388619
0.038523
0.0381903
0.0378653
0.0375492
0.0372431
0.0369475
0.0366633
0.0363906
0.0361298
0.0358809
0.0356439
0.0354188
0.0352052
0.0350029
0.0348116
0.0346309
0.0344604
0.0342997
0.0341483
0.0340058
0.0338718
0.0337457
0.0336272
0.0335159
0.0334113
0.033313
0.0332206
0.0331338
0.0330523
0.0329757
0.0329036
0.0328358
0.0327721
0.0327121
0.0326555
0.0326023
0.032552
0.0325046
0.0324599
0.0324176
0.0323776
0.0323398
0.0323039
0.0322699
0.0322375
0.0322067
0.0321771
0.0321485
0.0321223
0.0320981
0.0320752
0.0320534
0.0320326
0.0320125
0.0319931
0.0319743
0.0319561
0.0319384
0.0319212
0.0319044
0.031888
0.031872
0.0318563
0.0318409
0.0318257
0.0318109
0.0317962
0.0317817
0.0317675
0.0317534
0.0317394
0.0317256
0.0317119
0.0316982
0.0316847
0.0316712
0.0316578
0.0316444
0.031631
0.0316177
0.0316044
0.0315911
0.0315777
0.0315644
0.0315509
0.0315375
0.031524
0.0315104
0.0314967
0.031483
0.0314691
0.0314552
0.0314412
0.031427
0.0314127
0.0313984
0.0313838
0.0313692
0.0313544
0.0313395
0.0313244
0.0313092
0.0312937
0.0312781
0.0312622
0.031246
0.0312294
0.0312125
0.031195
0.031177
0.0311582
0.0311385
0.0311175
0.031095
0.0310703
0.0310428
0.0310114
0.0309744
0.0309293
0.0308718
0.0307937
0.0306795
0.0304946
0.0301687
0.029555
0.00996139
0.0221699
0.0290372
0.0344426
0.0390798
0.0431755
0.0468466
0.0501708
0.0532072
0.0560034
0.0585989
0.0610266
0.0633137
0.0654822
0.0675501
0.0695311
0.0714353
0.0732696
0.0750378
0.0767412
0.0783656
0.079913
0.0813818
0.0827686
0.0840691
0.0852782
0.0863909
0.0874022
0.0883075
0.0891029
0.0897852
0.0903525
0.0908035
0.0911384
0.091358
0.0914637
0.0914581
0.0913465
0.091134
0.0908265
0.0904307
0.0899539
0.0894041
0.0887896
0.0881187
0.0873999
0.0866414
0.0858514
0.0850378
0.0842078
0.0833684
0.0825259
0.081686
0.0808541
0.0800346
0.0792315
0.0784482
0.0776873
0.0769513
0.0762417
0.0755598
0.0749066
0.0742824
0.0736875
0.0731216
0.0725845
0.0720756
0.071594
0.0711391
0.0707098
0.070305
0.0699238
0.0695651
0.0692276
0.0689104
0.0686123
0.0683322
0.0680692
0.0678221
0.0675901
0.0673723
0.0671676
0.0669753
0.0667947
0.0666248
0.0664651
0.0663149
0.0661734
0.0660403
0.0659147
0.0657964
0.0656847
0.0655792
0.0654795
0.0653852
0.0652959
0.0652113
0.0651309
0.0650546
0.064982
0.0649127
0.0648465
0.0647828
0.0647208
0.0646617
0.0646054
0.0645515
0.0644999
0.0644503
0.0644024
0.0643562
0.0643115
0.0642681
0.0642259
0.0641848
0.0641448
0.0641057
0.0640674
0.06403
0.0639932
0.0639571
0.0639215
0.0638865
0.063852
0.0638179
0.0637841
0.0637507
0.0637175
0.0636846
0.0636519
0.0636194
0.063587
0.0635547
0.0635225
0.0634903
0.0634582
0.063426
0.0633938
0.0633616
0.0633293
0.0632969
0.0632643
0.0632316
0.0631987
0.0631657
0.0631324
0.063099
0.0630653
0.0630313
0.0629972
0.0629627
0.0629281
0.0628931
0.0628579
0.0628223
0.0627865
0.0627502
0.0627136
0.0626766
0.0626391
0.0626011
0.0625624
0.062523
0.0624828
0.0624414
0.0623988
0.0623545
0.0623081
0.062259
0.0622063
0.0621489
0.0620849
0.0620115
0.0619244
0.0618158
0.0616723
0.0614652
0.0611425
0.0605648
0.059694
0.0141107
0.0306939
0.0395689
0.0463089
0.0520224
0.05706
0.0615813
0.0656803
0.0694239
0.0728654
0.0760493
0.0790138
0.0817914
0.0844095
0.086891
0.0892546
0.0915147
0.0936823
0.0957649
0.0977666
0.0996817
0.10151
0.103249
0.104894
0.106442
0.107885
0.109217
0.110432
0.111524
0.112486
0.113314
0.114004
0.114552
0.114958
0.115221
0.115341
0.115322
0.115172
0.114896
0.114504
0.114003
0.113403
0.112712
0.111941
0.111101
0.110201
0.109253
0.108265
0.107249
0.106212
0.105164
0.104113
0.103065
0.102028
0.101008
0.100008
0.0990345
0.0980896
0.0971765
0.0962974
0.0954538
0.0946468
0.0938769
0.0931442
0.0924485
0.0917892
0.0911655
0.0905765
0.0900209
0.0894976
0.089005
0.0885418
0.0881065
0.0876977
0.087314
0.0869538
0.0866159
0.0862988
0.0860014
0.0857223
0.0854604
0.0852146
0.0849838
0.084767
0.0845633
0.0843717
0.0841916
0.084022
0.0838622
0.0837117
0.0835697
0.0834356
0.0833088
0.083189
0.0830755
0.082968
0.0828659
0.0827689
0.0826767
0.0825888
0.0825049
0.0824246
0.0823476
0.0822732
0.0822019
0.0821334
0.0820675
0.082004
0.0819427
0.0818834
0.0818259
0.0817702
0.0817159
0.081663
0.0816115
0.0815611
0.0815119
0.0814636
0.0814162
0.0813697
0.0813239
0.0812788
0.0812343
0.0811903
0.0811468
0.0811038
0.081061
0.0810186
0.0809765
0.0809346
0.0808929
0.0808513
0.0808098
0.0807684
0.080727
0.0806856
0.0806441
0.0806027
0.0805611
0.0805194
0.0804775
0.0804355
0.0803932
0.0803508
0.080308
0.0802651
0.0802218
0.0801782
0.0801344
0.0800902
0.0800457
0.0800008
0.0799556
0.0799101
0.0798641
0.0798177
0.0797709
0.0797236
0.0796758
0.0796274
0.0795783
0.0795285
0.0794778
0.0794262
0.0793733
0.0793189
0.0792627
0.0792042
0.0791427
0.0790773
0.0790068
0.0789292
0.0788417
0.0787398
0.0786159
0.0784568
0.078237
0.0779109
0.0773796
0.0766037
0.0172871
0.0372285
0.0476568
0.0553889
0.0618569
0.067525
0.0726011
0.077201
0.0814016
0.0852614
0.088828
0.0921424
0.0952397
0.0981501
0.100899
0.103509
0.105996
0.108375
0.110654
0.112841
0.114931
0.116925
0.118822
0.120616
0.122303
0.123876
0.125328
0.126653
0.127842
0.128889
0.129788
0.130535
0.131125
0.131557
0.13183
0.131943
0.131903
0.131717
0.131392
0.130936
0.130358
0.12967
0.128881
0.128002
0.127046
0.126023
0.124945
0.123823
0.122669
0.121492
0.120303
0.11911
0.117923
0.116747
0.115591
0.11446
0.113358
0.11229
0.111259
0.110268
0.109317
0.10841
0.107545
0.106723
0.105944
0.105208
0.104512
0.103856
0.103238
0.102658
0.102112
0.1016
0.10112
0.10067
0.100248
0.0998528
0.0994825
0.0991356
0.0988106
0.098506
0.0982205
0.0979529
0.0977018
0.0974662
0.0972449
0.097037
0.0968416
0.0966577
0.0964845
0.0963213
0.0961673
0.0960219
0.0958845
0.0957545
0.0956314
0.0955146
0.0954037
0.0952982
0.0951978
0.095102
0.0950105
0.094923
0.0948389
0.0947581
0.0946802
0.0946052
0.0945329
0.0944631
0.0943954
0.0943298
0.0942661
0.094204
0.0941436
0.0940846
0.094027
0.0939706
0.0939154
0.0938611
0.0938079
0.0937554
0.0937038
0.0936529
0.0936025
0.0935528
0.0935035
0.0934546
0.0934061
0.0933579
0.09331
0.0932622
0.0932147
0.0931672
0.0931198
0.0930725
0.0930252
0.0929778
0.0929304
0.0928829
0.0928352
0.0927874
0.0927394
0.0926912
0.0926427
0.092594
0.0925449
0.0924956
0.0924459
0.0923959
0.0923455
0.0922947
0.0922435
0.092192
0.09214
0.0920876
0.0920347
0.0919814
0.0919275
0.0918731
0.0918182
0.0917625
0.0917062
0.091649
0.0915909
0.0915317
0.0914712
0.0914091
0.0913451
0.0912788
0.0912093
0.0911359
0.0910572
0.0909714
0.0908757
0.0907656
0.0906342
0.0904692
0.0902488
0.0899357
0.0894638
0.0888155
0.0199693
0.0426525
0.0543772
0.0629415
0.0700328
0.0762087
0.0817209
0.0867076
0.0912579
0.0954365
0.0992949
0.102877
0.106218
0.109352
0.112306
0.115102
0.11776
0.120294
0.122716
0.125033
0.127243
0.129346
0.131342
0.133227
0.134996
0.136643
0.138159
0.139539
0.140773
0.141856
0.142781
0.143543
0.144138
0.144565
0.144821
0.144908
0.144833
0.144602
0.144223
0.143706
0.143059
0.142293
0.14142
0.140452
0.1394
0.138276
0.137095
0.135866
0.134602
0.133315
0.132015
0.130711
0.129414
0.128131
0.126869
0.125635
0.124434
0.123271
0.12215
0.121072
0.120041
0.119057
0.118121
0.117234
0.116394
0.1156
0.114852
0.114149
0.113488
0.112868
0.112286
0.111741
0.111232
0.110755
0.110308
0.109891
0.109501
0.109136
0.108795
0.108476
0.108177
0.107898
0.107636
0.10739
0.10716
0.106943
0.10674
0.106549
0.106369
0.1062
0.106041
0.10589
0.105747
0.105613
0.105485
0.105364
0.105249
0.10514
0.105035
0.104936
0.104841
0.10475
0.104662
0.104578
0.104497
0.104419
0.104344
0.104271
0.1042
0.104131
0.104064
0.103998
0.103935
0.103872
0.103811
0.103752
0.103693
0.103635
0.103579
0.103523
0.103468
0.103414
0.10336
0.103307
0.103254
0.103202
0.10315
0.103098
0.103047
0.102996
0.102944
0.102893
0.102843
0.102792
0.102741
0.10269
0.102639
0.102587
0.102536
0.102484
0.102433
0.10238
0.102328
0.102275
0.102222
0.102169
0.102115
0.102061
0.102007
0.101952
0.101897
0.101841
0.101784
0.101728
0.101671
0.101613
0.101554
0.101496
0.101436
0.101376
0.101315
0.101253
0.10119
0.101126
0.101061
0.100994
0.100925
0.100853
0.100779
0.100701
0.100617
0.100526
0.100426
0.100311
0.100177
0.10001
0.0997944
0.0994988
0.0990793
0.0985341
0.0223797
0.0474131
0.0602549
0.0695378
0.0771651
0.0837725
0.0896492
0.094954
0.0997876
0.104222
0.108313
0.112106
0.11564
0.118949
0.122061
0.125
0.127787
0.130437
0.132961
0.135369
0.137657
0.139829
0.141884
0.143819
0.14563
0.14731
0.148852
0.150249
0.151493
0.152578
0.153497
0.154245
0.154819
0.155216
0.155436
0.155481
0.155358
0.155073
0.154636
0.154054
0.153339
0.1525
0.151549
0.1505
0.149364
0.148153
0.146882
0.145562
0.144206
0.142826
0.141433
0.140037
0.138649
0.137276
0.135927
0.134609
0.133328
0.132087
0.130892
0.129746
0.128649
0.127605
0.126613
0.125673
0.124786
0.123949
0.123162
0.122423
0.12173
0.121082
0.120475
0.119908
0.119379
0.118884
0.118423
0.117993
0.117591
0.117216
0.116867
0.11654
0.116235
0.11595
0.115683
0.115434
0.1152
0.114981
0.114775
0.114582
0.1144
0.114229
0.114068
0.113916
0.113773
0.113637
0.113509
0.113387
0.113271
0.113161
0.113056
0.112956
0.11286
0.112769
0.112681
0.112596
0.112514
0.112435
0.112359
0.112285
0.112213
0.112143
0.112075
0.112009
0.111944
0.11188
0.111818
0.111757
0.111697
0.111638
0.11158
0.111523
0.111467
0.111411
0.111356
0.111301
0.111247
0.111193
0.11114
0.111086
0.111033
0.110981
0.110928
0.110875
0.110823
0.11077
0.110717
0.110664
0.110612
0.110559
0.110505
0.110452
0.110398
0.110344
0.11029
0.110235
0.11018
0.110125
0.110069
0.110013
0.109956
0.109899
0.109842
0.109784
0.109725
0.109666
0.109607
0.109547
0.109486
0.109425
0.109363
0.1093
0.109237
0.109172
0.109107
0.10904
0.108972
0.108903
0.108831
0.108757
0.10868
0.1086
0.108514
0.108421
0.108319
0.108203
0.108068
0.107905
0.107697
0.107421
0.107049
0.106586
0.0246315
0.051746
0.0655697
0.0754781
0.083567
0.0905411
0.0967228
0.102289
0.107352
0.11199
0.116263
0.12022
0.123901
0.127342
0.130571
0.133615
0.136493
0.139222
0.141815
0.144276
0.146609
0.148816
0.150898
0.152852
0.154674
0.156359
0.157898
0.159286
0.160515
0.161577
0.162468
0.163182
0.163716
0.164069
0.164239
0.164232
0.164053
0.16371
0.163212
0.162566
0.161784
0.160876
0.159855
0.158732
0.15752
0.156234
0.154884
0.153486
0.152051
0.150591
0.149119
0.147645
0.146179
0.144731
0.143309
0.14192
0.14057
0.139265
0.138009
0.136805
0.135655
0.134561
0.133523
0.132542
0.131617
0.130747
0.12993
0.129165
0.128449
0.12778
0.127156
0.126574
0.126032
0.125527
0.125058
0.12462
0.124214
0.123835
0.123482
0.123153
0.122847
0.122561
0.122294
0.122045
0.121812
0.121594
0.12139
0.121199
0.121019
0.12085
0.120691
0.120541
0.120399
0.120265
0.120139
0.120019
0.119905
0.119796
0.119693
0.119595
0.119501
0.11941
0.119324
0.11924
0.11916
0.119082
0.119007
0.118934
0.118863
0.118794
0.118726
0.118661
0.118596
0.118533
0.118471
0.118411
0.118351
0.118293
0.118235
0.118178
0.118122
0.118066
0.118011
0.117957
0.117903
0.117849
0.117796
0.117742
0.117689
0.117636
0.117584
0.117531
0.117478
0.117425
0.117373
0.11732
0.117266
0.117213
0.11716
0.117106
0.117052
0.116998
0.116943
0.116888
0.116833
0.116777
0.116721
0.116664
0.116607
0.11655
0.116492
0.116433
0.116375
0.116315
0.116255
0.116194
0.116133
0.116071
0.116009
0.115945
0.115881
0.115816
0.11575
0.115683
0.115614
0.115544
0.115472
0.115398
0.11532
0.115239
0.115153
0.11506
0.114959
0.114845
0.114713
0.114555
0.114359
0.114105
0.113775
0.113381
0.0267767
0.0557654
0.0704603
0.0809114
0.0893917
0.0966696
0.103098
0.10887
0.114109
0.1189
0.123307
0.127381
0.131165
0.134695
0.138003
0.141112
0.144046
0.146821
0.14945
0.151935
0.154283
0.156498
0.158581
0.16053
0.162342
0.16401
0.165528
0.166889
0.168085
0.169111
0.169961
0.17063
0.171115
0.171415
0.171531
0.171468
0.171234
0.170834
0.170276
0.169571
0.168729
0.167759
0.166675
0.165489
0.164213
0.162861
0.161446
0.159981
0.158479
0.156952
0.155414
0.153873
0.152343
0.150831
0.149347
0.147898
0.146491
0.145131
0.143824
0.142571
0.141377
0.140242
0.139167
0.138152
0.137197
0.136301
0.135461
0.134675
0.133942
0.13326
0.132624
0.132033
0.131484
0.130974
0.130501
0.130062
0.129654
0.129275
0.128924
0.128597
0.128293
0.128011
0.127747
0.127502
0.127273
0.127059
0.126859
0.126672
0.126497
0.126332
0.126177
0.126032
0.125894
0.125765
0.125642
0.125526
0.125416
0.125311
0.125212
0.125117
0.125026
0.124939
0.124855
0.124775
0.124697
0.124622
0.12455
0.124479
0.12441
0.124343
0.124278
0.124214
0.124152
0.124091
0.124031
0.123972
0.123914
0.123857
0.123801
0.123746
0.123691
0.123637
0.123584
0.12353
0.123478
0.123425
0.123373
0.123321
0.123269
0.123218
0.123166
0.123115
0.123063
0.123011
0.12296
0.122908
0.122856
0.122804
0.122751
0.122698
0.122646
0.122592
0.122539
0.122485
0.12243
0.122376
0.122321
0.122265
0.122209
0.122152
0.122095
0.122038
0.12198
0.121921
0.121862
0.121803
0.121742
0.121681
0.12162
0.121557
0.121494
0.12143
0.121365
0.121299
0.121231
0.121162
0.121091
0.121018
0.120942
0.120862
0.120777
0.120687
0.120588
0.120478
0.120352
0.120202
0.120019
0.119788
0.119498
0.119162
0.0288262
0.0595039
0.0749689
0.0858834
0.094685
0.102202
0.108817
0.114738
0.120099
0.12499
0.12948
0.133625
0.137467
0.141046
0.144392
0.147532
0.150487
0.153275
0.15591
0.158392
0.160731
0.162933
0.164999
0.166927
0.168713
0.170353
0.171839
0.173164
0.174322
0.175306
0.176111
0.176733
0.177167
0.177416
0.177481
0.177369
0.177085
0.176636
0.17603
0.175277
0.174385
0.173367
0.172233
0.170997
0.16967
0.168267
0.1668
0.165282
0.163727
0.162147
0.160554
0.15896
0.157376
0.155812
0.154276
0.152778
0.151323
0.149918
0.148567
0.147275
0.146043
0.144874
0.143768
0.142726
0.141747
0.140829
0.139971
0.139171
0.138426
0.137733
0.137091
0.136495
0.135943
0.135431
0.134958
0.13452
0.134115
0.13374
0.133393
0.133071
0.132772
0.132496
0.132238
0.131999
0.131777
0.13157
0.131376
0.131196
0.131027
0.130868
0.13072
0.13058
0.130449
0.130325
0.130208
0.130097
0.129993
0.129893
0.129798
0.129708
0.129622
0.129539
0.12946
0.129384
0.12931
0.129239
0.12917
0.129103
0.129038
0.128974
0.128912
0.128852
0.128792
0.128734
0.128677
0.128621
0.128566
0.128512
0.128458
0.128406
0.128354
0.128302
0.128251
0.1282
0.12815
0.1281
0.12805
0.128
0.127951
0.127901
0.127852
0.127802
0.127753
0.127704
0.127654
0.127604
0.127554
0.127504
0.127454
0.127403
0.127353
0.127302
0.12725
0.127198
0.127146
0.127093
0.12704
0.126987
0.126933
0.126879
0.126824
0.126768
0.126712
0.126656
0.126599
0.126541
0.126483
0.126424
0.126365
0.126305
0.126244
0.126182
0.126119
0.126055
0.12599
0.125923
0.125854
0.125784
0.12571
0.125634
0.125552
0.125466
0.125371
0.125267
0.125147
0.125008
0.12484
0.124633
0.124379
0.124092
0.0307598
0.0629334
0.0790652
0.0903617
0.0994123
0.107102
0.113839
0.119849
0.125275
0.130213
0.134738
0.138905
0.142762
0.146348
0.149695
0.15283
0.155776
0.15855
0.161163
0.16362
0.165932
0.168106
0.170142
0.17204
0.173795
0.175402
0.176854
0.178144
0.179265
0.18021
0.180976
0.181555
0.181949
0.182158
0.182187
0.182039
0.181722
0.18124
0.180602
0.179817
0.178895
0.177845
0.176681
0.175412
0.174053
0.172616
0.171114
0.16956
0.167967
0.166348
0.164716
0.163082
0.161457
0.159852
0.158276
0.156738
0.155245
0.153802
0.152417
0.151091
0.149829
0.148631
0.147501
0.146436
0.145437
0.144503
0.143631
0.14282
0.142066
0.141367
0.14072
0.140122
0.13957
0.13906
0.13859
0.138156
0.137755
0.137386
0.137045
0.13673
0.136439
0.13617
0.135921
0.13569
0.135475
0.135276
0.135091
0.134918
0.134757
0.134606
0.134465
0.134333
0.134209
0.134092
0.133981
0.133877
0.133779
0.133685
0.133597
0.133512
0.133431
0.133354
0.13328
0.133209
0.13314
0.133074
0.133009
0.132947
0.132886
0.132826
0.132768
0.132712
0.132656
0.132602
0.132549
0.132496
0.132445
0.132394
0.132344
0.132295
0.132246
0.132198
0.13215
0.132102
0.132055
0.132008
0.131961
0.131915
0.131868
0.131822
0.131775
0.131729
0.131683
0.131636
0.131589
0.131543
0.131496
0.131449
0.131401
0.131354
0.131306
0.131257
0.131209
0.13116
0.131111
0.131061
0.131011
0.130961
0.13091
0.130858
0.130806
0.130754
0.130701
0.130648
0.130594
0.130539
0.130484
0.130428
0.130372
0.130315
0.130257
0.130198
0.130139
0.130078
0.130016
0.129953
0.129888
0.129821
0.129751
0.129679
0.129602
0.129521
0.129432
0.129334
0.129224
0.129095
0.128943
0.128759
0.128539
0.128296
0.0325327
0.065979
0.0826636
0.0942546
0.103478
0.111269
0.118064
0.124103
0.129536
0.134468
0.138976
0.14312
0.14695
0.150504
0.153817
0.156917
0.159825
0.162558
0.165127
0.167543
0.169816
0.171953
0.173955
0.175822
0.177547
0.179125
0.180549
0.181812
0.182907
0.183827
0.184564
0.185118
0.18549
0.185682
0.185697
0.185538
0.18521
0.184721
0.184076
0.183284
0.182356
0.1813
0.180128
0.178851
0.177481
0.176032
0.174515
0.172944
0.171332
0.169692
0.168036
0.166377
0.164725
0.163092
0.161488
0.15992
0.158398
0.156927
0.155514
0.154162
0.152876
0.151656
0.150505
0.149422
0.148408
0.14746
0.146578
0.145758
0.144999
0.144296
0.143648
0.14305
0.142499
0.141992
0.141526
0.141098
0.140704
0.140342
0.140008
0.139702
0.139419
0.139159
0.138919
0.138697
0.138492
0.138301
0.138125
0.137961
0.137809
0.137667
0.137534
0.13741
0.137293
0.137184
0.137081
0.136984
0.136893
0.136806
0.136724
0.136646
0.136571
0.1365
0.136432
0.136366
0.136303
0.136242
0.136182
0.136125
0.136069
0.136014
0.135961
0.135909
0.135858
0.135808
0.135759
0.13571
0.135663
0.135616
0.13557
0.135525
0.13548
0.135435
0.135391
0.135347
0.135304
0.135261
0.135217
0.135174
0.135132
0.135089
0.135046
0.135003
0.13496
0.134917
0.134874
0.134831
0.134787
0.134744
0.1347
0.134656
0.134612
0.134567
0.134522
0.134477
0.134431
0.134385
0.134338
0.134291
0.134244
0.134196
0.134148
0.134099
0.13405
0.134001
0.13395
0.1339
0.133848
0.133796
0.133744
0.133691
0.133637
0.133582
0.133526
0.13347
0.133412
0.133353
0.133292
0.13323
0.133165
0.133098
0.133026
0.132951
0.132869
0.132779
0.132678
0.132562
0.132426
0.132264
0.132075
0.131869
0.0340804
0.0685308
0.0856371
0.0974268
0.106741
0.114563
0.12135
0.127356
0.132742
0.137616
0.142061
0.146138
0.1499
0.153388
0.156635
0.15967
0.162515
0.165186
0.167694
0.170055
0.172283
0.174381
0.176351
0.178191
0.179895
0.181457
0.182868
0.184122
0.185207
0.186118
0.186853
0.187413
0.187795
0.188001
0.188034
0.187896
0.187592
0.187127
0.186508
0.185742
0.184838
0.183806
0.182655
0.181398
0.180045
0.178608
0.177101
0.175536
0.173926
0.172285
0.170624
0.168956
0.167293
0.165646
0.164025
0.16244
0.160899
0.159409
0.157977
0.156606
0.155301
0.154065
0.152898
0.151802
0.150776
0.149818
0.148928
0.148103
0.147339
0.146635
0.145986
0.14539
0.144842
0.14434
0.143879
0.143457
0.14307
0.142716
0.142391
0.142094
0.141821
0.14157
0.141339
0.141127
0.140931
0.140751
0.140584
0.140429
0.140286
0.140153
0.140029
0.139913
0.139805
0.139704
0.139609
0.139519
0.139435
0.139355
0.13928
0.139209
0.13914
0.139076
0.139013
0.138954
0.138896
0.138841
0.138787
0.138734
0.138683
0.138634
0.138585
0.138538
0.138492
0.138447
0.138402
0.138359
0.138316
0.138273
0.138232
0.13819
0.13815
0.138109
0.138069
0.138029
0.13799
0.137951
0.137912
0.137873
0.137834
0.137795
0.137756
0.137717
0.137678
0.137639
0.1376
0.13756
0.137521
0.137481
0.137441
0.137401
0.13736
0.13732
0.137279
0.137237
0.137196
0.137154
0.137111
0.137068
0.137025
0.136981
0.136937
0.136893
0.136848
0.136802
0.136756
0.13671
0.136663
0.136615
0.136567
0.136518
0.136469
0.136418
0.136367
0.136315
0.136262
0.136208
0.136152
0.136095
0.136036
0.135974
0.135908
0.135839
0.135765
0.135683
0.135592
0.135489
0.135369
0.135228
0.135067
0.134894
0.0353225
0.0704552
0.0878334
0.0997176
0.10904
0.11682
0.123536
0.129453
0.134738
0.139508
0.143845
0.147817
0.151475
0.154863
0.158015
0.160959
0.163716
0.166303
0.168737
0.171039
0.173219
0.175281
0.177227
0.179052
0.18075
0.182316
0.183733
0.184995
0.186099
0.18704
0.187814
0.188419
0.188853
0.189116
0.189209
0.189135
0.188895
0.188496
0.187942
0.18724
0.186398
0.185424
0.184329
0.183123
0.181816
0.180422
0.178951
0.177417
0.175833
0.174211
0.172565
0.170907
0.16925
0.167604
0.165981
0.164391
0.162843
0.161344
0.159901
0.158519
0.157203
0.155955
0.154778
0.153673
0.152638
0.151674
0.150779
0.14995
0.149185
0.14848
0.147833
0.147239
0.146695
0.146198
0.145743
0.145328
0.144949
0.144603
0.144288
0.143999
0.143735
0.143494
0.143273
0.143071
0.142885
0.142714
0.142557
0.142412
0.142277
0.142153
0.142038
0.141931
0.141831
0.141738
0.141651
0.141569
0.141492
0.14142
0.141351
0.141286
0.141225
0.141166
0.14111
0.141056
0.141005
0.140955
0.140906
0.140859
0.140814
0.140769
0.140726
0.140684
0.140642
0.140602
0.140562
0.140523
0.140485
0.140447
0.14041
0.140373
0.140337
0.140301
0.140265
0.140229
0.140194
0.140159
0.140124
0.140089
0.140054
0.14002
0.139985
0.13995
0.139915
0.13988
0.139845
0.13981
0.139774
0.139739
0.139703
0.139667
0.139631
0.139594
0.139557
0.13952
0.139482
0.139445
0.139406
0.139368
0.139329
0.13929
0.13925
0.13921
0.139169
0.139128
0.139087
0.139045
0.139002
0.138959
0.138916
0.138872
0.138827
0.138781
0.138735
0.138688
0.13864
0.138591
0.138541
0.138489
0.138435
0.138379
0.13832
0.138258
0.138191
0.138118
0.138037
0.137946
0.137842
0.137721
0.137585
0.137441
0.0361675
0.0716081
0.0890922
0.100963
0.110211
0.117882
0.12447
0.130247
0.135387
0.140009
0.144201
0.14803
0.151552
0.154809
0.157836
0.160662
0.163306
0.165788
0.168139
0.170375
0.172508
0.17454
0.176472
0.1783
0.180007
0.181591
0.183044
0.18436
0.185531
0.186552
0.187417
0.188121
0.188661
0.189033
0.189239
0.189278
0.189152
0.188865
0.188421
0.187826
0.187087
0.186211
0.185208
0.184087
0.18286
0.181538
0.180132
0.178655
0.177121
0.175543
0.173933
0.172305
0.170671
0.169043
0.167433
0.165852
0.164308
0.16281
0.161366
0.159982
0.158662
0.157409
0.156228
0.155117
0.154079
0.153112
0.152214
0.151384
0.150618
0.149915
0.14927
0.14868
0.14814
0.147649
0.147201
0.146793
0.146422
0.146084
0.145778
0.145498
0.145244
0.145012
0.144801
0.144608
0.144432
0.144271
0.144122
0.143986
0.143861
0.143746
0.143639
0.14354
0.143449
0.143363
0.143284
0.143209
0.14314
0.143074
0.143013
0.142954
0.142899
0.142847
0.142797
0.142749
0.142703
0.142659
0.142616
0.142574
0.142534
0.142494
0.142456
0.142419
0.142382
0.142347
0.142312
0.142277
0.142244
0.14221
0.142177
0.142145
0.142113
0.142081
0.14205
0.142019
0.141988
0.141957
0.141926
0.141895
0.141865
0.141834
0.141803
0.141773
0.141742
0.141711
0.14168
0.141649
0.141617
0.141586
0.141554
0.141523
0.14149
0.141458
0.141425
0.141393
0.141359
0.141326
0.141292
0.141258
0.141223
0.141188
0.141153
0.141118
0.141081
0.141045
0.141008
0.140971
0.140933
0.140895
0.140856
0.140817
0.140777
0.140736
0.140695
0.140653
0.14061
0.140566
0.140521
0.140475
0.140427
0.140377
0.140325
0.14027
0.14021
0.140146
0.140075
0.139996
0.139907
0.139805
0.139691
0.139572
0.0365161
0.0718494
0.0892681
0.101023
0.110125
0.117633
0.124046
0.129644
0.134602
0.139043
0.143055
0.146709
0.15006
0.153153
0.156023
0.158697
0.161193
0.163553
0.165805
0.167968
0.170057
0.172056
0.173972
0.175806
0.177551
0.1792
0.180744
0.182173
0.183477
0.184644
0.185665
0.186534
0.187242
0.187787
0.188164
0.188373
0.188415
0.188291
0.188005
0.187561
0.186967
0.186228
0.185354
0.184354
0.183239
0.182019
0.180706
0.179314
0.177856
0.176343
0.174791
0.173213
0.17162
0.170027
0.168446
0.166886
0.16536
0.163875
0.16244
0.161062
0.159746
0.158496
0.157315
0.156205
0.155167
0.1542
0.153303
0.152474
0.151711
0.15101
0.150369
0.149783
0.149249
0.148763
0.148322
0.147922
0.147559
0.14723
0.146931
0.146661
0.146416
0.146194
0.145992
0.145808
0.145641
0.145489
0.145349
0.145222
0.145106
0.144999
0.1449
0.144809
0.144725
0.144647
0.144575
0.144508
0.144445
0.144386
0.144331
0.144279
0.14423
0.144183
0.144139
0.144097
0.144056
0.144017
0.14398
0.143943
0.143908
0.143873
0.14384
0.143808
0.143776
0.143745
0.143714
0.143684
0.143655
0.143626
0.143598
0.14357
0.143542
0.143514
0.143487
0.14346
0.143433
0.143406
0.14338
0.143353
0.143326
0.1433
0.143273
0.143246
0.14322
0.143193
0.143166
0.143139
0.143112
0.143084
0.143057
0.143029
0.143001
0.142973
0.142944
0.142916
0.142887
0.142857
0.142828
0.142798
0.142768
0.142737
0.142706
0.142675
0.142644
0.142612
0.142579
0.142547
0.142513
0.14248