/*--------------------------------*- C++ -*----------------------------------*\
  =========                 |
  \\      /  F ield         | OpenFOAM: The Open Source CFD Toolbox
   \\    /   O peration     | Website:  https://openfoam.org
    \\  /    A nd           | Version:  6
     \\/     M anipulation  |
\*---------------------------------------------------------------------------*/
FoamFile
{
    version     2.0;
    format      ascii;
    class       volScalarField;
    location    "0.04";
    object      nut;
}
// * * * * * * * * * * * * * * * * * * * * * * * * * * * * * * * * * * * * * //

dimensions      [0 2 -1 0 0 0 0];

internalField   nonuniform List<scalar> 
12225
(
1.77721e-05
1.42682e-05
1.23519e-05
1.11658e-05
1.03664e-05
9.79922e-06
9.37745e-06
9.04876e-06
8.78238e-06
8.56025e-06
8.37136e-06
8.20939e-06
8.07033e-06
7.95084e-06
7.84941e-06
7.7661e-06
7.70773e-06
7.69345e-06
0.000144882
0.000101928
8.79387e-05
8.06147e-05
7.62043e-05
7.328e-05
7.10454e-05
6.91212e-05
6.73837e-05
6.58088e-05
6.43889e-05
6.31007e-05
6.19431e-05
6.09229e-05
6.00525e-05
5.9352e-05
5.88957e-05
5.88047e-05
0.000323344
0.000223627
0.000189904
0.00017274
0.000162313
0.000155347
0.000150245
0.000146171
0.000142731
0.000139751
0.000137159
0.000134869
0.000132854
0.000131121
0.000129697
0.000128633
0.000128056
0.000128211
0.000493996
0.000355323
0.000299603
0.000269915
0.000251528
0.000239118
0.000230137
0.000223219
0.000217634
0.000212992
0.000209095
0.00020575
0.00020289
0.000200494
0.000198574
0.000197182
0.00019644
0.000196564
0.000624501
0.000478789
0.00040758
0.000366579
0.000340197
0.00032198
0.000308689
0.000298522
0.000290453
0.000283887
0.000278469
0.000273913
0.000270092
0.000266938
0.000264435
0.000262611
0.000261555
0.000261422
0.000713141
0.000583483
0.000506785
0.000458358
0.000425578
0.00040221
0.000384834
0.00037144
0.000360817
0.000352231
0.000345161
0.000339277
0.000334385
0.00033037
0.000327175
0.000324796
0.000323283
0.00032273
0.00076935
0.000665713
0.000592592
0.000541655
0.000505091
0.000478
0.000457331
0.000441145
0.000428198
0.000417684
0.000408997
0.000401775
0.000395777
0.000390844
0.000386885
0.000383863
0.000381787
0.000380704
0.000803495
0.000726436
0.000662839
0.000613942
0.000576537
0.000547592
0.000524824
0.000506614
0.000491844
0.000479689
0.000469582
0.000461141
0.000454098
0.000448269
0.000443536
0.000439834
0.000437142
0.000435469
0.000823659
0.000769048
0.000717506
0.000673942
0.000638359
0.000609505
0.000586022
0.000566767
0.000550835
0.000537526
0.000526343
0.000516922
0.000508998
0.000502379
0.000496934
0.00049258
0.000489276
0.000487004
0.000835345
0.000797701
0.000758104
0.000721604
0.000689799
0.000662729
0.000639881
0.000620606
0.000604287
0.000590423
0.000578615
0.000568553
0.000559998
0.000552773
0.000546748
0.000541834
0.00053798
0.000535147
0.000842034
0.00081629
0.00078698
0.000757868
0.000730911
0.000706842
0.000685736
0.000667377
0.000651457
0.00063767
0.00062574
0.000615434
0.000606563
0.000598976
0.000592559
0.000587231
0.000582939
0.000579633
0.000845523
0.000827017
0.000805068
0.000782097
0.000759783
0.00073903
0.000720206
0.000703374
0.000688446
0.000675274
0.000663695
0.000653555
0.000644717
0.000637069
0.000630518
0.000624998
0.000620462
0.000616866
0.000847632
0.000834009
0.000817655
0.000799901
0.000781945
0.00076461
0.000748367
0.000733437
0.000719885
0.000707688
0.000696782
0.000687088
0.000678524
0.000671015
0.000664497
0.000658923
0.000654256
0.000650454
0.000848992
0.000838829
0.00082691
0.00081376
0.000800045
0.000786349
0.000773095
0.00076055
0.000748865
0.000738106
0.000728292
0.000719409
0.00071143
0.000704321
0.000698052
0.000692597
0.000687934
0.000684022
0.000849791
0.00084183
0.000833035
0.000823474
0.000813398
0.000803109
0.000792884
0.00078294
0.000773433
0.000764466
0.000756101
0.000748371
0.000741291
0.000734864
0.000729089
0.000723963
0.000719479
0.000715599
0.000850215
0.000843496
0.000836624
0.000829488
0.000822101
0.000814549
0.000806949
0.000799418
0.000792063
0.00078497
0.000778203
0.000771811
0.00076583
0.000760284
0.000755193
0.000750572
0.000746426
0.000742718
0.000850413
0.0008443
0.000838432
0.000832669
0.00082693
0.000821184
0.000815439
0.000809724
0.000804079
0.000798548
0.000793173
0.000787992
0.00078304
0.000778347
0.000773939
0.000769841
0.000766063
0.000762567
0.000850484
0.000844592
0.00083911
0.000833905
0.000828875
0.000823949
0.000819088
0.000814274
0.000809508
0.0008048
0.00080017
0.00079564
0.000791236
0.000786983
0.000782908
0.000779036
0.000775379
0.000771897
0.000850461
0.000844498
0.00083889
0.0008335
0.000828226
0.000823008
0.000817811
0.000812627
0.000807464
0.000802337
0.00079727
0.000792286
0.000787411
0.000782671
0.000778093
0.000773704
0.000769516
0.000765499
0.000850262
0.000843685
0.000837043
0.000830207
0.000823148
0.000815904
0.000808544
0.000801151
0.000793801
0.000786561
0.000779485
0.000772615
0.000765981
0.00075961
0.000753524
0.000747741
0.000742274
0.00073709
0.000849703
0.00084151
0.000832383
0.000822413
0.000811854
0.000801002
0.000790119
0.00077941
0.000769018
0.000759035
0.000749513
0.000740478
0.000731936
0.000723885
0.000716318
0.000709232
0.000702619
0.000696441
0.000848156
0.000835908
0.000821308
0.000805294
0.00078879
0.000772486
0.000756819
0.000742029
0.000728216
0.000715395
0.000703535
0.000692577
0.000682454
0.000673101
0.000664459
0.000656481
0.000649132
0.000642359
0.000844076
0.000822688
0.000797775
0.00077218
0.000747625
0.000724931
0.000704364
0.000685894
0.000669358
0.000654546
0.000641243
0.000629255
0.000618407
0.000608554
0.000599576
0.000591384
0.000583913
0.000577099
0.000833775
0.000794168
0.000753162
0.000715627
0.000682921
0.000654943
0.000631108
0.000610734
0.000593195
0.000577969
0.000564631
0.000552846
0.000542346
0.000532924
0.000524418
0.000516709
0.00050972
0.000503387
0.000809057
0.000738597
0.000678281
0.000630443
0.000592854
0.000563057
0.000539082
0.000519449
0.000503083
0.00048921
0.000477267
0.000466844
0.000457637
0.000449419
0.000442023
0.000435329
0.000429262
0.000423778
0.000753665
0.000642571
0.000567981
0.000517157
0.000480914
0.00045404
0.000433419
0.000417081
0.000403756
0.00039261
0.000383082
0.000374785
0.000367451
0.000360884
0.000354949
0.000349548
0.000344629
0.00034017
0.000641451
0.000499038
0.000426564
0.000383606
0.000355288
0.000335364
0.0003206
0.000309125
0.000299826
0.000292025
0.000285298
0.000279372
0.000274065
0.000269252
0.000264848
0.000260795
0.000257064
0.000253661
0.000448546
0.00032011
0.00027013
0.000243212
0.000226333
0.000214902
0.000206599
0.000200122
0.000194754
0.00019011
0.000185975
0.000182225
0.000178782
0.000175595
0.000172631
0.000169867
0.000167291
0.000164923
0.000203091
0.000143513
0.000122899
0.000111584
0.000104628
0.000100112
9.68485e-05
9.41762e-05
9.18006e-05
8.96135e-05
8.75762e-05
8.56724e-05
8.3892e-05
8.22274e-05
8.06709e-05
7.92152e-05
7.78551e-05
7.65938e-05
2.40293e-05
1.96329e-05
1.71006e-05
1.54621e-05
1.43161e-05
1.34792e-05
1.28461e-05
1.23491e-05
1.19451e-05
1.16066e-05
1.13158e-05
1.10614e-05
1.08355e-05
1.06326e-05
1.04488e-05
1.02811e-05
1.01272e-05
9.98589e-06
3.35984e-06
1.13898e-05
1.33162e-05
1.46882e-05
1.57559e-05
1.66357e-05
1.73868e-05
1.80433e-05
1.86272e-05
1.91537e-05
1.96339e-05
2.00761e-05
2.04865e-05
2.08698e-05
2.12296e-05
2.15684e-05
2.18883e-05
2.21906e-05
2.2478e-05
2.27611e-05
2.30835e-05
2.33872e-05
2.36699e-05
2.39315e-05
2.41718e-05
2.43904e-05
2.45869e-05
2.47608e-05
2.49116e-05
2.50385e-05
2.5141e-05
2.52183e-05
2.52697e-05
2.52952e-05
2.52986e-05
2.52944e-05
2.53034e-05
2.53152e-05
2.53168e-05
2.53038e-05
2.52755e-05
2.52323e-05
2.51749e-05
2.51044e-05
2.50217e-05
2.49282e-05
2.48249e-05
2.47131e-05
2.45941e-05
2.4469e-05
2.4339e-05
2.42052e-05
2.40688e-05
2.39307e-05
2.37918e-05
2.36531e-05
2.35152e-05
2.33789e-05
2.32448e-05
2.31133e-05
2.29849e-05
2.286e-05
2.27388e-05
2.26215e-05
2.25083e-05
2.23993e-05
2.22945e-05
2.21939e-05
2.20974e-05
2.20051e-05
2.19167e-05
2.18322e-05
2.17514e-05
2.16743e-05
2.16005e-05
2.15301e-05
2.14627e-05
2.13983e-05
2.13367e-05
2.12777e-05
2.12211e-05
2.11669e-05
2.11148e-05
2.10648e-05
2.10166e-05
2.09702e-05
2.09255e-05
2.08822e-05
2.08404e-05
2.07998e-05
2.07605e-05
2.07223e-05
2.06851e-05
2.06489e-05
2.06135e-05
2.0579e-05
2.05452e-05
2.0512e-05
2.04795e-05
2.04475e-05
2.0416e-05
2.03849e-05
2.0354e-05
2.03237e-05
2.02941e-05
2.02649e-05
2.02361e-05
2.02074e-05
2.0179e-05
2.01507e-05
2.01224e-05
2.00943e-05
2.00662e-05
2.00381e-05
2.00101e-05
1.9982e-05
1.9954e-05
1.99259e-05
1.98977e-05
1.98695e-05
1.98413e-05
1.98129e-05
1.97845e-05
1.97559e-05
1.97273e-05
1.96986e-05
1.96697e-05
1.96407e-05
1.96115e-05
1.95822e-05
1.95528e-05
1.95232e-05
1.94934e-05
1.94635e-05
1.94333e-05
1.9403e-05
1.93726e-05
1.93419e-05
1.9311e-05
1.92799e-05
1.92487e-05
1.92172e-05
1.91854e-05
1.91535e-05
1.91213e-05
1.90889e-05
1.90563e-05
1.90234e-05
1.89903e-05
1.8957e-05
1.89234e-05
1.88895e-05
1.88554e-05
1.8821e-05
1.87864e-05
1.87515e-05
1.87163e-05
1.86808e-05
1.8645e-05
1.8609e-05
1.85726e-05
1.85359e-05
1.84988e-05
1.84614e-05
1.84235e-05
1.83852e-05
1.83463e-05
1.83068e-05
1.82666e-05
1.82255e-05
1.81833e-05
1.81397e-05
1.80941e-05
1.80459e-05
1.79936e-05
1.79349e-05
1.78653e-05
1.77746e-05
1.76422e-05
1.74254e-05
5.6503e-06
4.27346e-05
6.84953e-05
8.5567e-05
9.8401e-05
0.000108886
0.000117898
0.000125902
0.000133178
0.000139908
0.000146221
0.000152209
0.000157936
0.000163446
0.000168763
0.000173894
0.000178826
0.000183533
0.000187973
0.000192095
0.000195851
0.000199387
0.000202738
0.000205911
0.000208901
0.000211698
0.000214292
0.000216671
0.00021882
0.000220726
0.000222374
0.00022375
0.000224838
0.000225629
0.000226122
0.000226327
0.000226271
0.000225978
0.000225462
0.000224736
0.000223813
0.000222707
0.000221434
0.000220009
0.000218449
0.00021677
0.00021499
0.000213127
0.000211195
0.000209212
0.000207193
0.000205152
0.000203104
0.000201061
0.000199035
0.000197035
0.00019507
0.00019315
0.000191279
0.000189464
0.000187708
0.000186015
0.000184387
0.000182826
0.000181332
0.000179906
0.000178546
0.000177251
0.00017602
0.000174852
0.000173743
0.000172692
0.000171697
0.000170755
0.000169863
0.000169018
0.000168219
0.000167463
0.000166747
0.000166069
0.000165426
0.000164818
0.00016424
0.000163692
0.000163171
0.000162676
0.000162205
0.000161756
0.000161328
0.000160919
0.000160529
0.000160155
0.000159796
0.000159453
0.000159122
0.000158804
0.000158497
0.000158202
0.000157915
0.000157638
0.000157369
0.000157107
0.000156849
0.000156585
0.000156326
0.000156072
0.000155824
0.000155581
0.000155344
0.000155112
0.000154884
0.00015466
0.000154439
0.000154222
0.000154007
0.000153795
0.000153585
0.000153377
0.000153171
0.000152966
0.000152762
0.00015256
0.000152358
0.000152157
0.000151956
0.000151755
0.000151555
0.000151355
0.000151154
0.000150953
0.000150752
0.000150551
0.000150349
0.000150146
0.000149943
0.000149738
0.000149533
0.000149327
0.00014912
0.000148912
0.000148702
0.000148491
0.000148279
0.000148065
0.00014785
0.000147634
0.000147416
0.000147196
0.000146974
0.000146751
0.000146527
0.0001463
0.000146072
0.000145842
0.00014561
0.000145377
0.000145141
0.000144903
0.000144662
0.00014442
0.000144174
0.000143926
0.000143674
0.000143419
0.000143159
0.000142894
0.000142624
0.000142345
0.000142057
0.000141757
0.00014144
0.0001411
0.000140729
0.000140308
0.000139811
0.000139181
0.000138296
0.000136916
0.000134327
0.000129884
6.77718e-06
5.89966e-05
0.000104326
0.000137502
0.000163237
0.000184356
0.000202439
0.000218405
0.00023282
0.000246051
0.000258346
0.000269882
0.000280779
0.000291126
0.000300978
0.000310371
0.00031932
0.000327827
0.000335884
0.000343472
0.000350572
0.00035726
0.000363568
0.000369504
0.000375065
0.000380244
0.000385027
0.0003894
0.00039335
0.000396861
0.000399919
0.000402513
0.000404633
0.000406275
0.000407439
0.000408131
0.000408363
0.000408161
0.000407546
0.00040654
0.000405165
0.000403446
0.000401408
0.000399079
0.000396488
0.000393664
0.000390638
0.00038744
0.000384099
0.000380647
0.000377111
0.000373518
0.000369894
0.000366264
0.00036265
0.000359071
0.000355545
0.000352087
0.000348712
0.000345429
0.000342248
0.000339177
0.00033622
0.000333381
0.000330662
0.000328063
0.000325584
0.000323225
0.000320981
0.000318851
0.000316832
0.000314918
0.000313106
0.000311392
0.000309771
0.000308238
0.000306789
0.00030542
0.000304125
0.000302901
0.000301743
0.000300648
0.000299612
0.00029863
0.0002977
0.000296818
0.000295981
0.000295186
0.000294429
0.00029371
0.000293025
0.000292371
0.000291747
0.00029115
0.000290578
0.000290031
0.000289505
0.000288999
0.000288513
0.000288043
0.000287589
0.000287149
0.00028672
0.000286296
0.00028588
0.000285472
0.000285073
0.000284683
0.000284301
0.000283927
0.00028356
0.0002832
0.000282846
0.000282498
0.000282155
0.000281818
0.000281484
0.000281154
0.000280828
0.000280504
0.000280184
0.000279865
0.000279548
0.000279233
0.000278919
0.000278606
0.000278294
0.000277982
0.000277671
0.000277359
0.000277047
0.000276735
0.000276422
0.000276108
0.000275793
0.000275478
0.000275161
0.000274842
0.000274522
0.000274201
0.000273877
0.000273552
0.000273224
0.000272894
0.000272562
0.000272228
0.000271891
0.000271552
0.00027121
0.000270866
0.000270518
0.000270168
0.000269815
0.000269459
0.0002691
0.000268738
0.000268373
0.000268003
0.000267631
0.000267254
0.000266872
0.000266486
0.000266094
0.000265696
0.00026529
0.000264876
0.000264451
0.000264014
0.000263559
0.000263084
0.00026258
0.000262039
0.000261442
0.000260766
0.000259966
0.00025896
0.000257583
0.000255518
0.000252005
0.000246261
7.53891e-06
6.92471e-05
0.000128269
0.000173946
0.000210317
0.000240416
0.000266159
0.000288756
0.000308994
0.000327397
0.000344329
0.000360046
0.000374733
0.000388526
0.000401523
0.000413796
0.000425397
0.000436359
0.000446705
0.000456447
0.000465587
0.000474181
0.000482262
0.000489845
0.000496936
0.000503532
0.000509627
0.000515211
0.000520272
0.000524798
0.000528777
0.000532199
0.000535055
0.00053734
0.000539052
0.000540189
0.000540761
0.000540792
0.000540303
0.000539316
0.000537857
0.000535954
0.000533636
0.000530936
0.000527888
0.000524527
0.00052089
0.000517014
0.000512937
0.000508696
0.000504327
0.000499865
0.000495344
0.000490795
0.000486248
0.000481729
0.000477263
0.000472871
0.000468571
0.00046438
0.00046031
0.000456372
0.000452575
0.000448923
0.000445422
0.000442072
0.000438874
0.000435827
0.000432928
0.000430176
0.000427564
0.000425089
0.000422746
0.000420529
0.000418433
0.000416452
0.000414579
0.00041281
0.000411138
0.000409558
0.000408065
0.000406654
0.000405319
0.000404055
0.000402859
0.000401726
0.000400652
0.000399633
0.000398665
0.000397746
0.000396871
0.000396037
0.000395243
0.000394484
0.00039376
0.000393066
0.000392402
0.000391764
0.000391151
0.000390561
0.000389992
0.000389442
0.000388908
0.000388387
0.000387876
0.000387378
0.000386891
0.000386415
0.000385949
0.000385493
0.000385046
0.000384607
0.000384176
0.000383753
0.000383337
0.000382926
0.000382521
0.000382122
0.000381727
0.000381336
0.000380948
0.000380564
0.000380182
0.000379803
0.000379425
0.000379049
0.000378674
0.000378299
0.000377926
0.000377552
0.000377178
0.000376804
0.00037643
0.000376054
0.000375678
0.0003753
0.000374921
0.000374541
0.000374158
0.000373774
0.000373388
0.000372999
0.000372608
0.000372214
0.000371817
0.000371418
0.000371016
0.00037061
0.000370202
0.00036979
0.000369375
0.000368956
0.000368534
0.000368108
0.000367678
0.000367245
0.000366807
0.000366365
0.000365918
0.000365467
0.000365009
0.000364546
0.000364076
0.000363598
0.00036311
0.000362612
0.000362101
0.000361574
0.000361026
0.000360452
0.000359844
0.000359188
0.000358467
0.000357649
0.000356685
0.000355487
0.000353886
0.000351579
0.00034797
0.000342583
8.13091e-06
7.66597e-05
0.000145906
0.000201325
0.000246229
0.000283639
0.000315622
0.000343567
0.000368415
0.000390816
0.000411233
0.000430001
0.000447366
0.000463516
0.000478592
0.000492704
0.000505939
0.000518362
0.000530023
0.00054096
0.000551201
0.000560811
0.000569833
0.000578294
0.00058621
0.000593588
0.000600429
0.000606727
0.000612474
0.000617659
0.000622269
0.000626294
0.000629722
0.000632545
0.000634757
0.000636343
0.000637317
0.000637697
0.000637501
0.000636751
0.000635468
0.000633681
0.000631418
0.000628713
0.0006256
0.000622116
0.000618302
0.000614195
0.000609839
0.000605273
0.000600539
0.000595675
0.000590721
0.000585712
0.000580684
0.000575668
0.000570692
0.000565783
0.000560964
0.000556255
0.000551672
0.000547229
0.000542937
0.000538804
0.000534836
0.000531035
0.000527404
0.000523942
0.000520648
0.000517517
0.000514547
0.000511731
0.000509066
0.000506544
0.000504159
0.000501905
0.000499776
0.000497765
0.000495865
0.00049407
0.000492375
0.000490772
0.000489258
0.000487825
0.000486469
0.000485186
0.00048397
0.000482816
0.000481722
0.000480683
0.000479695
0.000478754
0.000477859
0.000477004
0.000476189
0.000475409
0.000474662
0.000473947
0.000473259
0.000472598
0.000471962
0.000471347
0.000470752
0.000470173
0.000469609
0.000469059
0.000468522
0.000467998
0.000467485
0.000466982
0.00046649
0.000466007
0.000465534
0.000465068
0.00046461
0.000464159
0.000463714
0.000463276
0.000462842
0.000462413
0.000461989
0.000461568
0.00046115
0.000460734
0.000460321
0.00045991
0.0004595
0.000459092
0.000458684
0.000458276
0.000457868
0.00045746
0.000457052
0.000456643
0.000456232
0.000455821
0.000455408
0.000454994
0.000454577
0.000454158
0.000453737
0.000453314
0.000452888
0.000452459
0.000452027
0.000451592
0.000451154
0.000450712
0.000450267
0.000449818
0.000449365
0.000448909
0.000448449
0.000447984
0.000447516
0.000447043
0.000446565
0.000446083
0.000445595
0.000445102
0.000444602
0.000444096
0.000443582
0.00044306
0.000442527
0.000441982
0.000441423
0.000440845
0.000440246
0.000439617
0.00043895
0.000438232
0.000437442
0.000436549
0.000435502
0.000434214
0.000432531
0.00043019
0.000426764
0.000422037
8.62698e-06
8.2477e-05
0.000159792
0.000222988
0.000274747
0.000318025
0.00035498
0.000387118
0.0004155
0.00044088
0.000463806
0.000484684
0.000503821
0.000521453
0.000537767
0.000552911
0.000567004
0.000580144
0.000592408
0.000603859
0.000614556
0.000624584
0.000633999
0.000642844
0.000651146
0.000658921
0.000666175
0.000672907
0.000679109
0.000684769
0.000689874
0.000694407
0.000698354
0.000701701
0.000704424
0.000706513
0.000707976
0.000708826
0.000709074
0.000708737
0.000707834
0.000706388
0.000704427
0.00070198
0.000699081
0.000695767
0.000692075
0.000688048
0.000683727
0.000679155
0.000674374
0.000669427
0.000664355
0.000659199
0.000653996
0.000648783
0.00064359
0.00063845
0.000633387
0.000628426
0.000623586
0.000618885
0.000614335
0.000609947
0.000605729
0.000601685
0.000597819
0.000594131
0.000590619
0.000587282
0.000584115
0.000581114
0.000578272
0.000575585
0.000573044
0.000570644
0.000568377
0.000566236
0.000564215
0.000562307
0.000560505
0.000558803
0.000557194
0.000555673
0.000554235
0.000552873
0.000551584
0.000550362
0.000549203
0.000548103
0.000547057
0.000546063
0.000545116
0.000544213
0.000543352
0.000542528
0.000541741
0.000540986
0.000540261
0.000539565
0.000538895
0.000538248
0.000537623
0.000537016
0.000536426
0.000535852
0.000535291
0.000534743
0.000534207
0.000533683
0.00053317
0.000532666
0.000532172
0.000531686
0.000531208
0.000530738
0.000530274
0.000529817
0.000529365
0.000528918
0.000528476
0.000528038
0.000527603
0.00052717
0.000526741
0.000526313
0.000525887
0.000525462
0.000525038
0.000524614
0.00052419
0.000523766
0.000523342
0.000522917
0.000522491
0.000522064
0.000521635
0.000521204
0.000520772
0.000520337
0.0005199
0.00051946
0.000519017
0.000518572
0.000518123
0.000517671
0.000517216
0.000516757
0.000516294
0.000515827
0.000515357
0.000514883
0.000514404
0.000513921
0.000513434
0.000512941
0.000512444
0.000511942
0.000511435
0.000510921
0.000510401
0.000509873
0.000509338
0.000508793
0.000508238
0.00050767
0.000507087
0.000506485
0.000505859
0.000505204
0.000504509
0.000503761
0.00050294
0.000502015
0.000500936
0.000499623
0.00049794
0.000495675
0.000492528
0.000488447
9.06061e-06
8.7242e-05
0.000171132
0.000240633
0.000297895
0.000345819
0.000386628
0.000421933
0.000452891
0.000480348
0.00050493
0.000527109
0.000547249
0.000565636
0.000582498
0.000598022
0.000612362
0.000625646
0.000637981
0.000649442
0.000660141
0.000670178
0.000679628
0.000688546
0.000696969
0.000704921
0.000712411
0.000719439
0.000725997
0.000732068
0.000737634
0.000742672
0.00074716
0.000751074
0.00075437
0.000757047
0.000759106
0.00076055
0.000761383
0.000761617
0.000761264
0.000760342
0.000758875
0.000756889
0.000754414
0.000751485
0.000748139
0.000744416
0.000740358
0.000736007
0.000731408
0.000726604
0.000721639
0.000716556
0.000711395
0.000706195
0.000700992
0.000695819
0.000690705
0.000685679
0.000680762
0.000675975
0.000671333
0.000666849
0.000662533
0.000658392
0.000654429
0.000650647
0.000647046
0.000643623
0.000640375
0.000637298
0.000634385
0.000631632
0.00062903
0.000626574
0.000624255
0.000622067
0.000620002
0.000618054
0.000616215
0.000614479
0.00061284
0.000611291
0.000609826
0.000608441
0.00060713
0.000605887
0.00060471
0.000603592
0.00060253
0.000601521
0.00060056
0.000599644
0.000598771
0.000597936
0.000597138
0.000596374
0.00059564
0.000594935
0.000594257
0.000593603
0.00059297
0.000592358
0.000591763
0.000591183
0.000590618
0.000590065
0.000589526
0.000588997
0.00058848
0.000587972
0.000587474
0.000586984
0.000586503
0.000586029
0.000585562
0.000585101
0.000584645
0.000584195
0.000583749
0.000583308
0.000582869
0.000582434
0.000582001
0.00058157
0.000581141
0.000580713
0.000580286
0.000579859
0.000579433
0.000579006
0.000578579
0.000578151
0.000577722
0.000577292
0.00057686
0.000576426
0.00057599
0.000575552
0.000575112
0.000574669
0.000574223
0.000573774
0.000573322
0.000572867
0.000572408
0.000571945
0.000571478
0.000571008
0.000570534
0.000570055
0.000569572
0.000569085
0.000568593
0.000568096
0.000567594
0.000567087
0.000566574
0.000566056
0.00056553
0.000564997
0.000564456
0.000563905
0.000563344
0.00056277
0.00056218
0.000561571
0.000560939
0.000560277
0.000559575
0.00055882
0.000557994
0.000557066
0.000555991
0.000554696
0.000553067
0.000550934
0.000548096
0.000544584
9.4471e-06
9.11951e-05
0.000180479
0.000255081
0.000316704
0.00036821
0.000411888
0.00044944
0.000482117
0.000510847
0.00053633
0.000559101
0.000579579
0.000598097
0.000614927
0.000630292
0.000644381
0.00065735
0.000669334
0.000680441
0.000690822
0.000700595
0.000709853
0.000718662
0.000727067
0.000735097
0.000742762
0.000750058
0.000756971
0.000763478
0.000769552
0.000775161
0.000780271
0.000784826
0.000788799
0.000792179
0.000794956
0.000797125
0.000798683
0.000799631
0.000799978
0.000799736
0.000798922
0.000797559
0.000795674
0.000793298
0.000790467
0.000787217
0.000783591
0.000779632
0.000775382
0.000770888
0.000766194
0.000761344
0.000756382
0.000751348
0.000746283
0.000741221
0.000736196
0.000731238
0.000726373
0.000721623
0.000717007
0.00071254
0.000708235
0.000704099
0.00070014
0.000696359
0.000692758
0.000689336
0.00068609
0.000683015
0.000680107
0.000677359
0.000674765
0.000672317
0.000670009
0.000667833
0.000665781
0.000663847
0.000662023
0.000660302
0.000658678
0.000657146
0.000655697
0.000654328
0.000653033
0.000651807
0.000650645
0.000649543
0.000648497
0.000647502
0.000646556
0.000645654
0.000644794
0.000643973
0.000643188
0.000642435
0.000641714
0.000641021
0.000640354
0.000639711
0.00063909
0.000638489
0.000637904
0.000637335
0.00063678
0.000636238
0.000635708
0.00063519
0.000634681
0.000634183
0.000633694
0.000633213
0.00063274
0.000632274
0.000631815
0.000631362
0.000630915
0.000630472
0.000630034
0.0006296
0.000629169
0.000628742
0.000628316
0.000627893
0.000627471
0.00062705
0.00062663
0.000626211
0.000625791
0.000625372
0.000624952
0.000624531
0.000624109
0.000623686
0.000623261
0.000622834
0.000622406
0.000621975
0.000621541
0.000621105
0.000620666
0.000620224
0.000619779
0.00061933
0.000618878
0.000618422
0.000617963
0.000617499
0.000617031
0.000616559
0.000616083
0.000615602
0.000615117
0.000614627
0.000614131
0.000613631
0.000613124
0.000612612
0.000612093
0.000611566
0.000611031
0.000610487
0.000609932
0.000609365
0.000608782
0.00060818
0.000607556
0.000606901
0.000606209
0.000605466
0.000604654
0.000603746
0.0006027
0.000601454
0.000599912
0.000597942
0.00059541
0.00059239
9.79201e-06
9.44282e-05
0.000188048
0.000266674
0.000331636
0.000385767
0.000431425
0.000470397
0.000504021
0.000533305
0.000559017
0.000581754
0.000601987
0.000620098
0.000636398
0.00065115
0.000664575
0.000676859
0.000688162
0.000698646
0.000708488
0.000717827
0.000726769
0.000735391
0.000743743
0.000751852
0.000759724
0.000767348
0.000774699
0.000781745
0.000788442
0.000794745
0.000800585
0.00080591
0.000810695
0.000814915
0.000818549
0.000821582
0.000824003
0.000825805
0.000826989
0.000827562
0.000827537
0.000826932
0.00082577
0.000824079
0.000821893
0.000819248
0.000816183
0.000812741
0.000808966
0.000804904
0.000800601
0.000796103
0.000791454
0.000786699
0.000781878
0.000777032
0.000772195
0.000767402
0.00076268
0.000758056
0.000753551
0.000749182
0.000744964
0.000740909
0.000737022
0.00073331
0.000729773
0.000726413
0.000723226
0.00072021
0.00071736
0.000714669
0.000712131
0.00070974
0.000707487
0.000705365
0.000703368
0.000701486
0.000699715
0.000698045
0.000696471
0.000694987
0.000693586
0.000692263
0.000691013
0.000689829
0.000688709
0.000687647
0.000686639
0.000685682
0.000684771
0.000683904
0.000683077
0.000682288
0.000681533
0.000680811
0.000680118
0.000679452
0.000678812
0.000678194
0.000677598
0.000677021
0.00067646
0.000675914
0.000675381
0.00067486
0.000674351
0.000673853
0.000673365
0.000672886
0.000672416
0.000671953
0.000671499
0.000671051
0.00067061
0.000670174
0.000669743
0.000669318
0.000668896
0.000668478
0.000668063
0.000667652
0.000667242
0.000666834
0.000666428
0.000666023
0.000665618
0.000665214
0.00066481
0.000664406
0.000664001
0.000663595
0.000663188
0.00066278
0.00066237
0.000661959
0.000661545
0.000661129
0.000660711
0.00066029
0.000659866
0.000659439
0.000659009
0.000658575
0.000658138
0.000657698
0.000657253
0.000656805
0.000656353
0.000655896
0.000655435
0.00065497
0.0006545
0.000654025
0.000653545
0.00065306
0.000652569
0.000652073
0.000651569
0.000651059
0.00065054
0.000650012
0.000649474
0.000648923
0.000648357
0.000647774
0.000647168
0.000646535
0.000645865
0.000645147
0.000644364
0.000643492
0.000642495
0.000641319
0.000639885
0.000638093
0.000635854
0.000633259
1.00954e-05
9.69544e-05
0.000193879
0.000275496
0.000342831
0.0003987
0.00044552
0.000485158
0.000519031
0.000548221
0.000573561
0.000595708
0.000615184
0.000632415
0.000647758
0.000661509
0.000673924
0.000685221
0.000695589
0.000705257
0.000714423
0.000723244
0.000731839
0.000740288
0.000748643
0.000756922
0.000765122
0.000773218
0.000781168
0.000788921
0.000796418
0.000803562
0.00081029
0.000816555
0.000822318
0.000827538
0.000832183
0.000836228
0.00083965
0.000842439
0.000844588
0.000846099
0.000846979
0.000847243
0.000846911
0.00084601
0.000844571
0.000842628
0.00084022
0.000837389
0.000834181
0.000830641
0.000826815
0.000822752
0.000818499
0.000814101
0.000809603
0.000805045
0.000800468
0.000795907
0.000791394
0.000786958
0.000782622
0.000778407
0.000774331
0.000770406
0.000766641
0.000763043
0.000759615
0.000756359
0.000753272
0.000750353
0.000747597
0.000744998
0.000742551
0.000740247
0.000738081
0.000736044
0.000734128
0.000732328
0.000730634
0.000729041
0.000727542
0.000726129
0.000724798
0.000723542
0.000722356
0.000721235
0.000720175
0.00071917
0.000718218
0.000717314
0.000716455
0.000715637
0.000714858
0.000714114
0.000713404
0.000712723
0.000712071
0.000711445
0.000710842
0.000710261
0.0007097
0.000709157
0.000708629
0.000708115
0.000707613
0.000707122
0.000706643
0.000706174
0.000705713
0.000705262
0.000704819
0.000704383
0.000703954
0.000703532
0.000703115
0.000702704
0.000702297
0.000701895
0.000701497
0.000701102
0.000700711
0.000700321
0.000699934
0.000699549
0.000699164
0.000698781
0.000698399
0.000698016
0.000697634
0.000697251
0.000696868
0.000696484
0.000696098
0.000695712
0.000695323
0.000694933
0.000694541
0.000694147
0.00069375
0.00069335
0.000692948
0.000692543
0.000692135
0.000691723
0.000691308
0.000690889
0.000690467
0.000690041
0.00068961
0.000689176
0.000688738
0.000688295
0.000687847
0.000687395
0.000686938
0.000686476
0.000686008
0.000685535
0.000685055
0.000684568
0.000684073
0.00068357
0.000683056
0.000682531
0.000681991
0.000681435
0.000680857
0.000680254
0.000679616
0.000678934
0.000678192
0.00067737
0.000676435
0.000675343
0.00067403
0.00067242
0.000670457
0.000668231
1.03537e-05
9.87428e-05
0.000197912
0.000281486
0.000350255
0.000407019
0.000454239
0.000493848
0.000527335
0.000555847
0.000580278
0.000601337
0.000619599
0.000635535
0.000649542
0.000661955
0.000673066
0.000683126
0.000692373
0.000701102
0.000709532
0.000717835
0.000726137
0.000734518
0.000743021
0.000751651
0.000760385
0.000769175
0.000777954
0.000786649
0.000795124
0.000803312
0.000811144
0.000818556
0.000825488
0.000831887
0.000837709
0.000842917
0.000847482
0.000851387
0.000854618
0.000857174
0.000859059
0.000860284
0.000860869
0.000860838
0.00086022
0.000859051
0.000857368
0.000855214
0.000852635
0.000849677
0.000846388
0.000842818
0.000839015
0.000835028
0.000830903
0.000826684
0.000822414
0.000818131
0.00081387
0.000809662
0.000805535
0.000801512
0.000797612
0.00079385
0.000790238
0.000786785
0.000783494
0.000780368
0.000777408
0.00077461
0.000771972
0.000769488
0.000767152
0.000764957
0.000762897
0.000760963
0.000759149
0.000757447
0.000755849
0.000754348
0.000752939
0.000751613
0.000750366
0.000749191
0.000748084
0.000747038
0.000746051
0.000745116
0.000744232
0.000743392
0.000742595
0.000741837
0.000741115
0.000740427
0.000739769
0.00073914
0.000738537
0.000737958
0.000737401
0.000736864
0.000736345
0.000735844
0.000735356
0.00073488
0.000734416
0.000733962
0.000733519
0.000733084
0.000732658
0.00073224
0.000731829
0.000731426
0.000731028
0.000730637
0.000730251
0.000729869
0.000729492
0.000729119
0.00072875
0.000728383
0.000728019
0.000727658