/*--------------------------------*- C++ -*----------------------------------*\
  =========                 |
  \\      /  F ield         | OpenFOAM: The Open Source CFD Toolbox
   \\    /   O peration     | Website:  https://openfoam.org
    \\  /    A nd           | Version:  6
     \\/     M anipulation  |
\*---------------------------------------------------------------------------*/
FoamFile
{
    version     2.0;
    format      ascii;
    class       volScalarField;
    location    "0.04";
    object      p;
}
// * * * * * * * * * * * * * * * * * * * * * * * * * * * * * * * * * * * * * //

dimensions      [0 2 -2 0 0 0 0];

internalField   nonuniform List<scalar> 
12225
(
0.357931
0.105394
0.0271796
0.0163981
0.011443
0.00624486
0.00290796
0.000504037
-0.00203196
-0.00488082
-0.00800331
-0.0115043
-0.0155679
-0.0203778
-0.0262704
-0.0338449
-0.0450355
-0.0629986
-0.0242815
0.00607607
0.00685119
0.0130016
0.0118954
0.00728159
0.00367657
0.000924613
-0.00184702
-0.00484178
-0.00808913
-0.0117059
-0.0158632
-0.020761
-0.0267425
-0.0343286
-0.0450143
-0.059281
-0.06087
0.00997067
0.0114808
0.0134475
0.0121055
0.00787352
0.00428989
0.00138679
-0.00153491
-0.00465562
-0.00802504
-0.0117604
-0.0160255
-0.0210163
-0.0270451
-0.0344868
-0.0442329
-0.0554758
-0.0155262
0.0231463
0.0149136
0.0132642
0.0117373
0.00797644
0.00458164
0.00167047
-0.00130416
-0.00448658
-0.00792642
-0.0117331
-0.0160546
-0.021063
-0.0270065
-0.0341104
-0.042791
-0.0521353
0.00483338
0.0230774
0.0144366
0.0125355
0.0111456
0.00783111
0.00465622
0.00179603
-0.00116863
-0.00435329
-0.00780365
-0.0116167
-0.0159184
-0.0208464
-0.0265741
-0.033207
-0.0408726
-0.0488188
0.0072137
0.0188295
0.0132906
0.0118443
0.0105419
0.00760492
0.00464332
0.00185841
-0.00105987
-0.00420502
-0.00761803
-0.0113805
-0.015593
-0.0203561
-0.0257743
-0.0318688
-0.0386066
-0.0454058
0.00741405
0.0159902
0.0126217
0.0113047
0.00999279
0.00737047
0.00461125
0.00191876
-0.000926405
-0.003999
-0.00733397
-0.0109957
-0.0150588
-0.019588
-0.0246319
-0.0301572
-0.0360544
-0.0418912
0.00849524
0.0144733
0.0122062
0.0108705
0.00952942
0.00716961
0.00460109
0.00201596
-0.000732905
-0.00370334
-0.00692277
-0.010438
-0.0142985
-0.018538
-0.0231631
-0.0281099
-0.0332451
-0.0382537
0.00960972
0.0134608
0.0118488
0.0105283
0.00917435
0.00703387
0.00464571
0.00218183
-0.000449262
-0.00328978
-0.0063586
-0.00968551
-0.0132978
-0.0172035
-0.0213813
-0.0257539
-0.0301926
-0.0344654
0.0103551
0.0127034
0.0115421
0.010286
0.00894076
0.00698717
0.00477266
0.00244413
-4.83875e-05
-0.00273246
-0.00561795
-0.00871925
-0.0120448
-0.0155838
-0.019298
-0.0231086
-0.0269029
-0.030505
0.0108106
0.012177
0.0113101
0.0101427
0.0088299
0.00704213
0.00499882
0.0028204
0.000486797
-0.00201587
-0.00468853
-0.00753241
-0.0105411
-0.0136908
-0.016935
-0.0201998
-0.0233916
-0.0263705
0.0110894
0.0118805
0.0111768
0.0100995
0.00883902
0.00719419
0.00530957
0.00328301
0.00111347
-0.00120171
-0.00365593
-0.00624064
-0.00893955
-0.0117216
-0.0145384
-0.0173229
-0.0199977
-0.0224417
0.0113041
0.0117134
0.0111294
0.0101431
0.00894854
0.0074425
0.00571653
0.00385033
0.00185742
-0.000255606
-0.00247584
-0.00478716
-0.00716645
-0.00957906
-0.0119778
-0.0143041
-0.016493
-0.0184438
0.0115198
0.0116684
0.0111772
0.0102969
0.00919708
0.00784914
0.00630901
0.00463973
0.00286579
0.00100235
-0.000931885
-0.00291472
-0.00491843
-0.0069074
-0.00883829
-0.0106624
-0.0123256
-0.0137501
0.0117892
0.0117922
0.0113722
0.0106121
0.00964039
0.00847355
0.00715001
0.00571905
0.00421135
0.00264915
0.00105573
-0.000542954
-0.00211742
-0.00363393
-0.00505528
-0.00634309
-0.00745372
-0.00833122
0.0121949
0.0121365
0.011783
0.0111554
0.0103435
0.0093835
0.00830808
0.00715687
0.0059625
0.00475157
0.00354991
0.00238437
0.00128312
0.000275508
-0.000608904
-0.00134189
-0.00188975
-0.00221626
0.0128422
0.0127731
0.012494
0.0120106
0.0113845
0.0106562
0.00985709
0.0090211
0.0081798
0.00736089
0.00659003
0.00589206
0.00529111
0.00481019
0.0044705
0.00429055
0.00429442
0.00450098
0.0138441
0.0137906
0.0135988
0.0132695
0.0128456
0.012365
0.011859
0.0113579
0.0108906
0.0104831
0.0101582
0.00993607
0.00983498
0.00987049
0.0100553
0.0103991
0.0109168
0.0116121
0.0152954
0.0152756
0.0151867
0.0150178
0.0147981
0.0145646
0.0143483
0.0141771
0.014077
0.0140702
0.0141744
0.0144035
0.0147684
0.0152767
0.0159331
0.0167391
0.0177011
0.0188115
0.0167995
0.0168307
0.0168382
0.0167768
0.0166819
0.0165999
0.0165614
0.0165953
0.0167287
0.0169806
0.0173635
0.0178858
0.0185527
0.019366
0.0203248
0.0214257
0.022669
0.0240428
0.0179529
0.0180944
0.0182063
0.0181964
0.0181585
0.0181502
0.0181941
0.0183271
0.0185819
0.0189747
0.0195129
0.0202005
0.0210385
0.0220247
0.0231542
0.0244201
0.0258191
0.0273373
0.0187691
0.0192214
0.0194821
0.0194593
0.0194313
0.0194441
0.0194996
0.0196584
0.019964
0.0204264
0.0210468
0.0218257
0.0227609
0.0238464
0.0250744
0.0264355
0.0279233
0.0295234
0.019047
0.0202236
0.0206901
0.0205865
0.0205534
0.0205418
0.0205368
0.0206594
0.0209629
0.0214422
0.0220919
0.0229104
0.0238922
0.0250277
0.0263065
0.027717
0.0292507
0.0308931
0.0188091
0.0212802
0.021824
0.021565
0.0215794
0.0214976
0.021351
0.0213838
0.0216453
0.022102
0.0227424
0.0235644
0.0245585
0.025711
0.0270087
0.0284384
0.0299895
0.0316481
0.0187265
0.0234216
0.0231772
0.0224466
0.0225697
0.0223483
0.0219687
0.0218673
0.0220578
0.0224629
0.0230675
0.0238697
0.0248544
0.0260031
0.0272998
0.0287297
0.0302799
0.0319376
0.0170927
0.0279443
0.0255476
0.0235533
0.0236358
0.023112
0.0223983
0.0221272
0.0222255
0.0225601
0.0231145
0.0238854
0.0248501
0.0259843
0.0272691
0.0286882
0.030227
0.0318725
0.000167424
0.0300465
0.0278325
0.0249691
0.0248229
0.0237377
0.0225963
0.0221325
0.0221269
0.0223867
0.0228928
0.0236356
0.0245822
0.0257018
0.0269731
0.0283786
0.029902
0.0315308
-0.0439044
0.0168091
0.0238071
0.025123
0.0255969
0.0238907
0.0223403
0.0217266
0.0216486
0.0218635
0.0223496
0.023088
0.024034
0.0251511
0.026417
0.027814
0.0293247
0.0309367
-0.0238472
0.00680839
0.0138433
0.0228272
0.0250516
0.0230196
0.0213281
0.0207789
0.0207681
0.0210236
0.0215425
0.0223096
0.0232757
0.0244028
0.0256703
0.0270631
0.0285646
0.0301503
0.340733
0.121068
0.0441733
0.0314777
0.0267237
0.0223073
0.0201843
0.0198153
0.0200315
0.0204371
0.0210444
0.0218636
0.0228582
0.0239976
0.0252668
0.0266561
0.0281587
0.0297788
-0.0377405
-0.038231
-0.0388267
-0.0393583
-0.0397917
-0.0400709
-0.0401378
-0.0399452
-0.0394543
-0.0386315
-0.0374466
-0.0358719
-0.033882
-0.0314541
-0.0285688
-0.025211
-0.021371
-0.0170447
-0.0122329
-0.00692068
-0.00109893
0.00520962
0.0119733
0.0191563
0.0267176
0.0346115
0.0427872
0.0511902
0.0597632
0.0684466
0.0771804
0.0859052
0.0945643
0.103107
0.111496
0.119692
0.127646
0.135307
0.142637
0.149606
0.156191
0.162374
0.168145
0.173497
0.178431
0.18295
0.187062
0.190778
0.194114
0.197085
0.199709
0.202008
0.204001
0.20571
0.207156
0.208361
0.209344
0.210126
0.210726
0.211163
0.211453
0.211613
0.211657
0.2116
0.211455
0.211232
0.210944
0.210599
0.210206
0.209773
0.209308
0.208817
0.208304
0.207776
0.207237
0.206691
0.206141
0.20559
0.205041
0.204496
0.203956
0.203424
0.2029
0.202386
0.201883
0.20139
0.200909
0.200439
0.199981
0.199534
0.199099
0.198675
0.198263
0.197862
0.197474
0.197099
0.196736
0.196386
0.196049
0.195724
0.195411
0.195111
0.194823
0.194547
0.194278
0.194017
0.193766
0.193523
0.193289
0.193063
0.192844
0.192632
0.192426
0.192227
0.192033
0.191844
0.19166
0.19148
0.191304
0.191132
0.190964
0.190799
0.190637
0.190478
0.190322
0.190168
0.190017
0.189867
0.189719
0.189573
0.189428
0.189284
0.189141
0.188998
0.188856
0.188714
0.188571
0.188429
0.188285
0.188142
0.187997
0.187851
0.187705
0.187557
0.187409
0.18726
0.187111
0.18696
0.186809
0.186658
0.186506
0.186353
0.1862
0.186046
0.185892
0.185738
0.185583
0.185429
0.185275
0.185121
0.184969
0.184818
0.18467
0.184526
0.184386
0.184254
0.184131
0.18402
0.183927
0.183857
0.183819
0.183825
0.183894
0.184053
0.184347
0.18485
0.185719
0.187204
0.190151
0.194882
-0.0360565
-0.0369455
-0.0377602
-0.0382249
-0.0385073
-0.0386635
-0.0386615
-0.0384597
-0.0380221
-0.0373158
-0.0363088
-0.0349701
-0.0332699
-0.0311798
-0.0286734
-0.0257271
-0.0223194
-0.0184309
-0.0140458
-0.00917091
-0.00382504
0.00198141
0.00823392
0.0149091
0.0219757
0.0293963
0.0371276
0.0451217
0.0533273
0.06169
0.0701542
0.0786634
0.0871597
0.0955832
0.103869
0.11196
0.119822
0.127423
0.134731
0.141716
0.148354
0.154625
0.160516
0.166019
0.171129
0.175848
0.180179
0.184131
0.187714
0.190943
0.193832
0.196398
0.198661
0.200638
0.20235
0.203816
0.205054
0.206084
0.206924
0.207591
0.208103
0.208474
0.208721
0.208855
0.208892
0.208841
0.208714
0.208521
0.208272
0.207974
0.207635
0.207261
0.206859
0.206434
0.205991
0.205534
0.205068
0.204594
0.204118
0.203639
0.203162
0.202688
0.202219
0.201755
0.201298
0.200848
0.200407
0.199974
0.199551
0.199135
0.198729
0.198332
0.197945
0.197568
0.197201
0.196846
0.196502
0.196169
0.195847
0.195537
0.195237
0.194948
0.194669
0.1944
0.194141
0.193892
0.19365
0.193417
0.193191
0.192971
0.192759
0.192553
0.192353
0.192158
0.191968
0.191783
0.191602
0.191426
0.191253
0.191084
0.190918
0.190756
0.190596
0.190439
0.190284
0.190132
0.189982
0.189834
0.189688
0.189542
0.189398
0.189255
0.189113
0.188971
0.18883
0.188688
0.188546
0.188404
0.188261
0.188118
0.187973
0.187828
0.187682
0.187535
0.187387
0.187238
0.187089
0.186939
0.186788
0.186637
0.186485
0.186333
0.18618
0.186027
0.185873
0.185719
0.185565
0.185411
0.185257
0.185104
0.184953
0.184803
0.184655
0.184512
0.184374
0.184242
0.184121
0.184013
0.183922
0.183856
0.183822
0.183834
0.183911
0.184078
0.184381
0.184888
0.185742
0.187127
0.189763
0.193652
-0.0352638
-0.0366231
-0.0379973
-0.0387318
-0.0390457
-0.0391472
-0.039081
-0.0388343
-0.0383853
-0.0377088
-0.0367769
-0.0355601
-0.0340281
-0.0321516
-0.0299023
-0.0272545
-0.0241849
-0.0206736
-0.0167058
-0.012277
-0.0073902
-0.00205196
0.00372581
0.00992414
0.0165172
0.0234731
0.0307541
0.0383176
0.0461174
0.0541038
0.0622255
0.0704299
0.0786636
0.0868722
0.0950008
0.103001
0.110828
0.118442
0.125804
0.132883
0.13965
0.146084
0.152167
0.157887
0.163237
0.168214
0.172819
0.177056
0.180933
0.18446
0.187651
0.190519
0.19308
0.195353
0.197353
0.1991
0.200612
0.201905
0.202998
0.203909
0.204652
0.205244
0.205699
0.206032
0.206255
0.206381
0.206421
0.206384
0.206281
0.206121
0.20591
0.205657
0.205367
0.205047
0.204703
0.204337
0.203956
0.203562
0.203159
0.20275
0.202337
0.201923
0.201508
0.201096
0.200687
0.200283
0.199883
0.199489
0.199101
0.198718
0.198343
0.197974
0.197613
0.19726
0.196916
0.196582
0.196257
0.195942
0.195637
0.195342
0.195056
0.19478
0.194514
0.194257
0.194008
0.193768
0.193536
0.193311
0.193093
0.192881
0.192675
0.192475
0.19228
0.192091
0.191906
0.191725
0.191548
0.191375
0.191206
0.19104
0.190876
0.190716
0.190559
0.190404
0.190251
0.190101
0.189952
0.189806
0.189661
0.189517
0.189374
0.189232
0.18909
0.188949
0.188808
0.188668
0.188526
0.188385
0.188242
0.188099
0.187955
0.187811
0.187665
0.187518
0.18737
0.187222
0.187073
0.186923
0.186773
0.186622
0.18647
0.186318
0.186166
0.186013
0.185859
0.185706
0.185552
0.185398
0.185245
0.185092
0.184941
0.184792
0.184645
0.184503
0.184365
0.184235
0.184116
0.184009
0.183921
0.183858
0.183829
0.183846
0.183929
0.184103
0.184413
0.184919
0.185746
0.187017
0.189255
0.191976
-0.0363816
-0.0380641
-0.0399837
-0.0411981
-0.0418188
-0.0421016
-0.0421466
-0.041974
-0.0415821
-0.0409593
-0.0400863
-0.0389384
-0.037488
-0.0357064
-0.0335651
-0.0310375
-0.0280995
-0.0247311
-0.0209178
-0.0166517
-0.0119308
-0.00675931
-0.00114753
0.00488747
0.0113219
0.0181256
0.0252625
0.0326915
0.0403674
0.0482413
0.0562625
0.0643788
0.0725378
0.0806875
0.0887777
0.0967613
0.104593
0.11223
0.119635
0.126776
0.133624
0.140155
0.146352
0.152201
0.157694
0.162825
0.167594
0.172004
0.176061
0.179774
0.183153
0.186212
0.188966
0.191429
0.19362
0.195553
0.197248
0.19872
0.199987
0.201065
0.20197
0.202718
0.203323
0.203798
0.204157
0.204413
0.204575
0.204655
0.204662
0.204606
0.204494
0.204333
0.204131
0.203893
0.203625
0.203333
0.203019
0.202689
0.202346
0.201992
0.201632
0.201266
0.200898
0.200528
0.200159
0.199792
0.199427
0.199065
0.198707
0.198353
0.198003
0.197659
0.19732
0.196988
0.196664
0.196347
0.196039
0.19574
0.19545
0.195169
0.194896
0.194632
0.194376
0.194129
0.19389
0.193658
0.193434
0.193216
0.193005
0.1928
0.1926
0.192406
0.192216
0.192031
0.191851
0.191674
0.191501
0.191331
0.191165
0.191002
0.190841
0.190683
0.190528
0.190375
0.190224
0.190075
0.189929
0.189783
0.189639
0.189497
0.189355
0.189214
0.189073
0.188933
0.188793
0.188653
0.188512
0.188371
0.188229
0.188087
0.187943
0.187798
0.187653
0.187506
0.187359
0.187211
0.187062
0.186913
0.186762
0.186612
0.18646
0.186308
0.186156
0.186003
0.18585
0.185697
0.185543
0.18539
0.185236
0.185084
0.184933
0.184784
0.184637
0.184495
0.184358
0.184228
0.184108
0.184002
0.183914
0.183851
0.183821
0.183837
0.183916
0.184084
0.184378
0.18485
0.185598
0.186687
0.188435
0.19024
-0.0393583
-0.0412894
-0.0436542
-0.0453273
-0.046312
-0.0468649
-0.0471106
-0.0470883
-0.04681
-0.0462749
-0.0454714
-0.0443803
-0.0429773
-0.041236
-0.039129
-0.0366303
-0.033716
-0.0303661
-0.0265655
-0.0223049
-0.0175815
-0.012399
-0.00676763
-0.000704832
0.00576517
0.0126116
0.0197976
0.0272814
0.0350166
0.0429537
0.0510408
0.0592251
0.0674532
0.0756721
0.0838323
0.091887
0.0997916
0.107505
0.114989
0.122214
0.129149
0.135773
0.142068
0.14802
0.15362
0.158863
0.163748
0.168278
0.172458
0.176296
0.179803
0.182991
0.185875
0.188468
0.190787
0.192848
0.194669
0.196265
0.197652
0.198848
0.199868
0.200727
0.201439
0.202018
0.202477
0.202827
0.203081
0.203248
0.203338
0.203361
0.203324
0.203234
0.2031
0.202926
0.202719
0.202484
0.202224
0.201945
0.20165
0.201342
0.201024
0.200698
0.200367
0.200033
0.199697
0.199361
0.199025
0.198691
0.198358
0.198028
0.197701
0.197377
0.197058
0.196744
0.196436
0.196136
0.195843
0.195558
0.19528
0.195011
0.19475
0.194496
0.19425
0.194012
0.193782
0.193558
0.193341
0.19313
0.192925
0.192726
0.192532
0.192343
0.192158
0.191977
0.191801
0.191628
0.191458
0.191291
0.191128
0.190967
0.190809
0.190653
0.1905
0.190349
0.1902
0.190053
0.189908
0.189764
0.189621
0.18948
0.189339
0.189199
0.189059
0.18892
0.18878
0.188641
0.188501
0.18836
0.188218
0.188076
0.187933
0.187788
0.187643
0.187497
0.18735
0.187202
0.187053
0.186904
0.186754
0.186603
0.186452
0.186301
0.186148
0.185996
0.185842
0.185689
0.185536
0.185382
0.185229
0.185076
0.184925
0.184776
0.184629
0.184486
0.184348
0.184218
0.184097
0.183989
0.183899
0.183832
0.183797
0.183806
0.183873
0.184022
0.184284
0.184698
0.185333
0.186212
0.187509
0.18865
-0.044122
-0.0463303
-0.0491384
-0.0512546
-0.0526057
-0.0534505
-0.0539274
-0.0540857
-0.0539453
-0.0535122
-0.0527803
-0.0517343
-0.0503529
-0.0486113
-0.0464835
-0.043944
-0.0409698
-0.0375411
-0.0336432
-0.0292673
-0.0244114
-0.0190804
-0.0132865
-0.00704927
-0.000395293
0.006642
0.0140232
0.0217035
0.0296344
0.0377637
0.0460379
0.0544022
0.0628016
0.071182
0.0794946
0.0876924
0.0957311
0.10357
0.111174
0.118511
0.125554
0.132282
0.138677
0.144726
0.150423
0.155761
0.160741
0.165365
0.169639
0.173572
0.177173
0.180456
0.183433
0.18612
0.188532
0.190686
0.192597
0.194283
0.195759
0.197041
0.198146
0.199087
0.199879
0.200536
0.20107
0.201493
0.201817
0.202052
0.202207
0.202292
0.202314
0.202282
0.202202
0.202081
0.201923
0.201735
0.20152
0.201284
0.201029
0.200759
0.200477
0.200185
0.199886
0.199583
0.199276
0.198966
0.198656
0.198346
0.198036
0.197727
0.197419
0.197114
0.196813
0.196515
0.196223
0.195937
0.195658
0.195385
0.19512
0.194862
0.194611
0.194368
0.194131
0.193902
0.193679
0.193463
0.193253
0.193048
0.19285
0.192656
0.192467
0.192282
0.192102
0.191926
0.191753
0.191583
0.191417
0.191253
0.191092
0.190934
0.190778
0.190625
0.190474
0.190325
0.190177
0.190032
0.189888
0.189745
0.189604
0.189464
0.189324
0.189185
0.189046
0.188907
0.188769
0.18863
0.18849
0.18835
0.188209
0.188067
0.187924
0.18778
0.187635
0.187489
0.187342
0.187194
0.187046
0.186896
0.186747
0.186596
0.186445
0.186294
0.186141
0.185989
0.185836
0.185682
0.185529
0.185375
0.185222
0.185069
0.184917
0.184767
0.18462
0.184476
0.184337
0.184204
0.184081
0.18397
0.183876
0.183803
0.18376
0.183756
0.183806
0.183927
0.184145
0.184487
0.184997
0.185668
0.186583
0.187227
-0.0506598
-0.0531951
-0.05648
-0.0590422
-0.0607566
-0.0618959
-0.0626116
-0.0629594
-0.062964
-0.0626354
-0.0619708
-0.0609571
-0.0595741
-0.057798
-0.0556032
-0.0529647
-0.0498596
-0.0462692
-0.0421796
-0.0375834
-0.032481
-0.0268801
-0.0207963
-0.0142531
-0.00728152
8.05896e-05
0.00778913
0.015795
0.0240453
0.0324844
0.0410555
0.0497011
0.0583633
0.0669883
0.0755271
0.0839324
0.0921602
0.100171
0.107931
0.115409
0.12258
0.129425
0.135927
0.142075
0.147863
0.153288
0.15835
0.163052
0.167402
0.171408
0.17508
0.178433
0.181479
0.184234
0.186714
0.188934
0.190911
0.192662
0.194202
0.195548
0.196714
0.197716
0.198568
0.199283
0.199874
0.200353
0.200731
0.201018
0.201225
0.201359
0.201429
0.201443
0.201407
0.201328
0.201211
0.201062
0.200885
0.200684
0.200463
0.200226
0.199975
0.199713
0.199442
0.199165
0.198883
0.198598
0.198311
0.198022
0.197732
0.197442
0.197153
0.196865
0.196579
0.196297
0.196019
0.195746
0.19548
0.195219
0.194965
0.194718
0.194477
0.194243
0.194015
0.193794
0.193579
0.19337
0.193167
0.192969
0.192776
0.192587
0.192404
0.192224
0.192048
0.191875
0.191706
0.19154
0.191377
0.191216
0.191058
0.190902
0.190749
0.190598
0.190448
0.190301
0.190156
0.190012
0.189869
0.189728
0.189588
0.189449
0.18931
0.189172
0.189034
0.188896
0.188758
0.18862
0.18848
0.188341
0.1882
0.188058
0.187916
0.187772
0.187627
0.187481
0.187335
0.187187
0.187039
0.18689
0.18674
0.18659
0.186439
0.186287
0.186135
0.185983
0.185829
0.185676
0.185522
0.185368
0.185215
0.185061
0.184909
0.184758
0.18461
0.184464
0.184323
0.184189
0.184062
0.183947
0.183846
0.183766
0.183711
0.183692
0.183719
0.183807
0.183973
0.184236
0.184618
0.185094
0.185691
0.185954
-0.0589775
-0.0618841
-0.0656791
-0.0686945
-0.0707689
-0.0721995
-0.0731535
-0.0736918
-0.0738424
-0.0736175
-0.0730156
-0.0720235
-0.0706208
-0.0687828
-0.066483
-0.063696
-0.0603988
-0.0565729
-0.0522062
-0.0472933
-0.0418384
-0.0358535
-0.0293595
-0.0223856
-0.0149694
-0.00715528
0.001006
0.00945907
0.0181453
0.0270041
0.0359743
0.0449939
0.0540032
0.0629493
0.0717814
0.0804522
0.0889188
0.097143
0.105092
0.112738
0.120057
0.127033
0.13365
0.139901
0.145781
0.151288
0.156424
0.161194
0.165607
0.169671
0.1734
0.176805
0.179903
0.182707
0.185235
0.187503
0.189527
0.191324
0.19291
0.194301
0.195512
0.196559
0.197455
0.198213
0.198847
0.199368
0.199787
0.200115
0.200361
0.200534
0.200643
0.200694
0.200694
0.20065
0.200567
0.20045
0.200305
0.200134
0.199943
0.199733
0.199509
0.199273
0.199027
0.198773
0.198514
0.19825
0.197983
0.197713
0.197442
0.19717
0.196897
0.196624
0.196354
0.196085
0.195821
0.195561
0.195307
0.195058
0.194814
0.194577
0.194346
0.194121
0.193902
0.193689
0.193481
0.193279
0.193082
0.19289
0.192703
0.19252
0.192341
0.192166
0.191994
0.191825
0.19166
0.191497
0.191337
0.191179
0.191024
0.190871
0.19072
0.190571
0.190424
0.190278
0.190135
0.189992
0.189851
0.189712
0.189573
0.189435
0.189297
0.18916
0.189023
0.188885
0.188748
0.18861
0.188472
0.188332
0.188192
0.188051
0.187908
0.187765
0.18762
0.187475
0.187328
0.187181
0.187033
0.186884
0.186734
0.186584
0.186433
0.186282
0.18613
0.185977
0.185824
0.18567
0.185516
0.185362
0.185208
0.185054
0.184901
0.184749
0.184599
0.184452
0.184308
0.184171
0.18404
0.183919
0.183811
0.183721
0.183653
0.183615
0.183616
0.183666
0.183777
0.183957
0.184215
0.184513
0.184843
0.184814
-0.0691009
-0.0724066
-0.076726
-0.0801915
-0.0826173
-0.0843327
-0.0855214
-0.0862498
-0.0865477
-0.0864281
-0.0858881
-0.0849126
-0.0834785
-0.0815581
-0.0791224
-0.0761439
-0.0725984
-0.0684679
-0.0637412
-0.058417
-0.0525045
-0.0460216
-0.0389965
-0.0314669
-0.0234792
-0.0150869
-0.00634965
0.00266902
0.0119032
0.0212858
0.030749
0.0402272
0.0496612
0.0589962
0.0681804
0.0771671
0.0859147
0.0943871
0.102554
0.110389
0.117874
0.124992
0.131732
0.13809
0.144061
0.149647
0.154853
0.159684
0.16415
0.168263
0.172036
0.175482
0.178617
0.181458
0.184021
0.186322
0.188379
0.190208
0.191826
0.193249
0.194492
0.19557
0.196497
0.197288
0.197953
0.198506
0.198957
0.199316
0.199593
0.199797
0.199936
0.200017
0.200046
0.200031
0.199976
0.199887
0.199768
0.199623
0.199457
0.199272
0.199071
0.198857
0.198633
0.198401
0.198161
0.197917
0.197668
0.197416
0.197162
0.196906
0.196648
0.196391
0.196134
0.195879
0.195628
0.19538
0.195137
0.194899
0.194666
0.194439
0.194217
0.194001
0.19379
0.193584
0.193384
0.193189
0.192999
0.192813
0.192631
0.192453
0.192279
0.192108
0.19194
0.191776
0.191614
0.191454
0.191297
0.191143
0.19099
0.19084
0.190691
0.190544
0.190399
0.190256
0.190114
0.189973
0.189834
0.189695
0.189558
0.189421
0.189284
0.189148
0.189012
0.188875
0.188739
0.188601
0.188463
0.188324
0.188185
0.188044
0.187901
0.187758
0.187614
0.187468
0.187322
0.187175
0.187027
0.186879
0.186729
0.186579
0.186428
0.186277
0.186125
0.185972
0.185819
0.185665
0.185511
0.185356
0.185201
0.185047
0.184893
0.184739
0.184588
0.184438
0.184292
0.18415
0.184015
0.183888
0.183772
0.18367
0.183587
0.183528
0.1835
0.18351
0.183563
0.183661
0.183802
0.18394
0.184047
0.183793
-0.0810534
-0.084758
-0.0895799
-0.0934684
-0.0962253
-0.0982136
-0.0996332
-0.100554
-0.101006
-0.101001
-0.100531
-0.0995773
-0.0981098
-0.0960954
-0.0935001
-0.0902925
-0.0864457
-0.0819414
-0.0767706
-0.0709373
-0.0644569
-0.0573559
-0.0496728
-0.0414567
-0.0327662
-0.0236669
-0.0142297
-0.00452845
0.00536145
0.0153636
0.0254051
0.0354192
0.0453453
0.0551263
0.0647105
0.0740527
0.0831134
0.0918596
0.100264
0.108304
0.115964
0.123231
0.130099
0.136563
0.142625
0.148288
0.153557
0.158443
0.162956
0.167109
0.170917
0.174394
0.177557
0.180424
0.18301
0.185334
0.187413
0.189264
0.190904
0.192348
0.193613
0.194714
0.195664
0.196477
0.197165
0.197741
0.198216
0.198599
0.198901
0.199129
0.199292
0.199397
0.19945
0.199459
0.199428
0.199362
0.199266
0.199144
0.198999
0.198835
0.198655
0.198462
0.198257
0.198043
0.197822
0.197595
0.197364
0.197128
0.19689
0.196648
0.196406
0.196162
0.195919
0.195677
0.195437
0.195201
0.194969
0.194742
0.194519
0.194301
0.194089
0.193881
0.193678
0.19348
0.193287
0.193099
0.192915
0.192735
0.192558
0.192386
0.192216
0.19205
0.191887
0.191726
0.191567
0.191412
0.191258
0.191106
0.190956
0.190808
0.190662
0.190517
0.190375
0.190233
0.190093
0.189954
0.189816
0.189679
0.189543
0.189407
0.189272
0.189137
0.189001
0.188866
0.18873
0.188593
0.188455
0.188317
0.188177
0.188037
0.187895
0.187752
0.187608
0.187463
0.187317
0.18717
0.187022
0.186874
0.186725
0.186575
0.186424
0.186272
0.18612
0.185967
0.185814
0.18566
0.185505
0.18535
0.185195
0.185039
0.184884
0.184729
0.184576
0.184424
0.184275
0.184129
0.183988
0.183854
0.183728
0.183614
0.183515
0.183434
0.183375
0.183343
0.183338
0.183358
0.183389
0.183385
0.183308
0.182877
-0.0948128
-0.098878
-0.104132
-0.108382
-0.111433
-0.113677
-0.115325
-0.116448
-0.117073
-0.117205
-0.116829
-0.115916
-0.114427
-0.112319
-0.109549
-0.10608
-0.10188
-0.0969309
-0.0912265
-0.0847775
-0.0776083
-0.0697576
-0.0612784
-0.0522357
-0.042704
-0.0327646
-0.0225029
-0.0120063
-0.00136306
0.00934433
0.0200403
0.0306555
0.041126
0.0513946
0.0614115
0.071134
0.0805263
0.089559
0.0982091
0.106459
0.114296
0.121712
0.128704
0.135272
0.141419
0.147153
0.15248
0.157414
0.161966
0.166152
0.169987
0.173487
0.17667
0.179554
0.182156
0.184495
0.186588
0.188453
0.190106
0.191564
0.192844
0.193959
0.194925
0.195754
0.196459
0.197052
0.197545
0.197946
0.198267
0.198514
0.198697
0.198821
0.198895
0.198924
0.198913
0.198867
0.19879
0.198688
0.198562
0.198417
0.198256
0.198081
0.197894
0.197697
0.197493
0.197282
0.197066
0.196846
0.196622
0.196395
0.196166
0.195936
0.195705
0.195476
0.195248
0.195023
0.194802
0.194585
0.194372
0.194164
0.19396
0.193761
0.193566
0.193376
0.19319
0.193008
0.19283
0.192656
0.192485
0.192318
0.192153
0.191991
0.191832
0.191675
0.191521
0.191368
0.191217
0.191069
0.190922
0.190776
0.190633
0.190491
0.19035
0.19021
0.190072
0.189935
0.189799
0.189663
0.189529
0.189394
0.18926
0.189125
0.188991
0.188856
0.188721
0.188585
0.188448
0.18831
0.188171
0.18803
0.187889
0.187746
0.187602
0.187457
0.187312
0.187165
0.187018
0.186869
0.18672
0.18657
0.18642
0.186268
0.186116
0.185963
0.18581
0.185655
0.1855
0.185344
0.185188
0.185032
0.184875
0.184719
0.184563
0.184409
0.184256
0.184106
0.183959
0.183817
0.183682
0.183554
0.183438
0.183334
0.183244
0.18317
0.183109
0.183053
0.182984
0.182855
0.182625
0.182056
-0.110254
-0.114596
-0.120154
-0.124667
-0.127956
-0.130434
-0.132314
-0.133662
-0.134495
-0.134807
-0.13457
-0.13374
-0.13226
-0.130075
-0.127127
-0.12337
-0.118765
-0.113294
-0.106955
-0.0997699
-0.0917749
-0.083027
-0.0735993
-0.0635783
-0.0530598
-0.0421457
-0.0309418
-0.0195504
-0.00806766
0.00341894
0.0148284
0.0260879
0.0371334
0.04791
0.0583715
0.0684795
0.0782034
0.087519
0.0964084
0.104859
0.112864
0.120419
0.127525
0.134187
0.14041
0.146204
0.151581
0.156553
0.161136
0.165347
0.169201
0.172717
0.175913
0.178807
0.181418
0.183765
0.185866
0.187739
0.1894
0.190867
0.192155
0.19328
0.194256
0.195096
0.195814
0.19642
0.196926
0.197342
0.197677
0.19794
0.198138
0.19828
0.19837
0.198416
0.198422
0.198393
0.198334
0.198249
0.198141
0.198013
0.197869
0.19771
0.197539
0.197359
0.19717
0.196975
0.196773
0.196568
0.196358
0.196145
0.195929
0.195711
0.195493
0.195275
0.195059
0.194846
0.194635
0.194428
0.194225
0.194026
0.193831
0.19364
0.193453
0.193271
0.193092
0.192917
0.192745
0.192577
0.192411
0.192249
0.192089
0.191932
0.191777
0.191624
0.191473
0.191324
0.191176
0.191031
0.190887
0.190744
0.190603
0.190463
0.190325
0.190187
0.190051
0.189916
0.189781
0.189647
0.189514
0.189381
0.189248
0.189114
0.188981
0.188847
0.188712
0.188577
0.18844
0.188303
0.188164
0.188024
0.187883
0.18774
0.187597
0.187452
0.187307
0.187161
0.187013
0.186865
0.186716
0.186567
0.186416
0.186265
0.186112
0.185959
0.185805
0.185651
0.185495
0.185339
0.185182
0.185024
0.184867
0.184709
0.184551
0.184393
0.184237
0.184082
0.183929
0.183779
0.183633
0.183492
0.183358
0.18323
0.183109
0.182994
0.182878
0.182752
0.182593
0.182355
0.181997
0.181319
-0.127076
-0.131559
-0.137232
-0.141869
-0.145327
-0.148019
-0.150147
-0.151762
-0.152866
-0.153433
-0.153411
-0.152733
-0.15132
-0.149094
-0.145978
-0.14191
-0.136846
-0.130767
-0.123679
-0.115617
-0.106638
-0.0968254
-0.0862797
-0.0751187
-0.0634686
-0.0514574
-0.0392078
-0.0268349
-0.014444
-0.00213114
0.0100196
0.0219359
0.0335572
0.0448333
0.0557239
0.0661974
0.0762299
0.085804
0.0949083
0.103536
0.111686
0.119358
0.126559
0.133295
0.139578
0.145418
0.15083
0.15583
0.160434
0.16466
0.168525
0.172049
0.17525
0.178149
0.180764
0.183114
0.185218
0.187094
0.188759
0.19023
0.191523
0.192654
0.193637
0.194485
0.19521
0.195826
0.196343
0.19677
0.197117
0.197393
0.197605
0.197761
0.197866
0.197927
0.197948
0.197935
0.197892
0.197822
0.19773
0.197618
0.197489
0.197346
0.19719
0.197025
0.196851
0.19667
0.196483
0.196291
0.196094
0.195894
0.195691
0.195486
0.19528
0.195075
0.19487
0.194668
0.194468
0.194271
0.194077
0.193887
0.193701
0.193518
0.19334
0.193164
0.192992
0.192824
0.192658
0.192496
0.192336
0.192179
0.192024
0.191871
0.19172
0.191571
0.191424
0.191279
0.191135
0.190992
0.190851
0.190711
0.190573
0.190435
0.190299
0.190164
0.19003
0.189896
0.189764
0.189631
0.189499
0.189367
0.189235
0.189103
0.18897
0.188837
0.188703
0.188568
0.188433
0.188295
0.188157
0.188018
0.187877
0.187735
0.187592
0.187448
0.187302
0.187156
0.187009
0.186861
0.186713
0.186563
0.186413
0.186261
0.186109
0.185956
0.185801
0.185646
0.18549
0.185333
0.185176
0.185017
0.184858
0.184698
0.184538
0.184377
0.184217
0.184057
0.183898
0.18374
0.183583
0.183428
0.183276
0.183125
0.182973
0.182818
0.182652
0.18246
0.18222
0.181887
0.181422
0.180657
-0.144718
-0.149152
-0.154694
-0.159285
-0.162834
-0.165731
-0.168146
-0.170105
-0.17158
-0.172515
-0.172826
-0.17241
-0.171154
-0.168949
-0.165689
-0.161295
-0.155712
-0.148924
-0.140949
-0.131841
-0.121692
-0.110625
-0.098786
-0.0863316
-0.0734192
-0.0602024
-0.046824
-0.0334149
-0.0200901
-0.00694841
0.00592795
0.0184717
0.0306294
0.0423593
0.05363
0.0644188
0.0747103
0.0844953
0.0937695
0.102533
0.11079
0.118546
0.125811
0.132596
0.138914
0.144781
0.150212
0.155224
0.159835
0.164065
0.167932
0.171456
0.174656
0.177554
0.180167
0.182515
0.184618
0.186493
0.188159
0.189631
0.190927
0.192061
0.193048
0.193901
0.194634
0.195257
0.195782
0.196219
0.196577
0.196864
0.197088
0.197256
0.197374
0.197449
0.197484
0.197486
0.197457
0.197403
0.197325
0.197228
0.197114
0.196985
0.196844
0.196693
0.196533
0.196366
0.196193
0.196014
0.195831
0.195643
0.195453
0.19526
0.195067
0.194873
0.194679
0.194488
0.194298
0.194111
0.193928
0.193747
0.193569
0.193395
0.193224
0.193056
0.192891
0.192729
0.19257
0.192414
0.192259
0.192107
0.191957
0.191809
0.191663
0.191518
0.191374
0.191232
0.191092
0.190952
0.190814
0.190678
0.190542
0.190407
0.190273
0.19014
0.190008
0.189877
0.189746
0.189615
0.189484
0.189354
0.189223
0.189092
0.18896
0.188828
0.188694
0.18856
0.188425
0.188288
0.18815
0.188011
0.187871
0.187729
0.187587
0.187443
0.187298
0.187152
0.187005
0.186858
0.186709
0.18656
0.186409
0.186258
0.186105
0.185952
0.185798
0.185642
0.185486
0.185328
0.18517
0.18501
0.184849
0.184688
0.184525
0.184361
0.184197
0.184032
0.183866
0.1837
0.183533
0.183364
0.183194
0.18302
0.182839
0.182646
0.182431
0.18218
0.181868
0.181453
0.180898
0.180062
-0.162247
-0.166388
-0.171507
-0.175868
-0.179443
-0.182563
-0.185346
-0.187772
-0.189773
-0.191246
-0.19206
-0.192065
-0.191098
-0.189005
-0.185642
-0.180902
-0.174722
-0.167092
-0.158054
-0.147703
-0.13619
-0.123691
-0.110399
-0.096518
-0.0822447
-0.0677628
-0.0532357
-0.0388044
-0.0245859
-0.0106753
0.00285313
0.0159424
0.0285505
0.0406477
0.0522141
0.0632381
0.0737139
0.0836412
0.0930234
0.101867