/*--------------------------------*- C++ -*----------------------------------*\
  =========                 |
  \\      /  F ield         | OpenFOAM: The Open Source CFD Toolbox
   \\    /   O peration     | Website:  https://openfoam.org
    \\  /    A nd           | Version:  6
     \\/     M anipulation  |
\*---------------------------------------------------------------------------*/
FoamFile
{
    version     2.0;
    format      ascii;
    class       surfaceScalarField;
    location    "0.04";
    object      phi;
}
// * * * * * * * * * * * * * * * * * * * * * * * * * * * * * * * * * * * * * //

dimensions      [0 3 -1 0 0 0 0];

internalField   nonuniform List<scalar> 
24170
(
3.25697e-07
-6.85633e-09
3.19524e-07
6.17335e-09
3.16093e-07
3.43102e-09
3.09275e-07
6.81713e-09
3.02682e-07
6.59305e-09
2.98159e-07
4.52328e-09
2.95442e-07
2.71756e-09
2.93832e-07
1.60946e-09
2.92904e-07
9.27779e-10
2.92474e-07
4.30679e-10
2.92417e-07
5.63059e-11
2.92673e-07
-2.5604e-10
2.93274e-07
-6.0051e-10
2.94293e-07
-1.01904e-09
2.95896e-07
-1.60354e-09
2.98333e-07
-2.43694e-09
3.0309e-07
-4.75702e-09
-9.82418e-09
3.12915e-07
3.50366e-07
-1.54972e-08
3.47873e-07
8.66562e-09
3.44263e-07
7.0414e-09
3.42627e-07
8.45301e-09
3.40757e-07
8.46279e-09
3.38674e-07
6.60701e-09
3.36843e-07
4.54813e-09
3.35477e-07
2.97589e-09
3.34587e-07
1.81724e-09
3.34131e-07
8.87251e-10
3.34098e-07
8.93565e-11
3.34486e-07
-6.44845e-10
3.35291e-07
-1.40472e-09
3.36555e-07
-2.28347e-09
3.38399e-07
-3.44695e-09
3.41099e-07
-5.1373e-09
3.44865e-07
-8.52305e-09
-1.43785e-08
3.49419e-07
3.63452e-07
-1.26975e-08
3.66655e-07
5.46255e-09
3.66963e-07
6.73387e-09
3.67361e-07
8.05419e-09
3.67309e-07
8.51553e-09
3.66738e-07
7.17814e-09
3.65984e-07
5.30154e-09
3.65334e-07
3.62573e-09
3.64932e-07
2.21927e-09
3.64831e-07
9.88544e-10
3.65061e-07
-1.40383e-10
3.65651e-07
-1.23503e-09
3.66632e-07
-2.3858e-09
3.68057e-07
-3.70835e-09
3.70011e-07
-5.40089e-09
3.72631e-07
-7.75733e-09
3.75747e-07
-1.1639e-08
-1.75326e-08
3.78901e-07
3.89268e-07
-9.42632e-09
3.91575e-07
3.15484e-09
3.92675e-07
5.63457e-09
3.93591e-07
7.13792e-09
3.94211e-07
7.89495e-09
3.94402e-07
6.98738e-09
3.94334e-07
5.37021e-09
3.9423e-07
3.72942e-09
3.94247e-07
2.20257e-09
3.9447e-07
7.64797e-10
3.94957e-07
-6.26887e-10
3.95753e-07
-2.03133e-09
3.96904e-07
-3.5367e-09
3.98461e-07
-5.26548e-09
4.00477e-07
-7.41711e-09
4.02989e-07
-1.02694e-08
4.05763e-07
-1.44124e-08
-2.01241e-08
4.08354e-07
4.18305e-07
-7.01888e-09
4.1955e-07
1.9099e-09
4.20622e-07
4.56324e-09
4.2166e-07
6.09937e-09
4.22594e-07
6.96086e-09
4.23234e-07
6.34779e-09
4.23637e-07
4.96721e-09
4.2396e-07
3.40616e-09
4.24337e-07
1.82543e-09
4.24859e-07
2.42654e-10
4.25592e-07
-1.36e-09
4.26591e-07
-3.03011e-09
4.27904e-07
-4.84928e-09
4.29574e-07
-6.93545e-09
4.31626e-07
-9.4691e-09
4.34039e-07
-1.26823e-08
4.36582e-07
-1.69555e-08
-2.241e-08
4.38868e-07
4.49077e-07
-5.18692e-09
4.49763e-07
1.22322e-09
4.50707e-07
3.61941e-09
4.51767e-07
5.03915e-09
4.52862e-07
5.86599e-09
4.53782e-07
5.42809e-09
4.54519e-07
4.22978e-09
4.55177e-07
2.74831e-09
4.5586e-07
1.1427e-09
4.5665e-07
-5.47017e-10
4.57612e-07
-2.32191e-09
4.588e-07
-4.21864e-09
4.6026e-07
-6.30894e-09
4.62022e-07
-8.69807e-09
4.6409e-07
-1.15367e-08
4.66409e-07
-1.50017e-08
4.68773e-07
-1.93194e-08
-2.45161e-08
4.70879e-07
4.81806e-07
-3.72137e-09
4.82235e-07
7.9482e-10
4.8306e-07
2.79436e-09
4.84098e-07
4.00152e-09
4.85266e-07
4.69786e-09
4.86359e-07
4.33485e-09
4.87334e-07
3.25508e-09
4.88251e-07
1.83114e-09
4.89186e-07
2.07047e-10
4.90208e-07
-1.56846e-09
4.91373e-07
-3.48689e-09
4.9273e-07
-5.57543e-09
4.94315e-07
-7.89384e-09
4.96146e-07
-1.05297e-08
4.98209e-07
-1.35998e-08
5.00435e-07
-1.72273e-08
5.02648e-07
-2.15322e-08
-2.64933e-08
5.04625e-07
5.16805e-07
-2.56855e-09
5.17099e-07
5.00994e-10
5.17822e-07
2.07111e-09
5.18815e-07
3.00903e-09
5.20003e-07
3.51006e-09
5.21198e-07
3.13958e-09
5.22338e-07
2.11548e-09
5.23451e-07
7.17741e-10
5.24589e-07
-9.31024e-10
5.25803e-07
-2.78205e-09
5.27138e-07
-4.8224e-09
5.28634e-07
-7.07123e-09
5.30315e-07
-9.5754e-09
5.32188e-07
-1.24026e-08
5.34225e-07
-1.56361e-08
5.3635e-07
-1.93529e-08
5.38422e-07
-2.36041e-08
-2.83488e-08
5.40278e-07
5.54272e-07
-1.70701e-09
5.54492e-07
2.81235e-10
5.55136e-07
1.42679e-09
5.56078e-07
2.06721e-09
5.57255e-07
2.33316e-09
5.58504e-07
1.8909e-09
5.59753e-07
8.66472e-10
5.61008e-07
-5.37989e-10
5.62301e-07
-2.2233e-09
5.63664e-07
-4.14556e-09
5.65132e-07
-6.29049e-09
5.66731e-07
-8.67039e-09
5.68475e-07
-1.13192e-08
5.70357e-07
-1.42847e-08
5.72341e-07
-1.76201e-08
5.74354e-07
-2.13656e-08
5.7628e-07
-2.55301e-08
-3.00672e-08
5.77998e-07
5.94373e-07
-1.10252e-09
5.94564e-07
9.07883e-11
5.95155e-07
8.35209e-10
5.96051e-07
1.17111e-09
5.97202e-07
1.18259e-09
5.98471e-07
6.22078e-10
5.99786e-07
-4.48481e-10
6.01137e-07
-1.88937e-09
6.02538e-07
-3.62389e-09
6.04007e-07
-5.61518e-09
6.05566e-07
-7.84922e-09
6.07228e-07
-1.03323e-08
6.08995e-07
-1.3086e-08
6.1085e-07
-1.61398e-08
6.12752e-07
-1.9522e-08
6.14631e-07
-2.32452e-08
6.16395e-07
-2.72938e-08
-3.16217e-08
6.17949e-07
6.37292e-07
-7.13203e-10
6.37485e-07
-1.01858e-10
6.38048e-07
2.71263e-10
6.38909e-07
3.10906e-10
6.40026e-07
6.50944e-11
6.41292e-07
-6.43943e-10
6.42638e-07
-1.79478e-09
6.44045e-07
-3.29544e-09
6.4551e-07
-5.08921e-09
6.47041e-07
-7.14648e-09
6.48646e-07
-9.45397e-09
6.50326e-07
-1.20126e-08
6.52073e-07
-1.48329e-08
6.53862e-07
-1.79286e-08
6.55648e-07
-2.13081e-08
6.57368e-07
-2.49648e-08
6.58943e-07
-2.88695e-08
-3.29787e-08
6.603e-07
5.73889e-07
-5.18897e-10
5.74064e-07
-2.76656e-10
5.74534e-07
-1.98846e-10
5.75241e-07
-3.9635e-10
5.76158e-07
-8.51263e-10
5.77212e-07
-1.69852e-09
5.78352e-07
-2.93436e-09
5.79554e-07
-4.49718e-09
5.80809e-07
-6.34494e-09
5.82116e-07
-8.45344e-09
5.83472e-07
-1.08099e-08
5.84871e-07
-1.3411e-08
5.86297e-07
-1.62593e-08
5.87725e-07
-1.93571e-08
5.89118e-07
-2.27004e-08
5.90424e-07
-2.6271e-08
5.91588e-07
-3.0034e-08
-3.3947e-08
5.92557e-07
6.99704e-07
-4.06942e-10
6.99942e-07
-5.14587e-10
7.00477e-07
-7.34213e-10
7.01266e-07
-1.1859e-09
7.02284e-07
-1.86864e-09
7.03462e-07
-2.87717e-09
7.04749e-07
-4.22055e-09
7.06113e-07
-5.86167e-09
7.07539e-07
-7.77118e-09
7.09016e-07
-9.93e-09
7.10532e-07
-1.23256e-08
7.12071e-07
-1.49505e-08
7.13611e-07
-1.77995e-08
7.15119e-07
-2.08647e-08
7.1655e-07
-2.41313e-08
7.17852e-07
-2.75729e-08
7.1897e-07
-3.11516e-08
-3.48292e-08
7.19852e-07
8.53062e-07
-3.842e-10
8.53373e-07
-8.25255e-10
8.53983e-07
-1.34495e-09
8.54856e-07
-2.05863e-09
8.55965e-07
-2.97765e-09
8.57251e-07
-4.1627e-09
8.58659e-07
-5.62931e-09
8.60156e-07
-7.35841e-09
8.61715e-07
-9.33047e-09
8.63316e-07
-1.15304e-08
8.64936e-07
-1.39457e-08
8.6655e-07
-1.65648e-08
8.68126e-07
-1.93756e-08
8.69624e-07
-2.23621e-08
8.70994e-07
-2.55016e-08
8.72183e-07
-2.87625e-08
8.73138e-07
-3.21064e-08
-3.55006e-08
8.7381e-07
1.03998e-06
-4.44148e-10
1.04036e-06
-1.20782e-09
1.04105e-06
-2.02956e-09
1.042e-06
-3.00469e-09
1.04317e-06
-4.15527e-09
1.04453e-06
-5.51859e-09
1.04601e-06
-7.11069e-09
1.04758e-06
-8.92405e-09
1.04919e-06
-1.0946e-08
1.05082e-06
-1.31642e-08
1.05244e-06
-1.55652e-08
1.05401e-06
-1.81346e-08
1.05549e-06
-2.08549e-08
1.05684e-06
-2.37046e-08
1.05799e-06
-2.66565e-08
1.05891e-06
-2.96774e-08
1.05953e-06
-3.27306e-08
-3.57888e-08
1.05982e-06
1.2678e-06
-5.64578e-10
1.26824e-06
-1.64468e-09
1.26897e-06
-2.7623e-09
1.26995e-06
-3.98855e-09
1.27115e-06
-5.3514e-09
1.27251e-06
-6.87568e-09
1.27397e-06
-8.57507e-09
1.27549e-06
-1.04483e-08
1.27704e-06
-1.24871e-08
1.27855e-06
-1.46805e-08
1.28e-06
-1.7015e-08
1.28134e-06
-1.94739e-08
1.28252e-06
-2.20372e-08
1.2835e-06
-2.46809e-08
1.28422e-06
-2.73769e-08
1.28464e-06
-3.00934e-08
1.2847e-06
-3.27981e-08
-3.5469e-08
1.28438e-06
1.54547e-06
-7.12381e-10
1.54591e-06
-2.09255e-09
1.54663e-06
-3.48239e-09
1.54758e-06
-4.93283e-09
1.5487e-06
-6.47052e-09
1.54994e-06
-8.1147e-09
1.55124e-06
-9.87679e-09
1.55255e-06
-1.17585e-08
1.55382e-06
-1.37549e-08
1.55499e-06
-1.58568e-08
1.55603e-06
-1.80512e-08
1.55688e-06
-2.03217e-08
1.55749e-06
-2.26485e-08
1.55782e-06
-2.50086e-08
1.55782e-06
-2.73767e-08
1.55745e-06
-2.97252e-08
1.55668e-06
-3.20277e-08
-3.42679e-08
1.55548e-06
1.8839e-06
-8.47438e-10
1.88428e-06
-2.47776e-09
1.88489e-06
-4.08806e-09
1.88567e-06
-5.7097e-09
1.88656e-06
-7.36025e-09
1.8875e-06
-9.05551e-09
1.88843e-06
-1.08058e-08
1.88928e-06
-1.2615e-08
1.89001e-06
-1.44818e-08
1.89055e-06
-1.64005e-08
1.89086e-06
-1.83614e-08
1.89089e-06
-2.03509e-08
1.8906e-06
-2.2353e-08
1.88994e-06
-2.43491e-08
1.88888e-06
-2.6319e-08
1.8874e-06
-2.82418e-08
1.88547e-06
-3.00984e-08
-3.18782e-08
1.88308e-06
2.2964e-06
-9.12177e-10
2.2966e-06
-2.68426e-09
2.29695e-06
-4.43382e-09
2.29739e-06
-6.14741e-09
2.29785e-06
-7.82465e-09
2.29828e-06
-9.47823e-09
2.29859e-06
-1.11165e-08
2.29872e-06
-1.27458e-08
2.29861e-06
-1.43712e-08
2.2982e-06
-1.59944e-08
2.29745e-06
-1.76121e-08
2.29632e-06
-1.92179e-08
2.29477e-06
-2.08022e-08
2.29277e-06
-2.23538e-08
2.29031e-06
-2.38602e-08
2.28738e-06
-2.53083e-08
2.28397e-06
-2.66863e-08
-2.7989e-08
2.28008e-06
1.68101e-06
-8.51182e-10
1.68095e-06
-2.61976e-09
1.68094e-06
-4.43227e-09
1.68097e-06
-6.17882e-09
1.68099e-06
-7.84401e-09
1.68095e-06
-9.43652e-09
1.68079e-06
-1.09568e-08
1.68046e-06
-1.24141e-08
1.67991e-06
-1.3823e-08
1.67911e-06
-1.51937e-08
1.67803e-06
-1.65307e-08
1.67665e-06
-1.78343e-08
1.67495e-06
-1.91015e-08
1.67292e-06
-2.03271e-08
1.67056e-06
-2.15042e-08
1.66788e-06
-2.26251e-08
1.66488e-06
-2.36825e-08
-2.46736e-08
1.66156e-06
1.46324e-06
-6.29885e-10
1.46296e-06
-2.34655e-09
1.46279e-06
-4.25826e-09
1.46267e-06
-6.05681e-09
1.46256e-06
-7.73331e-09
1.4624e-06
-9.28306e-09
1.46213e-06
-1.06882e-08
1.46169e-06
-1.19685e-08
1.46102e-06
-1.31565e-08
1.4601e-06
-1.42753e-08
1.45891e-06
-1.53392e-08
1.45743e-06
-1.63568e-08
1.45566e-06
-1.73321e-08
1.4536e-06
-1.82654e-08
1.45125e-06
-1.91547e-08
1.44862e-06
-1.99962e-08
1.44573e-06
-2.0786e-08
-2.15226e-08
1.44258e-06
1.2735e-06
-1.21626e-10
1.27302e-06
-1.86341e-09
1.27277e-06
-4.00277e-09
1.27262e-06
-5.91198e-09
1.27255e-06
-7.6578e-09
1.27246e-06
-9.19516e-09
1.27225e-06
-1.04803e-08
1.27185e-06
-1.15653e-08
1.27121e-06
-1.25148e-08
1.2703e-06
-1.33703e-08
1.26912e-06
-1.41581e-08
1.26766e-06
-1.48961e-08
1.26592e-06
-1.55951e-08
1.26392e-06
-1.626e-08
1.26165e-06
-1.68917e-08
1.25915e-06
-1.74893e-08
1.25641e-06
-1.80503e-08
-1.85737e-08
1.25346e-06
1.10813e-06
8.4e-10
1.10746e-06
-1.19222e-09
1.10723e-06
-3.77287e-09
1.10719e-06
-5.87174e-09
1.10729e-06
-7.75591e-09
1.10738e-06
-9.2889e-09
1.10732e-06
-1.04139e-08
1.10701e-06
-1.12564e-08
1.10642e-06
-1.19304e-08
1.10555e-06
-1.24982e-08
1.10439e-06
-1.2999e-08
1.10295e-06
-1.34596e-08
1.10125e-06
-1.38954e-08
1.09931e-06
-1.43133e-08
1.09713e-06
-1.47154e-08
1.09474e-06
-1.51008e-08
1.09216e-06
-1.54673e-08
-1.58131e-08
1.0894e-06
9.63947e-07
2.41473e-09
9.63164e-07
-4.09037e-10
9.63084e-07
-3.69306e-09
9.63269e-07
-6.05703e-09
9.63643e-07
-8.12964e-09
9.63964e-07
-9.60982e-09
9.64033e-07
-1.04827e-08
9.63781e-07
-1.10051e-08
9.63202e-07
-1.13513e-08
9.62306e-07
-1.16024e-08
9.61115e-07
-1.18077e-08
9.59654e-07
-1.19987e-08
9.57949e-07
-1.2191e-08
9.56026e-07
-1.23895e-08
9.53904e-07
-1.25941e-08
9.51606e-07
-1.28022e-08
9.49148e-07
-1.30095e-08
-1.32126e-08
9.46548e-07
8.38063e-07
4.88701e-09
8.3744e-07
2.13541e-10
8.37693e-07
-3.94602e-09
8.3821e-07
-6.57384e-09
8.389e-07
-8.8191e-09
8.39404e-07
-1.0114e-08
8.39513e-07
-1.05918e-08
8.39205e-07
-1.06973e-08
8.38517e-07
-1.06634e-08
8.37495e-07
-1.05802e-08
8.36185e-07
-1.04978e-08
8.34631e-07
-1.04441e-08
8.32867e-07
-1.04277e-08
8.30924e-07
-1.04465e-08
8.28825e-07
-1.04947e-08
8.26589e-07
-1.05658e-08
8.24232e-07
-1.06526e-08
-1.0749e-08
8.21768e-07
7.27575e-07
9.04047e-09
7.27875e-07
-8.64021e-11
7.28762e-07
-4.83345e-09
7.29707e-07
-7.51809e-09
7.30671e-07
-9.78337e-09
7.3121e-07
-1.06534e-08
7.31174e-07
-1.05554e-08
7.30628e-07
-1.01515e-08
7.29675e-07
-9.71013e-09
7.28403e-07
-9.30806e-09
7.26883e-07
-8.97851e-09
7.25172e-07
-8.73231e-09
7.23306e-07
-8.56263e-09
7.21316e-07
-8.45565e-09
7.19219e-07
-8.39768e-09
7.1703e-07
-8.37727e-09
7.14762e-07
-8.38455e-09
-8.41081e-09
7.12424e-07
6.3018e-07
1.5867e-08
6.32562e-07
-2.46878e-09
6.34287e-07
-6.55826e-09
6.35702e-07
-8.93263e-09
6.36792e-07
-1.08731e-08
6.37092e-07
-1.0954e-08
6.36623e-07
-1.00864e-08
6.35594e-07
-9.1224e-09
6.34192e-07
-8.30845e-09
6.32548e-07
-7.66411e-09
6.30746e-07
-7.17637e-09
6.28837e-07
-6.82354e-09
6.26852e-07
-6.57721e-09
6.24807e-07
-6.41043e-09
6.22711e-07
-6.30233e-09
6.20572e-07
-6.23792e-09
6.18393e-07
-6.20592e-09
-6.19618e-09
6.16179e-07
5.47161e-07
2.32519e-08
5.51686e-07
-6.9928e-09
5.53178e-07
-8.05061e-09
5.54579e-07
-1.03339e-08
5.55272e-07
-1.15658e-08
5.54785e-07
-1.04676e-08
5.53424e-07
-8.72459e-09
5.51587e-07
-7.28585e-09
5.49542e-07
-6.26282e-09
5.47425e-07
-5.54779e-09
5.45299e-07
-5.05042e-09
5.43185e-07
-4.70972e-09
5.41087e-07
-4.47907e-09
5.39001e-07
-4.32408e-09
5.36921e-07
-4.22195e-09
5.34841e-07
-4.15873e-09
5.3276e-07
-4.12455e-09
-4.11129e-09
5.30675e-07
4.91578e-07
1.44347e-08
4.9059e-07
-6.00526e-09
4.87009e-07
-4.46936e-09
4.85806e-07
-9.1309e-09
4.84025e-07
-9.78493e-09
4.81251e-07
-7.69376e-09
4.78077e-07
-5.54983e-09
4.74953e-07
-4.16183e-09
4.72052e-07
-3.36247e-09
4.69392e-07
-2.8877e-09
4.66934e-07
-2.592e-09
4.6463e-07
-2.40548e-09
4.62438e-07
-2.28742e-09
4.60326e-07
-2.21228e-09
4.5827e-07
-2.16556e-09
4.56252e-07
-2.1414e-09
4.54267e-07
-2.13953e-09
-2.20259e-09
4.52359e-07
4.34702e-07
4.28697e-07
4.24228e-07
4.15097e-07
4.05312e-07
3.97618e-07
3.92068e-07
3.87906e-07
3.84544e-07
3.81656e-07
3.79064e-07
3.76659e-07
3.74371e-07
3.72159e-07
3.69994e-07
3.67852e-07
3.65713e-07
3.6351e-07
-4.27639e-09
4.27639e-09
-1.29845e-08
8.70813e-09
-2.38782e-08
1.08936e-08
-3.568e-08
1.18019e-08
-4.77322e-08
1.20521e-08
-5.97189e-08
1.19867e-08
-7.14598e-08
1.17409e-08
-8.28259e-08
1.13662e-08
-9.37104e-08
1.08844e-08
-1.04015e-07
1.03042e-08
-1.13642e-07
9.62763e-09
-1.22497e-07
8.85498e-09
-1.30484e-07
7.98667e-09
-1.37508e-07
7.02443e-09
-1.4348e-07
5.97172e-09
-1.48314e-07
4.83382e-09
-1.51932e-07
3.61846e-09
-1.54269e-07
2.33708e-09
-1.55277e-07
1.00775e-09
-1.54941e-07
-3.36388e-10
-1.5327e-07
-1.67083e-09
-1.50278e-07
-2.99192e-09
-1.45982e-07
-4.29569e-09
-1.40407e-07
-5.57511e-09
-1.33585e-07
-6.8217e-09
-1.25559e-07
-8.02652e-09
-1.16378e-07
-9.18071e-09
-1.06103e-07
-1.02756e-08
-9.47995e-08
-1.13031e-08
-8.25434e-08
-1.22561e-08
-6.9416e-08
-1.31274e-08
-5.55048e-08
-1.39112e-08
-4.09006e-08
-1.46043e-08
-2.56927e-08
-1.52079e-08
-9.95713e-09
-1.57356e-08
6.23605e-09
-1.61932e-08
2.27981e-08
-1.6562e-08
3.96314e-08
-1.68334e-08
5.66456e-08
-1.70141e-08
7.3755e-08
-1.71095e-08
9.08792e-08
-1.71241e-08
1.07942e-07
-1.70629e-08
1.24873e-07
-1.69309e-08
1.41606e-07
-1.67334e-08
1.58082e-07
-1.64759e-08
1.74247e-07
-1.61643e-08
1.90051e-07
-1.58043e-08
2.05453e-07
-1.54018e-08
2.20415e-07
-1.49628e-08
2.34908e-07
-1.44929e-08
2.48906e-07
-1.39979e-08
2.62389e-07
-1.3483e-08
2.75343e-07
-1.29534e-08
2.87756e-07
-1.24137e-08
2.99625e-07
-1.18685e-08
3.10947e-07
-1.13217e-08
3.21724e-07
-1.0777e-08
3.31961e-07
-1.02375e-08
3.41667e-07
-9.7063e-09
3.50853e-07
-9.18567e-09
3.59531e-07
-8.67772e-09
3.67715e-07
-8.18417e-09
3.75421e-07
-7.70642e-09
3.82667e-07
-7.24552e-09
3.89469e-07
-6.80228e-09
3.95846e-07
-6.37723e-09
4.01817e-07
-5.9707e-09
4.074e-07
-5.58279e-09
4.12613e-07
-5.21347e-09
4.17476e-07
-4.86251e-09
4.22005e-07
-4.52963e-09
4.2622e-07
-4.2144e-09
4.30136e-07
-3.91631e-09
4.33771e-07
-3.63482e-09
4.3714e-07
-3.36931e-09
4.40259e-07
-3.11916e-09
4.43143e-07
-2.88369e-09
4.45805e-07
-2.66226e-09
4.4826e-07
-2.45416e-09
4.50518e-07
-2.25875e-09
4.52594e-07
-2.07537e-09
4.54497e-07
-1.90336e-09
4.56239e-07
-1.74213e-09
4.5783e-07
-1.59105e-09
4.5928e-07
-1.44954e-09
4.60597e-07
-1.31705e-09
4.6179e-07
-1.19305e-09
4.62867e-07
-1.07699e-09
4.63835e-07
-9.6838e-10
4.64702e-07
-8.66757e-10
4.65474e-07
-7.71675e-10
4.66156e-07
-6.8276e-10
4.66756e-07
-5.99654e-10
4.67278e-07
-5.22043e-10
4.67728e-07
-4.49587e-10
4.6811e-07
-3.81976e-10
4.68429e-07
-3.18881e-10
4.68689e-07
-2.59952e-10
4.68893e-07
-2.04845e-10
4.69046e-07
-1.53071e-10
4.69151e-07
-1.04071e-10
4.69207e-07
-5.61475e-11
4.69212e-07
-5.66011e-12
4.69167e-07
4.53485e-11
4.69076e-07
9.09439e-11
4.68946e-07
1.30191e-10
4.68781e-07
1.64377e-10
4.68587e-07
1.94686e-10
4.68365e-07
2.21913e-10
4.68118e-07
2.46665e-10
4.67849e-07
2.69389e-10
4.67558e-07
2.90397e-10
4.67249e-07
3.09902e-10
4.6692e-07
3.28073e-10
4.66575e-07
3.45047e-10
4.66214e-07
3.6094e-10
4.65839e-07
3.75838e-10
4.65449e-07
3.89854e-10
4.65046e-07
4.03038e-10
4.6463e-07
4.15492e-10
4.64203e-07
4.27256e-10
4.63765e-07
4.38408e-10
4.63316e-07
4.48988e-10
4.62857e-07
4.59059e-10
4.62388e-07
4.68656e-10
4.6191e-07
4.7782e-10
4.61423e-07
4.86606e-10
4.60928e-07
4.95033e-10
4.60425e-07
5.03142e-10
4.59914e-07
5.10964e-10
4.59396e-07
5.18512e-10
4.5887e-07
5.25826e-10
4.58337e-07
5.32909e-10
4.57797e-07
5.39799e-10
4.57251e-07
5.46514e-10
4.56698e-07
5.53086e-10
4.56138e-07
5.59527e-10
4.55572e-07
5.65892e-10
4.55e-07
5.72191e-10
4.54422e-07
5.78457e-10
4.53837e-07
5.84721e-10
4.53246e-07
5.91002e-10
4.52649e-07
5.97328e-10
4.52045e-07
6.03702e-10
4.51435e-07
6.10139e-10
4.50818e-07
6.16645e-10
4.50195e-07
6.23232e-10
4.49565e-07
6.2991e-10
4.48928e-07
6.36694e-10
4.48285e-07
6.43592e-10
4.47634e-07
6.50619e-10
4.46976e-07
6.57809e-10
4.46311e-07
6.65196e-10
4.45638e-07
6.72811e-10
4.44957e-07
6.80723e-10
4.44268e-07
6.89001e-10
4.43571e-07
6.97751e-10
4.42864e-07
7.07091e-10
4.42146e-07
7.17188e-10
4.41418e-07
7.28255e-10
4.40678e-07
7.40583e-10
4.39923e-07
7.54534e-10
4.39152e-07
7.70609e-10
4.38363e-07
7.89455e-10
4.37551e-07
8.1196e-10
4.36712e-07
8.3932e-10
4.35839e-07
8.73164e-10
4.34923e-07
9.15791e-10
4.33952e-07
9.70455e-10
4.3291e-07
1.04188e-09
4.31773e-07
1.13719e-09
4.30506e-07
1.26744e-09
4.29055e-07
1.45084e-09
4.27336e-07
1.71892e-09
4.25203e-07
2.13316e-09
4.22389e-07
2.81427e-09
4.18308e-07
4.08076e-09
4.11777e-07
6.53098e-09
3.99084e-07
1.26926e-08
2.38161e-08
3.75268e-07
-1.14092e-08
1.56856e-08
-2.1714e-08
1.90129e-08
-3.19381e-08
2.11177e-08
-4.24649e-08
2.23287e-08
-5.32399e-08
2.2827e-08
-6.40714e-08
2.28183e-08
-7.47659e-08
2.24354e-08
-8.51527e-08
2.17529e-08
-9.50826e-08
2.08143e-08
-1.04425e-07
1.96467e-08
-1.13066e-07
1.82682e-08
-1.20904e-07
1.66932e-08
-1.27852e-07
1.49351e-08
-1.33836e-07
1.30082e-08
-1.38793e-07
1.09284e-08
-1.42673e-07
8.71399e-09
-1.4544e-07
6.38553e-09
-1.47069e-07
3.96623e-09
-1.47542e-07
1.48086e-09
-1.46829e-07
-1.04924e-09
-1.44895e-07
-3.60487e-09
-1.41723e-07
-6.16432e-09
-1.37312e-07
-8.70611e-09
-1.31678e-07
-1.12096e-08
-1.24845e-07
-1.36548e-08
-1.16849e-07
-1.60228e-08
-1.07734e-07
-1.82958e-08
-9.75518e-08
-2.04573e-08
-8.63626e-08
-2.24923e-08
-7.42312e-08
-2.43875e-08
-6.12274e-08
-2.61312e-08
-4.74244e-08
-2.77142e-08
-3.28992e-08
-2.91295e-08
-1.77332e-08
-3.03739e-08
-2.02083e-09
-3.1448e-08
1.41362e-08
-3.23502e-08
3.06523e-08
-3.30782e-08
4.74513e-08
-3.36323e-08
6.4454e-08
-3.40169e-08
8.15822e-08
-3.42377e-08
9.87599e-08
-3.43018e-08
1.15914e-07
-3.42173e-08
1.32977e-07
-3.39932e-08
1.49882e-07
-3.36391e-08
1.66572e-07
-3.31655e-08
1.82991e-07
-3.25831e-08
1.99089e-07
-3.19029e-08
2.14824e-07
-3.11364e-08
2.30156e-07
-3.02945e-08
2.45051e-07
-2.93885e-08
2.59482e-07
-2.84291e-08
2.73426e-07
-2.74269e-08
2.86865e-07
-2.63916e-08
2.99784e-07
-2.53327e-08
3.12174e-07
-2.4259e-08
3.24031e-07
-2.31786e-08
3.35353e-07
-2.20988e-08
3.46141e-07
-2.10261e-08
3.56402e-07
-1.99665e-08
3.66141e-07
-1.8925e-08
3.75369e-07
-1.79061e-08
3.84099e-07
-1.69134e-08
3.92342e-07
-1.595e-08
4.00115e-07
-1.50183e-08
4.07433e-07
-1.412e-08
4.14312e-07
-1.32567e-08
4.2077e-07
-1.24291e-08
4.26825e-07
-1.16377e-08
4.32495e-07
-1.08826e-08
4.37796e-07
-1.01637e-08
4.42746e-07
-9.48037e-09
4.47364e-07
-8.83207e-09
4.51666e-07
-8.21792e-09
4.55668e-07
-7.63691e-09
4.59386e-07
-7.08797e-09
4.62837e-07
-6.5699e-09
4.66035e-07
-6.08149e-09
4.68994e-07
-5.62144e-09
4.71728e-07
-5.1885e-09
4.74251e-07
-4.78135e-09
4.76574e-07
-4.39875e-09
4.78711e-07
-4.03942e-09
4.80671e-07
-3.70215e-09
4.82465e-07
-3.38573e-09
4.84105e-07
-3.08902e-09
4.85599e-07
-2.81091e-09
4.86956e-07
-2.55032e-09
4.88185e-07
-2.30622e-09
4.89294e-07
-2.07764e-09
4.90291e-07
-1.86363e-09
4.91183e-07
-1.66334e-09
4.91976e-07
-1.47597e-09
4.92677e-07
-1.30076e-09
4.93292e-07
-1.137e-09
4.93827e-07
-9.84005e-10
4.94286e-07
-8.41094e-10
4.94674e-07
-7.07599e-10
4.94997e-07
-5.82876e-10
4.95259e-07
-4.66241e-10
4.95463e-07
-3.57026e-10
4.95613e-07
-2.54531e-10
4.95715e-07
-1.57902e-10
4.95775e-07
-6.59739e-11
4.95798e-07
2.2246e-11
4.95783e-07
1.06114e-10
4.95729e-07
1.84171e-10
4.95637e-07
2.5611e-10
4.9551e-07
3.22309e-10
4.95348e-07
3.83267e-10
4.95156e-07
4.39527e-10
4.94933e-07
4.91575e-10
4.94684e-07
5.39858e-10
4.94409e-07
5.84743e-10
4.94111e-07
6.26561e-10
4.9379e-07
6.65567e-10
4.93449e-07
7.02033e-10
4.93089e-07
7.36169e-10
4.9271e-07
7.68174e-10
4.92315e-07
7.98239e-10
4.91904e-07
8.26533e-10
4.91478e-07
8.53202e-10
4.91038e-07
8.7839e-10
4.90585e-07
9.0222e-10
4.90119e-07
9.24814e-10
4.89642e-07
9.46287e-10
4.89153e-07
9.66732e-10
4.88653e-07
9.86239e-10
4.88143e-07
1.0049e-09
4.87623e-07
1.0228e-09
4.87094e-07
1.03999e-09
4.86556e-07
1.05654e-09
4.8601e-07
1.07251e-09
4.85455e-07
1.08794e-09
4.84892e-07
1.1029e-09
4.84321e-07
1.11743e-09
4.83742e-07
1.13158e-09
4.83156e-07
1.14542e-09
4.82563e-07
1.15899e-09
4.81963e-07
1.17235e-09
4.81356e-07
1.18557e-09
4.80742e-07
1.19871e-09
4.80121e-07
1.2118e-09
4.79494e-07
1.2249e-09
4.78859e-07
1.23803e-09
4.78218e-07
1.25125e-09
4.7757e-07
1.26457e-09
4.76915e-07
1.27802e-09
4.76254e-07
1.29162e-09
4.75585e-07
1.30541e-09
4.74909e-07
1.3194e-09
4.74226e-07
1.33365e-09
4.73536e-07
1.3482e-09
4.72838e-07
1.36309e-09
4.72132e-07
1.37843e-09
4.71419e-07
1.39431e-09
4.70697e-07
1.41086e-09
4.69966e-07
1.42826e-09
4.69227e-07
1.44675e-09
4.68477e-07
1.4666e-09
4.67717e-07
1.48822e-09
4.66946e-07
1.51213e-09
4.66161e-07
1.53897e-09
4.65362e-07
1.56964e-09
4.64546e-07
1.60532e-09
4.63711e-07
1.64757e-09
4.62852e-07
1.69854e-09
4.61964e-07
1.76113e-09
4.6104e-07
1.83936e-09
4.60072e-07
1.93892e-09
4.59045e-07
2.06801e-09
4.57944e-07
2.23871e-09
4.56742e-07
2.46948e-09
4.55403e-07
2.78993e-09
4.53872e-07
3.24943e-09
4.52066e-07
3.93909e-09
4.49854e-07
5.02711e-09
4.47016e-07
6.91877e-09
4.43215e-07
1.03311e-08
4.37885e-07
1.80225e-08
3.27749e-08
4.28927e-07
-1.19104e-08
2.7596e-08
-2.28691e-08
2.99715e-08
-3.33334e-08
3.15821e-08
-4.36266e-08
3.26219e-08
-5.38749e-08
3.30753e-08
-6.4052e-08
3.29955e-08
-7.40618e-08
3.24451e-08
-8.37836e-08
3.14747e-08
-9.30926e-08
3.01234e-08
-1.01869e-07
2.84232e-08
-1.10002e-07
2.64014e-08
-1.17392e-07
2.4083e-08
-1.2395e-07
2.14924e-08
-1.29596e-07
1.86544e-08
-1.34263e-07
1.55955e-08
-1.37892e-07
1.23436e-08
-1.40435e-07
8.92824e-09
-1.41849e-07
5.38023e-09
-1.42099e-07
1.73068e-09
-1.41158e-07
-1.9899e-09
-1.39012e-07
-5.75093e-09
-1.35656e-07
-9.52068e-09
-1.31095e-07
-1.32674e-08
-1.25344e-07
-1.69601e-08
-1.1843e-07
-2.05692e-08
-1.10386e-07
-2.40663e-08
-1.01257e-07
-2.74253e-08
-9.1092e-08
-3.0622e-08
-7.99497e-08
-3.36346e-08
-6.78931e-08
-3.6444e-08
-5.49904e-08
-3.90339e-08
-4.13138e-08
-4.13908e-08
-2.69385e-08
-4.35047e-08
-1.1944e-08
-4.53684e-08
3.58476e-09
-4.69767e-08
1.95623e-08
-4.83277e-08
3.59066e-08
-4.94224e-08
5.2538e-08
-5.02638e-08
6.93785e-08
-5.08573e-08
8.63518e-08
-5.1211e-08
1.03384e-07
-5.13344e-08
1.20406e-07
-5.1239e-08
1.3735e-07
-5.09373e-08
1.54154e-07
-5.04433e-08
1.7076e-07
-4.97717e-08
1.87115e-07
-4.8938e-08
2.0317e-07
-4.7958e-08
2.18882e-07
-4.6848e-08
2.34212e-07
-4.56241e-08
2.49125e-07
-4.43023e-08
2.63595e-07
-4.28984e-08
2.77596e-07
-4.14276e-08
2.91108e-07
-3.99045e-08
3.04118e-07
-3.83428e-08
3.16615e-07
-3.67556e-08
3.28591e-07
-3.51548e-08
3.40044e-07
-3.35515e-08
3.50973e-07
-3.19556e-08
3.61383e-07
-3.0376e-08
3.71278e-07
-2.88205e-08
3.80668e-07
-2.72959e-08
3.89563e-07
-2.58079e-08
3.97974e-07
-2.43613e-08
4.05916e-07
-2.296e-08
4.13403e-07
-2.16069e-08
4.2045e-07
-2.03044e-08
4.27075e-07
-1.9054e-08
4.33294e-07
-1.78566e-08
4.39124e-07
-1.67126e-08
4.44582e-07
-1.56219e-08
4.49686e-07
-1.45839e-08
4.54452e-07
-1.35979e-08
4.58897e-07
-1.26628e-08
4.63037e-07
-1.1777e-08
4.66888e-07
-1.09393e-08
4.70466e-07
-1.01478e-08
4.73785e-07
-9.40078e-09
4.7686e-07
-8.69649e-09
4.79705e-07
-8.03303e-09
4.82332e-07
-7.40854e-09
4.84754e-07
-6.82116e-09
4.86984e-07
-6.26903e-09
4.89032e-07
-5.75036e-09
4.9091e-07
-5.26338e-09
4.92627e-07
-4.80639e-09
4.94194e-07
-4.37771e-09
4.9562e-07
-3.97578e-09
4.96912e-07
-3.59905e-09
4.98081e-07
-3.24608e-09
4.99133e-07
-2.91549e-09
5.00075e-07
-2.60596e-09
5.00916e-07
-2.31628e-09
5.0166e-07
-2.04529e-09
5.02315e-07
-1.79187e-09
5.02886e-07
-1.55497e-09
5.03378e-07
-1.33356e-09
5.03798e-07
-1.12663e-09
5.04148e-07
-9.33211e-10
5.04434e-07
-7.52376e-10
5.0466e-07
-5.83191e-10
5.0483e-07
-4.24786e-10
5.04949e-07
-2.76292e-10
5.0502e-07
-1.36763e-10
5.05047e-07
-5.08121e-12
5.05034e-07
1.19299e-10
5.04982e-07
2.36154e-10
5.04892e-07
3.45349e-10
5.04768e-07
4.47093e-10
5.04609e-07
5.41749e-10
5.04419e-07
6.2977e-10
5.04199e-07
7.11665e-10
5.03951e-07
7.87907e-10
5.03677e-07
8.58947e-10
5.03378e-07
9.25219e-10
5.03056e-07
9.87107e-10
5.02713e-07
1.04497e-09
5.02351e-07
1.09913e-09
5.01969e-07
1.14991e-09
5.01569e-07
1.19757e-09
5.01154e-07
1.24239e-09
5.00722e-07
1.2846e-09
5.00276e-07
1.32443e-09
4.99816e-07
1.36207e-09
4.99343e-07
1.39773e-09
4.98858e-07
1.43156e-09
4.98361e-07
1.46374e-09
4.97853e-07
1.4944e-09
4.97334e-07
1.52369e-09
4.96805e-07
1.55174e-09
4.96267e-07
1.57864e-09
4.95719e-07
1.60451e-09
4.95162e-07
1.62943e-09
4.94596e-07
1.6535e-09
4.94022e-07
1.67679e-09
4.9344e-07
1.69938e-09
4.9285e-07
1.72136e-09
4.92253e-07
1.74281e-09
4.91648e-07
1.76382e-09
4.91036e-07
1.78446e-09
4.90417e-07
1.80482e-09
4.89791e-07
1.82499e-09
4.89157e-07
1.84503e-09
4.88517e-07
1.86503e-09
4.8787e-07
1.88504e-09
4.87216e-07
1.90512e-09
4.86556e-07
1.92531e-09
4.85888e-07
1.94567e-09
4.85213e-07
1.96624e-09
4.84532e-07
1.98706e-09
4.83843e-07
2.00819e-09
4.83147e-07
2.02967e-09
4.82444e-07
2.05158e-09
4.81733e-07
2.07403e-09
4.81014e-07
2.09711e-09
4.80287e-07
2.12097e-09
4.79552e-07
2.14583e-09
4.78809e-07
2.17194e-09
4.78056e-07
2.19962e-09
4.77293e-07
2.2293e-09
4.7652e-07
2.26157e-09
4.75735e-07
2.29714e-09
4.74937e-07
2.33699e-09
4.74124e-07
2.38242e-09
4.73294e-07
2.43511e-09
4.72444e-07
2.49734e-09
4.71571e-07
2.57218e-09
4.70668e-07
2.66383e-09
4.69729e-07
2.77806e-09
4.68745e-07
2.92296e-09
4.67703e-07
3.11017e-09
4.66585e-07
3.35667e-09
4.65366e-07
3.68813e-09
4.64012e-07
4.14487e-09
4.62468e-07
4.7927e-09
4.6066e-07
5.74758e-09
4.58471e-07
7.21631e-09
4.55747e-07
9.64239e-09
4.52277e-07
1.38008e-08
4.48301e-07
2.19983e-08
3.66392e-08
4.44437e-07
-1.13198e-08
3.89158e-08
-2.25034e-08
4.11552e-08
-3.33773e-08
4.2456e-08
-4.39966e-08
4.32412e-08
-5.44035e-08
4.34822e-08
-6.45851e-08
4.31772e-08
-7.44844e-08
4.23444e-08
-8.40181e-08
4.10084e-08
-9.30911e-08
3.91963e-08
-1.01604e-07
3.69366e-08
-1.09462e-07
3.42585e-08
-1.16571e-07
3.11921e-08
-1.22847e-07
2.77686e-08
-1.28214e-07
2.40211e-08
-1.32602e-07
1.99842e-08
-1.35953e-07
1.56943e-08
-1.38214e-07
1.11897e-08
-1.39344e-07
6.50998e-09
-1.39309e-07
1.69569e-09
-1.38087e-07
-3.21243e-09
-1.35664e-07
-8.17311e-09
-1.32041e-07
-1.31443e-08
-1.27224e-07
-1.80843e-08
-1.21232e-07
-2.29524e-08
-1.14092e-07
-2.77091e-08
-1.0584e-07
-3.23175e-08
-9.65229e-08
-3.67428e-08
-8.61915e-08
-4.09534e-08
-7.49053e-08
-4.49208e-08
-6.27291e-08
-4.86202e-08
-4.97326e-08
-5.20304e-08
-3.59893e-08
-5.51342e-08
-2.15755e-08
-5.79185e-08
-6.56998e-09
-6.03739e-08
8.94632e-09
-6.2493e-08
2.48927e-08
-6.42742e-08
4.11891e-08
-6.57187e-08
5.77567e-08
-6.68314e-08
7.45192e-08
-6.76198e-08
9.14026e-08
-6.80944e-08
1.08336e-07
-6.82677e-08
1.25251e-07
-6.81545e-08
1.42085e-07
-6.77712e-08
1.58778e-07
-6.71357e-08
1.75273e-07
-6.6267e-08
1.9152e-07
-6.5185e-08
2.07472e-07
-6.39103e-08
2.23088e-07
-6.24635e-08
2.38329e-07
-6.08656e-08
2.53164e-07
-5.91373e-08
2.67565e-07
-5.72988e-08
2.81507e-07
-5.537e-08
2.94972e-07
-5.33696e-08
3.07945e-07
-5.13159e-08
3.20415e-07
-4.92257e-08
3.32375e-07
-4.71147e-08
3.43821e-07
-4.49977e-08
3.54753e-07
-4.28876e-08
3.65174e-07
-4.07963e-08
3.75088e-07
-3.87344e-08
3.84503e-07
-3.6711e-08
3.93429e-07
-3.47337e-08
4.01877e-07
-3.28092e-08
4.09859e-07
-3.09429e-08
4.17391e-07
-2.91388e-08
4.24487e-07
-2.74003e-08
4.31163e-07
-2.57296e-08
4.37434e-07
-2.41282e-08
4.43318e-07
-2.25966e-08
4.48832e-07
-2.1135e-08
4.5399e-07
-1.97429e-08
4.58812e-07
-1.84192e-08
4.63312e-07
-1.71628e-08
4.67506e-07
-1.59717e-08
4.71411e-07
-1.48442e-08
4.75042e-07
-1.37782e-08
4.78412e-07
-1.27713e-08
4.81537e-07
-1.18213e-08
4.8443e-07
-1.09257e-08
4.87103e-07
-1.00821e-08
4.8957e-07
-9.28811e-09
4.91843e-07
-8.54127e-09
4.93931e-07
-7.83924e-09
4.95848e-07
-7.17971e-09
4.97602e-07
-6.5604e-09
4.99203e-07
-5.97917e-09
5.00661e-07
-5.43389e-09
5.01985e-07
-4.92258e-09
5.03182e-07
-4.44329e-09
5.04261e-07
-3.9942e-09
5.05228e-07
-3.57357e-09
5.06092e-07
-3.17977e-09
5.06858e-07
-2.81121e-09
5.07532e-07
-2.4664e-09
5.08121e-07
-2.14392e-09
5.0863e-07
-1.84238e-09
5.09064e-07
-1.56045e-09
5.09428e-07
-1.29686e-09
5.09726e-07
-1.05039e-09
5.09962e-07
-8.19863e-10
5.10142e-07
-6.04178e-10
5.10268e-07
-4.02269e-10
5.10344e-07
-2.13076e-10
5.10374e-07
-3.54602e-11
5.10362e-07
1.31522e-10
5.1031e-07
2.88331e-10
5.1022e-07
4.35286e-10
5.10094e-07
5.7275e-10
5.09935e-07
7.01183e-10
5.09744e-07
8.21074e-10
5.09522e-07
9.32956e-10
5.09273e-07
1.03738e-09
5.08997e-07
1.13487e-09
5.08696e-07
1.22593e-09
5.08372e-07
1.31105e-09
5.08027e-07
1.39069e-09
5.0766e-07
1.46525e-09
5.07275e-07
1.53516e-09
5.06872e-07
1.6008e-09
5.06452e-07
1.6625e-09
5.06016e-07
1.72058e-09
5.05565e-07
1.77538e-09
5.051e-07
1.82713e-09