/*--------------------------------*- C++ -*----------------------------------*\
  =========                 |
  \\      /  F ield         | OpenFOAM: The Open Source CFD Toolbox
   \\    /   O peration     | Website:  https://openfoam.org
    \\  /    A nd           | Version:  6
     \\/     M anipulation  |
\*---------------------------------------------------------------------------*/
FoamFile
{
    version     2.0;
    format      ascii;
    class       volVectorField;
    location    "0.04";
    object      U;
}
// * * * * * * * * * * * * * * * * * * * * * * * * * * * * * * * * * * * * * //

dimensions      [0 1 -1 0 0 0 0];

internalField   nonuniform List<vector> 
12225
(
(0.948797 -0.405346 0)
(1.01289 -0.19044 0)
(1.01533 -0.0513602 0)
(0.984669 -0.0052523 0)
(0.957661 0.00431834 0)
(0.940619 0.00394884 0)
(0.930128 0.00222142 0)
(0.923589 0.00102425 0)
(0.919696 0.000362825 0)
(0.917657 -3.05793e-05 0)
(0.917021 -0.000294996 0)
(0.917321 -0.000496087 0)
(0.918618 -0.000710072 0)
(0.921138 -0.00098567 0)
(0.92511 -0.00141624 0)
(0.93174 -0.00197424 0)
(0.940954 -0.00385858 0)
(0.964666 -0.00589619 0)
(1.03693 0.0761011 0)
(1.02004 0.0532136 0)
(1.0117 0.0191933 0)
(1.00522 0.0087107 0)
(0.99968 0.00629201 0)
(0.994019 0.00470474 0)
(0.988251 0.00327796 0)
(0.983436 0.00221817 0)
(0.980109 0.00143615 0)
(0.97817 0.000784102 0)
(0.977434 0.000206021 0)
(0.977968 -0.000348096 0)
(0.979698 -0.000970641 0)
(0.982692 -0.00174813 0)
(0.987125 -0.00284967 0)
(0.993703 -0.00450973 0)
(1.00266 -0.00827371 0)
(1.01577 -0.0157301 0)
(0.998322 0.013099 0)
(0.995481 0.0117455 0)
(1.00128 0.00609589 0)
(1.00296 0.00605742 0)
(1.0031 0.00635886 0)
(1.0023 0.00543734 0)
(1.00038 0.00410349 0)
(0.998285 0.00290225 0)
(0.996765 0.00187715 0)
(0.996058 0.00094478 0)
(0.996206 4.51561e-05 0)
(0.997303 -0.000880175 0)
(0.999417 -0.00192129 0)
(1.00266 -0.0032015 0)
(1.00719 -0.00495316 0)
(1.0134 -0.00756161 0)
(1.02118 -0.0123373 0)
(1.03047 -0.0206154 0)
(0.995113 -0.00699911 0)
(0.992648 0.00105266 0)
(0.999127 0.00353594 0)
(1.00195 0.00530622 0)
(1.00359 0.00611645 0)
(1.00469 0.00554403 0)
(1.00479 0.00438042 0)
(1.00442 0.0031665 0)
(1.00422 0.0020031 0)
(1.00449 0.000856757 0)
(1.00536 -0.000317001 0)
(1.00696 -0.00157838 0)
(1.0094 -0.00302442 0)
(1.01282 -0.00480117 0)
(1.01732 -0.0071687 0)
(1.02309 -0.0105375 0)
(1.02991 -0.015896 0)
(1.03723 -0.0240078 0)
(0.99668 -0.00699036 0)
(0.994002 0.000565211 0)
(0.998622 0.00321691 0)
(1.00125 0.00469588 0)
(1.00339 0.00554146 0)
(1.00536 0.00520865 0)
(1.00658 0.00422914 0)
(1.00734 0.0030604 0)
(1.0081 0.00182084 0)
(1.00912 0.000509711 0)
(1.01058 -0.000901801 0)
(1.0126 -0.00247164 0)
(1.01531 -0.00430023 0)
(1.01883 -0.00654271 0)
(1.02323 -0.00945695 0)
(1.02857 -0.0134186 0)
(1.03458 -0.0191213 0)
(1.04063 -0.0269932 0)
(0.997838 -0.0042274 0)
(0.995352 0.000929918 0)
(0.998471 0.00279571 0)
(1.0008 0.00397219 0)
(1.00309 0.00477383 0)
(1.00542 0.00458533 0)
(1.00727 0.00375049 0)
(1.00874 0.0026332 0)
(1.01017 0.0013459 0)
(1.01176 -9.66216e-05 0)
(1.01367 -0.00171366 0)
(1.01603 -0.00356046 0)
(1.01893 -0.00573665 0)
(1.02249 -0.00839503 0)
(1.02673 -0.0117714 0)
(1.03164 -0.0161816 0)
(1.03695 -0.0220919 0)
(1.0421 -0.0297399 0)
(0.998464 -0.00268236 0)
(0.996422 0.00073706 0)
(0.998576 0.00220064 0)
(1.00061 0.00321287 0)
(1.00285 0.00392012 0)
(1.00528 0.00378948 0)
(1.00744 0.00304247 0)
(1.00935 0.00195558 0)
(1.01122 0.000624199 0)
(1.01322 -0.000933427 0)
(1.01545 -0.00273333 0)
(1.01803 -0.00482859 0)
(1.02106 -0.0073146 0)
(1.02458 -0.0103336 0)
(1.02862 -0.0140892 0)
(1.0331 -0.0188314 0)
(1.03779 -0.0248629 0)
(1.04224 -0.0323107 0)
(0.998899 -0.00187632 0)
(0.997341 0.000445913 0)
(0.998866 0.001648 0)
(1.00062 0.00248234 0)
(1.00271 0.00303739 0)
(1.00509 0.00289193 0)
(1.00737 0.00217588 0)
(1.00951 0.00108836 0)
(1.01166 -0.000296519 0)
(1.0139 -0.00196427 0)
(1.01634 -0.00393171 0)
(1.01906 -0.00625004 0)
(1.02211 -0.0090078 0)
(1.02554 -0.0123315 0)
(1.02933 -0.0163887 0)
(1.03339 -0.0213683 0)
(1.03751 -0.0274601 0)
(1.04139 -0.0347307 0)
(0.99925 -0.00130102 0)
(0.998132 0.000252137 0)
(0.999242 0.00117802 0)
(1.00076 0.00179262 0)
(1.00266 0.0021549 0)
(1.0049 0.00193786 0)
(1.00718 0.00120181 0)
(1.00942 8.10313e-05 0)
(1.0117 -0.00137231 0)
(1.01408 -0.00315101 0)
(1.01661 -0.00527459 0)
(1.01936 -0.0077922 0)
(1.02237 -0.0107836 0)
(1.02564 -0.0143567 0)
(1.02914 -0.0186441 0)
(1.03277 -0.0237824 0)
(1.03637 -0.0298864 0)
(1.03972 -0.0369919 0)
(0.99952 -0.000856606 0)
(0.99878 0.000122484 0)
(0.999627 0.000761737 0)
(1.00094 0.00113967 0)
(1.00267 0.00128896 0)
(1.00475 0.000958628 0)
(1.00694 0.00016027 0)
(1.00918 -0.00102352 0)
(1.01148 -0.00256089 0)
(1.01388 -0.00445291 0)
(1.01642 -0.00672228 0)
(1.01912 -0.00941542 0)
(1.022 -0.012602 0)
(1.02505 -0.0163709 0)
(1.02823 -0.0208229 0)
(1.03144 -0.0260523 0)
(1.03454 -0.0321261 0)
(1.03738 -0.0390635 0)
(0.99971 -0.000548817 0)
(0.999284 2.31364e-06 0)
(0.999978 0.000370256 0)
(1.00114 0.000514255 0)
(1.0027 0.000444765 0)
(1.0046 -2.72329e-05 0)
(1.00667 -0.000920515 0)
(1.00883 -0.00219167 0)
(1.01108 -0.00382625 0)
(1.01343 -0.00583299 0)
(1.01588 -0.00823708 0)
(1.01846 -0.0110813 0)
(1.02115 -0.0144248 0)
(1.02393 -0.0183378 0)
(1.02675 -0.0228939 0)
(1.02953 -0.0281551 0)
(1.03214 -0.0341571 0)
(1.03449 -0.0409096 0)
(0.999827 -0.000373469 0)
(0.999623 -0.000118954 0)
(1.00024 2.05588e-05 0)
(1.0013 -3.96092e-05 0)
(1.00272 -0.000305445 0)
(1.00446 -0.000921618 0)
(1.00639 -0.00192164 0)
(1.00844 -0.00328797 0)
(1.01058 -0.00501896 0)
(1.01281 -0.00712892 0)
(1.01513 -0.0096441 0)
(1.01753 -0.0126032 0)
(1.02 -0.0160555 0)
(1.0225 -0.0200559 0)
(1.02497 -0.024657 0)
(1.02735 -0.0298987 0)
(1.02952 -0.035798 0)
(1.03143 -0.0423561 0)
(0.999906 -0.000278296 0)
(0.999869 -0.000256758 0)
(1.00044 -0.000326451 0)
(1.00142 -0.000578432 0)
(1.00272 -0.00103119 0)
(1.0043 -0.00179523 0)
(1.00608 -0.00291071 0)
(1.00798 -0.00437842 0)
(1.00998 -0.00620654 0)
(1.01205 -0.00841335 0)
(1.0142 -0.011025 0)
(1.01638 -0.0140756 0)
(1.01859 -0.017605 0)
(1.02078 -0.0216541 0)
(1.0229 -0.0262586 0)
(1.02488 -0.031441 0)
(1.02662 -0.0372057 0)
(1.0281 -0.0435495 0)
(0.999963 -0.000239291 0)
(1.00005 -0.000437016 0)
(1.00059 -0.000720228 0)
(1.00148 -0.00117453 0)
(1.00265 -0.00182668 0)
(1.00407 -0.00275732 0)
(1.00566 -0.00400843 0)
(1.00737 -0.00559386 0)
(1.00917 -0.00752894 0)
(1.01103 -0.00983433 0)
(1.01292 -0.0125348 0)
(1.01482 -0.0156587 0)
(1.0167 -0.0192359 0)
(1.01852 -0.023294 0)
(1.02022 -0.0278533 0)
(1.02173 -0.0329216 0)
(1.02301 -0.0384933 0)
(1.024 -0.0445625 0)
(0.999997 -0.000256014 0)
(1.00016 -0.000668477 0)
(1.00067 -0.00116812 0)
(1.00147 -0.00182958 0)
(1.0025 -0.00268514 0)
(1.00373 -0.00379217 0)
(1.0051 -0.00519024 0)
(1.00658 -0.00690062 0)
(1.00811 -0.00894247 0)
(1.00968 -0.0113366 0)
(1.01125 -0.0141046 0)
(1.0128 -0.0172683 0)
(1.01427 -0.0208476 0)
(1.01564 -0.0248577 0)
(1.01686 -0.0293058 0)
(1.01787 -0.0341885 0)
(1.01862 -0.0394925 0)
(1.01909 -0.0452095 0)
(1.00001 -0.000317394 0)
(1.00021 -0.000944416 0)
(1.00066 -0.0016613 0)
(1.00135 -0.00252833 0)
(1.00222 -0.00358033 0)
(1.00323 -0.00485935 0)
(1.00436 -0.00639981 0)
(1.00554 -0.00822522 0)
(1.00676 -0.0103553 0)
(1.00797 -0.0128085 0)
(1.00915 -0.0156021 0)
(1.01026 -0.0187506 0)
(1.01127 -0.0222646 0)
(1.01213 -0.026149 0)
(1.01281 -0.0304013 0)
(1.01327 -0.0350099 0)
(1.01347 -0.0399569 0)
(1.0134 -0.0452318 0)
(1.00002 -0.000405556 0)
(1.0002 -0.00124415 0)
(1.00057 -0.00217085 0)
(1.00112 -0.00323183 0)
(1.00179 -0.00445997 0)
(1.00256 -0.0058878 0)
(1.00339 -0.00754375 0)
(1.00425 -0.00944968 0)
(1.00509 -0.0116233 0)
(1.00589 -0.0140793 0)
(1.00661 -0.0168296 0)
(1.00723 -0.0198819 0)
(1.00771 -0.0232394 0)
(1.00803 -0.0268995 0)
(1.00814 -0.0308531 0)
(1.00803 -0.0350846 0)
(1.00767 -0.039574 0)
(1.00705 -0.0443099 0)
(1.00001 -0.000497318 0)
(1.00014 -0.0015282 0)
(1.0004 -0.00264018 0)
(1.00078 -0.00386576 0)
(1.00123 -0.00523085 0)
(1.00172 -0.00676055 0)
(1.00223 -0.00847713 0)
(1.00271 -0.0103987 0)
(1.00314 -0.0125395 0)
(1.00348 -0.0149105 0)
(1.00372 -0.0175186 0)
(1.00381 -0.0203666 0)
(1.00375 -0.0234527 0)
(1.0035 -0.0267702 0)
(1.00306 -0.0303074 0)
(1.00239 -0.0340479 0)
(1.00149 -0.0379729 0)
(1.00035 -0.0420718 0)
(1.00001 -0.000565222 0)
(1.00006 -0.00173664 0)
(1.00018 -0.00298209 0)
(1.00035 -0.00431492 0)
(1.00056 -0.00574919 0)
(1.00076 -0.0073023 0)
(1.00093 -0.00898994 0)
(1.00103 -0.0108258 0)
(1.00104 -0.0128212 0)
(1.00094 -0.0149846 0)
(1.00069 -0.0173203 0)
(1.00029 -0.019829 0)
(0.999708 -0.0225074 0)
(0.99894 -0.0253484 0)
(0.997975 -0.0283416 0)
(0.996802 -0.031473 0)
(0.995426 -0.0347278 0)
(0.99384 -0.0380977 0)
(0.999993 -0.000568083 0)
(0.999943 -0.00177905 0)
(0.999916 -0.00307683 0)
(0.999927 -0.00443876 0)
(0.999951 -0.00586611 0)
(0.999953 -0.00736824 0)
(0.999902 -0.00895205 0)
(0.999765 -0.010627 0)
(0.999511 -0.012404 0)
(0.999116 -0.014292 0)
(0.998562 -0.0162962 0)
(0.997834 -0.0184185 0)
(0.99692 -0.0206576 0)
(0.995815 -0.0230091 0)
(0.994513 -0.0254659 0)
(0.993015 -0.0280184 0)
(0.991327 -0.0306562 0)
(0.989448 -0.0333736 0)
(0.999966 -0.000487442 0)
(0.999757 -0.00167585 0)
(0.999585 -0.00301 0)
(0.99949 -0.00438844 0)
(0.999422 -0.00580481 0)
(0.999343 -0.00725791 0)
(0.999211 -0.00874072 0)
(0.998978 -0.0102606 0)
(0.998607 -0.0118323 0)
(0.998072 -0.0134685 0)
(0.997356 -0.0151776 0)
(0.996448 -0.0169646 0)
(0.995342 -0.0188318 0)
(0.994034 -0.0207781 0)
(0.992528 -0.0227999 0)
(0.990827 -0.0248916 0)
(0.988941 -0.0270463 0)
(0.986874 -0.0292601 0)
(0.999895 -0.000276236 0)
(0.999395 -0.00142939 0)
(0.999071 -0.00284436 0)
(0.998937 -0.00426971 0)
(0.998873 -0.00570852 0)
(0.998824 -0.00713533 0)
(0.998726 -0.00852151 0)
(0.998502 -0.0098808 0)
(0.998101 -0.0112403 0)
(0.9975 -0.0126205 0)
(0.996685 -0.014036 0)
(0.995651 -0.0154977 0)
(0.994397 -0.0170122 0)
(0.992929 -0.0185826 0)
(0.991254 -0.0202088 0)
(0.98938 -0.0218887 0)
(0.987323 -0.0236181 0)
(0.98509 -0.025395 0)
(0.999746 0.000116218 0)
(0.998748 -0.00107951 0)
(0.998308 -0.00265654 0)
(0.998255 -0.0041742 0)
(0.998318 -0.00568994 0)
(0.998427 -0.00711619 0)
(0.998468 -0.00839791 0)
(0.998319 -0.00957639 0)
(0.997924 -0.0107039 0)
(0.997271 -0.0118138 0)
(0.996356 -0.0129298 0)
(0.995186 -0.01407 0)
(0.993772 -0.0152463 0)
(0.992126 -0.0164653 0)
(0.990266 -0.0177297 0)
(0.988205 -0.0190395 0)
(0.985964 -0.0203926 0)
(0.983553 -0.0217876 0)
(0.999496 0.000805332 0)
(0.997714 -0.000725237 0)
(0.997305 -0.00258076 0)
(0.997519 -0.00421414 0)
(0.997853 -0.00584694 0)
(0.998244 -0.00726814 0)
(0.99849 -0.00840285 0)
(0.998417 -0.00935358 0)
(0.997988 -0.0102116 0)
(0.997221 -0.0110262 0)
(0.996138 -0.0118315 0)
(0.994761 -0.0126526 0)
(0.993118 -0.0135055 0)
(0.991235 -0.0143983 0)
(0.989137 -0.0153347 0)
(0.986845 -0.0163151 0)
(0.98438 -0.017338 0)
(0.981759 -0.0184016 0)
(0.998968 0.00242765 0)
(0.996075 -0.000189235 0)
(0.996146 -0.00266793 0)
(0.996925 -0.00448562 0)
(0.997666 -0.00624607 0)
(0.998408 -0.00759929 0)
(0.998833 -0.00849849 0)
(0.99873 -0.00914833 0)
(0.998124 -0.00968744 0)
(0.997094 -0.0101799 0)
(0.995698 -0.0106676 0)
(0.993986 -0.0111801 0)
(0.992005 -0.011733 0)
(0.989795 -0.012333 0)
(0.987386 -0.0129815 0)
(0.984803 -0.0136776 0)
(0.982068 -0.0144185 0)
(0.9792 -0.0152012 0)
(0.997451 0.00606855 0)
(0.993303 0.00124525 0)
(0.994902 -0.00258068 0)
(0.99675 -0.00491992 0)
(0.998004 -0.00685605 0)
(0.999039 -0.00802598 0)
(0.99945 -0.00856454 0)
(0.999046 -0.00882855 0)
(0.997982 -0.00900349 0)
(0.996434 -0.009161 0)
(0.994511 -0.00934347 0)
(0.992291 -0.00957666 0)
(0.989838 -0.00987007 0)
(0.987197 -0.0102237 0)
(0.984399 -0.0106342 0)
(0.981468 -0.0110973 0)
(0.97842 -0.0116079 0)
(0.975275 -0.0121611 0)
(0.994441 0.00854758 0)
(0.989334 0.00212304 0)
(0.993745 -0.002302 0)
(0.997239 -0.00536026 0)
(0.99907 -0.00751091 0)
(1.00012 -0.00834161 0)
(1.00004 -0.00838497 0)
(0.998806 -0.00819803 0)
(0.996822 -0.00799787 0)
(0.99439 -0.0078459 0)
(0.991665 -0.00777029 0)
(0.98874 -0.00778204 0)
(0.985675 -0.00787707 0)
(0.982507 -0.00804506 0)
(0.979255 -0.00827589 0)
(0.97593 -0.00856142 0)
(0.972539 -0.00889454 0)
(0.969095 -0.00926808 0)
(0.994522 -0.00662207 0)
(0.989383 -0.00860081 0)
(0.995138 -0.00552434 0)
(0.999257 -0.00661751 0)
(1.00105 -0.00818065 0)
(1.00122 -0.00831816 0)
(0.999541 -0.00772515 0)
(0.996525 -0.00707872 0)
(0.992911 -0.00656416 0)
(0.989114 -0.00619022 0)
(0.985279 -0.00594762 0)
(0.981452 -0.0058227 0)
(0.977654 -0.00579492 0)
(0.973882 -0.00584366 0)
(0.970128 -0.0059533 0)
(0.96638 -0.00611351 0)
(0.962629 -0.00631717 0)
(0.958871 -0.00655201 0)
(1.02646 -0.0702361 0)
(1.01698 -0.0624376 0)
(1.01155 -0.0293372 0)
(1.00783 -0.0151055 0)
(1.0045 -0.0106856 0)
(0.99991 -0.00831923 0)
(0.993764 -0.00657337 0)
(0.987084 -0.00542604 0)
(0.980751 -0.00472812 0)
(0.974996 -0.00429815 0)
(0.969724 -0.00403407 0)
(0.964813 -0.00388667 0)
(0.960171 -0.00382441 0)
(0.955726 -0.00382401 0)
(0.951418 -0.00387016 0)
(0.947205 -0.00395521 0)
(0.943062 -0.00407697 0)
(0.938973 -0.00425546 0)
(0.966206 0.350115 0)
(1.02682 0.194064 0)
(1.0323 0.0677415 0)
(1.00366 0.0150923 0)
(0.97472 -0.00146561 0)
(0.95379 -0.00455751 0)
(0.938842 -0.00389335 0)
(0.927584 -0.0028057 0)
(0.918731 -0.00205591 0)
(0.9114 -0.00163668 0)
(0.90497 -0.00142508 0)
(0.899074 -0.00133265 0)
(0.893515 -0.00130855 0)
(0.888178 -0.00132453 0)
(0.882983 -0.00136542 0)
(0.87787 -0.00142553 0)
(0.872786 -0.00149984 0)
(0.867695 -0.00163822 0)
(-0.00384539 0.0044852 -1.07141e-21)
(-0.00803199 0.0100417 9.84478e-22)
(-0.0160644 0.0130086 0)
(-0.0264116 0.0139388 0)
(-0.0371114 0.0138981 0)
(-0.0478183 0.0135234 -8.52957e-22)
(-0.0583884 0.0130173 0)
(-0.0686958 0.0124249 0)
(-0.078634 0.0117526 0)
(-0.0881105 0.010996 0)
(-0.0970374 0.0101476 6.97244e-22)
(-0.105328 0.00920061 0)
(-0.112895 0.0081509 0)
(-0.119653 0.00699785 0)
(-0.125518 0.00574431 0)
(-0.130411 0.0043972 4.42281e-22)
(-0.134259 0.00296931 0)
(-0.136995 0.00148085 0)
(-0.138567 -4.04975e-05 0)
(-0.138906 -0.00154955 0)
(-0.138066 -0.00302327 0)
(-0.136041 -0.00446608 0)
(-0.132838 -0.00587752 0)
(-0.128473 -0.00725183 -2.81912e-22)
(-0.122971 -0.00858114 4.03471e-22)
(-0.116362 -0.00985664 -5.31918e-22)
(-0.108688 -0.0110693 -6.67146e-22)
(-0.0999966 -0.0122098 0)
(-0.0903425 -0.0132683 0)
(-0.0797887 -0.0142353 1.11182e-21)
(-0.0684044 -0.0151009 1.27228e-21)
(-0.0562645 -0.0158532 0)
(-0.0434484 -0.0164784 0)
(-0.0300361 -0.0169641 1.78602e-21)
(-0.0161013 -0.0173029 0)
(-0.00170843 -0.0174995 0)
(0.0130737 -0.0175768 -2.13816e-21)
(0.0281637 -0.017557 0)
(0.0434762 -0.0174512 -2.27229e-21)
(0.0589317 -0.0172682 -4.65272e-21)
(0.0744553 -0.0170159 0)
(0.0899765 -0.0167017 0)
(0.105429 -0.0163328 0)
(0.12075 -0.0159161 0)
(0.135885 -0.0154584 0)
(0.150779 -0.0149665 -4.99985e-21)
(0.165387 -0.0144466 -5.0173e-21)
(0.179667 -0.0139047 -5.02596e-21)
(0.193582 -0.0133467 0)
(0.207102 -0.0127779 5.02062e-21)
(0.2202 -0.0122031 0)
(0.232856 -0.0116269 -4.99078e-21)
(0.245052 -0.0110534 -4.96858e-21)
(0.256778 -0.0104861 0)
(0.268024 -0.00992823 0)
(0.278788 -0.0093825 0)
(0.289069 -0.00885122 -4.84596e-21)
(0.298869 -0.0083363 0)
(0.308193 -0.00783926 0)
(0.317051 -0.00736127 0)
(0.32545 -0.00690319 0)
(0.333405 -0.0064656 0)
(0.340926 -0.00604878 0)
(0.348029 -0.00565283 0)
(0.354729 -0.00527764 0)
(0.361042 -0.00492292 4.48831e-21)
(0.366983 -0.00458826 0)
(0.372569 -0.00427313 0)
(0.377818 -0.0039769 -4.36835e-21)
(0.382744 -0.00369888 -4.32942e-21)
(0.387364 -0.00343834 0)
(0.391695 -0.00319449 4.25352e-21)
(0.395752 -0.00296654 -4.21662e-21)
(0.399549 -0.00275369 0)
(0.403102 -0.00255512 4.14506e-21)
(0.406425 -0.00237005 0)
(0.40953 -0.00219769 0)
(0.412431 -0.00203728 -4.0435e-21)
(0.41514 -0.0018881 0)
(0.417669 -0.00174944 3.97962e-21)
(0.420028 -0.00162062 0)
(0.422229 -0.00150101 -3.91873e-21)
(0.424282 -0.00139 -3.88936e-21)
(0.426195 -0.00128701 -3.86069e-21)
(0.427978 -0.00119149 -7.66538e-21)
(0.429639 -0.00110295 7.61068e-21)
(0.431186 -0.00102089 0)
(0.432627 -0.000944849 0)
(0.433968 -0.000874402 0)
(0.435216 -0.000809145 7.40387e-21)
(0.436377 -0.00074871 7.3549e-21)
(0.437457 -0.000692763 -7.30694e-21)
(0.438461 -0.000641006 0)
(0.439395 -0.000593162 7.2139e-21)
(0.440263 -0.000548974 7.16878e-21)
(0.44107 -0.000508187 7.12457e-21)
(0.44182 -0.000470549 0)
(0.442518 -0.000435812 0)
(0.443166 -0.000403719 0)
(0.443769 -0.000373941 6.95621e-21)
(0.444328 -0.00034619 0)
(0.444847 -0.000319585 0)
(0.445326 -0.000291125 -6.83811e-21)
(0.445756 -0.000260539 0)
(0.446145 -0.000232007 0)
(0.446499 -0.000208113 -6.72573e-21)
(0.446823 -0.00018872 0)
(0.44712 -0.000172779 0)
(0.447394 -0.00015937 6.61848e-21)
(0.447648 -0.000147831 6.58371e-21)
(0.447883 -0.0001377 0)
(0.448102 -0.000128672 -6.51545e-21)
(0.448306 -0.00012055 0)
(0.448495 -0.000113205 6.44873e-21)
(0.448673 -0.00010654 0)
(0.448839 -0.000100482 6.38338e-21)
(0.448994 -9.4969e-05 6.35117e-21)
(0.44914 -8.99496e-05 0)
(0.449276 -8.5378e-05 0)
(0.449405 -8.12135e-05 0)
(0.449527 -7.74201e-05 0)
(0.449642 -7.39653e-05 0)
(0.449751 -7.08195e-05 0)
(0.449854 -6.79559e-05 0)
(0.449952 -6.53498e-05 6.10282e-21)
(0.450046 -6.29784e-05 -6.07278e-21)
(0.450135 -6.08207e-05 0)
(0.450221 -5.8858e-05 0)
(0.450303 -5.7074e-05 0)
(0.450382 -5.54543e-05 0)
(0.450458 -5.39865e-05 -1.18506e-20)
(0.450532 -5.26592e-05 0)
(0.450603 -5.14609e-05 1.17348e-20)
(0.450673 -5.038e-05 -1.16773e-20)
(0.45074 -4.94037e-05 0)
(0.450806 -4.85183e-05 0)
(0.45087 -4.77091e-05 0)
(0.450933 -4.69606e-05 1.14498e-20)
(0.450994 -4.62577e-05 1.13934e-20)
(0.451055 -4.55859e-05 0)
(0.451114 -4.49324e-05 1.12813e-20)
(0.451172 -4.42864e-05 1.12256e-20)
(0.451229 -4.36399e-05 -1.117e-20)
(0.451285 -4.29874e-05 0)
(0.45134 -4.23257e-05 0)
(0.451393 -4.16528e-05 -1.10044e-20)
(0.451446 -4.09671e-05 0)
(0.451497 -4.02664e-05 0)
(0.451547 -3.9548e-05 0)
(0.451595 -3.8808e-05 0)
(0.451642 -3.80402e-05 1.07326e-20)
(0.451688 -3.72354e-05 1.0679e-20)
(0.451731 -3.63814e-05 0)
(0.451773 -3.54621e-05 1.05723e-20)
(0.451813 -3.44564e-05 0)
(0.45185 -3.33363e-05 0)
(0.451885 -3.20661e-05 1.04142e-20)
(0.451916 -3.05994e-05 0)
(0.451943 -2.88763e-05 1.03101e-20)
(0.451965 -2.68185e-05 0)
(0.451982 -2.43246e-05 0)
(0.451991 -2.12618e-05 1.01566e-20)
(0.451991 -1.74558e-05 0)
(0.451979 -1.26761e-05 1.00564e-20)
(0.451952 -6.61526e-06 0)
(0.451906 1.14116e-06 0)
(0.451834 1.11585e-05 0)
(0.45173 2.42202e-05 -9.86457e-21)
(0.451581 4.14323e-05 0)
(0.451374 6.43918e-05 9.77617e-21)
(0.451088 9.54789e-05 0)
(0.450692 0.000138361 0)
(0.450141 0.00019904 0)
(0.449363 0.000287668 0)
(0.448249 0.000424218 0)
(0.446566 0.000645174 0)
(0.444008 0.00105592 0)
(0.439262 0.00181404 -1.93731e-20)
(0.432348 0.00382901 0)
(0.410014 0.00708454 0)
(-0.00852121 0.0198887 2.81827e-21)
(-0.0153867 0.0261855 -2.17374e-21)
(-0.0235706 0.030058 0)
(-0.0328676 0.032075 1.08361e-21)
(-0.0424571 0.0327101 0)
(-0.0521239 0.032476 4.77756e-22)
(-0.0617444 0.0316806 -8.9518e-22)
(-0.0711727 0.0304835 -8.51286e-22)
(-0.0802666 0.0289683 0)
(-0.0889009 0.0271806 -7.68438e-22)
(-0.0969663 0.0251467 -3.66445e-22)
(-0.104367 0.0228852 0)
(-0.111018 0.0204131 0)
(-0.116846 0.0177484 0)
(-0.12179 0.014912 0)
(-0.125797 0.0119283 -2.26291e-22)
(-0.128829 0.00882518 0)
(-0.130855 0.00563504 3.3717e-22)
(-0.131853 0.00239578 0)
(-0.131823 -0.000851916 0)
(-0.13071 -0.00407443 -9.33592e-23)
(-0.128489 -0.00724757 0)
(-0.125155 -0.0103497 -9.78918e-23)
(-0.120714 -0.0133596 1.38542e-22)
(-0.11518 -0.0162563 -1.97071e-22)
(-0.108581 -0.0190199 2.58148e-22)
(-0.10095 -0.0216321 3.2162e-22)
(-0.0923291 -0.0240763 0)
(-0.082767 -0.0263378 0)
(-0.072318 -0.0284042 -5.24689e-22)
(-0.0610415 -0.0302647 4.75008e-22)
(-0.0490002 -0.0319108 0)
(-0.0362609 -0.0333351 0)
(-0.0228937 -0.0345322 -8.18265e-22)
(-0.00897668 -0.0354973 0)
(0.00540253 -0.0362295 0)
(0.02016 -0.0367399 9.96618e-22)
(0.0352231 -0.0370416 0)
(0.050523 -0.0371476 -9.63405e-22)
(0.0659894 -0.0370708 2.28388e-21)
(0.0815528 -0.0368241 0)
(0.0971461 -0.0364211 0)
(0.112705 -0.0358756 4.79447e-21)
(0.12817 -0.0352019 4.93451e-21)
(0.143485 -0.0344142 5.06327e-21)
(0.158597 -0.0335269 -2.47954e-21)
(0.173459 -0.0325541 2.75063e-21)
(0.188029 -0.0315096 8.17892e-21)
(0.202269 -0.0304068 -5.47093e-21)
(0.216145 -0.0292585 -2.86722e-21)
(0.22963 -0.0280767 0)
(0.242699 -0.0268727 2.9217e-21)
(0.255332 -0.025657 -2.78317e-21)
(0.267516 -0.0244389 0)
(0.279238 -0.023227 0)
(0.290492 -0.022029 0)
(0.301274 -0.0208514 2.9927e-21)
(0.311583 -0.0197001 0)
(0.321422 -0.0185797 -5.89027e-21)
(0.330796 -0.0174943 0)
(0.339711 -0.0164469 -5.90249e-21)
(0.348177 -0.0154401 0)
(0.356206 -0.0144754 5.89928e-21)
(0.363808 -0.0135542 0)
(0.370999 -0.0126768 -5.88366e-21)
(0.377791 -0.0118435 2.90171e-21)
(0.3842 -0.011054 0)
(0.390241 -0.0103076 5.84255e-21)
(0.395929 -0.00960343 2.94019e-21)
(0.401282 -0.00894031 2.92887e-21)
(0.406313 -0.00831694 0)
(0.411039 -0.00773184 2.86076e-21)
(0.415475 -0.00718344 2.89238e-21)
(0.419635 -0.00667011 0)
(0.423536 -0.00619017 -2.86671e-21)
(0.427189 -0.00574193 5.67472e-21)
(0.43061 -0.00532372 0)
(0.433812 -0.00493387 2.82735e-21)
(0.436806 -0.00457075 0)
(0.439605 -0.0042328 -8.37907e-21)
(0.442221 -0.00391847 0)
(0.444664 -0.00362632 8.30409e-21)
(0.446945 -0.00335493 2.76192e-21)
(0.449074 -0.00310297 -2.73152e-21)
(0.45106 -0.00286917 -5.44023e-21)
(0.452912 -0.00265233 5.41746e-21)
(0.454639 -0.0024513 0)
(0.456248 -0.002265 0)
(0.457747 -0.00209242 0)
(0.459144 -0.0019326 -1.60253e-20)
(0.460443 -0.00178466 -5.32506e-21)
(0.461653 -0.00164779 5.30132e-21)
(0.46278 -0.00152127 0)
(0.463827 -0.0014044 5.23859e-21)
(0.464802 -0.00129651 -5.23162e-21)
(0.465708 -0.00119697 -5.20893e-21)
(0.466551 -0.00110515 0)
(0.467335 -0.00102044 0)
(0.468064 -0.000942235 0)
(0.468742 -0.000869871 -5.12088e-21)
(0.469372 -0.000802663 0)
(0.469957 -0.00073933 1.01483e-20)
(0.470504 -0.000677809 1.51649e-20)
(0.471022 -0.000618493 -1.00663e-20)
(0.471507 -0.000564071 0)
(0.471961 -0.000515656 -4.9894e-21)
(0.472382 -0.000472741 0)
(0.472773 -0.000434524 -9.90556e-21)
(0.473136 -0.000400347 4.93058e-21)
(0.473472 -0.000369657 4.91122e-21)
(0.473783 -0.000341988 0)
(0.474072 -0.000316966 1.46263e-20)
(0.474341 -0.000294294 -9.71112e-21)
(0.47459 -0.000273727 -4.83814e-21)
(0.474823 -0.000255054 0)
(0.475039 -0.000238093 -4.79988e-21)
(0.475241 -0.000222682 -1.43398e-20)
(0.47543 -0.000208678 0)
(0.475607 -0.000195951 -9.48358e-21)
(0.475772 -0.000184382 -9.44605e-21)
(0.475928 -0.000173868 -9.40859e-21)
(0.476074 -0.000164313 0)
(0.476211 -0.00015563 0)
(0.476341 -0.000147741 0)
(0.476464 -0.000140573 4.62884e-21)
(0.476581 -0.000134061 4.61193e-21)
(0.476692 -0.000128143 0)
(0.476797 -0.000122767 9.14799e-21)
(0.476897 -0.000117882 9.1109e-21)
(0.476993 -0.000113446 0)
(0.477085 -0.00010942 9.03805e-21)
(0.477174 -0.000105769 1.79994e-20)
(0.477259 -0.00010246 -8.96379e-21)
(0.477341 -9.94629e-05 -8.92433e-21)
(0.477421 -9.67448e-05 0)
(0.477498 -9.42741e-05 0)
(0.477573 -9.20182e-05 0)
(0.477646 -8.99436e-05 -8.77777e-21)
(0.477717 -8.80175e-05 8.73846e-21)
(0.477787 -8.62086e-05 1.74042e-20)
(0.477855 -8.44879e-05 -8.66569e-21)
(0.477922 -8.28303e-05 8.62636e-21)
(0.477987 -8.12143e-05 8.59073e-21)
(0.478052 -7.96231e-05 0)
(0.478115 -7.80429e-05 0)
(0.478177 -7.64625e-05 -8.4763e-21)
(0.478238 -7.48719e-05 0)
(0.478298 -7.32614e-05 0)
(0.478356 -7.16208e-05 1.67288e-20)
(0.478414 -6.9938e-05 0)
(0.478469 -6.8198e-05 8.28839e-21)
(0.478524 -6.63807e-05 -8.25236e-21)
(0.478577 -6.44601e-05 0)
(0.478628 -6.24022e-05 8.17575e-21)
(0.478678 -6.0163e-05 0)
(0.478725 -5.76847e-05 0)
(0.47877 -5.4893e-05 -8.06479e-21)
(0.478813 -5.16918e-05 1.60535e-20)
(0.478852 -4.79567e-05 -7.99015e-21)
(0.478887 -4.35263e-05 0)
(0.478917 -3.81902e-05 0)
(0.478941 -3.16741e-05 7.87792e-21)
(0.478957 -2.36177e-05 0)
(0.478964 -1.35447e-05 7.805e-21)
(0.478959 -8.20247e-07 0)
(0.478938 1.541e-05 0)
(0.478897 3.63097e-05 0)
(0.47883 6.34877e-05 7.66489e-21)
(0.478728 9.92092e-05 0)
(0.47858 0.000146735 -7.59939e-21)
(0.47837 0.0002109 0)
(0.478076 0.00029912 0)
(0.477666 0.000423402 1.50331e-20)
(0.477093 0.000603981 -1.49928e-20)
(0.476289 0.000879311 0)
(0.475126 0.00132116 0)
(0.473483 0.00211403 0)
(0.470807 0.00357167 4.5187e-20)
(0.467622 0.00706651 0)
(0.460586 0.0134397 -3.09927e-20)
(-0.00851374 0.0410275 7.95832e-24)
(-0.016387 0.0457881 2.51321e-21)
(-0.024869 0.0488193 0)
(-0.0340376 0.05058 -1.69976e-21)
(-0.0432581 0.0511665 0)
(-0.0523939 0.0507871 0)
(-0.0614134 0.049626 -2.88945e-23)
(-0.0702374 0.0478155 6.06403e-22)
(-0.0787575 0.0454496 5.98709e-22)
(-0.086863 0.0425981 5.39455e-22)
(-0.0944502 0.039316 0)
(-0.101425 0.0356504 0)
(-0.107702 0.031645 -4.67747e-22)
(-0.113205 0.0273433 -8.65709e-22)
(-0.117869 0.0227898 7.91742e-22)
(-0.121637 0.0180304 0)
(-0.124458 0.0131129 6.27921e-22)
(-0.126291 0.00808559 -2.31117e-22)
(-0.127101 0.00299533 0)
(-0.126857 -0.00211493 3.32222e-22)
(-0.125541 -0.00720406 6.35649e-23)
(-0.12314 -0.0122287 -9.87427e-23)
(-0.119654 -0.0171465 6.63487e-23)
(-0.11509 -0.0219178 0)
(-0.109466 -0.0265058 -3.04085e-22)
(-0.102807 -0.0308772 -4.51765e-22)
(-0.095146 -0.0350021 0)
(-0.0865239 -0.0388544 -7.65374e-22)
(-0.076988 -0.0424118 0)
(-0.0665911 -0.0456562 -1.10058e-21)
(-0.0553912 -0.0485736 -7.12324e-22)
(-0.0434499 -0.0511544 0)
(-0.0308323 -0.0533935 0)
(-0.0176072 -0.0552903 0)
(-0.00384711 -0.0568478 0)
(0.0103714 -0.0580709 0)
(0.0249731 -0.0589667 0)
(0.0398861 -0.0595443 -2.45028e-21)
(0.0550402 -0.0598169 3.97321e-21)
(0.0703661 -0.0598004 0)
(0.0857965 -0.0595126 0)
(0.101267 -0.0589728 0)
(0.116715 -0.0582016 -1.48036e-22)
(0.132083 -0.0572202 -3.37988e-21)
(0.147316 -0.0560502 -6.83003e-21)
(0.162364 -0.0547136 7.03132e-21)
(0.17718 -0.0532322 3.54423e-21)
(0.191722 -0.0516276 -3.76048e-21)
(0.205953 -0.0499205 1.21362e-22)
(0.219839 -0.0481312 -3.79533e-21)
(0.233352 -0.0462789 0)
(0.246467 -0.0443816 -3.93219e-21)
(0.259163 -0.0424562 1.01305e-22)
(0.271425 -0.0405182 0)
(0.28324 -0.0385818 0)
(0.2946 -0.0366596 4.1392e-21)
(0.305499 -0.0347629 0)
(0.315935 -0.0329016 0)
(0.32591 -0.031084 -4.17028e-21)
(0.335427 -0.0293171 -8.53928e-21)
(0.344491 -0.0276068 4.35692e-21)
(0.353111 -0.0259576 0)
(0.361295 -0.0243729 -4.38409e-21)
(0.369056 -0.0228552 0)
(0.376406 -0.021406 -4.29951e-21)
(0.383357 -0.0200261 -4.40406e-21)
(0.389924 -0.0187155 8.72432e-21)
(0.396122 -0.0174737 4.32403e-21)
(0.401965 -0.0162994 0)
(0.407468 -0.0151913 -8.73068e-21)
(0.412647 -0.0141475 0)
(0.417517 -0.0131659 -1.31089e-20)
(0.422092 -0.0122441 -8.70849e-21)
(0.426388 -0.0113798 -8.69619e-21)
(0.430419 -0.0105703 8.6819e-21)
(0.434199 -0.00981311 -1.30221e-20)
(0.43774 -0.00910552 0)
(0.441058 -0.00844494 0)
(0.444163 -0.00782881 8.60901e-21)
(0.447068 -0.0072546 1.28991e-20)
(0.449784 -0.00671987 0)
(0.452324 -0.00622225 -4.28644e-21)
(0.454696 -0.00575947 0)
(0.456911 -0.00532936 1.27555e-20)
(0.458979 -0.00492984 2.40582e-23)
(0.460908 -0.00455893 -2.2303e-23)
(0.462708 -0.00421476 -8.42e-21)
(0.464386 -0.00389556 0)
(0.46595 -0.00359965 8.36833e-21)
(0.467407 -0.00332546 1.64399e-23)
(0.468764 -0.00307155 0)
(0.470027 -0.00283654 0)
(0.471203 -0.00261917 0)
(0.472298 -0.00241825 -8.24761e-21)
(0.473317 -0.00223263 0)
(0.474264 -0.00206124 0)
(0.475145 -0.00190303 0)
(0.475965 -0.001757 0)
(0.476726 -0.00162221 0)
(0.477435 -0.00149773 -8.07467e-21)
(0.478093 -0.00138266 0)
(0.478705 -0.00127616 -8.02803e-21)
(0.479275 -0.00117734 -8.00111e-21)
(0.479807 -0.00108513 7.97419e-21)
(0.480304 -0.000999079 0)
(0.480768 -0.000919525 7.9199e-21)
(0.481201 -0.000846594 0)
(0.481604 -0.000780068 7.86605e-21)
(0.481978 -0.000719544 -7.83924e-21)
(0.482326 -0.000664538 -2.34305e-20)
(0.48265 -0.00061455 0)
(0.48295 -0.00056911 -2.32714e-20)
(0.483229 -0.000527794 -7.72697e-21)
(0.483489 -0.00049022 0)
(0.483731 -0.000456047 -1.53536e-20)
(0.483956 -0.000424968 -1.53005e-20)
(0.484166 -0.000396703 2.28732e-20)
(0.484362 -0.000370999 0)
(0.484545 -0.000347626 7.57219e-21)
(0.484717 -0.000326376 7.54535e-21)
(0.484878 -0.000307058 2.25523e-20)
(0.485029 -0.000289498 0)
(0.485172 -0.000273539 0)
(0.485306 -0.000259038 0)
(0.485432 -0.000245861 7.40796e-21)
(0.485552 -0.000233888 0)
(0.485666 -0.00022301 0)
(0.485774 -0.000213126 -7.32846e-21)
(0.485877 -0.000204146 -7.30102e-21)
(0.485975 -0.000195989 0)
(0.486069 -0.000188584 0)
(0.486159 -0.000181863 -1.44363e-20)
(0.486246 -0.000175768 0)
(0.48633 -0.000170241 1.43249e-20)
(0.486411 -0.000165226 1.42674e-20)
(0.486489 -0.00016067 0)
(0.486565 -0.000156518 0)
(0.486639 -0.000152717 -1.40981e-20)
(0.486711 -0.000149212 -1.19024e-24)
(0.486781 -0.000145953 -1.15599e-24)
(0.48685 -0.000142892 0)
(0.486917 -0.000139984 -2.77387e-20)
(0.486983 -0.000137191 0)
(0.487048 -0.00013448 0)
(0.487112 -0.000131822 0)
(0.487174 -0.000129193 1.3637e-20)
(0.487236 -0.00012657 0)
(0.487296 -0.000123935 -2.7037e-20)
(0.487355 -0.000121266 -1.34605e-20)
(0.487413 -0.000118541 0)
(0.48747 -0.000115736 -1.33421e-20)
(0.487526 -0.000112818 0)
(0.48758 -0.000109746 0)
(0.487632 -0.000106469 -3.94894e-20)
(0.487683 -0.000102918 2.62064e-20)
(0.487732 -9.90065e-05 0)
(0.487778 -9.46209e-05 2.59676e-20)
(0.487822 -8.96153e-05 -1.29248e-20)
(0.487862 -8.38009e-05 0)
(0.487899 -7.69332e-05 0)
(0.48793 -6.8694e-05 0)
(0.487956 -5.8668e-05 -3.80579e-20)
(0.487974 -4.63109e-05 0)
(0.487983 -3.09041e-05 -1.25684e-20)
(0.487979 -1.1492e-05 0)
(0.48796 1.32079e-05 0)
(0.48792 4.49368e-05 0)
(0.487853 8.609e-05 0)
(0.487752 0.000140019 0)
(0.487604 0.000211512 0)
(0.487395 0.000307586 -2.43661e-20)
(0.487101 0.000438857 0)
(0.486692 0.000622107 -1.20965e-20)
(0.486122 0.000884954 3.61897e-20)
(0.485327 0.001277 0)
(0.484198 0.00188814 0)
(0.482624 0.0029207 -2.41004e-20)
(0.480264 0.00473372 -2.42328e-20)
(0.477475 0.00849971 2.44418e-20)
(0.473446 0.0155502 2.49281e-20)
(-0.0077725 0.0629752 -5.23091e-21)
(-0.0159757 0.0667493 -3.63369e-21)