/*--------------------------------*- C++ -*----------------------------------*\
  =========                 |
  \\      /  F ield         | OpenFOAM: The Open Source CFD Toolbox
   \\    /   O peration     | Website:  https://openfoam.org
    \\  /    A nd           | Version:  6
     \\/     M anipulation  |
\*---------------------------------------------------------------------------*/
FoamFile
{
    version     2.0;
    format      ascii;
    class       volScalarField;
    location    "0.09";
    object      epsilon;
}
// * * * * * * * * * * * * * * * * * * * * * * * * * * * * * * * * * * * * * //

dimensions      [0 2 -3 0 0 0 0];

internalField   nonuniform List<scalar> 
3081
(
2.05669
2.01889
1.98382
1.95139
1.92148
1.89397
1.86874
1.84566
1.82461
1.80544
1.78804
1.77228
1.75803
1.74516
1.73352
1.72301
1.7138
1.7057
1.69858
1.69232
1.68682
1.68201
1.67782
1.67418
1.67103
1.66833
1.66603
1.66409
1.66248
1.66115
1.66009
1.65927
1.65867
1.65826
1.65803
1.65795
1.65803
1.65824
1.65857
1.65902
1.65956
1.6602
1.66093
1.66173
1.66261
1.66356
1.66457
1.66564
1.66677
1.66794
1.66916
1.67043
1.67174
1.67308
1.67447
1.67588
1.67733
0.951688
0.935825
0.921118
0.907521
0.894983
0.883452
0.872872
0.863189
0.854346
0.84629
0.838965
0.832319
0.826301
0.820861
0.815951
0.811542
0.807685
0.804316
0.801333
0.79869
0.796349
0.794279
0.792451
0.790843
0.78943
0.788194
0.787117
0.786182
0.785376
0.784685
0.784098
0.783606
0.783198
0.782867
0.782605
0.782407
0.782267
0.782179
0.78214
0.782143
0.782188
0.782269
0.782383
0.782529
0.782704
0.782905
0.783131
0.78338
0.78365
0.783939
0.784247
0.784573
0.784914
0.78527
0.785639
0.786022
0.786417
0.781989
0.769564
0.758056
0.747424
0.737627
0.728621
0.720362
0.712806
0.705907
0.699622
0.693906
0.688718
0.684017
0.679764
0.675924
0.672466
0.669371
0.666619
0.664183
0.662016
0.66009
0.658379
0.65686
0.655511
0.654317
0.653259
0.652325
0.6515
0.650775
0.650138
0.64958
0.649094
0.648672
0.648308
0.647996
0.647731
0.647509
0.647326
0.647178
0.647062
0.646975
0.646914
0.646878
0.646863
0.64687
0.646894
0.646936
0.646994
0.647066
0.647152
0.64725
0.647359
0.647479
0.647609
0.647748
0.647896
0.648051
0.736835
0.725372
0.714759
0.704959
0.695932
0.687639
0.680037
0.673085
0.666741
0.660963
0.655711
0.650945
0.646627
0.642721
0.639193
0.636012
0.633152
0.630589
0.6283
0.62626
0.62444
0.622817
0.621371
0.620081
0.618931
0.617906
0.616993
0.61618
0.615456
0.614812
0.61424
0.613731
0.613279
0.612879
0.612525
0.612212
0.611937
0.611695
0.611484
0.6113
0.611142
0.611005
0.61089
0.610793
0.610713
0.610648
0.610597
0.61056
0.610534
0.610518
0.610513
0.610517
0.610529
0.610549
0.610575
0.610608
0.610647
0.727694
0.716477
0.706091
0.6965
0.687667
0.679553
0.672117
0.665319
0.659118
0.653472
0.648343
0.64369
0.639477
0.635667
0.632226
0.629124
0.626331
0.62382
0.621569
0.619555
0.617755
0.616145
0.614706
0.613419
0.612268
0.611237
0.610314
0.609487
0.608746
0.608081
0.607484
0.606948
0.606466
0.606032
0.605642
0.605291
0.604975
0.60469
0.604434
0.604202
0.603993
0.603805
0.603636
0.603483
0.603345
0.603221
0.603109
0.603009
0.602919
0.602838
0.602766
0.602701
0.602643
0.602591
0.602545
0.602505
0.602469
0.732694
0.721448
0.711036
0.701416
0.692554
0.684412
0.676952
0.670131
0.663911
0.65825
0.653108
0.648447
0.644227
0.640414
0.636971
0.633868
0.631073
0.62856
0.626302
0.624277
0.622464
0.620841
0.619387
0.618083
0.616914
0.615865
0.614923
0.614075
0.613312
0.612623
0.612002
0.61144
0.610931
0.610469
0.610049
0.609667
0.609319
0.609
0.608708
0.608441
0.608195
0.607968
0.607759
0.607565
0.607385
0.607218
0.607062
0.606916
0.60678
0.606652
0.606531
0.606417
0.606308
0.606206
0.606108
0.606014
0.605926
0.732432
0.721891
0.712149
0.703171
0.69492
0.687357
0.680443
0.674138
0.6684
0.663191
0.658469
0.654198
0.650339
0.646858
0.64372
0.640896
0.638357
0.636074
0.634025
0.632188
0.630541
0.629065
0.62774
0.62655
0.62548
0.624517
0.623649
0.622865
0.622155
0.621512
0.620929
0.620397
0.619912
0.619469
0.619063
0.618689
0.618345
0.618026
0.617731
0.617457
0.617201
0.616962
0.616738
0.616527
0.616327
0.616138
0.615959
0.615788
0.615625
0.615468
0.615317
0.615171
0.615031
0.614894
0.614762
0.614635
0.745839
0.735148
0.725266
0.716149
0.707766
0.70008
0.693051
0.686641
0.680808
0.675513
0.670716
0.666377
0.662459
0.658927
0.655745
0.652883
0.65031
0.647998
0.645923
0.64406
0.642391
0.640893
0.639547
0.638338
0.63725
0.63627
0.635384
0.634583
0.633857
0.633198
0.632597
0.632049
0.631547
0.631086
0.630662
0.63027
0.629906
0.629569
0.629254
0.628959
0.628682
0.628421
0.628174
0.62794
0.627717
0.627503
0.627299
0.627103
0.626913
0.62673
0.626552
0.626379
0.62621
0.626045
0.625884
0.625729
0.749026
0.739006
0.729761
0.721255
0.713453
0.706316
0.699805
0.69388
0.688502
0.68363
0.679226
0.675251
0.671669
0.668445
0.665547
0.662943
0.660605
0.658506
0.656623
0.654934
0.653419
0.652059
0.650836
0.649735
0.648742
0.647845
0.647032
0.646295
0.645625
0.645013
0.644454
0.643941
0.643468
0.643032
0.642627
0.642251
0.6419
0.641572
0.641263
0.640971
0.640695
0.640433
0.640182
0.639943
0.639713
0.639491
0.639276
0.639068
0.638866
0.638669
0.638476
0.638287
0.638101
0.637919
0.637745
0.762497
0.75239
0.743052
0.734452
0.726558
0.719333
0.71274
0.70674
0.701293
0.69636
0.691902
0.68788
0.684258
0.681
0.678073
0.675445
0.673088
0.670973
0.669077
0.667377
0.665852
0.664483
0.663252
0.662144
0.661145
0.660243
0.659425
0.658683
0.658008
0.657391
0.656826
0.656308
0.655829
0.655387
0.654976
0.654593
0.654234
0.653898
0.653581
0.65328
0.652995
0.652723
0.652463
0.652213
0.651971
0.651738
0.651512
0.651292
0.651077
0.650867
0.65066
0.650457
0.650258
0.650063
0.649876
0.775033
0.764879
0.755488
0.74683
0.738877
0.731594
0.724945
0.718892
0.713398
0.708422
0.703927
0.699873
0.696224
0.692944
0.69
0.687359
0.684992
0.682871
0.68097
0.679267
0.67774
0.676371
0.67514
0.674032
0.673034
0.672133
0.671316
0.670575
0.669901
0.669285
0.66872
0.668201
0.667723
0.667279
0.666867
0.666482
0.666122
0.665783
0.665462
0.665158
0.664869
0.664593
0.664327
0.664072
0.663825
0.663586
0.663353
0.663126
0.662904
0.662686
0.662472
0.662261
0.662053
0.66185
0.661658
0.786327
0.776173
0.766771
0.758096
0.750119
0.742811
0.736136
0.730058
0.72454
0.719544
0.715031
0.710963
0.707304
0.704017
0.701069
0.698427
0.696062
0.693944
0.692049
0.690352
0.688832
0.687469
0.686245
0.685146
0.684155
0.683261
0.682452
0.681718
0.68105
0.68044
0.679881
0.679367
0.678893
0.678454
0.678045
0.677664
0.677306
0.676968
0.67665
0.676347
0.676058
0.675782
0.675516
0.67526
0.675012
0.674772
0.674537
0.674308
0.674083
0.673863
0.673645
0.673431
0.673219
0.673012
0.672812
0.672633
0.796228
0.78611
0.776745
0.768094
0.760133
0.752834
0.746165
0.740092
0.734577
0.729583
0.725074
0.721011
0.717358
0.71408
0.711142
0.708512
0.70616
0.704056
0.702176
0.700494
0.698989
0.697641
0.696433
0.695348
0.694371
0.693491
0.692695
0.691973
0.691317
0.690719
0.69017
0.689667
0.689202
0.688771
0.68837
0.687996
0.687644
0.687313
0.687
0.686702
0.686418
0.686146
0.685884
0.685631
0.685386
0.685148
0.684915
0.684688
0.684465
0.684245
0.684029
0.683815
0.683604
0.683396
0.683196
0.683007
0.794642
0.785345
0.776758
0.768853
0.7616
0.75497
0.74893
0.743444
0.738477
0.733993
0.729954
0.726325
0.723071
0.720157
0.717552
0.715224
0.713146
0.71129
0.709632
0.708151
0.706826
0.705639
0.704575
0.703619
0.702758
0.701981
0.701277
0.700638
0.700055
0.699522
0.699032
0.69858
0.698162
0.697773
0.69741
0.697069
0.696747
0.696443
0.696154
0.695877
0.695612
0.695357
0.695111
0.694872
0.69464
0.694413
0.69419
0.693972
0.693757
0.693545
0.693335
0.693128
0.692924
0.692726
0.692538
0.801698
0.792547
0.784078
0.776271
0.769101
0.762542
0.756563
0.751132
0.746215
0.741776
0.737781
0.734193
0.730978
0.728103
0.725534
0.723242
0.721199
0.719377
0.717752
0.716301
0.715006
0.713848
0.712811
0.711881
0.711045
0.710291
0.70961
0.708992
0.708429
0.707915
0.707443
0.707008
0.706606
0.706232
0.705882
0.705555
0.705246
0.704954
0.704676
0.70441
0.704156
0.70391
0.703673
0.703443
0.703219
0.703001
0.702786
0.702576
0.702368
0.702163
0.70196
0.70176
0.701562
0.70137
0.701189
0.807488
0.798524
0.790215
0.782544
0.77549
0.769032
0.763143
0.757792
0.752947
0.748575
0.744642
0.741112
0.737951
0.735127
0.732608
0.730362
0.728363
0.726583
0.724998
0.723585
0.722325
0.721201
0.720196
0.719296
0.718489
0.717762
0.717106
0.716511
0.715971
0.715478
0.715025
0.714609
0.714224
0.713867
0.713533
0.71322
0.712924
0.712645
0.712379
0.712125
0.711882
0.711647
0.71142
0.711199
0.710984
0.710774
0.710568
0.710366
0.710166
0.709968
0.709773
0.70958
0.70939
0.709205
0.709031
0.811844
0.803088
0.794971
0.787463
0.780552
0.774221
0.768445
0.763197
0.758446
0.75416
0.750306
0.74685
0.743758
0.740999
0.73854
0.736352
0.734406
0.732677
0.731138
0.72977
0.728553
0.727469
0.726502
0.725638
0.724865
0.72417
0.723543
0.722977
0.722464
0.721996
0.721568
0.721174
0.72081
0.720473
0.720158
0.719863
0.719585
0.719323
0.719073
0.718834
0.718605
0.718384
0.718171
0.717963
0.717761
0.717564
0.71737
0.717179
0.716991
0.716805
0.716621
0.716439
0.71626
0.716087
0.715927
0.806296
0.798329
0.790998
0.784246
0.778057
0.772411
0.76728
0.762637
0.75845
0.754687
0.751316
0.748303
0.745618
0.743228
0.741105
0.739221
0.737547
0.736063
0.734746
0.733578
0.732539
0.731616
0.730793
0.730058
0.7294
0.728808
0.728275
0.727793
0.727355
0.726955
0.726589
0.726251
0.725938
0.725648
0.725376
0.72512
0.724879
0.724649
0.724431
0.724221
0.72402
0.723825
0.723636
0.723453
0.723273
0.723097
0.722924
0.722753
0.722585
0.722418
0.722254
0.722093
0.721938
0.721798
0.800577
0.79342
0.786838
0.780805
0.7753
0.770298
0.765772
0.761693
0.758029
0.75475
0.751822
0.749216
0.746901
0.744848
0.743029
0.741417
0.73999
0.738728
0.73761
0.736621
0.735743
0.734964
0.73427
0.733651
0.733097
0.732599
0.732151
0.731745
0.731375
0.731038
0.730729
0.730443
0.730179
0.729932
0.729701
0.729483
0.729277
0.729081
0.728894
0.728715
0.728542
0.728374
0.728211
0.728053
0.727897
0.727745
0.727595
0.727447
0.727301
0.727158
0.727018
0.726886
0.72677
0.801857
0.79493
0.788539
0.782675
0.77732
0.772453
0.76805
0.764083
0.760524
0.75734
0.754502
0.751979
0.749741
0.74776
0.746008
0.74446
0.743093
0.741886
0.740822
0.739882
0.739051
0.738316
0.737664
0.737085
0.736568
0.736107
0.735692
0.735319
0.734981
0.734673
0.734393
0.734135
0.733897
0.733676
0.73347
0.733277
0.733095
0.732923
0.732759
0.732602
0.732451
0.732306
0.732165
0.732029
0.731895
0.731764
0.731636
0.73151
0.731386
0.731265
0.731148
0.73104
0.730951
0.802433
0.795726
0.789528
0.783834
0.778631
0.773902
0.769625
0.765774
0.762321
0.759236
0.756488
0.754049
0.75189
0.749982
0.748298
0.746815
0.745507
0.744357
0.743345
0.742455
0.741671
0.740979
0.740369
0.739829
0.73935
0.738923
0.738542
0.738201
0.737893
0.737615
0.737362
0.737132
0.73692
0.736724
0.736543
0.736374
0.736216
0.736066
0.735925
0.73579
0.735662
0.735539
0.73542
0.735304
0.735192
0.735083
0.734977
0.734872
0.73477
0.734671
0.734576
0.734492
0.734429
0.802446
0.795947
0.789936
0.78441
0.779359
0.774769
0.770618
0.766883
0.763537
0.76055
0.757895
0.75554
0.753459
0.751624
0.750009
0.748588
0.747341
0.746246
0.745286
0.744444
0.743706
0.743057
0.742487
0.741985
0.741541
0.741149
0.7408
0.740489
0.740211
0.739961
0.739735
0.73953
0.739343
0.739171
0.739013
0.738867
0.738731
0.738603
0.738483
0.73837
0.738262
0.738159
0.73806
0.737966
0.737874
0.737785
0.737699
0.737615
0.737533
0.737454
0.737381
0.737319
0.737281
0.801993
0.795692
0.789862
0.784499
0.779598
0.775144
0.77112
0.767501
0.764261
0.761373
0.758808
0.756538
0.754535
0.752772
0.751223
0.749866
0.748677
0.747636
0.746727
0.745932
0.745238
0.74463
0.744099
0.743633
0.743223
0.742863
0.742545
0.742262
0.742011
0.741787
0.741586
0.741405
0.741241
0.741092
0.740955
0.74083
0.740714
0.740606
0.740505
0.740411
0.740322
0.740238
0.740158
0.740081
0.740008
0.739938
0.739869
0.739804
0.73974
0.73968
0.739626
0.739584
0.739569
0.801142
0.795033
0.789376
0.784173
0.779419
0.7751
0.7712
0.767696
0.764562
0.761771
0.759296
0.757109
0.755183
0.75349
0.752007
0.750711
0.749579
0.748591
0.747731
0.746982
0.746329
0.745761
0.745267
0.744835
0.744458
0.744127
0.743837
0.743582
0.743356
0.743156
0.742978
0.742818
0.742675
0.742546
0.742428
0.742321
0.742223
0.742133
0.74205
0.741972
0.7419
0.741832
0.741768
0.741708
0.74165
0.741596
0.741543
0.741493
0.741446
0.741402
0.741364
0.74134
0.741343
0.799945
0.794021
0.788533
0.783485
0.778874
0.774688
0.770911
0.76752
0.764491
0.761797
0.759411
0.757305
0.755454
0.753831
0.752412
0.751175
0.750097
0.749161
0.748348
0.747642
0.74703
0.7465
0.74604
0.74564
0.745293
0.744991
0.744727
0.744496
0.744293
0.744115
0.743957
0.743817
0.743692
0.743581
0.74348
0.743389
0.743307
0.743232
0.743163
0.7431
0.743042
0.742988
0.742937
0.74289
0.742846
0.742804
0.742765
0.742728
0.742693
0.742662
0.742638
0.742627
0.742645
0.798441
0.792694
0.787371
0.782476
0.778006
0.773951
0.770295
0.767016
0.764089
0.76149
0.759191
0.757166
0.755388
0.753833
0.752477
0.751297
0.750272
0.749385
0.748617
0.747953
0.74738
0.746885
0.746457
0.746088
0.745769
0.745492
0.745252
0.745044
0.744862
0.744703
0.744563
0.74444
0.744331
0.744235
0.744149
0.744072
0.744002
0.74394
0.743883
0.743831
0.743784
0.743741
0.743701
0.743664
0.74363
0.743598
0.743569
0.743541
0.743516
0.743495
0.74348
0.743479
0.743507
0.796659
0.791085
0.785924
0.781179
0.776848
0.772922
0.769385
0.766216
0.763391
0.760884
0.758671
0.756724
0.755019
0.75353
0.752234
0.751109
0.750136
0.749295
0.74857
0.747946
0.747409
0.746948
0.746551
0.74621
0.745916
0.745663
0.745445
0.745257
0.745093
0.744951
0.744827
0.744719
0.744623
0.744539
0.744465
0.744399
0.74434
0.744287
0.744239
0.744196
0.744157
0.744121
0.744089
0.744059
0.744032
0.744007
0.743984
0.743962
0.743944
0.743928
0.743919
0.743923
0.743955
0.794509
0.789114
0.784119
0.77953
0.775345
0.771553
0.768139
0.765084
0.762363
0.759954
0.757829
0.755963
0.754332
0.752911
0.751678
0.75061
0.749689
0.748896
0.748215
0.74763
0.74713
0.746701
0.746334
0.746021
0.745752
0.745522
0.745325
0.745155
0.745009
0.744882
0.744772
0.744677
0.744593
0.744519
0.744454
0.744397
0.744345
0.7443
0.744258
0.744221
0.744187
0.744156
0.744128
0.744102
0.744079
0.744057
0.744037
0.744019
0.744002
0.743989
0.743982
0.743986
0.744016
0.791902
0.786696
0.781879
0.777456
0.773423
0.769773
0.766491
0.763556
0.760946
0.758638
0.756606
0.754826
0.753272
0.751922
0.750753
0.749745
0.748877
0.748132
0.747494
0.746949
0.746484
0.746088
0.74575
0.745462
0.745217
0.745007
0.744828
0.744674
0.744542
0.744428
0.744328
0.744242
0.744166
0.744098
0.744039
0.743985
0.743937
0.743893
0.743854
0.743817
0.743783
0.743752
0.743722
0.743695
0.743669
0.743644
0.743621
0.743599
0.743579
0.743561
0.743548
0.743546
0.743567
0.788899
0.783887
0.779252
0.774999
0.771126
0.767622
0.764475
0.761664
0.759169
0.756965
0.755028
0.753334
0.75186
0.750581
0.749476
0.748526
0.74771
0.747013
0.746417
0.74591
0.745479
0.745112
0.7448
0.744535
0.744309
0.744117
0.743952
0.74381
0.743688
0.743581
0.743488
0.743406
0.743333
0.743267
0.743208
0.743154
0.743103
0.743057
0.743013
0.742971
0.742932
0.742894
0.742857
0.742822
0.742787
0.742754
0.742721
0.742689
0.742658
0.742629
0.742604
0.742589
0.742593
0.785492
0.780676
0.776228
0.772151
0.76844
0.765088
0.762079
0.759396
0.757017
0.75492
0.75308
0.751474
0.750079
0.748872
0.747832
0.746939
0.746175
0.745523
0.744968
0.744496
0.744096
0.743756
0.743467
0.743221
0.743012
0.742833
0.742678
0.742545
0.742428
0.742325
0.742234
0.742152
0.742077
0.742008
0.741943
0.741883
0.741825
0.74177
0.741717
0.741665
0.741613
0.741563
0.741513
0.741464
0.741415
0.741366
0.741317
0.741268
0.74122
0.741173
0.741129
0.741093
0.741075
0.781668
0.777053
0.772796
0.768897
0.765353
0.762155
0.759289
0.756736
0.754476
0.752487
0.750745
0.749228
0.747913
0.746777
0.745801
0.744965
0.744251
0.743643
0.743126
0.742687
0.742315
0.741999
0.74173
0.7415
0.741303
0.741133
0.740986
0.740856
0.74074
0.740637
0.740542
0.740455
0.740373
0.740296
0.740221
0.740149
0.740079
0.740009
0.739941
0.739872
0.739804
0.739735
0.739666
0.739596
0.739526
0.739455
0.739383
0.739311
0.739238
0.739166
0.739096
0.739033
0.738986
0.777413
0.773001
0.768937
0.76522
0.761846
0.758805
0.756083
0.753663
0.751524
0.749645
0.748002
0.746574
0.745339
0.744274
0.74336
0.742579
0.741913
0.741347
0.740866
0.740457
0.74011
0.739814
0.739561
0.739344
0.739156
0.738991
0.738845
0.738715
0.738596
0.738486
0.738384
0.738286
0.738192
0.738101
0.738011
0.737922
0.737833
0.737744
0.737654
0.737563
0.737471
0.737377
0.737283
0.737186
0.737088
0.736989
0.736888
0.736785
0.736682
0.736577
0.736474
0.736377
0.736293
0.772705
0.768498
0.76463
0.761097
0.757895
0.755014
0.752439
0.750153
0.748136
0.746367
0.744823
0.743484
0.742328
0.741333
0.740481
0.739753
0.739133
0.738605
0.738157
0.737775
0.737449
0.73717
0.736929
0.73672
0.736535
0.736371
0.736223
0.736087
0.735959
0.735839
0.735723
0.73561
0.735498
0.735388
0.735277
0.735164
0.735051
0.734936
0.734819
0.734699
0.734577
0.734453
0.734326
0.734196
0.734064
0.733929
0.733792
0.733652
0.73351
0.733366
0.733223
0.733083
0.732956
0.767516
0.763517
0.759845
0.756499
0.753471
0.75075
0.748323
0.746172
0.744278
0.742619
0.741175
0.739924
0.738845
0.737918
0.737125
0.736448
0.735871
0.73538
0.73496
0.734602
0.734293
0.734027
0.733794
0.733587
0.733402
0.733234
0.733078
0.73293
0.73279
0.732653
0.732518
0.732383
0.732249
0.732112
0.731974
0.731833
0.731689
0.731542
0.731391
0.731236
0.731078
0.730916
0.73075
0.73058
0.730407
0.73023
0.730049
0.729865
0.729677
0.729487
0.729296
0.729107
0.728927
0.761813
0.758022
0.75455
0.75139
0.748537
0.745978
0.743699
0.741684
0.739912
0.738363
0.737017
0.735853
0.73485
0.733989
0.733252
0.732623
0.732085
0.731626
0.731232
0.730892
0.730597
0.730338
0.730108
0.7299
0.729709
0.729531
0.729361
0.729198
0.729037
0.728878
0.728719
0.728557
0.728393
0.728226
0.728054
0.727878
0.727697
0.727511
0.72732
0.727124
0.726922
0.726716
0.726504
0.726288
0.726066
0.72584
0.725608
0.725373
0.725132
0.724888
0.724641
0.724395
0.724156
0.755554
0.751973
0.748699
0.745727
0.743049
0.740652
0.738522
0.736641
0.734991
0.733551
0.732301
0.731221
0.730291
0.729493
0.72881
0.728225
0.727723
0.727292
0.726918
0.726593
0.726306
0.72605
0.725817
0.725602
0.7254
0.725206
0.725018
0.724832
0.724646
0.724459
0.724269
0.724074
0.723875
0.723669
0.723458
0.72324
0.723016
0.722785
0.722548
0.722303
0.722052
0.721795
0.721531
0.72126
0.720984
0.720701
0.720412
0.720117
0.719817
0.719511
0.719202
0.718891
0.718585
0.748689
0.745316
0.742242
0.739457
0.736954
0.734718
0.732736
0.730989
0.729459
0.728126
0.72697
0.725972
0.725112
0.724374
0.72374
0.723195
0.722724
0.722316
0.721959
0.721642
0.721358
0.721099
0.720858
0.720631
0.720412
0.720197
0.719984
0.71977
0.719553
0.719332
0.719104
0.718871
0.718629
0.71838
0.718123
0.717858
0.717584
0.717301
0.717011
0.716712
0.716404
0.716089
0.715766
0.715435
0.715097
0.714751
0.714398
0.714037
0.71367
0.713296
0.712916
0.712534
0.712154
0.741441
0.738267
0.735381
0.732775
0.730437
0.728354
0.72651
0.724889
0.72347
0.722235
0.721164
0.720239
0.719442
0.718755
0.718161
0.717648
0.7172
0.716807
0.716458
0.716142
0.715853
0.715584
0.715327
0.715079
0.714834
0.714591
0.714345
0.714096
0.71384
0.713576
0.713305
0.713024
0.712733
0.712432
0.712121
0.7118
0.711469
0.711127
0.710776
0.710414
0.710043
0.709662
0.709272
0.708872
0.708464
0.708046
0.70762
0.707186
0.706743
0.706292
0.705834
0.705372
0.704909
0.733623
0.730643
0.727942
0.725509
0.723333
0.721398
0.719688
0.718186
0.716873
0.715731
0.71474
0.713882
0.71314
0.712498
0.711939
0.711451
0.71102
0.710635
0.710287
0.709966
0.709665
0.709378
0.709098
0.708823
0.708547
0.708268
0.707983
0.707691
0.707389
0.707077
0.706754
0.70642
0.706073
0.705714
0.705343
0.70496
0.704564
0.704157
0.703738
0.703307
0.702865
0.702412
0.701948
0.701474
0.700989
0.700494
0.699988
0.699473
0.698948
0.698414
0.697871
0.697321
0.696769
0.724503
0.721734
0.719233
0.716988
0.714986
0.71321
0.711644
0.710271
0.709071
0.708027
0.707121
0.706334
0.705651
0.705055
0.704533
0.70407
0.703656
0.70328
0.702932
0.702604
0.70229
0.701984
0.701681
0.701376
0.701067
0.700751
0.700425
0.700088
0.699739
0.699377
0.699001
0.698611
0.698207
0.697789
0.697356
0.69691
0.696449
0.695975
0.695488
0.694987
0.694474
0.693949
0.693411
0.692862
0.6923
0.691727
0.691143
0.690548
0.689942
0.689326
0.6887
0.688065
0.687425
0.713738
0.711199
0.708916
0.706875
0.70506
0.703457
0.702046
0.700811
0.699734
0.698797
0.697981
0.697271
0.696651
0.696106
0.695623
0.695189
0.694794
0.694427
0.694081
0.693748
0.693422
0.693098
0.692772
0.692439
0.692098
0.691745
0.69138
0.691
0.690605
0.690195
0.689768
0.689325
0.688866
0.688391
0.6879
0.687393
0.686871
0.686335
0.685783
0.685217
0.684638
0.684045
0.683439
0.68282
0.682188
0.681545
0.680889
0.680221
0.679542
0.678851
0.67815
0.677439
0.676721
0.701055
0.698768
0.696723
0.694904
0.693296
0.69188
0.69064
0.689557
0.688614
0.687794
0.687081
0.686458
0.68591
0.685425
0.684989
0.684592
0.684224
0.683876
0.68354
0.68321
0.682881
0.682548
0.682207
0.681856
0.681492
0.681114
0.680719
0.680307
0.679878
0.679431
0.678967
0.678484
0.677983
0.677465
0.67693
0.676379
0.675811
0.675227
0.674629
0.674015
0.673387
0.672745
0.67209
0.671422
0.670741
0.670047
0.669341
0.668623
0.667894
0.667153
0.666402
0.665641
0.664872
0.686119
0.684114
0.682334
0.680764
0.679385
0.67818
0.677131
0.676221
0.675433
0.674751
0.674158
0.67364
0.673184
0.672777
0.672407
0.672066
0.671744
0.671433
0.671128
0.670821
0.67051
0.67019
0.669857
0.669511
0.669148
0.668768
0.66837
0.667952
0.667516
0.66706
0.666585
0.666091
0.665579
0.66505
0.664502
0.663938
0.663358
0.662762
0.662151
0.661526
0.660886
0.660233
0.659568
0.658889
0.658199
0.657497
0.656784
0.656059
0.655324
0.654579
0.653824
0.65306
0.652289
0.668244
0.666562
0.665088
0.663803
0.662689
0.661729
0.660905
0.6602
0.659598
0.659084
0.658642
0.658261
0.657926
0.657628
0.657356
0.657102
0.656859
0.656619
0.656377
0.656129
0.65587
0.655599
0.655312
0.655008
0.654686
0.654344
0.653983
0.653601
0.6532
0.652779
0.652339
0.65188
0.651404
0.650909
0.650399
0.649872
0.649329
0.648772
0.648202
0.647618
0.647021
0.646413
0.645793
0.645162
0.644521
0.64387
0.64321
0.642541
0.641863
0.641177
0.640483
0.639783
0.639078
0.646657
0.645361
0.644251
0.643308
0.642514
0.641851
0.641303
0.640854
0.640488
0.640191
0.63995
0.639753
0.639591
0.639452
0.639329
0.639214
0.639102
0.638986
0.638862
0.638728
0.638579
0.638415
0.638232
0.63803
0.637809
0.637568
0.637306
0.637025
0.636724
0.636404
0.636066
0.63571
0.635338
0.634949
0.634545
0.634127
0.633696
0.633252
0.632796
0.632329
0.631852
0.631365
0.630869
0.630365
0.629854
0.629335
0.628809
0.628277
0.62774
0.627198
0.62665
0.6261
0.625547
0.625328
0.62445
0.623733
0.623158
0.622709
0.622368
0.62212
0.62195
0.621845
0.621792
0.62178
0.621798
0.621837
0.62189
0.621949
0.622008
0.622062
0.622108
0.622141
0.622159
0.62216
0.622143
0.622106
0.622049
0.621971
0.621873
0.621756
0.621618
0.621462
0.621288
0.621096
0.620888
0.620665
0.620427
0.620175
0.619912
0.619636
0.61935
0.619054
0.618749
0.618436
0.618116
0.617789
0.617456
0.617118
0.616775
0.616428
0.616078
0.615725
0.615369
0.615011
0.614652
0.614295
0.608818
0.608301
0.607923
0.607667
0.607517
0.607456
0.60747
0.607547
0.607673
0.607837
0.60803
0.608243
0.608468
0.608697
0.608926
0.609149
0.609362
0.609562
0.609746
0.609913
0.61006
0.610187
0.610293
0.610379
0.610444
0.610488
0.610513
0.610518
0.610506
0.610476
0.610429
0.610368
0.610292
0.610203
0.610102
0.609991
0.609869
0.609738
0.609599
0.609454
0.609302
0.609144
0.608982
0.608817
0.608648
0.608476
0.608303
0.608129
0.607953
0.607778
0.607603
0.60743
0.607262
0.596675
0.596509
0.596462
0.596517
0.59666
0.596875
0.59715
0.597473
0.597831
0.598217
0.598621
0.599034
0.599452
0.599868
0.600276
0.600674
0.601057
0.601424
0.601772
0.602099
0.602406
0.602691
0.602955
0.603197
0.603418
0.603618
0.603799
0.603961
0.604105
0.604233
0.604345
0.604443
0.604529
0.604602
0.604664
0.604717
0.604761
0.604798
0.604829
0.604854
0.604875
0.604892
0.604906
0.604919
0.60493
0.604941
0.604952
0.604964
0.604978
0.604994
0.605012
0.605035
0.605063
0.605105
0.590317
0.590502
0.590787
0.591156
0.591596
0.592093
0.592635
0.593211
0.593811
0.594428
0.595053
0.59568
0.596303
0.596918
0.59752
0.598107
0.598675
0.599223
0.59975
0.600253
0.600734
0.601192
0.601628
0.602041
0.602432
0.602802
0.603153
0.603485
0.6038
0.604099
0.604383
0.604653
0.604911
0.605159
0.605396
0.605626
0.605848
0.606064
0.606275
0.606483
0.606687
0.60689
0.607092
0.607293
0.607495
0.607699
0.607905
0.608114
0.608327
0.608544
0.608766
0.608994
0.60923
0.609477
0.591754
0.592303
0.592934
0.593633
0.594386
0.595181
0.596008
0.596856
0.597718
0.598586
0.599453
0.600314
0.601164
0.601999
0.602816
0.603612
0.604386
0.605136
0.605861
0.606561
0.607236
0.607887
0.608512
0.609115
0.609695
0.610253
0.610791
0.611311
0.611813
0.612299
0.612771
0.61323
0.613677
0.614114
0.614542
0.614963
0.615378
0.615788
0.616195
0.616599
0.617002
0.617405
0.617808
0.618213
0.618621
0.619032
0.619447
0.619867
0.620294
0.620726
0.621166
0.621614
0.622072
0.622541
0.604257
0.605204
0.606216
0.607278
0.60838
0.609509
0.610656
0.611813
0.612972
0.614127
0.615272
0.616403
0.617515
0.618605
0.619671
0.620712
0.621724
0.622709
0.623666
0.624594
0.625493
0.626366
0.627212
0.628033
0.62883
0.629604
0.630357
0.631091
0.631806
0.632506
0.633191
0.633863
0.634524
0.635176
0.635819
0.636456
0.637088
0.637716
0.638342
0.638967
0.639592
0.640218
0.640847
0.64148
0.642117
0.64276
0.643409
0.644065
0.644729
0.645403
0.646086
0.646779
0.647485
0.648204
0.633945
0.635359
0.63682
0.638316
0.639835
0.641367
0.642904
0.644437
0.645961
0.64747
0.648958
0.650423
0.65186
0.653269
0.654645
0.655989
0.6573
0.658577
0.659821
0.661032
0.662211
0.663359
0.664477
0.665568
0.666632
0.667671
0.668687
0.669683
0.670659
0.671619
0.672563
0.673494
0.674415
0.675326
0.676229
0.677126
0.67802
0.67891
0.6798
0.680691
0.681583
0.682478
0.683378
0.684284
0.685196
0.686116
0.687046
0.687985
0.688935
0.689897
0.690872
0.69186
0.692863
0.693882
0.694242
0.696265
0.698318
0.700389
0.702466
0.704541
0.706605
0.708651
0.710674
0.712669
0.714631
0.716557
0.718446
0.720295
0.722103
0.723869
0.725594
0.727277
0.72892
0.730524
0.732089
0.733618
0.735112
0.736574
0.738005
0.739408
0.740785
0.742139
0.743472
0.744786
0.746084
0.747368
0.74864
0.749903
0.751158
0.752408
0.753655
0.754901
0.756147
0.757396
0.758648
0.759907
0.761172
0.762446
0.763729
0.765024
0.766331
0.767652
0.768987
0.770338
0.771707
0.773093
0.774498
0.775923
0.822062
0.825034
0.828017
0.830999
0.833968
0.836915
0.839832
0.842713
0.845551
0.848343
0.851086
0.853775
0.85641
0.85899
0.861514
0.863982
0.866395
0.868754
0.87106
0.873315
0.875522
0.877683
0.879801
0.881878
0.883917
0.885921
0.887895
0.889839
0.891759
0.893657
0.895535
0.897398
0.899248
0.901088
0.90292
0.904748
0.906574
0.9084
0.910229
0.912064
0.913905
0.915756
0.917618
0.919494
0.921384
0.923291
0.925216
0.927161
0.929126
0.931115
0.933127
0.935165
0.937229
0.939321
1.1669
1.17198
1.17704
1.18207
1.18706
1.19199
1.19686
1.20166
1.20638
1.21101
1.21556
1.22002
1.22439
1.22867
1.23287
1.23697
1.24099
1.24492
1.24878
1.25256
1.25626
1.2599
1.26347
1.26698
1.27044
1.27384
1.2772
1.28052
1.28381
1.28706
1.29029
1.2935
1.29669
1.29986
1.30303
1.3062
1.30937
1.31254
1.31572
1.31891
1.32212
1.32534
1.32858
1.33185
1.33515
1.33847
1.34183
1.34522
1.34865
1.35211
1.35562
1.35917
1.36276
1.3664
2.99657
3.0133
3.02977
3.04596
3.06183
3.07739
3.09262
3.10752
3.12208
3.13631
3.1502
3.16377
3.17702
3.18996
3.2026
3.21495
3.22702
3.23882
3.25036
3.26167
3.27276
3.28363
3.29431
3.30481
3.31515
3.32534
3.3354
3.34534
3.35518
3.36493
3.37461
3.38424
3.39381
3.40336
3.41289
3.42242
3.43195
3.44149
3.45107
3.46068
3.47034
3.48006
3.48984
3.49969
3.50962
3.51965
3.52977
3.53999
3.55031
3.56075
3.57132
3.582
3.59282
3.60377
)
;

boundaryField
{
    inlet
    {
        type            fixedValue;
        value           nonuniform 0();
    }
    outlet
    {
        type            zeroGradient;
    }
    upperWall
    {
        Cmu             0.09;
        kappa           0.41;
        E               9.8;
        type            epsilonWallFunction;
        value           nonuniform List<scalar> 
54
(
2.99657
3.0133
3.02977
3.04596
3.06183
3.07739
3.09262
3.10752
3.12208
3.13631
3.1502
3.16377
3.17702
3.18996
3.2026
3.21495
3.22702
3.23882
3.25036
3.26167
3.27276
3.28363
3.29431
3.30481
3.31515
3.32534
3.3354
3.34534
3.35518
3.36493
3.37461
3.38424
3.39381
3.40336
3.41289
3.42242
3.43195
3.44149
3.45107
3.46068
3.47034
3.48006
3.48984
3.49969
3.50962
3.51965
3.52977
3.53999
3.55031
3.56075
3.57132
3.582
3.59282
3.60377
)
;
    }
    lowerWall
    {
        Cmu             0.09;
        kappa           0.41;
        E               9.8;
        type            epsilonWallFunction;
        value           nonuniform List<scalar> 
57
(
2.05669
2.01889
1.98382
1.95139
1.92148
1.89397
1.86874
1.84566
1.82461
1.80544
1.78804
1.77228
1.75803
1.74516
1.73352
1.72301
1.7138
1.7057
1.69858
1.69232
1.68682
1.68201
1.67782
1.67418
1.67103
1.66833
1.66603
1.66409
1.66248
1.66115
1.66009
1.65927
1.65867
1.65826
1.65803
1.65795
1.65803
1.65824
1.65857
1.65902
1.65956
1.6602
1.66093
1.66173
1.66261
1.66356
1.66457
1.66564
1.66677
1.66794
1.66916
1.67043
1.67174
1.67308
1.67447
1.67588
1.67733
)
;
    }
    frontAndBack
    {
        type            empty;
    }
    procBoundary1to0
    {
        type            processor;
        value           nonuniform List<scalar> 
59
(
1.67881
0.786824
0.648213
0.610692
0.602438
0.605841
0.614511
0.625576
0.637573
0.649695
0.66148
0.66148
0.672432
0.682813
0.692349
0.701007
0.708857
0.715766
0.721657
0.726654
0.730861
0.734366
0.737243
0.739553
0.741347
0.742663
0.743536
0.743988
0.744047
0.743588
0.742598
0.741056
0.738937
0.736207
0.732825
0.728744
0.723912
0.718273
0.711767
0.704438
0.696208
0.686775
0.675992
0.664092
0.651509
0.638366
0.624991
0.613939