/*--------------------------------*- C++ -*----------------------------------*\
  =========                 |
  \\      /  F ield         | OpenFOAM: The Open Source CFD Toolbox
   \\    /   O peration     | Website:  https://openfoam.org
    \\  /    A nd           | Version:  6
     \\/     M anipulation  |
\*---------------------------------------------------------------------------*/
FoamFile
{
    version     2.0;
    format      ascii;
    class       volScalarField;
    location    "0.09";
    object      k;
}
// * * * * * * * * * * * * * * * * * * * * * * * * * * * * * * * * * * * * * //

dimensions      [0 2 -2 0 0 0 0];

internalField   nonuniform List<scalar> 
3081
(
0.019443
0.0191784
0.0189302
0.0186981
0.0184817
0.0182804
0.0180937
0.017921
0.0177615
0.0176147
0.0174797
0.0173558
0.0172422
0.0171383
0.0170429
0.0169553
0.0168762
0.0168053
0.0167412
0.0166833
0.0166309
0.0165833
0.0165401
0.0165008
0.016465
0.0164323
0.0164024
0.0163751
0.0163499
0.0163268
0.0163055
0.0162858
0.0162675
0.0162505
0.0162346
0.0162198
0.0162059
0.0161929
0.0161805
0.0161689
0.0161578
0.0161473
0.0161372
0.0161276
0.0161183
0.0161094
0.0161007
0.0160923
0.0160842
0.0160762
0.0160685
0.0160608
0.0160533
0.0160459
0.0160387
0.0160314
0.0160243
0.0373394
0.036779
0.0362542
0.0357639
0.0353073
0.034883
0.0344899
0.0341265
0.0337913
0.0334827
0.0331993
0.0329394
0.0327015
0.0324839
0.032285
0.0321031
0.0319353
0.0317817
0.0316428
0.0315174
0.031404
0.0313015
0.0312086
0.0311244
0.0310479
0.0309783
0.0309147
0.0308567
0.0308035
0.0307546
0.0307096
0.0306681
0.0306296
0.0305938
0.0305604
0.0305292
0.0304999
0.0304723
0.0304462
0.0304214
0.0303978
0.0303752
0.0303535
0.0303327
0.0303125
0.030293
0.030274
0.0302555
0.0302373
0.0302196
0.0302021
0.0301848
0.0301678
0.0301509
0.0301341
0.0301174
0.0301008
0.0471351
0.0464445
0.0457969
0.0451913
0.0446265
0.0441013
0.043614
0.043163
0.0427465
0.0423628
0.04201
0.0416861
0.0413892
0.0411175
0.0408692
0.0406421
0.0404344
0.040244
0.0400701
0.0399123
0.0397691
0.0396391
0.0395211
0.0394138
0.0393161
0.0392271
0.0391457
0.0390713
0.039003
0.0389401
0.0388822
0.0388287
0.038779
0.0387328
0.0386897
0.0386493
0.0386113
0.0385755
0.0385416
0.0385094
0.0384787
0.0384493
0.0384211
0.0383938
0.0383675
0.038342
0.0383171
0.0382929
0.0382691
0.0382458
0.0382228
0.0382001
0.0381777
0.0381555
0.0381334
0.0381115
0.0380896
0.0541323
0.05336
0.0526349
0.0519563
0.0513227
0.0507328
0.0501851
0.0496778
0.0492089
0.0487765
0.0483786
0.048013
0.0476778
0.0473708
0.0470901
0.0468334
0.0465989
0.0463845
0.0461882
0.0460095
0.0458472
0.0456995
0.0455652
0.0454428
0.0453313
0.0452294
0.0451363
0.0450509
0.0449725
0.0449003
0.0448336
0.0447719
0.0447146
0.0446613
0.0446114
0.0445646
0.0445206
0.0444791
0.0444397
0.0444022
0.0443664
0.0443321
0.0442992
0.0442674
0.0442366
0.0442066
0.0441775
0.044149
0.0441211
0.0440937
0.0440667
0.04404
0.0440136
0.0439874
0.0439614
0.0439354
0.0439096
0.059729
0.0588991
0.058119
0.0573881
0.0567051
0.0560687
0.0554772
0.0549288
0.0544217
0.0539537
0.0535227
0.0531267
0.0527632
0.0524303
0.0521256
0.0518472
0.0515927
0.0513603
0.0511479
0.0509539
0.0507774
0.0506168
0.0504705
0.0503372
0.0502155
0.0501043
0.0500024
0.049909
0.0498232
0.049744
0.0496709
0.0496032
0.0495402
0.0494815
0.0494266
0.0493751
0.0493265
0.0492807
0.0492371
0.0491957
0.049156
0.049118
0.0490815
0.0490461
0.0490119
0.0489786
0.0489462
0.0489144
0.0488833
0.0488527
0.0488225
0.0487927
0.0487632
0.0487339
0.0487048
0.0486758
0.0486468
0.0644134
0.0635423
0.0627226
0.0619536
0.0612344
0.0605636
0.0599396
0.0593606
0.0588248
0.0583301
0.0578743
0.0574551
0.0570704
0.0567178
0.0563951
0.0561001
0.0558306
0.0555845
0.0553598
0.0551544
0.0549674
0.054797
0.0546418
0.0545003
0.054371
0.0542527
0.0541444
0.054045
0.0539536
0.0538693
0.0537914
0.0537191
0.0536519
0.0535892
0.0535306
0.0534755
0.0534235
0.0533744
0.0533277
0.0532833
0.0532408
0.0531999
0.0531606
0.0531226
0.0530858
0.05305
0.053015
0.0529808
0.0529472
0.0529141
0.0528815
0.0528493
0.0528174
0.0527857
0.0527542
0.0527228
0.0526915
0.0675135
0.0666663
0.0658707
0.0651257
0.0644302
0.0637826
0.0631814
0.0626246
0.0621102
0.061636
0.0611998
0.0607992
0.0604321
0.060096
0.0597888
0.0595081
0.0592518
0.0590179
0.0588043
0.0586095
0.0584321
0.0582703
0.0581228
0.057988
0.0578646
0.0577517
0.0576479
0.0575525
0.0574644
0.057383
0.0573075
0.0572373
0.0571717
0.0571104
0.0570527
0.0569983
0.0569468
0.0568979
0.0568513
0.0568067
0.0567638
0.0567225
0.0566826
0.0566439
0.0566062
0.0565693
0.0565333
0.0564979
0.0564631
0.0564287
0.0563947
0.056361
0.0563276
0.0562943
0.0562611
0.056228
0.0709378
0.0700736
0.069261
0.0684993
0.0677874
0.0671241
0.0665078
0.0659366
0.0654085
0.0649216
0.0644734
0.0640619
0.0636845
0.0633391
0.0630233
0.0627348
0.0624715
0.0622313
0.062012
0.0618119
0.0616297
0.0614635
0.0613119
0.0611734
0.0610467
0.0609305
0.0608239
0.0607258
0.0606353
0.0605516
0.060474
0.0604017
0.0603343
0.0602712
0.0602118
0.0601558
0.0601028
0.0600524
0.0600044
0.0599584
0.0599142
0.0598716
0.0598304
0.0597904
0.0597515
0.0597134
0.0596762
0.0596396
0.0596035
0.0595679
0.0595328
0.0594979
0.0594632
0.0594287
0.0593943
0.05936
0.0730232
0.0722023
0.0714319
0.0707112
0.070039
0.0694139
0.0688342
0.068298
0.0678033
0.0673479
0.0669295
0.0665459
0.0661948
0.0658737
0.0655806
0.065313
0.065069
0.0648465
0.0646434
0.0644584
0.0642897
0.0641358
0.0639952
0.0638666
0.0637487
0.0636405
0.063541
0.0634492
0.0633643
0.0632855
0.0632122
0.0631438
0.0630797
0.0630195
0.0629627
0.0629089
0.0628577
0.0628089
0.0627622
0.0627173
0.062674
0.0626322
0.0625915
0.0625519
0.0625131
0.0624752
0.0624379
0.0624012
0.062365
0.0623291
0.0622936
0.0622582
0.062223
0.0621879
0.0621529
0.0755707
0.0747493
0.0739774
0.0732546
0.0725798
0.0719518
0.071369
0.0708296
0.0703318
0.0698734
0.0694522
0.0690659
0.0687123
0.0683891
0.068094
0.0678249
0.0675795
0.0673557
0.0671517
0.0669658
0.0667964
0.0666418
0.0665006
0.0663715
0.0662532
0.0661447
0.0660448
0.0659527
0.0658676
0.0657886
0.0657152
0.0656466
0.0655824
0.065522
0.065465
0.0654111
0.0653599
0.0653109
0.0652641
0.0652191
0.0651757
0.0651336
0.0650928
0.065053
0.0650142
0.0649761
0.0649386
0.0649018
0.0648653
0.0648292
0.0647935
0.0647579
0.0647225
0.0646872
0.0646519
0.0777588
0.0769438
0.0761771
0.0754583
0.0747866
0.074161
0.07358
0.073042
0.0725453
0.0720877
0.0716673
0.0712817
0.0709288
0.0706062
0.0703118
0.0700434
0.0697988
0.0695759
0.0693728
0.0691878
0.0690192
0.0688654
0.068725
0.0685967
0.0684792
0.0683714
0.0682722
0.0681808
0.0680964
0.0680181
0.0679452
0.0678772
0.0678136
0.0677538
0.0676973
0.0676439
0.0675931
0.0675446
0.0674982
0.0674536
0.0674106
0.0673689
0.0673284
0.067289
0.0672504
0.0672126
0.0671755
0.0671388
0.0671026
0.0670668
0.0670313
0.0669959
0.0669607
0.0669256
0.0668905
0.0796222
0.07882
0.0780643
0.0773551
0.0766917
0.0760733
0.0754986
0.0749662
0.0744744
0.0740213
0.0736049
0.0732231
0.0728736
0.0725544
0.072263
0.0719975
0.0717557
0.0715356
0.0713351
0.0711526
0.0709863
0.0708347
0.0706964
0.07057
0.0704543
0.0703483
0.0702508
0.070161
0.0700781
0.0700012
0.0699297
0.069863
0.0698006
0.0697419
0.0696866
0.0696342
0.0695845
0.069537
0.0694915
0.0694477
0.0694055
0.0693647
0.069325
0.0692863
0.0692485
0.0692114
0.0691749
0.0691389
0.0691034
0.0690682
0.0690333
0.0689985
0.0689639
0.0689294
0.0688948
0.0688603
0.0811905
0.0804066
0.0796674
0.0789727
0.0783223
0.0777154
0.0771512
0.0766282
0.0761449
0.0756995
0.0752902
0.0749149
0.0745715
0.0742579
0.0739719
0.0737113
0.0734742
0.0732585
0.0730622
0.0728836
0.072721
0.0725728
0.0724377
0.0723144
0.0722016
0.0720983
0.0720033
0.0719159
0.0718353
0.0717605
0.0716911
0.0716263
0.0715657
0.0715088
0.0714551
0.0714043
0.071356
0.07131
0.0712659
0.0712234
0.0711825
0.0711429
0.0711044
0.0710668
0.0710301
0.0709941
0.0709587
0.0709238
0.0708892
0.070855
0.0708211
0.0707873
0.0707536
0.07072
0.0706864
0.0706528
0.0817292
0.081011
0.0803353
0.0797021
0.0791108
0.0785606
0.0780504
0.0775789
0.0771442
0.0767448
0.0763786
0.0760436
0.0757378
0.0754591
0.0752054
0.0749746
0.0747649
0.0745743
0.0744009
0.0742432
0.0740996
0.0739688
0.0738495
0.0737405
0.0736407
0.0735491
0.0734649
0.0733871
0.0733152
0.0732484
0.0731861
0.0731279
0.0730732
0.0730217
0.0729729
0.0729266
0.0728824
0.0728401
0.0727994
0.0727601
0.072722
0.0726851
0.072649
0.0726138
0.0725792
0.0725452
0.0725116
0.0724784
0.0724455
0.0724128
0.0723803
0.0723479
0.0723156
0.0722832
0.0722508
0.0828099
0.082117
0.0814644
0.0808521
0.0802799
0.0797471
0.0792529
0.0787959
0.0783747
0.0779876
0.0776329
0.0773085
0.0770125
0.0767429
0.0764977
0.0762749
0.0760725
0.0758888
0.0757219
0.0755702
0.0754323
0.0753067
0.0751923
0.0750879
0.0749925
0.0749049
0.0748245
0.0747504
0.0746818
0.0746182
0.074559
0.0745036
0.0744517
0.0744027
0.0743564
0.0743124
0.0742704
0.0742302
0.0741916
0.0741543
0.0741182
0.0740831
0.0740489
0.0740154
0.0739825
0.0739502
0.0739183
0.0738867
0.0738554
0.0738243
0.0737934
0.0737625
0.0737317
0.0737008
0.0736699
0.0836868
0.0830234
0.0823978
0.0818102
0.0812605
0.0807485
0.0802732
0.0798337
0.0794285
0.0790562
0.0787151
0.0784034
0.0781191
0.0778603
0.0776252
0.0774117
0.0772181
0.0770424
0.076883
0.0767382
0.0766067
0.0764871
0.0763783
0.0762791
0.0761885
0.0761056
0.0760294
0.0759592
0.0758944
0.0758343
0.0757783
0.075726
0.075677
0.0756308
0.0755871
0.0755455
0.0755059
0.0754679
0.0754314
0.0753962
0.0753621
0.0753288
0.0752964
0.0752647
0.0752335
0.0752029
0.0751726
0.0751426
0.0751128
0.0750833
0.0750538
0.0750244
0.074995
0.0749656
0.0749362
0.0843395
0.0837085
0.0831126
0.0825523
0.0820278
0.0815389
0.081085
0.0806651
0.0802781
0.0799227
0.0795971
0.0792997
0.0790288
0.0787824
0.0785588
0.078356
0.0781723
0.0780057
0.0778548
0.0777179
0.0775939
0.0774813
0.077379
0.0772859
0.0772009
0.0771233
0.0770521
0.0769867
0.0769263
0.0768703
0.0768183
0.0767697
0.0767242
0.0766814
0.0766408
0.0766024
0.0765656
0.0765305
0.0764967
0.076464
0.0764324
0.0764016
0.0763716
0.0763422
0.0763133
0.0762848
0.0762567
0.0762288
0.0762012
0.0761737
0.0761463
0.0761189
0.0760916
0.0760642
0.0760367
0.0841809
0.0836148
0.0830825
0.0825838
0.0821188
0.081687
0.0812876
0.0809196
0.0805818
0.0802726
0.0799905
0.0797337
0.0795005
0.0792892
0.0790979
0.0789248
0.0787682
0.0786265
0.0784985
0.0783826
0.0782777
0.0781827
0.0780964
0.0780179
0.0779464
0.0778809
0.0778209
0.0777657
0.0777146
0.0776673
0.0776232
0.0775819
0.0775432
0.0775066
0.0774719
0.0774389
0.0774073
0.077377
0.0773477
0.0773194
0.0772918
0.077265
0.0772387
0.0772129
0.0771874
0.0771623
0.0771375
0.0771128
0.0770883
0.0770638
0.0770394
0.077015
0.0769905
0.076966
0.0839518
0.0834471
0.0829743
0.0825332
0.0821237
0.081745
0.0813962
0.0810763
0.0807838
0.0805172
0.0802749
0.0800552
0.0798565
0.079677
0.079515
0.0793687
0.0792368
0.0791178
0.0790105
0.0789137
0.0788263
0.0787472
0.0786755
0.0786104
0.078551
0.0784968
0.0784471
0.0784013
0.078359
0.0783197
0.0782831
0.0782488
0.0782166
0.0781861
0.0781571
0.0781295
0.078103
0.0780775
0.0780529
0.078029
0.0780058
0.077983
0.0779608
0.0779388
0.0779172
0.0778958
0.0778746
0.0778535
0.0778325
0.0778115
0.0777905
0.0777695
0.0777485
0.0841587
0.0836814
0.083234
0.0828165
0.082429
0.0820708
0.0817411
0.0814389
0.081163
0.0809118
0.080684
0.0804779
0.0802918
0.0801241
0.0799732
0.0798373
0.0797151
0.0796053
0.0795067
0.079418
0.0793383
0.0792664
0.0792016
0.079143
0.0790898
0.0790415
0.0789974
0.0789569
0.0789198
0.0788854
0.0788536
0.0788239
0.078796
0.0787698
0.0787451
0.0787215
0.0786991
0.0786775
0.0786568
0.0786367
0.0786172
0.0785981
0.0785795
0.0785613
0.0785433
0.0785255
0.0785079
0.0784904
0.078473
0.0784557
0.0784383
0.078421
0.0784036
0.0842633
0.0838124
0.0833896
0.0829951
0.082629
0.0822907
0.0819797
0.0816949
0.0814352
0.0811992
0.0809855
0.0807927
0.080619
0.0804629
0.0803229
0.0801973
0.0800847
0.079984
0.0798938
0.0798132
0.079741
0.0796763
0.0796182
0.079566
0.0795189
0.0794763
0.0794377
0.0794026
0.0793704
0.0793409
0.0793137
0.0792885
0.0792651
0.0792431
0.0792224
0.0792029
0.0791844
0.0791667
0.0791497
0.0791334
0.0791176
0.0791022
0.0790872
0.0790726
0.0790581
0.079044
0.0790299
0.079016
0.0790022
0.0789885
0.0789747
0.078961
0.0789473
0.0842865
0.0838609
0.0834617
0.0830893
0.0827437
0.0824248
0.0821317
0.0818638
0.0816198
0.0813985
0.0811986
0.0810186
0.0808569
0.0807121
0.0805826
0.080467
0.0803638
0.0802718
0.0801899
0.080117
0.080052
0.0799942
0.0799426
0.0798965
0.0798553
0.0798182
0.0797849
0.0797548
0.0797274
0.0797026
0.0796798
0.0796589
0.0796395
0.0796216
0.0796049
0.0795891
0.0795743
0.0795603
0.0795469
0.0795341
0.0795218
0.0795099
0.0794983
0.079487
0.079476
0.0794652
0.0794545
0.079444
0.0794336
0.0794232
0.0794129
0.0794026
0.0793923
0.0842443
0.0838427
0.083466
0.0831147
0.0827889
0.0824884
0.0822127
0.0819609
0.081732
0.0815249
0.0813381
0.0811704
0.0810203
0.0808862
0.0807669
0.0806607
0.0805665
0.0804829
0.0804088
0.0803433
0.0802853
0.0802339
0.0801885
0.0801482
0.0801124
0.0800806
0.0800522
0.0800267
0.0800039
0.0799833
0.0799647
0.0799477
0.0799322
0.079918
0.0799048
0.0798926
0.0798812
0.0798705
0.0798604
0.0798508
0.0798416
0.0798328
0.0798244
0.0798162
0.0798083
0.0798005
0.0797929
0.0797854
0.079778
0.0797707
0.0797634
0.0797562
0.079749
0.084149
0.0837701
0.0834148
0.0830835
0.0827766
0.0824937
0.0822345
0.0819981
0.0817837
0.08159
0.0814159
0.0812599
0.0811207
0.0809969
0.0808871
0.08079
0.0807042
0.0806285
0.0805618
0.0805032
0.0804517
0.0804064
0.0803667
0.0803318
0.0803011
0.080274
0.0802501
0.080229
0.0802103
0.0801936
0.0801787
0.0801653
0.0801532
0.0801423
0.0801323
0.0801232
0.0801148
0.080107
0.0800998
0.080093
0.0800866
0.0800806
0.0800748
0.0800693
0.080064
0.0800589
0.0800539
0.080049
0.0800442
0.0800395
0.0800349
0.0800303
0.0800258
0.08401
0.0836526
0.0833175
0.0830053
0.0827162
0.0824501
0.0822066
0.0819849
0.0817841
0.0816033
0.0814411
0.0812962
0.0811674
0.0810533
0.0809525
0.0808637
0.0807858
0.0807175
0.0806577
0.0806056
0.08056
0.0805204
0.0804859
0.0804559
0.0804298
0.0804071
0.0803873
0.08037
0.0803549
0.0803417
0.08033
0.0803197
0.0803107
0.0803026
0.0802954
0.0802889
0.0802831
0.0802778
0.080273
0.0802685
0.0802645
0.0802607
0.0802571
0.0802538
0.0802507
0.0802477
0.0802448
0.0802421
0.0802394
0.0802368
0.0802343
0.0802318
0.0802294
0.0838348
0.0834977
0.0831817
0.0828875
0.0826153
0.0823651
0.0821364
0.0819286
0.0817408
0.081572
0.0814211
0.0812867
0.0811676
0.0810625
0.0809702
0.0808892
0.0808186
0.0807571
0.0807037
0.0806574
0.0806173
0.0805828
0.0805531
0.0805275
0.0805055
0.0804866
0.0804704
0.0804564
0.0804445
0.0804342
0.0804253
0.0804177
0.0804111
0.0804054
0.0804004
0.0803961
0.0803923
0.080389
0.080386
0.0803835
0.0803812
0.0803791
0.0803773
0.0803756
0.0803741
0.0803727
0.0803714
0.0803702
0.0803691
0.0803681
0.0803671
0.0803661
0.0803653
0.0836292
0.0833111
0.0830131
0.0827359
0.0824797
0.0822444
0.0820298
0.0818351
0.0816595
0.0815021
0.0813617
0.0812372
0.0811272
0.0810305
0.080946
0.0808723
0.0808083
0.080753
0.0807053
0.0806643
0.0806292
0.0805992
0.0805737
0.0805519
0.0805335
0.0805179
0.0805048
0.0804937
0.0804843
0.0804765
0.0804698
0.0804643
0.0804596
0.0804557
0.0804525
0.0804498
0.0804475
0.0804456
0.080444
0.0804427
0.0804416
0.0804407
0.08044
0.0804394
0.0804389
0.0804385
0.0804382
0.080438
0.0804378
0.0804377
0.0804375
0.0804375
0.0804375
0.083384
0.0830847
0.0828045
0.0825442
0.0823038
0.0820835
0.0818828
0.0817011
0.0815377
0.0813915
0.0812616
0.0811467
0.0810457
0.0809573
0.0808803
0.0808137
0.0807562
0.0807068
0.0806646
0.0806286
0.0805981
0.0805723
0.0805506
0.0805324
0.0805172
0.0805046
0.0804941
0.0804854
0.0804783
0.0804724
0.0804676
0.0804637
0.0804605
0.080458
0.0804559
0.0804543
0.080453
0.080452
0.0804512
0.0804507
0.0804502
0.0804499
0.0804497
0.0804496
0.0804496
0.0804496
0.0804496
0.0804497
0.0804498
0.0804499
0.08045
0.0804502
0.0804503
0.0830868
0.0828066
0.0825446
0.0823013
0.0820771
0.0818718
0.0816853
0.0815168
0.0813656
0.0812307
0.0811113
0.081006
0.0809138
0.0808336
0.080764
0.0807042
0.0806528
0.0806091
0.080572
0.0805406
0.0805143
0.0804922
0.0804739
0.0804587
0.0804461
0.0804358
0.0804273
0.0804204
0.0804148
0.0804103
0.0804065
0.0804035
0.0804011
0.0803991
0.0803975
0.0803961
0.080395
0.080394
0.0803931
0.0803924
0.0803917
0.080391
0.0803904
0.0803898
0.0803892
0.0803886
0.0803879
0.0803873
0.0803866
0.0803858
0.0803851
0.0803843
0.0803835
0.0827417
0.0824806
0.0822367
0.0820105
0.0818024
0.0816122
0.0814396
0.0812841
0.0811449
0.0810212
0.0809119
0.080816
0.0807323
0.0806598
0.0805973
0.0805437
0.0804981
0.0804594
0.0804268
0.0803995
0.0803767
0.0803577
0.0803421
0.0803291
0.0803185
0.0803098
0.0803026
0.0802967
0.0802918
0.0802878
0.0802844
0.0802814
0.0802789
0.0802766
0.0802745
0.0802725
0.0802706
0.0802687
0.0802669
0.080265
0.0802631
0.0802611
0.0802591
0.080257
0.0802548
0.0802525
0.0802501
0.0802477
0.0802451
0.0802425
0.0802397
0.0802369
0.080234
0.0823461
0.082104
0.0818781
0.081669
0.0814768
0.0813015
0.0811428
0.0810002
0.0808728
0.0807599
0.0806605
0.0805736
0.0804981
0.0804329
0.0803769
0.0803292
0.0802887
0.0802546
0.080226
0.080202
0.0801822
0.0801656
0.080152
0.0801406
0.0801312
0.0801234
0.0801168
0.0801111
0.0801062
0.0801018
0.0800979
0.0800942
0.0800906
0.0800872
0.0800838
0.0800803
0.0800767
0.0800731
0.0800693
0.0800654
0.0800613
0.080057
0.0800526
0.080048
0.0800432
0.0800382
0.0800331
0.0800278
0.0800223
0.0800166
0.0800108
0.0800049
0.0799987
0.0818965
0.0816733
0.0814654
0.0812732
0.0810969
0.0809364
0.0807914
0.0806614
0.0805456
0.0804433
0.0803535
0.0802752
0.0802075
0.0801491
0.0800993
0.0800569
0.0800211
0.0799909
0.0799657
0.0799445
0.0799269
0.0799122
0.0798998
0.0798893
0.0798804
0.0798727
0.0798658
0.0798596
0.0798539
0.0798484
0.0798431
0.0798378
0.0798324
0.079827
0.0798213
0.0798154
0.0798093
0.079803
0.0797963
0.0797894
0.0797821
0.0797746
0.0797668
0.0797587
0.0797503
0.0797416
0.0797326
0.0797234
0.0797139
0.0797042
0.0796942
0.0796839
0.0796734
0.0813889
0.0811846
0.0809945
0.0808191
0.0806586
0.0805127
0.0803812
0.0802636
0.0801591
0.0800671
0.0799865
0.0799165
0.079856
0.0798041
0.0797599
0.0797223
0.0796905
0.0796638
0.0796413
0.0796223
0.0796062
0.0795926
0.0795808
0.0795705
0.0795613
0.0795529
0.079545
0.0795375
0.0795301
0.0795226
0.0795151
0.0795073
0.0794993
0.0794909
0.0794821
0.079473
0.0794634
0.0794533
0.0794428
0.0794319
0.0794206
0.0794088
0.0793966
0.0793839
0.0793709
0.0793574
0.0793436
0.0793293
0.0793147
0.0792998
0.0792844
0.0792687
0.0792526
0.0808186
0.080633
0.0804606
0.0803019
0.0801568
0.0800254
0.0799071
0.0798016
0.0797082
0.079626
0.0795543
0.0794921
0.0794385
0.0793925
0.0793533
0.07932
0.0792917
0.0792677
0.0792473
0.0792298
0.0792146
0.0792012
0.0791893
0.0791784
0.0791681
0.0791582
0.0791485
0.0791388
0.0791289
0.0791186
0.079108
0.0790969
0.0790852
0.079073
0.0790602
0.0790468
0.0790327
0.079018
0.0790027
0.0789868
0.0789703
0.0789533
0.0789356
0.0789174
0.0788986
0.0788793
0.0788594
0.0788391
0.0788182
0.0787969
0.078775
0.0787527
0.0787299
0.08018
0.0800129
0.079858
0.0797157
0.0795859
0.0794685
0.0793633
0.0792695
0.0791867
0.079114
0.0790507
0.0789958
0.0789485
0.0789079
0.0788732
0.0788435
0.078818
0.0787961
0.078777
0.0787602
0.0787452
0.0787314
0.0787185
0.0787061
0.078694
0.0786818
0.0786694
0.0786566
0.0786433
0.0786293
0.0786147
0.0785993
0.0785831
0.0785661
0.0785482
0.0785295
0.07851
0.0784897
0.0784686
0.0784467
0.078424
0.0784005
0.0783763
0.0783514
0.0783258
0.0782995
0.0782725
0.0782449
0.0782166
0.0781877
0.0781581
0.0781279
0.0780971
0.0794665
0.0793176
0.0791799
0.0790537
0.0789388
0.0788352
0.0787425
0.0786601
0.0785874
0.0785238
0.0784683
0.0784202
0.0783786
0.0783428
0.0783119
0.0782851
0.0782617
0.0782411
0.0782227
0.0782058
0.0781901
0.078175
0.0781603
0.0781456
0.0781307
0.0781153
0.0780993
0.0780825
0.0780648
0.0780462
0.0780266
0.0780059
0.0779842
0.0779614
0.0779375
0.0779125
0.0778866
0.0778595
0.0778315
0.0778025
0.0777725
0.0777416
0.0777097
0.077677
0.0776434
0.0776089
0.0775736
0.0775375
0.0775005
0.0774628
0.0774242
0.0773849
0.0773447
0.0786702
0.0785391
0.0784183
0.0783077
0.0782074
0.0781171
0.0780365
0.0779649
0.0779019
0.0778466
0.0777984
0.0777564
0.0777199
0.0776881
0.0776602
0.0776356
0.0776136
0.0775935
0.0775748
0.077557
0.0775397
0.0775225
0.0775051
0.0774871
0.0774685
0.0774489
0.0774283
0.0774066
0.0773836
0.0773593
0.0773337
0.0773067
0.0772784
0.0772488
0.0772178
0.0771855
0.0771519
0.0771171
0.077081
0.0770438
0.0770054
0.0769658
0.0769251
0.0768834
0.0768406
0.0767967
0.0767518
0.0767059
0.076659
0.0766111
0.0765623
0.0765125
0.0764617
0.0777817
0.077668
0.0775635
0.0774682
0.0773819
0.0773044
0.0772352
0.0771739
0.0771198
0.0770722
0.0770305
0.0769939
0.0769617
0.0769332
0.0769075
0.0768842
0.0768626
0.0768421
0.0768223
0.0768027
0.0767828
0.0767625
0.0767414
0.0767192
0.0766958
0.0766711
0.0766449
0.0766171
0.0765878
0.0765567
0.0765241
0.0764897
0.0764538
0.0764162
0.076377
0.0763362
0.0762939
0.0762501
0.0762048
0.0761582
0.0761101
0.0760607
0.07601
0.075958
0.0759047
0.0758501
0.0757944
0.0757374
0.0756792
0.0756199
0.0755593
0.0754976
0.0754347
0.076828
0.0767302
0.0766405
0.0765589
0.0764851
0.0764188
0.0763597
0.0763072
0.0762606
0.0762194
0.0761828
0.0761502
0.0761209
0.0760942
0.0760695
0.0760461
0.0760236
0.0760014
0.075979
0.0759562
0.0759325
0.0759077
0.0758816
0.0758538
0.0758244
0.0757931
0.07576
0.0757248
0.0756877
0.0756486
0.0756075
0.0755644
0.0755193
0.0754724
0.0754235
0.0753728
0.0753203
0.0752661
0.0752102
0.0751526
0.0750933
0.0750325
0.0749701
0.0749062
0.0748408
0.074774
0.0747057
0.0746359
0.0745647
0.0744921
0.0744181
0.0743427
0.0742658
0.0757824
0.0756993
0.0756233
0.0755542
0.0754918
0.0754357
0.0753855
0.0753405
0.0753003
0.0752643
0.0752316
0.0752018
0.0751742
0.0751481
0.075123
0.0750984
0.0750737
0.0750485
0.0750225
0.0749952
0.0749664
0.0749358
0.0749034
0.0748688
0.074832
0.0747929
0.0747515
0.0747077
0.0746615
0.0746129
0.074562
0.0745088
0.0744533
0.0743956
0.0743357
0.0742736
0.0742095
0.0741434
0.0740753
0.0740053
0.0739334
0.0738596
0.073784
0.0737067
0.0736276
0.0735468
0.0734642
0.07338
0.0732941
0.0732065
0.0731173
0.0730264
0.0729338
0.0745391
0.0744714
0.0744097
0.0743537
0.0743031
0.0742574
0.0742162
0.0741789
0.074145
0.074114
0.0740851
0.0740577
0.0740314
0.0740056
0.0739797
0.0739532
0.0739258
0.073897
0.0738665
0.0738341
0.0737994
0.0737624
0.0737228
0.0736806
0.0736357
0.073588
0.0735375
0.0734842
0.0734281
0.0733693
0.0733077
0.0732435
0.0731767
0.0731074
0.0730356
0.0729614
0.0728848
0.0728059
0.0727248
0.0726415
0.072556
0.0724684
0.0723788
0.0722871
0.0721935
0.0720978
0.0720002
0.0719006
0.0717991
0.0716957
0.0715903
0.0714829
0.0713737
0.0730369
0.0729854
0.0729385
0.0728961
0.0728575
0.0728225
0.0727905
0.072761
0.0727334
0.0727072
0.0726818
0.0726567
0.0726313
0.0726053
0.0725781
0.0725493
0.0725185
0.0724856
0.0724501
0.0724119
0.0723708
0.0723267
0.0722794
0.0722289
0.0721752
0.0721182
0.072058
0.0719946
0.071928
0.0718582
0.0717855
0.0717097
0.071631
0.0715495
0.0714652
0.0713782
0.0712886
0.0711964
0.0711017
0.0710046
0.0709051
0.0708032
0.070699
0.0705925
0.0704838
0.0703729
0.0702597
0.0701443
0.0700268
0.069907
0.0697851
0.0696609
0.0695345
0.0712165
0.071182
0.0711508
0.0711225
0.0710967
0.0710728
0.0710504
0.0710289
0.0710079
0.0709868
0.0709651
0.0709424
0.0709181
0.070892
0.0708636
0.0708326
0.0707987
0.0707617
0.0707214
0.0706777
0.0706303
0.0705793
0.0705246
0.0704662
0.070404
0.0703381
0.0702686
0.0701956
0.0701189
0.0700389
0.0699555
0.0698688
0.0697789
0.0696859
0.0695899
0.069491
0.0693892
0.0692847
0.0691774
0.0690675
0.0689549
0.0688398
0.0687222
0.0686021
0.0684795
0.0683546
0.0682272
0.0680974
0.0679652
0.0678306
0.0676936
0.0675542
0.0674123
0.0689967
0.0689805
0.0689661
0.0689532
0.0689412
0.0689295
0.0689178
0.0689054
0.068892
0.068877
0.0688601
0.0688409
0.0688189
0.068794
0.0687657
0.0687338
0.0686982
0.0686587
0.0686152
0.0685675
0.0685157
0.0684597
0.0683995
0.0683351
0.0682667
0.0681942
0.0681177
0.0680373
0.0679532
0.0678654
0.0677741
0.0676792
0.067581
0.0674796
0.0673749
0.0672672
0.0671565
0.0670429
0.0669265
0.0668073
0.0666854
0.0665608
0.0664336
0.0663038
0.0661714
0.0660365
0.0658992
0.0657593
0.0656169
0.065472
0.0653247
0.0651748
0.0650224
0.0662116
0.0662152
0.0662192
0.0662232
0.0662265
0.0662287
0.0662292
0.0662276
0.0662236
0.0662166
0.0662065
0.0661928
0.0661753
0.0661538
0.066128
0.0660979
0.0660632
0.066024
0.0659802
0.0659318
0.0658787
0.0658211
0.0657589
0.0656923
0.0656213
0.0655461
0.0654667
0.0653833
0.0652961
0.065205
0.0651103
0.0650121
0.0649104
0.0648055
0.0646974
0.0645862
0.064472
0.0643549
0.064235
0.0641123
0.0639869
0.0638589
0.0637283
0.0635952
0.0634595
0.0633214
0.0631808
0.0630378
0.0628923
0.0627444
0.0625941
0.0624413
0.062286
0.0625958
0.0626211
0.0626455
0.0626684
0.0626893
0.0627075
0.0627228
0.0627347
0.0627429
0.062747
0.0627469
0.0627422
0.0627329
0.0627188
0.0626998
0.0626758
0.0626469
0.0626129
0.0625739
0.0625301
0.0624814
0.0624279
0.0623698
0.0623072
0.0622401
0.0621688
0.0620934
0.062014
0.0619308
0.0618439
0.0617535
0.0616597
0.0615625
0.0614623
0.061359
0.0612527
0.0611437
0.0610319
0.0609175
0.0608006
0.0606811
0.0605593
0.060435
0.0603085
0.0601797
0.0600486
0.0599153
0.0597797
0.059642
0.0595021
0.0593601
0.0592158
0.0590694
0.0585422
0.0585892
0.0586338
0.0586756
0.0587141
0.0587487
0.0587792
0.0588053
0.0588266
0.058843
0.0588544
0.0588606
0.0588615
0.0588571
0.0588474
0.0588324
0.0588122
0.0587867
0.0587561
0.0587205
0.05868
0.0586348
0.058585
0.0585307
0.0584721
0.0584094
0.0583427
0.0582722
0.0581981
0.0581205
0.0580395
0.0579553
0.0578681
0.057778
0.057685
0.0575894
0.0574912
0.0573905
0.0572875
0.0571822
0.0570746
0.0569649
0.0568531
0.0567392
0.0566233
0.0565055
0.0563857
0.056264
0.0561405
0.056015
0.0558877
0.0557585
0.0556274
0.0547851
0.0548467
0.054905
0.0549594
0.0550095
0.0550549
0.0550954
0.0551308
0.0551608
0.0551854
0.0552045
0.055218
0.0552259
0.0552282
0.055225
0.0552164
0.0552024
0.0551831
0.0551588
0.0551294
0.0550953
0.0550564
0.0550131
0.0549654
0.0549136
0.0548577
0.0547981
0.0547348
0.0546681
0.054598
0.0545248
0.0544486
0.0543695
0.0542877
0.0542033
0.0541164
0.0540271
0.0539356
0.0538419
0.053746
0.0536482
0.0535484
0.0534467
0.0533431
0.0532377
0.0531306
0.0530218
0.0529112
0.052799
0.0526851
0.0525696
0.0524524
0.0523335
0.0510433
0.051116
0.0511845
0.0512484
0.0513073
0.051361
0.0514092
0.0514518
0.0514887
0.0515199
0.0515453
0.0515649
0.0515788
0.051587
0.0515897
0.051587
0.0515789
0.0515656
0.0515473
0.0515242
0.0514964
0.051464
0.0514273
0.0513865
0.0513416
0.051293
0.0512408
0.0511851
0.0511261
0.0510641
0.0509991
0.0509312
0.0508607
0.0507877
0.0507123
0.0506346
0.0505547
0.0504727
0.0503887
0.0503028
0.0502151
0.0501256
0.0500345
0.0499416
0.0498471
0.0497511
0.0496535
0.0495544
0.0494539
0.0493518
0.0492483
0.0491433
0.0490369
0.0489291
0.0473222
0.0474029
0.0474787
0.0475494
0.0476147
0.0476744
0.0477283
0.0477763
0.0478185
0.0478548
0.0478852
0.0479098
0.0479287
0.047942
0.0479499
0.0479524
0.0479497
0.047942
0.0479294
0.0479122
0.0478905
0.0478644
0.0478343
0.0478001
0.0477623
0.0477208
0.047676
0.0476279
0.0475767
0.0475227
0.0474659
0.0474065
0.0473447
0.0472805
0.0472141
0.0471456
0.0470751
0.0470027
0.0469286
0.0468526
0.0467751
0.0466959
0.0466152
0.046533
0.0464494
0.0463644
0.046278
0.0461903
0.0461012
0.0460109
0.0459193
0.0458264
0.0457322
0.0456368
0.0436083
0.0436941
0.0437747
0.0438498
0.0439193
0.0439829
0.0440406
0.0440924
0.0441383
0.0441784
0.0442126
0.0442411
0.0442641
0.0442816
0.0442938
0.0443008
0.0443029
0.0443002
0.0442928
0.044281
0.044265
0.0442449
0.0442209
0.0441931
0.0441619
0.0441273
0.0440896
0.0440489
0.0440053
0.043959
0.0439102
0.0438591
0.0438056
0.04375
0.0436924
0.0436329
0.0435716
0.0435086
0.0434439
0.0433777
0.04331
0.0432409
0.0431704
0.0430985
0.0430254
0.0429511
0.0428756
0.0427989
0.042721
0.042642
0.0425618
0.0424805
0.0423982
0.0423147
0.0398647
0.039953
0.0400359
0.0401132
0.0401847
0.0402504
0.0403102
0.0403641
0.0404123
0.0404547
0.0404915
0.0405228
0.0405487
0.0405694
0.0405851
0.0405959
0.040602
0.0406035
0.0406007
0.0405938
0.0405828
0.0405681
0.0405497
0.0405279
0.0405029
0.0404747
0.0404437
0.0404098
0.0403734
0.0403345
0.0402933
0.0402499
0.0402045
0.0401571
0.0401079
0.040057
0.0400044
0.0399503
0.0398947
0.0398378
0.0397795
0.03972
0.0396592
0.0395973
0.0395342
0.0394701
0.0394049
0.0393387
0.0392714
0.0392032
0.039134
0.0390638
0.0389927
0.0389205
0.0360196
0.0361078
0.0361905
0.0362676
0.0363391
0.0364048
0.0364648
0.0365192
0.0365681
0.0366114
0.0366495
0.0366823
0.0367101
0.0367329
0.0367511
0.0367647
0.0367739
0.036779
0.0367799
0.0367771
0.0367706
0.0367606
0.0367472
0.0367308
0.0367113
0.036689
0.0366641
0.0366367
0.0366069
0.0365748
0.0365407
0.0365047
0.0364667
0.0364271
0.0363858
0.0363429
0.0362987
0.036253
0.036206
0.0361579
0.0361085
0.0360581
0.0360066
0.035954
0.0359005
0.035846
0.0357907
0.0357344
0.0356772
0.0356192
0.0355604
0.0355007
0.0354402
0.0353788
0.0319373
0.0320222
0.0321018
0.0321761
0.0322449
0.0323084
0.0323665
0.0324194
0.0324671
0.0325097
0.0325474
0.0325803
0.0326085
0.0326323
0.0326518
0.0326671
0.0326785
0.032686
0.0326899
0.0326903
0.0326874
0.0326814
0.0326724
0.0326606
0.0326461
0.0326291
0.0326098
0.0325882
0.0325645
0.0325388
0.0325113
0.0324821
0.0324512
0.0324188
0.032385
0.0323498
0.0323133
0.0322757
0.0322369
0.0321971
0.0321563
0.0321145
0.0320718
0.0320282
0.0319838
0.0319386
0.0318926
0.0318458
0.0317983
0.0317501
0.0317011
0.0316515
0.0316011
0.0315501
0.0273306
0.0274077
0.0274802
0.0275478
0.0276105
0.0276685
0.0277217
0.0277702
0.0278142
0.0278536
0.0278888
0.0279197
0.0279466
0.0279696
0.0279888
0.0280045
0.0280166
0.0280255
0.0280312
0.0280339
0.0280337
0.0280308
0.0280254
0.0280176
0.0280074
0.0279951
0.0279808
0.0279646
0.0279466
0.0279269
0.0279056
0.0278829
0.0278588
0.0278334
0.0278068
0.027779
0.0277502
0.0277204
0.0276896
0.027658
0.0276255
0.0275923
0.0275582