/*--------------------------------*- C++ -*----------------------------------*\
  =========                 |
  \\      /  F ield         | OpenFOAM: The Open Source CFD Toolbox
   \\    /   O peration     | Website:  https://openfoam.org
    \\  /    A nd           | Version:  6
     \\/     M anipulation  |
\*---------------------------------------------------------------------------*/
FoamFile
{
    version     2.0;
    format      ascii;
    class       volScalarField;
    location    "0.09";
    object      nut;
}
// * * * * * * * * * * * * * * * * * * * * * * * * * * * * * * * * * * * * * //

dimensions      [0 2 -1 0 0 0 0];

internalField   nonuniform List<scalar> 
3081
(
1.65424e-05
1.63967e-05
1.62575e-05
1.61248e-05
1.59989e-05
1.58796e-05
1.57669e-05
1.56607e-05
1.55608e-05
1.5467e-05
1.53791e-05
1.52967e-05
1.52196e-05
1.51475e-05
1.508e-05
1.50164e-05
1.49566e-05
1.49015e-05
1.48501e-05
1.48022e-05
1.47572e-05
1.47148e-05
1.46748e-05
1.46369e-05
1.46009e-05
1.45666e-05
1.45337e-05
1.45021e-05
1.44717e-05
1.44423e-05
1.44138e-05
1.4386e-05
1.4359e-05
1.43325e-05
1.43066e-05
1.42811e-05
1.4256e-05
1.42312e-05
1.42068e-05
1.41825e-05
1.41584e-05
1.41345e-05
1.41107e-05
1.4087e-05
1.40634e-05
1.40398e-05
1.40162e-05
1.39926e-05
1.3969e-05
1.39454e-05
1.39217e-05
1.38979e-05
1.38741e-05
1.38502e-05
1.38262e-05
1.3802e-05
1.37778e-05
0.00013185
0.000130091
0.000128423
0.000126846
0.000125359
0.000123962
0.000122652
0.000121428
0.000120287
0.000119224
0.000118238
0.000117323
0.000116477
0.000115694
0.000114969
0.000114294
0.000113643
0.000113024
0.000112455
0.000111935
0.000111458
0.00011102
0.000110616
0.000110244
0.000109899
0.000109578
0.000109278
0.000108998
0.000108734
0.000108485
0.000108248
0.000108024
0.000107809
0.000107602
0.000107404
0.000107211
0.000107025
0.000106843
0.000106665
0.000106491
0.00010632
0.000106151
0.000105984
0.000105819
0.000105655
0.000105491
0.000105329
0.000105167
0.000105004
0.000104842
0.00010468
0.000104517
0.000104354
0.00010419
0.000104025
0.000103859
0.000103692
0.0002557
0.00025227
0.000249008
0.000245915
0.000242992
0.000240239
0.000237653
0.000235231
0.000232968
0.00023086
0.0002289
0.000227082
0.000225398
0.00022384
0.000222401
0.000221068
0.000219826
0.000218659
0.000217568
0.000216564
0.000215641
0.00021479
0.000214007
0.000213285
0.000212616
0.000211997
0.000211421
0.000210884
0.000210381
0.00020991
0.000209465
0.000209045
0.000208646
0.000208266
0.000207903
0.000207554
0.000207217
0.000206892
0.000206575
0.000206267
0.000205966
0.000205671
0.00020538
0.000205094
0.000204811
0.000204531
0.000204252
0.000203975
0.0002037
0.000203424
0.000203149
0.000202874
0.000202599
0.000202322
0.000202045
0.000201767
0.000201486
0.000357919
0.000353275
0.000348844
0.000344631
0.000340639
0.000336869
0.000333319
0.000329987
0.000326868
0.000323956
0.000321245
0.000318725
0.000316389
0.000314226
0.000312226
0.000310376
0.000308663
0.000307073
0.000305589
0.000304217
0.000302954
0.00030179
0.000300717
0.000299726
0.000298811
0.000297963
0.000297176
0.000296443
0.00029576
0.00029512
0.000294519
0.000293952
0.000293416
0.000292907
0.000292422
0.000291959
0.000291513
0.000291084
0.000290669
0.000290266
0.000289874
0.000289491
0.000289115
0.000288746
0.000288382
0.000288023
0.000287667
0.000287314
0.000286963
0.000286613
0.000286265
0.000285916
0.000285568
0.000285219
0.000284869
0.000284518
0.000284165
0.00044123
0.00043577
0.000430545
0.000425565
0.000420832
0.000416352
0.000412123
0.000408144
0.000404411
0.00040092
0.000397662
0.00039463
0.000391815
0.000389204
0.000386788
0.000384553
0.000382486
0.000380573
0.000378799
0.000377153
0.000375636
0.000374239
0.00037295
0.00037176
0.000370661
0.000369643
0.000368698
0.000367821
0.000367003
0.000366238
0.000365521
0.000364847
0.00036421
0.000363607
0.000363035
0.000362488
0.000361965
0.000361462
0.000360977
0.000360507
0.000360051
0.000359606
0.000359172
0.000358746
0.000358327
0.000357914
0.000357506
0.000357102
0.000356701
0.000356302
0.000355905
0.000355509
0.000355113
0.000354717
0.00035432
0.000353922
0.000353522
0.000509651
0.000503689
0.000497965
0.000492493
0.000487281
0.000482333
0.000477652
0.000473238
0.000469088
0.000465197
0.00046156
0.000458169
0.000455015
0.000452086
0.000449372
0.00044686
0.000444537
0.000442389
0.0004404
0.000438556
0.000436856
0.000435288
0.000433842
0.000432506
0.000431273
0.000430131
0.000429072
0.000428088
0.000427172
0.000426316
0.000425515
0.000424763
0.000424054
0.000423384
0.000422748
0.000422142
0.000421564
0.000421008
0.000420474
0.000419958
0.000419458
0.000418971
0.000418496
0.000418032
0.000417575
0.000417127
0.000416684
0.000416246
0.000415812
0.000415381
0.000414952
0.000414524
0.000414098
0.000413671
0.000413244
0.000412816
0.000412386
0.000560088
0.000554094
0.000548347
0.000542858
0.000537633
0.000532678
0.000527994
0.000523581
0.000519435
0.000515552
0.000511925
0.000508545
0.000505403
0.000502487
0.000499786
0.000497286
0.000494974
0.000492836
0.000490856
0.000489027
0.000487339
0.000485783
0.000484345
0.000483017
0.000481787
0.000480648
0.00047959
0.000478605
0.000477686
0.000476826
0.000476019
0.000475259
0.000474542
0.000473863
0.000473217
0.0004726
0.000472009
0.000471442
0.000470894
0.000470364
0.00046985
0.000469348
0.000468858
0.000468378
0.000467906
0.000467441
0.000466981
0.000466526
0.000466075
0.000465626
0.000465179
0.000464734
0.000464288
0.000463843
0.000463396
0.000462946
0.00060723
0.000601141
0.000595282
0.000589673
0.00058432
0.000579232
0.00057441
0.000569856
0.00056557
0.000561548
0.000557784
0.00055427
0.000550999
0.00054796
0.000545141
0.00054253
0.000540115
0.00053788
0.000535813
0.000533901
0.000532137
0.000530508
0.000529004
0.000527614
0.000526328
0.000525136
0.000524029
0.000522999
0.000522038
0.00052114
0.000520298
0.000519506
0.000518759
0.000518051
0.000517379
0.000516739
0.000516126
0.000515538
0.000514971
0.000514423
0.000513891
0.000513374
0.000512869
0.000512375
0.000511889
0.000511411
0.000510939
0.000510473
0.00051001
0.00050955
0.000509093
0.000508637
0.000508182
0.000507726
0.000507269
0.000506809
0.000640719
0.000634887
0.000629283
0.000623921
0.000618809
0.000613955
0.00060936
0.000605026
0.000600951
0.00059713
0.000593559
0.000590229
0.00058713
0.000584253
0.000581586
0.000579117
0.000576832
0.000574719
0.000572763
0.000570957
0.00056929
0.000567749
0.000566325
0.000565007
0.000563785
0.000562651
0.000561597
0.000560613
0.000559694
0.000558833
0.000558024
0.00055726
0.000556538
0.000555853
0.0005552
0.000554576
0.000553977
0.000553401
0.000552845
0.000552305
0.000551781
0.000551269
0.000550769
0.000550277
0.000549794
0.000549318
0.000548847
0.00054838
0.000547916
0.000547456
0.000546996
0.000546538
0.000546079
0.000545618
0.000545152
0.000674081
0.000668365
0.00066286
0.00065758
0.000652535
0.000647732
0.000643176
0.00063887
0.000634813
0.000631004
0.000627436
0.000624104
0.000621001
0.000618115
0.000615438
0.000612958
0.000610661
0.000608536
0.00060657
0.000604753
0.000603074
0.000601523
0.000600088
0.000598761
0.00059753
0.000596388
0.000595325
0.000594335
0.00059341
0.000592543
0.000591729
0.000590962
0.000590236
0.000589548
0.000588893
0.000588267
0.000587667
0.00058709
0.000586533
0.000585993
0.000585469
0.000584957
0.000584458
0.000583967
0.000583486
0.00058301
0.000582541
0.000582076
0.000581614
0.000581156
0.000580698
0.000580242
0.000579786
0.000579327
0.000578861
0.000702136
0.000696622
0.000691296
0.000686174
0.000681268
0.000676586
0.000672136
0.00066792
0.00066394
0.000660196
0.000656685
0.000653401
0.000650337
0.000647486
0.000644837
0.000642382
0.000640107
0.000638001
0.000636052
0.00063425
0.000632585
0.000631045
0.00062962
0.000628301
0.000627079
0.000625945
0.00062489
0.000623907
0.000622989
0.000622128
0.000621321
0.00062056
0.000619841
0.000619159
0.00061851
0.00061789
0.000617296
0.000616726
0.000616175
0.000615642
0.000615124
0.000614619
0.000614126
0.000613642
0.000613167
0.000612698
0.000612236
0.000611778
0.000611323
0.000610871
0.000610421
0.000609972
0.000609522
0.00060907
0.000608608
0.000725616
0.000720371
0.00071529
0.000710389
0.000705681
0.000701178
0.000696887
0.000692813
0.00068896
0.000685329
0.000681917
0.000678721
0.000675736
0.000672955
0.000670369
0.000667969
0.000665745
0.000663685
0.000661778
0.000660014
0.000658382
0.000656873
0.000655477
0.000654184
0.000652985
0.000651873
0.000650839
0.000649875
0.000648975
0.000648132
0.000647341
0.000646595
0.000645891
0.000645224
0.000644589
0.000643982
0.000643402
0.000642844
0.000642306
0.000641785
0.000641279
0.000640786
0.000640304
0.000639832
0.000639368
0.000638911
0.00063846
0.000638013
0.00063757
0.000637129
0.00063669
0.000636252
0.000635813
0.000635372
0.000634924
0.000634456
0.0007451
0.000740189
0.000735402
0.000730772
0.000726312
0.000722034
0.000717947
0.000714059
0.000710374
0.000706894
0.000703619
0.000700547
0.000697674
0.000694994
0.000692499
0.000690182
0.000688034
0.000686043
0.000684199
0.000682492
0.000680912
0.000679451
0.000678099
0.000676846
0.000675685
0.000674608
0.000673606
0.000672672
0.000671801
0.000670985
0.000670218
0.000669497
0.000668815
0.00066817
0.000667555
0.000666969
0.000666408
0.000665868
0.000665348
0.000664844
0.000664355
0.000663879
0.000663414
0.000662958
0.00066251
0.000662068
0.000661632
0.000661201
0.000660773
0.000660347
0.000659923
0.000659499
0.000659076
0.000658649
0.000658217
0.000657772
0.000756528
0.00075209
0.000747773
0.000743599
0.000739583
0.000735737
0.000732069
0.000728587
0.000725291
0.000722185
0.000719267
0.000716534
0.000713982
0.000711604
0.000709393
0.000707341
0.000705439
0.000703678
0.000702046
0.000700535
0.000699136
0.000697842
0.000696643
0.000695531
0.0006945
0.000693541
0.000692647
0.000691813
0.000691032
0.000690299
0.000689609
0.000688958
0.00068834
0.000687753
0.000687192
0.000686655
0.00068614
0.000685642
0.000685161
0.000684694
0.000684238
0.000683793
0.000683358
0.000682929
0.000682507
0.00068209
0.000681677
0.000681267
0.00068086
0.000680454
0.000680049
0.000679643
0.000679235
0.000678822
0.000678397
0.000769832
0.000765745
0.000761762
0.0007579
0.000754176
0.000750601
0.000747185
0.000743933
0.000740851
0.00073794
0.000735202
0.000732633
0.000730231
0.000727992
0.000725907
0.000723972
0.000722177
0.000720513
0.000718971
0.000717543
0.000716221
0.000714997
0.000713863
0.000712812
0.000711837
0.00071093
0.000710085
0.000709297
0.000708559
0.000707867
0.000707215
0.000706599
0.000706015
0.000705461
0.000704931
0.000704424
0.000703937
0.000703467
0.000703012
0.000702571
0.00070214
0.00070172
0.000701308
0.000700902
0.000700503
0.000700109
0.000699718
0.00069933
0.000698944
0.00069856
0.000698176
0.000697791
0.000697404
0.000697011
0.000696607
0.000780585
0.000776883
0.000773265
0.000769748
0.000766347
0.000763074
0.000759938
0.000756946
0.000754103
0.000751414
0.000748879
0.000746498
0.000744268
0.000742186
0.000740247
0.000738444
0.000736771
0.00073522
0.00073378
0.000732446
0.000731211
0.000730067
0.000729007
0.000728025
0.000727113
0.000726265
0.000725475
0.000724737
0.000724047
0.000723398
0.000722788
0.000722211
0.000721665
0.000721145
0.000720648
0.000720173
0.000719715
0.000719274
0.000718846
0.000718431
0.000718026
0.00071763
0.000717242
0.000716859
0.000716482
0.00071611
0.00071574
0.000715374
0.000715008
0.000714644
0.00071428
0.000713915
0.000713547
0.000713174
0.000712788
0.000788556
0.000785269
0.000782032
0.000778881
0.000775823
0.000772872
0.000770035
0.000767322
0.000764738
0.000762288
0.000759974
0.000757797
0.000755756
0.000753848
0.00075207
0.000750415
0.000748878
0.000747452
0.000746128
0.000744901
0.000743765
0.000742713
0.000741739
0.000740836
0.000739998
0.000739219
0.000738494
0.000737817
0.000737184
0.000736589
0.000736029
0.0007355
0.000734999
0.000734521
0.000734066
0.000733629
0.000733209
0.000732804
0.000732411
0.000732029
0.000731657
0.000731292
0.000730935
0.000730582
0.000730235
0.000729891
0.00072955
0.000729211
0.000728873
0.000728536
0.000728199
0.000727861
0.000727519
0.000727171
0.000726809
0.000790998
0.000788184
0.000785391
0.000782673
0.000780039
0.000777499
0.000775063
0.000772739
0.00077053
0.00076844
0.000766472
0.000764625
0.000762898
0.000761287
0.000759788
0.000758395
0.000757102
0.000755902
0.000754792
0.000753765
0.000752815
0.000751936
0.000751122
0.000750368
0.000749668
0.000749017
0.00074841
0.000747843
0.000747312
0.000746812
0.00074634
0.000745894
0.00074547
0.000745065
0.000744677
0.000744305
0.000743946
0.000743598
0.00074326
0.00074293
0.000742607
0.000742291
0.000741979
0.000741672
0.000741367
0.000741066
0.000740766
0.000740467
0.000740168
0.000739869
0.000739569
0.000739265
0.000738954
0.000738626
0.000792318
0.000789882
0.000787489
0.000785159
0.000782906
0.000780739
0.000778667
0.000776695
0.000774827
0.000773066
0.000771412
0.000769865
0.000768423
0.000767081
0.000765835
0.000764678
0.000763607
0.000762617
0.000761702
0.000760858
0.000760078
0.000759358
0.000758692
0.000758076
0.000757504
0.000756972
0.000756477
0.000756013
0.000755579
0.00075517
0.000754784
0.000754417
0.000754069
0.000753735
0.000753416
0.000753108
0.00075281
0.000752521
0.00075224
0.000751965
0.000751695
0.00075143
0.000751168
0.000750909
0.000750653
0.000750397
0.000750143
0.000749889
0.000749635
0.000749379
0.000749119
0.000748851
0.000748564
0.000794958
0.000792815
0.000790716
0.00078867
0.000786688
0.000784779
0.00078295
0.000781206
0.000779553
0.000777993
0.000776528
0.000775157
0.00077388
0.000772693
0.000771592
0.000770572
0.000769628
0.000768757
0.000767956
0.000767217
0.000766538
0.000765912
0.000765336
0.000764804
0.000764312
0.000763857
0.000763434
0.000763041
0.000762673
0.000762328
0.000762003
0.000761697
0.000761406
0.000761129
0.000760864
0.000760609
0.000760364
0.000760126
0.000759895
0.000759669
0.000759449
0.000759232
0.000759018
0.000758807
0.000758598
0.00075839
0.000758183
0.000757976
0.000757768
0.000757559
0.000757346
0.000757123
0.00075688
0.000796363
0.000794504
0.000792682
0.000790904
0.000789179
0.000787513
0.000785915
0.000784389
0.00078294
0.000781573
0.000780289
0.000779088
0.00077797
0.000776932
0.000775972
0.000775085
0.000774266
0.000773513
0.000772821
0.000772186
0.000771605
0.000771072
0.000770583
0.000770134
0.000769721
0.000769341
0.00076899
0.000768665
0.000768363
0.000768081
0.000767818
0.00076757
0.000767336
0.000767115
0.000766904
0.000766702
0.000766508
0.000766321
0.000766139
0.000765963
0.000765791
0.000765622
0.000765455
0.000765291
0.000765129
0.000764968
0.000764807
0.000764647
0.000764486
0.000764323
0.000764156
0.000763978
0.000763778
0.000796788
0.000795202
0.000793642
0.000792117
0.000790634
0.000789198
0.000787817
0.000786496
0.000785242
0.000784057
0.000782944
0.000781905
0.000780938
0.000780044
0.000779218
0.000778457
0.000777758
0.000777117
0.000776531
0.000775996
0.000775508
0.000775063
0.000774659
0.000774289
0.000773952
0.000773644
0.000773362
0.000773102
0.000772863
0.000772642
0.000772437
0.000772245
0.000772066
0.000771897
0.000771737
0.000771585
0.00077144
0.000771301
0.000771167
0.000771037
0.000770911
0.000770787
0.000770666
0.000770547
0.000770429
0.000770312
0.000770195
0.000770079
0.000769962
0.000769843
0.000769719
0.000769584
0.000769424
0.000796439
0.000795111
0.000793799
0.000792511
0.000791254
0.000790034
0.000788857
0.000787729
0.000786656
0.000785643
0.000784691
0.000783803
0.00078298
0.000782219
0.00078152
0.000780878
0.000780292
0.000779757
0.00077927
0.000778829
0.00077843
0.000778069
0.000777743
0.000777448
0.000777182
0.000776941
0.000776723
0.000776525
0.000776344
0.000776179
0.000776028
0.000775888
0.000775759
0.000775639
0.000775526
0.00077542
0.00077532
0.000775225
0.000775134
0.000775047
0.000774962
0.00077488
0.0007748
0.000774721
0.000774643
0.000774566
0.00077449
0.000774413
0.000774336
0.000774256
0.000774172
0.000774075
0.000773952
0.000795482
0.000794393
0.000793312
0.000792247
0.000791201
0.000790181
0.000789194
0.000788245
0.000787342
0.000786487
0.000785686
0.00078494
0.000784249
0.000783613
0.000783031
0.0007825
0.000782019
0.000781582
0.000781188
0.000780834
0.000780517
0.000780233
0.000779979
0.000779754
0.000779552
0.000779373
0.000779213
0.00077907
0.000778943
0.000778828
0.000778725
0.000778633
0.000778548
0.000778471
0.000778401
0.000778336
0.000778276
0.000778219
0.000778166
0.000778116
0.000778068
0.000778021
0.000777976
0.000777933
0.00077789
0.000777847
0.000777805
0.000777763
0.00077772
0.000777675
0.000777624
0.00077756
0.000777469
0.000794043
0.000793177
0.000792311
0.00079145
0.0007906
0.000789766
0.000788954
0.000788171
0.000787424
0.000786717
0.000786054
0.000785438
0.00078487
0.000784349
0.000783875
0.000783446
0.00078306
0.000782713
0.000782404
0.000782129
0.000781886
0.000781672
0.000781484
0.00078132
0.000781177
0.000781053
0.000780945
0.000780851
0.00078077
0.0007807
0.000780639
0.000780586
0.000780541
0.000780501
0.000780466
0.000780436
0.000780409
0.000780385
0.000780363
0.000780344
0.000780326
0.000780309
0.000780293
0.000780278
0.000780264
0.000780249
0.000780235
0.00078022
0.000780205
0.000780187
0.000780164
0.000780127
0.000780061
0.000792226
0.000791564
0.000790895
0.000790223
0.000789552
0.000788888
0.000788237
0.000787606
0.000787003
0.000786431
0.000785896
0.000785399
0.000784942
0.000784526
0.00078415
0.000783813
0.000783513
0.000783247
0.000783014
0.00078281
0.000782633
0.000782481
0.000782351
0.000782241
0.000782148
0.000782071
0.000782008
0.000781956
0.000781914
0.000781881
0.000781856
0.000781836
0.000781822
0.000781812
0.000781806
0.000781803
0.000781802
0.000781804
0.000781807
0.000781811
0.000781816
0.000781821
0.000781827
0.000781834
0.00078184
0.000781847
0.000781853
0.000781858
0.000781863
0.000781865
0.000781861
0.000781844
0.000781798
0.000790107
0.000789632
0.000789142
0.000788642
0.000788135
0.000787626
0.000787122
0.00078663
0.000786157
0.000785709
0.000785289
0.0007849
0.000784544
0.000784223
0.000783935
0.00078368
0.000783456
0.000783261
0.000783094
0.000782952
0.000782832
0.000782734
0.000782653
0.000782589
0.000782539
0.000782501
0.000782474
0.000782456
0.000782446
0.000782442
0.000782444
0.00078245
0.00078246
0.000782472
0.000782487
0.000782504
0.000782521
0.00078254
0.00078256
0.00078258
0.0007826
0.00078262
0.00078264
0.000782659
0.000782679
0.000782698
0.000782716
0.000782733
0.000782749
0.000782763
0.00078277
0.000782765
0.000782731
0.000787606
0.000787309
0.000786989
0.000786651
0.000786299
0.000785938
0.000785575
0.000785216
0.000784869
0.000784538
0.000784227
0.000783941
0.000783681
0.000783449
0.000783243
0.000783065
0.000782911
0.000782782
0.000782676
0.000782589
0.000782521
0.00078247
0.000782433
0.000782408
0.000782394
0.00078239
0.000782393
0.000782402
0.000782417
0.000782436
0.000782458
0.000782483
0.000782509
0.000782537
0.000782565
0.000782594
0.000782623
0.000782652
0.00078268
0.000782708
0.000782736
0.000782762
0.000782788
0.000782813
0.000782837
0.000782859
0.000782881
0.000782902
0.000782921
0.000782937
0.000782947
0.000782945
0.000782917
0.000784575
0.00078445
0.000784296
0.000784116
0.000783915
0.000783698
0.000783471
0.000783241
0.000783014
0.000782796
0.000782591
0.000782403
0.000782233
0.000782083
0.000781954
0.000781846
0.000781757
0.000781686
0.000781632
0.000781594
0.000781569
0.000781557
0.000781554
0.00078156
0.000781574
0.000781593
0.000781617
0.000781644
0.000781674
0.000781705
0.000781737
0.00078177
0.000781802
0.000781834
0.000781865
0.000781895
0.000781923
0.00078195
0.000781975
0.000781999
0.000782021
0.000782042
0.00078206
0.000782077
0.000782093
0.000782106
0.000782118
0.000782128
0.000782136
0.000782141
0.00078214
0.000782127
0.00078209
0.000781035
0.000781076
0.000781081
0.000781053
0.000780997
0.000780917
0.000780819
0.000780711
0.000780597
0.000780485
0.000780377
0.000780278
0.000780191
0.000780116
0.000780055
0.000780007
0.000779973
0.000779952
0.000779942
0.000779942
0.000779951
0.000779967
0.000779989
0.000780016
0.000780046
0.000780079
0.000780112
0.000780146
0.00078018
0.000780213
0.000780244
0.000780273
0.0007803
0.000780324
0.000780346
0.000780364
0.00078038
0.000780393
0.000780403
0.000780411
0.000780415
0.000780416
0.000780415
0.000780411
0.000780405
0.000780395
0.000780384
0.00078037
0.000780353
0.000780332
0.000780305
0.000780266
0.000780205
0.000776939
0.000777142
0.0007773
0.000777418
0.0007775
0.00077755
0.000777576
0.000777582
0.000777574
0.000777559
0.000777542
0.000777525
0.000777511
0.000777503
0.000777501
0.000777507
0.000777519
0.000777537
0.000777562
0.000777591
0.000777623
0.000777658
0.000777695
0.000777732
0.000777769
0.000777804
0.000777837
0.000777867
0.000777894
0.000777916
0.000777935
0.00077795
0.00077796
0.000777965
0.000777966
0.000777962
0.000777953
0.00077794
0.000777923
0.000777901
0.000777875
0.000777845
0.000777811
0.000777773
0.000777732
0.000777687
0.000777638
0.000777586
0.000777531
0.00077747
0.000777403
0.000777325
0.000777225
0.000772237
0.000772596
0.000772902
0.00077316
0.000773373
0.000773548
0.000773689
0.000773802
0.000773893
0.000773969
0.000774033
0.00077409
0.000774143
0.000774193
0.000774242
0.000774291
0.00077434
0.00077439
0.000774439
0.000774487
0.000774534
0.000774578
0.000774619
0.000774656
0.000774689
0.000774716
0.000774738
0.000774753
0.000774762
0.000774765
0.00077476
0.000774749
0.00077473
0.000774705
0.000774673
0.000774635
0.00077459
0.000774539
0.000774482
0.000774419
0.00077435
0.000774276
0.000774196
0.000774112
0.000774022
0.000773928
0.000773829
0.000773726
0.000773618
0.000773504
0.000773383
0.000773249
0.000773095
0.000766869
0.000767378
0.000767827
0.000768218
0.000768557
0.000768849
0.000769098
0.000769311
0.000769495
0.000769653
0.000769791
0.000769914
0.000770024
0.000770124
0.000770215
0.000770299
0.000770376
0.000770447
0.000770512
0.00077057
0.000770621
0.000770664
0.000770699
0.000770726
0.000770744
0.000770753
0.000770753
0.000770743
0.000770723
0.000770694
0.000770654
0.000770606
0.000770548
0.000770481
0.000770404
0.00077032
0.000770226
0.000770125
0.000770016
0.000769899
0.000769775
0.000769644
0.000769506
0.000769361
0.00076921
0.000769053
0.000768891
0.000768722
0.000768547
0.000768365
0.000768175
0.000767973
0.000767749
0.000760767
0.000761422
0.000762006
0.000762525
0.000762982
0.000763384
0.000763735
0.00076404
0.000764307
0.00076454
0.000764745
0.000764924
0.000765083
0.000765224
0.000765348
0.000765458
0.000765554
0.000765637
0.000765707
0.000765765
0.000765809
0.000765842
0.000765861
0.000765867
0.00076586
0.00076584
0.000765806
0.00076576
0.0007657
0.000765627
0.000765542
0.000765445
0.000765335
0.000765214
0.000765081
0.000764938
0.000764784
0.00076462
0.000764446
0.000764263
0.00076407
0.000763869
0.000763659
0.000763441
0.000763215
0.000762982
0.000762741
0.000762493
0.000762237
0.000761973
0.000761699
0.000761412
0.000761104
0.000753854
0.000754647
0.000755361
0.000756
0.000756569
0.000757073
0.000757517
0.000757907
0.000758249
0.000758548
0.000758809
0.000759038
0.000759236
0.000759409
0.000759556
0.000759682
0.000759787
0.000759872
0.000759937
0.000759984
0.000760013
0.000760023
0.000760015
0.00075999
0.000759947
0.000759886
0.000759808
0.000759713
0.000759602
0.000759475
0.000759332
0.000759173
0.000759
0.000758813
0.000758611
0.000758397
0.000758169
0.000757929
0.000757678
0.000757415
0.00075714
0.000756855
0.00075656
0.000756255
0.00075594
0.000755616
0.000755282
0.000754939
0.000754587
0.000754226
0.000753853
0.000753466
0.000753057
0.00074604
0.000746964
0.000747799
0.00074855
0.000749222
0.00074982
0.000750349
0.000750815
0.000751223
0.000751579
0.000751888
0.000752155
0.000752384
0.000752577
0.000752739
0.00075287
0.000752973
0.000753049
0.0007531
0.000753125
0.000753126
0.000753103
0.000753057
0.000752989
0.000752898
0.000752785
0.000752651
0.000752496
0.000752321
0.000752127
0.000751913
0.000751682
0.000751432
0.000751165
0.000750882
0.000750583
0.000750269
0.00074994
0.000749597
0.00074924
0.00074887
0.000748487
0.000748092
0.000747685
0.000747266
0.000746836
0.000746394
0.000745941
0.000745478
0.000745002
0.000744514
0.000744011
0.000743485
0.00073722
0.000738265
0.000739213
0.000740068
0.000740834
0.000741517
0.000742121
0.000742652
0.000743116
0.000743518
0.000743865
0.00074416
0.000744408
0.000744612
0.000744776
0.000744902
0.000744992
0.000745048
0.000745072
0.000745064
0.000745025
0.000744958
0.000744862
0.000744738
0.000744586
0.000744409
0.000744206
0.000743979
0.000743728
0.000743453
0.000743156
0.000742838
0.000742498
0.000742139
0.000741761
0.000741363
0.000740948
0.000740516
0.000740067
0.000739602
0.000739121
0.000738626
0.000738115
0.000737591
0.000737052
0.0007365
0.000735934
0.000735355
0.000734763
0.000734157
0.000733537
0.000732899
0.000732237
0.000727271
0.000728428
0.000729478
0.000730426
0.000731275
0.000732031
0.000732699
0.000733284
0.000733792
0.00073423
0.000734602
0.000734913
0.000735168
0.000735372
0.000735526
0.000735634
0.000735699
0.000735723
0.000735707
0.000735653
0.000735563
0.000735437
0.000735278
0.000735086
0.000734861
0.000734606
0.000734321
0.000734007
0.000733666
0.000733297
0.000732903
0.000732484
0.000732041
0.000731574
0.000731086
0.000730576
0.000730045
0.000729494
0.000728924
0.000728335
0.000727728
0.000727103
0.000726461
0.000725803
0.000725128
0.000724437
0.00072373
0.000723007
0.000722269
0.000721514
0.000720743
0.000719952
0.000719137
0.000716482
0.000717731
0.000718864
0.000719885
0.000720798
0.000721607
0.000722319
0.00072294
0.000723474
0.000723927
0.000724307
0.000724616
0.000724861
0.000725045
0.000725172
0.000725245
0.000725268
0.000725242
0.000725169
0.000725053
0.000724893
0.000724693
0.000724453
0.000724175
0.00072386
0.00072351
0.000723126
0.000722708
0.000722259
0.000721779
0.000721269
0.000720731
0.000720165
0.000719573
0.000718956
0.000718314
0.000717648
0.000716959
0.000716247
0.000715515
0.000714761
0.000713986
0.000713192
0.000712378
0.000711545
0.000710692
0.000709821
0.000708932
0.000708024
0.000707097
0.00070615
0.000705181
0.000704186
0.000704541
0.000705864
0.000707062
0.000708137
0.000709095
0.000709941
0.000710679
0.000711317
0.000711859
0.000712312
0.000712681
0.000712972
0.00071319
0.000713338
0.000713421
0.000713442
0.000713405
0.000713313
0.000713167
0.000712971
0.000712725
0.000712433
0.000712096
0.000711715
0.000711293
0.00071083
0.000710328
0.000709789
0.000709214
0.000708604
0.000707961
0.000707286
0.000706579
0.000705843
0.000705077
0.000704283
0.000703463
0.000702616
0.000701743
0.000700846
0.000699924
0.000698979
0.000698011
0.000697019
0.000696005
0.000694969
0.000693911
0.000692831
0.000691729
0.000690605
0.000689458
0.000688286
0.000687086
0.000690193
0.000691584
0.000692839
0.000693962
0.000694958
0.000695832
0.000696589
0.000697236
0.000697777
0.00069822
0.00069857
0.000698832
0.000699012
0.000699114
0.000699143
0.000699101
0.000698994
0.000698824
0.000698593
0.000698305
0.000697962
0.000697566
0.000697119
0.000696623
0.000696081
0.000695493
0.000694862
0.000694188
0.000693475
0.000692723
0.000691933
0.000691107
0.000690246
0.000689352
0.000688425
0.000687467
0.000686478
0.00068546
0.000684412
0.000683336
0.000682233
0.000681103
0.000679946
0.000678763
0.000677554
0.000676319
0.000675059
0.000673773
0.000672462
0.000671125
0.000669762
0.000668371
0.000666949
0.000672648
0.000674098
0.000675402
0.000676563
0.000677587
0.000678479
0.000679245
0.00067989
0.00068042
0.000680842
0.000681161
0.000681384
0.000681514
0.000681559
0.000681521
0.000681405
0.000681216
0.000680956
0.000680629
0.000680238
0.000679785
0.000679273
0.000678705
0.000678083
0.000677409
0.000676685
0.000675912
0.000675093
0.00067423
0.000673324
0.000672376
0.000671389
0.000670363
0.000669299
0.0006682
0.000667066
0.000665897
0.000664696
0.000663462
0.000662197
0.000660901
0.000659574
0.000658218
0.000656832
0.000655416
0.000653971
0.000652498
0.000650995
0.000649463
0.000647902
0.000646311
0.000644689
0.000643034
0.000651106
0.000652604
0.000653946
0.000655136
0.00065618
0.000657081
0.000657846
0.000658481
0.000658992
0.000659385
0.000659666
0.000659842
0.000659918
0.000659898
0.000659789
0.000659594
0.000659318
0.000658965
0.000658538
0.000658041
0.000657476
0.000656847
0.000656156
0.000655407
0.0006546
0.00065374
0.000652827
0.000651863
0.000650852
0.000649793
0.00064869
0.000647544
0.000646356
0.000645128
0.00064386
0.000642555
0.000641212
0.000639834
0.00063842
0.000636971
0.000635489
0.000633974
0.000632425
0.000630844
0.00062923
0.000627585
0.000625907
0.000624197
0.000622455
0.00062068
0.000618873
0.000617031
0.000615153
0.000624453
0.000625988
0.00062736
0.000628572
0.000629628
0.000630533
0.000631295
0.000631917
0.000632408
0.000632773
0.000633019
0.000633151
0.000633177
0.0006331
0.000632927
0.000632662
0.00063231
0.000631875
0.000631362
0.000630773
0.000630112
0.000629383
0.000628588
0.00062773
0.000626812
0.000625837
0.000624807
0.000623723
0.000622589
0.000621405
0.000620175
0.000618898
0.000617579
0.000616216
0.000614813
0.000613369
0.000611887
0.000610367
0.00060881
0.000607216
0.000605587
0.000603923
0.000602224
0.000600491
0.000598723
0.000596922
0.000595086
0.000593217
0.000591313
0.000589375
0.000587403
0.000585394
0.000583348
0.000590439
0.000591993
0.000593378
0.000594598
0.000595657
0.00059656
0.000597313
0.000597923
0.000598395
0.000598737
0.000598955
0.000599054
0.000599042
0.000598923
0.000598704
0.00059839
0.000597985
0.000597494
0.000596921
0.00059627
0.000595545
0.000594749
0.000593886
0.000592958
0.000591969
0.000590921
0.000589817
0.000588659
0.000587449
0.00058619
0.000584882
0.000583529
0.000582132
0.000580692
0.000579211
0.000577689
0.000576129
0.00057453
0.000572895
0.000571223
0.000569516
0.000567774
0.000565997
0.000564186
0.00056234
0.000560461
0.000558548
0.000556601
0.00055462
0.000552605
0.000550556
0.000548471
0.000546349
0.000545329
0.000546867
0.000548236
0.000549441
0.000550486
0.000551376
0.000552116
0.000552713
0.000553173
0.000553502
0.000553708
0.000553796
0.000553773
0.000553644
0.000553415
0.000553091
0.000552677
0.000552177
0.000551597
0.00055094
0.00055021
0.000549411
0.000548546
0.000547617
0.000546629
0.000545584
0.000544485
0.000543333
0.000542132
0.000540883