/*--------------------------------*- C++ -*----------------------------------*\
  =========                 |
  \\      /  F ield         | OpenFOAM: The Open Source CFD Toolbox
   \\    /   O peration     | Website:  https://openfoam.org
    \\  /    A nd           | Version:  6
     \\/     M anipulation  |
\*---------------------------------------------------------------------------*/
FoamFile
{
    version     2.0;
    format      ascii;
    class       volScalarField;
    location    "0.09";
    object      p;
}
// * * * * * * * * * * * * * * * * * * * * * * * * * * * * * * * * * * * * * //

dimensions      [0 2 -2 0 0 0 0];

internalField   nonuniform List<scalar> 
3081
(
0.205237
0.204303
0.203383
0.20248
0.201597
0.200737
0.199903
0.199095
0.198314
0.197562
0.196839
0.196145
0.195479
0.194843
0.194236
0.193661
0.193113
0.192585
0.192078
0.191596
0.191136
0.1907
0.190285
0.189891
0.189517
0.189161
0.188823
0.188502
0.188196
0.187904
0.187627
0.187362
0.187109
0.186867
0.186636
0.186414
0.186201
0.185997
0.185799
0.185609
0.185425
0.185247
0.185075
0.184907
0.184743
0.184584
0.184428
0.184275
0.184125
0.183978
0.183833
0.18369
0.183549
0.183409
0.183272
0.183135
0.183
0.204141
0.203316
0.202496
0.201684
0.200885
0.200102
0.199337
0.198592
0.197868
0.197168
0.196491
0.195838
0.195209
0.194606
0.194027
0.193471
0.192939
0.192432
0.191948
0.191485
0.191042
0.19062
0.190218
0.189834
0.189469
0.189121
0.188789
0.188473
0.188171
0.187884
0.187609
0.187347
0.187097
0.186857
0.186627
0.186406
0.186194
0.18599
0.185793
0.185603
0.18542
0.185242
0.185069
0.184901
0.184738
0.184578
0.184422
0.184269
0.184118
0.183971
0.183826
0.183682
0.183541
0.183401
0.183263
0.183126
0.182991
0.202917
0.202211
0.201501
0.20079
0.200083
0.199384
0.198695
0.19802
0.197359
0.196715
0.196089
0.195482
0.194895
0.194328
0.193782
0.193256
0.192751
0.192268
0.191804
0.19136
0.190934
0.190527
0.190137
0.189765
0.18941
0.18907
0.188746
0.188436
0.188141
0.187858
0.187588
0.187329
0.187081
0.186844
0.186616
0.186397
0.186186
0.185984
0.185788
0.185599
0.185416
0.185238
0.185066
0.184898
0.184734
0.184575
0.184418
0.184265
0.184115
0.183967
0.183822
0.183678
0.183537
0.183397
0.183258
0.183121
0.182985
0.201757
0.201155
0.20054
0.199919
0.199294
0.198671
0.198052
0.19744
0.196837
0.196247
0.195669
0.195106
0.194559
0.194029
0.193515
0.193018
0.192539
0.192079
0.191636
0.191211
0.190802
0.190411
0.190035
0.189676
0.189332
0.189002
0.188687
0.188385
0.188096
0.187819
0.187554
0.1873
0.187056
0.186822
0.186597
0.186381
0.186173
0.185972
0.185778
0.18559
0.185408
0.185231
0.18506
0.184893
0.18473
0.18457
0.184415
0.184262
0.184112
0.183964
0.183818
0.183675
0.183533
0.183393
0.183255
0.183118
0.182982
0.200716
0.2002
0.199665
0.199118
0.198563
0.198004
0.197444
0.196888
0.196336
0.195793
0.195258
0.194735
0.194224
0.193726
0.193242
0.192773
0.192319
0.191881
0.191459
0.191052
0.19066
0.190284
0.189922
0.189575
0.189242
0.188923
0.188616
0.188323
0.188041
0.18777
0.187511
0.187262
0.187023
0.186793
0.186571
0.186358
0.186153
0.185954
0.185762
0.185576
0.185396
0.185221
0.18505
0.184884
0.184722
0.184563
0.184408
0.184256
0.184106
0.183959
0.183814
0.18367
0.183529
0.183389
0.183251
0.183114
0.182978
0.199759
0.199315
0.198849
0.198367
0.197872
0.197369
0.196863
0.196355
0.195849
0.195348
0.194852
0.194365
0.193887
0.19342
0.192965
0.192522
0.192091
0.191675
0.191272
0.190883
0.190508
0.190147
0.189799
0.189465
0.189143
0.188834
0.188537
0.188251
0.187977
0.187714
0.18746
0.187217
0.186982
0.186757
0.186539
0.18633
0.186127
0.185931
0.185742
0.185558
0.18538
0.185206
0.185037
0.184873
0.184712
0.184554
0.1844
0.184248
0.184099
0.183952
0.183808
0.183665
0.183524
0.183384
0.183246
0.183109
0.182973
0.198483
0.198077
0.197651
0.19721
0.196758
0.196298
0.195835
0.19537
0.194907
0.194448
0.193994
0.193548
0.19311
0.192681
0.192263
0.191855
0.19146
0.191077
0.190706
0.190347
0.190001
0.189667
0.189345
0.189034
0.188736
0.188448
0.188172
0.187905
0.187649
0.187402
0.187165
0.186936
0.186715
0.186502
0.186296
0.186097
0.185904
0.185718
0.185536
0.18536
0.185189
0.185022
0.184859
0.184699
0.184543
0.184389
0.184239
0.18409
0.183944
0.1838
0.183658
0.183518
0.183379
0.183241
0.183104
0.182969
0.197691
0.197339
0.196964
0.19657
0.196163
0.195747
0.195324
0.194897
0.19447
0.194044
0.193622
0.193204
0.192794
0.192391
0.191996
0.191611
0.191236
0.190872
0.190519
0.190176
0.189845
0.189525
0.189216
0.188917
0.188629
0.188352
0.188084
0.187826
0.187577
0.187337
0.187106
0.186883
0.186667
0.186459
0.186257
0.186062
0.185873
0.18569
0.185511
0.185338
0.185169
0.185003
0.184842
0.184684
0.184529
0.184377
0.184228
0.184081
0.183935
0.183792
0.183651
0.183511
0.183372
0.183235
0.183099
0.182963
0.196626
0.196297
0.195947
0.195582
0.195204
0.194819
0.194427
0.194033
0.193639
0.193246
0.192857
0.192472
0.192094
0.191723
0.191359
0.191004
0.190659
0.190323
0.189997
0.189681
0.189375
0.189078
0.188792
0.188515
0.188248
0.187989
0.18774
0.187499
0.187266
0.187042
0.186825
0.186615
0.186411
0.186214
0.186023
0.185838
0.185658
0.185483
0.185312
0.185145
0.184983
0.184823
0.184667
0.184514
0.184363
0.184215
0.184069
0.183925
0.183783
0.183642
0.183503
0.183365
0.183228
0.183093
0.182958
0.195933
0.195646
0.195336
0.195009
0.194668
0.194317
0.193959
0.193597
0.193232
0.192867
0.192505
0.192145
0.191791
0.191442
0.1911
0.190765
0.190438
0.190119
0.189809
0.189508
0.189216
0.188933
0.188659
0.188393
0.188136
0.187888
0.187647
0.187415
0.18719
0.186972
0.186761
0.186557
0.186359
0.186167
0.185981
0.1858
0.185623
0.185451
0.185284
0.18512
0.184959
0.184802
0.184648
0.184497
0.184348
0.184201
0.184057
0.183914
0.183773
0.183633
0.183495
0.183357
0.183221
0.183086
0.182952
0.195255
0.195007
0.194735
0.194443
0.194137
0.193818
0.193491
0.193159
0.192822
0.192485
0.192148
0.191813
0.191481
0.191154
0.190833
0.190518
0.190209
0.189908
0.189614
0.189328
0.18905
0.188781
0.188519
0.188265
0.188018
0.18778
0.187549
0.187325
0.187107
0.186897
0.186693
0.186495
0.186303
0.186116
0.185934
0.185757
0.185585
0.185417
0.185252
0.185092
0.184934
0.18478
0.184628
0.184478
0.184331
0.184186
0.184043
0.183902
0.183762
0.183623
0.183485
0.183349
0.183214
0.183079
0.182945
0.194589
0.194377
0.19414
0.193882
0.193608
0.19332
0.193023
0.192719
0.19241
0.192098
0.191786
0.191475
0.191166
0.190861
0.190559
0.190263
0.189973
0.189689
0.189412
0.189141
0.188878
0.188621
0.188372
0.18813
0.187894
0.187666
0.187444
0.187229
0.18702
0.186817
0.18662
0.186429
0.186243
0.186061
0.185885
0.185712
0.185544
0.18538
0.185219
0.185061
0.184907
0.184755
0.184605
0.184458
0.184313
0.18417
0.184028
0.183888
0.183749
0.183612
0.183475
0.18334
0.183205
0.183071
0.182938
0.182805
0.193932
0.193754
0.19355
0.193324
0.19308
0.192822
0.192554
0.192277
0.191994
0.191708
0.19142
0.191132
0.190845
0.190561
0.19028
0.190003
0.189731
0.189464
0.189203
0.188948
0.188698
0.188456
0.188219
0.187989
0.187765
0.187547
0.187335
0.187129
0.186928
0.186733
0.186543
0.186359
0.186179
0.186003
0.185832
0.185664
0.1855
0.18534
0.185183
0.185029
0.184877
0.184728
0.184581
0.184436
0.184293
0.184152
0.184012
0.183874
0.183736
0.1836
0.183465
0.18333
0.183197
0.183063
0.182931
0.182799
0.193136
0.192964
0.192768
0.192553
0.192324
0.192082
0.191832
0.191575
0.191313
0.191049
0.190783
0.190518
0.190255
0.189994
0.189736
0.189482
0.189232
0.188987
0.188748
0.188513
0.188284
0.18806
0.187842
0.18763
0.187422
0.18722
0.187024
0.186832
0.186645
0.186463
0.186285
0.186111
0.185941
0.185776
0.185613
0.185454
0.185298
0.185145
0.184994
0.184846
0.1847
0.184556
0.184413
0.184272
0.184133
0.183995
0.183858
0.183723
0.183588
0.183454
0.18332
0.183187
0.183055
0.182923
0.182791
0.192522
0.192379
0.192212
0.192026
0.191824
0.191609
0.191384
0.191152
0.190914
0.190673
0.19043
0.190187
0.189944
0.189702
0.189463
0.189228
0.188995
0.188767
0.188542
0.188322
0.188107
0.187897
0.187691
0.18749
0.187293
0.187102
0.186914
0.186731
0.186553
0.186378
0.186208
0.186041
0.185877
0.185717
0.18556
0.185405
0.185254
0.185105
0.184958
0.184813
0.18467
0.184528
0.184389
0.18425
0.184113
0.183977
0.183842
0.183708
0.183574
0.183442
0.183309
0.183178
0.183046
0.182915
0.182784
0.191896
0.191783
0.191645
0.191487
0.191312
0.191123
0.190924
0.190717
0.190503
0.190286
0.190065
0.189843
0.189621
0.1894
0.18918
0.188963
0.188748
0.188536
0.188328
0.188123
0.187922
0.187725
0.187532
0.187343
0.187158
0.186977
0.186799
0.186626
0.186456
0.186289
0.186126
0.185966
0.185809
0.185655
0.185503
0.185354
0.185207
0.185062
0.184919
0.184778
0.184638
0.1845
0.184363
0.184227
0.184092
0.183958
0.183825
0.183692
0.18356
0.183429
0.183298
0.183167
0.183037
0.182906
0.182776
0.191283
0.191198
0.191087
0.190955
0.190806
0.190643
0.190469
0.190285
0.190095
0.1899
0.189701
0.189501
0.189299
0.189098
0.188897
0.188697
0.1885
0.188304
0.188112
0.187922
0.187735
0.187552
0.187371
0.187194
0.18702
0.18685
0.186682
0.186518
0.186357
0.186198
0.186043
0.18589
0.185739
0.185591
0.185445
0.185301
0.185158
0.185018
0.184879
0.184741
0.184605
0.18447
0.184336
0.184202
0.18407
0.183938
0.183807
0.183676
0.183546
0.183416
0.183286
0.183157
0.183027
0.182898
0.182768
0.190653
0.190567
0.190459
0.190334
0.190194
0.190041
0.18988
0.189711
0.189536
0.189358
0.189177
0.188994
0.18881
0.188627
0.188444
0.188263
0.188083
0.187905
0.187729
0.187555
0.187384
0.187216
0.18705
0.186887
0.186727
0.186569
0.186413
0.18626
0.18611
0.185961
0.185815
0.18567
0.185528
0.185387
0.185248
0.185111
0.184974
0.184839
0.184705
0.184572
0.18444
0.184309
0.184178
0.184048
0.183918
0.183789
0.18366
0.183531
0.183403
0.183274
0.183146
0.183017
0.182889
0.18276
0.190081
0.189995
0.189891
0.189771
0.18964
0.189498
0.189348
0.189193
0.189033
0.188869
0.188704
0.188537
0.18837
0.188203
0.188036
0.187871
0.187707
0.187544
0.187383
0.187224
0.187067
0.186912
0.186759
0.186608
0.186459
0.186312
0.186167
0.186023
0.185882
0.185742
0.185604
0.185467
0.185331
0.185197
0.185064
0.184932
0.1848
0.18467
0.18454
0.184411
0.184282
0.184154
0.184026
0.183898
0.183771
0.183644
0.183517
0.18339
0.183263
0.183135
0.183008
0.18288
0.182752
0.189626
0.18956
0.189475
0.189374
0.189261
0.189138
0.189006
0.188868
0.188725
0.188578
0.188429
0.188278
0.188126
0.187973
0.187821
0.187669
0.187517
0.187367
0.187218
0.18707
0.186923
0.186778
0.186635
0.186493
0.186352
0.186213
0.186076
0.18594
0.185805
0.185671
0.185539
0.185407
0.185276
0.185147
0.185018
0.18489
0.184762
0.184635
0.184508
0.184382
0.184256
0.18413
0.184004
0.183879
0.183753
0.183628
0.183502
0.183377
0.183251
0.183125
0.182998
0.182871
0.182744
0.189198
0.18915
0.189083
0.189
0.188904
0.188797
0.188682
0.18856
0.188433
0.188302
0.188168
0.188031
0.187893
0.187754
0.187615
0.187475
0.187336
0.187197
0.187059
0.186922
0.186785
0.18665
0.186515
0.186382
0.18625
0.186118
0.185988
0.185858
0.18573
0.185602
0.185475
0.185349
0.185223
0.185098
0.184973
0.184848
0.184724
0.184601
0.184477
0.184353
0.18423
0.184107
0.183983
0.18386
0.183736
0.183612
0.183488
0.183364
0.183239
0.183114
0.182989
0.182863
0.182736
0.188796
0.188764
0.188713
0.188646
0.188566
0.188475
0.188375
0.188268
0.188156
0.188039
0.187919
0.187796
0.187671
0.187545
0.187417
0.18729
0.187162
0.187034
0.186907
0.186779
0.186652
0.186526
0.1864
0.186275
0.18615
0.186026
0.185903
0.18578
0.185657
0.185535
0.185413
0.185292
0.185171
0.18505
0.184929
0.184808
0.184688
0.184567
0.184446
0.184325
0.184204
0.184083
0.183962
0.183841
0.183719
0.183597
0.183474
0.183351
0.183228
0.183104
0.182979
0.182854
0.182728
0.188416
0.188399
0.188363
0.188311
0.188245
0.188169
0.188084
0.187991
0.187892
0.187788
0.187681
0.187571
0.187459
0.187344
0.187229
0.187112
0.186995
0.186878
0.18676
0.186642
0.186524
0.186407
0.186289
0.186172
0.186054
0.185937
0.18582
0.185703
0.185586
0.18547
0.185353
0.185236
0.18512
0.185003
0.184886
0.184769
0.184651
0.184534
0.184416
0.184298
0.184179
0.184061
0.183941
0.183822
0.183702
0.183581
0.18346
0.183338
0.183216
0.183093
0.18297
0.182846
0.18272
0.188056
0.188053
0.188031
0.187993
0.187941
0.187878
0.187806
0.187726
0.18764
0.187549
0.187454
0.187356
0.187255
0.187152
0.187048
0.186942
0.186835
0.186727
0.186619
0.18651
0.186401
0.186291
0.186182
0.186072
0.185961
0.185851
0.18574
0.185629
0.185518
0.185406
0.185294
0.185182
0.18507
0.184957
0.184844
0.18473
0.184616
0.184501
0.184386
0.184271
0.184155
0.184038
0.183921
0.183803
0.183685
0.183566
0.183446
0.183326
0.183205
0.183083
0.182961
0.182837
0.182713
0.187716
0.187725
0.187716
0.18769
0.187651
0.187601
0.187541
0.187474
0.1874
0.187321
0.187238
0.187151
0.187061
0.186968
0.186874
0.186778
0.186681
0.186583
0.186483
0.186383
0.186282
0.18618
0.186078
0.185975
0.185871
0.185767
0.185662
0.185557
0.185451
0.185344
0.185237
0.18513
0.185021
0.184912
0.184802
0.184692
0.184581
0.18447
0.184357
0.184244
0.18413
0.184016
0.183901
0.183785
0.183668
0.183551
0.183433
0.183314
0.183194
0.183073
0.182952
0.182829
0.182705
0.187392
0.187413
0.187416
0.187402
0.187375
0.187337
0.187289
0.187233
0.18717
0.187102
0.18703
0.186953
0.186874
0.186792
0.186707
0.186621
0.186533
0.186443
0.186352
0.18626
0.186167
0.186073
0.185977
0.185881
0.185784
0.185686
0.185587
0.185487
0.185386
0.185284
0.185182
0.185078
0.184974
0.184868
0.184762
0.184655
0.184547
0.184438
0.184329
0.184218
0.184107
0.183994
0.183881
0.183767
0.183652
0.183536
0.183419
0.183302
0.183183
0.183063
0.182943
0.182821
0.182698
0.187083
0.187116
0.187129
0.187127
0.187111
0.187083
0.187046
0.187001
0.186949
0.186892
0.18683
0.186763
0.186694
0.186621
0.186546
0.186469
0.186389
0.186308
0.186225
0.186141
0.186055
0.185968
0.18588
0.18579
0.185699
0.185607
0.185513
0.185418
0.185323
0.185225
0.185127
0.185028
0.184927
0.184826
0.184723
0.184619
0.184514
0.184408
0.184301
0.184192
0.184083
0.183973
0.183862
0.183749
0.183636
0.183521
0.183406
0.18329
0.183172
0.183053
0.182934
0.182813
0.182691
0.186771
0.186814
0.186838
0.186847
0.186842
0.186825
0.186799
0.186764
0.186723
0.186676
0.186624
0.186568
0.186508
0.186446
0.18638
0.186312
0.186241
0.186169
0.186094
0.186018
0.185939
0.18586
0.185778
0.185695
0.18561
0.185524
0.185436
0.185347
0.185256
0.185164
0.18507
0.184975
0.184878
0.18478
0.184681
0.18458
0.184478
0.184375
0.184271
0.184165
0.184058
0.18395
0.183841
0.18373
0.183619
0.183506
0.183392
0.183277
0.18316
0.183043
0.182924
0.182804
0.182683
0.186443
0.186497
0.186533
0.186552
0.186559
0.186553
0.186538
0.186515
0.186485
0.186449
0.186408
0.186362
0.186313
0.18626
0.186204
0.186146
0.186084
0.186021
0.185955
0.185887
0.185816
0.185744
0.18567
0.185594
0.185516
0.185436
0.185354
0.18527
0.185185
0.185098
0.185009
0.184918
0.184826
0.184732
0.184636
0.184539
0.184441
0.18434
0.184239
0.184136
0.184031
0.183925
0.183818
0.18371
0.1836
0.183489
0.183376
0.183263
0.183148
0.183031
0.182914
0.182795
0.182674
0.186108
0.186173
0.18622
0.186252
0.186269
0.186276
0.186272
0.186261
0.186242
0.186217
0.186187
0.186152
0.186114
0.186071
0.186025
0.185977
0.185925
0.18587
0.185813
0.185754
0.185692
0.185627
0.185561
0.185491
0.18542
0.185347
0.185271
0.185193
0.185113
0.185031
0.184947
0.184861
0.184773
0.184683
0.184591
0.184498
0.184402
0.184305
0.184207
0.184106
0.184004
0.183901
0.183796
0.183689
0.183581
0.183472
0.183361
0.183249
0.183135
0.18302
0.182903
0.182785
0.182666
0.185765
0.185842
0.185901
0.185945
0.185974
0.185993
0.186001
0.186001
0.185994
0.185981
0.185962
0.185939
0.185911
0.185879
0.185844
0.185805
0.185763
0.185718
0.18567
0.185619
0.185565
0.185509
0.18545
0.185388
0.185323
0.185256
0.185187
0.185115
0.185041
0.184964
0.184885
0.184803
0.184719
0.184634
0.184546
0.184456
0.184364
0.18427
0.184174
0.184076
0.183977
0.183876
0.183773
0.183669
0.183562
0.183455
0.183345
0.183235
0.183122
0.183008
0.182893
0.182776
0.182658
0.185415
0.185504
0.185576
0.185631
0.185673
0.185704
0.185725
0.185737
0.185742
0.185741
0.185734
0.185722
0.185705
0.185684
0.185659
0.185631
0.185599
0.185563
0.185524
0.185482
0.185437
0.185389
0.185337
0.185283
0.185226
0.185165
0.185102
0.185036
0.184967
0.184896
0.184822
0.184745
0.184666
0.184584
0.1845
0.184414
0.184325
0.184234
0.184141
0.184047
0.18395
0.183851
0.18375
0.183648
0.183544
0.183438
0.18333
0.183221
0.18311
0.182997
0.182883
0.182767
0.182649
0.185057
0.185159
0.185243
0.185311
0.185366
0.185409
0.185443
0.185468
0.185485
0.185496
0.185501
0.185501
0.185496
0.185486
0.185472
0.185454
0.185432
0.185407
0.185377
0.185344
0.185308
0.185268
0.185224
0.185177
0.185127
0.185073
0.185017
0.184957
0.184893
0.184827
0.184758
0.184686
0.184612
0.184534
0.184454
0.184371
0.184286
0.184199
0.184109
0.184017
0.183922
0.183826
0.183728
0.183627
0.183525
0.183421
0.183315
0.183207
0.183097
0.182986
0.182873
0.182758
0.182641
0.184691
0.184806
0.184902
0.184984
0.185052
0.185108
0.185155
0.185193
0.185224
0.185247
0.185265
0.185277
0.185283
0.185285
0.185282
0.185275
0.185264
0.185248
0.185228
0.185205
0.185177
0.185145
0.18511
0.18507
0.185027
0.184981
0.18493
0.184877
0.184819
0.184759
0.184695
0.184628
0.184557
0.184484
0.184408
0.184329
0.184247
0.184163
0.184076
0.183987
0.183895
0.183801
0.183705
0.183607
0.183506
0.183404
0.183299
0.183193
0.183085
0.182974
0.182862
0.182749
0.182633
0.184317
0.184445
0.184555
0.18465
0.184732
0.184802
0.184862
0.184914
0.184957
0.184994
0.185024
0.185049
0.185068
0.185081
0.18509
0.185094
0.185093
0.185088
0.185078
0.185063
0.185045
0.185022
0.184994
0.184963
0.184927
0.184888
0.184844
0.184796
0.184745
0.18469
0.184631
0.184569
0.184503
0.184434
0.184362
0.184287
0.184209
0.184128
0.184044
0.183957
0.183868
0.183777
0.183683
0.183586
0.183488
0.183387
0.183284
0.183179
0.183072
0.182963
0.182853
0.18274
0.182625
0.183934
0.184076
0.1842
0.184309
0.184405
0.184489
0.184563
0.184629
0.184686
0.184737
0.18478
0.184817
0.184849
0.184875
0.184895
0.18491
0.184921
0.184926
0.184926
0.184921
0.184912
0.184897
0.184879
0.184855
0.184827
0.184794
0.184757
0.184716
0.18467
0.184621
0.184567
0.18451
0.184449
0.184384
0.184316
0.184245
0.18417
0.184092
0.184012
0.183928
0.183841
0.183752
0.18366
0.183566
0.183469
0.18337
0.183269
0.183166
0.18306
0.182952
0.182843
0.182731
0.182618
0.183542
0.183698
0.183837
0.183961
0.184071
0.18417
0.184259
0.184339
0.184411
0.184475
0.184532
0.184583
0.184627
0.184666
0.184698
0.184725
0.184747
0.184763
0.184773
0.184778
0.184778
0.184773
0.184762
0.184747
0.184726
0.184701
0.18467
0.184636
0.184596
0.184552
0.184504
0.184452
0.184395
0.184335
0.184271
0.184203
0.184132
0.184057
0.18398
0.183899
0.183815
0.183728
0.183638
0.183546
0.183451
0.183354
0.183254
0.183152
0.183048
0.182942
0.182833
0.182723
0.18261
0.183141
0.183312
0.183466
0.183605
0.183731
0.183846
0.18395
0.184045
0.184131
0.18421
0.184281
0.184345
0.184403
0.184454
0.1845
0.184538
0.184571
0.184598
0.184619
0.184634
0.184644
0.184648
0.184646
0.184638
0.184626
0.184607
0.184584
0.184556
0.184522
0.184484
0.184441
0.184394
0.184342
0.184286
0.184226
0.184162
0.184094
0.184023
0.183948
0.18387
0.183789
0.183704
0.183617
0.183527
0.183434
0.183338
0.18324
0.183139
0.183037
0.182931
0.182824
0.182715
0.182603
0.182748
0.182933
0.183102
0.183256
0.183398
0.183527
0.183647
0.183756
0.183857
0.18395
0.184036
0.184114
0.184185
0.184249
0.184306
0.184357
0.184401
0.184438
0.18447
0.184495
0.184514
0.184526
0.184533
0.184533
0.184528
0.184517
0.1845
0.184478
0.184451
0.184418
0.18438
0.184338
0.184291
0.184239
0.184183
0.184123
0.184058
0.18399
0.183918
0.183843
0.183764
0.183682
0.183596
0.183508
0.183417
0.183323
0.183226
0.183127
0.183026
0.182922
0.182815
0.182707
0.182596
0.182349
0.18255
0.182735
0.182905
0.183062
0.183207
0.183342
0.183467
0.183583
0.18369
0.18379
0.183882
0.183966
0.184043
0.184113
0.184175
0.184231
0.18428
0.184322
0.184357
0.184385
0.184406
0.184421
0.18443
0.184432
0.184428
0.184418
0.184402
0.184381
0.184354
0.184321
0.184283
0.184241
0.184193
0.184141
0.184084
0.184023
0.183958
0.183889
0.183816
0.18374
0.18366
0.183577
0.18349
0.183401
0.183309
0.183213
0.183116
0.183015
0.182912
0.182807
0.1827
0.18259
0.181915
0.182133
0.182335
0.182523
0.182698
0.182861
0.183013
0.183155
0.183288
0.183412
0.183527
0.183635
0.183734
0.183825
0.183908
0.183984
0.184052
0.184113
0.184166
0.184212
0.18425
0.184281
0.184305
0.184323
0.184333
0.184336
0.184333
0.184324
0.184309
0.184287
0.18426
0.184228
0.18419
0.184147
0.184098
0.184045
0.183988
0.183926
0.18386
0.18379
0.183716
0.183638
0.183557
0.183473
0.183385
0.183294
0.183201
0.183104
0.183005
0.182903
0.182799
0.182693
0.182584
0.181437
0.181676
0.181898
0.182106
0.182302
0.182485
0.182657
0.182818
0.18297
0.183113
0.183246
0.18337
0.183486
0.183593
0.183691
0.183781
0.183863
0.183937
0.184002
0.18406
0.184109
0.184151
0.184185
0.184211
0.18423
0.184242
0.184246
0.184244
0.184235
0.18422
0.184199
0.184171
0.184138
0.1841
0.184056
0.184007
0.183953
0.183894
0.183831
0.183764
0.183692
0.183617
0.183538
0.183456
0.18337
0.183281
0.183188
0.183093
0.182995
0.182895
0.182792
0.182686
0.182579
0.180916
0.181179
0.181425
0.181657
0.181875
0.182081
0.182275
0.182459
0.182632
0.182795
0.182948
0.183091
0.183225
0.183349
0.183464
0.18357
0.183667
0.183755
0.183834
0.183904
0.183965
0.184018
0.184062
0.184098
0.184126
0.184146
0.184159
0.184164
0.184162
0.184153
0.184137
0.184116
0.184088
0.184054
0.184014
0.183969
0.183919
0.183863
0.183803
0.183739
0.18367
0.183597
0.18352
0.18344
0.183355
0.183268
0.183177
0.183083
0.182987
0.182887
0.182785
0.182681
0.182574
0.180352
0.180642
0.180916
0.181174
0.181419
0.181651
0.181871
0.182079
0.182276
0.182462
0.182637
0.182801
0.182955
0.183098
0.183231
0.183354
0.183467
0.183569
0.183663
0.183746
0.18382
0.183884
0.183939
0.183985
0.184023
0.184052
0.184073
0.184085
0.18409
0.184088
0.184079
0.184062
0.184039
0.18401
0.183974
0.183933
0.183887
0.183835
0.183778
0.183716
0.183649
0.183579
0.183504
0.183425
0.183343
0.183257
0.183167
0.183075
0.182979
0.182881
0.18278
0.182676
0.18257
0.179736
0.180058
0.180363
0.180653
0.180929
0.181191
0.18144
0.181676
0.181899
0.182111
0.18231
0.182498
0.182673
0.182837
0.18299
0.183131
0.183262
0.183381
0.183489
0.183586
0.183674
0.18375
0.183817
0.183874
0.183921
0.183959
0.183989
0.184009
0.184021
0.184026
0.184022
0.184011
0.183993
0.183969
0.183938
0.1839
0.183857
0.183808
0.183754
0.183695
0.183631
0.183563
0.18349
0.183413
0.183332
0.183247
0.183159
0.183068
0.182973
0.182876
0.182776
0.182673
0.182567
0.179054
0.179415
0.179759
0.180086
0.180398
0.180695
0.180977
0.181245
0.181499
0.181739
0.181966
0.18218
0.18238
0.182567
0.182742
0.182903
0.183052
0.183189
0.183314
0.183426
0.183528
0.183617
0.183696
0.183764
0.183822
0.183869
0.183907
0.183936
0.183955
0.183966
0.183969
0.183964
0.183951
0.183931
0.183904
0.18387
0.183831
0.183785
0.183734
0.183677
0.183615
0.183549
0.183478
0.183402
0.183323
0.183239
0.183153
0.183062
0.182969
0.182872
0.182772
0.18267
0.182566
0.178423
0.178824
0.179206
0.17957
0.179918
0.180248
0.180563
0.180862
0.181146
0.181414
0.181666
0.181904
0.182127
0.182336
0.18253
0.182709
0.182875
0.183028
0.183167
0.183293
0.183407
0.183508
0.183597
0.183675
0.183742
0.183797
0.183842
0.183878
0.183903
0.18392
0.183927
0.183927
0.183918
0.183902
0.183878
0.183848
0.183811
0.183767
0.183718
0.183664
0.183604
0.183539
0.183469
0.183395
0.183316
0.183234
0.183148
0.183058
0.182965
0.182869
0.18277
0.182669
0.182564
0.177931
0.178365
0.178779
0.179173
0.17955
0.179909
0.18025
0.180573
0.18088
0.18117
0.181443
0.1817
0.18194
0.182165
0.182375
0.182569
0.182748
0.182912
0.183062
0.183199
0.183322
0.183431
0.183528
0.183613
0.183686
0.183748
0.183798
0.183838
0.183868
0.183889
0.1839
0.183903
0.183897
0.183883
0.183862
0.183834
0.183798
0.183757
0.183709
0.183656
0.183597
0.183533
0.183464
0.183391
0.183313
0.183231
0.183146
0.183057
0.182964
0.182868
0.18277
0.182668
0.182564
0.177511
0.177975
0.178418
0.178841
0.179244
0.179627
0.179991
0.180337
0.180664
0.180972
0.181263
0.181536
0.181792
0.182031
0.182253
0.182459
0.182649
0.182823
0.182983
0.183127
0.183258
0.183374
0.183478
0.183568
0.183646
0.183713
0.183767
0.183811
0.183845
0.183868
0.183882
0.183887
0.183883
0.183872
0.183852
0.183825
0.183791
0.183751
0.183704
0.183652
0.183594
0.183531
0.183462
0.18339
0.183312
0.183231
0.183146
0.183057
0.182964
0.182869
0.18277
0.182669
0.182565
0.182459
0.177152
0.177644
0.178113
0.178561
0.178987
0.179393
0.179778
0.180142
0.180487
0.180812
0.181118
0.181406
0.181674
0.181925
0.182158
0.182374
0.182573
0.182756
0.182922
0.183074
0.183211
0.183333
0.183441
0.183536
0.183619
0.183688
0.183746
0.183793
0.183829
0.183855
0.183871
0.183878
0.183876
0.183865
0.183847
0.183821
0.183788
0.183749
0.183703
0.183651
0.183593
0.183531
0.183463
0.18339
0.183313
0.183232
0.183147
0.183058
0.182966
0.18287
0.182772
0.18267
0.182567
0.18246
0.176842
0.17736
0.177854
0.178324
0.178772
0.179197
0.179601
0.179982
0.180343
0.180683
0.181002
0.181302
0.181581
0.181842
0.182085
0.182309
0.182515
0.182705
0.182878
0.183035
0.183177
0.183304
0.183416
0.183515
0.1836
0.183673
0.183734
0.183783
0.183821
0.183848
0.183866
0.183874
0.183873
0.183863
0.183846
0.183821
0.183788
0.183749
0.183704
0.183652
0.183595
0.183532
0.183464
0.183392
0.183315
0.183234
0.183149
0.18306
0.182968
0.182872
0.182774
0.182672
0.182568
0.182462
0.176575
0.177117
0.177633
0.178124
0.178591
0.179034
0.179454
0.179851
0.180225
0.180578
0.180909
0.181219
0.181509
0.181778
0.182028
0.18226
0.182473
0.182668
0.182847
0.183008
0.183154
0.183285
0.1834
0.183502
0.18359
0.183665
0.183727
0.183778
0.183817
0.183846
0.183865
0.183874
0.183873
0.183865
0.183848
0.183823
0.183791
0.183752
0.183707
0.183655
0.183598
0.183535
0.183468
0.183395
0.183318
0.183237
0.183152
0.183063
0.18297
0.182875
0.182776
0.182675
0.182571
0.182464
0.176344
0.176908
0.177444
0.177954
0.178438
0.178898
0.179332
0.179743
0.18013
0.180493
0.180835
0.181154
0.181452
0.181729
0.181986
0.182224
0.182442
0.182642
0.182825
0.18299
0.18314
0.183273
0.183391
0.183495
0.183585
0.183662
0.183726
0.183777
0.183818
0.183847
0.183867
0.183876
0.183877
0.183868
0.183851
0.183827
0.183795
0.183756
0.183711
0.183659
0.183602
0.183539
0.183471
0.183399
0.183322
0.18324
0.183155
0.183066
0.182973
0.182878
0.182779
0.182677
0.182573
0.182466
0.176145
0.176728
0.177283
0.17781
0.17831
0.178784
0.179232
0.179654
0.180052
0.180426
0.180776
0.181103
0.181409
0.181692
0.181955
0.182198
0.182421
0.182625
0.182811
0.18298
0.183132
0.183268
0.183388
0.183493
0.183585
0.183663
0.183728
0.18378
0.183821
0.183852
0.183871
0.183881
0.183882
0.183873
0.183857
0.183832
0.1838
0.183761
0.183716
0.183664
0.183607
0.183544
0.183476
0.183403
0.183326
0.183244
0.183158
0.183069
0.182976
0.182881
0.182781
0.18268
0.182575
0.182468
0.175975
0.176577
0.177148
0.177691
0.178205
0.178691
0.179151
0.179584
0.179991
0.180374
0.180732
0.181066
0.181377
0.181667
0.181934
0.182181
0.182408
0.182616
0.182805
0.182976
0.18313
0.183267
0.183389
0.183496
0.183588
0.183667
0.183733
0.183786
0.183828
0.183858
0.183878
0.183888
0.183888
0.18388
0.183863
0.183839
0.183807
0.183767
0.183722
0.18367
0.183612
0.183549
0.183481
0.183408
0.18333
0.183248
0.183162
0.183073
0.18298
0.182884
0.182784
0.182682
0.182578
0.18247
0.175849
0.176465
0.17705
0.177605
0.17813
0.178626
0.179095
0.179536
0.179951
0.18034
0.180704
0.181044
0.18136
0.181653
0.181924
0.182174
0.182404
0.182614
0.182805
0.182978
0.183134
0.183272
0.183395
0.183503
0.183596
0.183675
0.183741
0.183795
0.183837
0.183867
0.183887
0.183897
0.183897
0.183889
0.183872
0.183847
0.183815
0.183775
0.183729
0.183677
0.183619
0.183556
0.183487
0.183414
0.183336
0.183254
0.183168
0.183078
0.182985
0.182888
0.182789
0.182687
0.182582
0.182474
0.175779
0.176403
0.176996
0.177558
0.17809
0.178592
0.179066
0.179512
0.179932
0.180325
0.180692
0.181035
0.181353
0.181649
0.181923
0.182174
0.182406
0.182617
0.182809
0.182983
0.183139
0.183279
0.183402
0.18351
0.183604
0.183683
0.18375
0.183803
0.183845
0.183876
0.183895
0.183905
0.183905
0.183897
0.18388
0.183855
0.183822
0.183783
0.183736
0.183684
0.183626
0.183562
0.183494
0.18342
0.183342
0.18326
0.183174
0.183084
0.18299
0.182894
0.182794
0.182692
0.182586
0.182479
)
;

boundaryField
{
    inlet
    {
        type            zeroGradient;
    }
    outlet
    {
        type            fixedValue;
        value           nonuniform 0();
    }
    upperWall
    {
        type            zeroGradient;
    }
    lowerWall
    {
        type            zeroGradient;
    }
    frontAndBack
    {
        type            empty;
    }
    procBoundary1to0
    {
        type            processor;
        value           nonuniform List<scalar> 
59
(
0.182865
0.182856
0.182851
0.182847
0.182843
0.182839
0.182834
0.182829
0.182824
0.182818
0.182812
0.182812
0.182673
0.182667
0.18266
0.182653
0.182646
0.182638
0.18263
0.182623
0.182616
0.182608
0.182601
0.182594
0.182587
0.18258
0.182574
0.182567
0.18256
0.182553
0.182545
0.182538
0.18253
0.182523
0.182516
0.182509
0.182502
0.182496
0.18249
0.182484
0.182479
0.182474
0.182469
0.182465
0.182462
0.18246
0.182459
0.182458
0.182458
0.182458
0.18235
0.182352
0.182353
0.182355
0.182357
0.182359
0.182361
0.182365
0.182369
)
;
    }
    procBoundary1to3
    {
        type            processor;
        value           nonuniform List<scalar> 
62
(
0.206179
0.204966
0.203612
0.202341
0.20121
0.200175
0.198864
0.198864
0.198016
0.19693
0.19693
0.196194
0.195475
0.194772
0.194079
0.193282
0.193282
0.192636
0.19198
0.191338
0.190714
0.190714
0.190145
0.190145
0.18967
0.189224
0.188805
0.18841
0.188037
0.187684
0.187348
0.187029
0.186705
0.186367
0.18602
0.185666
0.185304
0.184934
0.184556
0.184168
0.183772
0.183366
0.182951
0.182542
0.182129
0.181677
0.181179
0.180635
0.180045
0.179396
0.178675
0.178003
0.177477
0.177026
0.176637
0.1763
0.176007
0.175753
0.175532
0.175343
0.175202
0.175121
)
;
    }
}


// ************************************************************************* //
