/*--------------------------------*- C++ -*----------------------------------*\
  =========                 |
  \\      /  F ield         | OpenFOAM: The Open Source CFD Toolbox
   \\    /   O peration     | Website:  https://openfoam.org
    \\  /    A nd           | Version:  6
     \\/     M anipulation  |
\*---------------------------------------------------------------------------*/
FoamFile
{
    version     2.0;
    format      ascii;
    class       surfaceScalarField;
    location    "0.09";
    object      phi;
}
// * * * * * * * * * * * * * * * * * * * * * * * * * * * * * * * * * * * * * //

dimensions      [0 3 -1 0 0 0 0];

internalField   nonuniform List<scalar> 
6046
(
4.42767e-07
-3.91889e-09
4.46262e-07
-3.49517e-09
4.4936e-07
-3.09827e-09
4.52089e-07
-2.72816e-09
4.54473e-07
-2.3845e-09
4.5654e-07
-2.06677e-09
4.58314e-07
-1.77421e-09
4.5982e-07
-1.50592e-09
4.61081e-07
-1.26083e-09
4.62119e-07
-1.03776e-09
4.62954e-07
-8.35426e-10
4.63606e-07
-6.52401e-10
4.64093e-07
-4.86929e-10
4.64431e-07
-3.37257e-10
4.64629e-07
-1.97948e-10
4.64686e-07
-5.75008e-11
4.64608e-07
7.82721e-11
4.64416e-07
1.9189e-10
4.64134e-07
2.81638e-10
4.63781e-07
3.53234e-10
4.6337e-07
4.11243e-10
4.62911e-07
4.58701e-10
4.62413e-07
4.97906e-10
4.61883e-07
5.30533e-10
4.61325e-07
5.57802e-10
4.60744e-07
5.80568e-10
4.60145e-07
5.99547e-10
4.59529e-07
6.15277e-10
4.58901e-07
6.28242e-10
4.58262e-07
6.38829e-10
4.57615e-07
6.47399e-10
4.56961e-07
6.54245e-10
4.56301e-07
6.59632e-10
4.55637e-07
6.63814e-10
4.5497e-07
6.66982e-10
4.54301e-07
6.69327e-10
4.5363e-07
6.71014e-10
4.52958e-07
6.72166e-10
4.52285e-07
6.72922e-10
4.51611e-07
6.73368e-10
4.50938e-07
6.73605e-10
4.50264e-07
6.73707e-10
4.4959e-07
6.73742e-10
4.48917e-07
6.73752e-10
4.48243e-07
6.73808e-10
4.47569e-07
6.7393e-10
4.46895e-07
6.74158e-10
4.4622e-07
6.74523e-10
4.45545e-07
6.75047e-10
4.44869e-07
6.75758e-10
4.44193e-07
6.76665e-10
4.43515e-07
6.77791e-10
4.42836e-07
6.79148e-10
4.42155e-07
6.80763e-10
4.41472e-07
6.82657e-10
4.40788e-07
6.8486e-10
6.87396e-10
4.63349e-07
-8.46847e-09
4.67458e-07
-7.60459e-09
4.71151e-07
-6.7911e-09
4.74451e-07
-6.02834e-09
4.77383e-07
-5.31618e-09
4.7997e-07
-4.654e-09
4.82237e-07
-4.04081e-09
4.84206e-07
-3.4752e-09
4.85901e-07
-2.95552e-09
4.87343e-07
-2.47978e-09
4.88553e-07
-2.0458e-09
4.89552e-07
-1.65117e-09
4.90358e-07
-1.29325e-09
4.9099e-07
-9.69356e-10
4.91469e-07
-6.76112e-10
4.91821e-07
-4.0963e-10
4.92065e-07
-1.66248e-10
4.92203e-07
5.37141e-11
4.92237e-07
2.4762e-10
4.92175e-07
4.16105e-10
4.92024e-07
5.61739e-10
4.91796e-07
6.87214e-10
4.91498e-07
7.95146e-10
4.91141e-07
8.8788e-10
4.90731e-07
9.67449e-10
4.90276e-07
1.0356e-09
4.89782e-07
1.09382e-09
4.89254e-07
1.14341e-09
4.88697e-07
1.18548e-09
4.88114e-07
1.22103e-09
4.87511e-07
1.25091e-09
4.86889e-07
1.27591e-09
4.86252e-07
1.2967e-09
4.85602e-07
1.31388e-09
4.84941e-07
1.328e-09
4.84271e-07
1.33953e-09
4.83593e-07
1.34889e-09
4.82909e-07
1.35645e-09
4.82219e-07
1.36254e-09
4.81525e-07
1.36743e-09
4.80827e-07
1.37138e-09
4.80126e-07
1.37461e-09
4.79423e-07
1.37728e-09
4.78717e-07
1.37958e-09
4.78009e-07
1.38163e-09
4.773e-07
1.38356e-09
4.76588e-07
1.38547e-09
4.75875e-07
1.38745e-09
4.75161e-07
1.38955e-09
4.74445e-07
1.39187e-09
4.73727e-07
1.39443e-09
4.73007e-07
1.39732e-09
4.72286e-07
1.40057e-09
4.71563e-07
1.40423e-09
4.70837e-07
1.40835e-09
4.70109e-07
1.41299e-09
1.4182e-09
4.69473e-07
-1.32719e-08
4.73838e-07
-1.19695e-08
4.77785e-07
-1.07387e-08
4.81337e-07
-9.58037e-09
4.84516e-07
-8.49475e-09
4.87343e-07
-7.48146e-09
4.89842e-07
-6.53948e-09
4.92034e-07
-5.66725e-09
4.93941e-07
-4.86271e-09
4.95585e-07
-4.12336e-09
4.96985e-07
-3.44638e-09
4.98163e-07
-2.8286e-09
4.99136e-07
-2.26667e-09
4.99924e-07
-1.75708e-09
5.00544e-07
-1.29626e-09
5.01015e-07
-8.80436e-10
5.01354e-07
-5.05155e-10
5.01574e-07
-1.67014e-10
5.01687e-07
1.3537e-10
5.01699e-07
4.03541e-10
5.01621e-07
6.3992e-10
5.01461e-07
8.47284e-10
5.01228e-07
1.0285e-09
5.00929e-07
1.18637e-09
5.00573e-07
1.32352e-09
5.00166e-07
1.44233e-09
4.99715e-07
1.54497e-09
4.99225e-07
1.63335e-09
4.98702e-07
1.70923e-09
4.98148e-07
1.77411e-09
4.9757e-07
1.82942e-09
4.9697e-07
1.87635e-09
4.9635e-07
1.91603e-09
4.95715e-07
1.94944e-09
4.95065e-07
1.97746e-09
4.94404e-07
2.00088e-09
4.93732e-07
2.0204e-09
4.93052e-07
2.03661e-09
4.92365e-07
2.05009e-09
4.91671e-07
2.06129e-09
4.90971e-07
2.07065e-09
4.90268e-07
2.07853e-09
4.8956e-07
2.08526e-09
4.88848e-07
2.0911e-09
4.88133e-07
2.09632e-09
4.87416e-07
2.1011e-09
4.86696e-07
2.10562e-09
4.85973e-07
2.11006e-09
4.85248e-07
2.11453e-09
4.84521e-07
2.11916e-09
4.83791e-07
2.12404e-09
4.83059e-07
2.12929e-09
4.82325e-07
2.13497e-09
4.81588e-07
2.14116e-09
4.80848e-07
2.14798e-09
4.80106e-07
2.15549e-09
2.1638e-09
4.72858e-07
-1.81931e-08
4.77348e-07
-1.64601e-08
4.81427e-07
-1.48176e-08
4.85114e-07
-1.32674e-08
4.8843e-07
-1.18103e-08
4.91394e-07
-1.04462e-08
4.94029e-07
-9.17429e-09
4.96355e-07
-7.99305e-09
4.98392e-07
-6.9002e-09
5.00162e-07
-5.89292e-09
5.01683e-07
-4.9679e-09
5.02976e-07
-4.1214e-09
5.04059e-07
-3.34941e-09
5.0495e-07
-2.64771e-09
5.05665e-07
-2.01199e-09
5.06223e-07
-1.43779e-09
5.06638e-07
-9.2014e-10
5.06925e-07
-4.54344e-10
5.07097e-07
-3.67083e-11
5.07165e-07
3.35951e-10
5.07138e-07
6.66914e-10
5.07025e-07
9.59615e-10
5.06836e-07
1.21749e-09
5.06579e-07
1.44388e-09
5.0626e-07
1.64202e-09
5.05888e-07
1.8149e-09
5.05467e-07
1.96528e-09
5.05005e-07
2.09569e-09
5.04506e-07
2.20844e-09
5.03974e-07
2.30561e-09
5.03415e-07
2.38907e-09
5.02831e-07
2.46053e-09
5.02225e-07
2.52151e-09
5.01601e-07
2.57339e-09
5.00961e-07
2.61738e-09
5.00307e-07
2.65461e-09
4.99642e-07
2.68603e-09
4.98966e-07
2.71252e-09
4.98281e-07
2.73486e-09
4.97589e-07
2.75374e-09
4.9689e-07
2.76975e-09
4.96185e-07
2.78341e-09
4.95475e-07
2.79522e-09
4.9476e-07
2.80555e-09
4.94042e-07
2.81477e-09
4.9332e-07
2.82317e-09
4.92594e-07
2.83104e-09
4.91866e-07
2.83858e-09
4.91134e-07
2.84601e-09
4.904e-07
2.8535e-09
4.89663e-07
2.86119e-09
4.88923e-07
2.86923e-09
4.8818e-07
2.87777e-09
4.87434e-07
2.8869e-09
4.86686e-07
2.89676e-09
4.85934e-07
2.90746e-09
2.91914e-09
4.75463e-07
-2.31459e-08
4.79997e-07
-2.0994e-08
4.84129e-07
-1.89497e-08
4.87878e-07
-1.70157e-08
4.91261e-07
-1.51934e-08
4.94298e-07
-1.34833e-08
4.97008e-07
-1.18848e-08
4.99412e-07
-1.03965e-08
5.01528e-07
-9.0162e-09
5.03376e-07
-7.7408e-09
5.04974e-07
-6.56667e-09
5.06343e-07
-5.48965e-09
5.07498e-07
-4.50515e-09
5.08459e-07
-3.6083e-09
5.09241e-07
-2.79404e-09
5.0986e-07
-2.05711e-09
5.10332e-07
-1.39196e-09
5.10671e-07
-7.93028e-10
5.1089e-07
-2.553e-10
5.11e-07
2.2582e-10
5.11012e-07
6.54715e-10
5.10936e-07
1.03567e-09
5.1078e-07
1.37286e-09
5.10554e-07
1.67035e-09
5.10264e-07
1.93197e-09
5.09918e-07
2.16136e-09
5.09521e-07
2.36188e-09
5.0908e-07
2.53665e-09
5.086e-07
2.68852e-09
5.08085e-07
2.8201e-09
5.07541e-07
2.93378e-09
5.0697e-07
3.0317e-09
5.06375e-07
3.1158e-09
5.05761e-07
3.18784e-09
5.05129e-07
3.24941e-09
5.04481e-07
3.3019e-09
5.03821e-07
3.34661e-09
5.03149e-07
3.38465e-09
5.02467e-07
3.41704e-09
5.01776e-07
3.44467e-09
5.01077e-07
3.46832e-09
5.00372e-07
3.4887e-09
4.99661e-07
3.50641e-09
4.98944e-07
3.522e-09
4.98223e-07
3.53593e-09
4.97498e-07
3.54861e-09
4.96768e-07
3.56039e-09
4.96035e-07
3.57158e-09
4.95299e-07
3.58245e-09
4.94559e-07
3.59325e-09
4.93816e-07
3.60417e-09
4.9307e-07
3.6154e-09
4.9232e-07
3.62713e-09
4.91568e-07
3.63951e-09
4.90812e-07
3.65271e-09
4.90053e-07
3.66687e-09
3.68218e-09
4.77897e-07
4.82409e-07
-2.55054e-08
4.86532e-07
-2.30726e-08
4.90282e-07
-2.07663e-08
4.93678e-07
-1.85887e-08
4.96735e-07
-1.65408e-08
4.99473e-07
-1.46225e-08
5.01909e-07
-1.28326e-08
5.04062e-07
-1.1169e-08
5.05949e-07
-9.62852e-09
5.0759e-07
-8.20738e-09
5.09001e-07
-6.90104e-09
5.10201e-07
-5.70445e-09
5.11205e-07
-4.61216e-09
5.12029e-07
-3.61844e-09
5.12689e-07
-2.71733e-09
5.132e-07
-1.90259e-09
5.13575e-07
-1.16797e-09
5.13827e-07
-5.07469e-10
5.13968e-07
8.46037e-11
5.14009e-07
6.13662e-10
5.1396e-07
1.0849e-09
5.1383e-07
1.50331e-09
5.13626e-07
1.87367e-09
5.13358e-07
2.20051e-09
5.13031e-07
2.48812e-09
5.12652e-07
2.74045e-09
5.12228e-07
2.96122e-09
5.11762e-07
3.15382e-09
5.11261e-07
3.32139e-09
5.10728e-07
3.46678e-09
5.10167e-07
3.5926e-09
5.09582e-07
3.7012e-09
5.08975e-07
3.79472e-09
5.08349e-07
3.87508e-09
5.07707e-07
3.94403e-09
5.07051e-07
4.00311e-09
5.06382e-07
4.05372e-09
5.05702e-07
4.0971e-09
5.05012e-07
4.13435e-09
5.04314e-07
4.16647e-09
5.03608e-07
4.19431e-09
5.02896e-07
4.21864e-09
5.02178e-07
4.24013e-09
5.01454e-07
4.25936e-09
5.00726e-07
4.27685e-09
4.99993e-07
4.29306e-09
4.99257e-07
4.30837e-09
4.98516e-07
4.32311e-09
4.97772e-07
4.3376e-09
4.97024e-07
4.35211e-09
4.96272e-07
4.36687e-09
4.95517e-07
4.3821e-09
4.94759e-07
4.39801e-09
4.93997e-07
4.4148e-09
4.93231e-07
4.43265e-09
4.45179e-09
4.84853e-07
-2.99365e-08
4.88912e-07
-2.71314e-08
4.92613e-07
-2.44673e-08
4.95971e-07
-2.19472e-08
4.99003e-07
-1.95728e-08
5.01725e-07
-1.73444e-08
5.04154e-07
-1.52614e-08
5.06307e-07
-1.33216e-08
5.082e-07
-1.1522e-08
5.09851e-07
-9.85861e-09
5.11277e-07
-8.32676e-09
5.12494e-07
-6.92099e-09
5.13517e-07
-5.63539e-09
5.14362e-07
-4.46363e-09
5.15044e-07
-3.39912e-09
5.15576e-07
-2.43498e-09
5.15972e-07
-1.56432e-09
5.16245e-07
-7.80313e-10
5.16406e-07
-7.63755e-11
5.16466e-07
5.53809e-10
5.16435e-07
1.1163e-09
5.16321e-07
1.61689e-09
5.16134e-07
2.0611e-09
5.1588e-07
2.45417e-09
5.15567e-07
2.80099e-09
5.15202e-07
3.10617e-09
5.14789e-07
3.37398e-09
5.14334e-07
3.60836e-09
5.13843e-07
3.81297e-09
5.13318e-07
3.99112e-09
5.12765e-07
4.14586e-09
5.12186e-07
4.27995e-09
5.11585e-07
4.3959e-09
5.10964e-07
4.49599e-09
5.10326e-07
4.58227e-09
5.09672e-07
4.65657e-09
5.09006e-07
4.72054e-09
5.08327e-07
4.77567e-09
5.07638e-07
4.82327e-09
5.0694e-07
4.86452e-09
5.06234e-07
4.90044e-09
5.05521e-07
4.93197e-09
5.04801e-07
4.95989e-09
5.04075e-07
4.98494e-09
5.03344e-07
5.00771e-09
5.02609e-07
5.02877e-09
5.01869e-07
5.04859e-09
5.01124e-07
5.06758e-09
5.00376e-07
5.08612e-09
4.99623e-07
5.10452e-09
4.98867e-07
5.1231e-09
4.98107e-07
5.1421e-09
4.97343e-07
5.16178e-09
4.96576e-07
5.18238e-09
4.95804e-07
5.20413e-09
5.22728e-09
4.87464e-07
4.91409e-07
-3.10764e-08
4.95013e-07
-2.80716e-08
4.98291e-07
-2.52245e-08
5.01256e-07
-2.25376e-08
5.03923e-07
-2.00117e-08
5.06308e-07
-1.76464e-08
5.08426e-07
-1.54401e-08
5.10294e-07
-1.33897e-08
5.11927e-07
-1.14914e-08
5.1334e-07
-9.74021e-09
5.1455e-07
-8.13044e-09
5.1557e-07
-6.65579e-09
5.16416e-07
-5.30946e-09
5.17101e-07
-4.08429e-09
5.17639e-07
-2.97286e-09
5.18042e-07
-1.96762e-09
5.18323e-07
-1.06108e-09
5.18493e-07
-2.45873e-10
5.18561e-07
4.85103e-10
5.18539e-07
1.13872e-09
5.18434e-07
1.72149e-09
5.18256e-07
2.23968e-09
5.18011e-07
2.69919e-09
5.17706e-07
3.10556e-09
5.17348e-07
3.46398e-09
5.16943e-07
3.77932e-09
5.16495e-07
4.05602e-09
5.1601e-07
4.29823e-09
5.15492e-07
4.50974e-09
5.14943e-07
4.69403e-09
5.14369e-07
4.85425e-09
5.13772e-07
4.99328e-09
5.13154e-07
5.11374e-09
5.12518e-07
5.21797e-09
5.11867e-07
5.30811e-09
5.11201e-07
5.38605e-09
5.10523e-07
5.4535e-09
5.09835e-07
5.512e-09
5.09136e-07
5.5629e-09
5.08429e-07
5.60741e-09
5.07715e-07
5.64659e-09
5.06993e-07
5.68142e-09
5.06265e-07
5.71268e-09
5.05532e-07
5.74113e-09
5.04793e-07
5.76742e-09
5.0405e-07
5.79209e-09
5.03302e-07
5.81566e-09
5.02549e-07
5.83853e-09
5.01793e-07
5.86112e-09
5.01032e-07
5.88376e-09
5.00267e-07
5.90677e-09
4.99499e-07
5.93044e-09
4.98726e-07
5.95506e-09
4.97949e-07
5.98087e-09
6.00818e-09
4.94097e-07
-3.48622e-08
4.97562e-07
-3.15362e-08
5.00718e-07
-2.838e-08
5.03577e-07
-2.53968e-08
5.06153e-07
-2.25882e-08
5.08461e-07
-1.99541e-08
5.10514e-07
-1.74932e-08
5.12327e-07
-1.52027e-08
5.13915e-07
-1.30789e-08
5.15291e-07
-1.11166e-08
5.1647e-07
-9.31e-09
5.17467e-07
-7.65252e-09
5.18295e-07
-6.13694e-09
5.18966e-07
-4.75564e-09
5.19494e-07
-3.50068e-09
5.1989e-07
-2.36397e-09
5.20166e-07
-1.33736e-09
5.20333e-07
-4.12863e-10
5.20401e-07
4.17358e-10
5.20379e-07
1.16085e-09
5.20276e-07
1.82486e-09
5.20099e-07
2.4163e-09
5.19857e-07
2.94172e-09
5.19555e-07
3.40727e-09
5.192e-07
3.81874e-09
5.18798e-07
4.18149e-09
5.18353e-07
4.50054e-09
5.17871e-07
4.78047e-09
5.17355e-07
5.02554e-09
5.1681e-07
5.23963e-09
5.16238e-07
5.42629e-09
5.15642e-07
5.58875e-09
5.15026e-07
5.72994e-09
5.14392e-07
5.85253e-09
5.13741e-07
5.9589e-09
5.13076e-07
6.0512e-09
5.12398e-07
6.13139e-09
5.11709e-07
6.20118e-09
5.11009e-07
6.26214e-09
5.10301e-07
6.31561e-09
5.09585e-07
6.36284e-09
5.08861e-07
6.4049e-09
5.08131e-07
6.44274e-09
5.07395e-07
6.47719e-09
5.06654e-07
6.50901e-09
5.05907e-07
6.53883e-09
5.05155e-07
6.56723e-09
5.04399e-07
6.59471e-09
5.03639e-07
6.62171e-09
5.02874e-07
6.64865e-09
5.02105e-07
6.67588e-09
5.01331e-07
6.70372e-09
5.00554e-07
6.73252e-09
4.99772e-07
6.76256e-09
6.79417e-09
4.97013e-07
-3.84474e-08
5.00299e-07
-3.48218e-08
5.03295e-07
-3.13765e-08
5.06014e-07
-2.81154e-08
5.08467e-07
-2.50409e-08
5.10666e-07
-2.21534e-08
5.12625e-07
-1.94519e-08
5.14356e-07
-1.69341e-08
5.15873e-07
-1.4596e-08
5.17189e-07
-1.24328e-08
5.18318e-07
-1.04384e-08
5.19271e-07
-8.60607e-09
5.20062e-07
-6.92825e-09
5.20704e-07
-5.39693e-09
5.21207e-07
-4.00372e-09
5.21583e-07
-2.74004e-09
5.21843e-07
-1.59723e-09
5.21996e-07
-5.66659e-10
5.22054e-07
3.60076e-10
5.22023e-07
1.19118e-09
5.21914e-07
1.93454e-09
5.21732e-07
2.59767e-09
5.21486e-07
3.18772e-09
5.21182e-07
3.71143e-09
5.20826e-07
4.17512e-09
5.20423e-07
4.58468e-09
5.19978e-07
4.94559e-09
5.19495e-07
5.26293e-09
5.18979e-07
5.54134e-09
5.18434e-07
5.78513e-09
5.17862e-07
5.99821e-09
5.17266e-07
6.18415e-09
5.1665e-07
6.34619e-09
5.16015e-07
6.48728e-09
5.15364e-07
6.61009e-09
5.14699e-07
6.71698e-09
5.1402e-07
6.81015e-09
5.13329e-07
6.8915e-09
5.12629e-07
6.96277e-09
5.11919e-07
7.02548e-09
5.11201e-07
7.08103e-09
5.10475e-07
7.1306e-09
5.09743e-07
7.17527e-09
5.09004e-07
7.21599e-09
5.08259e-07
7.25359e-09
5.07509e-07
7.2888e-09
5.06754e-07
7.32227e-09
5.05994e-07
7.35457e-09
5.0523e-07
7.3862e-09
5.04461e-07
7.41762e-09
5.03687e-07
7.44925e-09
5.0291e-07
7.48144e-09
5.02128e-07
7.51458e-09
5.01341e-07
7.54897e-09
7.58499e-09
5.0017e-07
-4.17947e-08
5.0324e-07
-3.78927e-08
5.06044e-07
-3.41801e-08
5.0859e-07
-3.06614e-08
5.10889e-07
-2.73396e-08
5.12951e-07
-2.42159e-08
5.14789e-07
-2.12897e-08
5.16414e-07
-1.85588e-08
5.17838e-07
-1.60197e-08
5.19072e-07
-1.36674e-08
5.2013e-07
-1.14959e-08
5.21022e-07
-9.49827e-09
5.2176e-07
-7.66672e-09
5.22356e-07
-5.99293e-09
5.22821e-07
-4.46813e-09
5.23164e-07
-3.08332e-09
5.23396e-07
-1.82935e-09
5.23527e-07
-6.97108e-10
5.23564e-07
3.22374e-10
5.23518e-07
1.23786e-09
5.23394e-07
2.05779e-09
5.23202e-07
2.79026e-09
5.22947e-07
3.44296e-09
5.22635e-07
4.02315e-09
5.22272e-07
4.53766e-09
5.21864e-07
4.99287e-09
5.21415e-07
5.39472e-09
5.20929e-07
5.7487e-09
5.20411e-07
6.05989e-09
5.19863e-07
6.33293e-09
5.19289e-07
6.5721e-09
5.18692e-07
6.78129e-09
5.18074e-07
6.96405e-09
5.17438e-07
7.12359e-09
5.16785e-07
7.26281e-09
5.16118e-07
7.38436e-09
5.15437e-07
7.49059e-09
5.14745e-07
7.58361e-09
5.14043e-07
7.66535e-09
5.13331e-07
7.73747e-09
5.1261e-07
7.8015e-09
5.11882e-07
7.85877e-09
5.11147e-07
7.91048e-09
5.10405e-07
7.95765e-09
5.09657e-07
8.00124e-09
5.08904e-07
8.04204e-09
5.08146e-07
8.08076e-09
5.07382e-07
8.11807e-09
5.06614e-07
8.15451e-09
5.05841e-07
8.19059e-09
5.05063e-07
8.22676e-09
5.04281e-07
8.26345e-09
5.03495e-07
8.30104e-09
5.02704e-07
8.33991e-09
8.38044e-09
5.03564e-07
-4.48707e-08
5.06388e-07
-4.07172e-08
5.08968e-07
-3.67604e-08
5.11313e-07
-3.30059e-08
5.1343e-07
-2.94572e-08
5.15331e-07
-2.61161e-08
5.17023e-07
-2.29824e-08
5.18519e-07
-2.00545e-08
5.19828e-07
-1.73289e-08
5.20962e-07
-1.48009e-08
5.2193e-07
-1.24644e-08
5.22744e-07
-1.03124e-08
5.23415e-07
-8.337e-09
5.23951e-07
-6.52957e-09
5.24364e-07
-4.88106e-09
5.24663e-07
-3.38211e-09
5.24857e-07
-2.02316e-09
5.24954e-07
-7.94659e-10
5.24964e-07
3.12842e-10
5.24893e-07
1.30857e-09
5.24749e-07
2.20151e-09
5.2454e-07
3.00022e-09
5.2427e-07
3.71289e-09
5.23945e-07
4.34728e-09
5.23572e-07
4.91067e-09
5.23155e-07
5.40988e-09
5.22699e-07
5.85129e-09
5.22207e-07
6.24076e-09
5.21683e-07
6.58375e-09
5.21131e-07
6.88528e-09
5.20553e-07
7.14992e-09
5.19952e-07
7.38188e-09
5.19331e-07
7.58498e-09
5.18692e-07
7.76269e-09
5.18037e-07
7.91816e-09
5.17367e-07
8.05423e-09
5.16684e-07
8.17347e-09
5.15989e-07
8.27816e-09
5.15284e-07
8.3704e-09
5.1457e-07
8.45199e-09
5.13847e-07
8.5246e-09
5.13116e-07
8.5897e-09
5.12378e-07
8.64855e-09
5.11633e-07
8.70233e-09
5.10882e-07
8.75203e-09
5.10126e-07
8.79857e-09
5.09364e-07
8.84271e-09
5.08597e-07
8.88517e-09
5.07825e-07
8.92655e-09
5.07048e-07
8.96743e-09
5.06266e-07
9.00829e-09
5.0548e-07
9.0496e-09
5.04689e-07
9.09176e-09
5.03894e-07
9.13521e-09
5.03094e-07
9.18032e-09
9.22753e-09
5.07181e-07
5.09731e-07
-4.32672e-08
5.12061e-07
-3.90908e-08
5.14178e-07
-3.51234e-08
5.16091e-07
-3.13693e-08
5.17805e-07
-2.78309e-08
5.19331e-07
-2.45085e-08
5.20678e-07
-2.14008e-08
5.21854e-07
-1.85047e-08
5.22868e-07
-1.58156e-08
5.23731e-07
-1.33275e-08
5.24452e-07
-1.10333e-08
5.2504e-07
-8.92509e-09
5.25505e-07
-6.994e-09
5.25855e-07
-5.23076e-09
5.26098e-07
-3.62568e-09
5.26244e-07
-2.1689e-09
5.263e-07
-8.50484e-10
5.26273e-07
3.3942e-10
5.26171e-07
1.41049e-09
5.26001e-07
2.37209e-09
5.25768e-07
3.23327e-09
5.25478e-07
4.00262e-09
5.25137e-07
4.68836e-09
5.24749e-07
5.29817e-09
5.2432e-07
5.83928e-09
5.23853e-07
6.31842e-09
5.23352e-07
6.74186e-09
5.2282e-07
7.11538e-09
5.22261e-07
7.4443e-09
5.21677e-07
7.73352e-09
5.21072e-07
7.98752e-09
5.20446e-07
8.21036e-09
5.19803e-07
8.40578e-09
5.19144e-07
8.57712e-09
5.18471e-07
8.72745e-09
5.17785e-07
8.85949e-09
5.17088e-07
8.97573e-09
5.1638e-07
9.07838e-09
5.15662e-07
9.16942e-09
5.14936e-07
9.25062e-09
5.14202e-07
9.32356e-09
5.13461e-07
9.38964e-09
5.12713e-07
9.45009e-09
5.11959e-07
9.50602e-09
5.112e-07
9.55839e-09
5.10434e-07
9.60806e-09
5.09664e-07
9.65579e-09
5.08888e-07
9.70225e-09
5.08107e-07
9.74804e-09
5.07322e-07
9.7937e-09
5.06532e-07
9.83973e-09
5.05737e-07
9.88657e-09
5.04937e-07
9.93467e-09
5.04133e-07
9.98445e-09
1.00363e-08
5.13249e-07
-4.55185e-08
5.15306e-07
-4.11479e-08
5.17174e-07
-3.69917e-08
5.1886e-07
-3.30548e-08
5.20369e-07
-2.93403e-08
5.21709e-07
-2.5849e-08
5.22889e-07
-2.258e-08
5.23914e-07
-1.95304e-08
5.24795e-07
-1.66959e-08
5.25538e-07
-1.40706e-08
5.26152e-07
-1.16475e-08
5.26645e-07
-9.4185e-09
5.27026e-07
-7.3747e-09
5.27302e-07
-5.50662e-09
5.2748e-07
-3.80437e-09
5.27569e-07
-2.25776e-09
5.27575e-07
-8.56588e-10
5.27505e-07
4.09355e-10
5.27366e-07
1.5501e-09
5.27163e-07
2.57539e-09
5.26901e-07
3.49464e-09
5.26587e-07
4.31684e-09
5.26225e-07
5.05055e-09
5.25819e-07
5.70385e-09
5.25374e-07
6.28431e-09
5.24893e-07
6.799e-09
5.24381e-07
7.25452e-09
5.23839e-07
7.65695e-09
5.23272e-07
8.01191e-09
5.22681e-07
8.32456e-09
5.22068e-07
8.59962e-09
5.21437e-07
8.84143e-09
5.20789e-07
9.05389e-09
5.20126e-07
9.24058e-09
5.19449e-07
9.40474e-09
5.18759e-07
9.54927e-09
5.18058e-07
9.6768e-09
5.17346e-07
9.78969e-09
5.16626e-07
9.89005e-09
5.15897e-07
9.97977e-09
5.1516e-07
1.00605e-08
5.14415e-07
1.01338e-08
5.13665e-07
1.0201e-08
5.12907e-07
1.02632e-08
5.12144e-07
1.03215e-08
5.11376e-07
1.03768e-08
5.10602e-07
1.04298e-08
5.09822e-07
1.04815e-08
5.09038e-07
1.05323e-08
5.08249e-07
1.05828e-08
5.07455e-07
1.06337e-08
5.06656e-07
1.06853e-08
5.05853e-07
1.07381e-08
5.05045e-07
1.07926e-08
1.08492e-08
5.16916e-07
-4.74509e-08
5.1868e-07
-4.29124e-08
5.2028e-07
-3.85921e-08
5.21722e-07
-3.44959e-08
5.23008e-07
-3.06272e-08
5.24147e-07
-2.69876e-08
5.25144e-07
-2.35765e-08
5.26005e-07
-2.03914e-08
5.26737e-07
-1.74281e-08
5.27347e-07
-1.4681e-08
5.27843e-07
-1.21431e-08
5.2823e-07
-9.80625e-09
5.28517e-07
-7.66154e-09
5.2871e-07
-5.69936e-09
5.28815e-07
-3.90961e-09
5.28839e-07
-2.28195e-09
5.28789e-07
-8.05868e-10
5.28669e-07
5.29084e-10
5.28486e-07
1.73323e-09
5.28245e-07
2.81664e-09
5.2795e-07
3.78902e-09
5.27607e-07
4.65972e-09
5.2722e-07
5.43758e-09
5.26793e-07
6.13101e-09
5.2633e-07
6.74789e-09
5.25833e-07
7.2956e-09
5.25307e-07
7.78099e-09
5.24753e-07
8.21044e-09
5.24175e-07
8.58981e-09
5.23575e-07
8.9245e-09
5.22955e-07
9.21946e-09
5.22318e-07
9.47923e-09
5.21664e-07
9.70793e-09
5.20995e-07
9.90928e-09
5.20313e-07
1.00867e-08
5.19619e-07
1.02433e-08
5.18914e-07
1.03818e-08
5.18199e-07
1.05046e-08
5.17475e-07
1.06141e-08
5.16743e-07
1.07122e-08
5.16002e-07
1.08007e-08
5.15255e-07
1.08812e-08
5.14501e-07
1.0955e-08
5.13741e-07
1.10235e-08
5.12974e-07
1.10877e-08
5.12203e-07
1.11487e-08
5.11425e-07
1.12072e-08
5.10643e-07
1.1264e-08
5.09855e-07
1.13199e-08
5.09062e-07
1.13755e-08
5.08265e-07
1.14312e-08
5.07462e-07
1.14876e-08
5.06655e-07
1.15452e-08
5.05843e-07
1.16045e-08
1.16659e-08
5.43021e-07
-4.894e-08
5.4436e-07
-4.42521e-08
5.45553e-07
-3.97852e-08
5.46603e-07
-3.55459e-08
5.47515e-07
-3.15384e-08
5.48292e-07
-2.77647e-08
5.4894e-07
-2.42246e-08
5.49464e-07
-2.0916e-08
5.49871e-07
-1.7835e-08
5.50166e-07
-1.49761e-08
5.50356e-07
-1.23324e-08
5.50445e-07
-9.89589e-09
5.50441e-07
-7.65754e-09
5.5035e-07
-5.60769e-09
5.50176e-07
-3.73612e-09
5.49927e-07
-2.0323e-09
5.49606e-07
-4.85557e-10
5.49221e-07
9.14809e-10
5.48774e-07
2.17936e-09
5.48273e-07
3.31842e-09
5.4772e-07
4.34198e-09
5.4712e-07
5.25964e-09
5.46477e-07
6.08056e-09
5.45794e-07
6.81339e-09
5.45076e-07
7.4663e-09
5.44325e-07
8.04692e-09
5.43543e-07
8.56236e-09
5.42735e-07
9.01924e-09
5.41901e-07
9.42364e-09
5.41044e-07
9.7812e-09
5.40166e-07
1.00971e-08
5.3927e-07
1.03759e-08
5.38355e-07
1.06221e-08
5.37425e-07
1.08396e-08
5.3648e-07
1.10318e-08
5.35521e-07
1.1202e-08
5.3455e-07
1.13531e-08
5.33567e-07
1.14877e-08
5.32573e-07
1.16082e-08
5.31568e-07
1.17165e-08
5.30554e-07
1.18147e-08
5.29531e-07
1.19043e-08
5.28499e-07
1.19869e-08
5.27459e-07
1.20638e-08
5.26411e-07
1.21361e-08
5.25355e-07
1.22048e-08
5.24291e-07
1.22709e-08
5.2322e-07
1.23352e-08
5.22141e-07
1.23984e-08
5.21055e-07
1.24612e-08
5.19963e-07
1.2524e-08
5.18863e-07
1.25876e-08
5.17756e-07
1.26523e-08
5.16642e-07
1.27186e-08
1.27871e-08
5.08204e-07
5.09421e-07
-4.54687e-08
5.1053e-07
-4.08945e-08
5.11534e-07
-3.65499e-08
5.12436e-07
-3.24397e-08
5.13237e-07
-2.85661e-08
5.13942e-07
-2.49296e-08
5.14554e-07
-2.15284e-08
5.15078e-07
-1.83587e-08
5.15517e-07
-1.54153e-08
5.15876e-07
-1.26914e-08
5.16159e-07
-1.0179e-08
5.16371e-07
-7.86927e-09
5.16516e-07
-5.7524e-09
5.16598e-07
-3.81815e-09
5.16621e-07
-2.05591e-09
5.16591e-07
-4.5487e-10
5.1651e-07
9.95797e-10
5.16382e-07
2.30682e-09
5.16212e-07
3.48869e-09
5.16002e-07
4.55159e-09
5.15757e-07
5.50533e-09
5.15478e-07
6.35925e-09
5.15169e-07
7.12221e-09
5.14833e-07
7.80258e-09
5.14472e-07
8.40817e-09
5.14088e-07
8.9463e-09
5.13683e-07
9.42375e-09
5.1326e-07
9.8468e-09
5.1282e-07
1.02212e-08
5.12365e-07
1.05524e-08
5.11896e-07
1.0845e-08
5.11414e-07
1.11037e-08
5.10921e-07
1.13324e-08
5.10418e-07
1.15349e-08
5.09906e-07
1.17143e-08
5.09385e-07
1.18738e-08
5.08857e-07
1.2016e-08
5.08322e-07
1.21434e-08
5.0778e-07
1.22582e-08
5.07233e-07
1.23622e-08
5.0668e-07
1.24572e-08
5.06122e-07
1.25448e-08
5.05559e-07
1.26263e-08
5.04993e-07
1.27029e-08
5.04422e-07
1.27758e-08
5.03847e-07
1.28458e-08
5.03268e-07
1.29139e-08
5.02686e-07
1.29807e-08
5.021e-07
1.3047e-08
5.01511e-07
1.31132e-08
5.00918e-07
1.31801e-08
5.00322e-07
1.32481e-08
4.99723e-07
1.33176e-08
1.33893e-08
4.77798e-07
4.78858e-07
-4.19545e-08
4.79844e-07
-3.75354e-08
4.80756e-07
-3.3352e-08
4.81597e-07
-2.9407e-08
4.82369e-07
-2.57011e-08
4.83073e-07
-2.22328e-08
4.83713e-07
-1.89987e-08
4.84291e-07
-1.59936e-08
4.84811e-07
-1.3211e-08
4.85275e-07
-1.0643e-08
4.85686e-07
-8.28063e-09
4.86048e-07
-6.11432e-09
4.86364e-07
-4.13375e-09
4.86636e-07
-2.32829e-09
4.86868e-07
-6.87065e-10
4.87063e-07
8.00833e-10
4.87224e-07
2.14622e-09
4.87353e-07
3.35972e-09
4.87453e-07
4.45163e-09
4.87526e-07
5.43188e-09
4.87576e-07
6.30995e-09
4.87603e-07
7.09486e-09
4.8761e-07
7.79508e-09
4.876e-07
8.41859e-09
4.87573e-07
8.97284e-09
4.87532e-07
9.46475e-09
4.87479e-07
9.90071e-09
4.87413e-07
1.02866e-08
4.87338e-07
1.0628e-08
4.87253e-07
1.09297e-08
4.8716e-07
1.11963e-08
4.87061e-07
1.14319e-08
4.86955e-07
1.16404e-08
4.86844e-07
1.18251e-08
4.86729e-07
1.19892e-08
4.8661e-07
1.21353e-08
4.86487e-07
1.2266e-08
4.86362e-07
1.23835e-08
4.86234e-07
1.24899e-08
4.86105e-07
1.25869e-08
4.85973e-07
1.26761e-08
4.85841e-07
1.27589e-08
4.85707e-07
1.28366e-08
4.85573e-07
1.29103e-08
4.85437e-07
1.29809e-08
4.85302e-07
1.30494e-08
4.85166e-07
1.31165e-08
4.8503e-07
1.31829e-08
4.84894e-07
1.32493e-08
4.84758e-07
1.33161e-08
4.84622e-07
1.3384e-08
4.84486e-07
1.34533e-08
1.35247e-08
4.50223e-07
-4.29939e-08
4.51213e-07
-3.85254e-08
4.52154e-07
-3.42929e-08
4.53047e-07
-3.02997e-08
4.53892e-07
-2.65466e-08
4.54692e-07
-2.30324e-08
4.55447e-07
-1.97539e-08
4.5616e-07
-1.67062e-08
4.56832e-07
-1.38829e-08
4.57465e-07
-1.12761e-08
4.58061e-07
-8.87707e-09
4.58623e-07
-6.67619e-09
4.59152e-07
-4.66322e-09
4.59652e-07
-2.82751e-09
4.60123e-07
-1.15818e-09
4.60568e-07
3.55722e-10
4.60989e-07
1.72505e-09
4.61388e-07
2.96049e-09
4.61767e-07
4.07241e-09
4.62129e-07
5.07082e-09
4.62473e-07
5.96531e-09
4.62803e-07
6.76495e-09
4.6312e-07
7.47833e-09
4.63425e-07
8.11353e-09
4.6372e-07
8.67808e-09
4.64005e-07
9.17899e-09
4.64283e-07
9.62275e-09
4.64555e-07
1.00154e-08
4.6482e-07
1.03623e-08
4.65081e-07
1.06687e-08
4.65338e-07
1.09392e-08
4.65592e-07
1.11779e-08
4.65844e-07
1.13887e-08
4.66094e-07
1.15751e-08
4.66343e-07
1.17402e-08
4.66591e-07
1.18869e-08
4.6684e-07
1.20176e-08
4.67089e-07
1.21347e-08
4.67338e-07
1.22403e-08
4.67589e-07
1.23362e-08
4.67841e-07
1.24239e-08
4.68095e-07
1.2505e-08
4.68351e-07
1.25807e-08
4.68609e-07
1.26523e-08
4.68869e-07
1.27205e-08
4.69132e-07
1.27865e-08
4.69397e-07
1.28509e-08
4.69666e-07
1.29145e-08
4.69937e-07
1.29779e-08
4.70212e-07
1.30417e-08
4.70489e-07
1.31064e-08
4.7077e-07
1.31725e-08
1.32404e-08
4.24344e-07
-4.40355e-08
4.25356e-07
-3.95377e-08
4.26339e-07
-3.52759e-08
4.27293e-07
-3.12534e-08
4.28218e-07
-2.74712e-08
4.29114e-07
-2.39286e-08
4.29982e-07
-2.06224e-08
4.30824e-07
-1.75479e-08
4.3164e-07
-1.46988e-08
4.32431e-07
-1.20674e-08
4.33199e-07
-9.64503e-09
4.33945e-07
-7.42214e-09
4.34671e-07
-5.38854e-09
4.35377e-07
-3.5336e-09
4.36065e-07
-1.84647e-09
4.36737e-07
-3.16196e-10
4.37394e-07
1.0681e-09
4.38037e-07
2.31711e-09
4.38668e-07
3.44125e-09
4.39289e-07
4.45058e-09
4.39899e-07
5.35471e-09
4.40501e-07
6.16279e-09
4.41096e-07
6.88346e-09
4.41685e-07
7.52485e-09
4.42268e-07
8.09454e-09
4.42848e-07
8.59962e-09
4.43424e-07
9.04664e-09
4.43998e-07
9.44166e-09
4.4457e-07
9.79024e-09
4.45141e-07
1.00975e-08
4.45712e-07
1.03681e-08
4.46283e-07
1.06064e-08
4.46856e-07
1.08162e-08
4.4743e-07
1.1001e-08
4.48006e-07
1.1164e-08
4.48585e-07
1.13082e-08
4.49167e-07
1.1436e-08
4.49752e-07
1.15498e-08
4.5034e-07
1.16518e-08
4.50932e-07
1.17437e-08
4.51529e-07
1.18273e-08
4.5213e-07
1.19039e-08
4.52736e-07
1.1975e-08
4.53347e-07
1.20417e-08
4.53962e-07
1.21049e-08
4.54583e-07
1.21656e-08
4.55209e-07
1.22247e-08
4.55841e-07
1.22828e-08
4.56478e-07
1.23405e-08
4.57122e-07
1.23985e-08
4.57771e-07
1.24573e-08
4.58426e-07
1.25173e-08
1.25791e-08
4.00967e-07
-4.50965e-08
4.02016e-07
-4.0586e-08
4.03051e-07
-3.63107e-08
4.04071e-07
-3.22742e-08
4.05078e-07
-2.8478e-08
4.06071e-07
-2.49212e-08
4.07049e-07
-2.1601e-08
4.08014e-07
-1.85128e-08
4.08966e-07
-1.56503e-08
4.09905e-07
-1.30062e-08
4.10831e-07
-1.05717e-08
4.11747e-07
-8.33734e-09
4.12651e-07
-6.29305e-09
4.13546e-07
-4.42825e-09
4.14431e-07
-2.73209e-09
4.15309e-07
-1.19368e-09
4.16179e-07
1.97878e-10
4.17043e-07
1.45326e-09
4.17901e-07
2.5829e-09
4.18755e-07
3.59684e-09
4.19605e-07
4.50474e-09
4.20452e-07
5.31574e-09
4.21297e-07
6.03854e-09
4.2214e-07
6.68128e-09
4.22983e-07
7.25158e-09
4.23826e-07
7.75656e-09
4.2467e-07
8.20281e-09
4.25516e-07
8.59642e-09
4.26363e-07
8.94299e-09
4.27213e-07
9.24768e-09
4.28066e-07
9.51521e-09
4.28922e-07
9.74987e-09
4.29783e-07
9.95559e-09
4.30648e-07
1.01359e-08
4.31518e-07
1.02941e-08
4.32393e-07
1.0433e-08
4.33274e-07
1.05552e-08
4.3416e-07
1.06632e-08
4.35053e-07
1.0759e-08
4.35952e-07
1.08445e-08
4.36858e-07
1.09213e-08
4.37771e-07
1.09911e-08
4.38691e-07
1.10551e-08
4.39618e-07
1.11144e-08
4.40553e-07
1.11702e-08
4.41495e-07
1.12233e-08
4.42445e-07
1.12746e-08
4.43403e-07
1.13248e-08
4.4437e-07
1.13744e-08
4.45344e-07
1.14242e-08
4.46327e-07
1.14746e-08
4.47318e-07
1.15261e-08
1.15792e-08
3.79863e-07
-4.61898e-08
3.80957e-07
-4.16797e-08
3.8205e-07
-3.74038e-08
3.83142e-07
-3.3366e-08
3.84231e-07
-2.95678e-08
3.85319e-07
-2.60085e-08
3.86403e-07
-2.26856e-08
3.87485e-07
-1.95945e-08
3.88564e-07
-1.67291e-08
3.8964e-07
-1.4082e-08
3.90713e-07
-1.16447e-08
3.91783e-07
-9.40785e-09
3.92852e-07
-7.36129e-09
3.93918e-07
-5.49454e-09
3.94983e-07
-3.79685e-09
3.96046e-07
-2.25731e-09
3.97109e-07
-8.651e-10
3.98172e-07
3.90456e-10
3.99235e-07
1.51976e-09
4.00299e-07
2.53286e-09
4.01364e-07
3.4394e-09
4.02432e-07
4.24853e-09
4.03501e-07
4.96893e-09
4.04574e-07
5.60877e-09
4.0565e-07
6.17568e-09
4.06729e-07
6.67678e-09
4.07814e-07
7.11868e-09
4.08903e-07
7.50749e-09
4.09997e-07
7.84883e-09
4.11096e-07
8.14788e-09
4.12202e-07
8.40937e-09
4.13315e-07
8.63762e-09
4.14434e-07
8.83658e-09
4.1556e-07
9.00981e-09
4.16693e-07
9.16055e-09
4.17834e-07
9.29175e-09
4.18984e-07
9.40602e-09
4.20141e-07
9.50575e-09
4.21307e-07
9.59306e-09
4.22482e-07
9.66986e-09
4.23665e-07
9.73782e-09
4.24858e-07
9.79848e-09
4.2606e-07
9.85316e-09
4.27271e-07
9.90305e-09
4.28492e-07
9.94919e-09
4.29723e-07
9.99251e-09
4.30964e-07
1.00338e-08
4.32214e-07
1.00739e-08
4.33476e-07
1.01133e-08
4.34747e-07
1.01527e-08
4.36029e-07
1.01925e-08
4.37322e-07
1.02333e-08
1.02754e-08
3.60821e-07
-4.73241e-08
3.61966e-07
-4.2825e-08
3.63122e-07
-3.8559e-08
3.64286e-07
-3.453e-08
3.65458e-07
-3.07397e-08
3.66637e-07
-2.71877e-08
3.67822e-07
-2.38713e-08
3.69014e-07
-2.07862e-08
3.70211e-07
-1.79265e-08
3.71414e-07
-1.52847e-08
3.72622e-07
-1.28525e-08
3.73835e-07
-1.06205e-08
3.75052e-07
-8.57881e-09