/*--------------------------------*- C++ -*----------------------------------*\
  =========                 |
  \\      /  F ield         | OpenFOAM: The Open Source CFD Toolbox
   \\    /   O peration     | Website:  https://openfoam.org
    \\  /    A nd           | Version:  6
     \\/     M anipulation  |
\*---------------------------------------------------------------------------*/
FoamFile
{
    version     2.0;
    format      ascii;
    class       volVectorField;
    location    "0.09";
    object      U;
}
// * * * * * * * * * * * * * * * * * * * * * * * * * * * * * * * * * * * * * //

dimensions      [0 1 -1 0 0 0 0];

internalField   nonuniform List<vector> 
3081
(
(0.414825 -0.00250187 8.45752e-21)
(0.418698 -0.00223719 8.37332e-21)
(0.422195 -0.0019933 8.29233e-21)
(0.42534 -0.0017695 0)
(0.428157 -0.00156497 0)
(0.43067 -0.00137881 0)
(0.432903 -0.00121003 7.99802e-21)
(0.434878 -0.0010576 0)
(0.436617 -0.000920449 0)
(0.438142 -0.000797495 -7.80473e-21)
(0.439471 -0.000687659 0)
(0.440623 -0.000589802 0)
(0.441616 -0.000502671 -7.6311e-21)
(0.442464 -0.00042544 0)
(0.443183 -0.000355223 0)
(0.443781 -0.000282864 7.4745e-21)
(0.444236 -0.000207638 7.4253e-21)
(0.444578 -0.000141753 0)
(0.444831 -9.17844e-05 -7.33129e-21)
(0.445012 -5.57535e-05 0)
(0.445135 -2.98045e-05 7.24241e-21)
(0.445212 -1.09855e-05 0)
(0.445251 2.79242e-06 7.15793e-21)
(0.445261 1.2975e-05 7.11716e-21)
(0.445246 2.05118e-05 0)
(0.445211 2.60235e-05 0)
(0.445159 2.99346e-05 0)
(0.445095 3.25518e-05 0)
(0.445021 3.41085e-05 0)
(0.44494 3.47908e-05 0)
(0.444853 3.47525e-05 0)
(0.444763 3.41237e-05 6.81858e-21)
(0.444672 3.30159e-05 -6.78401e-21)
(0.444579 3.15256e-05 0)
(0.444487 2.97354e-05 0)
(0.444397 2.77164e-05 0)
(0.444308 2.55285e-05 0)
(0.444223 2.32225e-05 -1.32357e-20)
(0.444141 2.08406e-05 0)
(0.444063 1.84181e-05 1.3108e-20)
(0.443988 1.59838e-05 -1.30451e-20)
(0.443918 1.3562e-05 0)
(0.443852 1.11718e-05 0)
(0.443791 8.82926e-06 0)
(0.443734 6.54721e-06 1.27987e-20)
(0.443682 4.33588e-06 1.27383e-20)
(0.443634 2.20327e-06 0)
(0.443591 1.55797e-07 1.26187e-20)
(0.443552 -1.80141e-06 1.25595e-20)
(0.443517 -3.66434e-06 -1.25006e-20)
(0.443486 -5.42964e-06 0)
(0.44346 -7.09407e-06 0)
(0.443437 -8.65371e-06 -1.23261e-20)
(0.443417 -1.01037e-05 0)
(0.443401 -1.14378e-05 0)
(0.443388 -1.2649e-05 0)
(0.443377 -1.37281e-05 0)
(0.433897 -0.00628473 6.17589e-21)
(0.438375 -0.00564994 -6.21418e-21)
(0.44246 -0.00506077 -6.18182e-21)
(0.446175 -0.00451629 0)
(0.449541 -0.00401523 0)
(0.45258 -0.00355606 0)
(0.455314 -0.003137 -6.05464e-21)
(0.457764 -0.00275609 0)
(0.459951 -0.00241121 1.19566e-20)
(0.461897 -0.00210016 1.78614e-20)
(0.46362 -0.00182064 -1.18419e-20)
(0.46514 -0.00157025 0)
(0.466474 -0.00134646 -5.8556e-21)
(0.467641 -0.00114672 0)
(0.468656 -0.000966606 -1.16177e-20)
(0.46954 -0.000799582 5.77553e-21)
(0.470328 -0.000646232 5.74906e-21)
(0.471018 -0.000513331 0)
(0.471611 -0.000402694 1.71051e-20)
(0.472113 -0.000311342 -1.13473e-20)
(0.472531 -0.000235836 -5.65026e-21)
(0.472874 -0.000173482 0)
(0.473152 -0.00012206 -5.59772e-21)
(0.473373 -7.97462e-05 -1.67124e-20)
(0.473544 -4.50859e-05 0)
(0.473673 -1.69071e-05 -1.10408e-20)
(0.473766 5.75744e-06 -1.09919e-20)
(0.473828 2.37207e-05 -1.09436e-20)
(0.473865 3.76731e-05 0)
(0.47388 4.82076e-05 0)
(0.473877 5.58373e-05 0)
(0.473859 6.10085e-05 5.37723e-21)
(0.473829 6.41107e-05 5.35515e-21)
(0.473791 6.54838e-05 0)
(0.473745 6.5424e-05 1.06189e-20)
(0.473694 6.41887e-05 1.05741e-20)
(0.473639 6.2001e-05 0)
(0.473582 5.90531e-05 1.04859e-20)
(0.473524 5.551e-05 2.08832e-20)
(0.473465 5.1513e-05 -1.03983e-20)
(0.473408 4.71824e-05 -1.03543e-20)
(0.473351 4.26201e-05 0)
(0.473297 3.79121e-05 0)
(0.473245 3.31304e-05 0)
(0.473196 2.83352e-05 -1.01831e-20)
(0.47315 2.35765e-05 1.01401e-20)
(0.473108 1.8895e-05 2.01959e-20)
(0.473068 1.43244e-05 -1.0056e-20)
(0.473033 9.89223e-06 1.00133e-20)
(0.473 5.62114e-06 9.97177e-21)
(0.472972 1.53029e-06 0)
(0.472947 -2.3633e-06 0)
(0.472925 -6.04335e-06 -9.84557e-21)
(0.472907 -9.49344e-06 0)
(0.472892 -1.26963e-05 0)
(0.472881 -1.56328e-05 1.94421e-20)
(0.472872 -1.82824e-05 0)
(0.439538 -0.0109956 -9.64223e-21)
(0.444262 -0.00993754 0)
(0.448594 -0.00895019 0)
(0.452554 -0.00803266 0)
(0.456162 -0.00718355 0)
(0.459438 -0.00640101 0)
(0.462402 -0.00568274 -9.49531e-21)
(0.465075 -0.00502612 0)
(0.467476 -0.0044282 -9.47536e-21)
(0.469626 -0.00388585 -9.44823e-21)
(0.471543 -0.00339573 9.42006e-21)
(0.473246 -0.00295437 0)
(0.474754 -0.00255824 9.36103e-21)
(0.476083 -0.00220376 0)
(0.47725 -0.00188749 9.29914e-21)
(0.478271 -0.00160601 -9.26741e-21)
(0.479166 -0.00135521 -2.76874e-20)
(0.479948 -0.00113217 0)
(0.480627 -0.000935972 -2.74923e-20)
(0.481212 -0.000765472 -9.12164e-21)
(0.481712 -0.00061866 0)
(0.482133 -0.000493144 -1.81216e-20)
(0.482485 -0.000386456 -1.80539e-20)
(0.482776 -0.000296241 2.6983e-20)
(0.483012 -0.000220366 0)
(0.483201 -0.000156948 8.92816e-21)
(0.48335 -0.000104334 8.89396e-21)
(0.483463 -6.10764e-05 2.65755e-20)
(0.483545 -2.5911e-05 0)
(0.483602 2.27144e-06 0)
(0.483637 2.44445e-05 0)
(0.483653 4.1464e-05 8.72248e-21)
(0.483655 5.40826e-05 0)
(0.483644 6.2962e-05 0)
(0.483623 6.86834e-05 -8.62447e-21)
(0.483594 7.17557e-05 -8.59126e-21)
(0.48356 7.26238e-05 0)
(0.483521 7.16752e-05 0)
(0.483478 6.92462e-05 -1.69842e-20)
(0.483434 6.56276e-05 0)
(0.483389 6.10695e-05 1.68525e-20)
(0.483344 5.57869e-05 1.67864e-20)
(0.4833 4.9963e-05 0)
(0.483256 4.37536e-05 0)
(0.483215 3.72903e-05 -1.65897e-20)
(0.483175 3.06842e-05 -3.31153e-25)
(0.483138 2.40279e-05 -3.18054e-25)
(0.483104 1.73991e-05 0)
(0.483073 1.08625e-05 -3.26552e-20)
(0.483044 4.47269e-06 0)
(0.483018 -1.72349e-06 0)
(0.482996 -7.68525e-06 0)
(0.482977 -1.33755e-05 1.6065e-20)
(0.48296 -1.87595e-05 0)
(0.482947 -2.3803e-05 -3.18662e-20)
(0.482936 -2.84706e-05 -1.58676e-20)
(0.482928 -3.2724e-05 0)
(0.442666 -0.0158797 -1.60135e-20)
(0.447508 -0.0143955 1.60291e-20)
(0.451964 -0.0130061 1.60394e-20)
(0.456054 -0.0117109 -1.60447e-20)
(0.459794 -0.0105084 -1.60451e-20)
(0.463203 -0.00939644 0)
(0.466301 -0.00837242 -7.9907e-21)
(0.469105 -0.0074331 0)
(0.471636 -0.00657485 0)
(0.473911 -0.0057937 -1.59812e-20)
(0.47595 -0.0050854 0)
(0.477771 -0.00444551 0)
(0.47939 -0.0038695 -1.58982e-20)
(0.480825 -0.00335281 0)
(0.482092 -0.00289097 0)
(0.483206 -0.00247954 0)
(0.484184 -0.00211367 3.15174e-20)
(0.485039 -0.00178896 0)
(0.485783 -0.00150232 3.134e-20)
(0.486429 -0.00125104 1.56271e-20)
(0.486985 -0.0010322 1.55652e-20)
(0.48746 -0.000842754 9.89648e-24)
(0.487862 -0.000679672 1.54728e-20)
(0.4882 -0.000540046 -3.08328e-20)
(0.48848 -0.000421165 -1.53605e-20)
(0.488711 -0.000320551 0)
(0.488897 -0.000235968 -1.52552e-20)
(0.489044 -0.000165409 -3.04087e-20)
(0.489159 -0.000107084 0)
(0.489245 -5.93993e-05 0)
(0.489306 -2.09396e-05 0)
(0.489347 9.55169e-06 -2.67145e-24)
(0.48937 3.31876e-05 0)
(0.489378 5.09528e-05 0)
(0.489375 6.37166e-05 0)
(0.489362 7.22445e-05 0)
(0.489341 7.72089e-05 2.94317e-20)
(0.489314 7.91987e-05 0)
(0.489283 7.87279e-05 -2.92132e-20)
(0.489248 7.62434e-05 0)
(0.489212 7.21325e-05 -2.8994e-20)
(0.489174 6.67292e-05 -1.44427e-20)
(0.489136 6.03208e-05 2.87739e-20)
(0.489098 5.31529e-05 -2.86635e-20)
(0.489062 4.54346e-05 -1.4276e-20)
(0.489026 3.73437e-05 1.42206e-20)
(0.488992 2.90302e-05 -1.41659e-20)
(0.488961 2.06206e-05 0)
(0.488931 1.22219e-05 -1.40537e-20)
(0.488905 3.92491e-06 0)
(0.48888 -4.19237e-06 0)
(0.488859 -1.20617e-05 0)
(0.48884 -1.96221e-05 -2.76591e-20)
(0.488823 -2.68172e-05 0)
(0.48881 -3.35928e-05 5.63813e-25)
(0.488799 -3.9895e-05 0)
(0.48879 -4.56665e-05 0)
(0.4451 -0.0208617 2.82415e-20)
(0.449979 -0.0189572 -1.41803e-20)
(0.454484 -0.01717 -2.834e-20)
(0.458631 -0.0154996 1.42149e-20)
(0.462434 -0.0139447 1.42252e-20)
(0.465913 -0.0125031 0)
(0.469083 -0.0111719 4.27853e-23)
(0.471964 -0.00994747 0)
(0.474571 -0.00882563 -1.41875e-20)
(0.476925 -0.00780177 1.42128e-20)
(0.479041 -0.00687085 0)
(0.480937 -0.0060276 0)
(0.48263 -0.00526657 1.41608e-20)
(0.484137 -0.00458226 -1.41151e-20)
(0.485472 -0.00396919 0)
(0.486652 -0.00342189 0)
(0.48769 -0.0029347 -1.40517e-20)
(0.4886 -0.00250221 0)
(0.489396 -0.00211974 -1.39843e-20)
(0.490088 -0.00178308 0)
(0.490687 -0.00148823 -1.3904e-20)
(0.491202 -0.00123131 1.38622e-20)
(0.491642 -0.00100858 -2.76218e-20)
(0.492015 -0.000816488 1.37761e-20)
(0.492329 -0.000651693 1.3732e-20)
(0.49259 -0.000511117 0)
(0.492805 -0.00039194 1.36422e-20)
(0.492979 -0.000291605 1.35966e-20)
(0.493118 -0.000207803 0)
(0.493226 -0.000138458 0)
(0.493307 -8.17116e-05 2.69089e-20)
(0.493366 -3.59047e-05 -1.3411e-20)
(0.493406 4.41777e-07 2.67225e-20)
(0.49343 2.86419e-05 0)
(0.49344 4.98609e-05 0)
(0.493439 6.51289e-05 0)
(0.493429 7.53544e-05 -5.26913e-20)
(0.493412 8.13361e-05 0)
(0.493389 8.37739e-05 2.61549e-20)
(0.493362 8.32789e-05 0)
(0.493332 8.03831e-05 2.59611e-20)
(0.4933 7.55475e-05 0)
(0.493266 6.91702e-05 -2.5766e-20)
(0.493232 6.15935e-05 2.5668e-20)
(0.493199 5.31104e-05 2.55696e-20)
(0.493166 4.39711e-05 -2.54709e-20)
(0.493135 3.43885e-05 0)
(0.493105 2.45433e-05 0)
(0.493077 1.45891e-05 8.56336e-25)
(0.493051 4.65723e-06 0)
(0.493027 -5.13937e-06 0)
(0.493005 -1.4702e-05 0)
(0.492986 -2.39426e-05 2.47699e-20)
(0.492969 -3.2781e-05 0)
(0.492954 -4.11412e-05 2.45666e-20)
(0.492942 -4.89491e-05 0)
(0.492932 -5.61271e-05 2.43615e-20)
(0.447404 -0.0258407 -1.2855e-20)
(0.452258 -0.0235285 0)
(0.45675 -0.0213541 1.29135e-20)
(0.460896 -0.0193174 0)
(0.464709 -0.0174174 -1.29097e-20)
(0.468206 -0.0156518 0)
(0.471401 -0.0140177 3.77186e-23)
(0.474312 -0.0125112 0)
(0.476955 -0.0111277 1.29829e-20)
(0.479348 -0.00986215 0)
(0.481505 -0.0087088 0)
(0.483445 -0.00766168 0)
(0.485182 -0.00671451 0)
(0.486733 -0.00586091 1.2935e-20)
(0.488112 -0.00509447 0)
(0.489334 -0.00440875 0)
(0.490413 -0.00379726 2.57105e-20)
(0.491363 -0.00325369 0)
(0.492195 -0.00277218 0)
(0.492921 -0.00234729 0)
(0.493551 -0.00197396 2.54789e-20)
(0.494097 -0.00164738 0)
(0.494565 -0.00136302 2.53541e-20)
(0.494965 -0.00111659 0)
(0.495303 -0.0009041 -2.51876e-20)
(0.495587 -0.000721842 2.51106e-20)
(0.495824 -0.000566413 0)
(0.496018 -0.000434705 -2.49527e-20)
(0.496176 -0.000323896 0)
(0.496301 -0.000231435 0)
(0.496398 -0.000155026 -4.94236e-20)
(0.496472 -9.2608e-05 2.4625e-20)
(0.496525 -4.23389e-05 -2.45468e-20)
(0.49656 -2.57435e-06 0)
(0.496581 2.8148e-05 0)
(0.49659 5.11253e-05 0)
(0.496588 6.75051e-05 4.84025e-20)
(0.496579 7.82991e-05 0)
(0.496562 8.4397e-05 -2.40254e-20)
(0.496541 8.65782e-05 0)
(0.496516 8.55232e-05 0)
(0.496488 8.1824e-05 0)
(0.496458 7.59937e-05 0)
(0.496428 6.84752e-05 -2.35821e-20)
(0.496397 5.96497e-05 0)
(0.496366 4.98435e-05 2.34016e-20)
(0.496336 3.9336e-05 -2.33107e-20)
(0.496307 2.83655e-05 -2.32194e-20)
(0.496279 1.71356e-05 2.31287e-20)
(0.496253 5.82061e-06 0)
(0.496229 -5.42874e-06 0)
(0.496207 -1.6481e-05 0)
(0.496187 -2.72196e-05 0)
(0.496169 -3.75385e-05 0)
(0.496154 -4.73389e-05 0)
(0.49614 -5.65253e-05 0)
(0.496129 -6.49995e-05 -2.23801e-20)
(0.454593 -0.0280547 0)
(0.459021 -0.0255066 -2.38926e-20)
(0.463115 -0.0231156 0)
(0.46689 -0.0208806 1.20394e-20)
(0.470359 -0.0187998 0)
(0.473538 -0.0168701 -1.20017e-20)
(0.47644 -0.0150875 0)
(0.479083 -0.0134472 2.41112e-20)
(0.48148 -0.0119437 2.41191e-20)
(0.483647 -0.0105708 -2.41196e-20)
(0.485601 -0.00932174 0)
(0.487356 -0.00818968 0)
(0.488926 -0.0071674 2.40803e-20)
(0.490327 -0.00624764 0)
(0.491572 -0.00542307 2.40239e-20)
(0.492675 -0.0046864 -3.00446e-23)
(0.493647 -0.00403045 -2.39473e-20)
(0.494502 -0.00344839 0)
(0.49525 -0.00293378 0)
(0.495902 -0.00248055 -2.38119e-20)
(0.496467 -0.002083 0)
(0.496955 -0.00173576 0)
(0.497373 -0.00143382 -2.35981e-20)
(0.497729 -0.00117249 2.3544e-20)
(0.49803 -0.000947434 -4.69332e-20)
(0.498282 -0.000754654 0)
(0.498492 -0.000590497 2.33271e-20)
(0.498663 -0.000451632 0)
(0.498801 -0.000335039 0)
(0.49891 -0.000237988 4.61936e-20)
(0.498995 -0.000158024 -2.30234e-20)
(0.499058 -9.2943e-05 0)
(0.499103 -4.07731e-05 0)
(0.499132 2.43854e-07 0)
(0.499148 3.16716e-05 0)
(0.499153 5.48968e-05 -2.26275e-20)
(0.499149 7.11453e-05 2.2543e-20)
(0.499138 8.14978e-05 2.24651e-20)
(0.499121 8.69036e-05 0)
(0.4991 8.81939e-05 0)
(0.499075 8.60938e-05 0)
(0.499048 8.12339e-05 2.21325e-20)
(0.49902 7.41602e-05 4.40995e-20)
(0.498991 6.5344e-05 0)
(0.498961 5.5191e-05 -6.56418e-20)
(0.498932 4.40493e-05 2.17963e-20)
(0.498903 3.2217e-05 2.17107e-20)
(0.498876 1.995e-05 0)
(0.498849 7.46787e-06 -4.3074e-20)
(0.498825 -5.03939e-06 0)
(0.498802 -1.7406e-05 0)
(0.498781 -2.94852e-05 0)
(0.498762 -4.11444e-05 0)
(0.498745 -5.22611e-05 -4.21965e-20)
(0.49873 -6.27179e-05 0)
(0.498716 -7.23957e-05 0)
(0.45711 -0.0324877 0)
(0.461424 -0.0295823 2.26029e-20)
(0.465422 -0.0268514 0)
(0.469115 -0.0242944 2.26313e-20)
(0.472517 -0.0219097 0)
(0.47564 -0.0196943 2.27736e-20)
(0.478499 -0.0176442 0)
(0.481106 -0.0157544 -2.28126e-20)
(0.483478 -0.0140191 -4.55911e-20)
(0.485627 -0.0124316 2.28229e-20)
(0.487568 -0.0109848 0)
(0.489316 -0.0096712 -2.2766e-20)
(0.490884 -0.00848281 -2.27896e-20)
(0.492286 -0.00741164 0)
(0.493535 -0.00644958 -2.27389e-20)
(0.494644 -0.00558854 -2.27061e-20)
(0.495625 -0.00482057 2.26689e-20)
(0.496489 -0.00413797 -2.26029e-20)
(0.497247 -0.00353341 2.25589e-20)
(0.497909 -0.00299992 2.25043e-20)
(0.498486 -0.00253097 0)
(0.498984 -0.00212039 0)
(0.499413 -0.00176241 1.57172e-23)
(0.49978 -0.00145169 0)
(0.500092 -0.00118325 2.22127e-20)
(0.500354 -0.000952506 2.21338e-20)
(0.500573 -0.00075527 0)
(0.500754 -0.000587708 0)
(0.500901 -0.000446337 2.19285e-20)
(0.501019 -0.000328001 -2.18658e-20)
(0.501111 -0.000229856 0)
(0.501182 -0.000149343 0)
(0.501233 -8.4167e-05 0)
(0.501268 -3.22781e-05 2.15671e-20)
(0.50129 8.15133e-06 2.14925e-20)
(0.5013 3.87453e-05 0)
(0.5013 6.09426e-05 -2.13453e-20)
(0.501293 7.60142e-05 0)
(0.50128 8.5079e-05 0)
(0.501261 8.91191e-05 0)
(0.501239 8.89936e-05 0)
(0.501214 8.54513e-05 -2.09558e-20)
(0.501186 7.91425e-05 -2.08764e-20)
(0.501158 7.06302e-05 -4.15894e-20)
(0.501129 6.04004e-05 4.14321e-20)
(0.5011 4.88716e-05 4.12674e-20)
(0.501072 3.64033e-05 4.1105e-20)
(0.501044 2.33049e-05 0)
(0.501017 9.84253e-06 8.15565e-20)
(0.500992 -3.75322e-06 0)
(0.500968 -1.72813e-05 0)
(0.500945 -3.05639e-05 0)
(0.500924 -4.34413e-05 0)
(0.500906 -5.57665e-05 3.99431e-20)
(0.500888 -6.74006e-05 0)
(0.500873 -7.8203e-05 0)
(0.464028 -0.0335392 2.14574e-20)
(0.467887 -0.0304854 0)
(0.47146 -0.0276218 -2.1637e-20)
(0.474757 -0.0249469 0)
(0.47779 -0.0224581 2.165e-20)
(0.480572 -0.0201513 0)
(0.483114 -0.0180216 2.17013e-20)
(0.48543 -0.0160627 2.17652e-20)
(0.487534 -0.0142679 -2.17245e-20)
(0.489439 -0.0126296 0)
(0.491157 -0.0111395 4.34828e-20)
(0.492701 -0.0097894 0)
(0.494086 -0.00857043 0)
(0.495322 -0.00747383 0)
(0.496421 -0.00649078 0)
(0.497396 -0.00561258 0)
(0.498256 -0.00483077 2.16065e-20)
(0.499013 -0.00413722 -2.15656e-20)
(0.499676 -0.00352416 -2.15134e-20)
(0.500254 -0.00298427 0)
(0.500755 -0.00251064 0)
(0.501188 -0.0020968 1.59382e-23)
(0.501559 -0.00173674 0)
(0.501876 -0.00142487 2.12072e-20)
(0.502143 -0.00115604 -4.23024e-20)
(0.502367 -0.000925536 0)
(0.502553 -0.000729029 4.20341e-20)
(0.502705 -0.000562585 -6.28629e-20)
(0.502828 -0.000422638 0)
(0.502925 -0.000305961 -4.16335e-20)
(0.503 -0.00020965 0)
(0.503056 -0.000131093 0)
(0.503095 -6.79558e-05 -2.0614e-20)
(0.50312 -1.81506e-05 -2.05426e-20)
(0.503134 2.01792e-05 4.0932e-20)
(0.503137 4.86819e-05 4.07874e-20)
(0.503132 6.8816e-05 0)
(0.503121 8.18685e-05 0)
(0.503104 8.8971e-05 0)
(0.503083 9.11154e-05 0)
(0.503059 8.91683e-05 0)
(0.503033 8.38841e-05 0)
(0.503005 7.59179e-05 7.94886e-20)
(0.502976 6.58363e-05 0)
(0.502947 5.41287e-05 -3.11066e-24)
(0.502918 4.12166e-05 -3.92809e-20)
(0.50289 2.74634e-05 3.91214e-20)
(0.502862 1.31826e-05 -3.89659e-20)
(0.502835 -1.35414e-06 0)
(0.50281 -1.59099e-05 0)
(0.502786 -3.02757e-05 0)
(0.502763 -4.42642e-05 0)
(0.502742 -5.77041e-05 3.81609e-20)
(0.502723 -7.04341e-05 0)
(0.502705 -8.22951e-05 3.7834e-20)
(0.466865 -0.0373387 -7.22293e-23)
(0.470549 -0.0339813 -2.06736e-20)
(0.473965 -0.0308286 0)
(0.477123 -0.0278795 0)
(0.480034 -0.0251317 -4.16679e-20)
(0.482708 -0.0225812 0)
(0.485156 -0.020223 -5.03898e-23)
(0.487392 -0.0180509 0)
(0.489426 -0.0160578 2.09282e-20)
(0.49127 -0.0142358 0)
(0.492937 -0.0125764 -2.09235e-20)
(0.494439 -0.0110705 0)
(0.495788 -0.00970889 0)
(0.496994 -0.00848214 -2.08446e-20)
(0.498069 -0.00738078 0)
(0.499024 -0.00639544 0)
(0.499869 -0.00551696 0)
(0.500614 -0.00473648 2.07256e-20)
(0.501267 -0.00404553 2.06791e-20)
(0.501838 -0.00343604 0)
(0.502334 -0.00290044 4.11523e-20)
(0.502764 -0.00243158 2.05379e-20)
(0.503133 -0.00202284 -4.09313e-20)
(0.503448 -0.00166803 -2.04215e-20)
(0.503715 -0.00136148 -2.03364e-20)
(0.50394 -0.00109794 4.05765e-20)
(0.504127 -0.000872618 -2.06242e-23)
(0.504281 -0.000681154 4.03462e-20)
(0.504406 -0.000519575 4.01997e-20)
(0.504505 -0.00038429 8.01556e-20)
(0.504582 -0.000272058 -3.99386e-20)
(0.50464 -0.000179964 0)
(0.504681 -0.000105393 -3.96709e-20)
(0.504708 -4.60087e-05 -3.95347e-20)
(0.504723 2.736e-07 -3.94066e-20)
(0.504728 3.5306e-05 -8.52217e-24)
(0.504725 6.07304e-05 0)
(0.504714 7.79977e-05 0)
(0.504699 8.83863e-05 0)
(0.504678 9.30187e-05 0)
(0.504655 9.28774e-05 0)
(0.504628 8.88198e-05 0)
(0.5046 8.15918e-05 -7.6507e-20)
(0.504571 7.18402e-05 0)
(0.504541 6.01246e-05 -7.59106e-20)
(0.504511 4.69287e-05 0)
(0.504482 3.26697e-05 -7.5306e-20)
(0.504453 1.77084e-05 0)
(0.504425 2.35738e-06 3.73457e-20)
(0.504397 -1.31105e-05 0)
(0.504372 -2.8455e-05 -3.70359e-20)
(0.504347 -4.34615e-05 0)
(0.504324 -5.79344e-05 -7.34463e-20)
(0.504303 -7.16914e-05 0)
(0.504283 -8.45529e-05 -3.6407e-20)
(0.469946 -0.040946 -2.00049e-20)
(0.47342 -0.0373061 2.00577e-20)
(0.476647 -0.0338838 0)
(0.479635 -0.0306783 0)
(0.482394 -0.0276877 2.01759e-20)
(0.484933 -0.0249083 0)
(0.487262 -0.022335 -4.03951e-20)
(0.489392 -0.0199617 0)
(0.491333 -0.0177811 0)
(0.493097 -0.0157851 0)
(0.494694 -0.0139647 -2.02033e-20)
(0.496135 -0.0123105 0)
(0.497431 -0.0108129 0)
(0.498592 -0.00946168 6.05339e-20)
(0.499629 -0.00824696 0)
(0.500552 -0.00715873 0)
(0.50137 -0.00618719 0)
(0.502092 -0.00532285 -6.01942e-20)
(0.502726 -0.00455658 -2.00345e-20)
(0.503282 -0.00387968 0)
(0.503765 -0.00328391 -3.98651e-20)
(0.504184 -0.00276154 -3.9725e-20)
(0.504545 -0.00230536 7.92645e-20)
(0.504854 -0.00190863 -3.95062e-20)
(0.505117 -0.00156517 3.94178e-20)
(0.505338 -0.00126924 -2.31926e-23)
(0.505522 -0.00101562 -3.91784e-20)
(0.505674 -0.000799518 0)
(0.505797 -0.000616585 -3.89307e-20)
(0.505896 -0.00046288 -3.88041e-20)
(0.505972 -0.00033484 3.86758e-20)
(0.50603 -0.000229259 0)
(0.506072 -0.000143256 1.20267e-23)
(0.506099 -7.42515e-05 7.6553e-20)
(0.506114 -1.99444e-05 0)
(0.50612 2.17149e-05 -3.80125e-20)
(0.506116 5.25455e-05 0)
(0.506106 7.41572e-05 0)
(0.50609 8.79704e-05 0)
(0.50607 9.52344e-05 0)
(0.506046 9.7045e-05 0)
(0.506019 9.43599e-05 0)
(0.505991 8.80138e-05 3.70318e-20)
(0.505961 7.87321e-05 0)
(0.50593 6.71437e-05 3.67417e-20)
(0.505899 5.3793e-05 -3.6592e-20)
(0.505868 3.91505e-05 3.64476e-20)
(0.505837 2.36234e-05 0)
(0.505807 7.56513e-06 -3.61495e-20)
(0.505778 -8.71642e-06 0)
(0.50575 -2.49502e-05 1.86885e-24)
(0.505724 -4.08948e-05 0)
(0.505698 -5.63312e-05 1.53892e-24)
(0.505675 -7.1056e-05 0)
(0.505652 -8.48717e-05 0)
(0.473267 -0.0443296 1.93819e-20)
(0.4765 -0.04043 0)
(0.479508 -0.0367591 0)
(0.482299 -0.0333169 -1.95245e-20)
(0.48488 -0.0301014 0)
(0.487259 -0.0271094 0)
(0.489445 -0.024336 1.96576e-20)
(0.491447 -0.0217751 1.96262e-20)
(0.493275 -0.0194193 0)
(0.494939 -0.0172602 0)
(0.496447 -0.0152887 1.96781e-20)
(0.497811 -0.0134951 -3.92696e-20)
(0.499039 -0.0118692 0)
(0.500142 -0.0104005 -3.92775e-20)
(0.501128 -0.00907847 0)
(0.502006 -0.00789265 0)
(0.502786 -0.00683266 -3.90711e-20)
(0.503476 -0.00588844 3.90531e-20)
(0.504082 -0.00505027 3.89241e-20)
(0.504614 -0.00430888 0)
(0.505078 -0.00365545 0)
(0.505481 -0.0030817 3.86648e-20)
(0.505828 -0.00257987 -3.85578e-20)
(0.506125 -0.00214275 3.84479e-20)
(0.506378 -0.00176364 -3.83095e-20)
(0.506591 -0.00143638 -3.82205e-20)
(0.506769 -0.00115532 -3.80816e-20)
(0.506916 -0.000915276 -3.79642e-20)
(0.507036 -0.000711549 0)
(0.507131 -0.000539863 3.77235e-20)
(0.507205 -0.000396354 3.76004e-20)
(0.507261 -0.000277536 0)
(0.5073 -0.000180278 3.73616e-20)
(0.507326 -0.000101771 -1.13155e-23)
(0.507341 -3.95045e-05 3.70918e-20)
(0.507345 8.75746e-06 0)
(0.507341 4.50034e-05 0)
(0.50733 7.09951e-05 0)
(0.507313 8.82894e-05 0)
(0.507292 9.82577e-05 0)
(0.507267 0.000102104 0)
(0.50724 0.000100884 -3.61493e-20)
(0.50721 9.55168e-05 0)
(0.507179 8.68049e-05 -3.58692e-20)
(0.507146 7.54442e-05 0)
(0.507114 6.2038e-05 3.55881e-20)
(0.507081 4.71088e-05 0)
(0.507049 3.11091e-05 0)
(0.507017 1.44316e-05 -3.51502e-20)
(0.506986 -2.5814e-06 0)
(0.506956 -1.96291e-05 6.97129e-20)
(0.506927 -3.64442e-05 0)
(0.5069 -5.27851e-05 3.45586e-20)
(0.506873 -6.84283e-05 0)
(0.506848 -8.31599e-05 0)
(0.506824 -9.67574e-05 0)
(0.476811 -0.0474615 -6.39029e-23)
(0.479777 -0.0433265 0)
(0.482541 -0.0394296 0)
(0.48511 -0.0357714 1.91163e-20)
(0.487489 -0.0323504 0)
(0.489686 -0.0291636 0)
(0.491708 -0.0262065 3.82857e-20)
(0.493563 -0.0234728 1.91142e-20)
(0.495259 -0.0209553 0)
(0.496805 -0.0186455 0)
(0.498209 -0.0165341 0)
(0.49948 -0.014611 3.84033e-20)
(0.500627 -0.0128658 0)
(0.501657 -0.0112875 0)
(0.50258 -0.00986529 0)
(0.503404 -0.00858813 0)
(0.504136 -0.00744518 7.63373e-20)
(0.504784 -0.00642588 -3.80827e-20)
(0.505356 -0.00552 -4.26323e-23)
(0.505857 -0.00471774 3.79102e-20)
(0.506294 -0.0040098 0)
(0.506674 -0.00338737 -3.77164e-20)
(0.507002 -0.00284223 0)
(0.507283 -0.00236668 3.751e-20)
(0.507522 -0.00195362 3.74289e-20)
(0.507724 -0.00159645 0)
(0.507892 -0.00128915 3.72026e-20)
(0.508031 -0.00102617 7.41523e-20)
(0.508144 -0.000802475 0)
(0.508233 -0.000613488 -3.68482e-20)
(0.508303 -0.00045506 -7.34377e-20)
(0.508354 -0.000323446 0)
(0.508391 -0.000215278 0)
(0.508414 -0.000127532 -7.26934e-20)
(0.508426 -5.75044e-05 -1.0623e-23)
(0.508429 -2.77976e-06 0)
(0.508423 3.8789e-05 0)
(0.50841 6.91076e-05 0)
(0.508392 8.98618e-05 -3.56951e-20)
(0.50837 0.000102539 0)
(0.508343 0.000108446 0)
(0.508314 0.000108731 7.059e-20)
(0.508283 0.000104397 3.51557e-20)
(0.50825 9.63166e-05 3.50222e-20)
(0.508216 8.52513e-05 0)
(0.508182 7.1861e-05 0)
(0.508148 5.67178e-05 -3.45981e-20)
(0.508114 4.03178e-05 0)
(0.50808 2.30915e-05 -3.43104e-20)
(0.508047 5.4142e-06 0)
(0.508014 -1.23849e-05 -3.40258e-20)
(0.507983 -3.00139e-05 0)
(0.507953 -4.721e-05 -6.74616e-20)
(0.507924 -6.37313e-05 -6.7166e-20)
(0.507896 -7.93467e-05 6.68689e-20)
(0.50787 -9.38225e-05 0)
(0.48323 -0.0459724 3.71941e-20)
(0.485728 -0.0418731 0)
(0.488053 -0.0380209 0)
(0.490211 -0.0344149 -3.74155e-20)
(0.492206 -0.0310524 0)
(0.494046 -0.0279289 -3.75991e-20)
(0.495736 -0.0250386 -3.76234e-20)
(0.497284 -0.0223741 0)
(0.498697 -0.019927 -3.7563e-20)
(0.499982 -0.0176878 0)
(0.501147 -0.0156463 0)
(0.5022 -0.0137917 3.75297e-20)
(0.503147 -0.0121128 0)
(0.503997 -0.0105983 0)
(0.504756 -0.00923689 0)
(0.505432 -0.00801726 -4.96384e-23)
(0.50603 -0.00692842 3.7352e-20)
(0.506558 -0.0059597 -3.72688e-20)
(0.507022 -0.00510084 -3.71757e-20)
(0.507427 -0.00434209 0)
(0.507779 -0.00367422 7.39256e-20)
(0.508083 -0.00308855 -3.68459e-20)
(0.508343 -0.00257701 -3.67725e-20)
(0.508565 -0.00213207 3.66382e-20)
(0.508751 -0.00174677 0)
(0.508907 -0.00141474 -3.64206e-20)
(0.509035 -0.0011301 -3.63294e-20)
(0.509138 -0.000887525 -3.61945e-20)
(0.50922 -0.000682141 0)
(0.509283 -0.000509543 3.59768e-20)
(0.509329 -0.000365751 0)
(0.509361 -0.000247176 0)
(0.50938 -0.000150596 7.12081e-20)
(0.509389 -7.31262e-05 -3.5485e-20)
(0.509388 -1.21872e-05 0)
(0.50938 3.45169e-05 0)
(0.509365 6.90257e-05 0)
(0.509345 9.31457e-05 3.49717e-20)
(0.509321 0.000108472 0)
(0.509292 0.000116411 0)
(0.509262 0.000118195 -3.4574e-20)
(0.509229 0.000114904 -3.44392e-20)
(0.509194 0.000107482 -6.85977e-20)
(0.509158 9.67496e-05 6.83245e-20)
(0.509122 8.34203e-05 -6.80492e-20)
(0.509086 6.81136e-05 3.38891e-20)
(0.50905 5.13667e-05 0)
(0.509014 3.3646e-05 6.72156e-20)
(0.508978 1.53579e-05 0)
(0.508944 -3.1417e-06 0)
(0.50891 -2.15379e-05 0)
(0.508878 -3.95481e-05 6.60674e-20)
(0.508846 -5.69136e-05 1.31549e-19)
(0.508816 -7.3389e-05 -6.54829e-20)
(0.508786 -8.87279e-05 -6.51859e-20)
(0.486834 -0.048348 -3.68244e-20)
(0.489047 -0.0440709 0)
(0.491111 -0.0400476 0)
(0.493029 -0.036278 3.70171e-20)
(0.494806 -0.0327595 0)
(0.496448 -0.0294882 0)
(0.497958 -0.0264582 3.70269e-20)
(0.499344 -0.0236625 0)
(0.50061 -0.0210924 3.71278e-20)
(0.501764 -0.0187385 3.70469e-20)
(0.502812 -0.0165904 0)
(0.503759 -0.0146372 -3.70787e-20)
(0.504613 -0.0128674 0)
(0.50538 -0.0112694 0)
(0.506066 -0.00983148 0)
(0.506677 -0.00854213 -7.37482e-20)
(0.507219 -0.00738993 -3.67901e-20)
(0.507698 -0.00636383 0)
(0.508118 -0.00545319 0)
(0.508485 -0.00464787 0)
(0.508804 -0.00393826 -3.47463e-23)
(0.50908 -0.00331531 7.26927e-20)
(0.509316 -0.00277057 -3.62283e-20)
(0.509516 -0.00229618 -3.61511e-20)
(0.509684 -0.00188486 -3.60167e-20)
(0.509825 -0.00152989 7.1838e-20)
(0.509939 -0.00122515 3.5796e-20)
(0.510031 -0.000964997 3.57021e-20)
(0.510103 -0.000744327 0)
(0.510158 -0.000558496 0)
(0.510197 -0.000403307 0)
(0.510223 -0.000274974 0)
(0.510238 -0.000170095 -7.01904e-20)
(0.510242 -8.56172e-05 -3.49655e-20)
(0.510238 -1.88138e-05 -3.48405e-20)
(0.510226 3.27483e-05 0)
(0.510208 7.12318e-05 0)
(0.510186 9.85544e-05 0)
(0.510159 0.000116412 0)
(0.510128 0.000126298 0)
(0.510096 0.000129529 0)
(0.510061 0.000127255 0)
(0.510024 0.000120483 6.75947e-20)
(0.509987 0.000110091 -6.73207e-20)
(0.509949 9.68428e-05 6.70445e-20)
(0.50991 8.14018e-05 0)
(0.509872 6.43433e-05 0)
(0.509834 4.61673e-05 0)
(0.509796 2.73089e-05 6.59136e-20)
(0.50976 8.14892e-06 0)
(0.509724 -1.09767e-05 0)
(0.509688 -2.97675e-05 0)
(0.509654 -4.79495e-05 -6.47605e-20)
(0.509621 -6.52651e-05 0)
(0.50959 -8.14585e-05 1.2834e-19)
(0.490636 -0.0504815 0)
(0.492542 -0.0460481 3.53525e-20)
(0.494323 -0.0418741 -3.54249e-20)
(0.495982 -0.0379597 0)
(0.497523 -0.0343029 0)
(0.498948 -0.0309 -3.55821e-20)
(0.500262 -0.0277455 -8.78418e-23)
(0.501469 -0.0248323 0)
(0.502575 -0.022152 -3.56533e-20)
(0.503584 -0.019695 -3.57336e-20)
(0.504501 -0.017451 3.56564e-20)
(0.505332 -0.0154087 0)
(0.506082 -0.0135567 -3.56267e-20)
(0.506756 -0.011883 0)
(0.507359 -0.0103756 -3.55671e-20)
(0.507898 -0.00902285 3.55782e-20)
(0.508375 -0.00781287 3.55277e-20)
(0.508797 -0.00673435 0)
(0.509168 -0.00577631 0)
(0.509492 -0.00492828 0)
(0.509773 -0.00418031 -3.52071e-20)
(0.510015 -0.00352304 -7.02056e-20)
(0.510222 -0.00294769 7.00275e-20)
(0.510398 -0.0024461 0)
(0.510545 -0.00201069 3.48415e-20)
(0.510667 -0.00163448 -6.94653e-20)
(0.510766 -0.00131106 -2.20071e-23)
(0.510844 -0.00103458 3.45247e-20)
(0.510905 -0.000799671 -3.44239e-20)
(0.510949 -0.0006015 3.43212e-20)
(0.51098 -0.000435667 0)
(0.510999 -0.000298209 0)
(0.511007 -0.000185556 3.40159e-20)
(0.511006 -9.45065e-05 3.39054e-20)
(0.510997 -2.21946e-05 3.37936e-20)
(0.510981 3.3937e-05 0)
(0.51096 7.61646e-05 0)
(0.510934 0.000106509 0)
(0.510905 0.000126757 0)
(0.510872 0.000138487 0)
(0.510836 0.000143089 0)
(0.510799 0.00014178 6.59357e-20)
(0.510761 0.000135627 -6.56922e-20)
(0.510721 0.000125561 -6.54462e-20)
(0.510681 0.000112391 6.51977e-20)
(0.51064 9.68223e-05 0)
(0.5106 7.9466e-05 0)
(0.510559 6.08529e-05 0)
(0.51052 4.14449e-05 -6.41852e-20)
(0.51048 2.16458e-05 -6.392e-20)
(0.510442 1.81071e-06 0)
(0.510404 -1.77437e-05 6.33933e-20)
(0.510368 -3.67304e-05 0)
(0.510332 -5.48812e-05 0)
(0.510298 -7.19331e-05 -1.2518e-19)
(0.494468 -0.0522672 0)
(0.49606 -0.0477072 -3.60439e-20)
(0.497552 -0.0434101 7.20836e-20)
(0.498944 -0.039377 -3.60343e-20)
(0.50024 -0.0356064 -3.60676e-20)
(0.501442 -0.0320949 3.61792e-20)
(0.502552 -0.0288371 -3.6189e-20)
(0.503574 -0.0258262 0)
(0.504511 -0.0230539 7.52177e-23)
(0.505368 -0.0205106 3.60937e-20)
(0.506149 -0.018186 -3.614e-20)
(0.506857 -0.0160687 3.60437e-20)
(0.507496 -0.0141472 3.60666e-20)
(0.508072 -0.0124093 3.59629e-20)
(0.508589 -0.010843 5.2585e-23)
(0.509049 -0.00943611 0)
(0.509458 -0.00817675 0)
(0.509819 -0.00705329 3.56971e-20)
(0.510137 -0.00605451 0)
(0.510414 -0.00516968 -3.55054e-20)
(0.510654 -0.00438857 3.54054e-20)
(0.510861 -0.00370158 3.53348e-20)
(0.511037 -0.00309965 -2.96564e-23)
(0.511185 -0.00257438 0)
(0.511309 -0.00211796 0)
(0.511411 -0.00172317 3.48931e-20)
(0.511492 -0.00138339 -2.14598e-23)
(0.511556 -0.00109255 -3.46612e-20)
(0.511604 -0.000845122 3.45428e-20)
(0.511638 -0.000636068 -3.4423e-20)
(0.511659 -0.00046083 0)
(0.51167 -0.000315293 0)
(0.511672 -0.000195745 0)
(0.511665 -9.88572e-05 0)
(0.511651 -2.16442e-05 0)
(0.511631 3.8559e-05 0)
(0.511607 8.41269e-05 0)
(0.511578 0.000117169 0)
(0.511545 0.000139554 0)
(0.51151 0.000152932 0)
(0.511472 0.000158758 -6.60333e-20)
(0.511433 0.000158309 -6.57772e-20)
(0.511392 0.000152704 1.31005e-19)
(0.511351 0.00014292 1.30463e-19)
(0.511309 0.000129808 -6.4962e-20)
(0.511267 0.000114108 -6.46796e-20)
(0.511224 9.64648e-05 0)
(0.511182 7.74352e-05 0)
(0.51114 5.75051e-05 0)
(0.511099 3.70978e-05 1.2713e-19)
(0.511059 1.65855e-05 0)
(0.511019 -3.7018e-06 -6.29975e-20)
(0.510981 -2.3466e-05 0)
(0.510943 -4.24311e-05 0)
(0.510906 -6.03292e-05 6.21329e-20)
(0.499368 -0.0489925 -3.60499e-20)
(0.500585 -0.0446037 -3.618e-20)
(0.501723 -0.0404815 7.23104e-20)
(0.502786 -0.036625 7.23372e-20)
(0.503773 -0.033031 3.61313e-20)
(0.504687 -0.0296945 3.61284e-20)
(0.505531 -0.0266088 -3.61166e-20)
(0.506306 -0.0237657 3.61673e-20)
(0.507016 -0.0211557 -3.6135e-20)
(0.507664 -0.0187686 0)
(0.508252 -0.0165929 -3.6047e-20)
(0.508785 -0.014617 0)
(0.509265 -0.0128288 -3.59301e-20)
(0.509695 -0.011216 3.58618e-20)
(0.51008 -0.00976636 0)
(0.510421 -0.00846781 0)
(0.510722 -0.00730857 -3.55988e-20)
(0.510987 -0.00627724 0)