/*--------------------------------*- C++ -*----------------------------------*\
  =========                 |
  \\      /  F ield         | OpenFOAM: The Open Source CFD Toolbox
   \\    /   O peration     | Website:  https://openfoam.org
    \\  /    A nd           | Version:  6
     \\/     M anipulation  |
\*---------------------------------------------------------------------------*/
FoamFile
{
    version     2.0;
    format      ascii;
    class       volScalarField;
    location    "0.18";
    object      epsilon;
}
// * * * * * * * * * * * * * * * * * * * * * * * * * * * * * * * * * * * * * //

dimensions      [0 2 -3 0 0 0 0];

internalField   nonuniform List<scalar> 
12225
(
307.554
159.142
103.207
76.181
60.893
51.356
44.917
40.2582
36.6953
33.8564
31.526
29.5704
27.9017
26.4589
25.1975
24.0853
23.0976
22.2694
71.6109
59.7633
44.4175
34.3491
27.8024
23.3533
20.2011
17.8791
16.1037
14.7009
13.5624
12.6186
11.8225
11.1418
10.5529
10.0385
9.58414
9.17439
33.6139
34.4055
29.2906
24.3864
20.5357
17.6094
15.3797
13.6558
12.2966
11.2026
10.3055
9.55763
8.92524
8.38402
7.91599
7.50763
7.14841
6.83018
22.4947
24.1974
22.2225
19.5419
17.065
14.9829
13.2829
11.9024
10.7751
9.84534
9.0696
8.41501
7.85679
7.37614
6.95873
6.5935
6.2721
5.98981
18.0525
19.1659
18.2265
16.5959
14.8968
13.3495
12.0109
10.8754
9.91713
9.10689
8.41809
7.82854
7.32028
6.87898
6.49327
6.15413
5.85482
5.5924
15.9662
16.4001
15.7672
14.6432
13.3964
12.1983
11.1155
10.164
9.33815
8.62393
8.00578
7.4691
7.00111
6.59103
6.22994
5.91059
5.62757
5.37903
14.903
14.7894
14.1897
13.3006
12.3143
11.3432
10.4412
9.62835
8.90707
8.27153
7.71281
7.22136
6.78813
6.40507
6.06523
5.76282
5.49355
5.25633
14.3404
13.8261
13.1601
12.3652
11.5231
10.6961
9.91946
9.20924
8.56946
7.9978
7.48891
7.03636
6.63361
6.27456
5.95378
5.66664
5.40977
5.1826
14.0387
13.2461
12.4873
11.7147
10.9458
10.2062
9.51378
8.87742
8.29958
7.77861
7.3107
6.89108
6.51477
6.17699
5.87336
5.60014
5.35465
5.13671
13.8768
12.8995
12.0524
11.2678
10.5298
9.83969
9.2011
8.61594
8.0836
7.60164
7.16649
6.77405
6.42018
6.10085
5.81241
5.55174
5.31665
5.1072
13.7906
12.6958
11.7767
10.9671
10.2363
9.57093
8.9646
8.41319
7.91292
7.45987
7.05
6.67929
6.34386
6.04012
5.7648
5.51517
5.28939
5.08763
13.7489
12.5882
11.6206
10.7868
10.0518
9.39521
8.80491
8.27262
7.79202
7.35774
6.96506
6.60967
6.28768
5.99559
5.73033
5.48935
5.271
5.07547
13.7254
12.5235
11.521
10.6659
9.92275
9.26804
8.68596
8.16538
7.69794
7.277
6.89706
6.55344
6.24208
5.95945
5.70253
5.46888
5.25691
5.06681
13.7116
12.4831
11.4547
10.581
9.82782
9.17071
8.59185
8.0781
7.61955
7.20839
6.83838
6.50435
6.20197
5.92759
5.67814
5.4512
5.24521
5.06028
13.7045
12.4608
11.416
10.5284
9.76603
9.10453
8.52538
8.01445
7.5608
7.1558
6.79257
6.46549
6.16993
5.90206
5.65872
5.43742
5.23658
5.05618
13.7012
12.4503
11.3966
10.5006
9.73162
9.0659
8.48498
7.97437
7.52269
7.12084
6.76151
6.43877
6.14774
5.8844
5.64548
5.4284
5.23152
5.0547
13.7
12.4461
11.3886
10.4886
9.71595
9.0475
8.46493
7.95379
7.50253
7.10191
6.74442
6.42393
6.13543
5.87476
5.63855
5.42418
5.22991
5.05549
13.6996
12.4449
11.3862
10.4848
9.71086
9.04131
8.45797
7.94644
7.49519
7.09492
6.73808
6.41848
6.13103
5.87153
5.63657
5.42346
5.23046
5.05723
13.6998
12.4453
11.387
10.486
9.71246
9.04325
8.46017
7.94879
7.49759
7.09728
6.74033
6.42056
6.13291
5.87318
5.63797
5.42461
5.23135
5.05788
13.701
12.4493
11.3947
10.4976
9.72762
9.06117
8.47984
7.96918
7.51775
7.11643
6.75784
6.43599
6.14594
5.88363
5.64574
5.4297
5.23381
5.0579
13.7054
12.4634
11.4201
10.5336
9.77189
9.11062
8.53146
8.02039
7.56656
7.1614
6.79802
6.47084
6.17522
5.90733
5.66399
5.44271
5.24191
5.06156
13.7204
12.5081
11.4948
10.6317
9.88425
9.22859
8.64814
8.13089
7.66776
7.25156
6.87645
6.5375
6.23052
5.95193
5.69869
5.46834
5.25933
5.0718
13.767
12.633
11.6842
10.8596
10.1263
9.46682
8.87112
8.33235
7.84504
7.40435
7.00578
6.64513
6.31852
6.02243
5.75371
5.50977
5.28889
5.09129
13.9007
12.9462
12.1086
11.3252
10.5844
9.88982
9.24645
8.65668
8.12015
7.6345
7.19614
6.80099
6.44482
6.12357
5.83354
5.57155
5.33537
5.12512
14.2607
13.6658
12.974
12.1888
11.372
10.5738
9.82388
9.1362
8.51458
7.95721
7.45943
7.0155
6.61947
6.26569
5.94908
5.66526
5.4111
5.18626
15.1941
15.2319
14.6348
13.6938
12.6456
11.6176
10.6673
9.81501
9.06213
8.40152
7.823
7.31593
6.87037
6.47755
6.12996
5.82133
5.54708
5.30606
17.6338
18.6177
17.7645
16.258
14.6629
13.1886
11.8966
10.7897
9.84875
9.04911
8.36706
7.78209
7.27719
6.83856
6.45509
6.11795
5.82056
5.56066
24.7058
26.4229
23.9015
20.7812
17.9997
15.7042
13.8523
12.3631
11.1577
10.1713
9.35406
8.66872
8.08735
7.58902
7.15787
6.78182
6.45194
6.16437
51.9669
47.7358
37.7987
30.1744
24.7625
20.8809
18.0404
15.9121
14.275
12.9825
11.9377
11.0761
10.3533
9.73844
9.209
8.7486
8.34527
7.99306
251.833
137.372
90.8037
67.159
53.3497
44.5787
38.6406
34.3845
31.1791
28.6653
26.6303
24.942
23.5146
22.2898
21.2264
20.2944
19.4712
18.7422
0.07685
0.0828216
0.102028
0.111013
0.125584
0.143941
0.166526
0.195814
0.226227
0.258801
0.294579
0.333913
0.376823
0.423083
0.472329
0.524128
0.578035
0.633622
0.690495
0.748302
0.806737
0.86554
0.924499
0.983444
1.04225
1.10082
1.15909
1.21704
1.27465
1.33194
1.38893
1.44565
1.50215
1.55845
1.61462
1.6707
1.72673
1.78277
1.83887
1.89509
1.95152
2.00826
2.06547
2.12336
2.18225
2.24261
2.30512
2.36771
2.42996
2.49181
2.55314
2.61373
2.67336
2.73173
2.78855
2.84348
2.89615
2.94617
2.99317
3.03672
3.07641
3.11184
3.1426
3.16833
3.18866
3.2033
3.21198
3.21448
3.21066
3.20043
3.18379
3.16077
3.13152
3.09623
3.05515
3.0086
2.95696
2.90064
2.8401
2.77584
2.70843
2.63864
2.56774
2.49842
2.43603
2.3861
2.3419
2.29803
2.25374
2.20904
2.16408
2.11903
2.07407
2.02936
1.98504
1.94124
1.89804
1.85554
1.81378
1.77282
1.73268
1.69337
1.65489
1.61723
1.58037
1.54428
1.50893
1.47429
1.44031
1.40695
1.37418
1.34197
1.31027
1.27908
1.24836
1.21811
1.18832
1.15901
1.13017
1.10184
1.07405
1.04683
1.02023
0.994298
0.96909
0.944658
0.921049
0.898296
0.876413
0.855393
0.835255
0.81616
0.798522
0.782358
0.76756
0.754054
0.741771
0.730648
0.720621
0.711629
0.703608
0.696496
0.690231
0.68475
0.679993
0.675899
0.67241
0.66947
0.667024
0.665022
0.663416
0.662161
0.661216
0.660543
0.660106
0.659875
0.659821
0.659917
0.660141
0.660472
0.660889
0.661377
0.661918
0.662497
0.663099
0.663706
0.664302
0.664868
0.665378
0.665803
0.666102
0.666222
0.666085
0.665574
0.664511
0.662592
0.659302
0.653596
0.64378
0.626278
0.221556
0.141094
0.141084
0.156656
0.178913
0.206967
0.238601
0.270953
0.301734
0.330522
0.357551
0.383112
0.407434
0.430703
0.453089
0.474753
0.49585
0.516518
0.536877
0.557022
0.577023
0.596928
0.616765
0.636551
0.656291
0.675984
0.695626
0.715213
0.73474
0.754205
0.773607
0.792946
0.812226
0.831451
0.850628
0.869766
0.888876
0.907974
0.927083
0.94623
0.965456
0.984813
1.00437
1.02423
1.04451
1.06536
1.08696
1.10896
1.13092
1.15275
1.17438
1.19573
1.21674
1.2373
1.25731
1.27666
1.29522
1.31287
1.32946
1.34486
1.35891
1.37146
1.38237
1.3915
1.39872
1.40389
1.40691
1.4077
1.40618
1.4023
1.39604
1.3874
1.37642
1.36316
1.34768
1.33011
1.31057
1.28923
1.26625
1.24185
1.21629
1.18988
1.16306
1.13642
1.11066
1.08688
1.06392
1.04106
1.01818
0.995285
0.972446
0.949733
0.927214
0.90495
0.882994
0.86139
0.840173
0.819371
0.799003
0.779084
0.759619
0.740612
0.722059
0.703954
0.686288
0.669048
0.652221
0.635792
0.619747
0.60407
0.588747
0.573764
0.55911
0.544776
0.530754
0.517039
0.503628
0.490524
0.477728
0.465248
0.453091
0.44127
0.429796
0.418685
0.407952
0.397611
0.387678
0.378166
0.369086
0.360452
0.352286
0.344638
0.337613
0.331263
0.325431
0.320069
0.315159
0.310683
0.30662
0.302949
0.299647
0.296692
0.294061
0.291731
0.28968
0.287886
0.286327
0.284983
0.283834
0.282862
0.282047
0.281375
0.280829
0.280394
0.280059
0.27981
0.279637
0.27953
0.279481
0.279482
0.279526
0.279607
0.27972
0.27986
0.280024
0.280208
0.28041
0.280628
0.280861
0.281109
0.281373
0.281659
0.281974
0.28234
0.282797
0.283437
0.284467
0.286388
0.290456
0.30046
0.445773
0.236701
0.217259
0.222887
0.238872
0.260895
0.285671
0.310284
0.332962
0.353273
0.371533
0.388279
0.404018
0.419157
0.433995
0.448735
0.463504
0.478363
0.493328
0.508379
0.523478
0.538572
0.553611
0.568547
0.583341
0.597962
0.612393
0.626625
0.64066
0.654504
0.668172
0.681684
0.695063
0.708336
0.721533
0.734684
0.747826
0.760993
0.774227
0.787567
0.801056
0.814739
0.82866
0.842861
0.85738
0.872245
0.887468
0.902881
0.918377
0.933904
0.949417
0.964871
0.980209
0.99537
1.01028
1.02485
1.039
1.05261
1.06558
1.07779
1.08911
1.09942
1.10858
1.11646
1.12294
1.1279
1.13124
1.13285
1.13267
1.13063
1.12671
1.12087
1.11314
1.10355
1.09215
1.07901
1.06425
1.04799
1.03035
1.01152
0.991662
0.970995
0.949748
0.928153
0.90687
0.886055
0.865428
0.844854
0.824316
0.803856
0.783534
0.763411
0.743543
0.723982
0.70477
0.685941
0.667522
0.649536
0.631994
0.614906
0.598276
0.582102
0.56638
0.551101
0.536257
0.521835
0.507821
0.494202
0.480963
0.46809
0.455568
0.443385
0.431528
0.419988
0.408756
0.397824
0.387188
0.376844
0.366792
0.357031
0.347566
0.338399
0.329537
0.320986
0.312753
0.304847
0.297274
0.290043
0.283161
0.276636
0.270478
0.2647
0.259322
0.254358
0.24981
0.245643
0.241829
0.238352
0.235195
0.23234
0.229771
0.227469
0.225416
0.223595
0.221988
0.220578
0.219347
0.218281
0.217363
0.216579
0.215914
0.215357
0.214894
0.214516
0.214212
0.213972
0.21379
0.213656
0.213565
0.213511
0.213489
0.213493
0.213521
0.21357
0.213635
0.213716
0.21381
0.213916
0.214033
0.214163
0.214305
0.214464
0.214645
0.214861
0.215138
0.215528
0.216142
0.217245
0.219445
0.22429
0.662621
0.324307
0.28047
0.275167
0.28221
0.295251
0.311088
0.327477
0.343134
0.357675
0.371263
0.384257
0.397003
0.409753
0.422663
0.435798
0.449167
0.462736
0.476447
0.490231
0.504019
0.517746
0.531357
0.544809
0.558068
0.571115
0.583939
0.59654
0.608924
0.621104
0.633099
0.644932
0.65663
0.668221
0.679738
0.691214
0.702685
0.714188
0.72576
0.737437
0.749258
0.761255
0.773461
0.785903
0.798602
0.811571
0.824819
0.838277
0.851902
0.865663
0.879532
0.893471
0.907439
0.92138
0.935229
0.948909
0.962333
0.9754
0.987999
1.00001
1.0113
1.02174
1.03119
1.03951
1.04657
1.05223
1.05637
1.05889
1.0597
1.05873
1.05593
1.05127
1.04475
1.0364
1.02626
1.01441
1.00093
0.98595
0.969591
0.952003
0.933344
0.913781
0.893485
0.872881
0.852264
0.831646
0.811015
0.790388
0.769811
0.749349
0.729068
0.709033
0.689303
0.669927
0.650947
0.632399
0.614307
0.596692
0.579565
0.562935
0.546804
0.531169
0.516024
0.50136
0.487165
0.473427
0.460129
0.447257
0.434795
0.422726
0.411034
0.399704
0.388723
0.378077
0.367756
0.357749
0.348049
0.338648
0.329544
0.320732
0.312212
0.303985
0.296051
0.288413
0.281076
0.274043
0.267318
0.260906
0.254811
0.249038
0.243592
0.238477
0.233699
0.229262
0.225167
0.221409
0.217968
0.214827
0.211973
0.209389
0.20706
0.204971
0.203105
0.201446
0.199979
0.198689
0.197559
0.196576
0.195725
0.194994
0.19437
0.193841
0.193396
0.193026
0.192722
0.192475
0.192278
0.192124
0.192007
0.191923
0.191867
0.191834
0.191821
0.191826
0.191845
0.191878
0.191921
0.191975
0.192037
0.19211
0.192193
0.192288
0.192401
0.192541
0.192724
0.192987
0.1934
0.194122
0.195475
0.198079
0.828178
0.38427
0.322559
0.308583
0.308347
0.314264
0.323347
0.333885
0.344917
0.356048
0.367233
0.378572
0.390177
0.402122
0.414423
0.427059
0.439975
0.453104
0.466374
0.479712
0.493054
0.506343
0.519531
0.53258
0.545463
0.55816
0.57066
0.582959
0.595059
0.606968
0.618699
0.630268
0.641696
0.653007
0.66423
0.675393
0.686529
0.697671
0.708854
0.720113
0.731482
0.742994
0.754681
0.766572
0.778692
0.791063
0.803703
0.816593
0.829709
0.843036
0.856554
0.870234
0.88404
0.897922
0.911818
0.925652
0.939334
0.952761
0.965817
0.978373
0.990291
1.00142
1.01162
1.02073
1.02859
1.03507
1.04003
1.04335
1.04492
1.04466
1.04252
1.03845
1.03246
1.02457
1.01481
1.00326
0.990019
0.975194
0.958916
0.941335
0.922596
0.902855
0.882497
0.861763
0.840763
0.819585
0.798303
0.776994
0.755739
0.734618
0.71371
0.693085
0.672804
0.652922
0.633483
0.614521
0.596066
0.578136
0.560745
0.543899
0.527601
0.511848
0.496632
0.481943
0.467768
0.454092
0.440898
0.42817
0.415888
0.404034
0.392591
0.38154
0.370865
0.360551
0.350584
0.340951
0.331641
0.322645
0.313955
0.305567
0.297475
0.289678
0.282173
0.274962
0.268044
0.261422
0.255097
0.249072
0.243349
0.23793
0.232818
0.228014
0.22352
0.219335
0.21546
0.211889
0.208615
0.205624
0.2029
0.200432
0.198205
0.196203
0.194412
0.192818
0.191405
0.190159
0.189065
0.18811
0.187281
0.186564
0.185949
0.185424
0.184979
0.184604
0.184292
0.184033
0.183821
0.18365
0.183514
0.183408
0.183328
0.18327
0.183231
0.183207
0.183197
0.183198
0.18321
0.18323
0.183259
0.183295
0.18334
0.183395
0.183464
0.183554
0.183678
0.183861
0.184152
0.184654
0.185549
0.187112
0.939589
0.421031
0.34582
0.325536
0.320452
0.32189
0.326864
0.333924
0.342271
0.351489
0.361387
0.371883
0.382932
0.39449
0.406499
0.418895
0.431606
0.44456
0.457686
0.470923
0.484212
0.497503
0.510753
0.523926
0.536991
0.549924
0.562709
0.575331
0.587785
0.600068
0.612184
0.624139
0.635946
0.647623
0.659188
0.670666
0.682085
0.693475
0.704868
0.716298
0.7278
0.73941
0.751164
0.763094
0.775235
0.787617
0.800268
0.813193
0.826385
0.839837
0.853538
0.867467
0.881589
0.895861
0.910219
0.92459
0.938879
0.952978
0.966764
0.980098
0.99283
1.0048
1.01584
1.02579
1.03447
1.04173
1.04741
1.05138
1.05352
1.05375
1.05199
1.04821
1.0424
1.03457
1.02478
1.01309
0.999613
0.984459
0.967761
0.94969
0.930355
0.910194
0.889348
0.867976
0.846219
0.824198
0.802027
0.779812
0.757655
0.735649
0.713881
0.692428
0.671357
0.650724
0.630578
0.610956
0.591887
0.573392
0.555486
0.538176
0.521463
0.505344
0.489811
0.474853
0.460456
0.446603
0.433276
0.420455
0.40812
0.39625
0.384825
0.373826
0.363232
0.353025
0.34319
0.33371
0.324572
0.315764
0.307275
0.299098
0.291226
0.283654
0.276377
0.269394
0.262704
0.256305
0.250199
0.244385
0.238865
0.23364
0.22871
0.224074
0.219733
0.215685
0.211928
0.208459
0.20527
0.202352
0.199692
0.197278
0.195096
0.193132
0.191373
0.189804
0.188411
0.18718
0.186097
0.185149
0.184323
0.183607
0.182989
0.182459
0.182007
0.181623
0.1813
0.181029
0.180803
0.180617
0.180465
0.180342
0.180243
0.180166
0.180107
0.180062
0.18003
0.180009
0.179998
0.179994
0.179997
0.180007
0.180025
0.18005
0.180087
0.18014
0.18022
0.180344
0.18055
0.180902
0.181512
0.182515
1.00899
0.440466
0.355266
0.330538
0.322491
0.321457
0.324259
0.329494
0.33642
0.344606
0.353787
0.363791
0.374493
0.385796
0.39761
0.409858
0.422467
0.43537
0.448507
0.461821
0.475263
0.488786
0.502347
0.51591
0.529439
0.542904
0.55628
0.569544
0.582679
0.595672
0.608517
0.621209
0.633753
0.646155
0.658428
0.67059
0.682662
0.694671
0.706646
0.718621
0.730631
0.742714
0.754909
0.767254
0.779789
0.792549
0.805571
0.818876
0.832468
0.84635
0.860516
0.87495
0.889624
0.904494
0.9195
0.934565
0.949592
0.964467
0.979059
0.993219
1.00678
1.01958
1.03143
1.04215
1.05155
1.05946
1.06572
1.07018
1.07271
1.07321
1.07161
1.06788
1.06199
1.05398
1.0439
1.03182
1.01784
1.00211
0.984727
0.965992
0.946119
0.9253
0.903709
0.881511
0.858863
0.835907
0.812778
0.789598
0.766481
0.743532
0.720844
0.698499
0.67657
0.655118
0.634191
0.613831
0.594069
0.574927
0.556421
0.538558
0.52134
0.504764
0.488821
0.473499
0.458784
0.444657
0.431099
0.418088
0.405602
0.393618
0.382114
0.371066
0.360455
0.350257
0.340456
0.331031
0.321968
0.313251
0.304867
0.296807
0.28906
0.281619
0.274479
0.267635
0.261083
0.254822
0.248851
0.243169
0.237774
0.232668
0.227849
0.223316
0.219069
0.215104
0.211418
0.208009
0.204869
0.201991
0.199364
0.196977
0.194816
0.192868
0.191121
0.18956
0.188172
0.186943
0.18586
0.18491
0.18408
0.183358
0.182734
0.182196
0.181734
0.181341
0.181006
0.180723
0.180485
0.180286
0.18012
0.179982
0.179869
0.179776
0.179701
0.17964
0.179591
0.179553
0.179523
0.1795
0.179484
0.179474
0.179469
0.179472
0.179483
0.179507
0.179552
0.179631
0.17977
0.180015
0.180434
0.181102
1.0446
0.447685
0.355607
0.327821
0.318003
0.315702
0.317472
0.321847
0.328077
0.335717
0.344478
0.354155
0.3646
0.375695
0.387348
0.399484
0.412035
0.424944
0.43816
0.451633
0.46532
0.479176
0.49316
0.507231
0.52135
0.535482
0.549593
0.563652
0.577631
0.59151
0.605269
0.618897
0.632385
0.645734
0.658947
0.672034
0.685011
0.6979
0.710727
0.723522
0.73632
0.74916
0.76208
0.775124
0.788333
0.801747
0.815406
0.829343
0.84357
0.858095
0.872918
0.888027
0.903397
0.918985
0.934732
0.950557
0.966361
0.982022
0.997401
1.01234
1.02666
1.04018
1.05271
1.06405
1.074
1.08238
1.08901
1.09373
1.09642
1.09697
1.09531
1.0914
1.08523
1.07683
1.06626
1.05361
1.03895
1.02254
1.00455
0.985178
0.964604
0.943021
0.920612
0.897551
0.874005
0.85013
0.82607
0.80196
0.777922
0.754067
0.730494
0.70729
0.684531
0.662281
0.640592
0.619508
0.59906
0.579273
0.560164
0.54174
0.524006
0.506956
0.490583
0.474875
0.459816
0.445386
0.431566
0.418331
0.405659
0.393524
0.381902
0.370768
0.360098
0.34987
0.34006
0.330649
0.321618
0.31295
0.304629
0.296642
0.288978
0.281627
0.274582
0.267835
0.261382
0.25522
0.249346
0.243757
0.238452
0.233431
0.228691
0.224231
0.220048
0.216141
0.212506
0.209138
0.206031
0.203179
0.200573
0.198201
0.19605
0.19411
0.192367
0.190807
0.189419
0.188187
0.1871
0.186144
0.185308
0.184579
0.183946
0.183399
0.182928
0.182524
0.182179
0.181886
0.181637
0.181426
0.181248
0.181098
0.180973
0.180867
0.180779
0.180705
0.180642
0.180589
0.180545
0.180507
0.180475
0.180448
0.180426
0.18041
0.1804
0.180401
0.180417
0.18046
0.180547
0.180711
0.180995
0.181449
1.05378
0.446515
0.350337
0.320546
0.309661
0.306716
0.308023
0.312018
0.317912
0.325248
0.333732
0.343157
0.353375
0.364274
0.375768
0.387791
0.400287
0.413209
0.426513
0.440158
0.454103
0.468308
0.482732
0.497333
0.512068
0.526898
0.541783
0.556684
0.571568
0.586403
0.601162
0.615825
0.630374
0.644801
0.659102
0.673278
0.68734
0.701303
0.715188
0.729023
0.742838
0.756671
0.77056
0.784548
0.798677
0.812989
0.827525
0.842319
0.85739
0.872749
0.888399
0.904329
0.920513
0.936909
0.953454
0.970064
0.986635
1.00304
1.01913
1.03473
1.04966
1.06373
1.07673
1.08845
1.0987
1.10728
1.11401
1.11872
1.12129
1.12162
1.11964
1.11532
1.10865
1.09966
1.08842
1.07511
1.05985
1.0428
1.02414
1.00407
0.982761
0.960416
0.937219
0.91335
0.888983
0.864278
0.839388
0.814453
0.7896
0.764943
0.740587
0.71662
0.693122
0.670157
0.647783
0.626042
0.604971
0.584593
0.564928
0.545985
0.527767
0.510272
0.493492
0.477414
0.462023
0.447299
0.43322
0.419763
0.406902
0.394612
0.382866
0.371637
0.3609
0.350628
0.340798
0.331388
0.322375
0.313741
0.305467
0.297539
0.289942
0.282665
0.275698
0.269033
0.262664
0.256584
0.250792
0.245282
0.240053
0.235103
0.230429
0.226029
0.221902
0.218043
0.21445
0.211117
0.208039
0.205209
0.202619
0.200259
0.198117
0.196182
0.194441
0.192882
0.191491
0.190257
0.189165
0.188203
0.18736
0.186624
0.185984
0.185429
0.184949
0.184537
0.184183
0.18388
0.183621
0.183401
0.183213
0.183053
0.182917
0.182801
0.182702
0.182616
0.182543
0.182478
0.182422
0.182371
0.182326
0.182286
0.18225
0.182218
0.182191
0.182172
0.182165
0.182178
0.182224
0.182326
0.182514
0.182824
1.04252
0.439612
0.341795
0.310857
0.299333
0.296038
0.297119
0.300926
0.306629
0.313757
0.322018
0.331212
0.341202
0.351891
0.363204
0.375089
0.3875
0.4004
0.413756
0.427531
0.441692
0.4562
0.471016
0.486099
0.501406
0.516893
0.532518
0.548237
0.564011
0.579802
0.595577
0.611307
0.626968
0.642543
0.65802
0.673395
0.688671
0.703856
0.718966
0.734022
0.749053
0.76409
0.779171
0.794333
0.809619
0.825067
0.840717
0.8566
0.872733
0.889126
0.905779
0.922677
0.939792
0.957076
0.97446
0.991855
1.00915
1.0262
1.04286
1.05895
1.07427
1.08862
1.10179
1.11358
1.12378
1.13221
1.13867
1.14302
1.14514
1.14493
1.14232
1.13731
1.12994
1.12025
1.10834
1.09435
1.0784
1.06067
1.04134
1.02058
0.998599
0.975572
0.951692
0.927141
0.902093
0.876711
0.85115
0.825551
0.800043
0.774743
0.749755
0.725171
0.70107
0.677521
0.654581
0.632294
0.610699
0.589822
0.569683
0.550292
0.531656
0.513771
0.496632
0.480227
0.464539
0.449551
0.43524
0.421581
0.40855
0.396118
0.384259
0.372944
0.362145
0.351835
0.341989
0.332581
0.323588
0.314988
0.306761
0.29889
0.291359
0.284154
0.277264
0.270679
0.264391
0.258392
0.252679
0.247246
0.242091
0.23721
0.232601
0.22826
0.224187
0.220376
0.216825
0.213528
0.21048
0.207674
0.205103
0.202757
0.200626
0.198698
0.196962
0.195404
0.194014
0.192777
0.191683
0.190717
0.189869
0.189128
0.188481
0.18792
0.187433
0.187014
0.186652
0.186341
0.186075
0.185846
0.18565
0.185482
0.185338
0.185213
0.185104
0.18501
0.184927
0.184853
0.184786
0.184725
0.18467
0.184618
0.18457
0.184525
0.184484
0.184449
0.184423
0.184412
0.184426
0.184481
0.184599
0.18481
1.0153
0.428773
0.331508
0.300169
0.288313
0.284808
0.285744
0.289413
0.294958
0.301897
0.309937
0.318893
0.328637
0.339087
0.350182
0.361883
0.374155
0.386973
0.40031
0.414139
0.428432
0.443154
0.458271
0.473744
0.489531
0.505588
0.521872
0.538337
0.554941
0.571642
0.588402
0.605187
0.621968
0.63872
0.655426
0.672075
0.688661
0.705188
0.721664
0.738105
0.754532
0.770974
0.78746
0.804025
0.820706
0.837537
0.854553
0.871771
0.889201
0.906843
0.924688
0.942711
0.960873
0.979116
0.997359
1.0155
1.03343
1.05099
1.06801
1.08433
1.09971
1.11398
1.12691
1.13833
1.14803
1.15585
1.16161
1.16515
1.16639
1.16527
1.16175
1.15586
1.14761
1.13709
1.12439
1.10964
1.09299
1.07459
1.05462
1.03327
1.01072
0.987147
0.962748
0.937697
0.912163
0.886309
0.860285
0.834232
0.808276
0.782533
0.757108
0.732092
0.707565
0.683595
0.660241
0.63755
0.615561
0.594302
0.573795
0.554054
0.535084
0.516887
0.499456
0.482782
0.46685
0.451642
0.437137
0.423311
0.410138
0.39759
0.385638
0.374255
0.363411
0.353077
0.343226
0.333831
0.324867
0.31631
0.308138
0.300331
0.292873
0.285747
0.27894
0.27244
0.266238
0.260326
0.254697
0.249346
0.244269
0.239462
0.234922
0.230647
0.226632
0.222874
0.21937
0.216114
0.213101
0.210325
0.207778
0.205452
0.203336
0.201419
0.199692
0.19814
0.196754
0.195519
0.194425
0.193458
0.192608
0.191864
0.191213
0.190647
0.190156
0.189731
0.189364
0.189047
0.188775
0.18854
0.188337
0.188162
0.18801
0.187878
0.187763
0.187661
0.18757
0.187488
0.187413
0.187344
0.187279
0.187218
0.18716
0.187105
0.187053
0.187005
0.186963
0.186933
0.186922
0.186941
0.187007
0.187148
0.975258
0.415208
0.320476
0.289435
0.277523
0.273911
0.274728
0.278261
0.283638
0.290374
0.298181
0.306878
0.316352
0.32653
0.337366
0.348829
0.3609
0.37356
0.386794
0.400584
0.414907
0.429737
0.445044
0.460794
0.476949
0.493469
0.510311
0.527431
0.544786
0.562333
0.580033
0.597846
0.615741
0.633687
0.651662
0.669649
0.687635
0.705617
0.723596
0.741581
0.759586
0.777632
0.795743
0.813947
0.832271
0.850745
0.869394
0.88821
0.907185
0.926299
0.945525
0.96482
0.984124
1.00336
1.02243
1.04123
1.0596
1.07742
1.0945
1.11068
1.12569
1.13936
1.15152
1.16199
1.17061
1.17723
1.18172
1.18397
1.18393
1.18154
1.17681
1.16976
1.16044
1.14893
1.13534
1.11979
1.10242
1.08341
1.0629
1.04108
1.01812
0.994199
0.969493
0.944168
0.918389
0.892307
0.866068
0.839807
0.813645
0.787695
0.762059
0.736826
0.712076
0.687876
0.664287
0.641356
0.619124
0.597622
0.576873
0.556893
0.537691
0.519271
0.501629
0.484757
0.468643
0.45327
0.438619
0.424666
0.411387
0.398753
0.386738
0.37531
0.364442
0.354102
0.344263
0.334897
0.325975
0.317473
0.309368
0.301637
0.294262
0.287225
0.280511
0.274106
0.268
0.262183
0.256648
0.251388
0.246399
0.241675
0.237213
0.23301
0.229062
0.225365
0.221916
0.218709
0.215739
0.213
0.210485
0.208185
0.206091
0.204193
0.202479
0.200939
0.199561
0.198333
0.197243
0.196279
0.195431
0.194686
0.194035
0.193467
0.192973
0.192545
0.192174
0.191853
0.191576
0.191336
0.191129
0.190948
0.190791
0.190653
0.190532
0.190423
0.190326
0.190238
0.190156
0.19008
0.190008
0.18994
0.189874
0.18981
0.189749
0.18969
0.189637
0.189591
0.18956
0.189553
0.189582
0.189673
0.923736
0.399744
0.309427
0.279368
0.267687
0.264081
0.264816
0.268214
0.273414
0.279935
0.287495
0.295926
0.30512
0.315003
0.325544
0.336726
0.348539
0.360977
0.374032
0.387697
0.401959
0.4168
0.432198
0.448126
0.464553
0.481444
0.498761
0.516464
0.534511
0.552861
0.571474
0.590311
0.609336
0.628516
0.647824
0.667236
0.686734
0.706306
0.725948
0.745658
0.765444
0.785316
0.80529
0.825385
0.84562
0.866011
0.886573
0.907251
0.928007
0.948794
0.969552
0.99021
1.01068
1.03086
1.05062
1.06983
1.08834
1.10599
1.1226
1.138
1.152
1.16444
1.17517
1.18404
1.19094
1.19575
1.1984
1.19884
1.19702
1.19295
1.18665
1.17816
1.16755
1.15491
1.14034
1.12397
1.10594
1.08639
1.06547
1.04335
1.02019
0.996143
0.971374
0.946036
0.920278
0.894241
0.86806
0.84186
0.815755
0.789854
0.764251
0.739035
0.714282
0.690061
0.666429
0.643437
0.621126
0.599531
0.578677
0.558582
0.53926
0.520716
0.502951
0.48596
0.469732
0.454255
0.43951
0.425477
0.412131
0.399447
0.387397
0.375953
0.365083
0.354759
0.344951
0.335629
0.326765
0.318334
0.310309
0.302667
0.295388
0.288452
0.281842
0.275545
0.269546
0.263836
0.258406
0.253248
0.248357
0.243727
0.239354
0.235234
0.231363
0.227737
0.224352
0.221204
0.218286
0.215593
0.213118
0.210853
0.208788
0.206915
0.205222
0.2037
0.202336
0.201119
0.200038
0.199081
0.198238
0.197497
0.196848
0.196281
0.195787
0.195358
0.194985
0.194662
0.194382
0.194139
0.193928
0.193744
0.193582
0.19344
0.193314
0.193201
0.193098
0.193005
0.192918
0.192836
0.192759
0.192684
0.192612
0.192541
0.192473
0.192406
0.192343
0.192287
0.192241
0.192214
0.192216
0.192272
0.866301
0.38518
0.299543
0.270786
0.259541
0.256052
0.256758
0.260044
0.265075
0.271382
0.278692
0.286841
0.295731
0.305306
0.315542
0.326427
0.337963
0.350154
0.363003
0.376512
0.390678
0.405495
0.42095
0.437026
0.4537
0.470945
0.488729
0.507019
0.525777
0.544964
0.564542
0.584473
0.604718
0.625242
0.646013
0.667001
0.688182
0.709536
0.731047
0.752706
0.77451
0.796457
0.818554
0.840806
0.863222
0.885805
0.908527
0.931275
0.953969
0.976523
0.998837
1.0208
1.04229
1.06316
1.08327
1.10246
1.12057
1.13744
1.15291
1.16682
1.17904
1.18944
1.19791
1.20438
1.20879
1.21108
1.21123
1.20925
1.20515
1.19896
1.19074
1.18054
1.16845
1.15457
1.13898
1.12181
1.10318
1.08322
1.06206
1.03984
1.01669
0.992765
0.968194
0.943114
0.917654
0.891942
0.866096
0.84023
0.814451
0.788855
0.763535
0.738571
0.714039
0.690005
0.666528
0.643657
0.621437
0.599903
0.579085
0.559004
0.539677
0.521113
0.503316
0.486287
0.470018
0.454499
0.439716
0.42565
0.41228
0.399582
0.387529
0.376094
0.365248
0.354961
0.345202
0.335942
0.327153
0.318806
0.310875
0.303335
0.296165
0.289342
0.28285
0.276671
0.270792
0.265201
0.259888
0.254845
0.250063
0.245539
0.241266
0.23724
0.233457
0.229913
0.226604
0.223524
0.220669
0.218031
0.215605
0.213383
0.211356
0.209515
0.207851
0.206352
0.205009
0.203809
0.202742
0.201796
0.200962
0.200228
0.199584
0.199021
0.19853
0.198102
0.19773
0.197407
0.197126
0.196881
0.196668
0.196481
0.196316
0.196171
0.196041
0.195925
0.195818
0.195721
0.19563
0.195544
0.195462
0.195383
0.195305
0.19523
0.195155
0.195083
0.195013
0.194948
0.194892
0.194851
0.194835
0.194865
0.80625
0.372464
0.291653
0.264328
0.25364
0.250355
0.251087
0.254296
0.259184
0.265303
0.272391
0.280296
0.288929
0.298245
0.308227
0.318874
0.330196
0.342206
0.35492
0.368349
0.382502
0.397385
0.412994
0.429324
0.446362
0.464089
0.482481
0.501512
0.521149
0.541358
0.562101
0.583339
0.605035
0.627147
0.649639
0.672474
0.695619
0.719042
0.742719
0.766625
0.790744
0.815063
0.839572
0.864264
0.889135
0.914179
0.939219
0.964122
0.988754
1.01298
1.03664
1.05959
1.08165
1.10267
1.12246
1.14087
1.15773
1.1729
1.18625
1.19767
1.20709
1.21443
1.21969
1.22283
1.22389
1.22288
1.21987
1.21489
1.20802
1.19932
1.18888
1.17677
1.16307
1.14788
1.13129
1.11338
1.09426
1.07404
1.05282
1.0307
1.00781
0.984244
0.960125
0.935561
0.910663
0.885537
0.860287
0.835012
0.809806
0.784758
0.759951
0.735462
0.711362
0.687715
0.664578
0.642004
0.620036
0.598713
0.578067
0.558125
0.538905
0.520423
0.502686
0.4857
0.469461
0.453963
0.439196
0.425146
0.411793
0.399116
0.387092
0.375694
0.364894
0.354663
0.344972
0.335791
0.32709
0.318842
0.311018
0.303593
0.296543
0.289847
0.283483
0.277435
0.271688
0.266228
0.261044
0.256126
0.251467
0.247059
0.242898
0.238978
0.235295
0.231844
0.22862
0.22562
0.222836
0.220264
0.217896
0.215726
0.213745
0.211945
0.210316
0.208848
0.207531
0.206354
0.205306
0.204376
0.203555
0.202832
0.202197
0.20164
0.201154
0.20073
0.200361
0.200039
0.199759
0.199514
0.1993
0.199112
0.198946
0.198798
0.198666
0.198547
0.198438
0.198337
0.198243
0.198154
0.198069
0.197986
0.197905
0.197826
0.197748
0.197671
0.197596
0.197526
0.197463
0.197412
0.197383
0.197397
0.736766
0.35895
0.284953
0.259758
0.249992
0.24714
0.248058
0.251316
0.256172
0.262213
0.269198
0.276992
0.285518
0.294743
0.30466
0.315276
0.326612
0.33869
0.351536
0.365173
0.379621
0.394896
0.411006
0.427956
0.445741
0.464353
0.483775
0.503985
0.524956
0.546654
0.569043
0.592082
0.615727
0.639932
0.66465
0.689834
0.715438
0.741415
0.767723
0.794323
0.82118
0.848263
0.875543
0.902998
0.930609
0.958222
0.985547
1.01241
1.03862
1.06399
1.08832
1.11142
1.13308
1.15312
1.17138
1.18768
1.20191
1.21397
1.22378
1.23132
1.23659
1.23962
1.24049
1.23926
1.23604
1.23095
1.22408
1.21557
1.2055
1.19398
1.1811
1.16695
1.15159
1.13511
1.11756
1.09902
1.07956
1.05925
1.03815
1.01635
0.99392
0.970945
0.94751
0.923698
0.899596
0.875291
0.850867
0.826409
0.801998
0.777713
0.753627
0.729813
0.706335
0.683256
0.660632
0.638515
0.61695
0.595978
0.575634
0.555948
0.536944
0.51864
0.501052
0.484185
0.468045
0.45263
0.437933
0.423943
0.410648
0.398027
0.386061
0.374726
0.363996
0.353842
0.344236
0.33515
0.326553
0.318417
0.310713
0.303416
0.2965
0.289941
0.283719
0.277815
0.272213
0.266896
0.261854
0.257075
0.252551
0.248274
0.244237
0.240436
0.236864
0.233518
0.230392
0.227482
0.224781
0.222285
0.219985
0.217876
0.21595
0.214198
0.212611
0.21118
0.209895
0.208746
0.207722
0.206812
0.206008
0.205299
0.204675
0.204128
0.203649
0.203231
0.202865
0.202546
0.202267
0.202023
0.201809
0.20162
0.201453
0.201303
0.201169
0.201047
0.200936
0.200832
0.200735
0.200643
0.200555
0.200469
0.200385
0.200302
0.20022
0.20014
0.200061