/*--------------------------------*- C++ -*----------------------------------*\
  =========                 |
  \\      /  F ield         | OpenFOAM: The Open Source CFD Toolbox
   \\    /   O peration     | Website:  https://openfoam.org
    \\  /    A nd           | Version:  6
     \\/     M anipulation  |
\*---------------------------------------------------------------------------*/
FoamFile
{
    version     2.0;
    format      ascii;
    class       volScalarField;
    location    "0.18";
    object      k;
}
// * * * * * * * * * * * * * * * * * * * * * * * * * * * * * * * * * * * * * //

dimensions      [0 2 -2 0 0 0 0];

internalField   nonuniform List<scalar> 
12225
(
0.24644
0.158838
0.119006
0.0971989
0.0837159
0.0747291
0.0683442
0.0635326
0.0597264
0.0566046
0.0539761
0.0517201
0.0497553
0.0480246
0.0464855
0.0451068
0.0438644
0.0428086
0.339526
0.260133
0.208256
0.17529
0.153265
0.137675
0.126
0.11683
0.109372
0.103151
0.0978656
0.0933082
0.089332
0.0858282
0.0827164
0.0799287
0.0774459
0.0751977
0.347498
0.292337
0.248511
0.216196
0.192231
0.17405
0.159854
0.148446
0.139051
0.131159
0.124423
0.118599
0.113509
0.109019
0.105027
0.101453
0.0982542
0.0954044
0.35137
0.309034
0.271887
0.241926
0.218146
0.19919
0.183868
0.17127
0.160737
0.151802
0.144123
0.137453
0.131602
0.126427
0.121819
0.117691
0.113988
0.110703
0.353917
0.319266
0.287201
0.259826
0.237045
0.218191
0.202511
0.189343
0.178166
0.168578
0.16027
0.153008
0.146609
0.140929
0.135857
0.131304
0.127215
0.123589
0.355677
0.326032
0.297871
0.27292
0.251436
0.23313
0.217542
0.204207
0.192724
0.182762
0.174056
0.166394
0.159605
0.153554
0.148132
0.143253
0.138862
0.134965
0.356917
0.33071
0.305573
0.282768
0.26264
0.245099
0.22987
0.216632
0.205083
0.194958
0.186032
0.178121
0.171072
0.16476
0.159083
0.153959
0.149339
0.145229
0.357802
0.334027
0.311241
0.290281
0.271458
0.254767
0.240048
0.22708
0.215634
0.205501
0.196496
0.18846
0.181259
0.17478
0.16893
0.163634
0.158846
0.154575
0.358433
0.336404
0.315446
0.296043
0.278416
0.262587
0.248453
0.235859
0.224632
0.214608
0.205632
0.197571
0.190308
0.183742
0.17779
0.172384
0.167484
0.163101
0.358881
0.338106
0.318561
0.300449
0.283888
0.268882
0.255357
0.243196
0.232265
0.222431
0.213567
0.205559
0.198307
0.191721
0.185728
0.180268
0.175306
0.170853
0.359195
0.339315
0.320847
0.303788
0.28815
0.273902
0.260975
0.24927
0.238678
0.229088
0.220395
0.212501
0.205317
0.198768
0.192786
0.187319
0.182338
0.177853
0.359394
0.340091
0.322364
0.306074
0.291149
0.27752
0.265107
0.253818
0.243553
0.234217
0.225716
0.217965
0.210886
0.204409
0.198476
0.193039
0.188074
0.183592
0.359535
0.340651
0.323488
0.307814
0.293488
0.280402
0.268459
0.257564
0.247624
0.23855
0.230259
0.222672
0.21572
0.209341
0.203481
0.1981
0.193173
0.188714
0.359643
0.341085
0.324385
0.309247
0.29547
0.282904
0.271432
0.260949
0.251362
0.242584
0.234539
0.227155
0.220368
0.214123
0.208371
0.203075
0.198216
0.193804
0.359719
0.341392
0.325042
0.310331
0.297015
0.284911
0.273877
0.263794
0.254564
0.246099
0.238323
0.231169
0.224578
0.218498
0.212884
0.207704
0.202939
0.1986
0.359767
0.341588
0.325472
0.311065
0.298098
0.286363
0.275696
0.265965
0.257061
0.248893
0.241384
0.234466
0.228082
0.222182
0.216725
0.211679
0.207029
0.202782
0.359793
0.341696
0.325715
0.311494
0.298753
0.287269
0.276866
0.267398
0.25875
0.250824
0.243539
0.236827
0.230628
0.224895
0.219586
0.214672
0.210135
0.205982
0.359804
0.341741
0.325817
0.311679
0.299043
0.287683
0.277414
0.268088
0.259582
0.251794
0.244642
0.238055
0.231972
0.226346
0.221134
0.216307
0.211848
0.20776
0.359801
0.341729
0.32579
0.311631
0.298969
0.287579
0.277279
0.267922
0.259385
0.251569
0.24439
0.237779
0.231675
0.22603
0.220803
0.215962
0.211491
0.207393
0.359775
0.341622
0.325547
0.3112
0.298307
0.286656
0.276078
0.266439
0.257625
0.249545
0.24212
0.235281
0.22897
0.223138
0.217743
0.212754
0.208152
0.203941
0.359715
0.341376
0.325009
0.310282
0.296953
0.284841
0.273802
0.263718
0.254491
0.246033
0.238268
0.231128
0.224552
0.218489
0.212893
0.207731
0.202981
0.198647
0.359586
0.340852
0.323904
0.308482
0.294415
0.281577
0.269859
0.259164
0.249397
0.240473
0.23231
0.224833
0.217976
0.211678
0.20589
0.200568
0.195689
0.191257
0.359329
0.339835
0.32186
0.305315
0.290152
0.276318
0.263736
0.252312
0.241946
0.232536
0.223984
0.216202
0.209108
0.20263
0.196705
0.191285
0.186337
0.181863
0.35886
0.338009
0.318373
0.300179
0.283549
0.268489
0.254927
0.242744
0.231803
0.22197
0.213116
0.205126
0.197899
0.191343
0.185385
0.179962
0.175036
0.170604
0.358051
0.33491
0.312756
0.292314
0.273872
0.257446
0.2429
0.23004
0.218657
0.208558
0.199568
0.191536
0.184333
0.17785
0.171995
0.166697
0.161905
0.157616
0.356707
0.329803
0.303976
0.280637
0.260135
0.242355
0.226991
0.213693
0.202135
0.192037
0.183163
0.175321
0.168353
0.162129
0.156546
0.151519
0.146992
0.142958
0.354518
0.321336
0.290243
0.263372
0.240784
0.221946
0.206195
0.19292
0.181627
0.171927
0.163519
0.156169
0.149696
0.143956
0.138837
0.134249
0.13013
0.126469
0.350901
0.306599
0.267919
0.237104
0.212942
0.193889
0.17863
0.166178
0.155831
0.147096
0.139621
0.133151
0.127493
0.122506
0.118076
0.114119
0.110573
0.107423
0.342446
0.275934
0.227261
0.193527
0.169818
0.152598
0.139571
0.129324
0.121004
0.114082
0.108216
0.103172
0.0987822
0.0949246
0.091507
0.0884589
0.0857276
0.0832913
0.259302
0.173114
0.131361
0.107432
0.0921483
0.0817495
0.0743184
0.0687559
0.0644137
0.0609034
0.0579859
0.0555086
0.0533702
0.0515007
0.0498497
0.0483798
0.0470628
0.0458809
0.00135835
0.00236817
0.00272325
0.00287492
0.00311596
0.00340741
0.00374984
0.00417281
0.00459594
0.00502692
0.00547989
0.0059573
0.00645728
0.00697554
0.00750685
0.00804603
0.0085884
0.00913004
0.00966772
0.0101989
0.0107218
0.0112349
0.0117373
0.0122285
0.0127083
0.0131768
0.0136342
0.014081
0.0145176
0.0149448
0.0153632
0.0157734
0.0161761
0.016572
0.0169618
0.0173459
0.0177249
0.0180995
0.0184701
0.0188372
0.0192015
0.0195638
0.0199251
0.0202867
0.0206504
0.021019
0.0213962
0.0217736
0.0221452
0.022511
0.0228703
0.0232224
0.0235659
0.0238996
0.0242219
0.0245312
0.0248258
0.0251037
0.0253631
0.0256021
0.0258186
0.0260106
0.0261764
0.026314
0.0264218
0.0264982
0.026542
0.026552
0.0265274
0.0264677
0.0263725
0.0262421
0.0260767
0.0258771
0.0256444
0.0253797
0.0250847
0.0247612
0.0244111
0.0240367
0.0236405
0.0232261
0.0227988
0.0223704
0.0219668
0.0216273
0.0213426
0.0210639
0.0207819
0.0204957
0.0202059
0.0199137
0.0196199
0.0193256
0.0190318
0.0187392
0.0184486
0.0181605
0.0178754
0.0175937
0.0173157
0.0170415
0.0167712
0.0165049
0.0162425
0.0159838
0.0157288
0.0154772
0.0152288
0.0149834
0.0147407
0.0145006
0.0142627
0.014027
0.0137933
0.0135614
0.0133314
0.0131032
0.012877
0.0126528
0.012431
0.0122117
0.0119953
0.0117824
0.0115732
0.0113684
0.0111683
0.0109735
0.0107842
0.0106006
0.0104227
0.0102513
0.0100892
0.00993895
0.0097997
0.00967095
0.00955228
0.00944329
0.00934358
0.00925272
0.00917026
0.00909576
0.00902873
0.0089687
0.00891515
0.0088676
0.00882555
0.0087885
0.008756
0.00872756
0.00870278
0.00868122
0.00866252
0.00864631
0.00863227
0.0086201
0.00860952
0.0086003
0.00859221
0.00858505
0.00857863
0.00857279
0.00856738
0.00856224
0.00855724
0.00855222
0.00854704
0.00854151
0.00853543
0.00852853
0.00852047
0.00851079
0.00849883
0.00848361
0.00846362
0.00843629
0.00839726
0.00833764
0.00824293
0.00808203
0.00274734
0.00553353
0.00705705
0.00811052
0.00893085
0.00975429
0.010616
0.0114635
0.0122507
0.0129793
0.0136699
0.0143425
0.0150121
0.0156883
0.0163772
0.0170822
0.0178048
0.0185448
0.0193008
0.0200707
0.0208512
0.021639
0.0224308
0.0232231
0.024013
0.024798
0.0255763
0.0263465
0.0271079
0.02786
0.0286031
0.0293375
0.030064
0.0307835
0.0314969
0.0322052
0.0329096
0.0336109
0.0343102
0.0350082
0.0357057
0.0364031
0.0371009
0.0377992
0.0384979
0.0391968
0.0398953
0.0405911
0.0412877
0.041985
0.0426821
0.0433774
0.0440689
0.0447545
0.0454313
0.0460965
0.0467467
0.0473784
0.0479876
0.0485704
0.0491224
0.0496392
0.0501165
0.0505498
0.0509348
0.0512676
0.0515443
0.0517616
0.0519166
0.0520068
0.0520305
0.0519867
0.0518747
0.0516949
0.0514482
0.051136
0.0507607
0.0503249
0.0498321
0.0492861
0.0486914
0.0480531
0.0473769
0.0466697
0.0459394
0.0452119
0.0444796
0.0437367
0.0429836
0.042223
0.0414575
0.0406899
0.039923
0.0391589
0.0383998
0.0376475
0.0369035
0.036169
0.0354452
0.0347327
0.0340322
0.0333441
0.0326685
0.0320055
0.0313551
0.030717
0.030091
0.0294767
0.0288738
0.0282818
0.0277003
0.0271289
0.0265673
0.0260151
0.0254721
0.0249382
0.0244132
0.0238972
0.0233903
0.0228929
0.0224052
0.0219278
0.0214612
0.0210061
0.0205631
0.0201332
0.0197171
0.0193155
0.0189291
0.0185586
0.0182046
0.0178675
0.017547
0.017244
0.0169627
0.0167038
0.0164664
0.0162493
0.0160515
0.0158721
0.01571
0.0155642
0.0154336
0.0153172
0.015214
0.0151228
0.0150427
0.0149726
0.0149115
0.0148585
0.0148126
0.0147731
0.0147391
0.01471
0.014685
0.0146635
0.0146451
0.0146291
0.0146153
0.014603
0.0145922
0.0145823
0.0145731
0.0145645
0.014556
0.0145476
0.014539
0.0145299
0.0145201
0.0145093
0.014497
0.0144827
0.0144656
0.0144448
0.0144184
0.014384
0.0143365
0.0142714
0.0141637
0.014103
0.00437693
0.00880146
0.0107804
0.01202
0.0130071
0.0139291
0.0148384
0.015722
0.0165643
0.0173716
0.018164
0.0189631
0.0197853
0.0206408
0.0215337
0.0224636
0.0234269
0.0244175
0.0254283
0.0264515
0.0274795
0.0285052
0.0295227
0.030527
0.0315143
0.032482
0.0334287
0.0343536
0.035257
0.0361395
0.0370026
0.0378476
0.0386764
0.0394909
0.0402933
0.0410854
0.0418694
0.0426473
0.0434209
0.044192
0.0449623
0.0457333
0.0465064
0.0472826
0.0480628
0.0488477
0.0496379
0.0504338
0.0512352
0.0520413
0.0528512
0.0536631
0.054475
0.0552844
0.0560885
0.0568838
0.0576664
0.0584321
0.0591761
0.0598933
0.0605782
0.0612253
0.0618287
0.0623827
0.0628815
0.0633196
0.0636918
0.0639932
0.0642199
0.0643681
0.0644352
0.0644191
0.0643189
0.0641343
0.063866
0.0635157
0.0630857
0.0625793
0.0620004
0.0613536
0.0606441
0.0598776
0.0590602
0.0581978
0.0573109
0.056408
0.0554874
0.0545502
0.0535993
0.0526383
0.0516712
0.0507016
0.0497328
0.0487679
0.0478097
0.0468605
0.0459223
0.0449968
0.0440853
0.043189
0.0423086
0.0414446
0.0405974
0.0397671
0.0389535
0.0381566
0.0373759
0.036611
0.0358616
0.0351269
0.0344066
0.0337
0.0330066
0.0323261
0.031658
0.0310021
0.0303581
0.0297261
0.0291061
0.0284983
0.027903
0.0273207
0.026752
0.0261975
0.025658
0.0251343
0.0246272
0.0241378
0.0236667
0.0232149
0.0227829
0.0223715
0.021981
0.0216119
0.0212644
0.0209413
0.0206429
0.0203687
0.0201178
0.0198892
0.019682
0.0194951
0.0193273
0.0191773
0.019044
0.018926
0.0188221
0.018731
0.0186515
0.0185824
0.0185226
0.0184709
0.0184265
0.0183883
0.0183555
0.0183273
0.018303
0.0182821
0.0182638
0.0182477
0.0182334
0.0182205
0.0182085
0.0181973
0.0181864
0.0181756
0.0181646
0.0181532
0.018141
0.0181277
0.0181128
0.0180958
0.0180759
0.018052
0.0180224
0.0179848
0.0179347
0.0178666
0.0177635
0.0176518
0.00570244
0.0113151
0.0136648
0.0150955
0.016153
0.0170666
0.0179349
0.0187904
0.0196448
0.0205098
0.0213997
0.0223272
0.0232999
0.0243199
0.0253844
0.0264869
0.0276192
0.0287719
0.0299356
0.0311016
0.0322622
0.0334106
0.0345417
0.0356514
0.0367369
0.0377966
0.0388295
0.0398357
0.0408158
0.0417708
0.0427023
0.043612
0.0445018
0.0453739
0.0462306
0.0470741
0.0479067
0.0487308
0.0495485
0.0503621
0.0511738
0.0519853
0.0527985
0.053615
0.0544362
0.0552631
0.0560966
0.0569384
0.0577885
0.0586464
0.0595113
0.0603819
0.0612564
0.0621324
0.063007
0.0638767
0.0647373
0.0655841
0.0664117
0.0672146
0.0679863
0.0687204
0.06941
0.0700484
0.0706285
0.0711436
0.0715875
0.0719543
0.0722386
0.0724359
0.0725427
0.0725563
0.072475
0.0722981
0.0720262
0.0716606
0.071204
0.0706596
0.0700317
0.0693252
0.0685456
0.0676989
0.0667911
0.0658382
0.0648528
0.0638384
0.0627984
0.0617369
0.0606586
0.059568
0.0584698
0.0573683
0.0562677
0.0551714
0.0540828
0.0530046
0.0519393
0.0508888
0.0498548
0.0488386
0.0478412
0.0468632
0.0459052
0.0449672
0.0440493
0.0431512
0.0422726
0.0414131
0.040572
0.0397488
0.0389428
0.0381534
0.0373799
0.0366219
0.0358788
0.0351501
0.0344357
0.0337353
0.033049
0.0323767
0.0317188
0.0310756
0.0304476
0.0298356
0.0292401
0.028662
0.0281023
0.0275617
0.0270412
0.0265416
0.0260637
0.0256082
0.0251757
0.0247667
0.0243815
0.0240206
0.023686
0.0233771
0.0230934
0.0228341
0.0225982
0.0223847
0.0221924
0.02202
0.0218662
0.0217297
0.0216091
0.021503
0.0214101
0.0213291
0.0212586
0.0211976
0.0211449
0.0210994
0.0210602
0.0210264
0.0209972
0.0209718
0.0209497
0.0209302
0.0209127
0.020897
0.0208824
0.0208688
0.0208557
0.0208428
0.0208299
0.0208165
0.0208025
0.0207874
0.0207709
0.0207523
0.0207309
0.0207058
0.0206756
0.0206383
0.0205904
0.020528
0.0204415
0.0203435
0.00662153
0.0129516
0.0156647
0.0172942
0.0184472
0.0193897
0.0202576
0.0211173
0.0220012
0.0229265
0.0239029
0.0249346
0.0260209
0.0271572
0.0283358
0.0295475
0.0307825
0.0320311
0.0332844
0.0345346
0.0357748
0.0369997
0.0382047
0.0393865
0.0405428
0.0416721
0.0427735
0.0438468
0.0448924
0.045911
0.0469038
0.0478721
0.0488177
0.0497424
0.0506482
0.0515374
0.0524123
0.0532751
0.0541283
0.0549743
0.0558154
0.0566538
0.0574919
0.0583315
0.0591746
0.0600228
0.0608774
0.0617411
0.0626145
0.0634978
0.0643907
0.0652924
0.0662014
0.0671158
0.0680327
0.0689487
0.0698595
0.0707602
0.0716452
0.0725082
0.0733425
0.0741407
0.0748952
0.0755983
0.076242
0.0768187
0.077321
0.0777421
0.0780758
0.0783167
0.0784603
0.0785034
0.0784437
0.0782801
0.0780129
0.0776433
0.0771738
0.0766078
0.0759495
0.0752044
0.0743778
0.0734758
0.0725134
0.0715019
0.0704475
0.0693562
0.0682336
0.0670854
0.0659172
0.0647346
0.0635428
0.0623467
0.061151
0.0599598
0.0587766
0.0576047
0.0564468
0.0553053
0.0541821
0.0530787
0.0519963
0.0509358
0.0498977
0.0488822
0.0478895
0.0469193
0.0459713
0.045045
0.0441398
0.043255
0.0423899
0.0415438
0.040716
0.0399057
0.0391124
0.0383356
0.0375747
0.0368296
0.0361
0.035386
0.0346877
0.0340054
0.0333394
0.0326905
0.0320591
0.0314462
0.0308525
0.0302789
0.0297263
0.0291956
0.0286875
0.0282029
0.0277424
0.0273065
0.0268956
0.0265099
0.0261505
0.0258179
0.0255114
0.0252305
0.0249742
0.0247416
0.0245314
0.0243425
0.0241735
0.024023
0.0238896
0.023772
0.0236686
0.0235782
0.0234993
0.0234308
0.0233713
0.0233199
0.0232753
0.0232368
0.0232034
0.0231742
0.0231487
0.0231261
0.023106
0.0230877
0.0230709
0.0230551
0.02304
0.0230253
0.0230106
0.0229956
0.02298
0.0229634
0.0229454
0.0229255
0.0229029
0.0228769
0.0228462
0.0228091
0.0227632
0.0227051
0.02263
0.0225474
0.00720445
0.0139243
0.0169021
0.0187132
0.019992
0.0210175
0.0219425
0.0228514
0.0237891
0.0247777
0.0258258
0.0269337
0.0280968
0.0293075
0.0305565
0.0318342
0.0331312
0.0344388
0.0357492
0.0370556
0.0383523
0.0396344
0.040898
0.0421399
0.0433578
0.0445497
0.0457146
0.0468517
0.0479607
0.0490417
0.0500952
0.0511221
0.0521234
0.0531007
0.0540555
0.0549897
0.0559054
0.0568049
0.0576905
0.0585647
0.0594299
0.0602889
0.061144
0.0619978
0.0628526
0.0637106
0.0645737
0.0654451
0.0663264
0.0672184
0.0681217
0.069036
0.0699605
0.0708935
0.0718326
0.0727745
0.0737151
0.0746495
0.0755718
0.0764756
0.0773535
0.0781978
0.0790002
0.0797522
0.080445
0.0810702
0.0816196
0.0820853
0.0824605
0.0827389
0.0829155
0.0829862
0.0829484
0.0828006
0.0825426
0.0821756
0.0817018
0.0811248
0.0804487
0.0796795
0.0788213
0.0778911
0.076896
0.0758439
0.0747424
0.0735983
0.0724184
0.0712094
0.0699777
0.0687293
0.0674702
0.0662056
0.0649407
0.0636799
0.0624271
0.0611861
0.0599599
0.058751
0.0575617
0.0563937
0.0552484
0.0541269
0.0530298
0.0519575
0.0509101
0.0498875
0.0488894
0.0479152
0.0469645
0.0460364
0.0451301
0.0442449
0.0433799
0.0425344
0.0417076
0.0408988
0.0401076
0.0393334
0.0385761
0.0378354
0.0371115
0.0364044
0.0357145
0.0350423
0.0343884
0.0337534
0.0331381
0.0325435
0.0319703
0.0314194
0.0308916
0.0303878
0.0299085
0.0294544
0.0290258
0.0286232
0.0282467
0.0278973
0.0275747
0.0272782
0.027007
0.0267602
0.0265366
0.0263352
0.0261545
0.0259932
0.0258499
0.0257231
0.0256114
0.0255134
0.0254277
0.025353
0.025288
0.0252316
0.0251826
0.02514
0.025103
0.0250706
0.0250422
0.025017
0.0249945
0.024974
0.0249552
0.0249376
0.0249208
0.0249044
0.0248882
0.0248717
0.0248547
0.0248368
0.0248176
0.0247965
0.024773
0.0247462
0.024715
0.0246781
0.0246335
0.0245787
0.0245111
0.0244399
0.00755549
0.0144112
0.0175571
0.019517
0.0209282
0.0220657
0.023083
0.0240694
0.0250757
0.0261273
0.0272341
0.0283967
0.0296102
0.0308669
0.0321585
0.0334761
0.0348117
0.0361577
0.0375076
0.0388554
0.0401961
0.0415252
0.0428392
0.0441346
0.0454088
0.0466596
0.0478851
0.0490841
0.0502553
0.0513984
0.0525129
0.053599
0.0546571
0.0556882
0.0566932
0.0576737
0.0586313
0.0595681
0.0604863
0.0613882
0.0622766
0.063154
0.0640234
0.0648874
0.0657489
0.0666105
0.0674748
0.0683452
0.0692242
0.0701137
0.0710148
0.0719281
0.0728533
0.0737894
0.0747344
0.0756855
0.0766388
0.0775895
0.0785317
0.0794588
0.0803634
0.0812372
0.0820714
0.0828571
0.0835849
0.0842455
0.0848301
0.0853302
0.0857381
0.086047
0.0862511
0.086346
0.0863285
0.0861967
0.0859502
0.0855899
0.0851178
0.0845377
0.0838527
0.0830727
0.0822063
0.0812619
0.0802474
0.0791709
0.0780401
0.0768626
0.0756457
0.0743968
0.0731225
0.0718296
0.0705243
0.0692122
0.0678988
0.0665889
0.0652868
0.0639964
0.0627211
0.0614637
0.0602267
0.0590121
0.0578214
0.0566559
0.0555164
0.0544034
0.0533171
0.0522575
0.0512243
0.050217
0.049235
0.0482776
0.0473439
0.046433
0.0455441
0.0446762
0.0438286
0.0430004
0.042191
0.0413999
0.0406265
0.0398707
0.0391324
0.0384115
0.0377083
0.0370233
0.0363568
0.0357095
0.0350821
0.0344754
0.0338903
0.0333275
0.032788
0.0322724
0.0317815
0.0313159
0.030876
0.0304622
0.0300745
0.0297138
0.02938
0.0290725
0.0287906
0.0285335
0.0283001
0.0280893
0.0278998
0.0277302
0.0275792
0.0274452
0.027327
0.0272229
0.0271317
0.0270519
0.0269824
0.0269218
0.0268691
0.0268232
0.0267831
0.026748
0.0267171
0.0266897
0.0266651
0.0266428
0.0266222
0.026603
0.0265847
0.026567
0.0265494
0.0265317
0.0265136
0.0264945
0.0264742
0.0264522
0.0264279
0.0264004
0.026369
0.0263323
0.0262887
0.0262365
0.0261744
0.0261114
0.00773193
0.0145594
0.017798
0.0198688
0.0213994
0.0226516
0.0237706
0.0248435
0.0259212
0.0270314
0.0281862
0.0293881
0.0306342
0.0319189
0.0332353
0.0345766
0.0359359
0.0373073
0.0386851
0.0400643
0.0414402
0.0428088
0.0441664
0.0455095
0.0468352
0.0481405
0.0494233
0.0506813
0.0519129
0.0531166
0.0542915
0.0554369
0.0565524
0.0576384
0.0586952
0.0597238
0.0607254
0.0617016
0.0626545
0.0635862
0.0644992
0.0653962
0.0662803
0.0671543
0.0680213
0.0688844
0.0697464
0.0706113
0.0714822
0.0723618
0.0732521
0.0741545
0.0750693
0.0759963
0.0769339
0.0778799
0.0788308
0.079782
0.0807279
0.081662
0.0825766
0.0834634
0.0843133
0.085117
0.0858648
0.0865469
0.0871538
0.0876765
0.0881068
0.0884374
0.0886621
0.088776
0.0887754
0.0886581
0.0884236
0.0880725
0.0876057
0.0870297
0.0863504
0.0855743
0.0847089
0.0837619
0.0827412
0.0816548
0.0805107
0.0793168
0.0780807
0.0768099
0.0755115
0.0741926
0.0728594
0.0715182
0.0701744
0.0688333
0.0674993
0.0661766
0.0648689
0.0635792
0.0623103
0.0610644
0.0598432
0.0586481
0.0574802
0.05634
0.055228
0.0541442
0.0530883
0.0520599
0.0510585
0.0500833
0.0491335
0.048208
0.0473059
0.0464264
0.0455683
0.0447308
0.0439132
0.0431148
0.042335
0.0415734
0.0408297
0.040104
0.0393963
0.0387068
0.0380359
0.0373843
0.0367525
0.0361412
0.0355513
0.0349835
0.0344387
0.0339177
0.0334211
0.0329495
0.0325036
0.0320834
0.0316893
0.0313218
0.030981
0.0306664
0.0303774
0.0301132
0.0298729
0.0296555
0.0294595
0.0292839
0.029127
0.0289877
0.0288643
0.0287556
0.02866
0.0285763
0.028503
0.0284391
0.0283834
0.0283347
0.0282921
0.0282548
0.0282218
0.0281925
0.0281661
0.0281423
0.0281203
0.0280997
0.0280801
0.0280612
0.0280426
0.0280238
0.0280047
0.0279848
0.0279636
0.0279409
0.0279159
0.0278881
0.0278565
0.0278201
0.0277776
0.0277276
0.02767
0.0276131
0.00777634
0.014476
0.0177539
0.0199009
0.0215278
0.0228809
0.024094
0.0252478
0.0263912
0.0275523
0.0287451
0.0299748
0.0312413
0.0325415
0.0338707
0.0352241
0.0365966
0.0379834
0.0393799
0.0407818
0.0421848
0.0435853
0.0449793
0.0463634
0.0477342
0.0490885
0.0504233
0.051736
0.0530241
0.0542855
0.0555185
0.0567217
0.0578942
0.0590352
0.0601448
0.0612232
0.062271
0.0632895
0.0642802
0.065245
0.0661861
0.0671061
0.0680079
0.0688944
0.069769
0.0706347
0.0714949
0.0723533
0.073214
0.0740803
0.074955
0.07584
0.0767367
0.0776451
0.0785647
0.0794936
0.0804288
0.0813664
0.0823008
0.0832259
0.084134
0.0850169
0.0858656
0.0866706
0.087422
0.08811
0.0887246
0.0892565
0.0896971
0.0900389
0.0902756
0.0904015
0.0904128
0.0903072
0.0900833
0.0897436
0.0892904
0.088728
0.0880617
0.0872977
0.0864428
0.0855043
0.08449
0.0834075
0.082265
0.0810703
0.0798311
0.0785551
0.0772495
0.0759214
0.0745773
0.0732235
0.0718658
0.0705095
0.0691594
0.0678198
0.0664946
0.0651871
0.0639003
0.0626366
0.0613979
0.0601859
0.0590017
0.0578461
0.0567197
0.0556226
0.0545547
0.0535157
0.0525049
0.0515217
0.0505651
0.0496343
0.0487282
0.0478457
0.0469859
0.0461477
0.0453303
0.0445327
0.0437545
0.0429949
0.0422537
0.0415306
0.0408256
0.0401389
0.0394707
0.0388214
0.0381917
0.0375822
0.0369936
0.0364267
0.0358823
0.0353611
0.0348639
0.0343913
0.0339438
0.0335217
0.0331253
0.0327549
0.0324107
0.0320923
0.0317994
0.0315311
0.0312866
0.0310648
0.0308647
0.0306848
0.030524
0.0303808
0.0302538
0.0301415
0.0300427
0.0299559
0.0298799
0.0298134
0.0297552
0.0297044
0.0296598
0.0296206
0.0295859
0.0295551
0.0295273
0.0295021
0.029479
0.0294573
0.0294367
0.0294168
0.0293973
0.0293778
0.0293578
0.0293372
0.0293155
0.0292922
0.0292668
0.0292388
0.0292073
0.0291714
0.02913
0.0290822
0.0290283
0.0289764
0.00771971
0.014235
0.0175165
0.0197115
0.02141
0.0228437
0.0241347
0.0253566
0.0265548
0.027757
0.0289785
0.0302267
0.0315042
0.0328105
0.0341433
0.0354998
0.0368764
0.0382697
0.0396759
0.0410916
0.042513
0.0439365
0.0453584
0.0467751
0.0481829
0.0495783
0.050958
0.0523188
0.0536576
0.0549717
0.0562587
0.0575167
0.0587438
0.0599389
0.0611012
0.0622304
0.0633264
0.06439
0.065422
0.066424
0.0673978
0.0683457
0.0692702
0.0701743
0.0710609
0.0719334
0.0727951
0.0736497
0.0745017
0.0753549
0.0762127
0.0770777
0.0779515
0.0788352
0.0797287
0.0806307
0.0815388
0.0824496
0.0833583
0.0842586
0.0851435
0.0860051
0.0868345
0.0876226
0.0883599
0.0890365
0.0896425
0.0901681
0.0906049
0.0909457
0.0911839
0.0913134
0.0913304
0.0912335
0.0910219
0.0906969
0.0902608
0.089717
0.0890704
0.0883265
0.0874915
0.0865724
0.0855764
0.0845111
0.0833843
0.0822035
0.0809766
0.0797109
0.0784137
0.0770922
0.0757529
0.0744021
0.0730456
0.0716891
0.0703373
0.0689948
0.0676657
0.0663536
0.0650615
0.063792
0.0625475
0.0613297
0.06014
0.0589794
0.0578485
0.0567477
0.0556769
0.054636
0.0536244
0.0526414
0.0516863
0.050758
0.0498555
0.0489777
0.0481235
0.0472918
0.0464816
0.0456919
0.044922
0.0441712
0.0434389
0.0427249
0.042029
0.0413512
0.0406916
0.0400506
0.0394287
0.0388264
0.0382445
0.0376836
0.0371445
0.036628
0.0361347
0.0356654
0.0352204
0.0348002
0.0344051
0.0340353
0.033691
0.033372
0.0330779
0.0328081
0.0325618
0.032338
0.0321356
0.0319534
0.0317902
0.0316446
0.0315152
0.0314006
0.0312996
0.0312107
0.0311326
0.0310642
0.0310043
0.0309518
0.0309057
0.0308651
0.0308291
0.0307971
0.0307683
0.0307421
0.0307179
0.0306954
0.0306741
0.0306534
0.0306332
0.0306131
0.0305926
0.0305715
0.0305493
0.0305258
0.0305002
0.0304722
0.030441
0.0304057
0.0303656
0.03032
0.0302696
0.030222
0.00758341
0.0138862
0.0171497
0.0193721
0.0211212
0.022615
0.0239661
0.0252411
0.026482
0.027715
0.0289563
0.030215
0.0314959
0.0328006
0.0341292
0.0354805
0.0368527
0.0382435
0.0396502
0.04107
0.0424998
0.0439361
0.0453755
0.0468145
0.0482492
0.049676
0.0510913
0.0524914
0.053873
0.0552328
0.056568
0.0578758
0.059154
0.0604008
0.0616147
0.0627947
0.0639403
0.0650513
0.0661283
0.0671721
0.0681839
0.0691656
0.0701193
0.0710475
0.071953
0.0728388
0.0737082
0.0745646
0.0754126
0.0762562
0.0770992
0.0779443
0.0787939
0.0796493
0.080511
0.0813782
0.0822494
0.0831215
0.0839905
0.0848508
0.0856955
0.0865172
0.0873081
0.0880596
0.0887629
0.0894091
0.0899892
0.090491
0.0909079
0.0912332
0.0914608
0.0915855
0.0916036
0.0915131
0.091313
0.0910038
0.0905875
0.0900669
0.089446
0.0887298
0.0879239
0.0870346
0.0860687
0.0850331
0.0839353
0.0827825
0.0815821
0.0803415
0.0790676
0.0777674
0.0764474
0.075114
0.073773
0.0724299
0.0710898
0.0697573
0.0684368
0.0671318
0.0658458
0.0645816
0.0633417
0.062128
0.0609422
0.0597855
0.0586588
0.0575625
0.0564968
0.0554616
0.0544565
0.0534809
0.0525341
0.051615
0.0507226
0.0498557
0.0490133
0.0481942
0.0473972
0.0466212
0.0458655
0.0451291
0.0444115
0.0437121
0.0430306
0.042367
0.0417213
0.0410937
0.0404845
0.0398943
0.0393238
0.0387734
0.0382441
0.0377364
0.0372511
0.0367888
0.0363501
0.0359354
0.0355449
0.0351788
0.0348374
0.0345206
0.034228
0.0339591
0.0337132
0.0334894
0.0332866
0.0331038
0.0329398
0.0327931
0.0326626
0.0325469
0.0324446
0.0323544
0.0322751
0.0322055
0.0321444
0.0320908
0.0320436
0.032002
0.0319652
0.0319323
0.0319026
0.0318757
0.0318509
0.0318278
0.0318058
0.0317847
0.031764
0.0317435
0.0317227
0.0317013
0.0316789
0.0316552
0.0316297
0.0316019
0.0315712
0.0315369
0.0314982
0.0314549
0.0314078
0.0313641
0.00738127
0.0134632
0.0166983
0.0189359
0.0207202
0.022258
0.0236536
0.0249682
0.0262402
0.0274949
0.0287483
0.0300107
0.0312886
0.0325852
0.0339024
0.0352408
0.0366
0.0379791
0.0393763
0.0407896
0.0422165
0.0436542
0.0450994
0.0465488
0.0479988
0.0494456
0.0508855
0.0523148
0.0537297
0.0551268
0.0565026
0.0578542
0.0591787
0.0604737
0.0617371
0.0629674
0.0641633
0.065324
0.0664494
0.0675396
0.0685952
0.0696174
0.0706077
0.071568
0.0725005
0.073408
0.0742932
0.0751593
0.0760104
0.0768506
0.0776834
0.0785116
0.0793378
0.0801635
0.0809894
0.0818155
0.0826405
0.0834624
0.0842782
0.0850835
0.0858701
0.0866325
0.0873643
0.0880579
0.0887055
0.089299
0.0898301
0.0902903
0.0906725
0.09097
0.0911772
0.0912892
0.0913025
0.0912145
0.0910239
0.0907309
0.0903365
0.089843
0.0892535
0.0885722
0.087804
0.0869544
0.0860294
0.0850354
0.0839791
0.0828673
0.0817069
0.0805048
0.0792678
0.0780025
0.0767154
0.0754125
0.0740998
0.0727828
0.0714665
0.0701558
0.0688549
0.0675679
0.0662982
0.0650489
0.0638227
0.062622
0.0614484
0.0603035
0.0591883
0.0581036
0.0570497
0.0560267
0.0550343
0.054072
0.0531391
0.0522347
0.0513578
0.0505072
0.0496817
0.0488802
0.0481014
0.0473441
0.0466074
0.0458903
0.045192
0.0445119
0.0438496
0.0432048
0.0425774
0.0419676
0.0413755
0.0408017
0.0402466
0.0397109
0.0391952
0.0387001
0.0382265
0.0377748
0.0373457
0.0369395
0.0365567
0.0361972
0.0358615
0.0355494
0.0352607
0.034995
0.0347515
0.0345296
0.0343283
0.0341465
0.033983
0.0338367
0.0337062
0.0335903
0.0334877
0.0333972
0.0333174
0.0332472
0.0331856
0.0331314
0.0330836
0.0330414
0.033004
0.0329706
0.0329405
0.0329131
0.0328879
0.0328643
0.032842
0.0328206
0.0327997
0.0327789
0.032758
0.0327365
0.0327141
0.0326906
0.0326653
0.032638
0.032608
0.0325748
0.0325378
0.0324968
0.032453
0.0324128
0.00711762
0.0129874
0.0161937
0.0184425
0.0202541
0.0218256
0.0232549
0.0245988
0.0258932
0.027162
0.0284213
0.0296824
0.0309524
0.0322352
0.0335345
0.0348525
0.0361904
0.0375483
0.0389258
0.0403216
0.041734
0.0431608
0.0445993
0.0460467
0.0474994
0.0489542
0.0504072
0.0518547
0.0532929
0.0547182
0.0561269
0.0575156
0.0588812
0.0602206
0.0615313
0.062811
0.0640579
0.0652705
0.0664478
0.0675893
0.0686947
0.0697644
0.0707991
0.0718001
0.0727688
0.0737073
0.0746176
0.0755024
0.0763653
0.0772095
0.078038
0.0788535
0.0796581
0.0804533
0.0812402
0.0820188
0.0827883
0.0835473
0.0842934
0.0850231
0.0857317
0.0864145
0.0870662
0.0876809
0.0882523
0.0887739
0.0892389
0.0896406
0.0899727
0.0902293
0.0904052
0.0904959
0.0904977
0.0904078
0.0902246
0.0899474
0.0895766
0.0891136
0.0885605
0.0879207
0.0871979
0.0863968
0.0855224
0.0845804
0.0835767
0.0825174
0.0814089
0.0802574
0.0790694
0.0778511
0.0766087
0.0753482
0.0740752
0.0727953
0.0715135
0.0702348
0.0689635
0.0677037
0.0664593
0.0652334
0.0640289
0.0628485
0.0616942
0.0605678
0.0594705
0.0584032
0.0573667
0.0563611
0.0553864
0.0544422
0.053528
0.0526428
0.0517857
0.0509557
0.0501514
0.0493716
0.048615
0.0478805
0.0471668
0.0464729
0.045798
0.0451411
0.0445019
0.0438797
0.0432746
0.0426864
0.0421152
0.0415615
0.0410255
0.040508
0.0400093
0.0395303
0.0390715
0.0386336
0.0382171
0.0378225
0.03745
0.0370998
0.0367722
0.0364673
0.0361847
0.0359242
0.0356852
0.035467
0.0352687
0.0350894
0.0349279
0.0347831
0.0346538
0.0345388
0.0344368
0.0343467
0.0342671
0.0341971
0.0341354
0.0340811
0.0340332
0.0339909
0.0339532
0.0339196
0.0338893
0.0338617
0.0338363
0.0338126
0.0337902
0.0337687
0.0337478
0.033727
0.0337061
0.0336847
0.0336626
0.0336393
0.0336145
0.0335879
0.0335588
0.0335269
0.0334917
0.0334532
0.0334126
0.0333758
0.00681764
0.0124611
0.0156557
0.0179228
0.0197621
0.0213638
0.0228214
0.0241886
0.0254995
0.0267767
0.0280363
0.0292897
0.0305449
0.031808
0.0330835
0.0343748
0.0356842
0.037013
0.0383618
0.0397305
0.0411183
0.0425237
0.0439447
0.045379
0.0468238
0.0482758
0.0497318
0.051188
0.0526409
0.0540866
0.0555215
0.0569418
0.0583441
0.0597249
0.0610812
0.0624101
0.063709
0.0649758
0.0662085
0.0674059
0.0685668
0.0696907
0.0707774
0.071827
0.0728404
0.0738184
0.0747625
0.0756745
0.0765566
0.0774109
0.0782396
0.0790446
0.0798277
0.0805899
0.0813323
0.0820551
0.0827583
0.0834411
0.0841022
0.0847399
0.0853516
0.0859347
0.0864856
0.0870008
0.0874761
0.0879069
0.0882884
0.0886155
0.0888833
0.0890867
0.0892211
0.0892823
0.0892665
0.0891707
0.0889927
0.0887309
0.0883849
0.087955
0.0874425
0.0868492
0.0861781
0.0854326
0.0846169
0.0837354
0.0827934
0.081796
0.080749
0.079658
0.0785289
0.0773675
0.0761797
0.0749712
0.0737475
0.0725139
0.0712756
0.0700374
0.0688039
0.0675792
0.0663674
0.0651718
0.0639958
0.0628419
0.0617127
0.0606101
0.0595357
0.0584907
0.0574761
0.0564921
0.0555391
0.0546168
0.0537247
0.0528623
0.0520284
0.0512222
0.0504423
0.0496875
0.0489564
0.0482478
0.0475604
0.046893
0.0462446
0.0456142
0.0450013
0.0444051
0.0438255
0.0432621