/*--------------------------------*- C++ -*----------------------------------*\
  =========                 |
  \\      /  F ield         | OpenFOAM: The Open Source CFD Toolbox
   \\    /   O peration     | Website:  https://openfoam.org
    \\  /    A nd           | Version:  6
     \\/     M anipulation  |
\*---------------------------------------------------------------------------*/
FoamFile
{
    version     2.0;
    format      ascii;
    class       volScalarField;
    location    "0.18";
    object      nut;
}
// * * * * * * * * * * * * * * * * * * * * * * * * * * * * * * * * * * * * * //

dimensions      [0 2 -1 0 0 0 0];

internalField   nonuniform List<scalar> 
12225
(
1.77723e-05
1.42681e-05
1.23501e-05
1.11614e-05
1.03584e-05
9.78657e-06
9.35913e-06
9.02363e-06
8.74913e-06
8.51737e-06
8.31721e-06
8.14148e-06
7.98528e-06
7.84509e-06
7.71827e-06
7.60284e-06
7.49723e-06
7.4062e-06
0.00014488
0.000101906
8.78788e-05
8.05082e-05
7.60408e-05
7.30475e-05
7.07304e-05
6.87082e-05
6.68539e-05
6.51397e-05
6.35572e-05
6.20973e-05
6.07499e-05
5.9504e-05
5.83515e-05
5.72767e-05
5.63231e-05
5.54721e-05
0.000323316
0.000223553
0.00018976
0.000172501
0.000161949
0.000154827
0.000149534
0.000145232
0.000141516
0.000138202
0.000135199
0.000132452
0.000129922
0.000127583
0.000125411
0.000123387
0.000121544
0.000119935
0.000493959
0.00035521
0.000299383
0.00026955
0.000250976
0.000238332
0.000229066
0.000221803
0.000215801
0.000210652
0.000206122
0.000202066
0.00019839
0.000195027
0.000191931
0.000189065
0.000186444
0.000184141
0.000624463
0.00047865
0.000407297
0.000366106
0.00033948
0.000320961
0.0003073
0.000296687
0.000288077
0.000280849
0.000274622
0.000269147
0.000264261
0.000259847
0.000255824
0.000252136
0.000248774
0.000245813
0.000713105
0.00058333
0.000506459
0.000457801
0.000424727
0.000400996
0.000383177
0.000369248
0.000357976
0.000348587
0.000340579
0.000333617
0.000327467
0.000321966
0.000316996
0.000312477
0.000308383
0.000304776
0.000769316
0.000665558
0.000592243
0.000541044
0.000504145
0.00047664
0.000455466
0.000438669
0.00042498
0.000413558
0.000403836
0.000395416
0.000388018
0.000381437
0.000375527
0.000370187
0.000365373
0.000361133
0.000803464
0.000726287
0.000662489
0.000613309
0.00057554
0.000546142
0.00052282
0.000503936
0.00048834
0.000475225
0.000464014
0.000454291
0.000445753
0.000438172
0.000431381
0.000425267
0.000419773
0.00041493
0.000823632
0.000768912
0.000717173
0.000673321
0.000637358
0.000608026
0.000583953
0.000563975
0.000547182
0.000532882
0.000520554
0.000509804
0.000500331
0.000491907
0.00048436
0.000477569
0.000471475
0.00046609
0.000835321
0.000797581
0.0007578
0.00072102
0.000688836
0.000661279
0.000637822
0.000617808
0.000600629
0.000585767
0.000572801
0.000561394
0.000551279
0.000542243
0.000534124
0.000526809
0.000520235
0.000514406
0.000842014
0.000816188
0.000786714
0.000757342
0.00073002
0.000705471
0.000683768
0.000664693
0.000647933
0.000633165
0.000620093
0.000608461
0.000598054
0.000588694
0.000580241
0.000572597
0.000565707
0.000559566
0.000845506
0.000826931
0.000804838
0.000781632
0.000758979
0.000737777
0.000718391
0.000700878
0.000685142
0.000671019
0.00065833
0.000646901
0.000636572
0.000627207
0.000618697
0.000610961
0.000603959
0.000597687
0.000847618
0.000833938
0.000817465
0.000799509
0.000781254
0.000763516
0.000746762
0.000731203
0.000716894
0.000703803
0.000691848
0.000680933
0.000670957
0.000661828
0.000653467
0.000645819
0.000638859
0.000632581
0.00084898
0.000838774
0.000826762
0.000813448
0.000799487
0.00078545
0.000771753
0.000758655
0.000746296
0.000734732
0.000723967
0.000713975
0.000704712
0.000696132
0.000688194
0.000680869
0.000674149
0.000668028
0.000849783
0.00084179
0.000832927
0.000823245
0.000812982
0.000802426
0.000791845
0.000781448
0.000771379
0.000761732
0.000752557
0.000743877
0.000735693
0.000728001
0.000720793
0.000714066
0.000707827
0.00070207
0.000850209
0.000843469
0.000836551
0.000829334
0.000821819
0.000814078
0.00080622
0.000798353
0.000790574
0.000782957
0.00077556
0.000768421
0.000761568
0.000755018
0.000748788
0.000742896
0.000737358
0.000732162
0.000850409
0.000844283
0.000838389
0.000832579
0.000826763
0.000820904
0.000814999
0.00080907
0.000803149
0.000797272
0.000791473
0.000785783
0.00078023
0.000774838
0.000769634
0.000764641
0.000759881
0.000755334
0.000850482
0.000844584
0.000839091
0.000833867
0.000828806
0.000823834
0.000818907
0.000814001
0.000809111
0.000804243
0.000799409
0.000794627
0.000789917
0.000785299
0.000780798
0.000776439
0.000772238
0.000768166
0.000850461
0.000844499
0.000838897
0.000833516
0.000828259
0.000823064
0.000817898
0.000812749
0.000807624
0.000802533
0.000797495
0.000792529
0.000787655
0.000782893
0.000778268
0.000773801
0.000769506
0.000765351
0.000850264
0.000843698
0.000837082
0.000830292
0.000823308
0.000816168
0.000808946
0.000801721
0.000794569
0.000787552
0.000780718
0.000774104
0.000767735
0.00076163
0.000755806
0.000750277
0.00074505
0.000740086
0.000849709
0.000841538
0.000832461
0.00082258
0.000812158
0.000801491
0.000790844
0.000780419
0.000770353
0.000760735
0.000751609
0.000742995
0.000734893
0.000727294
0.000720185
0.000713557
0.000707395
0.000701654
0.000848165
0.000835954
0.000821436
0.000805561
0.000789258
0.000773214
0.000757868
0.000743451
0.000730059
0.000717701
0.000706338
0.000695906
0.000686332
0.000677544
0.000669478
0.000662081
0.00065531
0.000649103
0.000844088
0.000822754
0.000797958
0.000772549
0.000748247
0.000725868
0.000705673
0.000687627
0.00067156
0.000657256
0.000644497
0.000633081
0.000622829
0.00061359
0.00060524
0.000597683
0.000590848
0.000584661
0.000833791
0.000794249
0.000753393
0.000716076
0.000683649
0.000656006
0.000632557
0.000612614
0.000595547
0.00058083
0.000568034
0.000556818
0.000546911
0.000538102
0.000530224
0.000523155
0.000516809
0.000511113
0.000809076
0.000738692
0.000678543
0.000630928
0.000593612
0.000564135
0.000540524
0.000521294
0.000505368
0.000491968
0.00048053
0.000470637
0.000461984
0.00045434
0.000447535
0.000441444
0.000435989
0.00043111
0.000753684
0.000642685
0.000568245
0.000517619
0.000481615
0.00045502
0.000434716
0.000418728
0.000405785
0.000395051
0.000385963
0.000378131
0.000371282
0.000365221
0.000359806
0.00035494
0.000350563
0.000346645
0.000641466
0.000499154
0.000426791
0.000383986
0.000355857
0.000336155
0.000321643
0.000310448
0.000301455
0.000293984
0.00028761
0.000282057
0.00027714
0.000272734
0.00026875
0.000265128
0.000261837
0.000258872
0.000448553
0.000320188
0.000270287
0.000243473
0.000226724
0.000215445
0.000207315
0.000201031
0.000195873
0.000191456
0.000187562
0.000184066
0.000180889
0.000177979
0.0001753
0.000172828
0.000170551
0.00016848
0.000203095
0.000143551
0.000122975
0.000111709
0.000104813
0.000100367
9.71825e-05
9.45961e-05
9.23127e-05
9.02235e-05
8.82893e-05
8.6493e-05
8.48241e-05
8.32742e-05
8.1835e-05
8.04983e-05
7.9258e-05
7.81141e-05
2.40294e-05
1.96339e-05
1.71031e-05
1.54671e-05
1.43247e-05
1.34923e-05
1.28645e-05
1.23737e-05
1.19766e-05
1.16458e-05
1.13635e-05
1.11181e-05
1.09019e-05
1.07094e-05
1.05364e-05
1.03799e-05
1.02378e-05
1.01085e-05
2.16083e-06
6.09433e-06
6.54181e-06
6.70074e-06
6.95812e-06
7.25951e-06
7.5995e-06
8.00306e-06
8.40321e-06
8.78781e-06
9.17454e-06
9.56549e-06
9.95875e-06
1.03508e-05
1.07378e-05
1.11165e-05
1.14845e-05
1.18402e-05
1.21823e-05
1.25105e-05
1.28246e-05
1.31247e-05
1.34113e-05
1.36848e-05
1.3946e-05
1.41954e-05
1.4434e-05
1.46624e-05
1.48814e-05
1.50917e-05
1.52941e-05
1.54891e-05
1.56776e-05
1.58599e-05
1.60366e-05
1.62083e-05
1.63752e-05
1.65379e-05
1.66966e-05
1.68517e-05
1.70036e-05
1.71526e-05
1.72991e-05
1.74437e-05
1.75871e-05
1.77302e-05
1.78741e-05
1.80209e-05
1.81637e-05
1.83027e-05
1.8438e-05
1.85692e-05
1.86962e-05
1.88185e-05
1.89357e-05
1.90472e-05
1.91526e-05
1.92513e-05
1.93427e-05
1.94262e-05
1.95012e-05
1.95671e-05
1.96233e-05
1.96692e-05
1.97042e-05
1.97278e-05
1.97396e-05
1.97391e-05
1.97259e-05
1.96999e-05
1.96608e-05
1.96085e-05
1.95431e-05
1.94645e-05
1.93729e-05
1.92686e-05
1.9152e-05
1.90235e-05
1.88835e-05
1.87325e-05
1.85712e-05
1.83999e-05
1.82186e-05
1.8027e-05
1.78277e-05
1.76425e-05
1.75052e-05
1.73765e-05
1.72468e-05
1.71145e-05
1.69796e-05
1.68425e-05
1.67037e-05
1.65634e-05
1.64222e-05
1.62805e-05
1.61385e-05
1.59966e-05
1.58552e-05
1.57143e-05
1.55742e-05
1.5435e-05
1.52969e-05
1.51599e-05
1.50241e-05
1.48893e-05
1.47557e-05
1.46232e-05
1.44916e-05
1.43609e-05
1.4231e-05
1.41017e-05
1.39729e-05
1.38445e-05
1.37164e-05
1.35884e-05
1.34605e-05
1.33326e-05
1.32047e-05
1.30767e-05
1.29488e-05
1.28209e-05
1.26932e-05
1.25658e-05
1.2439e-05
1.2313e-05
1.21881e-05
1.20647e-05
1.1943e-05
1.18233e-05
1.17054e-05
1.15885e-05
1.14727e-05
1.13636e-05
1.12605e-05
1.11629e-05
1.1071e-05
1.09845e-05
1.09034e-05
1.08275e-05
1.07566e-05
1.06906e-05
1.06292e-05
1.05723e-05
1.05195e-05
1.04706e-05
1.04254e-05
1.03834e-05
1.03446e-05
1.03084e-05
1.02748e-05
1.02433e-05
1.02138e-05
1.0186e-05
1.01596e-05
1.01346e-05
1.01105e-05
1.00874e-05
1.0065e-05
1.00432e-05
1.00219e-05
1.00009e-05
9.98007e-06
9.9594e-06
9.93875e-06
9.91801e-06
9.8971e-06
9.8759e-06
9.85427e-06
9.83207e-06
9.80908e-06
9.78505e-06
9.75958e-06
9.73213e-06
9.70181e-06
9.66718e-06
9.62573e-06
9.57237e-06
9.49879e-06
9.38677e-06
3.06608e-06
1.95315e-05
3.17695e-05
3.77913e-05
4.01223e-05
4.13746e-05
4.25103e-05
4.365e-05
4.47648e-05
4.58716e-05
4.70363e-05
4.83246e-05
4.97815e-05
5.143e-05
5.32769e-05
5.53176e-05
5.75394e-05
5.99239e-05
6.24482e-05
6.50868e-05
6.78127e-05
7.05988e-05
7.34195e-05
7.62515e-05
7.90747e-05
8.18729e-05
8.46336e-05
8.73483e-05
9.00118e-05
9.26223e-05
9.51804e-05
9.76889e-05
0.000100152
0.000102575
0.000104963
0.000107323
0.000109659
0.000111977
0.00011428
0.00011657
0.000118846
0.000121106
0.000123343
0.000125548
0.000127704
0.000129792
0.000131787
0.000133717
0.000135659
0.000137625
0.000139613
0.000141624
0.000143652
0.000145694
0.000147745
0.000149797
0.000151845
0.00015388
0.000155893
0.000157874
0.000159813
0.0001617
0.000163523
0.000165271
0.000166933
0.000168498
0.000169956
0.000171296
0.00017251
0.000173589
0.000174527
0.000175317
0.000175955
0.000176438
0.000176764
0.000176933
0.000176944
0.000176799
0.000176499
0.000176045
0.000175433
0.000174655
0.00017369
0.000172494
0.000171014
0.000169264
0.000167362
0.00016537
0.000163315
0.00016121
0.000159068
0.000156897
0.000154706
0.000152503
0.000150294
0.000148086
0.000145884
0.000143693
0.000141517
0.000139359
0.000137223
0.00013511
0.000133023
0.000130963
0.000128929
0.000126923
0.000124945
0.000122994
0.000121069
0.00011917
0.000117296
0.000115445
0.000113616
0.000111809
0.000110022
0.000108255
0.000106508
0.000104779
0.000103071
0.000101382
9.97137e-05
9.80681e-05
9.64466e-05
9.48514e-05
9.32852e-05
9.17509e-05
9.02518e-05
8.87912e-05
8.73725e-05
8.59978e-05
8.46664e-05
8.33696e-05
8.20786e-05
8.07875e-05
7.95743e-05
7.84569e-05
7.74299e-05
7.6488e-05
7.56265e-05
7.48413e-05
7.41282e-05
7.34831e-05
7.29019e-05
7.23802e-05
7.19134e-05
7.1497e-05
7.11264e-05
7.07972e-05
7.05048e-05
7.0245e-05
7.00138e-05
6.98072e-05
6.96218e-05
6.94542e-05
6.93013e-05
6.91604e-05
6.90291e-05
6.89051e-05
6.87864e-05
6.86713e-05
6.85581e-05
6.84455e-05
6.83321e-05
6.82167e-05
6.8098e-05
6.79746e-05
6.78451e-05
6.77078e-05
6.75604e-05
6.74e-05
6.72225e-05
6.7022e-05
6.67896e-05
6.65108e-05
6.61611e-05
6.56973e-05
6.50279e-05
6.40058e-05
6.21609e-05
5.95773e-05
3.86784e-06
2.94545e-05
4.81429e-05
5.834e-05
6.37435e-05
6.69304e-05
6.93662e-05
7.16966e-05
7.41642e-05
7.68794e-05
7.99221e-05
8.33519e-05
8.72025e-05
9.14787e-05
9.61604e-05
0.000101208
0.000106566
0.000112173
0.000117962
0.000123867
0.000129826
0.000135784
0.000141694
0.000147518
0.000153227
0.000158802
0.000164229
0.000169504
0.000174624
0.000179596
0.000184424
0.000189119
0.000193691
0.000198152
0.000202512
0.000206784
0.000210977
0.000215102
0.000219165
0.000223173
0.000227131
0.000231041
0.000234905
0.00023872
0.000242486
0.000246202
0.000249871
0.000253545
0.000257251
0.000260998
0.000264786
0.000268611
0.000272469
0.000276353
0.000280252
0.000284157
0.000288054
0.000291929
0.000295766
0.000299546
0.000303251
0.00030686
0.000310354
0.00031371
0.000316907
0.000319925
0.000322742
0.00032534
0.000327701
0.000329809
0.000331648
0.000333208
0.000334479
0.000335453
0.000336126
0.000336494
0.000336558
0.000336317
0.000335773
0.000334927
0.000333777
0.000332319
0.00033054
0.000328424
0.000325966
0.000323194
0.000320184
0.000316996
0.000313665
0.000310219
0.000306677
0.000303059
0.000299379
0.000295653
0.000291895
0.000288117
0.000284331
0.000280545
0.000276769
0.000273011
0.000269276
0.000265571
0.000261898
0.00025826
0.000254661
0.000251101
0.000247579
0.000244097
0.000240652
0.000237243
0.000233869
0.000230527
0.000227214
0.00022393
0.000220671
0.000217437
0.000214225
0.000211037
0.00020787
0.000204727
0.000201608
0.000198517
0.000195457
0.000192431
0.000189446
0.000186506
0.000183619
0.00018079
0.000178026
0.000175334
0.000172715
0.000170169
0.000167687
0.000165266
0.000162907
0.000160674
0.000158591
0.000156657
0.000154873
0.000153233
0.000151735
0.000150374
0.000149142
0.000148032
0.000147038
0.00014615
0.000145361
0.00014466
0.000144041
0.000143493
0.000143009
0.000142581
0.000142201
0.000141861
0.000141557
0.00014128
0.000141027
0.000140792
0.000140571
0.000140359
0.000140154
0.000139952
0.00013975
0.000139545
0.000139336
0.000139118
0.000138889
0.000138646
0.000138384
0.000138097
0.000137779
0.000137419
0.000137001
0.000136501
0.000135879
0.000135067
0.000133934
0.000132244
0.000129412
0.000125028
4.41672e-06
3.55306e-05
5.99186e-05
7.45315e-05
8.32104e-05
8.87863e-05
9.30586e-05
9.70364e-05
0.000101222
0.000105846
0.000111013
0.000116758
0.000123071
0.00012991
0.000137209
0.000144884
0.000152847
0.000161007
0.00016928
0.000177586
0.000185859
0.000194041
0.000202089
0.000209967
0.000217651
0.000225125
0.00023238
0.000239413
0.000246227
0.000252828
0.000259223
0.000265424
0.000271442
0.000277291
0.000282983
0.000288532
0.000293951
0.000299252
0.000304447
0.000309546
0.000314562
0.000319502
0.000324375
0.00032919
0.000333955
0.000338678
0.000343366
0.00034807
0.000352806
0.000357582
0.000362401
0.000367261
0.000372159
0.000377086
0.000382035
0.000386993
0.000391946
0.000396877
0.000401768
0.000406598
0.000411343
0.00041598
0.000420482
0.000424824
0.000428978
0.000432918
0.000436618
0.000440052
0.000443197
0.000446031
0.000448535
0.000450692
0.000452488
0.000453911
0.000454953
0.000455609
0.000455876
0.000455753
0.000455243
0.000454345
0.000453064
0.000451401
0.000449358
0.000446934
0.000444145
0.000441029
0.000437634
0.000434003
0.000430172
0.000426171
0.000422024
0.000417753
0.000413381
0.000408925
0.000404404
0.000399833
0.000395229
0.000390604
0.00038597
0.000381338
0.000376716
0.000372112
0.000367533
0.000362982
0.000358463
0.000353977
0.000349527
0.000345112
0.00034073
0.000336381
0.000332062
0.000327771
0.000323504
0.000319259
0.000315034
0.000310826
0.000306634
0.000302457
0.000298294
0.000294147
0.000290018
0.00028591
0.000281827
0.000277776
0.000273764
0.000269798
0.000265887
0.000262041
0.00025827
0.000254583
0.000250987
0.000247488
0.000244089
0.000240794
0.000237606
0.000234539
0.00023165
0.000228946
0.000226432
0.000224108
0.00022197
0.000220016
0.000218238
0.000216629
0.000215181
0.000213883
0.000212725
0.000211695
0.000210782
0.000209974
0.000209259
0.000208628
0.000208069
0.000207572
0.000207128
0.000206729
0.000206366
0.000206032
0.000205722
0.000205428
0.000205147
0.000204872
0.000204601
0.000204329
0.000204052
0.000203765
0.000203466
0.00020315
0.00020281
0.000202439
0.00020203
0.000201568
0.000201035
0.000200404
0.000199629
0.000198637
0.000197296
0.00019537
0.000192388
0.000188041
4.7647e-06
3.92871e-05
6.84668e-05
8.72314e-05
9.93261e-05
0.000107669
0.000114222
0.000120205
0.000126305
0.000132865
0.000140024
0.000147808
0.00015618
0.000165065
0.000174369
0.000183991
0.00019383
0.000203792
0.000213791
0.000223753
0.000233616
0.000243329
0.000252851
0.000262152
0.00027121
0.000280011
0.000288546
0.000296812
0.000304809
0.000312544
0.000320022
0.000327252
0.000334247
0.000341018
0.000347578
0.000353942
0.000360122
0.000366134
0.000371993
0.000377712
0.000383307
0.000388791
0.000394178
0.000399481
0.000404714
0.000409887
0.000415011
0.000420132
0.000425272
0.000430441
0.000435646
0.000440891
0.000446175
0.000451496
0.000456846
0.000462218
0.000467599
0.000472973
0.000478324
0.000483629
0.000488867
0.000494012
0.000499038
0.000503914
0.000508613
0.000513105
0.000517359
0.000521347
0.000525042
0.000528416
0.000531447
0.000534112
0.000536393
0.000538276
0.000539748
0.000540799
0.000541425
0.000541623
0.000541392
0.000540735
0.000539656
0.000538162
0.000536249
0.000533937
0.000531252
0.000528226
0.000524894
0.000521292
0.00051745
0.000513397
0.000509158
0.000504758
0.00050022
0.000495565
0.000490813
0.000485983
0.000481091
0.000476152
0.000471182
0.000466191
0.000461192
0.000456192
0.000451199
0.00044622
0.000441258
0.000436316
0.000431397
0.0004265
0.000421625
0.00041677
0.000411934
0.000407114
0.000402306
0.000397508
0.000392718
0.000387931
0.000383148
0.000378366
0.000373585
0.000368807
0.000364035
0.000359271
0.000354522
0.000349794
0.000345096
0.000340437
0.000335829
0.000331282
0.000326809
0.000322423
0.000318135
0.000313956
0.000309895
0.000305961
0.000302161
0.000298504
0.000295024
0.00029175
0.000288689
0.000285843
0.000283213
0.000280797
0.000278589
0.000276582
0.000274768
0.000273137
0.000271675
0.000270371
0.000269212
0.000268185
0.000267275
0.000266471
0.000265758
0.000265126
0.000264563
0.000264058
0.000263602
0.000263185
0.0002628
0.00026244
0.000262097
0.000261766
0.000261441
0.000261117
0.00026079
0.000260455
0.000260106
0.000259738
0.000259345
0.000258919
0.00025845
0.000257924
0.00025732
0.00025661
0.000255749
0.000254666
0.000253239
0.000251265
0.000248401
0.000244532
4.97172e-06
4.14453e-05
7.43485e-05
9.68144e-05
0.000112251
0.000123509
0.00013257
0.00014074
0.000148809
0.0001572
0.000166103
0.000175561
0.000185539
0.000195958
0.000206723
0.000217733
0.000228891
0.000240109
0.000251308
0.000262423
0.000273395
0.000284178
0.000294737
0.000305042
0.000315072
0.00032481
0.000334248
0.00034338
0.000352204
0.000360722
0.000368937
0.000376858
0.000384493
0.000391851
0.000398945
0.000405788
0.000412394
0.000418778
0.000424955
0.000430943
0.000436758
0.000442417
0.000447936
0.000453333
0.000458623
0.000463822
0.000468942
0.000474028
0.000479107
0.000484199
0.000489317
0.000494472
0.000499669
0.000504911
0.000510199
0.000515527
0.00052089
0.000526276
0.00053167
0.000537055
0.00054241
0.000547712
0.000552933
0.000558045
0.000563018
0.000567821
0.00057242
0.000576785
0.000580884
0.000584687
0.000588166
0.000591295
0.000594051
0.000596415
0.000598368
0.0005999
0.000601
0.000601661
0.000601883
0.000601663
0.000601009
0.000599908
0.000598382
0.000596453
0.000594147
0.000591489
0.000588507
0.000585231
0.000581688
0.000577904
0.000573905
0.000569715
0.000565357
0.000560854
0.000556225
0.000551491
0.00054667
0.000541777
0.000536829
0.000531838
0.000526816
0.000521773
0.000516718
0.000511658
0.000506597
0.000501539
0.000496486
0.00049144
0.0004864
0.000481366
0.000476334
0.000471303
0.000466269
0.000461229
0.000456182
0.000451123
0.000446051
0.000440965
0.000435864
0.00043075
0.000425626
0.000420496
0.000415366
0.000410242
0.000405135
0.000400055
0.000395015
0.000390028
0.000385107
0.000380268
0.000375525
0.000370893
0.000366384
0.000362011
0.000357785
0.000353718
0.000349826
0.000346147
0.000342691
0.000339464
0.00033647
0.000333706
0.000331171
0.000328859
0.00032676
0.000324865
0.000323163
0.000321639
0.000320281
0.000319074
0.000318004
0.000317056
0.000316216
0.000315471
0.000314808
0.000314215
0.00031368
0.000313194
0.000312748
0.000312332
0.00031194
0.000311564
0.000311197
0.000310834
0.00031047
0.000310099
0.000309715
0.000309312
0.000308884
0.000308421
0.000307914
0.000307347
0.000306702
0.000305948
0.000305044
0.000303924
0.00030248
0.000300549
0.000297895
0.000294539
5.09192e-06
4.24355e-05
7.80902e-05
0.000103716
0.000122233
0.000136319
0.000147888
0.000158244
0.000168216
0.000178282
0.000188681
0.000199493
0.000210707
0.000222265
0.000234086
0.000246081
0.000258166
0.000270262
0.0002823
0.000294219
0.000305968
0.000317504
0.000328791
0.000339803
0.000350515
0.000360912
0.00037098
0.000380712
0.000390102
0.000399148
0.000407851
0.000416215
0.000424245
0.000431948
0.000439336
0.000446417
0.000453207
0.000459718
0.000465966
0.000471968
0.000477742
0.000483306
0.00048868
0.000493883
0.000498934
0.000503851
0.000508653
0.000513381
0.000518072
0.000522754
0.000527449
0.000532177
0.000536951
0.000541782
0.000546679
0.000551644
0.000556677
0.000561772
0.000566922
0.000572113
0.000577328
0.000582546
0.000587741
0.000592887
0.000597954
0.000602907
0.000607714
0.00061234
0.000616751
0.000620912
0.00062479
0.000628356
0.00063158
0.00063444
0.000636911
0.000638977
0.000640626
0.000641842
0.000642629
0.000642962
0.000642846
0.000642294
0.000641322
0.00063995
0.000638196
0.000636083
0.000633636
0.000630877
0.000627832
0.000624525
0.000620981
0.000617223
0.000613273
0.000609153
0.000604885
0.000600488
0.000595981
0.00059138
0.000586701
0.000581958
0.000577164
0.000572328
0.000567461
0.000562568
0.000557657
0.000552731
0.000547794
0.000542845
0.000537886
0.000532915
0.000527931
0.000522931
0.000517912
0.000512871
0.000507806
0.000502712
0.000497589
0.000492434
0.000487249
0.000482033
0.000476789
0.000471523
0.000466239
0.000460946
0.000455653
0.000450372
0.000445116
0.000439899
0.000434737
0.000429647
0.000424643
0.000419744
0.000414965
0.000410322
0.000405828
0.000401497
0.00039734
0.000393393
0.000389671
0.000386181
0.00038293
0.000379919
0.000377146
0.000374608
0.000372296
0.000370202
0.000368314
0.00036662
0.000365105
0.000363756
0.000362557
0.000361494
0.00036055
0.000359713
0.000358968
0.000358302
0.000357704
0.000357162
0.000356665
0.000356205
0.000355773
0.000355361
0.000354962
0.00035457
0.000354178
0.000353781
0.000353373
0.000352946
0.000352495
0.000352009
0.000351479
0.00035089
0.000350222
0.000349449
0.00034853
0.000347407
0.00034599
0.000344148
0.000341728
0.000338828
5.15074e-06
4.26141e-05
8.01704e-05
0.00010838
0.000129603
0.000146272
0.000160184
0.000172591
0.000184322
0.000195888
0.000207565
0.000219479
0.000231654
0.000244064
0.00025665
0.000269344
0.000282077
0.000294781
0.000307396
0.000319868
0.00033215
0.000344202
0.000355991
0.000367487
0.000378666
0.000389511
0.000400005
0.000410136
0.000419897
0.000429281
0.000438286
0.000446911
0.000455159
0.000463033
0.000470541
0.000477689
0.00048449
0.000490956
0.0004971
0.00050294
0.000508492
0.000513776
0.000518812
0.000523623
0.00052823
0.000532656
0.000536924
0.000541074
0.000545151
0.000549194
0.000553235
0.000557303
0.000561422
0.000565612
0.00056989
0.000574268
0.000578755
0.000583352
0.000588058
0.000592866
0.000597763
0.000602731
0.00060775
0.000612792
0.000617828
0.000622824
0.000627745
0.000632553
0.000637211
0.00064168
0.000645923
0.000649904
0.000653589
0.000656951
0.000659959
0.000662588
0.000664833
0.00066665
0.000668033
0.000668982
0.000669501
0.000669598
0.000669283
0.00066857
0.000667477
0.000666021
0.000664221
0.0006621
0.00065968
0.000656982
0.00065403
0.000650846
0.000647451
0.000643868
0.000640116
0.000636216
0.000632186
0.000628043
0.000623803
0.000619479
0.000615086
0.000610633
0.00060613
0.000601585
0.000597004
0.000592391
0.00058775
0.000583082
0.000578387
0.000573664
0.000568912
0.000564129
0.00055931
0.000554454
0.000549556
0.000544614
0.000539626
0.000534589
0.000529505
0.000524372
0.000519195
0.000513976
0.000508723
0.000503442
0.000498144
0.00049284
0.000487544
0.00048227
0.000477036
0.000471858
0.000466754
0.000461743
0.000456841
0.000452068
0.000447438
0.000442967
0.000438667
0.000434567
0.000430685
0.000427033
0.000423619
0.000420445
0.000417512
0.000414817
0.000412355
0.000410118
0.000408095
0.000406275
0.000404643
0.000403186
0.000401888
0.000400734
0.00039971
0.0003988
0.00039799
0.000397266
0.000396616
0.000396029
0.000395492
0.000394997
0.000394534
0.000394094
0.000393671
0.000393257
0.000392846
0.000392431
0.000392006
0.000391565
0.000391099
0.000390601
0.000390059
0.00038946
0.000388785
0.000388009
0.000387095
0.000385994
0.000384628
0.000382898
0.000380708
0.000378195
5.16469e-06
4.22383e-05
8.09735e-05
0.000111198
0.000134696
0.000153621
0.00016962
0.00018387
0.000197176
0.000210059
0.000222829
0.000235648
0.00024858
0.000261631
0.000274772
0.000287956
0.00030113
0.00031424
0.000327235
0.000340068
0.000352696
0.000365082
0.000377191
0.000388997
0.000400473
0.000411599
0.000422357
0.000432732
0.000442712
0.000452288
0.000461452
0.000470202
0.000478535
0.000486451
0.000493953
0.000501048
0.000507741
0.000514044
0.000519968
0.000525528
0.00053074
0.000535623
0.0005402
0.000544491
0.000548524
0.000552324
0.000555919
0.000559348
0.000562668
0.000565924
0.000569161
0.000572418
0.00057573
0.000579127
0.000582637
0.000586282
0.000590078
0.000594039
0.000598168
0.000602467
0.000606927
0.000611536
0.000616276
0.000621121
0.000626043
0.000631009
0.000635979
0.000640914
0.000645772
0.000650513
0.000655094
0.000659471
0.000663603
0.000667464
0.000671019
0.00067421
0.00067703
0.000679459
0.000681485
0.000683102
0.000684309
0.000685108
0.000685507
0.000685513
0.000685141
0.000684404
0.00068332
0.000681907
0.000680185
0.000678174
0.000675896
0.000673372
0.000670622
0.000667669
0.000664531
0.000661229
0.000657781
0.000654203
0.000650512
0.000646722
0.000642846
0.000638895
0.000634879
0.000630806
0.000626683
0.000622513
0.0006183
0.000614045
0.00060975
0.000605413
0.000601032
0.000596606
0.000592129
0.000587601
0.000583015
0.000578371
0.000573664
0.000568893
0.000564057
0.000559156
0.000554193
0.000549171
0.000544095
0.000538974
0.000533816
0.000528634
0.000523441
0.000518252
0.000513084
0.000507954
0.000502882
0.000497886
0.000492986
0.0004882
0.000483546
0.000479041
0.0004747
0.000470542
0.000466592
0.000462863
0.000459364
0.0004561
0.000453075
0.000450286
0.00044773
0.0004454
0.000443287
0.00044138
0.000439666
0.000438132
0.000436762
0.000435543
0.000434458
0.000433493
0.000432633
0.000431866
0.000431177
0.000430555
0.000429988
0.000429466
0.000428979
0.00042852
0.000428079
0.00042765
0.000427225
0.000426799
0.000426365
0.000425915
0.000425443
0.00042494
0.000424395
0.000423795
0.000423124
0.000422357
0.000421463
0.000420398
0.000419099
0.000417491
0.000415517
0.000413331
5.14469e-06
4.14847e-05
8.07921e-05
0.000112491
0.000137823
0.000158645
0.000176439
0.000192293
0.000206975
0.000221001
0.0002347
0.000248267
0.000261799
0.000275334
0.000288871
0.000302385
0.000315841
0.000329198
0.000342415
0.000355452
0.000368271
0.000380837
0.000393118
0.000405086
0.000416715
0.000427982
0.000438868
0.000449355
0.000459427
0.000469073
0.000478282
0.000487047
0.000495361
0.000503221
0.000510627
0.00051758
0.000524084
0.000530146
0.000535775
0.000540983
0.000545785
0.0005502
0.000554247
0.00055795
0.000561337
0.000564436
0.00056728
0.000569911
0.000572392
0.000574781
0.000577132
0.000579495
0.000581915
0.000584435
0.000587093
0.000589922
0.000592948
0.000596192
0.000599669
0.000603386
0.00060734
0.000611525
0.000615925
0.000620517
0.000625274
0.000630162
0.000635142
0.000640166
0.00064519
0.000650171
0.000655073
0.000659828
0.000664383
0.000668706
0.00067276
0.000676508
0.000679923
0.000682983
0.000685672
0.000687979
0.000689895
0.00069142
0.000692555
0.000693306
0.000693681
0.000693692
0.000693354
0.000692682
0.000691693
0.000690408
0.000688845
0.000687024
0.000684967
0.000682693
0.000680222
0.000677574
0.000674766
0.000671816
0.00066874
0.000665552
0.000662266
0.000658893
0.000655442
0.000651923
0.000648342
0.000644703
0.000641009
0.000637263
0.000633464
0.000629613
0.000625705
0.00062174
0.000617714
0.000613621
0.00060946
0.000605225
0.000600914
0.000596524
0.000592053
0.000587502
0.000582871
0.000578164
0.000573386
0.000568543
0.000563646
0.000558704
0.000553731
0.000548742
0.000543754
0.000538785
0.000533853
0.000528979
0.000524182
0.000519482
0.000514899
0.000510449
0.00050615
0.000502017
0.000498078
0.000494345
0.00049083
0.000487541
0.000484482
0.000481653
0.000479052
0.000476674
0.000474511
0.000472554
0.00047079
0.000469207
0.000467791
0.000466527
0.000465401
0.000464399
0.000463505
0.000462706
0.000461989
0.000461343
0.000460754
0.000460214
0.000459711
0.000459238
0.000458786
0.000458347
0.000457915
0.000457484
0.000457045
0.000456593
0.000456121
0.000455619
0.000455078
0.000454485
0.000453826
0.000453078
0.000452213
0.000451195
0.000449971
0.000448487
0.000446712
0.0004448
5.09772e-06
4.04742e-05
7.98473e-05
0.00011252
0.000139256
0.000161616
0.00018091
0.000198126
0.000213985
0.000228988
0.000243475
0.000257658
0.000271665
0.00028556
0.000299365
0.00031308
0.000326685
0.000340155
0.000353458
0.000366561
0.000379432
0.00039204
0.000404356
0.00041635
0.000427999
0.000439278
0.000450166
0.000460644
0.000470694
0.000480301
0.000489452
0.000498135
0.000506341
0.000514065
0.0005213
0.000528045
0.000534301
0.00054007
0.000545359
0.000550176
0.000554534
0.000558449
0.000561939
0.000565029
0.000567745
0.000570118
0.000572184
0.000573991
0.000575612
0.000577113
0.000578558
0.000580006
0.000581516
0.00058314
0.000584926
0.000586918
0.000589153
0.000591661
0.000594464
0.000597578
0.000601006
0.000604744
0.000608781
0.000613096
0.000617663
0.000622451
0.000627426
0.000632517
0.00063768
0.000642869
0.000648034
0.000653119
0.000658072
0.000662848
0.000667406
0.000671706
0.000675716
0.000679407
0.000682759
0.000685753
0.000688379
0.000690628
0.0006925
0.000693995
0.000695119
0.00069588
0.00069629
0.000696362
0.000696113
0.00069556
0.00069472
0.000693615
0.000692262
0.000690683
0.000688897
0.000686923
0.000684779
0.000682483
0.000680051
0.000677498
0.000674838
0.000672082
0.00066924
0.000666321
0.000663332
0.000660278
0.000657162
0.000653985
0.000650748
0.000647449
0.000644087
0.000640658
0.000637158
0.000633582
0.000629927
0.000626188
0.00062236
0.00061844
0.000614426
0.000610317
0.000606113
0.000601816
0.000597431
0.000592963
0.000588421
0.000583815