/*--------------------------------*- C++ -*----------------------------------*\
  =========                 |
  \\      /  F ield         | OpenFOAM: The Open Source CFD Toolbox
   \\    /   O peration     | Website:  https://openfoam.org
    \\  /    A nd           | Version:  6
     \\/     M anipulation  |
\*---------------------------------------------------------------------------*/
FoamFile
{
    version     2.0;
    format      ascii;
    class       volScalarField;
    location    "0.18";
    object      p;
}
// * * * * * * * * * * * * * * * * * * * * * * * * * * * * * * * * * * * * * //

dimensions      [0 2 -2 0 0 0 0];

internalField   nonuniform List<scalar> 
12225
(
0.309096
0.0567416
-0.021113
-0.0313429
-0.0354987
-0.0396471
-0.0416736
-0.0424791
-0.0430906
-0.0436444
-0.044055
-0.0443218
-0.0444693
-0.0444931
-0.0443943
-0.0441072
-0.0439054
-0.0429306
-0.0727537
-0.042479
-0.0414318
-0.0347041
-0.0349905
-0.0385326
-0.0408001
-0.041923
-0.0427354
-0.0433926
-0.0438604
-0.0441639
-0.044336
-0.0443749
-0.0442856
-0.0439955
-0.0436901
-0.0428708
-0.109765
-0.0387438
-0.0368035
-0.0342004
-0.0346909
-0.0378212
-0.0400336
-0.0412693
-0.0421879
-0.0429191
-0.0434454
-0.0437968
-0.0440053
-0.0440706
-0.0439985
-0.0437159
-0.04336
-0.0423512
-0.064397
-0.0255122
-0.0333165
-0.0343276
-0.0349875
-0.0376255
-0.0396246
-0.0408409
-0.0417822
-0.042542
-0.0431024
-0.0434884
-0.0437271
-0.0438185
-0.0437659
-0.0435076
-0.0431132
-0.0421854
-0.0439813
-0.0255553
-0.0337765
-0.0350314
-0.0355415
-0.0377208
-0.0394878
-0.040641
-0.0415617
-0.0423161
-0.0428863
-0.0432906
-0.0435501
-0.0436649
-0.0436352
-0.0434152
-0.0430331
-0.0422844
-0.041625
-0.0298397
-0.0349466
-0.0357335
-0.0361477
-0.0379457
-0.0394987
-0.0405798
-0.0414632
-0.0421967
-0.0427641
-0.043178
-0.0434544
-0.0435937
-0.0435947
-0.0434279
-0.0431034
-0.0425417
-0.0414904
-0.0327505
-0.035676
-0.036326
-0.0367487
-0.0382371
-0.0395992
-0.0406071
-0.0414474
-0.0421542
-0.0427137
-0.0431344
-0.0434281
-0.0435959
-0.0436375
-0.0435376
-0.043302
-0.0429229
-0.0405018
-0.0343699
-0.0361937
-0.036864
-0.0373234
-0.038565
-0.0397614
-0.0406988
-0.0414954
-0.042175
-0.042726
-0.0431537
-0.0434671
-0.0436688
-0.0437606
-0.0437385
-0.0436109
-0.0434082
-0.0395138
-0.0355232
-0.0367019
-0.0373682
-0.0378587
-0.0389093
-0.0399659
-0.0408382
-0.0415941
-0.0422491
-0.0427934
-0.0432305
-0.0435674
-0.0438086
-0.0439587
-0.0440219
-0.0440115
-0.0439739
-0.0389386
-0.0364671
-0.037214
-0.0378379
-0.0383501
-0.0392565
-0.0401975
-0.041012
-0.0417323
-0.042367
-0.0429083
-0.0433583
-0.0437232
-0.0440091
-0.0442232
-0.0443755
-0.0444832
-0.0445957
-0.0387031
-0.0372303
-0.0377089
-0.038277
-0.0388005
-0.0395995
-0.0404461
-0.0412103
-0.0419008
-0.0425204
-0.043063
-0.0435299
-0.0439271
-0.0442616
-0.0445431
-0.0447845
-0.045005
-0.0452509
-0.0386813
-0.0377964
-0.0381413
-0.0386593
-0.0391831
-0.0399076
-0.0406835
-0.0414078
-0.0420759
-0.0426865
-0.0432342
-0.0437201
-0.0441499
-0.0445314
-0.044875
-0.0451952
-0.0455105
-0.0458623
-0.0387755
-0.0382804
-0.0385404
-0.0390151
-0.0395355
-0.0402025
-0.0409225
-0.0416152
-0.0422666
-0.0428728
-0.0434293
-0.0439369
-0.0444009
-0.0448295
-0.0452334
-0.0456269
-0.0460278
-0.0464691
-0.0389815
-0.0387565
-0.0389682
-0.0394003
-0.0399099
-0.0405271
-0.0411973
-0.041861
-0.0424991
-0.043105
-0.043675
-0.0442096
-0.0447135
-0.0451947
-0.0456634
-0.0461324
-0.0466174
-0.0471426
-0.0392875
-0.0392205
-0.0394151
-0.0398093
-0.0403003
-0.0408774
-0.0415064
-0.0421456
-0.0427747
-0.0433854
-0.0439739
-0.0445402
-0.0450883
-0.045625
-0.046159
-0.0467008
-0.0472626
-0.0478606
-0.0396584
-0.0396686
-0.039861
-0.0402262
-0.0406962
-0.0412434
-0.0418425
-0.0424647
-0.043091
-0.0437121
-0.0443236
-0.044925
-0.0455186
-0.0461095
-0.0467041
-0.0473098
-0.0479348
-0.048589
-0.0400401
-0.0400813
-0.0402747
-0.0406216
-0.0410752
-0.0416047
-0.0421882
-0.0428041
-0.0434358
-0.0440735
-0.0447118
-0.0453488
-0.0459855
-0.0466243
-0.0472689
-0.0479238
-0.0485933
-0.0492823
-0.0403592
-0.0404105
-0.0406036
-0.0409432
-0.0413925
-0.0419207
-0.0425066
-0.0431316
-0.0437803
-0.0444421
-0.0451105
-0.0457822
-0.046456
-0.0471323
-0.0478123
-0.0484977
-0.0491898
-0.0498907
-0.040514
-0.0405647
-0.0407542
-0.0410984
-0.041563
-0.0421134
-0.0427264
-0.0433829
-0.0440663
-0.0447641
-0.0454686
-0.046175
-0.0468805
-0.0475837
-0.0482839
-0.0489811
-0.0496749
-0.0503654
-0.0403949
-0.0404176
-0.0405878
-0.0409524
-0.0414595
-0.0420605
-0.0427296
-0.0434427
-0.0441778
-0.0449207
-0.0456632
-0.0464004
-0.0471292
-0.0478478
-0.0485554
-0.0492515
-0.0499355
-0.0506071
-0.0401897
-0.0401164
-0.0402359
-0.0406358
-0.0411972
-0.0418569
-0.0425945
-0.0433755
-0.0441683
-0.0449583
-0.0457386
-0.046505
-0.0472547
-0.0479864
-0.0486998
-0.0493947
-0.0500709
-0.050728
-0.0400565
-0.0396859
-0.0396995
-0.0401757
-0.040805
-0.041534
-0.0423618
-0.0432272
-0.044086
-0.044927
-0.0457474
-0.0465436
-0.0473137
-0.0480579
-0.0487769
-0.0494713
-0.0501414
-0.050787
-0.0402495
-0.0391688
-0.0390105
-0.0396107
-0.0402949
-0.041105
-0.0420559
-0.0430251
-0.0439569
-0.0448535
-0.0457172
-0.0465448
-0.0473363
-0.0480938
-0.0488196
-0.0495155
-0.0501823
-0.05082
-0.0407953
-0.0384353
-0.0382239
-0.0390037
-0.0396663
-0.040576
-0.0417016
-0.0427966
-0.0438079
-0.0447656
-0.0456767
-0.0465375
-0.0473506
-0.0481218
-0.048855
-0.0495533
-0.0502187
-0.0508508
-0.041066
-0.0364948
-0.0370836
-0.0383426
-0.0389038
-0.0399626
-0.0413332
-0.0425761
-0.0436732
-0.0446975
-0.0456587
-0.0465523
-0.0473856
-0.0481687
-0.0489081
-0.049608
-0.0502718
-0.0508991
-0.0428109
-0.0320847
-0.0348218
-0.0373389
-0.037936
-0.0392938
-0.0409967
-0.0424083
-0.0435969
-0.0446905
-0.0456997
-0.0466208
-0.0474685
-0.0482584
-0.0489995
-0.0496977
-0.0503575
-0.050979
-0.0598325
-0.0300586
-0.0325792
-0.0359429
-0.0367549
-0.0386627
-0.0407821
-0.0423749
-0.0436551
-0.0448101
-0.045853
-0.0467859
-0.0476339
-0.0484187
-0.0491519
-0.0498405
-0.0504907
-0.0511028
-0.103967
-0.0433518
-0.0366176
-0.0357602
-0.0359272
-0.0384364
-0.0409448
-0.042666
-0.0439958
-0.0451716
-0.0462087
-0.0471191
-0.0479393
-0.0486971
-0.049405
-0.0500702
-0.0507
-0.0512962
-0.0835957
-0.0531893
-0.0465185
-0.0379983
-0.0363925
-0.0392001
-0.0418202
-0.0434459
-0.0446765
-0.0457787
-0.0467493
-0.0475962
-0.0483606
-0.0490717
-0.0497405
-0.0503714
-0.0509703
-0.0515522
0.28072
0.0609859
-0.0161502
-0.0292983
-0.0346583
-0.0398328
-0.0428643
-0.0442866
-0.0452647
-0.0461903
-0.0470454
-0.0478127
-0.0485206
-0.0491911
-0.049829
-0.050433
-0.0509977
-0.0515034
-0.0730001
-0.0732028
-0.0736607
-0.0741585
-0.0745883
-0.0750357
-0.0755843
-0.0762735
-0.077124
-0.0781564
-0.079396
-0.0808687
-0.0825972
-0.0845972
-0.0868753
-0.0894265
-0.092234
-0.0952699
-0.098497
-0.101871
-0.105345
-0.10887
-0.112398
-0.115885
-0.119292
-0.122583
-0.12573
-0.128708
-0.131497
-0.134081
-0.136446
-0.138582
-0.140478
-0.142125
-0.143517
-0.144644
-0.145498
-0.146072
-0.146355
-0.146338
-0.146013
-0.145368
-0.144398
-0.143097
-0.141467
-0.139489
-0.137109
-0.134288
-0.131027
-0.127328
-0.123188
-0.1186
-0.11356
-0.108066
-0.102116
-0.0957142
-0.0888662
-0.0815831
-0.0738798
-0.0657763
-0.0572966
-0.0484699
-0.0393296
-0.0299131
-0.0202619
-0.0104205
-0.000436054
0.0096423
0.0197643
0.0298795
0.0399376
0.04989
0.0596896
0.0692925
0.0786577
0.0877481
0.0965307
0.104977
0.113063
0.120768
0.128077
0.13498
0.141469
0.147543
0.153214
0.1585
0.163404
0.16792
0.17206
0.175837
0.179266
0.182365
0.185149
0.187638
0.189847
0.191795
0.193499
0.194974
0.196239
0.197306
0.198193
0.198911
0.199475
0.199897
0.200189
0.20036
0.200422
0.200384
0.200255
0.200043
0.199756
0.199401
0.198986
0.198516
0.197998
0.197438
0.196843
0.196217
0.195567
0.194897
0.194213
0.19352
0.192821
0.192122
0.191427
0.19074
0.190064
0.189402
0.188757
0.188133
0.187532
0.186961
0.186411
0.185872
0.185348
0.184847
0.184373
0.183923
0.183497
0.183096
0.182717
0.182361
0.182026
0.18171
0.181414
0.181136
0.180874
0.180629
0.180398
0.180181
0.179976
0.179784
0.179602
0.179431
0.17927
0.179117
0.178972
0.178835
0.178705
0.178583
0.178468
0.17836
0.178259
0.178168
0.178086
0.178015
0.177958
0.177919
0.177902
0.177915
0.177965
0.178068
0.178243
0.178519
0.178943
0.17959
0.180602
0.182186
0.184961
0.188954
-0.0726243
-0.0733474
-0.0739656
-0.0742197
-0.0741604
-0.0740594
-0.0741635
-0.0745348
-0.075148
-0.0760077
-0.077141
-0.0785771
-0.0803389
-0.082438
-0.0848717
-0.0876215
-0.0906548
-0.093927
-0.0973855
-0.100974
-0.104636
-0.108317
-0.111969
-0.11555
-0.119024
-0.122362
-0.125539
-0.128538
-0.131344
-0.133945
-0.136331
-0.138495
-0.14043
-0.142128
-0.143582
-0.144785
-0.145729
-0.146405
-0.146803
-0.146912
-0.146719
-0.146211
-0.145371
-0.144182
-0.14262
-0.140667
-0.138335
-0.135637
-0.132552
-0.129058
-0.12514
-0.120786
-0.115989
-0.110743
-0.105048
-0.0989028
-0.0923139
-0.0852898
-0.0778438
-0.0699936
-0.0617614
-0.0531742
-0.0442631
-0.0350637
-0.0256152
-0.0159602
-0.0061442
0.00378535
0.0137796
0.0237889
0.0337642
0.043657
0.0534209
0.0630115
0.0723877
0.0815119
0.0903503
0.0988737
0.107057
0.11488
0.122326
0.129386
0.136051
0.142315
0.148169
0.153601
0.158627
0.163271
0.167544
0.171459
0.175031
0.178275
0.181207
0.183842
0.186199
0.188292
0.190139
0.191756
0.193158
0.19436
0.195377
0.196223
0.196911
0.197452
0.19786
0.198144
0.198316
0.198384
0.198357
0.198245
0.198055
0.197795
0.197471
0.197091
0.19666
0.196186
0.195674
0.195129
0.194557
0.193964
0.193354
0.192732
0.192104
0.191472
0.190841
0.190214
0.189596
0.188989
0.188396
0.18782
0.187263
0.186722
0.186197
0.185691
0.185206
0.184739
0.184292
0.183866
0.183461
0.183076
0.182712
0.182367
0.182041
0.181733
0.181442
0.181168
0.180909
0.180666
0.180435
0.180218
0.180013
0.17982
0.179637
0.179464
0.1793
0.179145
0.178998
0.178859
0.178727
0.178603
0.178485
0.178375
0.178273
0.17818
0.178096
0.178024
0.177966
0.177925
0.177907
0.177918
0.177968
0.178069
0.17824
0.17851
0.178922
0.179541
0.180491
0.18192
0.18433
0.187639
-0.0698442
-0.071113
-0.0721805
-0.0726708
-0.0728428
-0.0729928
-0.0732972
-0.073838
-0.0746556
-0.0757803
-0.0772337
-0.0790247
-0.0811478
-0.083584
-0.0863025
-0.0892646
-0.0924259
-0.09574
-0.0991603
-0.102642
-0.106145
-0.109632
-0.11307
-0.11643
-0.119689
-0.122825
-0.125821
-0.128662
-0.131335
-0.133829
-0.136134
-0.13824
-0.14014
-0.141824
-0.143285
-0.144513
-0.1455
-0.146236
-0.14671
-0.146912
-0.146829
-0.14645
-0.14576
-0.144744
-0.143382
-0.141655
-0.139557
-0.137084
-0.134223
-0.13096
-0.127282
-0.123178
-0.118641
-0.113662
-0.108239
-0.102371
-0.0960628
-0.0893203
-0.0821552
-0.0745833
-0.0666248
-0.0583047
-0.0496519
-0.0407
-0.0314863
-0.0220514
-0.0124391
-0.00269521
0.00713276
0.0169965
0.0268477
0.0366387
0.0463233
0.0558576
0.0652002
0.0743133
0.0831625
0.0917177
0.0999531
0.107847
0.115383
0.122549
0.129336
0.135736
0.141744
0.147357
0.152586
0.157437
0.161921
0.166047
0.169829
0.173281
0.176417
0.179254
0.181807
0.184092
0.186126
0.187924
0.189502
0.190874
0.192055
0.19306
0.1939
0.19459
0.195139
0.195561
0.195864
0.19606
0.196158
0.196165
0.196091
0.195942
0.195728
0.195453
0.195126
0.194751
0.194336
0.193885
0.193405
0.192901
0.192377
0.191838
0.191289
0.190733
0.190175
0.189618
0.189066
0.188521
0.187986
0.187464
0.186956
0.186461
0.185979
0.185513
0.185062
0.184627
0.184208
0.183806
0.183422
0.183055
0.182706
0.182374
0.182059
0.181759
0.181475
0.181206
0.180951
0.180709
0.18048
0.180264
0.180058
0.179864
0.179679
0.179505
0.179339
0.179182
0.179032
0.178891
0.178756
0.178629
0.178509
0.178397
0.178293
0.178197
0.178112
0.178038
0.177978
0.177936
0.177917
0.177926
0.177974
0.178072
0.178239
0.178502
0.1789
0.179487
0.180367
0.181631
0.183607
0.185911
-0.0663616
-0.0682285
-0.0700966
-0.071234
-0.0719646
-0.0726429
-0.0734431
-0.0744508
-0.0757139
-0.0772572
-0.0790881
-0.0811995
-0.0835732
-0.0861824
-0.0889949
-0.0919761
-0.0950903
-0.0983024
-0.101579
-0.104888
-0.108201
-0.111491
-0.114733
-0.117905
-0.120988
-0.123964
-0.126819
-0.129538
-0.132109
-0.134521
-0.136764
-0.138828
-0.140704
-0.142383
-0.143854
-0.14511
-0.146138
-0.146929
-0.147472
-0.147754
-0.147763
-0.147485
-0.146906
-0.146012
-0.144788
-0.143219
-0.141294
-0.139001
-0.136325
-0.133254
-0.129772
-0.125869
-0.121535
-0.116762
-0.111545
-0.105883
-0.0997767
-0.0932332
-0.0862617
-0.0788768
-0.0710972
-0.0629466
-0.054453
-0.0456489
-0.0365707
-0.0272585
-0.0177553
-0.00810666
0.00164026
0.0114373
0.0212362
0.0309892
0.0406501
0.0501745
0.0595209
0.0686508
0.0775295
0.0861262
0.0944144
0.102372
0.10998
0.117226
0.124098
0.130593
0.136709
0.142444
0.147802
0.152788
0.157409
0.161675
0.165599
0.169193
0.172472
0.17545
0.178144
0.180568
0.182739
0.184671
0.186381
0.187882
0.18919
0.190317
0.191277
0.192083
0.192747
0.193279
0.19369
0.193991
0.19419
0.194297
0.194319
0.194265
0.194143
0.193958
0.193718
0.193429
0.193097
0.192727
0.192326
0.191898
0.191449
0.190982
0.190502
0.190014
0.18952
0.189025
0.188532
0.188042
0.187559
0.187085
0.186621
0.186168
0.185725
0.185295
0.184878
0.184474
0.184084
0.183708
0.183348
0.183002
0.18267
0.182353
0.182051
0.181762
0.181487
0.181224
0.180975
0.180737
0.180512
0.180297
0.180093
0.179899
0.179714
0.179539
0.179372
0.179213
0.179062
0.178919
0.178782
0.178653
0.178531
0.178417
0.17831
0.178213
0.178125
0.178048
0.177986
0.177941
0.177918
0.177923
0.177966
0.178057
0.178213
0.178458
0.178826
0.179361
0.180138
0.181201
0.182721
0.184232
-0.0642822
-0.0666044
-0.0691058
-0.0708313
-0.0720853
-0.0732463
-0.0744968
-0.0759226
-0.0775669
-0.0794461
-0.081558
-0.0838888
-0.0864175
-0.0891188
-0.0919654
-0.094929
-0.0979818
-0.101097
-0.104249
-0.107414
-0.11057
-0.113696
-0.116773
-0.119785
-0.122715
-0.125549
-0.128274
-0.130879
-0.133352
-0.135683
-0.137862
-0.13988
-0.141725
-0.14339
-0.144865
-0.146138
-0.1472
-0.148038
-0.148642
-0.148998
-0.149093
-0.148914
-0.148445
-0.147672
-0.14658
-0.145152
-0.143375
-0.141235
-0.138715
-0.135802
-0.132481
-0.128739
-0.124564
-0.119949
-0.114886
-0.109372
-0.103408
-0.0969991
-0.0901528
-0.082883
-0.0752076
-0.0671498
-0.0587371
-0.050002
-0.0409807
-0.0317137
-0.0222444
-0.0126189
-0.00288485
0.00690887
0.0167133
0.02648
0.0361622
0.0457148
0.0550957
0.0642662
0.0731909
0.0818386
0.0901825
0.0981996
0.105871
0.113183
0.120125
0.126693
0.132883
0.138696
0.144134
0.149202
0.153909
0.158264
0.162279
0.165966
0.16934
0.172414
0.175204
0.177725
0.179992
0.182021
0.183826
0.185421
0.186822
0.188042
0.189094
0.189989
0.19074
0.191359
0.191855
0.192239
0.19252
0.192706
0.192807
0.19283
0.192782
0.192671
0.192503
0.192284
0.192021
0.191718
0.191382
0.191018
0.190629
0.190222
0.1898
0.189367
0.188927
0.188484
0.188039
0.187596
0.187157
0.186724
0.186298
0.185881
0.185472
0.185074
0.184686
0.18431
0.183946
0.183594
0.183255
0.182928
0.182613
0.182311
0.182021
0.181743
0.181478
0.181223
0.18098
0.180748
0.180526
0.180315
0.180113
0.17992
0.179736
0.179561
0.179394
0.179235
0.179083
0.178939
0.178801
0.178671
0.178547
0.178431
0.178322
0.178222
0.178131
0.178052
0.177987
0.177938
0.17791
0.177908
0.177942
0.178021
0.17816
0.178379
0.178704
0.17917
0.179824
0.180675
0.181793
0.18272
-0.0644038
-0.066899
-0.0696791
-0.0717588
-0.0733824
-0.0748998
-0.0764802
-0.0782014
-0.0801019
-0.0821944
-0.0844739
-0.0869251
-0.0895274
-0.0922579
-0.0950929
-0.0980093
-0.100985
-0.103998
-0.107031
-0.110063
-0.113078
-0.11606
-0.118995
-0.121868
-0.124668
-0.127382
-0.129998
-0.132508
-0.134899
-0.137163
-0.13929
-0.141271
-0.143095
-0.144753
-0.146235
-0.14753
-0.148627
-0.149514
-0.150178
-0.150607
-0.150786
-0.150701
-0.150336
-0.149676
-0.148704
-0.147404
-0.14576
-0.143755
-0.141373
-0.138597
-0.135413
-0.131805
-0.127762
-0.123272
-0.118328
-0.112925
-0.107062
-0.100743
-0.0939756
-0.086772
-0.0791501
-0.0711328
-0.0627479
-0.0540282
-0.0450108
-0.035737
-0.0262512
-0.0166008
-0.00683464
0.00299712
0.0128444
0.0226576
0.032389
0.0419928
0.0514263
0.0606501
0.0696287
0.0783305
0.0867286
0.0947998
0.102525
0.109892
0.11689
0.123514
0.129761
0.13563
0.141127
0.146255
0.151025
0.155444
0.159525
0.16328
0.166723
0.169868
0.17273
0.175324
0.177664
0.179767
0.181646
0.183316
0.184791
0.186085
0.18721
0.188178
0.189002
0.189692
0.190258
0.190712
0.191061
0.191315
0.191482
0.19157
0.191586
0.191538
0.191431
0.191272
0.191067
0.190822
0.190541
0.190231
0.189895
0.189539
0.189166
0.188781
0.188386
0.187986
0.187583
0.18718
0.186779
0.186381
0.185989
0.185603
0.185225
0.184855
0.184494
0.184142
0.183801
0.18347
0.18315
0.18284
0.182542
0.182254
0.181976
0.181709
0.181453
0.181207
0.180971
0.180744
0.180527
0.180319
0.180121
0.17993
0.179748
0.179574
0.179408
0.179249
0.179097
0.178952
0.178813
0.178682
0.178557
0.178439
0.178328
0.178226
0.178133
0.17805
0.17798
0.177926
0.177892
0.177882
0.177904
0.177967
0.178083
0.178269
0.178544
0.17893
0.179454
0.1801
0.180879
0.181367
-0.0664726
-0.0688846
-0.0716412
-0.0738405
-0.0756524
-0.0773702
-0.0791379
-0.0810212
-0.0830527
-0.0852426
-0.0875861
-0.0900688
-0.0926722
-0.0953761
-0.0981601
-0.101005
-0.103892
-0.106804
-0.109725
-0.11264
-0.115536
-0.118399
-0.121217
-0.12398
-0.126676
-0.129296
-0.131828
-0.134264
-0.136595
-0.138811
-0.140903
-0.142862
-0.144678
-0.146341
-0.14784
-0.149165
-0.150304
-0.151245
-0.151974
-0.152478
-0.152742
-0.152751
-0.152488
-0.151937
-0.15108
-0.1499
-0.148379
-0.146499
-0.144242
-0.14159
-0.138527
-0.135036
-0.131103
-0.126717
-0.121866
-0.116546
-0.110755
-0.104494
-0.09777
-0.0905961
-0.0829896
-0.0749735
-0.0665764
-0.0578318
-0.0487782
-0.0394583
-0.0299182
-0.0202068
-0.010375
-0.000474475
0.00944318
0.0193271
0.0291281
0.0387997
0.0482985
0.0575845
0.0666222
0.0753797
0.0838299
0.0919504
0.0997237
0.107137
0.11418
0.120847
0.127137
0.13305
0.138591
0.143764
0.14858
0.153046
0.157176
0.160982
0.164477
0.167676
0.170593
0.173243
0.175641
0.177802
0.179741
0.181471
0.183007
0.184361
0.185547
0.186576
0.18746
0.188211
0.188837
0.18935
0.189759
0.190071
0.190296
0.190441
0.190513
0.190519
0.190466
0.19036
0.190206
0.190011
0.189779
0.189516
0.189226
0.188914
0.188584
0.18824
0.187885
0.187523
0.187156
0.186788
0.186419
0.186053
0.185691
0.185333
0.184981
0.184636
0.184299
0.18397
0.18365
0.183338
0.183036
0.182742
0.182459
0.182184
0.181919
0.181663
0.181416
0.181178
0.180949
0.180729
0.180517
0.180314
0.180119
0.179931
0.179752
0.179579
0.179414
0.179256
0.179104
0.178959
0.17882
0.178688
0.178562
0.178442
0.17833
0.178225
0.178129
0.178043
0.177968
0.177908
0.177866
0.177845
0.177853
0.177897
0.177987
0.178134
0.178353
0.178655
0.17905
0.179505
0.18
0.180151
-0.0698051
-0.0719818
-0.0745202
-0.0766591
-0.078503
-0.0802814
-0.0821103
-0.0840423
-0.0861035
-0.0883021
-0.0906334
-0.0930849
-0.0956403
-0.0982816
-0.100991
-0.103752
-0.106547
-0.109363
-0.112185
-0.115
-0.117797
-0.120565
-0.123292
-0.12597
-0.128588
-0.131138
-0.133611
-0.135998
-0.13829
-0.140479
-0.142555
-0.14451
-0.146334
-0.148016
-0.149547
-0.150914
-0.152106
-0.15311
-0.153912
-0.154497
-0.154852
-0.154958
-0.154799
-0.154357
-0.153615
-0.152552
-0.151149
-0.149388
-0.147249
-0.144713
-0.14176
-0.138374
-0.134537
-0.130237
-0.125462
-0.120205
-0.114461
-0.108234
-0.101528
-0.0943557
-0.0867353
-0.0786902
-0.0702499
-0.0614494
-0.0523289
-0.0429328
-0.0333095
-0.0235101
-0.0135875
-0.00359528
0.00641313
0.0163852
0.0262705
0.0360216
0.0455943
0.0549481
0.0640472
0.0728602
0.0813608
0.0895277
0.0973435
0.104795
0.111875
0.118577
0.124899
0.130845
0.136417
0.141623
0.146472
0.150973
0.155139
0.158982
0.162516
0.165756
0.168715
0.171409
0.173853
0.176061
0.178047
0.179826
0.181412
0.182817
0.184054
0.185135
0.186072
0.186874
0.187553
0.188119
0.188579
0.188943
0.189219
0.189414
0.189535
0.18959
0.189585
0.189525
0.189418
0.189267
0.189079
0.188858
0.188609
0.188336
0.188044
0.187736
0.187416
0.187088
0.186753
0.186415
0.186076
0.185738
0.185402
0.185069
0.184742
0.184419
0.184104
0.183795
0.183493
0.1832
0.182914
0.182636
0.182366
0.182105
0.181851
0.181606
0.181368
0.181139
0.180918
0.180704
0.180498
0.1803
0.180109
0.179925
0.179748
0.179578
0.179414
0.179257
0.179106
0.178961
0.178823
0.17869
0.178563
0.178442
0.178328
0.17822
0.178121
0.17803
0.177951
0.177884
0.177832
0.1778
0.177793
0.177815
0.177875
0.17798
0.178139
0.178356
0.178628
0.178911
0.179167
0.179058
-0.073726
-0.0755905
-0.0778025
-0.0797615
-0.0815243
-0.0832609
-0.0850594
-0.0869597
-0.0889812
-0.0911295
-0.0934001
-0.0957818
-0.0982601
-0.100819
-0.103442
-0.106115
-0.108822
-0.111549
-0.114285
-0.117017
-0.119734
-0.122428
-0.125088
-0.127704
-0.13027
-0.132775
-0.135213
-0.137574
-0.13985
-0.142034
-0.144115
-0.146086
-0.147936
-0.149655
-0.151232
-0.152656
-0.153914
-0.154992
-0.155877
-0.156553
-0.157005
-0.157215
-0.157164
-0.156835
-0.156208
-0.155262
-0.153978
-0.152333
-0.150308
-0.147881
-0.145032
-0.141741
-0.13799
-0.133764
-0.12905
-0.12384
-0.118127
-0.111914
-0.105205
-0.0980136
-0.0903568
-0.0822597
-0.0737531
-0.0648737
-0.0556637
-0.0461699
-0.036443
-0.0265366
-0.0165062
-0.00640743
0.00370437
0.0137748
0.023752
0.0335874
0.0432363
0.0526585
0.0618182
0.070685
0.079233
0.0874411
0.0952928
0.102776
0.109884
0.116611
0.122957
0.128925
0.13452
0.139748
0.14462
0.149145
0.153336
0.157207
0.16077
0.164041
0.167033
0.169762
0.172242
0.174488
0.176514
0.178335
0.179963
0.181411
0.182693
0.183819
0.184801
0.18565
0.186375
0.186987
0.187494
0.187904
0.188225
0.188466
0.188632
0.188732
0.18877
0.188753
0.188686
0.188576
0.188427
0.188244
0.188031
0.187794
0.187536
0.187261
0.186973
0.186675
0.186369
0.186059
0.185746
0.185433
0.18512
0.184811
0.184505
0.184203
0.183907
0.183617
0.183333
0.183056
0.182785
0.182522
0.182266
0.182017
0.181775
0.18154
0.181312
0.181091
0.180877
0.180671
0.180471
0.180278
0.180091
0.179911
0.179737
0.17957
0.179409
0.179253
0.179103
0.178959
0.178821
0.178687
0.17856
0.178438
0.178322
0.178212
0.178109
0.178014
0.177929
0.177854
0.177793
0.177748
0.177723
0.177722
0.17775
0.177812
0.177911
0.178044
0.178199
0.178329
0.178385
0.178075
-0.0776735
-0.0791953
-0.0810306
-0.0827392
-0.0843482
-0.0859757
-0.0876843
-0.0895022
-0.0914419
-0.0935063
-0.0956901
-0.0979829
-0.100371
-0.102841
-0.105377
-0.107965
-0.110591
-0.113242
-0.115906
-0.118573
-0.121232
-0.123873
-0.126488
-0.129068
-0.131605
-0.13409
-0.136517
-0.138876
-0.14116
-0.143361
-0.145469
-0.147476
-0.149371
-0.151144
-0.152785
-0.15428
-0.155618
-0.156783
-0.157762
-0.158539
-0.159096
-0.159416
-0.159479
-0.159267
-0.158758
-0.15793
-0.156763
-0.155234
-0.15332
-0.150998
-0.148246
-0.145044
-0.14137
-0.137208
-0.132543
-0.127366
-0.121671
-0.115456
-0.108729
-0.101501
-0.0937908
-0.0856247
-0.0770349
-0.0680605
-0.0587459
-0.0491404
-0.0392976
-0.0292738
-0.019127
-0.00891538
0.00130321
0.0114731
0.0215417
0.0314597
0.0411821
0.0506688
0.0598844
0.0687986
0.0773863
0.0856274
0.0935064
0.101012
0.108139
0.114882
0.121243
0.127224
0.132832
0.138074
0.14296
0.147502
0.151711
0.155601
0.159186
0.16248
0.165498
0.168255
0.170765
0.173043
0.175103
0.176959
0.178624
0.18011
0.181431
0.182598
0.183621
0.184511
0.185278
0.185932
0.186481
0.186934
0.187298
0.18758
0.187788
0.187927
0.188005
0.188027
0.187999
0.187926
0.187813
0.187665
0.187486
0.187281
0.187055
0.18681
0.18655
0.186279
0.186
0.185715
0.185426
0.185135
0.184845
0.184556
0.18427
0.183988
0.18371
0.183437
0.183169
0.182907
0.182652
0.182402
0.182159
0.181922
0.181691
0.181466
0.181248
0.181036
0.18083
0.18063
0.180436
0.180249
0.180067
0.179891
0.179721
0.179557
0.179398
0.179244
0.179096
0.178953
0.178815
0.178682
0.178553
0.17843
0.178312
0.1782
0.178094
0.177994
0.177903
0.17782
0.177748
0.17769
0.177646
0.177621
0.177616
0.177634
0.177673
0.177726
0.177774
0.177768
0.177658
0.17719
-0.0812014
-0.0823798
-0.0838265
-0.0852514
-0.086666
-0.0881461
-0.0897318
-0.0914402
-0.0932779
-0.0952442
-0.0973326
-0.099533
-0.101833
-0.104218
-0.106675
-0.109189
-0.111748
-0.114339
-0.116951
-0.119573
-0.122195
-0.124807
-0.127401
-0.129969
-0.132502
-0.134992
-0.137431
-0.139812
-0.142127
-0.144366
-0.146522
-0.148585
-0.150544
-0.152389
-0.154109
-0.15569
-0.157121
-0.158385
-0.159469
-0.160354
-0.161024
-0.16146
-0.161642
-0.161549
-0.16116
-0.160451
-0.159401
-0.157984
-0.156178
-0.153956
-0.151296
-0.148174
-0.144568
-0.14046
-0.135834
-0.130678
-0.124987
-0.118758
-0.111999
-0.104722
-0.0969456
-0.0886986
-0.080015
-0.0709361
-0.0615091
-0.0517864
-0.041825
-0.0316834
-0.0214218
-0.0111007
-0.000779845
0.00948389
0.0196369
0.0296293
0.039416
0.0489568
0.0582169
0.067167
0.0757828
0.0840454
0.0919403
0.0994579
0.106593
0.113342
0.119708
0.125693
0.131306
0.136554
0.141447
0.145997
0.150217
0.15412
0.157721
0.161033
0.164072
0.166852
0.169388
0.171693
0.173783
0.17567
0.177368
0.178889
0.180245
0.181448
0.182509
0.183438
0.184244
0.184937
0.185525
0.186017
0.18642
0.186742
0.186988
0.187166
0.187281
0.18734
0.187347
0.187309
0.187229
0.187113
0.186966
0.186792
0.186594
0.186377
0.186144
0.185898
0.185643
0.18538
0.185114
0.184844
0.184574
0.184305
0.184037
0.183772
0.183511
0.183254
0.183002
0.182755
0.182513
0.182277
0.182046
0.181821
0.181601
0.181386
0.181177
0.180974
0.180776
0.180583
0.180396
0.180214
0.180037
0.179866
0.1797
0.179539
0.179383
0.179232
0.179085
0.178943
0.178806
0.178673
0.178544
0.17842
0.178301
0.178186
0.178076
0.177972
0.177874
0.177783
0.1777
0.177627
0.177564
0.177514
0.177476
0.17745
0.177432
0.177408
0.17736
0.177234
0.176985
0.176392
-0.0839718
-0.0848266
-0.0858991
-0.0870333
-0.0882376
-0.0895542
-0.0910041
-0.0925947
-0.0943266
-0.0961957
-0.098194
-0.100311
-0.102533
-0.104848
-0.107241
-0.109701
-0.112213
-0.114765
-0.117347
-0.119947
-0.122556
-0.125163
-0.127761
-0.13034
-0.132893
-0.135412
-0.137888
-0.140314
-0.14268
-0.14498
-0.147202
-0.149339
-0.151379
-0.153312
-0.155124
-0.156805
-0.158339
-0.159712
-0.160908
-0.161909
-0.162696
-0.163252
-0.163554
-0.163581
-0.163311
-0.162719
-0.161782
-0.160474
-0.158769
-0.156641
-0.154063
-0.151011
-0.147463
-0.143397
-0.138797
-0.133651
-0.127951
-0.121697
-0.114895
-0.107559
-0.0997092
-0.0913758
-0.082595
-0.0734106
-0.0638727
-0.0540366
-0.0439617
-0.0337093
-0.0233422
-0.0129229
-0.00251248
0.00783078
0.0180525
0.0281028
0.0379365
0.0475143
0.056802
0.0657714
0.0743994
0.0826683
0.0905649
0.0980807
0.105211
0.111955
0.118315
0.124296
0.129905
0.13515
0.140044
0.144596
0.148822
0.152733
0.156345
0.159671
0.162727
0.165526
0.168084
0.170414
0.17253
0.174445
0.176173
0.177726
0.179116
0.180353
0.181449
0.182414
0.183257
0.183987
0.184613
0.185142
0.185582
0.185941
0.186224
0.186437
0.186588
0.186681
0.186722
0.186717
0.186669
0.186584
0.186466
0.18632
0.186149
0.185958
0.185749
0.185528
0.185295
0.185054
0.184808
0.184558
0.184307
0.184056
0.183805
0.183557
0.183312
0.18307
0.182833
0.1826
0.182371
0.182147
0.181928
0.181714
0.181505
0.1813
0.181101
0.180906
0.180716
0.180531
0.18035
0.180174
0.180003
0.179836
0.179675
0.179517
0.179364
0.179215
0.179071
0.17893
0.178794
0.178661
0.178533
0.178408
0.178286
0.178169
0.178055
0.177946
0.177842
0.177742
0.177648
0.17756
0.177479
0.177403
0.177333
0.177264
0.17719
0.177097
0.17696
0.176731
0.176365
0.175673
-0.0857196
-0.0863137
-0.0870448
-0.0878993
-0.088894
-0.0900469
-0.0913626
-0.0928402
-0.0944747
-0.0962586
-0.0981816
-0.100232
-0.102397
-0.104663
-0.107017
-0.109445
-0.111935
-0.114474
-0.117051
-0.119655
-0.122275
-0.124904
-0.12753
-0.130146
-0.132743
-0.135314
-0.137848
-0.140339
-0.142778
-0.145155
-0.147462
-0.149688
-0.151823
-0.153855
-0.155771
-0.15756
-0.159205
-0.160692
-0.162003
-0.163122
-0.164029
-0.164703
-0.165123
-0.165267
-0.165111
-0.16463
-0.163799
-0.16259
-0.160976
-0.158929
-0.156422
-0.153428
-0.149923
-0.145886
-0.141299
-0.13615
-0.130431
-0.124141
-0.117289
-0.109888
-0.101962
-0.0935409
-0.084665
-0.0753804
-0.0657399
-0.0558015
-0.0456272
-0.0352811
-0.0248278
-0.0143315
-0.00385443
0.00654451
0.0168107
0.0268943
0.036751
0.0463423
0.0556351
0.0646024
0.0732225
0.081479
0.0893602
0.0968586
0.103971
0.110697
0.11704
0.123006
0.128602
0.133838
0.138724
0.143274
0.147499
0.151414
0.155033
0.15837
0.161439
0.164256
0.166833
0.169185
0.171325
0.173268
0.175024
0.176607
0.178028
0.179299
0.180428
0.181428
0.182306
0.183072
0.183733
0.184299
0.184775
0.185168
0.185486
0.185735
0.185919
0.186046
0.186119
0.186144
0.186127
0.186071
0.185981
0.185862
0.185717
0.18555
0.185365
0.185166
0.184955
0.184734
0.184508
0.184276
0.184043
0.183808
0.183574
0.183342
0.183112
0.182885
0.182661
0.182441
0.182225
0.182014
0.181806
0.181603
0.181404
0.18121
0.181019
0.180833
0.180651
0.180473
0.180299
0.18013
0.179964
0.179803
0.179645
0.179491
0.179342
0.179196
0.179054
0.178915
0.178779
0.178647
0.178519
0.178393
0.17827
0.17815
0.178033
0.177919
0.177808
0.1777
0.177595
0.177492
0.177391
0.177291
0.177189
0.177079
0.176953
0.176795
0.176579
0.176259
0.175795
0.175023
-0.0862803
-0.08669
-0.0871255
-0.0877294
-0.088532
-0.0895344
-0.0907297
-0.0921097
-0.0936648
-0.095384
-0.0972548
-0.0992638
-0.101397
-0.103642
-0.105983
-0.108408
-0.110903
-0.113456
-0.116056
-0.11869
-0.12135
-0.124024
-0.126704
-0.12938
-0.132043
-0.134686
-0.137299
-0.139873
-0.1424
-0.14487
-0.147274
-0.149601
-0.15184
-0.153979
-0.156005
-0.157905
-0.159663
-0.161264
-0.16269
-0.163923
-0.164944
-0.165731
-0.166261
-0.166513
-0.166461
-0.166079
-0.165342
-0.164218
-0.16268
-0.160698
-0.158243
-0.155289
-0.15181
-0.147785
-0.143196
-0.13803
-0.13228
-0.125947
-0.119038
-0.111571
-0.10357
-0.0950675
-0.0861066
-0.0767358
-0.0670107
-0.0569917
-0.0467429
-0.0363304
-0.0258206
-0.0152786
-0.00476717
0.00565478
0.0159329
0.0260181
0.0358672
0.0454426
0.054713
0.0636526
0.0722412
0.0804638
0.08831
0.0957736
0.102852
0.109547
0.115861
0.121801
0.127376
0.132594
0.137467
0.142008
0.146229
0.150144
0.153767
0.157111
0.160192
0.163023
0.165618
0.167991
0.170155
0.172123
0.173907
0.175519
0.176971
0.178273
0.179436
0.180469
0.181382
0.182182
0.182879
0.183479
0.18399
0.184418
0.18477
0.185052
0.185269
0.185428
0.185532
0.185588
0.185599
0.185571
0.185509
0.185415
0.185295
0.185151
0.184989
0.184811
0.18462
0.184419
0.184211
0.183997