/*--------------------------------*- C++ -*----------------------------------*\
  =========                 |
  \\      /  F ield         | OpenFOAM: The Open Source CFD Toolbox
   \\    /   O peration     | Website:  https://openfoam.org
    \\  /    A nd           | Version:  6
     \\/     M anipulation  |
\*---------------------------------------------------------------------------*/
FoamFile
{
    version     2.0;
    format      ascii;
    class       surfaceScalarField;
    location    "0.18";
    object      phi;
}
// * * * * * * * * * * * * * * * * * * * * * * * * * * * * * * * * * * * * * //

dimensions      [0 3 -1 0 0 0 0];

internalField   nonuniform List<scalar> 
24170
(
3.2567e-07
-6.82906e-09
3.1941e-07
6.25988e-09
3.15795e-07
3.61466e-09
3.08695e-07
7.10028e-09
3.01713e-07
6.9821e-09
2.96685e-07
5.02734e-09
2.93339e-07
3.34677e-09
2.9096e-07
2.37902e-09
2.89102e-07
1.85763e-09
2.87562e-07
1.53967e-09
2.86235e-07
1.327e-09
2.85053e-07
1.18257e-09
2.83969e-07
1.084e-09
2.82949e-07
1.02008e-09
2.81975e-07
9.73575e-10
2.81e-07
9.7551e-10
2.80211e-07
7.88231e-10
9.22463e-10
2.79289e-07
3.50377e-07
-1.54815e-08
3.47809e-07
8.82816e-09
3.44049e-07
7.37459e-09
3.4218e-07
8.96974e-09
3.39982e-07
9.18019e-09
3.37467e-07
7.54203e-09
3.35093e-07
5.72079e-09
3.33059e-07
4.41332e-09
3.31361e-07
3.55507e-09
3.29932e-07
2.96889e-09
3.28702e-07
2.5569e-09
3.27617e-07
2.26728e-09
3.26637e-07
2.06405e-09
3.25729e-07
1.92825e-09
3.2487e-07
1.83318e-09
3.24024e-07
1.8214e-09
3.23151e-07
1.66085e-09
1.86886e-09
3.22205e-07
3.63433e-07
-1.26627e-08
3.66547e-07
5.71431e-09
3.66686e-07
7.23509e-09
3.66827e-07
8.82926e-09
3.66416e-07
9.59086e-09
3.65377e-07
8.58089e-09
3.64034e-07
7.06342e-09
3.6266e-07
5.78746e-09
3.61382e-07
4.83355e-09
3.60228e-07
4.12246e-09
3.59189e-07
3.59601e-09
3.58243e-07
3.21297e-09
3.57369e-07
2.9389e-09
3.56543e-07
2.75361e-09
3.55743e-07
2.63312e-09
3.54959e-07
2.6054e-09
3.54082e-07
2.53788e-09
2.7771e-09
3.53174e-07
3.89234e-07
-9.35782e-09
3.91439e-07
3.50954e-09
3.92348e-07
6.3257e-09
3.92978e-07
8.1991e-09
3.93208e-07
9.36086e-09
3.92893e-07
8.8958e-09
3.92191e-07
7.76567e-09
3.91311e-07
6.66774e-09
3.9039e-07
5.75481e-09
3.8949e-07
5.02184e-09
3.88634e-07
4.45203e-09
3.87824e-07
4.02355e-09
3.87051e-07
3.71162e-09
3.86304e-07
3.50019e-09
3.85565e-07
3.37206e-09
3.84824e-07
3.34674e-09
3.83998e-07
3.36418e-09
3.63135e-09
3.83144e-07
4.18265e-07
-6.91035e-09
4.19391e-07
2.38412e-09
4.20249e-07
5.46705e-09
4.20974e-07
7.47436e-09
4.21485e-07
8.84993e-09
4.21581e-07
8.79952e-09
4.21307e-07
8.03947e-09
4.20805e-07
7.17064e-09
4.20187e-07
6.37221e-09
4.19523e-07
5.68621e-09
4.18847e-07
5.12795e-09
4.18175e-07
4.69509e-09
4.17512e-07
4.37544e-09
4.16852e-07
4.15994e-09
4.16184e-07
4.03944e-09
4.15501e-07
4.02996e-09
4.14753e-07
4.11235e-09
4.41035e-09
4.13974e-07
4.4903e-07
-5.03182e-09
4.4958e-07
1.83401e-09
4.50289e-07
4.75824e-09
4.51009e-07
6.75494e-09
4.51649e-07
8.20994e-09
4.51988e-07
8.45955e-09
4.52008e-07
8.02007e-09
4.51793e-07
7.38511e-09
4.51431e-07
6.73499e-09
4.50979e-07
6.13776e-09
4.50477e-07
5.63e-09
4.49947e-07
5.22523e-09
4.49399e-07
4.92327e-09
4.48836e-07
4.72279e-09
4.48254e-07
4.62215e-09
4.47647e-07
4.63599e-09
4.46994e-07
4.76587e-09
5.08515e-09
4.46319e-07
4.81752e-07
-3.51207e-09
4.82027e-07
1.55922e-09
4.82595e-07
4.19028e-09
4.83266e-07
6.0844e-09
4.83948e-07
7.52711e-09
4.84427e-07
7.98043e-09
4.84646e-07
7.80144e-09
4.8465e-07
7.38148e-09
4.84496e-07
6.88832e-09
4.84233e-07
6.40123e-09
4.83894e-07
5.96867e-09
4.83504e-07
5.6152e-09
4.83077e-07
5.35042e-09
4.8262e-07
5.1798e-09
4.82135e-07
5.1077e-09
4.81623e-07
5.14788e-09
4.81078e-07
5.31031e-09
5.63599e-09
4.80527e-07
5.16743e-07
-2.29726e-09
5.16867e-07
1.43592e-09
5.17311e-07
3.74593e-09
5.17911e-07
5.48437e-09
5.18585e-07
6.8531e-09
5.19135e-07
7.43047e-09
5.19485e-07
7.45117e-09
5.19651e-07
7.21588e-09
5.19666e-07
6.8727e-09
5.19565e-07
6.50223e-09
5.19376e-07
6.15759e-09
5.19122e-07
5.86979e-09
5.18817e-07
5.65522e-09
5.18472e-07
5.52444e-09
5.18094e-07
5.4858e-09
5.1769e-07
5.55191e-09
5.17267e-07
5.73405e-09
6.05229e-09
5.1685e-07
5.54203e-07
-1.36664e-09
5.54236e-07
1.40293e-09
5.54581e-07
3.40143e-09
5.55106e-07
4.9587e-09
5.55744e-07
6.2155e-09
5.56321e-07
6.85368e-09
5.56754e-07
7.018e-09
5.57037e-07
6.93273e-09
5.57186e-07
6.72339e-09
5.57223e-07
6.46561e-09
5.57168e-07
6.2121e-09
5.57042e-07
5.99645e-09
5.56858e-07
5.83887e-09
5.5663e-07
5.75296e-09
5.56366e-07
5.74909e-09
5.5608e-07
5.83817e-09
5.55785e-07
6.02931e-09
6.32944e-09
5.55508e-07
5.94298e-07
-6.87312e-10
5.94287e-07
1.41379e-09
5.9456e-07
3.12847e-09
5.9502e-07
4.49941e-09
5.9561e-07
5.62523e-09
5.96187e-07
6.27676e-09
5.96669e-07
6.53626e-09
5.97035e-07
6.56638e-09
5.97288e-07
6.46997e-09
5.9744e-07
6.31416e-09
5.97504e-07
6.14788e-09
5.97496e-07
6.00431e-09
5.9743e-07
5.90491e-09
5.97319e-07
5.8644e-09
5.97174e-07
5.89345e-09
5.97012e-07
6.00084e-09
5.96849e-07
6.19232e-09
6.46704e-09
5.96711e-07
6.37213e-07
-2.18839e-10
6.37193e-07
1.43388e-09
6.37423e-07
2.89809e-09
6.37831e-07
4.09171e-09
6.38374e-07
5.08236e-09
6.38937e-07
5.71361e-09
6.39444e-07
6.02857e-09
6.39869e-07
6.14217e-09
6.40202e-07
6.13616e-09
6.40449e-07
6.06762e-09
6.40617e-07
5.97974e-09
6.40718e-07
5.90314e-09
6.40765e-07
5.85857e-09
6.40769e-07
5.86026e-09
6.40744e-07
5.91794e-09
6.40707e-07
6.03806e-09
6.40676e-07
6.22309e-09
6.46804e-09
6.40675e-07
5.7382e-07
4.4206e-11
5.73811e-07
1.44306e-09
5.73993e-07
2.71626e-09
5.74312e-07
3.77273e-09
5.7474e-07
4.65482e-09
5.75202e-07
5.25163e-09
5.75641e-07
5.58946e-09
5.7603e-07
5.75242e-09
5.76361e-07
5.80589e-09
5.7663e-07
5.79839e-09
5.76842e-07
5.76762e-09
5.77004e-07
5.74103e-09
5.77125e-07
5.73765e-09
5.77215e-07
5.77043e-09
5.77285e-07
5.84774e-09
5.77349e-07
5.97409e-09
5.77422e-07
6.14985e-09
6.36773e-09
5.77523e-07
6.99625e-07
2.34551e-10
6.99652e-07
1.41671e-09
6.99857e-07
2.51115e-09
7.00204e-07
3.42567e-09
7.00668e-07
4.19032e-09
7.01183e-07
4.73721e-09
7.01692e-07
5.0805e-09
7.02165e-07
5.27883e-09
7.02589e-07
5.38228e-09
7.02957e-07
5.42994e-09
7.03272e-07
5.4529e-09
7.03539e-07
5.47437e-09
7.03766e-07
5.5106e-09
7.03964e-07
5.57245e-09
7.04145e-07
5.66638e-09
7.04324e-07
5.79491e-09
7.04517e-07
5.95651e-09
6.14325e-09
7.04742e-07
8.52977e-07
3.4232e-10
8.53055e-07
1.33829e-09
8.53304e-07
2.26267e-09
8.53693e-07
3.03624e-09
8.54203e-07
3.68058e-09
8.54776e-07
4.16407e-09
8.55362e-07
4.49479e-09
8.55929e-07
4.71165e-09
8.5646e-07
4.85135e-09
8.56946e-07
4.94353e-09
8.57387e-07
5.01211e-09
8.57786e-07
5.0752e-09
8.58151e-07
5.14547e-09
8.58493e-07
5.23104e-09
8.58823e-07
5.33613e-09
8.59157e-07
5.46145e-09
8.59509e-07
5.6042e-09
5.75691e-09
8.59895e-07
1.0399e-06
3.68464e-10
1.04004e-06
1.19285e-09
1.04036e-06
1.948e-09
1.04081e-06
2.58144e-09
1.04138e-06
3.10667e-09
1.04203e-06
3.51638e-09
1.04271e-06
3.81761e-09
1.04339e-06
4.03525e-09
1.04404e-06
4.1947e-09
1.04467e-06
4.31692e-09
1.04526e-06
4.41873e-09
1.04582e-06
4.5128e-09
1.04636e-06
4.60778e-09
1.04688e-06
4.70877e-09
1.0474e-06
4.81779e-09
1.04793e-06
4.93411e-09
1.04848e-06
5.05443e-09
5.17239e-09
1.04906e-06
1.26772e-06
3.25327e-10
1.26795e-06
9.68444e-10
1.26835e-06
1.54575e-09
1.2689e-06
2.03275e-09
1.26957e-06
2.43766e-09
1.27032e-06
2.76461e-09
1.27111e-06
3.02106e-09
1.27193e-06
3.22227e-09
1.27274e-06
3.38428e-09
1.27353e-06
3.52032e-09
1.27431e-06
3.64066e-09
1.27507e-06
3.75272e-09
1.27582e-06
3.86118e-09
1.27656e-06
3.96829e-09
1.2773e-06
4.07416e-09
1.27806e-06
4.17716e-09
1.27884e-06
4.27407e-09
4.35999e-09
1.27965e-06
1.54541e-06
2.29563e-10
1.54572e-06
6.59506e-10
1.54623e-06
1.03753e-09
1.5469e-06
1.35955e-09
1.54771e-06
1.63304e-09
1.54861e-06
1.86469e-09
1.54957e-06
2.06059e-09
1.55056e-06
2.22876e-09
1.55157e-06
2.37708e-09
1.55258e-06
2.51168e-09
1.55358e-06
2.63681e-09
1.55458e-06
2.75507e-09
1.55557e-06
2.86755e-09
1.55657e-06
2.974e-09
1.55757e-06
3.07312e-09
1.55858e-06
3.16278e-09
1.55962e-06
3.2402e-09
3.3019e-09
1.56068e-06
1.8839e-06
9.55205e-11
1.88429e-06
2.66325e-10
1.88492e-06
4.06974e-10
1.88575e-06
5.29245e-10
1.88674e-06
6.44817e-10
1.88785e-06
7.59047e-10
1.88903e-06
8.74403e-10
1.89027e-06
9.92219e-10
1.89153e-06
1.11243e-09
1.89281e-06
1.23389e-09
1.89409e-06
1.35486e-09
1.89537e-06
1.4733e-09
1.89666e-06
1.58691e-09
1.89794e-06
1.69322e-09
1.89922e-06
1.78974e-09
1.90051e-06
1.87398e-09
1.9018e-06
1.94358e-09
1.99613e-09
1.90311e-06
2.29649e-06
-5.84387e-11
2.29695e-06
-1.94988e-10
2.29771e-06
-3.56023e-10
2.29873e-06
-4.93763e-10
2.29997e-06
-5.85299e-10
2.30135e-06
-6.28084e-10
2.30285e-06
-6.228e-10
2.30442e-06
-5.74815e-10
2.30602e-06
-4.93809e-10
2.30765e-06
-3.89932e-10
2.30927e-06
-2.71999e-10
2.31089e-06
-1.47458e-10
2.3125e-06
-2.25396e-11
2.3141e-06
9.76729e-11
2.31568e-06
2.09134e-10
2.31725e-06
3.08699e-10
2.31879e-06
3.93963e-10
4.63012e-10
2.32033e-06
1.68112e-06
-1.12892e-10
1.68139e-06
-4.55524e-10
1.68191e-06
-8.76783e-10
1.68265e-06
-1.2405e-09
1.68358e-06
-1.51481e-09
1.68465e-06
-1.6981e-09
1.68582e-06
-1.78698e-09
1.68703e-06
-1.7925e-09
1.68828e-06
-1.73517e-09
1.68952e-06
-1.63421e-09
1.69075e-06
-1.50512e-09
1.69197e-06
-1.36043e-09
1.69315e-06
-1.21011e-09
1.69431e-06
-1.06172e-09
1.69544e-06
-9.20809e-10
1.69654e-06
-7.91338e-10
1.69761e-06
-6.76029e-10
-5.76824e-10
1.69865e-06
1.46336e-06
-1.92126e-11
1.46345e-06
-5.40862e-10
1.46384e-06
-1.27264e-09
1.46449e-06
-1.89001e-09
1.46535e-06
-2.37478e-09
1.46637e-06
-2.71713e-09
1.46748e-06
-2.89896e-09
1.46864e-06
-2.94362e-09
1.46979e-06
-2.89029e-09
1.47093e-06
-2.77081e-09
1.47203e-06
-2.60916e-09
1.4731e-06
-2.42426e-09
1.47412e-06
-2.23043e-09
1.47509e-06
-2.03787e-09
1.47602e-06
-1.8536e-09
1.47692e-06
-1.68227e-09
1.47777e-06
-1.5268e-09
-1.38899e-09
1.47858e-06
1.27363e-06
3.62394e-10
1.2735e-06
-4.09497e-10
1.2738e-06
-1.57105e-09
1.2744e-06
-2.49056e-09
1.27526e-06
-3.23307e-09
1.27629e-06
-3.75315e-09
1.2774e-06
-4.00949e-09
1.27852e-06
-4.05874e-09
1.2796e-06
-3.97241e-09
1.28063e-06
-3.79948e-09
1.2816e-06
-3.57461e-09
1.2825e-06
-3.32422e-09
1.28333e-06
-3.06706e-09
1.28411e-06
-2.81539e-09
1.28483e-06
-2.57692e-09
1.28551e-06
-2.35628e-09
1.28614e-06
-2.1559e-09
-1.97697e-09
1.28672e-06
1.10825e-06
1.2072e-09
1.1079e-06
-5.85922e-11
1.10817e-06
-1.84372e-09
1.10881e-06
-3.1274e-09
1.10975e-06
-4.18121e-09
1.11087e-06
-4.87185e-09
1.11201e-06
-5.14647e-09
1.11309e-06
-5.13564e-09
1.11407e-06
-4.95923e-09
1.11496e-06
-4.68611e-09
1.11575e-06
-4.36238e-09
1.11645e-06
-4.02148e-09
1.11706e-06
-3.6849e-09
1.11761e-06
-3.36501e-09
1.1181e-06
-3.06843e-09
1.11855e-06
-2.79834e-09
1.11895e-06
-2.55559e-09
-2.33994e-09
1.11931e-06
9.64047e-07
2.68118e-09
9.6354e-07
4.48549e-10
9.63897e-07
-2.20066e-09
9.64676e-07
-3.9065e-09
9.65801e-07
-5.30576e-09
9.67032e-07
-6.10278e-09
9.68173e-07
-6.28744e-09
9.69158e-07
-6.12117e-09
9.69982e-07
-5.78334e-09
9.70657e-07
-5.36045e-09
9.71202e-07
-4.90711e-09
9.7164e-07
-4.46001e-09
9.71994e-07
-4.03919e-09
9.72283e-07
-3.65349e-09
9.7252e-07
-3.3058e-09
9.72718e-07
-2.99593e-09
9.72884e-07
-2.72189e-09
-2.48122e-09
9.73025e-07
8.38144e-07
5.07282e-09
8.3775e-07
8.42378e-10
8.38373e-07
-2.82398e-09
8.39401e-07
-4.93433e-09
8.40743e-07
-6.64757e-09
8.42043e-07
-7.40287e-09
8.43094e-07
-7.33842e-09
8.43876e-07
-6.9031e-09
8.44426e-07
-6.33382e-09
8.4479e-07
-5.72465e-09
8.45013e-07
-5.12981e-09
8.45134e-07
-4.58088e-09
8.45184e-07
-4.08964e-09
8.45188e-07
-3.65662e-09
8.4516e-07
-3.27799e-09
8.45112e-07
-2.94856e-09
8.45053e-07
-2.66257e-09
-2.41477e-09
8.44987e-07
7.27634e-07
9.16762e-09
7.28119e-07
3.57294e-10
7.29317e-07
-4.02184e-09
7.30696e-07
-6.3136e-09
7.32221e-07
-8.17268e-09
7.33449e-07
-8.63135e-09
7.34233e-07
-8.12197e-09
7.34639e-07
-7.3094e-09
7.3477e-07
-6.46494e-09
7.34714e-07
-5.6681e-09
7.34539e-07
-4.95476e-09
7.34296e-07
-4.33825e-09
7.3402e-07
-3.81387e-09
7.33733e-07
-3.36948e-09
7.33448e-07
-2.99261e-09
7.33172e-07
-2.67254e-09
7.32909e-07
-2.39997e-09
-2.16686e-09
7.32661e-07
6.30219e-07
1.59555e-08
6.32748e-07
-2.17149e-09
6.3473e-07
-6.00431e-09
6.36511e-07
-8.09462e-09
6.38078e-07
-9.73989e-09
6.38971e-07
-9.52387e-09
6.39211e-07
-8.36191e-09
6.39009e-07
-7.10755e-09
6.38552e-07
-6.00824e-09
6.37969e-07
-5.08504e-09
6.37341e-07
-4.32649e-09
6.36715e-07
-3.7124e-09
6.36117e-07
-3.21572e-09
6.35558e-07
-2.81052e-09
6.35042e-07
-2.47668e-09
6.34569e-07
-2.19962e-09
6.34137e-07
-1.96822e-09
-1.7724e-09
6.33743e-07
5.47192e-07
2.33103e-08
5.51824e-07
-6.80357e-09
5.53522e-07
-7.70253e-09
5.55225e-07
-9.7981e-09
5.56319e-07
-1.08338e-08
5.56338e-07
-9.54227e-09
5.55586e-07
-7.61064e-09
5.54466e-07
-5.98726e-09
5.53241e-07
-4.78322e-09
5.52047e-07
-3.89128e-09
5.50943e-07
-3.22186e-09
5.49945e-07
-2.71482e-09
5.49054e-07
-2.32433e-09
5.4826e-07
-2.01662e-09
5.47553e-07
-1.76935e-09
5.46922e-07
-1.569e-09
5.4636e-07
-1.40623e-09
-1.27244e-09
5.4586e-07
4.91615e-07
1.44564e-08
4.90699e-07
-5.88818e-09
4.87262e-07
-4.26541e-09
4.86299e-07
-8.83451e-09
4.84852e-07
-9.38729e-09
4.82509e-07
-7.19908e-09
4.7986e-07
-4.96174e-09
4.77355e-07
-3.48242e-09
4.75165e-07
-2.59324e-09
4.73304e-07
-2.0302e-09
4.7173e-07
-1.64822e-09
4.70393e-07
-1.37778e-09
4.69248e-07
-1.17853e-09
4.68256e-07
-1.02525e-09
4.67391e-07
-9.03847e-10
4.66631e-07
-8.09113e-10
4.65967e-07
-7.42731e-10
-7.50747e-10
4.65446e-07
4.34724e-07
4.28836e-07
4.2457e-07
4.15736e-07
4.06349e-07
3.9915e-07
3.94188e-07
3.90705e-07
3.88112e-07
3.86082e-07
3.84434e-07
3.83056e-07
3.81877e-07
3.80852e-07
3.79948e-07
3.79139e-07
3.78396e-07
3.77646e-07
1.81511e-08
-1.81511e-08
3.10533e-08
-1.29022e-08
3.62738e-08
-5.22048e-09
3.44168e-08
1.85701e-09
2.70806e-08
7.33611e-09
1.63837e-08
1.06969e-08
3.98407e-09
1.23997e-08
-9.55024e-09
1.35343e-08
-2.436e-08
1.48098e-08
-4.06068e-08
1.62468e-08
-5.8348e-08
1.77412e-08
-7.75215e-08
1.91734e-08
-9.7963e-08
2.04416e-08
-1.19435e-07
2.14721e-08
-1.41656e-07
2.22206e-08
-1.64325e-07
2.26693e-08
-1.87148e-07
2.28226e-08
-2.09849e-07
2.27017e-08
-2.32189e-07
2.23394e-08
-2.53964e-07
2.17749e-08
-2.75014e-07
2.105e-08
-2.95219e-07
2.02053e-08
-3.14497e-07
1.92784e-08
-3.32799e-07
1.83018e-08
-3.50102e-07
1.73027e-08
-3.66404e-07
1.63024e-08
-3.81721e-07
1.53169e-08
-3.96079e-07
1.43573e-08
-4.09509e-07
1.34304e-08
-4.22048e-07
1.25395e-08
-4.33734e-07
1.16853e-08
-4.446e-07
1.08661e-08
-4.54679e-07
1.00787e-08
-4.63997e-07
9.31881e-09
-4.72579e-07
8.58137e-09
-4.80439e-07
7.86075e-09
-4.87591e-07
7.15108e-09
-4.94037e-07
6.44635e-09
-4.99777e-07
5.74054e-09
-5.04805e-07
5.02796e-09
-5.09109e-07
4.30318e-09
-5.1267e-07
3.56104e-09
-5.15467e-07
2.79717e-09
-5.17475e-07
2.00823e-09
-5.18669e-07
1.19411e-09
-5.19041e-07
3.7212e-10
-5.18629e-07
-4.11751e-10
-5.17483e-07
-1.14635e-09
-5.15618e-07
-1.86462e-09
-5.13032e-07
-2.58658e-09
-5.0971e-07
-3.32207e-09
-5.05635e-07
-4.07503e-09
-5.00788e-07
-4.84658e-09
-4.95152e-07
-5.6362e-09
-4.8871e-07
-6.44233e-09
-4.81447e-07
-7.26263e-09
-4.73353e-07
-8.09404e-09
-4.6442e-07
-8.93301e-09
-4.54645e-07
-9.77542e-09
-4.44028e-07
-1.06167e-08
-4.32576e-07
-1.14521e-08
-4.203e-07
-1.22762e-08
-4.07216e-07
-1.30837e-08
-3.93347e-07
-1.38691e-08
-3.7872e-07
-1.4627e-08
-3.63368e-07
-1.53519e-08
-3.47329e-07
-1.60387e-08
-3.30646e-07
-1.66827e-08
-3.13367e-07
-1.72795e-08
-2.95542e-07
-1.78254e-08
-2.77225e-07
-1.8317e-08
-2.58473e-07
-1.87519e-08
-2.39345e-07
-1.91281e-08
-2.199e-07
-1.94446e-08
-2.00199e-07
-1.97008e-08
-1.80302e-07
-1.9897e-08
-1.60268e-07
-2.00338e-08
-1.40156e-07
-2.01124e-08
-1.20022e-07
-2.01342e-08
-9.99212e-08
-2.01007e-08
-7.99089e-08
-2.00123e-08
-6.00407e-08
-1.98682e-08
-4.03757e-08
-1.9665e-08
-2.09714e-08
-1.94043e-08
-1.84379e-09
-1.91277e-08
1.70167e-08
-1.88605e-08
3.55819e-08
-1.85652e-08
5.38117e-08
-1.82298e-08
7.16823e-08
-1.78705e-08
8.91758e-08
-1.74936e-08
1.06279e-07
-1.71033e-08
1.22982e-07
-1.67027e-08
1.39276e-07
-1.62946e-08
1.55158e-07
-1.58813e-08
1.70622e-07
-1.54649e-08
1.8567e-07
-1.50473e-08
2.003e-07
-1.46302e-08
2.14515e-07
-1.42148e-08
2.28317e-07
-1.38023e-08
2.41711e-07
-1.33935e-08
2.547e-07
-1.29889e-08
2.67288e-07
-1.25887e-08
2.79482e-07
-1.21932e-08
2.91284e-07
-1.1802e-08
3.02698e-07
-1.14148e-08
3.13729e-07
-1.10311e-08
3.24379e-07
-1.065e-08
3.3465e-07
-1.02707e-08
3.44542e-07
-9.89228e-09
3.54056e-07
-9.51362e-09
3.6319e-07
-9.13364e-09
3.71941e-07
-8.75128e-09
3.80306e-07
-8.36549e-09
3.88282e-07
-7.97534e-09
3.95862e-07
-7.58002e-09
4.03041e-07
-7.17891e-09
4.09812e-07
-6.77162e-09
4.1617e-07
-6.35801e-09
4.22109e-07
-5.93828e-09
4.27621e-07
-5.5129e-09
4.32704e-07
-5.08277e-09
4.37353e-07
-4.64909e-09
4.41567e-07
-4.21344e-09
4.45344e-07
-3.7777e-09
4.48689e-07
-3.34407e-09
4.51603e-07
-2.91492e-09
4.54096e-07
-2.49262e-09
4.56175e-07
-2.07873e-09
4.57847e-07
-1.67201e-09
4.59111e-07
-1.26435e-09
4.59948e-07
-8.36573e-10
4.60324e-07
-3.76124e-10
4.60262e-07
6.18883e-11
4.59855e-07
4.06658e-10
4.59194e-07
6.61522e-10
4.58336e-07
8.57682e-10
4.57323e-07
1.01302e-09
4.56186e-07
1.13688e-09
4.54951e-07
1.23495e-09
4.5364e-07
1.31089e-09
4.52273e-07
1.3675e-09
4.50866e-07
1.40719e-09
4.49434e-07
1.43219e-09
4.47989e-07
1.44459e-09
4.46543e-07
1.44633e-09
4.45103e-07
1.4392e-09
4.43679e-07
1.42485e-09
4.42274e-07
1.40478e-09
4.40893e-07
1.38032e-09
4.39541e-07
1.35265e-09
4.38218e-07
1.32281e-09
4.36926e-07
1.29172e-09
4.35666e-07
1.26017e-09
4.34437e-07
1.22884e-09
4.33239e-07
1.19835e-09
4.3207e-07
1.16922e-09
4.30928e-07
1.14195e-09
4.29811e-07
1.11695e-09
4.28716e-07
1.09468e-09
4.27641e-07
1.07556e-09
4.2658e-07
1.06012e-09
4.25532e-07
1.04891e-09
4.24489e-07
1.04266e-09
4.23447e-07
1.04227e-09
4.22398e-07
1.04897e-09
4.21333e-07
1.06438e-09
4.20243e-07
1.09071e-09
4.19111e-07
1.13111e-09
4.17921e-07
1.19001e-09
4.16648e-07
1.27388e-09
4.15255e-07
1.3924e-09
4.13695e-07
1.56056e-09
4.11892e-07
1.80273e-09
4.09732e-07
2.16009e-09
4.07022e-07
2.70968e-09
4.03429e-07
3.59324e-09
3.98272e-07
5.15675e-09
3.90335e-07
7.93689e-09
3.76015e-07
1.432e-08
2.38143e-08
3.52201e-07
3.25339e-09
-2.14045e-08
-2.59196e-09
-7.05685e-09
-1.14592e-08
3.64678e-09
-2.19417e-08
1.23395e-08
-3.40507e-08
1.94451e-08
-4.83193e-08
2.49655e-08
-6.5062e-08
2.91424e-08
-8.4016e-08
3.24883e-08
-1.04596e-07
3.53893e-08
-1.26301e-07
3.79518e-08
-1.4869e-07
4.01311e-08
-1.71363e-07
4.18465e-08
-1.93956e-07
4.30343e-08
-2.16151e-07
4.36668e-08
-2.37684e-07
4.37534e-08
-2.58349e-07
4.33348e-08
-2.78001e-07
4.24742e-08
-2.96547e-07
4.12479e-08
-3.13944e-07
3.97367e-08
-3.30189e-07
3.80194e-08
-3.45307e-07
3.61678e-08
-3.59345e-07
3.42435e-08
-3.72364e-07
3.22971e-08
-3.84429e-07
3.03674e-08
-3.95609e-07
2.8483e-08
-4.0597e-07
2.66626e-08
-4.1557e-07
2.49175e-08
-4.24465e-07
2.32523e-08
-4.32702e-07
2.16672e-08
-4.40321e-07
2.01584e-08
-4.47355e-07
1.87199e-08
-4.53833e-07
1.7344e-08
-4.59777e-07
1.60221e-08
-4.65203e-07
1.47451e-08
-4.70126e-07
1.35039e-08
-4.74554e-07
1.22896e-08
-4.78497e-07
1.10938e-08
-4.81959e-07
9.90861e-09
-4.84946e-07
8.72698e-09
-4.87461e-07
7.54266e-09
-4.89508e-07
6.35044e-09
-4.91093e-07
5.14628e-09
-4.92224e-07
3.92786e-09
-4.92911e-07
2.69513e-09
-4.93167e-07
1.45064e-09
-4.92991e-07
1.95493e-10
-4.92319e-07
-1.08315e-09
-4.91065e-07
-2.40036e-09
-4.89171e-07
-3.75894e-09
-4.86598e-07
-5.15899e-09
-4.8332e-07
-6.60081e-09
-4.79311e-07
-8.08399e-09
-4.7455e-07
-9.60703e-09
-4.69019e-07
-1.11672e-08
-4.62701e-07
-1.27607e-08
-4.55581e-07
-1.43824e-08
-4.47649e-07
-1.60262e-08
-4.38897e-07
-1.76851e-08
-4.29321e-07
-1.93508e-08
-4.18924e-07
-2.10144e-08
-4.0771e-07
-2.26662e-08
-3.9569e-07
-2.42961e-08
-3.8288e-07
-2.58933e-08
-3.69302e-07
-2.74471e-08
-3.54982e-07
-2.89468e-08
-3.39953e-07
-3.03816e-08
-3.2425e-07
-3.17417e-08
-3.07915e-07
-3.30176e-08
-2.90994e-07
-3.42007e-08
-2.73535e-07
-3.52836e-08
-2.55592e-07
-3.62599e-08
-2.3722e-07
-3.71246e-08
-2.18474e-07
-3.78739e-08
-1.99413e-07
-3.85056e-08
-1.80095e-07
-3.90186e-08
-1.60579e-07
-3.94133e-08
-1.40921e-07
-3.96912e-08
-1.21179e-07
-3.98547e-08
-1.01406e-07
-3.99074e-08
-8.16532e-08
-3.98532e-08
-6.19694e-08
-3.96961e-08
-4.23974e-08
-3.94402e-08
-2.29726e-08
-3.90898e-08
-3.72129e-09
-3.86556e-08
1.53077e-08
-3.81566e-08
3.40514e-08
-3.76042e-08
5.24843e-08
-3.69981e-08
7.05964e-08
-3.63419e-08
8.83701e-08
-3.56443e-08
1.05789e-07
-3.49128e-08
1.2284e-07
-3.41538e-08
1.3951e-07
-3.33732e-08
1.55792e-07
-3.25762e-08
1.71678e-07
-3.17675e-08
1.87165e-07
-3.09514e-08
2.02249e-07
-3.01318e-08
2.16931e-07
-2.93119e-08
2.31211e-07
-2.84946e-08
2.4509e-07
-2.7682e-08
2.58573e-07
-2.68758e-08
2.71661e-07
-2.60774e-08
2.8436e-07
-2.52874e-08
2.96673e-07
-2.45061e-08
3.08604e-07
-2.37332e-08
3.20157e-07
-2.29682e-08
3.31336e-07
-2.22101e-08
3.42144e-07
-2.14576e-08
3.52582e-07
-2.07091e-08
3.62653e-07
-1.99629e-08
3.72356e-07
-1.92169e-08
3.81692e-07
-1.84692e-08
3.90658e-07
-1.77178e-08
3.99254e-07
-1.69607e-08
4.07474e-07
-1.61961e-08
4.15317e-07
-1.54225e-08
4.22776e-07
-1.46385e-08
4.29848e-07
-1.38433e-08
4.36527e-07
-1.30366e-08
4.42807e-07
-1.22186e-08
4.48684e-07
-1.13899e-08
4.54153e-07
-1.05521e-08
4.59211e-07
-9.70708e-09
4.63856e-07
-8.85763e-09
4.68085e-07
-8.00702e-09
4.719e-07
-7.15907e-09
4.75303e-07
-6.31797e-09
4.78298e-07
-5.48793e-09
4.80892e-07
-4.67242e-09
4.83093e-07
-3.87293e-09
4.84917e-07
-3.08817e-09
4.86397e-07
-2.31725e-09
4.87592e-07
-1.57034e-09
4.88521e-07
-8.67806e-10
4.89159e-07
-2.3068e-10
4.89491e-07
3.28757e-10
4.89536e-07
8.125e-10
4.89321e-07
1.22841e-09
4.88874e-07
1.58352e-09
4.88226e-07
1.88372e-09
4.87403e-07
2.13397e-09
4.86431e-07
2.33868e-09
4.85337e-07
2.502e-09
4.84141e-07
2.62803e-09
4.82865e-07
2.72077e-09
4.81527e-07
2.78416e-09
4.80144e-07
2.822e-09
4.78731e-07
2.83794e-09
4.773e-07
2.8354e-09
4.75863e-07
2.81762e-09
4.74428e-07
2.78753e-09
4.73003e-07
2.74782e-09
4.71594e-07
2.70093e-09
4.70205e-07
2.64901e-09
4.6884e-07
2.59401e-09
4.67501e-07
2.5376e-09
4.66189e-07
2.48132e-09
4.64904e-07
2.42648e-09
4.63647e-07
2.37431e-09
4.62415e-07
2.32591e-09
4.61209e-07
2.28239e-09
4.60024e-07
2.24482e-09
4.58858e-07
2.21439e-09
4.57709e-07
2.19246e-09
4.5657e-07
2.18066e-09
4.55438e-07
2.18106e-09
4.54306e-07
2.19638e-09
4.53167e-07
2.23024e-09
4.5201e-07
2.28765e-09
4.50824e-07
2.37561e-09
4.49594e-07
2.50418e-09
4.48298e-07
2.68813e-09
4.46909e-07
2.9498e-09
4.45387e-07
3.32453e-09
4.43678e-07
3.86976e-09
4.41699e-07
4.68865e-09
4.39333e-07
5.95881e-09
4.36395e-07
8.09536e-09
4.32615e-07
1.1716e-08
4.27589e-07
1.93462e-08
3.30232e-08
4.1838e-07
-1.38314e-08
-7.57304e-09
-2.84871e-08
7.59884e-09
-4.31949e-08
1.83546e-08
-5.82076e-08
2.73522e-08
-7.37815e-08
3.50189e-08
-9.02417e-08
4.14258e-08
-1.07777e-07
4.66779e-08
-1.26241e-07
5.0952e-08
-1.45246e-07
5.43943e-08
-1.64363e-07
5.70693e-08
-1.83219e-07
5.89872e-08
-2.01523e-07
6.01499e-08
-2.19069e-07
6.05802e-08
-2.35732e-07
6.03302e-08
-2.51456e-07
5.94775e-08
-2.66238e-07
5.81162e-08
-2.80111e-07
5.63475e-08
-2.93134e-07
5.42712e-08
-3.05377e-07
5.19798e-08
-3.16912e-07
4.95541e-08
-3.27807e-07
4.70622e-08
-3.38121e-07
4.45581e-08
-3.47907e-07
4.20831e-08
-3.57206e-07
3.96666e-08
-3.66051e-07
3.73281e-08
-3.74468e-07
3.50789e-08
-3.82474e-07
3.29237e-08
-3.90084e-07
3.08621e-08
-3.97306e-07
2.88899e-08
-4.04148e-07
2.70004e-08
-4.10613e-07
2.51849e-08
-4.16703e-07
2.34337e-08
-4.22417e-07
2.17364e-08
-4.27755e-07
2.00824e-08
-4.32712e-07
1.84615e-08
-4.37286e-07
1.68633e-08
-4.41471e-07
1.52783e-08
-4.45259e-07
1.36973e-08
-4.48644e-07
1.2112e-08
-4.51616e-07
1.05146e-08
-4.54164e-07
8.89828e-09
-4.56275e-07
7.25678e-09
-4.57931e-07
5.58457e-09
-4.59113e-07
3.87668e-09
-4.5979e-07
2.12775e-09
-4.59925e-07
3.30304e-10
-4.59482e-07
-1.52591e-09
-4.58434e-07
-3.44812e-09
-4.56755e-07
-5.43826e-09
-4.54417e-07
-7.49641e-09
-4.51397e-07
-9.62154e-09
-4.47669e-07
-1.18116e-08
-4.43213e-07
-1.40633e-08
-4.38008e-07
-1.63719e-08
-4.32038e-07
-1.87313e-08
-4.25286e-07
-2.11339e-08
-4.17742e-07
-2.35702e-08
-4.09398e-07
-2.60296e-08
-4.00248e-07
-2.84999e-08
-3.90295e-07
-3.09679e-08
-3.79542e-07
-3.3419e-08
-3.68e-07
-3.58381e-08
-3.55684e-07
-3.82093e-08
-3.42615e-07
-4.05165e-08
-3.28818e-07
-4.27438e-08
-3.14324e-07
-4.48755e-08
-2.99169e-07
-4.68966e-08
-2.83393e-07
-4.87932e-08
-2.67042e-07
-5.05527e-08
-2.50161e-07
-5.21639e-08
-2.32804e-07
-5.36175e-08
-2.15022e-07
-5.4906e-08
-1.96872e-07
-5.60239e-08
-1.7841e-07
-5.69679e-08
-1.59692e-07
-5.77364e-08
-1.40776e-07
-5.833e-08
-1.21716e-07
-5.8751e-08
-1.02567e-07
-5.90034e-08
-8.33817e-08
-5.90928e-08
-6.42091e-08
-5.90258e-08
-4.50952e-08
-5.881e-08
-2.60811e-08
-5.84543e-08
-7.20178e-09
-5.79691e-08
1.15073e-08
-5.73647e-08
3.00048e-08
-5.66542e-08
4.82522e-08
-5.58516e-08
6.62211e-08
-5.4967e-08
8.38898e-08
-5.40106e-08
1.01238e-07
-5.29929e-08
1.18249e-07
-5.19237e-08
1.34908e-07
-5.08124e-08
1.51202e-07
-4.96675e-08
1.67123e-07
-4.84969e-08
1.82663e-07
-4.73076e-08
1.97818e-07
-4.61063e-08
2.12585e-07
-4.48986e-08
2.26962e-07
-4.36894e-08
2.40951e-07
-4.24831e-08
2.54552e-07
-4.12829e-08
2.67768e-07
-4.00917e-08
2.80601e-07
-3.89112e-08
2.93057e-07
-3.77428e-08
3.05137e-07
-3.65869e-08
3.16848e-07
-3.54434e-08
3.28191e-07
-3.43116e-08
3.39171e-07
-3.31902e-08
3.49791e-07
-3.20775e-08
3.60053e-07
-3.09713e-08
3.69959e-07
-2.98691e-08
3.79511e-07
-2.87683e-08
3.88708e-07
-2.7666e-08
3.97549e-07
-2.65594e-08
4.06034e-07
-2.54455e-08
4.1416e-07
-2.4322e-08
4.21924e-07
-2.31864e-08
4.29322e-07
-2.20369e-08
4.36351e-07
-2.08723e-08
4.43006e-07
-1.96918e-08
4.49283e-07
-1.84956e-08
4.55178e-07
-1.72845e-08
4.60686e-07
-1.60604e-08
4.65805e-07
-1.48258e-08
4.70532e-07
-1.35845e-08
4.74865e-07
-1.23407e-08
4.78806e-07
-1.10997e-08
4.82355e-07
-9.86722e-09
4.85516e-07
-8.64919e-09
4.88295e-07
-7.45129e-09
4.90701e-07
-6.27836e-09
4.92747e-07
-5.13476e-09
4.94457e-07
-4.02712e-09
4.95854e-07
-2.96715e-09
4.96954e-07
-1.96786e-09
4.97765e-07
-1.04126e-09
4.98291e-07
-1.97385e-10
4.98544e-07
5.59634e-10
4.98541e-07
1.2306e-09
4.98306e-07
1.81879e-09
4.97862e-07
2.32835e-09
4.97232e-07
2.76384e-09
4.9644e-07
3.13002e-09
4.9551e-07
3.43191e-09
4.94464e-07
3.67473e-09
4.93321e-07
3.86387e-09
4.921e-07
4.00485e-09
4.90819e-07
4.10312e-09
4.89493e-07
4.16407e-09
4.88135e-07
4.19293e-09
4.86758e-07
4.19464e-09
4.85372e-07
4.17386e-09
4.83985e-07
4.13489e-09
4.82604e-07
4.08169e-09
4.81235e-07
4.01782e-09
4.79883e-07
3.94651e-09
4.7855e-07
3.87062e-09
4.77238e-07
3.79272e-09
4.7595e-07
3.71509e-09
4.74684e-07
3.63979e-09
4.73441e-07
3.56871e-09
4.7222e-07
3.50365e-09
4.71019e-07
3.44638e-09
4.69834e-07
3.39875e-09
4.68664e-07
3.36284e-09
4.67503e-07
3.34106e-09
4.66348e-07
3.33642e-09
4.65192e-07
3.35275e-09
4.64027e-07
3.39518e-09
4.62844e-07
3.47062e-09
4.61631e-07
3.58869e-09
4.60372e-07
3.76308e-09
4.59046e-07
4.01364e-09
4.57626e-07
4.37001e-09
4.56073e-07
4.87805e-09
4.54332e-07
5.61079e-09
4.52327e-07
6.69337e-09
4.49949e-07
8.33626e-09
4.47068e-07
1.09762e-08
4.43494e-07
1.52901e-08
4.3956e-07
2.32808e-08
3.70155e-08
4.35568e-07
-2.08258e-08
1.32528e-08
-3.98055e-08
2.65785e-08
-5.76186e-08
3.61677e-08
-7.47173e-08
4.44508e-08
-9.14317e-08
5.17334e-08
-1.07993e-07
5.79868e-08
-1.24488e-07
6.31727e-08
-1.40838e-07
6.73021e-08
-1.56861e-07
7.04171e-08
-1.72359e-07
7.25677e-08
-1.8718e-07
7.38082e-08
-2.01236e-07
7.42064e-08
-2.14504e-07
7.38476e-08
-2.27007e-07
7.28332e-08
-2.38803e-07
7.12735e-08
-2.49966e-07
6.92798e-08
-2.60577e-07
6.69579e-08
-2.70709e-07
6.4403e-08
-2.80426e-07
6.16976e-08
-2.89782e-07
5.89102e-08
-2.98816e-07
5.60958e-08
-3.07554e-07
5.32966e-08
-3.16015e-07
5.05438e-08
-3.24208e-07
4.7859e-08
-3.32135e-07
4.52557e-08
-3.39797e-07
4.2741e-08
-3.4719e-07
4.03168e-08
-3.54309e-07
3.79808e-08
-3.61147e-07
3.57279e-08
-3.67697e-07
3.35505e-08
-3.73952e-07
3.14397e-08
-3.79904e-07
2.93853e-08
-3.85544e-07
2.73766e-08
-3.90864e-07
2.54026e-08
-3.95855e-07
2.3452e-08
-4.00505e-07
2.15139e-08
-4.04804e-07
1.95775e-08
-4.0874e-07
1.76325e-08
-4.12296e-07
1.56688e-08
-4.15459e-07
1.36771e-08
-4.18209e-07
1.16484e-08
-4.20526e-07
9.57415e-09
-4.22388e-07
7.44634e-09
-4.23769e-07
5.25726e-09
-4.2464e-07
2.99923e-09
-4.24974e-07
6.64344e-10
-4.24745e-07
-1.75497e-09
-4.23929e-07
-4.26399e-09
-4.22502e-07
-6.86537e-09
-4.20439e-07
-9.55961e-09
-4.17715e-07
-1.23455e-08
-4.14307e-07
-1.52202e-08
-4.10191e-07
-1.81791e-08
-4.05347e-07
-2.12158e-08
-3.99756e-07
-2.43219e-08
-3.93403e-07
-2.74871e-08
-3.86274e-07
-3.06988e-08
-3.78361e-07
-3.39427e-08
-3.69659e-07
-3.72027e-08
-3.60166e-07
-4.04607e-08
-3.49887e-07
-4.36976e-08
-3.38832e-07
-4.6893e-08
-3.27016e-07
-5.00258e-08
-3.14458e-07
-5.30746e-08
-3.01183e-07
-5.6018e-08
-2.87223e-07
-5.88353e-08
-2.72614e-07
-6.15066e-08
-2.57393e-07
-6.40134e-08
-2.41607e-07
-6.6339e-08
-2.25302e-07
-6.84687e-08
-2.08529e-07
-7.03904e-08
-1.91341e-07
-7.20941e-08
-1.73792e-07
-7.35729e-08
-1.55938e-07
-7.48224e-08
-1.37833e-07
-7.58408e-08
-1.19534e-07
-7.66291e-08
-1.01094e-07
-7.71907e-08
-8.25668e-08
-7.75311e-08
-6.40018e-08
-7.76579e-08
-4.5447e-08
-7.75805e-08
-2.69471e-08
-7.73099e-08
-8.54271e-09
-7.68587e-08
9.72758e-09
-7.62394e-08
2.78284e-08
-7.54655e-08
4.57267e-08
-7.45525e-08
6.33908e-08
-7.35157e-08
8.07933e-08
-7.23694e-08
9.79102e-08
-7.11275e-08
1.14721e-07
-6.98036e-08
1.31208e-07
-6.84108e-08
1.47357e-07
-6.69612e-08
1.63156e-07
-6.54662e-08
1.78595e-07
-6.39363e-08
1.93668e-07
-6.23809e-08
2.08371e-07
-6.08087e-08
2.22699e-07
-5.92271e-08
2.36653e-07
-5.76429e-08
2.50231e-07
-5.60615e-08
2.63436e-07
-5.44876e-08
2.76269e-07
-5.29248e-08
2.88733e-07
-5.13757e-08
3.00833e-07
-4.9842e-08
3.1257e-07
-4.83246e-08
3.2395e-07
-4.68234e-08
3.34976e-07
-4.53376e-08
3.45652e-07
-4.38658e-08
3.5598e-07
-4.24058e-08
3.65964e-07
-4.0955e-08
3.75605e-07
-3.95103e-08
3.84905e-07
-3.80683e-08
3.93865e-07
-3.66254e-08
4.02483e-07
-3.5178e-08
4.1076e-07
-3.37225e-08
4.18694e-07
-3.22557e-08
4.26282e-07
-3.07745e-08
4.33522e-07
-2.92765e-08
4.40409e-07
-2.776e-08
4.46942e-07
-2.6224e-08
4.53115e-07
-2.46686e-08
4.58925e-07
-2.30945e-08
4.64368e-07
-2.1504e-08
4.69443e-07
-1.99001e-08
4.74145e-07
-1.82872e-08
4.78475e-07
-1.66706e-08
4.82432e-07
-1.50566e-08