/*--------------------------------*- C++ -*----------------------------------*\
  =========                 |
  \\      /  F ield         | OpenFOAM: The Open Source CFD Toolbox
   \\    /   O peration     | Website:  https://openfoam.org
    \\  /    A nd           | Version:  6
     \\/     M anipulation  |
\*---------------------------------------------------------------------------*/
FoamFile
{
    version     2.0;
    format      ascii;
    class       volVectorField;
    location    "0.18";
    object      U;
}
// * * * * * * * * * * * * * * * * * * * * * * * * * * * * * * * * * * * * * //

dimensions      [0 1 -1 0 0 0 0];

internalField   nonuniform List<vector> 
12225
(
(0.948757 -0.405569 0)
(1.0127 -0.19067 0)
(1.01474 -0.0513929 0)
(0.983377 -0.00514152 0)
(0.955322 0.0045249 0)
(0.936886 0.00423832 0)
(0.92463 0.00259881 0)
(0.915914 0.00150304 0)
(0.909375 0.000962272 0)
(0.904154 0.000713067 0)
(0.89973 0.000592317 0)
(0.89583 0.000531524 0)
(0.892294 0.000503094 0)
(0.889027 0.000497899 0)
(0.885864 0.000502686 0)
(0.883059 0.000540336 0)
(0.879272 0.000538263 0)
(0.880983 -4.05168e-05 0)
(1.03699 0.0761209 0)
(1.02001 0.0533189 0)
(1.01136 0.0193981 0)
(1.00433 0.00901666 0)
(0.997967 0.00672709 0)
(0.991204 0.00529402 0)
(0.984019 0.0040456 0)
(0.977444 0.00319539 0)
(0.971973 0.0026642 0)
(0.967453 0.00231154 0)
(0.963607 0.0020682 0)
(0.960247 0.00190525 0)
(0.957244 0.00180238 0)
(0.954507 0.00175024 0)
(0.951906 0.00172497 0)
(0.949537 0.00179278 0)
(0.946783 0.00157255 0)
(0.944907 0.00223701 0)
(0.998333 0.0132121 0)
(0.995363 0.0119552 0)
(1.00082 0.00640784 0)
(1.00192 0.00652404 0)
(1.00123 0.00702581 0)
(0.999308 0.00634277 0)
(0.995963 0.005288 0)
(0.992084 0.00441612 0)
(0.988394 0.00378429 0)
(0.985075 0.00332588 0)
(0.982094 0.00299814 0)
(0.979396 0.00277456 0)
(0.976921 0.00263235 0)
(0.974616 0.00256047 0)
(0.972398 0.00253974 0)
(0.970283 0.00261335 0)
(0.967987 0.00259504 0)
(0.965731 0.00293066 0)
(0.995105 -0.00695086 0)
(0.992486 0.00125468 0)
(0.998598 0.00394127 0)
(1.00082 0.00595893 0)
(1.00161 0.00705888 0)
(1.00158 0.00682376 0)
(1.00023 0.00605458 0)
(0.998083 0.00530631 0)
(0.995716 0.00469854 0)
(0.993377 0.00422248 0)
(0.991136 0.00386607 0)
(0.989014 0.00361645 0)
(0.987001 0.00345805 0)
(0.985075 0.00338362 0)
(0.983187 0.0033818 0)
(0.981328 0.00348675 0)
(0.979342 0.00360779 0)
(0.977236 0.00405049 0)
(0.996671 -0.00693956 0)
(0.99382 0.000830991 0)
(0.998052 0.00375965 0)
(1.00006 0.0055638 0)
(1.00134 0.00678789 0)
(1.00216 0.00689659 0)
(1.00195 0.00643452 0)
(1.00093 0.00587703 0)
(0.999539 0.00536648 0)
(0.997991 0.00493418 0)
(0.996385 0.00459513 0)
(0.994778 0.00435271 0)
(0.99319 0.00420222 0)
(0.991622 0.00414305 0)
(0.990048 0.00417316 0)
(0.988458 0.00432377 0)
(0.986772 0.00456814 0)
(0.984945 0.00511564 0)
(0.997828 -0.00414727 0)
(0.995153 0.00128404 0)
(0.997865 0.0034943 0)
(0.999562 0.00507488 0)
(1.00097 0.00634774 0)
(1.00217 0.00670963 0)
(1.00259 0.00652055 0)
(1.00231 0.00616626 0)
(1.00163 0.00578813 0)
(1.0007 0.00543959 0)
(0.999631 0.00515403 0)
(0.998478 0.00494848 0)
(0.997279 0.0048291 0)
(0.996048 0.00480273 0)
(0.99478 0.00487635 0)
(0.993469 0.00508046 0)
(0.992082 0.00542446 0)
(0.99058 0.00604596 0)
(0.998451 -0.00256793 0)
(0.996207 0.0011886 0)
(0.99794 0.00306863 0)
(0.999335 0.0045687 0)
(1.0007 0.00584426 0)
(1.002 0.00637716 0)
(1.00275 0.00640866 0)
(1.00295 0.00624113 0)
(1.00276 0.00600356 0)
(1.00231 0.0057584 0)
(1.00168 0.00554888 0)
(1.00091 0.00540137 0)
(1.00006 0.00533084 0)
(0.999147 0.00535081 0)
(0.998172 0.0054754 0)
(0.997141 0.00573458 0)
(0.996053 0.0061542 0)
(0.994884 0.00682291 0)
(0.998884 -0.00172462 0)
(0.997112 0.00100438 0)
(0.998207 0.0026999 0)
(0.99932 0.00410975 0)
(1.00054 0.00533375 0)
(1.0018 0.0059685 0)
(1.00271 0.0061671 0)
(1.00319 0.00615829 0)
(1.00335 0.00605382 0)
(1.00325 0.0059168 0)
(1.00296 0.0057939 0)
(1.00252 0.00571665 0)
(1.00198 0.00570606 0)
(1.00135 0.00578052 0)
(1.00065 0.0059588 0)
(0.999892 0.00626947 0)
(0.999093 0.00674262 0)
(0.998247 0.00743399 0)
(0.999233 -0.00110776 0)
(0.997895 0.000928475 0)
(0.998567 0.00242875 0)
(0.999439 0.0037094 0)
(1.00049 0.00484386 0)
(1.00165 0.00552602 0)
(1.00259 0.00584257 0)
(1.00323 0.00596058 0)
(1.00361 0.00597312 0)
(1.00377 0.00593898 0)
(1.00375 0.00590391 0)
(1.00358 0.00590121 0)
(1.0033 0.00595513 0)
(1.00292 0.00608676 0)
(1.00248 0.00631693 0)
(1.00198 0.00667161 0)
(1.00145 0.00717839 0)
(1.0009 0.00787057 0)
(0.999502 -0.000618051 0)
(0.99854 0.000926624 0)
(0.99895 0.00222469 0)
(0.999634 0.00336136 0)
(1.00053 0.00438745 0)
(1.00156 0.00507601 0)
(1.00248 0.00546779 0)
(1.00319 0.00568076 0)
(1.00371 0.00578987 0)
(1.00405 0.00584687 0)
(1.00422 0.00589393 0)
(1.00427 0.0059635 0)
(1.0042 0.00608064 0)
(1.00405 0.00626705 0)
(1.00383 0.00654336 0)
(1.00356 0.00693187 0)
(1.00328 0.00745464 0)
(1.00301 0.00812973 0)
(0.999692 -0.000260547 0)
(0.999046 0.000944168 0)
(0.999311 0.00205852 0)
(0.99986 0.0030555 0)
(1.00062 0.00396774 0)
(1.00152 0.00463335 0)
(1.00239 0.00506512 0)
(1.00313 0.00534359 0)
(1.00372 0.00552731 0)
(1.00418 0.00565998 0)
(1.0045 0.00577862 0)
(1.00471 0.0059131 0)
(1.00482 0.00608731 0)
(1.00485 0.00632184 0)
(1.00483 0.00663541 0)
(1.00478 0.00704599 0)
(1.00472 0.00756935 0)
(1.00467 0.00821341 0)
(0.99981 -3.97468e-05 0)
(0.999394 0.000953064 0)
(0.999599 0.00192169 0)
(1.00007 0.00280133 0)
(1.00073 0.00361217 0)
(1.00153 0.0042395 0)
(1.00234 0.00468312 0)
(1.00307 0.00499858 0)
(1.0037 0.00523139 0)
(1.00422 0.00541792 0)
(1.00464 0.00558995 0)
(1.00496 0.00577394 0)
(1.00521 0.00599153 0)
(1.00539 0.00626113 0)
(1.00552 0.00659873 0)
(1.00563 0.00701819 0)
(1.00575 0.00752998 0)
(1.00588 0.0081358 0)
(0.99989 0.000104072 0)
(0.999654 0.00094818 0)
(0.99984 0.00179016 0)
(1.00026 0.00256351 0)
(1.00085 0.00327927 0)
(1.00157 0.00385947 0)
(1.00232 0.00429861 0)
(1.00303 0.00463404 0)
(1.00367 0.00490031 0)
(1.00424 0.00512691 0)
(1.00473 0.00534043 0)
(1.00514 0.00556348 0)
(1.00549 0.00581482 0)
(1.00579 0.00611007 0)
(1.00606 0.00646214 0)
(1.00631 0.00688101 0)
(1.00657 0.00737268 0)
(1.00686 0.00793462 0)
(0.999948 0.000194934 0)
(0.999859 0.000915539 0)
(1.00005 0.00163669 0)
(1.00044 0.00230218 0)
(1.00098 0.00291789 0)
(1.00163 0.0034379 0)
(1.00232 0.00385577 0)
(1.003 0.00419518 0)
(1.00365 0.00448115 0)
(1.00425 0.0047363 0)
(1.00479 0.00498149 0)
(1.00528 0.0052348 0)
(1.00573 0.00551119 0)
(1.00614 0.00582279 0)
(1.00653 0.00617884 0)
(1.00692 0.0065854 0)
(1.00731 0.00704447 0)
(1.00774 0.00755096 0)
(0.999984 0.000233014 0)
(1 0.000841851 0)
(1.00022 0.00144553 0)
(1.0006 0.00200319 0)
(1.0011 0.00251736 0)
(1.0017 0.00296653 0)
(1.00234 0.00334664 0)
(1.003 0.00367216 0)
(1.00365 0.0039605 0)
(1.00427 0.00422798 0)
(1.00485 0.00448972 0)
(1.00541 0.00475887 0)
(1.00594 0.00504613 0)
(1.00644 0.00535966 0)
(1.00694 0.0057049 0)
(1.00744 0.00608435 0)
(1.00795 0.00649695 0)
(1.00849 0.00693639 0)
(1 0.000223779 0)
(1.00009 0.000718003 0)
(1.00033 0.0012004 0)
(1.00071 0.00164693 0)
(1.0012 0.00205824 0)
(1.00177 0.00242759 0)
(1.00238 0.00275446 0)
(1.00302 0.0030478 0)
(1.00367 0.00331911 0)
(1.0043 0.00357928 0)
(1.00492 0.00383816 0)
(1.00553 0.00410406 0)
(1.00612 0.00438338 0)
(1.00671 0.00468038 0)
(1.00729 0.00499711 0)
(1.00788 0.00533319 0)
(1.00849 0.00568565 0)
(1.00911 0.00604798 0)
(1.00001 0.000176948 0)
(1.00013 0.000539192 0)
(1.00039 0.000887402 0)
(1.00078 0.00121163 0)
(1.00126 0.00151302 0)
(1.00182 0.00179173 0)
(1.00243 0.00204959 0)
(1.00306 0.00229216 0)
(1.00371 0.0025262 0)
(1.00437 0.0027579 0)
(1.00502 0.00299246 0)
(1.00567 0.00323384 0)
(1.00631 0.00348455 0)
(1.00695 0.00374554 0)
(1.0076 0.00401618 0)
(1.00825 0.00429421 0)
(1.00891 0.00457575 0)
(1.00958 0.00485483 0)
(1.00001 0.000102382 0)
(1.00014 0.000304442 0)
(1.00041 0.000495042 0)
(1.0008 0.000675005 0)
(1.00129 0.000848653 0)
(1.00185 0.00101896 0)
(1.00247 0.00118837 0)
(1.00311 0.00135974 0)
(1.00378 0.00153568 0)
(1.00446 0.00171799 0)
(1.00514 0.00190768 0)
(1.00582 0.00210489 0)
(1.0065 0.00230889 0)
(1.00718 0.00251803 0)
(1.00786 0.00272981 0)
(1.00854 0.00294095 0)
(1.00923 0.00314738 0)
(1.00992 0.00334397 0)
(1.00001 8.32785e-06 0)
(1.00014 1.48493e-05 0)
(1.0004 1.11456e-05 0)
(1.00079 1.16366e-05 0)
(1.00129 2.64307e-05 0)
(1.00186 6.0029e-05 0)
(1.00249 0.000114898 0)
(1.00316 0.000191415 0)
(1.00386 0.000287933 0)
(1.00456 0.000401771 0)
(1.00527 0.000529858 0)
(1.00598 0.000668876 0)
(1.00669 0.0008153 0)
(1.00738 0.00096544 0)
(1.00808 0.0011155 0)
(1.00876 0.00126162 0)
(1.00944 0.00139986 0)
(1.01011 0.00152593 0)
(1.00001 -6.20613e-05 0)
(1.00008 -0.00023306 0)
(1.0003 -0.000434925 0)
(1.00068 -0.000621758 0)
(1.00119 -0.000775445 0)
(1.00179 -0.000888787 0)
(1.00246 -0.000955901 0)
(1.00317 -0.00097745 0)
(1.00391 -0.0009595 0)
(1.00465 -0.00090941 0)
(1.00539 -0.000834246 0)
(1.00612 -0.000740668 0)
(1.00683 -0.000634863 0)
(1.00753 -0.000522436 0)
(1.00821 -0.000408411 0)
(1.00887 -0.000297284 0)
(1.00952 -0.000193105 0)
(1.01015 -9.98261e-05 0)
(0.999981 -5.8893e-05 0)
(0.999931 -0.000360675 0)
(1.00007 -0.00075382 0)
(1.00044 -0.00111885 0)
(1.00096 -0.00143499 0)
(1.00161 -0.00168914 0)
(1.00235 -0.00186571 0)
(1.00313 -0.00196693 0)
(1.00393 -0.00200571 0)
(1.00471 -0.00199529 0)
(1.00548 -0.00194731 0)
(1.00622 -0.00187229 0)
(1.00694 -0.00177941 0)
(1.00762 -0.00167641 0)
(1.00827 -0.00156967 0)
(1.00889 -0.00146449 0)
(1.00949 -0.00136524 0)
(1.01006 -0.00127585 0)
(0.999912 7.11263e-05 0)
(0.999591 -0.000352456 0)
(0.99962 -0.000981358 0)
(0.999997 -0.00155262 0)
(1.00059 -0.00206038 0)
(1.00135 -0.0024717 0)
(1.00221 -0.00275305 0)
(1.00309 -0.00291577 0)
(1.00396 -0.00298683 0)
(1.00479 -0.00298867 0)
(1.00558 -0.00293957 0)
(1.00631 -0.00285538 0)
(1.00699 -0.00274915 0)
(1.00762 -0.00263099 0)
(1.00821 -0.00250871 0)
(1.00876 -0.0023883 0)
(1.00927 -0.00227434 0)
(1.00975 -0.00217065 0)
(0.999764 0.000385821 0)
(0.998954 -0.000227019 0)
(0.998883 -0.00116084 0)
(0.999363 -0.00197135 0)
(1.00011 -0.00271248 0)
(1.00107 -0.00329311 0)
(1.00211 -0.003656 0)
(1.00312 -0.00384175 0)
(1.00406 -0.00390351 0)
(1.00491 -0.00387706 0)
(1.00566 -0.0037896 0)
(1.00633 -0.00366371 0)
(1.00692 -0.00351651 0)
(1.00744 -0.00336016 0)
(1.00791 -0.00320324 0)
(1.00833 -0.0030518 0)
(1.00871 -0.00291006 0)
(1.00905 -0.00278121 0)
(0.999512 0.00100544 0)
(0.997917 -7.11713e-05 0)
(0.997874 -0.00140994 0)
(0.998623 -0.00246813 0)
(0.999652 -0.00346811 0)
(1.0009 -0.00419826 0)
(1.00217 -0.00458326 0)
(1.00329 -0.00472585 0)
(1.00423 -0.00471858 0)
(1.005 -0.00461315 0)
(1.00563 -0.00444662 0)
(1.00613 -0.0042481 0)
(1.00654 -0.00403749 0)
(1.00687 -0.00382725 0)
(1.00713 -0.00362514 0)
(1.00736 -0.00343598 0)
(1.00754 -0.00326254 0)
(1.00771 -0.00310669 0)
(0.998981 0.00257056 0)
(0.996263 0.000298664 0)
(0.996687 -0.00177441 0)
(0.99799 -0.003135 0)
(0.999422 -0.0043902 0)
(1.00102 -0.00519164 0)
(1.00248 -0.00549334 0)
(1.00358 -0.00550062 0)
(1.00436 -0.00535345 0)
(1.00489 -0.00511795 0)
(1.00523 -0.00483863 0)
(1.00542 -0.0045478 0)
(1.00552 -0.0042644 0)
(1.00554 -0.00399788 0)
(1.00553 -0.0037527 0)
(1.00548 -0.00353072 0)
(1.00541 -0.00333203 0)
(1.00534 -0.00315639 0)
(0.997456 0.00616826 0)
(0.993466 0.00160009 0)
(0.9954 -0.00191823 0)
(0.997756 -0.00390651 0)
(0.999689 -0.00545177 0)
(1.00158 -0.00619452 0)
(1.00302 -0.00627164 0)
(1.00382 -0.00604079 0)
(1.00415 -0.00568855 0)
(1.00417 -0.00528814 0)
(1.00399 -0.00488378 0)
(1.0037 -0.00450336 0)
(1.00333 -0.00415849 0)
(1.00294 -0.00385125 0)
(1.00255 -0.00358008 0)
(1.00216 -0.00334238 0)
(1.00179 -0.0031348 0)
(1.00145 -0.00295442 0)
(0.994438 0.00860385 0)
(0.98947 0.00236194 0)
(0.994191 -0.001834 0)
(0.998173 -0.00463264 0)
(1.00067 -0.00649339 0)
(1.00256 -0.00700774 0)
(1.00349 -0.00671095 0)
(1.00346 -0.00616073 0)
(1.00286 -0.00557466 0)
(1.00201 -0.00501503 0)
(1.00103 -0.0045111 0)
(1.00004 -0.00407522 0)
(0.999069 -0.00370468 0)
(0.998157 -0.00339044 0)
(0.997312 -0.0031235 0)
(0.996536 -0.00289658 0)
(0.995825 -0.0027034 0)
(0.995183 -0.00253777 0)
(0.994525 -0.00665029 0)
(0.989502 -0.00850291 0)
(0.99553 -0.00523567 0)
(1.0001 -0.00613079 0)
(1.00253 -0.00748716 0)
(1.0035 -0.0074058 0)
(1.00283 -0.00658051 0)
(1.00101 -0.00568737 0)
(0.998782 -0.00491127 0)
(0.996556 -0.00426112 0)
(0.994473 -0.00372825 0)
(0.992574 -0.0032998 0)
(0.99087 -0.00295605 0)
(0.989353 -0.00267714 0)
(0.988003 -0.00244811 0)
(0.986799 -0.00225917 0)
(0.985725 -0.00210366 0)
(0.984769 -0.00196968 0)
(1.02649 -0.0702259 0)
(1.0171 -0.0623777 0)
(1.01188 -0.0291868 0)
(1.00855 -0.0148203 0)
(1.00581 -0.0102561 0)
(1.00201 -0.00774597 0)
(0.996855 -0.00585401 0)
(0.99136 -0.00455494 0)
(0.986404 -0.00369795 0)
(0.982211 -0.00310074 0)
(0.978683 -0.00266104 0)
(0.97569 -0.00232986 0)
(0.973133 -0.00207601 0)
(0.970931 -0.00187661 0)
(0.969018 -0.0017168 0)
(0.967341 -0.00158957 0)
(0.965869 -0.00149429 0)
(0.964585 -0.00145409 0)
(0.966187 0.350228 0)
(1.02695 0.194276 0)
(1.0328 0.0679376 0)
(1.00476 0.0152938 0)
(0.97665 -0.00123132 0)
(0.95678 -0.00427479 0)
(0.943119 -0.0035506 0)
(0.933368 -0.00239411 0)
(0.926237 -0.0015696 0)
(0.92084 -0.00107172 0)
(0.916552 -0.000778404 0)
(0.913001 -0.000601434 0)
(0.909983 -0.000489901 0)
(0.907377 -0.000415457 0)
(0.905095 -0.000362963 0)
(0.903069 -0.000326962 0)
(0.901233 -0.000304088 0)
(0.899539 -0.000344602 0)
(0.00929922 -0.033618 -2.41737e-21)
(0.0226914 -0.0333081 2.24189e-21)
(0.0306679 -0.0210945 0)
(0.033061 -0.0076108 0)
(0.028659 0.00337233 0)
(0.019996 0.00969085 -2.17768e-21)
(0.00935788 0.0119167 0)
(-0.00220285 0.0125297 0)
(-0.0147505 0.0133574 0)
(-0.0285544 0.0146535 0)
(-0.0437102 0.0162562 2.03019e-21)
(-0.0602103 0.0179564 0)
(-0.0779481 0.0195777 0)
(-0.096738 0.0209879 0)
(-0.116342 0.0220989 0)
(-0.136497 0.0228633 1.82067e-21)
(-0.156933 0.0232687 0)
(-0.177394 0.0233299 0)
(-0.197648 0.0230816 0)
(-0.217497 0.0225705 0)
(-0.23678 0.0218486 0)
(-0.255371 0.0209681 0)
(-0.273181 0.0199779 0)
(-0.290152 0.0189204 1.78994e-21)
(-0.306251 0.017831 -1.79582e-21)
(-0.321468 0.0167374 1.80166e-21)
(-0.33581 0.0156603 1.80708e-21)
(-0.349294 0.0146136 0)
(-0.361947 0.013606 0)
(-0.373799 0.0126414 -1.818e-21)
(-0.384881 0.0117204 -1.8192e-21)
(-0.395225 0.0108407 0)
(-0.404861 0.00999818 0)
(-0.413814 0.00918732 -1.81362e-21)
(-0.422106 0.00840178 0)
(-0.429753 0.00763474 0)
(-0.436767 0.00687929 1.7924e-21)
(-0.443154 0.0061287 0)
(-0.448915 0.00537685 1.76854e-21)
(-0.454045 0.0046187 3.50694e-21)
(-0.458534 0.00385057 0)
(-0.462367 0.00307118 0)
(-0.465526 0.00228411 0)
(-0.467992 0.00149813 0)
(-0.469748 0.000728414 0)
(-0.470761 3.41248e-06 3.22663e-21)
(-0.470983 -0.000649449 3.15905e-21)
(-0.470566 -0.00124564 3.08437e-21)
(-0.469497 -0.00182132 0)
(-0.467776 -0.00239447 -2.91364e-21)
(-0.465392 -0.00297326 0)
(-0.46233 -0.00356094 2.71229e-21)
(-0.458571 -0.00415845 2.59944e-21)
(-0.454097 -0.00476546 0)
(-0.448892 -0.00538083 0)
(-0.442938 -0.00600289 0)
(-0.436224 -0.00662952 2.06124e-21)
(-0.428738 -0.00725824 0)
(-0.420475 -0.00788626 0)
(-0.41143 -0.00851055 0)
(-0.401606 -0.00912785 0)
(-0.391009 -0.00973481 0)
(-0.379649 -0.010328 0)
(-0.367543 -0.0109039 0)
(-0.354712 -0.0114593 0)
(-0.341182 -0.0119908 -3.16942e-22)
(-0.326983 -0.0124955 0)
(-0.312152 -0.0129708 0)
(-0.296729 -0.0134141 -4.16285e-22)
(-0.280757 -0.0138237 -6.74305e-22)
(-0.264284 -0.0141979 0)
(-0.247359 -0.0145356 1.20735e-21)
(-0.230035 -0.0148364 -1.48111e-21)
(-0.212365 -0.0150999 0)
(-0.194404 -0.0153264 2.03979e-21)
(-0.176207 -0.0155164 0)
(-0.157828 -0.0156704 0)
(-0.139321 -0.0157889 -2.89536e-21)
(-0.12074 -0.0158717 0)
(-0.102136 -0.0159169 3.46943e-21)
(-0.0835603 -0.0159198 0)
(-0.0650653 -0.0158705 -4.04034e-21)
(-0.0467042 -0.0157503 -4.32314e-21)
(-0.0285294 -0.0155295 -4.60345e-21)
(-0.0105754 -0.0151755 -9.70182e-21)
(0.00715449 -0.0147035 9.94437e-21)
(0.0246561 -0.0141837 0)
(0.0418981 -0.0136624 0)
(0.0588459 -0.0131496 0)
(0.0754786 -0.0126481 9.9979e-21)
(0.091781 -0.012159 9.96963e-21)
(0.107742 -0.0116833 -9.92873e-21)
(0.123352 -0.0112214 0)
(0.138604 -0.0107736 9.81548e-21)
(0.153495 -0.0103401 9.74599e-21)
(0.168022 -0.00992092 9.66957e-21)
(0.182183 -0.00951615 0)
(0.195979 -0.00912561 0)
(0.209412 -0.00874905 0)
(0.222483 -0.0083861 9.3147e-21)
(0.235197 -0.00803629 0)
(0.247556 -0.00769907 0)
(0.259564 -0.00737377 -9.01869e-21)
(0.271225 -0.00705969 0)
(0.282541 -0.00675603 0)
(0.293516 -0.00646197 -8.71416e-21)
(0.304152 -0.00617662 0)
(0.31445 -0.0058991 0)
(0.32441 -0.00562853 8.41158e-21)
(0.334033 -0.00536402 8.31253e-21)
(0.343317 -0.00510474 0)
(0.352258 -0.0048499 -8.11852e-21)
(0.360854 -0.00459877 0)
(0.3691 -0.00435072 7.93126e-21)
(0.37699 -0.00410522 0)
(0.384517 -0.00386188 7.7521e-21)
(0.391676 -0.00362042 7.66592e-21)
(0.398459 -0.00338074 0)
(0.404858 -0.00314287 0)
(0.410867 -0.00290704 0)
(0.41648 -0.00267363 0)
(0.421691 -0.00244318 0)
(0.426496 -0.00221639 0)
(0.430893 -0.00199407 0)
(0.434881 -0.00177714 7.0714e-21)
(0.438463 -0.00156662 -7.00977e-21)
(0.441642 -0.00136357 0)
(0.444425 -0.00116864 0)
(0.446819 -0.000980558 0)
(0.448828 -0.000792893 0)
(0.450446 -0.000591213 -1.3488e-20)
(0.451639 -0.000365221 0)
(0.452358 -0.000144787 1.33143e-20)
(0.452698 2.28567e-05 -1.32324e-20)
(0.452763 0.000130993 0)
(0.452613 0.000199758 0)
(0.452297 0.000245027 0)
(0.451848 0.000275085 1.29359e-20)
(0.451294 0.000294418 1.28679e-20)
(0.450657 0.000305569 0)
(0.449959 0.000310176 1.27374e-20)
(0.449216 0.000309487 1.26744e-20)
(0.448445 0.000304541 -1.26129e-20)
(0.447658 0.000296236 0)
(0.446867 0.000285351 0)
(0.446082 0.000272554 -1.24346e-20)
(0.445311 0.000258413 0)
(0.444561 0.000243407 0)
(0.443836 0.000227934 0)
(0.443141 0.000212321 0)
(0.442478 0.000196837 1.21528e-20)
(0.441849 0.000181702 1.20981e-20)
(0.441256 0.000167094 0)
(0.440698 0.000153157 1.19901e-20)
(0.440176 0.000140012 0)
(0.439687 0.00012776 0)
(0.439232 0.000116492 1.18313e-20)
(0.438807 0.000106294 0)
(0.438411 9.72528e-05 1.17275e-20)
(0.43804 8.94701e-05 0)
(0.437692 8.30671e-05 0)
(0.437362 7.81988e-05 1.15753e-20)
(0.437046 7.50685e-05 0)
(0.436738 7.39491e-05 1.14767e-20)
(0.436433 7.5211e-05 0)
(0.436121 7.93617e-05 0)
(0.435793 8.71035e-05 0)
(0.435436 9.94203e-05 -1.12912e-20)
(0.435033 0.000117713 0)
(0.434563 0.000144013 1.12087e-20)
(0.433993 0.000181352 0)
(0.433281 0.000234387 0)
(0.432365 0.000310655 0)
(0.431145 0.00042267 0)
(0.429473 0.000594093 0)
(0.427058 0.000865584 0)
(0.423524 0.00134773 0)
(0.417464 0.00216374 -2.24491e-20)
(0.408962 0.00419581 0)
(0.385319 0.00664985 0)
(-0.000840018 -0.0458082 6.79031e-21)
(0.000319399 -0.0222881 -5.96839e-21)
(-0.00586586 -0.00322649 0)
(-0.0141925 0.0117902 3.2713e-21)
(-0.0240659 0.0233345 0)
(-0.0359221 0.0314601 1.50152e-21)
(-0.0498787 0.0369815 -2.85331e-21)
(-0.0658758 0.0412149 -2.75649e-21)
(-0.0835752 0.0450206 0)
(-0.102522 0.0485965 -2.59555e-21)
(-0.12229 0.0518222 -1.28439e-21)
(-0.142501 0.0545116 0)
(-0.162814 0.0565154 0)
(-0.182921 0.0577504 0)
(-0.202561 0.0581993 0)
(-0.221523 0.0579001 -1.20043e-21)
(-0.239649 0.0569313 0)
(-0.256834 0.0553967 2.40924e-21)
(-0.273018 0.0534115 0)
(-0.288181 0.0510911 0)
(-0.302335 0.0485436 -2.45928e-21)
(-0.315514 0.0458636 0)
(-0.327766 0.0431306 2.50108e-21)
(-0.339148 0.0404076 -1.25795e-21)
(-0.34972 0.0377418 1.26871e-21)
(-0.359542 0.0351663 -1.27878e-21)
(-0.368669 0.0327023 -1.28793e-21)
(-0.377152 0.030361 0)
(-0.385035 0.0281458 0)
(-0.392356 0.0260541 1.30825e-21)
(-0.399149 0.0240794 -1.30928e-21)
(-0.405439 0.0222122 0)
(-0.411248 0.0204413 0)
(-0.416593 0.0187545 1.31527e-21)
(-0.421486 0.0171393 0)
(-0.425939 0.0155833 0)
(-0.429956 0.0140746 -1.30348e-21)
(-0.433545 0.0126018 0)
(-0.436708 0.0111541 1.2899e-21)
(-0.439449 0.00972188 -2.55121e-21)
(-0.44177 0.00829643 0)
(-0.443675 0.00687005 0)
(-0.44517 0.00543721 -4.94376e-21)
(-0.446261 0.00399642 -4.8712e-21)
(-0.446954 0.00255312 -4.78972e-21)
(-0.447257 0.001123 2.36737e-21)
(-0.44719 -0.00027391 -2.27649e-21)
(-0.446613 -0.00164315 -6.69539e-21)
(-0.445472 -0.00300838 4.35472e-21)
(-0.443731 -0.00438267 2.08069e-21)
(-0.441359 -0.00577297 0)
(-0.438332 -0.00718161 -1.92298e-21)
(-0.434627 -0.00860814 1.91696e-21)
(-0.430226 -0.0100502 0)
(-0.42511 -0.011504 0)
(-0.419263 -0.0129647 0)
(-0.412673 -0.0144264 -1.42966e-21)
(-0.405329 -0.0158824 0)
(-0.397225 -0.0173251 2.51594e-21)
(-0.388357 -0.0187467 0)
(-0.378728 -0.0201386 2.01619e-21)
(-0.368343 -0.0214921 0)
(-0.357212 -0.0227983 -1.47661e-21)
(-0.34535 -0.0240485 0)
(-0.33278 -0.0252343 9.0126e-22)
(-0.319524 -0.0263476 -3.92932e-22)
(-0.305614 -0.0273811 0)
(-0.291083 -0.0283281 1.73975e-23)
(-0.27597 -0.029183 2.69041e-22)
(-0.260318 -0.0299414 4.32982e-22)
(-0.244172 -0.0305997 0)
(-0.22758 -0.0311557 5.48467e-22)
(-0.210593 -0.0316086 9.32768e-22)
(-0.193262 -0.0319585 0)
(-0.175641 -0.0322067 -1.26836e-21)
(-0.157782 -0.0323558 2.64344e-21)
(-0.139739 -0.0324089 0)
(-0.121563 -0.0323704 1.7675e-21)
(-0.103305 -0.0322447 0)
(-0.0850142 -0.0320365 -6.05103e-21)
(-0.0667361 -0.0317503 0)
(-0.0485127 -0.0313895 7.00924e-21)
(-0.0303803 -0.0309551 2.56837e-21)
(-0.0123685 -0.0304448 -2.4959e-21)
(0.00548824 -0.0298527 -5.21886e-21)
(0.0231396 -0.0291824 5.37091e-21)
(0.0405432 -0.0284579 0)
(0.0576803 -0.027703 0)
(0.0745389 -0.0269306 0)
(0.0911031 -0.0261481 -1.82095e-20)
(0.107358 -0.0253607 -6.25535e-21)
(0.123291 -0.0245728 6.3137e-21)
(0.138893 -0.0237878 0)
(0.154155 -0.023009 6.1119e-21)
(0.169071 -0.0222391 -6.43105e-21)
(0.183639 -0.0214804 -6.45336e-21)
(0.197856 -0.0207347 0)
(0.211721 -0.0200037 0)
(0.225236 -0.0192883 0)
(0.238401 -0.0185893 -6.476e-21)
(0.251218 -0.017907 0)
(0.263692 -0.0172415 1.27195e-20)
(0.275825 -0.0165924 1.91352e-20)
(0.28762 -0.0159592 -1.26658e-20)
(0.29908 -0.015341 0)
(0.310208 -0.0147367 -6.21584e-21)
(0.321006 -0.0141453 0)
(0.331476 -0.0135652 -1.24836e-20)
(0.34162 -0.0129952 6.14883e-21)
(0.351437 -0.0124337 6.12252e-21)
(0.360926 -0.0118792 0)
(0.370086 -0.0113303 1.84123e-20)
(0.378915 -0.0107858 -1.21726e-20)
(0.387408 -0.0102443 -6.09975e-21)
(0.395562 -0.00970505 0)
(0.403372 -0.00916719 -6.02531e-21)
(0.410831 -0.00863028 -1.78883e-20)
(0.417935 -0.0080942 0)
(0.424676 -0.00755913 -1.17651e-20)
(0.43105 -0.00702565 -1.16992e-20)
(0.43705 -0.00649469 -1.16346e-20)
(0.44267 -0.00596756 0)
(0.447908 -0.00544588 0)
(0.45276 -0.0049316 0)
(0.457224 -0.00442691 5.6779e-21)
(0.461301 -0.00393412 5.68561e-21)
(0.464992 -0.00345539 0)
(0.468302 -0.00299216 1.12329e-20)
(0.471235 -0.00254391 1.11835e-20)
(0.473802 -0.00210675 0)
(0.476021 -0.00167383 1.11082e-20)
(0.477933 -0.00124605 2.20956e-20)
(0.479611 -0.000849491 -1.10177e-20)
(0.481025 -0.000513908 -1.0952e-20)
(0.482143 -0.000241623 0)
(0.482973 -2.01769e-05 0)
(0.483539 0.000160674 0)
(0.483869 0.000307591 -1.07928e-20)
(0.48399 0.0004254 1.07453e-20)
(0.48393 0.000517775 2.14123e-20)
(0.483716 0.000587765 -1.06653e-20)
(0.483372 0.000638105 1.06244e-20)
(0.48292 0.000671332 1.05821e-20)
(0.482383 0.000689817 0)
(0.48178 0.000695778 0)
(0.481127 0.000691268 -1.04623e-20)
(0.480441 0.000678169 0)
(0.479734 0.000658187 0)
(0.47902 0.00063285 2.06731e-20)
(0.478307 0.000603514 0)
(0.477604 0.000571367 1.02559e-20)
(0.476919 0.000537443 -1.02096e-20)
(0.476255 0.000502632 0)
(0.475618 0.000467695 1.01306e-20)
(0.47501 0.000433282 0)
(0.474434 0.000399946 0)
(0.473889 0.000368165 -1.00017e-20)
(0.473377 0.000338356 1.99238e-20)
(0.472897 0.000310898 -9.91907e-21)
(0.472447 0.000286154 0)
(0.472026 0.000264498 0)
(0.471631 0.000246343 9.79859e-21)
(0.471259 0.000232175 0)
(0.470906 0.000222604 9.71813e-21)
(0.470568 0.000218421 0)
(0.470239 0.000220683 0)
(0.469911 0.000230832 0)
(0.469576 0.00025087 9.56459e-21)
(0.469224 0.000283628 0)
(0.468839 0.000333192 -9.49641e-21)
(0.468404 0.000405614 0)
(0.467892 0.000510121 0)
(0.467269 0.000661467 1.88317e-20)
(0.466484 0.000883915 -1.87986e-20)
(0.465472 0.00122201 0)
(0.464106 0.00175323 0)
(0.462304 0.00266712 0)
(0.459534 0.00422918 5.687e-20)
(0.456504 0.00768282 0)
(0.450141 0.013327 -3.88302e-20)
(-0.0125745 -0.0268541 -1.91636e-22)
(-0.0198035 -0.000485288 6.84404e-21)
(-0.0314932 0.0193401 0)
(-0.0446201 0.0357572 -5.12455e-21)
(-0.0582831 0.049323 0)
(-0.0725499 0.0601958 0)
(-0.0877212 0.0687453 1.07641e-23)
(-0.103842 0.0755468 2.13067e-21)
(-0.12065 0.081044 2.07723e-21)
(-0.13776 0.0854066 2.01823e-21)
(-0.154802 0.0886308 0)
(-0.171477 0.0906717 0)
(-0.187564 0.0915194 -1.96049e-21)
(-0.202917 0.0912239 -3.90082e-21)
(-0.217458 0.0898912 3.8919e-21)
(-0.231163 0.0876681 0)
(-0.244049 0.0847235 3.89947e-21)
(-0.256159 0.0812317 -1.912e-21)
(-0.267553 0.0773593 0)
(-0.278293 0.0732554 3.94798e-21)
(-0.288444 0.0690466 1.9513e-21)
(-0.298063 0.0648349 -3.98983e-21)
(-0.3072 0.060698 -1.98113e-21)
(-0.315894 0.0566914 0)
(-0.324179 0.0528516 4.0504e-21)
(-0.332081 0.0491989 4.06787e-21)
(-0.339617 0.0457414 0)
(-0.346802 0.0424776 4.09647e-21)
(-0.353645 0.0393993 0)
(-0.360153 0.0364938 4.11463e-21)
(-0.366329 0.0337453 2.0563e-21)
(-0.372176 0.0311368 0)
(-0.377694 0.0286507 0)
(-0.382881 0.0262696 0)
(-0.387735 0.023977 0)
(-0.392252 0.0217572 0)
(-0.396428 0.019596 0)
(-0.400256 0.0174808 4.04411e-21)
(-0.40373 0.0154003 -6.0187e-21)
(-0.406841 0.0133451 0)
(-0.409579 0.0113075 0)
(-0.411934 0.0092813 0)
(-0.413891 0.00726154 -2.01773e-23)
(-0.415434 0.00524367 3.76697e-21)
(-0.416536 0.00322132 7.42759e-21)
(-0.417167 0.00118308 -7.28279e-21)
(-0.417295 -0.000889778 -3.5756e-21)
(-0.416886 -0.00300788 3.44384e-21)
(-0.415916 -0.00516885 4.7272e-23)
(-0.41436 -0.00736987 3.28508e-21)
(-0.412194 -0.00960814 0)
(-0.409394 -0.0118804 3.0523e-21)
(-0.405938 -0.0141823 6.75145e-23)
(-0.401805 -0.0165081 0)
(-0.396978 -0.0188506 0)
(-0.39144 -0.0212012 -2.48952e-21)
(-0.385177 -0.02355 0)
(-0.378178 -0.0258856 0)
(-0.370437 -0.028196 2.08333e-21)
(-0.36195 -0.0304679 3.60174e-21)
(-0.352717 -0.0326876 -1.50151e-21)
(-0.342745 -0.0348409 0)
(-0.332042 -0.0369134 1.09274e-21)
(-0.320623 -0.0388912 0)
(-0.308508 -0.0407606 9.16882e-22)
(-0.295722 -0.0425088 4.40937e-22)
(-0.282293 -0.0441242 -7.0074e-22)
(-0.268255 -0.0455962 -2.63606e-22)
(-0.253646 -0.046916 0)
(-0.238506 -0.0480766 -6.63352e-22)
(-0.22288 -0.0490726 0)
(-0.206815 -0.0499008 -2.53245e-21)
(-0.19036 -0.0505597 -2.05326e-21)
(-0.173566 -0.0510501 -2.5168e-21)
(-0.156484 -0.0513741 2.97866e-21)
(-0.139166 -0.051536 -5.31139e-21)
(-0.121663 -0.0515412 0)
(-0.104025 -0.0513969 0)
(-0.0863013 -0.0511109 4.79076e-21)
(-0.0685389 -0.0506921 8.00244e-21)
(-0.0507817 -0.0501499 0)
(-0.0330701 -0.0494943 -3.20136e-21)
(-0.0154391 -0.048736 0)
(0.00207901 -0.0478867 1.04553e-20)
(0.0194498 -0.0469604 2.93987e-22)
(0.0366348 -0.0459721 -2.84745e-22)
(0.0536008 -0.0449318 -7.63176e-21)
(0.0703251 -0.0438475 0)
(0.0867886 -0.0427283 8.04963e-21)
(0.102973 -0.0415831 2.45801e-22)
(0.118864 -0.04042 0)
(0.134447 -0.039246 0)
(0.149712 -0.0380678 0)
(0.164651 -0.0368911 -9.02436e-21)
(0.179259 -0.035721 0)
(0.19353 -0.0345618 0)
(0.207463 -0.0334172 0)
(0.221056 -0.0322901 0)
(0.23431 -0.0311829 0)
(0.247226 -0.0300971 -9.31414e-21)
(0.259806 -0.0290339 0)
(0.272052 -0.0279938 -9.5476e-21)
(0.283967 -0.0269767 -9.57345e-21)
(0.295555 -0.0259821 9.59262e-21)
(0.306818 -0.0250091 0)
(0.317759 -0.0240563 9.61314e-21)
(0.328381 -0.0231223 0)
(0.338685 -0.0222052 9.61351e-21)
(0.348674 -0.0213029 -9.60741e-21)
(0.358347 -0.0204134 -2.86011e-20)
(0.367704 -0.0195345 0)
(0.376745 -0.0186642 -2.85371e-20)
(0.385468 -0.0178005 -9.39018e-21)
(0.39387 -0.0169415 0)
(0.401947 -0.0160859 -1.88798e-20)
(0.409696 -0.0152325 -1.88445e-20)
(0.417113 -0.0143804 2.82736e-20)
(0.424191 -0.0135294 0)
(0.430927 -0.0126797 9.4191e-21)
(0.437315 -0.011832 9.39542e-21)
(0.443349 -0.0109876 2.80233e-20)
(0.449026 -0.0101484 0)
(0.454341 -0.00931656 0)
(0.459291 -0.008495 0)
(0.463875 -0.00768689 9.21905e-21)
(0.468093 -0.00689563 0)
(0.471945 -0.0061246 0)
(0.475434 -0.00537673 -9.22448e-21)
(0.478567 -0.00465399 -9.20632e-21)
(0.481353 -0.00395764 0)
(0.483807 -0.00329061 0)
(0.485954 -0.00266025 -1.83114e-20)
(0.487817 -0.00207518 0)
(0.489402 -0.00154297 1.82487e-20)
(0.490712 -0.00106934 1.81955e-20)
(0.491754 -0.000655451 0)
(0.492542 -0.000298662 0)
(0.493095 5.24615e-06 -1.80714e-20)
(0.493436 0.000260678 -5.56143e-24)
(0.493587 0.000471832 -3.6639e-24)
(0.493573 0.000642708 0)
(0.493414 0.000777182 -3.57653e-20)
(0.493134 0.000879045 0)
(0.492752 0.000952007 0)
(0.492289 0.000999664 0)
(0.491761 0.00102547 1.76595e-20)
(0.491185 0.0010327 0)
(0.490575 0.0010244 -3.50827e-20)
(0.489943 0.00100339 -1.74749e-20)
(0.489302 0.000972253 0)
(0.48866 0.000933284 -1.73453e-20)
(0.488025 0.000888543 0)
(0.487403 0.000839842 0)
(0.4868 0.000788761 -5.14388e-20)
(0.486219 0.00073667 3.41576e-20)
(0.485664 0.000684753 0)
(0.485136 0.000634035 3.38806e-20)
(0.484636 0.000585407 -1.68678e-20)
(0.484165 0.000539664 0)
(0.48372 0.000497539 0)
(0.483302 0.000459739 0)
(0.482908 0.000426999 -4.97757e-20)
(0.482536 0.000400131 0)
(0.482181 0.000380096 -1.64542e-20)
(0.481839 0.000368092 0)
(0.481505 0.000365677 0)
(0.481172 0.000374931 0)
(0.480831 0.000398703 0)
(0.480472 0.000440973 0)
(0.480079 0.000507411 0)
(0.479634 0.000606307 -3.20509e-20)
(0.479113 0.000750088 0)
(0.478479 0.000958158 -1.59405e-20)
(0.477685 0.00126164 4.7734e-20)
(0.476666 0.001715 0)
(0.475312 0.0024106 0)
(0.473533 0.00355057 -3.18829e-20)
(0.47102 0.00544494 -3.21063e-20)
(0.468153 0.009129 3.23373e-20)
(0.464352 0.0157147 3.29328e-20)
(-0.0169494 0.00615503 -1.19486e-20)
(-0.0287002 0.0316374 -9.00351e-21)
(-0.0431709 0.0503502 -4.85867e-21)
(-0.0585527 0.0662116 -2.13885e-21)
(-0.0736923 0.0797942 0)
(-0.0885333 0.0911385 3.87062e-21)
(-0.103282 0.100302 -1.89074e-21)
(-0.117971 0.107444 0)
(-0.132471 0.112745 -1.76275e-21)
(-0.146598 0.116337 0)
(-0.160187 0.118324 3.49839e-21)
(-0.173131 0.118815 0)
(-0.185381 0.117952 1.66913e-21)