/*--------------------------------*- C++ -*----------------------------------*\
  =========                 |
  \\      /  F ield         | OpenFOAM: The Open Source CFD Toolbox
   \\    /   O peration     | Website:  https://openfoam.org
    \\  /    A nd           | Version:  6
     \\/     M anipulation  |
\*---------------------------------------------------------------------------*/
FoamFile
{
    version     2.0;
    format      ascii;
    class       volScalarField;
    location    "0.1";
    object      epsilon;
}
// * * * * * * * * * * * * * * * * * * * * * * * * * * * * * * * * * * * * * //

dimensions      [0 2 -3 0 0 0 0];

internalField   nonuniform List<scalar> 
3080
(
1.45778
1.45907
1.46039
1.46174
1.4631
1.46449
1.46589
1.4673
1.46873
1.47016
1.4716
1.47303
1.47444
1.47584
1.47721
1.47852
1.47977
1.48093
1.48195
1.48278
1.48336
1.48358
1.48329
1.48224
1.48007
1.47612
1.4692
1.45684
1.4346
1.39368
0.673424
0.673777
0.674141
0.674515
0.674899
0.675291
0.675692
0.6761
0.676514
0.676935
0.67736
0.677791
0.678225
0.678662
0.679101
0.679539
0.679977
0.68041
0.680837
0.681255
0.68166
0.682049
0.682421
0.68278
0.683147
0.683593
0.684327
0.685918
0.690104
0.702523
0.549391
0.549533
0.549683
0.549838
0.55
0.550167
0.550338
0.550515
0.550695
0.550879
0.551066
0.551257
0.551449
0.551644
0.55184
0.552037
0.552235
0.552431
0.552627
0.552819
0.553009
0.553196
0.553381
0.553572
0.553788
0.554078
0.554569
0.555602
0.558067
0.564438
0.514566
0.514608
0.514654
0.514705
0.514759
0.514818
0.51488
0.514945
0.515013
0.515083
0.515155
0.515229
0.515305
0.515381
0.515459
0.515536
0.515613
0.51569
0.515765
0.515838
0.515908
0.515977
0.516044
0.516116
0.516207
0.51635
0.516628
0.517249
0.518688
0.521981
0.505702
0.505678
0.505658
0.505641
0.505627
0.505616
0.505608
0.505601
0.505596
0.505593
0.505591
0.50559
0.50559
0.50559
0.50559
0.505589
0.505588
0.505585
0.505579
0.505571
0.50556
0.505545
0.505527
0.50551
0.505504
0.505531
0.505647
0.505983
0.506803
0.508582
0.507297
0.507227
0.507159
0.507094
0.507031
0.506969
0.506909
0.50685
0.506793
0.506736
0.506681
0.506625
0.50657
0.506514
0.506458
0.506401
0.506341
0.50628
0.506215
0.506146
0.506073
0.505994
0.505911
0.505824
0.50574
0.505675
0.505664
0.505791
0.50621
0.507165
0.513729
0.513624
0.513521
0.513419
0.513318
0.513218
0.513119
0.513021
0.512923
0.512826
0.51273
0.512633
0.512536
0.512438
0.512339
0.512238
0.512134
0.512028
0.511917
0.511802
0.511681
0.511553
0.511417
0.511275
0.511129
0.510989
0.51088
0.510853
0.511002
0.511475
0.522466
0.522335
0.522205
0.522075
0.521945
0.521815
0.521686
0.521557
0.521429
0.521301
0.521173
0.521045
0.520915
0.520785
0.520653
0.520518
0.520381
0.52024
0.520094
0.519942
0.519784
0.519617
0.519441
0.519255
0.51906
0.518863
0.518679
0.51854
0.518506
0.518685
0.532209
0.53206
0.531909
0.531757
0.531604
0.531451
0.531299
0.531147
0.530995
0.530844
0.530692
0.530539
0.530386
0.530231
0.530073
0.529913
0.52975
0.529582
0.52941
0.529231
0.529044
0.528847
0.52864
0.528421
0.52819
0.52795
0.527711
0.527493
0.527338
0.527332
0.542232
0.54207
0.541903
0.541734
0.541565
0.541395
0.541225
0.541056
0.540887
0.540718
0.540548
0.540378
0.540206
0.540033
0.539857
0.539679
0.539496
0.539309
0.539117
0.538918
0.53871
0.538492
0.538263
0.53802
0.537763
0.537493
0.537215
0.536945
0.536711
0.536592
0.552114
0.551936
0.551759
0.551579
0.551397
0.551215
0.551034
0.550852
0.550671
0.55049
0.550308
0.550125
0.549941
0.549755
0.549567
0.549375
0.54918
0.548979
0.548773
0.54856
0.548338
0.548106
0.547862
0.547604
0.54733
0.547041
0.54674
0.546437
0.546157
0.545969
0.561405
0.561218
0.56103
0.560841
0.560653
0.560464
0.560275
0.560086
0.559898
0.559708
0.559518
0.559326
0.559132
0.558936
0.558736
0.558532
0.558324
0.55811
0.557888
0.557658
0.557418
0.557165
0.556899
0.556616
0.556317
0.556005
0.555686
0.555382
0.555157
0.570305
0.570121
0.569932
0.569742
0.569551
0.569359
0.569167
0.568975
0.568782
0.568589
0.568395
0.5682
0.568002
0.567802
0.567599
0.567391
0.567179
0.566962
0.566737
0.566504
0.56626
0.566005
0.565736
0.565452
0.565151
0.564837
0.564514
0.564203
0.563962
0.578562
0.578383
0.578197
0.578009
0.577818
0.577627
0.577435
0.577243
0.57705
0.576857
0.576663
0.576467
0.576269
0.576069
0.575866
0.575659
0.575447
0.57523
0.575006
0.574774
0.574532
0.574279
0.574013
0.573732
0.573437
0.573128
0.572812
0.572506
0.572264
0.586132
0.585958
0.585778
0.585594
0.585407
0.585219
0.58503
0.58484
0.58465
0.58446
0.584269
0.584076
0.583881
0.583684
0.583484
0.58328
0.583072
0.582859
0.582639
0.582412
0.582175
0.581929
0.58167
0.581398
0.581113
0.580817
0.580514
0.580222
0.579989
0.59306
0.592891
0.592716
0.592536
0.592353
0.592168
0.591982
0.591796
0.591609
0.591422
0.591233
0.591044
0.590853
0.590659
0.590463
0.590263
0.590059
0.58985
0.589636
0.589414
0.589184
0.588944
0.588694
0.588433
0.58816
0.587877
0.587591
0.587315
0.587096
0.599213
0.599054
0.598887
0.598714
0.598538
0.59836
0.598181
0.598002
0.597822
0.597642
0.597461
0.597279
0.597096
0.596911
0.596723
0.596531
0.596336
0.596137
0.595932
0.595721
0.595502
0.595275
0.595039
0.594793
0.594538
0.594275
0.594011
0.59376
0.593562
0.604506
0.604361
0.604208
0.604049
0.603886
0.603721
0.603555
0.60339
0.603224
0.603058
0.602892
0.602725
0.602557
0.602387
0.602215
0.60204
0.601862
0.601679
0.601492
0.6013
0.601101
0.600895
0.600681
0.60046
0.600231
0.599998
0.599766
0.599548
0.599381
0.60903
0.608904
0.608768
0.608626
0.608479
0.608331
0.608183
0.608034
0.607887
0.607739
0.607592
0.607444
0.607296
0.607146
0.606994
0.60684
0.606684
0.606524
0.60636
0.606191
0.606017
0.605837
0.605651
0.605459
0.605263
0.605065
0.60487
0.604692
0.604561
0.612866
0.61276
0.612643
0.612519
0.612391
0.612261
0.612132
0.612003
0.611875
0.611749
0.611622
0.611496
0.611369
0.611242
0.611113
0.610983
0.61085
0.610715
0.610576
0.610434
0.610287
0.610136
0.609981
0.609821
0.60966
0.609499
0.609344
0.609207
0.609115
0.616082
0.615996
0.615898
0.615793
0.615683
0.615573
0.615463
0.615354
0.615247
0.615141
0.615036
0.614932
0.614828
0.614723
0.614618
0.614512
0.614404
0.614294
0.614181
0.614066
0.613947
0.613826
0.613701
0.613574
0.613447
0.613324
0.613208
0.613113
0.61306
0.618738
0.618671
0.618591
0.618503
0.618411
0.618319
0.618227
0.618138
0.618051
0.617965
0.617881
0.617798
0.617715
0.617633
0.617551
0.617467
0.617383
0.617297
0.61721
0.617121
0.617029
0.616935
0.61684
0.616745
0.616652
0.616563
0.616486
0.616429
0.616413
0.62088
0.62083
0.620766
0.620694
0.620619
0.620543
0.620469
0.620397
0.620328
0.620261
0.620196
0.620132
0.62007
0.620008
0.619946
0.619884
0.619821
0.619758
0.619694
0.619628
0.619561
0.619493
0.619425
0.619359
0.619295
0.619239
0.619196
0.619174
0.619192
0.622549
0.622513
0.622464
0.622406
0.622345
0.622283
0.622224
0.622168
0.622115
0.622064
0.622015
0.621969
0.621923
0.621879
0.621835
0.621791
0.621748
0.621703
0.621659
0.621614
0.621568
0.621523
0.621478
0.621436
0.621399
0.621371
0.621357
0.621366
0.621412
0.623777
0.623753
0.623715
0.623669
0.623619
0.62357
0.623523
0.62348
0.623439
0.623402
0.623367
0.623334
0.623302
0.623272
0.623243
0.623214
0.623185
0.623157
0.623128
0.6231
0.623072
0.623044
0.623019
0.622997
0.62298
0.622975
0.622984
0.623018
0.623088
0.62459
0.624575
0.624546
0.624509
0.624468
0.624429
0.624391
0.624357
0.624326
0.624298
0.624273
0.62425
0.624229
0.624209
0.62419
0.624172
0.624154
0.624137
0.62412
0.624104
0.624088
0.624074
0.624062
0.624054
0.624053
0.624064
0.624091
0.624142
0.624229
0.625012
0.625002
0.624978
0.624947
0.624913
0.624879
0.624848
0.62482
0.624795
0.624772
0.624753
0.624735
0.62472
0.624706
0.624693
0.624681
0.62467
0.624659
0.624649
0.624639
0.624631
0.624624
0.62462
0.62462
0.624628
0.624648
0.624685
0.624748
0.624845
0.625065
0.625056
0.625036
0.625008
0.624976
0.624945
0.624916
0.62489
0.624866
0.624845
0.624827
0.624811
0.624796
0.624783
0.624771
0.62476
0.62475
0.624741
0.624731
0.624723
0.624716
0.62471
0.624708
0.62471
0.62472
0.624742
0.624782
0.624847
0.624948
0.624632
0.624619
0.624594
0.624563
0.624527
0.624492
0.624458
0.624426
0.624396
0.624369
0.624344
0.624321
0.6243
0.62428
0.62426
0.624242
0.624224
0.624206
0.624189
0.624172
0.624156
0.624142
0.62413
0.624123
0.624124
0.624136
0.624165
0.62422
0.624313
0.623704
0.623679
0.623643
0.6236
0.623554
0.623507
0.62346
0.623415
0.623372
0.623331
0.623292
0.623254
0.623218
0.623182
0.623147
0.623112
0.623077
0.623042
0.623008
0.622973
0.622939
0.622906
0.622874
0.622847
0.622827
0.622817
0.622824
0.622856
0.622929
0.622266
0.622223
0.622168
0.622107
0.622042
0.621975
0.621909
0.621844
0.62178
0.621717
0.621656
0.621596
0.621536
0.621476
0.621417
0.621357
0.621297
0.621236
0.621175
0.621113
0.621051
0.620989
0.620928
0.62087
0.620817
0.620774
0.620747
0.620744
0.620786
0.620298
0.620229
0.620149
0.620062
0.619971
0.619878
0.619785
0.619692
0.6196
0.619508
0.619417
0.619326
0.619235
0.619144
0.619052
0.618959
0.618865
0.618769
0.618673
0.618575
0.618475
0.618374
0.618274
0.618174
0.618079
0.617991
0.617917
0.617868
0.617868
0.617776
0.617674
0.617562
0.617442
0.617318
0.617191
0.617064
0.616936
0.616808
0.616679
0.616551
0.616421
0.616291
0.61616
0.616027
0.615893
0.615756
0.615617
0.615476
0.615333
0.615186
0.615038
0.614887
0.614736
0.614587
0.614443
0.614312
0.614206
0.614153
0.614669
0.614528
0.614376
0.614217
0.614053
0.613885
0.613716
0.613546
0.613374
0.613202
0.613028
0.612852
0.612675
0.612496
0.612314
0.61213
0.611943
0.611752
0.611558
0.61136
0.611158
0.610952
0.610742
0.61053
0.610317
0.610107
0.609907
0.609732
0.609616
0.610944
0.610757
0.610559
0.610354
0.610143
0.609927
0.60971
0.609489
0.609267
0.609043
0.608817
0.608588
0.608356
0.608121
0.607882
0.60764
0.607394
0.607143
0.606887
0.606626
0.606359
0.606087
0.605809
0.605525
0.605239
0.604953
0.604675
0.604421
0.604235
0.606564
0.606325
0.606075
0.605816
0.605551
0.605282
0.605008
0.604732
0.604452
0.604169
0.603883
0.603593
0.603299
0.603001
0.602698
0.60239
0.602077
0.601758
0.601433
0.601101
0.600761
0.600414
0.600059
0.599696
0.599328
0.598958
0.598593
0.598252
0.597987
0.601491
0.601193
0.600885
0.600567
0.600242
0.599912
0.599576
0.599237
0.598893
0.598545
0.598192
0.597835
0.597472
0.597104
0.59673
0.59635
0.595963
0.595569
0.595167
0.594756
0.594337
0.593908
0.593469
0.59302
0.592563
0.592101
0.591643
0.591209
0.59086
0.595684
0.595323
0.59495
0.594568
0.594178
0.593781
0.593379
0.592971
0.592557
0.592138
0.591713
0.591283
0.590845
0.590402
0.589951
0.589493
0.589026
0.588552
0.588067
0.587573
0.587068
0.586552
0.586023
0.585483
0.584932
0.584374
0.58382
0.583291
0.582859
0.589199
0.588768
0.588324
0.587871
0.587409
0.586939
0.586462
0.585979
0.585488
0.584992
0.584488
0.583977
0.583458
0.582932
0.582397
0.581854
0.581301
0.580739
0.580165
0.579581
0.578983
0.578373
0.577749
0.577111
0.576462
0.575804
0.57515
0.574526
0.574013
0.58198
0.581474
0.580956
0.580427
0.579888
0.579341
0.578786
0.578223
0.577653
0.577074
0.576488
0.575893
0.57529
0.574677
0.574055
0.573424
0.572782
0.572129
0.571464
0.570786
0.570095
0.569389
0.568669
0.567934
0.567187
0.566432
0.565685
0.564974
0.564392
0.573784
0.573207
0.572619
0.572019
0.571409
0.57079
0.570162
0.569526
0.568881
0.568227
0.567565
0.566893
0.566212
0.565522
0.564822
0.564111
0.563389
0.562656
0.56191
0.561151
0.560378
0.559591
0.558788
0.557972
0.557144
0.556313
0.555497
0.554731
0.554119
0.564511
0.563876
0.563228
0.562569
0.5619
0.561222
0.560534
0.559838
0.559133
0.558419
0.557697
0.556965
0.556224
0.555473
0.554713
0.553943
0.553161
0.552369
0.551565
0.550748
0.549918
0.549074
0.548217
0.547348
0.546472
0.545601
0.54476
0.54399
0.543415
0.554396
0.553726
0.553046
0.552356
0.551656
0.550947
0.55023
0.549505
0.548771
0.54803
0.547281
0.546523
0.545758
0.544984
0.544202
0.543411
0.542611
0.541801
0.540981
0.540151
0.53931
0.538457
0.537595
0.536726
0.535858
0.535005
0.534207
0.533515
0.533082
0.543834
0.543176
0.542508
0.541832
0.541149
0.540458
0.53976
0.539056
0.538346
0.537629
0.536907
0.536179
0.535445
0.534706
0.53396
0.533209
0.532451
0.531686
0.530915
0.530137
0.529352
0.52856
0.527763
0.526966
0.52618
0.525425
0.524756
0.524244
0.524088
0.532966
0.532378
0.531783
0.531182
0.530576
0.529965
0.52935
0.528732
0.52811
0.527485
0.526858
0.526228
0.525595
0.52496
0.524323
0.523683
0.523041
0.522397
0.52175
0.521101
0.520449
0.519797
0.519145
0.518501
0.517879
0.517307
0.516859
0.516635
0.516912
0.52213
0.521686
0.521237
0.520786
0.520332
0.519876
0.519419
0.518962
0.518506
0.518049
0.517594
0.517139
0.516686
0.516234
0.515783
0.515334
0.514887
0.514442
0.513998
0.513556
0.513117
0.512681
0.512253
0.511838
0.511456
0.511142
0.510995
0.511158
0.512028
0.5135
0.51323
0.512958
0.512685
0.512412
0.51214
0.511871
0.511603
0.511339
0.511078
0.51082
0.510566
0.510316
0.510071
0.509829
0.509592
0.50936
0.509132
0.508909
0.508691
0.508478
0.508272
0.508076
0.5079
0.507764
0.507712
0.507873
0.508448
0.510026
0.508575
0.50847
0.508366
0.508264
0.508165
0.508069
0.507978
0.507891
0.507811
0.507736
0.507667
0.507605
0.507549
0.5075
0.507458
0.507424
0.507396
0.507376
0.507364
0.507359
0.507362
0.507375
0.507401
0.507449
0.507545
0.50774
0.508194
0.509191
0.511604
0.507986
0.508056
0.508132
0.508212
0.508299
0.508393
0.508494
0.508603
0.50872
0.508845
0.50898
0.509123
0.509276
0.509439
0.509611
0.509793
0.509984
0.510185
0.510396
0.510617
0.510849
0.511096
0.511367
0.51169
0.512122
0.512858
0.514287
0.517701
0.513084
0.51334
0.513602
0.513871
0.514148
0.514435
0.514731
0.515037
0.515353
0.515681
0.516019
0.516369
0.516731
0.517105
0.51749
0.517888
0.518297
0.518717
0.519149
0.519592
0.520046
0.520515
0.521008
0.521552
0.52221
0.523212
0.525075
0.529701
0.525783
0.526237
0.526698
0.527169
0.52765
0.528142
0.528646
0.529163
0.529692
0.530235
0.530791
0.531361
0.531945
0.532543
0.533155
0.533781
0.53442
0.535072
0.535736
0.536411
0.537097
0.537795
0.538511
0.539274
0.540148
0.541395
0.543684
0.549799
0.549514
0.550188
0.550873
0.551569
0.552277
0.553
0.553737
0.554489
0.555257
0.55604
0.55684
0.557656
0.558488
0.559337
0.560202
0.561083
0.561979
0.562887
0.563808
0.564738
0.565675
0.566619
0.567571
0.568558
0.569636
0.571106
0.57379
0.581782
0.590819
0.591759
0.592713
0.593682
0.594666
0.595668
0.596687
0.597724
0.59878
0.599856
0.60095
0.602064
0.603198
0.60435
0.605521
0.606709
0.607913
0.60913
0.610357
0.611589
0.612822
0.61405
0.615267
0.616494
0.617769
0.619431
0.622446
0.632887
0.664164
0.665467
0.666788
0.668129
0.66949
0.670873
0.672277
0.673705
0.675156
0.676631
0.678129
0.679652
0.681197
0.682765
0.684353
0.685961
0.687585
0.689219
0.69086
0.692497
0.694119
0.695715
0.697264
0.698774
0.700239
0.702044
0.705235
0.719012
0.809469
0.811375
0.813306
0.815264
0.817251
0.819267
0.821313
0.82339
0.825498
0.827638
0.829809
0.83201
0.83424
0.836498
0.838781
0.841084
0.843401
0.845723
0.848039
0.850332
0.852577
0.854747
0.856787
0.858682
0.860317
0.862129
0.865051
0.883361
1.18875
1.19207
1.19544
1.19885
1.2023
1.20581
1.20936
1.21297
1.21662
1.22032
1.22408
1.22787
1.23171
1.23559
1.23949
1.24342
1.24735
1.25126
1.25512
1.25889
1.26252
1.2659
1.26892
1.27142
1.27302
1.27394
1.27446
1.29444
3.16836
3.17837
3.1885
3.19877
3.20916
3.2197
3.23037
3.24116
3.25209
3.26314
3.2743
3.28556
3.29689
3.30827
3.31965
3.33097
3.34215
3.35307
3.36357
3.3734
3.38225
3.38948
3.3945
3.39518
3.39068
3.36986
3.32712
3.18285
1.48491
1.53011
1.57628
1.61822
1.65232
1.68249
1.71222
1.74251
1.77355
1.80576
1.83956
1.87518
1.91284
1.95313
1.99646
2.04335
2.09468
2.15095
2.21406
2.28277
2.36452
2.44597
2.56654
2.64644
2.91309
0.701962
0.703461
0.70794
0.715483
0.724484
0.7338
0.743219
0.752841
0.76273
0.772926
0.783489
0.794482
0.806003
0.818286
0.831343
0.845331
0.860428
0.876959
0.895012
0.915393
0.937719
0.964079
0.993044
1.03078
1.07465
0.564746
0.565605
0.567363
0.570602
0.575019
0.580025
0.58532
0.590832
0.596532
0.602401
0.608439
0.614663
0.621115
0.627889
0.635031
0.642626
0.650773
0.659645
0.669312
0.680174
0.69204
0.706043
0.721017
0.741196
0.760089
0.523105
0.524175
0.525444
0.52743
0.530171
0.533405
0.536937
0.540684
0.544597
0.548639
0.552789
0.557045
0.561424
0.56597
0.570728
0.575754
0.581122
0.586949
0.593302
0.600423
0.608233
0.617418
0.627231
0.640457
0.65191
0.50998
0.511218
0.512378
0.513853
0.515777
0.518055
0.520583
0.523302
0.526166
0.529137
0.532189
0.535309
0.538501
0.541788
0.545202
0.548789
0.552605
0.556739
0.561254
0.566319
0.571905
0.578485
0.585538
0.59508
0.60307
0.508597
0.509916
0.511054
0.512287
0.51376
0.515462
0.517348
0.519387
0.521546
0.523793
0.526101
0.528455
0.53085
0.533298
0.535823
0.538459
0.541253
0.544277
0.547587
0.551315
0.555451
0.560361
0.565636
0.572865
0.578804
0.512838
0.514168
0.515292
0.516394
0.5176
0.518933
0.520387
0.521951
0.523606
0.525329
0.527096
0.528891
0.530707
0.532548
0.534431
0.536382
0.538442
0.54067
0.543115
0.545889
0.548985
0.55271
0.556716
0.562338
0.566868
0.519937
0.521227
0.522323
0.523341
0.524376
0.525466
0.526621
0.527845
0.529131
0.530462
0.531822
0.533194
0.53457
0.535952
0.537349
0.538785
0.540291
0.541918
0.54371
0.545762
0.54807
0.550907
0.553946
0.558375
0.561841
0.528458
0.529677
0.530728
0.531679
0.532598
0.533521
0.534465
0.535443
0.536455
0.537491
0.538539
0.539586
0.540624
0.54165
0.542673
0.543709
0.544786
0.545948
0.547231
0.548723
0.550412
0.552556
0.55483
0.558334
0.560946
0.53759
0.538719
0.539711
0.5406
0.541432
0.542236
0.543031
0.54383
0.544639
0.545453
0.546263
0.54706
0.547834
0.548585
0.549315
0.55004
0.550781
0.551577
0.552457
0.553505
0.5547
0.55629
0.557944
0.56071
0.562611
0.546846
0.547876
0.548798
0.549626
0.550388
0.551104
0.551791
0.55246
0.553119
0.553767
0.554398
0.555003
0.555575
0.556112
0.556615
0.557097
0.557574
0.558082
0.558642
0.559335
0.56013
0.561273
0.562416
0.564579
0.565872
0.555921
0.55685
0.557696
0.558464
0.559165
0.559814
0.560421
0.560996
0.561547
0.562072
0.562569
0.56303
0.563449
0.563822
0.564151
0.564445
0.564717
0.564998
0.565304
0.565712
0.566183
0.566961
0.567681
0.569344
0.570111
0.564624
0.565453
0.566223
0.566929
0.567577
0.568172
0.568719
0.569227
0.5697
0.570138
0.570538
0.570893
0.571198
0.57145
0.571648
0.571798
0.571912
0.572016
0.572123
0.572303
0.572511
0.572991
0.573357
0.574602
0.574912
0.572834
0.573568
0.574263
0.57491
0.575508
0.576058
0.576561
0.577022
0.57744
0.577817
0.578149
0.578429
0.578654
0.578818
0.578919
0.578964
0.578959
0.578928
0.578878
0.578879
0.578875
0.579111
0.579181
0.580075
0.579983
0.580477
0.581123
0.581746
0.582337
0.58289
0.583402
0.583871
0.584298
0.58468
0.585017
0.585304
0.585535
0.585704
0.585808
0.585843
0.585812
0.58572
0.585589
0.585419
0.585279
0.585105
0.585143
0.584966
0.585564
0.585119
0.587511
0.588077
0.588633
0.589171
0.589683
0.590162
0.590606
0.591009
0.591369
0.591681
0.591941
0.592142
0.592278
0.592344
0.592335
0.592254
0.592102
0.591898
0.591639
0.591391
0.59108
0.590958
0.590575
0.590924
0.59017
0.593916
0.59441
0.594905
0.595394
0.595869
0.596321
0.596744
0.597132
0.597479
0.597779
0.598026
0.598212
0.598331
0.598377
0.598343
0.598232
0.598041
0.597787
0.597463
0.597133
0.596716
0.596464
0.59591
0.596049
0.595026
0.599686
0.600116
0.600558
0.601003
0.601444
0.601872
0.602279
0.602658
0.602999
0.603296
0.60354
0.603723
0.603838
0.603877
0.603834
0.603707
0.603494
0.603208
0.602839
0.602448
0.601949
0.601594
0.600899
0.600862
0.599604
0.604825
0.605201
0.605595
0.606001
0.606413
0.606821
0.607216
0.607589
0.60793
0.608229
0.608478
0.608667
0.608786
0.608829
0.608786
0.608657
0.608434
0.608131
0.607732
0.607298
0.606735
0.606298
0.605487
0.605303
0.603843
0.609347
0.609676
0.610028
0.610401
0.610787
0.611178
0.611564
0.611934
0.612278
0.612584
0.612843
0.613042
0.613173
0.613226
0.613192
0.613067
0.612845
0.612534
0.612117
0.611654
0.611043
0.610543
0.609637
0.60933
0.607696
0.613265
0.613554
0.613872
0.614216
0.614581
0.614957
0.615336
0.615706
0.616055
0.616371
0.616641
0.616855
0.617
0.617068
0.617047
0.616934
0.616717
0.616406
0.61598
0.615497
0.614852
0.614301
0.613318
0.61291
0.611129
0.616597
0.616853
0.617142
0.617462
0.617808
0.618174
0.618548
0.618919
0.619274
0.6196
0.619884
0.620113
0.620275
0.62036
0.620355
0.620254
0.620048
0.619741
0.619311
0.618816
0.618144
0.617554
0.616511
0.616018
0.614116
0.61936
0.619589
0.619854
0.620154
0.620487
0.620843
0.621214
0.621587
0.621949
0.622285
0.622583
0.622827
0.623006
0.623107
0.623118
0.623031
0.622836
0.622535
0.622105
0.621602
0.620912
0.620291
0.619199
0.618637
0.616637
0.621568
0.621776
0.622023
0.622309
0.62263
0.622981
0.62335
0.623725
0.624093
0.62444
0.624749
0.625008
0.625201
0.625317
0.625342
0.625268
0.625083
0.624789
0.62436
0.623851
0.623147
0.622502
0.621373
0.620754
0.618678
0.623235
0.623428
0.623662
0.623938
0.624252
0.624598
0.624967
0.625345
0.625719
0.626074
0.626393
0.626663
0.626869
0.626996
0.627033
0.62697
0.626792
0.626503
0.626075
0.625561
0.624847
0.624182
0.623026
0.622359
0.62023
0.624372
0.624556
0.624782
0.625052
0.625363
0.625708
0.626077
0.626458
0.626837
0.627198
0.627525
0.627803
0.628017
0.628152
0.628197
0.628139
0.627966
0.627678
0.62725
0.626731
0.626009
0.625327
0.624154
0.623445
0.621289
0.624986
0.625167
0.625391
0.62566
0.62597
0.626316
0.626687
0.627071
0.627453
0.627818
0.62815
0.628433
0.62865
0.62879
0.628837
0.628781
0.628607
0.628318
0.627887
0.627361
0.626633
0.625935
0.624756
0.624009
0.621852
0.625093
0.625277
0.625504
0.625776
0.62609
0.626439
0.626814
0.627201
0.627586
0.627953
0.628286
0.628569
0.628787
0.628924
0.628968
0.628908
0.62873
0.628435
0.627997
0.627462
0.626729
0.626016
0.624838
0.624057
0.621924
0.624467
0.624663
0.624902
0.625185
0.625508
0.625864
0.626244
0.626634
0.62702
0.627386
0.627716
0.627994
0.628204
0.628333
0.628367
0.628295
0.628105
0.627797
0.627348
0.626802
0.626064
0.625341
0.624173
0.623375
0.621286
0.623097
0.623314
0.623572
0.623872
0.624209
0.624576
0.624963
0.625356
0.625741
0.626103
0.626425
0.626692
0.626888
0.627001
0.627018
0.626928
0.626719
0.626394
0.625931
0.625374
0.624632
0.623908
0.622755
0.621965
0.619936
0.620973
0.62122
0.621505
0.621828
0.622184
0.622565
0.62296
0.623357
0.62374
0.624094
0.624404
0.624655
0.624832
0.624923
0.624917
0.624803
0.624571
0.624225
0.623746
0.623179
0.622436
0.62172
0.620591
0.619834
0.617884
0.618079
0.618365
0.618685
0.619039
0.619419
0.619817
0.620222
0.620621
0.621
0.621344
0.621639
0.62187
0.622024
0.622089
0.622055
0.621914
0.621656
0.621288
0.620793
0.620219
0.619482
0.618784
0.617693
0.616991
0.615146
0.614395
0.614729
0.615093
0.615483
0.615892
0.616311
0.616728
0.61713
0.617504
0.617837
0.618114
0.618323
0.618451
0.618488
0.618425
0.618255
0.617972
0.617583
0.617076
0.616501
0.615777
0.615111
0.614075
0.613453
0.611743
0.609898
0.61029
0.610706
0.611139
0.611583
0.612025
0.612455
0.612861
0.61323
0.613551
0.61381
0.613997
0.6141
0.614109
0.614018
0.613822
0.613516
0.613113
0.6126
0.612034
0.611338
0.610719
0.60976
0.609245
0.607705
0.604563
0.605025
0.605501
0.605985
0.606467
0.606935
0.607381
0.607792
0.608157
0.608467
0.608711
0.608878
0.608959
0.608946
0.608832
0.608616
0.608296
0.607887
0.607382
0.606839
0.606187
0.605638
0.604781
0.604405
0.603073
0.598371
0.598913
0.599459
0.599999
0.600524
0.601022
0.601485
0.601903
0.602268
0.602571
0.602804
0.602958
0.603025
0.602997
0.602871
0.602647
0.602326
0.601926
0.601446
0.600948
0.600363
0.599911
0.599187
0.598987
0.597906
0.591312
0.591946
0.592568
0.59317
0.593741
0.594272
0.594755
0.595184
0.595553
0.595857
0.596088
0.59624
0.596305
0.596277
0.596155
0.59594
0.595637
0.595269
0.594837
0.59441
0.593923
0.593602
0.59305
0.593069
0.592289
0.58339
0.584125
0.584831
0.585499
0.58612
0.586685
0.587191
0.587637
0.58802
0.588336
0.58858
0.588746
0.588828
0.588822
0.588725
0.588544
0.588286
0.587978
0.587627
0.587305
0.586954
0.586805
0.58647
0.586762
0.586337
0.574635
0.57548
0.576274
0.57701
0.577681
0.578284
0.57882
0.579293
0.579702
0.580048
0.580325
0.580529
0.580655
0.580698
0.580658
0.580543
0.580365
0.580155
0.579924
0.579752
0.579583
0.579658
0.579596
0.580225
0.580216
0.565117
0.566076
0.566958
0.567761
0.568484
0.569129
0.569705
0.570219
0.570675
0.571075
0.571416
0.571691
0.571895
0.572025
0.572081
0.572075
0.572021
0.571957
0.571897
0.571929
0.572002
0.572365
0.572643
0.573686
0.574165
0.554962
0.556035
0.557002
0.55787
0.558646
0.559341
0.559971
0.56055
0.561084
0.561574
0.562017
0.562407
0.562736
0.563001
0.563205
0.563361
0.563489
0.56363
0.563806
0.564111
0.564497
0.565229
0.565926
0.567483
0.568529
0.54439
0.545574
0.546617
0.547547
0.54838
0.549139
0.54985
0.550529
0.551183
0.551814
0.552414
0.552975
0.55349
0.553953
0.554369
0.554755
0.555135
0.555559
0.55605
0.556715
0.557504
0.558707
0.559921
0.562123
0.563827
0.53423
0.535515
0.53662
0.537605
0.538504
0.539351
0.54018
0.541007
0.541837
0.542667
0.543488
0.544286
0.545052
0.545781
0.54648
0.547171
0.54788
0.548666
0.549557
0.550674
0.55196
0.553741
0.555572
0.558554
0.560998
0.525433
0.5268
0.527948
0.528989
0.529973
0.530943
0.531935
0.532963
0.534025
0.535113
0.536211
0.537304
0.53838
0.539435
0.540478
0.541534
0.542638
0.543855
0.545218
0.546863
0.548725
0.55117
0.553703
0.557573
0.560826
0.518478
0.519901
0.521076
0.52218
0.52328
0.52442
0.525632
0.526921
0.528276
0.529681
0.531115
0.532561
0.534004
0.535443
0.536889
0.538375
0.539939
0.541656
0.543565
0.545818
0.548339
0.55154
0.554869
0.55974
0.563898
0.513835
0.515281
0.516468
0.517659
0.518923
0.520296
0.521794
0.523411
0.525124
0.526908
0.528739
0.530597
0.532468
0.534353
0.536267
0.538249
0.540345
0.54264
0.545177
0.548126
0.551404
0.555467
0.559708
0.565712
0.570911
0.512055
0.513485
0.514679
0.515998
0.517495
0.519177
0.52104
0.523059
0.5252
0.527432
0.529726
0.532061
0.534427
0.536828
0.539283
0.54184
0.54455
0.547512
0.550775
0.554528
0.558679
0.563737
0.569034
0.576342
0.582768
0.513823
0.515203
0.516417
0.517931
0.519754
0.521842
0.524161
0.526668
0.529317
0.532072
0.534905
0.537796
0.540737
0.543736
0.546821
0.550047
0.553475
0.557217
0.561329
0.566022
0.571195
0.577419
0.583958
0.5928
0.600718
0.520073
0.521384
0.52266
0.524475
0.526749
0.52936
0.532245
0.53534
0.538593
0.541965
0.545432
0.548975
0.552592
0.556299
0.56013
0.56415
0.568431
0.573101
0.578224
0.584042
0.590436
0.598064
0.606099
0.616794
0.62659
0.532183
0.533442
0.534868
0.537142
0.540032
0.543316
0.546901
0.550711
0.554691
0.558804
0.56303
0.567359
0.571793
0.576356
0.581094
0.586081
0.591403
0.597211
0.603575
0.610776
0.618676
0.628045
0.63794
0.650952
0.663211
0.552354
0.553641
0.55538
0.558343
0.562075
0.566229
0.570694
0.575393
0.580271
0.585301
0.590471
0.595779
0.601236
0.606878
0.612758
0.618971
0.625616
0.632872
0.640818
0.649793
0.659625
0.671243
0.683555
0.699588
0.715243
0.584414
0.585921
0.588253
0.592261
0.597158
0.602462
0.60807
0.613916
0.619956
0.626177
0.632579
0.639172
0.64598
0.653053
0.660454
0.668302
0.676719
0.68592
0.695998
0.707371
0.719822
0.734509
0.750146
0.770345
0.790981
0.635735
0.637865
0.641294
0.646925
0.653494
0.660391
0.667572
0.675
0.682651
0.690533
0.698668
0.707081
0.715811
0.724925
0.734508
0.74471
0.755683
0.767703
0.780876
0.795748
0.812036
0.831234
0.851836
0.878189
0.906798
0.722657
0.726269
0.731823
0.740154
0.749301
0.758611
0.768182
0.778034
0.788175
0.798647
0.809504
0.820795
0.832582
0.844951
0.858028
0.872019
0.88712
0.903704
0.92191
0.942488
0.965084
0.991682
1.02066
1.05705
1.10015
0.89018
0.897432
0.907795
0.921313
0.93506
0.948683
0.962591
0.976884
0.991634
1.00694
1.02292
1.03967
1.05726
1.07585
1.09564
1.11694
1.14003
1.16548
1.19351
1.22523
1.26035
1.30142
1.34758
1.40325
1.47855
1.3188
1.33829
1.36465
1.39175
1.4166
1.44101
1.46594
1.49159
1.51825
1.54613
1.57558
1.60667
1.63962
1.67476
1.71248
1.75334
1.79798
1.8473
1.90212
1.96391
2.03392
2.11355
2.2101
2.3141
2.49188
3.4901
3.61478
3.75977
3.85543
3.93167
4.0101
4.09035
4.17296
4.25968
4.35129
4.44842
4.55183
4.66249
4.78131
4.90998
5.04953
5.20392
5.37244
5.56651
5.77317
6.03374
6.27813
6.67489
6.91596
7.7635
)
;

boundaryField
{
    inlet
    {
        type            fixedValue;
        value           nonuniform 0();
    }
    outlet
    {
        type            zeroGradient;
    }
    upperWall
    {
        Cmu             0.09;
        kappa           0.41;
        E               9.8;
        type            epsilonWallFunction;
        value           nonuniform List<scalar> 
53
(
3.16836
3.17837
3.1885
3.19877
3.20916
3.2197
3.23037
3.24116
3.25209
3.26314
3.2743
3.28556
3.29689
3.30827
3.31965
3.33097
3.34215
3.35307
3.36357
3.3734
3.38225
3.38948
3.3945
3.39518
3.39068
3.36986
3.32712
3.18285
3.4901
3.61478
3.75977
3.85543
3.93167
4.0101
4.09035
4.17296
4.25968
4.35129
4.44842
4.55183
4.66249
4.78131
4.90998
5.04953
5.20392
5.37244
5.56651
5.77317
6.03374
6.27813
6.67489
6.91596
7.7635
)
;
    }
    lowerWall
    {
        Cmu             0.09;
        kappa           0.41;
        E               9.8;
        type            epsilonWallFunction;
        value           nonuniform List<scalar> 
55
(
1.45778
1.45907
1.46039
1.46174
1.4631
1.46449
1.46589
1.4673
1.46873
1.47016
1.4716
1.47303
1.47444
1.47584
1.47721
1.47852
1.47977
1.48093
1.48195
1.48278
1.48336
1.48358
1.48329
1.48224
1.48007
1.47612
1.4692
1.45684
1.4346
1.39368
1.48491
1.53011
1.57628
1.61822
1.65232
1.68249
1.71222
1.74251
1.77355
1.80576
1.83956
1.87518
1.91284
1.95313
1.99646
2.04335
2.09468
2.15095
2.21406
2.28277
2.36452
2.44597
2.56654
2.64644
2.91309
)
;
    }
    frontAndBack
    {
        type            empty;
    }
    procBoundary0to1
    {
        type            processor;
        value           nonuniform List<scalar> 
59
(
1.45651
0.673082
0.549256
0.514531
0.505729
0.50737
0.513835
0.522596
0.532355
0.542386
0.552265
0.561576
0.561576
0.570471
0.578725
0.58629
0.593212
0.599354
0.604629
0.609131
0.612943
0.616135
0.618767
0.620888
0.622539
0.623753
0.624557
0.624975
0.625029
0.624606
0.623693
0.622277
0.620337
0.617849
0.614782
0.611104
0.606778
0.601764
0.596022
0.589608
0.582465
0.574341
0.56513
0.55505
0.54448
0.533545
0.522569
0.513764
0.50867
0.507913
0.507913
0.512827
0.525332
0.548846
0.58989