/*--------------------------------*- C++ -*----------------------------------*\
  =========                 |
  \\      /  F ield         | OpenFOAM: The Open Source CFD Toolbox
   \\    /   O peration     | Website:  https://openfoam.org
    \\  /    A nd           | Version:  6
     \\/     M anipulation  |
\*---------------------------------------------------------------------------*/
FoamFile
{
    version     2.0;
    format      ascii;
    class       volScalarField;
    location    "0.1";
    object      k;
}
// * * * * * * * * * * * * * * * * * * * * * * * * * * * * * * * * * * * * * //

dimensions      [0 2 -2 0 0 0 0];

internalField   nonuniform List<scalar> 
3080
(
0.0146004
0.0145938
0.0145873
0.0145807
0.0145742
0.0145676
0.014561
0.0145544
0.0145476
0.0145408
0.0145338
0.0145266
0.0145191
0.0145114
0.0145033
0.0144947
0.0144854
0.0144754
0.0144644
0.014452
0.0144377
0.0144209
0.0144007
0.0143754
0.0143427
0.0142983
0.0142346
0.0141357
0.0139725
0.0136871
0.0271047
0.0270897
0.0270746
0.0270595
0.0270444
0.0270292
0.0270139
0.0269984
0.0269828
0.0269669
0.0269507
0.0269342
0.0269174
0.0269
0.026882
0.0268632
0.0268435
0.0268226
0.0268001
0.0267756
0.0267484
0.0267175
0.0266816
0.0266383
0.0265843
0.0265135
0.0264145
0.0262703
0.0260267
0.0257517
0.0342543
0.0342344
0.0342145
0.0341947
0.0341747
0.0341547
0.0341346
0.0341143
0.0340937
0.0340729
0.0340518
0.0340303
0.0340083
0.0339857
0.0339625
0.0339384
0.0339133
0.0338868
0.0338587
0.0338283
0.033795
0.0337578
0.0337153
0.0336652
0.0336042
0.0335267
0.0334228
0.0332769
0.0330521
0.0327644
0.03947
0.0394465
0.039423
0.0393995
0.039376
0.0393523
0.0393285
0.0393045
0.0392803
0.0392558
0.0392309
0.0392057
0.0391799
0.0391535
0.0391264
0.0390985
0.0390694
0.039039
0.0390068
0.0389724
0.038935
0.0388938
0.0388472
0.0387933
0.038729
0.0386493
0.0385461
0.0384071
0.0382095
0.0379625
0.0437223
0.0436959
0.0436695
0.0436431
0.0436167
0.0435901
0.0435634
0.0435365
0.0435093
0.0434819
0.043454
0.0434258
0.043397
0.0433676
0.0433374
0.0433064
0.0432742
0.0432406
0.0432053
0.0431677
0.0431272
0.0430828
0.0430332
0.0429765
0.0429099
0.042829
0.0427271
0.0425944
0.0424169
0.0422048
0.0473615
0.0473328
0.0473042
0.0472755
0.0472467
0.0472179
0.0471888
0.0471596
0.0471301
0.0471003
0.0470701
0.0470395
0.0470083
0.0469765
0.0469439
0.0469104
0.0468758
0.0468397
0.0468019
0.0467619
0.0467189
0.0466721
0.0466203
0.0465616
0.0464934
0.046412
0.0463117
0.0461849
0.0460228
0.0458373
0.0505533
0.0505229
0.0504925
0.050462
0.0504315
0.0504009
0.0503701
0.0503391
0.0503078
0.0502762
0.0502442
0.0502117
0.0501787
0.050145
0.0501106
0.0500752
0.0500387
0.0500008
0.0499611
0.0499192
0.0498744
0.0498259
0.0497726
0.0497126
0.0496437
0.0495625
0.0494643
0.0493432
0.049194
0.0490292
0.0533903
0.0533586
0.0533269
0.0532952
0.0532634
0.0532315
0.0531994
0.0531671
0.0531345
0.0531016
0.0530683
0.0530345
0.0530002
0.0529652
0.0529294
0.0528927
0.0528548
0.0528156
0.0527746
0.0527315
0.0526855
0.0526359
0.0525817
0.0525211
0.0524522
0.052372
0.0522765
0.0521613
0.0520234
0.0518755
0.0559305
0.055898
0.0558655
0.0558329
0.0558003
0.0557676
0.0557347
0.0557015
0.0556681
0.0556344
0.0556002
0.0555656
0.0555304
0.0554945
0.0554579
0.0554203
0.0553817
0.0553416
0.0552999
0.055256
0.0552095
0.0551594
0.0551049
0.0550444
0.0549762
0.0548976
0.0548055
0.0546963
0.0545688
0.0544353
0.0582137
0.0581808
0.0581479
0.0581149
0.0580819
0.0580488
0.0580155
0.0579819
0.0579481
0.0579139
0.0578793
0.0578442
0.0578086
0.0577724
0.0577354
0.0576974
0.0576584
0.057618
0.057576
0.057532
0.0574853
0.0574354
0.0573812
0.0573214
0.0572545
0.0571782
0.0570899
0.056987
0.0568693
0.0567484
0.060269
0.060236
0.0602031
0.0601701
0.0601371
0.0601039
0.0600706
0.060037
0.0600031
0.0599689
0.0599343
0.0598993
0.0598636
0.0598274
0.0597904
0.0597525
0.0597136
0.0596733
0.0596315
0.0595877
0.0595415
0.0594921
0.0594388
0.0593803
0.0593153
0.0592419
0.0591578
0.0590613
0.058953
0.0588435
0.0620861
0.0620535
0.0620209
0.0619881
0.0619553
0.0619223
0.061889
0.0618555
0.0618216
0.0617874
0.0617527
0.0617174
0.0616816
0.061645
0.0616075
0.0615691
0.0615294
0.0614881
0.0614451
0.0613997
0.0613514
0.0612994
0.0612427
0.0611801
0.06111
0.0610306
0.0609407
0.0608412
0.0607421
0.0637489
0.063717
0.0636851
0.063653
0.0636208
0.0635885
0.0635559
0.063523
0.0634899
0.0634563
0.0634223
0.0633877
0.0633526
0.0633168
0.0632801
0.0632425
0.0632037
0.0631635
0.0631215
0.0630774
0.0630305
0.0629803
0.0629259
0.0628661
0.0627996
0.0627252
0.0626419
0.062551
0.0624615
0.0652396
0.0652087
0.0651777
0.0651466
0.0651154
0.065084
0.0650524
0.0650205
0.0649883
0.0649558
0.0649228
0.0648893
0.0648552
0.0648205
0.0647849
0.0647485
0.0647109
0.064672
0.0646315
0.064589
0.064544
0.064496
0.0644441
0.0643874
0.064325
0.0642557
0.064179
0.0640964
0.0640159
0.066571
0.0665413
0.0665116
0.0664818
0.0664518
0.0664216
0.0663913
0.0663607
0.0663297
0.0662984
0.0662667
0.0662346
0.0662018
0.0661685
0.0661344
0.0660994
0.0660634
0.0660261
0.0659874
0.0659468
0.065904
0.0658584
0.0658094
0.0657562
0.065698
0.065634
0.0655638
0.0654892
0.065417
0.0677654
0.067737
0.0677084
0.0676797
0.0676509
0.0676219
0.0675927
0.0675633
0.0675335
0.0675034
0.0674729
0.0674419
0.0674104
0.0673783
0.0673455
0.0673119
0.0672773
0.0672416
0.0672045
0.0671657
0.0671249
0.0670816
0.0670353
0.0669854
0.0669311
0.066872
0.0668079
0.0667403
0.0666756
0.0688099
0.0687832
0.0687564
0.0687295
0.0687024
0.0686752
0.0686477
0.06862
0.068592
0.0685637
0.068535
0.0685059
0.0684762
0.068446
0.0684152
0.0683835
0.068351
0.0683174
0.0682826
0.0682463
0.0682082
0.0681679
0.0681249
0.0680788
0.0680291
0.0679753
0.0679175
0.0678572
0.0677998
0.0696978
0.0696738
0.0696497
0.0696255
0.0696011
0.0695767
0.069552
0.0695271
0.0695019
0.0694765
0.0694507
0.0694244
0.0693978
0.0693706
0.0693428
0.0693144
0.0692851
0.0692549
0.0692236
0.0691909
0.0691567
0.0691206
0.0690822
0.0690411
0.0689971
0.0689497
0.0688992
0.068847
0.0687978
0.0704499
0.0704291
0.0704083
0.0703874
0.0703664
0.0703453
0.070324
0.0703025
0.0702808
0.0702588
0.0702365
0.0702139
0.0701908
0.0701673
0.0701433
0.0701187
0.0700934
0.0700672
0.0700401
0.0700119
0.0699822
0.069951
0.0699179
0.0698825
0.0698447
0.0698043
0.0697615
0.0697177
0.0696769
0.0710831
0.0710659
0.0710486
0.0710313
0.0710138
0.0709963
0.0709787
0.0709609
0.0709429
0.0709246
0.0709062
0.0708874
0.0708683
0.0708488
0.0708289
0.0708084
0.0707874
0.0707656
0.070743
0.0707194
0.0706947
0.0706687
0.070641
0.0706117
0.0705803
0.0705469
0.0705119
0.0704764
0.0704439
0.0716114
0.0715976
0.0715839
0.0715701
0.0715563
0.0715423
0.0715284
0.0715143
0.0715
0.0714856
0.071471
0.0714561
0.071441
0.0714255
0.0714097
0.0713934
0.0713766
0.0713592
0.0713412
0.0713223
0.0713025
0.0712816
0.0712595
0.0712359
0.0712109
0.0711844
0.0711568
0.0711292
0.0711045
0.0720457
0.0720353
0.0720249
0.0720145
0.0720041
0.0719937
0.0719832
0.0719726
0.0719619
0.0719511
0.0719401
0.071929
0.0719176
0.071906
0.0718941
0.0718818
0.0718691
0.0718559
0.0718422
0.0718278
0.0718127
0.0717967
0.0717797
0.0717616
0.0717425
0.0717224
0.0717016
0.0716813
0.0716637
0.0723953
0.072388
0.0723806
0.0723733
0.072366
0.0723586
0.0723513
0.0723439
0.0723365
0.072329
0.0723213
0.0723136
0.0723056
0.0722975
0.0722891
0.0722804
0.0722714
0.0722621
0.0722523
0.0722419
0.072231
0.0722194
0.0722071
0.072194
0.0721801
0.0721657
0.072151
0.0721371
0.0721258
0.0726676
0.0726628
0.0726581
0.0726534
0.0726488
0.0726441
0.0726395
0.0726349
0.0726302
0.0726255
0.0726207
0.0726159
0.0726109
0.0726057
0.0726004
0.0725948
0.072589
0.0725829
0.0725765
0.0725696
0.0725623
0.0725545
0.0725462
0.0725373
0.0725279
0.0725183
0.0725089
0.0725004
0.0724943
0.0728685
0.0728659
0.0728632
0.0728607
0.0728581
0.0728557
0.0728532
0.0728508
0.0728484
0.0728459
0.0728434
0.0728409
0.0728382
0.0728355
0.0728326
0.0728295
0.0728263
0.0728228
0.072819
0.0728149
0.0728105
0.0728057
0.0728006
0.072795
0.0727893
0.0727835
0.0727782
0.072774
0.0727721
0.0730029
0.0730018
0.0730007
0.0729996
0.0729986
0.0729977
0.0729968
0.0729959
0.0729951
0.0729942
0.0729934
0.0729924
0.0729915
0.0729904
0.0729893
0.072988
0.0729865
0.0729849
0.072983
0.072981
0.0729786
0.072976
0.0729731
0.0729699
0.0729668
0.0729637
0.0729613
0.0729602
0.0729614
0.0730745
0.0730743
0.073074
0.0730738
0.0730737
0.0730736
0.0730736
0.0730736
0.0730736
0.0730737
0.0730737
0.0730736
0.0730736
0.0730734
0.0730732
0.0730729
0.0730724
0.0730718
0.073071
0.07307
0.0730688
0.0730673
0.0730657
0.0730639
0.0730621
0.0730607
0.0730599
0.0730605
0.0730634
0.0730874
0.0730874
0.0730873
0.0730873
0.0730873
0.0730873
0.0730874
0.0730875
0.0730876
0.0730877
0.0730878
0.0730879
0.0730879
0.0730879
0.0730877
0.0730875
0.0730871
0.0730866
0.0730859
0.073085
0.0730839
0.0730826
0.0730811
0.0730795
0.0730779
0.0730767
0.0730762
0.0730772
0.0730806
0.0730213
0.0730203
0.0730192
0.0730182
0.0730171
0.0730161
0.073015
0.073014
0.0730129
0.0730118
0.0730106
0.0730094
0.0730081
0.0730067
0.0730052
0.0730036
0.0730018
0.0729999
0.0729977
0.0729953
0.0729927
0.0729898
0.0729866
0.0729833
0.07298
0.0729769
0.0729745
0.0729736
0.0729753
0.0728734
0.0728702
0.072867
0.0728638
0.0728604
0.0728571
0.0728537
0.0728502
0.0728466
0.072843
0.0728393
0.0728355
0.0728315
0.0728274
0.0728232
0.0728187
0.0728141
0.0728092
0.072804
0.0727985
0.0727927
0.0727865
0.0727799
0.072773
0.0727659
0.0727589
0.0727524
0.0727473
0.0727453
0.0726409
0.0726345
0.072628
0.0726213
0.0726145
0.0726077
0.0726007
0.0725935
0.0725862
0.0725788
0.0725712
0.0725635
0.0725555
0.0725474
0.0725389
0.0725303
0.0725213
0.072512
0.0725023
0.0724921
0.0724815
0.0724703
0.0724585
0.0724463
0.0724335
0.0724205
0.0724078
0.0723963
0.0723884
0.0723201
0.0723094
0.0722984
0.0722872
0.0722758
0.0722642
0.0722524
0.0722404
0.0722281
0.0722156
0.0722029
0.0721899
0.0721766
0.072163
0.072149
0.0721347
0.0721199
0.0721047
0.0720889
0.0720725
0.0720555
0.0720377
0.072019
0.0719995
0.0719791
0.0719581
0.071937
0.0719171
0.0719011
0.0719066
0.0718904
0.0718738
0.0718569
0.0718397
0.0718221
0.0718043
0.0717861
0.0717676
0.0717488
0.0717296
0.07171
0.07169
0.0716696
0.0716486
0.0716272
0.0716052
0.0715826
0.0715592
0.0715351
0.07151
0.0714838
0.0714565
0.0714279
0.0713981
0.071367
0.0713354
0.0713046
0.0712785
0.0713948
0.0713719
0.0713485
0.0713247
0.0713004
0.0712757
0.0712506
0.071225
0.071199
0.0711725
0.0711455
0.071118
0.0710899
0.0710612
0.0710319
0.071002
0.0709713
0.0709397
0.0709072
0.0708736
0.0708389
0.0708027
0.070765
0.0707255
0.0706842
0.070641
0.0705967
0.0705529
0.0705143
0.0707777
0.070747
0.0707156
0.0706837
0.0706512
0.0706181
0.0705844
0.0705501
0.0705153
0.0704797
0.0704436
0.0704068
0.0703692
0.0703309
0.0702918
0.0702518
0.0702108
0.0701688
0.0701256
0.070081
0.0700349
0.069987
0.0699371
0.0698848
0.06983
0.0697727
0.0697135
0.0696542
0.069601
0.0700476
0.0700078
0.0699672
0.0699259
0.0698839
0.0698411
0.0697975
0.0697533
0.0697082
0.0696623
0.0696156
0.0695681
0.0695196
0.0694702
0.0694197
0.0693682
0.0693155
0.0692614
0.0692058
0.0691486
0.0690894
0.069028
0.0689641
0.0688972
0.068827
0.0687534
0.0686769
0.0685998
0.0685295
0.0691949
0.0691448
0.0690938
0.0690418
0.0689889
0.0689351
0.0688804
0.0688248
0.0687681
0.0687105
0.0686518
0.0685921
0.0685312
0.0684692
0.0684059
0.0683413
0.0682752
0.0682074
0.0681379
0.0680663
0.0679923
0.0679157
0.0678358
0.0677524
0.0676648
0.0675728
0.0674768
0.0673794
0.0672895
0.0682087
0.068147
0.0680842
0.0680203
0.0679553
0.0678891
0.0678218
0.0677534
0.0676838
0.0676129
0.0675408
0.0674674
0.0673927
0.0673165
0.0672388
0.0671594
0.0670783
0.0669953
0.0669101
0.0668224
0.0667319
0.0666382
0.0665407
0.0664387
0.0663317
0.0662191
0.0661013
0.0659811
0.065869
0.0670918
0.0670169
0.0669407
0.066863
0.0667841
0.0667038
0.0666221
0.066539
0.0664544
0.0663685
0.0662809
0.0661919
0.0661011
0.0660087
0.0659145
0.0658182
0.0657199
0.0656193
0.0655161
0.06541
0.0653006
0.0651874
0.0650696
0.0649466
0.0648175
0.0646815
0.0645389
0.0643925
0.0642548
0.065826
0.0657362
0.0656448
0.0655519
0.0654573
0.0653611
0.0652632
0.0651637
0.0650624
0.0649594
0.0648546
0.0647479
0.0646392
0.0645286
0.0644157
0.0643006
0.0641829
0.0640626
0.0639392
0.0638125
0.0636818
0.0635468
0.0634064
0.0632599
0.0631062
0.0629442
0.0627739
0.0625983
0.0624315
0.0643534
0.064248
0.0641408
0.0640318
0.0639208
0.063808
0.0636933
0.0635766
0.0634579
0.0633372
0.0632143
0.0630893
0.062962
0.0628324
0.0627002
0.0625653
0.0624276
0.0622868
0.0621425
0.0619944
0.0618418
0.0616842
0.0615205
0.0613498
0.0611707
0.0609819
0.0607831
0.0605768
0.0603792
0.0626295
0.0625085
0.0623853
0.06226
0.0621326
0.0620031
0.0618714
0.0617374
0.0616012
0.0614626
0.0613217
0.0611782
0.0610322
0.0608835
0.060732
0.0605774
0.0604196
0.0602583
0.0600932
0.0599237
0.0597493
0.0595692
0.0593824
0.0591877
0.0589835
0.0587681
0.0585408
0.0583037
0.0580746
0.0606558
0.0605208
0.0603835
0.0602438
0.0601019
0.0599576
0.0598109
0.0596617
0.0595101
0.0593559
0.059199
0.0590395
0.0588771
0.0587118
0.0585434
0.0583717
0.0581965
0.0580174
0.0578341
0.0576461
0.0574528
0.0572533
0.0570465
0.0568311
0.0566051
0.0563666
0.0561143
0.0558494
0.0555918
0.0584516
0.0583074
0.0581609
0.0580119
0.0578606
0.0577068
0.0575505
0.0573916
0.0572302
0.0570661
0.0568993
0.0567297
0.0565572
0.0563815
0.0562027
0.0560205
0.0558345
0.0556446
0.0554503
0.0552511
0.0550463
0.0548351
0.0546162
0.0543881
0.0541487
0.0538957
0.0536272
0.0533432
0.0530656
0.0559495
0.0558036
0.0556553
0.0555047
0.0553518
0.0551965
0.0550388
0.0548786
0.0547159
0.0545507
0.0543828
0.0542121
0.0540386
0.0538622
0.0536826
0.0534996
0.0533131
0.0531226
0.0529279
0.0527283
0.0525231
0.0523114
0.052092
0.0518631
0.0516226
0.0513675
0.0510959
0.0508056
0.0505212
0.0530337
0.0528969
0.0527581
0.0526172
0.0524743
0.0523292
0.0521821
0.0520328
0.0518813
0.0517275
0.0515714
0.0514128
0.0512518
0.0510881
0.0509217
0.0507522
0.0505795
0.0504033
0.0502231
0.0500384
0.0498485
0.0496525
0.049449
0.0492362
0.0490118
0.0487723
0.0485155
0.048237
0.0479641
0.0499328
0.049811
0.0496874
0.0495621
0.0494351
0.0493063
0.0491757
0.0490433
0.048909
0.0487728
0.0486347
0.0484945
0.0483521
0.0482075
0.0480605
0.0479109
0.0477585
0.047603
0.0474439
0.0472807
0.0471128
0.046939
0.0467582
0.0465683
0.046367
0.0461502
0.0459153
0.0456555
0.0454016
0.0469722
0.0468621
0.0467505
0.0466373
0.0465227
0.0464064
0.0462887
0.0461693
0.0460483
0.0459256
0.0458012
0.045675
0.0455469
0.0454168
0.0452846
0.04515
0.0450129
0.0448729
0.0447297
0.0445827
0.0444311
0.044274
0.0441101
0.0439372
0.0437528
0.0435525
0.0433332
0.0430851
0.042843
0.0439179
0.0438182
0.0437172
0.0436148
0.0435111
0.0434061
0.0432996
0.0431917
0.0430823
0.0429715
0.042859
0.0427448
0.0426289
0.0425111
0.0423912
0.0422689
0.0421441
0.0420162
0.0418848
0.0417491
0.0416081
0.0414604
0.0413039
0.041136
0.0409514
0.040747
0.0405094
0.0402777
0.0409708
0.0408827
0.0407935
0.0407031
0.0406115
0.0405187
0.0404247
0.0403295
0.0402329
0.0401351
0.0400358
0.039935
0.0398327
0.0397287
0.0396227
0.0395147
0.0394043
0.0392911
0.0391745
0.0390539
0.0389282
0.038796
0.0386551
0.0385027
0.0383332
0.0381426
0.037914
0.0376899
0.0379997
0.0379227
0.0378446
0.0377656
0.0376856
0.0376045
0.0375224
0.0374391
0.0373548
0.0372692
0.0371825
0.0370944
0.0370049
0.0369139
0.0368212
0.0367266
0.0366298
0.0365303
0.0364278
0.0363214
0.0362101
0.0360925
0.0359663
0.0358285
0.0356732
0.0354955
0.0352738
0.0350539
0.034965
0.0348984
0.034831
0.0347628
0.0346936
0.0346236
0.0345526
0.0344807
0.0344078
0.0343339
0.0342589
0.0341827
0.0341053
0.0340266
0.0339463
0.0338642
0.0337801
0.0336937
0.0336042
0.0335112
0.0334134
0.0333095
0.0331971
0.0330732
0.0329312
0.0327652
0.0325486
0.0323283
0.0317978
0.0317411
0.0316837
0.0316256
0.0315667
0.0315071
0.0314467
0.0313854
0.0313233
0.0312603
0.0311964
0.0311315
0.0310655
0.0309982
0.0309296
0.0308593
0.0307873
0.030713
0.0306359
0.0305554
0.0304703
0.0303794
0.0302801
0.0301693
0.03004
0.029885
0.0296715
0.0294453
0.0283722
0.028325
0.0282771
0.0282287
0.0281796
0.0281299
0.0280795
0.0280284
0.0279766
0.0279241
0.0278707
0.0278165
0.0277613
0.027705
0.0276475
0.0275885
0.0275279
0.0274652
0.0274
0.0273315
0.0272587
0.0271803
0.0270937
0.0269956
0.026879
0.0267347
0.0265228
0.0262861
0.024426
0.0243881
0.0243498
0.0243109
0.0242716
0.0242317
0.0241912
0.0241502
0.0241086
0.0240664
0.0240235
0.0239799
0.0239354
0.02389
0.0238436
0.0237959
0.0237467
0.0236956
0.0236422
0.0235859
0.0235255
0.0234598
0.0233864
0.0233018
0.0231989
0.0230665
0.0228571
0.0226121
0.0192767
0.0192493
0.0192216
0.0191935
0.019165
0.0191361
0.0191068
0.0190771
0.0190469
0.0190163
0.0189851
0.0189534
0.018921
0.0188879
0.0188539
0.0188189
0.0187827
0.0187449
0.0187052
0.0186629
0.0186172
0.0185668
0.0185098
0.0184425
0.0183591
0.0182464
0.0180548
0.0178454
0.0110343
0.0110242
0.0110138
0.0110033
0.0109926
0.0109817
0.0109706
0.0109593
0.0109478
0.010936
0.0109238
0.0109114
0.0108986
0.0108852
0.0108713
0.0108568
0.0108413
0.0108246
0.0108065
0.0107863
0.0107635
0.0107366
0.0107045
0.0106628
0.0106098
0.0105223
0.010389
0.010043
0.0141761
0.0143795
0.0145797
0.0147443
0.0148526
0.0149292
0.0149952
0.015056
0.0151125
0.0151663
0.0152192
0.0152716
0.0153237
0.0153774
0.0154335
0.0154931
0.0155588
0.0156308
0.0157159
0.0158052
0.0159292
0.0160241
0.0162553
0.0162797
0.0170059
0.0264464
0.0267564
0.0269179
0.02704
0.0271257
0.0271796
0.0272143
0.0272369
0.0272496
0.0272531
0.0272485
0.027236
0.0272154
0.0271868
0.027153
0.0271152
0.0270757
0.0270343
0.0269978
0.0269553
0.0269357
0.0268774
0.0269233
0.0267959
0.0273086
0.0332596
0.0335947
0.0337996
0.033949
0.0340566
0.0341286
0.0341745
0.0342014
0.0342123
0.034209
0.0341927
0.0341641
0.0341234
0.0340707
0.0340085
0.0339383
0.033863
0.0337833
0.0337055
0.0336208
0.0335533
0.0334534
0.0334351
0.0332913
0.0336869
0.0383275
0.0386299
0.0388297
0.038977
0.0390856
0.0391606
0.0392085
0.0392348
0.0392424
0.039233
0.0392076
0.0391671
0.0391118
0.0390421
0.0389599
0.038867
0.0387663
0.0386591
0.0385509
0.038436
0.0383325
0.0382057
0.038138
0.0379955
0.0382913
0.0424906
0.0427594
0.0429455
0.0430831
0.0431851
0.043256
0.0433007
0.043323
0.0433253
0.0433091
0.0432753
0.0432243
0.0431566
0.0430727
0.042974
0.0428624
0.0427407
0.0426106
0.0424768
0.0423362
0.042202
0.0420508
0.0419419
0.0417937
0.0420058
0.0460694
0.0463089
0.0464804
0.0466072
0.0467007
0.0467651
0.0468042
0.0468211
0.0468176
0.0467946
0.046753
0.0466929
0.0466147
0.0465187
0.0464063
0.0462791
0.0461397
0.0459902
0.0458346
0.0456714
0.0455105
0.0453369
0.0451923
0.045033
0.0451724
0.0492215
0.0494348
0.0495921
0.0497086
0.0497936
0.0498511
0.0498842
0.0498954
0.0498861
0.0498571
0.0498086
0.0497408
0.0496539
0.0495481
0.0494244
0.0492844
0.0491303
0.0489645
0.0487903
0.0486076
0.0484235
0.0482293
0.0480534
0.0478799
0.0479545
0.0520363
0.0522259
0.0523692
0.0524759
0.052553
0.0526041
0.0526316
0.0526376
0.0526232
0.0525889
0.0525348
0.0524609
0.052367
0.0522534
0.0521207
0.0519704
0.0518045
0.0516253
0.0514355
0.051236
0.0510319
0.0508192
0.0506158
0.0504266
0.0504425
0.0545702
0.054738
0.0548677
0.054965
0.0550348
0.05508
0.0551026
0.0551042
0.0550856
0.0550472
0.0549887
0.0549101
0.0548111
0.0546916
0.0545522
0.054394
0.0542188
0.0540287
0.0538262
0.0536127
0.0533914
0.0531623
0.0529347
0.0527293
0.0526918
0.0568616
0.0570092
0.0571256
0.0572138
0.0572768
0.0573168
0.0573352
0.0573332
0.0573115
0.05727
0.0572086
0.0571268
0.0570243
0.0569008
0.0567566
0.0565927
0.0564106
0.0562121
0.0559994
0.0557743
0.0555385
0.0552952
0.0550463
0.0548251
0.0547385
0.0589381
0.0590672
0.0591708
0.0592501
0.0593067
0.059342
0.059357
0.0593523
0.0593284
0.059285
0.0592218
0.0591382
0.0590337
0.0589079
0.0587609
0.0585932
0.0584063
0.0582017
0.057981
0.0577467
0.0574989
0.0572434
0.0569758
0.0567391
0.0566079
0.0608209
0.0609329
0.0610243
0.061095
0.0611457
0.0611768
0.0611889
0.0611823
0.061157
0.0611128
0.061049
0.0609648
0.0608597
0.0607331
0.0605848
0.0604153
0.0602254
0.0600167
0.0597903
0.0595488
0.0592912
0.0590254
0.0587416
0.0584901
0.0583184
0.0625267
0.0626232
0.0627031
0.0627656
0.0628106
0.062838
0.0628477
0.0628399
0.0628141
0.0627698
0.0627064
0.0626228
0.0625184
0.0623923
0.0622442
0.0620743
0.0618831
0.0616721
0.0614417
0.061195
0.0609297
0.0606553
0.0603575
0.0600924
0.0598838
0.0640693
0.0641518
0.064221
0.0642758
0.0643154
0.0643394
0.0643473
0.0643387
0.064313
0.0642695
0.0642073
0.0641253
0.0640225
0.0638981
0.0637514
0.0635825
0.0633915
0.0631796
0.062947
0.0626967
0.0624254
0.0621441
0.0618344
0.0615567
0.0613147
0.0654604
0.0655303
0.0655897
0.0656373
0.065672
0.065693
0.0656994
0.0656905
0.0656654
0.0656233
0.065563
0.0654833
0.065383
0.0652612
0.065117
0.0649501
0.0647605
0.0645491
0.0643156
0.0640631
0.0637874
0.0635006
0.0631807
0.0628918
0.0626196
0.0667101
0.0667688
0.0668194
0.0668604
0.0668906
0.0669088
0.066914
0.0669052
0.0668812
0.0668409
0.066783
0.0667062
0.0666092
0.0664907
0.0663497
0.0661857
0.0659985
0.0657886
0.0655554
0.0653019
0.0650231
0.0647322
0.0644037
0.0641048
0.0638055
0.0678273
0.0678762
0.0679188
0.0679539
0.06798
0.0679958
0.0680001
0.0679916
0.067969
0.0679309
0.0678758
0.0678024
0.067709
0.0675943
0.0674571
0.0672968
0.0671126
0.066905
0.066673
0.0664195
0.0661387
0.0658447
0.0655091
0.0652013
0.0648779
0.0688197
0.0688601
0.0688959
0.0689256
0.0689481
0.0689618
0.0689654
0.0689574
0.0689364
0.0689007
0.0688487
0.0687788
0.0686894
0.068579
0.068446
0.0682897
0.0681091
0.0679044
0.0676742
0.0674215
0.0671396
0.0668434
0.0665019
0.0661865
0.0658416
0.0696946
0.0697277
0.0697574
0.0697826
0.0698018
0.0698138
0.0698169
0.0698095
0.0697901
0.069757
0.0697082
0.069642
0.0695567
0.0694506
0.0693221
0.06917
0.0689933
0.0687918
0.0685639
0.0683125
0.0680303
0.0677325
0.0673863
0.0670642
0.0667006
0.0704583
0.0704852
0.0705097
0.0705308
0.0705473
0.0705578
0.0705606
0.070554
0.0705363
0.0705056
0.07046
0.0703976
0.0703164
0.0702146
0.0700904
0.0699426
0.0697699
0.0695718
0.0693465
0.0690967
0.0688147
0.068516
0.0681659
0.0678381
0.0674582
0.0711163
0.071138
0.0711581
0.0711759
0.07119
0.0711992
0.0712018
0.0711961
0.0711801
0.0711518
0.0711093
0.0710504
0.0709731
0.0708754
0.0707555
0.0706119
0.070443
0.0702483
0.0700256
0.0697776
0.0694961
0.0691968
0.0688437
0.0685111
0.0681173
0.0716735
0.0716908
0.0717074
0.0717223
0.0717346
0.0717428
0.0717454
0.0717405
0.071726
0.0717001
0.0716604
0.0716047
0.0715311
0.0714372
0.0713212
0.0711815
0.0710161
0.0708247
0.0706045
0.0703583
0.0700774
0.0697779
0.0694224
0.0690858
0.0686803
0.0721341
0.072148
0.0721616
0.0721743
0.0721851
0.0721926
0.0721952
0.0721911
0.0721781
0.0721542
0.072117
0.0720643
0.0719939
0.0719034
0.0717909
0.0716545
0.0714924
0.0713037
0.0710858
0.0708413
0.0705611
0.0702615
0.0699041
0.0695641
0.0691491
0.0725016
0.0725128
0.0725242
0.0725352
0.0725449
0.0725519
0.0725547
0.0725513
0.0725396
0.0725175
0.0724824
0.0724322
0.0723645
0.0722769
0.0721672
0.0720337
0.0718742
0.0716879
0.0714718
0.0712287
0.0709491
0.0706494
0.0702907
0.0699478
0.0695255
0.0727788
0.072788
0.0727978
0.0728077
0.0728167
0.0728235
0.0728265
0.0728238
0.0728132
0.0727925
0.0727592
0.072711
0.0726453
0.0725599
0.0724525
0.0723211
0.0721636
0.071979
0.0717644
0.0715222
0.0712431
0.0709432
0.0705836
0.0702382
0.0698108
0.0729677
0.0729757
0.0729846
0.0729939
0.0730026
0.0730094
0.0730127
0.0730106
0.0730009
0.0729813
0.0729493
0.0729024
0.0728382
0.0727543
0.0726484
0.0725184
0.0723621
0.0721786
0.0719648
0.0717231
0.0714443
0.071144
0.0707839
0.0704362
0.070006
0.0730698
0.0730774
0.0730861
0.0730953
0.073104
0.0731111
0.0731148
0.0731132
0.0731041
0.0730852
0.073054
0.0730079
0.0729445
0.0728613
0.0727561
0.0726266
0.0724709
0.0722877
0.0720741
0.0718324
0.0715536
0.0712527
0.0708925
0.0705426
0.0701119
0.0730874
0.0730956
0.0731047
0.0731144
0.0731237
0.0731313
0.0731355
0.0731344
0.0731257
0.0731071
0.0730761
0.0730302
0.0729669
0.0728837
0.0727783
0.0726486
0.0724924
0.0723087
0.0720947
0.0718523
0.0715732
0.0712713
0.0709114
0.0705595
0.0701304
0.0729831
0.0729929
0.0730036
0.0730147
0.0730251
0.0730336
0.0730384
0.0730377
0.0730291
0.0730103
0.0729789
0.0729322
0.0728679
0.0727835
0.0726767
0.0725454
0.0723877
0.0722023
0.0719868
0.071743
0.0714629
0.07116
0.0708004
0.0704473
0.070022
0.0727546
0.0727671
0.0727803
0.0727935
0.0728056
0.0728154
0.072821
0.0728204
0.0728116
0.072792
0.0727593
0.072711
0.0726446
0.0725578
0.0724484
0.0723145
0.0721539
0.0719659
0.0717479
0.071502
0.0712205
0.0709164
0.0705571
0.0702042
0.0697844
0.0723996
0.0724161
0.0724328
0.0724489
0.0724633
0.0724745
0.0724809
0.0724804
0.0724709
0.0724499
0.0724152
0.0723643
0.0722949
0.0722047
0.0720917
0.0719539
0.0717895
0.0715978
0.0713765
0.0711279
0.0708446
0.0705394
0.0701805
0.069829
0.0694167
0.0719147
0.0719364
0.0719575
0.0719773
0.0719945
0.0720077
0.0720149
0.0720142
0.0720036
0.0719807
0.0719433
0.071889
0.0718157
0.0717211
0.0716034
0.0714607
0.0712916
0.0710954
0.0708703
0.0706185
0.070333
0.0700269
0.0696689
0.06932
0.0689173
0.0712951
0.0713232
0.0713499
0.0713742
0.0713948
0.07141
0.071418
0.071417
0.0714049
0.0713796
0.0713388
0.0712805
0.0712024
0.0711027
0.0709794
0.0708312
0.0706566
0.0704554
0.0702258
0.0699706
0.069683
0.0693762
0.0690196
0.0686746
0.0682842
0.0705347
0.0705705
0.0706039
0.0706334
0.0706578
0.0706754
0.0706843
0.0706828
0.0706689
0.0706406
0.0705959
0.0705329
0.0704495
0.070344
0.0702147
0.0700603
0.0698798
0.0696731
0.069439
0.0691803
0.0688908
0.0685837
0.0682293
0.0678897
0.0675142
0.0696259
0.069671
0.069712
0.0697477
0.0697764
0.0697964
0.0698062
0.0698039
0.0697879
0.0697563
0.0697074
0.0696393
0.0695501
0.0694384
0.0693027
0.0691419
0.0689552
0.0687431
0.0685045
0.0682427
0.0679516
0.0676451
0.0672939
0.0669611
0.0666035
0.0685601
0.0686159
0.0686657
0.0687081
0.0687415
0.0687642
0.0687747
0.0687715
0.0687531
0.068718
0.0686645
0.068591
0.068496
0.068378
0.0682358
0.0680687
0.067876
0.0676587
0.0674161
0.0671517
0.06686
0.066555
0.0662083
0.065884
0.0655474
0.0673268
0.067395
0.0674547
0.0675045
0.0675428
0.0675681
0.0675792
0.0675749
0.067554
0.0675152
0.0674571
0.0673784
0.0672776
0.0671535
0.0670051
0.066832
0.0666339
0.0664121
0.0661662
0.0659003
0.0656089
0.0653068
0.0649661
0.0646523
0.06434
0.0659146
0.0659965
0.0660671
0.0661248
0.0661681
0.066196
0.0662075
0.066202
0.0661784
0.0661359
0.0660734
0.0659897
0.0658835
0.0657539
0.0656
0.0654217
0.0652191
0.0649939
0.0647459
0.0644798
0.0641903
0.0638927
0.0635597
0.0632588
0.0629742
0.0643098
0.064407
0.0644891
0.0645549
0.0646031
0.0646333
0.0646451
0.0646381
0.064612
0.0645661
0.0644996
0.0644114
0.0643006
0.0641664
0.0640081
0.0638259
0.0636201
0.0633929
0.0631445
0.06288
0.0625942
0.0623032
0.06198
0.0616944
0.0614409
0.0624968
0.0626104
0.0627044
0.0627781
0.0628309
0.062863
0.0628747
0.0628664
0.0628379
0.062789
0.0627192
0.0626276
0.0625134
0.0623758
0.0622146
0.0620301
0.061823
0.0615958
0.0613491
0.0610884
0.0608084
0.0605264
0.0602151
0.0599478
0.0597289
0.0604565
0.0605873
0.0606931
0.0607742
0.060831
0.0608646
0.060876
0.0608663
0.0608359
0.0607849
0.0607128
0.0606191
0.0605029
0.0603638
0.0602016
0.0600169
0.0598107
0.059586
0.0593433
0.0590891
0.0588176
0.0585474
0.0582504
0.0580047
0.0578234
0.0581649
0.0583134
0.0584306
0.0585183
0.0585782
0.0586125
0.0586235
0.0586127
0.0585811
0.058529
0.0584561
0.058362
0.0582459
0.0581074
0.0579466
0.0577642
0.0575617
0.0573422
0.0571066
0.0568619
0.0566017
0.0563467
0.0560664
0.0558462
0.0557053
0.0557005
0.0558669
0.0559942
0.0560869
0.0561487
0.0561833
0.0561939
0.0561826
0.0561509
0.0560991
0.0560271
0.0559346
0.0558208
0.0556854
0.0555285
0.0553513
0.0551553
0.0549441
0.0547184
0.0544861
0.05424
0.0540029
0.0537411
0.0535492
0.0534493
0.0531969
0.0533807
0.0535166
0.0536131
0.0536761
0.0537108
0.0537215
0.0537107
0.05368
0.0536301
0.0535608
0.0534717
0.0533622
0.053232
0.0530813
0.0529115
0.0527242
0.0525235
0.0523099
0.0520919
0.0518615
0.0516437
0.0514012
0.0512378
0.0511774
0.0506805
0.0508812
0.0510244
0.0511238
0.0511876
0.0512227
0.051234
0.0512246
0.0511961
0.0511493
0.0510841
0.051
0.0508965
0.0507732
0.0506304
0.0504698
0.050293
0.0501043
0.0499044
0.049702
0.0494886
0.0492906
0.049068
0.048932
0.0489097
0.048161
0.0483781
0.0485274
0.0486288
0.0486933
0.0487291
0.0487417
0.0487345
0.0487093
0.0486667
0.0486066
0.0485287
0.0484323
0.0483172
0.0481836
0.0480334
0.0478685
0.0476931
0.0475078
0.0473219
0.0471262
0.0469481
0.046746
0.0466353
0.0466501
0.0456434
0.0458761
0.04603
0.0461329
0.0461981
0.0462348
0.0462493
0.046245
0.0462236
0.0461859
0.0461318
0.0460609
0.0459724
0.0458664
0.045743
0.0456042
0.0454519
0.0452905
0.0451207
0.0449516
0.0447742
0.0446155
0.0444341
0.0443465
0.0443972
0.0431282
0.043374
0.0435311
0.0436349
0.0437008
0.0437388
0.0437555
0.0437544
0.0437373
0.043705
0.0436573
0.0435938
0.043514
0.0434175
0.0433048
0.043178
0.0430389
0.042892
0.042738
0.0425858
0.0424267
0.0422868
0.0421264
0.042059
0.0421446
0.0406084
0.0408645
0.0410234
0.0411278
0.0411942
0.0412335
0.0412524
0.0412547
0.0412421
0.0412153
0.0411742
0.0411185
0.0410474
0.0409609
0.0408592
0.0407447
0.0406191
0.0404868
0.0403486
0.0402131
0.0400724
0.0399502
0.0398108
0.0397609
0.0398804
0.038069
0.0383327
0.0384921
0.0385967
0.0386632
0.0387035
0.0387245
0.03873
0.0387218
0.0387005
0.0386661
0.0386181
0.0385559
0.0384793
0.0383889
0.0382867
0.0381746
0.0380569
0.0379346
0.0378154
0.0376928
0.0375872
0.037469
0.0374332
0.037586
0.0354856
0.0357536
0.0359125
0.0360165
0.0360824
0.036123
0.0361457
0.036154
0.0361499
0.0361339
0.036106
0.0360656
0.0360122
0.0359456
0.0358664
0.0357765
0.0356779
0.0355746
0.035468
0.0353646
0.03526
0.0351699
0.0350728
0.0350478
0.0352335
0.0328188
0.0330872
0.0332441
0.0333465
0.0334103
0.0334502
0.0334738
0.0334845
0.033484
0.0334731
0.0334514
0.0334185
0.0333737
0.0333168
0.0332488
0.0331712
0.033086
0.032997
0.032906
0.032818
0.0327311
0.0326553
0.0325797
0.0325616
0.0327808
0.0300046
0.0302668
0.0304194
0.0305182
0.0305778
0.0306155
0.0306392
0.0306516
0.0306543
0.030648
0.0306323
0.0306066