/*--------------------------------*- C++ -*----------------------------------*\
  =========                 |
  \\      /  F ield         | OpenFOAM: The Open Source CFD Toolbox
   \\    /   O peration     | Website:  https://openfoam.org
    \\  /    A nd           | Version:  6
     \\/     M anipulation  |
\*---------------------------------------------------------------------------*/
FoamFile
{
    version     2.0;
    format      ascii;
    class       volScalarField;
    location    "0.1";
    object      nut;
}
// * * * * * * * * * * * * * * * * * * * * * * * * * * * * * * * * * * * * * //

dimensions      [0 2 -1 0 0 0 0];

internalField   nonuniform List<scalar> 
3080
(
1.31608e-05
1.31372e-05
1.31136e-05
1.30898e-05
1.30658e-05
1.30417e-05
1.30175e-05
1.2993e-05
1.29684e-05
1.29435e-05
1.29184e-05
1.28931e-05
1.28675e-05
1.28416e-05
1.28154e-05
1.27888e-05
1.27618e-05
1.27342e-05
1.2706e-05
1.26771e-05
1.26471e-05
1.26159e-05
1.2583e-05
1.25477e-05
1.2509e-05
1.2465e-05
1.24124e-05
1.23442e-05
1.22479e-05
1.20977e-05
9.81848e-05
9.80242e-05
9.78624e-05
9.76992e-05
9.75345e-05
9.73682e-05
9.72003e-05
9.70305e-05
9.68587e-05
9.66846e-05
9.65081e-05
9.63289e-05
9.61465e-05
9.59605e-05
9.57702e-05
9.55749e-05
9.53734e-05
9.51642e-05
9.49453e-05
9.47136e-05
9.4465e-05
9.41933e-05
9.38886e-05
9.35353e-05
9.31059e-05
9.25507e-05
9.17624e-05
9.05524e-05
8.83419e-05
8.49558e-05
0.000192216
0.000191944
0.000191669
0.000191392
0.000191113
0.000190831
0.000190547
0.000190259
0.000189968
0.000189673
0.000189373
0.000189069
0.000188758
0.000188442
0.000188117
0.000187783
0.000187438
0.000187079
0.000186703
0.000186303
0.000185873
0.000185401
0.000184872
0.00018426
0.000183521
0.000182581
0.000181289
0.000179376
0.000176179
0.000171171
0.000272481
0.000272134
0.000271786
0.000271435
0.000271082
0.000270725
0.000270366
0.000270002
0.000269634
0.000269261
0.000268882
0.000268497
0.000268105
0.000267705
0.000267294
0.000266872
0.000266435
0.000265981
0.000265504
0.000264998
0.000264454
0.000263859
0.000263194
0.000262427
0.000261512
0.000260365
0.000258837
0.000256665
0.000253325
0.000248483
0.000340216
0.000339821
0.000339424
0.000339025
0.000338623
0.000338218
0.00033781
0.000337397
0.000336979
0.000336556
0.000336127
0.000335691
0.000335246
0.000334792
0.000334326
0.000333848
0.000333353
0.000332838
0.000332297
0.000331725
0.00033111
0.000330439
0.00032969
0.000328833
0.000327818
0.000326566
0.000324938
0.000322709
0.000319507
0.000315213
0.000397953
0.000397526
0.000397097
0.000396667
0.000396234
0.000395798
0.000395359
0.000394915
0.000394466
0.000394011
0.000393549
0.00039308
0.000392602
0.000392114
0.000391613
0.000391099
0.000390567
0.000390015
0.000389435
0.000388821
0.000388163
0.000387447
0.00038665
0.000385743
0.000384679
0.000383383
0.000381735
0.000379552
0.000376582
0.000372847
0.000447722
0.000447274
0.000446825
0.000446375
0.000445923
0.000445468
0.00044501
0.000444547
0.000444079
0.000443605
0.000443124
0.000442635
0.000442137
0.000441628
0.000441107
0.000440572
0.000440018
0.000439443
0.00043884
0.000438203
0.000437522
0.000436781
0.000435961
0.000435032
0.00043395
0.00043265
0.00043103
0.000428945
0.000426231
0.000422987
0.000491032
0.000490571
0.00049011
0.00048965
0.000489188
0.000488723
0.000488255
0.000487783
0.000487305
0.000486821
0.000486329
0.00048583
0.000485322
0.000484802
0.000484271
0.000483724
0.00048316
0.000482573
0.00048196
0.000481312
0.00048062
0.000479871
0.000479044
0.000478113
0.000477037
0.000475759
0.000474195
0.000472233
0.00046977
0.000466943
0.000529004
0.000528536
0.000528071
0.000527607
0.000527142
0.000526675
0.000526205
0.000525729
0.000525249
0.000524762
0.000524267
0.000523765
0.000523253
0.000522731
0.000522196
0.000521646
0.000521079
0.000520491
0.000519875
0.000519227
0.000518535
0.000517788
0.000516967
0.000516047
0.000514993
0.000513756
0.000512264
0.000510436
0.000508209
0.000505731
0.000562481
0.000562014
0.000561551
0.000561089
0.000560627
0.000560163
0.000559696
0.000559223
0.000558745
0.000558261
0.000557769
0.000557269
0.00055676
0.000556241
0.000555709
0.000555163
0.000554599
0.000554015
0.000553405
0.000552763
0.000552079
0.000551343
0.000550537
0.00054964
0.000548619
0.000547433
0.000546025
0.000544332
0.000542322
0.00054014
0.000592109
0.000591652
0.000591195
0.000590741
0.000590287
0.00058983
0.00058937
0.000588905
0.000588434
0.000587957
0.000587473
0.00058698
0.000586479
0.000585967
0.000585443
0.000584906
0.000584351
0.000583777
0.000583178
0.000582548
0.000581879
0.000581161
0.000580378
0.00057951
0.000578531
0.000577405
0.000576085
0.000574525
0.000572713
0.000570783
0.000617952
0.000617509
0.000617066
0.000616623
0.000616177
0.000615728
0.000615274
0.000614815
0.000614349
0.000613876
0.000613395
0.000612905
0.000612405
0.000611894
0.000611369
0.000610828
0.000610268
0.000609685
0.000609073
0.000608424
0.000607729
0.000606975
0.000606143
0.000605211
0.000604149
0.000602919
0.000601489
0.000599856
0.000598145
0.00064133
0.000640895
0.000640463
0.000640033
0.000639601
0.000639165
0.000638726
0.000638281
0.00063783
0.000637372
0.000636907
0.000636432
0.000635948
0.000635453
0.000634945
0.000634422
0.00063388
0.000633317
0.000632726
0.000632102
0.000631435
0.000630714
0.000629923
0.000629042
0.000628047
0.000626908
0.000625601
0.000624132
0.000622613
0.000662088
0.000661666
0.000661248
0.000660833
0.000660418
0.00066
0.000659578
0.000659151
0.000658719
0.000658279
0.000657832
0.000657376
0.000656911
0.000656435
0.000655947
0.000655445
0.000654926
0.000654386
0.000653821
0.000653225
0.00065259
0.000651905
0.000651159
0.000650332
0.000649406
0.000648356
0.000647167
0.000645847
0.000644498
0.000680483
0.000680078
0.000679679
0.000679283
0.000678888
0.00067849
0.000678089
0.000677683
0.000677271
0.000676853
0.000676428
0.000675994
0.000675551
0.000675098
0.000674634
0.000674155
0.000673661
0.000673148
0.000672612
0.000672047
0.000671447
0.000670803
0.000670103
0.000669333
0.000668476
0.000667515
0.000666436
0.000665254
0.000664056
0.000696884
0.000696496
0.000696114
0.000695736
0.000695359
0.00069498
0.000694599
0.000694212
0.000693819
0.000693421
0.000693014
0.0006926
0.000692178
0.000691745
0.000691301
0.000690845
0.000690374
0.000689885
0.000689374
0.000688838
0.00068827
0.000687662
0.000687005
0.000686287
0.000685494
0.000684612
0.000683633
0.000682571
0.000681501
0.000711153
0.00071079
0.000710434
0.000710083
0.000709732
0.000709381
0.000709026
0.000708666
0.000708301
0.00070793
0.000707551
0.000707165
0.00070677
0.000706366
0.000705951
0.000705525
0.000705084
0.000704628
0.000704152
0.000703652
0.000703124
0.000702561
0.000701955
0.000701295
0.000700571
0.000699772
0.000698893
0.000697948
0.000697002
0.000723235
0.00072291
0.000722593
0.000722282
0.000721972
0.000721661
0.000721347
0.000721029
0.000720705
0.000720376
0.000720039
0.000719695
0.000719343
0.000718982
0.000718612
0.00071823
0.000717837
0.000717428
0.000717002
0.000716555
0.000716083
0.000715581
0.00071504
0.000714455
0.000713814
0.000713111
0.000712342
0.000711521
0.000710704
0.000733439
0.000733159
0.000732889
0.000732626
0.000732365
0.000732103
0.000731838
0.00073157
0.000731295
0.000731015
0.000730729
0.000730435
0.000730135
0.000729826
0.000729509
0.000729182
0.000728843
0.000728492
0.000728125
0.00072774
0.000727333
0.0007269
0.000726434
0.00072593
0.00072538
0.000724778
0.000724123
0.000723427
0.000722737
0.000742011
0.00074178
0.00074156
0.000741348
0.000741139
0.00074093
0.000740719
0.000740503
0.000740282
0.000740055
0.000739822
0.000739584
0.000739338
0.000739085
0.000738825
0.000738556
0.000738277
0.000737986
0.000737683
0.000737363
0.000737025
0.000736664
0.000736276
0.000735855
0.000735397
0.000734897
0.000734354
0.000733779
0.000733213
0.000749148
0.000748966
0.000748797
0.000748637
0.00074848
0.000748324
0.000748165
0.000748002
0.000747834
0.000747661
0.000747483
0.000747298
0.000747108
0.000746912
0.000746708
0.000746497
0.000746278
0.000746048
0.000745807
0.000745553
0.000745283
0.000744994
0.000744682
0.000744344
0.000743974
0.000743571
0.000743134
0.000742674
0.000742221
0.000755009
0.000754874
0.000754753
0.000754642
0.000754536
0.000754429
0.000754321
0.000754208
0.000754091
0.000753969
0.000753842
0.00075371
0.000753572
0.000753429
0.00075328
0.000753124
0.000752961
0.000752789
0.000752608
0.000752416
0.00075221
0.000751989
0.000751748
0.000751487
0.0007512
0.000750886
0.000750547
0.00075019
0.00074984
0.000759724
0.000759631
0.000759555
0.000759489
0.000759427
0.000759366
0.000759303
0.000759236
0.000759164
0.000759088
0.000759008
0.000758922
0.000758832
0.000758737
0.000758637
0.000758531
0.000758419
0.0007583
0.000758173
0.000758037
0.000757889
0.000757729
0.000757553
0.00075736
0.000757146
0.000756912
0.000756658
0.000756392
0.000756133
0.000763397
0.000763341
0.000763303
0.000763275
0.000763252
0.00076323
0.000763205
0.000763177
0.000763145
0.000763108
0.000763067
0.000763022
0.000762973
0.000762919
0.000762861
0.000762798
0.00076273
0.000762655
0.000762574
0.000762486
0.000762388
0.000762279
0.000762159
0.000762024
0.000761873
0.000761706
0.000761524
0.000761334
0.000761151
0.000766113
0.000766087
0.000766079
0.000766082
0.000766089
0.000766097
0.000766103
0.000766106
0.000766104
0.000766099
0.000766089
0.000766076
0.000766059
0.000766038
0.000766014
0.000765985
0.000765951
0.000765913
0.000765869
0.000765818
0.00076576
0.000765693
0.000765616
0.000765527
0.000765426
0.000765312
0.000765187
0.000765057
0.000764933
0.000767939
0.000767935
0.000767948
0.000767972
0.000768
0.000768029
0.000768057
0.000768081
0.000768101
0.000768117
0.00076813
0.000768139
0.000768145
0.000768147
0.000768146
0.000768141
0.000768132
0.000768119
0.000768101
0.000768077
0.000768047
0.000768009
0.000767962
0.000767906
0.00076784
0.000767764
0.00076768
0.000767592
0.00076751
0.000768928
0.000768936
0.00076896
0.000768994
0.000769034
0.000769073
0.000769111
0.000769146
0.000769178
0.000769206
0.00076923
0.000769251
0.000769268
0.000769283
0.000769294
0.000769302
0.000769306
0.000769306
0.000769302
0.000769293
0.000769277
0.000769255
0.000769226
0.000769187
0.00076914
0.000769085
0.000769023
0.000768959
0.000768901
0.000769135
0.000769144
0.000769169
0.000769202
0.000769241
0.00076928
0.000769318
0.000769353
0.000769384
0.000769412
0.000769437
0.000769458
0.000769476
0.000769491
0.000769503
0.000769511
0.000769516
0.000769517
0.000769513
0.000769505
0.000769491
0.00076947
0.000769442
0.000769405
0.00076936
0.000769307
0.000769248
0.000769188
0.000769136
0.000768277
0.000768271
0.000768279
0.000768296
0.000768317
0.000768338
0.000768359
0.000768376
0.000768389
0.000768399
0.000768405
0.000768408
0.000768407
0.000768403
0.000768396
0.000768385
0.000768369
0.00076835
0.000768326
0.000768296
0.00076826
0.000768216
0.000768164
0.000768103
0.000768032
0.000767952
0.000767866
0.000767778
0.000767701
0.000766305
0.00076627
0.000766246
0.00076623
0.000766217
0.000766205
0.00076619
0.000766172
0.00076615
0.000766124
0.000766094
0.00076606
0.000766022
0.00076598
0.000765934
0.000765884
0.000765828
0.000765768
0.000765702
0.000765629
0.000765548
0.000765459
0.000765359
0.000765247
0.000765124
0.000764988
0.000764843
0.000764696
0.000764564
0.000763182
0.000763102
0.000763032
0.000762967
0.000762905
0.000762841
0.000762775
0.000762706
0.000762631
0.000762552
0.000762468
0.000762379
0.000762285
0.000762186
0.000762083
0.000761973
0.000761858
0.000761737
0.000761608
0.00076147
0.000761323
0.000761164
0.000760992
0.000760805
0.000760602
0.000760382
0.000760149
0.000759911
0.000759693
0.000758858
0.000758717
0.000758585
0.000758456
0.000758328
0.000758198
0.000758064
0.000757926
0.000757781
0.000757631
0.000757476
0.000757314
0.000757146
0.000756972
0.000756792
0.000756605
0.00075641
0.000756207
0.000755994
0.000755771
0.000755535
0.000755284
0.000755016
0.000754728
0.000754418
0.000754085
0.000753733
0.000753374
0.00075304
0.000753268
0.000753052
0.000752841
0.000752633
0.000752423
0.00075221
0.000751992
0.000751768
0.000751536
0.000751298
0.000751053
0.0007508
0.00075054
0.000750272
0.000749996
0.000749711
0.000749416
0.000749111
0.000748794
0.000748463
0.000748116
0.00074775
0.000747361
0.000746947
0.000746504
0.000746029
0.000745527
0.000745014
0.000744531
0.000746335
0.000746028
0.000745723
0.000745418
0.000745111
0.000744798
0.000744478
0.00074415
0.000743814
0.00074347
0.000743117
0.000742754
0.000742383
0.000742001
0.00074161
0.000741207
0.000740793
0.000740365
0.000739921
0.000739461
0.000738979
0.000738474
0.000737941
0.000737374
0.000736769
0.000736124
0.000735441
0.000734739
0.000734075
0.000737963
0.000737547
0.000737132
0.000736715
0.000736292
0.000735862
0.000735423
0.000734974
0.000734515
0.000734046
0.000733566
0.000733075
0.000732572
0.000732057
0.00073153
0.000730989
0.000730433
0.000729861
0.000729269
0.000728656
0.000728017
0.000727348
0.000726644
0.000725898
0.000725104
0.000724256
0.000723358
0.000722433
0.000721551
0.000728035
0.000727494
0.000726951
0.000726403
0.000725847
0.000725282
0.000724705
0.000724117
0.000723516
0.000722903
0.000722276
0.000721636
0.000720982
0.000720313
0.000719629
0.000718928
0.000718209
0.000717469
0.000716706
0.000715916
0.000715095
0.000714238
0.000713336
0.000712383
0.000711369
0.000710288
0.00070914
0.000707952
0.000706815
0.00071641
0.000715727
0.000715038
0.000714341
0.000713633
0.000712913
0.00071218
0.000711432
0.000710669
0.000709891
0.000709097
0.000708287
0.00070746
0.000706615
0.000705751
0.000704867
0.000703961
0.00070303
0.000702071
0.00070108
0.000700051
0.000698978
0.000697852
0.000696662
0.000695398
0.000694049
0.000692614
0.000691123
0.000689687
0.000702919
0.000702074
0.00070122
0.000700354
0.000699475
0.00069858
0.000697669
0.000696741
0.000695795
0.00069483
0.000693847
0.000692844
0.000691821
0.000690777
0.000689709
0.000688618
0.000687499
0.000686352
0.00068517
0.000683951
0.000682687
0.00068137
0.000679989
0.000678533
0.000676986
0.000675333
0.000673572
0.000671732
0.000669949
0.000687575
0.000686543
0.000685497
0.000684436
0.000683358
0.000682261
0.000681144
0.000680007
0.000678848
0.000677667
0.000676463
0.000675237
0.000673985
0.000672709
0.000671405
0.000670071
0.000668706
0.000667306
0.000665866
0.000664381
0.000662843
0.000661243
0.000659568
0.000657803
0.000655928
0.000653925
0.000651784
0.000649536
0.00064734
0.000670085
0.00066884
0.000667576
0.000666293
0.000664988
0.000663661
0.000662309
0.000660933
0.000659532
0.000658104
0.000656649
0.000655167
0.000653655
0.000652112
0.000650537
0.000648928
0.00064728
0.000645591
0.000643855
0.000642066
0.000640216
0.000638293
0.000636282
0.000634165
0.000631918
0.000629516
0.000626941
0.000624221
0.00062154
0.000649586
0.000648112
0.000646615
0.000645094
0.000643547
0.000641973
0.000640371
0.00063874
0.000637079
0.000635387
0.000633663
0.000631907
0.000630116
0.000628289
0.000626424
0.000624519
0.000622569
0.000620571
0.000618519
0.000616406
0.000614222
0.000611955
0.000609586
0.000607095
0.000604453
0.000601625
0.000598585
0.00059535
0.000592126
0.000625357
0.000623644
0.000621903
0.000620134
0.000618334
0.000616502
0.000614638
0.000612741
0.000610809
0.000608841
0.000606837
0.000604795
0.000602714
0.000600591
0.000598424
0.00059621
0.000593946
0.000591627
0.000589246
0.000586796
0.000584265
0.000581641
0.000578903
0.000576025
0.000572974
0.000569706
0.000566181
0.000562397
0.000558578
0.000597266
0.000595328
0.000593359
0.000591356
0.000589319
0.000587247
0.000585138
0.000582992
0.000580807
0.000578583
0.000576317
0.000574009
0.000571657
0.000569259
0.000566811
0.000564311
0.000561755
0.000559138
0.000556453
0.000553692
0.000550842
0.000547889
0.000544811
0.000541578
0.000538151
0.000534476
0.000530494
0.000526178
0.000521759
0.000565418
0.000563314
0.000561175
0.000559001
0.00055679
0.000554542
0.000552255
0.000549928
0.00054756
0.000545151
0.000542697
0.000540199
0.000537654
0.000535059
0.000532412
0.000529711
0.000526949
0.000524123
0.000521225
0.000518247
0.000515175
0.000511995
0.000508682
0.000505204
0.000501516
0.000497553
0.000493238
0.000488503
0.000483576
0.000528611
0.000526437
0.000524229
0.000521986
0.000519706
0.00051739
0.000515035
0.00051264
0.000510206
0.000507729
0.00050521
0.000502645
0.000500035
0.000497375
0.000494664
0.000491898
0.000489074
0.000486185
0.000483224
0.000480184
0.00047705
0.000473807
0.00047043
0.000466884
0.000463121
0.000459063
0.000454614
0.000449658
0.000444399
0.000484805
0.000482719
0.000480601
0.000478453
0.000476272
0.000474058
0.00047181
0.000469527
0.000467208
0.000464851
0.000462456
0.000460022
0.000457546
0.000455026
0.00045246
0.000449846
0.000447178
0.000444452
0.00044166
0.000438795
0.000435844
0.00043279
0.000429608
0.000426264
0.000422703
0.000418839
0.000414559
0.000409683
0.000404372
0.000436992
0.000435091
0.000433165
0.000431213
0.000429233
0.000427226
0.00042519
0.000423124
0.000421028
0.000418901
0.000416741
0.000414548
0.00041232
0.000410055
0.000407751
0.000405405
0.000403014
0.000400572
0.000398073
0.00039551
0.000392869
0.000390135
0.000387284
0.000384278
0.000381065
0.000377548
0.000373596
0.000368963
0.000363741
0.000390453
0.000388705
0.000386934
0.000385141
0.000383325
0.000381484
0.000379618
0.000377727
0.00037581
0.000373865
0.000371893
0.000369892
0.00036786
0.000365797
0.0003637
0.000361566
0.000359393
0.000357175
0.000354908
0.000352582
0.000350186
0.000347706
0.000345117
0.000342385
0.000339453
0.000336222
0.000332548
0.000328107
0.000322901
0.000341722
0.000340126
0.000338509
0.000336873
0.000335215
0.000333537
0.000331837
0.000330114
0.000328369
0.000326601
0.000324807
0.000322989
0.000321143
0.000319268
0.000317362
0.000315422
0.000313444
0.000311422
0.000309349
0.000307214
0.000305004
0.000302697
0.000300257
0.000297632
0.000294719
0.000291365
0.000287177
0.000282028
0.000294444
0.000293033
0.000291607
0.000290164
0.000288703
0.000287226
0.00028573
0.000284216
0.000282684
0.000281131
0.000279559
0.000277965
0.000276349
0.000274708
0.000273042
0.000271347
0.000269619
0.000267855
0.000266046
0.000264185
0.000262258
0.000260245
0.000258114
0.000255816
0.000253249
0.000250257
0.000246388
0.000241359
0.00024717
0.000245957
0.000244731
0.000243493
0.000242241
0.000240975
0.000239694
0.000238399
0.000237089
0.000235763
0.00023442
0.000233061
0.000231683
0.000230286
0.000228868
0.000227426
0.000225958
0.000224459
0.000222924
0.000221345
0.00021971
0.000218001
0.000216192
0.000214235
0.000212038
0.000209447
0.000205969
0.000201147
0.00020023
0.000199225
0.000198209
0.000197184
0.000196148
0.000195102
0.000194044
0.000192975
0.000191894
0.000190801
0.000189696
0.000188577
0.000187445
0.000186297
0.000185132
0.000183949
0.000182745
0.000181517
0.00018026
0.000178968
0.00017763
0.000176233
0.000174752
0.000173149
0.00017134
0.000169181
0.000166171
0.000161677
0.000154022
0.000153229
0.00015243
0.000151624
0.00015081
0.000149988
0.000149158
0.000148319
0.000147472
0.000146617
0.000145752
0.000144877
0.000143992
0.000143096
0.000142187
0.000141265
0.000140328
0.000139372
0.000138395
0.000137391
0.000136353
0.000135269
0.00013412
0.000132875
0.000131467
0.000129765
0.000127297
0.000123296
0.000109082
0.000108506
0.000107926
0.000107341
0.00010675
0.000106155
0.000105554
0.000104947
0.000104335
0.000103717
0.000103092
0.000102461
0.000101824
0.000101178
0.000100525
9.9862e-05
9.91889e-05
9.85034e-05
9.78033e-05
9.70849e-05
9.6343e-05
9.55693e-05
9.47507e-05
9.38627e-05
9.28586e-05
9.16282e-05
8.97732e-05
8.64884e-05
6.63355e-05
6.59748e-05
6.56113e-05
6.5245e-05
6.48758e-05
6.45036e-05
6.41283e-05
6.37499e-05
6.33683e-05
6.29833e-05
6.25948e-05
6.22025e-05
6.18064e-05
6.1406e-05
6.1001e-05
6.05908e-05
6.01747e-05
5.97517e-05
5.93203e-05
5.88786e-05
5.84235e-05
5.795e-05
5.74509e-05
5.69098e-05
5.63013e-05
5.55438e-05
5.43555e-05
5.20938e-05
2.8133e-05
2.7975e-05
2.7816e-05
2.76558e-05
2.74945e-05
2.7332e-05
2.71683e-05
2.70034e-05
2.68372e-05
2.66697e-05
2.65009e-05
2.63307e-05
2.6159e-05
2.59857e-05
2.58107e-05
2.56338e-05
2.54548e-05
2.52733e-05
2.50888e-05
2.49007e-05
2.47079e-05
2.45085e-05
2.43003e-05
2.40765e-05
2.38291e-05
2.35206e-05
2.30198e-05
2.21417e-05
3.45857e-06
3.44135e-06
3.42399e-06
3.4065e-06
3.38886e-06
3.37109e-06
3.35317e-06
3.3351e-06
3.31689e-06
3.29853e-06
3.28001e-06
3.26132e-06
3.24247e-06
3.22343e-06
3.20419e-06
3.18473e-06
3.16502e-06
3.14504e-06
3.12472e-06
3.10399e-06
3.08277e-06
3.06086e-06
3.0381e-06
3.01386e-06
2.98792e-06
2.95703e-06
2.91958e-06
2.852e-06
1.21802e-05
1.21621e-05
1.21368e-05
1.20908e-05
1.20158e-05
1.19224e-05
1.18191e-05
1.17081e-05
1.15896e-05
1.14641e-05
1.13321e-05
1.11936e-05
1.10482e-05
1.08963e-05
1.07377e-05
1.05725e-05
1.0401e-05
1.0223e-05
1.00399e-05
9.84872e-06
9.65795e-06
9.44796e-06
9.26582e-06
9.01311e-06
8.93482e-06
8.96732e-05
9.15919e-05
9.21144e-05
9.19722e-05
9.14059e-05
9.06045e-05
8.96848e-05
8.86862e-05
8.76174e-05
8.64842e-05
8.52895e-05
8.40323e-05
8.27055e-05
8.12928e-05
7.98177e-05
7.82783e-05
7.66807e-05
7.50058e-05
7.32946e-05
7.14368e-05
6.96349e-05
6.74377e-05
6.56949e-05
6.26923e-05
6.24564e-05
0.000176288
0.000179585
0.000181219
0.000181787
0.000181536
0.000180731
0.000179578
0.000178183
0.000176593
0.000174839
0.000172939
0.000170901
0.000168723
0.000166388
0.000163916
0.000161311
0.000158586
0.000155717
0.000152762
0.000149568
0.000146413
0.000142656
0.000139541
0.000134577
0.00013437
0.000252741
0.00025622
0.000258253
0.000259235
0.000259334
0.000258752
0.00025768
0.000256237
0.000254495
0.000252498
0.000250279
0.000247854
0.000245227
0.000242391
0.000239359
0.000236139
0.000232746
0.000229163
0.000225442
0.000221443
0.000217423
0.000212774
0.000208704
0.000202869
0.000202421
0.000318621
0.000321884
0.000323957
0.0003251
0.000325422
0.000325057
0.000324147
0.000322795
0.000321073
0.000319031
0.000316706
0.000314119
0.00031128
0.000308189
0.000304857
0.000301294
0.000297516
0.000293512
0.000289326
0.000284843
0.000280275
0.000275105
0.000270385
0.000264173
0.000263326
0.000375573
0.000378506
0.000380465
0.000381624
0.000382057
0.000381848
0.000381092
0.00037987
0.00037824
0.000376249
0.000373931
0.000371309
0.000368397
0.000365198
0.000361722
0.000357981
0.000353991
0.000349746
0.000345284
0.000340511
0.000335599
0.000330125
0.000324963
0.000318604
0.000317291
0.000425179
0.000427764
0.00042955
0.00043065
0.000431117
0.000431003
0.00043037
0.000429274
0.000427757
0.000425858
0.000423605
0.000421019
0.000418113
0.000414894
0.000411371
0.000407555
0.000403462
0.000399092
0.000394473
0.000389535
0.00038441
0.000378762
0.0003733
0.000366903
0.000365107
0.00046871
0.000470964
0.000472558
0.000473564
0.000474018
0.000473954
0.00047341
0.00047242
0.000471014
0.00046922
0.000467058
0.000464545
0.000461693
0.000458507
0.000454995
0.00045117
0.000447045
0.000442622
0.000437927
0.000432902
0.000427651
0.000421909
0.000416244
0.00040986
0.00040759
0.000507157
0.000509107
0.000510509
0.000511406
0.000511821
0.000511775
0.000511289
0.000510385
0.000509079
0.000507389
0.000505327
0.000502905
0.000500131
0.00049701
0.000493548
0.000489754
0.000485643
0.000481217
0.000476496
0.000471438
0.000466119
0.000460334
0.000454531
0.00044818
0.000445458
0.000541288
0.000542963
0.000544181
0.000544964
0.000545326
0.000545278
0.00054483
0.000543992
0.000542772
0.000541178
0.000539217
0.000536893
0.000534211
0.000531173
0.000527782
0.000524046
0.000519978
0.000515581
0.000510869
0.000505812
0.000500464
0.00049467
0.000488773
0.000482461
0.000479314
0.000571702
0.000573129
0.000574176
0.000574848
0.00057515
0.000575087
0.000574661
0.000573875
0.000572728
0.000571222
0.000569357
0.000567132
0.000564547
0.000561601
0.000558295
0.000554635
0.000550629
0.000546281
0.000541603
0.000536569
0.000531218
0.000525435
0.000519476
0.000513195
0.000509658
0.000598873
0.000600079
0.000600967
0.000601533
0.000601774
0.00060169
0.000601276
0.000600529
0.000599445
0.000598018
0.000596243
0.000594114
0.000591627
0.000588778
0.000585564
0.000581989
0.000578057
0.000573773
0.000569143
0.000564148
0.000558813
0.000553053
0.000547054
0.000540796
0.000536901
0.000623181
0.00062419
0.000624933
0.000625399
0.00062558
0.000625471
0.000625063
0.000624349
0.000623318
0.000621962
0.000620271
0.000618234
0.000615844
0.000613093
0.000609974
0.000606489
0.000602639
0.000598427
0.000593855
0.000588909
0.000583601
0.000577872
0.000571847
0.000565606
0.000561384
0.000644932
0.000645766
0.000646377
0.000646751
0.000646876
0.000646741
0.000646335
0.000645647
0.000644664
0.000643372
0.000641759
0.00063981
0.000637513
0.000634858
0.000631836
0.000628443
0.000624678
0.000620543
0.000616035
0.000611145
0.000605871
0.000600178
0.000594138
0.000587907
0.000583387
0.000664377
0.000665057
0.00066555
0.00066584
0.000665912
0.000665752
0.000665346
0.000664681
0.00066374
0.000662507
0.000660966
0.000659099
0.000656892
0.000654331
0.000651403
0.000648102
0.000644425
0.000640368
0.000635928
0.000631096
0.000625862
0.000620208
0.00061416
0.000607934
0.000603142
0.000681726
0.000682269
0.000682658
0.000682872
0.000682895
0.000682712
0.000682306
0.00068166
0.000680757
0.000679578
0.000678104
0.000676316
0.000674194
0.000671723
0.000668887
0.000665676
0.000662085
0.000658107
0.000653736
0.000648963
0.000643771
0.000638155
0.000632104
0.000625881
0.000620842
0.00069715
0.000697575
0.000697871
0.000698018
0.000697998
0.000697793
0.000697387
0.000696759
0.000695891
0.000694762
0.000693351
0.000691635
0.000689594
0.000687208
0.00068446
0.000681337
0.000677829
0.000673928
0.000669624
0.000664911
0.000659762
0.000654184
0.000648134
0.000641909
0.000636649
0.000710796
0.00071112
0.000711335
0.000711422
0.000711364
0.000711141
0.000710734
0.000710123
0.000709288
0.000708205
0.000706851
0.000705203
0.000703237
0.000700932
0.000698267
0.000695227
0.000691798
0.000687972
0.000683734
0.000679077
0.000673971
0.00066843
0.000662383
0.000656155
0.000650697
0.000722788
0.000723026
0.000723171
0.000723207
0.000723115
0.000722876
0.00072247
0.000721875
0.00072107
0.000720029
0.000718729
0.000717143
0.000715247
0.000713017
0.000710429
0.000707466
0.000704113
0.000700357
0.00069618
0.000691578
0.000686512
0.000681006
0.000674964
0.000668731
0.000663098
0.000733232
0.000733397
0.000733483
0.000733475
0.000733354
0.000733102
0.000732697
0.000732118
0.00073134
0.000730338
0.000729087
0.000727558
0.000725726
0.000723564
0.000721047
0.000718155
0.000714871
0.000711179
0.000707061
0.000702509
0.000697481
0.000692006
0.00068597
0.000679732
0.000673947
0.000742219
0.000742322
0.000742358
0.000742313
0.000742168
0.000741905
0.000741502
0.000740937
0.000740184
0.000739218
0.000738011
0.000736533
0.000734758
0.000732658
0.000730205
0.000727378
0.000724155
0.000720522
0.000716456
0.00071195
0.000706957
0.000701511
0.000695481
0.000689237
0.00068332
0.000749821
0.000749874
0.000749869
0.000749793
0.000749629
0.000749357
0.000748958
0.000748406
0.000747676
0.000746741
0.000745573
0.000744141
0.000742416
0.000740369
0.000737973
0.000735202
0.000732035
0.000728453
0.000724432
0.000719966
0.000715005
0.000709583
0.00070356
0.000697311
0.000691284
0.000756103
0.000756114
0.000756076
0.000755976
0.000755797
0.00075552
0.000755124
0.000754584
0.000753874
0.000752967
0.000751832
0.000750439
0.000748758
0.000746757
0.000744408
0.000741685
0.000738565
0.000735026
0.000731045
0.000726613
0.000721678
0.000716278
0.00071026
0.000704006
0.000697889
0.000761113
0.000761093
0.00076103
0.000760911
0.000760721
0.000760441
0.000760049
0.00075952
0.000758828
0.000757944
0.000756837
0.000755477
0.000753831
0.000751867
0.000749558
0.000746874
0.000743791
0.000740288
0.000736338
0.000731933
0.00072702
0.000721637
0.000715625
0.000709366
0.00070318
0.000764892
0.000764849
0.000764768
0.000764637
0.000764441
0.00076416
0.000763772
0.000763254
0.000762576
0.00076171
0.000760626
0.000759291
0.000757672
0.000755737
0.000753457
0.000750803
0.000747748
0.000744271
0.000740345
0.000735961
0.000731064
0.000725693
0.000719687
0.000713424
0.000707187
0.000767468
0.000767411
0.000767321
0.000767184
0.000766985
0.000766705
0.000766323
0.000765812
0.000765146
0.000764295
0.000763226
0.000761908
0.000760309
0.000758394
0.000756134
0.000753499
0.000750462
0.000747003
0.000743092
0.00073872
0.000733834
0.000728471
0.00072247
0.000716203
0.000709936
0.000768861
0.000768799
0.000768706
0.000768569
0.000768372
0.000768096
0.000767719
0.000767216
0.000766558
0.000765715
0.000764657
0.000763349
0.00076176
0.000759856
0.000757605
0.00075498
0.000751952
0.000748499
0.000744594
0.000740228
0.000735347
0.000729987
0.00072399
0.000717719
0.000711441
0.000769101
0.000769046
0.000768959
0.000768828
0.000768638
0.000768369
0.000767998
0.000767501
0.000766848
0.00076601
0.000764956
0.000763651
0.000762063
0.000760159
0.000757909
0.000755282
0.000752251
0.000748796
0.000744889
0.00074052
0.000735637
0.000730276
0.000724281
0.000718007
0.000711735
0.000767677
0.000767641
0.000767572
0.000767457
0.00076728
0.000767022
0.000766659
0.000766165
0.000765514
0.000764674
0.000763613
0.0007623
0.000760701
0.000758784
0.000756518
0.000753874
0.000750826
0.000747353
0.000743429
0.000739045
0.000734151
0.000728781
0.000722785
0.000716509
0.000710264
0.000764553
0.00076455
0.000764511
0.00076442
0.000764263
0.000764018
0.000763662
0.000763171
0.000762515
0.000761665
0.000760589
0.000759256
0.000757633
0.000755688
0.000753391
0.000750715
0.000747634
0.000744129
0.000740175
0.000735765
0.00073085
0.000725463
0.000719461
0.000713185
0.000706988
0.0007597
0.000759744
0.000759745
0.000759688
0.000759555
0.000759327
0.000758979
0.000758486
0.00075782
0.000756952
0.000755851
0.000754487
0.000752826
0.000750839
0.000748498
0.000745775
0.000742646
0.000739095
0.000735099
0.000730651
0.000725706
0.000720296
0.000714283
0.000708009
0.00070188
0.000753067
0.000753172
0.000753225
0.00075321
0.000753108
0.000752898
0.000752557
0.00075206
0.000751379
0.000750485
0.00074935
0.000747942
0.000746232
0.00074419
0.000741789
0.000739005
0.000735815
0.000732205
0.000728155
0.000723659
0.000718675
0.000713236
0.000707208
0.00070094
0.000694898
0.000744585
0.000744766
0.000744883
0.000744919
0.000744853
0.000744664
0.000744329
0.000743823