/*--------------------------------*- C++ -*----------------------------------*\
  =========                 |
  \\      /  F ield         | OpenFOAM: The Open Source CFD Toolbox
   \\    /   O peration     | Website:  https://openfoam.org
    \\  /    A nd           | Version:  6
     \\/     M anipulation  |
\*---------------------------------------------------------------------------*/
FoamFile
{
    version     2.0;
    format      ascii;
    class       volScalarField;
    location    "0.1";
    object      p;
}
// * * * * * * * * * * * * * * * * * * * * * * * * * * * * * * * * * * * * * //

dimensions      [0 2 -2 0 0 0 0];

internalField   nonuniform List<scalar> 
3080
(
0.182303
0.182172
0.182043
0.181914
0.181786
0.18166
0.181535
0.181411
0.181289
0.181168
0.18105
0.180935
0.180823
0.180717
0.180617
0.180525
0.180445
0.180379
0.180332
0.180312
0.180328
0.180393
0.180525
0.180755
0.181129
0.181721
0.182683
0.184239
0.187098
0.191401
0.182297
0.182166
0.182035
0.181906
0.181779
0.181652
0.181527
0.181403
0.18128
0.18116
0.181042
0.180927
0.180815
0.180709
0.180609
0.180518
0.180439
0.180374
0.180329
0.18031
0.180327
0.180394
0.180528
0.180759
0.181129
0.181707
0.182625
0.184046
0.186558
0.190111
0.182295
0.182163
0.182032
0.181903
0.181775
0.181648
0.181522
0.181398
0.181276
0.181155
0.181037
0.180922
0.180811
0.180705
0.180606
0.180515
0.180436
0.180372
0.180328
0.18031
0.180329
0.180397
0.180532
0.180762
0.181127
0.181687
0.182551
0.183827
0.185914
0.188398
0.182293
0.182161
0.18203
0.181901
0.181772
0.181645
0.181519
0.181395
0.181272
0.181151
0.181033
0.180918
0.180806
0.1807
0.1806
0.180509
0.18043
0.180365
0.18032
0.180301
0.180317
0.18038
0.180509
0.180726
0.181068
0.181583
0.182355
0.183436
0.185054
0.186695
0.182291
0.182159
0.182028
0.181898
0.18177
0.181642
0.181516
0.181391
0.181268
0.181147
0.181028
0.180913
0.180801
0.180693
0.180593
0.1805
0.180419
0.180351
0.180303
0.180279
0.180289
0.180343
0.180457
0.180651
0.180956
0.181406
0.18206
0.18293
0.184128
0.18515
0.182287
0.182155
0.182024
0.181895
0.181766
0.181639
0.181512
0.181387
0.181264
0.181142
0.181023
0.180906
0.180793
0.180685
0.180582
0.180488
0.180403
0.180332
0.180278
0.180248
0.180248
0.180288
0.180381
0.180545
0.180802
0.181177
0.181702
0.182366
0.183209
0.183767
0.182284
0.182152
0.182021
0.181891
0.181762
0.181635
0.181508
0.181383
0.181259
0.181136
0.181016
0.180898
0.180784
0.180674
0.180569
0.180472
0.180384
0.180307
0.180247
0.180208
0.180195
0.180218
0.180287
0.180414
0.180617
0.180909
0.181306
0.181778
0.182323
0.182524
0.182279
0.182147
0.182016
0.181887
0.181758
0.18163
0.181503
0.181378
0.181253
0.18113
0.181009
0.18089
0.180774
0.180662
0.180554
0.180453
0.18036
0.180278
0.18021
0.18016
0.180133
0.180135
0.180176
0.180264
0.180409
0.180617
0.18089
0.181186
0.181482
0.181409
0.182274
0.182142
0.182012
0.181882
0.181753
0.181625
0.181498
0.181372
0.181247
0.181123
0.181001
0.18088
0.180763
0.180648
0.180538
0.180432
0.180334
0.180245
0.180168
0.180105
0.180062
0.180042
0.180053
0.180098
0.180184
0.180309
0.180465
0.180605
0.180692
0.180406
0.182268
0.182137
0.182006
0.181877
0.181748
0.18162
0.181493
0.181366
0.18124
0.181115
0.180992
0.18087
0.18075
0.180633
0.180519
0.18041
0.180306
0.180209
0.180121
0.180046
0.179985
0.179942
0.17992
0.179923
0.17995
0.179994
0.180043
0.180044
0.179956
0.179505
0.182261
0.18213
0.182
0.181871
0.181742
0.181614
0.181487
0.18136
0.181233
0.181107
0.180983
0.180859
0.180737
0.180617
0.180499
0.180385
0.180275
0.18017
0.180072
0.179982
0.179903
0.179836
0.179782
0.179741
0.179711
0.17968
0.179629
0.179508
0.179275
0.178693
0.182124
0.181994
0.181865
0.181736
0.181608
0.18148
0.181353
0.181226
0.181099
0.180973
0.180848
0.180723
0.1806
0.180479
0.180359
0.180242
0.180129
0.18002
0.179916
0.179818
0.179726
0.17964
0.179557
0.179472
0.17937
0.17923
0.179003
0.178647
0.177961
0.182117
0.181987
0.181859
0.18173
0.181602
0.181474
0.181346
0.181218
0.18109
0.180963
0.180836
0.180709
0.180583
0.180457
0.180332
0.180209
0.180087
0.179967
0.179848
0.179732
0.179615
0.179498
0.179374
0.179237
0.179069
0.178849
0.178529
0.178071
0.177301
0.182109
0.18198
0.181852
0.181723
0.181595
0.181467
0.181338
0.18121
0.181081
0.180952
0.180823
0.180694
0.180565
0.180435
0.180305
0.180175
0.180044
0.179913
0.17978
0.179645
0.179505
0.179357
0.179195
0.179008
0.178781
0.178489
0.178088
0.177544
0.176707
0.182101
0.181973
0.181845
0.181716
0.181588
0.18146
0.181331
0.181202
0.181072
0.180942
0.180811
0.180679
0.180547
0.180413
0.180278
0.180141
0.180002
0.179859
0.179713
0.179559
0.179396
0.179219
0.179021
0.178789
0.178508
0.178152
0.177681
0.177064
0.176171
0.182093
0.181965
0.181837
0.181709
0.181581
0.181452
0.181323
0.181193
0.181063
0.180931
0.180799
0.180665
0.180529
0.180391
0.180251
0.180108
0.17996
0.179807
0.179646
0.179476
0.179291
0.179087
0.178854
0.178582
0.178251
0.177839
0.177308
0.176628
0.175691
0.182084
0.181957
0.181829
0.181702
0.181574
0.181445
0.181315
0.181185
0.181054
0.180921
0.180787
0.18065
0.180512
0.18037
0.180225
0.180075
0.17992
0.179756
0.179583
0.179396
0.179191
0.178961
0.178698
0.178388
0.178013
0.177552
0.176968
0.176235
0.175261
0.182075
0.181948
0.181822
0.181694
0.181566
0.181438
0.181308
0.181177
0.181045
0.180911
0.180775
0.180637
0.180495
0.18035
0.180201
0.180045
0.179882
0.179709
0.179523
0.179321
0.179097
0.178844
0.178553
0.178209
0.177796
0.177291
0.176662
0.175884
0.174879
0.182066
0.18194
0.181814
0.181687
0.181559
0.181431
0.181301
0.181169
0.181036
0.180902
0.180764
0.180624
0.18048
0.180332
0.180178
0.180017
0.179846
0.179665
0.179468
0.179252
0.179011
0.178738
0.178421
0.178048
0.1776
0.177058
0.17639
0.175573
0.174542
0.182057
0.181932
0.181806
0.18168
0.181552
0.181424
0.181294
0.181162
0.181029
0.180893
0.180754
0.180612
0.180466
0.180315
0.180157
0.179991
0.179814
0.179625
0.179418
0.17919
0.178934
0.178641
0.178302
0.177903
0.177426
0.17685
0.176149
0.1753
0.174247
0.182049
0.181924
0.181799
0.181673
0.181546
0.181417
0.181287
0.181155
0.181021
0.180885
0.180745
0.180601
0.180453
0.180299
0.180138
0.179967
0.179785
0.179589
0.179374
0.179134
0.178865
0.178556
0.178198
0.177776
0.177273
0.17667
0.17594
0.175063
0.173993
0.18204
0.181916
0.181792
0.181666
0.181539
0.181411
0.181281
0.181149
0.181014
0.180877
0.180736
0.180592
0.180442
0.180285
0.180121
0.179947
0.17976
0.179557
0.179335
0.179086
0.178805
0.178482
0.178107
0.177666
0.177142
0.176515
0.175762
0.174862
0.173778
0.182031
0.181908
0.181784
0.181659
0.181533
0.181405
0.181275
0.181143
0.181008
0.18087
0.180729
0.180583
0.180432
0.180273
0.180107
0.179929
0.179738
0.179531
0.179301
0.179045
0.178754
0.17842
0.178031
0.177574
0.177032
0.176386
0.175614
0.174695
0.173599
0.182023
0.181901
0.181777
0.181653
0.181527
0.181399
0.181269
0.181137
0.181002
0.180864
0.180722
0.180576
0.180423
0.180263
0.180095
0.179915
0.17972
0.179508
0.179274
0.179011
0.178712
0.178369
0.177969
0.177499
0.176943
0.176282
0.175496
0.174562
0.173457
0.182015
0.181893
0.181771
0.181646
0.181521
0.181393
0.181264
0.181132
0.180997
0.180859
0.180716
0.180569
0.180416
0.180255
0.180085
0.179903
0.179706
0.179491
0.179253
0.178985
0.17868
0.17833
0.177922
0.177442
0.176876
0.176204
0.175406
0.174462
0.17335
0.182007
0.181886
0.181764
0.18164
0.181515
0.181388
0.181259
0.181127
0.180992
0.180854
0.180711
0.180564
0.18041
0.180248
0.180077
0.179894
0.179696
0.179478
0.179237
0.178966
0.178658
0.178302
0.177889
0.177403
0.17683
0.17615
0.175345
0.174394
0.173278
0.181999
0.181879
0.181757
0.181634
0.18151
0.181383
0.181254
0.181123
0.180988
0.18085
0.180707
0.18056
0.180406
0.180244
0.180072
0.179888
0.179689
0.17947
0.179228
0.178955
0.178645
0.178287
0.17787
0.177381
0.176804
0.176121
0.175312
0.174358
0.173239
0.18199
0.181871
0.18175
0.181628
0.181504
0.181378
0.181249
0.181118
0.180984
0.180846
0.180704
0.180556
0.180402
0.180241
0.180069
0.179885
0.179686
0.179467
0.179225
0.178952
0.178641
0.178283
0.177866
0.177377
0.1768
0.176117
0.175308
0.174354
0.173235
0.181981
0.181863
0.181743
0.181621
0.181498
0.181372
0.181245
0.181114
0.18098
0.180843
0.180701
0.180554
0.180401
0.18024
0.180069
0.179886
0.179687
0.17947
0.179229
0.178958
0.17865
0.178295
0.177882
0.177397
0.176824
0.176146
0.175343
0.174394
0.173279
0.181971
0.181854
0.181735
0.181615
0.181492
0.181367
0.18124
0.18111
0.180978
0.180841
0.1807
0.180554
0.180401
0.180241
0.180072
0.17989
0.179694
0.17948
0.179242
0.178975
0.178672
0.178323
0.177917
0.177441
0.176879
0.176211
0.175419
0.174481
0.173371
0.181962
0.181846
0.181728
0.181609
0.181487
0.181363
0.181237
0.181107
0.180975
0.18084
0.1807
0.180555
0.180404
0.180245
0.180078
0.179899
0.179706
0.179496
0.179263
0.179003
0.178708
0.178368
0.177974
0.177511
0.176963
0.176311
0.175535
0.174613
0.173513
0.181953
0.181838
0.181721
0.181603
0.181482
0.181359
0.181233
0.181105
0.180974
0.180839
0.180701
0.180557
0.180408
0.180252
0.180087
0.179912
0.179723
0.179518
0.179293
0.179041
0.178756
0.178429
0.17805
0.177604
0.177076
0.176447
0.175693
0.174793
0.173707
0.181945
0.181831
0.181715
0.181597
0.181477
0.181355
0.18123
0.181103
0.180973
0.18084
0.180703
0.180561
0.180414
0.180261
0.180099
0.179928
0.179745
0.179547
0.179329
0.179088
0.178816
0.178505
0.178145
0.177722
0.177219
0.176618
0.175892
0.175021
0.173952
0.181936
0.181823
0.181708
0.181591
0.181472
0.181351
0.181228
0.181102
0.180973
0.180841
0.180706
0.180566
0.180422
0.180272
0.180114
0.179948
0.179771
0.179581
0.179373
0.179144
0.178888
0.178596
0.178259
0.177863
0.177391
0.176824
0.176134
0.175299
0.174252
0.181928
0.181816
0.181702
0.181586
0.181468
0.181348
0.181226
0.181101
0.180974
0.180843
0.18071
0.180573
0.180431
0.180284
0.180131
0.179971
0.179801
0.17962
0.179424
0.179209
0.178971
0.178701
0.17839
0.178026
0.177591
0.177065
0.176418
0.175627
0.174609
0.181919
0.181809
0.181696
0.181581
0.181464
0.181345
0.181224
0.181101
0.180975
0.180846
0.180715
0.18058
0.180442
0.180299
0.180151
0.179997
0.179835
0.179664
0.17948
0.179282
0.179063
0.178818
0.178538
0.178211
0.177819
0.177342
0.176747
0.17601
0.175027
0.181912
0.181802
0.18169
0.181577
0.181461
0.181343
0.181223
0.181101
0.180977
0.18085
0.180721
0.180589
0.180454
0.180315
0.180172
0.180025
0.179871
0.179711
0.179542
0.179361
0.179164
0.178947
0.178701
0.178416
0.178074
0.177654
0.17712
0.176447
0.175509
0.181904
0.181796
0.181685
0.181572
0.181458
0.181341
0.181222
0.181102
0.180979
0.180854
0.180727
0.180598
0.180466
0.180332
0.180195
0.180055
0.17991
0.179762
0.179607
0.179445
0.179272
0.179085
0.178877
0.178639
0.178353
0.177999
0.177538
0.176944
0.17606
0.181897
0.18179
0.18168
0.181569
0.181455
0.181339
0.181222
0.181103
0.180982
0.180859
0.180734
0.180608
0.18048
0.18035
0.180219
0.180086
0.179951
0.179814
0.179675
0.179532
0.179385
0.17923
0.179064
0.178876
0.178654
0.178377
0.178
0.177502
0.176685
0.181891
0.181784
0.181676
0.181565
0.181453
0.181338
0.181222
0.181104
0.180985
0.180864
0.180741
0.180618
0.180494
0.180368
0.180243
0.180117
0.179992
0.179867
0.179744
0.179622
0.179501
0.17938
0.179258
0.179127
0.178975
0.178785
0.178508
0.178125
0.177393
0.181885
0.181779
0.181672
0.181562
0.181451
0.181337
0.181222
0.181106
0.180988
0.180869
0.180749
0.180629
0.180508
0.180387
0.180267
0.180149
0.180033
0.179921
0.179813
0.179712
0.179618
0.179534
0.179457
0.179386
0.179312
0.179221
0.179059
0.17882
0.178191
0.181879
0.181775
0.181668
0.18156
0.181449
0.181337
0.181223
0.181108
0.180992
0.180875
0.180757
0.180639
0.180522
0.180406
0.180292
0.180181
0.180074
0.179974
0.179882
0.179802
0.179735
0.179687
0.179658
0.179651
0.17966
0.179681
0.179652
0.17959
0.179091
0.181875
0.181771
0.181666
0.181558
0.181448
0.181337
0.181224
0.18111
0.180996
0.18088
0.180765
0.18065
0.180536
0.180424
0.180315
0.18021
0.180112
0.180023
0.179946
0.179885
0.179844
0.17983
0.179847
0.179904
0.179998
0.180138
0.180253
0.180408
0.180053
0.181871
0.181768
0.181664
0.181557
0.181448
0.181338
0.181226
0.181113
0.181
0.180886
0.180772
0.180659
0.180548
0.180439
0.180335
0.180236
0.180146
0.180066
0.180002
0.179957
0.179939
0.179955
0.180014
0.18013
0.180303
0.180563
0.180822
0.181222
0.181023
0.181869
0.181767
0.181663
0.181556
0.181448
0.181339
0.181228
0.181116
0.181004
0.180891
0.180779
0.180668
0.180559
0.180454
0.180353
0.180259
0.180175
0.180103
0.180049
0.180019
0.180019
0.180061
0.180156
0.180325
0.18057
0.180947
0.181346
0.182018
0.181986
0.181868
0.181766
0.181663
0.181557
0.18145
0.181341
0.18123
0.181119
0.181008
0.180896
0.180785
0.180676
0.180569
0.180466
0.180368
0.180278
0.180199
0.180134
0.180089
0.18007
0.180086
0.180149
0.180275
0.180489
0.180798
0.181285
0.181816
0.182786
0.182931
0.181867
0.181766
0.181663
0.181557
0.18145
0.181342
0.181232
0.181122
0.181011
0.1809
0.18079
0.180681
0.180576
0.180474
0.180379
0.180292
0.180216
0.180156
0.180118
0.180107
0.180135
0.180216
0.180365
0.180617
0.180979
0.181569
0.18222
0.183505
0.183836
0.181868
0.181767
0.181664
0.181559
0.181452
0.181343
0.181234
0.181124
0.181013
0.180903
0.180793
0.180686
0.180581
0.180481
0.180387
0.180302
0.180228
0.180172
0.180137
0.180133
0.180169
0.180262
0.180429
0.18071
0.181114
0.181793
0.182549
0.184156
0.184689
0.181768
0.181665
0.18156
0.181454
0.181345
0.181236
0.181126
0.181015
0.180905
0.180796
0.180689
0.180584
0.180485
0.180392
0.180308
0.180236
0.180182
0.18015
0.180149
0.180191
0.180293
0.180471
0.180775
0.181209
0.181962
0.182808
0.18473
0.185486
0.18177
0.181667
0.181562
0.181455
0.181347
0.181238
0.181128
0.181017
0.180907
0.180798
0.180691
0.180587
0.180488
0.180395
0.180311
0.180241
0.180187
0.180157
0.180158
0.180203
0.18031
0.180496
0.180814
0.181269
0.182081
0.183
0.185216
0.186222
0.181773
0.18167
0.181564
0.181457
0.181349
0.181239
0.181129
0.181019
0.180908
0.180799
0.180692
0.180588
0.180489
0.180396
0.180313
0.180242
0.180189
0.180159
0.180162
0.180208
0.180316
0.180506
0.180832
0.1813
0.182152
0.183131
0.185605
0.186895
0.181776
0.181672
0.181567
0.18146
0.181351
0.181241
0.181131
0.18102
0.18091
0.1808
0.180693
0.180589
0.180489
0.180397
0.180313
0.180242
0.180188
0.180158
0.18016
0.180206
0.180315
0.180505
0.180834
0.181308
0.182183
0.183207
0.185892
0.187505
0.181778
0.181675
0.181569
0.181462
0.181353
0.181243
0.181132
0.181021
0.180911
0.180801
0.180693
0.180589
0.180489
0.180396
0.180312
0.18024
0.180185
0.180154
0.180155
0.180199
0.180306
0.180494
0.180822
0.181296
0.182179
0.183234
0.186073
0.188049
0.181781
0.181677
0.181571
0.181464
0.181354
0.181244
0.181133
0.181022
0.180911
0.180801
0.180693
0.180588
0.180488
0.180394
0.180309
0.180237
0.180181
0.180148
0.180147
0.180189
0.180293
0.180477
0.180799
0.181269
0.182145
0.183218
0.186146
0.188526
0.181784
0.18168
0.181574
0.181466
0.181356
0.181246
0.181135
0.181023
0.180912
0.180801
0.180693
0.180588
0.180487
0.180392
0.180306
0.180233
0.180176
0.180141
0.180138
0.180177
0.180276
0.180455
0.180769
0.181231
0.182089
0.183168
0.186108
0.188936
0.181788
0.181684
0.181577
0.181469
0.18136
0.181249
0.181137
0.181025
0.180914
0.180803
0.180694
0.180589
0.180487
0.180392
0.180305
0.180231
0.180172
0.180136
0.18013
0.180166
0.180262
0.180435
0.180741
0.181193
0.182028
0.183105
0.185993
0.189272
0.181793
0.181688
0.181582
0.181473
0.181364
0.181253
0.181141
0.181029
0.180917
0.180806
0.180697
0.180591
0.180489
0.180394
0.180307
0.180231
0.180172
0.180135
0.180128
0.180162
0.180255
0.180425
0.180725
0.181172
0.181993
0.183069
0.18591
0.189486
0.201141
0.192292
0.183306
0.179159
0.176043
0.17216
0.168016
0.163963
0.159841
0.155494
0.150882
0.145974
0.140714
0.135035
0.128875
0.12216
0.114834
0.10675
0.0979439
0.087927
0.0774252
0.0640704
0.0527203
0.0305571
0.0259393
0.195878
0.189193
0.181854
0.178103
0.175059
0.171292
0.167266
0.16328
0.159191
0.154866
0.150269
0.145368
0.140109
0.134427
0.128263
0.121542
0.114206
0.106108
0.0972865
0.0872447
0.0767287
0.0633198
0.0519823
0.0296507
0.025263
0.191591
0.186854
0.180886
0.17724
0.174116
0.170429
0.16651
0.162577
0.158512
0.154203
0.149617
0.144721
0.139459
0.133772
0.127601
0.120867
0.113518
0.105398
0.0965629
0.0864768
0.0759696
0.0624409
0.0512382
0.0285033
0.0247635
0.188528
0.18491
0.179955
0.176433
0.17327
0.169664
0.165837
0.161948
0.157902
0.153609
0.149033
0.144139
0.138874
0.133181
0.127
0.120254
0.112892
0.104748
0.0959019
0.0857659
0.0752805
0.061608
0.0505978
0.0273824
0.0245146
0.186146
0.183161
0.178992
0.17565
0.172501
0.168979
0.165237
0.16139
0.157365
0.153087
0.14852
0.143629
0.138362
0.132663
0.126474
0.119715
0.112341
0.104175
0.09532
0.0851349
0.0746774
0.0608613
0.0500604
0.0263855
0.0244383
0.184181
0.181601
0.178037
0.174886
0.171782
0.168346
0.164684
0.160881
0.156879
0.152618
0.148062
0.143174
0.137906
0.132201
0.126005
0.119235
0.111849
0.103663
0.0948005
0.0845686
0.0741424
0.0601891
0.0496007
0.0255068
0.0244659
0.18253
0.180229
0.17712
0.174146
0.171105
0.167754
0.164168
0.160409
0.156433
0.15219
0.147645
0.142762
0.137494
0.131785
0.125582
0.118801
0.111406
0.1032
0.0943322
0.0840558
0.073663
0.0595794
0.0492039
0.0247264
0.0245635
0.181126
0.179022
0.176251
0.173434
0.170465
0.167196
0.163683
0.159968
0.156021
0.151797
0.147264
0.142387
0.13712
0.131408
0.125199
0.118409
0.111005
0.10278
0.0939082
0.0835899
0.073232
0.0590256
0.0488609
0.0240308
0.0247112
0.179916
0.177954
0.175434
0.172755
0.169861
0.166671
0.163225
0.159556
0.155637
0.151434
0.146915
0.142044
0.136779
0.131065
0.124851
0.118052
0.11064
0.102398
0.0935237
0.0831661
0.0728439
0.0585222
0.0485642
0.0234101
0.0248938
0.17886
0.177004
0.174671
0.17211
0.169291
0.166176
0.162794
0.159168
0.155279
0.151097
0.146592
0.141729
0.136467
0.130751
0.124534
0.117726
0.110308
0.10205
0.0931741
0.0827799
0.0724937
0.0580646
0.0483073
0.022856
0.0250989
0.177931
0.176154
0.173963
0.171503
0.168756
0.16571
0.162387
0.158804
0.154945
0.150784
0.146294
0.141439
0.13618
0.130464
0.124244
0.11743
0.110005
0.101733
0.0928559
0.0824275
0.0721771
0.0576485
0.0480844
0.0223608
0.0253169
0.177108
0.175392
0.173309
0.170935
0.168255
0.165272
0.162004
0.158462
0.154633
0.150494
0.146018
0.141172
0.135917
0.130201
0.123978
0.117158
0.109728
0.101443
0.0925658
0.0821061
0.0718907
0.0572703
0.0478907
0.0219183
0.0255403
0.176375
0.174707
0.172708
0.170405
0.167786
0.164862
0.161645
0.158142
0.154342
0.150224
0.145763
0.140926
0.135675
0.12996
0.123735
0.11691
0.109475
0.101178
0.0923015
0.081813
0.0716314
0.0569271
0.0477222
0.0215231
0.0257637
0.175721
0.174091
0.172156
0.169914
0.167351
0.16448
0.161309
0.157843
0.154071
0.149974
0.145527
0.140699
0.135453
0.129739
0.123513
0.116684
0.109245
0.100937
0.092061
0.0815463
0.0713969
0.0566162
0.0475754
0.0211706
0.0259824
0.175136
0.173538
0.171653
0.169462
0.166949
0.164125
0.160997
0.157565
0.153819
0.149742
0.14531
0.140491
0.13525
0.129538
0.123311
0.116478
0.109035
0.100718
0.0918425
0.0813041
0.0711852
0.0563356
0.0474475
0.0208571
0.0261931
0.174614
0.173041
0.171197
0.169049
0.166579
0.163798
0.160708
0.157308
0.153588
0.149529
0.145111
0.140301
0.135065
0.129354
0.123127
0.11629
0.108845
0.100519
0.0916446
0.081085
0.0709945
0.0560832
0.047336
0.0205794
0.0263929
0.174149
0.172597
0.170784
0.168672
0.166241
0.163498
0.160443
0.157072
0.153375
0.149335
0.144929
0.140128
0.134897
0.129188
0.122961
0.116121
0.108674
0.100339
0.0914663
0.0808879
0.0708234
0.0558576
0.0472388
0.0203348
0.0265796
0.173735
0.172202
0.170414
0.168332
0.165935
0.163225
0.160201
0.156857
0.153181
0.149158
0.144764
0.139971
0.134745
0.129039
0.122811
0.115969
0.108519
0.100179
0.0913064
0.0807116
0.0706705
0.0556573
0.047154
0.020121
0.0267516
0.17337
0.171852
0.170085
0.168028
0.16566
0.16298
0.159984
0.156663
0.153007
0.148999
0.144616
0.139831
0.13461
0.128905
0.122678
0.115834
0.108382
0.100036
0.0911642
0.0805554
0.0705349
0.0554812
0.0470801
0.0199362
0.0269074
0.173052
0.171547
0.169796
0.16776
0.165416
0.162762
0.15979
0.15649
0.152852
0.148857
0.144485
0.139706
0.13449
0.128787
0.12256
0.115715
0.108261
0.0999099
0.0910389
0.0804184
0.0704155
0.0553282
0.0470157
0.0197787
0.0270459
0.172776
0.171283
0.169545
0.167526
0.165203
0.162571
0.159619
0.156338
0.152715
0.148733
0.14437
0.139598
0.134385
0.128684
0.122458
0.115611
0.108156
0.0998008
0.09093
0.0803
0.0703117
0.0551974
0.0469596
0.0196474
0.0271661
0.172543
0.171059
0.169332
0.167326
0.165021
0.162407
0.159473
0.156208
0.152598
0.148626
0.144271
0.139505
0.134295
0.128596
0.12237
0.115522
0.108066
0.0997078
0.0908368
0.0801998
0.0702227
0.0550883
0.0469107
0.0195412
0.0272673
0.17235
0.170873
0.169154
0.16716
0.164869
0.16227
0.159351
0.156098
0.1525
0.148537
0.144188
0.139427
0.13422
0.128523
0.122297
0.115449
0.107991
0.0996307
0.0907592
0.0801173
0.0701479
0.0550002
0.0468684
0.0194592
0.027349
0.172196
0.170726
0.169013
0.167027
0.164747
0.16216
0.159252
0.15601
0.15242
0.148465
0.144122
0.139364
0.13416
0.128464
0.122238
0.11539
0.107931
0.0995692
0.0906966
0.0800522
0.0700871
0.0549323
0.0468324
0.0193999
0.0274121
0.17208
0.170615
0.168906
0.166927
0.164655
0.162077
0.159177
0.155944
0.15236
0.14841
0.144071
0.139316
0.134114
0.128419
0.122194
0.115345
0.107886
0.0995229
0.0906489
0.0800039
0.0700401
0.0548837
0.046803
0.0193615
0.0274582
0.172002
0.170539
0.168834
0.166859
0.164593
0.16202
0.159127
0.155898
0.152319
0.148372
0.144036
0.139284
0.134083
0.128388
0.122163
0.115314
0.107854
0.0994918
0.0906155
0.0799727
0.0700055
0.0548562
0.0467758
0.0193499
0.0274785
0.171962
0.1705
0.168796
0.166823
0.16456
0.16199
0.159099
0.155874
0.152297
0.148352
0.144017
0.139266
0.134066
0.128372
0.122146
0.115298
0.107837
0.0994764
0.0905952
0.0799611
0.0699782
0.0548591
0.0467327
0.0193964
0.0274299
0.17196
0.170498
0.168793
0.166821
0.164558
0.161988
0.159097
0.155871
0.152295
0.14835
0.144015
0.139264
0.134063
0.12837
0.122144
0.115297
0.107833
0.0994777
0.0905875
0.0799717
0.0699547
0.0549011
0.0466594
0.0195272
0.0272795
0.172009
0.170545
0.168838
0.166863
0.164596
0.162022
0.159128
0.155898
0.152319
0.148371
0.144035
0.139282
0.134081
0.128387
0.122161
0.115315
0.10785
0.099498
0.090603
0.0799986
0.0699623
0.0549451
0.0466387
0.0196102
0.0272085
0.172113
0.170643
0.168932
0.166952
0.164677
0.162095
0.159193
0.155956
0.15237
0.148418
0.144077
0.139322
0.134119
0.128424
0.122198
0.115353
0.107888
0.0995386
0.0906422
0.0800442
0.0699991
0.0549975
0.0466607
0.0196639
0.0271905
0.172271
0.170794
0.169076
0.167087
0.164802
0.162207
0.159292
0.156044
0.152449
0.148489
0.144143
0.139383
0.134178
0.128482
0.122256
0.115411
0.107947
0.0996006
0.0907041
0.0801114
0.0700605
0.0550689
0.0467069
0.0197218
0.0271811
0.172485
0.170999
0.169271
0.16727
0.164969
0.162357
0.159426
0.156163
0.152555
0.148585
0.144231
0.139467
0.134258
0.12856
0.122334
0.11549
0.108028
0.0996842
0.0907886
0.0802011
0.0701458
0.0551614
0.0467746
0.0197905
0.0271733
0.172758
0.171259
0.169517
0.167501
0.16518
0.162546
0.159594
0.156312
0.152689
0.148706
0.144343
0.139572
0.134359
0.12866
0.122433
0.115591
0.10813
0.0997897
0.0908964
0.0803135
0.070256
0.0552753
0.0468656
0.0198692
0.0271709
0.17309
0.171576
0.169817
0.167781
0.165434
0.162773
0.159796
0.156492
0.152849
0.148852
0.144478
0.139699
0.134482
0.12878
0.122553
0.115713
0.108255
0.0999179
0.0910281
0.0804493
0.0703919
0.0554111
0.0469819
0.0199579
0.0271772
0.173487
0.171953
0.170171
0.168111
0.165733
0.163039
0.160031
0.156701
0.153037
0.149023
0.144636
0.139849
0.134626
0.128923
0.122696
0.115857
0.108402
0.100069
0.0911844
0.0806093
0.0705546
0.0555699
0.0471254
0.0200578
0.027195
0.173951
0.172393
0.170582
0.168491
0.166076
0.163343
0.160301
0.156941
0.153252
0.149218
0.144818
0.140021
0.134794
0.129087
0.122861
0.116024
0.108574
0.100245
0.0913664
0.0807945
0.0707456
0.0557531
0.0472983
0.0201703
0.0272275
0.174489
0.172901
0.171052
0.168924
0.166464
0.163686
0.160604
0.15721
0.153494
0.149439
0.145024
0.140217
0.134984
0.129275
0.123049
0.116215
0.10877
0.100446
0.0915753
0.0810063
0.0709665
0.0559621
0.0475035
0.020297
0.0272791
0.175107
0.173482
0.171585
0.169411
0.166898
0.164068
0.16094
0.157509
0.153763
0.149686
0.145254
0.140437
0.135198
0.129488
0.123263
0.116431
0.108992
0.100673
0.0918127
0.0812459
0.0712193
0.0561987
0.0477444
0.0204399
0.0273551
0.175817
0.174143
0.172181
0.169953
0.167379
0.164488
0.16131
0.157838
0.154059
0.149958
0.14551
0.140683
0.135438
0.129725
0.123502
0.116675
0.109242
0.100929
0.0920804
0.0815154
0.0715064
0.0564653
0.048025
0.0206018
0.0274613
0.17663
0.174891
0.172845
0.170552
0.167906
0.164945
0.161712
0.158196
0.154383
0.150258
0.145793
0.140954
0.135704
0.12999
0.12377
0.116946
0.109522
0.101215
0.0923808
0.081817
0.0718307
0.0567649
0.0483494
0.0207872
0.0276044
0.177567
0.175736
0.17358
0.171211
0.16848
0.165441
0.162148
0.158585
0.154736
0.150585
0.146103
0.141254
0.135999
0.130285
0.124068
0.117249
0.109835
0.101534
0.0927169
0.0821536
0.0721962
0.0571002
0.0487251
0.0209981
0.0277978
0.178658
0.17669
0.174387
0.171932
0.169103
0.165975
0.162618
0.159005
0.155119
0.150943
0.146444
0.141585
0.136326
0.130612
0.1244
0.117587
0.110184
0.101889
0.0930932
0.0825271
0.0726106
0.0574694
0.0491704
0.0212207
0.0280814
0.179894
0.177712
0.175227
0.172683
0.169743
0.166521
0.1631
0.159438
0.155516
0.151316
0.146802
0.141935
0.136673
0.13096
0.124753
0.117946
0.110556
0.102267
0.0934969
0.0829208
0.0730634
0.0578491
0.0496885
0.0214195
0.0284958
0.18123
0.178746
0.176047
0.173421
0.170364
0.167048
0.163568
0.15986
0.155906
0.151684
0.147157
0.142283
0.13702
0.131308
0.125107
0.118306
0.11093
0.102646
0.0939038
0.0833166
0.0735225
0.0582322
0.050225
0.0216295
0.0289628
0.182668
0.179776
0.176835
0.174137
0.17096
0.167552
0.164017
0.160268
0.156285
0.152045
0.147507
0.142627
0.137364
0.131655
0.12546
0.118666
0.111303
0.103024
0.0943078
0.0837124
0.0739767
0.0586234
0.0507545
0.0218786
0.0294363
0.184218
0.180789
0.177581
0.174825
0.171526
0.168031
0.164447
0.160661
0.156652
0.152396
0.147849
0.142966
0.137703
0.131997
0.125809
0.119021
0.111671
0.103398
0.0947057
0.0841064
0.0744213
0.0590218
0.0512679
0.0221705
0.0299039
0.185889
0.181777
0.178279
0.175483
0.172064
0.168485
0.164858
0.161039
0.157007
0.152738
0.148184
0.143298
0.138035
0.132333
0.126152
0.11937
0.112032
0.103767
0.0950952
0.0844963
0.0748535
0.0594244
0.0517615
0.0225006
0.0303627
0.187685
0.182732
0.178925
0.176108
0.172573
0.168916
0.16525
0.161402
0.15735
0.15307
0.14851
0.143622
0.138361
0.132662
0.126487
0.119713
0.112386
0.104127
0.0954744
0.0848798
0.0752712
0.0598278
0.0522328
0.0228625
0.0308116
0.189602
0.183649
0.179516
0.176699
0.173056
0.169324
0.165624
0.16175
0.157681
0.153391
0.148826
0.143937
0.138678
0.132983
0.126814
0.120047
0.112729
0.104479
0.0958417
0.0852548
0.0756727
0.0602283
0.0526803
0.0232492
0.0312494
0.191627
0.184526
0.180052
0.177255
0.173513
0.169711
0.16598
0.162084
0.158
0.153701
0.149132
0.144242
0.138985
0.133294
0.127131
0.12037
0.113061
0.10482
0.0961954
0.085619
0.0760565
0.0606223
0.0531029
0.0236528
0.0316751
0.193743
0.185365
0.180534
0.177777
0.173947
0.170077
0.166319
0.162403
0.158305
0.153999
0.149427
0.144537
0.139282
0.133595
0.127437
0.120682
0.11338
0.105148
0.096534
0.0859701
0.0764212
0.061006
0.0534995
0.0240651
0.0320876
0.195924
0.186166
0.180965
0.178265
0.174359
0.170424
0.16664
0.162707
0.158596
0.154283
0.149709
0.144819
0.139566
0.133882
0.127729
0.120979
0.113685
0.105461
0.0968555
0.0863055
0.0767651
0.0613754
0.0538694
0.0244779
0.0324849
0.198136
0.186929
0.181351
0.17872
0.17475
0.170751
0.166944
0.162995
0.158872
0.154553
0.149976
0.145086
0.139835
0.134155
0.128006
0.121262
0.113973
0.105757
0.0971581
0.0866227
0.0770866
0.0617268
0.0542112
0.0248832
0.0328645
0.200361
0.187649
0.181701
0.179145
0.17512
0.171059
0.167229
0.163267
0.159133
0.154809
0.150229
0.14534
0.14009
0.134413
0.128267
0.121528
0.114243
0.106035
0.0974406
0.0869198
0.0773845
0.0620571
0.0545242
0.0252737
0.0332247
0.202651
0.188329
0.182023
0.179544
0.175471
0.171347
0.167495
0.16352
0.159376
0.155047
0.150466
0.145576
0.140328
0.134653
0.12851
0.121774
0.114493
0.106292
0.0977009
0.0871935
0.0776572
0.0623604
0.0548092
0.0256349
0.0335664
0.205051
0.188983
0.182305
0.179888
0.17578
0.171598
0.167725
0.16374
0.159588
0.155254
0.150671
0.145781
0.140534
0.134861
0.12872
0.121988
0.114709
0.106513
0.097925
0.0874271
0.0778923
0.0626153
0.0550588
0.0259298
0.0338815
0.207111
0.189577
0.182512
0.180107
0.175985
0.17177
0.167881
0.163888
0.159731
0.155394
0.15081
0.14592
0.140673
0.135001
0.128862
0.122131
0.114855
0.106661
0.0980765
0.0875816
0.0780535
0.0627784
0.0552387
0.0261037
0.0341193
)
;

boundaryField
{
    inlet
    {
        type            zeroGradient;
    }
    outlet
    {
        type            fixedValue;
        value           uniform 0;
    }
    upperWall
    {
        type            zeroGradient;
    }
    lowerWall
    {
        type            zeroGradient;
    }
    frontAndBack
    {
        type            empty;
    }
    procBoundary0to1
    {
        type            processor;
        value           nonuniform List<scalar> 
59
(
0.182436
0.18243
0.182428
0.182427
0.182424
0.182421
0.182417
0.182412
0.182406
0.1824
0.182393
0.182254
0.182254
0.182246
0.182238
0.18223
0.18222
0.182211
0.182201
0.182191
0.182182
0.182172
0.182163
0.182153
0.182144
0.182135
0.182126
0.182117
0.182108
0.182097
0.182087
0.182077
0.182067
0.182057
0.182047
0.182037
0.182028
0.182019
0.182011
0.182003
0.181995
0.181988
0.181982
0.181976
0.181971
0.181968
0.181966
0.181965
0.181966
0.181869
0.181869
0.181871
0.181874
0.181877
0.18188
0.181883
0.181886
0.18189
0.181895
)
;
    }
}


// ************************************************************************* //
