/*--------------------------------*- C++ -*----------------------------------*\
  =========                 |
  \\      /  F ield         | OpenFOAM: The Open Source CFD Toolbox
   \\    /   O peration     | Website:  https://openfoam.org
    \\  /    A nd           | Version:  6
     \\/     M anipulation  |
\*---------------------------------------------------------------------------*/
FoamFile
{
    version     2.0;
    format      ascii;
    class       surfaceScalarField;
    location    "0.1";
    object      phi;
}
// * * * * * * * * * * * * * * * * * * * * * * * * * * * * * * * * * * * * * //

dimensions      [0 3 -1 0 0 0 0];

internalField   nonuniform List<scalar> 
6048
(
4.3847e-07
7.10972e-10
4.37758e-07
7.12736e-10
4.37043e-07
7.15059e-10
4.36325e-07
7.17987e-10
4.35603e-07
7.216e-10
4.34877e-07
7.2599e-10
4.34146e-07
7.31283e-10
4.33408e-07
7.37625e-10
4.32663e-07
7.45217e-10
4.31909e-07
7.54315e-10
4.31143e-07
7.65269e-10
4.30365e-07
7.78519e-10
4.2957e-07
7.94667e-10
4.28756e-07
8.14499e-10
4.27916e-07
8.39092e-10
4.27047e-07
8.69896e-10
4.26138e-07
9.08893e-10
4.25179e-07
9.58876e-10
4.24155e-07
1.02379e-09
4.23046e-07
1.10938e-09
4.21821e-07
1.22424e-09
4.2044e-07
1.3817e-09
4.18836e-07
1.60351e-09
4.16909e-07
1.92677e-09
4.14487e-07
2.42213e-09
4.11265e-07
3.22272e-09
4.06601e-07
4.66404e-09
3.99291e-07
7.3095e-09
3.85695e-07
1.35956e-08
2.37801e-08
3.61915e-07
4.68188e-07
1.46982e-09
4.67428e-07
1.47313e-09
4.66665e-07
1.47745e-09
4.659e-07
1.48288e-09
4.65132e-07
1.48955e-09
4.64361e-07
1.49764e-09
4.63585e-07
1.50734e-09
4.62803e-07
1.51894e-09
4.62016e-07
1.53277e-09
4.61221e-07
1.54928e-09
4.60417e-07
1.56908e-09
4.59603e-07
1.59292e-09
4.58776e-07
1.62182e-09
4.57933e-07
1.65715e-09
4.57071e-07
1.70071e-09
4.56186e-07
1.75495e-09
4.55272e-07
1.82322e-09
4.54321e-07
1.91016e-09
4.53322e-07
2.02226e-09
4.52263e-07
2.16889e-09
4.51123e-07
2.36382e-09
4.49877e-07
2.6279e-09
4.48486e-07
2.99431e-09
4.46895e-07
3.51744e-09
4.45022e-07
4.29592e-09
4.4274e-07
5.50432e-09
4.3985e-07
7.55389e-09
4.36056e-07
1.11033e-08
4.30895e-07
1.87565e-08
3.29062e-08
4.21769e-07
4.78301e-07
2.24369e-09
4.77525e-07
2.24897e-09
4.76747e-07
2.25567e-09
4.75966e-07
2.26396e-09
4.75182e-07
2.27403e-09
4.74393e-07
2.28611e-09
4.736e-07
2.30052e-09
4.72801e-07
2.31763e-09
4.71996e-07
2.33795e-09
4.71183e-07
2.36212e-09
4.70361e-07
2.39099e-09
4.69528e-07
2.42565e-09
4.68683e-07
2.46756e-09
4.67821e-07
2.51864e-09
4.66941e-07
2.58145e-09
4.66036e-07
2.65944e-09
4.65102e-07
2.75733e-09
4.6413e-07
2.88161e-09
4.63111e-07
3.04134e-09
4.62031e-07
3.24947e-09
4.6087e-07
3.52482e-09
4.59602e-07
3.89563e-09
4.58191e-07
4.40578e-09
4.56582e-07
5.12574e-09
4.54701e-07
6.17742e-09
4.52435e-07
7.77055e-09
4.49644e-07
1.03445e-08
4.46134e-07
1.46131e-08
4.42197e-07
2.26934e-08
3.68274e-08
4.38276e-07
4.84191e-07
3.0272e-09
4.83405e-07
3.03476e-09
4.82617e-07
3.04415e-09
4.81825e-07
3.05556e-09
4.8103e-07
3.06924e-09
4.8023e-07
3.08552e-09
4.79426e-07
3.10479e-09
4.78616e-07
3.12754e-09
4.778e-07
3.15445e-09
4.76975e-07
3.18634e-09
4.76142e-07
3.22429e-09
4.75298e-07
3.26974e-09
4.74441e-07
3.32453e-09
4.73569e-07
3.39117e-09
4.72677e-07
3.47292e-09
4.71762e-07
3.57422e-09
4.70819e-07
3.70107e-09
4.69838e-07
3.86173e-09
4.68812e-07
4.06767e-09
4.67726e-07
4.33513e-09
4.66564e-07
4.68755e-09
4.653e-07
5.1596e-09
4.63901e-07
5.80423e-09
4.62323e-07
6.70455e-09
4.60501e-07
7.99855e-09
4.58356e-07
9.91571e-09
4.55809e-07
1.28915e-08
4.52809e-07
1.76136e-08
4.49785e-07
2.57175e-08
3.8895e-08
4.47717e-07
4.88356e-07
3.8181e-09
4.87562e-07
3.82823e-09
4.86766e-07
3.84053e-09
4.85966e-07
3.85526e-09
4.85163e-07
3.87274e-09
4.84355e-07
3.89334e-09
4.83542e-07
3.91757e-09
4.82724e-07
3.94604e-09
4.81899e-07
3.97953e-09
4.81066e-07
4.01907e-09
4.80224e-07
4.06599e-09
4.79372e-07
4.122e-09
4.78507e-07
4.18937e-09
4.77627e-07
4.2711e-09
4.76729e-07
4.37114e-09
4.75808e-07
4.49484e-09
4.7486e-07
4.6494e-09
4.73877e-07
4.84467e-09
4.7285e-07
5.09427e-09
4.71768e-07
5.41738e-09
4.70614e-07
5.84134e-09
4.69368e-07
6.40612e-09
4.68e-07
7.17158e-09
4.66475e-07
8.22954e-09
4.64747e-07
9.72672e-09
4.62765e-07
1.18979e-08
4.60503e-07
1.51534e-08
4.58005e-07
2.01112e-08
4.55709e-07
2.80143e-08
4.00374e-08
4.54566e-07
4.91575e-07
4.61513e-09
4.90775e-07
4.62807e-09
4.89972e-07
4.64349e-09
4.89165e-07
4.66171e-09
4.88355e-07
4.68311e-09
4.8754e-07
4.70814e-09
4.8672e-07
4.73738e-09
4.85895e-07
4.77154e-09
4.85063e-07
4.81156e-09
4.84223e-07
4.85863e-09
4.83375e-07
4.91428e-09
4.82516e-07
4.98053e-09
4.81646e-07
5.06e-09
4.80761e-07
5.15614e-09
4.79858e-07
5.27357e-09
4.78935e-07
5.41842e-09
4.77985e-07
5.59896e-09
4.77003e-07
5.82647e-09
4.75981e-07
6.11642e-09
4.74908e-07
6.49039e-09
4.73771e-07
6.97894e-09
4.72551e-07
7.62599e-09
4.71226e-07
8.49619e-09
4.69769e-07
9.68625e-09
4.68151e-07
1.13453e-08
4.66346e-07
1.37026e-08
4.64368e-07
1.71314e-08
4.62315e-07
2.21645e-08
4.60594e-07
2.97358e-08
4.06177e-08
4.60013e-07
4.94186e-07
5.41747e-09
4.93381e-07
5.43342e-09
4.92572e-07
5.45215e-09
4.9176e-07
5.47401e-09
4.90943e-07
5.49943e-09
4.90123e-07
5.52894e-09
4.89297e-07
5.5632e-09
4.88465e-07
5.60302e-09
4.87627e-07
5.64944e-09
4.86782e-07
5.70383e-09
4.85929e-07
5.76792e-09
4.85065e-07
5.84396e-09
4.8419e-07
5.9349e-09
4.83302e-07
6.04464e-09
4.82397e-07
6.17831e-09
4.81473e-07
6.34278e-09
4.80524e-07
6.54722e-09
4.79547e-07
6.80411e-09
4.78533e-07
7.13045e-09
4.77473e-07
7.54974e-09
4.76357e-07
8.09489e-09
4.75171e-07
8.81259e-09
4.73897e-07
9.77015e-09
4.72517e-07
1.10659e-08
4.71016e-07
1.28465e-08
4.6939e-07
1.53283e-08
4.67679e-07
1.88424e-08
4.66008e-07
2.38356e-08
4.64741e-07
3.10027e-08
4.08276e-08
4.64531e-07
4.96368e-07
6.22454e-09
4.95558e-07
6.24368e-09
4.94744e-07
6.26587e-09
4.93926e-07
6.29148e-09
4.93105e-07
6.32101e-09
4.92279e-07
6.35503e-09
4.91448e-07
6.39428e-09
4.90611e-07
6.43967e-09
4.89768e-07
6.49235e-09
4.88918e-07
6.5538e-09
4.8806e-07
6.62593e-09
4.87193e-07
6.71123e-09
4.86315e-07
6.81293e-09
4.85424e-07
6.93528e-09
4.84519e-07
7.08388e-09
4.83595e-07
7.26619e-09
4.8265e-07
7.49217e-09
4.81679e-07
7.7752e-09
4.80676e-07
8.1335e-09
4.79634e-07
8.59198e-09
4.78544e-07
9.18512e-09
4.77395e-07
9.96115e-09
4.76177e-07
1.09883e-08
4.74879e-07
1.23639e-08
4.73497e-07
1.42281e-08
4.72045e-07
1.67807e-08
4.70578e-07
2.03095e-08
4.69231e-07
2.5182e-08
4.68323e-07
3.19108e-08
4.07821e-08
4.68369e-07
4.98226e-07
7.03587e-09
4.97411e-07
7.05839e-09
4.96593e-07
7.08416e-09
4.95771e-07
7.11363e-09
4.94944e-07
7.14731e-09
4.94114e-07
7.18586e-09
4.93278e-07
7.23006e-09
4.92437e-07
7.28089e-09
4.91589e-07
7.33961e-09
4.90735e-07
7.40781e-09
4.89874e-07
7.48755e-09
4.89003e-07
7.5815e-09
4.88123e-07
7.69313e-09
4.87231e-07
7.82699e-09
4.86326e-07
7.98906e-09
4.85405e-07
8.18726e-09
4.84465e-07
8.43214e-09
4.83503e-07
8.73781e-09
4.82513e-07
9.12331e-09
4.8149e-07
9.61446e-09
4.80429e-07
1.02466e-08
4.79322e-07
1.10684e-08
4.78162e-07
1.21476e-08
4.76948e-07
1.35782e-08
4.75684e-07
1.5492e-08
4.74395e-07
1.80695e-08
4.73147e-07
2.15575e-08
4.72075e-07
2.6254e-08
4.71452e-07
3.25345e-08
4.0554e-08
4.7168e-07
4.99828e-07
7.85111e-09
4.99009e-07
7.87715e-09
4.98187e-07
7.90663e-09
4.9736e-07
7.94002e-09
4.9653e-07
7.97791e-09
4.95695e-07
8.02097e-09
4.94855e-07
8.07003e-09
4.94009e-07
8.12616e-09
4.93158e-07
8.19068e-09
4.92301e-07
8.26528e-09
4.91436e-07
8.35214e-09
4.90564e-07
8.45407e-09
4.89682e-07
8.57473e-09
4.8879e-07
8.7189e-09
4.87886e-07
8.89284e-09
4.86969e-07
9.10483e-09
4.86035e-07
9.36583e-09
4.85083e-07
9.69042e-09
4.84108e-07
1.00981e-08
4.83107e-07
1.06152e-08
4.82076e-07
1.12773e-08
4.81012e-07
1.21325e-08
4.79913e-07
1.32467e-08
4.78782e-07
1.47095e-08
4.77631e-07
1.66425e-08
4.76494e-07
1.92065e-08
4.75441e-07
2.26109e-08
4.746e-07
2.70947e-08
4.74203e-07
3.29317e-08
4.01915e-08
4.74566e-07
5.01221e-07
5.00399e-07
8.69961e-09
4.99573e-07
8.73291e-09
4.98742e-07
8.7703e-09
4.97908e-07
8.81241e-09
4.97069e-07
8.85994e-09
4.96225e-07
8.91378e-09
4.95376e-07
8.97504e-09
4.94522e-07
9.0451e-09
4.93661e-07
9.12571e-09
4.92794e-07
9.21916e-09
4.9192e-07
9.32835e-09
4.91038e-07
9.45707e-09
4.90146e-07
9.61027e-09
4.89245e-07
9.79442e-09
4.88332e-07
1.0018e-08
4.87405e-07
1.02922e-08
4.86464e-07
1.06319e-08
4.85505e-07
1.10567e-08
4.84527e-07
1.1593e-08
4.83529e-07
1.22759e-08
4.82509e-07
1.31525e-08
4.8147e-07
1.42858e-08
4.80419e-07
1.57599e-08
4.79376e-07
1.76854e-08
4.78378e-07
2.02043e-08
4.77497e-07
2.34927e-08
4.76851e-07
2.77406e-08
4.76636e-07
3.31467e-08
3.9727e-08
4.771e-07
5.01613e-07
9.52549e-09
5.00784e-07
9.56268e-09
4.9995e-07
9.60413e-09
4.99112e-07
9.65046e-09
4.98269e-07
9.70243e-09
4.97422e-07
9.76093e-09
4.9657e-07
9.82713e-09
4.95713e-07
9.90244e-09
4.9485e-07
9.98866e-09
4.93981e-07
1.00881e-08
4.93105e-07
1.02038e-08
4.92223e-07
1.03396e-08
4.91333e-07
1.05005e-08
4.90434e-07
1.06931e-08
4.89526e-07
1.0926e-08
4.88607e-07
1.12105e-08
4.87678e-07
1.15614e-08
4.86736e-07
1.19982e-08
4.85782e-07
1.2547e-08
4.84816e-07
1.3242e-08
4.8384e-07
1.41285e-08
4.8286e-07
1.52661e-08
4.81887e-07
1.67327e-08
4.80945e-07
1.8628e-08
4.80073e-07
2.10759e-08
4.79342e-07
2.42239e-08
4.7886e-07
2.82222e-08
4.78793e-07
3.32142e-08
3.91837e-08
4.79336e-07
5.02678e-07
1.03544e-08
5.01845e-07
1.03956e-08
5.01008e-07
1.04412e-08
5.00167e-07
1.04917e-08
4.99321e-07
1.05481e-08
4.98471e-07
1.06111e-08
4.97616e-07
1.06821e-08
4.96756e-07
1.07623e-08
4.95891e-07
1.08537e-08
4.95021e-07
1.09586e-08
4.94144e-07
1.10801e-08
4.93262e-07
1.12219e-08
4.92373e-07
1.13892e-08
4.91478e-07
1.15885e-08
4.90576e-07
1.18284e-08
4.89666e-07
1.21201e-08
4.88749e-07
1.24783e-08
4.87825e-07
1.29222e-08
4.86895e-07
1.3477e-08
4.85961e-07
1.41757e-08
4.85028e-07
1.50614e-08
4.84105e-07
1.61897e-08
4.83205e-07
1.7632e-08
4.82356e-07
1.94776e-08
4.81598e-07
2.18339e-08
4.80998e-07
2.48234e-08
4.80656e-07
2.85648e-08
4.80709e-07
3.31612e-08
3.85779e-08
4.81314e-07
5.03612e-07
1.11862e-08
5.02776e-07
1.12314e-08
5.01936e-07
1.12811e-08
5.01092e-07
1.13359e-08
5.00243e-07
1.13965e-08
4.9939e-07
1.1464e-08
4.98533e-07
1.15395e-08
4.97671e-07
1.16244e-08
4.96804e-07
1.17206e-08
4.95932e-07
1.18303e-08
4.95056e-07
1.19567e-08
4.94174e-07
1.21035e-08
4.93287e-07
1.22758e-08
4.92396e-07
1.24801e-08
4.91499e-07
1.27248e-08
4.90599e-07
1.30209e-08
4.89694e-07
1.33826e-08
4.88788e-07
1.38286e-08
4.87882e-07
1.43832e-08
4.8698e-07
1.50777e-08
4.86089e-07
1.59525e-08
4.85219e-07
1.70593e-08
4.84388e-07
1.84628e-08
4.83624e-07
2.02421e-08
4.82968e-07
2.24901e-08
4.82483e-07
2.53082e-08
4.82258e-07
2.87899e-08
4.8241e-07
3.30091e-08
3.79218e-08
4.83066e-07
5.04429e-07
1.20203e-08
5.0359e-07
1.20697e-08
5.02748e-07
1.21236e-08
5.01901e-07
1.21826e-08
5.0105e-07
1.22475e-08
5.00195e-07
1.23193e-08
4.99335e-07
1.23991e-08
4.98472e-07
1.24883e-08
4.97603e-07
1.25888e-08
4.96731e-07
1.27028e-08
4.95854e-07
1.28334e-08
4.94973e-07
1.29842e-08
4.94089e-07
1.31602e-08
4.93201e-07
1.33677e-08
4.92311e-07
1.36149e-08
4.9142e-07
1.39125e-08
4.90528e-07
1.42741e-08
4.89639e-07
1.47176e-08
4.88756e-07
1.52661e-08
4.87885e-07
1.59489e-08
4.87034e-07
1.68038e-08
4.86215e-07
1.78781e-08
4.85448e-07
1.923e-08
4.84761e-07
2.09293e-08
4.84195e-07
2.30557e-08
4.8381e-07
2.56932e-08
4.83685e-07
2.89152e-08
4.83919e-07
3.27747e-08
3.72242e-08
4.84617e-07
5.14642e-07
1.31601e-08
5.13496e-07
1.3216e-08
5.12343e-07
1.32763e-08
5.11184e-07
1.33418e-08
5.10018e-07
1.34133e-08
5.08846e-07
1.34916e-08
5.07667e-07
1.35778e-08
5.06482e-07
1.36735e-08
5.0529e-07
1.37803e-08
5.04093e-07
1.39005e-08
5.02889e-07
1.40369e-08
5.0168e-07
1.41932e-08
5.00466e-07
1.43741e-08
4.99248e-07
1.45857e-08
4.98027e-07
1.48358e-08
4.96805e-07
1.51346e-08
4.95584e-07
1.54952e-08
4.94367e-07
1.59344e-08
4.93159e-07
1.64738e-08
4.91967e-07
1.71409e-08
4.90801e-07
1.79702e-08
4.89674e-07
1.90048e-08
4.88607e-07
2.02968e-08
4.87629e-07
2.19074e-08
4.86781e-07
2.39046e-08
4.86116e-07
2.63582e-08
4.85705e-07
2.9326e-08
4.85633e-07
3.28461e-08
3.68716e-08
4.85986e-07
4.98774e-07
1.37749e-08
4.98157e-07
1.38334e-08
4.97537e-07
1.38963e-08
4.96915e-07
1.39643e-08
4.9629e-07
1.40382e-08
4.95662e-07
1.41188e-08
4.95033e-07
1.42073e-08
4.94401e-07
1.4305e-08
4.93768e-07
1.44136e-08
4.93134e-07
1.45351e-08
4.92498e-07
1.46725e-08
4.91862e-07
1.4829e-08
4.91227e-07
1.50092e-08
4.90594e-07
1.5219e-08
4.89964e-07
1.54656e-08
4.8934e-07
1.57587e-08
4.88725e-07
1.61105e-08
4.88122e-07
1.65368e-08
4.87539e-07
1.70576e-08
4.86981e-07
1.76981e-08
4.86462e-07
1.84899e-08
4.85995e-07
1.94717e-08
4.85602e-07
2.06896e-08
4.85312e-07
2.21971e-08
4.85165e-07
2.4052e-08
4.85211e-07
2.63119e-08
4.85515e-07
2.90223e-08
4.8615e-07
3.22106e-08
3.58319e-08
4.8719e-07
4.84479e-07
1.39174e-08
4.84337e-07
1.3975e-08
4.84197e-07
1.40369e-08
4.84057e-07
1.41038e-08
4.83919e-07
1.41765e-08
4.83782e-07
1.42557e-08
4.83647e-07
1.43426e-08
4.83513e-07
1.44383e-08
4.83383e-07
1.45445e-08
4.83254e-07
1.46632e-08
4.8313e-07
1.4797e-08
4.8301e-07
1.49491e-08
4.82895e-07
1.51237e-08
4.82788e-07
1.53262e-08
4.8269e-07
1.55636e-08
4.82604e-07
1.58446e-08
4.82534e-07
1.61808e-08
4.82484e-07
1.65865e-08
4.82462e-07
1.708e-08
4.82476e-07
1.76844e-08
4.82538e-07
1.8428e-08
4.82664e-07
1.93453e-08
4.82877e-07
2.04768e-08
4.83205e-07
2.18688e-08
4.83687e-07
2.35701e-08
4.84371e-07
2.56281e-08
4.85314e-07
2.80785e-08
4.86584e-07
3.0941e-08
3.41739e-08
4.88242e-07
4.71606e-07
1.36352e-08
4.71892e-07
1.36888e-08
4.72182e-07
1.37466e-08
4.72477e-07
1.38092e-08
4.72776e-07
1.38773e-08
4.7308e-07
1.39518e-08
4.73389e-07
1.40336e-08
4.73703e-07
1.41238e-08
4.74024e-07
1.4224e-08
4.74351e-07
1.4336e-08
4.74686e-07
1.44622e-08
4.75029e-07
1.46056e-08
4.75383e-07
1.47701e-08
4.75748e-07
1.49606e-08
4.76128e-07
1.51835e-08
4.76526e-07
1.54469e-08
4.76946e-07
1.57612e-08
4.77393e-07
1.61393e-08
4.77875e-07
1.6598e-08
4.78402e-07
1.71577e-08
4.78986e-07
1.78436e-08
4.79645e-07
1.86861e-08
4.80402e-07
1.97205e-08
4.81284e-07
2.09861e-08
4.8233e-07
2.25242e-08
4.83585e-07
2.43736e-08
4.85101e-07
2.65619e-08
4.86939e-07
2.91033e-08
3.19601e-08
4.89153e-07
4.60016e-07
1.29715e-08
4.60686e-07
1.30183e-08
4.61364e-07
1.30691e-08
4.62048e-07
1.31245e-08
4.6274e-07
1.31852e-08
4.6344e-07
1.32518e-08
4.64149e-07
1.33254e-08
4.64865e-07
1.3407e-08
4.65591e-07
1.34979e-08
4.66328e-07
1.35998e-08
4.67075e-07
1.37149e-08
4.67835e-07
1.38459e-08
4.68609e-07
1.39962e-08
4.69399e-07
1.41705e-08
4.70208e-07
1.43743e-08
4.7104e-07
1.4615e-08
4.71899e-07
1.49017e-08
4.72793e-07
1.52462e-08
4.73727e-07
1.56631e-08
4.74715e-07
1.61705e-08
4.75768e-07
1.67905e-08
4.76905e-07
1.75492e-08
4.78148e-07
1.84769e-08
4.79527e-07
1.96071e-08
4.81078e-07
2.09738e-08
4.82843e-07
2.26086e-08
4.84872e-07
2.4533e-08
4.87218e-07
2.67568e-08
2.9247e-08
4.89931e-07
4.49582e-07
1.19651e-08
4.50598e-07
1.20026e-08
4.51623e-07
1.20439e-08
4.52658e-07
1.20895e-08
4.53703e-07
1.21401e-08
4.54758e-07
1.21963e-08
4.55825e-07
1.2259e-08
4.56903e-07
1.2329e-08
4.57993e-07
1.24076e-08
4.59096e-07
1.24964e-08
4.60214e-07
1.25972e-08
4.61347e-07
1.27124e-08
4.62498e-07
1.28452e-08
4.6367e-07
1.29993e-08
4.64864e-07
1.318e-08
4.66086e-07
1.33934e-08
4.6734e-07
1.36477e-08
4.68633e-07
1.39531e-08
4.69974e-07
1.43223e-08
4.71373e-07
1.47707e-08
4.72846e-07
1.53174e-08
4.74411e-07
1.59845e-08
4.76091e-07
1.67975e-08
4.77913e-07
1.77843e-08
4.79915e-07
1.89727e-08
4.82135e-07
2.03879e-08
4.84622e-07
2.20465e-08
4.87423e-07
2.39553e-08
2.6086e-08
4.90584e-07
4.40189e-07
1.06512e-08
4.41514e-07
1.06772e-08
4.42851e-07
1.07067e-08
4.44201e-07
1.07403e-08
4.45562e-07
1.07784e-08
4.46937e-07
1.08217e-08
4.48325e-07
1.0871e-08
4.49727e-07
1.0927e-08
4.51144e-07
1.09908e-08
4.52576e-07
1.10637e-08
4.54026e-07
1.11474e-08
4.55495e-07
1.12438e-08
4.56984e-07
1.13558e-08
4.58497e-07
1.14865e-08
4.60037e-07
1.16403e-08
4.61608e-07
1.18226e-08
4.63215e-07
1.20402e-08
4.64866e-07
1.23018e-08
4.66571e-07
1.26179e-08
4.6834e-07
1.30016e-08
4.70189e-07
1.34686e-08
4.72136e-07
1.40374e-08
4.74204e-07
1.47289e-08
4.76423e-07
1.55654e-08
4.78826e-07
1.65695e-08
4.81453e-07
1.77609e-08
4.84348e-07
1.9152e-08
4.87556e-07
2.07475e-08
2.25239e-08
4.91118e-07
4.31731e-07
9.0616e-09
4.33334e-07
9.07403e-09
4.34951e-07
9.08971e-09
4.36582e-07
9.1091e-09
4.38228e-07
9.13269e-09
4.39889e-07
9.16101e-09
4.41565e-07
9.19466e-09
4.43257e-07
9.23438e-09
4.44967e-07
9.28104e-09
4.46695e-07
9.33572e-09
4.48443e-07
9.39976e-09
4.50212e-07
9.47489e-09
4.52004e-07
9.56326e-09
4.53823e-07
9.66762e-09
4.55672e-07
9.79145e-09
4.57555e-07
9.93917e-09
4.59479e-07
1.01163e-08
4.61451e-07
1.03299e-08
4.63481e-07
1.05884e-08
4.6558e-07
1.09025e-08
4.67764e-07
1.12846e-08
4.70052e-07
1.17494e-08
4.72467e-07
1.23133e-08
4.75039e-07
1.2994e-08
4.778e-07
1.38087e-08
4.80788e-07
1.47725e-08
4.84046e-07
1.58944e-08
4.87616e-07
1.71775e-08
1.8603e-08
4.91537e-07
4.24112e-07
7.22473e-09
4.25964e-07
7.22182e-09
4.27832e-07
7.22186e-09
4.29716e-07
7.22526e-09
4.31616e-07
7.23244e-09
4.33533e-07
7.24385e-09
4.35468e-07
7.25999e-09
4.37421e-07
7.28144e-09
4.39393e-07
7.3089e-09
4.41386e-07
7.34323e-09
4.434e-07
7.38547e-09
4.45438e-07
7.43696e-09
4.47502e-07
7.49936e-09
4.49595e-07
7.57478e-09
4.5172e-07
7.66591e-09
4.53883e-07
7.77611e-09
4.5609e-07
7.90962e-09
4.58348e-07
8.07172e-09
4.60668e-07
8.26892e-09
4.63061e-07
8.50914e-09
4.65544e-07
8.80179e-09
4.68135e-07
9.15782e-09
4.70859e-07
9.58942e-09
4.73744e-07
1.01095e-08
4.76822e-07
1.07307e-08
4.80131e-07
1.14636e-08
4.8371e-07
1.23146e-08
4.87602e-07
1.32854e-08
1.4362e-08
4.91843e-07
4.17246e-07
5.16638e-09
4.19321e-07
5.14654e-09
4.21414e-07
5.12933e-09
4.23524e-07
5.1151e-09
4.25652e-07
5.10422e-09
4.27799e-07
5.09703e-09
4.29965e-07
5.09394e-09
4.32151e-07
5.09538e-09
4.34358e-07
5.10185e-09
4.36588e-07
5.11398e-09
4.38841e-07
5.13252e-09
4.41119e-07
5.15838e-09
4.43426e-07
5.19274e-09
4.45764e-07
5.23705e-09
4.48136e-07
5.29315e-09
4.50549e-07
5.36335e-09
4.53008e-07
5.45054e-09
4.55522e-07
5.5583e-09
4.58099e-07
5.69102e-09
4.60755e-07
5.85402e-09
4.63503e-07
6.0536e-09
4.66364e-07
6.29703e-09
4.69361e-07
6.59235e-09
4.72522e-07
6.948e-09
4.75881e-07
7.3721e-09
4.79473e-07
7.87143e-09
4.83338e-07
8.44976e-09
4.87515e-07
9.10771e-09
9.83622e-09
4.92041e-07
4.11055e-07
2.90979e-09
4.1333e-07
2.87159e-09
4.15623e-07
2.83569e-09
4.17936e-07
2.80238e-09
4.20268e-07
2.77197e-09
4.22621e-07
2.7447e-09
4.24994e-07
2.72087e-09
4.27388e-07
2.70076e-09
4.29805e-07
2.68468e-09
4.32246e-07
2.67302e-09
4.34713e-07
2.66619e-09
4.37206e-07
2.66474e-09
4.3973e-07
2.66929e-09
4.42286e-07
2.68064e-09
4.4488e-07
2.69979e-09
4.47515e-07
2.72796e-09
4.50199e-07
2.76666e-09
4.52939e-07
2.81776e-09
4.55747e-07
2.88352e-09
4.58634e-07
2.96666e-09
4.61617e-07
3.07035e-09
4.64716e-07
3.19821e-09
4.67954e-07
3.35421e-09
4.7136e-07
3.54242e-09
4.74965e-07
3.76665e-09
4.78807e-07
4.02997e-09
4.82923e-07
4.33382e-09
4.87353e-07
4.67789e-09
5.05784e-09
4.92131e-07
4.05467e-07
4.75874e-10
4.0792e-07
4.18053e-10
4.10394e-07
3.62189e-10
4.12888e-07
3.08532e-10
4.15402e-07
2.57291e-10
4.17938e-07
2.08647e-10
4.20496e-07
1.62755e-10
4.23077e-07
1.19755e-10
4.25682e-07
7.97749e-11
4.28312e-07
4.29342e-11
4.30969e-07
9.3498e-12
4.33655e-07
-2.08619e-11
4.36372e-07
-4.75822e-11
4.39123e-07
-7.06879e-11
4.41913e-07
-9.00506e-11
4.44746e-07
-1.05537e-10
4.4763e-07
-1.17009e-10
4.50572e-07
-1.24333e-10
4.53583e-07
-1.27384e-10
4.56676e-07
-1.2606e-10
4.59866e-07
-1.20302e-10
4.63175e-07
-1.1012e-10
4.66625e-07
-9.56229e-11
4.70244e-07
-7.70556e-11
4.74065e-07
-5.48373e-11
4.78125e-07
-2.95677e-11
4.82461e-07
-2.06008e-12
4.87112e-07
2.64975e-11
5.63298e-11
4.92114e-07
4.71373e-07
-2.92606e-09
4.74802e-07
-3.01096e-09
4.78258e-07
-3.09433e-09
4.81743e-07
-3.17599e-09
4.85256e-07
-3.25582e-09
4.88798e-07
-3.33374e-09
4.92371e-07
-3.40974e-09
4.95974e-07
-3.48387e-09
4.9961e-07
-3.55622e-09
5.0328e-07
-3.62698e-09
5.06986e-07
-3.6964e-09
5.1073e-07
-3.76485e-09
5.14515e-07
-3.83286e-09
5.18346e-07
-3.9011e-09
5.22226e-07
-3.97048e-09
5.26163e-07
-4.04216e-09
5.30163e-07
-4.11768e-09
5.34238e-07
-4.19898e-09
5.38399e-07
-4.28851e-09
5.42662e-07
-4.38931e-09
5.47047e-07
-4.50511e-09
5.51577e-07
-4.64031e-09
5.56282e-07
-4.79995e-09
5.61194e-07
-4.98956e-09
5.66354e-07
-5.21474e-09
5.71805e-07
-5.48065e-09
5.77594e-07
-5.79098e-09
5.83769e-07
-6.14814e-09
-6.54683e-09
5.90372e-07
4.74243e-07
-6.22955e-09
4.77573e-07
-6.34065e-09
4.80929e-07
-6.45063e-09
4.84313e-07
-6.55939e-09
4.87724e-07
-6.66688e-09
4.91163e-07
-6.77314e-09
4.94632e-07
-6.87831e-09
4.9813e-07
-6.9826e-09
5.01661e-07
-7.08633e-09
5.05224e-07
-7.18999e-09
5.08821e-07
-7.29421e-09
5.12456e-07
-7.39984e-09
5.16131e-07
-7.50802e-09
5.19851e-07
-7.62022e-09
5.23618e-07
-7.73836e-09
5.27441e-07
-7.86492e-09
5.31327e-07
-8.00304e-09
5.35284e-07
-8.15674e-09
5.39327e-07
-8.33103e-09
5.4347e-07
-8.53208e-09
5.47732e-07
-8.76739e-09
5.52137e-07
-9.04575e-09
5.56715e-07
-9.37722e-09
5.61498e-07
-9.77266e-09
5.66526e-07
-1.0243e-08
5.71844e-07
-1.07983e-08
5.77498e-07
-1.14451e-08
5.83537e-07
-1.21875e-08
-1.3015e-08
5.90005e-07
4.77266e-07
-9.42681e-09
4.80488e-07
-9.56314e-09
4.83737e-07
-9.69876e-09
4.87011e-07
-9.83362e-09
4.90312e-07
-9.96776e-09
4.9364e-07
-1.01013e-08
4.96996e-07
-1.02346e-08
5.00381e-07
-1.0368e-08
5.03797e-07
-1.05019e-08
5.07244e-07
-1.06373e-08
5.10725e-07
-1.07751e-08
5.14242e-07
-1.09166e-08
5.17798e-07
-1.10636e-08
5.21396e-07
-1.12182e-08
5.25041e-07
-1.13835e-08
5.28739e-07
-1.15631e-08
5.32498e-07
-1.17618e-08
5.36327e-07
-1.19856e-08
5.40238e-07
-1.22421e-08
5.44246e-07
-1.25406e-08
5.48371e-07
-1.28922e-08
5.52636e-07
-1.33103e-08
5.57068e-07
-1.381e-08
5.61704e-07
-1.44078e-08
5.66581e-07
-1.51202e-08
5.71745e-07
-1.59625e-08
5.77245e-07
-1.69449e-08
5.83131e-07
-1.80733e-08
-1.93321e-08
5.89448e-07
4.80452e-07
-1.25096e-08
4.83559e-07
-1.26701e-08
4.8669e-07
-1.28303e-08
4.89847e-07
-1.29902e-08
4.93029e-07
-1.31498e-08
4.96237e-07
-1.33096e-08
4.99472e-07
-1.34698e-08
5.02735e-07
-1.3631e-08
5.06027e-07
-1.37939e-08
5.0935e-07
-1.39597e-08
5.12704e-07
-1.41296e-08
5.16093e-07
-1.43055e-08
5.19519e-07
-1.44895e-08
5.22985e-07
-1.46848e-08
5.26497e-07
-1.48952e-08
5.3006e-07
-1.51255e-08
5.3368e-07
-1.53822e-08
5.37367e-07
-1.56732e-08
5.41134e-07
-1.60084e-08
5.44994e-07
-1.64004e-08
5.48965e-07
-1.6864e-08
5.53072e-07
-1.74172e-08
5.57342e-07
-1.80802e-08
5.6181e-07
-1.88755e-08
5.66516e-07
-1.98259e-08
5.71506e-07
-2.09524e-08
5.76831e-07
-2.22698e-08
5.82544e-07
-2.37864e-08
-2.54814e-08
5.88693e-07
4.83812e-07
-1.54691e-08
4.86794e-07
-1.56527e-08
4.898e-07
-1.58363e-08
4.9283e-07
-1.602e-08
4.95884e-07
-1.6204e-08
4.98963e-07
-1.63886e-08
5.02068e-07
-1.65744e-08
5.05199e-07
-1.67621e-08
5.08358e-07
-1.69526e-08
5.11545e-07
-1.71473e-08
5.14763e-07
-1.73477e-08
5.18014e-07
-1.75561e-08
5.213e-07
-1.77754e-08
5.24624e-07
-1.80091e-08
5.27991e-07
-1.82621e-08
5.31406e-07
-1.85404e-08
5.34875e-07
-1.88518e-08
5.38408e-07
-1.92062e-08
5.42016e-07
-1.9616e-08
5.45712e-07
-2.00966e-08
5.49515e-07
-2.06667e-08
5.53447e-07
-2.13489e-08
5.57535e-07
-2.2169e-08
5.61816e-07
-2.31557e-08
5.66329e-07
-2.43388e-08
5.71122e-07
-2.57461e-08
5.7625e-07
-2.73978e-08
5.8177e-07
-2.93063e-08
-3.14453e-08
5.87734e-07
4.87358e-07
-1.82961e-08
4.90206e-07
-1.85015e-08
4.93077e-07
-1.87072e-08
4.95971e-07
-1.89135e-08
4.98887e-07
-1.91204e-08
5.01827e-07
-1.93286e-08
5.04791e-07
-1.95386e-08
5.07781e-07
-1.97513e-08
5.10796e-07
-1.99677e-08
5.13838e-07
-2.01896e-08
5.16909e-07
-2.04187e-08
5.20011e-07
-2.06577e-08
5.23145e-07
-2.09098e-08
5.26315e-07
-2.11795e-08
5.29526e-07
-2.14723e-08
5.32781e-07
-2.17953e-08
5.36086e-07
-2.21577e-08
5.39451e-07
-2.25711e-08
5.42886e-07
-2.30503e-08
5.46403e-07
-2.36136e-08
5.5002e-07
-2.42836e-08
5.53758e-07
-2.50873e-08
5.57646e-07
-2.60566e-08
5.61717e-07
-2.72271e-08
5.66014e-07
-2.86361e-08
5.70588e-07
-3.03199e-08
5.75496e-07
-3.23056e-08
5.80801e-07
-3.46111e-08
-3.72049e-08
5.8656e-07
4.91101e-07
-2.09806e-08
4.93806e-07
-2.12065e-08
4.96532e-07
-2.1433e-08
4.99279e-07
-2.16603e-08
5.02047e-07
-2.18888e-08
5.04838e-07
-2.2119e-08
5.07651e-07
-2.23516e-08
5.10487e-07
-2.25877e-08
5.13348e-07
-2.28284e-08
5.16234e-07
-2.30755e-08
5.19146e-07
-2.33313e-08
5.22087e-07
-2.35986e-08
5.25059e-07
-2.38812e-08
5.28063e-07
-2.4184e-08
5.31104e-07
-2.45133e-08
5.34186e-07
-2.48773e-08
5.37315e-07
-2.52862e-08
5.40497e-07
-2.57536e-08
5.43743e-07
-2.62962e-08
5.47065e-07
-2.69352e-08
5.50478e-07
-2.7697e-08
5.54004e-07
-2.86135e-08
5.5767e-07
-2.97224e-08
5.6151e-07
-3.10671e-08
5.65568e-07
-3.26938e-08
5.69897e-07
-3.46487e-08
5.74559e-07
-3.69676e-08
5.79625e-07
-3.96771e-08
-4.274e-08
5.8516e-07
4.95054e-07
-2.35121e-08
4.97605e-07
-2.3757e-08
5.00175e-07
-2.40028e-08
5.02764e-07
-2.42497e-08
5.05373e-07
-2.44982e-08
5.08003e-07
-2.47488e-08
5.10654e-07
-2.50023e-08
5.13326e-07
-2.52599e-08
5.1602e-07
-2.55229e-08
5.18738e-07
-2.57933e-08
5.2148e-07
-2.60734e-08
5.24248e-07
-2.63666e-08
5.27044e-07
-2.66769e-08
5.2987e-07
-2.70097e-08
5.32729e-07
-2.7372e-08
5.35624e-07
-2.77727e-08
5.38561e-07
-2.82233e-08
5.41546e-07
-2.87388e-08
5.44588e-07
-2.93379e-08
5.47697e-07
-3.00446e-08
5.50889e-07
-3.08889e-08
5.54183e-07
-3.19075e-08
5.57606e-07
-3.31448e-08
5.61191e-07
-3.46521e-08
5.64983e-07
-3.64861e-08
5.69039e-07
-3.8705e-08
5.73428e-07
-4.13561e-08
5.78229e-07
-4.44781e-08
-4.80288e-08
5.83517e-07
4.99228e-07
-2.58792e-08
5.01613e-07
-2.61416e-08
5.04015e-07
-2.64051e-08
5.06435e-07
-2.667e-08
5.08874e-07
-2.69367e-08
5.11331e-07
-2.72059e-08
5.13807e-07
-2.74785e-08
5.16303e-07
-2.77557e-08
5.18819e-07
-2.80389e-08
5.21356e-07
-2.83303e-08
5.23915e-07
-2.86325e-08
5.26498e-07
-2.89488e-08
5.29105e-07
-2.92838e-08
5.31738e-07
-2.96432e-08
5.344e-07
-3.00344e-08
5.37095e-07
-3.04672e-08
5.39826e-07
-3.0954e-08
5.42598e-07
-3.1511e-08
5.45419e-07
-3.2159e-08
5.48299e-07
-3.29243e-08
5.5125e-07
-3.38404e-08
5.54291e-07
-3.49489e-08
5.57448e-07
-3.6301e-08
5.60752e-07
-3.7957e-08
5.64252e-07
-3.99853e-08
5.68006e-07
-4.24589e-08
5.7209e-07
-4.54402e-08
5.76597e-07
-4.8985e-08
-5.30471e-08
5.81615e-07
5.03634e-07
-2.80702e-08
5.05841e-07
-2.83483e-08
5.08063e-07
-2.86278e-08
5.10302e-07
-2.89088e-08
5.12557e-07
-2.91919e-08
5.14829e-07
-2.94779e-08
5.17118e-07
-2.97675e-08
5.19425e-07
-3.00622e-08
5.21749e-07
-3.03634e-08
5.24092e-07
-3.06734e-08
5.26455e-07
-3.09949e-08
5.28838e-07
-3.13315e-08
5.31242e-07
-3.16878e-08
5.33668e-07
-3.207e-08
5.3612e-07
-3.24859e-08
5.38598e-07
-3.29457e-08
5.41107e-07
-3.34627e-08
5.4365e-07
-3.40542e-08
5.46234e-07
-3.47424e-08
5.48865e-07
-3.5556e-08
5.51557e-07
-3.65318e-08
5.54324e-07
-3.77163e-08
5.5719e-07
-3.91672e-08
5.60189e-07
-4.09551e-08
5.63365e-07
-4.31615e-08
5.66784e-07
-4.58778e-08
5.70529e-07
-4.91851e-08
5.74709e-07
-5.3165e-08
-5.77678e-08
5.79429e-07
5.08282e-07
-3.0072e-08
5.10298e-07
-3.03641e-08
5.12328e-07
-3.06577e-08
5.14372e-07
-3.09529e-08
5.16431e-07
-3.12505e-08
5.18504e-07
-3.15511e-08
5.20592e-07
-3.18556e-08
5.22695e-07
-3.21655e-08
5.24814e-07
-3.24823e-08
5.26949e-07
-3.28083e-08
5.29101e-07
-3.31463e-08
5.31269e-07
-3.35e-08
5.33456e-07
-3.38742e-08
5.35661e-07
-3.42752e-08
5.37886e-07
-3.47111e-08
5.40133e-07
-3.51924e-08
5.42403e-07
-3.57332e-08
5.447e-07
-3.63513e-08
5.47028e-07
-3.70704e-08
5.49393e-07
-3.79211e-08
5.51805e-07
-3.8943e-08
5.54276e-07
-4.01873e-08
5.56827e-07
-4.17187e-08
5.5949e-07
-4.36183e-08
5.62311e-07
-4.59826e-08
5.65359e-07
-4.89253e-08
5.68725e-07
-5.25516e-08
5.72541e-07
-5.69807e-08
-6.216e-08
5.76933e-07
4.98839e-07
-3.23301e-08
5.01112e-07
-3.26377e-08
5.03401e-07
-3.29468e-08
5.05706e-07
-3.32577e-08
5.08027e-07
-3.35711e-08
5.10363e-07
-3.38877e-08
5.12716e-07
-3.42084e-08
5.15085e-07
-3.45347e-08
5.17471e-07
-3.48682e-08
5.19874e-07
-3.5211e-08
5.22294e-07
-3.55662e-08
5.24731e-07
-3.59374e-08
5.27186e-07
-3.63294e-08
5.2966e-07
-3.67486e-08
5.32152e-07
-3.72033e-08
5.34664e-07
-3.77042e-08
5.37196e-07
-3.82656e-08
5.39751e-07
-3.89059e-08
5.4233e-07
-3.96496e-08
5.44938e-07
-4.05288e-08
5.4758e-07
-4.15857e-08
5.50269e-07
-4.28755e-08
5.5302e-07
-4.44698e-08
5.55862e-07
-4.64608e-08
5.58841e-07
-4.89617e-08
5.62029e-07
-5.21134e-08
5.65529e-07
-5.60508e-08
5.69497e-07
-6.09494e-08
-6.67546e-08
5.74092e-07
5.14102e-07
-3.4048e-08
5.15831e-07
-3.43664e-08
5.1757e-07
-3.46863e-08
5.19321e-07
-3.50082e-08
5.21082e-07
-3.53326e-08
5.22855e-07
-3.56603e-08
5.24639e-07
-3.59923e-08
5.26434e-07
-3.63298e-08
5.2824e-07
-3.66745e-08
5.30058e-07
-3.70288e-08
5.31887e-07
-3.73952e-08
5.33727e-07
-3.77777e-08
5.35579e-07
-3.8181e-08
5.37442e-07
-3.86114e-08
5.39315e-07
-3.9077e-08
5.412e-07
-3.95888e-08
5.43095e-07
-4.01607e-08
5.45001e-07
-4.08117e-08
5.46918e-07
-4.15666e-08
5.48848e-07
-4.24584e-08
5.50793e-07
-4.35311e-08
5.52761e-07
-4.48435e-08
5.54764e-07
-4.64733e-08
5.56828e-07
-4.85244e-08
5.58994e-07
-5.11273e-08
5.61336e-07
-5.44561e-08
5.63967e-07
-5.86812e-08
5.67078e-07
-6.40609e-08
-7.05368e-08
5.7086e-07
5.32686e-07
-3.51115e-08
5.33755e-07
-3.54352e-08
5.34829e-07
-3.57605e-08
5.35909e-07
-3.60877e-08
5.36993e-07
-3.64174e-08
5.38083e-07
-3.67504e-08
5.39179e-07
-3.70876e-08
5.40279e-07
-3.74302e-08
5.41385e-07
-3.778e-08
5.42495e-07
-3.81391e-08
5.4361e-07
-3.85101e-08
5.44729e-07
-3.88968e-08
5.45852e-07
-3.93038e-08
5.46978e-07
-3.97372e-08
5.48105e-07
-4.02049e-08
5.49234e-07
-4.07176e-08
5.50363e-07
-4.12892e-08
5.51489e-07
-4.19381e-08
5.52612e-07
-4.26893e-08
5.53729e-07
-4.3576e-08
5.54841e-07
-4.46432e-08
5.5595e-07
-4.59525e-08
5.57064e-07
-4.75866e-08
5.582e-07
-4.96607e-08
5.59396e-07
-5.2323e-08
5.60727e-07
-5.57874e-08
5.6231e-07
-6.02643e-08
5.64385e-07
-6.61361e-08
-7.33306e-08
5.67179e-07
5.55275e-07
-3.53834e-08
5.55546e-07
-3.57058e-08
5.55815e-07
-3.60297e-08
5.56083e-07
-3.63554e-08
5.56349e-07
-3.66836e-08
5.56614e-07
-3.70149e-08
5.56876e-07
-3.73502e-08
5.57137e-07
-3.76908e-08
5.57395e-07
-3.80383e-08
5.57651e-07
-3.83946e-08
5.57903e-07
-3.87624e-08
5.58151e-07
-3.9145e-08
5.58394e-07
-3.9547e-08
5.58631e-07
-3.99741e-08
5.5886e-07