/*--------------------------------*- C++ -*----------------------------------*\
  =========                 |
  \\      /  F ield         | OpenFOAM: The Open Source CFD Toolbox
   \\    /   O peration     | Website:  https://openfoam.org
    \\  /    A nd           | Version:  6
     \\/     M anipulation  |
\*---------------------------------------------------------------------------*/
FoamFile
{
    version     2.0;
    format      ascii;
    class       volVectorField;
    location    "0.1";
    object      U;
}
// * * * * * * * * * * * * * * * * * * * * * * * * * * * * * * * * * * * * * //

dimensions      [0 1 -1 0 0 0 0];

internalField   nonuniform List<vector> 
3080
(
(0.442432 -6.40643e-06 1.20589e-20)
(0.442405 -7.76628e-06 1.2003e-20)
(0.442381 -8.91297e-06 0)
(0.44236 -9.83013e-06 1.18922e-20)
(0.442341 -1.04947e-05 0)
(0.442324 -1.08756e-05 0)
(0.442307 -1.09332e-05 1.17283e-20)
(0.44229 -1.06164e-05 0)
(0.442271 -9.85911e-06 1.16207e-20)
(0.442249 -8.57428e-06 0)
(0.442223 -6.64785e-06 0)
(0.442191 -3.92963e-06 1.14623e-20)
(0.442149 -2.21023e-07 0)
(0.442095 4.74234e-06 1.13594e-20)
(0.442024 1.1315e-05 0)
(0.441931 1.99762e-05 0)
(0.441807 3.13814e-05 0)
(0.441644 4.64404e-05 -1.11643e-20)
(0.441428 6.64384e-05 0)
(0.44114 9.3231e-05 1.10764e-20)
(0.440755 0.00012958 0)
(0.440236 0.000179725 0)
(0.439528 0.00025056 0)
(0.438545 0.000353606 0)
(0.437156 0.000511031 0)
(0.435093 0.000761766 0)
(0.432014 0.0012144 0)
(0.426544 0.00200629 -2.21078e-20)
(0.418752 0.00402604 0)
(0.395731 0.00678126 0)
(0.472418 1.33149e-07 9.72969e-21)
(0.47239 -3.43488e-06 -9.6886e-21)
(0.472365 -6.51748e-06 0)
(0.472344 -9.07928e-06 9.60519e-21)
(0.472326 -1.10714e-05 0)
(0.47231 -1.24295e-05 0)
(0.472296 -1.30711e-05 -9.48229e-21)
(0.472284 -1.28897e-05 1.88821e-20)
(0.472271 -1.17461e-05 -9.40064e-21)
(0.472258 -9.45821e-06 0)
(0.472242 -5.78767e-06 0)
(0.472223 -4.21045e-07 9.27897e-21)
(0.472198 7.05535e-06 0)
(0.472165 1.7191e-05 9.19987e-21)
(0.47212 3.07209e-05 0)
(0.472061 4.86369e-05 0)
(0.47198 7.22919e-05 0)
(0.471873 0.000103557 9.04935e-21)
(0.471728 0.000145066 0)
(0.471534 0.000200602 -8.9807e-21)
(0.471274 0.000275758 0)
(0.470923 0.000379061 0)
(0.47045 0.000524194 1.77951e-20)
(0.469804 0.000733854 -1.7759e-20)
(0.468917 0.00105025 0)
(0.467661 0.00154882 0)
(0.465938 0.00241733 0)
(0.463204 0.00394146 5.36864e-20)
(0.460093 0.00740873 0)
(0.453448 0.0133783 -3.67534e-20)
(0.482622 -1.25316e-06 -1.59605e-20)
(0.482594 -7.18824e-06 0)
(0.48257 -1.23883e-05 0)
(0.482549 -1.67959e-05 -4.72813e-20)
(0.482531 -2.03359e-05 3.13875e-20)
(0.482514 -2.29113e-05 0)
(0.4825 -2.4398e-05 3.11213e-20)
(0.482486 -2.46352e-05 -1.54945e-20)
(0.482473 -2.34145e-05 0)
(0.482459 -2.04649e-05 0)
(0.482442 -1.54325e-05 0)
(0.482422 -7.85351e-06 -4.56914e-20)
(0.482395 2.88233e-06 0)
(0.482361 1.75833e-05 -1.5101e-20)
(0.482315 3.73268e-05 0)
(0.482254 6.35617e-05 0)
(0.482172 9.82559e-05 0)
(0.482062 0.000144115 0)
(0.481915 0.000204921 0)
(0.481718 0.000286055 0)
(0.481455 0.000395376 -2.93738e-20)
(0.481102 0.000544678 0)
(0.480627 0.000752434 -1.46013e-20)
(0.479981 0.00104853 4.3712e-20)
(0.479101 0.00148571 0)
(0.477877 0.00215574 0)
(0.476212 0.00326087 -2.91759e-20)
(0.473782 0.00513042 -2.93708e-20)
(0.470963 0.00885058 2.96096e-20)
(0.467079 0.0156432 3.01839e-20)
(0.488565 -9.86131e-07 -2.75258e-20)
(0.488537 -9.18285e-06 0)
(0.488512 -1.64042e-05 0)
(0.488489 -2.25678e-05 2.71797e-20)
(0.48847 -2.75691e-05 -3.94507e-25)
(0.488452 -3.12751e-05 0)
(0.488436 -3.35157e-05 -2.68323e-20)
(0.488421 -3.40719e-05 -2.6716e-20)
(0.488406 -3.26607e-05 0)
(0.48839 -2.89151e-05 0)
(0.488372 -2.23574e-05 2.63692e-20)
(0.48835 -1.2363e-05 6.75464e-25)
(0.488323 1.88898e-06 0)
(0.488287 2.14828e-05 2.60262e-20)
(0.48824 4.78609e-05 0)
(0.488179 8.29577e-05 0)
(0.488097 0.000129392 0)
(0.487988 0.00019075 -2.55869e-20)
(0.487844 0.000272017 0)
(0.487652 0.000380239 0)
(0.487396 0.000525605 2.52949e-20)
(0.487055 0.00072322 0)
(0.486599 0.000996287 0)
(0.485986 0.00138154 -5.01578e-20)
(0.485161 0.00194102 0)
(0.484041 0.00277945 0)
(0.482557 0.00410404 2.50954e-20)
(0.480539 0.00624799 5.02958e-20)
(0.478332 0.0100781 -2.54385e-20)
(0.475883 0.0165315 0)
(0.492768 1.64689e-06 2.46584e-20)
(0.492739 -8.6938e-06 -2.45539e-20)
(0.492712 -1.78387e-05 0)
(0.492689 -2.56798e-05 2.43449e-20)
(0.492667 -3.20828e-05 -2.42405e-20)
(0.492648 -3.68781e-05 0)
(0.492631 -3.98501e-05 -2.40299e-20)
(0.492614 -4.07224e-05 4.78499e-20)
(0.492597 -3.91391e-05 0)
(0.492579 -3.46401e-05 4.74284e-20)
(0.492559 -2.66272e-05 -2.36098e-20)
(0.492536 -1.43202e-05 2.35051e-20)
(0.492508 3.30426e-06 0)
(0.492471 2.75957e-05 -2.3297e-20)
(0.492425 6.03451e-05 0)
(0.492364 0.000103948 0)
(0.492284 0.000161637 0)
(0.492179 0.000237819 2.28946e-20)
(0.492041 0.000338587 0)
(0.491858 0.000472493 0)
(0.491616 0.000651777 0)
(0.491296 0.000894354 0)
(0.490872 0.00122722 0)
(0.49031 0.00169214 2.24172e-20)
(0.489566 0.00235687 0)
(0.488582 0.00333152 4.46781e-20)
(0.487324 0.00481539 0)
(0.485725 0.00711449 -4.48987e-20)
(0.484125 0.0108899 -4.49325e-20)
(0.482678 0.0167803 0)
(0.496017 5.53539e-06 0)
(0.495986 -6.82308e-06 2.25541e-20)
(0.495958 -1.77871e-05 0)
(0.495933 -2.72232e-05 -6.70796e-20)
(0.49591 -3.49676e-05 0)
(0.495889 -4.08151e-05 4.43296e-20)
(0.49587 -4.45063e-05 2.20675e-20)
(0.495851 -4.57103e-05 -2.19696e-20)
(0.495832 -4.40023e-05 0)
(0.495813 -3.88343e-05 -4.35471e-20)
(0.495792 -2.94955e-05 0)
(0.495767 -1.50603e-05 -4.3154e-20)
(0.495738 5.68297e-06 0)
(0.495702 3.43292e-05 0)
(0.495656 7.299e-05 0)
(0.495598 0.000124481 0)
(0.495521 0.000192588 0)
(0.495422 0.000282451 4.20057e-20)
(0.495292 0.000401129 4.18246e-20)
(0.495122 0.000558455 0)
(0.494899 0.000768355 0)
(0.494607 0.00105093 0)
(0.494224 0.00143589 0)
(0.493723 0.00196808 -4.10576e-20)
(0.493075 0.00271753 0)
(0.492243 0.00379359 -8.18279e-20)
(0.491222 0.00537932 4.08536e-20)
(0.490012 0.00774075 4.08586e-20)
(0.488944 0.0113711 4.11074e-20)
(0.488234 0.016687 4.08235e-20)
(0.498652 1.04932e-05 0)
(0.49862 -3.77234e-06 0)
(0.498591 -1.64664e-05 0)
(0.498564 -2.74303e-05 9.26132e-25)
(0.498539 -3.64718e-05 4.16016e-20)
(0.498517 -4.33521e-05 -4.14182e-20)
(0.498495 -4.77705e-05 4.12323e-20)
(0.498475 -4.93456e-05 0)
(0.498454 -4.7589e-05 -4.08614e-20)
(0.498434 -4.18719e-05 0)
(0.498411 -3.13808e-05 4.04898e-20)
(0.498386 -1.50577e-05 4.03059e-20)
(0.498357 8.47951e-06 0)
(0.498321 4.10463e-05 0)
(0.498277 8.50403e-05 3.97502e-20)
(0.498221 0.000143648 3.95678e-20)
(0.49815 0.000221139 3.93873e-20)
(0.498058 0.000323276 -5.83298e-24)
(0.497939 0.000457928 -3.90426e-20)
(0.497784 0.00063596 0)
(0.497584 0.000872593 0)
(0.497325 0.00118947 0)
(0.496989 0.00161798 3.84029e-20)
(0.496559 0.00220427 3.83021e-20)
(0.496014 0.00301793 0)
(0.495338 0.00416321 7.61911e-20)
(0.494549 0.00580309 -8.52182e-23)
(0.49369 0.0081611 -1.23332e-22)
(0.49307 0.0116009 -3.79113e-20)
(0.492912 0.0163816 -7.57327e-20)
(0.500855 1.6568e-05 -4.00524e-20)
(0.500821 4.94152e-07 0)
(0.50079 -1.38534e-05 0)
(0.500761 -2.62911e-05 9.78842e-25)
(0.500735 -3.65994e-05 -7.87095e-20)
(0.50071 -4.45081e-05 -3.9178e-20)
(0.500687 -4.96793e-05 -3.90022e-20)
(0.500665 -5.16854e-05 3.88239e-20)
(0.500643 -4.9981e-05 7.72938e-20)
(0.500621 -4.38655e-05 -3.84683e-20)
(0.500598 -3.24336e-05 -1.62815e-24)
(0.500572 -1.45106e-05 0)
(0.500543 1.14355e-05 0)
(0.500508 4.74122e-05 0)
(0.500466 9.60637e-05 -3.75831e-20)
(0.500414 0.000160893 -3.7408e-20)
(0.500349 0.000246571 -3.72346e-20)
(0.500266 0.000359374 -6.38932e-24)
(0.50016 0.000507809 0)
(0.500024 0.000703518 0)
(0.499849 0.000962623 0)
(0.499626 0.00130772 0)
(0.499343 0.00177089 -3.62823e-20)
(0.498987 0.00239821 0)
(0.498549 0.00325674 0)
(0.498029 0.00444301 -3.59447e-20)
(0.497459 0.00609888 -3.58701e-20)
(0.496909 0.00840778 -3.58098e-20)
(0.496663 0.0116351 3.57587e-20)
(0.496922 0.0159315 3.55832e-20)
(0.50273 2.3825e-05 7.64948e-20)
(0.502695 6.02832e-06 -3.80801e-20)
(0.502662 -9.90584e-06 0)
(0.502632 -2.37733e-05 3.7745e-20)
(0.502604 -3.5329e-05 3.75757e-20)
(0.502578 -4.42745e-05 3.74058e-20)
(0.502553 -5.02386e-05 3.72342e-20)
(0.502529 -5.27536e-05 -3.70644e-20)
(0.502505 -5.12242e-05 -3.6893e-20)
(0.502482 -4.48876e-05 3.67214e-20)
(0.502458 -3.27601e-05 -7.30973e-20)
(0.502432 -1.35672e-05 0)
(0.502403 1.43498e-05 0)
(0.50237 5.31589e-05 -3.60313e-20)
(0.502331 0.000105708 3.58596e-20)
(0.502284 0.000175756 0)
(0.502225 0.000268295 7.10376e-20)
(0.502153 0.000389991 -3.53572e-20)
(0.502061 0.000549819 0)
(0.501945 0.000759947 0)
(0.501799 0.00103703 0)
(0.501615 0.00140405 6.94094e-20)
(0.501386 0.00189302 6.91095e-20)
(0.501107 0.00254879 0)
(0.500776 0.0034345 0)
(0.500406 0.0046376 0)
(0.50004 0.00627947 6.80496e-20)
(0.499761 0.00850795 6.77975e-20)
(0.499824 0.0115148 -6.75191e-20)
(0.5004 0.0153784 0)
(0.504347 3.23175e-05 -1.25748e-24)
(0.504311 1.28779e-05 7.32485e-20)
(0.504277 -4.58609e-06 0)
(0.504245 -1.98481e-05 0)
(0.504215 -3.26414e-05 0)
(0.504187 -4.2643e-05 0)
(0.50416 -4.94531e-05 -3.58043e-20)
(0.504135 -5.25701e-05 0)
(0.50411 -5.13573e-05 0)
(0.504085 -4.50001e-05 0)
(0.504061 -3.24505e-05 1.0541e-19)
(0.504035 -1.23531e-05 6.9937e-20)
(0.504007 1.70522e-05 0)
(0.503976 5.80609e-05 3.46359e-20)
(0.50394 0.000113679 -3.4469e-20)
(0.503898 0.000187859 -6.85964e-20)
(0.503847 0.000285828 -6.82746e-20)
(0.503786 0.000414524 -6.79322e-20)
(0.503709 0.000583218 -6.76038e-20)
(0.503615 0.000804369 6.72792e-20)
(0.503499 0.00109482 0)
(0.503356 0.00147748 -3.82752e-23)
(0.503184 0.00198364 -1.32727e-19)
(0.502981 0.00265607 0)
(0.502755 0.00355318 0)
(0.502526 0.00475282 0)
(0.502347 0.00635748 -1.51571e-22)
(0.502302 0.00848468 -1.97921e-22)
(0.502621 0.0112716 6.4785e-20)
(0.503443 0.01475 0)
(0.505754 4.20951e-05 -3.55829e-20)
(0.505716 2.10833e-05 -3.54255e-20)
(0.50568 2.13938e-06 0)
(0.505646 -1.449e-05 7.02132e-20)
(0.505615 -2.85197e-05 0)
(0.505585 -3.96061e-05 0)
(0.505557 -4.73263e-05 0)
(0.50553 -5.11514e-05 0)
(0.505504 -5.04118e-05 6.85987e-20)
(0.505479 -4.42533e-05 0)
(0.505453 -3.15782e-05 -6.79487e-20)
(0.505428 -1.09704e-05 -4.21343e-24)
(0.505401 1.94058e-05 -6.72888e-20)
(0.505372 6.19381e-05 0)
(0.50534 0.000119744 0)
(0.505304 0.000196908 6.63117e-20)
(0.505262 0.000298804 6.59743e-20)
(0.505212 0.000432527 6.56618e-20)
(0.505152 0.000607487 1.83969e-23)
(0.50508 0.000836209 -6.50219e-20)
(0.504995 0.00113543 0)
(0.504894 0.00152759 -6.4399e-20)
(0.504778 0.00204273 1.28143e-19)
(0.504651 0.00272104 0)
(0.504526 0.0036157 0)
(0.504429 0.00479512 6.31174e-20)
(0.504417 0.00634494 -1.25738e-19)
(0.504576 0.00835754 -1.81376e-22)
(0.505106 0.01093 0)
(0.506122 0.0140652 0)
(0.506944 3.0673e-05 0)
(0.506907 1.02947e-05 0)
(0.506871 -7.68177e-06 -1.36452e-19)
(0.506838 -2.29537e-05 6.79115e-20)
(0.506807 -3.51613e-05 6.75964e-20)
(0.506777 -4.38642e-05 0)
(0.506749 -4.85134e-05 -6.69621e-20)
(0.506722 -4.8416e-05 -6.66459e-20)
(0.506696 -4.26894e-05 0)
(0.50667 -3.02029e-05 0)
(0.506645 -9.49949e-06 -4.26831e-24)
(0.506619 2.13047e-05 6.5362e-20)
(0.506593 6.46543e-05 0)
(0.506565 0.000123731 6.47093e-20)
(0.506535 0.00020269 0)
(0.506502 0.000306969 -6.40723e-20)
(0.506464 0.000443708 0)
(0.506422 0.000622308 1.26844e-19)
(0.506373 0.000855167 0)
(0.506319 0.00115866 6.27673e-20)
(0.50626 0.00155442 0)
(0.506199 0.00207093 -6.21742e-20)
(0.506145 0.00274537 0)
(0.506116 0.00362563 0)
(0.506141 0.00477117 -6.12514e-20)
(0.506279 0.00625296 6.09322e-20)
(0.506613 0.00814296 -1.65517e-22)
(0.507319 0.0105092 -5.9992e-20)
(0.508488 0.013337 0)
(0.508021 4.16632e-05 0)
(0.507982 1.98873e-05 0)
(0.507945 5.79867e-07 6.6552e-20)
(0.50791 -1.59452e-05 -2.37452e-24)
(0.507877 -2.93162e-05 -6.59342e-20)
(0.507846 -3.90806e-05 0)
(0.507817 -4.46768e-05 6.53107e-20)
(0.507789 -4.5398e-05 0)
(0.507762 -4.03464e-05 0)
(0.507736 -2.83735e-05 0)
(0.507712 -8.0029e-06 -6.40497e-20)
(0.507688 2.26707e-05 0)
(0.507664 6.61136e-05 -6.34075e-20)
(0.507641 0.000125526 -6.30948e-20)
(0.507617 0.000205071 0)
(0.507593 0.000310174 6.24444e-20)
(0.507568 0.000447918 -6.2122e-20)
(0.507542 0.000627557 -1.83904e-23)
(0.507517 0.000861192 -6.14755e-20)
(0.507494 0.00116463 -2.94948e-23)
(0.507476 0.00155845 0)
(0.507469 0.0020693 6.04977e-20)
(0.507485 0.00273123 0)
(0.507545 0.00358688 0)
(0.507682 0.00468753 0)
(0.507953 0.00609159 -5.91058e-20)
(0.508439 0.00785471 -1.50483e-22)
(0.509291 0.0100238 1.16666e-19)
(0.510583 0.0125749 0)
(0.508965 5.40484e-05 6.57289e-20)
(0.508924 3.09087e-05 6.54294e-20)
(0.508886 1.02813e-05 -6.51278e-20)
(0.50885 -7.5117e-06 -2.43091e-24)
(0.508816 -2.20914e-05 0)
(0.508783 -3.29993e-05 0)
(0.508753 -3.96688e-05 6.39038e-20)
(0.508724 -4.13894e-05 0)
(0.508697 -3.72601e-05 -6.32829e-20)
(0.508671 -2.61313e-05 0)
(0.508647 -6.52763e-06 0)
(0.508625 2.34508e-05 6.23417e-20)
(0.508604 6.62572e-05 1.24057e-19)
(0.508585 0.000125066 0)
(0.508568 0.000203992 0)
(0.508553 0.000308372 -1.2215e-19)
(0.508541 0.000445136 6.07624e-20)
(0.508533 0.000623278 -6.04433e-20)
(0.508531 0.000854454 6.01234e-20)
(0.508538 0.00115373 -5.98024e-20)
(0.50856 0.00154046 -5.94437e-20)
(0.508605 0.00203929 -1.18264e-19)
(0.508687 0.00268108 0)
(0.508829 0.00350351 0)
(0.509067 0.00455047 0)
(0.509457 0.00586981 5.77719e-20)
(0.510072 0.00750428 -5.73674e-20)
(0.511046 0.00948578 -5.69137e-20)
(0.512439 0.0117856 0)
(0.509791 6.78088e-05 -6.46679e-20)
(0.50975 4.33342e-05 -6.43674e-20)
(0.50971 2.13953e-05 6.40647e-20)
(0.509673 2.31806e-06 -2.47958e-24)
(0.509637 -1.35168e-05 0)
(0.509604 -2.5651e-05 0)
(0.509572 -3.35209e-05 -1.25668e-19)
(0.509542 -3.64216e-05 0)
(0.509515 -3.34619e-05 1.2442e-19)
(0.50949 -2.35067e-05 6.18937e-20)
(0.509467 -5.10217e-06 0)
(0.509446 2.362e-05 -6.12651e-20)
(0.509428 6.50669e-05 -6.0947e-20)
(0.509414 0.000122344 0)
(0.509404 0.000199464 0)
(0.509398 0.000301609 1.19958e-19)
(0.509399 0.000435471 -5.96471e-20)
(0.509407 0.000609679 -5.93182e-20)
(0.509428 0.000835324 0)
(0.509464 0.0011266 0)
(0.509524 0.0015015 5.83456e-20)
(0.509618 0.0019826 5.80079e-20)
(0.509762 0.00259763 -5.76085e-20)
(0.50998 0.00337964 0)
(0.510309 0.00436595 0)
(0.510803 0.00559564 0)
(0.51153 0.00710134 0)
(0.512607 0.00890434 0)
(0.514083 0.0109745 0)
(0.510518 8.30468e-05 0)
(0.510475 5.72489e-05 0)
(0.510435 3.39908e-05 -6.25039e-20)
(0.510396 1.35979e-05 -1.24451e-19)
(0.510359 -3.55182e-06 0)
(0.510324 -1.70068e-05 0)
(0.510292 -2.62141e-05 2.63306e-24)
(0.510262 -3.04843e-05 -6.10849e-20)
(0.510234 -2.89485e-05 -3.11975e-24)
(0.510209 -2.05017e-05 -3.53914e-24)
(0.510186 -3.73159e-06 -6.02111e-20)
(0.510168 2.31735e-05 -5.99161e-20)
(0.510153 6.25424e-05 5.96191e-20)
(0.510143 0.000117372 0)
(0.510139 0.000191522 0)
(0.510142 0.000289958 -5.87256e-20)
(0.510155 0.000419058 5.84214e-20)
(0.51018 0.000586997 1.16212e-19)
(0.510222 0.000804203 -5.77836e-20)
(0.510286 0.00108389 0)
(0.510382 0.00144262 0)
(0.510521 0.00190088 -1.13609e-19)
(0.510722 0.00248336 1.6943e-19)
(0.511009 0.00321887 -1.12198e-19)
(0.51142 0.00413902 -1.11436e-19)
(0.512005 0.00527561 0)
(0.512828 0.00665349 1.0972e-19)
(0.51399 0.00828653 0)
(0.515535 0.0101451 0)
(0.511141 9.94521e-05 6.25567e-20)
(0.511097 7.23706e-05 0)
(0.511056 4.78128e-05 1.23938e-19)
(0.511016 2.60999e-05 1.23343e-19)
(0.510979 7.60191e-06 0)
(0.510943 -7.24237e-06 0)
(0.51091 -1.78981e-05 6.07707e-20)
(0.51088 -2.37013e-05 6.04674e-20)
(0.510852 -2.38167e-05 -6.01628e-20)
(0.510827 -1.71846e-05 -3.36767e-24)
(0.510806 -2.45286e-06 3.89224e-24)
(0.51079 2.211e-05 4.59062e-24)
(0.510778 5.87252e-05 -5.50367e-24)
(0.510773 0.000110245 0)
(0.510775 0.00018033 0)
(0.510787 0.000273673 0)
(0.510812 0.000396278 0)
(0.510853 0.000555791 -5.73529e-20)
(0.510915 0.000761898 5.70287e-20)
(0.511006 0.00102677 0)
(0.511136 0.00136549 0)
(0.511317 0.00179646 1.12046e-19)
(0.51157 0.00234153 -1.11339e-19)
(0.51192 0.00302563 1.15339e-22)
(0.512403 0.00387543 1.09828e-19)
(0.513068 0.00491676 0)
(0.513974 0.00616844 -1.08089e-19)
(0.515209 0.00763926 -1.06859e-19)
(0.516811 0.00930116 0)
(0.511657 0.000116416 -1.23437e-19)
(0.511614 8.81354e-05 0)
(0.511573 6.23431e-05 -6.11258e-20)
(0.511533 3.93529e-05 -6.08265e-20)
(0.511496 1.9522e-05 0)
(0.51146 3.27092e-06 0)
(0.511428 -8.89061e-06 0)
(0.511397 -1.63323e-05 0)
(0.51137 -1.82634e-05 5.93135e-20)
(0.511347 -1.36829e-05 -1.18021e-19)
(0.511328 -1.31546e-06 5.87065e-20)
(0.511314 2.04692e-05 1.16796e-19)
(0.511306 5.37587e-05 -5.80927e-20)
(0.511306 0.000101227 -5.77778e-20)
(0.511315 0.000166299 0)
(0.511336 0.000253349 0)
(0.511372 0.000367948 0)
(0.511429 0.000517156 0)
(0.511511 0.00070986 0)
(0.511627 0.00095713 0)
(0.511788 0.00127257 0)
(0.512008 0.00167254 0)
(0.512308 0.0021762 0)
(0.512715 0.00280499 2.17827e-19)
(0.513263 0.00358127 0)
(0.513998 0.00452594 0)
(0.514976 0.00565319 -1.06257e-19)
(0.516274 0.00696826 1.05423e-19)
(0.517926 0.00844526 0)
(0.512082 0.00013379 6.09575e-20)
(0.51204 0.000104392 6.06591e-20)
(0.511999 7.74311e-05 6.03624e-20)
(0.51196 5.32097e-05 -6.00647e-20)
(0.511923 3.20682e-05 0)
(0.511889 1.4404e-05 0)
(0.511856 6.95274e-07 0)
(0.511827 -8.46915e-06 0)
(0.511802 -1.23528e-05 -5.85694e-20)
(0.51178 -1.00253e-05 2.93027e-24)
(0.511763 -3.03366e-07 -5.79635e-20)
(0.511752 1.83232e-05 -5.76646e-20)
(0.511748 4.77849e-05 0)
(0.511752 9.055e-05 5.63713e-24)
(0.511768 0.000149771 -5.6744e-20)
(0.511798 0.000229462 5.64345e-20)
(0.511846 0.000334719 5.61221e-20)
(0.511916 0.000471967 0)
(0.512017 0.000649243 0)
(0.512156 0.000876491 0)
(0.512346 0.00116581 0)
(0.512602 0.00153162 -1.08951e-19)
(0.512945 0.00199053 0)
(0.513402 0.00256082 -1.07566e-19)
(0.514007 0.00326114 0)
(0.514804 0.0041083 0)
(0.515844 0.00511291 1.0502e-19)
(0.517195 0.00627782 0)
(0.518891 0.00757964 0)
(0.512427 0.000151436 6.0265e-20)
(0.512386 0.000121 -5.99756e-20)
(0.512346 9.29367e-05 -5.96823e-20)
(0.512308 6.75335e-05 5.93883e-20)
(0.512272 4.51106e-05 0)
(0.512238 2.60374e-05 0)
(0.512207 1.0755e-05 0)
(0.512179 -1.96297e-07 5.82065e-20)
(0.512155 -6.14297e-06 -5.79109e-20)
(0.512135 -6.23608e-06 5.76175e-20)
(0.51212 6.02017e-07 5.73212e-20)
(0.512112 1.57445e-05 0)
(0.512112 4.09443e-05 0)
(0.512121 7.84381e-05 5.64273e-20)
(0.512144 0.000131076 6.19325e-24)
(0.512182 0.00020248 -1.11641e-19)
(0.51224 0.000297228 -5.55188e-20)
(0.512324 0.000421069 0)
(0.512441 0.00058116 0)
(0.512602 0.000786291 5.45585e-20)
(0.512818 0.00104708 0)
(0.513106 0.00137604 1.07821e-19)
(0.513486 0.00178741 5.3525e-20)
(0.513987 0.00229663 0)
(0.514642 0.0029191 -1.05494e-19)
(0.515492 0.00366826 0)
(0.516586 0.00455194 1.03695e-19)
(0.517982 0.00557146 1.02668e-19)
(0.519716 0.00670606 1.01396e-19)
(0.5127 0.000169219 -5.96485e-20)
(0.51266 0.000137824 0)
(0.512621 0.000108724 -5.90716e-20)
(0.512584 8.21913e-05 0)
(0.512549 5.85223e-05 0)
(0.512517 3.80539e-05 0)
(0.512487 2.11852e-05 0)
(0.51246 8.40192e-06 -5.76301e-20)
(0.512438 3.06847e-07 2.26408e-24)
(0.51242 -2.34214e-06 -5.70488e-20)
(0.512407 1.41509e-06 0)
(0.512402 1.28001e-05 0)
(0.512405 3.33698e-05 0)
(0.512419 6.51078e-05 -5.58819e-20)
(0.512447 0.000110537 5.55919e-20)
(0.512493 0.000172853 1.10584e-19)
(0.512561 0.000256088 0)
(0.512657 0.000365282 -5.46815e-20)
(0.512789 0.00050668 -5.43703e-20)
(0.512968 0.000687911 -1.56879e-23)
(0.513207 0.000918118 -5.37239e-20)
(0.513523 0.00120798 5.3384e-20)
(0.513937 0.00156954 -5.30578e-20)
(0.514476 0.00201561 0)
(0.515174 0.00255877 1.56848e-19)
(0.516069 0.00320967 5.18254e-20)
(0.517207 0.00397402 -1.0283e-19)
(0.518642 0.00485212 -1.52669e-19)
(0.520407 0.00582602 -1.00572e-19)
(0.512908 0.000187011 5.90943e-20)
(0.512869 0.000154731 0)
(0.512831 0.000124661 5.85366e-20)
(0.512796 9.70548e-05 0)
(0.512762 7.21805e-05 0)
(0.512731 5.03398e-05 0)
(0.512702 3.18853e-05 0)
(0.512677 1.72427e-05 0)
(0.512656 6.93765e-06 5.68462e-20)
(0.51264 1.62855e-06 2.24417e-24)
(0.51263 2.14779e-06 0)
(0.512627 9.55264e-06 0)
(0.512633 2.51885e-05 0)
(0.512652 5.07672e-05 5.54266e-20)
(0.512685 8.84616e-05 0)
(0.512737 0.00014102 -5.81291e-24)
(0.512813 0.000211895 0)
(0.512919 0.000305397 5.42564e-20)
(0.513065 0.000426838 5.39528e-20)
(0.51326 0.000582676 -1.07271e-19)
(0.513518 0.000780601 1.65254e-23)
(0.513858 0.00102953 -5.29896e-20)
(0.5143 0.00133939 0)
(0.514872 0.00172067 5.22458e-20)
(0.515605 0.00218342 -3.53323e-23)
(0.516539 0.00273596 -5.14631e-20)
(0.517714 0.00338237 0)
(0.51918 0.00412236 5.05024e-20)
(0.520972 0.00494079 0)
(0.513056 0.000204689 -5.86114e-20)
(0.513018 0.000171596 2.91687e-20)
(0.512982 0.000140624 0)
(0.512947 0.000112001 0)
(0.512915 8.59671e-05 0)
(0.512885 6.27853e-05 0)
(0.512858 4.27577e-05 5.69708e-20)
(0.512834 2.62455e-05 -5.66968e-20)
(0.512814 1.36914e-05 5.64224e-20)
(0.5128 5.6477e-06 5.61496e-20)
(0.512791 2.81026e-06 -5.58721e-20)
(0.512791 6.06146e-06 0)
(0.5128 1.65224e-05 -5.53179e-20)
(0.512822 3.56173e-05 0)
(0.512859 6.51514e-05 5.47566e-20)
(0.512917 0.000107403 -5.44768e-20)
(0.513 0.000165229 0)
(0.513115 0.000242184 -5.38899e-20)
(0.513271 0.000342634 0)
(0.51348 0.000471861 5.32932e-20)
(0.513755 0.000636123 5.29774e-20)
(0.514114 0.000842623 0)
(0.51458 0.00109932 5.22845e-20)
(0.515178 0.00141451 -2.43684e-23)
(0.515941 0.00179604 -1.03074e-19)
(0.516905 0.00225021 0)
(0.51811 0.00277988 5.0637e-20)
(0.519602 0.00338443 0)
(0.521415 0.00405154 4.9516e-20)
(0.513148 0.000222131 2.90934e-20)
(0.513112 0.000188299 -2.89635e-20)
(0.513077 0.00015649 2.88305e-20)
(0.513044 0.000126911 2.86983e-20)
(0.513012 9.97682e-05 0)
(0.512983 7.5284e-05 0)
(0.512957 5.37074e-05 -5.66029e-20)
(0.512935 3.53312e-05 8.45049e-20)
(0.512916 2.05108e-05 -5.60711e-20)
(0.512903 9.68641e-06 0)
(0.512896 3.41067e-06 8.33044e-20)
(0.512897 2.38245e-06 2.76332e-20)
(0.512909 7.48809e-06 5.49986e-20)
(0.512933 1.98519e-05 0)
(0.512974 4.08967e-05 -8.16776e-20)
(0.513036 7.24152e-05 0)
(0.513125 0.000116651 0)
(0.513247 0.000176387 5.36087e-20)
(0.513412 0.000255032 0)
(0.513631 0.000356693 0)
(0.513919 0.000486213 0)
(0.514294 0.00064913 -5.23671e-20)
(0.514778 0.000851519 -5.20398e-20)
(0.515397 0.00109964 -5.16787e-20)
(0.516183 0.00139935 5.12924e-20)
(0.517171 0.00175521 0)
(0.518399 0.00216913 -5.04218e-20)
(0.51991 0.00264033 0)
(0.52174 0.00315931 -9.85976e-20)
(0.513188 0.000239226 -5.78284e-20)
(0.513153 0.000204723 -2.87871e-20)
(0.513119 0.000172145 -2.86611e-20)
(0.513087 0.00014167 -9.79892e-25)
(0.513057 0.000113474 0)
(0.513029 8.77334e-05 0)
(0.513003 6.46425e-05 0)
(0.512982 4.44231e-05 -2.80203e-20)
(0.512964 2.73395e-05 0)
(0.512952 1.37157e-05 0)
(0.512946 3.95568e-06 -2.76325e-20)
(0.512949 -1.43166e-06 -5.50035e-20)
(0.512962 -1.80267e-06 0)
(0.512988 3.65757e-06 2.72378e-20)
(0.513032 1.59786e-05 1.30366e-24)
(0.513097 3.64554e-05 0)
(0.513189 6.67053e-05 2.68312e-20)
(0.513316 0.000108729 -2.6691e-20)
(0.513487 0.000164969 0)
(0.513715 0.000238359 0)
(0.514012 0.000332341 0)
(0.514399 0.000450826 5.21791e-20)
(0.514896 0.000598075 0)
(0.51553 0.000778439 0)
(0.516333 0.000995913 0)
(0.517338 0.00125355 0)
(0.518583 0.00155247 0)
(0.520108 0.00189188 0)
(0.521949 0.00226509 7.37017e-20)
(0.513178 0.000255865 2.87651e-20)
(0.513144 0.00022076 2.86435e-20)
(0.513111 0.000187478 1.426e-20)
(0.51308 0.000156172 -2.83982e-20)
(0.51305 0.00012698 0)
(0.513023 0.000100036 0)
(0.512998 7.54753e-05 0)
(0.512977 5.34473e-05 0)
(0.51296 3.41228e-05 -1.38889e-20)
(0.512948 1.77066e-05 0)
(0.512943 4.45024e-06 0)
(0.512947 -5.3319e-06 4.11017e-20)
(0.512961 -1.12444e-05 0)
(0.512989 -1.27882e-05 -2.71456e-20)
(0.513033 -9.3346e-06 2.70157e-20)
(0.5131 -9.49129e-08 0)
(0.513195 1.59131e-05 -2.67502e-20)
(0.513325 3.99003e-05 2.66134e-20)
(0.5135 7.33393e-05 1.32357e-20)
(0.513732 0.000117989 1.31631e-20)
(0.514036 0.000175901 0)
(0.514429 0.000249389 -1.30089e-20)
(0.514935 0.000340949 0)
(0.515579 0.000453094 -1.28372e-20)
(0.516392 0.000588082 0)
(0.517408 0.00074757 0)
(0.518663 0.000932016 0)
(0.520196 0.0011407 -1.24051e-20)
(0.522044 0.00136967 -2.45188e-20)
(0.513121 0.000271932 0)
(0.513087 0.000236292 0)
(0.513055 0.000202373 -1.45832e-20)
(0.513024 0.000170299 0)
(0.512995 0.000140174 0)
(0.512968 0.000112084 0)
(0.512944 8.61077e-05 0)
(0.512923 6.23192e-05 0)
(0.512906 4.07945e-05 1.42216e-20)
(0.512894 2.16174e-05 0)
(0.512889 4.88503e-06 0)
(0.512893 -9.28563e-06 -1.40365e-20)
(0.512907 -2.07504e-05 0)
(0.512935 -2.93299e-05 0)
(0.51298 -3.48005e-05 0)
(0.513047 -3.68846e-05 0)
(0.513143 -3.52399e-05 0)
(0.513274 -2.94496e-05 0)
(0.51345 -1.90145e-05 -1.35764e-20)
(0.513684 -3.34901e-06 -1.35042e-20)
(0.51399 1.82142e-05 0)
(0.514387 4.64065e-05 1.335e-20)
(0.514896 8.19857e-05 0)
(0.515544 0.000125672 1.31778e-20)
(0.516361 0.000178047 0)
(0.517381 0.000239437 0)
(0.518641 0.00030971 0)
(0.520177 0.000388232 1.27417e-20)
(0.522026 0.000473781 0)
(0.513008 0.000288663 0)
(0.512975 0.000252519 0)
(0.512943 0.000217984 0)
(0.512912 0.000185153 -1.42621e-20)
(0.512883 0.000154088 0)
(0.512856 0.000124826 -1.4132e-20)
(0.512831 9.7379e-05 1.40665e-20)
(0.51281 7.17408e-05 0)
(0.512793 4.78827e-05 1.39344e-20)
(0.512781 2.57552e-05 0)
(0.512775 5.28531e-06 1.38007e-20)
(0.512778 -1.36269e-05 0)
(0.512791 -3.11139e-05 -1.36649e-20)
(0.512818 -4.73483e-05 0)
(0.512862 -6.25527e-05 0)
(0.512929 -7.70119e-05 -1.34552e-20)
(0.513023 -9.10884e-05 -1.33831e-20)
(0.513153 -0.00010524 0)
(0.513328 -0.000120038 -2.64677e-20)
(0.51356 -0.000136189 0)
(0.513865 -0.000154546 2.61501e-20)
(0.51426 -0.00017612 0)
(0.514767 -0.000202059 0)
(0.515413 -0.000233613 0)
(0.516228 -0.000272044 0)
(0.517246 -0.000318489 0)
(0.518503 -0.000373739 0)
(0.520036 -0.00043834 0)
(0.521882 -0.000510645 -2.43847e-20)
(0.512821 0.00030587 0)
(0.512788 0.000269262 0)
(0.512755 0.000234144 -2.92662e-20)
(0.512724 0.000200577 1.45689e-20)
(0.512695 0.000168579 0)
(0.512667 0.000138132 1.44384e-20)
(0.512641 0.000109178 -1.43726e-20)
(0.512619 8.16217e-05 0)
(0.5126 5.53215e-05 -1.42399e-20)
(0.512587 3.00837e-05 0)
(0.512579 5.65142e-06 1.41052e-20)
(0.51258 -1.83098e-05 -2.80748e-20)
(0.512591 -4.22318e-05 1.39688e-20)
(0.512616 -6.66677e-05 2.77989e-20)
(0.512657 -9.23228e-05 2.76584e-20)
(0.51272 -0.000120091 1.37577e-20)
(0.51281 -0.000151099 -1.36856e-20)
(0.512936 -0.000186754 2.7222e-20)
(0.513106 -0.000228791 -1.32501e-24)
(0.513332 -0.000279323 0)
(0.51363 -0.000340868 -2.67465e-20)
(0.514017 -0.000416341 0)
(0.514515 -0.000508994 0)
(0.51515 -0.000622258 -5.24145e-20)
(0.515954 -0.000759454 5.20055e-20)
(0.51696 -0.000923388 0)
(0.518204 -0.00111565 5.10847e-20)
(0.519726 -0.00133674 0)
(0.52156 -0.00158199 -2.49649e-20)
(0.512565 0.000322122 5.91599e-20)
(0.512531 0.000285119 0)
(0.512498 0.000249492 2.93233e-20)
(0.512466 0.000215265 0)
(0.512435 0.000182412 0)
(0.512406 0.000150862 0)
(0.512379 0.000120487 5.75943e-20)
(0.512355 9.11042e-05 0)
(0.512334 6.24612e-05 0)
(0.512318 3.42228e-05 5.67926e-20)
(0.512308 5.95202e-06 2.82609e-20)
(0.512306 -2.29159e-05 8.4374e-20)
(0.512314 -5.3106e-05 0)
(0.512334 -8.55448e-05 2.78486e-20)
(0.512371 -0.000121412 -2.77068e-20)
(0.512428 -0.000162201 0)
(0.512512 -0.000209791 8.22568e-20)
(0.51263 -0.000266527 -2.72691e-20)
(0.512791 -0.000335301 -2.71214e-20)
(0.513007 -0.00041963 0)
(0.513292 -0.000523698 0)
(0.513665 -0.000652352 0)
(0.514147 -0.000810991 0)
(0.514764 -0.00100531 5.25033e-20)
(0.515546 -0.0012408 -5.2093e-20)
(0.51653 -0.00152209 0)
(0.517753 -0.00185172 -5.11689e-20)
(0.519255 -0.00223029 0)
(0.52107 -0.00265005 -3.38608e-23)
(0.512238 0.000337172 -5.93431e-20)
(0.512203 0.000299852 0)
(0.512169 0.000263797 0)
(0.512135 0.000228995 -5.85595e-20)
(0.512103 0.000195381 0)
(0.512071 0.000162826 0)
(0.512042 0.000131138 -1.14408e-24)
(0.512015 0.000100049 0)
(0.511992 6.91986e-05 0)
(0.511973 3.81157e-05 -5.6963e-20)
(0.511959 6.18911e-06 1.15517e-25)
(0.511953 -2.73677e-05 -5.64181e-20)
(0.511956 -6.35631e-05 0)
(0.511971 -0.000103685 1.63674e-24)
(0.512001 -0.000149372 0)
(0.512051 -0.0002027 5.52991e-20)
(0.512126 -0.000266284 -5.50048e-20)
(0.512233 -0.00034339 0)
(0.512382 -0.000438051 1.08813e-19)
(0.512583 -0.000555181 0)
(0.51285 -0.000700645 5.37752e-20)
(0.513202 -0.000881261 0)
(0.51366 -0.00110466 0)
(0.51425 -0.00137893 1.05414e-19)
(0.515003 -0.00171195 0)
(0.515955 -0.00211041 1.0374e-19)
(0.517146 -0.00257808 -1.02793e-19)
(0.51862 -0.00311591 -1.01757e-19)
(0.520407 -0.00371302 1.50633e-19)
(0.511835 0.000350763 5.95878e-20)
(0.511799 0.000313211 -5.93281e-20)
(0.511762 0.000276819 5.90668e-20)
(0.511727 0.000241542 1.9144e-24)
(0.511692 0.000207271 0)
(0.511658 0.000173829 0)
(0.511626 0.000140959 -5.80104e-20)
(0.511596 0.000108311 -5.77424e-20)
(0.511569 7.54249e-05 1.14948e-19)
(0.511546 4.16993e-05 0)
(0.511528 6.3585e-06 5.6934e-20)
(0.511516 -3.15945e-05 1.13321e-19)
(0.511513 -7.3437e-05 0)
(0.511521 -0.0001208 -5.61061e-20)
(0.511543 -0.000175763 1.11656e-19)
(0.511583 -0.000240958 -5.55397e-20)
(0.511647 -0.000319711 1.10512e-19)
(0.511741 -0.000416181 0)
(0.511873 -0.000535525 -5.46513e-20)
(0.512055 -0.000684046 -1.08705e-19)
(0.512299 -0.000869303 -5.40163e-20)
(0.512624 -0.00110014 1.07399e-19)
(0.51305 -0.00138653 -1.067e-19)
(0.513604 -0.00173916 -1.05896e-19)
(0.514318 -0.00216857 0)
(0.515228 -0.00268393 -1.04221e-19)
(0.516376 -0.00329063 1.03272e-19)
(0.517813 -0.00399034 1.02232e-19)
(0.519564 -0.00476902 1.27576e-22)
(0.511352 0.000362633 -5.99097e-20)
(0.511314 0.000324945 1.78942e-19)
(0.511275 0.000288317 5.93826e-20)
(0.511237 0.000252675 1.77367e-19)
(0.5112 0.00021787 0)
(0.511163 0.000183675 -1.17186e-19)
(0.511127 0.000149776 1.16654e-19)
(0.511093 0.000115747 -5.80594e-20)
(0.511062 8.10323e-05 -2.31168e-19)
(0.511033 4.49116e-05 1.15046e-19)
(0.51101 6.456e-06 -1.14503e-19)
(0.510992 -3.55271e-05 -1.13958e-19)
(0.510981 -8.25653e-05 0)
(0.510981 -0.000136611 0)
(0.510993 -0.000200154 -1.12295e-19)
(0.511021 -0.000276357 -1.11739e-19)
(0.511071 -0.000369218 1.47865e-23)
(0.511148 -0.000483759 0)
(0.511261 -0.000626229 0)
(0.511419 -0.000804304 1.09349e-19)
(0.511635 -0.00102726 -1.08751e-19)