/*--------------------------------*- C++ -*----------------------------------*\
  =========                 |
  \\      /  F ield         | OpenFOAM: The Open Source CFD Toolbox
   \\    /   O peration     | Website:  https://openfoam.org
    \\  /    A nd           | Version:  6
     \\/     M anipulation  |
\*---------------------------------------------------------------------------*/
FoamFile
{
    version     2.0;
    format      ascii;
    class       volScalarField;
    location    "0.13";
    object      epsilon;
}
// * * * * * * * * * * * * * * * * * * * * * * * * * * * * * * * * * * * * * //

dimensions      [0 2 -3 0 0 0 0];

internalField   nonuniform List<scalar> 
12225
(
307.554
159.144
103.212
76.1899
60.9065
51.3746
44.9414
40.289
36.7333
33.9024
31.5808
29.6354
27.9783
26.549
25.3039
24.2126
23.2544
22.4721
71.6107
59.7629
44.4176
34.3501
27.8045
23.3566
20.2057
17.8852
16.1114
14.7103
13.5736
12.6316
11.8376
11.1589
10.5717
10.0583
9.60203
9.18679
33.6139
34.4052
29.2904
24.3865
20.5364
17.6107
15.3818
13.6587
12.3003
11.2074
10.3113
9.5644
8.93307
8.39287
7.92572
7.51779
7.15786
6.83739
22.4947
24.1972
22.2222
19.5418
17.0651
14.9834
13.284
11.9041
10.7775
9.84837
9.07336
8.41953
7.86207
7.38217
6.9654
6.60057
6.27903
5.99601
18.0525
19.1657
18.2262
16.5956
14.8967
13.3498
12.0115
10.8765
9.91873
9.10905
8.42084
7.83191
7.32428
6.8836
6.49843
6.1597
5.86055
5.59803
15.9662
16.4
15.7669
14.643
13.3962
12.1984
11.1158
10.1648
9.33931
8.62556
8.00793
7.47178
7.00434
6.59481
6.23422
5.91529
5.63258
5.38424
14.9029
14.7893
14.1894
13.3003
12.3141
11.3431
10.4414
9.62887
8.90795
8.27282
7.71455
7.22358
6.79085
6.40829
6.06893
5.76695
5.49807
5.26118
14.3404
13.826
13.1599
12.365
11.523
10.696
9.91959
9.20963
8.57017
7.99887
7.49038
7.03825
6.63596
6.27738
5.95705
5.67035
5.41389
5.18711
14.0387
13.246
12.4872
11.7145
10.9457
10.2062
9.51388
8.87774
8.30017
7.77952
7.31197
6.89274
6.51685
6.17949
5.8763
5.60351
5.35843
5.1409
13.8768
12.8995
12.0523
11.2676
10.5297
9.83966
9.20121
8.61623
8.08413
7.60245
7.16761
6.77553
6.42203
6.1031
5.81507
5.5548
5.32011
5.11107
13.7906
12.6957
11.7766
10.967
10.2363
9.57094
8.96472
8.41348
7.91341
7.46061
7.05102
6.68062
6.34553
6.04214
5.7672
5.51794
5.29255
5.09117
13.7489
12.5882
11.6205
10.7868
10.0518
9.39526
8.80506
8.27291
7.79249
7.35843
6.966
6.61089
6.2892
5.99743
5.73251
5.49188
5.27388
5.07869
13.7254
12.5235
11.521
10.6659
9.92277
9.26813
8.68614
8.16569
7.6984
7.27765
6.89794
6.55456
6.24347
5.96112
5.7045
5.47116
5.2595
5.06971
13.7116
12.4831
11.4547
10.581
9.82788
9.17083
8.59205
8.07842
7.62
7.20901
6.83918
6.50535
6.2032
5.92905
5.67986
5.45318
5.24746
5.06279
13.7045
12.4608
11.416
10.5284
9.76611
9.10466
8.52559
8.01475
7.56121
7.15634
6.79326
6.46634
6.17096
5.90327
5.66013
5.43903
5.23839
5.0582
13.7012
12.4503
11.3966
10.5007
9.7317
9.06603
8.48516
7.97462
7.52302
7.12126
6.76204
6.43941
6.1485
5.88529
5.6465
5.42955
5.23281
5.05612
13.7
12.4461
11.3887
10.4886
9.716
9.04758
8.46505
7.95394
7.50273
7.10215
6.74471
6.42428
6.13583
5.87522
5.63907
5.42475
5.23054
5.05618
13.6996
12.4449
11.3862
10.4848
9.71086
9.04131
8.45797
7.94643
7.49518
7.09491
6.73805
6.41844
6.13097
5.87145
5.63646
5.42332
5.23028
5.05701
13.6998
12.4453
11.387
10.486
9.7124
9.04316
8.46003
7.9486
7.49734
7.09696
6.73993
6.42007
6.13231
5.87247
5.63713
5.42364
5.23024
5.05662
13.701
12.4493
11.3947
10.4975
9.72753
9.06102
8.47962
7.96887
7.51734
7.1159
6.75717
6.43516
6.14493
5.88244
5.64435
5.42809
5.23197
5.05582
13.7054
12.4634
11.4201
10.5336
9.77181
9.11047
8.53122
8.02005
7.56609
7.16076
6.79721
6.46982
6.17398
5.90584
5.66224
5.44069
5.2396
5.05895
13.7204
12.5081
11.4948
10.6317
9.88421
9.22849
8.64795
8.13057
7.66727
7.25089
6.87556
6.53636
6.22911
5.95023
5.69667
5.466
5.25665
5.06878
13.767
12.6331
11.6842
10.8596
10.1263
9.46679
8.87098
8.33206
7.84456
7.40365
7.00482
6.64388
6.31696
6.02053
5.75146
5.50715
5.28589
5.0879
13.9007
12.9462
12.1087
11.3253
10.5845
9.88985
9.24635
8.6564
8.11965
7.63372
7.19507
6.79959
6.44306
6.12144
5.83102
5.56862
5.33203
5.12136
14.2608
13.6659
12.9742
12.189
11.3721
10.5738
9.82377
9.13586
8.51398
7.95629
7.45816
7.01386
6.61743
6.26325
5.9462
5.66195
5.40734
5.18205
15.1941
15.232
14.635
13.694
12.6458
11.6176
10.6671
9.81452
9.06131
8.40033
7.82141
7.31391
6.86791
6.47463
6.12656
5.81746
5.54272
5.30122
17.6338
18.6179
17.7647
16.2582
14.6631
13.1885
11.8962
10.7889
9.84751
9.04741
8.36488
7.77941
7.274
6.83484
6.45083
6.11314
5.8152
5.55475
24.7058
26.4231
23.9018
20.7813
17.9996
15.7036
13.8513
12.3615
11.1556
10.1686
9.35073
8.66474
8.08272
7.58371
7.15187
6.77512
6.44453
6.15625
51.967
47.7362
37.799
30.174
24.7614
20.879
18.0377
15.9085
14.2705
12.9769
11.9311
11.0684
10.3446
9.72855
9.19793
8.73634
8.33179
7.97833
251.832
137.371
90.8001
67.1526
53.3401
44.5657
38.6237
34.3636
31.154
28.6357
26.596
24.9027
23.4701
22.2399
21.171
20.2333
19.4042
18.6692
0.111255
0.117899
0.144791
0.182907
0.227288
0.280742
0.332792
0.384381
0.437919
0.494502
0.554825
0.619165
0.687448
0.759365
0.834485
0.912327
0.992413
1.07429
1.15756
1.24186
1.3269
1.41243
1.49825
1.58421
1.67019
1.7561
1.8419
1.92755
2.01304
2.09838
2.18358
2.26871
2.35383
2.43908
2.52466
2.61087
2.69816
2.78723
2.87909
2.97269
3.06507
3.15613
3.24568
3.3334
3.41889
3.50168
3.58126
3.65709
3.72858
3.79516
3.85622
3.91118
3.95947
4.00057
4.034
4.05934
4.07625
4.08448
4.08387
4.07437
4.05602
4.02897
3.99347
3.94986
3.89858
3.84014
3.7751
3.70416
3.62815
3.54823
3.46641
3.38647
3.31477
3.25654
3.20364
3.15031
3.09565
3.03962
2.98242
2.92427
2.86539
2.80597
2.74621
2.68627
2.62629
2.5664
2.50669
2.44727
2.38822
2.32962
2.27153
2.21402
2.15716
2.10101
2.04564
1.99113
1.93754
1.88496
1.83347
1.78314
1.73408
1.68636
1.64008
1.59532
1.55216
1.51068
1.47095
1.43303
1.39698
1.36282
1.33059
1.3003
1.27194
1.24549
1.2209
1.19808
1.17692
1.15739
1.1398
1.12406
1.10999
1.09743
1.08625
1.07633
1.06755
1.05982
1.05303
1.0471
1.04195
1.03748
1.03365
1.03038
1.02761
1.02528
1.02337
1.0218
1.02056
1.01959
1.01888
1.01839
1.01809
1.01796
1.01799
1.01815
1.01843
1.01882
1.0193
1.01986
1.02049
1.02119
1.02194
1.02274
1.02359
1.02447
1.02539
1.02634
1.02731
1.0283
1.02931
1.03033
1.03135
1.03238
1.0334
1.03441
1.0354
1.03635
1.03725
1.03808
1.0388
1.03939
1.03978
1.03991
1.03964
1.03883
1.03718
1.03424
1.02918
1.02031
1.00468
0.976467
0.364126
0.229852
0.239339
0.268779
0.31066
0.358804
0.40672
0.451496
0.492767
0.531106
0.567202
0.601594
0.634662
0.666675
0.697834
0.728303
0.758216
0.787682
0.816791
0.845607
0.874181
0.902547
0.93073
0.958746
0.986608
1.01433
1.04191
1.06938
1.09675
1.12403
1.15127
1.17851
1.2058
1.23322
1.26088
1.2889
1.31747
1.34679
1.3771
1.40872
1.44033
1.47164
1.50253
1.53286
1.56249
1.59127
1.61901
1.64553
1.67061
1.69405
1.71563
1.73513
1.75234
1.76706
1.77908
1.78825
1.79441
1.79744
1.79727
1.79385
1.78716
1.77724
1.76417
1.74804
1.72903
1.70731
1.68313
1.65676
1.62856
1.59895
1.56852
1.53795
1.50793
1.47948
1.45164
1.4236
1.39519
1.36644
1.33743
1.30826
1.27901
1.24977
1.22061
1.19161
1.1628
1.13425
1.106
1.07807
1.05051
1.02334
0.996577
0.970259
0.944403
0.919034
0.894174
0.869846
0.846075
0.822887
0.800307
0.778361
0.757076
0.73648
0.716597
0.697452
0.67907
0.66147
0.644671
0.628688
0.613531
0.599208
0.58572
0.573065
0.561235
0.550215
0.539988
0.530529
0.521814
0.513839
0.506663
0.500314
0.494619
0.489498
0.484907
0.480804
0.47715
0.473906
0.471036
0.468506
0.466282
0.464335
0.462638
0.461165
0.459894
0.458802
0.457871
0.457083
0.456423
0.455876
0.455431
0.455075
0.454799
0.454593
0.454451
0.454363
0.454326
0.454331
0.454376
0.454455
0.454565
0.454702
0.454864
0.455047
0.45525
0.45547
0.455705
0.455955
0.456216
0.456489
0.456772
0.457064
0.457364
0.457671
0.457984
0.458302
0.458625
0.458951
0.45928
0.45961
0.459942
0.460274
0.460606
0.460941
0.461282
0.461645
0.462064
0.462624
0.463543
0.465374
0.469644
0.481078
0.735703
0.385794
0.35073
0.360871
0.387499
0.421386
0.456613
0.489768
0.519691
0.546555
0.571025
0.593798
0.615434
0.636333
0.656757
0.676865
0.69674
0.716419
0.735906
0.755195
0.774271
0.793128
0.811766
0.830196
0.848442
0.866538
0.884528
0.902464
0.920404
0.938412
0.956555
0.974902
0.993526
1.0125
1.03189
1.05177
1.0722
1.09323
1.11487
1.13703
1.15942
1.18189
1.20435
1.22671
1.24884
1.27062
1.29192
1.31257
1.33241
1.35125
1.3689
1.38517
1.39985
1.41275
1.42368
1.43247
1.43897
1.44305
1.4446
1.44357
1.43992
1.43364
1.42479
1.41343
1.39969
1.38369
1.36563
1.34571
1.32417
1.30128
1.27733
1.25258
1.22754
1.20272
1.17783
1.15274
1.12743
1.10198
1.07646
1.05095
1.02555
1.0003
0.975286
0.950547
0.926129
0.902068
0.878393
0.85513
0.832297
0.809912
0.787989
0.76654
0.745577
0.72511
0.705149
0.685707
0.666793
0.648421
0.630601
0.613348
0.596674
0.580591
0.565113
0.550252
0.536019
0.522423
0.509472
0.497172
0.485526
0.474535
0.464195
0.454502
0.445446
0.437015
0.429194
0.421964
0.415308
0.409209
0.403659
0.398645
0.394149
0.390115
0.386498
0.383263
0.380378
0.377813
0.375537
0.373525
0.371751
0.370192
0.368825
0.367631
0.366592
0.365691
0.364913
0.364244
0.363673
0.363188
0.362779
0.362437
0.362156
0.361927
0.361745
0.361603
0.361499
0.361426
0.361382
0.361362
0.361365
0.361388
0.361427
0.361482
0.361551
0.361632
0.361723
0.361825
0.361934
0.362051
0.362175
0.362305
0.36244
0.36258
0.362725
0.362873
0.363025
0.363179
0.363337
0.363497
0.36366
0.363826
0.363996
0.364172
0.364361
0.364572
0.36483
0.36519
0.365776
0.366903
0.369333
0.375075
1.06917
0.508037
0.436509
0.428604
0.44023
0.460238
0.483328
0.506479
0.52832
0.548573
0.567482
0.585435
0.602775
0.61974
0.636469
0.653026
0.669426
0.685657
0.701699
0.717534
0.733151
0.748551
0.763751
0.778778
0.79367
0.808477
0.823255
0.838064
0.852969
0.868037
0.883334
0.898926
0.914875
0.931239
0.94807
0.965411
0.983294
1.00174
1.02075
1.04025
1.06015
1.08035
1.10078
1.12136
1.14198
1.16254
1.18288
1.20285
1.22229
1.241
1.25878
1.27542
1.2907
1.30441
1.31634
1.32629
1.33409
1.33958
1.34266
1.34322
1.34122
1.33664
1.32952
1.31991
1.30792
1.29367
1.27734
1.25912
1.23919
1.2178
1.19515
1.17151
1.14752
1.12322
1.09863
1.07379
1.04878
1.0237
0.998645
0.973696
0.948937
0.924436
0.900253
0.876436
0.853025
0.830052
0.807542
0.785512
0.763979
0.742951
0.722436
0.702441
0.682969
0.664023
0.645608
0.627727
0.610383
0.593582
0.577328
0.561627
0.546486
0.531911
0.517909
0.504486
0.491647
0.479397
0.467741
0.456679
0.446213
0.436339
0.427055
0.418353
0.410223
0.402655
0.395633
0.389141
0.383162
0.377678
0.372671
0.368121
0.36401
0.360314
0.356997
0.354026
0.351373
0.34901
0.346911
0.34505
0.343406
0.341956
0.340681
0.339562
0.338584
0.33773
0.336987
0.336342
0.335785
0.335305
0.334893
0.334541
0.334242
0.33399
0.333779
0.333604
0.33346
0.333345
0.333254
0.333184
0.333134
0.3331
0.333081
0.333074
0.333079
0.333094
0.333118
0.333149
0.333187
0.333231
0.333281
0.333335
0.333393
0.333455
0.33352
0.333587
0.333658
0.33373
0.333804
0.333881
0.333959
0.33404
0.334124
0.334213
0.334312
0.334428
0.33458
0.334804
0.335182
0.335905
0.337381
0.340434
1.30608
0.592905
0.493273
0.471399
0.471913
0.481908
0.496295
0.5124
0.528837
0.545031
0.56085
0.576349
0.591626
0.606753
0.621768
0.636674
0.651458
0.666099
0.680576
0.694879
0.709004
0.722963
0.736776
0.750472
0.764092
0.777682
0.791295
0.804987
0.818817
0.832846
0.847135
0.861746
0.876736
0.892159
0.908065
0.924495
0.941485
0.95906
0.977234
0.995983
1.01525
1.03498
1.05512
1.07558
1.09628
1.11709
1.13789
1.1585
1.17875
1.19843
1.21731
1.23516
1.25175
1.26684
1.28017
1.29154
1.30074
1.30759
1.31196
1.31373
1.31284
1.30927
1.30304
1.29421
1.28288
1.26919
1.2533
1.23539
1.21568
1.19438
1.17171
1.14824
1.12413
1.09951
1.07451
1.04924
1.02382
0.998372
0.973
0.947802
0.922863
0.898253
0.874034
0.850254
0.826951
0.804155
0.781887
0.760164
0.738994
0.718384
0.698335
0.678849
0.659924
0.641558
0.623749
0.606495
0.589794
0.573646
0.558051
0.543009
0.528522
0.514593
0.501224
0.488418
0.476177
0.464505
0.453401
0.442866
0.432899
0.423496
0.414654
0.406364
0.398617
0.391403
0.384707
0.378514
0.372806
0.367565
0.362773
0.358408
0.35445
0.350877
0.347665
0.344785
0.342209
0.339911
0.337866
0.336052
0.334444
0.333024
0.331772
0.330671
0.329704
0.328857
0.328115
0.327469
0.326905
0.326415
0.32599
0.325622
0.325304
0.32503
0.324794
0.324593
0.324421
0.324275
0.324152
0.324048
0.323962
0.323891
0.323833
0.323786
0.32375
0.323722
0.323703
0.323689
0.323682
0.32368
0.323682
0.323688
0.323697
0.323709
0.323723
0.323739
0.323757
0.323777
0.323798
0.32382
0.323843
0.323867
0.323893
0.323923
0.323959
0.324008
0.324083
0.32421
0.324445
0.324911
0.325838
0.327597
1.47802
0.649111
0.527156
0.494794
0.487729
0.49125
0.500067
0.511625
0.524549
0.538116
0.551971
0.565955
0.58
0.594068
0.608131
0.622162
0.636133
0.650022
0.663812
0.677495
0.69107
0.704546
0.717938
0.731271
0.744576
0.75789
0.771255
0.784719
0.798332
0.812149
0.826225
0.840619
0.855388
0.870589
0.886275
0.902496
0.919298
0.936717
0.954782
0.973495
0.99283
1.01275
1.03322
1.05416
1.07548
1.09708
1.11881
1.1405
1.16195
1.18294
1.20323
1.22256
1.24066
1.25726
1.27209
1.2849
1.29545
1.30355
1.30903
1.31177
1.3117
1.30878
1.30304
1.29454
1.28338
1.26972
1.25372
1.23557
1.21551
1.19381
1.17091
1.14704
1.12239
1.09714
1.07147
1.04552
1.01944
0.993369
0.967422
0.941703
0.916303
0.891297
0.866747
0.842701
0.819197
0.796263
0.77392
0.752177
0.731043
0.710518
0.6906
0.671285
0.652568
0.63444
0.616894
0.599925
0.583525
0.56769
0.552414
0.537695
0.523532
0.509922
0.496866
0.484364
0.472416
0.461023
0.450184
0.439899
0.430165
0.42098
0.412337
0.404231
0.396651
0.389589
0.383029
0.376958
0.371359
0.366213
0.361502
0.357205
0.353301
0.349768
0.346584
0.343725
0.341164
0.338877
0.336839
0.335028
0.333422
0.332
0.330745
0.329638
0.328663
0.327807
0.327056
0.326397
0.32582
0.325315
0.324874
0.324489
0.324153
0.323859
0.323603
0.32338
0.323185
0.323015
0.322867
0.322737
0.322624
0.322526
0.322439
0.322363
0.322297
0.322238
0.322187
0.322141
0.322101
0.322065
0.322033
0.322004
0.321977
0.321953
0.321931
0.32191
0.32189
0.321871
0.321852
0.321834
0.321816
0.321798
0.321781
0.321766
0.321754
0.321751
0.321765
0.321817
0.321945
0.322228
0.322804
0.32386
1.59537
0.684358
0.545091
0.504787
0.492502
0.491881
0.497221
0.50591
0.516553
0.528358
0.540866
0.553806
0.56702
0.58041
0.593911
0.607475
0.621071
0.634672
0.648261
0.661828
0.675368
0.688882
0.702379
0.715872
0.729379
0.742924
0.756539
0.770259
0.784126
0.798186
0.812489
0.827091
0.84205
0.857424
0.873275
0.88966
0.906635
0.924251
0.942548
0.961553
0.98126
1.00165
1.0227
1.04435
1.0665
1.08907
1.11189
1.13479
1.15756
1.17996
1.20173
1.22258
1.24221
1.26031
1.27659
1.29076
1.30256
1.31176
1.31819
1.3217
1.32221
1.3197
1.31418
1.30573
1.29446
1.28054
1.26415
1.24548
1.22494
1.20282
1.17939
1.15488
1.12953
1.10353
1.07709
1.05038
1.02357
0.996804
0.970206
0.943889
0.917948
0.89246
0.867489
0.843085
0.819284
0.796113
0.773589
0.751721
0.730511
0.709958
0.690054
0.670792
0.652159
0.634145
0.616737
0.599924
0.583696
0.568043
0.552957
0.538431
0.524459
0.511039
0.498167
0.485842
0.474061
0.462825
0.452132
0.44198
0.432368
0.423292
0.414746
0.406725
0.39922
0.39222
0.385715
0.379689
0.374127
0.369011
0.364322
0.36004
0.356145
0.352614
0.349425
0.346558
0.343987
0.341687
0.339636
0.337811
0.336191
0.334755
0.333485
0.332363
0.331374
0.330503
0.329737
0.329063
0.328471
0.327951
0.327494
0.327093
0.32674
0.326429
0.326155
0.325914
0.3257
0.325511
0.325343
0.325193
0.325059
0.324939
0.32483
0.324732
0.324642
0.32456
0.324484
0.324414
0.324348
0.324286
0.324227
0.324171
0.324118
0.324066
0.324015
0.323965
0.323916
0.323867
0.323818
0.323769
0.323719
0.323668
0.323617
0.323566
0.323516
0.323471
0.323437
0.323429
0.323472
0.323621
0.323959
0.324596
1.66759
0.704422
0.552404
0.506077
0.490035
0.486633
0.489718
0.49654
0.505656
0.516236
0.527772
0.53995
0.55257
0.565504
0.578667
0.592005
0.605478
0.619059
0.632726
0.646465
0.660264
0.674117
0.688019
0.701972
0.715982
0.73006
0.744224
0.758497
0.77291
0.787501
0.802313
0.817399
0.832814
0.84862
0.864882
0.881665
0.899036
0.917056
0.93578
0.955253
0.975488
0.996484
1.01822
1.04066
1.06371
1.08728
1.11122
1.13534
1.15942
1.1832
1.2064
1.22869
1.24975
1.26924
1.28683
1.3022
1.31507
1.32519
1.33235
1.33642
1.3373
1.33497
1.32945
1.32083
1.30926
1.29486
1.27795
1.25884
1.23779
1.21509
1.19099
1.16577
1.13966
1.1129
1.0857
1.05825
1.03072
1.00327
0.97604
0.949141
0.922672
0.896714
0.871331
0.846573
0.822475
0.799063
0.776352
0.754347
0.733048
0.712449
0.692539
0.673305
0.654731
0.636802
0.619501
0.602812
0.586721
0.571214
0.556278
0.541905
0.528085
0.514813
0.502082
0.489891
0.478235
0.467113
0.456523
0.446463
0.43693
0.427922
0.419435
0.411461
0.403994
0.397024
0.39054
0.384528
0.378974
0.373861
0.369171
0.364884
0.360979
0.357435
0.354231
0.351344
0.348753
0.346433
0.344362
0.342517
0.340877
0.339423
0.338135
0.336996
0.335991
0.335104
0.334322
0.333634
0.333027
0.332493
0.332022
0.331606
0.331239
0.330914
0.330625
0.330369
0.33014
0.329935
0.329751
0.329585
0.329434
0.329297
0.329171
0.329055
0.328947
0.328846
0.328751
0.328661
0.328575
0.328493
0.328414
0.328337
0.328262
0.328188
0.328115
0.328042
0.32797
0.327898
0.327824
0.32775
0.327675
0.327598
0.32752
0.32744
0.327359
0.32728
0.327207
0.32715
0.327128
0.327177
0.327349
0.327723
1.70275
0.713267
0.552694
0.50192
0.483081
0.477671
0.479176
0.484696
0.492728
0.50241
0.513218
0.524817
0.536994
0.549608
0.562571
0.57582
0.589314
0.603022
0.616919
0.630986
0.645202
0.659554
0.674026
0.688608
0.703294
0.718082
0.732977
0.74799
0.76314
0.778457
0.793976
0.809743
0.825811
0.842242
0.859102
0.876465
0.894401
0.912985
0.932283
0.952354
0.973227
0.994915
1.01741
1.04067
1.06464
1.08921
1.11422
1.1395
1.16479
1.18984
1.21431
1.23788
1.26017
1.28083
1.29949
1.31581
1.32948
1.34023
1.34786
1.35221
1.3532
1.35081
1.34508
1.33608
1.32406
1.30923
1.29186
1.2722
1.25056
1.22721
1.20244
1.17652
1.1497
1.12223
1.09433
1.0662
1.03803
1.00998
0.982195
0.954786
0.927859
0.901495
0.875759
0.850701
0.826357
0.80275
0.779893
0.757788
0.736433
0.715817
0.695926
0.676744
0.658249
0.640423
0.623244
0.606691
0.590747
0.575394
0.560617
0.546401
0.532736
0.519614
0.507026
0.494968
0.483435
0.472424
0.461933
0.451961
0.442504
0.433559
0.425123
0.417191
0.409756
0.402809
0.39634
0.390337
0.384786
0.379671
0.374974
0.370677
0.36676
0.363202
0.35998
0.357075
0.354463
0.352123
0.350032
0.348168
0.346509
0.345037
0.343733
0.342578
0.341558
0.340657
0.339862
0.33916
0.338541
0.337995
0.337512
0.337084
0.336705
0.336368
0.336068
0.3358
0.335559
0.335342
0.335145
0.334966
0.334802
0.334652
0.334512
0.334381
0.334259
0.334143
0.334033
0.333928
0.333827
0.333729
0.333633
0.333539
0.333447
0.333356
0.333266
0.333175
0.333085
0.332994
0.332901
0.332808
0.332712
0.332614
0.332514
0.332411
0.332306
0.3322
0.332096
0.332001
0.331929
0.331902
0.331959
0.33216
1.70717
0.713585
0.548334
0.494518
0.473607
0.466679
0.46699
0.471526
0.478732
0.487723
0.497961
0.509107
0.520942
0.533325
0.546165
0.559399
0.572984
0.586887
0.60108
0.615539
0.630239
0.645157
0.66027
0.675559
0.691005
0.706595
0.722324
0.73819
0.754203
0.770381
0.786751
0.803352
0.820234
0.837454
0.855081
0.873189
0.891856
0.911163
0.931186
0.951995
0.973631
0.996111
1.01943
1.04357
1.06846
1.09398
1.12
1.14631
1.17266
1.19877
1.22428
1.24883
1.27204
1.29351
1.31286
1.32974
1.34383
1.35484
1.36255
1.36685
1.36763
1.3649
1.35876
1.34935
1.33686
1.32152
1.30361
1.28338
1.26115
1.23719
1.2118
1.18526
1.15783
1.12976
1.10128
1.07261
1.04392
1.01539
0.987164
0.959358
0.932078
0.905407
0.879411
0.854139
0.829628
0.805898
0.78296
0.760817
0.739462
0.718882
0.699059
0.679973
0.661599
0.643915
0.626894
0.610513
0.594749
0.57958
0.564989
0.550959
0.537475
0.524527
0.512104
0.500201
0.48881
0.47793
0.467556
0.457687
0.44832
0.439452
0.431081
0.423202
0.415809
0.408894
0.40245
0.396464
0.390923
0.385812
0.381116
0.376816
0.372892
0.369325
0.366092
0.363173
0.360548
0.358193
0.356087
0.354207
0.352535
0.351049
0.349731
0.348564
0.347532
0.34662
0.345815
0.345103
0.344475
0.343919
0.343427
0.342991
0.342603
0.342257
0.341948
0.341671
0.341421
0.341194
0.340988
0.340799
0.340625
0.340464
0.340313
0.340172
0.340039
0.339912
0.33979
0.339673
0.339559
0.339449
0.339341
0.339234
0.339129
0.339024
0.33892
0.338816
0.338711
0.338605
0.338498
0.338389
0.338277
0.338163
0.338046
0.337925
0.337801
0.337674
0.337546
0.337422
0.337311
0.33723
0.337207
0.337293
1.68554
0.70725
0.540946
0.485422
0.463085
0.455019
0.4544
0.45816
0.46471
0.473149
0.48293
0.493714
0.505281
0.517491
0.530253
0.543505
0.557205
0.571318
0.585817
0.600674
0.615861
0.63135
0.647113
0.663121
0.67935
0.695778
0.712388
0.729171
0.746125
0.76326
0.780594
0.798159
0.815999
0.834167
0.85273
0.871761
0.891343
0.91156
0.932497
0.95423
0.976797
1.00022
1.02448
1.04956
1.07538
1.10182
1.12874
1.15592
1.18309
1.20995
1.23614
1.26126
1.28489
1.30664
1.32613
1.34303
1.35701
1.36775
1.37506
1.37885
1.3791
1.37582
1.36912
1.35914
1.34609
1.33019
1.31172
1.29096
1.2682
1.24373
1.21784
1.19082
1.16293
1.13443
1.10555
1.0765
1.04746
1.01861
0.990094
0.962034
0.934535
0.907681
0.881539
0.856158
0.831575
0.80781
0.784874
0.762766
0.741479
0.720997
0.7013
0.682364
0.664162
0.646667
0.62985
0.613683
0.598141
0.583198
0.568832
0.555024
0.541757
0.529017
0.516793
0.505076
0.493859
0.483138
0.472909
0.46317
0.453919
0.445152
0.436868
0.429064
0.421733
0.41487
0.408467
0.402514
0.396999
0.391907
0.387225
0.382933
0.379014
0.375448
0.372215
0.369293
0.366662
0.3643
0.362187
0.3603
0.358619
0.357125
0.3558
0.354626
0.353587
0.352668
0.351856
0.351138
0.350504
0.349942
0.349444
0.349002
0.348608
0.348256
0.347941
0.347657
0.347401
0.347168
0.346955
0.346759
0.346578
0.346409
0.346251
0.346101
0.34596
0.345824
0.345694
0.345568
0.345445
0.345325
0.345207
0.345091
0.344975
0.344861
0.344746
0.344631
0.344515
0.344398
0.34428
0.344159
0.344036
0.343909
0.343779
0.343645
0.343506
0.343363
0.343217
0.343072
0.342933
0.342814
0.342736
0.342745
1.64127
0.695614
0.531703
0.475799
0.452691
0.443858
0.442553
0.445713
0.451748
0.45975
0.469173
0.479675
0.491037
0.50312
0.515834
0.529121
0.542938
0.557254
0.572041
0.587271
0.602917
0.618949
0.635335
0.652045
0.669048
0.686317
0.703829
0.721566
0.739521
0.757694
0.776096
0.794752
0.813699
0.832986
0.852675
0.872839
0.89356
0.914926
0.937023
0.959931
0.983665
1.00823
1.03359
1.05971
1.0865
1.11381
1.14148
1.16927
1.1969
1.22406
1.25042
1.27551
1.29887
1.32015
1.33901
1.35513
1.36821
1.37803
1.38442
1.38731
1.38667
1.38256
1.37507
1.36438
1.35068
1.3342
1.31521
1.29399
1.27081
1.24598
1.21978
1.19248
1.16434
1.13562
1.10654
1.07732
1.04813
1.01915
0.990526
0.962378
0.934814
0.907919
0.881759
0.856387
0.831838
0.808134
0.785285
0.763291
0.742143
0.721824
0.702313
0.683584
0.665606
0.64835
0.631784
0.615876
0.600599
0.585922
0.571823
0.558277
0.545265
0.532772
0.520784
0.509289
0.498281
0.487754
0.477703
0.468126
0.45902
0.450384
0.442215
0.434511
0.427268
0.420481
0.414142
0.408243
0.402772
0.397718
0.393066
0.388799
0.3849
0.381349
0.378128
0.375214
0.372589
0.370231
0.368119
0.366233
0.364552
0.363057
0.361731
0.360555
0.359515
0.358594
0.35778
0.35706
0.356423
0.355859
0.355359
0.354914
0.354517
0.354162
0.353844
0.353557
0.353296
0.353059
0.352842
0.352641
0.352455
0.352281
0.352118
0.351963
0.351816
0.351674
0.351538
0.351405
0.351276
0.351149
0.351024
0.350901
0.350778
0.350656
0.350534
0.350411
0.350287
0.350162
0.350036
0.349907
0.349775
0.349639
0.3495
0.349356
0.349207
0.349053
0.348895
0.348734
0.348577
0.348432
0.348318
0.348277
1.57554
0.679721
0.521609
0.466671
0.443481
0.434287
0.432559
0.435311
0.440978
0.448666
0.457837
0.468151
0.479381
0.491392
0.504097
0.517441
0.531385
0.545901
0.560964
0.576549
0.592632
0.609183
0.626174
0.643572
0.661348
0.679471
0.697915
0.71666
0.73569
0.755002
0.774601
0.794504
0.814742
0.835359
0.856413
0.877974
0.900123
0.922946
0.946532
0.970942
0.996146
1.02211
1.04877
1.07604
1.1038
1.13187
1.16004
1.18804
1.21558
1.24233
1.26792
1.29198
1.31412
1.33401
1.35134
1.36583
1.37726
1.38545
1.39028
1.39171
1.38975
1.38446
1.37595
1.36438
1.34996
1.3329
1.31346
1.29189
1.26848
1.24348
1.21718
1.18984
1.1617
1.133
1.10397
1.07481
1.0457
1.0168
0.988265
0.960213
0.93275
0.905964
0.879924
0.854683
0.830277
0.806732
0.784058
0.762255
0.741316
0.721225
0.701957
0.683486
0.665781
0.64881
0.632538
0.616931
0.601959
0.587589
0.573793
0.560547
0.547829
0.535619
0.523903
0.512667
0.501903
0.491604
0.481764
0.472382
0.463454
0.454979
0.446956
0.439381
0.432253
0.425567
0.419317
0.413495
0.408092
0.403095
0.398492
0.394268
0.390405
0.386885
0.38369
0.380798
0.378191
0.375848
0.373748
0.371872
0.3702
0.368712
0.367391
0.366221
0.365184
0.364267
0.363456
0.362738
0.362103
0.361541
0.361041
0.360597
0.3602
0.359845
0.359526
0.359237
0.358976
0.358737
0.358517
0.358315
0.358126
0.357949
0.357783
0.357625
0.357473
0.357328
0.357188
0.357051
0.356918
0.356787
0.356657
0.356529
0.356402
0.356275
0.356147
0.356019
0.355891
0.35576
0.355628
0.355493
0.355355
0.355214
0.355069
0.354919
0.354763
0.354602
0.354436
0.354267
0.354099
0.353938
0.353802
0.35373
1.49832
0.664349
0.512706
0.459432
0.436682
0.4275
0.425622
0.428172
0.433637
0.441146
0.450172
0.460382
0.471563
0.483581
0.49635
0.509817
0.523947
0.538716
0.554102
0.570087
0.58665
0.603768
0.621414
0.639561
0.65818
0.677243
0.696724
0.716599
0.736853
0.757477
0.778471
0.799848
0.821632
0.843862
0.86659
0.889881
0.913813
0.93847
0.963943
0.990207
1.01718
1.04476
1.07284
1.10126
1.12984
1.15835
1.18653
1.21411
1.24075
1.26616
1.28999
1.31194
1.33171
1.34903
1.36369
1.37549
1.38429
1.38998
1.39251
1.39187
1.38809
1.38125
1.37147
1.35889
1.34369
1.32608
1.30628
1.28452
1.26106
1.23612
1.20997
1.18284
1.15496
1.12655
1.09782
1.06897
1.04017
1.01157
0.983325
0.955553
0.928361
0.901837
0.876052
0.851061
0.826906
0.803613
0.781196
0.759659
0.738993
0.719184
0.700211
0.682045
0.664655
0.648007
0.632066
0.616796
0.602162
0.588132
0.574674
0.561762
0.549369
0.537476
0.526064
0.51512
0.504633
0.494595
0.485
0.475844
0.467125
0.458842
0.450993
0.443577
0.436592
0.430033
0.423897
0.418176
0.412863
0.407945
0.403412
0.399249
0.395439
0.391967
0.388812
0.385957
0.38338
0.381064
0.378987
0.377131
0.375476
0.374003
0.372696
0.371537
0.37051
0.369602
0.368799
0.368088
0.367459
0.366901
0.366406
0.365965
0.365571
0.365219
0.364901
0.364614
0.364353
0.364115
0.363896
0.363693
0.363503
0.363326
0.363158
0.362999
0.362846
0.362699
0.362557
0.362418
0.362283
0.362149
0.362017
0.361887
0.361757
0.361627
0.361497
0.361366
0.361234
0.3611
0.360965
0.360827
0.360686
0.360542
0.360394
0.36024
0.360082
0.359918
0.359748
0.359575
0.359401
0.359233
0.359085
0.358996
1.41288
0.650256
0.506126
0.455089
0.43323
0.424414
0.422671
0.425255
0.430718
0.438231
0.447285
0.457563
0.468861
0.48105
0.494048
0.507806
0.522292
0.537487
0.553374
0.56994
0.58717
0.605047
0.623551
0.64266
0.662348
0.682592
0.703365
0.724647
0.74642
0.768671
0.791399
0.81461
0.838322
0.862567
0.887391
0.912852
0.939021
0.965978
0.993804
1.0223
1.05129
1.08062
1.11008
1.13943
1.16842
1.19675
1.22412
1.25024
1.27481
1.29755
1.31822
1.3366
1.35253
1.36587
1.37652
1.3844
1.38949
1.39175
1.3912
1.38787
1.3818
1.37307
1.3618
1.34809
1.3321
1.31399
1.29395
1.27217
1.24885
1.2242
1.19843
1.17176
1.14439
1.11652
1.08833
1.06002
1.03175
1.00366
0.975892
0.948575
0.92181
0.895687
0.870282
0.845654
0.821846
0.798889
0.776803
0.755593
0.735255
0.715777
0.697139
0.679314
0.662272
0.645978
0.630396
0.615489
0.601221
0.587557
0.574463
0.56191
0.54987
0.538321
0.527243
0.516619
0.506437
0.496689
0.487367
0.478467
0.469986
0.461924
0.454278
0.447047
0.440231
0.433826
0.427829
0.422233
0.417031
0.412214
0.40777
0.403687
0.399949
0.396539
0.393441
0.390635
0.388103
0.385825
0.383782
0.381955
0.380327
0.378877
0.377591
0.37645
0.375439
0.374545
0.373755
0.373055
0.372436
0.371887
0.371399
0.370965
0.370577
0.370229
0.369916
0.369632
0.369375
0.369139
0.368921
0.36872
0.368532
0.368355
0.368188
0.368029
0.367877
0.36773
0.367588
0.367449
0.367312
0.367178
0.367046
0.366915
0.366784
0.366653
0.366522
0.36639
0.366257
0.366123
0.365987
0.365848
0.365707
0.365562
0.365413
0.365259
0.3651
0.364936
0.364767
0.364593
0.364419
0.36425
0.364099
0.364001
1.3091
0.633789
0.500962
0.453642
0.433517
0.425652
0.424496
0.427494
0.433303
0.441148
0.450559
0.461241
0.473004
0.485728
0.499337
0.513786
0.529046
0.545101
0.56194
0.579554
0.597935
0.617069
0.636943
0.657539
0.678838
0.700815
0.723451
0.746721
0.770607
0.795094
0.820173
0.845844
0.872117
0.899015
0.926573
0.954841
0.983884
1.01379
1.04438
1.07531
1.10632
1.13714
1.16745
1.19693
1.22524
1.25206
1.27707
1.29998
1.32059
1.33871
1.35424
1.36713
1.3774
1.38506
1.39019
1.39284
1.39309
1.39101
1.38664
1.38003
1.37126
1.36036
1.34741
1.3325
1.31571
1.29716
1.27699
1.25532
1.23232
1.20814
1.18297
1.15697
1.13033
1.10321
1.07578
1.04822
1.02066
0.993256
0.96614
0.93943
0.913232
0.887638
0.862725
0.838556
0.815182
0.792637
0.770946
0.750119
0.730157
0.711051
0.692784
0.675333
0.658667
0.642753
0.627556
0.613036
0.599158
0.585884
0.573179
0.56101
0.54935
0.538172
0.527455
0.51718
0.507334
0.497905
0.488887
0.480273
0.472061
0.464249
0.456835
0.449819
0.4432
0.436976
0.431143
0.425697
0.420631
0.415936
0.411603
0.407619
0.40397
0.40064
0.397614
0.394872
0.392396
0.390168
0.388169
0.386382
0.384788
0.383369
0.382109
0.380993
0.380004
0.379128
0.378354
0.377669
0.377063
0.376524
0.376046
0.37562
0.37524
0.374898
0.37459
0.374311
0.374057
0.373825
0.37361
0.373411
0.373224
0.373049
0.372883
0.372724
0.372572
0.372426
0.372283
0.372144
0.372008
0.371873
0.37174
0.371608
0.371477
0.371346
0.371214
0.371082
0.370948
0.370813
0.370676
0.370537
0.370395
0.37025
0.370101
0.369948
0.369789
0.369626
0.369458
0.369287
0.369115
0.368948
0.368798
0.368696
1.20157
0.616542
0.497522
0.455269
0.437806
0.431648
0.431764
0.435836
0.442647
0.451497
0.461963
0.473775
0.486761
0.500811
0.515853
0.531843
0.548755
0.566572
0.585284
0.604884
0.625363
0.64671
0.668913
0.691955
0.715816