/*--------------------------------*- C++ -*----------------------------------*\
  =========                 |
  \\      /  F ield         | OpenFOAM: The Open Source CFD Toolbox
   \\    /   O peration     | Website:  https://openfoam.org
    \\  /    A nd           | Version:  6
     \\/     M anipulation  |
\*---------------------------------------------------------------------------*/
FoamFile
{
    version     2.0;
    format      ascii;
    class       volScalarField;
    location    "0.13";
    object      k;
}
// * * * * * * * * * * * * * * * * * * * * * * * * * * * * * * * * * * * * * //

dimensions      [0 2 -2 0 0 0 0];

internalField   nonuniform List<scalar> 
12225
(
0.24644
0.158839
0.11901
0.0972061
0.0837277
0.0747464
0.0683679
0.0635636
0.0597659
0.0566537
0.0540362
0.0517927
0.0498425
0.048129
0.0466108
0.0452591
0.0440548
0.0430564
0.339526
0.260134
0.208262
0.175301
0.153283
0.137701
0.126035
0.116876
0.109429
0.103222
0.097951
0.0934105
0.0894534
0.085972
0.0828868
0.0801326
0.077697
0.0755084
0.347498
0.292339
0.248517
0.216208
0.19225
0.174078
0.159893
0.148497
0.139115
0.131238
0.12452
0.118716
0.113647
0.109182
0.10522
0.101682
0.0985304
0.0957422
0.35137
0.309036
0.271892
0.241937
0.218165
0.199218
0.183907
0.171322
0.160804
0.151885
0.144224
0.137574
0.131746
0.126598
0.12202
0.117928
0.114269
0.11104
0.353917
0.319267
0.287206
0.259836
0.237064
0.218219
0.20255
0.189396
0.178233
0.168661
0.160373
0.153132
0.146756
0.141103
0.136061
0.131544
0.127497
0.123921
0.355678
0.326033
0.297876
0.27293
0.251453
0.233157
0.21758
0.204259
0.192791
0.182846
0.174159
0.166518
0.159753
0.153728
0.148337
0.143493
0.139142
0.135291
0.356917
0.330712
0.305577
0.282777
0.262657
0.245125
0.229907
0.216682
0.205148
0.19504
0.186133
0.178244
0.171219
0.164934
0.159286
0.154197
0.149614
0.145546
0.357802
0.334029
0.311245
0.29029
0.271473
0.254792
0.240084
0.227128
0.215697
0.205581
0.196595
0.18858
0.181403
0.17495
0.169129
0.163865
0.159113
0.154882
0.358434
0.336405
0.31545
0.296051
0.278431
0.26261
0.248486
0.235904
0.224693
0.214684
0.205727
0.197687
0.190447
0.183906
0.177982
0.172607
0.167741
0.163394
0.358881
0.338107
0.318564
0.300457
0.283901
0.268903
0.255388
0.243239
0.232322
0.222503
0.213657
0.205669
0.198439
0.191878
0.185912
0.180481
0.17555
0.17113
0.359195
0.339316
0.32085
0.303795
0.288162
0.273921
0.261003
0.249309
0.23873
0.229156
0.220479
0.212604
0.205441
0.198915
0.192958
0.187518
0.182566
0.178111
0.359394
0.340092
0.322367
0.30608
0.29116
0.277538
0.265133
0.253854
0.243601
0.234279
0.225794
0.21806
0.211001
0.204545
0.198635
0.193224
0.188285
0.18383
0.359535
0.340652
0.32349
0.30782
0.293498
0.280418
0.268482
0.257597
0.247667
0.238606
0.230329
0.222758
0.215824
0.209464
0.203625
0.198266
0.193363
0.188929
0.359644
0.341085
0.324387
0.309252
0.295478
0.282918
0.271452
0.260977
0.251399
0.242632
0.2346
0.22723
0.220459
0.21423
0.208496
0.20322
0.198381
0.193991
0.359719
0.341393
0.325043
0.310334
0.297021
0.284922
0.273893
0.263817
0.254594
0.246138
0.238372
0.23123
0.224652
0.218585
0.212987
0.207823
0.203075
0.198753
0.359767
0.341589
0.325473
0.311067
0.298103
0.286371
0.275708
0.265981
0.257083
0.248922
0.24142
0.234511
0.228136
0.222247
0.216801
0.211767
0.207129
0.202894
0.359793
0.341696
0.325715
0.311495
0.298755
0.287274
0.276872
0.267408
0.258763
0.250841
0.24356
0.236853
0.23066
0.224933
0.21963
0.214723
0.210193
0.206047
0.359804
0.341741
0.325817
0.311679
0.299044
0.287684
0.277416
0.26809
0.259584
0.251797
0.244646
0.238059
0.231978
0.226352
0.221142
0.216316
0.211857
0.207769
0.359801
0.341729
0.32579
0.31163
0.298967
0.287576
0.277274
0.267914
0.259374
0.251555
0.244373
0.237757
0.231649
0.225999
0.220766
0.215919
0.211442
0.207337
0.359775
0.341621
0.325546
0.311197
0.298302
0.286648
0.276067
0.266423
0.257604
0.249518
0.242085
0.235238
0.228918
0.223076
0.217671
0.21267
0.208056
0.203833
0.359715
0.341376
0.325008
0.310279
0.296947
0.28483
0.273786
0.263696
0.254462
0.245995
0.23822
0.231069
0.224481
0.218405
0.212796
0.207618
0.202853
0.198504
0.359586
0.340851
0.323902
0.308478
0.294407
0.281563
0.269839
0.259136
0.24936
0.240425
0.23225
0.22476
0.217889
0.211577
0.205772
0.200434
0.195538
0.191088
0.359329
0.339834
0.321858
0.305309
0.290142
0.276302
0.263712
0.252279
0.241902
0.23248
0.223916
0.216119
0.20901
0.202516
0.196574
0.191136
0.186169
0.181677
0.35886
0.338008
0.31837
0.300172
0.283537
0.26847
0.2549
0.242706
0.231754
0.221908
0.213041
0.205036
0.197793
0.191221
0.185245
0.179804
0.174858
0.170407
0.35805
0.334909
0.312752
0.292306
0.273859
0.257425
0.24287
0.229999
0.218605
0.208493
0.199489
0.191442
0.184223
0.177723
0.171851
0.166533
0.161723
0.157415
0.356706
0.329802
0.303972
0.280629
0.26012
0.242332
0.226959
0.21365
0.202081
0.191969
0.183082
0.175225
0.168241
0.162001
0.1564
0.151356
0.14681
0.142758
0.354518
0.321334
0.290239
0.263363
0.240768
0.221922
0.206161
0.192876
0.181572
0.171859
0.163437
0.156074
0.149586
0.14383
0.138694
0.134089
0.129952
0.126274
0.350901
0.306597
0.267914
0.237094
0.212925
0.193864
0.178597
0.166134
0.155776
0.14703
0.139543
0.133059
0.127388
0.122385
0.11794
0.113968
0.110406
0.107239
0.342446
0.275932
0.227256
0.193516
0.169801
0.152574
0.139539
0.129284
0.120954
0.114023
0.108147
0.103091
0.0986898
0.0948199
0.0913896
0.0883283
0.0855834
0.0831335
0.259302
0.173113
0.131358
0.107426
0.0921377
0.0817342
0.0742976
0.0687292
0.0643804
0.0608631
0.057938
0.0554525
0.0533055
0.0514268
0.0497662
0.0482862
0.0469587
0.0457661
0.00173732
0.00299449
0.00341946
0.00398377
0.00459432
0.00528008
0.00591768
0.00651449
0.00710613
0.00770601
0.00832119
0.0089535
0.00960116
0.0102605
0.0109271
0.0115968
0.0122658
0.012931
0.0135898
0.0142404
0.0148812
0.0155115
0.0161306
0.0167383
0.0173346
0.0179198
0.018494
0.0190578
0.0196117
0.0201562
0.0206919
0.0212196
0.0217401
0.0222543
0.0227637
0.0232701
0.0237758
0.0242844
0.0248005
0.0253289
0.0258444
0.0263471
0.0268367
0.027312
0.0277713
0.0282126
0.0286338
0.0290325
0.0294062
0.0297525
0.0300687
0.0303523
0.0306009
0.0308121
0.0309839
0.0311143
0.0312019
0.0312454
0.031244
0.0311973
0.0311054
0.0309686
0.0307878
0.0305644
0.0302999
0.0299964
0.0296563
0.0292823
0.0288777
0.0284472
0.0279983
0.0275456
0.0271179
0.0267528
0.0264435
0.0261387
0.0258265
0.0255053
0.0251756
0.0248385
0.024495
0.0241463
0.0237933
0.0234369
0.0230778
0.0227168
0.0223544
0.0219912
0.0216275
0.0212639
0.0209006
0.020538
0.0201766
0.0198166
0.0194585
0.0191026
0.0187495
0.0183997
0.0180536
0.0177118
0.0173751
0.017044
0.0167192
0.0164015
0.0160917
0.0157903
0.0154982
0.015216
0.0149444
0.014684
0.0144352
0.0141984
0.013974
0.0137622
0.0135629
0.0133759
0.0132006
0.0130366
0.0128852
0.0127482
0.012624
0.0125116
0.0124099
0.0123182
0.0122355
0.0121612
0.0120945
0.0120347
0.0119812
0.0119334
0.0118906
0.0118525
0.0118185
0.0117881
0.011761
0.0117368
0.0117152
0.0116959
0.0116785
0.0116629
0.0116489
0.0116362
0.0116247
0.0116142
0.0116046
0.0115957
0.0115875
0.0115799
0.0115728
0.011566
0.0115597
0.0115536
0.0115477
0.0115421
0.0115365
0.0115311
0.0115258
0.0115205
0.0115152
0.0115099
0.0115045
0.011499
0.0114933
0.0114874
0.0114812
0.0114746
0.0114675
0.0114598
0.0114511
0.0114413
0.0114299
0.0114165
0.0114
0.0113794
0.0113527
0.0113164
0.0112645
0.0111846
0.0110553
0.0108328
0.00381214
0.00797755
0.0101266
0.0115287
0.0128023
0.0140586
0.0152416
0.0163185
0.0173018
0.0182222
0.0191102
0.0199886
0.0208723
0.0217701
0.0226866
0.0236231
0.0245792
0.0255532
0.0265424
0.0275436
0.0285536
0.0295692
0.0305878
0.0316068
0.0326245
0.0336396
0.0346512
0.035659
0.0366629
0.0376631
0.0386598
0.0396536
0.0406447
0.0416334
0.0426198
0.0436038
0.0445851
0.045563
0.0465368
0.047498
0.0484554
0.0494096
0.0503589
0.0513008
0.0522318
0.0531482
0.0540454
0.0549187
0.0557628
0.0565721
0.0573408
0.0580629
0.0587324
0.0593434
0.0598903
0.0603678
0.0607712
0.0610962
0.0613395
0.0614985
0.0615714
0.0615577
0.0614574
0.0612718
0.0610029
0.0606536
0.0602278
0.05973
0.0591656
0.0585407
0.0578622
0.0571376
0.0563739
0.055596
0.054804
0.0539912
0.0531581
0.0523073
0.0514422
0.0505659
0.0496813
0.0487914
0.0478983
0.0470043
0.0461111
0.0452204
0.0443335
0.0434517
0.042576
0.0417072
0.0408463
0.0399941
0.0391512
0.0383185
0.0374966
0.0366864
0.0358888
0.0351045
0.0343347
0.0335801
0.032842
0.0321214
0.0314194
0.0307371
0.0300758
0.0294364
0.0288201
0.0282279
0.0276606
0.027119
0.0266038
0.0261153
0.025654
0.0252199
0.0248128
0.0244325
0.0240783
0.0237491
0.0234433
0.0231598
0.0229015
0.022668
0.0224576
0.0222682
0.0220982
0.0219459
0.0218096
0.021688
0.0215796
0.0214832
0.0213974
0.0213213
0.0212538
0.0211938
0.0211406
0.0210934
0.0210514
0.021014
0.0209806
0.0209508
0.0209239
0.0208996
0.0208776
0.0208576
0.0208392
0.0208221
0.0208063
0.0207915
0.0207774
0.0207641
0.0207513
0.020739
0.0207269
0.0207152
0.0207036
0.0206922
0.0206807
0.0206693
0.0206579
0.0206463
0.0206345
0.0206225
0.0206102
0.0205975
0.0205843
0.0205705
0.020556
0.0205405
0.0205237
0.0205053
0.0204847
0.0204613
0.0204339
0.0204008
0.0203596
0.0203059
0.0202315
0.0201258
0.0199497
0.0197841
0.00609551
0.0123462
0.0150376
0.0168274
0.018309
0.0196745
0.0209591
0.0221623
0.0232965
0.0243876
0.0254635
0.0265467
0.027651
0.0287832
0.0299439
0.0311297
0.0323351
0.0335531
0.0347766
0.0359992
0.0372151
0.0384199
0.0396105
0.040785
0.0419425
0.0430835
0.0442089
0.0453205
0.0464202
0.0475104
0.0485936
0.0496721
0.0507483
0.0518243
0.0529018
0.0539823
0.0550668
0.056156
0.0572501
0.0583493
0.0594544
0.0605644
0.0616771
0.0627895
0.0638976
0.064997
0.0660822
0.0671474
0.068186
0.0691907
0.0701542
0.0710684
0.0719254
0.0727172
0.0734359
0.0740742
0.0746252
0.0750829
0.0754422
0.0756989
0.0758502
0.0758944
0.0758311
0.0756612
0.0753867
0.0750109
0.0745382
0.0739737
0.0733236
0.0725945
0.0717936
0.0709276
0.0700115
0.0690641
0.0680848
0.0670753
0.0660392
0.064981
0.0639051
0.0628159
0.0617171
0.0606125
0.0595052
0.0583978
0.0572928
0.0561922
0.0550978
0.054011
0.0529331
0.0518653
0.0508085
0.0497636
0.0487315
0.047713
0.0467088
0.04572
0.0447472
0.0437916
0.042854
0.0419356
0.0410375
0.0401609
0.0393071
0.0384772
0.0376725
0.0368943
0.0361437
0.0354219
0.0347299
0.0340686
0.0334387
0.0328407
0.0322751
0.031742
0.0312413
0.0307728
0.0303358
0.0299296
0.0295531
0.0292049
0.0288837
0.0285907
0.0283249
0.0280846
0.0278679
0.0276731
0.0274983
0.0273418
0.027202
0.0270773
0.0269663
0.0268675
0.0267798
0.0267017
0.0266324
0.0265708
0.0265159
0.026467
0.0264233
0.0263841
0.0263489
0.026317
0.0262881
0.0262617
0.0262375
0.026215
0.0261941
0.0261745
0.026156
0.0261384
0.0261215
0.0261052
0.0260893
0.0260738
0.0260585
0.0260434
0.0260283
0.0260133
0.0259982
0.025983
0.0259676
0.0259519
0.0259359
0.0259194
0.0259024
0.0258847
0.0258662
0.0258466
0.0258256
0.0258029
0.0257778
0.0257497
0.0257174
0.0256793
0.0256329
0.0255743
0.0254962
0.0253886
0.0252248
0.0250272
0.00782693
0.0154197
0.01872
0.0208215
0.0224373
0.0238441
0.0251533
0.0264081
0.0276327
0.0288475
0.0300701
0.0313128
0.0325811
0.033875
0.0351903
0.0365201
0.0378565
0.0391915
0.0405181
0.0418303
0.0431236
0.0443949
0.0456426
0.0468663
0.0480668
0.0492456
0.0504049
0.0515476
0.0526767
0.0537954
0.0549072
0.0560153
0.0571227
0.0582325
0.0593471
0.0604688
0.0615993
0.0627398
0.0638908
0.0650541
0.0662302
0.0674181
0.0686161
0.0698212
0.0710295
0.0722363
0.0734358
0.0746215
0.0757858
0.0769206
0.0780171
0.0790659
0.0800575
0.0809821
0.0818301
0.0825924
0.0832605
0.0838267
0.0842842
0.0846278
0.0848534
0.0849585
0.0849419
0.0848042
0.0845473
0.0841745
0.0836902
0.0831001
0.0824105
0.0816287
0.0807618
0.0798194
0.0788242
0.0777815
0.0766962
0.0755739
0.0744203
0.0732409
0.0720414
0.0708269
0.0696021
0.0683711
0.0671376
0.0659048
0.0646755
0.0634521
0.0622365
0.0610305
0.0598354
0.0586524
0.0574827
0.0563272
0.0551866
0.0540619
0.0529537
0.051863
0.0507906
0.0497373
0.0487042
0.0476924
0.046703
0.0457372
0.0447961
0.0438812
0.0429937
0.0421349
0.041306
0.0405082
0.0397426
0.0390102
0.0383118
0.037648
0.0370193
0.0364259
0.0358678
0.0353448
0.0348564
0.0344018
0.0339801
0.0335902
0.0332307
0.0329004
0.0325996
0.0323267
0.0320799
0.0318572
0.0316569
0.0314772
0.0313162
0.0311722
0.0310438
0.0309292
0.0308272
0.0307364
0.0306555
0.0305834
0.0305191
0.0304617
0.0304103
0.0303641
0.0303225
0.0302848
0.0302506
0.0302193
0.0301905
0.0301638
0.0301389
0.0301155
0.0300935
0.0300724
0.0300522
0.0300327
0.0300138
0.0299952
0.029977
0.029959
0.029941
0.0299232
0.0299052
0.0298872
0.0298689
0.0298504
0.0298315
0.0298122
0.0297923
0.0297718
0.0297503
0.0297278
0.0297039
0.0296782
0.0296502
0.0296191
0.029584
0.0295433
0.0294949
0.0294353
0.0293588
0.0292574
0.0291155
0.0289445
0.00894418
0.0174782
0.0212738
0.0236666
0.0254483
0.0269439
0.0283104
0.0296244
0.0309243
0.0322312
0.0335567
0.0349053
0.0362766
0.0376662
0.0390675
0.0404728
0.0418745
0.0432654
0.0446397
0.0459925
0.0473208
0.0486224
0.0498967
0.0511439
0.0523653
0.0535628
0.054739
0.0558968
0.0570396
0.0581709
0.0592943
0.0604135
0.0615321
0.0626534
0.0637806
0.0649166
0.0660637
0.0672237
0.0683981
0.0695891
0.070798
0.072025
0.0732686
0.0745266
0.0757955
0.0770704
0.0783457
0.0796145
0.0808687
0.0820993
0.0832966
0.08445
0.0855486
0.0865811
0.0875365
0.088404
0.0891734
0.0898356
0.0903825
0.0908075
0.0911055
0.0912731
0.0913086
0.091212
0.090985
0.0906307
0.0901538
0.0895601
0.0888563
0.0880501
0.0871496
0.0861757
0.0851368
0.0840406
0.0828948
0.0817065
0.0804828
0.0792304
0.0779556
0.0766643
0.0753618
0.0740527
0.0727412
0.0714308
0.0701247
0.0688254
0.0675351
0.0662557
0.0649887
0.0637353
0.0624967
0.0612737
0.0600671
0.0588778
0.0577065
0.0565539
0.0554208
0.054308
0.0532166
0.0521475
0.0511018
0.0500806
0.0490852
0.0481169
0.047177
0.0462668
0.0453876
0.0445406
0.043727
0.0429478
0.0422039
0.041496
0.0408247
0.0401902
0.0395927
0.0390319
0.0385076
0.038019
0.0375652
0.0371452
0.0367577
0.0364013
0.0360752
0.0357786
0.0355097
0.0352665
0.0350473
0.0348501
0.0346731
0.0345146
0.0343728
0.0342462
0.0341332
0.0340324
0.0339425
0.0338622
0.0337906
0.0337264
0.0336689
0.0336171
0.0335704
0.0335281
0.0334896
0.0334543
0.0334217
0.0333916
0.0333635
0.033337
0.033312
0.0332882
0.0332653
0.0332432
0.0332217
0.0332006
0.03318
0.0331595
0.0331392
0.033119
0.0330987
0.0330783
0.0330578
0.0330369
0.0330157
0.0329941
0.0329718
0.0329489
0.0329251
0.0329002
0.0328739
0.0328458
0.0328155
0.0327822
0.0327449
0.0327023
0.0326524
0.0325922
0.0325171
0.0324211
0.0322946
0.0321483
0.00971078
0.0187777
0.0229324
0.025578
0.0275436
0.0291699
0.0306329
0.0320264
0.0334002
0.0347795
0.0361751
0.0375897
0.0390207
0.0404628
0.0419093
0.043353
0.0447873
0.0462064
0.0476054
0.0489805
0.0503292
0.05165
0.0529422
0.0542062
0.055443
0.0566544
0.0578426
0.0590104
0.0601609
0.0612975
0.0624239
0.0635438
0.0646611
0.0657796
0.0669029
0.0680347
0.0691779
0.0703354
0.0715092
0.0727023
0.0739171
0.0751548
0.0764151
0.0776965
0.078996
0.0803096
0.0816315
0.0829549
0.0842716
0.085572
0.0868455
0.0880806
0.0892653
0.0903869
0.091433
0.0923912
0.09325
0.0939987
0.0946279
0.0951299
0.0954984
0.0957292
0.0958199
0.0957702
0.0955814
0.0952565
0.0948003
0.0942186
0.0935186
0.0927098
0.0918085
0.0908249
0.0897683
0.0886481
0.0874727
0.0862507
0.08499
0.0836981
0.0823818
0.0810477
0.0797015
0.0783482
0.0769924
0.0756379
0.0742881
0.0729457
0.0716132
0.0702925
0.0689851
0.0676923
0.0664153
0.0651548
0.0639118
0.0626867
0.0614804
0.0602934
0.0591265
0.0579805
0.0568561
0.0557543
0.0546762
0.0536229
0.0525954
0.0515953
0.0506236
0.0496818
0.0487712
0.047893
0.0470486
0.0462388
0.0454649
0.0447274
0.0440272
0.0433645
0.0427395
0.0421523
0.0416024
0.0410893
0.0406123
0.0401703
0.039762
0.0393862
0.0390413
0.038727
0.0384414
0.0381827
0.0379489
0.0377383
0.037549
0.037379
0.0372268
0.0370907
0.036969
0.0368602
0.0367631
0.0366763
0.0365987
0.0365291
0.0364667
0.0364104
0.0363596
0.0363135
0.0362714
0.0362329
0.0361973
0.0361644
0.0361336
0.0361046
0.0360772
0.036051
0.0360259
0.0360016
0.0359781
0.035955
0.0359323
0.0359099
0.0358877
0.0358655
0.0358433
0.035821
0.0357985
0.0357757
0.0357526
0.0357291
0.0357049
0.03568
0.0356543
0.0356274
0.0355992
0.0355692
0.035537
0.0355018
0.0354629
0.0354188
0.0353678
0.0353074
0.0352337
0.035142
0.0350268
0.0348989
0.0102146
0.0195371
0.0239327
0.0267778
0.0289145
0.0306815
0.0322564
0.0337391
0.0351851
0.036624
0.0380694
0.0395252
0.04099
0.0424597
0.0439288
0.0453916
0.0468426
0.048277
0.0496909
0.0510811
0.0524452
0.0537816
0.0550896
0.0563691
0.0576205
0.058845
0.0600444
0.0612207
0.0623766
0.0635152
0.0646399
0.0657545
0.0668628
0.0679689
0.0690771
0.0701914
0.0713157
0.0724536
0.0736083
0.0747831
0.0759819
0.0772072
0.0784598
0.0797395
0.0810442
0.0823706
0.0837135
0.0850665
0.0864212
0.0877678
0.0890954
0.0903916
0.0916432
0.0928365
0.0939577
0.0949932
0.0959298
0.0967555
0.0974597
0.0980334
0.0984695
0.0987628
0.0989103
0.0989112
0.0987665
0.0984791
0.0980539
0.0974962
0.096818
0.0960304
0.0951441
0.0941693
0.0931162
0.0919946
0.090814
0.0895834
0.0883113
0.0870059
0.0856745
0.084324
0.0829605
0.0815895
0.0802156
0.0788431
0.0774754
0.0761156
0.0747661
0.0734289
0.0721057
0.0707977
0.069506
0.0682313
0.0669745
0.0657361
0.0645166
0.0633167
0.0621368
0.0609777
0.0598401
0.0587248
0.0576328
0.0565651
0.055523
0.0545075
0.0535201
0.0525621
0.0516347
0.0507393
0.0498773
0.0490497
0.0482576
0.047502
0.0467834
0.0461025
0.0454595
0.0448545
0.0442872
0.0437572
0.0432639
0.0428061
0.0423829
0.041993
0.0416346
0.0413072
0.0410091
0.0407387
0.0404939
0.040273
0.0400741
0.0398954
0.0397351
0.0395914
0.0394629
0.039348
0.0392451
0.0391532
0.0390708
0.0389969
0.0389305
0.0388706
0.0388165
0.0387673
0.0387224
0.0386813
0.0386433
0.038608
0.0385751
0.0385441
0.0385147
0.0384867
0.0384598
0.0384338
0.0384085
0.0383838
0.0383595
0.0383355
0.0383117
0.038288
0.0382642
0.0382404
0.0382163
0.038192
0.0381674
0.0381423
0.0381166
0.0380901
0.0380628
0.0380345
0.0380047
0.0379732
0.0379395
0.037903
0.0378627
0.0378176
0.037766
0.0377056
0.0376334
0.0375457
0.0374393
0.0373254
0.0105161
0.0199136
0.024459
0.0274496
0.0297271
0.0316211
0.033303
0.0348714
0.0363839
0.0378729
0.0393552
0.0408378
0.0423219
0.0438055
0.0452852
0.0467569
0.0482164
0.04966
0.0510843
0.0524864
0.0538639
0.055215
0.0565386
0.0578337
0.0591003
0.0603387
0.0615498
0.0627349
0.0638961
0.0650358
0.066157
0.0672632
0.0683583
0.0694463
0.0705319
0.0716196
0.072714
0.0738196
0.0749406
0.0760808
0.0772458
0.0784391
0.0796633
0.0809193
0.0822063
0.083522
0.0848623
0.0862211
0.0875905
0.0889608
0.0903207
0.0916571
0.0929563
0.0942034
0.0953835
0.0964816
0.0974833
0.0983753
0.0991457
0.0997845
0.100284
0.100637
0.100841
0.100894
0.100797
0.100553
0.100168
0.09965
0.099009
0.0982548
0.0973976
0.0964479
0.0954161
0.0943123
0.0931464
0.0919279
0.0906657
0.0893684
0.0880435
0.0866984
0.0853394
0.0839722
0.0826018
0.0812326
0.0798683
0.0785118
0.0771659
0.0758326
0.0745134
0.0732098
0.0719227
0.0706528
0.0694008
0.0681672
0.0669524
0.0657568
0.064581
0.0634254
0.0622907
0.0611776
0.0600869
0.0590197
0.0579771
0.0569601
0.0559701
0.0550085
0.0540766
0.0531757
0.0523071
0.0514722
0.0506721
0.0499076
0.0491798
0.0484891
0.047836
0.0472206
0.0466428
0.0461023
0.0455985
0.0451306
0.0446974
0.0442978
0.0439304
0.0435938
0.043287
0.0430081
0.0427554
0.042527
0.0423211
0.0421358
0.0419693
0.0418201
0.0416864
0.0415666
0.0414595
0.0413635
0.0412775
0.0412002
0.0411308
0.0410681
0.0410114
0.0409598
0.0409128
0.0408696
0.0408297
0.0407927
0.040758
0.0407254
0.0406946
0.0406651
0.0406368
0.0406095
0.0405829
0.0405569
0.0405313
0.0405061
0.040481
0.0404561
0.0404311
0.0404061
0.0403808
0.0403553
0.0403295
0.0403031
0.0402763
0.0402487
0.0402202
0.0401906
0.0401597
0.0401271
0.0400923
0.0400548
0.0400137
0.039968
0.0399162
0.0398564
0.0397859
0.039702
0.0396032
0.0395003
0.0106586
0.0200131
0.0246419
0.0277313
0.0301152
0.0321121
0.0338848
0.0355276
0.0370974
0.0386281
0.040139
0.0416401
0.0431355
0.0446257
0.0461096
0.0475847
0.0490484
0.0504977
0.0519297
0.0533418
0.0547315
0.0560967
0.0574355
0.0587466
0.0600289
0.0612819
0.0625056
0.0637006
0.0648678
0.0660092
0.0671271
0.0682245
0.0693048
0.0703723
0.0714314
0.0724872
0.0735448
0.0746093
0.0756861
0.07678
0.0778972
0.0790431
0.0802215
0.0814348
0.0826839
0.0839677
0.0852831
0.0866252
0.0879866
0.0893579
0.0907277
0.0920829
0.0934088
0.0946901
0.0959108
0.0970549
0.0981069
0.0990521
0.0998775
0.100572
0.101128
0.101536
0.101794
0.1019
0.101853
0.10166
0.101325
0.100856
0.100262
0.0995524
0.0987374
0.0978271
0.096832
0.0957625
0.0946284
0.0934396
0.0922053
0.0909342
0.0896342
0.0883128
0.0869765
0.0856313
0.0842823
0.0829342
0.0815906
0.0802548
0.0789295
0.0776167
0.0763181
0.075035
0.0737683
0.0725188
0.071287
0.0700732
0.0688778
0.0677011
0.0665434
0.0654052
0.0642869
0.0631891
0.0621126
0.0610583
0.0600271
0.0590203
0.0580391
0.0570848
0.0561587
0.0552622
0.0543968
0.0535637
0.0527641
0.0519992
0.0512698
0.0505767
0.0499204
0.0493012
0.048719
0.0481737
0.0476648
0.0471915
0.0467529
0.0463479
0.0459751
0.045633
0.0453208
0.0450365
0.0447786
0.0445452
0.0443345
0.0441447
0.043974
0.0438208
0.0436834
0.0435603
0.04345
0.0433512
0.0432625
0.0431828
0.0431111
0.0430464
0.0429878
0.0429345
0.0428858
0.0428412
0.0427999
0.0427615
0.0427257
0.0426919
0.0426599
0.0426294
0.0426001
0.0425718
0.0425442
0.0425173
0.0424908
0.0424646
0.0424387
0.0424129
0.042387
0.0423611
0.042335
0.0423086
0.0422819
0.0422547
0.042227
0.0421985
0.0421692
0.0421388
0.0421071
0.0420738
0.0420383
0.0420002
0.0419588
0.0419129
0.0418614
0.0418024
0.041734
0.041654
0.041562
0.0414684
0.0106723
0.0199071
0.0245731
0.0277253
0.0301849
0.0322596
0.0341041
0.0358074
0.0374245
0.0389893
0.040523
0.0420377
0.0435401
0.0450333
0.046518
0.0479936
0.0494586
0.0509109
0.0523483
0.0537683
0.0551684
0.0565461
0.0578991
0.0592254
0.060523
0.0617908
0.0630276
0.0642332
0.0654078
0.0665522
0.0676682
0.0687579
0.0698246
0.0708719
0.0719042
0.0729267
0.0739447
0.0749641
0.0759908
0.0770308
0.0780911
0.0791783
0.0802977
0.0814533
0.0826475
0.0838805
0.085151
0.0864548
0.0877858
0.0891351
0.0904917
0.0918423
0.0931721
0.0944652
0.0957052
0.0968757
0.0979603
0.0989426
0.0998086
0.100548
0.10115
0.101607
0.101914
0.102071
0.102078
0.10194
0.101661
0.101249
0.100711
0.100057
0.0992952
0.098437
0.0974921
0.096471
0.0953836
0.0942397
0.0930487
0.0918193
0.0905597
0.0892774
0.0879791
0.086671
0.0853584
0.0840459
0.0827375
0.0814366
0.0801457
0.0788671
0.0776025
0.0763532
0.07512
0.0739036
0.0727045
0.0715229
0.0703591
0.0692132
0.0680854
0.066976
0.0658854
0.064814
0.0637625
0.0627316
0.0617223
0.0607356
0.0597728
0.0588351
0.0579239
0.0570406
0.0561867
0.0553634
0.0545722
0.053814
0.0530901
0.0524012
0.0517479
0.0511307
0.0505496
0.0500047
0.0494954
0.0490213
0.0485814
0.0481748
0.0478001
0.0474559
0.0471412
0.0468545
0.0465939
0.0463578
0.0461444
0.0459521
0.0457789
0.0456233
0.0454837
0.0453585
0.0452462
0.0451456
0.0450552
0.044974
0.0449008
0.0448348
0.044775
0.0447206
0.0446708
0.0446252
0.044583
0.0445438
0.0445071
0.0444726
0.0444399
0.0444087
0.0443787
0.0443497
0.0443215
0.044294
0.0442669
0.0442402
0.0442136
0.0441872
0.0441608
0.0441343
0.0441076
0.0440807
0.0440534
0.0440257
0.0439974
0.0439684
0.0439386
0.0439078
0.0438756
0.0438419
0.0438061
0.0437679
0.0437264
0.0436808
0.04363
0.0435724
0.0435063
0.0434303
0.0433446
0.0432592
0.0105774
0.0196451
0.0243188
0.0275095
0.0300218
0.032154
0.0340536
0.0358049
0.0374603
0.0390534
0.0406059
0.0421316
0.0436392
0.0451336
0.0466173
0.0480913
0.0495553
0.0510082
0.0524482
0.0538732
0.0552807
0.056668
0.0580325
0.0593717
0.0606829
0.0619642
0.0632137
0.0644301
0.065613
0.0667622
0.0678784
0.0689633
0.0700193
0.0710494
0.0720578
0.0730493
0.0740294
0.0750041
0.07598
0.0769638
0.0779633
0.0789858
0.0800381
0.0811254
0.0822515
0.0834183
0.0846258
0.0858714
0.08715
0.088454
0.0897733
0.0910944
0.0924023
0.0936815
0.0949158
0.096089
0.0971859
0.0981855
0.0990735
0.0998397
0.100475
0.100971
0.101324
0.101532
0.101594
0.101515
0.101297
0.100947
0.100473
0.0998821
0.0991842
0.0983889
0.097506
0.0965456
0.0955175
0.0944314
0.0932967
0.092122
0.0909157
0.0896852
0.0884376
0.0871789
0.0859148
0.0846499
0.0833883
0.0821335
0.0808883
0.0796549
0.0784349
0.0772298
0.0760405
0.0748674
0.0737111
0.0725717
0.0714492
0.0703438
0.0692555
0.0681845
0.0671308
0.066095
0.0650775
0.0640789
0.0631001
0.0621421
0.061206
0.060293
0.0594046
0.0585421
0.057707
0.0569007
0.0561245
0.0553797
0.0546674
0.0539886
0.053344
0.0527341
0.0521592
0.0516193
0.0511141
0.0506433
0.050206
0.0498012
0.049428
0.0490847
0.0487705
0.0484838
0.048223
0.0479864
0.0477724
0.0475793
0.0474053
0.0472489
0.0471084
0.0469823
0.0468692
0.0467677
0.0466766
0.0465946
0.0465208
0.0464541
0.0463937
0.0463387
0.0462885
0.0462424
0.0461997
0.0461601
0.0461231
0.0460882
0.0460551
0.0460235
0.0459932
0.0459639
0.0459354
0.0459076
0.0458802
0.0458532
0.0458264
0.0457997
0.045773
0.0457462
0.0457193
0.0456921
0.0456646
0.0456366
0.0456081
0.0455789
0.0455489
0.0455179
0.0454856
0.0454518
0.0454161
0.045378
0.0453369
0.045292
0.0452423
0.0451864
0.0451231
0.0450512
0.0449716
0.0448935
0.0103872
0.019263
0.0239287
0.027145
0.0296964
0.0318732
0.0338165
0.0356069
0.0372946
0.0389122
0.0404816
0.0420176
0.0435299
0.0450249
0.0465067
0.0479776
0.0494384
0.0508888
0.052328
0.053754
0.0551646
0.0565573
0.0579293
0.0592775
0.0605991
0.0618915
0.063152
0.0643789
0.0655705
0.066726
0.0678453
0.0689291
0.069979
0.0709973
0.0719876
0.072954
0.073902
0.0748374
0.0757669
0.0766978
0.0776382
0.0785961
0.0795786
0.0805922
0.0816419
0.0827309
0.0838604
0.0850294
0.0862343
0.0874693
0.0887266
0.089992
0.0912493
0.092485
0.0936837
0.0948294
0.0959059
0.0968968
0.0977879
0.0985672
0.0992248
0.0997528
0.100146
0.100401
0.100518
0.100497
0.100343
0.10006
0.0996551
0.0991353
0.0985091
0.0977856
0.0969742
0.0960845
0.0951261
0.0941084
0.0930404
0.091931
0.0907883
0.0896199
0.0884328
0.0872333
0.086027
0.0848188
0.083613
0.082413
0.0812219
0.0800418
0.0788748
0.0777219
0.0765842
0.0754623
0.0743565
0.0732669
0.0721935
0.0711362
0.0700949
0.0690697
0.0680606
0.0670678
0.0660916
0.0651327
0.0641916
0.0632694
0.0623671
0.0614858
0.0606269
0.0597918
0.0589819
0.0581987
0.0574436
0.0567179
0.0560229
0.0553595
0.0547286
0.0541308
0.0535666
0.0530361
0.0525391
0.0520753
0.0516441
0.0512446
0.0508758
0.0505364
0.0502253
0.0499411
0.0496823
0.0494473
0.0492346
0.0490424
0.0488692
0.0487134
0.0485733
0.0484475
0.0483346
0.0482333
0.0481423
0.0480605
0.0479867
0.0479201
0.0478597
0.0478047
0.0477545
0.0477083
0.0476657
0.0476261
0.047589
0.0475541
0.0475211
0.0474895
0.0474592
0.0474299
0.0474014
0.0473735
0.0473462
0.0473191
0.0472923
0.0472656
0.0472389
0.0472122
0.0471853
0.0471581
0.0471306
0.0471027
0.0470742
0.0470451
0.0470152
0.0469843
0.0469523
0.0469188
0.0468835
0.0468459
0.0468055
0.0467616
0.0467134
0.0466596
0.0465993
0.0465317
0.046458
0.0463866
0.010104
0.0187844
0.0234402
0.0266806
0.0292678
0.0314841
0.0334664
0.035292
0.0370094
0.0386503
0.0402369
0.0417844
0.0433019
0.0447976
0.0462769
0.0477432
0.0491984
0.0506433
0.0520776
0.0535001
0.054909
0.0563019
0.0576762
0.0590289
0.0603568
0.061657
0.0629264
0.0641626
0.0653633
0.0665269
0.0676526
0.06874
0.0697899
0.0708038
0.0717843
0.0727351
0.0736606
0.0745665
0.0754593
0.0763463
0.0772353
0.0781341
0.0790502
0.0799903
0.08096
0.0819635
0.0830032
0.0840792
0.0851893
0.0863288
0.0874906
0.0886643
0.0898377
0.0909979
0.0921305
0.0932206
0.094253
0.0952129
0.0960865
0.0968616
0.0975275
0.098076
0.0985006
0.0987973
0.0989642
0.0990016
0.0989115
0.0986977
0.0983654
0.0979212
0.0973724
0.0967273
0.0959945
0.0951829
0.0943018
0.0933601
0.0923667
0.0913302
0.0902586
0.0891596
0.0880401
0.0869066
0.0857648
0.0846198
0.0834758
0.0823367
0.0812055
0.0800846
0.0789759
0.0778808
0.0768003
0.075735
0.0746852
0.0736509
0.072632
0.0716284
0.0706399
0.0696662
0.0687074
0.0677634
0.0668346
0.0659211
0.0650238
0.0641432
0.0632804
0.0624366
0.0616129
0.0608108
0.0600317
0.059277
0.0585483
0.0578468
0.0571739
0.0565307
0.0559181
0.0553368
0.0547875
0.0542702
0.0537851
0.0533319
0.0529101
0.0525189
0.0521574
0.0518245
0.0515189
0.0512395
0.0509849
0.0507535
0.0505438
0.0503542
0.0501833
0.0500294
0.049891
0.0497667
0.0496551
0.0495549
0.0494648
0.0493838
0.0493108
0.0492448
0.0491851
0.0491307
0.0490809
0.0490352
0.048993
0.0489538
0.0489171
0.0488826
0.0488499
0.0488186
0.0487886
0.0487596
0.0487314
0.0487038
0.0486767
0.04865
0.0486235
0.048597
0.0485706
0.0485441
0.0485175
0.0484906
0.0484634
0.0484358
0.0484077
0.048379
0.0483495
0.048319
0.0482875
0.0482545
0.0482199
0.0481832
0.0481439
0.0481014
0.0480549
0.0480036
0.0479465
0.0478833
0.0478154
0.0477502
0.009768
0.0182126
0.0228792
0.0261564
0.0287861
0.0310452
0.0330678
0.0349293
0.0366767
0.0383413
0.0399448
0.0415027
0.043026
0.044523
0.0460001
0.0474614
0.04891
0.0503474
0.0517741
0.0531897
0.0545931
0.0559824
0.0573551
0.0587084
0.0600394
0.0613449
0.0626217
0.0638669
0.0650779
0.0662522
0.0673884
0.0684852
0.0695426
0.0705611
0.0715424
0.072489
0.0734047
0.0742942
0.0751633
0.0760191
0.076868
0.0777169
0.0785726
0.0794416
0.0803295
0.0812411
0.0821794
0.083146
0.0841402
0.0851597
0.0861995
0.087253
0.0883112
0.0893637
0.0903989
0.0914039
0.0923653
0.0932696
0.0941036
0.0948551
0.0955133
0.0960689
0.0965144
0.0968446
0.097056
0.0971473
0.0971191
0.0969737
0.0967149
0.096348
0.0958791
0.0953155
0.0946649
0.0939355
0.0931359
0.0922747
0.0913602
0.090401
0.0894048
0.0883793
0.0873315
0.0862679
0.0851943
0.0841159
0.0830373
0.0819623
0.0808942
0.0798355
0.0787884
0.0777542
0.0767341
0.0757286
0.0747381
0.0737626
0.0728018
0.0718556
0.0709236
0.0700055
0.0691011
0.0682103
0.067333
0.0664696
0.0656204
0.0647862
0.0639677
0.063166
0.0623823
0.0616179
0.0608742
0.0601527
0.0594548
0.058782
0.0581355
0.0575167
0.0569264
0.0563656
0.0558348
0.0553344
0.0548646
0.0544251
0.0540157
0.0536356
0.0532841
0.0529601
0.0526624
0.05239
0.0521414
0.0519154
0.0517105
0.0515251
0.0513579
0.0512072
0.0510717
0.0509499
0.0508405
0.0507423