/*--------------------------------*- C++ -*----------------------------------*\
  =========                 |
  \\      /  F ield         | OpenFOAM: The Open Source CFD Toolbox
   \\    /   O peration     | Website:  https://openfoam.org
    \\  /    A nd           | Version:  6
     \\/     M anipulation  |
\*---------------------------------------------------------------------------*/
FoamFile
{
    version     2.0;
    format      ascii;
    class       volScalarField;
    location    "0.13";
    object      nut;
}
// * * * * * * * * * * * * * * * * * * * * * * * * * * * * * * * * * * * * * //

dimensions      [0 2 -1 0 0 0 0];

internalField   nonuniform List<scalar> 
12225
(
1.77723e-05
1.42681e-05
1.23503e-05
1.11617e-05
1.0359e-05
9.78755e-06
9.36054e-06
9.02555e-06
8.75164e-06
8.52058e-06
8.32124e-06
8.14646e-06
7.99137e-06
7.85252e-06
7.72732e-06
7.61401e-06
7.51146e-06
7.42463e-06
0.00014488
0.000101908
8.78834e-05
8.05163e-05
7.60532e-05
7.30649e-05
7.07538e-05
6.87385e-05
6.68922e-05
6.51874e-05
6.36158e-05
6.2169e-05
6.08376e-05
5.96123e-05
5.84881e-05
5.74564e-05
5.65833e-05
5.58559e-05
0.000323317
0.000223558
0.000189771
0.000172518
0.000161976
0.000154866
0.000149587
0.000145301
0.000141603
0.000138312
0.000135335
0.000132618
0.000130125
0.000127831
0.000125719
0.000123778
0.000122067
0.000120659
0.00049396
0.000355218
0.000299398
0.000269577
0.000251017
0.000238391
0.000229146
0.000221907
0.000215933
0.000210817
0.000206325
0.000202314
0.000198692
0.000195395
0.000192381
0.000189625
0.000187158
0.000185071
0.000624465
0.000478659
0.000407318
0.000366142
0.000339534
0.000321037
0.000307403
0.000296821
0.000288247
0.000281062
0.000274883
0.000269466
0.000264647
0.000260315
0.000256391
0.000252829
0.000249634
0.000246887
0.000713107
0.000583341
0.000506483
0.000457843
0.000424791
0.000401086
0.0003833
0.000369408
0.000358178
0.000348839
0.000340889
0.000333994
0.000327922
0.000322514
0.000317656
0.000313275
0.000309352
0.000305952
0.000769318
0.000665569
0.000592269
0.00054109
0.000504216
0.000476741
0.000455604
0.000438848
0.000425207
0.000413842
0.000404184
0.000395839
0.000388527
0.000382048
0.000376258
0.000371061
0.000366419
0.000362378
0.000803466
0.000726298
0.000662515
0.000613357
0.000575615
0.00054625
0.000522967
0.000504128
0.000488585
0.00047553
0.000464389
0.000454747
0.000446301
0.000438827
0.000432161
0.000426192
0.000420868
0.000416214
0.000823634
0.000768922
0.000717198
0.000673368
0.000637433
0.000608135
0.000584103
0.000564173
0.000547436
0.0005332
0.000520945
0.000510279
0.000500902
0.000492588
0.000485167
0.000478521
0.00047259
0.000467384
0.000835323
0.00079759
0.000757823
0.000721064
0.000688907
0.000661386
0.00063797
0.000618005
0.000600883
0.000586086
0.000573195
0.000561873
0.000551855
0.000542929
0.000534936
0.000527761
0.000521345
0.000515683
0.000842015
0.000816195
0.000786734
0.000757381
0.000730085
0.00070557
0.000683907
0.000664881
0.000648178
0.000633474
0.000620477
0.000608929
0.000598618
0.000589366
0.000581035
0.000573525
0.000566784
0.000560798
0.000845507
0.000826937
0.000804855
0.000781666
0.000759037
0.000737867
0.000718519
0.000701053
0.00068537
0.000671311
0.000658694
0.000647346
0.00063711
0.000627849
0.000619454
0.000611846
0.000604983
0.000598857
0.000847619
0.000833943
0.000817479
0.000799537
0.000781303
0.000763594
0.000746874
0.000731358
0.0007171
0.000704067
0.00069218
0.000681342
0.000671452
0.00066242
0.000654167
0.000646637
0.000639803
0.000633658
0.000848981
0.000838778
0.000826772
0.00081347
0.000799526
0.000785514
0.000771847
0.000758787
0.000746473
0.000734961
0.000724257
0.000714334
0.000705149
0.000696656
0.000688815
0.000681595
0.000674988
0.000668984
0.000849783
0.000841793
0.000832934
0.000823261
0.000813011
0.000802474
0.000791918
0.000781551
0.000771519
0.000761917
0.000752793
0.000744172
0.000736055
0.000728437
0.000721311
0.000714673
0.000708529
0.000702868
0.00085021
0.000843471
0.000836556
0.000829345
0.000821838
0.000814111
0.00080627
0.000798426
0.000790673
0.00078309
0.000775732
0.000768639
0.000761837
0.000755345
0.000749179
0.000743355
0.000737888
0.000732764
0.00085041
0.000844284
0.000838391
0.000832584
0.000826773
0.000820921
0.000815027
0.000809111
0.000803207
0.00079735
0.000791576
0.000785915
0.000780394
0.000775039
0.000769874
0.000764925
0.000760209
0.000755704
0.000850482
0.000844584
0.000839092
0.000833869
0.000828809
0.000823839
0.000818914
0.000814011
0.000809126
0.000804264
0.000799437
0.000794664
0.000789963
0.000785356
0.000780867
0.000776521
0.000772331
0.000768267
0.000850461
0.000844499
0.000838895
0.000833512
0.000828253
0.000823053
0.00081788
0.000812723
0.000807587
0.000802484
0.000797431
0.000792447
0.000787554
0.000782772
0.000778124
0.000773633
0.000769312
0.000765128
0.000850264
0.000843697
0.000837077
0.000830283
0.000823291
0.00081614
0.000808902
0.000801659
0.000794483
0.000787438
0.000780573
0.000773922
0.000767512
0.000761362
0.000755489
0.000749907
0.000744623
0.000739602
0.000849708
0.000841535
0.000832454
0.000822564
0.000812129
0.000801445
0.000790775
0.000780321
0.000770222
0.000760564
0.000751394
0.000742731
0.000734575
0.000726917
0.000719745
0.00071305
0.000706818
0.000701005
0.000848164
0.00083595
0.000821424
0.000805537
0.000789215
0.000773148
0.000757772
0.000743319
0.000729886
0.000717482
0.000706067
0.000695578
0.000685943
0.000677088
0.000668951
0.000661479
0.00065463
0.000648343
0.000844087
0.000822748
0.000797942
0.000772516
0.000748191
0.000725784
0.000705555
0.00068747
0.000671358
0.000657005
0.000644191
0.000632715
0.000622399
0.000613091
0.000604668
0.000597034
0.000590119
0.00058385
0.000833789
0.000794242
0.000753373
0.000716036
0.000683584
0.000655912
0.000632428
0.000612445
0.000595334
0.000580568
0.000567718
0.000556444
0.000546476
0.000537599
0.000529651
0.000522507
0.000516084
0.000510308
0.000809074
0.000738683
0.00067852
0.000630885
0.000593545
0.00056404
0.000540396
0.000521129
0.000505162
0.000491717
0.00048023
0.000470284
0.000461573
0.000453868
0.000446998
0.000440839
0.000435311
0.00043036
0.000753682
0.000642675
0.000568222
0.000517578
0.000481553
0.000454934
0.000434601
0.000418581
0.000405603
0.00039483
0.000385699
0.000377821
0.000370922
0.000364808
0.000359337
0.000354411
0.000349972
0.000345991
0.000641464
0.000499143
0.000426771
0.000383952
0.000355807
0.000336085
0.000321551
0.00031033
0.000301309
0.000293807
0.000287399
0.000281809
0.000276853
0.000272404
0.000268375
0.000264706
0.000261365
0.00025835
0.000448551
0.000320181
0.000270273
0.00024345
0.000226689
0.000215397
0.000207252
0.00020095
0.000195773
0.000191334
0.000187417
0.000183896
0.000180692
0.000177753
0.000175044
0.00017254
0.00017023
0.000168125
0.000203095
0.000143549
0.000122968
0.000111698
0.000104797
0.000100345
9.7153e-05
9.45588e-05
9.22669e-05
9.01685e-05
8.82243e-05
8.64174e-05
8.47371e-05
8.31751e-05
8.17233e-05
8.03735e-05
7.91195e-05
7.79619e-05
2.40294e-05
1.96338e-05
1.71029e-05
1.54667e-05
1.4324e-05
1.34912e-05
1.28629e-05
1.23716e-05
1.19739e-05
1.16424e-05
1.13593e-05
1.11132e-05
1.08961e-05
1.07026e-05
1.05286e-05
1.03711e-05
1.02277e-05
1.00973e-05
2.44164e-06
6.84503e-06
7.26803e-06
7.80907e-06
8.3581e-06
8.93749e-06
9.47047e-06
9.9367e-06
1.0378e-05
1.08077e-05
1.1232e-05
1.16526e-05
1.20684e-05
1.24775e-05
1.28776e-05
1.32669e-05
1.36441e-05
1.40083e-05
1.43591e-05
1.46964e-05
1.50204e-05
1.53314e-05
1.563e-05
1.59167e-05
1.61923e-05
1.64572e-05
1.67124e-05
1.69583e-05
1.71957e-05
1.74251e-05
1.76471e-05
1.78623e-05
1.80713e-05
1.82745e-05
1.84725e-05
1.86661e-05
1.88559e-05
1.90425e-05
1.92269e-05
1.94233e-05
1.96126e-05
1.97949e-05
1.99708e-05
2.01401e-05
2.03024e-05
2.04575e-05
2.06046e-05
2.07432e-05
2.08727e-05
2.09923e-05
2.11014e-05
2.11992e-05
2.1285e-05
2.13581e-05
2.1418e-05
2.14639e-05
2.14953e-05
2.15119e-05
2.15132e-05
2.14989e-05
2.14691e-05
2.14235e-05
2.13624e-05
2.12858e-05
2.11942e-05
2.1088e-05
2.09676e-05
2.08335e-05
2.06863e-05
2.05262e-05
2.03528e-05
2.01651e-05
1.99664e-05
1.97799e-05
1.96443e-05
1.9519e-05
1.9392e-05
1.92612e-05
1.91264e-05
1.89878e-05
1.88458e-05
1.87008e-05
1.85532e-05
1.84032e-05
1.82511e-05
1.80973e-05
1.79419e-05
1.77851e-05
1.76271e-05
1.74679e-05
1.73077e-05
1.71466e-05
1.69846e-05
1.68218e-05
1.66583e-05
1.64941e-05
1.63295e-05
1.61644e-05
1.59991e-05
1.58337e-05
1.56685e-05
1.55036e-05
1.53395e-05
1.51763e-05
1.50144e-05
1.48543e-05
1.46963e-05
1.45408e-05
1.43884e-05
1.42394e-05
1.40942e-05
1.39534e-05
1.38172e-05
1.36861e-05
1.35603e-05
1.34401e-05
1.33255e-05
1.32156e-05
1.31097e-05
1.30121e-05
1.29217e-05
1.28378e-05
1.276e-05
1.26879e-05
1.26211e-05
1.25593e-05
1.2502e-05
1.24488e-05
1.23994e-05
1.23535e-05
1.23106e-05
1.22706e-05
1.22331e-05
1.21979e-05
1.21647e-05
1.21332e-05
1.21033e-05
1.20748e-05
1.20475e-05
1.20212e-05
1.19957e-05
1.19711e-05
1.19471e-05
1.19236e-05
1.19006e-05
1.18779e-05
1.18556e-05
1.18335e-05
1.18116e-05
1.17898e-05
1.17682e-05
1.17465e-05
1.17249e-05
1.17033e-05
1.16817e-05
1.166e-05
1.16382e-05
1.16163e-05
1.15943e-05
1.15721e-05
1.15497e-05
1.15272e-05
1.15044e-05
1.14814e-05
1.14581e-05
1.14344e-05
1.14104e-05
1.13858e-05
1.13607e-05
1.13348e-05
1.1308e-05
1.12801e-05
1.12505e-05
1.12187e-05
1.11837e-05
1.11438e-05
1.10961e-05
1.10346e-05
1.09485e-05
1.0816e-05
3.59192e-06
2.49192e-05
3.85618e-05
4.45046e-05
4.74826e-05
4.95755e-05
5.14051e-05
5.30823e-05
5.46742e-05
5.62684e-05
5.79477e-05
5.97728e-05
6.17789e-05
6.3981e-05
6.63785e-05
6.8961e-05
7.17112e-05
7.46076e-05
7.76267e-05
8.07448e-05
8.39386e-05
8.71871e-05
9.04719e-05
9.37777e-05
9.70926e-05
0.000100408
0.000103717
0.000107016
0.000110304
0.000113578
0.000116838
0.000120081
0.000123303
0.000126498
0.000129656
0.000132762
0.000135795
0.000138729
0.000141537
0.000144135
0.000146712
0.000149301
0.000151905
0.000154521
0.000157143
0.000159763
0.000162372
0.00016496
0.000167516
0.000170028
0.000172483
0.000174866
0.000177165
0.000179365
0.000181451
0.000183411
0.000185232
0.000186903
0.000188412
0.000189752
0.000190914
0.000191894
0.000192687
0.000193291
0.000193705
0.000193929
0.000193963
0.000193806
0.000193455
0.000192896
0.000192107
0.000191048
0.000189678
0.000188027
0.000186212
0.000184289
0.000182283
0.000180209
0.000178078
0.000175899
0.000173682
0.000171435
0.000169162
0.000166872
0.000164568
0.000162256
0.000159938
0.000157619
0.0001553
0.000152985
0.000150674
0.00014837
0.000146075
0.000143789
0.000141516
0.000139255
0.00013701
0.000134781
0.000132572
0.000130385
0.000128222
0.000126087
0.000123983
0.000121914
0.000119884
0.000117897
0.000115957
0.000114068
0.000112235
0.000110462
0.000108752
0.00010711
0.000105538
0.000104039
0.000102615
0.000101268
9.9995e-05
9.87895e-05
9.76247e-05
9.64867e-05
9.5433e-05
9.44756e-05
9.36072e-05
9.28207e-05
9.21089e-05
9.14652e-05
9.08835e-05
9.03582e-05
8.98839e-05
8.94557e-05
8.90687e-05
8.87184e-05
8.84009e-05
8.81122e-05
8.78488e-05
8.76075e-05
8.73853e-05
8.71795e-05
8.69877e-05
8.68078e-05
8.66379e-05
8.64763e-05
8.63215e-05
8.61722e-05
8.60273e-05
8.58857e-05
8.57467e-05
8.56094e-05
8.54733e-05
8.53378e-05
8.52024e-05
8.50667e-05
8.49304e-05
8.47931e-05
8.46546e-05
8.45147e-05
8.43731e-05
8.42296e-05
8.4084e-05
8.3936e-05
8.37854e-05
8.36319e-05
8.3475e-05
8.33143e-05
8.31492e-05
8.29789e-05
8.28022e-05
8.26177e-05
8.24234e-05
8.22163e-05
8.19924e-05
8.17454e-05
8.14661e-05
8.11391e-05
8.0738e-05
8.02158e-05
7.94713e-05
7.83334e-05
7.6269e-05
7.32254e-05
4.54527e-06
3.55593e-05
5.80268e-05
7.06193e-05
7.78577e-05
8.2674e-05
8.65843e-05
9.02572e-05
9.39893e-05
9.79367e-05
0.000102194
0.000106813
0.000111811
0.000117176
0.000122872
0.000128852
0.000135058
0.00014143
0.000147909
0.000154443
0.000160986
0.000167499
0.000173953
0.000180328
0.000186608
0.000192787
0.000198862
0.000204834
0.000210706
0.000216484
0.000222173
0.000227775
0.000233296
0.000238734
0.000244089
0.000249358
0.000254534
0.000259612
0.000264588
0.000269489
0.000274391
0.000279318
0.000284273
0.000289252
0.000294243
0.000299236
0.000304213
0.000309157
0.000314047
0.000318862
0.000323577
0.000328166
0.000332603
0.000336862
0.000340916
0.00034474
0.000348307
0.000351596
0.000354586
0.000357259
0.000359599
0.000361593
0.000363234
0.000364513
0.000365427
0.000365975
0.000366156
0.000365969
0.000365414
0.000364484
0.000363172
0.000361468
0.000359373
0.000356929
0.000354208
0.000351267
0.000348142
0.00034486
0.000341442
0.000337907
0.000334271
0.000330549
0.000326753
0.000322896
0.000318986
0.000315033
0.000311044
0.000307026
0.000302983
0.000298922
0.000294846
0.000290758
0.000286662
0.000282561
0.000278458
0.000274357
0.000270261
0.000266175
0.000262102
0.000258049
0.00025402
0.000250023
0.000246064
0.000242151
0.000238293
0.000234498
0.000230775
0.000227133
0.000223582
0.000220132
0.00021679
0.000213566
0.000210466
0.000207498
0.000204667
0.000201976
0.000199427
0.000197015
0.00019473
0.00019256
0.000190497
0.000188581
0.000186823
0.000185217
0.000183753
0.000182423
0.000181217
0.000180126
0.00017914
0.000178249
0.000177446
0.00017672
0.000176065
0.000175472
0.000174934
0.000174445
0.000173998
0.000173589
0.000173211
0.00017286
0.000172532
0.000172225
0.000171933
0.000171655
0.000171387
0.000171129
0.000170877
0.000170631
0.000170388
0.000170148
0.00016991
0.000169671
0.000169433
0.000169194
0.000168953
0.000168709
0.000168464
0.000168215
0.000167962
0.000167705
0.000167444
0.000167177
0.000166904
0.000166624
0.000166336
0.000166038
0.000165729
0.000165405
0.000165062
0.000164697
0.0001643
0.000163862
0.000163367
0.000162789
0.000162087
0.000161187
0.000159948
0.000158114
0.000155053
0.000150296
5.15677e-06
4.21208e-05
7.22537e-05
9.10353e-05
0.000102921
0.000111179
0.000117812
0.000123924
0.000130074
0.000136529
0.000143404
0.000150732
0.000158496
0.000166645
0.00017511
0.000183813
0.000192673
0.000201614
0.000210567
0.000219474
0.000228286
0.000236967
0.000245489
0.000253835
0.000261995
0.000269966
0.00027775
0.000285353
0.000292783
0.000300051
0.000307168
0.000314146
0.000320995
0.000327727
0.00033435
0.000340873
0.000347305
0.000353651
0.000359916
0.000366145
0.000372381
0.000378644
0.00038494
0.000391266
0.000397613
0.000403968
0.000410316
0.000416636
0.000422905
0.000429097
0.000435182
0.000441131
0.000446911
0.000452487
0.000457828
0.000462898
0.000467667
0.000472103
0.000476179
0.000479869
0.00048315
0.000486006
0.00048842
0.000490382
0.000491884
0.000492923
0.000493496
0.000493606
0.000493252
0.000492439
0.000491172
0.000489455
0.000487304
0.000484763
0.000481882
0.000478706
0.00047527
0.000471603
0.000467731
0.000463677
0.000459462
0.000455104
0.000450619
0.000446022
0.000441327
0.000436545
0.000431686
0.000426759
0.000421771
0.00041673
0.00041164
0.000406508
0.000401337
0.000396134
0.000390901
0.000385645
0.00038037
0.000375082
0.000369789
0.000364496
0.000359214
0.00035395
0.000348714
0.000343519
0.000338375
0.000333296
0.000328294
0.000323383
0.000318576
0.000313888
0.000309331
0.000304918
0.000300662
0.000296572
0.000292657
0.000288925
0.00028538
0.000282022
0.000278848
0.000275853
0.000273028
0.000270372
0.000267918
0.000265662
0.000263596
0.00026171
0.000259994
0.000258435
0.000257023
0.000255746
0.000254591
0.000253549
0.000252607
0.000251755
0.000250983
0.000250283
0.000249646
0.000249064
0.000248529
0.000248036
0.000247577
0.000247149
0.000246747
0.000246365
0.000246001
0.000245652
0.000245314
0.000244985
0.000244663
0.000244345
0.000244032
0.00024372
0.000243409
0.000243097
0.000242785
0.00024247
0.000242152
0.000241831
0.000241505
0.000241174
0.000240838
0.000240495
0.000240144
0.000239785
0.000239415
0.000239032
0.000238635
0.000238219
0.00023778
0.000237311
0.000236804
0.000236245
0.000235616
0.000234887
0.000234011
0.00023291
0.00023144
0.000229349
0.000226136
0.000221483
5.51254e-06
4.63713e-05
8.2574e-05
0.000106936
0.000123509
0.000135581
0.000145344
0.000154146
0.000162749
0.000171544
0.000180699
0.000190257
0.000200193
0.000210442
0.000220925
0.000231554
0.000242245
0.000252922
0.000263517
0.000273973
0.000284248
0.000294306
0.000304124
0.000313686
0.000322986
0.000332022
0.000340798
0.000349323
0.000357609
0.00036567
0.000373521
0.000381181
0.000388666
0.000395995
0.000403184
0.00041025
0.000417209
0.000424074
0.000430855
0.000437595
0.000444337
0.000451104
0.000457909
0.000464754
0.000471637
0.000478551
0.000485482
0.000492413
0.000499323
0.000506187
0.000512976
0.000519657
0.000526198
0.00053256
0.000538707
0.000544601
0.000550203
0.000555478
0.000560392
0.000564913
0.000569012
0.000572664
0.000575849
0.000578551
0.000580758
0.00058246
0.000583655
0.00058434
0.00058452
0.000584199
0.000583384
0.000582076
0.00058031
0.000578124
0.000575555
0.00057264
0.000569409
0.000565892
0.000562114
0.000558099
0.00055387
0.000549447
0.000544848
0.000540089
0.000535186
0.000530152
0.000524998
0.000519735
0.000514372
0.000508916
0.000503376
0.000497757
0.000492065
0.000486306
0.000480487
0.000474613
0.000468692
0.000462729
0.000456734
0.000450716
0.000444684
0.000438649
0.000432626
0.000426625
0.000420664
0.000414755
0.000408917
0.000403165
0.000397517
0.00039199
0.0003866
0.000381365
0.000376298
0.000371414
0.000366726
0.000362244
0.000357975
0.000353923
0.00035009
0.000346474
0.000343072
0.000339877
0.000336898
0.000334149
0.000331623
0.000329308
0.000327195
0.000325271
0.000323523
0.000321938
0.000320504
0.000319206
0.000318033
0.000316972
0.000316012
0.00031514
0.000314349
0.000313626
0.000312965
0.000312357
0.000311794
0.00031127
0.00031078
0.000310318
0.000309879
0.000309459
0.000309056
0.000308665
0.000308284
0.00030791
0.000307542
0.000307177
0.000306814
0.000306452
0.000306089
0.000305725
0.000305358
0.000304987
0.000304612
0.000304231
0.000303845
0.00030345
0.000303048
0.000302635
0.00030221
0.000301772
0.000301317
0.00030084
0.000300338
0.000299803
0.000299225
0.00029859
0.000297878
0.000297059
0.000296084
0.000294878
0.000293309
0.000291161
0.000288073
0.000283934
5.74208e-06
4.88885e-05
8.97849e-05
0.000119002
0.000139993
0.000155887
0.000168885
0.000180429
0.000191406
0.000202308
0.000213377
0.000224698
0.000236268
0.000248038
0.000259935
0.00027188
0.000283795
0.00029561
0.000307263
0.000318701
0.000329884
0.00034078
0.000351366
0.000361628
0.000371559
0.000381157
0.000390428
0.00039938
0.000408026
0.000416383
0.000424468
0.000432304
0.000439911
0.000447313
0.000454532
0.000461592
0.000468513
0.000475316
0.000482017
0.000488658
0.000495288
0.000501941
0.000508639
0.000515394
0.000522214
0.0005291
0.000536046
0.000543041
0.00055007
0.000557112
0.000564141
0.000571127
0.000578035
0.000584828
0.000591467
0.00059791
0.000604116
0.000610041
0.000615647
0.000620895
0.00062575
0.00063018
0.000634157
0.00063766
0.000640668
0.000643169
0.000645153
0.000646617
0.000647558
0.000647977
0.000647864
0.000647251
0.000646167
0.00064464
0.000642701
0.000640378
0.0006377
0.000634691
0.000631378
0.000627784
0.00062393
0.000619838
0.000615525
0.000611009
0.000606306
0.00060143
0.000596394
0.000591207
0.000585882
0.000580425
0.000574847
0.000569152
0.00056335
0.000557446
0.000551448
0.000545363
0.000539197
0.000532961
0.000526662
0.000520312
0.000513921
0.000507503
0.000501071
0.000494641
0.00048823
0.000481854
0.000475532
0.000469283
0.000463127
0.000457083
0.000451172
0.000445411
0.00043982
0.000434415
0.000429211
0.000424221
0.000419455
0.000414922
0.000410626
0.000406569
0.00040275
0.000399164
0.000395807
0.000392699
0.000389832
0.000387198
0.000384786
0.000382583
0.000380578
0.000378756
0.000377104
0.000375608
0.000374253
0.000373027
0.000371917
0.00037091
0.000369995
0.000369162
0.0003684
0.0003677
0.000367055
0.000366456
0.000365897
0.000365372
0.000364875
0.000364402
0.000363949
0.000363512
0.000363087
0.000362671
0.000362264
0.000361861
0.000361461
0.000361064
0.000360666
0.000360267
0.000359866
0.000359462
0.000359053
0.000358639
0.000358218
0.000357789
0.000357352
0.000356904
0.000356444
0.000355969
0.000355475
0.00035496
0.000354418
0.00035384
0.000353218
0.000352537
0.000351776
0.000350905
0.00034988
0.000348629
0.000347038
0.00034493
0.000342062
0.00033846
5.88605e-06
5.01972e-05
9.4571e-05
0.000127845
0.00015278
0.00017224
0.000188333
0.000202505
0.000215698
0.000228479
0.00024116
0.000253882
0.000266686
0.000279551
0.000292429
0.000305256
0.000317968
0.000330503
0.000342805
0.000354828
0.000366533
0.00037789
0.000388875
0.000399474
0.000409679
0.000419486
0.0004289
0.000437927
0.000446581
0.000454877
0.000462835
0.000470478
0.00047783
0.000484917
0.000491768
0.00049841
0.000504871
0.000511179
0.00051736
0.000523451
0.000529515
0.000535599
0.000541737
0.000547956
0.000554273
0.000560703
0.000567249
0.000573912
0.000580684
0.000587551
0.000594491
0.000601479
0.000608483
0.000615464
0.000622382
0.000629192
0.000635848
0.000642303
0.000648509
0.000654423
0.00066
0.000665202
0.000669992
0.000674341
0.000678221
0.000681615
0.000684501
0.00068688
0.000688716
0.000690014
0.000690793
0.000691071
0.00069087
0.000690213
0.000689122
0.000687622
0.000685735
0.000683487
0.000680898
0.000677992
0.000674789
0.000671308
0.000667569
0.000663587
0.00065938
0.00065496
0.000650342
0.000645536
0.000640552
0.000635401
0.000630091
0.00062463
0.000619025
0.000613284
0.000607415
0.000601425
0.000595324
0.000589119
0.000582821
0.000576442
0.000569994
0.00056349
0.000556946
0.000550378
0.000543804
0.000537242
0.000530714
0.000524239
0.000517839
0.000511535
0.00050535
0.000499304
0.000493417
0.00048771
0.000482199
0.000476899
0.000471825
0.000466986
0.000462389
0.00045804
0.00045394
0.000450086
0.000446475
0.000443116
0.000440009
0.000437147
0.000434518
0.000432113
0.000429917
0.000427919
0.000426103
0.000424456
0.000422963
0.00042161
0.000420385
0.000419273
0.000418263
0.000417344
0.000416504
0.000415733
0.000415024
0.000414367
0.000413755
0.000413182
0.000412641
0.000412128
0.000411637
0.000411165
0.000410708
0.000410263
0.000409827
0.000409397
0.000408972
0.000408549
0.000408128
0.000407705
0.000407281
0.000406854
0.000406423
0.000405987
0.000405544
0.000405093
0.000404634
0.000404163
0.00040368
0.000403182
0.000402665
0.000402126
0.000401558
0.000400956
0.000400308
0.0003996
0.000398814
0.00039792
0.000396876
0.000395619
0.000394051
0.000392035
0.000389412
0.000386285
5.9685e-06
5.06653e-05
9.74684e-05
0.000133998
0.000162301
0.000184924
0.000203828
0.000220408
0.000235616
0.000250064
0.00026412
0.00027798
0.000291733
0.000305397
0.000318953
0.00033236
0.000345568
0.000358529
0.000371194
0.000383522
0.000395476
0.000407026
0.00041815
0.00042883
0.000439056
0.000448824
0.000458133
0.000466989
0.000475403
0.000483388
0.000490965
0.000498154
0.000504983
0.000511479
0.000517675
0.000523603
0.000529299
0.000534798
0.000540136
0.000545349
0.000550516
0.000555697
0.000560941
0.00056629
0.000571778
0.000577433
0.000583273
0.000589309
0.000595546
0.000601978
0.000608591
0.000615363
0.000622265
0.000629261
0.000636307
0.000643357
0.000650359
0.00065726
0.000664005
0.000670542
0.000676819
0.000682786
0.000688401
0.000693625
0.000698418
0.000702765
0.000706616
0.000709947
0.000712761
0.000715061
0.000716853
0.000718151
0.000718968
0.000719321
0.000719227
0.000718705
0.000717776
0.000716459
0.000714776
0.000712745
0.000710386
0.000707717
0.000704756
0.000701519
0.00069802
0.000694275
0.000690296
0.000686093
0.000681678
0.00067706
0.000672249
0.000667252
0.000662077
0.000656733
0.000651227
0.000645568
0.000639765
0.000633827
0.000627765
0.00062159
0.000615317
0.000608959
0.000602532
0.000596053
0.000589541
0.000583016
0.000576499
0.000570011
0.000563576
0.000557216
0.000550954
0.000544814
0.000538817
0.000532984
0.000527335
0.000521887
0.000516656
0.000511655
0.000506892
0.000502376
0.00049811
0.000494095
0.000490328
0.000486809
0.000483547
0.000480533
0.00047776
0.000475215
0.000472887
0.000470764
0.000468832
0.000467076
0.000465482
0.000464037
0.000462727
0.000461537
0.000460456
0.000459472
0.000458574
0.000457751
0.000456993
0.000456293
0.000455642
0.000455033
0.000454461
0.000453918
0.000453401
0.000452904
0.000452424
0.000451958
0.000451502
0.000451054
0.000450612
0.000450173
0.000449736
0.000449298
0.00044886
0.000448419
0.000447974
0.000447524
0.000447067
0.000446603
0.00044613
0.000445647
0.00044515
0.000444639
0.000444109
0.000443556
0.000442976
0.00044236
0.0004417
0.000440981
0.000440186
0.000439287
0.000438247
0.00043701
0.000435494
0.000433595
0.000431212
0.000428487
6.00475e-06
5.05383e-05
9.88798e-05
0.000137895
0.000168964
0.00019429
0.000215654
0.000234372
0.000251376
0.000267295
0.000282537
0.000297343
0.000311847
0.000326107
0.000340132
0.000353909
0.000367405
0.000380585
0.00039341
0.000405843
0.00041785
0.000429404
0.000440481
0.000451062
0.000461134
0.000470688
0.000479723
0.00048824
0.000496246
0.000503753
0.000510777
0.000517339
0.000523466
0.000529187
0.000534535
0.000539549
0.000544269
0.000548738
0.000553003
0.000557109
0.000561141
0.000565176
0.000569283
0.000573519
0.000577937
0.00058258
0.000587485
0.000592677
0.000598173
0.000603978
0.000610087
0.000616485
0.000623144
0.000630029
0.000637097
0.000644296
0.000651569
0.000658855
0.000666092
0.000673218
0.000680175
0.000686895
0.00069333
0.000699448
0.000705156
0.000710432
0.000715251
0.000719594
0.000723452
0.00072682
0.000729697
0.000732088
0.000734002
0.000735449
0.000736443
0.000736997
0.000737129
0.000736856
0.000736195
0.000735163
0.000733778
0.000732056
0.000730014
0.000727667
0.000725028
0.000722111
0.000718929
0.000715492
0.00071181
0.000707894
0.000703751
0.000699391
0.00069482
0.000690049
0.000685083
0.000679933
0.000674608
0.000669116
0.00066347
0.000657681
0.000651763
0.00064573
0.000639599
0.000633387
0.000627113
0.000620799
0.000614464
0.000608133
0.000601828
0.000595574
0.000589394
0.000583313
0.000577353
0.000571538
0.000565889
0.000560425
0.000555163
0.000550117
0.000545301
0.000540722
0.000536387
0.000532298
0.000528456
0.000524859
0.000521513
0.000518415
0.000515556
0.000512927
0.000510518
0.000508316
0.000506308
0.00050448
0.000502819
0.000501311
0.000499942
0.000498699
0.000497569
0.000496541
0.000495601
0.000494741
0.00049395
0.00049322
0.000492542
0.000491908
0.000491314
0.000490751
0.000490216
0.000489703
0.000489209
0.000488729
0.000488261
0.000487802
0.00048735
0.000486901
0.000486455
0.000486009
0.000485563
0.000485114
0.000484662
0.000484205
0.000483742
0.000483272
0.000482793
0.000482303
0.000481801
0.000481284
0.000480748
0.000480191
0.000479606
0.000478987
0.000478325
0.000477606
0.000476814
0.000475925
0.000474904
0.000473703
0.000472256
0.000470484
0.000468327
0.00046594
6.00456e-06
4.99818e-05
9.91099e-05
0.000139899
0.000173142
0.000200698
0.000224155
0.000244728
0.000263306
0.000280518
0.00029679
0.0003124
0.000327516
0.00034223
0.000356583
0.000370584
0.000384223
0.000397475
0.000410313
0.000422708
0.000434629
0.000446049
0.000456946
0.000467299
0.000477093
0.000486316
0.000494962
0.000503029
0.00051052
0.000517443
0.000523811
0.000529642
0.000534961
0.000539796
0.000544182
0.00054816
0.000551775
0.000555077
0.000558121
0.000560966
0.000563704
0.000566431
0.000569232
0.000572187
0.000575367
0.000578835
0.000582644
0.000586839
0.000591449
0.000596493
0.000601976
0.000607888
0.000614206
0.000620895
0.000627908
0.000635193
0.000642685
0.000650312
0.000657998
0.00066568
0.000673302
0.000680749
0.000687963
0.000694895
0.000701492
0.000707712
0.000713522
0.000718898
0.000723821
0.000728279
0.000732265
0.000735778
0.00073882
0.000741397
0.000743519
0.000745196
0.000746441
0.000747268
0.000747693
0.000747729
0.000747394
0.0007467
0.000745664
0.000744298
0.000742616
0.00074063
0.000738352
0.000735791
0.000732957
0.000729859
0.000726506
0.000722907
0.000719068
0.000714998
0.000710704
0.000706196
0.000701483
0.000696575
0.000691481
0.000686216
0.000680791
0.000675223
0.000669526
0.00066372
0.000657822
0.000651855
0.000645839
0.000639798
0.000633755
0.000627736
0.000621765
0.000615866
0.000610065
0.000604385
0.000598848
0.000593475
0.000588284
0.000583293
0.000578515
0.000573961
0.000569639
0.000565554
0.000561707
0.000558096
0.00055473
0.000551604
0.000548712
0.000546048
0.0005436
0.000541359
0.000539311
0.000537445
0.000535746
0.000534202
0.000532799
0.000531524
0.000530365
0.000529309
0.000528344
0.000527462
0.00052665
0.000525902
0.000525207
0.000524559
0.000523952
0.000523378
0.000522833
0.000522311
0.000521809
0.000521323
0.00052085
0.000520385
0.000519928
0.000519476
0.000519027
0.000518579
0.00051813
0.00051768
0.000517226
0.000516768
0.000516304
0.000515833
0.000515353
0.000514863
0.000514361
0.000513844
0.00051331
0.000512754
0.000512172
0.000511557
0.000510901
0.000510191
0.000509411
0.000508541
0.00050755
0.000506398
0.00050503
0.000503387
0.000501438
0.000499335
5.97396e-06
4.91111e-05
9.83951e-05
0.00014031
0.000175168
0.000204496
0.000229684
0.000251831
0.00027177
0.000290109
0.000307281
0.000323581
0.000339206
0.000354274
0.000368853
0.000382977
0.000396651
0.000409868
0.000422612
0.00043486
0.000446587
0.000457771
0.000468388
0.000478418
0.000487845
0.000496653
0.000504833
0.000512379
0.000519291
0.00052557
0.000531228
0.000536277
0.00054074
0.000544641
0.000548016
0.000550906
0.000553358
0.000555428
0.000557178
0.000558679
0.000560039
0.000561368
0.000562773
0.000564352
0.0005662
0.000568399
0.000571023
0.000574133
0.000577776
0.000581985
0.000586772
0.000592137
0.000598058
0.000604498
0.00061141
0.000618736
0.000626419
0.000634353
0.000642446
0.000650626
0.000658812
0.000666921
0.000674879
0.000682623
0.000690095
0.000697244
0.000704032
0.000710424
0.000716395
0.000721926
0.000727005
0.000731625
0.000735783
0.000739483
0.000742728
0.000745527
0.000747889
0.000749827
0.000751352
0.000752478
0.000753218
0.000753586
0.000753593
0.000753254
0.000752578
0.000751578
0.000750264
0.000748645
0.000746729
0.000744526
0.000742042
0.000739286
0.000736265
0.000732987
0.000729459
0.000725689
0.000721686
0.00071746
0.000713022
0.000708383
0.000703557
0.000698558
0.000693403
0.000688109
0.000682695
0.000677181
0.000671591
0.000665945
0.00066027
0.000654589
0.000648928
0.000643313
0.000637767
0.000632316
0.000626983
0.000621791
0.000616758
0.000611903
0.000607241
0.000602786
0.000598546
0.000594528
0.000590737
0.000587171