/*--------------------------------*- C++ -*----------------------------------*\
  =========                 |
  \\      /  F ield         | OpenFOAM: The Open Source CFD Toolbox
   \\    /   O peration     | Website:  https://openfoam.org
    \\  /    A nd           | Version:  6
     \\/     M anipulation  |
\*---------------------------------------------------------------------------*/
FoamFile
{
    version     2.0;
    format      ascii;
    class       volScalarField;
    location    "0.13";
    object      p;
}
// * * * * * * * * * * * * * * * * * * * * * * * * * * * * * * * * * * * * * //

dimensions      [0 2 -2 0 0 0 0];

internalField   nonuniform List<scalar> 
12225
(
0.317534
0.0651714
-0.0127083
-0.0229818
-0.0271992
-0.0314276
-0.0335532
-0.0344785
-0.0352326
-0.0359548
-0.0365635
-0.0370636
-0.0374879
-0.037846
-0.0381638
-0.0384273
-0.0390182
-0.0392933
-0.0643154
-0.0340497
-0.0330294
-0.0263467
-0.0266959
-0.0303194
-0.032688
-0.0339327
-0.0348902
-0.0357184
-0.036387
-0.0369267
-0.0373782
-0.0377526
-0.038077
-0.0383162
-0.0387434
-0.038927
-0.101327
-0.0303152
-0.0284039
-0.0258479
-0.0264034
-0.0296175
-0.0319335
-0.0332939
-0.0343605
-0.0352661
-0.0359969
-0.036588
-0.0370794
-0.037482
-0.0378203
-0.0380465
-0.0383463
-0.0381167
-0.0559581
-0.0170848
-0.0249198
-0.0259795
-0.0267059
-0.0294295
-0.031534
-0.0328771
-0.0339686
-0.0349049
-0.0356718
-0.0362992
-0.036821
-0.0372465
-0.0375923
-0.03781
-0.0379844
-0.0376713
-0.0355412
-0.0171276
-0.0253809
-0.0266858
-0.0272636
-0.0295295
-0.0314028
-0.0326839
-0.0337556
-0.0346871
-0.0354638
-0.0361083
-0.0366471
-0.0370872
-0.0374366
-0.0376532
-0.0377607
-0.0375044
-0.0331823
-0.0214097
-0.02655
-0.027388
-0.0278705
-0.0297555
-0.0314152
-0.032624
-0.0336581
-0.0345676
-0.0353392
-0.0359892
-0.0365376
-0.0369887
-0.0373446
-0.0375728
-0.0376698
-0.0375105
-0.0330434
-0.024316
-0.0272758
-0.0279774
-0.0284687
-0.0300439
-0.0315121
-0.0326466
-0.0336358
-0.0345158
-0.0352753
-0.0359252
-0.03648
-0.0369424
-0.0373119
-0.0375659
-0.0376942
-0.0376521
-0.0320484
-0.0259282
-0.0277865
-0.0285085
-0.0290361
-0.0303638
-0.0316648
-0.0327265
-0.0336688
-0.034517
-0.0352614
-0.0359088
-0.0364695
-0.0369459
-0.0373368
-0.0376297
-0.0378177
-0.0379035
-0.0310511
-0.0270714
-0.028284
-0.0290015
-0.0295591
-0.0306939
-0.0318526
-0.0328458
-0.0337426
-0.0345597
-0.0352886
-0.0359334
-0.0365014
-0.0369951
-0.0374151
-0.0377572
-0.0380215
-0.0382352
-0.0304634
-0.0280016
-0.0287813
-0.0294549
-0.0300323
-0.0310202
-0.0320595
-0.0329901
-0.0338448
-0.0346332
-0.0353481
-0.0359915
-0.0365689
-0.0370838
-0.0375389
-0.0379364
-0.0382836
-0.0386168
-0.0302116
-0.0287473
-0.029257
-0.0298727
-0.0304585
-0.0313351
-0.032275
-0.0331488
-0.0339655
-0.0347286
-0.0354317
-0.0360757
-0.0366651
-0.0372041
-0.0376978
-0.0381529
-0.0385815
-0.0390206
-0.0301704
-0.0292935
-0.0296674
-0.0302303
-0.0308128
-0.0316104
-0.0324739
-0.0333005
-0.0340858
-0.0348287
-0.0355233
-0.0361698
-0.036772
-0.0373349
-0.037865
-0.0383714
-0.0388678
-0.0393887
-0.0302412
-0.0297539
-0.0300404
-0.0305567
-0.0311316
-0.0318661
-0.0326669
-0.0334534
-0.0342117
-0.0349377
-0.0356261
-0.0362766
-0.0368925
-0.0374792
-0.0380441
-0.0385975
-0.0391536
-0.0397404
-0.030415
-0.0301971
-0.0304321
-0.0309013
-0.0314594
-0.0321367
-0.0328783
-0.0336246
-0.0343559
-0.0350656
-0.0357485
-0.0364041
-0.0370352
-0.0376471
-0.0382475
-0.0388464
-0.0394568
-0.0400996
-0.0306764
-0.0306155
-0.0308294
-0.0312546
-0.0317863
-0.0324133
-0.0331014
-0.0338084
-0.0345134
-0.0352073
-0.0358853
-0.0365461
-0.0371919
-0.0378275
-0.0384595
-0.0390966
-0.0397492
-0.0404311
-0.0309864
-0.0310014
-0.0312082
-0.0315967
-0.032097
-0.0326813
-0.0333237
-0.0339948
-0.0346751
-0.0353543
-0.036027
-0.0366913
-0.0373483
-0.0380012
-0.0386552
-0.0393163
-0.0399916
-0.0406889
-0.0312865
-0.0313308
-0.0315327
-0.0318932
-0.0323643
-0.0329146
-0.0335218
-0.0341636
-0.0348228
-0.0354886
-0.0361546
-0.0368179
-0.0374783
-0.0381371
-0.038797
-0.0394617
-0.0401342
-0.0408184
-0.0314996
-0.0315518
-0.0317464
-0.0320879
-0.032539
-0.0330685
-0.0336547
-0.0342785
-0.0349238
-0.0355791
-0.0362371
-0.0368937
-0.037547
-0.0381965
-0.0388429
-0.0394871
-0.0401297
-0.0407722
-0.0315238
-0.0315724
-0.0317551
-0.0320874
-0.0325355
-0.0330646
-0.0336513
-0.0342758
-0.0349209
-0.0355738
-0.036226
-0.0368722
-0.0375092
-0.0381351
-0.0387489
-0.0393502
-0.0399379
-0.0405125
-0.0312904
-0.0313088
-0.0314653
-0.0318066
-0.0322823
-0.0328439
-0.0334652
-0.0341219
-0.0347916
-0.0354596
-0.0361175
-0.0367601
-0.0373838
-0.037987
-0.0385685
-0.039128
-0.0396639
-0.0401771
-0.0310063
-0.0309274
-0.0310284
-0.0313972
-0.0319169
-0.0325248
-0.0332004
-0.0339086
-0.034618
-0.0353134
-0.0359881
-0.0366373
-0.0372583
-0.0378498
-0.0384117
-0.0389437
-0.039445
-0.0399166
-0.0308161
-0.0304386
-0.0304297
-0.0308689
-0.0314493
-0.0321179
-0.0328735
-0.033655
-0.0344179
-0.0351509
-0.0358512
-0.0365149
-0.0371404
-0.0377279
-0.0382782
-0.0387923
-0.0392697
-0.0397118
-0.0309696
-0.0298807
-0.0296969
-0.030256
-0.0308865
-0.0316306
-0.0325029
-0.033381
-0.0342088
-0.0349888
-0.0357231
-0.0364086
-0.0370452
-0.0376353
-0.0381816
-0.0386859
-0.0391488
-0.0395717
-0.0314897
-0.02912
-0.0288809
-0.0296175
-0.0302237
-0.0310643
-0.0321077
-0.0331073
-0.0340103
-0.0348464
-0.0356226
-0.0363355
-0.0369879
-0.0375854
-0.0381328
-0.0386331
-0.0390881
-0.0394989
-0.0317446
-0.0271624
-0.0277226
-0.0289376
-0.0294417
-0.0304301
-0.031717
-0.0328627
-0.0338493
-0.0347497
-0.0355735
-0.0363165
-0.0369861
-0.0375927
-0.0381432
-0.0386421
-0.0390928
-0.0394958
-0.0334808
-0.0227428
-0.0254514
-0.0279251
-0.0284655
-0.0297531
-0.0313721
-0.0326863
-0.0337639
-0.0347331
-0.0356044
-0.0363743
-0.0370578
-0.0376707
-0.0382224
-0.0387192
-0.0391658
-0.0395628
-0.0504983
-0.0207127
-0.0232059
-0.0265276
-0.027284
-0.0291225
-0.0311589
-0.0326551
-0.0338252
-0.0348567
-0.0357627
-0.0365455
-0.0372305
-0.0378395
-0.0383847
-0.0388736
-0.0393123
-0.0397017
-0.0946312
-0.034006
-0.0272462
-0.0263485
-0.0264614
-0.0289028
-0.0313298
-0.0329563
-0.034178
-0.0352324
-0.0361349
-0.0368976
-0.0375574
-0.0381421
-0.0386649
-0.0391332
-0.0395549
-0.0399319
-0.07426
-0.043844
-0.0371497
-0.0285915
-0.0269339
-0.0296762
-0.0322175
-0.0337512
-0.0348765
-0.0358604
-0.0366995
-0.0374021
-0.0380096
-0.0385514
-0.0390388
-0.0394769
-0.0398722
-0.0402396
0.290057
0.070331
-0.00678365
-0.0198953
-0.0252049
-0.0303155
-0.0332702
-0.0346026
-0.0354778
-0.0362875
-0.0370137
-0.0376393
-0.038193
-0.038697
-0.0391566
-0.0395709
-0.0399354
-0.0402313
-0.0713862
-0.0716856
-0.0721306
-0.0725917
-0.0731236
-0.0738154
-0.0747167
-0.0758487
-0.077231
-0.0788845
-0.0808266
-0.0830687
-0.0856129
-0.0884506
-0.0915609
-0.0949118
-0.0984607
-0.102157
-0.105945
-0.109767
-0.113564
-0.117279
-0.120859
-0.124257
-0.127427
-0.130332
-0.132936
-0.135211
-0.137127
-0.138662
-0.139795
-0.140504
-0.140773
-0.140584
-0.139925
-0.13879
-0.13718
-0.135082
-0.132451
-0.12922
-0.125367
-0.12091
-0.115859
-0.110219
-0.103997
-0.0971993
-0.0898403
-0.0819372
-0.0735136
-0.0645986
-0.0552276
-0.0454414
-0.0352866
-0.0248147
-0.0140812
-0.00314554
0.00793064
0.0190841
0.0302513
0.0413692
0.0523767
0.0632153
0.0738303
0.084171
0.094192
0.103853
0.113119
0.121962
0.130358
0.138288
0.145743
0.152717
0.159226
0.165289
0.170904
0.176061
0.180771
0.185046
0.188904
0.192363
0.195442
0.198161
0.200539
0.202598
0.204357
0.205834
0.20705
0.208023
0.208771
0.209311
0.20966
0.209834
0.209849
0.20972
0.209461
0.209086
0.208608
0.208041
0.207395
0.206684
0.205917
0.205104
0.204257
0.203383
0.202491
0.201588
0.200682
0.199779
0.198883
0.198001
0.197135
0.19629
0.195469
0.194673
0.193905
0.193166
0.192459
0.191789
0.191149
0.190529
0.189931
0.18936
0.188819
0.188306
0.187821
0.187362
0.186929
0.186519
0.186133
0.185768
0.185424
0.185099
0.184791
0.184501
0.184227
0.183967
0.183721
0.183488
0.183266
0.183055
0.182854
0.182662
0.182478
0.182302
0.182133
0.18197
0.181813
0.181661
0.181514
0.181371
0.181232
0.181096
0.180963
0.180833
0.180706
0.180581
0.180459
0.180339
0.180222
0.180108
0.179996
0.179889
0.179786
0.179688
0.179598
0.179517
0.179447
0.179393
0.179359
0.179352
0.179382
0.179462
0.179612
0.17986
0.180254
0.180869
0.181852
0.183421
0.186244
0.19041
-0.0701864
-0.0711737
-0.0718326
-0.0718774
-0.0717575
-0.0719128
-0.0724234
-0.0732726
-0.0744662
-0.0760214
-0.0779535
-0.0802681
-0.0829576
-0.0859995
-0.0893566
-0.0929793
-0.0968087
-0.10078
-0.104827
-0.108885
-0.112893
-0.116793
-0.120536
-0.124079
-0.127384
-0.130416
-0.133148
-0.135555
-0.137612
-0.1393
-0.140597
-0.141484
-0.141941
-0.141948
-0.141483
-0.140524
-0.13904
-0.137006
-0.13442
-0.131313
-0.127692
-0.123525
-0.118796
-0.113495
-0.107623
-0.101182
-0.094182
-0.0866372
-0.0785679
-0.0700003
-0.0609664
-0.0515041
-0.0416568
-0.031473
-0.0210055
-0.0103111
0.000550993
0.0115193
0.022532
0.0335271
0.0444442
0.0552254
0.0658156
0.0761642
0.0862248
0.0959567
0.105324
0.114298
0.122855
0.130976
0.138649
0.145861
0.152592
0.158827
0.164586
0.169895
0.174766
0.179212
0.183249
0.186893
0.190162
0.193075
0.195649
0.197904
0.199858
0.201532
0.202942
0.204107
0.205044
0.205771
0.206303
0.206658
0.20685
0.206894
0.206804
0.206594
0.206277
0.205865
0.205371
0.204805
0.204179
0.203503
0.202785
0.202036
0.201262
0.200472
0.199672
0.198869
0.198067
0.197272
0.196488
0.195719
0.194966
0.194234
0.193524
0.192837
0.192176
0.191539
0.190925
0.190338
0.189777
0.189239
0.188725
0.188234
0.187768
0.187325
0.186905
0.186506
0.186128
0.185771
0.185432
0.185111
0.184807
0.184519
0.184246
0.183988
0.183742
0.183508
0.183286
0.183075
0.182873
0.18268
0.182495
0.182317
0.182147
0.181983
0.181824
0.181671
0.181522
0.181378
0.181237
0.1811
0.180967
0.180836
0.180707
0.180582
0.180459
0.180338
0.18022
0.180105
0.179994
0.179886
0.179782
0.179685
0.179594
0.179513
0.179443
0.17939
0.179356
0.17935
0.179381
0.179461
0.179611
0.179857
0.180245
0.180839
0.18177
0.183194
0.185661
0.189107
-0.0665143
-0.0682413
-0.0697156
-0.0703625
-0.0706808
-0.071124
-0.0718622
-0.0729514
-0.0744217
-0.0762868
-0.0785439
-0.0811738
-0.0841432
-0.0874081
-0.0909167
-0.0946135
-0.0984414
-0.102345
-0.10627
-0.110167
-0.113992
-0.117702
-0.121261
-0.124634
-0.127792
-0.130706
-0.133352
-0.135706
-0.137745
-0.139449
-0.140797
-0.14177
-0.142346
-0.142507
-0.142232
-0.141502
-0.14029
-0.138573
-0.136334
-0.133572
-0.130282
-0.12645
-0.122066
-0.117121
-0.111613
-0.105544
-0.0989196
-0.0917515
-0.0840572
-0.0758598
-0.0671885
-0.0580781
-0.048569
-0.0387069
-0.0285422
-0.0181289
-0.00752443
0.00321195
0.0140197
0.0248384
0.0356084
0.0462722
0.0567751
0.0670662
0.0770988
0.0868315
0.0962277
0.105257
0.113894
0.12212
0.12992
0.137282
0.144192
0.150647
0.156654
0.16222
0.167355
0.172067
0.176373
0.180285
0.183821
0.186998
0.189835
0.192348
0.194558
0.196481
0.198136
0.199541
0.200713
0.20167
0.202426
0.202999
0.203403
0.203653
0.203764
0.203748
0.20362
0.20339
0.203071
0.202675
0.202211
0.20169
0.201121
0.200513
0.199874
0.199211
0.198531
0.197841
0.197144
0.196448
0.195755
0.195069
0.194395
0.193733
0.193087
0.192459
0.191849
0.19126
0.19069
0.190142
0.189613
0.189105
0.188617
0.18815
0.187704
0.187278
0.186872
0.186485
0.186118
0.185768
0.185436
0.185121
0.184821
0.184536
0.184266
0.184009
0.183764
0.183531
0.183309
0.183097
0.182894
0.182701
0.182515
0.182336
0.182165
0.181999
0.18184
0.181685
0.181535
0.181389
0.181248
0.181109
0.180974
0.180842
0.180713
0.180587
0.180463
0.180341
0.180223
0.180107
0.179995
0.179886
0.179783
0.179685
0.179594
0.179513
0.179443
0.17939
0.179357
0.179351
0.179382
0.179462
0.179611
0.179854
0.180232
0.180803
0.181673
0.182943
0.18498
0.187386
-0.0630036
-0.0655015
-0.0680615
-0.0696573
-0.0707447
-0.0718102
-0.0730687
-0.0746079
-0.0764677
-0.0786599
-0.0811752
-0.0839901
-0.0870703
-0.0903755
-0.0938615
-0.0974832
-0.101196
-0.104955
-0.108721
-0.112454
-0.116117
-0.119676
-0.1231
-0.126359
-0.129425
-0.132273
-0.134878
-0.137217
-0.139268
-0.141007
-0.142414
-0.143466
-0.144143
-0.144424
-0.144286
-0.143709
-0.142672
-0.141156
-0.139145
-0.136625
-0.133584
-0.130006
-0.12588
-0.121196
-0.11595
-0.11014
-0.103771
-0.0968519
-0.0893978
-0.0814299
-0.0729754
-0.0640676
-0.0547457
-0.0450543
-0.0350428
-0.024765
-0.0142778
-0.00364053
0.00708625
0.0178418
0.0285663
0.0392017
0.0496929
0.0599884
0.0700409
0.0798081
0.0892527
0.098343
0.107053
0.115361
0.123251
0.130714
0.137744
0.144338
0.150496
0.156221
0.16152
0.166403
0.170883
0.174973
0.17869
0.182049
0.185069
0.187766
0.190159
0.192265
0.194101
0.195686
0.197037
0.198168
0.199098
0.199841
0.200412
0.200826
0.201097
0.201238
0.201262
0.201181
0.201006
0.200749
0.20042
0.200028
0.199584
0.199095
0.19857
0.198016
0.197439
0.196846
0.196242
0.195631
0.195019
0.194409
0.193805
0.193208
0.192622
0.192048
0.191488
0.190943
0.190413
0.189901
0.189406
0.188929
0.188469
0.188026
0.187602
0.187195
0.186806
0.186434
0.186079
0.18574
0.185417
0.185109
0.184816
0.184536
0.184269
0.184015
0.183773
0.183542
0.183321
0.18311
0.182908
0.182715
0.182529
0.18235
0.182178
0.182012
0.181852
0.181696
0.181546
0.181399
0.181257
0.181117
0.180982
0.180849
0.180719
0.180591
0.180467
0.180345
0.180225
0.180109
0.179996
0.179887
0.179782
0.179684
0.179592
0.17951
0.179439
0.179384
0.17935
0.179342
0.179369
0.179444
0.179584
0.179813
0.180165
0.180688
0.181461
0.182534
0.184109
0.185693
-0.0618468
-0.0648299
-0.0680876
-0.0703806
-0.0720788
-0.0736659
-0.0753677
-0.0772804
-0.079448
-0.0818829
-0.0845766
-0.0875072
-0.0906452
-0.0939561
-0.0974038
-0.100951
-0.104562
-0.108201
-0.111833
-0.115428
-0.118955
-0.122385
-0.12569
-0.128845
-0.131826
-0.134609
-0.13717
-0.139487
-0.141539
-0.143302
-0.144756
-0.145877
-0.146643
-0.147033
-0.147024
-0.146593
-0.145718
-0.144378
-0.142554
-0.140228
-0.137383
-0.134002
-0.130071
-0.125579
-0.120519
-0.114887
-0.108684
-0.10192
-0.0946054
-0.0867617
-0.0784147
-0.0695971
-0.0603481
-0.0507124
-0.0407404
-0.0304866
-0.0200093
-0.00936917
0.0013719
0.0121517
0.0229091
0.0335849
0.044123
0.0544709
0.0645809
0.0744099
0.0839204
0.0930801
0.101862
0.110245
0.118214
0.125759
0.132873
0.139555
0.145805
0.151626
0.157027
0.162018
0.166609
0.170816
0.174652
0.178134
0.181279
0.184104
0.186627
0.188863
0.190832
0.192549
0.194031
0.195295
0.196355
0.197228
0.197928
0.198469
0.198864
0.199127
0.199271
0.199307
0.199246
0.1991
0.198879
0.198591
0.198247
0.197855
0.197422
0.196956
0.196463
0.19595
0.195422
0.194883
0.194339
0.193792
0.193247
0.192705
0.19217
0.191644
0.191127
0.190622
0.19013
0.189651
0.189187
0.188737
0.188303
0.187884
0.18748
0.187092
0.186719
0.186362
0.18602
0.185692
0.185378
0.185079
0.184792
0.184519
0.184257
0.184007
0.183769
0.18354
0.183322
0.183113
0.182912
0.182719
0.182534
0.182356
0.182184
0.182018
0.181858
0.181702
0.181552
0.181405
0.181262
0.181122
0.180986
0.180853
0.180722
0.180594
0.180469
0.180346
0.180226
0.180109
0.179995
0.179885
0.17978
0.17968
0.179587
0.179503
0.17943
0.179372
0.179334
0.17932
0.179341
0.179405
0.17953
0.179735
0.180048
0.180505
0.181158
0.182019
0.183182
0.184163
-0.0634029
-0.0664769
-0.0699638
-0.0726211
-0.0747081
-0.0766509
-0.0786578
-0.080821
-0.083185
-0.0857645
-0.0885538
-0.0915342
-0.0946802
-0.0979629
-0.101352
-0.104816
-0.108326
-0.111852
-0.115366
-0.118842
-0.122254
-0.125577
-0.128788
-0.131862
-0.134779
-0.137515
-0.140048
-0.142358
-0.144421
-0.146216
-0.147721
-0.148911
-0.149766
-0.150259
-0.150369
-0.150071
-0.14934
-0.148154
-0.14649
-0.144327
-0.141644
-0.138423
-0.134647
-0.130301
-0.125376
-0.119867
-0.113771
-0.107096
-0.0998529
-0.0920606
-0.0837451
-0.0749393
-0.0656832
-0.056023
-0.0460109
-0.0357035
-0.0251615
-0.014448
-0.00362749
0.00723572
0.0180784
0.0288396
0.0394619
0.0498919
0.0600812
0.0699865
0.0795702
0.0888002
0.0976499
0.106099
0.114133
0.121742
0.128921
0.135668
0.141984
0.147875
0.153349
0.158416
0.163087
0.167377
0.1713
0.174873
0.178112
0.181033
0.183654
0.185991
0.188062
0.189883
0.191469
0.192838
0.194004
0.194982
0.195786
0.19643
0.196928
0.197292
0.197535
0.197668
0.197702
0.197648
0.197516
0.197316
0.197056
0.196744
0.196389
0.195997
0.195576
0.19513
0.194666
0.194189
0.193702
0.19321
0.192716
0.192222
0.191732
0.191248
0.19077
0.190302
0.189843
0.189395
0.188959
0.188536
0.188125
0.187728
0.187344
0.186974
0.186617
0.186274
0.185944
0.185628
0.185324
0.185034
0.184755
0.184488
0.184232
0.183987
0.183753
0.183528
0.183313
0.183106
0.182907
0.182717
0.182533
0.182356
0.182185
0.18202
0.18186
0.181704
0.181554
0.181407
0.181264
0.181124
0.180988
0.180854
0.180723
0.180595
0.180469
0.180346
0.180225
0.180107
0.179992
0.179881
0.179775
0.179673
0.179578
0.179492
0.179416
0.179354
0.17931
0.179289
0.179299
0.179349
0.179453
0.179626
0.17989
0.180269
0.180794
0.18145
0.182265
0.182792
-0.0669879
-0.0698941
-0.0732833
-0.0760318
-0.0782969
-0.0804259
-0.0825959
-0.084888
-0.0873433
-0.0899772
-0.092787
-0.0957578
-0.0988685
-0.102095
-0.10541
-0.108789
-0.112205
-0.115635
-0.119052
-0.122435
-0.125761
-0.129007
-0.132151
-0.135173
-0.138052
-0.140766
-0.143295
-0.145616
-0.147708
-0.149549
-0.151115
-0.152384
-0.153331
-0.153931
-0.154159
-0.153989
-0.153395
-0.152352
-0.150834
-0.148817
-0.146277
-0.143193
-0.139545
-0.135316
-0.130493
-0.125067
-0.119036
-0.112403
-0.10518
-0.0973838
-0.0890416
-0.080187
-0.0708615
-0.0611137
-0.0509986
-0.0405761
-0.0299103
-0.0190677
-0.008116
0.00287734
0.0138465
0.0247286
0.0354645
0.0459998
0.0562855
0.0662785
0.0759407
0.085241
0.0941545
0.102662
0.110751
0.118412
0.12564
0.132434
0.138799
0.14474
0.150265
0.155385
0.160113
0.164463
0.16845
0.172089
0.175398
0.178392
0.181089
0.183505
0.185657
0.187561
0.189232
0.190686
0.191939
0.193004
0.193895
0.194626
0.19521
0.19566
0.195986
0.196202
0.196317
0.196342
0.196287
0.19616
0.195972
0.19573
0.195442
0.195114
0.194754
0.194367
0.19396
0.193535
0.193099
0.192655
0.192206
0.191755
0.191305
0.190858
0.190416
0.18998
0.189552
0.189133
0.188723
0.188325
0.187937
0.18756
0.187195
0.186842
0.186502
0.186173
0.185856
0.185551
0.185258
0.184976
0.184706
0.184446
0.184197
0.183957
0.183728
0.183507
0.183295
0.183092
0.182896
0.182707
0.182526
0.18235
0.18218
0.182016
0.181857
0.181703
0.181552
0.181406
0.181263
0.181124
0.180987
0.180853
0.180722
0.180594
0.180468
0.180344
0.180223
0.180104
0.179988
0.179876
0.179768
0.179664
0.179567
0.179477
0.179398
0.17933
0.179279
0.179249
0.179246
0.179278
0.179356
0.179492
0.179702
0.179998
0.180394
0.180859
0.181381
0.181561
-0.0717753
-0.0743749
-0.077471
-0.0801149
-0.0823887
-0.0845609
-0.0867745
-0.0890961
-0.0915608
-0.094183
-0.0969613
-0.0998842
-0.102934
-0.106089
-0.109327
-0.112626
-0.115961
-0.119312
-0.122655
-0.125971
-0.129238
-0.132435
-0.135543
-0.138542
-0.141411
-0.14413
-0.146679
-0.149035
-0.151178
-0.153084
-0.15473
-0.156092
-0.157144
-0.15786
-0.158214
-0.158178
-0.157724
-0.156824
-0.155448
-0.153572
-0.151167
-0.148209
-0.144674
-0.140543
-0.135799
-0.130431
-0.124434
-0.11781
-0.110568
-0.102727
-0.0943125
-0.0853613
-0.0759169
-0.0660311
-0.0557627
-0.0451757
-0.0343385
-0.0233221
-0.0121982
-0.00103774
0.0100905
0.021121
0.0319931
0.0426513
0.0530458
0.0631333
0.0728775
0.0822485
0.0912234
0.0997842
0.107919
0.11562
0.122884
0.129712
0.13611
0.142083
0.147642
0.152798
0.157564
0.161955
0.165987
0.169674
0.173034
0.176084
0.178839
0.181317
0.183533
0.185504
0.187244
0.188769
0.190094
0.191232
0.192197
0.193002
0.19366
0.194182
0.194582
0.194869
0.195054
0.195147
0.195159
0.195098
0.194973
0.194791
0.194562
0.19429
0.193984
0.193649
0.193291
0.192914
0.192522
0.192121
0.191712
0.1913
0.190886
0.190473
0.190063
0.189658
0.189258
0.188865
0.188481
0.188105
0.187739
0.187382
0.187036
0.1867
0.186375
0.18606
0.185756
0.185463
0.185181
0.184908
0.184647
0.184394
0.184152
0.183919
0.183695
0.183479
0.183271
0.183071
0.182878
0.182693
0.182513
0.18234
0.182172
0.182009
0.181851
0.181698
0.181548
0.181403
0.18126
0.181121
0.180985
0.180851
0.18072
0.180591
0.180465
0.180341
0.180219
0.180099
0.179983
0.179869
0.179759
0.179653
0.179553
0.17946
0.179375
0.179302
0.179242
0.179201
0.179183
0.179194
0.179244
0.179339
0.17949
0.179702
0.179974
0.180265
0.180543
0.180454
-0.077057
-0.0792798
-0.0819735
-0.0843839
-0.0865452
-0.0886561
-0.0908255
-0.0931053
-0.0955228
-0.0980895
-0.100804
-0.103657
-0.106633
-0.109713
-0.112877
-0.116104
-0.119373
-0.122663
-0.125955
-0.129229
-0.132464
-0.135642
-0.138743
-0.141747
-0.144636
-0.147389
-0.149985
-0.152403
-0.154621
-0.156615
-0.158362
-0.159837
-0.161012
-0.161861
-0.162355
-0.162464
-0.162158
-0.161407
-0.160179
-0.158445
-0.156175
-0.153339
-0.149912
-0.145869
-0.141192
-0.135865
-0.129881
-0.123241
-0.115952
-0.108034
-0.0995129
-0.0904279
-0.0808259
-0.0707627
-0.0603017
-0.049512
-0.0384672
-0.0272433
-0.015917
-0.00456288
0.00674688
0.0179437
0.0289649
0.0397544
0.0502627
0.0604474
0.0702739
0.0797136
0.0887444
0.0973505
0.105521
0.113252
0.12054
0.12739
0.133806
0.139798
0.145376
0.150553
0.155342
0.15976
0.163821
0.167542
0.17094
0.174031
0.176831
0.179357
0.181625
0.18365
0.185448
0.187032
0.188418
0.189618
0.190647
0.191516
0.192238
0.192825
0.193288
0.193638
0.193885
0.19404
0.194111
0.194107
0.194038
0.193911
0.193734
0.193513
0.193255
0.192966
0.192652
0.192317
0.191966
0.191603
0.191231
0.190853
0.190473
0.190091
0.189711
0.189334
0.188961
0.188593
0.188232
0.187878
0.187532
0.187195
0.186867
0.186547
0.186237
0.185937
0.185646
0.185365
0.185093
0.184831
0.184578
0.184334
0.184099
0.183872
0.183654
0.183443
0.18324
0.183044
0.182855
0.182673
0.182496
0.182325
0.182159
0.181998
0.181842
0.18169
0.181542
0.181397
0.181255
0.181117
0.180981
0.180847
0.180716
0.180588
0.180461
0.180336
0.180214
0.180094
0.179976
0.179861
0.179749
0.179641
0.179537
0.17944
0.17935
0.179269
0.1792
0.179146
0.179111
0.179101
0.179119
0.179172
0.179263
0.179392
0.179548
0.179683
0.179757
0.17946
-0.0822437
-0.0840609
-0.0862987
-0.0883974
-0.0903667
-0.0923455
-0.0944121
-0.0966033
-0.0989385
-0.101425
-0.10406
-0.106836
-0.109736
-0.112745
-0.115844
-0.119013
-0.122234
-0.125486
-0.12875
-0.132007
-0.135238
-0.138425
-0.141548
-0.144588
-0.147525
-0.15034
-0.153012
-0.155519
-0.157839
-0.159947
-0.161819
-0.163428
-0.164747
-0.165746
-0.166397
-0.166666
-0.166522
-0.165931
-0.16486
-0.163275
-0.161143
-0.158432
-0.155111
-0.151153
-0.146535
-0.141238
-0.135254
-0.128579
-0.121223
-0.113203
-0.10455
-0.0953028
-0.0855138
-0.0752437
-0.0645614
-0.0535418
-0.0422642
-0.0308111
-0.019264
-0.00770244
0.00379773
0.0151663
0.0263397
0.0372612
0.0478821
0.0581609
0.0680637
0.0775637
0.0866409
0.0952816
0.103478
0.111225
0.118526
0.125384
0.131807
0.137804
0.143389
0.148575
0.153375
0.157808
0.161887
0.16563
0.169054
0.172175
0.17501
0.177575
0.179884
0.181954
0.1838
0.185435
0.186873
0.188128
0.189212
0.190137
0.190917
0.191561
0.192081
0.192487
0.19279
0.192999
0.193124
0.193173
0.193154
0.193076
0.192946
0.192771
0.192557
0.192311
0.192037
0.19174
0.191426
0.191098
0.19076
0.190414
0.190064
0.189712
0.189359
0.189008
0.18866
0.188316
0.187978
0.187645
0.187319
0.187
0.186689
0.186386
0.186091
0.185805
0.185527
0.185258
0.184998
0.184746
0.184502
0.184266
0.184039
0.183819
0.183607
0.183402
0.183204
0.183013
0.182827
0.182648
0.182475
0.182307
0.182143
0.181985
0.18183
0.181679
0.181533
0.181389
0.181248
0.18111
0.180975
0.180842
0.180711
0.180583
0.180456
0.180331
0.180208
0.180087
0.179968
0.179851
0.179737
0.179626
0.179519
0.179417
0.179321
0.179232
0.179153
0.179086
0.179034
0.178999
0.178985
0.178994
0.179027
0.179075
0.179123
0.179121
0.179024
0.178565
-0.0868538
-0.0882635
-0.0900288
-0.0917758
-0.0935062
-0.0953106
-0.0972396
-0.0993163
-0.101552
-0.103949
-0.106503
-0.109204
-0.112038
-0.114989
-0.118039
-0.121171
-0.124364
-0.127602
-0.130864
-0.134132
-0.137387
-0.140611
-0.143785
-0.146889
-0.149904
-0.15281
-0.155585
-0.158208
-0.160654
-0.1629
-0.16492
-0.166686
-0.168169
-0.169338
-0.170162
-0.170607
-0.170638
-0.170219
-0.169314
-0.167886
-0.165899
-0.163316
-0.160102
-0.156227
-0.151663
-0.146389
-0.140393
-0.133671
-0.126231
-0.118092
-0.109286
-0.0998565
-0.0898603
-0.0793639
-0.0684427
-0.0571785
-0.0456584
-0.03397
-0.0221994
-0.0104302
0.00125833
0.0127945
0.0241136
0.0351586
0.0458812
0.0562412
0.0662065
0.0757527
0.084862
0.093523
0.10173
0.109482
0.116781
0.123635
0.130052
0.136044
0.141624
0.146808
0.151609
0.156046
0.160134
0.16389
0.167332
0.170474
0.173335
0.17593
0.178274
0.180381
0.182268
0.183946
0.18543
0.186733
0.187866
0.188843
0.189673
0.190369
0.190941
0.191399
0.191753
0.192012
0.192186
0.192282
0.19231
0.192277
0.192191
0.192057
0.191884
0.191676
0.191439
0.191179
0.190899
0.190603
0.190296
0.18998
0.189659
0.189334
0.189007
0.188681
0.188356
0.188035
0.187718
0.187405
0.187099
0.186798
0.186504
0.186217
0.185938
0.185665
0.185401
0.185144
0.184894
0.184652
0.184418
0.184191
0.183972
0.183759
0.183554
0.183355
0.183162
0.182976
0.182795
0.18262
0.18245
0.182285
0.182124
0.181968
0.181815
0.181667
0.181521
0.181379
0.18124
0.181103
0.180968
0.180836
0.180705
0.180577
0.18045
0.180325
0.180201
0.180079
0.179959
0.17984
0.179724
0.17961
0.1795
0.179393
0.17929
0.179193
0.179103
0.179022
0.178951
0.178892
0.178845
0.178811
0.178786
0.178758
0.178709
0.178586
0.178346
0.177759
-0.0905079
-0.0915275
-0.0928298
-0.0942124
-0.0956825
-0.0972922
-0.0990684
-0.101022
-0.103155
-0.105466
-0.107948
-0.110588
-0.113372
-0.116285
-0.11931
-0.122428
-0.125621
-0.12887
-0.132158
-0.135465
-0.138772
-0.142062
-0.145315
-0.148511
-0.151631
-0.154654
-0.157558
-0.16032
-0.162917
-0.165323
-0.16751
-0.169451
-0.171115
-0.17247
-0.173481
-0.174114
-0.174331
-0.174093
-0.173361
-0.172096
-0.170256
-0.167802
-0.164695
-0.160899
-0.156383
-0.151124
-0.145107
-0.138326
-0.130789
-0.122517
-0.113545
-0.103923
-0.0937119
-0.0829838
-0.0718215
-0.0603142
-0.048555
-0.0366373
-0.0246526
-0.0126884
-0.000826471
0.0108594
0.0223041
0.0334512
0.0442536
0.0546731
0.0646798
0.0742516
0.0833735
0.0920367
0.100238
0.107978
0.115261
0.122098
0.128497
0.134472
0.140037
0.145209
0.150003
0.154435
0.158524
0.162286
0.165737
0.168895
0.171776
0.174394
0.176766
0.178906
0.180827
0.182544
0.184068
0.185414
0.186592
0.187614
0.188492
0.189235
0.189854
0.19036
0.190761
0.191066
0.191285
0.191426
0.191498
0.191506
0.19146
0.191366
0.19123
0.191058
0.190856
0.190629
0.19038
0.190116
0.189838
0.18955
0.189255
0.188956
0.188654
0.188351
0.18805
0.18775
0.187453
0.18716
0.186872
0.186589
0.186312
0.186041
0.185776
0.185518
0.185267
0.185022
0.184784
0.184553
0.184328
0.18411
0.183899
0.183694
0.183495
0.183303
0.183116
0.182934
0.182758
0.182587
0.182421
0.182259
0.182102
0.181948
0.181798
0.181652
0.181508
0.181367
0.181229
0.181093
0.18096
0.180828
0.180698
0.18057
0.180443
0.180317
0.180193
0.18007
0.179949
0.179829
0.17971
0.179593
0.179479
0.179367
0.179258
0.179152
0.179051
0.178955
0.178865
0.178781
0.178702
0.178626
0.178545
0.178447
0.178309
0.17808
0.177721
0.177031
-0.0928844
-0.0935849
-0.0944539
-0.0954791
-0.0966857
-0.0980971
-0.09972
-0.101554
-0.103595
-0.105834
-0.108261
-0.110862
-0.113621
-0.116523
-0.119549
-0.122683
-0.125904
-0.129195
-0.132537
-0.135912
-0.1393
-0.142683
-0.146042
-0.149355
-0.152604
-0.155767
-0.158821
-0.161742
-0.164507
-0.167089
-0.16946
-0.171589
-0.173445
-0.174994
-0.176201
-0.177027
-0.177433
-0.177379
-0.176821
-0.175718
-0.174023
-0.171694
-0.168686
-0.164961
-0.160484
-0.15523
-0.14918
-0.142331
-0.134689
-0.126278
-0.117137
-0.10732
-0.0968939
-0.0859392
-0.0745454
-0.0628086
-0.0508285
-0.0387043
-0.0265322
-0.014403
-0.00240003
0.00940214
0.0209386
0.0321545
0.0430044
0.0534525
0.0634716
0.0730424
0.0821524
0.0907954
0.0989703
0.106681
0.113933
0.120738
0.127106
0.133054
0.138595
0.143746
0.148523
0.152945
0.157028
0.160789
0.164245
0.167413
0.170308
0.172945
0.17534
0.177507
0.179459
0.18121
0.182772
0.184156
0.185375
0.186439
0.18736
0.188147
0.188811
0.18936
0.189805
0.190154
0.190415
0.190598
0.19071
0.190758
0.19075
0.190692
0.190591
0.190453
0.190284
0.190088
0.18987
0.189634
0.189383
0.189122
0.188853
0.188578
0.1883
0.18802
0.18774
0.187461
0.187184
0.18691
0.186641
0.186375
0.186114
0.185859
0.185609
0.185365
0.185126
0.184894
0.184667
0.184447
0.184232
0.184023
0.183821
0.183624
0.183432
0.183246
0.183065
0.182889
0.182718
0.182552
0.18239
0.182231
0.182077
0.181926
0.181779
0.181634
0.181493
0.181354
0.181217
0.181083
0.18095
0.180819
0.18069
0.180562
0.180435
0.180309
0.180185
0.180061
0.179938
0.179816
0.179696
0.179576
0.179457
0.17934
0.179224
0.17911
0.178997
0.178887
0.178778
0.178669
0.178559
0.178441
0.178309
0.178146
0.177927
0.177607
0.177147
0.176375
-0.0937776
-0.094234
-0.0947147
-0.0954125
-0.0963734
-0.0975999
-0.0990836
-0.100815
-0.102782
-0.104973
-0.107371
-0.109961
-0.112726
-0.115648
-0.118708
-0.121887
-0.125168
-0.128532
-0.131958
-0.135429
-0.138925
-0.142426
-0.145913
-0.149366
-0.152763
-0.156083
-0.159302
-0.162397
-0.165341
-0.168108
-0.170667
-0.172989
-0.17504
-0.176784
-0.178185
-0.179201
-0.179793
-0.179915
-0.179524
-0.178572
-0.177011
-0.174792
-0.171869
-0.168199
-0.163745
-0.15848
-0.152385
-0.145455
-0.1377
-0.129147
-0.119838
-0.109833
-0.0992067
-0.0880458
-0.0764474
-0.0645142
-0.0523517
-0.0400638
-0.0277502
-0.0155037
-0.00340838
0.00846169
0.020043
0.0312825
0.0421376
0.0525752
0.0625709
0.0721082
0.0811775
0.0897749
0.0979015
0.105563
0.112767
0.119525
0.125852
0.13176
0.137268
0.14239
0.147145
0.15155
0.155622
0.159377
0.162834
0.166007
0.168912
0.171565
0.17398
0.176171
0.17815
0.179932
0.181527
0.182947
0.184203
0.185307
0.186268
0.187096
0.187801
0.188392
0.188879
0.189268
0.18957
0.189792
0.189942
0.190027
0.190055
0.190032
0.189965
0.189859
0.18972
0.189554
0.189364
0.189156
0.188932
0.188696
0.188451
0.1882
0.187944
0.187686
0.187427
0.187168
0.186911
0.186656
0.186404
0.186155
0.185911
0.185671
0.185436
0.185205
0.18498
0.18476
0.184545
0.184335
0.184131
0.183932
0.183737
0.183548
0.183364
0.183185
0.183011
0.18284
0.182675
0.182513
0.182355
0.182201
0.18205
0.181902
0.181757
0.181616