/*--------------------------------*- C++ -*----------------------------------*\
  =========                 |
  \\      /  F ield         | OpenFOAM: The Open Source CFD Toolbox
   \\    /   O peration     | Website:  https://openfoam.org
    \\  /    A nd           | Version:  6
     \\/     M anipulation  |
\*---------------------------------------------------------------------------*/
FoamFile
{
    version     2.0;
    format      ascii;
    class       surfaceScalarField;
    location    "0.13";
    object      phi;
}
// * * * * * * * * * * * * * * * * * * * * * * * * * * * * * * * * * * * * * //

dimensions      [0 3 -1 0 0 0 0];

internalField   nonuniform List<scalar> 
24170
(
3.25671e-07
-6.83044e-09
3.19419e-07
6.25214e-09
3.15819e-07
3.60001e-09
3.08741e-07
7.07814e-09
3.01789e-07
6.95191e-09
2.968e-07
4.98872e-09
2.93501e-07
3.29915e-09
2.9118e-07
2.32146e-09
2.89391e-07
1.78878e-09
2.87933e-07
1.45776e-09
2.86703e-07
1.22956e-09
2.85637e-07
1.06597e-09
2.84695e-07
9.42456e-10
2.83852e-07
8.43368e-10
2.8311e-07
7.41238e-10
2.82465e-07
6.4497e-10
2.82243e-07
2.2239e-10
6.65299e-12
2.82236e-07
3.50378e-07
-1.54836e-08
3.47815e-07
8.81509e-09
3.44067e-07
7.34855e-09
3.42215e-07
8.92936e-09
3.40043e-07
9.12437e-09
3.37562e-07
7.46999e-09
3.35229e-07
5.63145e-09
3.33246e-07
4.30508e-09
3.31609e-07
3.4257e-09
3.30251e-07
2.81544e-09
3.29105e-07
2.37538e-09
3.28119e-07
2.05196e-09
3.27256e-07
1.80623e-09
3.26485e-07
1.61355e-09
3.25791e-07
1.43512e-09
3.25147e-07
1.28934e-09
3.24506e-07
8.6316e-10
5.91392e-10
3.23922e-07
3.63434e-07
-1.26663e-08
3.66555e-07
5.69425e-09
3.66708e-07
7.19563e-09
3.66869e-07
8.76846e-09
3.66486e-07
9.50704e-09
3.65484e-07
8.47259e-09
3.64186e-07
6.9289e-09
3.62867e-07
5.62434e-09
3.61654e-07
4.63865e-09
3.60578e-07
3.89159e-09
3.5963e-07
3.32351e-09
3.58791e-07
2.89093e-09
3.58041e-07
2.55561e-09
3.57364e-07
2.29058e-09
3.56741e-07
2.05856e-09
3.56167e-07
1.86322e-09
3.55516e-07
1.51379e-09
1.28909e-09
3.54819e-07
3.89236e-07
-9.36364e-09
3.91449e-07
3.48115e-09
3.92374e-07
6.27099e-09
3.93027e-07
8.11565e-09
3.93287e-07
9.24646e-09
3.93012e-07
8.74832e-09
3.92358e-07
7.58259e-09
3.91536e-07
6.4458e-09
3.90685e-07
5.48982e-09
3.89869e-07
4.70832e-09
3.89109e-07
4.08271e-09
3.88412e-07
3.58843e-09
3.87771e-07
3.19637e-09
3.87179e-07
2.88316e-09
3.86618e-07
2.61866e-09
3.8608e-07
2.40134e-09
3.85462e-07
2.13196e-09
1.97868e-09
3.84773e-07
4.18268e-07
-6.91904e-09
4.19403e-07
2.34613e-09
4.20279e-07
5.39534e-09
4.21028e-07
7.36609e-09
4.21572e-07
8.70241e-09
4.21711e-07
8.60993e-09
4.21489e-07
7.80449e-09
4.21049e-07
6.8861e-09
4.20506e-07
6.03287e-09
4.19929e-07
5.28533e-09
4.19355e-07
4.65672e-09
4.18801e-07
4.14174e-09
4.18274e-07
3.7236e-09
4.17771e-07
3.38612e-09
4.17281e-07
3.10874e-09
4.16791e-07
2.89122e-09
4.16233e-07
2.69038e-09
2.61416e-09
4.15597e-07
4.49034e-07
-5.04402e-09
4.49595e-07
1.78512e-09
4.50322e-07
4.66781e-09
4.51069e-07
6.61974e-09
4.51744e-07
8.02679e-09
4.52129e-07
8.22499e-09
4.52204e-07
7.72996e-09
4.52055e-07
7.03438e-09
4.51771e-07
6.31734e-09
4.51411e-07
5.64528e-09
4.51015e-07
5.05257e-09
4.50607e-07
4.54962e-09
4.50199e-07
4.13185e-09
4.49794e-07
3.79151e-09
4.49384e-07
3.51782e-09
4.48962e-07
3.31417e-09
4.48482e-07
3.16951e-09
3.15548e-09
4.47941e-07
4.81756e-07
-3.52844e-09
4.82043e-07
1.49811e-09
4.82632e-07
4.07938e-09
4.83331e-07
5.92017e-09
4.84052e-07
7.3059e-09
4.84579e-07
7.69814e-09
4.84856e-07
7.45316e-09
4.84929e-07
6.96125e-09
4.84858e-07
6.38886e-09
4.84689e-07
5.81357e-09
4.8446e-07
5.2816e-09
4.84195e-07
4.81456e-09
4.83909e-07
4.41803e-09
4.83608e-07
4.0922e-09
4.83291e-07
3.83479e-09
4.82953e-07
3.6528e-09
4.82571e-07
3.55149e-09
3.57711e-09
4.82149e-07
5.16748e-07
-2.31844e-09
5.16885e-07
1.36123e-09
5.17352e-07
3.61281e-09
5.17983e-07
5.28905e-09
5.18697e-07
6.5915e-09
5.19297e-07
7.09787e-09
5.19709e-07
7.04193e-09
5.19947e-07
6.72322e-09
5.20047e-07
6.28847e-09
5.20044e-07
5.81657e-09
5.19967e-07
5.35853e-09
5.19839e-07
4.94268e-09
5.19675e-07
4.58205e-09
5.19484e-07
4.28322e-09
5.19268e-07
4.0503e-09
5.19028e-07
3.89273e-09
5.18758e-07
3.82195e-09
3.86585e-09
5.18469e-07
5.54209e-07
-1.39323e-09
5.54256e-07
1.31333e-09
5.54625e-07
3.24438e-09
5.55184e-07
4.73032e-09
5.55864e-07
5.91136e-09
5.56493e-07
6.46848e-09
5.5699e-07
6.54544e-09
5.57348e-07
6.36529e-09
5.57584e-07
6.05218e-09
5.5772e-07
5.68013e-09
5.57779e-07
5.29994e-09
5.57779e-07
4.94292e-09
5.57734e-07
4.62673e-09
5.57655e-07
4.36231e-09
5.57547e-07
4.1578e-09
5.57417e-07
4.02356e-09
5.57267e-07
3.97151e-09
4.01642e-09
5.57116e-07
5.94304e-07
-7.19786e-10
5.94309e-07
1.30808e-09
5.94608e-07
2.94591e-09
5.95102e-07
4.2362e-09
5.95737e-07
5.27667e-09
5.96368e-07
5.83707e-09
5.96915e-07
5.99855e-09
5.97358e-07
5.92252e-09
5.97699e-07
5.71053e-09
5.97951e-07
5.42823e-09
5.98128e-07
5.12292e-09
5.98245e-07
4.82604e-09
5.98315e-07
4.5573e-09
5.98347e-07
4.32995e-09
5.98351e-07
4.15405e-09
5.98335e-07
4.03948e-09
5.9831e-07
3.99591e-09
4.02925e-09
5.98298e-07
6.37219e-07
-2.57577e-10
6.37216e-07
1.31107e-09
6.37473e-07
2.68869e-09
6.37917e-07
3.79221e-09
6.38506e-07
4.68793e-09
6.39125e-07
5.2181e-09
6.39699e-07
5.42463e-09
6.402e-07
5.42123e-09
6.40622e-07
5.28841e-09
6.40968e-07
5.08202e-09
6.41247e-07
4.84394e-09
6.4147e-07
4.60362e-09
6.41646e-07
4.3808e-09
6.41787e-07
4.18926e-09
6.41902e-07
4.03924e-09
6.42002e-07
3.93922e-09
6.42102e-07
3.8958e-09
3.90931e-09
6.42222e-07
5.73826e-07
-9.95598e-15
5.73832e-07
1.30539e-09
5.74037e-07
2.48353e-09
5.74387e-07
3.44187e-09
5.74854e-07
4.22103e-09
5.75363e-07
4.70858e-09
5.75859e-07
4.92953e-09
5.76313e-07
4.96679e-09
5.76717e-07
4.88462e-09
5.77068e-07
4.7305e-09
5.77371e-07
4.54115e-09
5.77631e-07
4.34329e-09
5.77857e-07
4.15552e-09
5.78055e-07
3.99101e-09
5.78235e-07
3.85926e-09
5.78407e-07
3.76723e-09
5.78584e-07
3.71914e-09
3.71189e-09
5.78781e-07
6.99632e-07
1.8402e-10
6.99675e-07
1.26186e-09
6.99907e-07
2.25149e-09
7.0029e-07
3.05876e-09
7.008e-07
3.71155e-09
7.01368e-07
4.1402e-09
7.0194e-07
4.35749e-09
7.02486e-07
4.42088e-09
7.02991e-07
4.37952e-09
7.0345e-07
4.27165e-09
7.03863e-07
4.12779e-09
7.04236e-07
3.97085e-09
7.04574e-07
3.81723e-09
7.04886e-07
3.67855e-09
7.05183e-07
3.56284e-09
7.05475e-07
3.4752e-09
7.05777e-07
3.41748e-09
3.38466e-09
7.06104e-07
8.52984e-07
2.84845e-10
8.53081e-07
1.16441e-09
8.5336e-07
1.97315e-09
8.53789e-07
2.62941e-09
8.54348e-07
3.15227e-09
8.5498e-07
3.50807e-09
8.55635e-07
3.70339e-09
8.56279e-07
3.77605e-09
8.56897e-07
3.76196e-09
8.57478e-07
3.69022e-09
8.58022e-07
3.58454e-09
8.58529e-07
3.46317e-09
8.59007e-07
3.3394e-09
8.59463e-07
3.2225e-09
8.59907e-07
3.11851e-09
8.60352e-07
3.03059e-09
8.60811e-07
2.95877e-09
2.89734e-09
8.61298e-07
1.0399e-06
3.03815e-10
1.04007e-06
9.99217e-10
1.04041e-06
1.62741e-09
1.04091e-06
2.13315e-09
1.04154e-06
2.52713e-09
1.04224e-06
2.79983e-09
1.04299e-06
2.95674e-09
1.04374e-06
3.0217e-09
1.04449e-06
3.01952e-09
1.04521e-06
2.97088e-09
1.0459e-06
2.89274e-09
1.04656e-06
2.7983e-09
1.04721e-06
2.69713e-09
1.04783e-06
2.59575e-09
1.04845e-06
2.49801e-09
1.04908e-06
2.4054e-09
1.04972e-06
2.31686e-09
2.22697e-09
1.05039e-06
1.26773e-06
2.54013e-10
1.26797e-06
7.56542e-10
1.2684e-06
1.1964e-09
1.26899e-06
1.54617e-09
1.26971e-06
1.81111e-09
1.27051e-06
1.99307e-09
1.27137e-06
2.09796e-09
1.27225e-06
2.14009e-09
1.27314e-06
2.13507e-09
1.27401e-06
2.09613e-09
1.27487e-06
2.03391e-09
1.27571e-06
1.95663e-09
1.27654e-06
1.87011e-09
1.27736e-06
1.77804e-09
1.27817e-06
1.6823e-09
1.27899e-06
1.58317e-09
1.27983e-06
1.47924e-09
1.36598e-09
1.28069e-06
1.54542e-06
1.53379e-10
1.54574e-06
4.34632e-10
1.54627e-06
6.67913e-10
1.54697e-06
8.4626e-10
1.54781e-06
9.74211e-10
1.54874e-06
1.05626e-09
1.54974e-06
1.09705e-09
1.55078e-06
1.10377e-09
1.55183e-06
1.08404e-09
1.55288e-06
1.04418e-09
1.55393e-06
9.88998e-10
1.55496e-06
9.22019e-10
1.55599e-06
8.45515e-10
1.557e-06
7.60668e-10
1.55802e-06
6.67748e-10
1.55904e-06
5.66286e-10
1.56006e-06
4.54944e-10
3.30328e-10
1.5611e-06
1.8839e-06
1.83704e-11
1.88429e-06
3.97735e-11
1.88493e-06
3.52723e-11
1.88576e-06
1.40129e-11
1.88675e-06
-1.50202e-11
1.88785e-06
-4.84595e-11
1.88903e-06
-8.5098e-11
1.89026e-06
-1.24237e-10
1.89151e-06
-1.66044e-10
1.89277e-06
-2.1136e-10
1.89402e-06
-2.61243e-10
1.89526e-06
-3.16804e-10
1.89648e-06
-3.79195e-10
1.89769e-06
-4.49581e-10
1.89889e-06
-5.29094e-10
1.90007e-06
-6.18787e-10
1.90125e-06
-7.1986e-10
-8.34742e-10
1.90241e-06
2.29648e-06
-1.29209e-10
2.29692e-06
-4.03246e-10
2.29766e-06
-6.97965e-10
2.29864e-06
-9.67777e-10
2.29982e-06
-1.19205e-09
2.30114e-06
-1.36986e-09
2.30256e-06
-1.50287e-09
2.30403e-06
-1.59683e-09
2.30552e-06
-1.66136e-09
2.30702e-06
-1.7062e-09
2.3085e-06
-1.73948e-09
2.30995e-06
-1.76777e-09
2.31136e-06
-1.79626e-09
2.31274e-06
-1.82894e-09
2.31408e-06
-1.86868e-09
2.31538e-06
-1.91748e-09
2.31664e-06
-1.97679e-09
-2.04867e-09
2.31785e-06
1.68112e-06
-1.74531e-10
1.68135e-06
-6.38181e-10
1.68183e-06
-1.17769e-09
1.68252e-06
-1.65866e-09
1.68338e-06
-2.05105e-09
1.68436e-06
-2.35448e-09
1.68543e-06
-2.56626e-09
1.68653e-06
-2.69762e-09
1.68764e-06
-2.76887e-09
1.68873e-06
-2.79881e-09
1.68979e-06
-2.80226e-09
1.69082e-06
-2.79095e-09
1.69179e-06
-2.77394e-09
1.69272e-06
-2.75783e-09
1.6936e-06
-2.74719e-09
1.69443e-06
-2.745e-09
1.6952e-06
-2.75318e-09
-2.7738e-09
1.69593e-06
1.46335e-06
-7.04266e-11
1.46341e-06
-6.9428e-10
1.46376e-06
-1.52712e-09
1.46435e-06
-2.24553e-09
1.46513e-06
-2.83254e-09
1.46605e-06
-3.27912e-09
1.46705e-06
-3.56753e-09
1.46808e-06
-3.72116e-09
1.46909e-06
-3.77891e-09
1.47006e-06
-3.77216e-09
1.47098e-06
-3.72432e-09
1.47184e-06
-3.65357e-09
1.47264e-06
-3.57346e-09
1.47338e-06
-3.49338e-09
1.47405e-06
-3.41953e-09
1.47466e-06
-3.35576e-09
1.47521e-06
-3.30428e-09
-3.26702e-09
1.47571e-06
1.27362e-06
3.21735e-10
1.27346e-06
-5.33625e-10
1.27371e-06
-1.77942e-09
1.27425e-06
-2.78415e-09
1.27503e-06
-3.61339e-09
1.27598e-06
-4.22206e-09
1.27698e-06
-4.56896e-09
1.27797e-06
-4.71065e-09
1.27891e-06
-4.71834e-09
1.27977e-06
-4.64059e-09
1.28056e-06
-4.51156e-09
1.28126e-06
-4.35706e-09
1.28189e-06
-4.19518e-09
1.28243e-06
-4.03752e-09
1.2829e-06
-3.89113e-09
1.28331e-06
-3.75996e-09
1.28365e-06
-3.64589e-09
-3.55017e-09
1.28393e-06
1.10824e-06
1.17642e-09
1.10786e-06
-1.55666e-10
1.10809e-06
-2.00965e-09
1.10867e-06
-3.36388e-09
1.10955e-06
-4.48985e-09
1.11058e-06
-5.25429e-09
1.11161e-06
-5.60428e-09
1.11257e-06
-5.67023e-09
1.11343e-06
-5.57174e-09
1.11416e-06
-5.37734e-09
1.11479e-06
-5.13268e-09
1.1153e-06
-4.87073e-09
1.11572e-06
-4.61246e-09
1.11605e-06
-4.36967e-09
1.11631e-06
-4.14849e-09
1.1165e-06
-3.95155e-09
1.11663e-06
-3.77923e-09
-3.63136e-09
1.11671e-06
9.64039e-07
2.65906e-09
9.63508e-07
3.75038e-10
9.63828e-07
-2.32936e-09
9.64556e-07
-4.09238e-09
9.65617e-07
-5.55037e-09
9.6677e-07
-6.40746e-09
9.67819e-07
-6.65339e-09
9.68698e-07
-6.5494e-09
9.69401e-07
-6.27464e-09
9.69939e-07
-5.91532e-09
9.70332e-07
-5.52571e-09
9.70604e-07
-5.14213e-09
9.70775e-07
-4.78422e-09
9.70866e-07
-4.46038e-09
9.70891e-07
-4.1731e-09
9.70861e-07
-3.92179e-09
9.70786e-07
-3.70407e-09
-3.51752e-09
9.70672e-07
8.38136e-07
5.05781e-09
8.37723e-07
7.88526e-10
8.38315e-07
-2.92093e-09
8.39299e-07
-5.07638e-09
8.40584e-07
-6.83611e-09
8.41816e-07
-7.63896e-09
8.42785e-07
-7.62291e-09
8.43473e-07
-7.23665e-09
8.43915e-07
-6.71692e-09
8.44157e-07
-6.15759e-09
8.44244e-07
-5.61263e-09
8.44215e-07
-5.11334e-09
8.44102e-07
-4.67121e-09
8.43928e-07
-4.28645e-09
8.4371e-07
-3.9549e-09
8.43459e-07
-3.67108e-09
8.43184e-07
-3.42894e-09
-3.22325e-09
8.4289e-07
7.27628e-07
9.15811e-09
7.28097e-07
3.19383e-10
7.29269e-07
-4.09219e-09
7.3061e-07
-6.41822e-09
7.32087e-07
-8.31279e-09
7.33256e-07
-8.80772e-09
7.33968e-07
-8.3351e-09
7.34291e-07
-7.55964e-09
7.34327e-07
-6.75257e-09
7.34162e-07
-5.99325e-09
7.33867e-07
-5.3174e-09
7.33492e-07
-4.73818e-09
7.33071e-07
-4.25066e-09
7.32627e-07
-3.84248e-09
7.32173e-07
-3.50093e-09
7.31717e-07
-3.21504e-09
7.31264e-07
-2.97535e-09
-2.77383e-09
7.30814e-07
6.30215e-07
1.59499e-08
6.32731e-07
-2.19675e-09
6.34691e-07
-6.05271e-09
6.36441e-07
-8.16771e-09
6.37967e-07
-9.83865e-09
6.38808e-07
-9.64875e-09
6.38986e-07
-8.51308e-09
6.38711e-07
-7.28511e-09
6.38171e-07
-6.2123e-09
6.37493e-07
-5.31566e-09
6.3676e-07
-4.58363e-09
6.36017e-07
-3.99592e-09
6.35292e-07
-3.52531e-09
6.34595e-07
-3.14573e-09
6.33931e-07
-2.83686e-09
6.333e-07
-2.58396e-09
6.32701e-07
-2.37578e-09
-2.20231e-09
6.32129e-07
5.47189e-07
2.33073e-08
5.51812e-07
-6.8192e-09
5.53492e-07
-7.73327e-09
5.55169e-07
-9.84512e-09
5.56229e-07
-1.08977e-08
5.56203e-07
-9.62316e-09
5.55398e-07
-7.70837e-09
5.54215e-07
-6.10178e-09
5.52917e-07
-4.91459e-09
5.51641e-07
-4.03954e-09
5.50445e-07
-3.38702e-09
5.49345e-07
-2.89681e-09
5.48343e-07
-2.52297e-09
5.47429e-07
-2.23161e-09
5.46592e-07
-2.00029e-09
5.45824e-07
-1.81533e-09
5.45115e-07
-1.66727e-09
-1.54757e-09
5.4446e-07
4.91614e-07
1.44545e-08
4.90692e-07
-5.89745e-09
4.87241e-07
-4.28287e-09
4.86257e-07
-8.86043e-09
4.84781e-07
-9.42192e-09
4.824e-07
-7.24235e-09
4.79705e-07
-5.01346e-09
4.77146e-07
-3.54255e-09
4.74893e-07
-2.66182e-09
4.72961e-07
-2.10733e-09
4.71308e-07
-1.73392e-09
4.69883e-07
-1.47205e-09
4.68641e-07
-1.28128e-09
4.67546e-07
-1.13633e-09
4.66569e-07
-1.02305e-09
4.6569e-07
-9.36118e-10
4.64899e-07
-8.76993e-10
-8.91317e-10
4.64243e-07
4.34722e-07
4.28825e-07
4.24542e-07
4.15681e-07
4.06259e-07
3.99017e-07
3.94004e-07
3.90461e-07
3.87799e-07
3.85692e-07
3.83958e-07
3.82486e-07
3.81205e-07
3.80068e-07
3.79045e-07
3.78109e-07
3.77232e-07
3.76341e-07
1.81219e-08
-1.81219e-08
2.74308e-08
-9.30894e-09
2.69861e-08
4.44692e-10
1.86859e-08
8.30019e-09
5.78091e-09
1.2905e-08
-9.32978e-09
1.51107e-08
-2.58378e-08
1.6508e-08
-4.36002e-08
1.77625e-08
-6.26278e-08
1.90275e-08
-8.29074e-08
2.02796e-08
-1.04347e-07
2.14398e-08
-1.26777e-07
2.24302e-08
-1.49969e-07
2.31921e-08
-1.7366e-07
2.36907e-08
-1.97574e-07
2.39137e-08
-2.21441e-07
2.38673e-08
-2.45013e-07
2.35719e-08
-2.6807e-07
2.30571e-08
-2.90428e-07
2.23575e-08
-3.11937e-07
2.15089e-08
-3.32482e-07
2.05458e-08
-3.51982e-07
1.94997e-08
-3.70379e-07
1.83973e-08
-3.8764e-07
1.72606e-08
-4.03746e-07
1.61065e-08
-4.18694e-07
1.49474e-08
-4.32485e-07
1.3791e-08
-4.45127e-07
1.26418e-08
-4.56628e-07
1.15012e-08
-4.66996e-07
1.03679e-08
-4.76235e-07
9.23934e-09
-4.84347e-07
8.11138e-09
-4.91326e-07
6.9794e-09
-4.97165e-07
5.83867e-09
-5.01849e-07
4.68461e-09
-5.05362e-07
3.51234e-09
-5.07682e-07
2.32077e-09
-5.08808e-07
1.12544e-09
-5.08774e-07
-3.38883e-11
-5.07654e-07
-1.11958e-09
-5.05509e-07
-2.14513e-09
-5.0236e-07
-3.14931e-09
-4.98209e-07
-4.15104e-09
-4.93051e-07
-5.15818e-09
-4.86877e-07
-6.17319e-09
-4.79682e-07
-7.19538e-09
-4.7146e-07
-8.22223e-09
-4.6221e-07
-9.24994e-09
-4.51936e-07
-1.02738e-08
-4.40648e-07
-1.12884e-08
-4.2836e-07
-1.22877e-08
-4.15094e-07
-1.32656e-08
-4.00879e-07
-1.42156e-08
-3.85748e-07
-1.51311e-08
-3.69742e-07
-1.60057e-08
-3.52909e-07
-1.68334e-08
-3.353e-07
-1.76083e-08
-3.16975e-07
-1.83255e-08
-2.97994e-07
-1.89805e-08
-2.78425e-07
-1.95696e-08
-2.58335e-07
-2.009e-08
-2.37795e-07
-2.05398e-08
-2.16877e-07
-2.0918e-08
-1.95653e-07
-2.12242e-08
-1.74194e-07
-2.14589e-08
-1.52571e-07
-2.16233e-08
-1.30852e-07
-2.17185e-08
-1.09106e-07
-2.17457e-08
-8.74008e-08
-2.17055e-08
-6.5804e-08
-2.15968e-08
-4.43876e-08
-2.14164e-08
-2.32182e-08
-2.11694e-08
-2.30881e-09
-2.09094e-08
1.8351e-08
-2.06598e-08
3.87232e-08
-2.03722e-08
5.87585e-08
-2.00352e-08
7.84244e-08
-1.9666e-08
9.76964e-08
-1.9272e-08
1.16554e-07
-1.8858e-08
1.34982e-07
-1.84275e-08
1.52965e-07
-1.7983e-08
1.70492e-07
-1.75267e-08
1.87552e-07
-1.70603e-08
2.04137e-07
-1.65854e-08
2.2024e-07
-1.6103e-08
2.35854e-07
-1.56141e-08
2.50974e-07
-1.51193e-08
2.65593e-07
-1.46192e-08
2.79707e-07
-1.41139e-08
2.9331e-07
-1.36036e-08
3.06399e-07
-1.30884e-08
3.18967e-07
-1.25684e-08
3.31011e-07
-1.20436e-08
3.42525e-07
-1.15141e-08
3.53505e-07
-1.09801e-08
3.63947e-07
-1.04418e-08
3.73847e-07
-9.89979e-09
3.83201e-07
-9.35469e-09
3.92009e-07
-8.80741e-09
4.00268e-07
-8.25904e-09
4.07979e-07
-7.71095e-09
4.15143e-07
-7.16475e-09
4.21766e-07
-6.62225e-09
4.27851e-07
-6.08549e-09
4.33408e-07
-5.55665e-09
4.38446e-07
-5.03805e-09
4.42978e-07
-4.53206e-09
4.47019e-07
-4.04106e-09
4.50586e-07
-3.56736e-09
4.537e-07
-3.11315e-09
4.5638e-07
-2.68041e-09
4.58651e-07
-2.27078e-09
4.60536e-07
-1.88552e-09
4.62062e-07
-1.52555e-09
4.63253e-07
-1.19109e-09
4.64132e-07
-8.78706e-10
4.64706e-07
-5.74675e-10
4.64967e-07
-2.60542e-10
4.64926e-07
4.12021e-11
4.6464e-07
2.85409e-10
4.64173e-07
4.67576e-10
4.63566e-07
6.06114e-10
4.62853e-07
7.13885e-10
4.62054e-07
7.98559e-10
4.61189e-07
8.65284e-10
4.60271e-07
9.17474e-10
4.59314e-07
9.5754e-10
4.58326e-07
9.8733e-10
4.57318e-07
1.0084e-09
4.56296e-07
1.0221e-09
4.55266e-07
1.02957e-09
4.54234e-07
1.03189e-09
4.53205e-07
1.02993e-09
4.5218e-07
1.02453e-09
4.51164e-07
1.01638e-09
4.50158e-07
1.0061e-09
4.49163e-07
9.94197e-10
4.48182e-07
9.81159e-10
4.47215e-07
9.67355e-10
4.46262e-07
9.53121e-10
4.45323e-07
9.38742e-10
4.44398e-07
9.24445e-10
4.43488e-07
9.10435e-10
4.42591e-07
8.9686e-10
4.41707e-07
8.83853e-10
4.40836e-07
8.71516e-10
4.39976e-07
8.59941e-10
4.39127e-07
8.49199e-10
4.38287e-07
8.39355e-10
4.37457e-07
8.30454e-10
4.36634e-07
8.22538e-10
4.35819e-07
8.15661e-10
4.35009e-07
8.09869e-10
4.34204e-07
8.05206e-10
4.33402e-07
8.01747e-10
4.32602e-07
7.9957e-10
4.31803e-07
7.98794e-10
4.31004e-07
7.99551e-10
4.30202e-07
8.02039e-10
4.29395e-07
8.06508e-10
4.28582e-07
8.13311e-10
4.27759e-07
8.22896e-10
4.26923e-07
8.35887e-10
4.2607e-07
8.53101e-10
4.25195e-07
8.75666e-10
4.24289e-07
9.05108e-10
4.23346e-07
9.43518e-10
4.22352e-07
9.93844e-10
4.21292e-07
1.06026e-09
4.20143e-07
1.14883e-09
4.18874e-07
1.26864e-09
4.17441e-07
1.43374e-09
4.15774e-07
1.66704e-09
4.13766e-07
2.00744e-09
4.11238e-07
2.52842e-09
4.07871e-07
3.36699e-09
4.03007e-07
4.86358e-09
3.95437e-07
7.57045e-09
3.81536e-07
1.39011e-08
2.37873e-08
3.57748e-07
-2.64274e-09
-1.54792e-08
-1.337e-08
1.41829e-09
-2.61263e-08
1.3201e-08
-4.02319e-08
2.24057e-08
-5.65854e-08
2.92586e-08
-7.55532e-08
3.40785e-08
-9.66167e-08
3.75715e-08
-1.19131e-07
4.02769e-08
-1.42545e-07
4.2441e-08
-1.66394e-07
4.41286e-08
-1.90283e-07
4.53296e-08
-2.13876e-07
4.60226e-08
-2.36887e-07
4.62029e-08
-2.59086e-07
4.58904e-08
-2.803e-07
4.51274e-08
-3.00405e-07
4.39723e-08
-3.19326e-07
4.24923e-08
-3.37026e-07
4.07572e-08
-3.53502e-07
3.88335e-08
-3.68774e-07
3.6781e-08
-3.82879e-07
3.46509e-08
-3.95863e-07
3.24843e-08
-4.07779e-07
3.03128e-08
-4.18677e-07
2.8159e-08
-4.28608e-07
2.60375e-08
-4.37617e-07
2.39565e-08
-4.45746e-07
2.19192e-08
-4.53028e-07
1.99245e-08
-4.59496e-07
1.79689e-08
-4.65175e-07
1.60467e-08
-4.70087e-07
1.41515e-08
-4.74252e-07
1.22766e-08
-4.77688e-07
1.04155e-08
-4.80412e-07
8.56281e-09
-4.82442e-07
6.71428e-09
-4.83798e-07
4.86826e-09
-4.84504e-07
3.02675e-09
-4.84571e-07
1.1923e-09
-4.83962e-07
-6.42451e-10
-4.82584e-07
-2.49761e-09
-4.80345e-07
-4.38438e-09
-4.77193e-07
-6.30162e-09
-4.73095e-07
-8.24816e-09
-4.68032e-07
-1.02219e-08
-4.61986e-07
-1.22193e-08
-4.54946e-07
-1.42348e-08
-4.46907e-07
-1.62615e-08
-4.37866e-07
-1.82909e-08
-4.27827e-07
-2.03133e-08
-4.16797e-07
-2.23176e-08
-4.04793e-07
-2.42922e-08
-3.91834e-07
-2.62244e-08
-3.77948e-07
-2.81017e-08
-3.63168e-07
-2.99109e-08
-3.47534e-07
-3.16397e-08
-3.31092e-07
-3.32758e-08
-3.13892e-07
-3.48082e-08
-2.95991e-07
-3.62267e-08
-2.77448e-07
-3.75227e-08
-2.58329e-07
-3.86889e-08
-2.38699e-07
-3.97199e-08
-2.18627e-07
-4.06118e-08
-1.98183e-07
-4.13627e-08
-1.77435e-07
-4.19721e-08
-1.56452e-07
-4.24414e-08
-1.35302e-07
-4.2773e-08
-1.1405e-07
-4.29707e-08
-9.2757e-08
-4.3039e-08
-7.14798e-08
-4.29827e-08
-5.02694e-08
-4.28071e-08
-2.91678e-08
-4.25181e-08
-8.2086e-09
-4.21286e-08
1.25436e-08
-4.16615e-08
3.30125e-08
-4.11288e-08
5.31687e-08
-4.05284e-08
7.29982e-08
-3.98647e-08
9.24791e-08
-3.91469e-08
1.1159e-07
-3.8383e-08
1.30312e-07
-3.75798e-08
1.48627e-07
-3.67431e-08
1.66523e-07
-3.58781e-08
1.83985e-07
-3.4989e-08
2.01004e-07
-3.40794e-08
2.17571e-07
-3.31526e-08
2.33679e-07
-3.22109e-08
2.49321e-07
-3.12564e-08
2.64492e-07
-3.02904e-08
2.79187e-07
-2.9314e-08
2.93401e-07
-2.83279e-08
3.0713e-07
-2.73325e-08
3.2037e-07
-2.63281e-08
3.33116e-07
-2.53148e-08
3.45365e-07
-2.42927e-08
3.57113e-07
-2.3262e-08
3.68356e-07
-2.22229e-08
3.7909e-07
-2.11761e-08
3.89313e-07
-2.01222e-08
3.9902e-07
-1.90623e-08
4.08211e-07
-1.79981e-08
4.16883e-07
-1.69313e-08
4.25037e-07
-1.58644e-08
4.32672e-07
-1.48001e-08
4.39792e-07
-1.37416e-08
4.46399e-07
-1.26926e-08
4.52499e-07
-1.16568e-08
4.58099e-07
-1.06384e-08
4.63209e-07
-9.64179e-09
4.67839e-07
-8.67127e-09
4.72003e-07
-7.73116e-09
4.75715e-07
-6.82559e-09
4.78993e-07
-5.95837e-09
4.81855e-07
-5.13287e-09
4.84322e-07
-4.35189e-09
4.86414e-07
-3.61758e-09
4.88154e-07
-2.93107e-09
4.89566e-07
-2.29097e-09
4.90684e-07
-1.69291e-09
4.91559e-07
-1.13513e-09
4.92222e-07
-6.21586e-10
4.92668e-07
-1.60791e-10
4.92895e-07
2.40046e-10
4.92919e-07
5.82281e-10
4.92761e-07
8.72278e-10
4.92443e-07
1.11655e-09
4.91987e-07
1.32098e-09
4.91414e-07
1.49062e-09
4.90742e-07
1.62982e-09
4.89987e-07
1.74236e-09
4.89163e-07
1.8316e-09
4.88285e-07
1.90057e-09
4.87362e-07
1.95201e-09
4.86406e-07
1.98838e-09
4.85424e-07
2.01193e-09
4.84424e-07
2.02467e-09
4.83412e-07
2.02841e-09
4.82393e-07
2.02473e-09
4.81372e-07
2.01507e-09
4.80353e-07
2.00067e-09
4.79338e-07
1.98261e-09
4.78329e-07
1.96183e-09
4.77328e-07
1.93917e-09
4.76338e-07
1.91529e-09
4.75357e-07
1.8908e-09
4.74388e-07
1.8662e-09
4.7343e-07
1.8419e-09
4.72483e-07
1.81825e-09
4.71547e-07
1.79555e-09
4.70623e-07
1.77403e-09
4.69708e-07
1.7539e-09
4.68803e-07
1.73533e-09
4.67907e-07
1.71847e-09
4.67019e-07
1.70346e-09
4.66139e-07
1.69041e-09
4.65265e-07
1.67945e-09
4.64396e-07
1.67073e-09
4.63531e-07
1.66441e-09
4.62669e-07
1.66068e-09
4.61809e-07
1.65981e-09
4.60949e-07
1.66211e-09
4.60087e-07
1.66803e-09
4.59222e-07
1.67815e-09
4.58352e-07
1.69323e-09
4.57474e-07
1.7143e-09
4.56584e-07
1.74275e-09
4.55679e-07
1.78041e-09
4.54754e-07
1.82983e-09
4.53803e-07
1.89445e-09
4.52818e-07
1.97907e-09
4.51788e-07
2.09043e-09
4.50699e-07
2.23821e-09
4.49531e-07
2.43667e-09
4.48257e-07
2.70735e-09
4.4684e-07
3.08444e-09
4.45223e-07
3.62375e-09
4.43326e-07
4.42601e-09
4.41025e-07
5.66737e-09
4.38128e-07
7.76093e-09
4.34351e-07
1.13479e-08
4.29257e-07
1.89944e-08
3.29478e-08
4.20097e-07
-1.91056e-08
3.62648e-09
-3.74822e-08
1.97948e-08
-5.52608e-08
3.09796e-08
-7.28766e-08
4.00215e-08
-9.0907e-08
4.7289e-08
-1.09766e-07
5.2938e-08
-1.29412e-07
5.72171e-08
-1.49516e-07
6.03813e-08
-1.69687e-07
6.26121e-08
-1.89577e-07
6.40178e-08
-2.08914e-07
6.46671e-08
-2.27512e-07
6.46202e-08
-2.45254e-07
6.39451e-08
-2.62085e-07
6.27211e-08
-2.77993e-07
6.10357e-08
-2.93e-07
5.89787e-08
-3.07144e-07
5.66365e-08
-3.20474e-07
5.40878e-08
-3.33042e-07
5.14011e-08
-3.44894e-07
4.8633e-08
-3.56071e-07
4.58282e-08
-3.66607e-07
4.30206e-08
-3.76528e-07
4.02337e-08
-3.85852e-07
3.74829e-08
-3.94591e-07
3.47764e-08
-4.02751e-07
3.21167e-08
-4.10335e-07
2.95025e-08
-4.17339e-07
2.6929e-08
-4.2376e-07
2.43896e-08
-4.29589e-07
2.18761e-08
-4.34818e-07
1.93799e-08
-4.39433e-07
1.68923e-08
-4.43423e-07
1.44047e-08
-4.46769e-07
1.19094e-08
-4.49454e-07
9.39893e-09
-4.51453e-07
6.86699e-09
-4.52733e-07
4.30744e-09
-4.53254e-07
1.71288e-09
-4.52969e-07
-9.27329e-10
-4.51844e-07
-3.6227e-09
-4.49852e-07
-6.37664e-09
-4.46966e-07
-9.18768e-09
-4.43162e-07
-1.20519e-08
-4.3842e-07
-1.49636e-08
-4.32724e-07
-1.79154e-08
-4.26061e-07
-2.0898e-08
-4.18422e-07
-2.39e-08
-4.09805e-07
-2.69081e-08
-4.00211e-07
-2.99073e-08
-3.89648e-07
-3.28811e-08
-3.78128e-07
-3.58115e-08
-3.65673e-07
-3.868e-08
-3.52307e-07
-4.14672e-08
-3.38064e-07
-4.41539e-08
-3.22983e-07
-4.67212e-08
-3.07107e-07
-4.91512e-08
-2.90488e-07
-5.14272e-08
-2.73181e-07
-5.35342e-08
-2.55244e-07
-5.54593e-08
-2.36741e-07
-5.71919e-08
-2.17737e-07
-5.87239e-08
-1.98299e-07
-6.00499e-08
-1.78495e-07
-6.11669e-08
-1.58393e-07
-6.20746e-08
-1.38059e-07
-6.27752e-08
-1.17559e-07
-6.3273e-08
-9.69552e-08
-6.35742e-08
-7.63075e-08
-6.36867e-08
-5.56704e-08
-6.36198e-08
-3.50934e-08
-6.33841e-08
-1.46194e-08
-6.29921e-08
5.70843e-09
-6.24564e-08
2.5839e-08
-6.1792e-08
4.57246e-08
-6.10144e-08
6.53315e-08
-6.01353e-08
8.4633e-08
-5.91662e-08
1.03604e-07
-5.81182e-08
1.22223e-07
-5.7002e-08
1.40471e-07
-5.5827e-08
1.58329e-07
-5.46019e-08
1.75786e-07
-5.33342e-08
1.92827e-07
-5.20306e-08
2.09444e-07
-5.06966e-08
2.25629e-07
-4.9337e-08
2.41374e-07
-4.79557e-08
2.56673e-07
-4.65555e-08
2.71521e-07
-4.51389e-08
2.85915e-07
-4.37076e-08
2.9985e-07
-4.22626e-08
3.13322e-07
-4.08047e-08
3.26328e-07
-3.93343e-08
3.38865e-07
-3.78517e-08
3.50929e-07
-3.63571e-08
3.62518e-07
-3.48505e-08
3.73627e-07
-3.33325e-08
3.84255e-07
-3.18037e-08
3.94398e-07
-3.02651e-08
4.04054e-07
-2.87181e-08
4.1322e-07
-2.71646e-08
4.21896e-07
-2.56073e-08
4.30081e-07
-2.40492e-08
4.37775e-07
-2.2494e-08
4.44979e-07
-2.09461e-08
4.51697e-07
-1.94103e-08
4.57932e-07
-1.78918e-08
4.6369e-07
-1.63964e-08
4.68978e-07
-1.493e-08
4.73806e-07
-1.34987e-08
4.78183e-07
-1.21085e-08
4.82123e-07
-1.07653e-08
4.85639e-07
-9.47464e-09
4.88748e-07
-8.24155e-09
4.91466e-07
-7.07038e-09
4.93813e-07
-5.96467e-09
4.95809e-07
-4.92687e-09
4.97476e-07
-3.95782e-09
4.98841e-07
-3.05729e-09
4.99931e-07
-2.22573e-09
5.00773e-07
-1.4638e-09
5.01385e-07
-7.72969e-10
5.01781e-07
-1.55483e-10
5.01974e-07
3.88989e-10
5.01983e-07
8.63815e-10
5.01825e-07
1.27409e-09
5.01521e-07
1.62544e-09
5.01088e-07
1.9235e-09
5.00544e-07
2.1737e-09
4.99905e-07
2.38112e-09
4.99186e-07
2.55053e-09
4.98401e-07
2.68639e-09
4.9756e-07
2.79281e-09
4.96674e-07
2.87362e-09
4.95754e-07
2.93232e-09
4.94807e-07
2.97209e-09
4.93839e-07
2.99585e-09
4.92858e-07
3.0062e-09
4.91867e-07
3.00547e-09
4.90872e-07
2.99574e-09
4.89876e-07
2.97883e-09
4.88882e-07
2.95634e-09
4.87891e-07
2.92967e-09
4.86906e-07
2.90002e-09
4.85929e-07
2.86843e-09
4.84959e-07
2.83576e-09
4.83998e-07
2.80277e-09
4.83046e-07
2.7701e-09
4.82104e-07
2.73827e-09
4.8117e-07
2.70773e-09
4.80245e-07
2.67886e-09
4.79328e-07
2.65197e-09
4.7842e-07
2.62734e-09
4.77518e-07
2.60521e-09
4.76622e-07
2.58581e-09
4.75732e-07
2.56935e-09
4.74847e-07
2.55605e-09
4.73965e-07
2.54618e-09
4.73086e-07
2.54005e-09
4.72208e-07
2.53801e-09
4.71329e-07
2.54056e-09
4.70449e-07
2.54833e-09
4.69565e-07
2.56213e-09
4.68675e-07
2.58305e-09
4.67777e-07
2.61255e-09
4.66867e-07
2.65256e-09
4.65942e-07
2.70571e-09
4.64996e-07
2.7755e-09
4.64024e-07
2.86678e-09
4.63017e-07
2.98621e-09
4.61964e-07
3.14309e-09
4.60852e-07
3.35072e-09
4.5966e-07
3.62843e-09
4.58362e-07
4.00513e-09
4.56921e-07
4.52565e-09
4.55283e-07
5.26171e-09
4.53372e-07
6.33679e-09
4.51078e-07
7.96117e-09
4.48266e-07
1.05732e-08
4.44744e-07
1.48703e-08
4.40821e-07
2.29174e-08
3.68882e-08
4.3688e-07
-2.40009e-08
2.76274e-08
-4.54885e-08
4.12825e-08
-6.53101e-08
5.08012e-08
-8.4003e-08
5.87144e-08
-1.02027e-07
6.53132e-08
-1.19694e-07
7.06053e-08
-1.37109e-07
7.46313e-08
-1.54211e-07
7.74833e-08
-1.70873e-07
7.92747e-08
-1.86974e-07
8.01188e-08
-2.02431e-07
8.01238e-08
-2.17207e-07
7.93963e-08
-2.31305e-07
7.80434e-08
-2.44755e-07
7.6171e-08
-2.57601e-07
7.38811e-08
-2.6989e-07
7.12682e-08
-2.81669e-07
6.84158e-08
-2.92978e-07
6.53959e-08
-3.03844e-07
6.22674e-08
-3.14288e-07
5.90775e-08
-3.24322e-07
5.58618e-08
-3.33948e-07
5.26461e-08
-3.43162e-07
4.94478e-08
-3.51956e-07
4.62769e-08
-3.60317e-07
4.31379e-08
-3.68231e-07
4.00306e-08
-3.7568e-07
3.69514e-08
-3.82645e-07
3.38938e-08
-3.89105e-07
3.08499e-08
-3.95039e-07
2.78102e-08
-4.00424e-07
2.4765e-08
-4.05236e-07
2.17039e-08
-4.09448e-07
1.86168e-08
-4.13033e-07
1.5494e-08
-4.1596e-07
1.2326e-08
-4.18197e-07
9.10414e-09
-4.1971e-07
5.8202e-09
-4.20463e-07
2.46618e-09
-4.20425e-07
-9.65316e-10
-4.19568e-07
-4.47933e-09
-4.17868e-07
-8.0774e-09
-4.15298e-07
-1.17574e-08
-4.11836e-07
-1.5514e-08
-4.0746e-07
-1.93395e-08
-4.02152e-07
-2.32234e-08
-3.95897e-07
-2.71527e-08
-3.88685e-07
-3.11117e-08
-3.80511e-07
-3.50823e-08
-3.71374e-07
-3.9044e-08
-3.61281e-07
-4.29741e-08
-3.50244e-07
-4.68487e-08
-3.38282e-07
-5.06422e-08
-3.2542e-07
-5.43289e-08
-3.11691e-07
-5.78826e-08
-2.97135e-07
-6.12781e-08
-2.81794e-07
-6.44913e-08
-2.65722e-07
-6.74999e-08
-2.48972e-07
-7.0284e-08
-2.31605e-07
-7.28265e-08
-2.13683e-07
-7.51136e-08
-1.95272e-07
-7.71347e-08
-1.76439e-07
-7.8883e-08
-1.57251e-07
-8.0355e-08
-1.37775e-07
-8.15508e-08
-1.18076e-07
-8.24736e-08
-9.82195e-08
-8.31299e-08
-7.82653e-08
-8.35285e-08
-5.82714e-08
-8.36806e-08
-3.82917e-08
-8.35995e-08
-1.83754e-08
-8.33004e-08
1.43111e-09
-8.27986e-08
2.10847e-08
-8.211e-08
4.05452e-08
-8.12525e-08
5.97749e-08
-8.02441e-08
7.87408e-08
-7.91012e-08
9.74141e-08
-7.78395e-08
1.1577e-07
-7.64741e-08
1.33787e-07
-7.50186e-08
1.51445e-07
-7.34859e-08
1.68731e-07
-7.18874e-08
1.8563e-07
-7.02331e-08
2.02131e-07
-6.85318e-08
2.18226e-07
-6.67911e-08
2.33906e-07
-6.50173e-08
2.49166e-07
-6.32155e-08
2.64e-07
-6.13898e-08
2.78404e-07
-5.95434e-08
2.92375e-07
-5.76784e-08
3.05909e-07
-5.57965e-08
3.19003e-07
-5.38987e-08
3.31655e-07
-5.19856e-08
3.4386e-07
-5.00576e-08
3.55618e-07
-4.81147e-08
3.66925e-07
-4.61572e-08
3.77778e-07
-4.41857e-08
3.88175e-07
-4.22006e-08
3.98113e-07
-4.02033e-08
4.0759e-07
-3.81955e-08
4.16605e-07
-3.61793e-08
4.25156e-07
-3.41578e-08
4.33241e-07
-3.21348e-08
4.40862e-07
-3.01147e-08
4.48019e-07
-2.81028e-08
4.54713e-07
-2.61049e-08
4.60949e-07
-2.41276e-08
4.6673e-07
-2.21778e-08
4.72063e-07
-2.02629e-08
4.76955e-07
-1.83905e-08
4.81415e-07
-1.65682e-08
4.85453e-07
-1.48036e-08
4.89082e-07
-1.31036e-08
4.92315e-07
-1.1475e-08
4.95169e-07
-9.92351e-09
4.97658e-07
-8.45419e-09
4.99802e-07
-7.07089e-09
5.01621e-07
-5.77622e-09
5.03135e-07
-4.57185e-09
5.04368e-07
-3.45896e-09
5.05342e-07
-2.43777e-09
5.06077e-07
-1.50797e-09
5.06591e-07
-6.69326e-10
5.06901e-07
7.94383e-11
5.07023e-07
7.41357e-10
5.06976e-07
1.32104e-09
5.06778e-07
1.82405e-09