/*--------------------------------*- C++ -*----------------------------------*\
  =========                 |
  \\      /  F ield         | OpenFOAM: The Open Source CFD Toolbox
   \\    /   O peration     | Website:  https://openfoam.org
    \\  /    A nd           | Version:  6
     \\/     M anipulation  |
\*---------------------------------------------------------------------------*/
FoamFile
{
    version     2.0;
    format      ascii;
    class       volVectorField;
    location    "0.13";
    object      U;
}
// * * * * * * * * * * * * * * * * * * * * * * * * * * * * * * * * * * * * * //

dimensions      [0 1 -1 0 0 0 0];

internalField   nonuniform List<vector> 
12225
(
(0.948757 -0.405569 0)
(1.01271 -0.190672 0)
(1.01479 -0.0514005 0)
(0.98348 -0.00515364 0)
(0.955506 0.00450816 0)
(0.937178 0.00421633 0)
(0.925057 0.00257061 0)
(0.916504 0.00146753 0)
(0.910162 0.000918136 0)
(0.905176 0.000658665 0)
(0.901031 0.000525422 0)
(0.897463 0.000448924 0)
(0.894328 0.000399805 0)
(0.891552 0.000365593 0)
(0.889017 0.00032381 0)
(0.887064 0.00028918 0)
(0.884548 6.17057e-05 0)
(0.888589 -0.000576204 0)
(1.03698 0.0761197 0)
(1.02002 0.0533123 0)
(1.01139 0.0193842 0)
(1.0044 0.00899359 0)
(0.998103 0.0066935 0)
(0.991425 0.0052488 0)
(0.98435 0.00398731 0)
(0.977909 0.00312202 0)
(0.9726 0.002573 0)
(0.968272 0.00219894 0)
(0.964653 0.00192939 0)
(0.961559 0.00173346 0)
(0.958868 0.00158739 0)
(0.956501 0.00147501 0)
(0.954341 0.00135792 0)
(0.952514 0.0012692 0)
(0.950394 0.000720068 0)
(0.94919 0.000760234 0)
(0.998332 0.0132103 0)
(0.995372 0.0119438 0)
(1.00086 0.00638508 0)
(1.002 0.00648779 0)
(1.00138 0.00697382 0)
(0.999543 0.00627285 0)
(0.996308 0.00519758 0)
(0.992565 0.00430194 0)
(0.989039 0.00364215 0)
(0.985914 0.0031504 0)
(0.983162 0.00278218 0)
(0.980732 0.0025083 0)
(0.978571 0.00230141 0)
(0.976637 0.00214217 0)
(0.974858 0.00199453 0)
(0.973271 0.00186837 0)
(0.971582 0.00148839 0)
(0.969929 0.0011573 0)
(0.995105 -0.00695378 0)
(0.992498 0.00123889 0)
(0.99864 0.00390916 0)
(1.00091 0.00590759 0)
(1.00176 0.00698533 0)
(1.00182 0.00672488 0)
(1.00059 0.00592666 0)
(0.998575 0.00514473 0)
(0.996371 0.0044975 0)
(0.994226 0.00397455 0)
(0.992212 0.00356152 0)
(0.990355 0.00324209 0)
(0.988652 0.00299506 0)
(0.987089 0.00280347 0)
(0.985622 0.00263794 0)
(0.984252 0.00250039 0)
(0.982803 0.00223225 0)
(0.981205 0.00205297 0)
(0.996671 -0.00694407 0)
(0.993834 0.00080929 0)
(0.998097 0.00371644 0)
(1.00016 0.00549545 0)
(1.0015 0.00669057 0)
(1.00242 0.0067661 0)
(1.00231 0.00626589 0)
(1.00143 0.0056642 0)
(1.0002 0.00510192 0)
(0.998841 0.00460835 0)
(0.99746 0.00419573 0)
(0.996113 0.0038633 0)
(0.994826 0.00360001 0)
(0.993605 0.00339497 0)
(0.992428 0.00322877 0)
(0.991283 0.00310499 0)
(0.990064 0.00295027 0)
(0.988661 0.00292808 0)
(0.997829 -0.00415381 0)
(0.995168 0.00125556 0)
(0.997913 0.00343881 0)
(0.99966 0.00498802 0)
(1.00114 0.00622479 0)
(1.00243 0.00654531 0)
(1.00295 0.00630861 0)
(1.00281 0.00589913 0)
(1.00229 0.00545651 0)
(1.00155 0.00503185 0)
(1.0007 0.00465537 0)
(0.999795 0.00433956 0)
(0.998886 0.00408389 0)
(0.997984 0.00388515 0)
(0.997083 0.00373488 0)
(0.996173 0.00364194 0)
(0.995194 0.00358643 0)
(0.994052 0.00368602 0)
(0.998452 -0.0025769 0)
(0.996223 0.00115249 0)
(0.99799 0.00299969 0)
(0.999437 0.00446182 0)
(1.00087 0.00569387 0)
(1.00226 0.00617687 0)
(1.00312 0.00615092 0)
(1.00344 0.00591684 0)
(1.00342 0.00560167 0)
(1.00315 0.00526525 0)
(1.00272 0.00494739 0)
(1.0022 0.00466971 0)
(1.00163 0.00444058 0)
(1.00102 0.00426427 0)
(1.00038 0.00414217 0)
(0.99971 0.0040886 0)
(0.998978 0.00411278 0)
(0.998123 0.00429854 0)
(0.998885 -0.00173645 0)
(0.99713 0.000959764 0)
(0.998259 0.00261631 0)
(0.999423 0.00398139 0)
(1.00071 0.00515414 0)
(1.00206 0.00573017 0)
(1.00307 0.00586119 0)
(1.00368 0.00577421 0)
(1.00399 0.00557882 0)
(1.00407 0.00533533 0)
(1.00398 0.00508683 0)
(1.00378 0.00486017 0)
(1.00349 0.00467017 0)
(1.00315 0.0045272 0)
(1.00275 0.00444015 0)
(1.00231 0.00442719 0)
(1.00183 0.00451038 0)
(1.00126 0.00474811 0)
(0.999235 -0.00112285 0)
(0.997913 0.000874447 0)
(0.998621 0.0023293 0)
(0.999544 0.00355809 0)
(1.00066 0.00463334 0)
(1.00191 0.00524773 0)
(1.00295 0.00548639 0)
(1.00372 0.00551447 0)
(1.00425 0.00542272 0)
(1.00457 0.00526704 0)
(1.00474 0.0050896 0)
(1.00479 0.00491923 0)
(1.00474 0.00477466 0)
(1.00463 0.0046704 0)
(1.00446 0.00462008 0)
(1.00424 0.00464336 0)
(1.00399 0.0047652 0)
(1.00369 0.00502426 0)
(0.999503 -0.00063668 0)
(0.998559 0.0008624 0)
(0.999004 0.00210831 0)
(0.999738 0.00318581 0)
(1.0007 0.00414458 0)
(1.00181 0.00475621 0)
(1.00283 0.00505972 0)
(1.00367 0.00517102 0)
(1.00432 0.00516263 0)
(1.00482 0.00508343 0)
(1.00517 0.00497209 0)
(1.00541 0.00485701 0)
(1.00557 0.00475849 0)
(1.00565 0.00469312 0)
(1.00568 0.00467657 0)
(1.00566 0.00472783 0)
(1.00563 0.00486926 0)
(1.00557 0.00512449 0)
(0.999694 -0.000283129 0)
(0.999065 0.000868888 0)
(0.999364 0.00192404 0)
(0.999963 0.00285439 0)
(1.00078 0.0036911 0)
(1.00177 0.0042706 0)
(1.00273 0.00460377 0)
(1.00358 0.00476902 0)
(1.0043 0.00482243 0)
(1.00491 0.00480487 0)
(1.00539 0.00475012 0)
(1.00578 0.00468442 0)
(1.00609 0.00462781 0)
(1.00634 0.00459703 0)
(1.00654 0.00460765 0)
(1.0067 0.00467628 0)
(1.00685 0.00482031 0)
(1.00701 0.00505232 0)
(0.999811 -6.59145e-05 0)
(0.999413 0.000867276 0)
(0.999651 0.00177001 0)
(1.00017 0.00257607 0)
(1.00089 0.00330386 0)
(1.00177 0.00383675 0)
(1.00267 0.00417254 0)
(1.0035 0.00436454 0)
(1.00425 0.00445584 0)
(1.00491 0.00448007 0)
(1.00548 0.00446608 0)
(1.00597 0.00443717 0)
(1.00639 0.00441186 0)
(1.00675 0.00440572 0)
(1.00708 0.0044328 0)
(1.00738 0.00450667 0)
(1.00768 0.00463981 0)
(1.00799 0.0048375 0)
(0.999891 7.39876e-05 0)
(0.999671 0.000851638 0)
(0.999889 0.001621 0)
(1.00035 0.00231386 0)
(1.001 0.00293921 0)
(1.00179 0.00341694 0)
(1.00262 0.00373941 0)
(1.00343 0.00394174 0)
(1.00419 0.00405608 0)
(1.00488 0.00410938 0)
(1.0055 0.00412554 0)
(1.00606 0.00412456 0)
(1.00656 0.00412268 0)
(1.00703 0.00413356 0)
(1.00746 0.00416901 0)
(1.00787 0.00423935 0)
(1.00829 0.00435253 0)
(1.00873 0.00450831 0)
(0.999949 0.000160667 0)
(0.999875 0.000806992 0)
(1.0001 0.00144788 0)
(1.00053 0.00202513 0)
(1.00112 0.0025423 0)
(1.00183 0.00295113 0)
(1.0026 0.00324293 0)
(1.00336 0.00343911 0)
(1.00411 0.00356241 0)
(1.00481 0.00363313 0)
(1.00547 0.00366981 0)
(1.00609 0.00368838 0)
(1.00666 0.00370199 0)
(1.00721 0.00372146 0)
(1.00773 0.00375561 0)
(1.00825 0.00381112 0)
(1.00878 0.00389165 0)
(1.00932 0.00399312 0)
(0.999985 0.000194221 0)
(1.00002 0.000720275 0)
(1.00026 0.00123538 0)
(1.00067 0.00169646 0)
(1.00122 0.00210349 0)
(1.00187 0.00243246 0)
(1.00258 0.00267697 0)
(1.00331 0.00284927 0)
(1.00403 0.00296461 0)
(1.00473 0.00303726 0)
(1.00541 0.00308043 0)
(1.00607 0.00310561 0)
(1.00669 0.00312224 0)
(1.0073 0.00313773 0)
(1.0079 0.00315751 0)
(1.0085 0.00318478 0)
(1.0091 0.00321972 0)
(1.00973 0.00325606 0)
(1 0.000180566 0)
(1.0001 0.000583585 0)
(1.00036 0.000969101 0)
(1.00077 0.0013108 0)
(1.00129 0.00160661 0)
(1.00189 0.00184725 0)
(1.00256 0.00202982 0)
(1.00325 0.00216116 0)
(1.00395 0.00225078 0)
(1.00465 0.00230782 0)
(1.00533 0.00234061 0)
(1.006 0.00235624 0)
(1.00666 0.0023603 0)
(1.00731 0.00235672 0)
(1.00795 0.00234771 0)
(1.00859 0.00233358 0)
(1.00925 0.00231222 0)
(1.00991 0.0022765 0)
(1.00001 0.000130047 0)
(1.00014 0.000394056 0)
(1.00041 0.000638417 0)
(1.00081 0.000850954 0)
(1.00131 0.00103012 0)
(1.00189 0.00117356 0)
(1.00252 0.00128085 0)
(1.00319 0.00135554 0)
(1.00387 0.00140269 0)
(1.00455 0.00142703 0)
(1.00523 0.00143259 0)
(1.0059 0.00142248 0)
(1.00657 0.00139875 0)
(1.00723 0.00136226 0)
(1.00788 0.00131265 0)
(1.00854 0.00124831 0)
(1.0092 0.00116597 0)
(1.00987 0.00105876 0)
(1.00001 5.35952e-05 0)
(1.00015 0.000153937 0)
(1.00041 0.000237257 0)
(1.00081 0.000302356 0)
(1.0013 0.000351021 0)
(1.00186 0.000383885 0)
(1.00247 0.000401342 0)
(1.00311 0.00040451 0)
(1.00377 0.000394546 0)
(1.00444 0.00037212 0)
(1.00511 0.000337375 0)
(1.00577 0.000289924 0)
(1.00642 0.0002288 0)
(1.00707 0.00015244 0)
(1.00771 5.86992e-05 0)
(1.00834 -5.51048e-05 0)
(1.00897 -0.000192486 0)
(1.00959 -0.000359498 0)
(1.00001 -3.89115e-05 0)
(1.00013 -0.000130706 0)
(1.00038 -0.00023814 0)
(1.00076 -0.000348481 0)
(1.00123 -0.000453823 0)
(1.00178 -0.000551696 0)
(1.00239 -0.00064137 0)
(1.00302 -0.000723891 0)
(1.00367 -0.00080203 0)
(1.00432 -0.000879305 0)
(1.00497 -0.000959344 0)
(1.00561 -0.00104576 0)
(1.00623 -0.00114211 0)
(1.00684 -0.00125189 0)
(1.00744 -0.00137848 0)
(1.00801 -0.00152513 0)
(1.00857 -0.00169523 0)
(1.00911 -0.00189388 0)
(1 -0.000104155 0)
(1.00007 -0.000363011 0)
(1.00027 -0.000657581 0)
(1.00062 -0.000943537 0)
(1.00109 -0.00120468 0)
(1.00164 -0.00143549 0)
(1.00226 -0.0016315 0)
(1.00291 -0.00179446 0)
(1.00357 -0.00193127 0)
(1.00423 -0.00204987 0)
(1.00487 -0.00215767 0)
(1.00549 -0.00226146 0)
(1.00609 -0.00236736 0)
(1.00666 -0.0024807 0)
(1.00719 -0.00260609 0)
(1.0077 -0.00274743 0)
(1.00818 -0.00290823 0)
(1.00863 -0.00309305 0)
(0.99998 -9.47606e-05 0)
(0.999917 -0.000472085 0)
(1.00003 -0.000945525 0)
(1.00036 -0.0013969 0)
(1.00084 -0.00180696 0)
(1.00143 -0.00216392 0)
(1.0021 -0.00245329 0)
(1.0028 -0.00267812 0)
(1.0035 -0.0028519 0)
(1.00418 -0.00298827 0)
(1.00483 -0.00309911 0)
(1.00544 -0.00319496 0)
(1.00601 -0.00328489 0)
(1.00653 -0.00337635 0)
(1.00702 -0.00347532 0)
(1.00745 -0.00358655 0)
(1.00785 -0.00371391 0)
(1.00821 -0.00386177 0)
(0.999911 4.1953e-05 0)
(0.999575 -0.000444213 0)
(0.999574 -0.00114063 0)
(0.999909 -0.00178521 0)
(1.00045 -0.00237313 0)
(1.00114 -0.00287241 0)
(1.00192 -0.00325027 0)
(1.00271 -0.00351864 0)
(1.00348 -0.00370489 0)
(1.00419 -0.00383176 0)
(1.00484 -0.00391764 0)
(1.00543 -0.00397839 0)
(1.00595 -0.00402689 0)
(1.0064 -0.00407303 0)
(1.0068 -0.00412422 0)
(1.00714 -0.004186 0)
(1.00744 -0.00426247 0)
(1.00768 -0.00435777 0)
(0.999762 0.000363168 0)
(0.998937 -0.000299946 0)
(0.998834 -0.0012893 0)
(0.999269 -0.00216084 0)
(0.999961 -0.00296907 0)
(1.00084 -0.00362346 0)
(1.0018 -0.00406725 0)
(1.00272 -0.00434146 0)
(1.00354 -0.00449951 0)
(1.00426 -0.00457739 0)
(1.00487 -0.00460237 0)
(1.00538 -0.004597 0)
(1.0058 -0.00457829 0)
(1.00614 -0.00455817 0)
(1.0064 -0.00454489 0)
(1.0066 -0.00454413 0)
(1.00675 -0.00455968 0)
(1.00684 -0.00459496 0)
(0.999511 0.00098871 0)
(0.997899 -0.000127241 0)
(0.997826 -0.00151082 0)
(0.998528 -0.00261886 0)
(0.999499 -0.00367389 0)
(1.00067 -0.0044646 0)
(1.00186 -0.00491596 0)
(1.00287 -0.005131 0)
(1.00369 -0.00520246 0)
(1.00433 -0.0051822 0)
(1.00481 -0.00510732 0)
(1.00515 -0.00500691 0)
(1.00537 -0.00490076 0)
(1.00551 -0.00480115 0)
(1.00556 -0.00471558 0)
(1.00556 -0.00464858 0)
(1.0055 -0.00460255 0)
(1.00541 -0.00457952 0)
(0.99898 0.00255888 0)
(0.996246 0.000256944 0)
(0.99664 -0.00185154 0)
(0.997898 -0.00325192 0)
(0.999271 -0.00455119 0)
(1.0008 -0.00540112 0)
(1.00217 -0.00575589 0)
(1.00316 -0.00582099 0)
(1.00382 -0.00573655 0)
(1.00421 -0.00556879 0)
(1.0044 -0.00536227 0)
(1.00443 -0.00514929 0)
(1.00433 -0.0049487 0)
(1.00416 -0.00476981 0)
(1.00392 -0.0046169 0)
(1.00364 -0.00449158 0)
(1.00332 -0.00439367 0)
(1.00299 -0.00432301 0)
(0.997456 0.00616061 0)
(0.993452 0.00157017 0)
(0.995356 -0.0019753 0)
(0.997669 -0.00399436 0)
(0.999544 -0.00557381 0)
(1.00136 -0.00635417 0)
(1.00271 -0.00647235 0)
(1.00341 -0.00628612 0)
(1.00361 -0.0059822 0)
(1.00349 -0.00563387 0)
(1.00316 -0.00528544 0)
(1.00269 -0.00496476 0)
(1.00214 -0.00468342 0)
(1.00154 -0.00444337 0)
(1.00093 -0.00424292 0)
(1.0003 -0.00407928 0)
(0.999679 -0.00394893 0)
(0.999067 -0.00384899 0)
(0.994437 0.00859919 0)
(0.989458 0.00234149 0)
(0.994152 -0.00187433 0)
(0.998092 -0.00469575 0)
(1.00053 -0.00658191 0)
(1.00234 -0.00712413 0)
(1.00319 -0.00685762 0)
(1.00305 -0.0063402 0)
(1.00234 -0.00578956 0)
(1.00134 -0.00526806 0)
(1.00021 -0.00480505 0)
(0.99904 -0.00441288 0)
(0.99788 -0.0040888 0)
(0.99676 -0.00382371 0)
(0.995691 -0.00360849 0)
(0.994674 -0.00343573 0)
(0.993708 -0.00329901 0)
(0.992795 -0.00319226 0)
(0.994525 -0.00665302 0)
(0.989492 -0.0085169 0)
(0.995496 -0.00526332 0)
(1.00003 -0.00617396 0)
(1.0024 -0.00754774 0)
(1.00331 -0.00748547 0)
(1.00255 -0.00668082 0)
(1.00062 -0.00580997 0)
(0.998269 -0.00505791 0)
(0.995904 -0.00443365 0)
(0.993663 -0.00392856 0)
(0.99159 -0.0035298 0)
(0.989695 -0.00321762 0)
(0.987969 -0.00297211 0)
(0.986394 -0.00277821 0)
(0.984949 -0.00262602 0)
(0.983618 -0.00250877 0)
(0.982391 -0.00241466 0)
(1.02649 -0.0702276 0)
(1.0171 -0.0623856 0)
(1.01186 -0.0292031 0)
(1.00849 -0.0148468 0)
(1.00569 -0.0102941 0)
(1.00183 -0.00779634 0)
(0.996587 -0.00591733 0)
(0.990989 -0.00463196 0)
(0.985911 -0.00378963 0)
(0.981579 -0.00320817 0)
(0.977896 -0.00278537 0)
(0.97473 -0.00247223 0)
(0.971983 -0.00223755 0)
(0.969574 -0.00205838 0)
(0.967438 -0.00191982 0)
(0.965522 -0.00181475 0)
(0.963794 -0.00174232 0)
(0.96224 -0.0017254 0)
(0.966187 0.350228 0)
(1.02694 0.194273 0)
(1.03276 0.067929 0)
(1.00467 0.0152799 0)
(0.976484 -0.00125036 0)
(0.956522 -0.00429924 0)
(0.942748 -0.00358093 0)
(0.932864 -0.00243084 0)
(0.92558 -0.00161325 0)
(0.920011 -0.00112277 0)
(0.915529 -0.000837313 0)
(0.911763 -0.000668623 0)
(0.908512 -0.000565779 0)
(0.905651 -0.000500413 0)
(0.903095 -0.000457355 0)
(0.900776 -0.000431111 0)
(0.89863 -0.00041812 0)
(0.896608 -0.000468591 0)
(0.00835355 -0.0350138 -2.34154e-21)
(0.0214167 -0.0294077 2.18314e-21)
(0.0263277 -0.0116482 0)
(0.022037 0.00427611 0)
(0.0117333 0.0128116 0)
(-0.00123423 0.015476 -2.13631e-21)
(-0.0153613 0.016353 0)
(-0.0305997 0.0171991 0)
(-0.0469748 0.0183339 0)
(-0.0645029 0.0196736 0)
(-0.0831406 0.0210577 1.84282e-21)
(-0.102768 0.0223411 0)
(-0.123203 0.0234134 0)
(-0.144221 0.0242027 0)
(-0.165579 0.0246726 0)
(-0.18703 0.0248164 1.73753e-21)
(-0.208341 0.0246502 0)
(-0.229303 0.0242061 0)
(-0.249734 0.0235251 0)
(-0.269486 0.0226517 0)
(-0.28844 0.0216297 0)
(-0.306509 0.0204992 0)
(-0.323631 0.0192946 0)
(-0.339766 0.0180441 1.7746e-21)
(-0.354889 0.0167692 -1.77969e-21)
(-0.368991 0.0154853 1.78312e-21)
(-0.38207 0.0142023 1.78456e-21)
(-0.39413 0.0129255 0)
(-0.405176 0.0116566 0)
(-0.415215 0.0103945 -1.77449e-21)
(-0.424252 0.00913685 -1.76568e-21)
(-0.432286 0.00788033 0)
(-0.439315 0.00662227 0)
(-0.44533 0.00536222 -1.72057e-21)
(-0.45032 0.00410333 0)
(-0.454274 0.00285383 0)
(-0.457183 0.00163447 1.64437e-21)
(-0.459015 0.000481059 0)
(-0.459746 -0.000574549 1.57337e-21)
(-0.459444 -0.00152538 3.05938e-21)
(-0.458236 -0.00240562 0)
(-0.456114 -0.00325784 0)
(-0.453084 -0.00410029 0)
(-0.449143 -0.00494055 0)
(-0.444282 -0.00578124 0)
(-0.438492 -0.00662228 2.31744e-21)
(-0.431766 -0.00746202 2.15473e-21)
(-0.4241 -0.00829783 1.98035e-21)
(-0.415494 -0.00912641 0)
(-0.40595 -0.00994399 -1.59623e-21)
(-0.395478 -0.0107465 0)
(-0.384094 -0.0115297 1.16517e-21)
(-0.371817 -0.0122892 9.32362e-22)
(-0.358675 -0.0130208 0)
(-0.344699 -0.0137204 0)
(-0.329929 -0.0143842 0)
(-0.314407 -0.0150087 -1.07249e-22)
(-0.298184 -0.0155911 0)
(-0.281312 -0.016129 0)
(-0.263849 -0.0166205 0)
(-0.245855 -0.0170644 0)
(-0.227392 -0.0174602 0)
(-0.208525 -0.0178076 0)
(-0.189319 -0.0181068 0)
(-0.169839 -0.018358 0)
(-0.150148 -0.0185613 2.93309e-21)
(-0.130312 -0.0187155 0)
(-0.110392 -0.0188177 0)
(-0.0904517 -0.0188611 -3.95846e-21)
(-0.0705539 -0.018833 -4.30326e-21)
(-0.0507628 -0.0187114 0)
(-0.0311398 -0.0184643 4.99352e-21)
(-0.0117231 -0.018061 -5.2874e-21)
(0.00748642 -0.0175243 0)
(0.0264827 -0.0169313 5.44606e-21)
(0.0452254 -0.0163314 0)
(0.0636714 -0.0157364 0)
(0.0817926 -0.0151502 -5.44245e-21)
(0.099568 -0.0145747 0)
(0.11698 -0.0140108 5.3937e-21)
(0.134014 -0.0134589 0)
(0.150658 -0.0129194 -5.31864e-21)
(0.1669 -0.0123921 -5.27355e-21)
(0.182731 -0.011877 -5.22447e-21)
(0.198144 -0.0113737 -1.03442e-20)
(0.213131 -0.010882 1.0234e-20)
(0.227685 -0.0104014 0)
(0.241801 -0.00993143 0)
(0.255472 -0.00947151 0)
(0.268694 -0.00902113 9.76005e-21)
(0.28146 -0.00857975 9.63744e-21)
(0.293765 -0.00814687 -9.51459e-21)
(0.305604 -0.00772206 0)
(0.31697 -0.00730497 9.27038e-21)
(0.32786 -0.00689531 9.15001e-21)
(0.338266 -0.00649294 9.03135e-21)
(0.348186 -0.00609783 0)
(0.357613 -0.00571008 0)
(0.366545 -0.00532991 0)
(0.374978 -0.0049577 8.58064e-21)
(0.382911 -0.00459396 0)
(0.390343 -0.00423932 0)
(0.397276 -0.00389452 -8.27447e-21)
(0.403714 -0.00356039 0)
(0.40966 -0.0032378 0)
(0.415122 -0.00292767 -7.99978e-21)
(0.420111 -0.00263091 0)
(0.424637 -0.00234839 0)
(0.428715 -0.0020809 7.7573e-21)
(0.432362 -0.00182913 7.6834e-21)
(0.435595 -0.00159363 0)
(0.438434 -0.00137473 -7.5454e-21)
(0.440902 -0.00117249 0)
(0.443022 -0.000987044 7.41954e-21)
(0.444816 -0.000818579 0)
(0.446308 -0.000664809 7.30471e-21)
(0.447517 -0.000514947 7.2513e-21)
(0.448443 -0.000352941 0)
(0.44905 -0.000188703 0)
(0.449397 -5.53533e-05 0)
(0.449552 3.52391e-05 0)
(0.449558 9.39607e-05 0)
(0.449451 0.000132494 0)
(0.449255 0.000157977 0)
(0.448991 0.000174717 6.89063e-21)
(0.448673 0.000185264 -6.85149e-21)
(0.448314 0.000191149 0)
(0.447925 0.000193387 0)
(0.447515 0.00019272 0)
(0.447092 0.000189737 0)
(0.446661 0.000184924 -1.33378e-20)
(0.44623 0.000178686 0)
(0.445802 0.000171368 1.32016e-20)
(0.445381 0.00016326 -1.31351e-20)
(0.444971 0.000154604 0)
(0.444573 0.000145602 0)
(0.44419 0.000136422 0)
(0.443823 0.000127201 1.2879e-20)
(0.443473 0.00011805 1.2817e-20)
(0.443141 0.000109061 0)
(0.442827 0.000100304 1.26951e-20)
(0.442532 9.18356e-05 1.26351e-20)
(0.442254 8.36984e-05 -1.25756e-20)
(0.441995 7.59234e-05 0)
(0.441753 6.8533e-05 0)
(0.441528 6.15426e-05 -1.24004e-20)
(0.44132 5.49628e-05 0)
(0.441127 4.88009e-05 0)
(0.440949 4.30615e-05 0)
(0.440786 3.77478e-05 0)
(0.440635 3.28626e-05 1.21169e-20)
(0.440497 2.84097e-05 1.20614e-20)
(0.44037 2.43949e-05 0)
(0.440254 2.08271e-05 1.19513e-20)
(0.440147 1.772e-05 0)
(0.440048 1.50949e-05 0)
(0.439955 1.29821e-05 1.17887e-20)
(0.439868 1.14245e-05 0)
(0.439785 1.04817e-05 1.16821e-20)
(0.439704 1.02353e-05 0)
(0.439622 1.07962e-05 0)
(0.439538 1.23142e-05 1.15255e-20)
(0.439448 1.49903e-05 0)
(0.439348 1.90954e-05 1.14238e-20)
(0.439233 2.49954e-05 0)
(0.439098 3.31874e-05 0)
(0.438934 4.43537e-05 0)
(0.438729 5.94428e-05 -1.12317e-20)
(0.438471 7.97965e-05 0)
(0.438139 0.000107353 1.11456e-20)
(0.437705 0.000144995 0)
(0.43713 0.000197147 0)
(0.436357 0.000270988 0)
(0.435293 0.000378472 0)
(0.433802 0.000542434 0)
(0.431605 0.000802576 0)
(0.428344 0.00126845 0)
(0.422631 0.00207124 -2.22767e-20)
(0.414543 0.00409665 0)
(0.391267 0.00671446 0)
(-0.00538743 -0.0379683 6.48204e-21)
(-0.00750416 -0.00960364 -5.49504e-21)
(-0.016831 0.0112649 0)
(-0.0283977 0.0271069 2.86706e-21)
(-0.0422435 0.037961 0)
(-0.0581935 0.0447624 1.31454e-21)
(-0.0761353 0.0493074 -2.48598e-21)
(-0.0956556 0.0528195 -2.40978e-21)
(-0.11623 0.0557718 0)
(-0.137404 0.058232 -2.30554e-21)
(-0.158797 0.0601243 -1.15404e-21)
(-0.180085 0.0613607 0)
(-0.200989 0.0618911 0)
(-0.221278 0.0617142 0)
(-0.240772 0.0608714 0)
(-0.259338 0.0594363 -1.14065e-21)
(-0.276888 0.0575016 0)
(-0.293374 0.0551678 2.3218e-21)
(-0.308778 0.0525347 0)
(-0.323108 0.0496942 0)
(-0.336391 0.0467268 -2.39792e-21)
(-0.348665 0.043699 0)
(-0.359972 0.0406635 2.44332e-21)
(-0.370358 0.0376592 -1.22926e-21)
(-0.379869 0.0347131 1.23722e-21)
(-0.388546 0.0318421 -1.24328e-21)
(-0.396426 0.0290542 -1.24723e-21)
(-0.403544 0.0263513 0)
(-0.409926 0.0237301 0)
(-0.415598 0.0211838 1.24487e-21)
(-0.420579 0.0187035 -1.24783e-21)
(-0.424887 0.0162791 0)
(-0.428538 0.0139 0)
(-0.431547 0.0115562 1.20466e-21)
(-0.433927 0.00923924 0)
(-0.435695 0.00694371 0)
(-0.436865 0.00467236 -1.14425e-21)
(-0.437454 0.00244137 0)
(-0.437478 0.000274597 1.11943e-21)
(-0.43688 -0.00182166 -2.10655e-21)
(-0.435514 -0.00386819 0)
(-0.433339 -0.00588978 0)
(-0.430322 -0.00789988 -3.81515e-21)
(-0.426436 -0.00990347 -3.63211e-21)
(-0.421663 -0.0119003 -3.43537e-21)
(-0.415989 -0.0138866 1.67758e-21)
(-0.409405 -0.0158564 -1.42998e-21)
(-0.401904 -0.0178017 -4.06973e-21)
(-0.393487 -0.0197135 2.51359e-21)
(-0.384155 -0.0215817 1.03848e-21)
(-0.373918 -0.0233954 0)
(-0.36279 -0.0251437 -7.47211e-22)
(-0.350792 -0.0268154 7.98338e-22)
(-0.337948 -0.0283996 0)
(-0.32429 -0.029886 0)
(-0.309856 -0.031265 0)
(-0.294688 -0.0325284 6.61472e-23)
(-0.278833 -0.033669 0)
(-0.262344 -0.0346812 -5.76267e-22)
(-0.245275 -0.035561 0)
(-0.227686 -0.0363062 -1.28011e-21)
(-0.209636 -0.036916 0)
(-0.191188 -0.0373916 1.99501e-21)
(-0.172405 -0.0377354 0)
(-0.15335 -0.0379512 -2.71363e-21)
(-0.134083 -0.0380441 1.39308e-21)
(-0.114666 -0.0380196 0)
(-0.0951558 -0.0378839 3.7846e-21)
(-0.0756064 -0.0376425 2.21252e-21)
(-0.056067 -0.0373003 2.38707e-21)
(-0.03658 -0.0368599 0)
(-0.0171812 -0.0363202 2.44718e-21)
(0.00208504 -0.0356766 2.85457e-21)
(0.0211551 -0.0349347 0)
(0.0399793 -0.0341216 -3.00213e-21)
(0.0585351 -0.0332635 5.88205e-21)
(0.0768072 -0.0323753 0)
(0.0947759 -0.0314664 3.16374e-21)
(0.112422 -0.0305431 0)
(0.129727 -0.0296103 -9.50369e-21)
(0.146676 -0.0286721 0)
(0.163258 -0.0277317 9.67036e-21)
(0.17946 -0.0267919 3.30292e-21)
(0.195273 -0.0258547 -3.14562e-21)
(0.210689 -0.0249219 -6.32481e-21)
(0.225701 -0.0239946 6.35032e-21)
(0.240302 -0.0230737 0)
(0.254488 -0.0221598 0)
(0.268252 -0.021253 0)
(0.281589 -0.0203535 -1.96456e-20)
(0.294496 -0.0194613 -6.61117e-21)
(0.306967 -0.0185763 6.58871e-21)
(0.318997 -0.0176985 0)
(0.330582 -0.0168277 6.34437e-21)
(0.341718 -0.0159643 -6.50403e-21)
(0.352399 -0.0151084 -6.47154e-21)
(0.362621 -0.0142606 0)
(0.372381 -0.0134215 0)
(0.381675 -0.0125922 0)
(0.3905 -0.011774 -6.33041e-21)
(0.398853 -0.0109684 0)
(0.406735 -0.0101771 1.24102e-20)
(0.414144 -0.00940225 1.85675e-20)
(0.421083 -0.00864601 -1.22829e-20)
(0.427554 -0.00791074 0)
(0.433562 -0.00719887 -6.04281e-21)
(0.439113 -0.00651283 0)
(0.444217 -0.00585501 -1.20369e-20)
(0.448883 -0.00522762 5.96275e-21)
(0.453123 -0.0046327 5.93683e-21)
(0.456952 -0.00407194 0)
(0.460386 -0.00354666 1.77323e-20)
(0.463441 -0.00305774 -1.17553e-20)
(0.466137 -0.00260558 -5.86533e-21)
(0.468494 -0.00218965 0)
(0.470532 -0.00180679 -5.81031e-21)
(0.472277 -0.001449 -1.73331e-20)
(0.473763 -0.0011091 0)
(0.475054 -0.000797222 -1.14513e-20)
(0.476148 -0.000532246 -1.14026e-20)
(0.477032 -0.000317757 -1.1352e-20)
(0.477716 -0.000145459 0)
(0.478218 -6.9387e-06 0)
(0.47856 0.000103993 0)
(0.478763 0.000192133 5.57504e-21)
(0.478848 0.00026119 5.55369e-21)
(0.478832 0.000314094 0)
(0.478732 0.00035327 1.10085e-20)
(0.478563 0.000380793 1.09608e-20)
(0.478339 0.000398467 0)
(0.478071 0.000407874 1.0866e-20)
(0.477769 0.000410405 2.16391e-20)
(0.477442 0.000407284 -1.07721e-20)
(0.477097 0.000399578 -1.07278e-20)
(0.476743 0.000388219 0)
(0.476383 0.000374012 0)
(0.476023 0.00035765 0)
(0.475667 0.000339723 -1.05431e-20)
(0.475318 0.000320735 1.05006e-20)
(0.474979 0.000301106 2.09092e-20)
(0.474652 0.00028119 -1.04089e-20)
(0.474338 0.000261277 1.03669e-20)
(0.474038 0.000241604 1.03207e-20)
(0.473753 0.000222362 0)
(0.473484 0.000203704 0)
(0.473232 0.000185751 -1.01914e-20)
(0.472995 0.000168596 0)
(0.472774 0.000152313 0)
(0.472568 0.000136957 2.01221e-20)
(0.472378 0.000122573 0)
(0.472202 0.000109192 9.97591e-21)
(0.47204 9.68453e-05 -9.93255e-21)
(0.47189 8.55581e-05 0)
(0.471753 7.53593e-05 9.8485e-21)
(0.471628 6.62843e-05 0)
(0.471512 5.83798e-05 0)
(0.471406 5.17095e-05 -9.72231e-21)
(0.471308 4.63616e-05 1.93616e-20)
(0.471216 4.2457e-05 -9.63937e-21)
(0.47113 4.01616e-05 0)
(0.471047 3.97011e-05 0)
(0.470966 4.13804e-05 9.5166e-21)
(0.470884 4.56112e-05 0)
(0.470798 5.29485e-05 9.43649e-21)
(0.470705 6.41433e-05 0)
(0.4706 8.02163e-05 0)
(0.470478 0.000102567 0)
(0.470331 0.000133137 9.28433e-21)
(0.470149 0.000174662 0)
(0.46992 0.000231078 -9.21551e-21)
(0.469627 0.0003082 0)
(0.469244 0.000414883 0)
(0.468739 0.000565308 1.82659e-20)
(0.468061 0.00078289 -1.82309e-20)
(0.467145 0.00111092 0)
(0.465861 0.00162583 0)
(0.46412 0.00251631 0)
(0.461382 0.00405949 5.5132e-20)
(0.458314 0.00752182 0)
(0.451805 0.0133557 -3.77017e-20)
(-0.0164134 -0.00974308 -2.16538e-22)
(-0.026578 0.0192164 6.1195e-21)
(-0.0408282 0.0403061 0)
(-0.0564454 0.0570928 -4.43929e-21)
(-0.0724147 0.0700371 0)
(-0.0888941 0.0795868 0)
(-0.106114 0.0865121 -8.47579e-24)
(-0.123923 0.091517 1.84091e-21)
(-0.141977 0.0950324 1.82497e-21)
(-0.159935 0.0972612 1.77238e-21)
(-0.177518 0.0982931 0)
(-0.194524 0.098194 0)
(-0.21082 0.0970491 -1.78682e-21)
(-0.226331 0.0949741 -3.5863e-21)
(-0.24103 0.0921094 3.60646e-21)
(-0.254925 0.0886078 0)
(-0.268044 0.0846227 3.66089e-21)
(-0.280427 0.0802978 -1.80865e-21)
(-0.29212 0.0757604 0)
(-0.303166 0.0711176 3.75334e-21)
(-0.313604 0.0664547 1.86459e-21)
(-0.323468 0.0618365 -3.8085e-21)
(-0.332783 0.0573087 -1.89573e-21)
(-0.341567 0.0529008 0)
(-0.349834 0.048629 3.86604e-21)
(-0.35759 0.0444993 3.87627e-21)
(-0.364839 0.0405096 0)
(-0.371579 0.0366527 3.88063e-21)
(-0.377806 0.0329179 0)
(-0.383515 0.0292924 3.86098e-21)
(-0.388696 0.025763 1.90833e-21)
(-0.393338 0.022317 0)
(-0.397431 0.0189426 0)
(-0.400959 0.0156296 0)
(-0.403906 0.0123694 0)
(-0.406252 0.00915431 0)
(-0.407971 0.0059762 0)
(-0.409026 0.00282231 3.49153e-21)
(-0.409378 -0.00032913 -5.07561e-21)
(-0.408988 -0.0034983 0)
(-0.407826 -0.00668903 0)
(-0.405867 -0.00989559 0)
(-0.403087 -0.0131114 -8.41691e-23)
(-0.399463 -0.0163294 2.71675e-21)
(-0.394979 -0.0195409 5.22127e-21)
(-0.389619 -0.0227358 -4.89921e-21)
(-0.383372 -0.0259015 -2.33447e-21)
(-0.37623 -0.0290242 2.04143e-21)
(-0.368192 -0.032088 1.23216e-22)
(-0.359259 -0.0350761 1.7803e-21)
(-0.34944 -0.0379708 0)
(-0.338747 -0.040754 1.37105e-21)
(-0.327199 -0.0434076 1.46467e-22)
(-0.314822 -0.045914 0)
(-0.301646 -0.0482566 0)
(-0.287708 -0.0504203 -4.778e-22)
(-0.27305 -0.0523916 0)
(-0.257718 -0.0541595 0)
(-0.241762 -0.0557151 -6.32329e-23)
(-0.225239 -0.0570523 -9.56157e-22)
(-0.208204 -0.0581677 8.99893e-22)
(-0.190718 -0.0590606 0)
(-0.172842 -0.059733 -1.39149e-21)
(-0.154636 -0.0601892 0)
(-0.136162 -0.0604359 -1.50597e-21)
(-0.11748 -0.0604817 -2.1184e-21)
(-0.0986472 -0.0603369 4.33612e-21)
(-0.0797205 -0.060013 2.21393e-21)
(-0.0607517 -0.0595226 0)
(-0.0417884 -0.0588792 -5.72282e-21)
(-0.0228728 -0.0580973 0)
(-0.00404379 -0.0571927 -1.00408e-20)
(0.0146562 -0.0561837 -6.88829e-21)
(0.0331803 -0.0550883 -7.16867e-21)
(0.0514891 -0.0539183 7.42889e-21)
(0.0695554 -0.0526836 -1.16687e-20)
(0.087356 -0.0513951 0)
(0.104869 -0.0500634 0)
(0.122074 -0.0486979 8.2782e-21)
(0.138954 -0.0473069 1.28111e-20)
(0.155495 -0.0458977 0)
(0.171683 -0.0444762 -4.49805e-21)
(0.187509 -0.0430478 0)
(0.202963 -0.0416167 1.357e-20)
(0.218037 -0.0401862 2.28516e-22)
(0.232725 -0.038759 -2.18085e-22)
(0.247021 -0.037337 -9.22282e-21)
(0.26092 -0.0359218 0)
(0.274418 -0.0345142 9.34206e-21)
(0.28751 -0.0331148 1.78511e-22)
(0.300192 -0.031724 0)
(0.31246 -0.030342 0)
(0.324309 -0.0289689 0)
(0.335737 -0.0276049 -9.64848e-21)
(0.34674 -0.0262503 0)
(0.357312 -0.0249057 0)
(0.367452 -0.0235718 0)
(0.377154 -0.0222498 0)
(0.386416 -0.0209412 0)
(0.395236 -0.0196478 -9.54318e-21)
(0.403611 -0.018372 0)
(0.411539 -0.0171163 -9.6173e-21)
(0.419022 -0.0158837 -9.60453e-21)
(0.426059 -0.0146776 9.59086e-21)
(0.432652 -0.0135015 0)
(0.438805 -0.012359 9.56158e-21)
(0.444523 -0.011254 0)
(0.449812 -0.01019 9.53049e-21)
(0.45468 -0.00917069 -9.51442e-21)
(0.459138 -0.00819925 -2.84149e-20)
(0.463197 -0.00727859 0)
(0.46687 -0.00641112 -2.83288e-20)
(0.470172 -0.00559863 -9.39003e-21)
(0.47312 -0.00484227 0)
(0.47573 -0.00414227 -1.87749e-20)
(0.478023 -0.00349751 -1.87414e-20)
(0.480019 -0.00290604 2.80759e-20)
(0.481746 -0.00236699 0)
(0.483232 -0.00187994 9.32785e-21)
(0.484496 -0.0014454 9.306e-21)
(0.485551 -0.00106477 2.78263e-20)
(0.48641 -0.000737153 0)
(0.487086 -0.000459 0)
(0.487599 -0.000225442 0)
(0.487965 -3.14288e-05 9.15909e-21)
(0.488203 0.000127785 0)
(0.48833 0.000256498 0)
(0.488361 0.000358583 -9.07418e-21)
(0.488313 0.000437527 -9.04206e-21)
(0.488197 0.000496472 0)
(0.488027 0.000538254 0)
(0.487812 0.000565425 -1.78863e-20)
(0.487563 0.000580268 0)
(0.487289 0.000584823 1.77512e-20)
(0.486995 0.000580894 1.7684e-20)
(0.48669 0.000570072 0)
(0.486377 0.000553747 0)
(0.486062 0.000533127 -1.74779e-20)
(0.485749 0.000509254 1.66991e-24)
(0.485441 0.000483019 1.693e-24)
(0.48514 0.000455179 0)
(0.484849 0.000426373 -3.43988e-20)
(0.484568 0.000397131 0)
(0.4843 0.000367896 0)
(0.484045 0.000339029 0)
(0.483804 0.000310823 1.69205e-20)
(0.483577 0.000283516 0)
(0.483364 0.000257296 -3.35656e-20)
(0.483165 0.000232315 -1.67123e-20)
(0.482979 0.000208692 0)
(0.482807 0.000186524 -1.65738e-20)
(0.482648 0.000165889 0)
(0.482501 0.000146856 0)
(0.482365 0.000129491 -4.91013e-20)
(0.48224 0.000113863 3.25967e-20)
(0.482125 0.000100055 0)
(0.482019 8.81701e-05 3.23219e-20)
(0.48192 7.83434e-05 -1.60922e-20)
(0.481828 7.0757e-05 0)
(0.481741 6.56558e-05 0)
(0.481656 6.33697e-05 0)
(0.481574 6.43437e-05 -4.74638e-20)
(0.48149 6.91758e-05 0)
(0.481402 7.86714e-05 -1.56884e-20)
(0.481306 9.39169e-05 0)
(0.481199 0.000116386 0)
(0.481074 0.00014809 0)
(0.480924 0.000191805 0)
(0.480739 0.000251419 0)
(0.480506 0.000332468 0)
(0.480208 0.000443032 -3.05354e-20)
(0.479821 0.000595224 0)
(0.479312 0.000807975 -1.51826e-20)
(0.478633 0.00111178 4.54577e-20)
(0.477719 0.0015602 0)
(0.476461 0.00224542 0)
(0.474766 0.00336971 -3.03518e-20)
(0.472316 0.00525398 -3.05599e-20)
(0.46949 0.00896101 3.07971e-20)
(0.465656 0.015669 3.13828e-20)
(-0.0191902 0.0301493 -1.09842e-20)
(-0.0329673 0.0571498 -7.96914e-21)
(-0.0491717 0.0760951 -4.27094e-21)
(-0.066122 0.091477 -1.89597e-21)
(-0.0825609 0.103884 0)
(-0.0984833 0.113461 3.37679e-21)
(-0.114136 0.12046 -1.67771e-21)
(-0.129562 0.125204 0)
(-0.14467 0.127998 -1.53269e-21)
(-0.159336 0.129094 0)
(-0.173467 0.128703 3.12301e-21)
(-0.18701 0.12702 0)
(-0.199954 0.124242 1.50214e-21)
(-0.212314 0.120565 3.01486e-21)