/*--------------------------------*- C++ -*----------------------------------*\
  =========                 |
  \\      /  F ield         | OpenFOAM: The Open Source CFD Toolbox
   \\    /   O peration     | Website:  https://openfoam.org
    \\  /    A nd           | Version:  6
     \\/     M anipulation  |
\*---------------------------------------------------------------------------*/
FoamFile
{
    version     2.0;
    format      ascii;
    class       volScalarField;
    location    "0.05";
    object      epsilon;
}
// * * * * * * * * * * * * * * * * * * * * * * * * * * * * * * * * * * * * * //

dimensions      [0 2 -3 0 0 0 0];

internalField   nonuniform List<scalar> 
12225
(
307.542
159.145
103.245
76.2606
61.0186
51.533
45.1515
40.5575
37.0677
34.3117
32.0754
30.2272
28.6925
27.4101
26.3429
25.4741
24.8502
24.6283
71.5964
59.7468
44.4115
34.355
27.8204
23.3839
20.2452
17.9379
16.1786
14.7935
13.6745
12.7529
11.9863
11.3418
10.7955
10.3292
9.93397
9.58884
33.6094
34.3975
29.2846
24.3849
20.5403
17.6209
15.3989
13.6835
12.3334
11.2495
10.3632
9.62732
9.0096
8.48601
8.03807
7.65142
7.31547
7.01915
22.4927
24.1928
22.2176
19.5388
17.0653
14.9877
13.2931
11.9187
10.7981
9.87558
9.10775
8.46172
7.91371
7.44485
7.04056
6.68933
6.3823
6.11344
18.0515
19.1628
18.2225
16.5925
14.8954
13.3513
12.0166
10.8858
9.93294
9.1286
8.44624
7.86369
7.36356
6.93146
6.55586
6.22752
5.93928
5.68749
15.9656
16.398
15.764
14.6401
13.3944
12.1985
11.1188
10.1712
9.34975
8.64054
8.0279
7.49734
7.03634
6.63407
6.28153
5.97134
5.69781
5.45862
14.9025
14.7879
14.1872
13.2978
12.3122
11.3427
10.4432
9.63353
8.91603
8.28484
7.73095
7.24504
6.81807
6.44196
6.10973
5.8155
5.55479
5.32615
14.3401
13.8249
13.1581
12.363
11.5213
10.6955
9.92082
9.21325
8.57675
8.00889
7.50438
7.05687
6.65982
6.30711
5.99326
5.7136
5.46459
5.24541
14.0385
13.2453
12.4859
11.7129
10.9444
10.2058
9.51492
8.88081
8.3058
7.78819
7.32429
6.90929
6.53821
6.20623
5.90896
5.64262
5.40441
5.19391
13.8767
12.8989
12.0513
11.2665
10.5289
9.83952
9.2023
8.61906
8.08917
7.61026
7.17875
6.79054
6.44143
6.12741
5.8448
5.59043
5.36203
5.15947
13.7905
12.6954
11.776
10.9664
10.2359
9.57115
8.966
8.41625
7.91817
7.46788
7.06131
6.6944
6.36329
6.06435
5.79431
5.55041
5.33072
5.13525
13.7488
12.588
11.6202
10.7865
10.0517
9.39581
8.80654
8.27575
7.79714
7.36535
6.97562
6.62366
6.30555
6.01779
5.7573
5.52149
5.30865
5.11882
13.7254
12.5234
11.5208
10.6659
9.92307
9.26899
8.6879
8.16869
7.70304
7.28431
6.907
6.56642
6.25851
5.97972
5.72704
5.49798
5.29092
5.10589
13.7116
12.483
11.4548
10.5812
9.82846
9.17199
8.59404
8.08153
7.62454
7.2153
6.84755
6.51612
6.21669
5.94559
5.69976
5.47674
5.27493
5.09433
13.7045
12.4608
11.4162
10.5288
9.76689
9.10599
8.52766
8.0178
7.56545
7.16203
6.80064
6.47566
6.18248
5.91726
5.67681
5.45865
5.26116
5.08422
13.7012
12.4504
11.3968
10.5011
9.73249
9.06729
8.48703
7.97726
7.52657
7.12589
6.76792
6.44672
6.15742
5.896
5.65917
5.44436
5.2499
5.07556
13.7
12.4462
11.3888
10.4889
9.71657
9.04846
8.46631
7.95567
7.50502
7.10509
6.74839
6.4288
6.1413
5.88174
5.64676
5.4337
5.24084
5.06788
13.6996
12.445
11.3863
10.4849
9.71101
9.04151
8.45824
7.9468
7.49566
7.09552
6.73883
6.4194
6.13216
5.87291
5.63824
5.42546
5.23282
5.05997
13.6998
12.4453
11.3869
10.4858
9.71202
9.04254
8.45913
7.94737
7.49573
7.09493
6.73744
6.41709
6.12882
5.86845
5.63258
5.41856
5.22464
5.05051
13.701
12.4493
11.3945
10.4972
9.72689
9.05997
8.47804
7.96667
7.51441
7.11214
6.75249
6.42946
6.13815
5.87451
5.63523
5.41774
5.22039
5.043
13.7054
12.4634
11.42
10.5333
9.77123
9.10943
8.52956
8.0176
7.56268
7.15625
6.79143
6.46266
6.16531
5.89558
5.65031
5.42703
5.22419
5.0418
13.7204
12.5082
11.4949
10.6317
9.88397
9.22779
8.64656
8.12825
7.6638
7.24605
6.86915
6.52823
6.21911
5.93824
5.68261
5.44981
5.2383
5.04828
13.7671
12.6333
11.6846
10.86
10.1266
9.46658
8.86998
8.32996
7.84108
7.39852
6.99782
6.63482
6.30568
6.00692
5.73542
5.48864
5.26487
5.06442
13.9008
12.9465
12.1094
11.3262
10.5852
9.89006
9.24561
8.65432
8.11588
7.62799
7.18713
6.78925
6.43018
6.1059
5.81274
5.54756
5.30819
5.09478
14.2608
13.6664
12.9752
12.1903
11.3732
10.5742
9.82287
9.13328
8.50935
7.94932
7.44862
7.00157
6.60225
6.24508
5.925
5.63768
5.38001
5.15173
15.1942
15.2326
14.6363
13.6955
12.6469
11.6176
10.6653
9.81062
9.05489
8.39111
7.80918
7.29851
6.84923
6.4526
6.10113
5.78862
5.51048
5.26566
17.6336
18.6188
17.7661
16.2595
14.6634
13.187
11.8924
10.7822
9.83771
9.03418
8.34803
7.7588
7.24952
6.80644
6.41848
6.07682
5.77493
5.51062
24.705
26.4231
23.9022
20.7812
17.9975
15.6987
13.8429
12.3492
11.1389
10.1474
9.32483
8.63396
8.04694
7.54287
7.10591
6.72403
6.38831
6.09499
51.9638
47.7344
37.7971
30.1691
24.7518
20.8638
18.0161
15.8802
14.235
12.9338
11.8801
11.0093
10.2771
9.65247
9.1132
8.64286
8.22952
7.86729
251.827
137.354
90.7673
67.1001
53.2643
44.4637
38.4933
34.2029
30.9611
28.4091
26.3342
24.6045
23.1344
21.8659
20.7581
19.7809
18.9122
18.1379
0.223502
0.442318
0.719895
0.975094
1.21138
1.43376
1.64539
1.84827
2.04389
2.23354
2.41829
2.59906
2.77659
2.95143
3.12398
3.2945
3.4632
3.63026
3.79602
3.96115
4.12693
4.29584
4.4725
4.65237
4.82452
4.98788
5.14165
5.28494
5.41688
5.5366
5.64329
5.73629
5.81502
5.87911
5.92841
5.963
5.98337
5.99049
5.98603
5.97267
5.95431
5.93518
5.91646
5.89289
5.86117
5.82088
5.77248
5.71671
5.65442
5.5865
5.51385
5.43737
5.35791
5.2763
5.19331
5.10966
5.02601
4.94296
4.86103
4.78068
4.70231
4.62625
4.55277
4.48208
4.41434
4.34967
4.28812
4.22974
4.17452
4.12243
4.0734
4.02737
3.98424
3.94391
3.90626
3.87118
3.83853
3.8082
3.78006
3.75398
3.72985
3.70754
3.68694
3.66794
3.65044
3.63434
3.61954
3.60596
3.59352
3.58212
3.57171
3.56221
3.55356
3.54571
3.53859
3.53215
3.52635
3.52115
3.5165
3.51235
3.50868
3.50544
3.50256
3.50001
3.49803
3.4965
3.49534
3.49448
3.49389
3.49354
3.49341
3.49348
3.49373
3.49416
3.49474
3.49547
3.49634
3.49733
3.49845
3.49969
3.50103
3.50248
3.50403
3.50567
3.5074
3.50922
3.51111
3.51308
3.51513
3.51724
3.51943
3.52167
3.52398
3.52635
3.52877
3.53125
3.53378
3.53636
3.539
3.54168
3.5444
3.54718
3.54999
3.55284
3.55574
3.55867
3.56164
3.56465
3.56769
3.57076
3.57387
3.57702
3.58019
3.5834
3.58664
3.58991
3.5932
3.59651
3.59985
3.6032
3.60656
3.60991
3.61326
3.61657
3.61983
3.62302
3.62608
3.62898
3.63164
3.63397
3.63581
3.63697
3.63714
3.63582
3.63222
3.62483
3.61085
3.58416
3.53261
3.43167
1.18992
0.758629
0.810603
0.921001
1.04229
1.16145
1.27398
1.3785
1.47501
1.56407
1.6465
1.72316
1.79489
1.86246
1.92657
1.98785
2.04688
2.10417
2.16026
2.21567
2.27098
2.3268
2.38377
2.44248
2.50023
2.5558
2.60864
2.65837
2.70463
2.7471
2.78544
2.81939
2.8487
2.8732
2.89279
2.90742
2.91719
2.92226
2.92292
2.91955
2.91254
2.90219
2.88852
2.87161
2.85132
2.82777
2.80125
2.77209
2.74064
2.70728
2.67236
2.63626
2.5993
2.56181
2.5241
2.48644
2.44909
2.41227
2.37617
2.34098
2.30683
2.27383
2.24209
2.21168
2.18264
2.155
2.12878
2.10398
2.08058
2.05856
2.03788
2.01849
2.00036
1.98344
1.96766
1.95297
1.93931
1.92663
1.91487
1.90397
1.89388
1.88455
1.87593
1.86797
1.86063
1.85386
1.84763
1.84189
1.83661
1.83176
1.82731
1.82323
1.81949
1.81607
1.81294
1.81009
1.80749
1.80513
1.80299
1.80105
1.7993
1.79772
1.79631
1.79505
1.79402
1.79318
1.79248
1.79191
1.79144
1.79107
1.79078
1.79056
1.7904
1.79031
1.79028
1.7903
1.79037
1.79049
1.79065
1.79085
1.79109
1.79137
1.79168
1.79203
1.7924
1.79281
1.79324
1.7937
1.79419
1.7947
1.79523
1.79579
1.79637
1.79697
1.79758
1.79822
1.79887
1.79955
1.80023
1.80094
1.80166
1.80239
1.80314
1.8039
1.80468
1.80546
1.80626
1.80708
1.8079
1.80873
1.80958
1.81044
1.8113
1.81218
1.81307
1.81397
1.81488
1.8158
1.81673
1.81766
1.81861
1.81955
1.82051
1.82146
1.82241
1.82335
1.82428
1.82519
1.82607
1.8269
1.82767
1.82834
1.82889
1.82927
1.82943
1.82931
1.82895
1.82871
1.83056
1.84319
2.09644
1.09403
1.0161
1.05653
1.12858
1.20949
1.29047
1.3677
1.43963
1.50592
1.56685
1.62298
1.67502
1.72371
1.76974
1.81377
1.85637
1.89805
1.93926
1.98036
2.02165
2.06334
2.10559
2.1483
2.19057
2.23183
2.27167
2.3097
2.34561
2.37905
2.40971
2.43729
2.46153
2.48219
2.49912
2.51217
2.52128
2.52644
2.52771
2.52515
2.51889
2.50903
2.49581
2.47951
2.46032
2.43844
2.41416
2.38778
2.3596
2.32994
2.29911
2.2674
2.2351
2.20249
2.16982
2.13731
2.10519
2.07363
2.04279
2.01282
1.98383
1.95592
1.92916
1.9036
1.87927
1.8562
1.83439
1.81383
1.79451
1.77639
1.75943
1.7436
1.72884
1.71512
1.70237
1.69054
1.67958
1.66944
1.66006
1.65139
1.64339
1.63601
1.6292
1.62293
1.61715
1.61182
1.60692
1.60241
1.59826
1.59444
1.59093
1.5877
1.58473
1.58201
1.57951
1.57722
1.57511
1.57318
1.57142
1.5698
1.56833
1.56698
1.56575
1.56463
1.56364
1.56277
1.562
1.56134
1.56075
1.56023
1.55977
1.55938
1.55903
1.55873
1.55847
1.55824
1.55806
1.5579
1.55778
1.55769
1.55762
1.55758
1.55756
1.55756
1.55759
1.55763
1.5577
1.55778
1.55787
1.55799
1.55812
1.55826
1.55841
1.55858
1.55876
1.55895
1.55915
1.55936
1.55959
1.55982
1.56006
1.5603
1.56056
1.56082
1.56109
1.56137
1.56165
1.56194
1.56223
1.56253
1.56284
1.56315
1.56347
1.56379
1.56412
1.56445
1.56479
1.56513
1.56547
1.56582
1.56617
1.56653
1.56688
1.56724
1.56759
1.56794
1.56828
1.56861
1.56892
1.56921
1.56946
1.56966
1.5698
1.56985
1.56979
1.56962
1.56937
1.56931
1.57052
1.5772
2.91183
1.40147
1.21788
1.20737
1.24582
1.3019
1.36372
1.42579
1.48549
1.54169
1.59412
1.64296
1.68862
1.73166
1.77265
1.81214
1.85062
1.88855
1.92627
1.96407
2.00216
2.04064
2.07955
2.11867
2.1575
2.19563
2.23268
2.26829
2.30209
2.33375
2.3629
2.38923
2.41245
2.43229
2.44854
2.46103
2.46966
2.47436
2.47512
2.47198
2.46502
2.45436
2.44035
2.42324
2.40325
2.38067
2.35578
2.32888
2.30028
2.27029
2.23921
2.20733
2.17493
2.14229
2.10964
2.07721
2.0452
2.0138
1.98318
1.95345
1.92475
1.89715
1.87073
1.84555
1.82164
1.799
1.77766
1.75759
1.73876
1.72117
1.70475
1.68946
1.67527
1.6621
1.64991
1.63864
1.62824
1.61864
1.60979
1.60165
1.59415
1.58725
1.58091
1.57508
1.56972
1.5648
1.56027
1.55611
1.55229
1.54878
1.54555
1.54258
1.53985
1.53734
1.53503
1.5329
1.53095
1.52915
1.52749
1.52597
1.52457
1.52328
1.52209
1.521
1.52
1.5191
1.51828
1.51755
1.51688
1.51627
1.51572
1.51521
1.51475
1.51433
1.51395
1.51359
1.51327
1.51298
1.51271
1.51246
1.51223
1.51203
1.51184
1.51168
1.51153
1.51139
1.51127
1.51116
1.51107
1.51098
1.51091
1.51085
1.5108
1.51075
1.51072
1.51069
1.51067
1.51066
1.51065
1.51065
1.51066
1.51067
1.51069
1.51071
1.51073
1.51076
1.51079
1.51082
1.51086
1.5109
1.51094
1.51099
1.51104
1.51109
1.51114
1.5112
1.51126
1.51132
1.51138
1.51144
1.5115
1.51156
1.51162
1.51168
1.51174
1.51179
1.51183
1.51187
1.51188
1.51188
1.51184
1.51177
1.51165
1.51146
1.51119
1.51082
1.51037
1.51001
1.51027
1.51299
3.66456
1.68603
1.409
1.35663
1.36911
1.4068
1.45494
1.5067
1.55865
1.6091
1.65728
1.70305
1.74653
1.78806
1.82804
1.86691
1.90505
1.94283
1.98054
2.01839
2.05653
2.09503
2.13385
2.17272
2.21125
2.24908
2.28583
2.32114
2.35463
2.38593
2.41466
2.4405
2.46312
2.48225
2.49767
2.50922
2.51676
2.52025
2.51966
2.51506
2.50652
2.49428
2.47865
2.45987
2.43822
2.41397
2.38743
2.35891
2.32873
2.29718
2.26458
2.23123
2.1974
2.16336
2.12935
2.09562
2.06236
2.02976
1.99798
1.96717
1.93743
1.90886
1.88155
1.85553
1.83085
1.80752
1.78555
1.76492
1.74562
1.7276
1.71082
1.69524
1.6808
1.66745
1.65512
1.64375
1.63329
1.62366
1.61482
1.6067
1.59925
1.59242
1.58615
1.58041
1.57515
1.57033
1.5659
1.56185
1.55813
1.55471
1.55158
1.5487
1.54605
1.54362
1.54138
1.53932
1.53742
1.53567
1.53405
1.53256
1.53118
1.52991
1.52873
1.52764
1.52664
1.52571
1.52486
1.52408
1.52336
1.52269
1.52208
1.5215
1.52097
1.52047
1.52001
1.51957
1.51916
1.51878
1.51842
1.51807
1.51775
1.51745
1.51716
1.51688
1.51663
1.51638
1.51614
1.51592
1.51571
1.5155
1.51531
1.51512
1.51494
1.51477
1.51461
1.51445
1.51429
1.51414
1.514
1.51385
1.51372
1.51358
1.51345
1.51332
1.51319
1.51307
1.51295
1.51283
1.51271
1.51259
1.51247
1.51235
1.51224
1.51212
1.512
1.51189
1.51178
1.51166
1.51155
1.51143
1.51131
1.5112
1.51107
1.51095
1.51082
1.51069
1.51054
1.51039
1.51021
1.51002
1.5098
1.50955
1.50925
1.50888
1.50844
1.5079
1.50727
1.50663
1.50625
1.507
4.37203
1.95384
1.59083
1.50174
1.49265
1.51574
1.55343
1.59764
1.64425
1.69107
1.73701
1.78158
1.82469
1.86648
1.90717
1.94707
1.98647
2.02565
2.06482
2.10415
2.14371
2.18353
2.22353
2.26337
2.30271
2.34118
2.37842
2.41403
2.44762
2.4788
2.50718
2.53242
2.5542
2.57225
2.58636
2.59637
2.60218
2.60376
2.60111
2.59431
2.58353
2.56906
2.55117
2.53011
2.50619
2.47969
2.45092
2.42022
2.38788
2.35424
2.31958
2.28422
2.24843
2.21248
2.17662
2.14109
2.10609
2.0718
2.0384
2.00603
1.97481
1.94483
1.91618
1.8889
1.86305
1.83863
1.81565
1.7941
1.77395
1.75518
1.73772
1.72154
1.70657
1.69275
1.68002
1.66831
1.65756
1.6477
1.63866
1.63039
1.62281
1.61589
1.60956
1.60378
1.59849
1.59365
1.58923
1.58519
1.58149
1.5781
1.57499
1.57214
1.56953
1.56713
1.56492
1.56289
1.56102
1.55929
1.5577
1.55622
1.55486
1.5536
1.55242
1.55134
1.55033
1.54939
1.54852
1.54772
1.54696
1.54626
1.54561
1.545
1.54442
1.54387
1.54336
1.54287
1.54241
1.54196
1.54154
1.54114
1.54076
1.54039
1.54004
1.5397
1.53937
1.53905
1.53874
1.53845
1.53816
1.53788
1.5376
1.53734
1.53708
1.53682
1.53657
1.53633
1.53608
1.53584
1.53561
1.53538
1.53515
1.53492
1.53469
1.53446
1.53424
1.53402
1.53379
1.53357
1.53335
1.53312
1.5329
1.53268
1.53245
1.53223
1.532
1.53178
1.53155
1.53132
1.53109
1.53086
1.53062
1.53039
1.53014
1.5299
1.52965
1.52939
1.52912
1.52884
1.52854
1.52822
1.52788
1.5275
1.52707
1.52658
1.52602
1.52536
1.52459
1.52375
1.52298
1.52275
5.04301
2.20816
1.76458
1.64208
1.61411
1.62496
1.65425
1.69265
1.7354
1.77988
1.82467
1.86906
1.91274
1.95566
1.99792
2.03968
2.08114
2.12249
2.16387
2.20538
2.24704
2.28882
2.3306
2.37195
2.41254
2.45202
2.48997
2.526
2.55969
2.59062
2.61841
2.6427
2.6632
2.67966
2.69187
2.69972
2.70314
2.70214
2.69678
2.68718
2.67364
2.6564
2.63575
2.61196
2.58535
2.55622
2.52489
2.49169
2.45693
2.42093
2.384
2.34642
2.30849
2.27046
2.23259
2.19511
2.15821
2.12211
2.08695
2.05289
2.02005
1.98853
1.95841
1.92975
1.9026
1.87696
1.85285
1.83025
1.80915
1.78949
1.77125
1.75435
1.73875
1.72437
1.71114
1.699
1.68788
1.6777
1.6684
1.6599
1.65214
1.64507
1.63862
1.63275
1.62739
1.62251
1.61805
1.61399
1.61028
1.60689
1.60379
1.60095
1.59835
1.59597
1.59378
1.59177
1.58992
1.58822
1.58664
1.58519
1.58384
1.58259
1.58143
1.58035
1.57935
1.57842
1.57754
1.57673
1.57597
1.57525
1.57458
1.57394
1.57334
1.57277
1.57223
1.57171
1.57122
1.57075
1.57029
1.56986
1.56944
1.56903
1.56864
1.56826
1.56789
1.56753
1.56718
1.56684
1.5665
1.56617
1.56585
1.56554
1.56522
1.56492
1.56461
1.56431
1.56402
1.56372
1.56343
1.56314
1.56285
1.56256
1.56228
1.56199
1.5617
1.56141
1.56113
1.56084
1.56055
1.56026
1.55997
1.55968
1.55938
1.55909
1.55879
1.55849
1.55819
1.55789
1.55758
1.55728
1.55696
1.55665
1.55633
1.556
1.55567
1.55533
1.55498
1.55462
1.55424
1.55383
1.55341
1.55294
1.55243
1.55187
1.55122
1.55048
1.54963
1.54867
1.54769
1.54697
5.67844
2.44966
1.93032
1.77685
1.73183
1.73196
1.75414
1.78785
1.82767
1.87059
1.91491
1.9597
2.00448
2.04903
2.09332
2.13741
2.18139
2.22537
2.2694
2.31353
2.35773
2.40189
2.44575
2.4889
2.53099
2.57161
2.61033
2.64673
2.68034
2.71076
2.73759
2.7605
2.77919
2.79346
2.80315
2.8082
2.8086
2.8044
2.79574
2.7829
2.76612
2.7457
2.72192
2.69509
2.66553
2.63356
2.59951
2.56369
2.52642
2.48801
2.44877
2.40898
2.36891
2.32883
2.28897
2.24957
2.21083
2.17294
2.13606
2.10034
2.06592
2.03288
2.00131
1.97128
1.94283
1.91598
1.89073
1.86708
1.845
1.82446
1.8054
1.78777
1.77151
1.75655
1.74281
1.73022
1.71871
1.70819
1.6986
1.68986
1.68191
1.67467
1.66809
1.66211
1.65667
1.65173
1.64723
1.64314
1.63941
1.63602
1.63292
1.6301
1.62752
1.62515
1.62299
1.621
1.61918
1.6175
1.61595
1.61452
1.61319
1.61197
1.61083
1.60977
1.60878
1.60786
1.607
1.60619
1.60543
1.60472
1.60404
1.6034
1.6028
1.60222
1.60167
1.60114
1.60064
1.60015
1.59968
1.59923
1.5988
1.59837
1.59796
1.59756
1.59717
1.59679
1.59642
1.59605
1.59569
1.59534
1.59499
1.59465
1.59431
1.59397
1.59364
1.59331
1.59298
1.59266
1.59233
1.59201
1.59168
1.59136
1.59104
1.59072
1.59039
1.59007
1.58974
1.58942
1.58909
1.58876
1.58843
1.58809
1.58776
1.58742
1.58708
1.58674
1.5864
1.58605
1.5857
1.58534
1.58498
1.58462
1.58425
1.58388
1.5835
1.58311
1.58271
1.58229
1.58186
1.58141
1.58093
1.58042
1.57986
1.57925
1.57856
1.57778
1.57689
1.57588
1.57481
1.57388
6.27192
2.67664
2.08675
1.90455
1.84386
1.83432
1.85025
1.87997
1.91744
1.95928
2.00354
2.04908
2.09527
2.14176
2.18839
2.23512
2.28195
2.3289
2.37595
2.42307
2.47015
2.51705
2.56328
2.60847
2.65221
2.69407
2.73356
2.77019
2.8035
2.83306
2.85848
2.87946
2.89575
2.90719
2.91371
2.9153
2.91204
2.9041
2.89173
2.87521
2.85485
2.83093
2.8038
2.77376
2.74114
2.70628
2.66949
2.63109
2.59139
2.55068
2.50925
2.46738
2.42533
2.38336
2.34168
2.30053
2.2601
2.22058
2.18213
2.1449
2.10901
2.07457
2.04167
2.01036
1.98069
1.95269
1.92637
1.90172
1.87872
1.85732
1.83749
1.81915
1.80226
1.78673
1.77249
1.75946
1.74757
1.73672
1.72685
1.71788
1.70973
1.70233
1.69562
1.68954
1.68402
1.67903
1.67449
1.67038
1.66664
1.66325
1.66016
1.65735
1.65479
1.65245
1.65032
1.64836
1.64657
1.64492
1.6434
1.642
1.64071
1.63952
1.63841
1.63738
1.63642
1.63552
1.63468
1.63389
1.63315
1.63245
1.63178
1.63115
1.63055
1.62998
1.62944
1.62892
1.62841
1.62793
1.62746
1.62701
1.62657
1.62615
1.62573
1.62533
1.62493
1.62455
1.62417
1.62379
1.62343
1.62307
1.62271
1.62236
1.62201
1.62166
1.62131
1.62097
1.62063
1.62029
1.61995
1.61961
1.61927
1.61894
1.6186
1.61826
1.61792
1.61758
1.61723
1.61689
1.61654
1.61619
1.61584
1.61549
1.61513
1.61477
1.61441
1.61405
1.61368
1.61331
1.61294
1.61256
1.61218
1.61179
1.6114
1.611
1.61059
1.61018
1.60975
1.60931
1.60885
1.60838
1.60788
1.60734
1.60676
1.60613
1.60543
1.60465
1.60375
1.60275
1.60166
1.60068
6.81074
2.88535
2.23138
2.02286
1.9478
1.92941
1.93969
1.96587
2.00135
2.04241
2.08686
2.13339
2.18121
2.22986
2.27908
2.32873
2.37873
2.429
2.47945
2.52995
2.58031
2.63029
2.67925
2.72678
2.77239
2.81556
2.85575
2.89244
2.92511
2.95336
2.97681
2.99522
3.00841
3.01631
3.01895
3.01642
3.00895
2.99682
2.98035
2.95984
2.93563
2.90807
2.87749
2.84422
2.8086
2.77095
2.73158
2.69079
2.64888
2.60611
2.56277
2.5191
2.47535
2.43176
2.38855
2.34592
2.30407
2.26316
2.22337
2.18484
2.14769
2.11203
2.07795
2.04551
2.01477
1.98574
1.95845
1.9329
1.90904
1.88687
1.86632
1.84733
1.82985
1.81379
1.79909
1.78565
1.7734
1.76224
1.75211
1.74292
1.73459
1.72705
1.72022
1.71405
1.70847
1.70343
1.69887
1.69474
1.691
1.68762
1.68455
1.68176
1.67923
1.67692
1.67482
1.6729
1.67114
1.66954
1.66806
1.6667
1.66545
1.66429
1.66322
1.66222
1.66129
1.66043
1.65962
1.65886
1.65814
1.65747
1.65682
1.65622
1.65564
1.65508
1.65455
1.65405
1.65356
1.65309
1.65263
1.65219
1.65176
1.65135
1.65094
1.65054
1.65016
1.64978
1.6494
1.64904
1.64867
1.64832
1.64796
1.64761
1.64726
1.64692
1.64658
1.64623
1.64589
1.64555
1.64521
1.64488
1.64454
1.6442
1.64386
1.64351
1.64317
1.64283
1.64248
1.64213
1.64178
1.64143
1.64108
1.64072
1.64036
1.64
1.63963
1.63926
1.63889
1.63851
1.63813
1.63775
1.63736
1.63696
1.63656
1.63616
1.63574
1.63532
1.63489
1.63444
1.63398
1.6335
1.63299
1.63246
1.63188
1.63125
1.63057
1.6298
1.62894
1.62797
1.62693
1.62598
7.27703
3.07046
2.36079
2.12887
2.04083
2.0144
2.01953
2.04253
2.07628
2.11676
2.16158
2.20926
2.2589
2.30994
2.36202
2.41492
2.46846
2.52248
2.57681
2.63121
2.68539
2.73892
2.79103
2.84122
2.8889
2.93344
2.97421
3.01062
3.04218
3.06847
3.08921
3.10422
3.11347
3.11701
3.11501
3.10777
3.09563
3.07893
3.05804
3.03334
3.00519
2.97397
2.94003
2.90369
2.86528
2.82512
2.78349
2.74066
2.69691
2.65248
2.60762
2.56256
2.51751
2.4727
2.42833
2.38458
2.34164
2.29968
2.25886
2.21931
2.18116
2.14452
2.10947
2.0761
2.04445
2.01456
1.98644
1.96009
1.9355
1.91264
1.89145
1.87188
1.85387
1.83735
1.82222
1.80841
1.79584
1.78441
1.77405
1.76466
1.75617
1.7485
1.74158
1.73533
1.7297
1.72462
1.72004
1.71591
1.71218
1.70881
1.70576
1.70301
1.70051
1.69824
1.69618
1.69431
1.6926
1.69103
1.6896
1.68829
1.68708
1.68597
1.68494
1.68398
1.6831
1.68227
1.6815
1.68077
1.68009
1.67944
1.67883
1.67825
1.6777
1.67717
1.67666
1.67618
1.67571
1.67526
1.67483
1.67441
1.674
1.6736
1.67321
1.67283
1.67246
1.6721
1.67174
1.67138
1.67104
1.67069
1.67035
1.67001
1.66968
1.66934
1.66901
1.66868
1.66835
1.66802
1.66769
1.66736
1.66703
1.6667
1.66637
1.66604
1.6657
1.66537
1.66503
1.66469
1.66435
1.664
1.66366
1.66331
1.66295
1.6626
1.66224
1.66188
1.66151
1.66114
1.66077
1.66039
1.66001
1.65962
1.65923
1.65883
1.65842
1.658
1.65758
1.65714
1.65669
1.65622
1.65572
1.6552
1.65464
1.65404
1.65338
1.65265
1.65184
1.65094
1.64999
1.6491
7.64903
3.22555
2.47098
2.21937
2.12008
2.08655
2.0871
2.10727
2.13954
2.17963
2.22498
2.274
2.32568
2.37936
2.43463
2.49117
2.54874
2.60708
2.66592
2.7249
2.7836
2.84123
2.89701
2.95023
3.00013
3.04594
3.08694
3.1225
3.15214
3.17552
3.19252
3.20308
3.20735
3.20566
3.19836
3.18588
3.16863
3.14706
3.1216
3.09267
3.06067
3.02598
2.98894
2.94988
2.9091
2.86687
2.82347
2.77912
2.73405
2.68849
2.64264
2.5967
2.55087
2.50533
2.46026
2.41584
2.37224
2.32962
2.28812
2.24789
2.20905
2.17171
2.13596
2.10189
2.06954
2.03896
2.01018
1.98319
1.95799
1.93455
1.91283
1.89277
1.87431
1.85737
1.84188
1.82775
1.8149
1.80323
1.79266
1.78311
1.77448
1.76671
1.7597
1.7534
1.74773
1.74263
1.73804
1.73391
1.7302
1.72685
1.72384
1.72112
1.71866
1.71644
1.71443
1.7126
1.71094
1.70943
1.70805
1.70678
1.70562
1.70456
1.70357
1.70266
1.70182
1.70104
1.70031
1.69962
1.69897
1.69836
1.69779
1.69724
1.69672
1.69622
1.69575
1.69529
1.69485
1.69443
1.69402
1.69363
1.69324
1.69287
1.69251
1.69215
1.6918
1.69146
1.69112
1.69079
1.69046
1.69013
1.68981
1.68949
1.68918
1.68886
1.68855
1.68823
1.68792
1.68761
1.6873
1.68699
1.68667
1.68636
1.68604
1.68573
1.68541
1.68509
1.68477
1.68445
1.68412
1.68379
1.68346
1.68313
1.68279
1.68245
1.68211
1.68176
1.68141
1.68106
1.6807
1.68034
1.67997
1.6796
1.67922
1.67884
1.67845
1.67805
1.67765
1.67723
1.67679
1.67634
1.67587
1.67538
1.67485
1.67428
1.67367
1.67299
1.67225
1.67143
1.67057
1.66979
7.90282
3.34379
2.55799
2.29141
2.1831
2.1437
2.1404
2.15822
2.18935
2.22932
2.27544
2.32603
2.38001
2.43667
2.49553
2.55622
2.61842
2.6818
2.74593
2.81034
2.87438
2.93683
2.9968
3.05331
3.10536
3.152
3.1924
3.22604
3.25249
3.27149
3.28326
3.28809
3.2864
3.27866
3.26541
3.2472
3.22455
3.198
3.16801
3.13505
3.09951
3.06176
3.02213
2.98092
2.93837
2.89473
2.8502
2.805
2.75929
2.71325
2.66705
2.62085
2.57482
2.52912
2.4839
2.43932
2.39553
2.3527
2.31094
2.27042
2.23124
2.19352
2.15736
2.12285
2.09004
2.059
2.02974
2.00228
1.97662
1.95273
1.93058
1.91012
1.89129
1.87402
1.85823
1.84384
1.83075
1.81888
1.80815
1.79846
1.78972
1.78186
1.77479
1.76845
1.76275
1.75764
1.75306
1.74895
1.74526
1.74194
1.73897
1.73629
1.73388
1.73171
1.72975
1.72797
1.72636
1.7249
1.72357
1.72236
1.72125
1.72024
1.7193
1.71844
1.71765
1.71691
1.71622
1.71557
1.71497
1.7144
1.71386
1.71335
1.71286
1.7124
1.71196
1.71154
1.71113
1.71074
1.71036
1.71
1.70964
1.7093
1.70896
1.70863
1.70831
1.70799
1.70768
1.70737
1.70706
1.70676
1.70647
1.70617
1.70588
1.70559
1.7053
1.70501
1.70472
1.70443
1.70414
1.70385
1.70356
1.70326
1.70297
1.70268
1.70238
1.70208
1.70178
1.70148
1.70118
1.70087
1.70056
1.70025
1.69994
1.69962
1.6993
1.69897
1.69865
1.69832
1.69798
1.69764
1.6973
1.69695
1.6966
1.69624
1.69587
1.6955
1.69512
1.69472
1.69432
1.6939
1.69346
1.693
1.69251
1.69198
1.69142
1.69081
1.69014
1.68941
1.68866
1.68799
8.01427
3.41874
2.61852
2.34297
2.22857
2.18497
2.17889
2.19511
2.22563
2.26589
2.31314
2.36564
2.42229
2.48236
2.54533
2.61079
2.67838
2.74765
2.81806
2.8889
2.95918
3.02719
3.09165
3.15127
3.20487
3.25113
3.2892
3.31879
3.33989
3.35273
3.35775
3.35554
3.34678
3.33217
3.31241
3.28818
3.2601
3.22872
3.19456
3.15805
3.11958
3.07947
3.038
2.99541
2.9519
2.90766
2.86283
2.81756
2.77198
2.72622
2.68039
2.63464
2.58907
2.54383
2.49905
2.45487
2.41142
2.36885
2.32729
2.28688
2.24775
2.21
2.17375
2.13908
2.10608
2.07479
2.04526
2.01752
1.99155
1.96736
1.94492
1.92417
1.90507
1.88755
1.87152
1.85692
1.84366
1.83164
1.82078
1.81098
1.80216
1.79424
1.78713
1.78076
1.77505
1.76995
1.76538
1.76129
1.75763
1.75436
1.75143
1.7488
1.74644
1.74431
1.74241
1.74069
1.73913
1.73773
1.73645
1.73529
1.73424
1.73327
1.73239
1.73158
1.73083
1.73014
1.72949
1.72889
1.72833
1.7278
1.7273
1.72683
1.72638
1.72595
1.72555
1.72516
1.72479
1.72443
1.72408
1.72375
1.72343
1.72311
1.7228
1.7225
1.72221
1.72192
1.72163
1.72135
1.72108
1.7208
1.72053
1.72026
1.72
1.71973
1.71946
1.7192
1.71894
1.71867
1.71841
1.71814
1.71788
1.71761
1.71734
1.71707
1.7168
1.71653
1.71626
1.71598
1.7157
1.71542
1.71514
1.71485
1.71456
1.71427
1.71398
1.71368
1.71338
1.71308
1.71277
1.71246
1.71214
1.71182
1.71149
1.71116
1.71083
1.71048
1.71013
1.70977
1.7094
1.70901
1.70861
1.70819
1.70774
1.70727
1.70676
1.70621
1.70562
1.70499
1.70435
1.70378
7.96056
3.4451
2.6508
2.37384
2.25723
2.21179
2.20452
2.22026
2.25103
2.29229
2.34127
2.39624
2.45612
2.52018
2.58793
2.65896
2.73284
2.80904
2.88687
2.96544
3.04292
3.11676
3.18515
3.24639
3.29905
3.3421
3.37507
3.39797
3.41124
3.4156
3.41193
3.40117
3.38428
3.36217
3.33566
3.3055
3.27233
3.2367
3.19909
3.15989
3.1194
3.0779
3.03557
2.9926
2.94912
2.90522
2.86102
2.81657
2.77197
2.7273
2.68262
2.63803
2.59362
2.54949
2.50576
2.46254
2.41997
2.37816
2.33726
2.2974
2.2587
2.22129
2.18528
2.15076
2.11783
2.08655
2.05697
2.02913
2.00304
1.9787
1.95609
1.93517
1.9159
1.89822
1.88204
1.8673
1.85392
1.84179
1.83084
1.82098
1.81211
1.80415
1.79702
1.79064
1.78494
1.77985
1.77531
1.77125
1.76764
1.76441
1.76152
1.75894
1.75663
1.75457
1.75272
1.75105
1.74955
1.7482
1.74698
1.74588
1.74487
1.74396
1.74313
1.74236
1.74166
1.74102
1.74042
1.73986
1.73934
1.73885
1.73839
1.73796
1.73755
1.73716
1.73679
1.73644
1.7361
1.73578
1.73546
1.73516
1.73487
1.73458
1.73431
1.73404
1.73377
1.73351
1.73326
1.733
1.73275
1.73251
1.73227
1.73202
1.73178
1.73155
1.73131
1.73107
1.73083
1.7306
1.73036
1.73012
1.72988
1.72964
1.7294
1.72916
1.72892
1.72867
1.72842
1.72818
1.72792
1.72767
1.72742
1.72716
1.7269
1.72663
1.72637
1.7261
1.72583
1.72555
1.72527
1.72499
1.72471
1.72442
1.72412
1.72382
1.72352
1.72321
1.72289
1.72256
1.72222
1.72187
1.72151
1.72113
1.72073
1.72031
1.71986
1.71938
1.71887
1.71833
1.7178
1.71733
7.70446
3.418
2.65594
2.38749
2.27387
2.22986
2.22371
2.24075
2.27323
2.31675
2.3686
2.42712
2.49128
2.56045
2.63418
2.71209
2.79369
2.87829
2.96484
3.05176
3.1357
3.21396
3.28394
3.34352
3.3913
3.4267
3.44993
3.46178
3.46345
3.45628
3.44163
3.4208
3.39494
3.36505
3.33198
3.29643
3.25899
3.22011
3.18017
3.13945
3.09816
3.05646
3.01447
2.97226
2.92989
2.8874
2.84481
2.80214
2.75941
2.71666
2.67393
2.63125
2.5887
2.54635
2.50429
2.46263
2.42147
2.38094
2.34117
2.3023
2.26445
2.22774
2.19231
2.15825
2.12568
2.09466
2.06526
2.03753
2.0115
1.98717
1.96454
1.94357
1.92424
1.90649
1.89024
1.87544
1.86199
1.84981
1.83882
1.82892
1.82003
1.81207
1.80494
1.79858
1.7929
1.78784
1.78333
1.77932
1.77575
1.77257
1.76974
1.76721
1.76496
1.76295
1.76116
1.75955
1.75811
1.75681
1.75565
1.7546
1.75365
1.75278
1.752
1.75128
1.75063
1.75003
1.74947
1.74895
1.74847
1.74802
1.7476
1.74721
1.74684
1.74648
1.74615
1.74583
1.74552
1.74523
1.74495
1.74468
1.74441
1.74416
1.74391
1.74367
1.74343
1.7432
1.74297
1.74275
1.74252
1.74231
1.74209
1.74187
1.74166
1.74144
1.74123
1.74102
1.74081
1.7406
1.74038
1.74017
1.73996
1.73974
1.73953
1.73931
1.73909
1.73887
1.73865
1.73843
1.7382
1.73798
1.73775
1.73751
1.73728
1.73704
1.7368
1.73656
1.73632
1.73607
1.73582
1.73556
1.73531
1.73504
1.73478
1.73451
1.73423
1.73395
1.73366
1.73337
1.73306
1.73275
1.73242
1.73208
1.73173
1.73135
1.73096
1.73054
1.7301
1.72965
1.72921
1.72884
7.29284
3.35995
2.64524
2.39317
2.28789
2.24932
2.2475
2.2685
2.30498
2.35271
2.40915
2.47279
2.54274
2.61847
2.69965
2.78592
2.87675
2.97123
3.06794
3.1627
3.25143
3.3303
3.39615
3.44694
3.48202
3.50203
3.5085
3.50346
3.48904
3.46724
3.43978
3.40808
3.37328
3.33627
3.29772
3.25817
3.218
3.17749
3.13685
3.09621
3.05565
3.01521
2.97491
2.93473
2.89465
2.85464
2.81466
2.77469
2.7347
2.69467
2.65462
2.61455
2.57451
2.53454
2.49472
2.45514
2.4159
2.37712
2.33892
2.30145
2.26482
2.22918
2.19465
2.16137
2.12942
2.09892
2.06993
2.04253
2.01674
1.99259
1.97009
1.94921
1.92994
1.91222
1.89599
1.8812
1.86775
1.85558
1.8446
1.83471
1.82584
1.8179
1.8108
1.80447
1.79883
1.79381
1.78935
1.78539
1.78188
1.77876
1.77598
1.77352
1.77133
1.76938
1.76764
1.76609
1.76471
1.76347
1.76236
1.76136
1.76046
1.75965
1.75891
1.75824
1.75763
1.75707
1.75656
1.75608
1.75564
1.75523
1.75485
1.75449
1.75416
1.75384
1.75354
1.75325
1.75298
1.75272
1.75247
1.75223
1.752
1.75177
1.75155
1.75134
1.75113
1.75093
1.75073
1.75053
1.75034
1.75015
1.74996
1.74977
1.74958
1.7494
1.74921
1.74902
1.74884
1.74865
1.74847
1.74828
1.7481
1.74791
1.74772
1.74753
1.74734
1.74715
1.74696
1.74676
1.74656
1.74636
1.74616
1.74596
1.74576
1.74555
1.74534
1.74513
1.74491
1.74469
1.74447
1.74425
1.74402
1.74379
1.74356
1.74332
1.74308
1.74283
1.74258
1.74232
1.74205
1.74178
1.74149
1.74119
1.74088
1.74056
1.74022
1.73987
1.7395
1.73913
1.73878
1.7385
6.81765
3.297
2.63575
2.40486
2.31222
2.28294
2.28895
2.31715
2.36062
2.41541
2.47915
2.5505
2.62869
2.71331
2.8041
2.90071
3.00242
3.1079
3.21375
3.31291
3.40008
3.47068
3.52182
3.55277
3.56487
3.56088
3.54414
3.51797
3.48522
3.44814
3.40839
3.36715
3.32521
3.28312
3.24122
3.19974
3.15879
3.11844
3.07869
3.03955
3.00095
2.96283
2.92513
2.88777
2.85064
2.81368
2.77681
2.73996
2.70306
2.66608
2.62899
2.59179
2.55449
2.51714
2.47978
2.44249
2.40538
2.36855
2.33212
2.29624
2.26103
2.22665
2.19322
2.16088
2.12974
2.09992
2.0715
2.04457
2.01916
1.99532
1.97306
1.95239
1.93327
1.91567
1.89954
1.88482
1.87144
1.85933
1.8484
1.83856
1.82974
1.82184
1.81479
1.80852
1.80293
1.79797
1.79357
1.78967
1.78621
1.78315
1.78043
1.77803
1.7759
1.77401
1.77233
1.77084
1.76951
1.76832
1.76726
1.76632
1.76547
1.7647
1.76401
1.76339
1.76282
1.7623
1.76183
1.76139
1.76099
1.76062
1.76027
1.75995
1.75965
1.75937
1.7591
1.75885