/*--------------------------------*- C++ -*----------------------------------*\
  =========                 |
  \\      /  F ield         | OpenFOAM: The Open Source CFD Toolbox
   \\    /   O peration     | Website:  https://openfoam.org
    \\  /    A nd           | Version:  6
     \\/     M anipulation  |
\*---------------------------------------------------------------------------*/
FoamFile
{
    version     2.0;
    format      ascii;
    class       volScalarField;
    location    "0.05";
    object      k;
}
// * * * * * * * * * * * * * * * * * * * * * * * * * * * * * * * * * * * * * //

dimensions      [0 2 -2 0 0 0 0];

internalField   nonuniform List<scalar> 
12225
(
0.246434
0.15884
0.119034
0.0972636
0.0838262
0.0748936
0.0685721
0.0638339
0.0601127
0.0570893
0.0545744
0.0524496
0.0506474
0.0491144
0.0478167
0.0467415
0.0459503
0.0456375
0.339493
0.260117
0.208295
0.175391
0.153436
0.137926
0.126342
0.117277
0.109938
0.103855
0.0987277
0.0943527
0.0905941
0.0873468
0.0845399
0.0821212
0.080101
0.0784645
0.347488
0.292341
0.248557
0.216302
0.192412
0.174322
0.160231
0.148944
0.139688
0.131956
0.125405
0.119798
0.114961
0.110761
0.107109
0.103939
0.101228
0.0989831
0.351366
0.309043
0.271932
0.242029
0.218325
0.199463
0.184251
0.171781
0.161397
0.152632
0.145152
0.138715
0.133131
0.128263
0.12401
0.120297
0.117085
0.114381
0.353916
0.319276
0.287245
0.259924
0.237219
0.218459
0.202891
0.189856
0.178833
0.169422
0.16132
0.154301
0.148176
0.142809
0.138097
0.133963
0.130358
0.127286
0.355677
0.326043
0.297913
0.273014
0.251603
0.23339
0.217915
0.204714
0.193388
0.183607
0.175114
0.167696
0.161184
0.155448
0.150387
0.145921
0.142003
0.138632
0.356918
0.330722
0.305613
0.282857
0.262799
0.245349
0.230232
0.217128
0.205736
0.195794
0.187084
0.179417
0.172643
0.166644
0.161322
0.156603
0.152438
0.148828
0.357803
0.334039
0.311279
0.290365
0.271608
0.255006
0.240396
0.227559
0.216269
0.20632
0.197528
0.189731
0.182801
0.176628
0.171124
0.166218
0.161866
0.158067
0.358435
0.336415
0.315482
0.296121
0.278557
0.262811
0.248783
0.236317
0.225243
0.215399
0.206629
0.1988
0.191799
0.185529
0.179909
0.174877
0.170389
0.166448
0.358883
0.338117
0.318594
0.300522
0.284019
0.269091
0.255667
0.243629
0.232846
0.223183
0.214514
0.206728
0.199726
0.193422
0.187745
0.182636
0.178059
0.174016
0.359197
0.339325
0.320878
0.303854
0.288269
0.274095
0.261261
0.249672
0.239219
0.229789
0.221279
0.213593
0.206644
0.200359
0.194671
0.189531
0.184904
0.180796
0.359395
0.340101
0.322392
0.306134
0.291258
0.277696
0.26537
0.254187
0.244051
0.234863
0.226533
0.218976
0.212116
0.205885
0.200225
0.195089
0.190451
0.186314
0.359537
0.340659
0.323513
0.307868
0.293585
0.28056
0.268695
0.257896
0.248072
0.239133
0.230996
0.223587
0.216835
0.21068
0.205069
0.19996
0.195328
0.19118
0.359645
0.341092
0.324407
0.309293
0.295553
0.283039
0.271634
0.261234
0.251747
0.243087
0.235178
0.227949
0.221338
0.215288
0.209753
0.204694
0.20009
0.195946
0.359721
0.341399
0.325059
0.310367
0.297082
0.28502
0.274039
0.264024
0.254875
0.246506
0.238841
0.231815
0.225368
0.219448
0.214012
0.209025
0.204468
0.200346
0.359768
0.341593
0.325484
0.311091
0.298146
0.286441
0.275813
0.266131
0.257287
0.249189
0.241762
0.234938
0.22866
0.222879
0.217553
0.21265
0.208152
0.204064
0.359794
0.341699
0.325722
0.31151
0.298781
0.287314
0.276933
0.267495
0.258881
0.250997
0.24376
0.237103
0.230968
0.225306
0.220076
0.215247
0.210803
0.206746
0.359804
0.341742
0.325819
0.311683
0.29905
0.287694
0.27743
0.26811
0.259612
0.251835
0.244694
0.238121
0.232056
0.226449
0.22126
0.216459
0.212028
0.20797
0.359801
0.341728
0.325786
0.311622
0.298953
0.287553
0.277239
0.267864
0.259307
0.251468
0.244263
0.237623
0.231489
0.225812
0.220551
0.215677
0.211172
0.20704
0.359775
0.341619
0.325538
0.31118
0.29827
0.286595
0.275987
0.266309
0.257451
0.249319
0.241836
0.234933
0.228553
0.222648
0.217176
0.212107
0.207424
0.203132
0.359715
0.341372
0.324996
0.310252
0.296898
0.28475
0.273667
0.263529
0.254239
0.245708
0.237862
0.230634
0.223963
0.2178
0.2121
0.206829
0.201968
0.197524
0.359585
0.340846
0.323886
0.308442
0.294342
0.281459
0.269685
0.258922
0.249077
0.240064
0.231803
0.22422
0.21725
0.210834
0.204921
0.199472
0.194464
0.189902
0.359328
0.339827
0.321838
0.305265
0.290063
0.276176
0.263527
0.252025
0.241569
0.232059
0.223398
0.215498
0.20828
0.201671
0.195611
0.190052
0.184963
0.180349
0.358859
0.338001
0.318346
0.300121
0.283444
0.268324
0.254689
0.242419
0.231381
0.221441
0.212471
0.204358
0.197
0.190308
0.184209
0.178642
0.17357
0.168993
0.358049
0.3349
0.312724
0.292246
0.273754
0.257261
0.242637
0.229686
0.218203
0.207994
0.198886
0.190728
0.183393
0.176772
0.170776
0.165333
0.160394
0.155961
0.356704
0.32979
0.303939
0.28056
0.260004
0.242155
0.226709
0.21332
0.201661
0.191452
0.182461
0.174495
0.167397
0.161039
0.155316
0.150148
0.145477
0.141301
0.354514
0.321316
0.290198
0.263285
0.240641
0.221733
0.205901
0.192536
0.181144
0.171337
0.162816
0.155346
0.148749
0.142879
0.137627
0.132903
0.128647
0.12485
0.350895
0.306573
0.267865
0.237008
0.212789
0.193669
0.178333
0.165795
0.155355
0.14652
0.13894
0.132358
0.126585
0.121477
0.116924
0.112842
0.109168
0.105892
0.342433
0.2759
0.227202
0.193428
0.169667
0.152387
0.139294
0.128974
0.120574
0.113568
0.107614
0.102476
0.0979886
0.0940305
0.0905099
0.0873568
0.0845194
0.0819777
0.259299
0.173099
0.131327
0.107372
0.0920534
0.0816139
0.0741363
0.0685223
0.0641238
0.0605528
0.0575703
0.0550241
0.0528132
0.0508679
0.0491381
0.0475871
0.0461869
0.0449207
0.00268475
0.00703109
0.00977293
0.0119808
0.0138557
0.0155115
0.0170103
0.018389
0.0196729
0.0208804
0.022026
0.0231205
0.0241724
0.0251881
0.0261722
0.0271282
0.0280584
0.028965
0.0298504
0.030718
0.0315736
0.0324268
0.0332935
0.0341946
0.035054
0.0358609
0.0366137
0.0373101
0.0379477
0.0385238
0.0390361
0.0394825
0.0398612
0.040171
0.0404114
0.0405827
0.0406863
0.0407253
0.0407047
0.0406331
0.0405237
0.0403955
0.040268
0.0401432
0.0399944
0.0398085
0.0395841
0.0393233
0.0390294
0.038706
0.0383569
0.037986
0.0375971
0.037194
0.0367802
0.0363593
0.0359344
0.0355086
0.0350846
0.0346648
0.0342516
0.0338469
0.0334522
0.0330692
0.0326988
0.0323421
0.0319998
0.0316722
0.0313598
0.0310625
0.0307805
0.0305135
0.0302613
0.0300235
0.0297996
0.0295892
0.0293918
0.0292067
0.0290334
0.0288712
0.0287197
0.028578
0.0284458
0.0283224
0.0282072
0.0280997
0.0279995
0.0279059
0.0278187
0.0277373
0.0276613
0.0275904
0.0275241
0.0274622
0.0274044
0.0273503
0.0272997
0.0272523
0.0272079
0.0271662
0.0271271
0.0270903
0.0270554
0.0270222
0.0269918
0.0269638
0.0269378
0.0269133
0.0268902
0.0268682
0.0268474
0.0268275
0.0268084
0.0267901
0.0267726
0.0267556
0.0267393
0.0267235
0.0267082
0.0266933
0.0266788
0.0266647
0.026651
0.0266376
0.0266244
0.0266115
0.0265989
0.0265864
0.0265742
0.0265621
0.0265501
0.0265383
0.0265266
0.026515
0.0265034
0.026492
0.0264806
0.0264692
0.0264578
0.0264465
0.0264352
0.0264238
0.0264125
0.0264011
0.0263897
0.0263782
0.0263666
0.026355
0.0263433
0.0263316
0.0263197
0.0263078
0.0262957
0.0262835
0.0262713
0.0262588
0.0262463
0.0262335
0.0262206
0.0262075
0.0261941
0.0261804
0.0261663
0.0261518
0.0261368
0.0261211
0.0261045
0.0260867
0.0260676
0.0260464
0.0260227
0.0259954
0.025963
0.0259232
0.0258721
0.0258028
0.0257017
0.02554
0.0252596
0.024742
0.00830852
0.0181975
0.0237153
0.0280743
0.0318464
0.0352094
0.0382518
0.0410327
0.0435991
0.0459899
0.0482383
0.0503724
0.0524153
0.0543862
0.0562999
0.0581681
0.059999
0.061798
0.0635681
0.0653099
0.0670219
0.0687008
0.0703416
0.071925
0.0734466
0.0749066
0.0763006
0.0776224
0.078865
0.0800212
0.081084
0.0820466
0.0829029
0.0836476
0.0842764
0.0847861
0.0851748
0.0854421
0.0855889
0.0856173
0.0855305
0.0853324
0.0850276
0.0846278
0.0841363
0.0835586
0.0829014
0.0821725
0.08138
0.0805325
0.0796383
0.0787058
0.0777433
0.0767586
0.0757594
0.0747527
0.0737453
0.0727432
0.0717521
0.0707768
0.069822
0.0688912
0.0679879
0.0671145
0.0662734
0.065466
0.0646934
0.0639565
0.0632554
0.0625902
0.0619605
0.0613657
0.0608049
0.0602772
0.0597813
0.059316
0.05888
0.0584718
0.0580902
0.0577335
0.0574004
0.0570895
0.0567995
0.056529
0.0562767
0.0560415
0.0558222
0.0556177
0.055427
0.055249
0.055083
0.0549279
0.0547831
0.0546478
0.0545213
0.0544029
0.0542921
0.0541882
0.0540908
0.0539993
0.0539133
0.0538323
0.0537559
0.0536834
0.0536135
0.0535478
0.0534858
0.0534274
0.0533721
0.0533198
0.05327
0.0532225
0.0531771
0.0531336
0.0530917
0.0530515
0.0530126
0.0529751
0.0529387
0.0529034
0.052869
0.0528356
0.052803
0.0527711
0.0527399
0.0527092
0.0526791
0.0526495
0.0526203
0.0525915
0.052563
0.0525348
0.0525068
0.052479
0.0524514
0.052424
0.0523966
0.0523693
0.0523421
0.0523149
0.0522877
0.0522604
0.0522331
0.0522058
0.0521783
0.0521507
0.052123
0.0520951
0.052067
0.0520388
0.0520104
0.0519817
0.0519529
0.0519238
0.0518944
0.0518648
0.0518349
0.0518046
0.051774
0.051743
0.0517115
0.0516795
0.0516469
0.0516134
0.051579
0.0515435
0.0515065
0.0514676
0.0514262
0.0513817
0.0513329
0.0512781
0.0512149
0.0511395
0.0510453
0.0509208
0.0507422
0.050468
0.049985
0.0492913
0.012188
0.025897
0.0331375
0.038618
0.0432822
0.0474253
0.051175
0.0546036
0.0577621
0.0606925
0.063431
0.0660096
0.0684557
0.070793
0.0730415
0.0752174
0.0773335
0.0793997
0.0814228
0.0834071
0.0853547
0.0872655
0.0891376
0.0909584
0.0927242
0.0944299
0.0960685
0.097632
0.0991112
0.100497
0.101779
0.102949
0.103998
0.104919
0.105705
0.106351
0.106853
0.107208
0.107417
0.107479
0.107397
0.107174
0.106816
0.106334
0.105736
0.10503
0.104226
0.103332
0.102359
0.101318
0.100218
0.0990698
0.0978836
0.0966692
0.0954358
0.0941924
0.0929472
0.0917079
0.0904816
0.0892744
0.0880921
0.0869394
0.0858204
0.0847386
0.0836968
0.0826969
0.0817405
0.0808286
0.0799614
0.0791391
0.0783612
0.0776269
0.0769352
0.0762848
0.0756743
0.075102
0.0745662
0.0740651
0.073597
0.07316
0.0727523
0.0723722
0.0720178
0.0716876
0.0713799
0.0710932
0.070826
0.070577
0.0703449
0.0701284
0.0699264
0.0697379
0.0695618
0.0693973
0.0692434
0.0690993
0.0689644
0.0688379
0.0687191
0.0686075
0.0685025
0.0684035
0.0683101
0.0682217
0.0681376
0.0680574
0.0679817
0.0679098
0.0678415
0.0677765
0.0677144
0.067655
0.0675981
0.0675434
0.0674907
0.0674399
0.0673907
0.0673432
0.067297
0.0672521
0.0672084
0.0671657
0.0671241
0.0670833
0.0670433
0.067004
0.0669653
0.0669273
0.0668897
0.0668525
0.0668157
0.0667793
0.0667431
0.0667072
0.0666714
0.0666358
0.0666003
0.0665649
0.0665296
0.0664942
0.0664588
0.0664234
0.0663878
0.0663522
0.0663164
0.0662805
0.0662444
0.066208
0.0661715
0.0661347
0.0660977
0.0660603
0.0660227
0.0659848
0.0659466
0.065908
0.0658691
0.0658297
0.0657899
0.0657496
0.0657088
0.0656673
0.065625
0.0655819
0.0655377
0.0654922
0.065445
0.0653957
0.0653438
0.0652884
0.0652283
0.0651618
0.0650865
0.0649983
0.0648908
0.0647529
0.0645635
0.0642861
0.0638411
0.0632089
0.015202
0.0319064
0.0405183
0.046849
0.0521376
0.0567885
0.060979
0.0648033
0.068322
0.0715806
0.0746175
0.0774657
0.0801547
0.0827103
0.0851552
0.0875087
0.0897867
0.0920022
0.0941654
0.0962833
0.0983606
0.100399
0.102399
0.10435
0.106247
0.108086
0.109858
0.111554
0.113163
0.114676
0.116081
0.117367
0.118525
0.119545
0.12042
0.121142
0.121708
0.122113
0.122355
0.122435
0.122354
0.122116
0.121728
0.121202
0.120545
0.119766
0.118877
0.117888
0.116809
0.115653
0.11443
0.113152
0.11183
0.110475
0.109097
0.107707
0.106313
0.104924
0.103549
0.102194
0.100866
0.0995712
0.0983133
0.0970967
0.0959248
0.0948
0.0937241
0.0926984
0.0917234
0.0907992
0.0899254
0.0891012
0.0883253
0.0875964
0.0869128
0.0862727
0.0856741
0.0851149
0.0845931
0.0841066
0.0836532
0.083231
0.0828378
0.0824719
0.0821312
0.0818142
0.081519
0.0812441
0.0809881
0.0807494
0.0805269
0.0803194
0.0801256
0.0799445
0.0797752
0.0796167
0.0794683
0.079329
0.0791983
0.0790754
0.0789597
0.0788506
0.0787476
0.0786501
0.0785576
0.0784694
0.0783858
0.0783064
0.0782306
0.0781583
0.0780891
0.0780228
0.077959
0.0778976
0.0778384
0.0777811
0.0777257
0.0776719
0.0776196
0.0775687
0.0775191
0.0774706
0.0774231
0.0773766
0.0773309
0.077286
0.0772417
0.0771981
0.077155
0.0771123
0.07707
0.077028
0.0769864
0.0769449
0.0769037
0.0768626
0.0768216
0.0767806
0.0767397
0.0766987
0.0766577
0.0766167
0.0765755
0.0765341
0.0764926
0.0764509
0.076409
0.0763669
0.0763244
0.0762817
0.0762387
0.0761954
0.0761517
0.0761077
0.0760633
0.0760185
0.0759732
0.0759276
0.0758814
0.0758346
0.0757873
0.0757392
0.0756903
0.0756404
0.0755894
0.075537
0.0754829
0.0754266
0.0753675
0.0753049
0.0752375
0.0751636
0.0750808
0.0749853
0.0748709
0.0747276
0.0745372
0.0742701
0.0738737
0.0733408
0.0177336
0.0368738
0.0466323
0.0536768
0.0594785
0.0645301
0.0690532
0.073166
0.076942
0.0804335
0.0836819
0.0867223
0.0895853
0.092298
0.0948846
0.097366
0.0997601
0.102082
0.104343
0.106553
0.108718
0.11084
0.11292
0.11495
0.116927
0.118843
0.120692
0.122464
0.124148
0.125733
0.127207
0.128558
0.129776
0.13085
0.131772
0.132534
0.133131
0.133559
0.133814
0.133899
0.133812
0.13356
0.13315
0.132593
0.131896
0.13107
0.130125
0.129073
0.127925
0.126693
0.125388
0.124023
0.12261
0.121159
0.119683
0.118191
0.116693
0.1152
0.11372
0.11226
0.110828
0.10943
0.108071
0.106756
0.105489
0.104273
0.103109
0.102
0.100945
0.0999461
0.0990018
0.0981116
0.0972742
0.0964881
0.0957517
0.0950627
0.0944192
0.0938188
0.0932592
0.0927381
0.0922532
0.0918022
0.0913828
0.090993
0.0906306
0.0902937
0.0899804
0.089689
0.0894179
0.0891655
0.0889304
0.0887112
0.0885066
0.0883157
0.0881372
0.0879702
0.0878138
0.0876672
0.0875295
0.0874001
0.0872782
0.0871633
0.0870547
0.086952
0.0868545
0.0867617
0.0866735
0.0865896
0.0865094
0.0864328
0.0863593
0.0862888
0.0862208
0.0861554
0.0860921
0.0860308
0.0859715
0.0859138
0.0858576
0.0858029
0.0857495
0.0856972
0.085646
0.0855958
0.0855464
0.0854978
0.0854498
0.0854025
0.0853557
0.0853093
0.0852634
0.0852178
0.0851724
0.0851273
0.0850823
0.0850375
0.0849927
0.084948
0.0849033
0.0848585
0.0848137
0.0847688
0.0847237
0.0846785
0.084633
0.0845873
0.0845414
0.0844952
0.0844487
0.0844019
0.0843548
0.0843073
0.0842594
0.0842111
0.0841624
0.0841133
0.0840637
0.0840136
0.0839629
0.0839117
0.0838598
0.0838071
0.0837535
0.083699
0.0836432
0.0835861
0.0835271
0.0834659
0.083402
0.0833344
0.083262
0.0831833
0.0830957
0.0829958
0.0828777
0.0827323
0.0825445
0.0822904
0.0819352
0.0814827
0.0199465
0.0411336
0.051866
0.0595195
0.0657576
0.0711448
0.0759392
0.0802807
0.0842554
0.0879236
0.0913308
0.0945147
0.0975074
0.100337
0.103029
0.105605
0.108084
0.110482
0.112812
0.115084
0.117305
0.119479
0.121607
0.123682
0.1257
0.127658
0.129547
0.131358
0.13308
0.134701
0.136209
0.137592
0.138838
0.139936
0.140878
0.141656
0.142263
0.142696
0.142951
0.14303
0.142933
0.142666
0.142239
0.141658
0.140933
0.140075
0.139093
0.137999
0.136805
0.135522
0.134163
0.13274
0.131264
0.129748
0.128204
0.126641
0.125071
0.123503
0.121947
0.120411
0.118903
0.117429
0.115996
0.114608
0.113269
0.111984
0.110754
0.109581
0.108466
0.10741
0.106412
0.105472
0.104588
0.103759
0.102983
0.102258
0.101582
0.100951
0.100365
0.099819
0.099312
0.0988411
0.098404
0.0979982
0.0976216
0.097272
0.0969474
0.096646
0.0963658
0.0961053
0.0958629
0.0956371
0.0954268
0.0952305
0.0950472
0.0948758
0.0947154
0.0945651
0.094424
0.0942913
0.0941665
0.0940488
0.0939376
0.0938324
0.0937326
0.0936376
0.0935473
0.0934612
0.0933789
0.0933001
0.0932244
0.0931517
0.0930816
0.093014
0.0929486
0.0928852
0.0928237
0.0927639
0.0927056
0.0926488
0.0925932
0.0925388
0.0924855
0.0924331
0.0923816
0.0923309
0.0922808
0.0922313
0.0921823
0.0921338
0.0920857
0.0920378
0.0919903
0.0919429
0.0918957
0.0918486
0.0918016
0.0917546
0.0917075
0.0916604
0.0916133
0.0915659
0.0915185
0.0914708
0.0914229
0.0913748
0.0913264
0.0912776
0.0912286
0.0911792
0.0911295
0.0910793
0.0910288
0.0909778
0.0909264
0.0908745
0.0908221
0.0907692
0.0907157
0.0906616
0.0906067
0.0905511
0.0904946
0.0904371
0.0903783
0.0903181
0.0902561
0.0901919
0.0901248
0.0900542
0.0899789
0.0898973
0.0898072
0.0897051
0.0895858
0.0894413
0.0892587
0.0890194
0.0887002
0.0883116
0.0219225
0.0448582
0.0564223
0.0645932
0.0712002
0.076868
0.0818854
0.0864102
0.0905403
0.0943429
0.0978685
0.101158
0.104244
0.107157
0.109922
0.112562
0.115097
0.117544
0.119916
0.122224
0.124475
0.126675
0.128823
0.130915
0.132949
0.134921
0.136824
0.138648
0.140383
0.142016
0.143534
0.144926
0.14618
0.147283
0.148228
0.149006
0.149611
0.150038
0.150286
0.150355
0.150246
0.149968
0.149526
0.14893
0.148188
0.14731
0.146307
0.145188
0.143967
0.142655
0.141263
0.139804
0.138291
0.136734
0.135145
0.133536
0.131917
0.130299
0.128691
0.127102
0.125539
0.124011
0.122524
0.121082
0.119691
0.118354
0.117074
0.115853
0.114693
0.113594
0.112556
0.111578
0.11066
0.109799
0.108994
0.108242
0.107542
0.10689
0.106285
0.105722
0.1052
0.104716
0.104268
0.103852
0.103467
0.103111
0.10278
0.102473
0.102188
0.101924
0.101679
0.10145
0.101238
0.10104
0.100855
0.100683
0.100521
0.10037
0.100228
0.100095
0.0999699
0.0998519
0.0997404
0.0996348
0.0995348
0.0994397
0.0993491
0.0992626
0.09918
0.0991008
0.0990247
0.0989515
0.0988809
0.0988128
0.0987468
0.0986828
0.0986206
0.0985601
0.0985012
0.0984437
0.0983874
0.0983322
0.0982781
0.098225
0.0981727
0.0981211
0.0980702
0.0980198
0.09797
0.0979205
0.0978715
0.0978227
0.0977742
0.0977259
0.0976777
0.0976296
0.0975815
0.0975335
0.0974854
0.0974372
0.0973889
0.0973405
0.0972919
0.0972431
0.097194
0.0971447
0.0970951
0.0970451
0.0969948
0.0969442
0.0968932
0.0968417
0.0967899
0.0967376
0.0966848
0.0966315
0.0965777
0.0965234
0.0964685
0.0964129
0.0963566
0.0962994
0.0962414
0.0961824
0.0961221
0.0960603
0.0959968
0.0959311
0.0958626
0.0957906
0.0957141
0.0956315
0.0955407
0.0954386
0.0953204
0.0951792
0.0950042
0.0947809
0.0944942
0.094158
0.0236986
0.0481298
0.0604013
0.0690053
0.0759158
0.0818108
0.0870046
0.0916704
0.0959159
0.0998149
0.103422
0.106781
0.109927
0.112891
0.115699
0.118374
0.120938
0.123406
0.125795
0.128114
0.130372
0.132574
0.134718
0.136805
0.138834
0.140801
0.142699
0.144519
0.146251
0.14788
0.149395
0.150784
0.152033
0.153131
0.15407
0.154841
0.155439
0.155858
0.156097
0.156156
0.15604
0.155756
0.155309
0.154708
0.15396
0.153077
0.152067
0.150942
0.149712
0.148389
0.146985
0.145512
0.143981
0.142404
0.140793
0.139159
0.137513
0.135865
0.134226
0.132603
0.131005
0.129441
0.127916
0.126437
0.125009
0.123636
0.12232
0.121065
0.119872
0.118741
0.117674
0.116669
0.115725
0.114841
0.114015
0.113245
0.112528
0.111862
0.111244
0.110671
0.11014
0.109649
0.109194
0.108774
0.108385
0.108025
0.107692
0.107384
0.107099
0.106835
0.106589
0.106362
0.10615
0.105953
0.10577
0.105599
0.105439
0.105289
0.105149
0.105017
0.104894
0.104777
0.104667
0.104563
0.104465
0.104371
0.104282
0.104197
0.104115
0.104037
0.103962
0.10389
0.10382
0.103753
0.103687
0.103624
0.103562
0.103502
0.103444
0.103387
0.103331
0.103276
0.103223
0.10317
0.103118
0.103067
0.103016
0.102966
0.102916
0.102867
0.102818
0.102769
0.102721
0.102673
0.102625
0.102577
0.102529
0.102481
0.102433
0.102384
0.102336
0.102288
0.102239
0.10219
0.102141
0.102092
0.102042
0.101992
0.101942
0.101891
0.10184
0.101788
0.101736
0.101684
0.101631
0.101577
0.101523
0.101469
0.101413
0.101358
0.101301
0.101244
0.101185
0.101126
0.101066
0.101004
0.10094
0.100874
0.100806
0.100734
0.100657
0.100575
0.100486
0.100385
0.10027
0.100134
0.0999687
0.0997625
0.0995058
0.0992139
0.0252825
0.0509741
0.0638365
0.0727922
0.0799417
0.0860093
0.0913319
0.0960957
0.100417
0.104375
0.108027
0.111421
0.114594
0.117577
0.120397
0.123079
0.125643
0.128108
0.130488
0.132794
0.135037
0.13722
0.139342
0.141407
0.143415
0.145364
0.147247
0.149053
0.150772
0.152392
0.153898
0.155278
0.156519
0.15761
0.158542
0.159307
0.159898
0.160311
0.160545
0.160604
0.160491
0.160212
0.159772
0.15918
0.158443
0.15757
0.156572
0.155457
0.154238
0.152924
0.151528
0.15006
0.148533
0.146957
0.145344
0.143705
0.142052
0.140393
0.13874
0.137101
0.135486
0.133901
0.132355
0.130854
0.129402
0.128005
0.126666
0.125387
0.124172
0.12302
0.121932
0.120908
0.119947
0.119048
0.118208
0.117426
0.116699
0.116024
0.115399
0.11482
0.114285
0.11379
0.113334
0.112913
0.112524
0.112165
0.111833
0.111527
0.111244
0.110982
0.11074
0.110515
0.110307
0.110114
0.109934
0.109766
0.10961
0.109464
0.109327
0.109199
0.109078
0.108965
0.108858
0.108757
0.108661
0.10857
0.108484
0.108401
0.108322
0.108246
0.108173
0.108103
0.108035
0.10797
0.107906
0.107845
0.107785
0.107726
0.10767
0.107614
0.10756
0.107506
0.107454
0.107402
0.107352
0.107302
0.107252
0.107203
0.107155
0.107106
0.107059
0.107011
0.106964
0.106917
0.106869
0.106822
0.106775
0.106728
0.106681
0.106634
0.106586
0.106539
0.106491
0.106443
0.106395
0.106346
0.106298
0.106248
0.106199
0.106149
0.106098
0.106048
0.105997
0.105945
0.105893
0.10584
0.105787
0.105733
0.105679
0.105624
0.105568
0.105512
0.105454
0.105396
0.105336
0.105275
0.105212
0.105147
0.10508
0.10501
0.104935
0.104855
0.104768
0.104671
0.10456
0.104431
0.104277
0.104088
0.103859
0.103605
0.0266616
0.0533783
0.0667167
0.0759435
0.083267
0.089452
0.0948548
0.0996728
0.104029
0.108008
0.111671
0.115066
0.118232
0.121203
0.124006
0.126666
0.129204
0.13164
0.133987
0.13626
0.138465
0.140611
0.142695
0.144726
0.146705
0.148629
0.15049
0.152279
0.153985
0.155593
0.157091
0.158465
0.159702
0.160791
0.161722
0.162487
0.163078
0.163495
0.163739
0.163812
0.163717
0.163459
0.163044
0.162479
0.161771
0.160929
0.159962
0.158879
0.157691
0.156407
0.15504
0.153598
0.152095
0.15054
0.148945
0.14732
0.145677
0.144026
0.142377
0.140739
0.139121
0.137531
0.135978
0.134467
0.133004
0.131595
0.130243
0.128951
0.127723
0.126558
0.125458
0.124423
0.123452
0.122543
0.121696
0.120907
0.120174
0.119496
0.118867
0.118287
0.117752
0.117258
0.116803
0.116383
0.115997
0.115642
0.115314
0.115013
0.114734
0.114477
0.11424
0.114021
0.113818
0.11363
0.113455
0.113292
0.113141
0.113
0.112868
0.112744
0.112629
0.11252
0.112417
0.11232
0.112228
0.112141
0.112059
0.111979
0.111904
0.111831
0.111761
0.111694
0.111629
0.111566
0.111506
0.111447
0.111389
0.111333
0.111279
0.111225
0.111173
0.111122
0.111072
0.111022
0.110974
0.110926
0.110878
0.110831
0.110784
0.110738
0.110692
0.110646
0.110601
0.110555
0.11051
0.110465
0.110419
0.110374
0.110329
0.110283
0.110237
0.110191
0.110145
0.110099
0.110052
0.110005
0.109958
0.109911
0.109863
0.109814
0.109766
0.109717
0.109667
0.109617
0.109567
0.109516
0.109464
0.109412
0.109359
0.109306
0.109252
0.109197
0.109141
0.109085
0.109027
0.108968
0.108907
0.108844
0.108779
0.108711
0.108639
0.108562
0.108478
0.108386
0.108282
0.108161
0.108018
0.107847
0.107644
0.107424
0.0278094
0.055305
0.0690022
0.0784191
0.0858522
0.0920997
0.0975346
0.102364
0.106716
0.110678
0.114317
0.11768
0.120808
0.123737
0.126493
0.129104
0.131591
0.133973
0.136267
0.138484
0.140635
0.142725
0.144761
0.146749
0.148692
0.150587
0.152427
0.154201
0.155896
0.1575
0.158997
0.160373
0.161616
0.162714
0.163652
0.164428
0.165037
0.165479
0.165752
0.16586
0.165804
0.165589
0.165221
0.164705
0.164049
0.16326
0.162347
0.161319
0.160184
0.158953
0.157636
0.156242
0.154783
0.15327
0.151712
0.150121
0.148507
0.14688
0.145251
0.143629
0.142024
0.140443
0.138895
0.137387
0.135925
0.134514
0.133159
0.131864
0.13063
0.12946
0.128355
0.127315
0.12634
0.125427
0.124577
0.123786
0.123053
0.122374
0.121746
0.121168
0.120635
0.120144
0.119693
0.119279
0.118898
0.118548
0.118227
0.117931
0.11766
0.117409
0.117179
0.116966
0.11677
0.116588
0.11642
0.116264
0.116119
0.115984
0.115858
0.11574
0.11563
0.115526
0.115429
0.115337
0.11525
0.115168
0.11509
0.115015
0.114943
0.114874
0.114808
0.114745
0.114684
0.114624
0.114567
0.114511
0.114457
0.114404
0.114353
0.114302
0.114253
0.114205
0.114157
0.11411
0.114064
0.114019
0.113974
0.113929
0.113885
0.113841
0.113798
0.113754
0.113711
0.113668
0.113625
0.113582
0.113539
0.113496
0.113453
0.113409
0.113366
0.113322
0.113278
0.113234
0.11319
0.113145
0.1131
0.113055
0.11301
0.112964
0.112917
0.11287
0.112823
0.112775
0.112727
0.112679
0.11263
0.11258
0.112529
0.112479
0.112427
0.112375
0.112321
0.112267
0.112212
0.112155
0.112097
0.112038
0.111976
0.111911
0.111842
0.111769
0.11169
0.111603
0.111506
0.111394
0.111264
0.11111
0.110932
0.110742
0.0286895
0.0567029
0.0706387
0.0801657
0.0876457
0.0939038
0.0993258
0.104126
0.108437
0.11235
0.115931
0.119232
0.122293
0.125151
0.127834
0.130369
0.13278
0.135085
0.137302
0.139444
0.141522
0.143542
0.145518
0.147457
0.149361
0.151227
0.153048
0.154812
0.156505
0.158112
0.159621
0.161013
0.162271
0.163388
0.164356
0.165168
0.165821
0.166313
0.166643
0.166812
0.166822
0.166677
0.166382
0.165943
0.165364
0.164655
0.163821
0.162871
0.161814
0.160658
0.159414
0.15809
0.156697
0.155244
0.153743
0.152204
0.150636
0.149051
0.147459
0.145868
0.144289
0.142731
0.141201
0.139708
0.138257
0.136854
0.135505
0.134214
0.132983
0.131815
0.130711
0.129672
0.128697
0.127785
0.126936
0.126147
0.125416
0.124741
0.124117
0.123543
0.123015
0.12253
0.122086
0.121678
0.121304
0.120962
0.120648
0.12036
0.120096
0.119854
0.119631
0.119426
0.119238
0.119064
0.118903
0.118754
0.118616
0.118488
0.118369
0.118258
0.118154
0.118056
0.117965
0.117879
0.117797
0.11772
0.117647
0.117577
0.11751
0.117446
0.117384
0.117325
0.117268
0.117212
0.117159
0.117107
0.117056
0.117007
0.116959
0.116912
0.116866
0.116821
0.116777
0.116733
0.11669
0.116648
0.116606
0.116564
0.116523
0.116482
0.116441
0.116401
0.11636
0.11632
0.11628
0.116239
0.116199
0.116159
0.116118
0.116078
0.116037
0.115996
0.115955
0.115914
0.115872
0.11583
0.115788
0.115746
0.115703
0.11566
0.115616
0.115572
0.115528
0.115483
0.115438
0.115392
0.115346
0.115299
0.115251
0.115203
0.115155
0.115105
0.115055
0.115004
0.114952
0.114899
0.114844
0.114788
0.11473
0.114669
0.114604
0.114536
0.114463
0.114382
0.114292
0.11419
0.114072
0.113936
0.11378
0.113616
0.0292594
0.0575161
0.0715704
0.0811313
0.0886016
0.0948246
0.100195
0.104932
0.109171
0.113006
0.116503
0.119715
0.122683
0.125444
0.128027
0.130462
0.13277
0.134974
0.137091
0.139135
0.141118
0.143055
0.144961
0.146844
0.148707
0.150545
0.152348
0.154109
0.155811
0.15743
0.158956
0.160374
0.161672
0.162839
0.163866
0.164747
0.165476
0.16605
0.166468
0.16673
0.166838
0.166795
0.166604
0.166269
0.165797
0.165194
0.164466
0.163621
0.162665
0.161609
0.16046
0.159227
0.15792
0.156549
0.155124
0.153654
0.15215
0.150623
0.149082
0.147537
0.145998
0.144474
0.142974
0.141506
0.140076
0.138691
0.137357
0.136077
0.134856
0.133696
0.132599
0.131566
0.130596
0.12969
0.128846
0.128063
0.127337
0.126667
0.12605
0.125483
0.124962
0.124484
0.124048
0.123648
0.123283
0.122949
0.122644
0.122365
0.12211
0.121876
0.121662
0.121466
0.121286
0.12112
0.120968
0.120827
0.120697
0.120576
0.120464
0.12036
0.120262
0.120171
0.120086
0.120006
0.11993
0.119859
0.119791
0.119726
0.119664
0.119605
0.119548
0.119494
0.119441
0.11939
0.119341
0.119293
0.119246
0.119201
0.119157
0.119114
0.119071
0.11903
0.118989
0.118949
0.118909
0.11887
0.118831
0.118793
0.118755
0.118717
0.11868
0.118643
0.118605
0.118568
0.118531
0.118494
0.118457
0.118419
0.118382
0.118345
0.118307
0.118269
0.118231
0.118193
0.118154
0.118116
0.118077
0.118037
0.117998
0.117957
0.117917
0.117876
0.117835
0.117793
0.117751
0.117709
0.117666
0.117622
0.117578
0.117534
0.117489
0.117443
0.117396
0.117349
0.1173
0.117251
0.1172
0.117147
0.117093
0.117037
0.116977
0.116914
0.116846
0.116772
0.11669
0.116598
0.116493
0.116373
0.116237
0.116097
0.0294738
0.0576936
0.0717525
0.0812815
0.088697
0.0948508
0.100142
0.104793
0.10894
0.112676
0.116068
0.11917
0.122023
0.124664
0.127123
0.12943
0.13161
0.133686
0.135676
0.137597
0.139462
0.141298
0.14312
0.144937
0.146753
0.148559
0.150342
0.152092
0.153797
0.155441
0.157008
0.158484
0.159854
0.161106
0.16223
0.163217
0.16406
0.164755
0.165298
0.16569
0.165931
0.166022
0.165967
0.165769
0.165432
0.164963
0.164368
0.163651
0.162822
0.161887
0.160855
0.159734
0.158533
0.157262
0.155929
0.154546
0.153122
0.151667
0.150192
0.148706
0.14722
0.145743
0.144283
0.14285
0.141451
0.140092
0.13878
0.13752
0.136315
0.13517
0.134085
0.133062
0.132103
0.131206
0.13037
0.129595
0.128877
0.128216
0.127607
0.127048
0.126536
0.126067
0.125639
0.125249
0.124893
0.124569
0.124273
0.124004
0.123758
0.123534
0.123329
0.123142
0.122971
0.122814
0.12267
0.122537
0.122415
0.122302
0.122198
0.122101
0.122011
0.121926
0.121848
0.121774
0.121704
0.121639
0.121576
0.121517
0.12146
0.121406
0.121354
0.121304
0.121256
0.12121
0.121165
0.121121
0.121079
0.121038
0.120998
0.120958
0.12092
0.120882
0.120845
0.120809
0.120773
0.120737
0.120702
0.120667
0.120633
0.120598
0.120564
0.12053
0.120496
0.120462
0.120429
0.120395
0.120361
0.120327
0.120293
0.120259
0.120224
0.12019
0.120155
0.12012
0.120085
0.12005
0.120014
0.119978
0.119942
0.119905
0.119868
0.119831
0.119793
0.119755
0.119716
0.119677
0.119638
0.119598
0.119557
0.119516
0.119475
0.119433
0.11939
0.119346
0.119302
0.119256
0.119209
0.119161
0.119112
0.11906
0.119005
0.118948
0.118886
0.118819
0.118745
0.118663
0.11857
0.118465
0.118349
0.118229
0.0292855
0.0571955
0.0711628
0.0806144
0.0879497
0.0940193
0.0992219
0.103778
0.107825
0.111455
0.114733
0.117712
0.120433
0.122934
0.125246
0.1274
0.129423
0.131339
0.133168
0.134929
0.136659
0.138372
0.140085
0.141808
0.143543
0.14529
0.14704
0.148784
0.150509
0.152199
0.153838
0.155406
0.156888
0.158268
0.159531
0.160667
0.161667
0.162523
0.163232
0.163792
0.164201
0.16446
0.164571
0.164538
0.164365
0.164055
0.163616
0.163051
0.162369
0.161576
0.16068
0.159688
0.15861
0.157455
0.156231
0.154949
0.153618
0.15225
0.150853
0.149439
0.148017
0.146597
0.145188
0.1438
0.14244
0.141116
0.139834
0.1386
0.137418
0.136291
0.135224
0.134217
0.133271
0.132387
0.131563
0.130798
0.130092
0.12944
0.128841
0.128292
0.12779
0.127332
0.126914
0.126534
0.126188
0.125874
0.125588
0.125329
0.125093
0.124879
0.124683
0.124506
0.124344
0.124196
0.12406
0.123936
0.123822
0.123717
0.12362
0.12353
0.123447
0.12337
0.123298
0.12323
0.123167
0.123107
0.12305
0.122996
0.122945
0.122896
0.122849
0.122804
0.122761
0.122719
0.122679