/*--------------------------------*- C++ -*----------------------------------*\
  =========                 |
  \\      /  F ield         | OpenFOAM: The Open Source CFD Toolbox
   \\    /   O peration     | Website:  https://openfoam.org
    \\  /    A nd           | Version:  6
     \\/     M anipulation  |
\*---------------------------------------------------------------------------*/
FoamFile
{
    version     2.0;
    format      ascii;
    class       volScalarField;
    location    "0.05";
    object      nut;
}
// * * * * * * * * * * * * * * * * * * * * * * * * * * * * * * * * * * * * * //

dimensions      [0 2 -1 0 0 0 0];

internalField   nonuniform List<scalar> 
12225
(
1.77721e-05
1.42681e-05
1.23514e-05
1.11646e-05
1.03643e-05
9.79595e-06
9.3727e-06
9.04221e-06
8.77363e-06
8.54887e-06
8.35696e-06
8.19084e-06
8.04614e-06
7.92045e-06
7.81158e-06
7.7188e-06
7.64696e-06
7.61118e-06
0.000144882
0.000101922
8.79233e-05
8.05873e-05
7.61615e-05
7.32181e-05
7.09601e-05
6.90075e-05
6.72352e-05
6.56184e-05
6.41517e-05
6.28263e-05
6.16253e-05
6.05416e-05
5.95829e-05
5.87603e-05
5.81293e-05
5.7786e-05
0.000323342
0.000223611
0.000189869
0.00017268
0.000162219
0.000155209
0.000150052
0.000145912
0.000142389
0.000139305
0.000136577
0.000134163
0.000132019
0.000130112
0.000128454
0.000127075
0.000126066
0.000125626
0.000493991
0.000355299
0.000299549
0.000269822
0.000251384
0.000238908
0.000229845
0.000222826
0.000217114
0.000212311
0.000208198
0.000204659
0.000201568
0.00019888
0.000196584
0.000194702
0.000193316
0.000192603
0.000624495
0.000478758
0.000407511
0.000366458
0.000340009
0.000321707
0.000308309
0.00029801
0.000289774
0.000282993
0.000277304
0.000272491
0.000268354
0.000264807
0.000261809
0.000259356
0.000257503
0.000256378
0.000713134
0.000583447
0.000506704
0.000458215
0.000425353
0.000401883
0.000384378
0.000370824
0.000359998
0.000351142
0.000343779
0.000337585
0.000332309
0.00032782
0.000324037
0.000320929
0.000318514
0.000316876
0.000769343
0.000665675
0.000592503
0.000541496
0.000504839
0.000477631
0.000456815
0.000440443
0.00042726
0.000416445
0.000407458
0.000399878
0.000393441
0.000387974
0.00038336
0.000379539
0.000376497
0.000374281
0.000803487
0.000726398
0.000662749
0.000613775
0.000576269
0.000547195
0.000524263
0.000505845
0.000490804
0.000478357
0.000467932
0.000459101
0.000451581
0.000445175
0.000439744
0.000435202
0.000431514
0.000428693
0.000823652
0.000769012
0.000717419
0.000673776
0.000638087
0.000609095
0.000585435
0.000565951
0.00054975
0.000536161
0.000524638
0.000514803
0.000506378
0.000499157
0.00049299
0.000487781
0.000483477
0.000480068
0.000835339
0.000797669
0.000758022
0.000721445
0.000689533
0.000662321
0.000639286
0.000619783
0.00060322
0.000589066
0.000576906
0.000566418
0.000557351
0.000549514
0.000542762
0.000536997
0.00053216
0.000528224
0.000842029
0.000816262
0.000786907
0.000757722
0.000730659
0.000706446
0.000685161
0.0006666
0.000650441
0.000636361
0.000624077
0.000613343
0.00060396
0.000595765
0.000588633
0.000582474
0.000577233
0.000572873
0.000845518
0.000826993
0.000805003
0.000781964
0.00075955
0.000738665
0.000719682
0.000702656
0.000687491
0.000674029
0.000662098
0.000651534
0.000642192
0.000633947
0.000626699
0.000620374
0.000614928
0.000610326
0.000847628
0.000833988
0.0008176
0.000799787
0.000781745
0.000764295
0.000747906
0.000732791
0.00071901
0.000706532
0.000695286
0.000685183
0.000676131
0.000668048
0.000660863
0.000654523
0.000648996
0.000644249
0.000848988
0.000838813
0.000826868
0.00081367
0.000799885
0.00078609
0.000772705
0.000759993
0.000748096
0.000737076
0.000726943
0.000717676
0.000709241
0.000701596
0.000694705
0.000688541
0.000683085
0.000678309
0.000849788
0.000841818
0.000833003
0.000823407
0.000813275
0.000802906
0.000792571
0.000782482
0.00077279
0.000763591
0.00075494
0.000746865
0.000739373
0.000732462
0.000726127
0.000720366
0.000715174
0.000710524
0.000850213
0.000843487
0.0008366
0.000829439
0.00082201
0.000814397
0.000806709
0.000799061
0.000791553
0.000784264
0.000777254
0.000770567
0.000764231
0.000758267
0.000752694
0.000747525
0.00074277
0.000738399
0.000850412
0.000844293
0.000838415
0.000832634
0.000826865
0.000821075
0.000815265
0.00080946
0.000803696
0.000798012
0.000792443
0.000787024
0.000781784
0.000776751
0.000771948
0.000767401
0.000763123
0.000759082
0.000850483
0.000844587
0.000839099
0.000833882
0.000828832
0.000823877
0.000818973
0.000814098
0.000809249
0.000804432
0.000799661
0.000794957
0.000790339
0.00078583
0.000781456
0.000777242
0.000773202
0.000769301
0.000850461
0.000844495
0.000838885
0.00083349
0.000828209
0.000822978
0.000817762
0.000812549
0.000807343
0.000802157
0.00079701
0.000791921
0.000786914
0.000782011
0.000777237
0.000772619
0.000768171
0.000763865
0.000850262
0.000843686
0.000837046
0.000830215
0.000823164
0.000815929
0.00080858
0.000801194
0.000793846
0.0007866
0.000779505
0.000772599
0.000765912
0.000759465
0.000753278
0.00074737
0.000741753
0.000736397
0.000849704
0.000841515
0.000832397
0.000822443
0.000811909
0.000801088
0.000790242
0.000779572
0.00076922
0.000759272
0.000749778
0.00074076
0.000732221
0.000724155
0.000716556
0.000709417
0.000702732
0.000696462
0.000848158
0.000835918
0.000821335
0.000805351
0.000788888
0.000772635
0.000757029
0.000742305
0.00072856
0.000715806
0.000704007
0.000693102
0.000683022
0.000673699
0.000665071
0.000657093
0.000649727
0.000642921
0.000844079
0.000822703
0.000797817
0.000772263
0.000747764
0.000725137
0.000704645
0.000686257
0.000669806
0.000655078
0.000641857
0.000629944
0.000619163
0.000609366
0.000600434
0.000592274
0.000584823
0.000578017
0.000833779
0.000794189
0.000753217
0.000715732
0.000683089
0.000655184
0.000631431
0.000611144
0.000593695
0.000578559
0.000565311
0.00055361
0.000543188
0.000533837
0.000525393
0.000517737
0.000510792
0.000504494
0.000809062
0.00073862
0.000678344
0.000630558
0.000593032
0.000563306
0.000539409
0.00051986
0.000503581
0.000489796
0.00047794
0.000467602
0.000458475
0.000450332
0.000443005
0.000436374
0.000430365
0.000424932
0.00075367
0.000642602
0.000568046
0.000517268
0.00048108
0.000454269
0.000433718
0.000417454
0.000404206
0.000393138
0.000383689
0.00037547
0.00036821
0.000361716
0.000355849
0.000350514
0.000345656
0.000341255
0.000641456
0.000499065
0.00042662
0.000383698
0.000355424
0.00033555
0.000320842
0.000309427
0.000300191
0.000292454
0.000285792
0.000279931
0.000274687
0.000269937
0.000265593
0.000261598
0.000257924
0.000254577
0.000448549
0.00032013
0.000270169
0.000243276
0.000226427
0.00021503
0.000206766
0.000200331
0.000195007
0.000190408
0.000186318
0.000182613
0.000179215
0.000176073
0.000173153
0.000170432
0.0001679
0.000165574
0.000203092
0.000143521
0.000122916
0.000111614
0.000104672
0.000100172
9.69267e-05
9.4273e-05
9.19167e-05
8.97491e-05
8.77316e-05
8.58473e-05
8.40863e-05
8.24407e-05
8.09029e-05
7.94655e-05
7.81233e-05
7.68793e-05
2.40293e-05
1.96331e-05
1.71011e-05
1.54632e-05
1.43181e-05
1.34823e-05
1.28505e-05
1.2355e-05
1.19527e-05
1.16159e-05
1.13271e-05
1.10748e-05
1.0851e-05
1.06503e-05
1.04687e-05
1.03032e-05
1.01516e-05
1.00126e-05
2.90247e-06
1.0059e-05
1.19405e-05
1.32484e-05
1.42632e-05
1.51034e-05
1.58269e-05
1.64662e-05
1.70419e-05
1.75682e-05
1.80553e-05
1.85105e-05
1.89396e-05
1.93464e-05
1.9734e-05
2.01045e-05
2.04593e-05
2.07995e-05
2.11259e-05
2.14392e-05
2.17401e-05
2.20294e-05
2.23055e-05
2.26196e-05
2.29225e-05
2.32043e-05
2.34653e-05
2.37058e-05
2.39256e-05
2.41245e-05
2.43021e-05
2.4458e-05
2.45919e-05
2.47033e-05
2.4792e-05
2.48576e-05
2.48996e-05
2.49177e-05
2.49111e-05
2.4879e-05
2.48216e-05
2.47442e-05
2.4666e-05
2.46115e-05
2.45616e-05
2.45022e-05
2.44299e-05
2.43442e-05
2.42459e-05
2.41356e-05
2.40145e-05
2.38836e-05
2.37441e-05
2.35971e-05
2.34438e-05
2.32853e-05
2.31228e-05
2.29574e-05
2.27901e-05
2.2622e-05
2.2454e-05
2.22869e-05
2.21216e-05
2.19589e-05
2.17992e-05
2.16433e-05
2.14916e-05
2.13445e-05
2.12022e-05
2.10651e-05
2.09333e-05
2.08068e-05
2.06858e-05
2.05701e-05
2.04599e-05
2.03548e-05
2.02549e-05
2.01599e-05
2.00696e-05
1.99839e-05
1.99026e-05
1.98254e-05
1.97521e-05
1.96824e-05
1.96163e-05
1.95533e-05
1.94934e-05
1.94363e-05
1.93819e-05
1.93299e-05
1.92802e-05
1.92326e-05
1.91869e-05
1.91431e-05
1.91009e-05
1.90602e-05
1.9021e-05
1.8983e-05
1.89462e-05
1.89105e-05
1.88758e-05
1.8842e-05
1.8809e-05
1.87765e-05
1.87449e-05
1.87142e-05
1.86843e-05
1.86549e-05
1.8626e-05
1.85975e-05
1.85693e-05
1.85414e-05
1.85138e-05
1.84863e-05
1.8459e-05
1.84318e-05
1.84047e-05
1.83777e-05
1.83508e-05
1.83239e-05
1.8297e-05
1.82701e-05
1.82432e-05
1.82163e-05
1.81894e-05
1.81624e-05
1.81353e-05
1.81082e-05
1.80809e-05
1.80536e-05
1.80262e-05
1.79987e-05
1.7971e-05
1.79432e-05
1.79153e-05
1.78872e-05
1.7859e-05
1.78306e-05
1.78021e-05
1.77734e-05
1.77445e-05
1.77154e-05
1.76862e-05
1.76567e-05
1.76271e-05
1.75972e-05
1.75672e-05
1.75369e-05
1.75064e-05
1.74757e-05
1.74448e-05
1.74136e-05
1.73823e-05
1.73506e-05
1.73188e-05
1.72866e-05
1.72543e-05
1.72216e-05
1.71887e-05
1.71555e-05
1.7122e-05
1.70882e-05
1.70541e-05
1.70196e-05
1.69847e-05
1.69494e-05
1.69135e-05
1.68771e-05
1.68399e-05
1.68019e-05
1.67628e-05
1.67223e-05
1.66798e-05
1.66348e-05
1.65858e-05
1.65306e-05
1.64649e-05
1.63793e-05
1.62554e-05
1.60549e-05
5.22122e-06
3.9286e-05
6.2444e-05
7.70193e-05
8.75735e-05
9.6064e-05
0.000103368
0.000109925
0.000115985
0.000121705
0.000127193
0.000132526
0.00013776
0.000142933
0.000148072
0.000153189
0.000158285
0.000163347
0.000168351
0.000173259
0.000178018
0.000182561
0.000186811
0.000190621
0.000194181
0.000197586
0.000200856
0.000203986
0.000206968
0.000209787
0.000212432
0.000214886
0.000217138
0.000219171
0.000220972
0.000222527
0.000223821
0.000224837
0.000225559
0.00022597
0.000226054
0.000225811
0.000225262
0.000224462
0.000223442
0.000222219
0.000220808
0.000219224
0.000217483
0.000215602
0.000213595
0.00021148
0.000209272
0.00020699
0.000204648
0.000202264
0.000199851
0.000197425
0.000194999
0.000192587
0.000190201
0.00018785
0.000185546
0.000183296
0.000181108
0.000178989
0.000176942
0.000174972
0.000173083
0.000171275
0.000169549
0.000167906
0.000166345
0.000164865
0.000163465
0.000162141
0.000160891
0.000159712
0.000158602
0.000157557
0.000156574
0.000155649
0.00015478
0.000153962
0.000153193
0.00015247
0.00015179
0.000151149
0.000150545
0.000149976
0.000149439
0.000148932
0.000148452
0.000147998
0.000147567
0.000147159
0.00014677
0.000146401
0.000146048
0.000145711
0.000145388
0.000145079
0.000144782
0.000144493
0.0001442
0.000143913
0.000143636
0.000143368
0.000143109
0.000142859
0.000142615
0.000142379
0.000142148
0.000141922
0.000141702
0.000141485
0.000141272
0.000141063
0.000140857
0.000140653
0.000140452
0.000140253
0.000140055
0.000139859
0.000139664
0.00013947
0.000139277
0.000139085
0.000138893
0.000138702
0.00013851
0.000138319
0.000138127
0.000137935
0.000137742
0.00013755
0.000137356
0.000137162
0.000136967
0.000136771
0.000136574
0.000136376
0.000136177
0.000135977
0.000135776
0.000135573
0.000135369
0.000135164
0.000134957
0.000134748
0.000134538
0.000134326
0.000134113
0.000133898
0.000133681
0.000133462
0.000133241
0.000133018
0.000132793
0.000132566
0.000132336
0.000132104
0.000131868
0.000131628
0.000131384
0.000131135
0.00013088
0.000130617
0.000130345
0.00013006
0.000129759
0.000129434
0.000129077
0.00012867
0.000128186
0.000127569
0.000126701
0.000125352
0.00012284
0.000118635
6.37716e-06
5.51713e-05
9.72629e-05
0.000127039
0.000149392
0.000167363
0.000182646
0.000196198
0.000208583
0.000220146
0.000231111
0.000241626
0.000251791
0.000261673
0.000271314
0.000280736
0.000289944
0.000298932
0.000307679
0.000316158
0.000324334
0.000332166
0.000339618
0.000346604
0.000353241
0.000359583
0.000365646
0.000371424
0.000376905
0.00038207
0.000386896
0.000391364
0.00039545
0.000399132
0.000402391
0.000405206
0.000407561
0.000409439
0.000410829
0.000411722
0.000412115
0.000412014
0.000411435
0.000410412
0.000408976
0.000407155
0.000404973
0.000402457
0.000399631
0.000396524
0.000393165
0.000389581
0.000385803
0.00038186
0.000377782
0.000373599
0.000369338
0.000365027
0.000360694
0.000356362
0.000352055
0.000347796
0.000343602
0.000339493
0.000335483
0.000331586
0.000327812
0.000324171
0.00032067
0.000317313
0.000314103
0.000311043
0.000308132
0.000305369
0.000302751
0.000300275
0.000297937
0.000295733
0.000293656
0.000291702
0.000289865
0.000288137
0.000286515
0.000284991
0.00028356
0.000282216
0.000280953
0.000279767
0.000278651
0.000277602
0.000276615
0.000275684
0.000274807
0.000273979
0.000273197
0.000272458
0.000271757
0.000271093
0.000270462
0.000269861
0.000269289
0.000268743
0.00026822
0.000267716
0.000267227
0.000266747
0.000266283
0.000265834
0.0002654
0.000264979
0.000264571
0.000264175
0.000263789
0.000263414
0.000263047
0.000262688
0.000262337
0.000261992
0.000261654
0.000261321
0.000260992
0.000260668
0.000260348
0.000260031
0.000259717
0.000259405
0.000259096
0.000258787
0.000258481
0.000258175
0.00025787
0.000257565
0.000257261
0.000256956
0.000256651
0.000256346
0.00025604
0.000255733
0.000255425
0.000255115
0.000254805
0.000254493
0.000254179
0.000253863
0.000253546
0.000253226
0.000252905
0.000252581
0.000252254
0.000251925
0.000251594
0.00025126
0.000250923
0.000250583
0.000250241
0.000249895
0.000249546
0.000249194
0.000248838
0.000248478
0.000248113
0.000247744
0.000247369
0.000246988
0.000246599
0.000246202
0.000245794
0.000245373
0.000244935
0.000244475
0.000243986
0.000243458
0.000242874
0.000242208
0.000241416
0.000240418
0.000239052
0.000237011
0.00023356
0.000227989
7.14295e-06
6.53756e-05
0.000121322
0.000163607
0.000196376
0.000222938
0.000245401
0.000265082
0.000282809
0.000299113
0.000314342
0.000328727
0.000342427
0.000355548
0.000368165
0.000380324
0.000392056
0.000403378
0.000414294
0.000424803
0.000434898
0.000444567
0.000453799
0.000462553
0.0004709
0.000478877
0.000486497
0.000493758
0.000500647
0.000507148
0.000513238
0.000518893
0.000524089
0.000528801
0.000533006
0.000536683
0.000539812
0.000542377
0.000544366
0.00054577
0.000546588
0.000546823
0.00054648
0.000545588
0.000544174
0.000542265
0.000539888
0.000537071
0.000533844
0.00053024
0.000526291
0.000522033
0.000517502
0.000512733
0.000507763
0.000502629
0.000497367
0.000492013
0.000486601
0.000481164
0.000475732
0.000470336
0.000465002
0.000459753
0.000454613
0.0004496
0.000444731
0.000440018
0.000435474
0.000431106
0.000426921
0.000422922
0.000419111
0.000415487
0.00041205
0.000408795
0.000405718
0.000402814
0.000400076
0.000397499
0.000395075
0.000392795
0.000390654
0.000388643
0.000386755
0.000384982
0.000383318
0.000381755
0.000380287
0.000378907
0.000377609
0.000376388
0.000375238
0.000374154
0.000373131
0.000372166
0.000371252
0.000370388
0.000369568
0.00036879
0.00036805
0.000367345
0.000366672
0.000366026
0.000365405
0.000364802
0.000364221
0.000363659
0.000363116
0.00036259
0.00036208
0.000361585
0.000361105
0.000360636
0.00036018
0.000359734
0.000359298
0.000358871
0.000358452
0.000358041
0.000357636
0.000357237
0.000356843
0.000356454
0.000356068
0.000355687
0.000355308
0.000354932
0.000354557
0.000354185
0.000353813
0.000353443
0.000353073
0.000352703
0.000352333
0.000351962
0.000351591
0.00035122
0.000350847
0.000350472
0.000350097
0.000349719
0.00034934
0.000348958
0.000348574
0.000348188
0.000347799
0.000347407
0.000347013
0.000346615
0.000346214
0.00034581
0.000345403
0.000344992
0.000344577
0.000344159
0.000343737
0.00034331
0.000342878
0.000342442
0.000342
0.000341552
0.000341098
0.000340635
0.000340163
0.00033968
0.000339184
0.000338671
0.000338137
0.000337576
0.00033698
0.000336334
0.000335621
0.00033481
0.00033385
0.000332654
0.000331059
0.00032877
0.000325214
0.000319961
7.7235e-06
7.25795e-05
0.000138902
0.000191142
0.000232555
0.0002664
0.000294961
0.000319767
0.000341837
0.000361855
0.000380285
0.000397446
0.000413561
0.000428791
0.000443249
0.00045702
0.000470165
0.000482731
0.000494752
0.000506255
0.000517257
0.00052777
0.000537802
0.000547343
0.000556457
0.00056518
0.000573531
0.000581512
0.000589115
0.000596326
0.000603124
0.000609485
0.000615383
0.000620791
0.000625681
0.000630029
0.00063381
0.000637005
0.000639597
0.000641574
0.000642927
0.000643647
0.000643742
0.000643234
0.000642144
0.000640496
0.000638315
0.000635627
0.000632464
0.000628856
0.000624839
0.000620448
0.000615722
0.0006107
0.00060542
0.000599924
0.000594251
0.000588442
0.000582535
0.000576568
0.000570577
0.000564597
0.000558658
0.000552792
0.000547024
0.000541379
0.000535877
0.000530536
0.000525371
0.000520394
0.000515613
0.000511036
0.000506665
0.000502502
0.000498547
0.000494796
0.000491248
0.000487895
0.000484733
0.000481753
0.000478949
0.000476312
0.000473834
0.000471506
0.000469321
0.00046727
0.000465344
0.000463536
0.000461838
0.000460243
0.000458743
0.000457333
0.000456006
0.000454757
0.000453578
0.000452466
0.000451416
0.000450422
0.000449481
0.000448589
0.000447741
0.000446935
0.000446166
0.00044543
0.000444725
0.000444045
0.00044339
0.000442758
0.000442148
0.000441558
0.000440986
0.000440431
0.000439892
0.000439368
0.000438857
0.000438359
0.000437872
0.000437395
0.000436928
0.000436469
0.000436019
0.000435575
0.000435137
0.000434705
0.000434278
0.000433855
0.000433435
0.000433019
0.000432605
0.000432194
0.000431784
0.000431375
0.000430967
0.000430559
0.000430151
0.000429744
0.000429335
0.000428926
0.000428516
0.000428104
0.000427691
0.000427276
0.000426859
0.000426439
0.000426017
0.000425593
0.000425165
0.000424735
0.000424301
0.000423864
0.000423424
0.00042298
0.000422532
0.00042208
0.000421624
0.000421164
0.0004207
0.00042023
0.000419755
0.000419275
0.000418789
0.000418296
0.000417795
0.000417285
0.000416765
0.000416233
0.000415686
0.00041512
0.000414531
0.000413912
0.000413253
0.000412542
0.000411756
0.000410865
0.000409817
0.000408526
0.000406843
0.000404515
0.000401132
0.000396514
8.19017e-06
7.79378e-05
0.000152189
0.000212307
0.000260722
0.000300542
0.000334106
0.000363066
0.000388572
0.000411425
0.000432191
0.00045127
0.000468952
0.00048545
0.000500925
0.0005155
0.000529273
0.000542323
0.000554712
0.000566494
0.000577711
0.000588397
0.000598575
0.000608272
0.000617558
0.000626477
0.000635055
0.000643303
0.000651217
0.000658787
0.000665993
0.000672809
0.000679207
0.000685156
0.000690623
0.000695576
0.000699986
0.000703824
0.000707069
0.000709699
0.000711694
0.000713036
0.000713738
0.000713811
0.000713273
0.000712139
0.000710432
0.000708175
0.000705395
0.000702123
0.000698392
0.000694237
0.000689695
0.000684805
0.00067961
0.000674148
0.000668464
0.000662597
0.000656591
0.000650486
0.000644321
0.000638134
0.00063196
0.000625834
0.000619786
0.000613843
0.000608031
0.000602371
0.000596881
0.000591576
0.000586469
0.000581567
0.000576878
0.000572405
0.000568148
0.000564107
0.000560279
0.000556659
0.000553241
0.00055002
0.000546987
0.000544134
0.000541452
0.000538933
0.000536568
0.000534348
0.000532264
0.000530309
0.000528472
0.000526748
0.000525128
0.000523605
0.000522172
0.000520823
0.000519552
0.000518353
0.000517222
0.000516152
0.000515139
0.000514179
0.000513268
0.000512402
0.000511577
0.000510789
0.000510035
0.00050931
0.000508613
0.000507942
0.000507293
0.000506667
0.00050606
0.000505472
0.000504901
0.000504345
0.000503804
0.000503276
0.000502761
0.000502257
0.000501763
0.000501278
0.000500802
0.000500334
0.000499872
0.000499417
0.000498967
0.000498521
0.00049808
0.000497642
0.000497207
0.000496774
0.000496343
0.000495914
0.000495485
0.000495058
0.00049463
0.000494202
0.000493774
0.000493345
0.000492915
0.000492484
0.00049205
0.000491616
0.000491178
0.000490739
0.000490297
0.000489852
0.000489405
0.000488954
0.000488499
0.000488041
0.00048758
0.000487115
0.000486645
0.000486172
0.000485694
0.000485212
0.000484724
0.000484232
0.000483734
0.00048323
0.00048272
0.000482202
0.000481677
0.000481142
0.000480596
0.000480037
0.000479462
0.000478868
0.00047825
0.0004776
0.000476909
0.000476163
0.000475342
0.000474413
0.000473328
0.000472006
0.000470318
0.000468057
0.000464941
0.000460946
8.57694e-06
8.20151e-05
0.000162368
0.000228676
0.000282664
0.000327258
0.000364801
0.000397013
0.000425135
0.000450061
0.000472437
0.000492737
0.000511313
0.00052843
0.000544295
0.00055907
0.00057289
0.000585865
0.000598088
0.000609638
0.000620582
0.000630975
0.00064086
0.000650302
0.000659383
0.000668158
0.000676664
0.000684917
0.000692922
0.000700668
0.000708137
0.000715299
0.000722123
0.000728569
0.000734598
0.00074017
0.000745246
0.000749789
0.000753766
0.000757146
0.000759885
0.000761982
0.000763439
0.00076426
0.000764453
0.000764029
0.000763005
0.000761399
0.000759235
0.000756541
0.000753345
0.000749683
0.000745589
0.000741102
0.000736262
0.000731111
0.00072569
0.000720042
0.000714211
0.000708239
0.000702168
0.000696037
0.000689886
0.000683751
0.000677666
0.000671662
0.000665767
0.000660007
0.000654401
0.00064897
0.000643727
0.000638684
0.00063385
0.000629231
0.000624829
0.000620644
0.000616676
0.000612921
0.000609373
0.000606027
0.000602876
0.000599911
0.000597124
0.000594506
0.000592049
0.000589742
0.000587578
0.000585547
0.000583641
0.000581852
0.000580171
0.000578592
0.000577107
0.00057571
0.000574394
0.000573153
0.000571982
0.000570876
0.000569829
0.000568838
0.000567897
0.000567004
0.000566153
0.000565341
0.000564565
0.00056382
0.000563104
0.000562415
0.00056175
0.000561108
0.000560487
0.000559884
0.000559299
0.000558731
0.000558177
0.000557637
0.00055711
0.000556595
0.00055609
0.000555594
0.000555108
0.000554629
0.000554158
0.000553693
0.000553234
0.000552779
0.000552329
0.000551883
0.000551439
0.000550998
0.000550559
0.000550122
0.000549686
0.00054925
0.000548815
0.00054838
0.000547944
0.000547508
0.00054707
0.000546631
0.000546191
0.000545748
0.000545304
0.000544857
0.000544407
0.000543955
0.000543499
0.00054304
0.000542578
0.000542112
0.000541643
0.000541169
0.000540691
0.000540209
0.000539723
0.000539232
0.000538735
0.000538234
0.000537727
0.000537214
0.000536694
0.000536166
0.00053563
0.000535085
0.000534529
0.000533959
0.000533373
0.000532768
0.000532138
0.000531476
0.000530773
0.000530016
0.000529183
0.000528246
0.000527158
0.000525848
0.000524204
0.000522065
0.000519243
0.000515792
8.90142e-06
8.51068e-05
0.000170101
0.000241188
0.000299503
0.000347796
0.000388385
0.000423027
0.000453029
0.000479353
0.000502715
0.000523649
0.000542563
0.000559772
0.000575525
0.000590024
0.000603439
0.000615909
0.000627559
0.000638494
0.000648805
0.000658571
0.000667854
0.000676764
0.000685397
0.000693822
0.000702084
0.000710208
0.000718202
0.000726057
0.00073375
0.000741249
0.000748512
0.000755492
0.000762139
0.000768402
0.000774231
0.000779576
0.000784389
0.000788608
0.000792216
0.000795201
0.000797553
0.000799267
0.000800345
0.000800789
0.000800612
0.000799826
0.000798452
0.000796513
0.000794036
0.000791052
0.000787595
0.000783701
0.00077941
0.000774761
0.000769798
0.000764564
0.000759101
0.000753454
0.000747666
0.000741779
0.000735833
0.000729868
0.000723921
0.000718024
0.00071221
0.000706506
0.000700938
0.000695525
0.000690286
0.000685235
0.000680382
0.000675737
0.000671304
0.000667085
0.000663079
0.000659286
0.0006557
0.000652317
0.00064913
0.000646131
0.000643312
0.000640665
0.00063818
0.000635849
0.000633663
0.000631612
0.000629688
0.000627882
0.000626188
0.000624596
0.0006231
0.000621693
0.000620369
0.000619121
0.000617943
0.000616831
0.00061578
0.000614784
0.00061384
0.000612943
0.00061209
0.000611276
0.000610499
0.000609754
0.000609038
0.000608349
0.000607685
0.000607043
0.000606422
0.00060582
0.000605236
0.000604669
0.000604116
0.000603577
0.000603051
0.000602536
0.000602032
0.000601538
0.000601053
0.000600575
0.000600105
0.000599641
0.000599183
0.00059873
0.000598281
0.000597836
0.000597394
0.000596955
0.000596518
0.000596082
0.000595648
0.000595214
0.00059478
0.000594347
0.000593913
0.000593478
0.000593043
0.000592606
0.000592167
0.000591726
0.000591283
0.000590838
0.00059039
0.00058994
0.000589486
0.000589029
0.000588568
0.000588104
0.000587636
0.000587164
0.000586688
0.000586207
0.000585722
0.000585232
0.000584737
0.000584237
0.000583731
0.000583219
0.0005827
0.000582173
0.000581639
0.000581094
0.000580539
0.00057997
0.000579385
0.000578781
0.000578153
0.000577493
0.000576794
0.000576041
0.000575216
0.000574291
0.000573224
0.000571954
0.000570387
0.000568398
0.000565865
0.00056288
9.17238e-06
8.73678e-05
0.000175756
0.000250392
0.000311933
0.000362959
0.000405748
0.000442078
0.000473297
0.000500421
0.00052422
0.000545281
0.000564061
0.000580918
0.000596142
0.000609972
0.000622609
0.000634227
0.000644977
0.000654992
0.000664387
0.000673264
0.000681727
0.000689918
0.000697951
0.000705909
0.000713847
0.000721798
0.000729769
0.00073775
0.000745713
0.000753615
0.000761404
0.000769021
0.000776401
0.000783477
0.000790188
0.000796449
0.000802196
0.000807393
0.00081201
0.000816019
0.000819402
0.000822146
0.000824242
0.00082569
0.000826493
0.000826663
0.000826213
0.000825164
0.00082354
0.00082137
0.000818685
0.000815521
0.000811914
0.000807906
0.000803538
0.000798853
0.000793895
0.000788709
0.000783338
0.000777826
0.000772217
0.00076655
0.000760864
0.000755197
0.000749582
0.00074405
0.000738628
0.00073334
0.000728206
0.000723244
0.000718467
0.000713885
0.000709505
0.000705331
0.000701365
0.000697605
0.00069405
0.000690695
0.000687534
0.000684559
0.000681764
0.00067914
0.000676677
0.000674368
0.000672204
0.000670174
0.000668272
0.000666488
0.000664815
0.000663244
0.000661769
0.000660382
0.000659078
0.000657849
0.000656691
0.000655597
0.000654563
0.000653585
0.000652658
0.000651777
0.00065094
0.000650142
0.000649379
0.000648649
0.000647948
0.000647273
0.000646623
0.000645994
0.000645386
0.000644797
0.000644225
0.000643669
0.000643128
0.0006426
0.000642085
0.000641581
0.000641088
0.000640604
0.000640129
0.000639662
0.000639201
0.000638747
0.000638299
0.000637856
0.000637416
0.000636981
0.000636548
0.000636118
0.00063569
0.000635264
0.000634839
0.000634414
0.00063399
0.000633565
0.000633141
0.000632715
0.000632289
0.000631861
0.000631431
0.000631
0.000630566
0.00063013
0.000629691
0.00062925
0.000628805
0.000628357
0.000627906
0.000627451
0.000626992
0.000626529
0.000626063
0.000625591
0.000625115
0.000624635
0.000624149
0.000623658
0.000623162
0.000622659
0.000622149
0.000621632
0.000621107
0.000620573
0.000620027
0.000619469
0.000618895
0.000618302
0.000617686
0.000617039
0.000616354
0.000615619
0.000614815
0.000613918
0.000612891
0.00061168
0.00061021
0.000608383
0.000606123
0.000603537
9.39338e-06
8.88737e-05
0.00017953
0.000256601
0.000320365
0.000373248
0.000417474
0.000454821
0.000486664
0.000514055
0.000537809
0.000558554
0.000576789
0.000592911
0.000607246
0.000620069
0.000631611
0.000642079
0.000651651
0.000660488
0.000668733
0.000676511
0.000683989
0.000691336
0.000698682
0.000706126
0.000713732
0.000721537
0.000729548
0.000737747
0.000746097
0.000754539
0.000763006
0.000771419
0.000779695
0.000787751
0.000795463
0.000802773
0.000809621
0.000815954
0.000821728
0.000826905
0.000831455
0.000835357
0.000838596
0.000841165
0.000843062
0.000844295
0.000844875
0.000844818
0.000844148
0.000842889
0.000841073
0.000838734
0.000835908
0.000832635
0.000828956
0.000824915
0.000820555
0.000815922
0.000811062
0.000806018
0.000800835
0.000795556
0.000790221
0.00078487
0.000779538
0.000774259
0.000769063
0.000763977
0.000759023
0.000754221
0.000749586
0.000745132
0.000740868
0.000736798
0.000732928
0.000729256
0.000725783
0.000722503
0.000719413
0.000716507
0.000713776
0.000711214
0.000708811
0.000706559
0.00070445
0.000702474
0.000700624
0.00069889
0.000697265
0.00069574
0.00069431
0.000692967
0.000691704
0.000690515
0.000689395
0.000688338
0.00068734
0.000686396
0.000685501
0.000684652
0.000683845
0.000683076
0.000682342
0.000681639
0.000680964
0.000680314
0.000679688
0.000679083
0.000678498
0.00067793
0.00067738
0.000676844
0.000676323
0.000675815
0.000675319
0.000674834
0.000674359
0.000673893
0.000673435
0.000672985
0.000672542
0.000672105
0.000671673
0.000671245
0.000670822
0.000670402
0.000669986
0.000669571
0.000669159
0.000668748
0.000668338
0.000667929
0.00066752
0.00066711
0.000666701
0.000666291
0.000665879
0.000665466
0.000665052
0.000664636
0.000664217
0.000663796
0.000663373
0.000662946
0.000662517
0.000662084
0.000661648
0.000661209
0.000660766
0.000660318
0.000659867
0.000659411
0.000658951
0.000658486
0.000658016
0.000657541
0.000657061
0.000656574
0.000656081
0.00065558
0.000655072
0.000654554
0.000654026
0.000653485
0.00065293
0.000652356
0.00065176
0.000651136
0.000650475
0.000649767
0.000648995
0.000648138
0.000647163
0.000646025
0.000644662
0.000643002
0.000640997
0.000638754
9.56473e-06
8.96538e-05
0.000181514
0.000259979
0.000325041
0.000378976
0.000423945
0.000461706
0.000493642
0.000520831
0.000544114
0.000564156
0.000581487
0.000596539
0.00060967
0.000621185
0.00063135
0.0006404
0.000648545
0.000655975
0.000662864
0.000669371
0.000675741
0.000682164
0.00068879
0.000695731
0.000703061
0.000710817
0.000719
0.000727579
0.000736499
0.000745679
0.000755031
0.000764456
0.000773798
0.00078297
0.000791878
0.000800437
0.000808572
0.000816213
0.000823303
0.000829793
0.000835645
0.000840828
0.000845323
0.000849116
0.000852204
0.000854588
0.000856279
0.000857291
0.000857645
0.000857366
0.000856485
0.000855034
0.00085305
0.000850572
0.000847643
0.000844306
0.000840605
0.000836586
0.000832296
0.000827781
0.000823085
0.000818254
0.00081333
0.000808353
0.000803363
0.000798394
0.00079348
0.000788649
0.000783927
0.000779335
0.000774892
0.000770613
0.000766508
0.000762586
0.000758851
0.000755306
0.000751951
0.000748783
0.000745798
0.000742991
0.000740355
0.000737883
0.000735567
0.000733399
0.000731369
0.00072947
0.000727694
0.000726031
0.000724474
0.000723015
0.000721648
0.000720365
0.00071916
0.000718027
0.00071696
0.000715955
0.000715005
0.000714108
0.000713258
0.000712452
0.000711686
0.000710956
0.00071026
0.000709594
0.000708954
0.000708338
0.000707745
0.000707171
0.000706616
0.000706078
0.000705556
0.000705048
0.000704554
0.000704072
0.000703602
0.000703142
0.000702691
0.000702249
0.000701814
0.000701387
0.000700966
0.000700551