/*--------------------------------*- C++ -*----------------------------------*\
  =========                 |
  \\      /  F ield         | OpenFOAM: The Open Source CFD Toolbox
   \\    /   O peration     | Website:  https://openfoam.org
    \\  /    A nd           | Version:  6
     \\/     M anipulation  |
\*---------------------------------------------------------------------------*/
FoamFile
{
    version     2.0;
    format      ascii;
    class       volScalarField;
    location    "0.05";
    object      p;
}
// * * * * * * * * * * * * * * * * * * * * * * * * * * * * * * * * * * * * * //

dimensions      [0 2 -2 0 0 0 0];

internalField   nonuniform List<scalar> 
12225
(
0.35568
0.103172
0.0250453
0.014413
0.00966806
0.0047451
0.00175434
-0.000223905
-0.00224329
-0.0044719
-0.00686354
-0.00946207
-0.0123874
-0.0157911
-0.0199032
-0.0250981
-0.0327909
-0.0448968
-0.0265354
0.00385554
0.00472388
0.0110277
0.0101357
0.00580263
0.00255077
0.000232824
-0.00201192
-0.00437121
-0.00685369
-0.00954256
-0.0125575
-0.0160331
-0.0202048
-0.0253998
-0.0326806
-0.042158
-0.0631251
0.00775186
0.00936162
0.0114887
0.0103684
0.00642517
0.003204
0.000745705
-0.00163607
-0.0041048
-0.00668708
-0.00947323
-0.0125776
-0.0161251
-0.0203291
-0.0254123
-0.0319893
-0.0392269
-0.0177832
0.0209299
0.0128022
0.0113181
0.0100179
0.00655167
0.00352591
0.00106706
-0.00135902
-0.00387933
-0.00651966
-0.00936395
-0.0125161
-0.0160839
-0.0202316
-0.0250775
-0.0308834
-0.0368111
0.00257101
0.0208579
0.0123267
0.0105947
0.00943506
0.00641831
0.00361555
0.00121073
-0.00120267
-0.00372335
-0.00637416
-0.00922745
-0.0123717
-0.0158919
-0.019897
-0.0244267
-0.0295361
-0.0345811
0.00494092
0.0165998
0.0111741
0.0098997
0.00882922
0.00619069
0.00360098
0.00127002
-0.00110026
-0.00358761
-0.00621259
-0.00903428
-0.0121228
-0.0155388
-0.0193434
-0.0235249
-0.0280322
-0.0324017
0.00512458
0.0137425
0.0104888
0.00934486
0.0082645
0.00593879
0.0035477
0.00130301
-0.00100369
-0.00343317
-0.00600299
-0.00875858
-0.0117513
-0.015019
-0.0185859
-0.0224111
-0.0264004
-0.0302365
0.00618133
0.0121982
0.0100453
0.0088816
0.00776945
0.00570134
0.00349322
0.00134452
-0.000882272
-0.00323328
-0.00572195
-0.00838053
-0.0112429
-0.0143276
-0.0176331
-0.0211056
-0.0246451
-0.0280427
0.00726183
0.0111479
0.00964698
0.00849487
0.00736421
0.00550693
0.00346694
0.00142238
-0.000710428
-0.00296447
-0.00534835
-0.00788222
-0.0105849
-0.0134597
-0.0164893
-0.0196177
-0.0227575
-0.0257716
0.00796176
0.0103407
0.00928501
0.00819081
0.00705986
0.00537689
0.00349332
0.00156075
-0.000464939
-0.00260475
-0.00486213
-0.00724672
-0.00976496
-0.0124094
-0.0151545
-0.0179485
-0.0207216
-0.0233807
0.00835873
0.00975114
0.00898247
0.00796746
0.00685631
0.0053222
0.00358726
0.00177505
-0.000130696
-0.00214014
-0.00425152
-0.00646569
-0.00877965
-0.0111789
-0.0136348
-0.0161023
-0.0185285
-0.0208451
0.0085695
0.0093828
0.00876897
0.00783271
0.00675885
0.00534793
0.00374606
0.0020527
0.000268677
-0.00160743
-0.00356931
-0.00561144
-0.00772462
-0.00989056
-0.0120807
-0.0142564
-0.0163768
-0.0183841
0.00870294
0.00913159
0.00862776
0.00776911
0.00674353
0.0054483
0.00397549
0.002405
0.000750346
-0.000982856
-0.00278453
-0.00464426
-0.00654856
-0.00847737
-0.0104037
-0.0122954
-0.0141195
-0.0158269
0.00880813
0.00897337
0.00855015
0.00778007
0.00682592
0.00565844
0.00433297
0.00291128
0.00141599
-0.000140855
-0.00174562
-0.00338394
-0.00503931
-0.00669125
-0.00831547
-0.00988572
-0.0113753
-0.0127439
0.00892787
0.00894429
0.00857791
0.00790578
0.00704977
0.00602459
0.00486699
0.0036236
0.00232161
0.000978376
-0.000389468
-0.00176495
-0.00313013
-0.00446538
-0.00574974
-0.00696245
-0.0080811
-0.00907412
0.00913284
0.0090841
0.00876726
0.00820014
0.00746672
0.00660059
0.00563177
0.00459625
0.00352201
0.00242983
0.00133826
0.000265259
-0.000771406
-0.00175403
-0.00266534
-0.00348933
-0.00420692
-0.00479536
0.00951632
0.00945182
0.00919001
0.00873421
0.00814223
0.00745143
0.00669012
0.00588801
0.00507178
0.00426332
0.00348158
0.0027439
0.00206636
0.00146376
0.000949453
0.00053503
0.000236105
6.62844e-05
0.0101824
0.0101274
0.00993098
0.00959216
0.00915203
0.0086463
0.00810298
0.00754866
0.00700803
0.00650222
0.00604898
0.00566346
0.00535875
0.0051459
0.00503395
0.00502997
0.00514542
0.0053841
0.0112295
0.0112008
0.0110832
0.0108644
0.010575
0.0102509
0.00992098
0.00961042
0.00934268
0.00913711
0.00900872
0.00896912
0.00902723
0.00918951
0.00946018
0.00984152
0.0103401
0.010951
0.0123893
0.0124067
0.0123677
0.0122267
0.0120233
0.0118044
0.0115993
0.0114359
0.0113398
0.0113291
0.0114154
0.0116065
0.0119074
0.0123208
0.0128468
0.0134842
0.0142355
0.0150917
0.0133086
0.0134333
0.0134864
0.0133771
0.0132055
0.0130308
0.0128751
0.0127752
0.0127635
0.0128565
0.0130617
0.0133838
0.0138248
0.014384
0.0150587
0.0158448
0.0167419
0.0177395
0.0139571
0.0143896
0.0145817
0.0144453
0.0142663
0.0140931
0.0139275
0.0138309
0.0138473
0.0139875
0.0142538
0.0146481
0.0151697
0.0158148
0.0165781
0.0174532
0.0184373
0.0195187
0.0141199
0.0152733
0.0156635
0.0154366
0.0152418
0.0150322
0.0147935
0.0146475
0.0146488
0.0147936
0.0150779
0.0155021
0.0160625
0.0167523
0.0175632
0.0184873
0.0195193
0.0206479
0.013807
0.016251
0.016713
0.0163255
0.0161729
0.0158873
0.0155006
0.0152583
0.0152114
0.0153278
0.015598
0.016022
0.0165924
0.0172984
0.0181293
0.0190751
0.0201288
0.0212796
0.0136786
0.0183428
0.0180141
0.0171539
0.0171088
0.0166821
0.0160606
0.0156822
0.0155624
0.0156258
0.0158594
0.0162636
0.0168258
0.0175302
0.0183634
0.0193138
0.0203721
0.0215286
0.0120193
0.0228374
0.020357
0.0182351
0.0181514
0.0174235
0.0164689
0.0159218
0.015711
0.0157053
0.0158906
0.016266
0.0168115
0.0175054
0.0183317
0.0192769
0.02033
0.0214814
-0.00491772
0.0249273
0.0226329
0.0196459
0.0193369
0.0180506
0.0166712
0.0159345
0.0156231
0.0155462
0.0156872
0.0160389
0.0165711
0.0172557
0.0180744
0.0190123
0.0200567
0.0211986
-0.0489933
0.0116896
0.018612
0.0198089
0.0201242
0.0182213
0.0164376
0.0155561
0.0151777
0.0150615
0.0151884
0.0155417
0.0160795
0.0167682
0.0175882
0.0185247
0.0195636
0.0206956
-0.0289373
0.00168998
0.00865487
0.0175261
0.0195982
0.0173761
0.0154582
0.0146484
0.0143443
0.0142761
0.014443
0.0148325
0.0153979
0.0161043
0.0169338
0.0178745
0.018913
0.0200278
0.33564
0.11595
0.0389905
0.0261869
0.0212845
0.0166822
0.0143379
0.0137139
0.0136429
0.0137306
0.0139918
0.014439
0.0150386
0.0157628
0.0166
0.0175436
0.0185905
0.0197487
-0.0519908
-0.0524501
-0.0530957
-0.0538159
-0.0545862
-0.0553667
-0.0561077
-0.056764
-0.0572938
-0.0576561
-0.0578096
-0.0577121
-0.0573206
-0.0565918
-0.0554829
-0.0539527
-0.0519625
-0.0494779
-0.0464709
-0.0429214
-0.0388199
-0.0341596
-0.0289227
-0.0230749
-0.0166148
-0.00958347
-0.00202359
0.0060189
0.0144935
0.0233448
0.0325131
0.0419348
0.0515434
0.0612711
0.0710491
0.0808096
0.0904865
0.100017
0.109342
0.118409
0.127177
0.135623
0.143722
0.151434
0.158718
0.165551
0.171919
0.177815
0.183237
0.188191
0.192684
0.19673
0.200344
0.203546
0.206355
0.208796
0.21089
0.212662
0.214137
0.215338
0.216291
0.217017
0.217539
0.217879
0.218057
0.218091
0.217998
0.217797
0.2175
0.217123
0.216677
0.216173
0.215622
0.215033
0.214414
0.213771
0.213112
0.212442
0.211765
0.211085
0.210407
0.209733
0.209066
0.208408
0.20776
0.207125
0.206502
0.205894
0.205301
0.204723
0.20416
0.203613
0.203082
0.202567
0.202068
0.201584
0.201116
0.200663
0.200225
0.199801
0.199391
0.198995
0.198612
0.198244
0.197889
0.197542
0.197205
0.196877
0.19656
0.196252
0.195954
0.195664
0.195383
0.19511
0.194844
0.194585
0.194334
0.194088
0.193848
0.193614
0.193386
0.193161
0.192942
0.192726
0.192514
0.192306
0.192101
0.191899
0.191699
0.191503
0.191309
0.191117
0.190927
0.190739
0.190554
0.19037
0.190187
0.190007
0.189827
0.189649
0.189473
0.189297
0.189123
0.188949
0.188775
0.188602
0.188429
0.188257
0.188084
0.187911
0.187737
0.187564
0.18739
0.187216
0.187041
0.186867
0.186693
0.186519
0.186345
0.186172
0.186001
0.185831
0.185665
0.185502
0.185345
0.185195
0.185054
0.184927
0.184817
0.184731
0.184678
0.184671
0.184727
0.184876
0.185161
0.185659
0.186523
0.188
0.190902
0.195507
-0.049662
-0.0506288
-0.051484
-0.0520275
-0.0525123
-0.0530432
-0.0536045
-0.054158
-0.0546637
-0.0550796
-0.0553612
-0.0554617
-0.0553331
-0.0549263
-0.0541925
-0.0530838
-0.0515544
-0.0495615
-0.0470667
-0.0440352
-0.0404352
-0.0362385
-0.0314359
-0.0260548
-0.0201226
-0.0136485
-0.00665273
0.00083323
0.00876925
0.0171082
0.0257972
0.0347787
0.0439916
0.0533724
0.0628567
0.0723801
0.0818793
0.0912935
0.100565
0.109637
0.118452
0.126948
0.135077
0.142821
0.150168
0.157098
0.163597
0.169656
0.17527
0.180442
0.185176
0.189481
0.193369
0.196857
0.199961
0.2027
0.205096
0.207169
0.208943
0.210439
0.211679
0.212686
0.213479
0.214081
0.214509
0.214782
0.214917
0.214931
0.214839
0.214654
0.214388
0.214054
0.213662
0.213221
0.21274
0.212227
0.211687
0.211128
0.210554
0.20997
0.20938
0.208788
0.208196
0.207608
0.207024
0.206448
0.20588
0.205323
0.204776
0.20424
0.203717
0.203206
0.202708
0.202223
0.201752
0.201294
0.200849
0.200418
0.199999
0.199593
0.1992
0.198819
0.198449
0.198091
0.197744
0.197408
0.197082
0.196765
0.196457
0.196158
0.195867
0.195585
0.195309
0.195042
0.194781
0.194527
0.194279
0.194037
0.193801
0.19357
0.193343
0.193122
0.192904
0.192691
0.192481
0.192274
0.19207
0.191869
0.191671
0.191476
0.191282
0.191091
0.190902
0.190715
0.19053
0.190347
0.190165
0.189985
0.189806
0.189628
0.189452
0.189277
0.189103
0.188929
0.188756
0.188583
0.18841
0.188238
0.188065
0.187892
0.187719
0.187546
0.187372
0.187198
0.187024
0.18685
0.186676
0.186502
0.186329
0.186157
0.185986
0.185817
0.185651
0.185489
0.185333
0.185184
0.185045
0.18492
0.184812
0.18473
0.184681
0.184679
0.184741
0.184896
0.185188
0.185685
0.186527
0.187895
0.190476
0.194259
-0.0474568
-0.0492476
-0.051043
-0.052064
-0.052661
-0.0531559
-0.0536391
-0.0541122
-0.0545555
-0.054939
-0.0552247
-0.0553692
-0.0553262
-0.0550474
-0.0544844
-0.0535892
-0.0523161
-0.0506221
-0.0484683
-0.0458201
-0.0426471
-0.0389242
-0.0346379
-0.0297906
-0.0243914
-0.0184517
-0.0119903
-0.00503459
0.00238062
0.0102136
0.0184166
0.0269371
0.0357186
0.0447017
0.0538257
0.0630292
0.0722519
0.0814352
0.0905228
0.099461
0.108197
0.116681
0.124871
0.132734
0.140242
0.14737
0.154099
0.160416
0.166314
0.171788
0.176842
0.18148
0.185711
0.189547
0.193003
0.196094
0.19884
0.201259
0.203371
0.205197
0.206757
0.208073
0.209163
0.210049
0.210748
0.211278
0.211658
0.211902
0.212027
0.212046
0.211971
0.211816
0.211591
0.211306
0.210971
0.210592
0.210178
0.209735
0.209269
0.208785
0.208288
0.207781
0.207268
0.206753
0.206237
0.205723
0.205213
0.204709
0.204211
0.20372
0.203239
0.202766
0.202303
0.201851
0.20141
0.200979
0.20056
0.200151
0.199754
0.199368
0.198993
0.198628
0.198274
0.19793
0.197595
0.197271
0.196956
0.19665
0.196351
0.19606
0.195777
0.195502
0.195233
0.194972
0.194716
0.194467
0.194224
0.193986
0.193753
0.193526
0.193302
0.193083
0.192868
0.192657
0.192449
0.192244
0.192042
0.191843
0.191646
0.191451
0.191259
0.191069
0.190881
0.190695
0.190511
0.190328
0.190147
0.189967
0.189789
0.189612
0.189436
0.189261
0.189087
0.188914
0.188741
0.188568
0.188396
0.188224
0.188051
0.187878
0.187706
0.187532
0.187359
0.187185
0.187012
0.186838
0.186664
0.186491
0.186318
0.186146
0.185975
0.185807
0.185642
0.185481
0.185325
0.185177
0.18504
0.184916
0.184811
0.184732
0.184687
0.184688
0.184756
0.184916
0.185211
0.185703
0.186513
0.187759
0.189933
0.192571
-0.0470885
-0.0494802
-0.0521721
-0.0539349
-0.0550022
-0.0557776
-0.0564294
-0.0570047
-0.0575131
-0.0579452
-0.058277
-0.0584743
-0.0584963
-0.0582983
-0.0578332
-0.0570535
-0.0559128
-0.0543667
-0.0523747
-0.0499008
-0.0469147
-0.0433934
-0.0393233
-0.0346993
-0.0295241
-0.0238066
-0.0175636
-0.0108198
-0.00360772
0.00403318
0.0120571
0.0204131
0.0290457
0.0378968
0.0469061
0.0560128
0.0651564
0.074278
0.083321
0.092232
0.100961
0.109465
0.117703
0.125638
0.133239
0.14048
0.147341
0.153808
0.159872
0.165528
0.170775
0.175617
0.180062
0.184118
0.187798
0.191118
0.194093
0.196742
0.199082
0.201133
0.202914
0.204445
0.205745
0.206833
0.207728
0.208446
0.209006
0.209421
0.209709
0.209882
0.209955
0.209938
0.209843
0.20968
0.20946
0.209189
0.208875
0.208527
0.208149
0.207747
0.207326
0.20689
0.206444
0.20599
0.205532
0.205071
0.204611
0.204152
0.203696
0.203245
0.2028
0.202361
0.201929
0.201506
0.201091
0.200685
0.200289
0.199901
0.199524
0.199156
0.198797
0.198448
0.198108
0.197776
0.197454
0.19714
0.196835
0.196538
0.196248
0.195965
0.19569
0.195421
0.195159
0.194903
0.194653
0.194409
0.19417
0.193937
0.193708
0.193484
0.193264
0.193047
0.192835
0.192626
0.19242
0.192217
0.192017
0.191819
0.191624
0.191431
0.19124
0.191051
0.190864
0.190678
0.190495
0.190313
0.190132
0.189953
0.189775
0.189599
0.189423
0.189249
0.189076
0.188903
0.18873
0.188558
0.188386
0.188214
0.188041
0.187869
0.187696
0.187523
0.18735
0.187177
0.187003
0.186829
0.186656
0.186482
0.18631
0.186138
0.185968
0.185799
0.185634
0.185473
0.185318
0.18517
0.185033
0.184909
0.184804
0.184724
0.184677
0.184677
0.184741
0.184893
0.185171
0.185626
0.186353
0.187413
0.189103
0.190841
-0.0489117
-0.0516708
-0.0549904
-0.0573928
-0.0589699
-0.0601261
-0.061061
-0.0618472
-0.0625139
-0.0630675
-0.063496
-0.0637739
-0.0638665
-0.0637334
-0.0633304
-0.0626119
-0.0615323
-0.0600477
-0.0581175
-0.0557052
-0.0527802
-0.0493187
-0.0453047
-0.0407302
-0.0355958
-0.0299093
-0.0236872
-0.0169538
-0.00974177
-0.00209093
0.00595238
0.0143364
0.0230049
0.0318988
0.040957
0.0501179
0.0593202
0.0685044
0.0776134
0.0865932
0.0953942
0.103973
0.11229
0.12031
0.128002
0.135341
0.142309
0.14889
0.155074
0.160858
0.16624
0.171222
0.175812
0.180018
0.183852
0.187327
0.19046
0.193266
0.195764
0.197972
0.199908
0.201592
0.203042
0.204276
0.205312
0.206167
0.206859
0.207402
0.207811
0.208101
0.208285
0.208374
0.208379
0.208312
0.208181
0.207995
0.207761
0.207488
0.207181
0.206845
0.206487
0.206109
0.205718
0.205315
0.204904
0.204488
0.204069
0.203649
0.20323
0.202813
0.202398
0.201989
0.201584
0.201186
0.200795
0.200411
0.200035
0.199666
0.199306
0.198954
0.198611
0.198275
0.197948
0.197629
0.197318
0.197014
0.196719
0.19643
0.196148
0.195874
0.195605
0.195343
0.195087
0.194837
0.194592
0.194352
0.194118
0.193888
0.193663
0.193442
0.193225
0.193012
0.192802
0.192595
0.192392
0.192191
0.191992
0.191796
0.191602
0.191411
0.191221
0.191033
0.190847
0.190662
0.19048
0.190299
0.190119
0.18994
0.189763
0.189587
0.189413
0.189239
0.189066
0.188893
0.188721
0.188549
0.188377
0.188205
0.188033
0.187861
0.187689
0.187516
0.187343
0.187169
0.186996
0.186822
0.186648
0.186475
0.186302
0.18613
0.18596
0.185791
0.185626
0.185464
0.185308
0.18516
0.185021
0.184895
0.184788
0.184704
0.184652
0.184644
0.184695
0.184828
0.185072
0.185468
0.18608
0.18693
0.188176
0.189259
-0.0528723
-0.0558947
-0.0596762
-0.0625924
-0.0646239
-0.0661554
-0.0673952
-0.0684268
-0.0692898
-0.0699998
-0.0705532
-0.0709305
-0.0711022
-0.0710309
-0.0706751
-0.0699904
-0.0689321
-0.0674565
-0.0655227
-0.0630939
-0.0601385
-0.0566319
-0.0525573
-0.0479059
-0.042678
-0.0368821
-0.0305354
-0.0236643
-0.0163033
-0.00849458
-0.000287008
0.00826501
0.0171028
0.0261649
0.0353881
0.0447092
0.0540656
0.0633972
0.0726458
0.0817572
0.0906831
0.0993807
0.107811
0.11594
0.123738
0.131182
0.138253
0.144938
0.151228
0.157119
0.162609
0.167701
0.172403
0.176723
0.180672
0.184264
0.187515
0.190439
0.193055
0.19538
0.197433
0.199232
0.200795
0.20214
0.203285
0.204246
0.20504
0.205682
0.206187
0.206569
0.206841
0.207014
0.207101
0.20711
0.207052
0.206936
0.206769
0.206558
0.20631
0.20603
0.205724
0.205397
0.205052
0.204694
0.204324
0.203947
0.203565
0.203179
0.202791
0.202404
0.202018
0.201635
0.201255
0.20088
0.20051
0.200146
0.199788
0.199437
0.199093
0.198757
0.198428
0.198106
0.197791
0.197483
0.197183
0.196889
0.196603
0.196323
0.196049
0.195782
0.19552
0.195264
0.195014
0.19477
0.19453
0.194295
0.194065
0.193839
0.193618
0.1934
0.193186
0.192976
0.192769
0.192564
0.192363
0.192164
0.191967
0.191773
0.191581
0.19139
0.191202
0.191015
0.19083
0.190647
0.190465
0.190285
0.190106
0.189928
0.189752
0.189577
0.189402
0.189229
0.189056
0.188884
0.188712
0.188541
0.188369
0.188198
0.188026
0.187854
0.187681
0.187509
0.187336
0.187162
0.186989
0.186815
0.186641
0.186468
0.186295
0.186123
0.185952
0.185783
0.185616
0.185454
0.185296
0.185146
0.185005
0.184876
0.184764
0.184674
0.184614
0.184593
0.184626
0.18473
0.184929
0.185251
0.185738
0.18638
0.18725
0.187843
-0.0588328
-0.0620623
-0.0661965
-0.0695171
-0.0719281
-0.073794
-0.0753223
-0.0765993
-0.0776684
-0.07855
-0.0792442
-0.0797352
-0.0799957
-0.07999
-0.0796774
-0.0790137
-0.0779539
-0.0764536
-0.0744711
-0.0719686
-0.0689137
-0.0652812
-0.0610541
-0.0562242
-0.0507928
-0.0447703
-0.0381766
-0.0310415
-0.0234035
-0.015309
-0.00681142
0.00203052
0.011154
0.0204938
0.0299837
0.0395578
0.049152
0.0587046
0.0681561
0.0774538
0.0865511
0.0954054
0.103979
0.112238
0.120158
0.127714
0.134891
0.141677
0.148063
0.154047
0.159628
0.164812
0.169603
0.174013
0.178052
0.181734
0.185075
0.188089
0.190795
0.19321
0.195352
0.197239
0.198889
0.20032
0.201549
0.202593
0.203467
0.204188
0.204769
0.205225
0.205568
0.20581
0.205962
0.206035
0.206038
0.205979
0.205867
0.205709
0.205511
0.20528
0.205019
0.204735
0.204431
0.204111
0.203778
0.203435
0.203085
0.20273
0.202372
0.202011
0.201651
0.201292
0.200934
0.20058
0.20023
0.199885
0.199545
0.199211
0.198882
0.19856
0.198245
0.197935
0.197633
0.197336
0.197046
0.196763
0.196485
0.196214
0.195948
0.195688
0.195433
0.195184
0.19494
0.194701
0.194466
0.194236
0.194011
0.193789
0.193571
0.193357
0.193146
0.192939
0.192734
0.192533
0.192333
0.192137
0.191942
0.191749
0.191559
0.19137
0.191183
0.190997
0.190814
0.190631
0.190451
0.190271
0.190093
0.189916
0.189741
0.189566
0.189393
0.18922
0.189048
0.188876
0.188705
0.188533
0.188362
0.188191
0.188019
0.187847
0.187675
0.187502
0.187329
0.187156
0.186982
0.186809
0.186635
0.186461
0.186288
0.186115
0.185943
0.185774
0.185606
0.185442
0.185283
0.18513
0.184985
0.184852
0.184733
0.184635
0.184563
0.184527
0.184536
0.184606
0.184753
0.184996
0.185354
0.185801
0.186357
0.186575
-0.0666133
-0.0700077
-0.0744079
-0.078038
-0.0807538
-0.0829031
-0.0846893
-0.0861974
-0.0874707
-0.0885304
-0.0893775
-0.0899966
-0.0903602
-0.0904319
-0.0901696
-0.0895276
-0.0884587
-0.0869166
-0.0848575
-0.0822417
-0.0790356
-0.0752136
-0.0707586
-0.0656642
-0.0599337
-0.0535808
-0.0466302
-0.0391168
-0.0310854
-0.0225887
-0.0136866
-0.00444415
0.00507017
0.0147861
0.0246335
0.0345432
0.0444483
0.0542847
0.0639947
0.0735272
0.0828357
0.0918786
0.10062
0.109029
0.117082
0.124758
0.132043
0.138928
0.145405
0.151474
0.157136
0.162396
0.167262
0.171745
0.175855
0.179608
0.183019
0.186104
0.188879
0.191363
0.193574
0.19553
0.197248
0.198746
0.200041
0.201149
0.202087
0.202871
0.203513
0.204028
0.204428
0.204727
0.204933
0.205058
0.205112
0.205102
0.205037
0.204924
0.204769
0.204579
0.204358
0.204111
0.203843
0.203557
0.203257
0.202945
0.202624
0.202297
0.201965
0.20163
0.201293
0.200956
0.200619
0.200285
0.199954
0.199626
0.199303
0.198985
0.198671
0.198363
0.198061
0.197764
0.197473
0.197188
0.196908
0.196634
0.196366
0.196103
0.195845
0.195592
0.195345
0.195102
0.194864
0.19463
0.194401
0.194175
0.193954
0.193737
0.193523
0.193312
0.193105
0.192901
0.192699
0.1925
0.192303
0.192108
0.191916
0.191725
0.191536
0.191349
0.191163
0.190979
0.190797
0.190616
0.190436
0.190258
0.190081
0.189905
0.18973
0.189556
0.189383
0.189211
0.189039
0.188868
0.188697
0.188526
0.188355
0.188184
0.188013
0.187841
0.187669
0.187496
0.187323
0.18715
0.186976
0.186802
0.186628
0.186454
0.18628
0.186107
0.185935
0.185764
0.185595
0.185429
0.185267
0.185111
0.184962
0.184823
0.184697
0.184589
0.184504
0.184448
0.184431
0.184462
0.184553
0.184712
0.184946
0.185216
0.185509
0.185438
-0.0760067
-0.0795236
-0.084108
-0.0879603
-0.0909099
-0.093292
-0.0953036
-0.0970259
-0.0985
-0.099745
-0.10076
-0.101527
-0.102016
-0.102186
-0.101993
-0.101386
-0.100314
-0.0987269
-0.0965767
-0.0938208
-0.0904236
-0.0863588
-0.0816098
-0.0761723
-0.0700534
-0.0632719
-0.0558592
-0.0478581
-0.0393218
-0.0303121
-0.0208976
-0.0111515
-0.00114966
0.00903161
0.0193169
0.0296321
0.0399082
0.0500817
0.0600967
0.0699018
0.0794516
0.0887068
0.097634
0.106206
0.1144
0.1222
0.129594
0.136574
0.143137
0.149284
0.155017
0.160344
0.165272
0.169815
0.173983
0.177793
0.181259
0.184398
0.187228
0.189766
0.192031
0.19404
0.195811
0.197361
0.198709
0.199869
0.200859
0.201692
0.202384
0.202947
0.203395
0.203739
0.203991
0.20416
0.204257
0.204288
0.204263
0.204189
0.204072
0.203917
0.203731
0.203517
0.203281
0.203026
0.202755
0.202471
0.202177
0.201875
0.201567
0.201255
0.20094
0.200624
0.200307
0.199992
0.199679
0.199368
0.199061
0.198757
0.198458
0.198164
0.197875
0.19759
0.19731
0.197036
0.196767
0.196502
0.196243
0.195989
0.195739
0.195494
0.195253
0.195017
0.194785
0.194557
0.194333
0.194113
0.193896
0.193683
0.193473
0.193266
0.193062
0.192861
0.192662
0.192465
0.192271
0.192079
0.191888
0.1917
0.191513
0.191327
0.191143
0.190961
0.19078
0.1906
0.190421
0.190244
0.190068
0.189893
0.189719
0.189546
0.189374
0.189202
0.189031
0.18886
0.18869
0.188519
0.188349
0.188178
0.188007
0.187835
0.187663
0.187491
0.187318
0.187144
0.186971
0.186796
0.186622
0.186448
0.186273
0.186099
0.185926
0.185753
0.185583
0.185415
0.18525
0.18509
0.184936
0.184791
0.184657
0.184537
0.184436
0.184359
0.184312
0.184303
0.184336
0.184413
0.184529
0.184639
0.184712
0.184419
-0.0867684
-0.0903535
-0.0950299
-0.0990138
-0.102128
-0.104695
-0.106903
-0.108827
-0.110505
-0.11195
-0.113157
-0.114102
-0.11475
-0.115055
-0.114964
-0.11442
-0.113365
-0.111742
-0.109499
-0.106586
-0.102966
-0.0986111
-0.0935055
-0.0876487
-0.0810525
-0.0737437
-0.0657631
-0.0571645
-0.0480127
-0.0383814
-0.0283505
-0.0180035
-0.00742533
0.00329924
0.0140884
0.0248658
0.0355621
0.0461147
0.0564671
0.0665694
0.0763786
0.0858585
0.0949793
0.103717
0.112054
0.119975
0.127474
0.134544
0.141186
0.147402
0.153197
0.158579
0.16356
0.16815
0.172365
0.176219
0.179729
0.182911
0.185783
0.188364
0.190671
0.192721
0.194534
0.196127
0.197516
0.198718
0.199748
0.200622
0.201354
0.201958
0.202445
0.202828
0.203118
0.203324
0.203457
0.203524
0.203534
0.203493
0.203409
0.203286
0.20313
0.202947
0.202739
0.202512
0.202267
0.202009
0.20174
0.201461
0.201176
0.200885
0.200591
0.200294
0.199997
0.199699
0.199403
0.199108
0.198817
0.198528
0.198243
0.197962
0.197686
0.197413
0.197145
0.196881
0.196622
0.196368
0.196118
0.195872
0.19563
0.195392
0.195159
0.194929
0.194703
0.194481
0.194263
0.194047
0.193835
0.193627
0.193421
0.193218
0.193017
0.192819
0.192624
0.19243
0.192238
0.192048
0.19186
0.191673
0.191488
0.191305
0.191122
0.190941
0.190762
0.190583
0.190406
0.19023
0.190055
0.189881
0.189708
0.189536
0.189364
0.189193
0.189023
0.188853
0.188683
0.188513
0.188342
0.188172
0.188001
0.18783
0.187658
0.187485
0.187312
0.187139
0.186965
0.186791
0.186616
0.186441
0.186266
0.186091
0.185916
0.185742
0.18557
0.185399
0.185231
0.185067
0.184908
0.184755
0.184612
0.184479
0.184362
0.184262
0.184185
0.184133
0.184108
0.184105
0.184112
0.18408
0.183971
0.183504
-0.0985864
-0.102166
-0.106823
-0.110838
-0.114045
-0.116752
-0.119134
-0.121258
-0.123153
-0.124826
-0.126264
-0.127435
-0.128294
-0.128785
-0.128846
-0.128409
-0.127407
-0.125773
-0.123444
-0.120367
-0.116498
-0.111808
-0.106284
-0.0999299
-0.092764
-0.0848247
-0.0761662
-0.066857
-0.0569779
-0.0466176
-0.0358704
-0.0248344
-0.0136055
-0.0022756
0.00906993
0.0203535
0.0315043
0.0424593
0.053164
0.0635715
0.0736428
0.0833461
0.0926559
0.101553
0.110023
0.118056
0.125648
0.132797
0.139506
0.145779
0.151624
0.157052
0.162072
0.166701
0.170951
0.174839
0.178381
0.181596
0.184501
0.187114
0.189454
0.191537
0.193384
0.195009
0.196432
0.197667
0.198731
0.199638
0.200404
0.20104
0.20156
0.201976
0.202298
0.202536
0.2027
0.202799
0.202839
0.202828
0.202772
0.202678
0.20255
0.202393
0.202212
0.20201
0.20179
0.201555
0.201309
0.201053
0.200788
0.200518
0.200243
0.199965
0.199685
0.199405
0.199125
0.198847
0.19857
0.198296
0.198025
0.197757
0.197493
0.197233
0.196976
0.196723
0.196475
0.19623
0.195989
0.195751
0.195518
0.195288
0.195062
0.194839
0.194619
0.194403
0.19419
0.19398
0.193773
0.193568
0.193367
0.193168
0.192971
0.192776
0.192584
0.192393
0.192204
0.192016
0.19183
0.191646
0.191463
0.191281
0.191101
0.190921
0.190743
0.190566
0.19039
0.190216
0.190042
0.189869
0.189697
0.189525
0.189355
0.189185
0.189015
0.188845
0.188676
0.188506
0.188336
0.188166
0.187995
0.187824
0.187652
0.18748
0.187307
0.187134
0.186959
0.186785
0.18661
0.186434
0.186258
0.186082
0.185907
0.185731
0.185557
0.185383
0.185212
0.185043
0.184878
0.184717
0.184564
0.184418
0.184283
0.18416
0.184051
0.183957
0.183875
0.183796
0.183704
0.183547
0.183286
0.182682
-0.111047
-0.114525
-0.119026
-0.122961
-0.126188
-0.128995
-0.131537
-0.13387
-0.136012
-0.137959
-0.139685
-0.141149
-0.142291
-0.143042
-0.143326
-0.143062
-0.142165
-0.140558
-0.138165
-0.134923
-0.130783
-0.125715
-0.119708
-0.112771
-0.104935
-0.0962536
-0.0867999
-0.0766625
-0.0659437
-0.0547533
-0.0432045
-0.0314082
-0.0194695
-0.00748645
0.00445101
0.0162624
0.0278772
0.0392352
0.0502855
0.0609865
0.0713045
0.0812131
0.0906925
0.0997283
0.108311
0.116437
0.124104
0.131314
0.138073
0.144388
0.150268
0.155726
0.160775
0.165429
0.169703
0.173614
0.17718
0.180419
0.183348
0.185985
0.188349
0.190458
0.19233
0.193982
0.195431
0.196693
0.197785
0.19872
0.199513
0.200178
0.200726
0.20117
0.201519
0.201785
0.201977
0.202102
0.202169
0.202185
0.202156
0.202087
0.201984
0.201852
0.201695
0.201516
0.201319
0.201107
0.200882
0.200646
0.200402
0.200151
0.199895
0.199635
0.199373
0.199109
0.198845
0.198582
0.198321
0.198061
0.197804
0.197549
0.197297
0.197049
0.196804
0.196562
0.196323
0.196088
0.195856
0.195628
0.195402
0.19518
0.194961
0.194745
0.194532
0.194322
0.194115
0.19391
0.193708
0.193508
0.193311
0.193116
0.192922
0.192731
0.192542
0.192354
0.192168
0.191983
0.1918
0.191618
0.191437
0.191257
0.191078
0.190901
0.190724
0.190549
0.190374
0.190201
0.190028
0.189856
0.189685
0.189515
0.189345
0.189176
0.189007
0.188838
0.188669
0.1885
0.18833
0.18816
0.18799
0.187819
0.187647
0.187475
0.187302
0.187128
0.186954
0.186779
0.186603
0.186427
0.186251
0.186074
0.185897
0.18572
0.185543
0.185366
0.185191
0.185018
0.184846
0.184678
0.184513
0.184354
0.1842
0.184054
0.183913
0.183778
0.183641
0.183492
0.183309
0.183044
0.182656
0.181943
-0.123598
-0.126856
-0.131045
-0.134777
-0.137951
-0.140824
-0.143526
-0.146094
-0.148531
-0.150818
-0.152916
-0.154763
-0.156285
-0.157395
-0.157997
-0.15799
-0.157272
-0.155746
-0.153321
-0.149921
-0.145491
-0.139998
-0.133434
-0.125818
-0.117199
-0.107654
-0.0972817
-0.0862018
-0.0745429
-0.0624367
-0.0500147
-0.0374014
-0.0247138
-0.0120572
0.000475595
0.012805
0.0248641
0.0365977
0.0479615
0.0589206
0.0694484
0.0795254
0.0891382
0.0982785
0.106943
0.11513
0.122844
0.13009
0.136876
0.143212
0.14911
0.154582
0.159643
0.164309
0.168595
0.17252
0.176099
0.179352
0.182296
0.18495
0.187332
0.18946
0.191351
0.193024
0.194494
0.195779
0.196893
0.197851
0.198668
0.199356
0.199929
0.200397
0.200771
0.201062
0.201278
0.201428
0.201519
0.201559
0.201553
0.201508
0.201429
0.20132
0.201185
0.201028
0.200853
0.200662
0.200457
0.200241
0.200016
0.199784
0.199546
0.199303
0.199058
0.19881
0.198562
0.198315
0.198068
0.197822
0.197579
0.197337
0.197098
0.196861
0.196628
0.196397
0.196169
0.195943
0.195721
0.195501
0.195284
0.19507
0.194858
0.194649
0.194442
0.194238
0.194037
0.193837
0.19364
0.193445
0.193253
0.193062
0.192872
0.192685
0.192499
0.192314
0.192131
0.191949
0.191768
0.191588
0.19141
0.191232
0.191055
0.19088
0.190705
0.190531
0.190358
0.190186
0.190014
0.189844
0.189674
0.189504
0.189336
0.189167
0.188999
0.18883
0.188662
0.188493
0.188324
0.188154
0.187984
0.187813
0.187642
0.18747
0.187297
0.187123
0.186949
0.186773
0.186597
0.186421
0.186243
0.186065
0.185887
0.185708
0.185528
0.185349
0.18517
0.184991
0.184814
0.184637
0.184462
0.184288
0.184117
0.183946
0.183775
0.183599
0.183411
0.183197
0.182932
0.182573
0.182078
0.181279
-0.135523
-0.138422
-0.142128
-0.145531
-0.148586
-0.151504
-0.154381
-0.15723
-0.160034
-0.162754
-0.165328
-0.167677
-0.169703
-0.171296
-0.172334
-0.172693
-0.172246
-0.17087
-0.168454
-0.164907
-0.160164
-0.154188
-0.14698
-0.138574
-0.129051
-0.118522
-0.107118
-0.0949908
-0.0823013
-0.0692087
-0.0558664
-0.0424156
-0.0289818
-0.0156737
-0.00258239
0.0102171
0.0226649
0.0347143
0.0463298
0.0574855
0.0681635
0.0783523
0.0880457
0.0972419
0.105942
0.114152
0.121877
0.129127
0.135911
0.142243
0.148136
0.153603
0.15866
0.163323
0.167608
0.171533
0.175116
0.178374
0.181326
0.183989
0.186383
0.188523
0.190429
0.192118
0.193605
0.194907
0.19604
0.197018
0.197855
0.198564
0.199158
0.199647
0.200044
0.200356
0.200595
0.200767
0.200881
0.200943
0.20096
0.200937
0.200879
0.200792
0.200679
0.200543
0.200388
0.200217
0.200032
0.199835
0.199628
0.199414
0.199193
0.198968
0.198739
0.198508
0.198276
0.198043
0.197811
0.19758
0.197349
0.197121
0.196895
0.19667
0.196448
0.196228
0.19601
0.195795
0.195582
0.195371
0.195162
0.194956
0.194752
0.19455
0.19435
0.194152
0.193956
0.193763
0.193571
0.193381
0.193192
0.193006
0.19282
0.192637
0.192454
0.192273
0.192093
0.191913
0.191735
0.191558
0.191382
0.191206
0.191031
0.190858
0.190685
0.190512
0.190341
0.19017
0.19
0.189831
0.189662
0.189493
0.189326
0.189158
0.18899
0.188822
0.188654
0.188486
0.188317
0.188148
0.187978
0.187808
0.187636
0.187464
0.187292
0.187118
0.186943
0.186768
0.186591
0.186414
0.186236
0.186056
0.185877
0.185696
0.185514
0.185332
0.185149
0.184965
0.184781
0.184596
0.18441
0.184222
0.184033
0.183839
0.183638
0.183424
0.183188
0.182913
0.182577
0.182135
0.181551
0.180682
-0.145896
-0.148289
-0.151337
-0.154297
-0.157183
-0.160148
-0.16324
-0.166444
-0.169715
-0.172988
-0.176178
-0.179176
-0.181857
-0.184082
-0.185699
-0.186552
-0.18648
-0.18533
-0.182961