/*--------------------------------*- C++ -*----------------------------------*\
  =========                 |
  \\      /  F ield         | OpenFOAM: The Open Source CFD Toolbox
   \\    /   O peration     | Website:  https://openfoam.org
    \\  /    A nd           | Version:  6
     \\/     M anipulation  |
\*---------------------------------------------------------------------------*/
FoamFile
{
    version     2.0;
    format      ascii;
    class       surfaceScalarField;
    location    "0.05";
    object      phi;
}
// * * * * * * * * * * * * * * * * * * * * * * * * * * * * * * * * * * * * * //

dimensions      [0 3 -1 0 0 0 0];

internalField   nonuniform List<scalar> 
24170
(
3.25692e-07
-6.85131e-09
3.19493e-07
6.19857e-09
3.16014e-07
3.47899e-09
3.09124e-07
6.89066e-09
3.02428e-07
6.69534e-09
2.97771e-07
4.65697e-09
2.94885e-07
2.88612e-09
2.93068e-07
1.81749e-09
2.91887e-07
1.18072e-09
2.91157e-07
7.29637e-10
2.90793e-07
3.64607e-10
2.90718e-07
7.48256e-11
2.90895e-07
-1.77483e-10
2.91359e-07
-4.63793e-10
2.92228e-07
-8.68599e-10
2.9366e-07
-1.43259e-09
2.9678e-07
-3.11972e-09
-6.70232e-09
3.03482e-07
3.50363e-07
-1.54892e-08
3.47853e-07
8.70811e-09
3.44206e-07
7.12615e-09
3.42511e-07
8.58624e-09
3.40556e-07
8.65024e-09
3.38359e-07
6.8538e-09
3.36384e-07
4.86068e-09
3.34839e-07
3.36262e-09
3.33731e-07
2.28904e-09
3.33004e-07
1.45615e-09
3.32611e-07
7.5783e-10
3.32546e-07
1.395e-10
3.32821e-07
-4.5243e-10
3.33448e-07
-1.09075e-09
3.34489e-07
-1.90936e-09
3.36126e-07
-3.06945e-09
3.38473e-07
-5.46682e-09
-9.50977e-09
3.4128e-07
3.63447e-07
-1.26841e-08
3.66627e-07
5.52747e-09
3.66891e-07
6.86207e-09
3.67223e-07
8.25444e-09
3.67077e-07
8.79638e-09
3.66383e-07
7.54797e-09
3.65473e-07
5.77045e-09
3.64629e-07
4.20658e-09
3.63989e-07
2.92871e-09
3.63598e-07
1.84757e-09
3.63464e-07
8.91502e-10
3.63602e-07
2.24939e-12
3.64033e-07
-8.83776e-10
3.6479e-07
-1.84776e-09
3.65918e-07
-3.03739e-09
3.675e-07
-4.65155e-09
3.69361e-07
-7.32811e-09
-1.12926e-08
3.71144e-07
3.8926e-07
-9.4054e-09
3.91541e-07
3.24646e-09
3.92591e-07
5.81218e-09
3.93433e-07
7.41257e-09
3.93951e-07
8.27783e-09
3.94009e-07
7.49027e-09
3.93772e-07
6.00725e-09
3.93461e-07
4.51841e-09
3.93223e-07
3.16631e-09
3.93138e-07
1.93278e-09
3.93246e-07
7.83053e-10
3.93579e-07
-3.30276e-10
3.94166e-07
-1.47079e-09
3.9504e-07
-2.72208e-09
3.96228e-07
-4.22533e-09
3.97741e-07
-6.16479e-09
3.99371e-07
-8.95755e-09
-1.2706e-08
4.00784e-07
4.18296e-07
-6.9885e-09
4.1951e-07
2.03229e-09
4.20526e-07
4.79591e-09
4.21483e-07
6.45551e-09
4.22307e-07
7.45419e-09
4.22804e-07
6.99353e-09
4.23027e-07
5.7837e-09
4.23129e-07
4.41635e-09
4.23237e-07
3.05849e-09
4.23434e-07
1.73627e-09
4.23773e-07
4.43452e-10
4.24296e-07
-8.53068e-10
4.25035e-07
-2.21006e-09
4.26019e-07
-3.70589e-09
4.27257e-07
-5.4629e-09
4.28722e-07
-7.62968e-09
4.30223e-07
-1.04588e-08
-1.39612e-08
4.31478e-07
4.49065e-07
-5.14503e-09
4.49717e-07
1.38052e-09
4.506e-07
3.9127e-09
4.51572e-07
5.48364e-09
4.52548e-07
6.47792e-09
4.53316e-07
6.22605e-09
4.53863e-07
5.23634e-09
4.54288e-07
3.9916e-09
4.54688e-07
2.65815e-09
4.55139e-07
1.28603e-09
4.55694e-07
-1.12284e-10
4.56398e-07
-1.5567e-09
4.57282e-07
-3.09366e-09
4.58366e-07
-4.79049e-09
4.59648e-07
-6.74471e-09
4.61082e-07
-9.06403e-09
4.62509e-07
-1.18853e-08
-1.51697e-08
4.63717e-07
4.81793e-07
-3.66583e-09
4.82182e-07
9.91315e-10
4.82941e-07
3.1538e-09
4.83884e-07
4.54099e-09
4.84925e-07
5.43606e-09
4.85858e-07
5.2937e-09
4.86633e-07
4.46126e-09
4.87307e-07
3.31774e-09
4.87949e-07
2.01544e-09
4.88621e-07
6.14124e-10
4.89372e-07
-8.63177e-10
4.90241e-07
-2.42571e-09
4.91256e-07
-4.10842e-09
4.9243e-07
-5.96434e-09
4.9375e-07
-8.06487e-09
4.95166e-07
-1.04798e-08
4.96551e-07
-1.32706e-08
-1.63812e-08
4.97762e-07
5.1679e-07
-2.49727e-09
5.1704e-07
7.40973e-10
5.17692e-07
2.50214e-09
5.18583e-07
3.64979e-09
5.19637e-07
4.3816e-09
5.20664e-07
4.26694e-09
5.21596e-07
3.52925e-09
5.22458e-07
2.45559e-09
5.23296e-07
1.17756e-09
5.24155e-07
-2.44496e-10
5.25074e-07
-1.78288e-09
5.26087e-07
-3.43881e-09
5.27215e-07
-5.23596e-09
5.28463e-07
-7.21223e-09
5.29813e-07
-9.41479e-09
5.31215e-07
-1.18823e-08
5.32576e-07
-1.46312e-08
-1.76064e-08
5.33801e-07
5.54255e-07
-1.61813e-09
5.54427e-07
5.68804e-10
5.54994e-07
1.93458e-09
5.55829e-07
2.81504e-09
5.56867e-07
3.34414e-09
5.57941e-07
3.19295e-09
5.58976e-07
2.49368e-09
5.59976e-07
1.45602e-09
5.60965e-07
1.88526e-10
5.61973e-07
-1.25329e-09
5.63031e-07
-2.84088e-09
5.64162e-07
-4.56966e-09
5.6538e-07
-6.45317e-09
5.66682e-07
-8.515e-09
5.68049e-07
-1.07818e-08
5.69436e-07
-1.32691e-08
5.70774e-07
-1.59688e-08
-1.88343e-08
5.72002e-07
5.94354e-07
-9.94546e-10
5.94493e-07
4.29573e-10
5.95004e-07
1.42431e-09
5.95788e-07
2.03087e-09
5.96794e-07
2.33775e-09
5.97884e-07
2.10299e-09
5.98983e-07
1.39516e-09
6.00077e-07
3.61835e-10
6.01176e-07
-9.10968e-10
6.02298e-07
-2.37522e-09
6.03461e-07
-4.00377e-09
6.04679e-07
-5.788e-09
6.05959e-07
-7.73278e-09
6.07293e-07
-9.84938e-09
6.0866e-07
-1.21484e-08
6.1002e-07
-1.46294e-08
6.11324e-07
-1.72725e-08
-2.0041e-08
6.12531e-07
6.37272e-07
-5.85055e-10
6.3741e-07
2.90877e-10
6.3789e-07
9.45112e-10
6.38634e-07
1.28599e-09
6.39605e-07
1.36716e-09
6.40691e-07
1.01726e-09
6.41821e-07
2.64663e-10
6.42974e-07
-7.90816e-10
6.44147e-07
-2.08351e-09
6.45345e-07
-3.5736e-09
6.46578e-07
-5.23643e-09
6.4785e-07
-7.0606e-09
6.49161e-07
-9.04405e-09
6.505e-07
-1.11881e-08
6.51843e-07
-1.34917e-08
6.53158e-07
-1.59442e-08
6.54407e-07
-1.85211e-08
-2.11936e-08
6.55559e-07
5.73872e-07
-3.73273e-10
5.74e-07
1.62573e-10
5.74397e-07
5.47872e-10
5.75006e-07
6.77062e-10
5.75798e-07
5.7483e-10
5.76702e-07
1.13288e-10
5.77664e-07
-6.96677e-10
5.78659e-07
-1.78584e-09
5.79679e-07
-3.10383e-09
5.80723e-07
-4.61736e-09
5.8179e-07
-6.30396e-09
5.8288e-07
-8.15069e-09
5.83987e-07
-1.01509e-08
5.85099e-07
-1.22994e-08
5.86195e-07
-1.45881e-08
5.87252e-07
-1.70009e-08
5.88243e-07
-1.95124e-08
-2.2099e-08
5.89148e-07
6.99684e-07
-2.41538e-10
6.99869e-07
-2.21291e-11
7.00321e-07
9.54563e-11
7.00999e-07
-1.29505e-12
7.01878e-07
-3.03583e-10
7.02889e-07
-8.98468e-10
7.03981e-07
-1.78786e-09
7.05122e-07
-2.92748e-09
7.06299e-07
-4.28058e-09
7.07502e-07
-5.82057e-09
7.08726e-07
-7.52751e-09
7.09962e-07
-9.38732e-09
7.11201e-07
-1.13894e-08
7.12425e-07
-1.35232e-08
7.13612e-07
-1.57752e-08
7.14737e-07
-1.81257e-08
7.15774e-07
-2.055e-08
-2.30297e-08
7.16705e-07
8.53041e-07
-1.97547e-10
8.53293e-07
-2.74801e-10
8.53814e-07
-4.25148e-10
8.54567e-07
-7.53971e-10
8.55527e-07
-1.26407e-09
8.56637e-07
-2.00808e-09
8.57843e-07
-2.99453e-09
8.59114e-07
-4.1979e-09
8.60426e-07
-5.59264e-09
8.61763e-07
-7.15815e-09
8.63113e-07
-8.87702e-09
8.6446e-07
-1.07345e-08
8.65788e-07
-1.27171e-08
8.67075e-07
-1.48104e-08
8.68297e-07
-1.6997e-08
8.69427e-07
-1.92558e-08
8.7044e-07
-2.15633e-08
-2.39055e-08
8.71316e-07
1.03996e-06
-2.36317e-10
1.04028e-06
-5.98954e-10
1.04088e-06
-1.01919e-09
1.04171e-06
-1.58034e-09
1.04274e-06
-2.29554e-09
1.04392e-06
-3.19412e-09
1.04521e-06
-4.28556e-09
1.04657e-06
-5.55701e-09
1.04797e-06
-6.99146e-09
1.04939e-06
-8.57312e-09
1.0508e-06
-1.02869e-08
1.05218e-06
-1.21178e-08
1.05351e-06
-1.40508e-08
1.05477e-06
-1.60691e-08
1.05593e-06
-1.81537e-08
1.05696e-06
-2.02832e-08
1.05783e-06
-2.24359e-08
-2.46009e-08
1.05852e-06
1.26778e-06
-3.38275e-10
1.26817e-06
-9.84881e-10
1.26882e-06
-1.67354e-09
1.2697e-06
-2.46212e-09
1.27078e-06
-3.36989e-09
1.272e-06
-4.41439e-09
1.27332e-06
-5.60369e-09
1.27469e-06
-6.93253e-09
1.27609e-06
-8.39023e-09
1.27748e-06
-9.96476e-09
1.27884e-06
-1.16431e-08
1.28013e-06
-1.3411e-08
1.28133e-06
-1.52528e-08
1.28242e-06
-1.71514e-08
1.28335e-06
-1.90879e-08
1.28411e-06
-2.10419e-08
1.28467e-06
-2.29941e-08
-2.49355e-08
1.285e-06
1.54545e-06
-4.74569e-10
1.54587e-06
-1.40194e-09
1.54655e-06
-2.34788e-09
1.54743e-06
-3.34991e-09
1.54849e-06
-4.42692e-09
1.54967e-06
-5.59208e-09
1.55092e-06
-6.85264e-09
1.55219e-06
-8.20797e-09
1.55345e-06
-9.65238e-09
1.55467e-06
-1.11775e-08
1.5558e-06
-1.27727e-08
1.55681e-06
-1.44254e-08
1.55768e-06
-1.61214e-08
1.55837e-06
-1.78445e-08
1.55886e-06
-1.95777e-08
1.55912e-06
-2.1303e-08
1.55913e-06
-2.30039e-08
-2.46734e-08
1.55887e-06
1.8839e-06
-6.11488e-10
1.88429e-06
-1.79473e-09
1.88492e-06
-2.96979e-09
1.88572e-06
-4.1556e-09
1.88666e-06
-5.36363e-09
1.88767e-06
-6.60526e-09
1.88871e-06
-7.88824e-09
1.88971e-06
-9.21565e-09
1.89065e-06
-1.05869e-08
1.89147e-06
-1.19982e-08
1.89214e-06
-1.34429e-08
1.89263e-06
-1.49118e-08
1.8929e-06
-1.63936e-08
1.89293e-06
-1.78753e-08
1.89269e-06
-1.93431e-08
1.89217e-06
-2.07828e-08
1.89135e-06
-2.21815e-08
-2.35346e-08
1.89021e-06
2.29642e-06
-7.00671e-10
2.2967e-06
-2.07093e-09
2.29716e-06
-3.43029e-09
2.29776e-06
-4.75565e-09
2.29844e-06
-6.04241e-09
2.29913e-06
-7.30061e-09
2.29978e-06
-8.53756e-09
2.30033e-06
-9.76001e-09
2.30072e-06
-1.09747e-08
2.3009e-06
-1.21856e-08
2.30085e-06
-1.33925e-08
2.30053e-06
-1.4592e-08
2.29992e-06
-1.57783e-08
2.29899e-06
-1.69436e-08
2.29772e-06
-1.8079e-08
2.29611e-06
-1.91751e-08
2.29416e-06
-2.02234e-08
-2.12218e-08
2.29184e-06
1.68104e-06
-6.69279e-10
1.68106e-06
-2.09009e-09
1.68119e-06
-3.56348e-09
1.68141e-06
-4.97242e-09
1.68166e-06
-6.29884e-09
1.68191e-06
-7.55e-09
1.6821e-06
-8.72632e-09
1.68218e-06
-9.83825e-09
1.68211e-06
-1.09023e-08
1.68185e-06
-1.1931e-08
1.68139e-06
-1.29314e-08
1.68071e-06
-1.39064e-08
1.67978e-06
-1.48553e-08
1.67862e-06
-1.5775e-08
1.6772e-06
-1.66608e-08
1.67553e-06
-1.75066e-08
1.67361e-06
-1.8307e-08
-1.90609e-08
1.67145e-06
1.46327e-06
-4.80008e-10
1.46308e-06
-1.90695e-09
1.46305e-06
-3.53272e-09
1.46313e-06
-5.0448e-09
1.46326e-06
-6.43332e-09
1.4634e-06
-7.69339e-09
1.46349e-06
-8.80802e-09
1.46345e-06
-9.7985e-09
1.46324e-06
-1.06995e-08
1.46285e-06
-1.15364e-08
1.46224e-06
-1.23256e-08
1.46141e-06
-1.30777e-08
1.46036e-06
-1.3798e-08
1.45907e-06
-1.44882e-08
1.45756e-06
-1.51467e-08
1.45582e-06
-1.57707e-08
1.45387e-06
-1.63567e-08
-1.69043e-08
1.45171e-06
1.27354e-06
-3.18016e-12
1.27314e-06
-1.51095e-09
1.27302e-06
-3.41432e-09
1.27306e-06
-5.08459e-09
1.27322e-06
-6.58924e-09
1.27341e-06
-7.88409e-09
1.27353e-06
-8.92685e-09
1.2735e-06
-9.77127e-09
1.27328e-06
-1.04843e-08
1.27286e-06
-1.11094e-08
1.27221e-06
-1.16745e-08
1.27133e-06
-1.2199e-08
1.27022e-06
-1.26945e-08
1.2689e-06
-1.31662e-08
1.26737e-06
-1.36151e-08
1.26564e-06
-1.40401e-08
1.26372e-06
-1.44385e-08
-1.481e-08
1.26163e-06
1.10816e-06
9.29575e-10
1.10757e-06
-9.18411e-10
1.10746e-06
-3.30753e-09
1.10759e-06
-5.21011e-09
1.10789e-06
-6.89533e-09
1.10824e-06
-8.22833e-09
1.10846e-06
-9.15395e-09
1.10849e-06
-9.79964e-09
1.10829e-06
-1.02812e-08
1.10784e-06
-1.06628e-08
1.10715e-06
-1.09849e-08
1.10623e-06
-1.12755e-08
1.10509e-06
-1.15502e-08
1.10373e-06
-1.18159e-08
1.10219e-06
-1.20739e-08
1.10048e-06
-1.23229e-08
1.0986e-06
-1.256e-08
-1.27835e-08
1.09657e-06
9.63972e-07
2.47932e-09
9.63256e-07
-2.02644e-10
9.63282e-07
-3.33392e-09
9.63612e-07
-5.53955e-09
9.64168e-07
-7.45113e-09
9.64709e-07
-8.76951e-09
9.65036e-07
-9.48154e-09
9.65082e-07
-9.84577e-09
9.64839e-07
-1.00381e-08
9.64318e-07
-1.01413e-08
9.63538e-07
-1.02055e-08
9.62526e-07
-1.02631e-08
9.61306e-07
-1.03297e-08
9.59899e-07
-1.04098e-08
9.58328e-07
-1.05022e-08
9.56608e-07
-1.06035e-08
9.54757e-07
-1.07085e-08
-1.08138e-08
9.52787e-07
8.38083e-07
4.9312e-09
8.37516e-07
3.64319e-10
8.37859e-07
-3.6763e-09
8.38499e-07
-6.1796e-09
8.39345e-07
-8.29777e-09
8.40041e-07
-9.4651e-09
8.40376e-07
-9.81638e-09
8.40328e-07
-9.79803e-09
8.39934e-07
-9.64429e-09
8.39239e-07
-9.44631e-09
8.38289e-07
-9.25517e-09
8.37125e-07
-9.09916e-09
8.35782e-07
-8.9867e-09
8.34287e-07
-8.91508e-09
8.32663e-07
-8.87746e-09
8.30925e-07
-8.8661e-09
8.2909e-07
-8.87306e-09
-8.89212e-09
8.27168e-07
7.27591e-07
9.0689e-09
7.27935e-07
1.96776e-11
7.28897e-07
-4.63802e-09
7.29946e-07
-7.22817e-09
7.31044e-07
-9.39657e-09
7.31749e-07
-1.01694e-08
7.31908e-07
-9.97568e-09
7.31588e-07
-9.47836e-09
7.30891e-07
-8.94705e-09
7.29904e-07
-8.45929e-09
7.28698e-07
-8.04888e-09
7.27326e-07
-7.72684e-09
7.25825e-07
-7.48604e-09
7.24222e-07
-7.31196e-09
7.22534e-07
-7.18992e-09
7.20775e-07
-7.10733e-09
7.18956e-07
-7.05344e-09
-7.01949e-09
7.17083e-07
6.30192e-07
1.58839e-08
6.32609e-07
-2.39797e-09
6.34395e-07
-6.42382e-09
6.35897e-07
-8.7301e-09
6.37101e-07
-1.06004e-08
6.37543e-07
-1.06114e-08
6.37243e-07
-9.67542e-09
6.3641e-07
-8.64531e-09
6.3523e-07
-7.76793e-09
6.33834e-07
-7.06336e-09
6.32304e-07
-6.51886e-09
6.3069e-07
-6.11275e-09
6.29021e-07
-5.81628e-09
6.2731e-07
-5.60182e-09
6.25568e-07
-5.44767e-09
6.23799e-07
-5.33789e-09
6.22006e-07
-5.26048e-09
-5.20516e-09
6.20192e-07
5.47169e-07
2.32613e-08
5.5172e-07
-6.94885e-09
5.53261e-07
-7.96508e-09
5.54734e-07
-1.02034e-08
5.55523e-07
-1.13891e-08
5.55157e-07
-1.02457e-08
5.53941e-07
-8.45905e-09
5.52274e-07
-6.97854e-09
5.50422e-07
-5.91555e-09
5.48521e-07
-5.16253e-09
5.46631e-07
-4.62919e-09
5.44773e-07
-4.25441e-09
5.42948e-07
-3.99123e-09
5.41151e-07
-3.80473e-09
5.39375e-07
-3.67152e-09
5.37614e-07
-3.57707e-09
5.35865e-07
-3.51122e-09
-3.46562e-09
5.34125e-07
4.91581e-07
1.44406e-08
4.90612e-07
-5.97921e-09
4.87067e-07
-4.42071e-09
4.85923e-07
-9.05891e-09
4.84223e-07
-9.68926e-09
4.81553e-07
-7.57539e-09
4.78504e-07
-5.4101e-09
4.75527e-07
-4.0018e-09
4.72795e-07
-3.18298e-09
4.70321e-07
-2.68945e-09
4.68068e-07
-2.37562e-09
4.65985e-07
-2.17138e-09
4.64029e-07
-2.0357e-09
4.62167e-07
-1.94273e-09
4.60374e-07
-1.87779e-09
4.58632e-07
-1.83496e-09
4.56935e-07
-1.81443e-09
-1.85949e-09
4.55329e-07
4.34708e-07
4.28729e-07
4.24308e-07
4.15249e-07
4.0556e-07
3.97985e-07
3.92575e-07
3.88573e-07
3.8539e-07
3.827e-07
3.80325e-07
3.78153e-07
3.76118e-07
3.74175e-07
3.72297e-07
3.70462e-07
3.68648e-07
3.66788e-07
1.39206e-09
-1.39206e-09
-5.19729e-09
6.58935e-09
-1.62805e-08
1.10832e-08
-2.98933e-08
1.36128e-08
-4.48824e-08
1.49891e-08
-6.06094e-08
1.57271e-08
-7.66804e-08
1.6071e-08
-9.28186e-08
1.61381e-08
-1.0881e-07
1.59919e-08
-1.24478e-07
1.56675e-08
-1.39662e-07
1.51843e-08
-1.54216e-07
1.45535e-08
-1.67999e-07
1.37827e-08
-1.80877e-07
1.28781e-08
-1.92723e-07
1.18462e-08
-2.03417e-07
1.06941e-08
-2.12847e-07
9.42996e-09
-2.2091e-07
8.06335e-09
-2.27515e-07
6.60485e-09
-2.32581e-07
5.06627e-09
-2.36043e-07
3.46196e-09
-2.37859e-07
1.81525e-09
-2.38028e-07
1.69156e-10
-2.36599e-07
-1.42904e-09
-2.33631e-07
-2.96716e-09
-2.29175e-07
-4.45653e-09
-2.23274e-07
-5.9005e-09
-2.15978e-07
-7.29694e-09
-2.07336e-07
-8.64121e-09
-1.97409e-07
-9.92745e-09
-1.8626e-07
-1.11493e-08
-1.73959e-07
-1.23006e-08
-1.60584e-07
-1.33752e-08
-1.46216e-07
-1.43677e-08
-1.30943e-07
-1.52731e-08
-1.14856e-07
-1.60869e-08
-9.8051e-08
-1.6805e-08
-8.0627e-08
-1.7424e-08
-6.2686e-08
-1.79409e-08
-4.4331e-08
-1.8355e-08
-2.56582e-08
-1.86729e-08
-6.73314e-09
-1.8925e-08
1.23857e-08
-1.91188e-08
3.16097e-08
-1.9224e-08
5.08435e-08
-1.92338e-08
7.00029e-08
-1.91595e-08
8.90116e-08
-1.90087e-08
1.078e-07
-1.87879e-08
1.26303e-07
-1.8503e-08
1.44462e-07
-1.81598e-08
1.62226e-07
-1.77639e-08
1.79547e-07
-1.7321e-08
1.96384e-07
-1.68369e-08
2.12701e-07
-1.63172e-08
2.28469e-07
-1.57674e-08
2.43662e-07
-1.5193e-08
2.58261e-07
-1.45994e-08
2.72253e-07
-1.39915e-08
2.85627e-07
-1.33742e-08
2.98379e-07
-1.2752e-08
3.10508e-07
-1.21291e-08
3.22017e-07
-1.15094e-08
3.32914e-07
-1.08964e-08
3.43207e-07
-1.02933e-08
3.5291e-07
-9.70277e-09
3.62037e-07
-9.12725e-09
3.70606e-07
-8.56874e-09
3.78635e-07
-8.02888e-09
3.86144e-07
-7.50901e-09
3.93154e-07
-7.01008e-09
3.99686e-07
-6.53281e-09
4.05764e-07
-6.07761e-09
4.11409e-07
-5.64465e-09
4.16643e-07
-5.23391e-09
4.21488e-07
-4.84515e-09
4.25966e-07
-4.47801e-09
4.30098e-07
-4.13196e-09
4.33904e-07
-3.80638e-09
4.37405e-07
-3.50058e-09
4.40618e-07
-3.21379e-09
4.43564e-07
-2.94519e-09
4.46258e-07
-2.69394e-09
4.48717e-07
-2.45921e-09
4.50957e-07
-2.24012e-09
4.52993e-07
-2.03584e-09
4.54838e-07
-1.8455e-09
4.56507e-07
-1.66831e-09
4.5801e-07
-1.50346e-09
4.5936e-07
-1.35018e-09
4.60568e-07
-1.20775e-09
4.61643e-07
-1.07546e-09
4.62596e-07
-9.52686e-10
4.63435e-07
-8.38818e-10
4.64168e-07
-7.33302e-10
4.64804e-07
-6.35569e-10
4.65349e-07
-5.45098e-10
4.6581e-07
-4.6137e-10
4.66194e-07
-3.83869e-10
4.66506e-07
-3.12122e-10
4.66752e-07
-2.45633e-10
4.66936e-07
-1.83814e-10
4.67062e-07
-1.25956e-10
4.67132e-07
-7.04857e-11
4.67145e-07
-1.27956e-11
4.67099e-07
4.58047e-11
4.67001e-07
9.84082e-11
4.66857e-07
1.43292e-10
4.66676e-07
1.81832e-10
4.6646e-07
2.15483e-10
4.66215e-07
2.45265e-10
4.65943e-07
2.71948e-10
4.65647e-07
2.9612e-10
4.65329e-07
3.18191e-10
4.6499e-07
3.38454e-10
4.64633e-07
3.57122e-10
4.64259e-07
3.74369e-10
4.63868e-07
3.90322e-10
4.63463e-07
4.05126e-10
4.63044e-07
4.18866e-10
4.62613e-07
4.31669e-10
4.62169e-07
4.43605e-10
4.61714e-07
4.54779e-10
4.61249e-07
4.65254e-10
4.60774e-07
4.75117e-10
4.6029e-07
4.84424e-10
4.59796e-07
4.93229e-10
4.59295e-07
5.01606e-10
4.58785e-07
5.09583e-10
4.58268e-07
5.17213e-10
4.57743e-07
5.2454e-10
4.57212e-07
5.31582e-10
4.56673e-07
5.38389e-10
4.56128e-07
5.44968e-10
4.55577e-07
5.51358e-10
4.55019e-07
5.57578e-10
4.54456e-07
5.63652e-10
4.53886e-07
5.69589e-10
4.53311e-07
5.75432e-10
4.5273e-07
5.81186e-10
4.52143e-07
5.86878e-10
4.5155e-07
5.92537e-10
4.50952e-07
5.98183e-10
4.50348e-07
6.0385e-10
4.49739e-07
6.09552e-10
4.49123e-07
6.15316e-10
4.48502e-07
6.21159e-10
4.47875e-07
6.27106e-10
4.47242e-07
6.33178e-10
4.46602e-07
6.39396e-10
4.45957e-07
6.45776e-10
4.45304e-07
6.52334e-10
4.44645e-07
6.59107e-10
4.43979e-07
6.66129e-10
4.43306e-07
6.73434e-10
4.42625e-07
6.81088e-10
4.41935e-07
6.89164e-10
4.41238e-07
6.97768e-10
4.40531e-07
7.07021e-10
4.39814e-07
7.17098e-10
4.39085e-07
7.28216e-10
4.38345e-07
7.4068e-10
4.3759e-07
7.54867e-10
4.36818e-07
7.71301e-10
4.36028e-07
7.90658e-10
4.35214e-07
8.1387e-10
4.34372e-07
8.42188e-10
4.33494e-07
8.77322e-10
4.32573e-07
9.21679e-10
4.31594e-07
9.78667e-10
4.30541e-07
1.05324e-09
4.29388e-07
1.15283e-09
4.28099e-07
1.28901e-09
4.26618e-07
1.48078e-09
4.24857e-07
1.76091e-09
4.22664e-07
2.19293e-09
4.19764e-07
2.90034e-09
4.15559e-07
4.2055e-09
4.0886e-07
6.69849e-09
3.95977e-07
1.28834e-08
2.37944e-08
3.72182e-07
-1.20383e-08
1.06462e-08
-2.39598e-08
1.85108e-08
-3.65334e-08
2.36568e-08
-5.00554e-08
2.71348e-08
-6.43858e-08
2.93195e-08
-7.92148e-08
3.05561e-08
-9.4232e-08
3.10882e-08
-1.09166e-07
3.10721e-08
-1.23785e-07
3.06115e-08
-1.37895e-07
2.9777e-08
-1.51329e-07
2.86184e-08
-1.63948e-07
2.71721e-08
-1.75632e-07
2.54674e-08
-1.86284e-07
2.35295e-08
-1.9582e-07
2.13823e-08
-2.04175e-07
1.90489e-08
-2.11298e-07
1.65529e-08
-2.17153e-07
1.39186e-08
-2.21719e-07
1.11711e-08
-2.24989e-07
8.33649e-09
-2.2697e-07
5.443e-09
-2.27675e-07
2.52002e-09
-2.27099e-07
-4.06933e-10
-2.25205e-07
-3.3229e-09
-2.21959e-07
-6.21351e-09
-2.17355e-07
-9.06081e-09
-2.11407e-07
-1.1848e-08
-2.04145e-07
-1.45591e-08
-1.95608e-07
-1.71784e-08
-1.85844e-07
-1.96911e-08
-1.7491e-07
-2.2083e-08
-1.6287e-07
-2.43411e-08
-1.49792e-07
-2.64535e-08
-1.3575e-07
-2.84097e-08
-1.20822e-07
-3.02007e-08
-1.0509e-07
-3.18191e-08
-8.86359e-08
-3.32589e-08
-7.1544e-08
-3.45159e-08
-5.38972e-08
-3.55878e-08
-3.57774e-08
-3.64748e-08
-1.72687e-08
-3.71816e-08
1.52448e-09
-3.77182e-08
2.0494e-08
-3.80884e-08
3.95619e-08
-3.82919e-08
5.86613e-08
-3.83331e-08
7.77219e-08
-3.82201e-08
9.66753e-08
-3.79621e-08
1.15456e-07
-3.75685e-08
1.34002e-07
-3.70494e-08
1.52257e-07
-3.64148e-08
1.70169e-07
-3.56754e-08
1.87689e-07
-3.48416e-08
2.04777e-07
-3.39243e-08
2.21394e-07
-3.2934e-08
2.37508e-07
-3.18814e-08
2.53091e-07
-3.07768e-08
2.68122e-07
-2.96303e-08
2.82583e-07
-2.84517e-08
2.96459e-07
-2.72502e-08
3.09741e-07
-2.60347e-08
3.22426e-07
-2.48135e-08
3.34511e-07
-2.35942e-08
3.45998e-07
-2.23839e-08
3.56894e-07
-2.11889e-08
3.67206e-07
-2.00149e-08
3.76945e-07
-1.88668e-08
3.86126e-07
-1.7749e-08
3.94762e-07
-1.6665e-08
4.02871e-07
-1.56178e-08
4.1047e-07
-1.46097e-08
4.1758e-07
-1.36423e-08
4.24219e-07
-1.2717e-08
4.30409e-07
-1.18344e-08
4.3617e-07
-1.09946e-08
4.41522e-07
-1.01977e-08
4.46487e-07
-9.44306e-09
4.51085e-07
-8.72999e-09
4.55336e-07
-8.05747e-09
4.5926e-07
-7.42431e-09
4.62875e-07
-6.82915e-09
4.66201e-07
-6.27053e-09
4.69254e-07
-5.74692e-09
4.72051e-07
-5.25673e-09
4.74609e-07
-4.79831e-09
4.76944e-07
-4.37005e-09
4.79069e-07
-3.97034e-09
4.80998e-07
-3.59759e-09
4.82745e-07
-3.25025e-09
4.84321e-07
-2.92683e-09
4.85739e-07
-2.62587e-09
4.8701e-07
-2.34603e-09
4.88143e-07
-2.08599e-09
4.89149e-07
-1.84452e-09
4.90036e-07
-1.62044e-09
4.90813e-07
-1.41261e-09
4.91488e-07
-1.21993e-09
4.92068e-07
-1.04134e-09
4.9256e-07
-8.75843e-10
4.9297e-07
-7.22457e-10
4.93305e-07
-5.80263e-10
4.93569e-07
-4.48289e-10
4.93769e-07
-3.25618e-10
4.9391e-07
-2.11202e-10
4.94001e-07
-1.03735e-10
4.94048e-07
-1.63812e-12
4.94052e-07
9.49222e-11
4.94011e-07
1.84315e-10
4.93926e-07
2.66075e-10
4.93801e-07
3.40622e-10
4.93638e-07
4.08619e-10
4.93439e-07
4.70729e-10
4.93208e-07
5.27617e-10
4.92946e-07
5.79856e-10
4.92656e-07
6.27951e-10
4.92341e-07
6.72292e-10
4.92002e-07
7.1326e-10
4.91641e-07
7.5116e-10
4.9126e-07
7.86265e-10
4.9086e-07
8.1884e-10
4.90443e-07
8.49115e-10
4.90009e-07
8.773e-10
4.8956e-07
9.03597e-10
4.89097e-07
9.28183e-10
4.88621e-07
9.51231e-10
4.88133e-07
9.72899e-10
4.87633e-07
9.93323e-10
4.87122e-07
1.01263e-09
4.866e-07
1.03093e-09
4.86069e-07
1.04835e-09
4.85529e-07
1.06497e-09
4.8498e-07
1.08087e-09
4.84422e-07
1.09614e-09
4.83856e-07
1.11084e-09
4.83282e-07
1.12504e-09
4.82701e-07
1.13879e-09
4.82113e-07
1.15213e-09
4.81517e-07
1.16514e-09
4.80915e-07
1.17784e-09
4.80306e-07
1.19029e-09
4.7969e-07
1.20254e-09
4.79068e-07
1.21465e-09
4.78439e-07
1.22664e-09
4.77805e-07
1.2386e-09
4.77164e-07
1.25056e-09
4.76516e-07
1.26258e-09
4.75863e-07
1.27471e-09
4.75203e-07
1.28698e-09
4.74537e-07
1.29945e-09
4.73864e-07
1.31217e-09
4.73184e-07
1.32516e-09
4.72498e-07
1.33849e-09
4.71805e-07
1.3522e-09
4.71105e-07
1.36635e-09
4.70397e-07
1.38104e-09
4.69682e-07
1.39637e-09
4.68959e-07
1.41247e-09
4.68227e-07
1.42951e-09
4.67486e-07
1.44774e-09
4.66736e-07
1.46745e-09
4.65975e-07
1.48905e-09
4.65203e-07
1.51307e-09
4.64417e-07
1.54017e-09
4.63617e-07
1.5713e-09
4.628e-07
1.60765e-09
4.61963e-07
1.65087e-09
4.61102e-07
1.70315e-09
4.60212e-07
1.7675e-09
4.59286e-07
1.84812e-09
4.58314e-07
1.95085e-09
4.57283e-07
2.08417e-09
4.56175e-07
2.26057e-09
4.54965e-07
2.49907e-09
4.53616e-07
2.83012e-09
4.52072e-07
3.30427e-09
4.50251e-07
4.01443e-09
4.48021e-07
5.13032e-09
4.45168e-07
7.05839e-09
4.41365e-07
1.05014e-08
4.3607e-07
1.81779e-08
3.27893e-08
4.27076e-07
-1.56586e-08
2.63048e-08
-3.00333e-08
3.28855e-08
-4.37205e-08
3.7344e-08
-5.71799e-08
4.05942e-08
-7.06488e-08
4.27884e-08
-8.41575e-08
4.40648e-08
-9.76251e-08
4.45557e-08
-1.10924e-07
4.43714e-08
-1.23915e-07
4.36019e-08
-1.36458e-07
4.23201e-08
-1.48425e-07
4.05857e-08
-1.59701e-07
3.84481e-08
-1.70183e-07
3.59497e-08
-1.79783e-07
3.31288e-08
-1.88421e-07
3.00206e-08
-1.96031e-07
2.66591e-08
-2.02556e-07
2.30776e-08
-2.07946e-07
1.93091e-08
-2.12162e-07
1.53863e-08
-2.15167e-07
1.13422e-08
-2.16933e-07
7.20897e-09
-2.17431e-07
3.01796e-09
-2.16635e-07
-1.2026e-09
-2.14531e-07
-5.42726e-09
-2.11115e-07
-9.62926e-09
-2.06395e-07
-1.37811e-08
-2.00388e-07
-1.78555e-08
-1.9312e-07
-2.18264e-08
-1.8463e-07
-2.56687e-08
-1.74962e-07
-2.93592e-08
-1.64169e-07
-3.2876e-08
-1.52311e-07
-3.61992e-08
-1.39453e-07
-3.93111e-08
-1.25667e-07
-4.21963e-08
-1.11026e-07
-4.48416e-08
-9.56082e-08
-4.72367e-08
-7.94936e-08
-4.93736e-08
-6.27625e-08
-5.1247e-08
-4.54957e-08
-5.28545e-08
-2.77741e-08
-5.41964e-08
-9.67999e-09
-5.52758e-08
8.69844e-09
-5.60966e-08
2.72755e-08
-5.66655e-08
4.59742e-08
-5.69906e-08
6.47221e-08
-5.7081e-08
8.34495e-08
-5.69476e-08
1.0209e-07
-5.66026e-08
1.20581e-07
-5.60591e-08
1.38862e-07
-5.53309e-08
1.5688e-07
-5.44326e-08
1.74584e-07
-5.3379e-08
1.91927e-07
-5.21851e-08
2.08869e-07
-5.08662e-08
2.25372e-07
-4.94375e-08
2.41405e-07
-4.79141e-08
2.56939e-07
-4.63108e-08
2.71951e-07
-4.46421e-08
2.86421e-07
-4.29222e-08
3.00336e-07
-4.11644e-08
3.13683e-07
-3.93817e-08
3.26455e-07
-3.7586e-08
3.3865e-07
-3.57888e-08
3.50266e-07
-3.40005e-08
3.61308e-07
-3.22305e-08
3.7178e-07
-3.04875e-08
3.81693e-07
-2.87789e-08
3.91055e-07
-2.71115e-08
3.99881e-07
-2.54909e-08
4.08185e-07
-2.39218e-08
4.15983e-07
-2.24079e-08
4.23293e-07
-2.09522e-08
4.30133e-07
-1.95568e-08
4.36522e-07
-1.82231e-08
4.42479e-07
-1.69518e-08
4.48024e-07
-1.5743e-08
4.53177e-07
-1.45964e-08
4.57958e-07
-1.3511e-08
4.62387e-07
-1.24857e-08
4.66481e-07
-1.15188e-08
4.7026e-07
-1.06085e-08
4.73743e-07
-9.75288e-09
4.76946e-07
-8.94974e-09
4.79886e-07
-8.19683e-09
4.82579e-07
-7.49184e-09
4.85042e-07
-6.83241e-09
4.87287e-07
-6.2162e-09
4.89331e-07
-5.64091e-09
4.91185e-07
-5.10427e-09
4.92862e-07
-4.60406e-09
4.94374e-07
-4.13819e-09
4.95733e-07
-3.70459e-09
4.96948e-07
-3.30131e-09
4.9803e-07
-2.92649e-09
4.98988e-07
-2.57832e-09
4.99831e-07
-2.25508e-09
5.00566e-07
-1.95512e-09
5.01201e-07
-1.67684e-09
5.01744e-07
-1.41874e-09
5.02201e-07
-1.17939e-09
5.02578e-07
-9.57411e-10
5.02881e-07
-7.51493e-10
5.03116e-07
-5.60385e-10
5.03288e-07
-3.82906e-10
5.03402e-07
-2.17852e-10
5.03464e-07
-6.36727e-11
5.03478e-07
8.07262e-11
5.03447e-07
2.15369e-10
5.03373e-07
3.40225e-10
5.03258e-07
4.55604e-10
5.03105e-07
5.62033e-10
5.02915e-07
6.60152e-10
5.02692e-07
7.50615e-10
5.02438e-07
8.34071e-10
5.02155e-07
9.11141e-10
5.01845e-07
9.82376e-10
5.0151e-07
1.04828e-09
5.01152e-07
1.1093e-09
5.00772e-07
1.16588e-09
5.00372e-07
1.21839e-09
4.99954e-07
1.2672e-09
4.99519e-07
1.31263e-09
4.99068e-07
1.35501e-09
4.98601e-07
1.39459e-09
4.98121e-07
1.43167e-09
4.97627e-07
1.46647e-09
4.97121e-07
1.49923e-09
4.96604e-07
1.53015e-09
4.96075e-07
1.55941e-09
4.95536e-07
1.58719e-09
4.94988e-07
1.61364e-09
4.9443e-07
1.6389e-09
4.93863e-07
1.66309e-09
4.93287e-07
1.68634e-09
4.92704e-07
1.70874e-09
4.92112e-07
1.73037e-09
4.91513e-07
1.75135e-09
4.90906e-07
1.77173e-09
4.90292e-07
1.79161e-09
4.89672e-07
1.81105e-09
4.89044e-07
1.83013e-09
4.8841e-07
1.84893e-09
4.87769e-07
1.86754e-09
4.87121e-07
1.88601e-09
4.86468e-07
1.90445e-09
4.85807e-07
1.92292e-09
4.8514e-07
1.94149e-09
4.84467e-07
1.96024e-09
4.83787e-07
1.97926e-09
4.83101e-07
1.99859e-09
4.82408e-07
2.01831e-09
4.81708e-07
2.03848e-09
4.81001e-07
2.05921e-09
4.80287e-07
2.08058e-09
4.79565e-07
2.10271e-09
4.78835e-07
2.12577e-09
4.78098e-07
2.14995e-09
4.77352e-07
2.17552e-09
4.76597e-07
2.2028e-09
4.75832e-07
2.23225e-09
4.75057e-07
2.26443e-09
4.7427e-07
2.3001e-09
4.7347e-07
2.34027e-09
4.72655e-07
2.38625e-09
4.71823e-07
2.43978e-09
4.7097e-07
2.50323e-09
4.70094e-07
2.57973e-09
4.69187e-07
2.67362e-09
4.68245e-07
2.79085e-09
4.67256e-07
2.93973e-09
4.66208e-07
3.13222e-09
4.65083e-07
3.38574e-09
4.63855e-07
3.72658e-09
4.62489e-07
4.19591e-09
4.60933e-07
4.86069e-09
4.59109e-07
5.83831e-09
4.56903e-07
7.33624e-09
4.54165e-07
9.79664e-09
4.50688e-07
1.39788e-08
4.46723e-07
2.21426e-08
3.66612e-08
4.42851e-07
-1.60372e-08
4.23421e-08
-3.12218e-08
4.80701e-08
-4.55916e-08
5.17138e-08
-5.93794e-08
5.43821e-08
-7.2775e-08
5.61839e-08
-8.58733e-08
5.71631e-08
-9.86902e-08
5.73726e-08
-1.11189e-07
5.687e-08
-1.23301e-07
5.57142e-08
-1.34944e-07
5.39625e-08
-1.46026e-07
5.16684e-08
-1.5646e-07
4.88814e-08
-1.66157e-07
4.56476e-08
-1.75039e-07
4.20101e-08
-1.83028e-07
3.80103e-08
-1.90058e-07
3.36883e-08
-1.96064e-07
2.90836e-08
-2.0099e-07
2.42355e-08
-2.04787e-07
1.91829e-08
-2.07409e-07
1.39648e-08
-2.0882e-07
8.61974e-09
-2.08988e-07
3.18574e-09
-2.0789e-07
-2.3e-09
-2.05516e-07
-7.8014e-09
-2.01864e-07
-1.32814e-08
-1.96942e-07
-1.87028e-08
-1.90769e-07
-2.40289e-08
-1.83371e-07
-2.92241e-08
-1.74786e-07
-3.42544e-08
-1.65057e-07
-3.9088e-08
-1.54237e-07
-4.36955e-08
-1.42386e-07
-4.80501e-08
-1.29569e-07
-5.21282e-08
-1.15856e-07
-5.59094e-08
-1.01321e-07
-5.93766e-08
-8.60413e-08
-6.25166e-08
-7.00954e-08
-6.53195e-08
-5.35636e-08
-6.77788e-08
-3.65263e-08
-6.98919e-08
-1.90632e-08
-7.16594e-08
-1.25469e-09
-7.30843e-08
1.68201e-08
-7.41714e-08
3.50845e-08
-7.49298e-08
5.34642e-08
-7.53704e-08
7.18889e-08
-7.55057e-08
9.02916e-08
-7.53503e-08
1.08609e-07
-7.49198e-08
1.26781e-07
-7.42312e-08
1.44752e-07
-7.33023e-08
1.62471e-07
-7.21514e-08
1.7989e-07
-7.07976e-08
1.96965e-07
-6.926e-08
2.13656e-07
-6.75581e-08
2.2993e-07
-6.57111e-08
2.45754e-07
-6.37384e-08
2.61102e-07
-6.16588e-08
2.75951e-07
-5.94909e-08
2.90281e-07
-5.72526e-08
3.04078e-07
-5.49612e-08
3.1733e-07
-5.26333e-08
3.30029e-07
-5.02846e-08
3.42169e-07
-4.79297e-08
3.53751e-07
-4.55823e-08
3.64776e-07
-4.3255e-08
3.75247e-07
-4.09589e-08
3.85173e-07
-3.87044e-08
3.94561e-07
-3.65003e-08
4.03425e-07
-3.43543e-08
4.11776e-07
-3.2273e-08
4.1963e-07
-3.02616e-08
4.27002e-07
-2.83243e-08
4.33909e-07
-2.64643e-08
4.4037e-07
-2.46838e-08
4.46403e-07
-2.29841e-08
4.52025e-07
-2.13657e-08
4.57257e-07
-1.98283e-08
4.62117e-07
-1.83711e-08
4.66624e-07
-1.69926e-08
4.70796e-07
-1.56912e-08
4.74653e-07
-1.44645e-08
4.7821e-07
-1.33102e-08
4.81486e-07
-1.22255e-08
4.84496e-07
-1.12076e-08
4.87258e-07
-1.02535e-08
4.89786e-07
-9.3602e-09
4.92094e-07
-8.52471e-09
4.94197e-07
-7.744e-09
4.96108e-07
-7.01513e-09
4.97839e-07
-6.33521e-09
4.99403e-07
-5.70146e-09
5.00809e-07
-5.11117e-09
5.0207e-07
-4.56175e-09
5.03194e-07
-4.0507e-09
5.04191e-07
-3.57563e-09
5.0507e-07
-3.13423e-09
5.0584e-07
-2.72431e-09
5.06506e-07
-2.34375e-09
5.07078e-07
-1.99057e-09
5.07562e-07
-1.66287e-09
5.07963e-07
-1.35883e-09
5.08288e-07
-1.07677e-09
5.08543e-07
-8.1507e-10
5.08732e-07
-5.72225e-10
5.08861e-07
-3.46784e-10
5.08935e-07
-1.37128e-10
5.08957e-07
5.81951e-11
5.08933e-07
2.40091e-10
5.08864e-07
4.09149e-10
5.08753e-07
5.66004e-10
5.08604e-07
7.1133e-10
5.08418e-07
8.45854e-10
5.08199e-07
9.70342e-10
5.07947e-07
1.08553e-09
5.07666e-07
1.19214e-09
5.07358e-07
1.29086e-09
5.07024e-07
1.38232e-09
5.06666e-07
1.4671e-09
5.06286e-07
1.54576e-09
5.05886e-07
1.61882e-09
5.05466e-07
1.68676e-09
5.05029e-07
1.75e-09
5.04575e-07
1.809e-09
5.04105e-07
1.8641e-09
5.03621e-07