/*--------------------------------*- C++ -*----------------------------------*\
  =========                 |
  \\      /  F ield         | OpenFOAM: The Open Source CFD Toolbox
   \\    /   O peration     | Website:  https://openfoam.org
    \\  /    A nd           | Version:  6
     \\/     M anipulation  |
\*---------------------------------------------------------------------------*/
FoamFile
{
    version     2.0;
    format      ascii;
    class       volVectorField;
    location    "0.05";
    object      U;
}
// * * * * * * * * * * * * * * * * * * * * * * * * * * * * * * * * * * * * * //

dimensions      [0 1 -1 0 0 0 0];

internalField   nonuniform List<vector> 
12225
(
(0.948797 -0.405348 0)
(1.01285 -0.190431 0)
(1.01518 -0.0513359 0)
(0.984332 -0.00521271 0)
(0.957048 0.0043744 0)
(0.93964 0.00402458 0)
(0.928679 0.00232109 0)
(0.921554 0.00115252 0)
(0.916943 0.000525487 0)
(0.914038 0.000172802 0)
(0.912375 -7.36795e-05 0)
(0.911763 -0.000266247 0)
(0.911909 -0.000428544 0)
(0.912901 -0.000606316 0)
(0.914874 -0.000888405 0)
(0.918777 -0.00125031 0)
(0.924119 -0.00257381 0)
(0.941286 -0.00413954 0)
(1.03693 0.0761057 0)
(1.02002 0.0532351 0)
(1.01161 0.0192388 0)
(1.00499 0.00878701 0)
(0.999235 0.00640516 0)
(0.993286 0.00486019 0)
(0.987144 0.00348265 0)
(0.981861 0.0024813 0)
(0.977958 0.00176979 0)
(0.975315 0.00119965 0)
(0.973703 0.000693186 0)
(0.973007 0.000228808 0)
(0.973311 -0.000233043 0)
(0.974626 -0.000771438 0)
(0.976991 -0.00152712 0)
(0.980887 -0.00264368 0)
(0.986322 -0.00533361 0)
(0.994714 -0.0104118 0)
(0.998322 0.0131059 0)
(0.995449 0.0117821 0)
(1.00116 0.00616985 0)
(1.00269 0.00617687 0)
(1.00262 0.00653316 0)
(1.00152 0.00567635 0)
(0.999228 0.00441905 0)
(0.996655 0.00330928 0)
(0.994551 0.00239472 0)
(0.993131 0.00159674 0)
(0.99241 0.00085643 0)
(0.992393 0.00012797 0)
(0.993148 -0.000646252 0)
(0.99475 -0.0015511 0)
(0.99727 -0.00275686 0)
(1.00096 -0.00452239 0)
(1.00564 -0.0078212 0)
(1.01121 -0.0134663 0)
(0.995113 -0.00698842 0)
(0.992609 0.00110368 0)
(0.998993 0.00364021 0)
(1.00166 0.00547524 0)
(1.00308 0.00636269 0)
(1.00388 0.00588141 0)
(1.0036 0.00482587 0)
(1.00276 0.00374131 0)
(1.00197 0.0027345 0)
(1.00153 0.00177982 0)
(1.00154 0.000842235 0)
(1.00207 -0.000123444 0)
(1.00322 -0.00118297 0)
(1.00506 -0.00243276 0)
(1.00766 -0.00405409 0)
(1.01112 -0.00631975 0)
(1.0152 -0.00993464 0)
(1.01945 -0.0153092 0)
(0.996679 -0.00697439 0)
(0.993958 0.00063517 0)
(0.998477 0.00335712 0)
(1.00095 0.00492073 0)
(1.00286 0.00586701 0)
(1.00453 0.00565335 0)
(1.00537 0.00481547 0)
(1.00566 0.00381652 0)
(1.00584 0.00278267 0)
(1.00616 0.00172386 0)
(1.00677 0.000625786 0)
(1.00777 -0.000550088 0)
(1.00925 -0.00187037 0)
(1.01128 -0.00343525 0)
(1.01391 -0.00541752 0)
(1.01715 -0.0080594 0)
(1.02077 -0.011829 0)
(1.02427 -0.0169108 0)
(0.997836 -0.00420477 0)
(0.995302 0.00102161 0)
(0.998317 0.0029757 0)
(1.00048 0.00425785 0)
(1.00254 0.0051848 0)
(1.00458 0.00514469 0)
(1.00605 0.00448643 0)
(1.00706 0.00358099 0)
(1.00792 0.00255028 0)
(1.00883 0.0014222 0)
(1.00992 0.000195547 0)
(1.01129 -0.00116128 0)
(1.01303 -0.00271139 0)
(1.0152 -0.00455092 0)
(1.01783 -0.00683172 0)
(1.02087 -0.0097492 0)
(1.02413 -0.013596 0)
(1.02718 -0.0184403 0)
(0.998461 -0.00265174 0)
(0.996367 0.000853191 0)
(0.998414 0.00242414 0)
(1.00029 0.00356408 0)
(1.00229 0.00442234 0)
(1.00443 0.0044704 0)
(1.00622 0.00393605 0)
(1.00768 0.00310417 0)
(1.009 0.00208128 0)
(1.01033 0.000900703 0)
(1.01178 -0.000432998 0)
(1.01344 -0.00194618 0)
(1.01537 -0.00369601 0)
(1.01763 -0.00576905 0)
(1.02022 -0.00829087 0)
(1.02308 -0.0114088 0)
(1.02605 -0.0152952 0)
(1.0288 -0.0199608 0)
(0.998895 -0.00183636 0)
(0.997283 0.00058931 0)
(0.998698 0.00191878 0)
(1.00029 0.00290375 0)
(1.00215 0.00363635 0)
(1.00424 0.00370075 0)
(1.00616 0.00323419 0)
(1.00787 0.00244544 0)
(1.00948 0.0014211 0)
(1.0111 0.000192315 0)
(1.0128 -0.00123559 0)
(1.01465 -0.00288545 0)
(1.0167 -0.00480734 0)
(1.019 -0.00707533 0)
(1.02151 -0.00978817 0)
(1.0242 -0.0130508 0)
(1.02691 -0.0169584 0)
(1.02945 -0.0214998 0)
(0.999246 -0.00125045 0)
(0.998071 0.000425622 0)
(0.99907 0.00149979 0)
(1.00042 0.00228861 0)
(1.0021 0.00285557 0)
(1.00407 0.00288001 0)
(1.00599 0.00243055 0)
(1.00782 0.00165211 0)
(1.00959 0.00061047 0)
(1.01138 -0.000669446 0)
(1.01323 -0.00218444 0)
(1.01519 -0.00395495 0)
(1.0173 -0.00602373 0)
(1.01957 -0.00845144 0)
(1.02198 -0.0113124 0)
(1.02449 -0.0146777 0)
(1.02697 -0.0185964 0)
(1.02931 -0.0230542 0)
(0.999515 -0.000794429 0)
(0.998719 0.000328568 0)
(0.999454 0.00113782 0)
(1.00061 0.00171402 0)
(1.00212 0.00209536 0)
(1.00393 0.00203809 0)
(1.00579 0.00156297 0)
(1.00764 0.000763998 0)
(1.00947 -0.000312592 0)
(1.01133 -0.00164981 0)
(1.01324 -0.00324777 0)
(1.01524 -0.00512517 0)
(1.01733 -0.0073177 0)
(1.01953 -0.00987317 0)
(1.02181 -0.0128454 0)
(1.02412 -0.0162804 0)
(1.02638 -0.0202013 0)
(1.02851 -0.0245986 0)
(0.999705 -0.000474032 0)
(0.999224 0.000243331 0)
(0.999808 0.000803661 0)
(1.00082 0.00117023 0)
(1.00217 0.00136 0)
(1.00382 0.00119209 0)
(1.00558 0.000657499 0)
(1.00737 -0.000188388 0)
(1.00919 -0.00131651 0)
(1.01105 -0.00271778 0)
(1.01295 -0.00439574 0)
(1.01491 -0.00636758 0)
(1.01694 -0.00866246 0)
(1.01902 -0.0113168 0)
(1.02114 -0.014368 0)
(1.02323 -0.0178446 0)
(1.02526 -0.021756 0)
(1.02716 -0.0260987 0)
(0.999822 -0.000287027 0)
(0.999565 0.000155009 0)
(1.00008 0.000507898 0)
(1.00099 0.000692486 0)
(1.00222 0.000710287 0)
(1.00372 0.000425473 0)
(1.00536 -0.000185222 0)
(1.00707 -0.00109214 0)
(1.00883 -0.00227921 0)
(1.01063 -0.00374362 0)
(1.01247 -0.00549154 0)
(1.01435 -0.00753877 0)
(1.01626 -0.00990905 0)
(1.0182 -0.01263 0)
(1.02013 -0.0157276 0)
(1.02202 -0.0192191 0)
(1.02381 -0.0231077 0)
(1.02549 -0.0273923 0)
(0.999902 -0.000179604 0)
(0.999815 5.07283e-05 0)
(1.00029 0.000215202 0)
(1.00112 0.00022963 0)
(1.00225 8.38113e-05 0)
(1.00362 -0.000323312 0)
(1.00513 -0.00102138 0)
(1.00674 -0.00199918 0)
(1.0084 -0.00325098 0)
(1.0101 -0.00477908 0)
(1.01183 -0.00659158 0)
(1.01359 -0.00870276 0)
(1.01537 -0.0111316 0)
(1.01713 -0.0138982 0)
(1.01886 -0.0170197 0)
(1.02053 -0.0205056 0)
(1.02208 -0.0243553 0)
(1.02351 -0.0285712 0)
(0.999959 -0.000127521 0)
(1 -9.24381e-05 0)
(1.00046 -0.000118379 0)
(1.00122 -0.000282673 0)
(1.00224 -0.000603123 0)
(1.00346 -0.0011505 0)
(1.00483 -0.00195621 0)
(1.00629 -0.00302251 0)
(1.00781 -0.00435183 0)
(1.00937 -0.0059506 0)
(1.01095 -0.00782823 0)
(1.01253 -0.00999716 0)
(1.0141 -0.0124716 0)
(1.01564 -0.015265 0)
(1.01712 -0.0183871 0)
(1.01851 -0.0218409 0)
(1.01977 -0.0256233 0)
(1.0209 -0.0297389 0)
(0.999993 -0.000130657 0)
(1.00012 -0.000284746 0)
(1.00056 -0.000502847 0)
(1.00126 -0.000850009 0)
(1.00216 -0.00134923 0)
(1.00323 -0.00204792 0)
(1.00443 -0.00297539 0)
(1.00572 -0.0041422 0)
(1.00705 -0.00555613 0)
(1.00841 -0.00722613 0)
(1.00977 -0.0091619 0)
(1.01112 -0.0113736 0)
(1.01243 -0.0138709 0)
(1.01368 -0.0166615 0)
(1.01485 -0.0197488 0)
(1.01591 -0.0231311 0)
(1.01683 -0.0268029 0)
(1.0176 -0.030769 0)
(1.00001 -0.000179381 0)
(1.00018 -0.000523645 0)
(1.00058 -0.000936076 0)
(1.0012 -0.00146657 0)
(1.00198 -0.0021408 0)
(1.00289 -0.00299131 0)
(1.0039 -0.00404314 0)
(1.00497 -0.00531047 0)
(1.00607 -0.00680374 0)
(1.00718 -0.00853262 0)
(1.00827 -0.0105059 0)
(1.00932 -0.012731 0)
(1.01031 -0.0152136 0)
(1.01121 -0.0179563 0)
(1.01202 -0.020958 0)
(1.01269 -0.024213 0)
(1.01322 -0.0277137 0)
(1.01359 -0.0314633 0)
(1.00002 -0.00025796 0)
(1.00018 -0.000795173 0)
(1.00053 -0.00140045 0)
(1.00104 -0.00210952 0)
(1.00168 -0.0029468 0)
(1.00241 -0.0039365 0)
(1.0032 -0.00509912 0)
(1.00402 -0.00644915 0)
(1.00485 -0.00799756 0)
(1.00566 -0.00975335 0)
(1.00642 -0.0117236 0)
(1.00712 -0.0139129 0)
(1.00774 -0.0163235 0)
(1.00825 -0.0189542 0)
(1.00864 -0.0218003 0)
(1.00888 -0.0248537 0)
(1.00898 -0.0281049 0)
(1.00891 -0.0315546 0)
(1.00001 -0.000346587 0)
(1.00015 -0.00107014 0)
(1.00041 -0.00185668 0)
(1.0008 -0.00272905 0)
(1.00127 -0.00370611 0)
(1.00179 -0.0048063 0)
(1.00234 -0.00604596 0)
(1.00289 -0.00743815 0)
(1.00341 -0.00899312 0)
(1.00388 -0.0107187 0)
(1.00429 -0.0126203 0)
(1.0046 -0.0147004 0)
(1.0048 -0.0169584 0)
(1.00489 -0.019391 0)
(1.00484 -0.0219915 0)
(1.00464 -0.0247506 0)
(1.00429 -0.0276581 0)
(1.00378 -0.0307127 0)
(1.00001 -0.000422458 0)
(1.00008 -0.00130292 0)
(1.00024 -0.00224162 0)
(1.00047 -0.00324389 0)
(1.00076 -0.00431863 0)
(1.00106 -0.00547857 0)
(1.00136 -0.00673564 0)
(1.00163 -0.00810069 0)
(1.00184 -0.00958336 0)
(1.00197 -0.0111911 0)
(1.00201 -0.0129286 0)
(1.00193 -0.0147976 0)
(1.00173 -0.0167968 0)
(1.0014 -0.0189225 0)
(1.00092 -0.0211679 0)
(1.0003 -0.0235245 0)
(0.999526 -0.0259829 0)
(0.9986 -0.028541 0)
(0.999996 -0.000443057 0)
(0.999979 -0.00139952 0)
(1.00001 -0.00242921 0)
(1.00012 -0.00350312 0)
(1.00027 -0.00461872 0)
(1.00043 -0.00578224 0)
(1.00057 -0.00699833 0)
(1.00065 -0.00827515 0)
(1.00066 -0.00962331 0)
(1.00057 -0.0110519 0)
(1.00036 -0.0125671 0)
(1.00003 -0.0141721 0)
(0.99955 -0.0158674 0)
(0.998931 -0.0176507 0)
(0.998163 -0.0195175 0)
(0.997246 -0.0214611 0)
(0.996183 -0.0234743 0)
(0.994971 -0.0255553 0)
(0.99997 -0.000382053 0)
(0.999801 -0.0013549 0)
(0.999708 -0.0024604 0)
(0.999727 -0.00359234 0)
(0.99981 -0.00474183 0)
(0.999916 -0.00590571 0)
(1 -0.00707581 0)
(1.00003 -0.00825916 0)
(0.999954 -0.00947101 0)
(0.999755 -0.0107247 0)
(0.999418 -0.0120298 0)
(0.998931 -0.0133928 0)
(0.998289 -0.0148171 0)
(0.997489 -0.0163032 0)
(0.996534 -0.0178487 0)
(0.995423 -0.0194496 0)
(0.994166 -0.0211004 0)
(0.992762 -0.0227999 0)
(0.999899 -0.000191087 0)
(0.999444 -0.00116782 0)
(0.999207 -0.00239272 0)
(0.9992 -0.00361145 0)
(0.999298 -0.00482585 0)
(0.99945 -0.00600951 0)
(0.999589 -0.00713355 0)
(0.999639 -0.00821207 0)
(0.999553 -0.00927294 0)
(0.999306 -0.0103378 0)
(0.998886 -0.0114225 0)
(0.998288 -0.012539 0)
(0.997511 -0.0136949 0)
(0.996559 -0.0148939 0)
(0.995439 -0.0161365 0)
(0.994158 -0.0174208 0)
(0.992727 -0.0187433 0)
(0.991151 -0.020103 0)
(0.999751 0.000182142 0)
(0.998799 -0.000873241 0)
(0.99845 -0.00229527 0)
(0.998527 -0.00364247 0)
(0.998758 -0.00497227 0)
(0.999073 -0.00619704 0)
(0.999359 -0.00726205 0)
(0.999494 -0.00820931 0)
(0.999423 -0.00909207 0)
(0.999132 -0.00994499 0)
(0.998621 -0.0107929 0)
(0.997894 -0.0116547 0)
(0.996961 -0.0125432 0)
(0.995835 -0.0134649 0)
(0.994529 -0.0144224 0)
(0.993058 -0.0154152 0)
(0.991437 -0.016441 0)
(0.989675 -0.0174989 0)
(0.9995 0.000854071 0)
(0.997764 -0.000567536 0)
(0.997444 -0.00229869 0)
(0.997788 -0.0037937 0)
(0.998291 -0.00527498 0)
(0.99889 -0.00653204 0)
(0.999383 -0.0074906 0)
(0.999598 -0.00825402 0)
(0.999497 -0.00891461 0)
(0.999097 -0.00952291 0)
(0.998421 -0.0101139 0)
(0.997489 -0.0107137 0)
(0.996329 -0.0113385 0)
(0.994965 -0.0119962 0)
(0.99342 -0.0126899 0)
(0.991713 -0.0134192 0)
(0.989862 -0.0141814 0)
(0.987883 -0.014975 0)
(0.998972 0.00246188 0)
(0.996121 -7.23113e-05 0)
(0.996278 -0.00245313 0)
(0.997183 -0.00416081 0)
(0.998091 -0.00580045 0)
(0.99904 -0.00702284 0)
(0.999713 -0.00778198 0)
(0.999898 -0.00828336 0)
(0.999622 -0.00866658 0)
(0.998961 -0.00899677 0)
(0.997973 -0.00931677 0)
(0.996707 -0.00965657 0)
(0.995209 -0.0100322 0)
(0.993515 -0.0104495 0)
(0.991656 -0.0109094 0)
(0.989652 -0.0114095 0)
(0.987524 -0.0119458 0)
(0.98529 -0.0125152 0)
(0.997453 0.00609123 0)
(0.993345 0.00132895 0)
(0.995024 -0.00242211 0)
(0.996993 -0.0046764 0)
(0.99841 -0.00651898 0)
(0.99965 -0.00758772 0)
(1.00031 -0.00801828 0)
(1.00019 -0.00816818 0)
(0.999456 -0.00822375 0)
(0.998278 -0.00825746 0)
(0.996763 -0.00831239 0)
(0.994989 -0.00841471 0)
(0.993017 -0.00857388 0)
(0.99089 -0.00878932 0)
(0.988638 -0.00905661 0)
(0.98628 -0.00937015 0)
(0.983832 -0.00972356 0)
(0.981312 -0.0101116 0)
(0.994442 0.0085617 0)
(0.98937 0.00218037 0)
(0.993855 -0.00218997 0)
(0.997465 -0.00518542 0)
(0.999454 -0.00726661 0)
(1.00071 -0.0080224 0)
(1.00086 -0.00798622 0)
(0.999919 -0.00771566 0)
(0.998263 -0.00742834 0)
(0.9962 -0.00718623 0)
(0.993884 -0.00701795 0)
(0.991404 -0.00693471 0)
(0.988819 -0.00693224 0)
(0.986162 -0.00699959 0)
(0.98345 -0.00712562 0)
(0.980693 -0.00730088 0)
(0.977895 -0.00751704 0)
(0.975068 -0.0077664 0)
(0.994523 -0.00661361 0)
(0.989412 -0.0085617 0)
(0.995233 -0.00544757 0)
(0.999461 -0.00649788 0)
(1.00141 -0.00801336 0)
(1.00176 -0.0080996 0)
(1.00033 -0.00745249 0)
(0.997597 -0.00674943 0)
(0.99431 -0.00617598 0)
(0.990882 -0.00574116 0)
(0.987454 -0.00543596 0)
(0.984072 -0.00524675 0)
(0.98075 -0.00515271 0)
(0.977486 -0.00513261 0)
(0.974267 -0.00516997 0)
(0.97108 -0.00525341 0)
(0.967916 -0.00537483 0)
(0.964769 -0.00552144 0)
(1.02646 -0.0702309 0)
(1.017 -0.0624154 0)
(1.01162 -0.0292917 0)
(1.008 -0.0150319 0)
(1.00481 -0.0105807 0)
(1.00041 -0.00818131 0)
(0.994505 -0.0064018 0)
(0.988108 -0.00522004 0)
(0.982102 -0.00448669 0)
(0.976714 -0.00402014 0)
(0.971848 -0.00371819 0)
(0.967379 -0.00353145 0)
(0.963211 -0.00342797 0)
(0.959269 -0.00338392 0)
(0.955492 -0.00338346 0)
(0.951836 -0.00341834 0)
(0.948276 -0.00348627 0)
(0.944798 -0.00360754 0)
(0.966206 0.350114 0)
(1.02685 0.194073 0)
(1.03242 0.0677655 0)
(1.00393 0.0151312 0)
(0.975181 -0.00141237 0)
(0.954506 -0.0044901 0)
(0.939865 -0.00381119 0)
(0.928964 -0.00270792 0)
(0.920515 -0.00194178 0)
(0.913633 -0.00150566 0)
(0.907697 -0.0012766 0)
(0.902336 -0.00116588 0)
(0.897354 -0.00112218 0)
(0.892637 -0.00111677 0)
(0.888103 -0.0011341 0)
(0.883697 -0.00116822 0)
(0.879364 -0.00121444 0)
(0.875067 -0.00132264 0)
(-0.000484764 -0.00280246 -1.49989e-21)
(-0.00138353 0.0067289 1.38748e-21)
(-0.00887072 0.0130295 0)
(-0.0201984 0.0161957 0)
(-0.0330993 0.017547 0)
(-0.0468289 0.0180954 -1.19164e-21)
(-0.0610224 0.0182428 0)
(-0.0754036 0.018132 0)
(-0.0897575 0.0178246 0)
(-0.103912 0.0173487 0)
(-0.117718 0.0167162 1.04531e-21)
(-0.13104 0.0159314 0)
(-0.143749 0.0149966 0)
(-0.155722 0.013914 0)
(-0.166841 0.0126872 0)
(-0.176995 0.011322 8.74999e-22)
(-0.186079 0.00982648 0)
(-0.193994 0.00821166 0)
(-0.200652 0.00649254 0)
(-0.205979 0.00468987 0)
(-0.209911 0.00283365 0)
(-0.212394 0.000969302 0)
(-0.213362 -0.000844415 0)
(-0.212858 -0.00256105 3.66413e-22)
(-0.210984 -0.00418436 -2.72872e-22)
(-0.207752 -0.00573938 1.7217e-22)
(-0.2032 -0.00723472 6.42681e-23)
(-0.197369 -0.00867144 0)
(-0.1903 -0.0100473 0)
(-0.182041 -0.0113582 3.02257e-22)
(-0.172646 -0.0125996 4.38359e-22)
(-0.162174 -0.0137661 0)
(-0.150688 -0.0148526 0)
(-0.138259 -0.0158536 8.85835e-22)
(-0.124962 -0.0167633 0)
(-0.110876 -0.0175754 0)
(-0.0960854 -0.0182823 -1.38626e-21)
(-0.0806762 -0.0188746 0)
(-0.0647388 -0.0193407 -1.74475e-21)
(-0.0483649 -0.0196656 -3.86053e-21)
(-0.0316432 -0.0198337 0)
(-0.0146465 -0.0198355 0)
(0.00257015 -0.0196867 0)
(0.0199452 -0.019429 0)
(0.037397 -0.0190935 0)
(0.0548418 -0.0186943 -5.05413e-21)
(0.0722063 -0.0182409 -5.11846e-21)
(0.0894239 -0.0177415 -5.16788e-21)
(0.106433 -0.0172031 0)
(0.123179 -0.0166319 5.22745e-21)
(0.139609 -0.0160342 0)
(0.155679 -0.0154155 -5.24326e-21)
(0.171348 -0.0147813 -5.23774e-21)
(0.186579 -0.0141367 0)
(0.201342 -0.0134865 0)
(0.215613 -0.012835 0)
(0.229369 -0.0121864 -5.1499e-21)
(0.242595 -0.0115444 0)
(0.255279 -0.0109124 0)
(0.267413 -0.0102932 0)
(0.278995 -0.00968959 0)
(0.290025 -0.00910368 0)
(0.300505 -0.00853736 0)
(0.310444 -0.00799213 0)
(0.31985 -0.00746916 0)
(0.328734 -0.00696931 4.76596e-21)
(0.337112 -0.00649314 0)
(0.344998 -0.00604095 0)
(0.352409 -0.00561278 -4.62497e-21)
(0.359364 -0.00520846 -4.57875e-21)
(0.365881 -0.00482766 0)
(0.371979 -0.00446986 4.48826e-21)
(0.377679 -0.00413442 -4.44417e-21)
(0.382999 -0.00382059 0)
(0.387961 -0.00352755 4.35862e-21)
(0.392582 -0.00325438 0)
(0.396884 -0.00300017 0)
(0.400883 -0.00276395 -4.23737e-21)
(0.404598 -0.00254473 0)
(0.408046 -0.00234156 4.16141e-21)
(0.411245 -0.00215347 0)
(0.41421 -0.00197952 -4.08933e-21)
(0.416957 -0.00181881 -4.0547e-21)
(0.419499 -0.00167045 -4.02098e-21)
(0.421852 -0.00153361 -7.97631e-21)
(0.424027 -0.00140748 7.91239e-21)
(0.426037 -0.00129131 0)
(0.427894 -0.00118437 0)
(0.429609 -0.00108598 0)
(0.43119 -0.000995504 7.67284e-21)
(0.432649 -0.000912355 7.6167e-21)
(0.433995 -0.000835985 -7.56193e-21)
(0.435234 -0.000765896 0)
(0.436376 -0.000701626 7.45629e-21)
(0.437428 -0.000642739 7.40531e-21)
(0.438396 -0.000588824 7.3555e-21)
(0.439288 -0.000539486 0)
(0.440108 -0.00049435 0)
(0.440863 -0.000453058 0)
(0.441557 -0.000415266 7.16679e-21)
(0.442196 -0.000380568 0)
(0.442782 -0.000348572 0)
(0.44332 -0.000318529 -7.03507e-21)
(0.443812 -0.000287109 0)
(0.444248 -0.000253168 0)
(0.444635 -0.000220972 -6.91044e-21)
(0.444981 -0.000193884 0)
(0.445292 -0.00017215 0)
(0.445574 -0.000154667 6.79185e-21)
(0.445829 -0.000140328 6.75352e-21)
(0.446061 -0.000128298 0)
(0.446274 -0.000117977 -6.67846e-21)
(0.446469 -0.000108966 0)
(0.446647 -0.000101006 6.60533e-21)
(0.446812 -9.3929e-05 0)
(0.446963 -8.76181e-05 6.53397e-21)
(0.447103 -8.1983e-05 6.49888e-21)
(0.447232 -7.69505e-05 0)
(0.447352 -7.24576e-05 0)
(0.447463 -6.84483e-05 0)
(0.447566 -6.48724e-05 0)
(0.447663 -6.16846e-05 0)
(0.447754 -5.88436e-05 0)
(0.447839 -5.63124e-05 0)
(0.447919 -5.4058e-05 6.23025e-21)
(0.447995 -5.20505e-05 -6.19793e-21)
(0.448067 -5.0263e-05 0)
(0.448136 -4.86717e-05 0)
(0.448201 -4.72555e-05 0)
(0.448264 -4.59961e-05 0)
(0.448324 -4.48774e-05 -1.20796e-20)
(0.448383 -4.38855e-05 0)
(0.448439 -4.30083e-05 1.1956e-20)
(0.448494 -4.22346e-05 -1.18948e-20)
(0.448547 -4.15539e-05 0)
(0.448599 -4.09564e-05 0)
(0.44865 -4.04317e-05 0)
(0.4487 -3.99693e-05 1.16536e-20)
(0.44875 -3.95582e-05 1.15942e-20)
(0.448798 -3.91871e-05 0)
(0.448846 -3.88445e-05 1.14764e-20)
(0.448894 -3.85187e-05 1.1418e-20)
(0.448941 -3.81987e-05 -1.13599e-20)
(0.448987 -3.78748e-05 0)
(0.449033 -3.75379e-05 0)
(0.449078 -3.71802e-05 -1.11874e-20)
(0.449123 -3.67948e-05 0)
(0.449167 -3.63753e-05 0)
(0.44921 -3.59158e-05 0)
(0.449253 -3.54105e-05 0)
(0.449294 -3.48527e-05 1.09054e-20)
(0.449335 -3.42334e-05 1.08498e-20)
(0.449373 -3.35411e-05 0)
(0.449411 -3.27604e-05 1.07393e-20)
(0.449446 -3.18709e-05 0)
(0.449479 -3.08451e-05 0)
(0.44951 -2.96475e-05 1.05756e-20)
(0.449537 -2.82315e-05 0)
(0.44956 -2.65364e-05 1.0468e-20)
(0.449579 -2.44826e-05 0)
(0.449591 -2.19658e-05 0)
(0.449596 -1.88494e-05 1.03094e-20)
(0.449591 -1.49536e-05 0)
(0.449574 -1.00399e-05 1.02059e-20)
(0.449541 -3.78967e-06 0)
(0.449488 4.22644e-06 0)
(0.449409 1.45945e-05 0)
(0.449295 2.81265e-05 -1.00081e-20)
(0.449135 4.59686e-05 0)
(0.448913 6.9776e-05 9.91709e-21)
(0.448609 0.000102014 0)
(0.448189 0.000146479 0)
(0.447606 0.000209376 0)
(0.446787 0.000301165 0)
(0.445616 0.000442331 0)
(0.443853 0.000669919 0)
(0.441184 0.00109006 0)
(0.436281 0.00185573 -1.96484e-20)
(0.429181 0.00386985 0)
(0.406713 0.00700702 0)
(-0.00944968 0.00900408 3.9267e-21)
(-0.0164718 0.0227135 -3.04074e-21)
(-0.0263802 0.0319367 0)
(-0.0381038 0.0379126 1.52214e-21)
(-0.0506619 0.0413784 0)
(-0.0637226 0.0431385 6.87086e-22)
(-0.0770708 0.0437434 -1.29071e-21)
(-0.0904691 0.0435234 -1.24579e-21)
(-0.103695 0.0426788 0)
(-0.116559 0.0413344 -1.17326e-21)
(-0.128902 0.0395705 -5.83904e-22)
(-0.140587 0.0374422 0)
(-0.1515 0.0349915 0)
(-0.161542 0.0322541 0)
(-0.170633 0.0292629 0)
(-0.178705 0.0260505 -4.84832e-22)
(-0.185705 0.0226497 0)
(-0.191594 0.019094 8.72487e-22)
(-0.196344 0.015418 0)
(-0.199941 0.0116574 0)
(-0.202382 0.0078513 -6.90532e-22)
(-0.203672 0.00404429 0)
(-0.203831 0.000288801 5.36449e-22)
(-0.202848 -0.003373 -1.97269e-22)
(-0.20065 -0.00692117 1.46145e-22)
(-0.197229 -0.0103469 -9.16933e-23)
(-0.192591 -0.0136411 -3.40206e-23)
(-0.186754 -0.0167925 0)
(-0.179747 -0.0197886 0)
(-0.171608 -0.0226169 -1.56749e-22)
(-0.162383 -0.0252654 1.16538e-22)
(-0.152122 -0.0277233 0)
(-0.140885 -0.0299812 0)
(-0.128735 -0.0320315 -4.45113e-22)
(-0.115737 -0.033868 0)
(-0.101964 -0.0354865 0)
(-0.0874862 -0.0368841 6.79106e-22)
(-0.0723789 -0.0380593 0)
(-0.0567156 -0.0390118 -6.89705e-22)
(-0.04057 -0.0397415 1.84424e-21)
(-0.0240166 -0.0402487 0)
(-0.00713925 -0.0405328 0)
(0.00996606 -0.040599 4.21271e-21)
(0.0272156 -0.0404672 4.42137e-21)
(0.0445433 -0.0401576 4.61642e-21)
(0.0618886 -0.039688 -2.25566e-21)
(0.079189 -0.0390741 2.62211e-21)
(0.0963836 -0.0383304 7.81523e-21)
(0.113414 -0.0374709 -5.26164e-21)
(0.130228 -0.0365093 -2.82071e-21)
(0.146773 -0.035459 0)
(0.163006 -0.0343329 2.92118e-21)
(0.178883 -0.0331438 -2.74247e-21)
(0.19437 -0.031904 0)
(0.209433 -0.0306252 0)
(0.224045 -0.0293185 0)
(0.238183 -0.0279945 3.07822e-21)
(0.251826 -0.0266631 0)
(0.26496 -0.0253332 -6.06211e-21)
(0.277574 -0.0240131 0)
(0.289661 -0.0227105 -6.11728e-21)
(0.301216 -0.0214319 0)
(0.31224 -0.0201832 6.14799e-21)
(0.322735 -0.0189693 0)
(0.332706 -0.0177945 -6.15825e-21)
(0.342162 -0.0166623 3.02922e-21)
(0.351113 -0.0155752 0)
(0.35957 -0.0145353 6.1432e-21)
(0.367549 -0.0135439 3.10515e-21)
(0.375063 -0.0126018 3.09514e-21)
(0.38213 -0.0117092 0)
(0.388767 -0.0108658 3.01008e-21)
(0.394991 -0.010071 3.05974e-21)
(0.400821 -0.00932386 0)
(0.406275 -0.00862304 -3.03293e-21)
(0.411372 -0.00796705 5.9927e-21)
(0.41613 -0.0073542 0)
(0.420567 -0.00678267 2.98991e-21)
(0.424701 -0.00625054 0)
(0.428549 -0.00575584 -8.84839e-21)
(0.432128 -0.00529657 0)
(0.435455 -0.00487075 8.76363e-21)
(0.438544 -0.00447639 2.91537e-21)
(0.441411 -0.00411157 -2.87739e-21)
(0.444069 -0.00377441 -5.72891e-21)
(0.446533 -0.00346311 5.70294e-21)
(0.448816 -0.00317593 0)
(0.450928 -0.00291122 0)
(0.452883 -0.00266741 0)
(0.45469 -0.00244301 -1.68526e-20)
(0.456361 -0.00223664 -5.59872e-21)
(0.457904 -0.002047 5.57103e-21)
(0.459328 -0.0018729 0)
(0.460644 -0.0017132 5.49713e-21)
(0.461857 -0.00156681 -5.48997e-21)
(0.462976 -0.00143272 -5.46362e-21)
(0.464008 -0.00130996 0)
(0.464959 -0.00119762 0)
(0.465835 -0.00109481 0)
(0.466642 -0.00100072 -5.36148e-21)
(0.467386 -0.000914454 0)
(0.46807 -0.000835146 1.06147e-20)
(0.468701 -0.000761449 1.58553e-20)
(0.469282 -0.000690815 -1.05201e-20)
(0.469829 -0.000622979 0)
(0.470338 -0.000560811 -5.20974e-21)
(0.47081 -0.000505862 0)
(0.471244 -0.00045767 -1.03346e-20)
(0.471643 -0.000415246 5.14183e-21)
(0.472008 -0.000377754 5.11953e-21)
(0.472343 -0.000344492 0)
(0.47265 -0.000314864 1.52346e-20)
(0.472932 -0.000288388 -1.01109e-20)
(0.473191 -0.000264684 -5.03536e-21)
(0.473428 -0.000243441 0)
(0.473647 -0.000224399 -4.99175e-21)
(0.473848 -0.000207334 -1.49076e-20)
(0.474033 -0.000192051 0)
(0.474205 -0.000178371 -9.85221e-21)
(0.474363 -0.000166137 -9.80987e-21)
(0.47451 -0.000155202 -9.76771e-21)
(0.474646 -0.000145435 0)
(0.474773 -0.000136716 0)
(0.474892 -0.000128934 0)
(0.475002 -0.000121992 4.79947e-21)
(0.475106 -0.0001158 4.78032e-21)
(0.475204 -0.000110279 0)
(0.475296 -0.000105355 9.47647e-21)
(0.475384 -0.000100966 9.43529e-21)
(0.475467 -9.70541e-05 0)
(0.475546 -9.35689e-05 9.3544e-21)
(0.475621 -9.04658e-05 1.86246e-20)
(0.475693 -8.77052e-05 -9.27254e-21)
(0.475763 -8.52516e-05 -9.22958e-21)
(0.47583 -8.30727e-05 0)
(0.475895 -8.11388e-05 0)
(0.475958 -7.9422e-05 0)
(0.47602 -7.78951e-05 -9.06923e-21)
(0.47608 -7.65312e-05 9.02695e-21)
(0.476138 -7.53037e-05 1.7975e-20)
(0.476196 -7.41858e-05 -8.94811e-21)
(0.476252 -7.31507e-05 8.90615e-21)
(0.476308 -7.21721e-05 8.86768e-21)
(0.476363 -7.1225e-05 0)
(0.476418 -7.02859e-05 0)
(0.476471 -6.9333e-05 -8.74585e-21)
(0.476524 -6.83462e-05 0)
(0.476577 -6.7307e-05 0)
(0.476628 -6.61981e-05 1.72536e-20)
(0.476679 -6.50026e-05 0)
(0.476729 -6.37021e-05 8.54639e-21)
(0.476778 -6.22752e-05 -8.50803e-21)
(0.476825 -6.06952e-05 0)
(0.476872 -5.89288e-05 8.42721e-21)
(0.476917 -5.69321e-05 0)
(0.47696 -5.4648e-05 0)
(0.477 -5.20021e-05 -8.30986e-21)
(0.477039 -4.88973e-05 1.65397e-20)
(0.477074 -4.52072e-05 -8.23117e-21)
(0.477105 -4.07665e-05 0)
(0.477131 -3.5359e-05 0)
(0.477151 -2.87015e-05 8.11316e-21)
(0.477163 -2.04211e-05 0)
(0.477166 -1.00238e-05 8.03649e-21)
(0.477156 3.14931e-06 0)
(0.477131 1.99856e-05 0)
(0.477085 4.16938e-05 0)
(0.477011 6.99446e-05 7.88938e-21)
(0.476903 0.000107089 0)
(0.476747 0.000156509 -7.82078e-21)
(0.476528 0.000223216 0)
(0.476223 0.000314883 0)
(0.4758 0.000443906 1.5468e-20)
(0.475211 0.000631098 -1.54258e-20)
(0.474389 0.0009158 0)
(0.473203 0.00137064 0)
(0.471539 0.00218087 0)
(0.468845 0.00365347 4.64827e-20)
(0.465672 0.00713953 0)
(0.458722 0.0134237 -3.18466e-20)
(-0.011786 0.0348545 -6.37604e-23)
(-0.0215397 0.047772 3.42499e-21)
(-0.0326122 0.056388 0)
(-0.0445947 0.0623721 -2.34487e-21)
(-0.0566814 0.0661458 0)
(-0.0687425 0.0681247 0)
(-0.0807892 0.0686694 -2.44565e-23)
(-0.092753 0.068057 8.88842e-22)
(-0.104516 0.0664973 8.78849e-22)
(-0.11595 0.0641492 8.28622e-22)
(-0.126937 0.0611348 0)
(-0.137367 0.0575505 0)
(-0.147142 0.0534761 -7.76481e-22)
(-0.156177 0.0489813 -1.50448e-21)
(-0.164397 0.0441294 1.45354e-21)
(-0.171735 0.0389801 0)
(-0.178135 0.0335907 1.3392e-21)
(-0.18355 0.028017 -6.07702e-22)
(-0.187937 0.0223135 0)
(-0.191262 0.016533 1.12193e-21)
(-0.193495 0.0107265 4.79767e-22)
(-0.194607 0.00494085 -9.38321e-22)
(-0.194575 -0.000786625 -3.71566e-22)
(-0.193376 -0.00642688 0)
(-0.191 -0.0119477 5.91832e-22)
(-0.187447 -0.0173147 4.59217e-22)
(-0.182726 -0.0224952 0)
(-0.176856 -0.0274592 1.69487e-22)
(-0.169864 -0.0321797 0)
(-0.161784 -0.0366324 -1.50559e-22)
(-0.15266 -0.0407955 -2.32708e-22)
(-0.142541 -0.0446507 0)
(-0.131481 -0.0481825 0)
(-0.119541 -0.0513787 0)
(-0.106783 -0.0542306 0)
(-0.0932761 -0.0567329 0)
(-0.0790892 -0.0588836 0)
(-0.0642936 -0.060684 -1.64904e-21)
(-0.048961 -0.0621391 2.86893e-21)
(-0.0331632 -0.063257 0)
(-0.016973 -0.06405 0)
(-0.000466268 -0.0645326 0)
(0.0162779 -0.0647191 -1.86011e-22)
(0.0331859 -0.0646233 -2.93622e-21)
(0.050191 -0.0642598 -5.98429e-21)
(0.0672297 -0.0636462 6.26465e-21)
(0.0842403 -0.0628019 3.17936e-21)
(0.101164 -0.0617469 -3.47377e-21)
(0.117946 -0.0605015 1.61791e-22)
(0.134534 -0.059086 -3.54036e-21)
(0.150879 -0.0575208 0)
(0.166939 -0.0558258 -3.74497e-21)
(0.182673 -0.0540207 1.39592e-22)
(0.198044 -0.0521246 0)
(0.213021 -0.0501557 0)
(0.227576 -0.0481318 4.07245e-21)
(0.241684 -0.0460695 0)
(0.255326 -0.0439846 0)
(0.268485 -0.0418916 -4.14873e-21)
(0.281149 -0.0398042 -8.60394e-21)
(0.293308 -0.0377348 4.43883e-21)
(0.304957 -0.0356945 0)
(0.316093 -0.0336932 -4.50156e-21)
(0.326718 -0.0317396 0)
(0.336833 -0.0298411 -4.40252e-21)
(0.346446 -0.0280042 -4.5649e-21)
(0.355563 -0.0262337 9.03083e-21)
(0.364195 -0.0245338 4.47119e-21)
(0.372355 -0.0229073 0)
(0.380055 -0.0213562 -9.10266e-21)
(0.38731 -0.0198817 0)
(0.394136 -0.018484 -1.37292e-20)
(0.400549 -0.0171628 -9.12639e-21)
(0.406566 -0.015917 -9.1256e-21)
(0.412205 -0.0147451 9.12112e-21)
(0.417483 -0.0136452 -1.37029e-20)
(0.422418 -0.0126149 0)
(0.427028 -0.0116516 0)
(0.431328 -0.0107526 9.07295e-21)
(0.435338 -0.00991498 1.36065e-20)
(0.439072 -0.00913565 0)
(0.442547 -0.00841156 -4.52726e-21)
(0.445778 -0.00773967 0)
(0.448781 -0.00711694 1.34663e-20)
(0.451569 -0.00654041 3.2403e-23)
(0.454156 -0.00600718 -2.98758e-23)
(0.456554 -0.00551449 -8.88682e-21)
(0.458777 -0.00505965 0)
(0.460836 -0.00464013 8.83044e-21)
(0.462742 -0.00425351 2.15218e-23)
(0.464505 -0.00389752 0)
(0.466135 -0.00357 0)
(0.467642 -0.00326894 0)
(0.469034 -0.00299241 -8.69755e-21)
(0.470319 -0.0027386 0)
(0.471505 -0.00250581 0)
(0.4726 -0.0022924 0)
(0.473609 -0.00209686 0)
(0.47454 -0.00191776 0)
(0.475398 -0.00175374 -8.49852e-21)
(0.476188 -0.00160353 0)
(0.476916 -0.00146588 -8.44501e-21)
(0.477587 -0.00133967 -8.41372e-21)
(0.478206 -0.00122381 8.38253e-21)
(0.478778 -0.00111685 0)
(0.479307 -0.00101783 8.32e-21)
(0.479798 -0.000926875 0)
(0.480251 -0.000844077 8.2572e-21)
(0.480669 -0.000769148 -8.22597e-21)
(0.481054 -0.00070157 -2.45765e-20)
(0.481408 -0.000640722 0)
(0.481733 -0.000585958 -2.43917e-20)
(0.482033 -0.000536669 -8.09573e-21)
(0.482308 -0.000492306 0)
(0.482561 -0.000452383 -1.60756e-20)
(0.482794 -0.000416469 -1.60146e-20)
(0.483009 -0.000384178 2.39328e-20)
(0.483207 -0.000355167 0)
(0.48339 -0.000329123 7.91787e-21)
(0.483559 -0.000305761 7.8873e-21)
(0.483716 -0.000284822 2.3567e-20)
(0.483861 -0.000266067 0)
(0.483996 -0.000249279 0)
(0.484122 -0.00023426 0)
(0.484239 -0.000220829 7.73201e-21)
(0.484349 -0.000208823 0)
(0.484453 -0.000198094 0)
(0.48455 -0.000188509 -7.64248e-21)
(0.484642 -0.000179949 -7.61176e-21)
(0.484728 -0.000172305 0)
(0.484811 -0.000165482 0)
(0.48489 -0.000159394 -1.50388e-20)
(0.484965 -0.000153965 0)
(0.485037 -0.000149127 1.49152e-20)
(0.485107 -0.000144817 1.4852e-20)
(0.485174 -0.000140981 0)
(0.485239 -0.000137565 0)
(0.485302 -0.000134521 -1.46661e-20)
(0.485363 -0.000131802 -1.17452e-24)
(0.485423 -0.000129362 -1.13244e-24)
(0.485482 -0.000127153 0)
(0.485539 -0.000125131 -2.88357e-20)
(0.485596 -0.000123251 0)
(0.485652 -0.000121469 0)
(0.485707 -0.000119744 0)
(0.485761 -0.000118037 1.41683e-20)
(0.485815 -0.000116313 0)
(0.485867 -0.000114536 -2.80836e-20)
(0.485919 -0.000112677 -1.39798e-20)
(0.485971 -0.000110704 0)
(0.486021 -0.000108584 -1.38537e-20)
(0.48607 -0.000106282 0)
(0.486119 -0.000103755 0)
(0.486166 -0.000100949 -4.09907e-20)
(0.486211 -9.77974e-05 2.72001e-20)
(0.486255 -9.42119e-05 0)
(0.486296 -9.00799e-05 2.69469e-20)
(0.486335 -8.52543e-05 -1.34109e-20)
(0.486371 -7.95437e-05 0)
(0.486403 -7.26993e-05 0)
(0.48643 -6.43955e-05 0)
(0.486451 -5.42063e-05 -3.9475e-20)
(0.486464 -4.15715e-05 0)
(0.486468 -2.57504e-05 -1.30342e-20)
(0.486459 -5.75719e-06 0)
(0.486434 1.97322e-05 0)
(0.486388 5.25147e-05 0)
(0.486315 9.50617e-05 0)
(0.486207 0.000150829 0)
(0.486051 0.000224747 0)
(0.485831 0.000324037 -2.52573e-20)
(0.485526 0.000459596 0)
(0.485104 0.000648616 -1.2538e-20)
(0.484518 0.000919263 3.75091e-20)
(0.483705 0.0013219 0)
(0.482555 0.00194688 0)
(0.48096 0.00299636 -2.49766e-20)
(0.478584 0.00482192 -2.51144e-20)
(0.475791 0.00857473 2.53208e-20)
(0.471796 0.0155642 2.58123e-20)
(-0.0117225 0.0649265 -6.73393e-21)