/*--------------------------------*- C++ -*----------------------------------*\
  =========                 |
  \\      /  F ield         | OpenFOAM: The Open Source CFD Toolbox
   \\    /   O peration     | Website:  https://openfoam.org
    \\  /    A nd           | Version:  6
     \\/     M anipulation  |
\*---------------------------------------------------------------------------*/
FoamFile
{
    version     2.0;
    format      ascii;
    class       volScalarField;
    location    "0.14";
    object      epsilon;
}
// * * * * * * * * * * * * * * * * * * * * * * * * * * * * * * * * * * * * * //

dimensions      [0 2 -3 0 0 0 0];

internalField   nonuniform List<scalar> 
12225
(
307.554
159.143
103.21
76.1871
60.9023
51.3688
44.9338
40.2795
36.7216
33.8883
31.564
29.6154
27.9548
26.5213
25.2712
24.1736
23.2068
22.4107
71.6108
59.763
44.4175
34.3498
27.8038
23.3555
20.2043
17.8833
16.109
14.7074
13.5702
12.6277
11.833
11.1537
10.566
10.0522
9.5965
9.1828
33.6139
34.4053
29.2905
24.3865
20.5362
17.6103
15.3811
13.6578
12.2992
11.2059
10.3095
9.56235
8.9307
8.3902
7.92278
7.51472
7.155
6.8352
22.4947
24.1973
22.2223
19.5418
17.0651
14.9832
13.2837
11.9036
10.7768
9.84745
9.07222
8.41816
7.86047
7.38035
6.96338
6.59843
6.27693
5.99414
18.0525
19.1658
18.2263
16.5957
14.8967
13.3497
12.0113
10.8761
9.91825
9.10839
8.42
7.83089
7.32307
6.8822
6.49687
6.15801
5.85882
5.59633
15.9662
16.4
15.767
14.6431
13.3963
12.1983
11.1157
10.1645
9.33896
8.62506
8.00728
7.47097
7.00336
6.59366
6.23292
5.91387
5.63106
5.38266
14.9029
14.7894
14.1895
13.3004
12.3142
11.3432
10.4413
9.62871
8.90768
8.27243
7.71402
7.2229
6.79002
6.40731
6.0678
5.76569
5.49669
5.25971
14.3404
13.826
13.16
12.3651
11.523
10.696
9.91955
9.20951
8.56995
7.99854
7.48993
7.03768
6.63524
6.27652
5.95606
5.66922
5.41263
5.18574
14.0387
13.2461
12.4872
11.7145
10.9457
10.2062
9.51385
8.87764
8.29999
7.77924
7.31158
6.89223
6.51621
6.17873
5.8754
5.60248
5.35728
5.13963
13.8768
12.8995
12.0523
11.2677
10.5297
9.83967
9.20118
8.61614
8.08397
7.6022
7.16727
6.77508
6.42146
6.10241
5.81426
5.55386
5.31906
5.10989
13.7906
12.6957
11.7766
10.9671
10.2363
9.57094
8.96469
8.41339
7.91326
7.46038
7.05071
6.68021
6.34502
6.04153
5.76646
5.5171
5.29158
5.09009
13.7489
12.5882
11.6205
10.7868
10.0518
9.39525
8.80501
8.27283
7.79234
7.35822
6.96571
6.61052
6.28874
5.99687
5.73184
5.49111
5.273
5.07771
13.7254
12.5235
11.521
10.6659
9.92277
9.2681
8.68609
8.16559
7.69826
7.27745
6.89767
6.55422
6.24304
5.96061
5.7039
5.47046
5.25871
5.06883
13.7116
12.4831
11.4547
10.581
9.82786
9.17079
8.59199
8.07832
7.61986
7.20882
6.83894
6.50505
6.20282
5.92861
5.67934
5.45258
5.24678
5.06203
13.7045
12.4608
11.416
10.5284
9.76609
9.10462
8.52552
8.01466
7.56108
7.15618
6.79305
6.46608
6.17065
5.90291
5.6597
5.43854
5.23784
5.05759
13.7012
12.4503
11.3966
10.5006
9.73167
9.06599
8.4851
7.97455
7.52292
7.12114
6.76188
6.43922
6.14827
5.88502
5.64619
5.42921
5.23243
5.0557
13.7
12.4461
11.3887
10.4886
9.71598
9.04755
8.46501
7.95389
7.50267
7.10208
6.74462
6.42418
6.13571
5.87508
5.63892
5.42458
5.23036
5.05598
13.6996
12.4449
11.3862
10.4848
9.71086
9.04131
8.45797
7.94644
7.49518
7.09491
6.73806
6.41845
6.13099
5.87148
5.6365
5.42337
5.23034
5.05708
13.6998
12.4453
11.387
10.486
9.71242
9.04319
8.46007
7.94866
7.49742
7.09706
6.74005
6.42022
6.13249
5.87269
5.63739
5.42393
5.23057
5.057
13.701
12.4493
11.3947
10.4976
9.72756
9.06107
8.47968
7.96896
7.51747
7.11606
6.75737
6.43541
6.14524
5.88279
5.64477
5.42857
5.23252
5.05644
13.7054
12.4634
11.4201
10.5336
9.77183
9.11051
8.53129
8.02016
7.56623
7.16095
6.79745
6.47013
6.17435
5.90629
5.66276
5.44129
5.24028
5.05972
13.7204
12.5081
11.4948
10.6317
9.88422
9.22852
8.64801
8.13067
7.66742
7.25109
6.87582
6.5367
6.22953
5.95074
5.69727
5.46669
5.25744
5.06967
13.767
12.6331
11.6842
10.8596
10.1263
9.4668
8.87102
8.33214
7.84471
7.40386
7.00511
6.64425
6.31742
6.02109
5.75213
5.50793
5.28678
5.0889
13.9007
12.9462
12.1087
11.3252
10.5844
9.88984
9.24638
8.65648
8.1198
7.63396
7.19539
6.8
6.44358
6.12208
5.83177
5.56948
5.33302
5.12247
14.2607
13.6659
12.9742
12.1889
11.3721
10.5738
9.8238
9.13596
8.51416
7.95656
7.45854
7.01435
6.61804
6.26397
5.94705
5.66293
5.40846
5.1833
15.1941
15.232
14.6349
13.6939
12.6458
11.6176
10.6671
9.81467
9.06155
8.40069
7.82188
7.31451
6.86864
6.4755
6.12757
5.81861
5.54401
5.30265
17.6338
18.6178
17.7646
16.2582
14.663
13.1885
11.8963
10.7891
9.84788
9.04792
8.36553
7.78021
7.27495
6.83594
6.45209
6.11456
5.81679
5.55649
24.7058
26.4231
23.9017
20.7813
17.9996
15.7038
13.8516
12.362
11.1562
10.1694
9.35172
8.66593
8.0841
7.58529
7.15365
6.7771
6.44672
6.15865
51.9669
47.7361
37.7989
30.1741
24.7617
20.8796
18.0385
15.9096
14.2718
12.9786
11.9331
11.0707
10.3472
9.73149
9.20121
8.73997
8.33578
7.98268
251.833
137.371
90.8012
67.1546
53.343
44.5696
38.6288
34.3699
31.1615
28.6446
26.6062
24.9144
23.4833
22.2547
21.1875
20.2513
19.424
18.6907
0.103075
0.109364
0.131137
0.160725
0.196188
0.238695
0.285209
0.330335
0.377336
0.427356
0.481082
0.538778
0.600361
0.665516
0.733807
0.804753
0.877877
0.952731
1.02891
1.10607
1.18392
1.2622
1.34072
1.41934
1.49794
1.57645
1.65481
1.73301
1.81103
1.88888
1.96659
2.04418
2.1217
2.19923
2.27685
2.35472
2.43304
2.51213
2.59245
2.67471
2.75998
2.84529
2.92966
3.01299
3.09507
3.17559
3.25416
3.33037
3.40374
3.47377
3.53993
3.60167
3.65845
3.70971
3.75491
3.79357
3.8252
3.84941
3.86584
3.87424
3.87443
3.86632
3.84991
3.82533
3.79275
3.75249
3.70491
3.65046
3.58967
3.52311
3.45147
3.37559
3.29674
3.21718
3.14136
3.0761
3.02301
2.97244
2.92121
2.86892
2.81563
2.76154
2.70685
2.65177
2.59647
2.5411
2.48581
2.4307
2.37586
2.32139
2.26732
2.21372
2.16064
2.10809
2.05612
2.00476
1.95404
1.90399
1.85464
1.80605
1.75825
1.7113
1.66526
1.62019
1.57617
1.53326
1.49154
1.45109
1.41199
1.37431
1.33811
1.30348
1.27045
1.23908
1.2094
1.18143
1.15517
1.13058
1.10759
1.08612
1.06627
1.0484
1.03232
1.01788
1.00494
0.993378
0.983088
0.973962
0.9659
0.958811
0.952607
0.947205
0.94253
0.93851
0.93508
0.932179
0.929751
0.927745
0.926114
0.924817
0.923814
0.923072
0.922559
0.922248
0.922116
0.922139
0.922299
0.922578
0.922962
0.923438
0.923993
0.924618
0.925304
0.926041
0.926824
0.927645
0.928499
0.92938
0.930283
0.931202
0.932132
0.933067
0.934
0.934923
0.935827
0.9367
0.937527
0.938287
0.938955
0.939495
0.939856
0.939968
0.939728
0.938979
0.937473
0.934785
0.930173
0.92212
0.908028
0.882676
0.324552
0.204853
0.213157
0.238703
0.275289
0.318403
0.362513
0.404097
0.442544
0.478284
0.511915
0.543913
0.574616
0.604269
0.633066
0.661171
0.688725
0.715847
0.742632
0.769154
0.795468
0.821612
0.84761
0.873478
0.899225
0.924859
0.950385
0.97581
1.00114
1.0264
1.05158
1.07673
1.10187
1.12703
1.15229
1.17771
1.2034
1.2295
1.25617
1.28365
1.31217
1.34139
1.37051
1.39937
1.42784
1.45583
1.48319
1.50978
1.53543
1.55999
1.58325
1.60502
1.62511
1.6433
1.65942
1.67324
1.68461
1.69334
1.69931
1.70238
1.70247
1.69952
1.69352
1.68448
1.67245
1.65753
1.63983
1.61954
1.59683
1.57196
1.54521
1.51694
1.48759
1.45777
1.42818
1.39956
1.37264
1.34599
1.31916
1.29207
1.26477
1.23735
1.20989
1.18247
1.15517
1.12803
1.10113
1.0745
1.04817
1.02218
0.996544
0.971288
0.946424
0.921966
0.897925
0.874312
0.851136
0.82841
0.806145
0.784355
0.763054
0.742259
0.721989
0.702262
0.6831
0.664525
0.646559
0.629225
0.612545
0.596539
0.581226
0.566623
0.552743
0.539597
0.52719
0.515524
0.504594
0.49439
0.4849
0.476116
0.468059
0.460826
0.454373
0.448544
0.443282
0.43855
0.434308
0.43052
0.42715
0.424162
0.421524
0.419203
0.41717
0.415397
0.413859
0.412532
0.411393
0.410424
0.409606
0.408922
0.408358
0.407899
0.407534
0.407253
0.407044
0.4069
0.406813
0.406777
0.406785
0.406832
0.406913
0.407025
0.407163
0.407325
0.407508
0.407709
0.407926
0.408158
0.408403
0.408659
0.408925
0.409199
0.409481
0.40977
0.410065
0.410364
0.410668
0.410975
0.411285
0.411598
0.411914
0.412237
0.412572
0.412936
0.413366
0.413949
0.414903
0.416771
0.421018
0.432137
0.658588
0.347781
0.316353
0.325163
0.349015
0.379923
0.412499
0.443337
0.471189
0.496156
0.51886
0.539968
0.56003
0.579439
0.598457
0.617243
0.635883
0.654407
0.672816
0.691089
0.7092
0.727125
0.744846
0.762357
0.779663
0.796781
0.813736
0.830564
0.84731
0.86402
0.88075
0.897557
0.9145
0.931644
0.94905
0.966785
0.984912
1.00349
1.02257
1.04219
1.06236
1.08288
1.10355
1.12428
1.14498
1.16558
1.18597
1.20605
1.22568
1.24474
1.26306
1.28048
1.29683
1.31193
1.32559
1.33764
1.34789
1.35618
1.36237
1.36633
1.36796
1.36718
1.36395
1.35827
1.35014
1.33964
1.32686
1.31191
1.29496
1.27617
1.25577
1.234
1.21111
1.1874
1.16312
1.13902
1.11513
1.09119
1.06712
1.04295
1.01872
0.994534
0.970453
0.946548
0.922879
0.899496
0.876441
0.853748
0.831443
0.809546
0.788071
0.767031
0.746432
0.72628
0.706577
0.687328
0.668533
0.650196
0.63232
0.614907
0.597965
0.581498
0.565513
0.55002
0.535027
0.520545
0.506585
0.493156
0.480269
0.467935
0.456161
0.444955
0.434322
0.424265
0.414785
0.40588
0.397544
0.389769
0.382545
0.375864
0.369718
0.364108
0.359024
0.354449
0.350324
0.346612
0.343283
0.340307
0.337654
0.335298
0.333212
0.331371
0.329753
0.328336
0.327099
0.326025
0.325095
0.324294
0.323609
0.323025
0.322532
0.322119
0.321777
0.321497
0.321272
0.321094
0.320959
0.320862
0.320796
0.32076
0.320748
0.320758
0.320788
0.320834
0.320895
0.320969
0.321055
0.32115
0.321255
0.321367
0.321486
0.321611
0.321741
0.321877
0.322016
0.32216
0.322307
0.322458
0.322613
0.322772
0.322937
0.323111
0.323299
0.323513
0.323778
0.324149
0.324749
0.325881
0.328272
0.333816
0.964349
0.460546
0.396342
0.389164
0.399605
0.417785
0.438919
0.460171
0.480236
0.498857
0.516292
0.532929
0.549106
0.565055
0.580902
0.596698
0.612442
0.628107
0.643651
0.659036
0.67423
0.689212
0.703976
0.718529
0.732889
0.747089
0.761165
0.775164
0.789136
0.803137
0.817223
0.831453
0.845883
0.860572
0.875572
0.890935
0.906704
0.922915
0.939596
0.956762
0.974415
0.992459
1.01082
1.02942
1.04823
1.06715
1.0861
1.10499
1.12368
1.14205
1.15995
1.17719
1.1936
1.20899
1.22316
1.23591
1.24705
1.25639
1.26377
1.26903
1.27207
1.27277
1.27109
1.26699
1.2605
1.25164
1.24052
1.22723
1.21191
1.19475
1.17592
1.15562
1.13407
1.11147
1.08831
1.06493
1.04134
1.01756
0.993645
0.969664
0.945709
0.921863
0.898207
0.874811
0.851734
0.829024
0.806723
0.784861
0.76346
0.742539
0.722107
0.702171
0.682734
0.663796
0.645355
0.627409
0.609954
0.592987
0.576505
0.560505
0.544986
0.529948
0.515393
0.501322
0.487739
0.474647
0.462052
0.449959
0.438373
0.427298
0.416739
0.4067
0.397181
0.388184
0.379707
0.371746
0.364295
0.357347
0.350891
0.344917
0.339413
0.334368
0.329768
0.325598
0.321836
0.318447
0.315404
0.312679
0.310247
0.308083
0.306163
0.304466
0.302969
0.301654
0.300503
0.299497
0.298622
0.297863
0.297208
0.296644
0.296161
0.295749
0.2954
0.295107
0.294862
0.294659
0.294493
0.29436
0.294256
0.294176
0.294117
0.294077
0.294054
0.294045
0.294049
0.294063
0.294086
0.294118
0.294157
0.294203
0.294253
0.294309
0.294368
0.294432
0.294499
0.294568
0.294641
0.294716
0.294794
0.294875
0.294961
0.295054
0.295159
0.295283
0.295445
0.295683
0.296076
0.296809
0.298269
0.30123
1.17856
0.537883
0.448775
0.429191
0.429574
0.438491
0.451432
0.465992
0.480925
0.495732
0.510322
0.524766
0.539158
0.553562
0.567995
0.582443
0.596871
0.611235
0.625493
0.639612
0.653568
0.667348
0.680951
0.694389
0.707682
0.720857
0.73395
0.747003
0.76006
0.773171
0.786387
0.79976
0.813344
0.827191
0.841352
0.855874
0.8708
0.886169
0.902011
0.91835
0.935203
0.95253
0.97029
0.988444
1.00694
1.02573
1.04471
1.0638
1.08287
1.10178
1.12038
1.13846
1.15585
1.17233
1.18768
1.20168
1.21411
1.22476
1.23343
1.23997
1.24421
1.24606
1.24544
1.24231
1.23667
1.22857
1.21809
1.20533
1.19045
1.1736
1.15498
1.13478
1.1132
1.09064
1.06747
1.04381
1.01978
0.995489
0.971049
0.94657
0.922157
0.897907
0.873907
0.85023
0.826939
0.804085
0.781708
0.759839
0.738498
0.717702
0.697458
0.677769
0.658635
0.640052
0.622014
0.604513
0.587542
0.571091
0.555153
0.539721
0.524789
0.510351
0.496405
0.482947
0.469977
0.457495
0.445501
0.433998
0.422986
0.412469
0.402447
0.392921
0.383893
0.37536
0.36732
0.359769
0.3527
0.346106
0.339977
0.334302
0.329067
0.324259
0.319864
0.315864
0.312243
0.308976
0.306038
0.303403
0.301048
0.29895
0.297085
0.295434
0.293975
0.292689
0.29156
0.290571
0.289707
0.288954
0.2883
0.287733
0.287243
0.286821
0.286459
0.286149
0.285884
0.28566
0.28547
0.285311
0.285178
0.285068
0.284978
0.284905
0.284847
0.284803
0.284769
0.284745
0.284729
0.28472
0.284718
0.284721
0.284728
0.28474
0.284754
0.284772
0.284792
0.284815
0.284839
0.284865
0.284894
0.284924
0.284958
0.284996
0.285043
0.285105
0.285195
0.285341
0.285596
0.28608
0.287012
0.28874
1.33179
0.587788
0.479031
0.450223
0.443847
0.446887
0.454711
0.465081
0.476796
0.489231
0.502085
0.515222
0.528575
0.542099
0.555748
0.569478
0.58324
0.596991
0.610694
0.62432
0.637848
0.651267
0.664573
0.677773
0.690877
0.703906
0.716884
0.729842
0.742816
0.755844
0.768972
0.782246
0.795714
0.809428
0.823439
0.837797
0.852552
0.867748
0.883429
0.899629
0.916379
0.933672
0.951491
0.969812
0.988599
1.0078
1.02733
1.04711
1.067
1.08686
1.10652
1.12578
1.14443
1.16224
1.17895
1.19433
1.20812
1.2201
1.23003
1.23773
1.24303
1.2458
1.24596
1.24347
1.23832
1.23055
1.22025
1.20754
1.19256
1.1755
1.15655
1.1359
1.11398
1.09108
1.06739
1.04308
1.01833
0.993288
0.968092
0.942877
0.917763
0.892856
0.86825
0.844025
0.820246
0.796966
0.774226
0.752058
0.730482
0.70951
0.689151
0.669403
0.650263
0.631723
0.613774
0.596403
0.579599
0.563348
0.547639
0.532459
0.517798
0.503646
0.489997
0.476844
0.464182
0.452009
0.44032
0.429117
0.418398
0.408162
0.398411
0.389143
0.380358
0.372053
0.364225
0.356871
0.349983
0.343555
0.337575
0.332034
0.326918
0.322214
0.317906
0.313976
0.310409
0.307184
0.304279
0.301671
0.299337
0.297254
0.2954
0.293755
0.2923
0.291016
0.289885
0.288893
0.288023
0.287262
0.286599
0.286021
0.285518
0.285083
0.284705
0.284378
0.284096
0.283853
0.283643
0.283463
0.283308
0.283175
0.283061
0.282963
0.28288
0.282808
0.282747
0.282695
0.282651
0.282613
0.28258
0.282553
0.282529
0.282508
0.282491
0.282475
0.282462
0.28245
0.282439
0.28243
0.282421
0.282414
0.282408
0.282406
0.282409
0.282423
0.282457
0.282532
0.282685
0.282994
0.28359
0.284648
1.43362
0.6176
0.493772
0.458102
0.447216
0.446651
0.451427
0.459279
0.469006
0.479923
0.491631
0.503889
0.516546
0.529501
0.542678
0.556015
0.569465
0.582984
0.596538
0.610099
0.623647
0.637165
0.650643
0.664077
0.677469
0.690824
0.704157
0.717484
0.73083
0.744225
0.757703
0.771305
0.785076
0.799064
0.813323
0.827905
0.842866
0.85826
0.87414
0.890553
0.907541
0.925122
0.943297
0.962057
0.981378
1.00121
1.0215
1.04213
1.06299
1.08393
1.10477
1.12528
1.14525
1.16441
1.18249
1.19923
1.21433
1.22755
1.23863
1.24735
1.25354
1.25705
1.25778
1.25568
1.25076
1.24306
1.23268
1.21974
1.20439
1.18685
1.16733
1.14625
1.12383
1.1003
1.07589
1.05081
1.02524
0.99937
0.973351
0.947335
0.921452
0.895819
0.870535
0.845684
0.821336
0.797545
0.774354
0.751793
0.729884
0.708638
0.688058
0.668144
0.648888
0.630279
0.612303
0.594946
0.578189
0.562018
0.546414
0.531362
0.516847
0.502857
0.489379
0.476405
0.463926
0.451937
0.440431
0.429406
0.41886
0.40879
0.399195
0.390074
0.381426
0.373246
0.365533
0.358282
0.351487
0.34514
0.339232
0.333752
0.328689
0.324027
0.319752
0.315848
0.312296
0.309079
0.306177
0.303567
0.301229
0.299139
0.297278
0.295624
0.294158
0.292863
0.291721
0.290716
0.289834
0.289061
0.288384
0.287793
0.287276
0.286826
0.286434
0.286092
0.285794
0.285534
0.285308
0.28511
0.284937
0.284786
0.284653
0.284536
0.284432
0.28434
0.284258
0.284184
0.284118
0.284057
0.284001
0.28395
0.283902
0.283857
0.283814
0.283773
0.283734
0.283695
0.283657
0.28362
0.283583
0.283546
0.28351
0.283475
0.283443
0.283418
0.283408
0.283426
0.283499
0.28368
0.284049
0.284707
1.49338
0.633065
0.498318
0.457545
0.443529
0.440667
0.443584
0.449897
0.458366
0.468274
0.47918
0.490803
0.502957
0.515519
0.5284
0.541535
0.554875
0.56838
0.582016
0.595754
0.609571
0.623444
0.637354
0.651289
0.665236
0.679191
0.693153
0.707128
0.721126
0.735168
0.749277
0.763488
0.777839
0.792377
0.807152
0.822222
0.837645
0.853483
0.869796
0.886643
0.904077
0.922135
0.940832
0.960173
0.980145
1.00071
1.02181
1.04336
1.06522
1.08724
1.10923
1.13097
1.15219
1.17262
1.19197
1.20994
1.22621
1.2405
1.25255
1.2621
1.26896
1.27298
1.27406
1.27215
1.26724
1.2594
1.24874
1.23538
1.2195
1.20146
1.18147
1.15982
1.13675
1.11251
1.08734
1.06146
1.03508
1.0084
0.98158
0.954788
0.928164
0.901828
0.875887
0.850428
0.825523
0.80123
0.777591
0.754638
0.73239
0.710859
0.690047
0.669949
0.650556
0.631853
0.613825
0.59645
0.57971
0.563582
0.548047
0.533085
0.518677
0.504807
0.491458
0.47862
0.46628
0.454429
0.443061
0.43217
0.421751
0.411802
0.40232
0.393303
0.384748
0.376653
0.369015
0.361829
0.355089
0.34879
0.342921
0.337472
0.332433
0.327789
0.323526
0.319627
0.316075
0.312852
0.309941
0.30732
0.304969
0.302865
0.300988
0.299319
0.297839
0.296529
0.295372
0.294353
0.293457
0.292669
0.291979
0.291374
0.290845
0.290381
0.289975
0.28962
0.289309
0.289035
0.288795
0.288583
0.288395
0.288229
0.288081
0.287948
0.287828
0.28772
0.287621
0.28753
0.287446
0.287367
0.287293
0.287223
0.287156
0.287092
0.287029
0.286968
0.286908
0.286848
0.286789
0.286729
0.286669
0.286609
0.286548
0.286486
0.286427
0.286371
0.286324
0.286296
0.286307
0.286391
0.286602
0.287007
1.51917
0.638194
0.496313
0.45185
0.435572
0.431127
0.432811
0.438107
0.445722
0.454913
0.465224
0.47636
0.48813
0.500403
0.51309
0.526127
0.539467
0.553071
0.566907
0.580945
0.595155
0.609511
0.623986
0.638557
0.653203
0.667906
0.682654
0.69744
0.712264
0.727133
0.742063
0.757078
0.772211
0.787503
0.803003
0.818766
0.834855
0.851335
0.868272
0.885734
0.903782
0.922468
0.941818
0.961849
0.982556
1.00391
1.02586
1.04831
1.07114
1.09419
1.11724
1.14008
1.16241
1.18394
1.20435
1.22332
1.24051
1.25562
1.26836
1.27846
1.28572
1.28999
1.29115
1.28918
1.28407
1.27588
1.26477
1.25096
1.23464
1.21609
1.19554
1.17326
1.14953
1.12459
1.0987
1.07208
1.04497
1.01755
0.99002
0.962541
0.935261
0.908306
0.881786
0.855792
0.830398
0.805663
0.781631
0.758334
0.735791
0.714013
0.693
0.672747
0.65324
0.634464
0.616399
0.59902
0.582306
0.566231
0.55077
0.535901
0.521601
0.50785
0.49463
0.481924
0.469719
0.458003
0.446766
0.436001
0.425703
0.415867
0.406488
0.397566
0.389096
0.381076
0.373503
0.366373
0.359681
0.35342
0.347581
0.342157
0.337135
0.332502
0.328245
0.324348
0.320793
0.317564
0.314642
0.312009
0.309643
0.307524
0.305633
0.303949
0.302454
0.301129
0.299959
0.298926
0.298017
0.297217
0.296515
0.295898
0.295357
0.294882
0.294465
0.294098
0.293776
0.293491
0.293239
0.293015
0.292816
0.292638
0.292477
0.292332
0.292199
0.292078
0.291966
0.291861
0.291763
0.29167
0.291582
0.291497
0.291415
0.291335
0.291257
0.291179
0.291103
0.291026
0.290949
0.290872
0.290793
0.290714
0.290633
0.290551
0.290468
0.290387
0.290311
0.290247
0.290209
0.290222
0.29032
0.290558
1.51736
0.635708
0.490152
0.443231
0.425313
0.419698
0.420475
0.425023
0.431998
0.440636
0.450475
0.461218
0.472675
0.484719
0.497264
0.510251
0.523636
0.537382
0.551457
0.565831
0.580472
0.595349
0.61043
0.625684
0.64108
0.656593
0.672199
0.687881
0.703628
0.719437
0.735314
0.751273
0.767341
0.783551
0.799949
0.816587
0.833527
0.850836
0.868585
0.886844
0.905684
0.925163
0.945315
0.966158
0.987695
1.0099
1.03272
1.05606
1.0798
1.10377
1.12775
1.15149
1.1747
1.19705
1.21821
1.23782
1.25556
1.2711
1.28415
1.29441
1.3017
1.30586
1.30679
1.30447
1.29894
1.29032
1.27876
1.26445
1.24762
1.22852
1.2074
1.18454
1.1602
1.13465
1.10814
1.08091
1.05319
1.02518
0.997081
0.969053
0.941249
0.913802
0.886823
0.860405
0.834625
0.809544
0.785206
0.761644
0.738878
0.716917
0.695762
0.675405
0.655832
0.637024
0.61896
0.601612
0.584955
0.56896
0.553601
0.538849
0.524679
0.511069
0.497995
0.48544
0.473385
0.461819
0.450728
0.440103
0.429938
0.420225
0.410961
0.402143
0.393767
0.385831
0.378331
0.371264
0.364625
0.358408
0.352607
0.347211
0.342211
0.337595
0.333348
0.329457
0.325904
0.322673
0.319746
0.317105
0.31473
0.312601
0.310699
0.309004
0.307497
0.306161
0.30498
0.303937
0.303017
0.302208
0.301496
0.30087
0.300319
0.299836
0.29941
0.299034
0.298703
0.298409
0.298149
0.297916
0.297707
0.29752
0.29735
0.297194
0.297052
0.29692
0.296797
0.296682
0.296573
0.296469
0.296369
0.296273
0.296179
0.296086
0.295995
0.295905
0.295816
0.295726
0.295635
0.295544
0.295451
0.295356
0.29526
0.295161
0.29506
0.294959
0.29486
0.294768
0.294693
0.294652
0.294672
0.294797
1.49264
0.627477
0.481437
0.43321
0.414186
0.407699
0.407768
0.411718
0.418173
0.426358
0.435802
0.446213
0.457402
0.46925
0.481675
0.494622
0.508053
0.521934
0.536234
0.550925
0.565974
0.581349
0.597013
0.612932
0.62907
0.645393
0.66187
0.678476
0.695191
0.712003
0.728909
0.745916
0.76304
0.780309
0.797762
0.815449
0.833427
0.851763
0.870528
0.889797
0.909641
0.930121
0.951264
0.973086
0.995584
1.01873
1.04246
1.06668
1.09125
1.11599
1.14068
1.16504
1.18879
1.21156
1.233
1.25276
1.27051
1.28594
1.29877
1.30869
1.31551
1.31912
1.31947
1.31656
1.31045
1.30125
1.28912
1.27427
1.2569
1.23728
1.21566
1.1923
1.16749
1.14147
1.11451
1.08685
1.0587
1.03029
1.0018
0.973399
0.945245
0.917468
0.890182
0.863483
0.837448
0.812139
0.787604
0.763876
0.740976
0.718912
0.697687
0.677291
0.65771
0.638925
0.620909
0.603637
0.587078
0.571202
0.555978
0.541377
0.527369
0.513928
0.50103
0.488652
0.476776
0.465384
0.454463
0.444002
0.433991
0.424424
0.415296
0.406602
0.398338
0.390504
0.383094
0.376106
0.369536
0.363378
0.357627
0.352273
0.347307
0.342718
0.338493
0.334618
0.331077
0.327854
0.32493
0.32229
0.319913
0.317781
0.315874
0.314173
0.312661
0.311319
0.310131
0.309082
0.308156
0.30734
0.306622
0.30599
0.305433
0.304943
0.304511
0.30413
0.303792
0.303492
0.303225
0.302986
0.30277
0.302576
0.302398
0.302236
0.302086
0.301946
0.301815
0.301692
0.301574
0.301462
0.301353
0.301247
0.301144
0.301042
0.300942
0.300842
0.300742
0.300641
0.30054
0.300438
0.300334
0.300227
0.300118
0.300007
0.299892
0.299776
0.299659
0.299546
0.299444
0.299365
0.299329
0.299378
1.44837
0.614812
0.471295
0.422899
0.403305
0.396231
0.395763
0.399234
0.405262
0.413066
0.422178
0.432305
0.443263
0.454936
0.467248
0.48015
0.493608
0.507592
0.522077
0.537036
0.552439
0.568255
0.584447
0.60098
0.617815
0.634915
0.652245
0.669773
0.687475
0.70533
0.723329
0.74147
0.759762
0.778227
0.796897
0.815816
0.835037
0.854624
0.874647
0.89518
0.916294
0.938038
0.96042
0.983438
1.00707
1.03127
1.05596
1.08102
1.10629
1.13159
1.15666
1.18125
1.20507
1.22769
1.24875
1.26796
1.28499
1.29956
1.31142
1.32034
1.32617
1.32881
1.32822
1.32443
1.3175
1.30756
1.29477
1.27932
1.26143
1.24135
1.21934
1.19564
1.17053
1.14425
1.11705
1.08918
1.06084
1.03225
1.00359
0.975038
0.946736
0.91882
0.891406
0.864588
0.838448
0.81305
0.788441
0.764657
0.741722
0.719645
0.698429
0.678066
0.658541
0.639835
0.621921
0.604771
0.588354
0.572637
0.557587
0.543172
0.52936
0.516122
0.503431
0.491262
0.479592
0.468404
0.457682
0.447412
0.437583
0.428188
0.41922
0.410675
0.402548
0.394838
0.38754
0.380653
0.374172
0.368092
0.362408
0.357113
0.352198
0.347651
0.343462
0.339617
0.3361
0.332896
0.329988
0.327359
0.32499
0.322863
0.32096
0.319261
0.317749
0.316408
0.315219
0.314168
0.31324
0.312423
0.311702
0.311067
0.310508
0.310015
0.30958
0.309195
0.308853
0.30855
0.308278
0.308035
0.307815
0.307615
0.307433
0.307265
0.30711
0.306964
0.306828
0.306698
0.306574
0.306455
0.30634
0.306228
0.306117
0.306009
0.305901
0.305793
0.305686
0.305578
0.305469
0.305358
0.305246
0.305131
0.305013
0.304891
0.304767
0.304639
0.30451
0.304382
0.30426
0.304154
0.304081
0.304079
1.38566
0.598693
0.460654
0.413235
0.393638
0.386291
0.385481
0.388604
0.394304
0.40181
0.410663
0.420566
0.431335
0.442861
0.455073
0.46793
0.4814
0.495463
0.510096
0.525279
0.540986
0.557191
0.573861
0.590961
0.608455
0.626306
0.644478
0.662938
0.681655
0.700607
0.719778
0.739159
0.758755
0.778579
0.798657
0.819027
0.839737
0.860846
0.88242
0.904531
0.927248
0.950578
0.974495
0.998962
1.02392
1.04929
1.07495
1.10075
1.1265
1.15199
1.17694
1.20109
1.22412
1.24571
1.26554
1.28333
1.29879
1.31171
1.32186
1.3291
1.3333
1.33442
1.33244
1.32741
1.3194
1.30854
1.29498
1.27892
1.26056
1.24014
1.21788
1.19403
1.16884
1.14253
1.11536
1.08753
1.05926
1.03075
1.00217
0.973697
0.945471
0.917626
0.890276
0.863519
0.837435
0.812092
0.787541
0.76382
0.740954
0.718956
0.697831
0.677573
0.658169
0.639599
0.621838
0.604857
0.588624
0.573105
0.558265
0.54407
0.530487
0.517484
0.50503
0.493099
0.481666
0.470711
0.460216
0.450165
0.440546
0.43135
0.42257
0.4142
0.406236
0.398674
0.391513
0.384749
0.378379
0.372399
0.366804
0.361587
0.35674
0.352254
0.348117
0.344316
0.340838
0.337667
0.334787
0.33218
0.32983
0.327719
0.325828
0.324139
0.322636
0.321301
0.320117
0.319071
0.318147
0.317331
0.316612
0.315979
0.31542
0.314927
0.314492
0.314106
0.313763
0.313458
0.313185
0.312939
0.312717
0.312514
0.312329
0.312158
0.311999
0.31185
0.311709
0.311576
0.311448
0.311324
0.311204
0.311087
0.310972
0.310858
0.310746
0.310633
0.31052
0.310407
0.310292
0.310176
0.310057
0.309936
0.309812
0.309684
0.309553
0.309418
0.30928
0.309142
0.309007
0.308884
0.308787
0.308752
1.31395
0.583602
0.451391
0.405481
0.386291
0.378958
0.378007
0.38093
0.386415
0.393711
0.402366
0.4121
0.422735
0.434165
0.446324
0.459173
0.472689
0.486854
0.501656
0.517078
0.533105
0.549713
0.566878
0.58457
0.602757
0.621405
0.64048
0.659949
0.679782
0.699952
0.720441
0.741236
0.762334
0.783743
0.805483
0.827582
0.850084
0.873041
0.896513
0.920563
0.945253
0.970498
0.996222
1.02233
1.04872
1.07524
1.10172
1.12797
1.15376
1.17884
1.20295
1.22582
1.24716
1.26672
1.28425
1.29953
1.31238
1.32263
1.33015
1.33487
1.33674
1.33572
1.33186
1.3252
1.31584
1.30389
1.2895
1.27284
1.25408
1.23344
1.21112
1.18733
1.16229
1.13622
1.10933
1.08183
1.0539
1.02573
0.997485
0.969333
0.941413
0.913852
0.886763
0.860246
0.834383
0.809243
0.78488
0.761338
0.738644
0.716816
0.695862
0.675779
0.656556
0.638176
0.620615
0.603845
0.587833
0.572546
0.557949
0.544005
0.530679
0.517937
0.505748
0.494082
0.482913
0.472217
0.461975
0.452169
0.442787
0.433816
0.425249
0.41708
0.409304
0.401917
0.394916
0.3883
0.382064
0.376206
0.37072
0.365601
0.360842
0.356434
0.352366
0.348627
0.345203
0.342079
0.339239
0.336668
0.334348
0.332262
0.330393
0.328724
0.327237
0.325915
0.324744
0.323707
0.322791
0.321983
0.32127
0.320642
0.320087
0.319598
0.319165
0.318781
0.31844
0.318135
0.317862
0.317616
0.317393
0.31719
0.317003
0.316831
0.31667
0.316519
0.316377
0.316241
0.31611
0.315984
0.315861
0.315741
0.315623
0.315506
0.31539
0.315274
0.315158
0.315041
0.314923
0.314803
0.314681
0.314556
0.314429
0.314297
0.314162
0.314023
0.31388
0.313737
0.313595
0.313462
0.313351
0.313295
1.23548
0.569911
0.444419
0.40048
0.382054
0.375013
0.374138
0.377037
0.382456
0.389677
0.398267
0.40796
0.418588
0.43005
0.442286
0.455261
0.468957
0.483365
0.498477
0.514286
0.530782
0.547952
0.565777
0.584235
0.6033
0.622944
0.643135
0.663843
0.685038
0.706693
0.728786
0.751301
0.774228
0.797569
0.821334
0.845545
0.870236
0.895452
0.921247
0.947678
0.974726
1.00218
1.02991
1.05773
1.08545
1.11288
1.13976
1.16586
1.1909
1.21463
1.2368
1.25717
1.27555
1.29175
1.30564
1.31711
1.32609
1.33254
1.33643
1.33775
1.33652
1.33278
1.32656
1.31794
1.30699
1.29382
1.27855
1.26131
1.24225
1.22154
1.19933
1.17581
1.15117
1.12558
1.09923
1.0723
1.04496
1.01738
0.989716
0.962114
0.934713
0.907635
0.880993
0.854884
0.829394
0.804594
0.780544
0.757289
0.734863
0.713288
0.692577
0.672732
0.653744
0.635601
0.61828
0.601756
0.585997
0.570971
0.556641
0.542971
0.529925
0.517468
0.505565
0.494186
0.483302
0.472888
0.462922
0.453385
0.444262
0.435541
0.427211
0.419267
0.411702
0.404513
0.397697
0.39125
0.385171
0.379456
0.374101
0.3691
0.364449
0.360137
0.356156
0.352494
0.349138
0.346076
0.34329
0.340766
0.338488
0.336439
0.334602
0.33296
0.331497
0.330196
0.329043
0.328023
0.327121
0.326324
0.325622
0.325002
0.324455
0.323972
0.323544
0.323165
0.322827
0.322526
0.322255
0.322011
0.321789
0.321587
0.321401
0.321229
0.321068
0.320917
0.320773
0.320637
0.320505
0.320378
0.320254
0.320133
0.320013
0.319895
0.319777
0.31966
0.319542
0.319423
0.319304
0.319182
0.319059
0.318932
0.318803
0.31867
0.318533
0.318393
0.318249
0.318104
0.31796
0.317823
0.317705
0.317639
1.14136
0.554312
0.438847
0.398148
0.381195
0.374925
0.374493
0.377675
0.383304
0.390714
0.399507
0.409435
0.420346
0.432146
0.444783
0.458228
0.472468
0.487499
0.503319
0.519929
0.537325
0.555502
0.574447
0.594147
0.61458
0.635723
0.657548
0.680027
0.703128
0.726824
0.751088
0.775897
0.801234
0.827091
0.853468
0.880376
0.907836
0.935882
0.964556
0.993913
1.02358
1.05334
1.08293
1.11212
1.1406
1.16811
1.19433
1.21898
1.2418
1.26255
1.28104
1.29712
1.31072
1.3218
1.33038
1.3365
1.34023
1.34165
1.34085
1.3379
1.33288
1.32585
1.31687
1.30599
1.29328
1.27881
1.26264
1.24487
1.2256
1.20494
1.18301
1.15995
1.1359
1.11101
1.08541
1.05928
1.03275
1.00597
0.979088
0.952236
0.925542
0.899125
0.873093
0.847545
0.822566
0.798231
0.774604
0.751736
0.729665
0.708419
0.688017
0.668465
0.649762
0.631897
0.614853
0.598607
0.583129
0.568389
0.55435
0.540976
0.528231
0.516079
0.504484
0.493413
0.482836
0.472726
0.463059
0.453815
0.444976
0.436528
0.428461
0.420767
0.413439
0.406473
0.399865
0.393613
0.387714
0.382165
0.376963
0.372103
0.367578
0.363382
0.359506
0.355938
0.352667
0.34968
0.346963
0.344499
0.342273
0.340271
0.338474
0.336869
0.335437
0.334164
0.333036
0.332036
0.331152
0.330372
0.329683
0.329075
0.328538
0.328064
0.327643
0.32727
0.326937
0.326639
0.326372
0.32613
0.325911
0.32571
0.325524
0.325353
0.325192
0.325041
0.324897
0.324759
0.324627
0.324499
0.324374
0.324252
0.324131
0.324011
0.323892
0.323774
0.323655
0.323535
0.323414
0.323291
0.323166
0.323039
0.322908
0.322775
0.322637
0.322497
0.322353
0.322207
0.322063
0.321926
0.321806
0.321733
1.04486
0.538347
0.435029
0.398707
0.384002
0.379135
0.379717
0.383732
0.390126
0.3983
0.407897
0.418694
0.430556
0.4434