/*--------------------------------*- C++ -*----------------------------------*\
  =========                 |
  \\      /  F ield         | OpenFOAM: The Open Source CFD Toolbox
   \\    /   O peration     | Website:  https://openfoam.org
    \\  /    A nd           | Version:  6
     \\/     M anipulation  |
\*---------------------------------------------------------------------------*/
FoamFile
{
    version     2.0;
    format      ascii;
    class       volScalarField;
    location    "0.14";
    object      k;
}
// * * * * * * * * * * * * * * * * * * * * * * * * * * * * * * * * * * * * * //

dimensions      [0 2 -2 0 0 0 0];

internalField   nonuniform List<scalar> 
12225
(
0.24644
0.158839
0.119008
0.0972038
0.083724
0.074741
0.0683605
0.063554
0.0597537
0.0566385
0.0540176
0.0517703
0.0498156
0.0480968
0.0465722
0.0452122
0.0439966
0.0429815
0.339526
0.260134
0.20826
0.175298
0.153278
0.137693
0.126024
0.116862
0.109411
0.1032
0.0979248
0.0933791
0.0894161
0.0859278
0.0828344
0.08007
0.0776205
0.0754139
0.347498
0.292338
0.248515
0.216204
0.192244
0.17407
0.159881
0.148481
0.139095
0.131214
0.12449
0.11868
0.113605
0.109132
0.105161
0.101612
0.0984456
0.0956388
0.35137
0.309035
0.271891
0.241934
0.218159
0.19921
0.183895
0.171306
0.160783
0.151859
0.144193
0.137537
0.131702
0.126546
0.121959
0.117855
0.114183
0.110936
0.353917
0.319267
0.287204
0.259833
0.237058
0.218211
0.202538
0.18938
0.178213
0.168636
0.160341
0.153094
0.146711
0.141049
0.135998
0.13147
0.12741
0.123819
0.355678
0.326033
0.297874
0.272927
0.251448
0.233149
0.217568
0.204243
0.19277
0.18282
0.174127
0.166479
0.159707
0.153675
0.148274
0.143419
0.139056
0.13519
0.356917
0.330711
0.305576
0.282774
0.262651
0.245117
0.229895
0.216667
0.205128
0.195014
0.186102
0.178206
0.171174
0.16488
0.159224
0.154124
0.149529
0.145448
0.357802
0.334028
0.311244
0.290287
0.271468
0.254784
0.240073
0.227113
0.215677
0.205556
0.196564
0.188543
0.181359
0.174898
0.169068
0.163794
0.159031
0.154787
0.358434
0.336405
0.315449
0.296048
0.278426
0.262603
0.248476
0.23589
0.224674
0.214661
0.205698
0.197652
0.190404
0.183856
0.177923
0.172538
0.167662
0.163304
0.358881
0.338107
0.318563
0.300454
0.283897
0.268897
0.255379
0.243226
0.232305
0.222481
0.213629
0.205636
0.198399
0.19183
0.185855
0.180416
0.175475
0.171045
0.359195
0.339316
0.320849
0.303793
0.288158
0.273915
0.260994
0.249297
0.238714
0.229135
0.220453
0.212572
0.205403
0.19887
0.192905
0.187457
0.182496
0.178032
0.359394
0.340092
0.322366
0.306079
0.291157
0.277532
0.265125
0.253843
0.243587
0.23426
0.22577
0.218031
0.210965
0.204503
0.198586
0.193167
0.18822
0.183757
0.359535
0.340651
0.323489
0.307818
0.293495
0.280413
0.268475
0.257587
0.247654
0.238589
0.230307
0.222732
0.215792
0.209426
0.203581
0.198215
0.193305
0.188863
0.359643
0.341085
0.324387
0.309251
0.295475
0.282914
0.271446
0.260968
0.251387
0.242618
0.234581
0.227207
0.220431
0.214197
0.208458
0.203176
0.198331
0.193934
0.359719
0.341393
0.325043
0.310333
0.297019
0.284919
0.273888
0.26381
0.254585
0.246126
0.238357
0.231212
0.224629
0.218559
0.212956
0.207787
0.203034
0.198707
0.359767
0.341589
0.325472
0.311067
0.298101
0.286369
0.275704
0.265976
0.257076
0.248913
0.241409
0.234497
0.22812
0.222227
0.216778
0.211741
0.207099
0.20286
0.359793
0.341696
0.325715
0.311495
0.298755
0.287272
0.27687
0.267405
0.258759
0.250836
0.243554
0.236845
0.23065
0.224921
0.219617
0.214707
0.210176
0.206027
0.359804
0.341741
0.325817
0.311679
0.299044
0.287684
0.277415
0.268089
0.259583
0.251797
0.244645
0.238058
0.231976
0.22635
0.221139
0.216313
0.211855
0.207767
0.359801
0.341729
0.32579
0.31163
0.298968
0.287577
0.277276
0.267916
0.259377
0.251559
0.244378
0.237764
0.231657
0.226008
0.220777
0.215932
0.211456
0.207353
0.359775
0.341621
0.325546
0.311198
0.298304
0.286651
0.276071
0.266428
0.257611
0.249526
0.242095
0.23525
0.228933
0.223094
0.217692
0.212695
0.208084
0.203864
0.359715
0.341376
0.325008
0.31028
0.296949
0.284833
0.27379
0.263703
0.254471
0.246007
0.238234
0.231086
0.224502
0.21843
0.212825
0.207652
0.202891
0.198546
0.359586
0.340851
0.323903
0.308479
0.294409
0.281567
0.269845
0.259144
0.249371
0.240439
0.232268
0.224782
0.217915
0.211607
0.205807
0.200474
0.195583
0.191137
0.359329
0.339834
0.321859
0.305311
0.290145
0.276307
0.263719
0.252289
0.241916
0.232497
0.223936
0.216144
0.209039
0.20255
0.196613
0.19118
0.186219
0.181731
0.35886
0.338008
0.318371
0.300174
0.28354
0.268476
0.254908
0.242717
0.231769
0.221927
0.213063
0.205063
0.197824
0.191257
0.185286
0.179851
0.17491
0.170465
0.35805
0.33491
0.312753
0.292308
0.273863
0.257431
0.242879
0.230011
0.218621
0.208513
0.199513
0.19147
0.184256
0.177761
0.171894
0.166582
0.161776
0.157474
0.356707
0.329802
0.303973
0.280631
0.260125
0.242339
0.226968
0.213663
0.202097
0.19199
0.183106
0.175254
0.168274
0.162039
0.156444
0.151404
0.146864
0.142817
0.354518
0.321334
0.29024
0.263365
0.240773
0.22193
0.206171
0.192889
0.181588
0.171879
0.163462
0.156102
0.149618
0.143868
0.138736
0.134136
0.130005
0.126332
0.350901
0.306598
0.267915
0.237097
0.21293
0.193872
0.178607
0.166147
0.155793
0.147049
0.139566
0.133086
0.127419
0.122421
0.117981
0.114013
0.110455
0.107293
0.342446
0.275933
0.227258
0.193519
0.169806
0.152581
0.139549
0.129296
0.120969
0.114041
0.108168
0.103115
0.0987173
0.094851
0.0914244
0.0883669
0.085626
0.08318
0.259302
0.173113
0.131359
0.107428
0.092141
0.0817388
0.0743039
0.0687373
0.0643905
0.0608752
0.0579523
0.0554693
0.0533248
0.0514489
0.049791
0.048314
0.0469896
0.0458
0.00165092
0.00284886
0.00321309
0.00366216
0.00417216
0.00474407
0.00534454
0.00589432
0.0064408
0.0069982
0.00757342
0.00816801
0.0087798
0.0094047
0.010038
0.0106752
0.0113123
0.011946
0.0125737
0.0131932
0.0138033
0.0144029
0.0149914
0.0155686
0.0161344
0.0166892
0.0172332
0.017767
0.018291
0.0188059
0.0193121
0.0198105
0.0203015
0.020786
0.0212648
0.021739
0.02221
0.0226795
0.0231503
0.0236261
0.0241123
0.0245996
0.0250763
0.0255423
0.025997
0.0264391
0.026867
0.0272788
0.0276725
0.0280457
0.0283962
0.0287216
0.0290194
0.0292872
0.0295225
0.0297232
0.0298872
0.0300126
0.0300978
0.0301415
0.0301429
0.0301013
0.0300166
0.0298891
0.0297195
0.0295089
0.0292587
0.0289706
0.0286468
0.0282898
0.0279023
0.0274879
0.0270515
0.026602
0.0261576
0.0257516
0.0254179
0.0251193
0.0248196
0.0245129
0.0241989
0.0238783
0.0235523
0.0232218
0.0228879
0.0225515
0.0222133
0.021874
0.0215341
0.0211941
0.0208544
0.0205153
0.020177
0.0198397
0.0195037
0.019169
0.0188358
0.0185044
0.018175
0.0178477
0.0175229
0.0172009
0.0168821
0.0165669
0.0162559
0.0159496
0.0156485
0.0153534
0.0150648
0.0147835
0.0145102
0.0142454
0.01399
0.0137443
0.0135091
0.0132847
0.0130715
0.0128695
0.0126785
0.0124982
0.0123287
0.0121726
0.0120305
0.0119012
0.0117838
0.0116772
0.0115809
0.0114939
0.0114157
0.0113454
0.0112824
0.011226
0.0111757
0.0111309
0.011091
0.0110556
0.0110242
0.0109963
0.0109715
0.0109495
0.01093
0.0109127
0.0108972
0.0108834
0.010871
0.0108599
0.0108499
0.0108408
0.0108324
0.0108248
0.0108177
0.0108112
0.010805
0.0107992
0.0107936
0.0107882
0.010783
0.0107779
0.0107729
0.0107679
0.0107628
0.0107577
0.0107525
0.0107471
0.0107413
0.0107353
0.0107287
0.0107216
0.0107136
0.0107045
0.0106939
0.0106813
0.0106659
0.0106466
0.0106214
0.0105872
0.0105384
0.0104635
0.0103427
0.0101357
0.00353278
0.0073608
0.00936207
0.0106487
0.0117934
0.0129406
0.0140452
0.015057
0.0159803
0.0168422
0.0176718
0.0184912
0.019315
0.0201519
0.0210066
0.0218807
0.0227742
0.0236853
0.0246117
0.0255503
0.0264977
0.0274509
0.0284067
0.0293627
0.0303168
0.0312674
0.0322137
0.033155
0.0340914
0.0350229
0.0359502
0.0368737
0.037794
0.0387118
0.0396275
0.0405416
0.0414542
0.0423653
0.0432744
0.0441807
0.0450837
0.0459788
0.046872
0.0477631
0.0486506
0.049532
0.0504041
0.0512633
0.0521057
0.0529268
0.0537216
0.054485
0.0552115
0.0558956
0.0565316
0.0571139
0.057637
0.0580957
0.0584855
0.0588021
0.0590421
0.0592025
0.0592817
0.0592784
0.0591925
0.0590249
0.0587769
0.0584513
0.0580512
0.0575807
0.0570444
0.0564481
0.0557978
0.0551006
0.0543643
0.0535981
0.0528288
0.0520444
0.0512421
0.0504234
0.0495914
0.0487491
0.0478997
0.0470458
0.0461899
0.0453341
0.0444803
0.04363
0.0427846
0.0419451
0.0411125
0.0402873
0.0394704
0.038662
0.0378628
0.037073
0.036293
0.0355233
0.0347642
0.0340162
0.0332798
0.0325557
0.0318445
0.0311469
0.0304638
0.0297962
0.0291448
0.0285108
0.0278952
0.027299
0.0267232
0.0261689
0.0256369
0.025128
0.0246429
0.0241823
0.0237464
0.0233356
0.0229495
0.022588
0.0222504
0.0219348
0.0216422
0.0213756
0.0211339
0.0209154
0.0207184
0.0205412
0.0203823
0.02024
0.0201131
0.0200001
0.0198998
0.0198108
0.0197321
0.0196625
0.0196011
0.019547
0.0194993
0.0194572
0.01942
0.0193871
0.019358
0.0193321
0.0193089
0.0192881
0.0192694
0.0192523
0.0192367
0.0192223
0.0192088
0.0191962
0.0191842
0.0191728
0.0191617
0.0191509
0.0191403
0.0191298
0.0191194
0.0191089
0.0190983
0.0190875
0.0190764
0.0190651
0.0190532
0.0190408
0.0190277
0.0190137
0.0189985
0.0189818
0.0189631
0.0189417
0.0189166
0.0188863
0.0188485
0.0187993
0.0187314
0.0186355
0.0184763
0.0183374
0.00566464
0.0114819
0.013965
0.015596
0.0169378
0.0181813
0.0193615
0.0204717
0.0215191
0.0225272
0.023523
0.0245289
0.0255591
0.0266205
0.0277139
0.0288363
0.0299819
0.0311436
0.0323139
0.0334856
0.0346525
0.0358092
0.036952
0.038078
0.0391859
0.0402753
0.0413467
0.0424014
0.043441
0.0444678
0.045484
0.0464921
0.0474944
0.0484933
0.049491
0.0504893
0.0514898
0.052494
0.0535026
0.0545165
0.0555357
0.0565611
0.0575928
0.0586295
0.0596691
0.060709
0.0617455
0.0627746
0.0637914
0.0647905
0.0657659
0.066711
0.0676189
0.0684821
0.0692932
0.0700447
0.070729
0.0713391
0.0718683
0.0723106
0.0726608
0.0729147
0.0730691
0.0731218
0.0730722
0.0729205
0.0726682
0.072318
0.0718735
0.0713395
0.0707215
0.0700256
0.0692586
0.0684277
0.0675398
0.0666176
0.0656686
0.0646922
0.0636909
0.0626684
0.0616292
0.0605774
0.0595171
0.0584519
0.0573851
0.0563195
0.0552575
0.0542012
0.0531521
0.0521119
0.0510815
0.0500619
0.0490538
0.0480578
0.0470745
0.0461042
0.0451473
0.0442041
0.0432752
0.042361
0.0414619
0.0405786
0.0397118
0.0388622
0.0380307
0.0372183
0.036426
0.0356549
0.034906
0.0341806
0.0334797
0.0328045
0.0321559
0.0315349
0.0309424
0.0303789
0.029845
0.029341
0.0288668
0.0284224
0.0280071
0.0276203
0.0272613
0.0269292
0.0266258
0.0263499
0.0260999
0.0258741
0.0256709
0.0254885
0.0253252
0.0251794
0.0250497
0.0249344
0.0248322
0.0247418
0.0246618
0.0245912
0.0245288
0.0244738
0.0244251
0.0243819
0.0243437
0.0243096
0.0242791
0.0242518
0.024227
0.0242045
0.0241839
0.0241648
0.0241471
0.0241304
0.0241145
0.0240994
0.0240847
0.0240705
0.0240565
0.0240427
0.0240289
0.0240151
0.0240012
0.0239871
0.0239727
0.023958
0.0239427
0.0239268
0.0239101
0.0238925
0.0238735
0.0238529
0.0238301
0.0238044
0.0237749
0.02374
0.0236975
0.0236438
0.0235724
0.0234745
0.0233258
0.02315
0.00731148
0.0143872
0.017432
0.0193471
0.0208051
0.0220725
0.0232568
0.0243981
0.0255182
0.0266365
0.0277704
0.0289317
0.0301263
0.0313538
0.0326095
0.033886
0.0351748
0.036467
0.0377546
0.0390306
0.0402896
0.0415275
0.0427416
0.0439307
0.0450945
0.0462339
0.0473504
0.0484462
0.0495239
0.0505863
0.0516364
0.0526775
0.0537125
0.0547445
0.0557763
0.0568106
0.0578495
0.0588952
0.0599492
0.0610125
0.0620857
0.0631711
0.0642686
0.0653773
0.0664955
0.0676204
0.0687487
0.0698761
0.0709975
0.0721069
0.0731976
0.0742621
0.0752922
0.0762795
0.0772148
0.0780892
0.0788936
0.0796192
0.0802577
0.0808015
0.0812441
0.0815798
0.0818043
0.0819147
0.0819093
0.0817881
0.0815524
0.0812046
0.0807486
0.0801894
0.0795328
0.0787854
0.0779543
0.0770465
0.0760792
0.0750668
0.0740139
0.0729251
0.0718058
0.0706615
0.0694976
0.0683193
0.0671315
0.0659384
0.0647439
0.0635514
0.0623637
0.0611831
0.0600118
0.0588513
0.057703
0.0565679
0.0554469
0.0543404
0.0532492
0.0521735
0.0511137
0.0500702
0.0490432
0.0480332
0.0470407
0.0460662
0.0451103
0.0441737
0.0432573
0.0423619
0.0414887
0.0406387
0.039813
0.0390128
0.0382392
0.0374934
0.0367765
0.0360894
0.0354331
0.0348082
0.0342154
0.033655
0.0331271
0.0326317
0.0321683
0.0317366
0.0313356
0.0309646
0.0306229
0.030311
0.0300274
0.0297704
0.0295384
0.0293294
0.0291419
0.0289741
0.0288243
0.0286908
0.0285722
0.028467
0.0283738
0.0282912
0.0282182
0.0281535
0.0280961
0.0280453
0.028
0.0279596
0.0279234
0.0278909
0.0278614
0.0278345
0.0278098
0.027787
0.0277657
0.0277457
0.0277267
0.0277085
0.0276909
0.0276738
0.0276571
0.0276405
0.0276241
0.0276077
0.0275912
0.0275745
0.0275575
0.0275401
0.0275222
0.0275037
0.0274844
0.0274641
0.0274424
0.0274191
0.0273937
0.0273654
0.0273334
0.0272963
0.027252
0.0271976
0.027128
0.0270362
0.0269081
0.0267556
0.00835863
0.0163182
0.019825
0.0220084
0.0236146
0.0249554
0.0261831
0.0273719
0.0285592
0.0297654
0.0310014
0.0322713
0.033574
0.0349044
0.036255
0.0376171
0.0389819
0.0403414
0.0416884
0.0430172
0.0443236
0.0456044
0.0468578
0.0480832
0.0492807
0.0504515
0.0515973
0.0527201
0.0538227
0.054908
0.055979
0.0570392
0.0580917
0.0591399
0.0601871
0.0612363
0.0622904
0.063352
0.0644232
0.065506
0.0666014
0.0677125
0.0688401
0.0699842
0.0711435
0.072316
0.0734987
0.0746873
0.0758769
0.0770611
0.0782328
0.0793839
0.0805055
0.0815877
0.0826207
0.0835938
0.0844966
0.0853189
0.086051
0.0866837
0.0872092
0.0876207
0.0879128
0.0880815
0.0881247
0.0880417
0.0878334
0.0875023
0.0870522
0.0864881
0.0858163
0.0850434
0.0841769
0.0832315
0.0822219
0.081156
0.080041
0.0788838
0.0776914
0.0764705
0.0752276
0.0739685
0.0726988
0.0714232
0.0701463
0.0688717
0.0676026
0.0663419
0.0650918
0.063854
0.0626302
0.0614213
0.0602284
0.0590521
0.0578928
0.056751
0.0556268
0.0545207
0.0534329
0.0523636
0.0513132
0.0502822
0.0492711
0.0482806
0.0473115
0.0463645
0.0454407
0.0445411
0.0436669
0.0428191
0.041999
0.0412078
0.0404465
0.0397162
0.0390178
0.0383521
0.0377198
0.0371213
0.0365568
0.0360263
0.0355296
0.0350663
0.0346355
0.0342366
0.0338683
0.0335308
0.033223
0.0329434
0.0326902
0.0324618
0.0322562
0.0320718
0.0319068
0.0317595
0.0316284
0.0315117
0.0314082
0.0313163
0.0312348
0.0311625
0.0310983
0.0310412
0.0309903
0.0309448
0.030904
0.0308672
0.0308338
0.0308033
0.0307753
0.0307493
0.0307251
0.0307023
0.0306806
0.0306599
0.0306399
0.0306204
0.0306014
0.0305826
0.0305639
0.0305453
0.0305266
0.0305077
0.0304886
0.0304691
0.030449
0.0304284
0.0304069
0.0303844
0.0303606
0.0303351
0.0303076
0.0302773
0.0302433
0.0302045
0.030159
0.0301043
0.0300362
0.0299494
0.0298357
0.0297055
0.00906748
0.017511
0.0213506
0.0237694
0.0255465
0.0270082
0.028325
0.0295889
0.0308484
0.0321277
0.0334368
0.0347773
0.0361457
0.0375355
0.0389388
0.0403474
0.0417536
0.0431503
0.0445317
0.045893
0.0472306
0.0485419
0.0498252
0.0510799
0.052306
0.0535041
0.0546756
0.0558223
0.0569463
0.0580504
0.0591372
0.0602101
0.0612723
0.0623273
0.0633785
0.0644296
0.0654837
0.0665442
0.0676141
0.0686958
0.0697914
0.0709046
0.0720373
0.0731906
0.0743641
0.0755566
0.0767657
0.0779877
0.0792178
0.0804498
0.0816763
0.0828889
0.084078
0.085233
0.0863428
0.0873959
0.0883804
0.0892848
0.090098
0.0908096
0.0914103
0.0918923
0.0922491
0.0924759
0.0925699
0.0925297
0.0923561
0.0920512
0.0916188
0.0910641
0.0903935
0.0896135
0.0887395
0.087783
0.0867537
0.0856607
0.0845124
0.0833171
0.0820828
0.0808171
0.079527
0.0782192
0.0768995
0.0755734
0.0742456
0.0729204
0.0716011
0.070291
0.0689924
0.0677073
0.0664374
0.0651839
0.0639478
0.0627296
0.0615299
0.060349
0.0591871
0.0580444
0.0569211
0.0558174
0.0547336
0.0536699
0.0526268
0.0516049
0.0506048
0.0496274
0.0486735
0.0477441
0.0468404
0.0459634
0.0451144
0.0442945
0.0435049
0.0427466
0.0420207
0.0413279
0.0406691
0.0400446
0.0394549
0.0389001
0.0383798
0.0378939
0.0374417
0.0370224
0.036635
0.0362786
0.0359529
0.0356564
0.0353873
0.0351439
0.0349245
0.0347273
0.0345505
0.0343924
0.0342513
0.0341256
0.0340138
0.0339144
0.0338261
0.0337477
0.0336779
0.0336158
0.0335603
0.0335106
0.0334659
0.0334256
0.033389
0.0333555
0.0333247
0.0332962
0.0332695
0.0332444
0.0332206
0.0331977
0.0331757
0.0331543
0.0331333
0.0331126
0.0330921
0.0330716
0.0330511
0.0330305
0.0330095
0.0329882
0.0329664
0.0329439
0.0329206
0.0328964
0.0328708
0.0328436
0.0328143
0.0327824
0.0327469
0.0327068
0.0326604
0.0326054
0.0325387
0.0324559
0.0323525
0.0322389
0.00952171
0.0181774
0.0222366
0.0248425
0.0267831
0.028381
0.0298079
0.0311609
0.0324943
0.0338364
0.0351994
0.036586
0.0379936
0.0394168
0.0408488
0.0422829
0.0437126
0.0451321
0.0465364
0.0479215
0.0492839
0.0506212
0.0519315
0.0532138
0.0544675
0.0556927
0.0568899
0.0580603
0.0592054
0.0603273
0.0614284
0.0625115
0.0635796
0.0646363
0.0656851
0.0667298
0.0677742
0.0688221
0.0698773
0.070943
0.0720224
0.0731194
0.0742376
0.0753789
0.0765444
0.0777338
0.0789457
0.080177
0.0814235
0.0826794
0.0839374
0.0851889
0.0864238
0.0876311
0.0887987
0.0899142
0.0909645
0.091937
0.0928191
0.0935993
0.0942671
0.0948135
0.095231
0.0955141
0.0956592
0.0956645
0.0955302
0.0952584
0.0948527
0.0943184
0.0936625
0.0928984
0.0920356
0.0910842
0.0900541
0.088955
0.0877962
0.0865865
0.0853347
0.0840489
0.0827367
0.0814052
0.0800607
0.078709
0.0773553
0.076004
0.074659
0.0733235
0.0720001
0.0706911
0.0693982
0.0681226
0.0668654
0.0656272
0.0644084
0.0632095
0.0620304
0.0608713
0.0597323
0.0586135
0.0575149
0.0564369
0.0553796
0.0543437
0.0533296
0.052338
0.0513698
0.050426
0.0495074
0.0486154
0.047751
0.0469154
0.0461099
0.0453354
0.0445931
0.0438839
0.0432085
0.0425676
0.0419615
0.0413905
0.0408545
0.0403532
0.039886
0.0394523
0.0390511
0.0386813
0.0383426
0.0380336
0.0377527
0.0374981
0.0372682
0.0370611
0.0368752
0.0367087
0.0365598
0.036427
0.0363087
0.0362034
0.0361097
0.0360263
0.035952
0.0358858
0.0358266
0.0357735
0.0357257
0.0356825
0.0356433
0.0356074
0.0355743
0.0355436
0.035515
0.035488
0.0354623
0.0354377
0.035414
0.035391
0.0353684
0.0353462
0.0353242
0.0353022
0.0352802
0.0352581
0.0352357
0.0352129
0.0351897
0.0351657
0.035141
0.0351153
0.0350883
0.0350597
0.0350291
0.0349959
0.0349592
0.0349182
0.0348712
0.0348164
0.034751
0.0346718
0.0345764
0.0344751
0.00978132
0.0184745
0.0226665
0.0254095
0.0274873
0.0292114
0.0307464
0.0321876
0.0335907
0.0349867
0.0363907
0.0378083
0.0392395
0.0406811
0.0421283
0.0435763
0.0450198
0.0464543
0.0478754
0.0492796
0.0506636
0.0520248
0.0533608
0.0546702
0.0559516
0.0572042
0.058428
0.059623
0.0607901
0.0619306
0.0630462
0.0641392
0.0652123
0.0662688
0.0673121
0.0683461
0.069375
0.0704031
0.0714347
0.0724739
0.0735247
0.0745918
0.0756797
0.076792
0.077931
0.0790975
0.0802913
0.0815104
0.0827514
0.084009
0.0852764
0.0865449
0.0878045
0.0890437
0.0902499
0.0914096
0.092509
0.0935343
0.0944719
0.095309
0.096034
0.096637
0.0971096
0.0974453
0.09764
0.0976913
0.0975991
0.0973652
0.0969928
0.096491
0.0958673
0.0951313
0.0942926
0.0933611
0.0923468
0.0912597
0.0901093
0.0889051
0.0876562
0.086371
0.0850575
0.0837232
0.0823748
0.0810184
0.0796593
0.0783024
0.0769517
0.0756106
0.074282
0.0729682
0.071671
0.0703919
0.0691318
0.0678913
0.066671
0.0654711
0.0642916
0.0631325
0.0619939
0.0608756
0.0597777
0.0587002
0.0576435
0.0566077
0.0555933
0.0546011
0.0536316
0.0526857
0.0517645
0.0508691
0.0500005
0.04916
0.0483488
0.047568
0.0468186
0.0461018
0.0454183
0.0447688
0.0441538
0.0435736
0.0430282
0.0425175
0.042041
0.0415981
0.0411879
0.0408092
0.0404617
0.040144
0.0398547
0.0395921
0.0393545
0.0391403
0.0389476
0.0387747
0.03862
0.0384817
0.0383584
0.0382485
0.0381505
0.0380633
0.0379855
0.0379161
0.0378539
0.0377981
0.0377479
0.0377025
0.0376611
0.0376233
0.0375884
0.037556
0.0375258
0.0374973
0.0374702
0.0374442
0.0374192
0.0373949
0.0373711
0.0373476
0.0373244
0.0373013
0.0372781
0.0372548
0.0372313
0.0372073
0.0371829
0.0371579
0.0371321
0.0371052
0.0370772
0.0370475
0.0370159
0.0369817
0.0369443
0.0369027
0.0368556
0.0368012
0.0367373
0.0366615
0.0365728
0.0364813
0.00988998
0.0185099
0.022772
0.0256083
0.0277912
0.0296193
0.0312476
0.0327664
0.0342302
0.0356711
0.0371069
0.0385461
0.0399916
0.0414428
0.0428974
0.0443522
0.0458036
0.0472479
0.0486817
0.0501016
0.0515044
0.0528872
0.0542474
0.0555827
0.0568912
0.0581713
0.0594218
0.0606422
0.0618323
0.0629926
0.0641239
0.065228
0.066307
0.0673637
0.0684013
0.0694236
0.0704349
0.0714398
0.072443
0.0734493
0.0744636
0.0754911
0.0765376
0.0776078
0.0787054
0.0798327
0.0809906
0.0821785
0.0833939
0.0846324
0.0858878
0.087152
0.0884149
0.0896649
0.090889
0.0920732
0.0932031
0.0942641
0.0952415
0.0961215
0.0968916
0.097541
0.0980608
0.0984434
0.0986839
0.0987799
0.0987307
0.0985393
0.0982104
0.0977508
0.097168
0.0964706
0.095668
0.0947698
0.0937861
0.0927266
0.0916013
0.0904198
0.0891913
0.0879245
0.0866277
0.0853086
0.0839741
0.0826306
0.0812837
0.0799384
0.0785989
0.0772688
0.0759513
0.0746487
0.073363
0.0720956
0.0708476
0.0696196
0.0684122
0.0672254
0.0660594
0.0649139
0.063789
0.0626843
0.0615998
0.0605355
0.0594914
0.0584677
0.0574647
0.056483
0.0555232
0.054586
0.0536725
0.0527835
0.0519204
0.0510842
0.0502761
0.0494973
0.048749
0.0480322
0.0473479
0.0466967
0.0460793
0.045496
0.044947
0.0444323
0.0439514
0.0435039
0.0430889
0.0427055
0.0423527
0.0420298
0.0417353
0.0414675
0.0412249
0.0410058
0.0408085
0.0406312
0.0404723
0.0403302
0.0402033
0.04009
0.039989
0.0398989
0.0398185
0.0397467
0.0396823
0.0396246
0.0395725
0.0395253
0.0394824
0.0394431
0.0394068
0.0393732
0.0393417
0.0393121
0.0392839
0.0392569
0.0392309
0.0392056
0.0391808
0.0391565
0.0391323
0.0391083
0.0390843
0.0390601
0.0390357
0.039011
0.0389857
0.0389599
0.0389332
0.0389056
0.0388768
0.0388464
0.0388141
0.0387794
0.0387416
0.0386998
0.0386528
0.0385992
0.0385372
0.0384648
0.0383821
0.0382987
0.00987834
0.0183559
0.0226452
0.0255406
0.0277988
0.0297065
0.0314091
0.0329911
0.0345047
0.0359821
0.0374426
0.0388971
0.0403511
0.0418067
0.0432636
0.0447205
0.0461752
0.0476252
0.0490675
0.0504992
0.0519171
0.0533182
0.0546995
0.0560582
0.0573917
0.0586976
0.059974
0.0612195
0.0624328
0.0636137
0.0647623
0.0658793
0.0669662
0.0680253
0.0690592
0.0700716
0.0710665
0.0720485
0.0730225
0.0739941
0.0749685
0.0759515
0.07695
0.0779697
0.0790155
0.0800912
0.081199
0.0823395
0.0835114
0.0847116
0.0859347
0.0871732
0.0884175
0.0896561
0.0908757
0.0920625
0.0932017
0.0942783
0.0952773
0.0961834
0.0969834
0.0976661
0.0982229
0.0986442
0.0989244
0.0990624
0.0990582
0.0989139
0.0986337
0.0982231
0.0976892
0.09704
0.0962844
0.0954316
0.0944915
0.0934738
0.0923882
0.0912445
0.0900518
0.088819
0.0875545
0.086266
0.0849608
0.0836453
0.0823253
0.0810061
0.079692
0.078387
0.0770941
0.075816
0.0745547
0.0733117
0.0720882
0.0708849
0.0697023
0.0685404
0.0673992
0.0662786
0.0651783
0.0640981
0.0630377
0.0619969
0.0609757
0.0599741
0.0589923
0.0580307
0.0570899
0.0561705
0.0552735
0.0543997
0.0535502
0.0527263
0.0519291
0.0511598
0.0504197
0.0497097
0.049031
0.0483843
0.0477702
0.0471894
0.046642
0.046128
0.0456473
0.0451994
0.0447835
0.0443989
0.0440444
0.0437194
0.0434225
0.0431522
0.042907
0.0426853
0.0424853
0.0423055
0.0421441
0.0419996
0.0418704
0.0417549
0.0416519
0.04156
0.0414778
0.0414044
0.0413385
0.0412794
0.041226
0.0411777
0.0411336
0.0410933
0.0410561
0.0410216
0.0409893
0.0409589
0.0409299
0.0409022
0.0408755
0.0408496
0.0408242
0.0407992
0.0407745
0.0407498
0.0407252
0.0407005
0.0406755
0.0406502
0.0406244
0.040598
0.0405708
0.0405427
0.0405134
0.0404827
0.0404501
0.0404151
0.0403773
0.0403357
0.0402893
0.0402369
0.0401769
0.0401081
0.0400309
0.0399546
0.00976708
0.0180621
0.0223517
0.0252828
0.0275936
0.0295599
0.0313192
0.0329508
0.0345041
0.0360105
0.0374903
0.0389559
0.0404148
0.0418712
0.0433269
0.044782
0.046236
0.047687
0.0491331
0.0505715
0.0519994
0.0534138
0.0548114
0.0561889
0.0575434
0.0588718
0.0601714
0.0614401
0.0626759
0.0638775
0.0650442
0.066176
0.0672736
0.0683384
0.0693725
0.070379
0.0713616
0.0723245
0.0732728
0.074212
0.0751478
0.0760866
0.0770356
0.0780016
0.0789903
0.0800066
0.081054
0.0821344
0.0832478
0.0843923
0.0855636
0.0867554
0.087959
0.0891626
0.0903534
0.091518
0.0926419
0.0937107
0.0947104
0.0956229
0.0964336
0.0971326
0.0977107
0.0981602
0.0984757
0.0986543
0.0986954
0.0986003
0.0983723
0.0980161
0.097538
0.0969454
0.0962464
0.0954498
0.094565
0.0936014
0.0925684
0.0914756
0.0903322
0.0891468
0.0879279
0.0866833
0.0854204
0.0841456
0.0828651
0.0815841
0.0803073
0.0790387
0.0777816
0.0765388
0.0753124
0.0741042
0.0729153
0.0717464
0.0705981
0.0694705
0.0683634
0.0672768
0.0662102
0.0651632
0.0641356
0.063127
0.0621371
0.061166
0.0602136
0.0592803
0.0583664
0.0574726
0.0565995
0.0557482
0.0549197
0.0541151
0.0533355
0.0525823
0.0518566
0.0511595
0.0504921
0.0498554
0.04925
0.0486766
0.0481355
0.0476267
0.0471503
0.0467058
0.0462927
0.0459101
0.0455571
0.045233
0.0449365
0.0446662
0.0444206
0.0441983
0.0439975
0.0438168
0.0436545
0.043509
0.0433787
0.0432623
0.0431583
0.0430654
0.0429824
0.0429081
0.0428414
0.0427815
0.0427274
0.0426784
0.0426338
0.0425929
0.0425552
0.0425201
0.0424874
0.0424565
0.0424271
0.042399
0.0423719
0.0423456
0.0423198
0.0422945
0.0422694
0.0422445
0.0422195
0.0421945
0.0421692
0.0421436
0.0421175
0.0420909
0.0420635
0.0420352
0.0420058
0.0419749
0.0419423
0.0419075
0.0418699
0.0418288
0.0417834
0.0417325
0.0416749
0.0416097
0.0415379
0.041468
0.0095695
0.0176635
0.0219397
0.0248939
0.027243
0.0292538
0.0310572
0.0327281
0.0343134
0.0358435
0.0373389
0.038813
0.0402745
0.0417293
0.0431808
0.0446307
0.0460795
0.0475267
0.0489708
0.0504099
0.0518413
0.0532622
0.0546694
0.0560595
0.0574291
0.0587747
0.0600933
0.0613818
0.0626379
0.0638593
0.0650446
0.0661929
0.0673041
0.0683787
0.0694183
0.0704249
0.0714018
0.0723527
0.0732822
0.0741958
0.0750992
0.075999
0.0769025
0.0778167
0.0787482
0.0797024
0.0806838
0.0816953
0.0827381
0.0838115
0.0849127
0.0860368
0.0871778
0.0883219
0.0894572
0.0905717
0.0916521
0.0926843
0.093654
0.0945464
0.0953483
0.0960483
0.0966368
0.0971059
0.0974497
0.0976645
0.0977489
0.097703
0.0975292
0.0972313
0.0968145
0.0962853
0.095651
0.0949197
0.0941001
0.0932011
0.0922317
0.091201
0.090118
0.0889913
0.0878292
0.0866395
0.0854295
0.084206
0.082975
0.081742
0.0805119
0.0792888
0.0780763
0.0768773
0.0756941
0.0745285
0.0733819
0.0722551
0.0711486
0.0700625
0.0689968
0.0679513
0.0669254
0.0659187
0.0649308
0.0639612
0.0630096
0.0620757
0.0611595
0.0602611
0.0593808
0.058519
0.0576765
0.0568541
0.0560527
0.0552734
0.0545174
0.0537859
0.0530802
0.0524013
0.0517505
0.0511287
0.0505367
0.0499752
0.0494446
0.0489451
0.0484768
0.0480393
0.0476323
0.0472549
0.0469063
0.0465858
0.0462921
0.0460241
0.0457804
0.0455594
0.0453597
0.0451798
0.045018
0.0448728
0.0447428
0.0446264
0.0445224
0.0444295
0.0443463
0.0442719
0.0442051
0.044145
0.0440908
0.0440416
0.0439969
0.0439558
0.0439179
0.0438828
0.0438499
0.0438189
0.0437894
0.0437612
0.043734
0.0437076
0.0436817
0.0436563
0.0436312
0.0436062
0.0435812
0.0435561
0.0435308
0.0435051
0.0434791
0.0434524
0.0434251
0.0433968
0.0433675
0.0433369
0.0433046
0.0432702
0.0432332
0.0431931
0.0431489
0.0430998
0.0430449
0.0429835
0.0429168
0.0428529
0.00928794
0.0171826
0.0214446
0.02442
0.0268029
0.028852
0.0306929
0.0323974
0.0340103
0.0355615
0.0370714
0.0385529
0.0400157
0.041467
0.0429117
0.044353
0.0457923
0.0472302
0.0486662
0.0500989
0.0515265
0.0529463
0.0543554
0.0557505
0.0571282
0.0584848
0.0598169
0.0611212
0.0623946
0.0636343
0.0648383
0.0660048
0.0671329
0.0682223
0.0692736
0.0702881
0.071268
0.0722166
0.0731377
0.0740362
0.0749176
0.0757883
0.0766552
0.0775249
0.0784038
0.0792979
0.0802119
0.0811493
0.0821123
0.0831012
0.0841141
0.0851474
0.0861953
0.087249
0.0882988
0.0893339
0.0903422
0.091311
0.0922272
0.0930779
0.0938505
0.0945339
0.0951182
0.0955951
0.0959581
0.0962026
0.096326
0.0963276
0.0962082
0.0959705
0.0956186
0.0951577
0.0945942
0.0939351
0.0931883
0.092362
0.0914647
0.0905049
0.0894912
0.0884319
0.0873352
0.0862088
0.08506
0.0838955
0.0827217
0.081544
0.0803676
0.0791967
0.0780352
0.0768862
0.0757521
0.0746349
0.0735362
0.0724569
0.0713975
0.0703583
0.0693392
0.06834
0.06736
0.0663989
0.065456
0.0645307
0.0636227
0.0627314
0.0618568
0.0609987
0.0601574
0.0593331
0.0585264
0.0577381
0.0569691
0.0562204
0.055493
0.0547883
0.0541074
0.0534515
0.0528219
0.0522194
0.051645
0.0510995
0.0505833
0.0500968
0.04964
0.0492129
0.048815
0.0484457
0.0481043
0.0477898
0.0475014
0.0472379
0.0469979
0.0467802
0.0465833
0.0464056
0.0462457
0.0461022
0.0459735
0.0458583
0.0457553
0.0456632
0.0455807
0.0455068
0.0454405
0.0453809
0.045327
0.0452782
0.0452337
0.0451929
0.0451553
0.0451203
0.0450877
0.0450568
0.0450276
0.0449995
0.0449725
0.0449463
0.0449206
0.0448954
0.0448704
0.0448456
0.0448208
0.0447959
0.0447708
0.0447454
0.0447196
0.0446932
0.0446662
0.0446383
0.0446094
0.0445792
0.0445475
0.0445138
0.0444778
0.0444388
0.0443962
0.0443493
0.0442972
0.0442397
0.0441781
0.0441197
0.00896177
0.0166218
0.0208902
0.0238985
0.0263206
0.0284094
0.0302875
0.0320243
0.0336634
0.0352336
0.036755
0.038242
0.0397049
0.0411517
0.0425881
0.0440183
0.045445
0.0468696
0.0482925
0.0497134
0.051131
0.0525432
0.0539477
0.0553413
0.056721
0.0580832
0.0594242
0.0607407
0.0620291
0.0632863
0.0645096
0.0656965
0.0668454
0.0679552
0.0690254
0.0700565
0.0710497
0.0720072
0.0729321
0.0738283
0.0747007
0.0755549
0.0763963
0.0772308
0.0780641
0.0789015
0.0797476
0.0806065
0.0814806
0.0823712
0.0832781
0.0841995
0.0851316
0.0860692
0.0870053
0.0879318
0.0888393
0.0897172
0.0905546
0.0913401
0.0920623
0.0927104
0.0932746
0.0937461
0.0941178
0.0943839
0.0945407
0.0945858
0.0945189
0.0943411
0.0940551
0.0936647
0.0931751
0.0925922
0.0919229
0.0911743
0.0903544
0.089471
0.0885323
0.0875461
0.0865205
0.0854629
0.0843806
0.0832804
0.0821686
0.0810509
0.0799326
0.0788182
0.0777117
0.0766164
0.0755351
0.07447
0.0734226
0.0723941
0.0713852
0.0703962
0.0694271
0.0684775
0.0675471
0.066635
0.0657408
0.0648637
0.0640031
0.0631585
0.0623295
0.0615159
0.0607177
0.0599352
0.0591688
0.058419
0.0576867
0.0569728
0.0562785
0.0556048
0.0549529
0.0543242
0.0537196
0.0531404
0.0525875
0.0520615
0.0515633
0.0510931
0.0506511
0.0502373
0.0498514
0.0494928
0.049161
0.048855
0.048574
0.048317
0.0480828
0.04787