/*--------------------------------*- C++ -*----------------------------------*\
  =========                 |
  \\      /  F ield         | OpenFOAM: The Open Source CFD Toolbox
   \\    /   O peration     | Website:  https://openfoam.org
    \\  /    A nd           | Version:  6
     \\/     M anipulation  |
\*---------------------------------------------------------------------------*/
FoamFile
{
    version     2.0;
    format      ascii;
    class       volScalarField;
    location    "0.14";
    object      nut;
}
// * * * * * * * * * * * * * * * * * * * * * * * * * * * * * * * * * * * * * //

dimensions      [0 2 -1 0 0 0 0];

internalField   nonuniform List<scalar> 
12225
(
1.77723e-05
1.42681e-05
1.23503e-05
1.11616e-05
1.03588e-05
9.78724e-06
9.36009e-06
9.02494e-06
8.75085e-06
8.51957e-06
8.31997e-06
8.14489e-06
7.98945e-06
7.85018e-06
7.72447e-06
7.61049e-06
7.50697e-06
7.4191e-06
0.00014488
0.000101907
8.78819e-05
8.05137e-05
7.60493e-05
7.30595e-05
7.07466e-05
6.87292e-05
6.68804e-05
6.51726e-05
6.35977e-05
6.21467e-05
6.08104e-05
5.95787e-05
5.84457e-05
5.74009e-05
5.65044e-05
5.57405e-05
0.000323317
0.000223556
0.000189767
0.000172513
0.000161968
0.000154854
0.000149571
0.000145279
0.000141576
0.000138278
0.000135293
0.000132566
0.000130062
0.000127754
0.000125624
0.000123657
0.000121906
0.000120437
0.00049396
0.000355215
0.000299393
0.000269569
0.000251004
0.000238373
0.000229121
0.000221875
0.000215892
0.000210766
0.000206262
0.000202238
0.000198599
0.000195281
0.000192242
0.000189451
0.000186937
0.000184784
0.000624465
0.000478656
0.000407311
0.00036613
0.000339517
0.000321013
0.000307371
0.00029678
0.000288195
0.000280996
0.000274802
0.000269368
0.000264528
0.00026017
0.000256216
0.000252614
0.000249367
0.000246554
0.000713106
0.000583337
0.000506475
0.00045783
0.000424771
0.000401058
0.000383262
0.000369358
0.000358116
0.000348762
0.000340794
0.000333877
0.000327782
0.000322345
0.000317452
0.000313028
0.000309051
0.000305587
0.000769318
0.000665565
0.000592261
0.000541076
0.000504194
0.00047671
0.000455561
0.000438793
0.000425137
0.000413755
0.000404077
0.000395709
0.00038837
0.00038186
0.000376033
0.000370791
0.000366095
0.000361992
0.000803466
0.000726295
0.000662507
0.000613342
0.000575592
0.000546216
0.000522922
0.000504069
0.00048851
0.000475436
0.000464274
0.000454607
0.000446132
0.000438625
0.000431921
0.000425906
0.000420529
0.000415816
0.000823633
0.000768919
0.00071719
0.000673353
0.00063741
0.000608101
0.000584057
0.000564112
0.000547358
0.000533102
0.000520825
0.000510133
0.000500726
0.000492378
0.000484918
0.000478227
0.000472246
0.000466984
0.000835323
0.000797587
0.000757816
0.000721051
0.000688885
0.000661353
0.000637924
0.000617945
0.000600805
0.000585988
0.000573074
0.000561726
0.000551678
0.000542718
0.000534686
0.000527468
0.000521002
0.000515289
0.000842015
0.000816193
0.000786728
0.000757369
0.000730065
0.000705539
0.000683864
0.000664823
0.000648103
0.00063338
0.000620359
0.000608786
0.000598445
0.000589159
0.000580791
0.00057324
0.000566452
0.000560418
0.000845507
0.000826935
0.00080485
0.000781656
0.000759019
0.000737839
0.00071848
0.000700999
0.0006853
0.000671221
0.000658583
0.00064721
0.000636945
0.000627652
0.000619222
0.000611574
0.000604668
0.000598497
0.000847619
0.000833941
0.000817474
0.000799528
0.000781288
0.00076357
0.00074684
0.00073131
0.000717037
0.000703986
0.000692079
0.000681217
0.000671301
0.000662239
0.000653952
0.000646386
0.000639513
0.000633328
0.000848981
0.000838776
0.000826769
0.000813464
0.000799514
0.000785494
0.000771818
0.000758747
0.000746419
0.000734891
0.000724169
0.000714224
0.000705015
0.000696496
0.000688625
0.000681373
0.000674731
0.000668691
0.000849783
0.000841792
0.000832932
0.000823256
0.000813002
0.000802459
0.000791895
0.000781519
0.000771477
0.00076186
0.000752721
0.000744082
0.000735945
0.000728304
0.000721153
0.000714488
0.000708315
0.000702624
0.00085021
0.00084347
0.000836554
0.000829342
0.000821832
0.000814101
0.000806255
0.000798404
0.000790643
0.00078305
0.00077568
0.000768573
0.000761755
0.000755246
0.00074906
0.000743215
0.000737727
0.000732581
0.000850409
0.000844283
0.000838391
0.000832583
0.00082677
0.000820916
0.000815018
0.000809098
0.000803189
0.000797327
0.000791545
0.000785875
0.000780344
0.000774978
0.000769801
0.000764839
0.00076011
0.000755592
0.000850482
0.000844584
0.000839092
0.000833868
0.000828808
0.000823837
0.000818912
0.000814008
0.000809121
0.000804257
0.000799429
0.000794653
0.000789949
0.000785339
0.000780847
0.000776497
0.000772304
0.000768237
0.000850461
0.000844499
0.000838895
0.000833514
0.000828255
0.000823056
0.000817885
0.000812731
0.000807598
0.000802498
0.00079745
0.000792471
0.000787583
0.000782807
0.000778166
0.000773682
0.000769369
0.000765194
0.000850264
0.000843697
0.000837079
0.000830286
0.000823296
0.000816148
0.000808915
0.000801677
0.000794509
0.000787472
0.000780616
0.000773976
0.000767578
0.000761441
0.000755582
0.000750015
0.000744747
0.000739742
0.000849709
0.000841536
0.000832456
0.000822569
0.000812138
0.000801459
0.000790796
0.00078035
0.000770261
0.000760615
0.000751458
0.00074281
0.000734669
0.000727029
0.000719875
0.000713199
0.000706988
0.000701195
0.000848165
0.000835951
0.000821428
0.000805545
0.000789228
0.000773168
0.000757801
0.000743359
0.000729938
0.000717547
0.000706148
0.000695676
0.000686058
0.000677223
0.000669107
0.000661657
0.00065483
0.000648566
0.000844087
0.00082275
0.000797947
0.000772526
0.000748208
0.000725809
0.000705591
0.000687517
0.000671419
0.00065708
0.000644283
0.000632824
0.000622527
0.000613239
0.000604837
0.000597226
0.000590334
0.000584089
0.00083379
0.000794244
0.000753379
0.000716048
0.000683604
0.00065594
0.000632467
0.000612496
0.000595398
0.000580646
0.000567813
0.000556556
0.000546605
0.000537748
0.00052982
0.000522698
0.000516297
0.000510545
0.000809075
0.000738686
0.000678527
0.000630898
0.000593565
0.000564069
0.000540434
0.000521179
0.000505224
0.000491793
0.000480319
0.000470389
0.000461696
0.000454008
0.000447157
0.000441018
0.000435511
0.000430581
0.000753683
0.000642678
0.000568229
0.00051759
0.000481572
0.00045496
0.000434635
0.000418625
0.000405658
0.000394897
0.000385778
0.000377913
0.000371029
0.00036493
0.000359476
0.000354567
0.000350146
0.000346184
0.000641465
0.000499146
0.000426777
0.000383963
0.000355822
0.000336107
0.000321579
0.000310366
0.000301353
0.00029386
0.000287462
0.000281883
0.000276938
0.000272502
0.000268486
0.000264831
0.000261504
0.000258504
0.000448552
0.000320183
0.000270277
0.000243457
0.0002267
0.000215411
0.000207271
0.000200974
0.000195803
0.000191371
0.000187461
0.000183947
0.000180751
0.00017782
0.00017512
0.000172625
0.000170324
0.000168229
0.000203095
0.000143549
0.00012297
0.000111701
0.000104802
0.000100351
9.71619e-05
9.457e-05
9.22807e-05
9.0185e-05
8.82438e-05
8.64399e-05
8.4763e-05
8.32045e-05
8.17563e-05
8.04103e-05
7.91603e-05
7.80066e-05
2.40294e-05
1.96339e-05
1.7103e-05
1.54668e-05
1.43242e-05
1.34915e-05
1.28634e-05
1.23722e-05
1.19748e-05
1.16434e-05
1.13606e-05
1.11147e-05
1.08979e-05
1.07046e-05
1.05309e-05
1.03737e-05
1.02307e-05
1.01006e-05
2.3798e-06
6.67897e-06
7.0854e-06
7.5099e-06
7.98532e-06
8.48595e-06
9.01362e-06
9.46574e-06
9.8945e-06
1.03139e-05
1.07302e-05
1.11446e-05
1.15558e-05
1.19612e-05
1.23582e-05
1.27448e-05
1.31193e-05
1.34809e-05
1.38289e-05
1.41632e-05
1.4484e-05
1.47915e-05
1.50864e-05
1.53692e-05
1.56406e-05
1.59013e-05
1.6152e-05
1.63934e-05
1.66262e-05
1.68509e-05
1.70683e-05
1.72788e-05
1.7483e-05
1.76814e-05
1.78744e-05
1.80628e-05
1.82469e-05
1.84275e-05
1.86057e-05
1.87824e-05
1.8959e-05
1.91413e-05
1.93175e-05
1.94879e-05
1.96525e-05
1.98113e-05
1.99638e-05
2.01095e-05
2.0248e-05
2.03786e-05
2.05008e-05
2.06137e-05
2.07168e-05
2.08093e-05
2.08905e-05
2.09598e-05
2.10164e-05
2.10599e-05
2.10896e-05
2.1105e-05
2.11059e-05
2.10918e-05
2.10627e-05
2.10184e-05
2.09591e-05
2.08847e-05
2.07957e-05
2.06923e-05
2.05751e-05
2.04445e-05
2.03011e-05
2.01453e-05
1.99775e-05
1.97969e-05
1.9603e-05
1.94022e-05
1.92345e-05
1.91049e-05
1.89787e-05
1.88501e-05
1.87179e-05
1.85822e-05
1.84435e-05
1.8302e-05
1.81582e-05
1.80124e-05
1.78649e-05
1.7716e-05
1.75661e-05
1.74151e-05
1.72634e-05
1.7111e-05
1.6958e-05
1.68045e-05
1.66504e-05
1.64959e-05
1.6341e-05
1.61856e-05
1.60299e-05
1.58737e-05
1.57171e-05
1.55603e-05
1.54032e-05
1.52461e-05
1.5089e-05
1.49322e-05
1.47759e-05
1.46202e-05
1.44657e-05
1.43125e-05
1.4161e-05
1.40117e-05
1.38649e-05
1.37212e-05
1.35808e-05
1.34443e-05
1.33121e-05
1.31845e-05
1.30618e-05
1.29438e-05
1.28295e-05
1.27198e-05
1.26181e-05
1.25236e-05
1.24357e-05
1.2354e-05
1.22782e-05
1.22078e-05
1.21426e-05
1.20822e-05
1.20262e-05
1.19743e-05
1.19261e-05
1.18813e-05
1.18396e-05
1.18007e-05
1.17643e-05
1.17301e-05
1.16979e-05
1.16675e-05
1.16385e-05
1.1611e-05
1.15845e-05
1.15591e-05
1.15345e-05
1.15106e-05
1.14873e-05
1.14646e-05
1.14422e-05
1.14202e-05
1.13985e-05
1.13769e-05
1.13555e-05
1.13342e-05
1.1313e-05
1.12917e-05
1.12704e-05
1.12491e-05
1.12277e-05
1.12062e-05
1.11846e-05
1.11628e-05
1.11407e-05
1.11185e-05
1.1096e-05
1.10731e-05
1.10499e-05
1.10261e-05
1.10019e-05
1.09769e-05
1.0951e-05
1.09239e-05
1.08952e-05
1.08644e-05
1.08305e-05
1.07918e-05
1.07455e-05
1.06858e-05
1.06026e-05
1.04749e-05
3.46091e-06
2.38039e-05
3.70073e-05
4.27539e-05
4.54708e-05
4.7334e-05
4.89749e-05
5.04935e-05
5.19344e-05
5.33772e-05
5.49042e-05
5.65772e-05
5.84323e-05
6.04847e-05
6.27343e-05
6.51708e-05
6.77769e-05
7.05312e-05
7.34095e-05
7.63871e-05
7.94397e-05
8.25446e-05
8.5682e-05
8.88349e-05
9.199e-05
9.51375e-05
9.82706e-05
0.000101385
0.00010448
0.000107556
0.000110612
0.00011365
0.00011667
0.000119672
0.000122652
0.000125605
0.00012852
0.000131382
0.00013417
0.000136855
0.00013941
0.000141842
0.000144273
0.000146722
0.00014919
0.000151672
0.000154162
0.000156655
0.000159141
0.000161612
0.000164056
0.000166462
0.000168819
0.000171112
0.000173329
0.000175455
0.000177478
0.000179385
0.000181162
0.000182798
0.000184283
0.000185608
0.000186764
0.000187746
0.000188549
0.00018917
0.000189608
0.000189863
0.000189935
0.000189825
0.000189531
0.000189048
0.000188362
0.000187442
0.000186246
0.000184736
0.000182991
0.000181112
0.000179143
0.000177101
0.000175002
0.000172856
0.000170672
0.000168459
0.000166223
0.000163972
0.000161711
0.000159444
0.000157176
0.00015491
0.000152649
0.000150394
0.000148149
0.000145914
0.00014369
0.000141479
0.00013928
0.000137095
0.000134925
0.00013277
0.000130632
0.000128511
0.00012641
0.000124329
0.000122272
0.000120241
0.000118238
0.000116267
0.000114331
0.000112434
0.00011058
0.000108772
0.000107016
0.000105314
0.000103672
0.000102091
0.000100577
9.91309e-05
9.77549e-05
9.64467e-05
9.51953e-05
9.39665e-05
9.27758e-05
9.16801e-05
9.06822e-05
8.97751e-05
8.89521e-05
8.82064e-05
8.75319e-05
8.69227e-05
8.63734e-05
8.58785e-05
8.54331e-05
8.50322e-05
8.46713e-05
8.43459e-05
8.4052e-05
8.37858e-05
8.35436e-05
8.33223e-05
8.3119e-05
8.2931e-05
8.27558e-05
8.25915e-05
8.2436e-05
8.22877e-05
8.21452e-05
8.20073e-05
8.18727e-05
8.17405e-05
8.161e-05
8.14803e-05
8.1351e-05
8.12215e-05
8.10912e-05
8.096e-05
8.08273e-05
8.06929e-05
8.05564e-05
8.04176e-05
8.02762e-05
8.01318e-05
7.9984e-05
7.98322e-05
7.96759e-05
7.95143e-05
7.93461e-05
7.91701e-05
7.89841e-05
7.87853e-05
7.85696e-05
7.83309e-05
7.806e-05
7.77417e-05
7.73501e-05
7.68388e-05
7.61086e-05
7.49938e-05
7.29748e-05
7.00317e-05
4.38504e-06
3.41166e-05
5.5482e-05
6.73233e-05
7.39794e-05
7.83061e-05
8.17893e-05
8.50777e-05
8.84497e-05
9.20528e-05
9.59795e-05
0.000100284
0.000104984
0.000110069
0.000115506
0.000121246
0.000127229
0.000133393
0.000139677
0.000146025
0.000152385
0.000158717
0.000164987
0.000171172
0.000177253
0.000183223
0.000189078
0.000194818
0.000200448
0.000205973
0.000211401
0.00021674
0.000221995
0.000227173
0.000232277
0.000237307
0.000242263
0.000247143
0.000251942
0.000256656
0.000261284
0.000265888
0.000270512
0.00027517
0.000279862
0.000284582
0.000289321
0.000294067
0.000298806
0.00030352
0.000308191
0.000312798
0.000317317
0.000321725
0.000325997
0.000330107
0.000334029
0.000337738
0.00034121
0.000344421
0.000347352
0.000349983
0.000352298
0.000354284
0.000355932
0.000357233
0.000358184
0.000358782
0.000359026
0.000358917
0.000358454
0.000357636
0.000356456
0.000354903
0.000352969
0.000350664
0.000348044
0.00034518
0.000342123
0.000338905
0.000335551
0.000332081
0.000328512
0.000324861
0.000321142
0.000317367
0.000313547
0.000309692
0.00030581
0.000301908
0.000297991
0.000294065
0.000290133
0.000286198
0.000282263
0.000278329
0.000274399
0.000270473
0.000266554
0.000262642
0.000258741
0.000254853
0.00025098
0.000247126
0.000243297
0.000239496
0.000235729
0.000232004
0.000228327
0.000224706
0.00022115
0.000217667
0.000214265
0.000210955
0.000207743
0.00020464
0.000201652
0.000198785
0.000196046
0.000193434
0.000190945
0.000188569
0.000186299
0.000184134
0.000182128
0.000180284
0.000178595
0.000177053
0.000175652
0.000174381
0.000173232
0.000172195
0.000171261
0.000170421
0.000169666
0.000168987
0.000168377
0.000167827
0.000167331
0.000166881
0.000166472
0.000166097
0.000165752
0.000165433
0.000165134
0.000164853
0.000164586
0.00016433
0.000164084
0.000163844
0.000163609
0.000163378
0.000163148
0.00016292
0.000162691
0.000162461
0.000162229
0.000161994
0.000161756
0.000161514
0.000161268
0.000161016
0.000160757
0.000160492
0.000160218
0.000159934
0.000159638
0.000159327
0.000158998
0.000158645
0.000158261
0.000157836
0.000157353
0.000156788
0.000156099
0.000155214
0.000153994
0.000152186
0.00014917
0.00014449
4.98906e-06
4.04501e-05
6.90029e-05
8.65645e-05
9.74884e-05
0.000104952
0.000110906
0.000116422
0.000122036
0.000128004
0.000134434
0.000141359
0.000148757
0.000156579
0.000164751
0.000173193
0.000181819
0.00019055
0.000199311
0.000208039
0.000216681
0.000225196
0.000233554
0.000241732
0.000249719
0.000257508
0.000265101
0.000272501
0.000279718
0.00028676
0.000293639
0.000300369
0.000306961
0.000313427
0.000319779
0.000326028
0.000332182
0.000338252
0.000344245
0.000350168
0.000356026
0.000361882
0.000367764
0.000373682
0.00037964
0.000385633
0.000391653
0.000397689
0.000403724
0.000409741
0.000415718
0.000421629
0.000427449
0.000433148
0.000438695
0.000444058
0.000449204
0.000454103
0.000458721
0.000463029
0.000466999
0.000470606
0.000473826
0.000476641
0.000479036
0.000480997
0.000482518
0.000483592
0.000484218
0.000484396
0.000484127
0.000483415
0.000482262
0.000480673
0.000478653
0.000476231
0.000473452
0.000470366
0.000467015
0.000463432
0.000459647
0.000455683
0.000451563
0.000447306
0.000442932
0.000438455
0.000433892
0.000429253
0.000424551
0.000419794
0.000414991
0.000410148
0.000405271
0.000400363
0.00039543
0.000390473
0.000385496
0.0003805
0.000375489
0.000370465
0.000365431
0.000360391
0.000355349
0.00035031
0.000345282
0.00034027
0.000335283
0.000330331
0.000325423
0.000320572
0.000315788
0.000311084
0.000306474
0.00030197
0.000297585
0.000293332
0.000289223
0.000285267
0.000281473
0.000277848
0.000274392
0.000271105
0.000267985
0.000265028
0.00026224
0.00025966
0.000257283
0.000255102
0.000253109
0.000251294
0.000249646
0.000248155
0.000246808
0.000245595
0.000244502
0.00024352
0.000242636
0.000241841
0.000241124
0.000240476
0.000239888
0.000239353
0.000238863
0.000238411
0.000237992
0.0002376
0.000237231
0.000236881
0.000236545
0.000236222
0.000235906
0.000235598
0.000235294
0.000234992
0.000234692
0.000234391
0.000234088
0.000233783
0.000233474
0.000233161
0.000232842
0.000232516
0.000232183
0.00023184
0.000231487
0.000231121
0.00023074
0.000230339
0.000229916
0.000229462
0.00022897
0.000228426
0.000227811
0.000227097
0.000226237
0.000225153
0.000223705
0.000221644
0.000218474
0.000213881
5.33532e-06
4.45553e-05
7.88205e-05
0.000101571
0.000116834
0.000127823
0.000136676
0.000144702
0.000152636
0.000160849
0.000169496
0.000178612
0.000188162
0.000198078
0.000208273
0.000218655
0.000229133
0.000239627
0.000250063
0.000260382
0.000270534
0.000280481
0.000290195
0.000299658
0.000308858
0.000317792
0.000326459
0.000334867
0.000343025
0.000350944
0.000358638
0.000366125
0.000373419
0.000380538
0.0003875
0.000394322
0.000401021
0.000407612
0.00041411
0.000420529
0.000426877
0.000433213
0.000439566
0.000445954
0.000452385
0.00045886
0.000465377
0.000471928
0.000478502
0.000485083
0.000491651
0.000498182
0.00050465
0.000511025
0.000517273
0.000523362
0.000529254
0.000534913
0.000540304
0.000545391
0.00055014
0.000554519
0.000558502
0.000562061
0.000565176
0.000567831
0.000570011
0.000571707
0.000572915
0.000573633
0.00057386
0.000573603
0.000572869
0.000571656
0.000569984
0.000567888
0.000565407
0.000562577
0.000559432
0.000556004
0.000552321
0.000548409
0.000544291
0.000539989
0.000535523
0.000530911
0.000526169
0.000521311
0.000516351
0.000511299
0.000506164
0.000500956
0.000495679
0.00049034
0.000484944
0.000479494
0.000473994
0.000468447
0.000462857
0.000457227
0.000451561
0.000445864
0.000440141
0.000434399
0.000428646
0.00042289
0.000417142
0.000411412
0.000405714
0.000400062
0.000394469
0.000388951
0.000383525
0.000378207
0.000373012
0.000367957
0.000363057
0.000358326
0.000353776
0.000349417
0.000345255
0.000341294
0.000337537
0.000333982
0.000330625
0.000327495
0.000324598
0.000321929
0.000319479
0.00031724
0.000315201
0.000313349
0.000311673
0.000310159
0.000308793
0.000307563
0.000306456
0.00030546
0.000304561
0.00030375
0.000303016
0.000302349
0.000301739
0.00030118
0.000300664
0.000300183
0.000299733
0.000299308
0.000298903
0.000298514
0.000298138
0.000297772
0.000297412
0.000297057
0.000296705
0.000296353
0.000296001
0.000295646
0.000295288
0.000294926
0.000294557
0.000294181
0.000293797
0.000293402
0.000292996
0.000292575
0.000292137
0.000291678
0.000291192
0.000290673
0.000290111
0.000289492
0.000288796
0.000287993
0.000287035
0.000285848
0.000284302
0.000282183
0.000279136
0.000275048
5.55621e-06
4.69509e-05
8.56446e-05
0.000112941
0.000132334
0.000146904
0.000158799
0.000169423
0.000179628
0.000189883
0.000200408
0.000211272
0.000222459
0.00023391
0.000245544
0.000257275
0.000269019
0.0002807
0.000292252
0.000303619
0.000314755
0.000325624
0.0003362
0.000346464
0.000356405
0.000366018
0.000375302
0.000384263
0.00039291
0.000401254
0.000409311
0.000417098
0.000424633
0.000431937
0.000439031
0.000445937
0.000452677
0.000459272
0.000465742
0.000472105
0.000478378
0.000484615
0.000490855
0.000497125
0.000503442
0.000509817
0.000516257
0.000522762
0.000529327
0.000535942
0.000542594
0.000549263
0.000555926
0.000562553
0.000569114
0.000575573
0.000581894
0.000588036
0.00059396
0.000599626
0.000604996
0.000610031
0.000614697
0.000618964
0.000622803
0.00062619
0.000629107
0.000631539
0.000633477
0.000634913
0.000635847
0.000636283
0.000636206
0.000635634
0.000634596
0.000633121
0.000631239
0.000628978
0.000626369
0.000623439
0.000620214
0.000616719
0.000612977
0.000609011
0.000604839
0.000600482
0.000595956
0.000591276
0.000586456
0.000581507
0.00057644
0.000571263
0.000565984
0.000560609
0.000555145
0.000549594
0.000543962
0.000538253
0.00053247
0.000526618
0.000520703
0.000514728
0.000508701
0.000502629
0.000496521
0.000490386
0.000484237
0.000478087
0.000471948
0.000465837
0.000459771
0.000453767
0.000447844
0.000442019
0.000436313
0.000430743
0.000425327
0.000420083
0.000415025
0.000410167
0.000405518
0.000401086
0.000396877
0.000392894
0.000389135
0.000385607
0.00038233
0.0003793
0.00037651
0.000373951
0.000371614
0.000369486
0.000367554
0.000365805
0.000364225
0.000362799
0.000361514
0.000360357
0.000359313
0.000358371
0.000357518
0.000356745
0.00035604
0.000355394
0.0003548
0.000354248
0.000353734
0.00035325
0.000352791
0.000352352
0.00035193
0.00035152
0.000351119
0.000350725
0.000350335
0.000349947
0.000349559
0.00034917
0.000348778
0.000348381
0.000347978
0.000347568
0.00034715
0.00034672
0.000346278
0.000345821
0.000345346
0.000344848
0.000344323
0.000343762
0.000343156
0.000342491
0.000341746
0.000340893
0.000339885
0.000338654
0.000337085
0.000335007
0.000332176
0.00032862
5.69166e-06
4.815e-05
9.01262e-05
0.000121247
0.00014436
0.000162304
0.00017714
0.000190277
0.000202619
0.000214704
0.000226816
0.000239077
0.00025151
0.000264082
0.000276732
0.000289391
0.000301988
0.000314454
0.000326731
0.000338768
0.000350521
0.000361955
0.000373045
0.000383771
0.00039412
0.000404083
0.00041366
0.000422852
0.000431668
0.000440116
0.000448211
0.000455969
0.000463411
0.000470558
0.000477434
0.000484062
0.00049047
0.000496684
0.000502729
0.00050863
0.000514412
0.000520127
0.000525825
0.000531546
0.000537321
0.000543171
0.000549114
0.000555163
0.000561322
0.00056759
0.000573962
0.000580425
0.00058696
0.000593544
0.000600146
0.000606732
0.000613265
0.000619702
0.000626001
0.000632117
0.000638005
0.000643622
0.000648926
0.00065388
0.000658447
0.000662598
0.000666307
0.000669551
0.000672316
0.00067459
0.000676363
0.00067761
0.000678352
0.000678606
0.000678392
0.000677734
0.000676654
0.000675176
0.000673325
0.000671125
0.0006686
0.000665773
0.000662666
0.0006593
0.000655695
0.000651869
0.00064784
0.000643621
0.000639227
0.00063467
0.000629961
0.000625108
0.00062012
0.000615003
0.000609764
0.000604407
0.000598938
0.00059336
0.000587679
0.000581899
0.000576025
0.000570065
0.000564024
0.00055791
0.000551734
0.000545506
0.000539238
0.000532945
0.000526641
0.000520343
0.00051407
0.00050784
0.000501673
0.00049559
0.000489611
0.000483757
0.000478049
0.000472504
0.000467142
0.000461977
0.000457022
0.000452289
0.000447785
0.000443516
0.000439484
0.000435689
0.00043215
0.000428867
0.000425835
0.000423046
0.000420491
0.000418158
0.000416036
0.00041411
0.000412366
0.000410791
0.000409369
0.000408086
0.000406928
0.000405883
0.000404938
0.000404081
0.0004033
0.000402587
0.000401931
0.000401324
0.000400759
0.00040023
0.000399729
0.000399252
0.000398795
0.000398352
0.000397922
0.000397499
0.000397082
0.000396668
0.000396256
0.000395843
0.000395427
0.000395007
0.000394582
0.000394149
0.000393708
0.000393256
0.000392791
0.000392311
0.000391812
0.00039129
0.00039074
0.000390154
0.000389523
0.000388832
0.000388061
0.000387184
0.000386158
0.00038492
0.000383376
0.000381388
0.000378799
0.000375712
5.76592e-06
4.85223e-05
9.27904e-05
0.000126999
0.000153315
0.000174276
0.000191803
0.000207256
0.000221548
0.00023526
0.000248728
0.000262126
0.000275524
0.000288923
0.000302293
0.000315585
0.000328741
0.000341708
0.000354432
0.000366868
0.000378975
0.00039072
0.000402075
0.000413019
0.000423536
0.000433617
0.000443256
0.000452452
0.000461209
0.000469534
0.000477439
0.00048494
0.000492053
0.000498803
0.000505211
0.000511306
0.000517117
0.000522675
0.000528012
0.000533159
0.00053815
0.000543038
0.000547885
0.000552745
0.000557663
0.000562677
0.000567816
0.000573108
0.000578568
0.000584209
0.000590035
0.000596041
0.000602217
0.000608542
0.000614992
0.000621532
0.000628125
0.000634726
0.000641289
0.000647764
0.0006541
0.000660247
0.000666157
0.00067178
0.000677077
0.000682008
0.000686537
0.000690637
0.000694291
0.000697442
0.000700099
0.000702261
0.000703935
0.000705131
0.000705863
0.000706148
0.000706002
0.000705447
0.000704501
0.000703187
0.000701525
0.000699536
0.000697241
0.000694659
0.000691809
0.000688709
0.000685374
0.000681819
0.000678058
0.000674103
0.000669964
0.00066565
0.00066117
0.00065653
0.000651737
0.000646796
0.000641712
0.00063649
0.000631135
0.000625651
0.000620046
0.000614324
0.000608494
0.000602563
0.000596543
0.000590443
0.000584278
0.000578061
0.000571809
0.000565538
0.000559268
0.000553019
0.000546811
0.000540667
0.000534609
0.000528658
0.000522836
0.000517165
0.000511664
0.00050635
0.000501239
0.000496344
0.000491676
0.000487243
0.000483048
0.000479093
0.000475391
0.000471946
0.000468755
0.000465811
0.000463108
0.000460633
0.000458376
0.000456323
0.000454461
0.000452776
0.000451252
0.000449877
0.000448634
0.000447511
0.000446496
0.000445575
0.000444737
0.000443971
0.000443269
0.00044262
0.000442017
0.000441454
0.000440922
0.000440417
0.000439934
0.000439469
0.000439016
0.000438574
0.000438138
0.000437707
0.000437278
0.000436849
0.000436418
0.000435984
0.000435544
0.000435097
0.000434642
0.000434176
0.000433698
0.000433204
0.000432692
0.000432156
0.000431593
0.000430994
0.00043035
0.000429648
0.000428869
0.000427987
0.000426964
0.000425746
0.000424253
0.00042238
0.000420029
0.000417341
5.79465e-06
4.8317e-05
9.40349e-05
0.00013062
0.000159586
0.000183142
0.000203038
0.000220556
0.00023659
0.000251737
0.000266373
0.000280717
0.000294879
0.000308902
0.000322783
0.000336498
0.000350007
0.000363268
0.000376238
0.000388876
0.000401145
0.000413012
0.000424449
0.000435434
0.000445948
0.000455978
0.000465515
0.000474554
0.000483095
0.000491142
0.000498703
0.00050579
0.000512419
0.000518611
0.000524389
0.000529782
0.00053482
0.000539539
0.000543975
0.000548169
0.000552162
0.00055601
0.000559789
0.000563568
0.000567407
0.000571359
0.000575473
0.000579788
0.000584338
0.000589148
0.000594234
0.000599602
0.000605249
0.000611163
0.00061732
0.000623691
0.000630235
0.000636907
0.000643656
0.000650425
0.000657156
0.000663793
0.00067028
0.000676555
0.000682568
0.000688285
0.00069364
0.000698584
0.000703098
0.000707163
0.000710765
0.000713899
0.000716565
0.000718767
0.000720512
0.000721811
0.000722677
0.000723126
0.000723175
0.000722841
0.000722144
0.000721101
0.000719731
0.000718053
0.000716083
0.000713838
0.000711334
0.000708583
0.000705599
0.000702394
0.000698977
0.000695357
0.000691543
0.000687541
0.000683358
0.000678998
0.000674467
0.000669769
0.000664911
0.000659896
0.000654731
0.000649422
0.000643976
0.000638404
0.000632713
0.000626917
0.000621027
0.00061506
0.00060903
0.000602956
0.000596857
0.000590753
0.000584667
0.000578621
0.000572638
0.000566741
0.000560953
0.000555295
0.00054979
0.000544457
0.000539313
0.000534374
0.000529651
0.000525155
0.000520893
0.000516867
0.000513085
0.000509555
0.000506276
0.000503244
0.000500451
0.000497889
0.000495546
0.000493411
0.000491471
0.000489711
0.000488118
0.000486678
0.000485376
0.000484198
0.000483132
0.000482166
0.000481286
0.000480484
0.000479748
0.000479069
0.00047844
0.000477852
0.000477299
0.000476775
0.000476274
0.000475793
0.000475326
0.000474871
0.000474424
0.000473982
0.000473543
0.000473105
0.000472665
0.000472223
0.000471776
0.000471322
0.00047086
0.000470387
0.000469902
0.000469403
0.000468884
0.000468344
0.000467776
0.000467173
0.000466527
0.000465825
0.000465049
0.000464175
0.000463172
0.00046199
0.000460565
0.000458817
0.00045669
0.000454336
5.78792e-06
4.7702e-05
9.41598e-05
0.000132457
0.000163526
0.000189238
0.00021116
0.000230475
0.000248037
0.000264444
0.000280094
0.000295237
0.000310021
0.000324521
0.000338766
0.000352753
0.000366464
0.000379868
0.000392933
0.000405624
0.000417909
0.000429755
0.000441137
0.000452029
0.000462411
0.000472266
0.000481583
0.000490352
0.000498569
0.000506234
0.000513351
0.000519927
0.000525976
0.000531515
0.000536567
0.000541158
0.000545321
0.000549093
0.000552515
0.000555634
0.0005585
0.000561173
0.000563745
0.000566299
0.000568912
0.000571655
0.000574595
0.000577788
0.000581285
0.000585126
0.00058934
0.000593947
0.000598953
0.000604351
0.000610123
0.000616239
0.000622661
0.000629339
0.00063622
0.000643236
0.000650319
0.000657407
0.000664448
0.000671354
0.000678046
0.000684483
0.000690614
0.000696395
0.000701795
0.000706786
0.00071135
0.000715473
0.00071915
0.000722377
0.000725157
0.000727497
0.000729405
0.000730893
0.000731976
0.000732667
0.000732984
0.000732942
0.000732559
0.00073185
0.000730832
0.00072952
0.000727928
0.000726069
0.000723955
0.000721597
0.000719004
0.000716185
0.000713146
0.000709896
0.000706438
0.000702779
0.000698923
0.000694876
0.000690641
0.000686224
0.00068163
0.000676867
0.00067194
0.00066686
0.000661635
0.000656277
0.000650799
0.000645216
0.000639544
0.000633801
0.000628006
0.000622181
0.000616346
0.000610526
0.000604743
0.000599022
0.000593386
0.000587858
0.000582461
0.000577216
0.000572141
0.000567253
0.000562568
0.000558096
0.000553846
0.000549823
0.000546033
0.000542485
0.00053918
0.000536115
0.000533286
0.000530683
0.000528298
0.00052612
0.000524137
0.000522335
0.000520701
0.000519222
0.000517883
0.000516672
0.000515574
0.000514579
0.000513673
0.000512847
0.000512089
0.000511391
0.000510745
0.000510142
0.000509576
0.00050904
0.00050853
0.00050804
0.000507566
0.000507104
0.000506651
0.000506204
0.000505761
0.00050532
0.000504877
0.000504432
0.000503983
0.000503527
0.000503064
0.000502591
0.000502105
0.000501605
0.000501088
0.000500549
0.000499983
0.000499384
0.000498743
0.000498049
0.000497285
0.000496431
0.000495457
0.000494323
0.000492975
0.000491356
0.000489434
0.000487364
5.75197e-06
4.67932e-05
9.33955e-05
0.000132799
0.000165448
0.000192889
0.000216497
0.000237343
0.000256228
0.000273733
0.000290263
0.000306088
0.000321385
0.000336255
0.000350754
0.000364902
0.000378698
0.000392128
0.000405169
0.000417794
0.000429975
0.000441685
0.000452897
0.000463588
0.000473734
0.000483318
0.000492324
0.00050074
0.000508556
0.00051577
0.00052238
0.000528389
0.000533807
0.000538648
0.00054293
0.000546679
0.000549925
0.000552707
0.000555067
0.000557057
0.000558734
0.00056017
0.000561468
0.000562727
0.000564042
0.000565504
0.000567195
0.000569192
0.000571564
0.000574365
0.000577642
0.000581425
0.00058573
0.000590559
0.000595896
0.000601711
0.000607965
0.000614609
0.00062159
0.000628823
0.000636218
0.000643708
0.000651221
0.000658679
0.00066601
0.000673153
0.000680051
0.000686656
0.000692926
0.000698828
0.000704336
0.000709431
0.000714099
0.000718335
0.000722135
0.000725502
0.000728441
0.000730961
0.000733073
0.000734789
0.000736124
0.000737093
0.000737711
0.000737992
0.000737952
0.000737604
0.000736961
0.000736036
0.000734839
0.000733381
0.00073167
0.000729714
0.00072752
0.000725092
0.000722438
0.000719561
0.000716465
0.000713154
0.000709634
0.000705908
0.000701982
0.000697862
0.000693555
0.000689068
0.000684412
0.000679597
0.000674636
0.000669544
0.000664335
0.000659029
0.000653644
0.000648201
0.000642723
0.000637231
0.00063175
0.000626303
0.000620917
0.000615613
0.000610416
0.000605347
0.000600426
0.000595672
0.000591101
0.000586726
0.000582557