/*--------------------------------*- C++ -*----------------------------------*\
  =========                 |
  \\      /  F ield         | OpenFOAM: The Open Source CFD Toolbox
   \\    /   O peration     | Website:  https://openfoam.org
    \\  /    A nd           | Version:  6
     \\/     M anipulation  |
\*---------------------------------------------------------------------------*/
FoamFile
{
    version     2.0;
    format      ascii;
    class       volScalarField;
    location    "0.14";
    object      p;
}
// * * * * * * * * * * * * * * * * * * * * * * * * * * * * * * * * * * * * * //

dimensions      [0 2 -2 0 0 0 0];

internalField   nonuniform List<scalar> 
12225
(
0.314628
0.0622676
-0.0156044
-0.0258646
-0.0300629
-0.0342666
-0.0363615
-0.0372496
-0.0379593
-0.038629
-0.0391757
-0.0396024
-0.0399395
-0.0401918
-0.0403777
-0.0404672
-0.0408094
-0.0406891
-0.0672218
-0.0369533
-0.0359248
-0.0292283
-0.0295581
-0.0331564
-0.0354937
-0.0367006
-0.037613
-0.0383878
-0.0389935
-0.039459
-0.0398223
-0.0400905
-0.0402836
-0.0403543
-0.0405478
-0.0404105
-0.104233
-0.0332184
-0.0312983
-0.0287278
-0.0292633
-0.0324515
-0.0347354
-0.0360571
-0.0370776
-0.0379288
-0.0385956
-0.0391114
-0.0395135
-0.0398092
-0.040017
-0.0400803
-0.0401694
-0.0396884
-0.0588643
-0.0199875
-0.0278131
-0.0288579
-0.0295638
-0.0322609
-0.0343328
-0.0356365
-0.0366813
-0.0375625
-0.0382648
-0.0388164
-0.0392488
-0.0395683
-0.0397872
-0.0398521
-0.0398424
-0.0393285
-0.0384475
-0.0200301
-0.0282736
-0.0295632
-0.0301201
-0.0323592
-0.0341996
-0.035441
-0.0364657
-0.037342
-0.0380541
-0.0386231
-0.0390738
-0.0394107
-0.0396392
-0.0397154
-0.0396637
-0.039245
-0.0360891
-0.0243126
-0.0294427
-0.030265
-0.0307265
-0.0325846
-0.0342112
-0.0353805
-0.0363677
-0.0372223
-0.03793
-0.0385059
-0.0389685
-0.0393207
-0.0395634
-0.0396646
-0.0396243
-0.0393317
-0.0359511
-0.0272199
-0.0301692
-0.030855
-0.0313251
-0.0328736
-0.0343089
-0.0354041
-0.036347
-0.0371731
-0.03787
-0.0384481
-0.0389205
-0.0392897
-0.0395546
-0.0396949
-0.039705
-0.0395516
-0.0349576
-0.0288339
-0.0306817
-0.0313878
-0.0318944
-0.0331955
-0.0344641
-0.0354873
-0.0363843
-0.03718
-0.037864
-0.0384426
-0.0389255
-0.039315
-0.0396109
-0.039803
-0.039889
-0.0398804
-0.0339627
-0.0299797
-0.031182
-0.0318837
-0.0324207
-0.0335295
-0.0346566
-0.0356123
-0.0364654
-0.037232
-0.0379034
-0.0384832
-0.0389787
-0.0393928
-0.0397274
-0.0399808
-0.0401573
-0.0402901
-0.0333784
-0.0309137
-0.0316833
-0.0323416
-0.0328989
-0.0338616
-0.0348706
-0.0357652
-0.0365782
-0.0373189
-0.0379797
-0.0385628
-0.0390738
-0.0395169
-0.0398962
-0.0402165
-0.0404882
-0.0407519
-0.0331311
-0.0316642
-0.0321644
-0.0327654
-0.033332
-0.0341846
-0.0350957
-0.0359356
-0.0367132
-0.0374318
-0.0380851
-0.038674
-0.0392036
-0.0396789
-0.0401065
-0.0404952
-0.0408593
-0.0412391
-0.0330953
-0.032216
-0.032581
-0.03313
-0.0336944
-0.0344694
-0.0353058
-0.0361008
-0.0368498
-0.0375517
-0.0382009
-0.0387977
-0.0393466
-0.0398534
-0.0403261
-0.0407754
-0.0412169
-0.0416873
-0.0331727
-0.0326831
-0.0329614
-0.0334648
-0.0340229
-0.0347365
-0.0355123
-0.0362698
-0.0369952
-0.0376842
-0.0383319
-0.0389383
-0.0395076
-0.040046
-0.040562
-0.0410673
-0.0415773
-0.0421221
-0.0333559
-0.0331358
-0.0333636
-0.0338213
-0.0343644
-0.0350232
-0.0357427
-0.0364635
-0.0371661
-0.0378439
-0.0384922
-0.0391108
-0.0397033
-0.0402758
-0.040837
-0.0413979
-0.0419724
-0.0425826
-0.0336306
-0.0335678
-0.0337756
-0.0341913
-0.0347104
-0.0353219
-0.0359918
-0.0366779
-0.0373596
-0.0380281
-0.0386789
-0.0393113
-0.0399279
-0.0405344
-0.0411382
-0.0417486
-0.0423765
-0.0430369
-0.0339589
-0.0339723
-0.0341747
-0.0345559
-0.0350468
-0.0356196
-0.0362487
-0.0369048
-0.0375686
-0.0382303
-0.0388847
-0.0395305
-0.0401691
-0.0408047
-0.0414426
-0.0420897
-0.042753
-0.0434416
-0.0342836
-0.0343269
-0.0345262
-0.0348824
-0.035348
-0.0358918
-0.0364917
-0.0371256
-0.0377766
-0.038434
-0.0390921
-0.0397482
-0.0404025
-0.0410568
-0.0417143
-0.0423787
-0.0430535
-0.0437432
-0.0345289
-0.0345807
-0.0347748
-0.0351156
-0.0355659
-0.036095
-0.036681
-0.0373051
-0.0379516
-0.038609
-0.0392706
-0.0399325
-0.040593
-0.0412519
-0.0419101
-0.0425689
-0.043229
-0.0438922
-0.0345927
-0.0346419
-0.0348265
-0.0351623
-0.0356153
-0.0361507
-0.0367451
-0.0373792
-0.0380358
-0.0387023
-0.0393704
-0.040035
-0.0406931
-0.0413428
-0.0419835
-0.0426146
-0.0432353
-0.0438462
-0.034394
-0.0344136
-0.0345741
-0.0349223
-0.0354072
-0.0359805
-0.0366159
-0.0372893
-0.0379784
-0.0386686
-0.0393517
-0.0400224
-0.0406774
-0.041315
-0.0419341
-0.0425344
-0.0431144
-0.0436748
-0.0341337
-0.0340565
-0.0341629
-0.0345408
-0.0350728
-0.035696
-0.0363899
-0.0371195
-0.0378534
-0.0385766
-0.0392823
-0.0399659
-0.0406247
-0.0412573
-0.0418635
-0.0424431
-0.0429954
-0.043521
-0.0339607
-0.0335851
-0.0335829
-0.034033
-0.0346278
-0.0353141
-0.0360909
-0.036897
-0.0376879
-0.0384525
-0.0391877
-0.03989
-0.0405575
-0.0411904
-0.0417895
-0.0423556
-0.0428884
-0.0433889
-0.034126
-0.0330395
-0.0328631
-0.0334344
-0.0340806
-0.0348441
-0.0357393
-0.036644
-0.0375021
-0.038316
-0.0390878
-0.0398144
-0.0404956
-0.0411339
-0.0417316
-0.0422907
-0.0428118
-0.0432957
-0.0346537
-0.0322868
-0.0320559
-0.0328051
-0.0334279
-0.0342887
-0.035356
-0.0363834
-0.0373178
-0.038189
-0.0390042
-0.0397597
-0.0404582
-0.0411054
-0.0417058
-0.0422624
-0.042777
-0.0432502
-0.0349132
-0.0303343
-0.0309028
-0.0321307
-0.0326515
-0.0336604
-0.0349716
-0.0361455
-0.0371641
-0.0381002
-0.0389636
-0.0397498
-0.0404662
-0.0411231
-0.0417273
-0.0422831
-0.0427939
-0.0432599
-0.0366519
-0.0259174
-0.0286343
-0.0311207
-0.0316776
-0.0329856
-0.034629
-0.0359714
-0.037081
-0.038086
-0.0389969
-0.0398101
-0.0405404
-0.0412036
-0.041809
-0.0423626
-0.0428692
-0.043329
-0.0536705
-0.0238883
-0.0263895
-0.0297234
-0.0304961
-0.0323546
-0.0344151
-0.0359392
-0.037141
-0.038208
-0.0391532
-0.0399789
-0.0407103
-0.0413692
-0.0419676
-0.0425127
-0.0430107
-0.0434622
-0.0978037
-0.0371815
-0.0304292
-0.0295432
-0.0296718
-0.0321328
-0.0345834
-0.0362372
-0.0374899
-0.0385792
-0.0395202
-0.040325
-0.0410304
-0.0416641
-0.0422392
-0.0427629
-0.0432428
-0.0436809
-0.0774325
-0.0470193
-0.0403318
-0.0317846
-0.030142
-0.0329031
-0.0354672
-0.0370274
-0.038183
-0.0392008
-0.0400775
-0.0408211
-0.0414731
-0.0420629
-0.0426015
-0.0430937
-0.0435458
-0.0439728
0.286884
0.0671558
-0.00996499
-0.0230872
-0.0284114
-0.0335404
-0.0365172
-0.0378756
-0.0387803
-0.0396232
-0.0403861
-0.041052
-0.0416495
-0.0422005
-0.0427104
-0.0431779
-0.0435983
-0.0439524
-0.0721656
-0.0724498
-0.0729015
-0.0733655
-0.0738663
-0.0744984
-0.0753182
-0.0763503
-0.0776132
-0.0791297
-0.0809211
-0.0830035
-0.0853854
-0.0880645
-0.091027
-0.0942469
-0.0976874
-0.101303
-0.105041
-0.108846
-0.112663
-0.116435
-0.120112
-0.123646
-0.126994
-0.130119
-0.132989
-0.135575
-0.137852
-0.139797
-0.141391
-0.142616
-0.143455
-0.143893
-0.143915
-0.143508
-0.142661
-0.141373
-0.139643
-0.137452
-0.134736
-0.131444
-0.127579
-0.12315
-0.118162
-0.112616
-0.106516
-0.0998671
-0.0926793
-0.0849676
-0.076752
-0.0680582
-0.0589177
-0.0493674
-0.0394499
-0.0292126
-0.0187074
-0.00798967
0.00288214
0.0138479
0.0248465
0.0358172
0.0467005
0.0574389
0.0679781
0.0782679
0.0882622
0.0979204
0.107207
0.116091
0.124548
0.13256
0.140111
0.147194
0.153812
0.159983
0.165722
0.171022
0.175881
0.180312
0.184329
0.187952
0.191197
0.194084
0.196633
0.198864
0.200795
0.202446
0.203835
0.204981
0.205901
0.206612
0.20713
0.20747
0.207647
0.207676
0.20757
0.207341
0.207003
0.206567
0.206045
0.205448
0.204785
0.204068
0.203305
0.202505
0.201678
0.20083
0.199969
0.199103
0.198236
0.197375
0.196524
0.195687
0.194869
0.194073
0.1933
0.192554
0.191836
0.191151
0.190501
0.189877
0.18927
0.188686
0.188131
0.187604
0.187106
0.186635
0.18619
0.185771
0.185375
0.185003
0.184651
0.18432
0.184008
0.183714
0.183436
0.183175
0.182927
0.182693
0.182471
0.182261
0.182062
0.181872
0.181691
0.181518
0.181352
0.181193
0.18104
0.180893
0.18075
0.180612
0.180478
0.180348
0.180221
0.180098
0.179977
0.17986
0.179746
0.179635
0.179527
0.179424
0.179325
0.179233
0.179147
0.179071
0.179007
0.178959
0.178931
0.178931
0.178967
0.179054
0.179211
0.179467
0.17987
0.180493
0.181484
0.183059
0.185873
0.190002
-0.0711586
-0.0720982
-0.0727657
-0.0728512
-0.0727136
-0.0727967
-0.0732197
-0.0739603
-0.0750207
-0.0764203
-0.0781797
-0.0803116
-0.0828168
-0.0856809
-0.0888743
-0.0923538
-0.0960656
-0.0999485
-0.103939
-0.107972
-0.111989
-0.115934
-0.119757
-0.123415
-0.126872
-0.130095
-0.13306
-0.135741
-0.138119
-0.140175
-0.141893
-0.143255
-0.144245
-0.144847
-0.145043
-0.144813
-0.144139
-0.142998
-0.14136
-0.139203
-0.136545
-0.13341
-0.12978
-0.125629
-0.120943
-0.115715
-0.109941
-0.103624
-0.0967707
-0.0893937
-0.0815101
-0.0731428
-0.0643202
-0.0550766
-0.0454515
-0.0354896
-0.02524
-0.0147556
-0.00409262
0.00669081
0.0175352
0.0283811
0.0391697
0.0498441
0.0603502
0.0706373
0.080659
0.0903738
0.0997452
0.108742
0.11734
0.125518
0.133264
0.140566
0.147413
0.153783
0.159675
0.165116
0.170125
0.174714
0.178899
0.182693
0.186116
0.189183
0.191915
0.194328
0.196442
0.198275
0.199844
0.201168
0.202264
0.203148
0.203835
0.204342
0.204683
0.204872
0.204922
0.204846
0.204657
0.204367
0.203986
0.203526
0.202997
0.202409
0.20177
0.201091
0.200379
0.199642
0.198887
0.198121
0.197349
0.196577
0.195811
0.195053
0.194308
0.19358
0.19287
0.19218
0.191514
0.190873
0.190254
0.189658
0.189087
0.188541
0.188018
0.187519
0.187043
0.186591
0.186162
0.185755
0.18537
0.185006
0.184662
0.184336
0.184028
0.183736
0.183461
0.1832
0.182953
0.182719
0.182497
0.182286
0.182086
0.181894
0.181712
0.181537
0.18137
0.181209
0.181055
0.180906
0.180762
0.180622
0.180487
0.180355
0.180227
0.180103
0.179981
0.179863
0.179747
0.179635
0.179527
0.179423
0.179324
0.179231
0.179145
0.179069
0.179005
0.178957
0.178929
0.178929
0.178966
0.179053
0.179209
0.179462
0.179857
0.180459
0.181396
0.182823
0.185279
0.188695
-0.0676494
-0.0692741
-0.0706599
-0.0712683
-0.0715451
-0.0719184
-0.0725619
-0.0735346
-0.0748695
-0.076586
-0.0786874
-0.0811611
-0.0839795
-0.0871034
-0.0904852
-0.0940724
-0.0978103
-0.101645
-0.105525
-0.109402
-0.113231
-0.116974
-0.120595
-0.124061
-0.127344
-0.13042
-0.133265
-0.135857
-0.138179
-0.14021
-0.141934
-0.143333
-0.14439
-0.145089
-0.145411
-0.145339
-0.144856
-0.143941
-0.142569
-0.140719
-0.138381
-0.135555
-0.132229
-0.12839
-0.124026
-0.11913
-0.113698
-0.107729
-0.101229
-0.0942062
-0.0866762
-0.0786587
-0.0701797
-0.0612705
-0.0519679
-0.0423139
-0.0323551
-0.022142
-0.0117287
-0.00117137
0.00947213
0.0201436
0.0307852
0.0413407
0.0517563
0.0619814
0.0719692
0.0816776
0.0910693
0.100112
0.10878
0.117052
0.124913
0.13235
0.139353
0.145911
0.152028
0.157711
0.162969
0.167811
0.172249
0.176298
0.179973
0.183291
0.18627
0.188928
0.191281
0.193349
0.195149
0.196698
0.198013
0.199111
0.200008
0.200718
0.201257
0.201638
0.201876
0.201982
0.20197
0.201851
0.201636
0.201336
0.200962
0.200524
0.200029
0.199488
0.198908
0.198298
0.197663
0.19701
0.196346
0.195676
0.195004
0.194335
0.193672
0.193019
0.192379
0.191754
0.191146
0.190556
0.189985
0.189432
0.188901
0.188388
0.187895
0.187422
0.186969
0.186537
0.186125
0.185733
0.18536
0.185006
0.184669
0.18435
0.184047
0.183759
0.183486
0.183227
0.182982
0.182748
0.182526
0.182315
0.182113
0.181921
0.181737
0.181561
0.181393
0.18123
0.181074
0.180924
0.180778
0.180637
0.1805
0.180367
0.180238
0.180112
0.179989
0.179869
0.179753
0.17964
0.179531
0.179426
0.179327
0.179233
0.179147
0.17907
0.179006
0.178958
0.17893
0.17893
0.178967
0.179053
0.179208
0.179457
0.179842
0.180418
0.181292
0.182563
0.184587
0.186973
-0.0640961
-0.0664541
-0.0688618
-0.0703555
-0.0713669
-0.072355
-0.0735254
-0.0749654
-0.0767165
-0.0787931
-0.0811895
-0.083885
-0.0868486
-0.0900423
-0.0934245
-0.0969525
-0.100583
-0.104276
-0.107992
-0.111693
-0.115345
-0.118918
-0.12238
-0.125706
-0.12887
-0.131849
-0.134621
-0.137165
-0.139463
-0.141495
-0.143243
-0.144688
-0.145812
-0.146596
-0.147021
-0.147069
-0.14672
-0.145956
-0.144757
-0.143105
-0.140988
-0.138392
-0.135302
-0.131704
-0.127587
-0.12294
-0.117757
-0.112037
-0.105782
-0.0989998
-0.0917021
-0.0839075
-0.0756401
-0.0669296
-0.0578115
-0.0483267
-0.038521
-0.0284442
-0.01815
-0.0076944
0.00286478
0.0134692
0.0240608
0.0345831
0.0449818
0.0552057
0.0652077
0.0749447
0.0843789
0.0934774
0.102213
0.110562
0.118508
0.126039
0.133148
0.139831
0.146088
0.15192
0.157333
0.162335
0.166938
0.171154
0.175
0.178489
0.18164
0.18447
0.186995
0.189234
0.191203
0.19292
0.194402
0.195663
0.196721
0.19759
0.198284
0.198819
0.199206
0.199459
0.19959
0.19961
0.199532
0.199365
0.199119
0.198805
0.198432
0.198007
0.197539
0.197035
0.196503
0.195948
0.195377
0.194795
0.194206
0.193616
0.193027
0.192442
0.191866
0.191299
0.190744
0.190203
0.189676
0.189164
0.188669
0.18819
0.187728
0.187283
0.186856
0.186446
0.186053
0.185678
0.185319
0.184977
0.184651
0.18434
0.184044
0.183763
0.183494
0.183239
0.182996
0.182765
0.182544
0.182333
0.182132
0.18194
0.181756
0.18158
0.18141
0.181247
0.18109
0.180939
0.180792
0.18065
0.180512
0.180378
0.180248
0.18012
0.179997
0.179876
0.179759
0.179645
0.179535
0.179429
0.179329
0.179234
0.179147
0.179069
0.179004
0.178954
0.178924
0.178921
0.178954
0.179035
0.179181
0.179415
0.179773
0.180301
0.181076
0.182149
0.183712
0.185282
-0.0627123
-0.0655583
-0.0686514
-0.0708209
-0.0724287
-0.073936
-0.0755582
-0.0773882
-0.079469
-0.0818129
-0.0844124
-0.0872467
-0.0902879
-0.0935036
-0.0968595
-0.100321
-0.103853
-0.107424
-0.111002
-0.114557
-0.118061
-0.121488
-0.124814
-0.128016
-0.131071
-0.133958
-0.136659
-0.139153
-0.141421
-0.143446
-0.145207
-0.146687
-0.147867
-0.148726
-0.149246
-0.149406
-0.149187
-0.148568
-0.147528
-0.146049
-0.144114
-0.141704
-0.138804
-0.135397
-0.131469
-0.127009
-0.122008
-0.116463
-0.110374
-0.103745
-0.0965888
-0.0889213
-0.0807656
-0.0721508
-0.0631121
-0.0536905
-0.0439322
-0.0338878
-0.0236119
-0.0131618
-0.00259649
0.00802445
0.0186418
0.0291978
0.0396372
0.049908
0.0599623
0.0697565
0.0792522
0.0884162
0.0972202
0.105641
0.113662
0.12127
0.12846
0.135227
0.14157
0.147493
0.153001
0.158103
0.162809
0.167133
0.17109
0.174694
0.177961
0.180909
0.183555
0.185915
0.188006
0.189845
0.191449
0.192833
0.194012
0.195002
0.195816
0.196468
0.196972
0.197339
0.197583
0.197714
0.197744
0.197683
0.197541
0.197326
0.19705
0.196719
0.196341
0.195925
0.195476
0.195002
0.194507
0.193998
0.193478
0.192953
0.192425
0.191898
0.191376
0.190859
0.190351
0.189853
0.189365
0.18889
0.188428
0.18798
0.187546
0.187127
0.186723
0.186334
0.18596
0.185601
0.185256
0.184927
0.184612
0.18431
0.184022
0.183747
0.183485
0.183234
0.182995
0.182767
0.182549
0.18234
0.18214
0.181949
0.181766
0.18159
0.18142
0.181257
0.1811
0.180948
0.180801
0.180658
0.18052
0.180385
0.180254
0.180126
0.180001
0.17988
0.179762
0.179647
0.179536
0.17943
0.179328
0.179232
0.179143
0.179063
0.178995
0.178942
0.178909
0.178901
0.178926
0.178996
0.179126
0.179336
0.179654
0.180115
0.18077
0.181631
0.182785
0.183756
-0.0639763
-0.0669284
-0.0702581
-0.0727879
-0.0747796
-0.0766427
-0.0785754
-0.0806657
-0.0829554
-0.0854579
-0.0881667
-0.0910636
-0.0941238
-0.0973197
-0.100622
-0.104003
-0.107435
-0.110889
-0.114342
-0.117768
-0.121145
-0.12445
-0.127663
-0.130763
-0.133731
-0.136548
-0.139195
-0.141654
-0.143907
-0.145934
-0.147717
-0.149237
-0.150474
-0.151409
-0.15202
-0.152286
-0.152187
-0.1517
-0.150804
-0.149477
-0.147698
-0.145448
-0.142707
-0.139458
-0.135683
-0.131369
-0.126505
-0.121085
-0.115107
-0.108575
-0.101498
-0.0938915
-0.0857785
-0.0771881
-0.0681559
-0.0587238
-0.0489395
-0.0388556
-0.0285286
-0.0180179
-0.00738484
0.00330898
0.0140024
0.0246359
0.035153
0.0455005
0.0556297
0.0654968
0.075063
0.0842951
0.0931649
0.10165
0.109734
0.117405
0.124657
0.131486
0.137893
0.143881
0.149456
0.154629
0.159409
0.163811
0.167847
0.171534
0.174888
0.177924
0.18066
0.183113
0.185298
0.187233
0.188933
0.190414
0.191691
0.192778
0.193689
0.194438
0.195037
0.1955
0.195837
0.19606
0.19618
0.196207
0.196151
0.196021
0.195825
0.195573
0.195272
0.194929
0.194551
0.194144
0.193714
0.193266
0.192805
0.192335
0.19186
0.191384
0.190908
0.190435
0.189968
0.189507
0.189056
0.188613
0.188182
0.187762
0.187354
0.186959
0.186576
0.186207
0.185851
0.185508
0.185178
0.184861
0.184557
0.184265
0.183986
0.183718
0.183462
0.183217
0.182982
0.182758
0.182543
0.182337
0.182139
0.18195
0.181768
0.181593
0.181424
0.181262
0.181105
0.180953
0.180806
0.180663
0.180524
0.180389
0.180257
0.180129
0.180004
0.179882
0.179763
0.179647
0.179535
0.179427
0.179324
0.179226
0.179136
0.179053
0.178982
0.178925
0.178886
0.17887
0.178885
0.17894
0.179049
0.179226
0.179495
0.179878
0.180405
0.18106
0.181869
0.182389
-0.0672684
-0.0700649
-0.0733067
-0.0759291
-0.0780974
-0.0801461
-0.0822435
-0.084466
-0.0868515
-0.0894136
-0.0921479
-0.0950395
-0.0980674
-0.101208
-0.104437
-0.10773
-0.111063
-0.114413
-0.11776
-0.121081
-0.124357
-0.127569
-0.130698
-0.133726
-0.136635
-0.139407
-0.142024
-0.144469
-0.146724
-0.14877
-0.150589
-0.15216
-0.153463
-0.154479
-0.155184
-0.155558
-0.155577
-0.155218
-0.154457
-0.153271
-0.151636
-0.14953
-0.146931
-0.143819
-0.140173
-0.135978
-0.131221
-0.125891
-0.119987
-0.113508
-0.106465
-0.0988703
-0.0907479
-0.0821272
-0.073045
-0.0635453
-0.0536779
-0.0434982
-0.0330656
-0.0224426
-0.0116935
-0.000882817
0.00992589
0.020671
0.0312943
0.0417416
0.0519633
0.0619152
0.0715585
0.0808601
0.0897931
0.0983363
0.106475
0.114197
0.121497
0.128373
0.134826
0.140861
0.146485
0.151707
0.15654
0.160997
0.165091
0.168839
0.172257
0.17536
0.178165
0.180689
0.182949
0.18496
0.186737
0.188297
0.189653
0.190821
0.191813
0.192643
0.193323
0.193866
0.194282
0.194584
0.194781
0.194883
0.194901
0.194843
0.194718
0.194533
0.194298
0.194018
0.193701
0.193352
0.192979
0.192584
0.192175
0.191753
0.191324
0.190891
0.190456
0.190023
0.189592
0.189166
0.188746
0.188334
0.187931
0.187537
0.187153
0.18678
0.186418
0.186068
0.185729
0.185401
0.185085
0.184781
0.184488
0.184207
0.183936
0.183677
0.183427
0.183188
0.182959
0.182739
0.182528
0.182325
0.18213
0.181943
0.181763
0.18159
0.181422
0.181261
0.181105
0.180953
0.180807
0.180664
0.180525
0.18039
0.180258
0.18013
0.180004
0.179882
0.179762
0.179646
0.179533
0.179423
0.179318
0.179219
0.179125
0.17904
0.178964
0.178902
0.178855
0.17883
0.178832
0.178869
0.178952
0.179092
0.179306
0.179605
0.180004
0.180468
0.180986
0.181161
-0.0717688
-0.0742682
-0.0772271
-0.0797499
-0.0819274
-0.0840183
-0.0861579
-0.0884087
-0.0908026
-0.0933517
-0.0960532
-0.0988948
-0.101859
-0.104925
-0.108071
-0.111277
-0.11452
-0.117782
-0.121043
-0.124283
-0.127485
-0.130631
-0.133705
-0.136689
-0.139566
-0.14232
-0.144933
-0.147388
-0.149668
-0.151753
-0.153625
-0.155264
-0.156648
-0.157757
-0.158568
-0.159057
-0.1592
-0.158972
-0.158347
-0.1573
-0.155806
-0.153838
-0.151373
-0.148386
-0.144856
-0.140763
-0.136092
-0.13083
-0.124971
-0.118516
-0.111471
-0.103851
-0.0956792
-0.0869856
-0.0778093
-0.0681967
-0.0582009
-0.0478806
-0.0372992
-0.0265231
-0.0156201
-0.00465817
0.00629638
0.0171793
0.0279306
0.0384949
0.0488216
0.0588662
0.0685905
0.0779627
0.0869573
0.0955545
0.10374
0.111503
0.118841
0.125751
0.132236
0.138302
0.143958
0.149214
0.154082
0.158577
0.162712
0.166503
0.169967
0.17312
0.175978
0.178558
0.180876
0.182947
0.184788
0.186412
0.187835
0.18907
0.190131
0.191029
0.191779
0.19239
0.192875
0.193245
0.193509
0.193677
0.193759
0.193764
0.1937
0.193576
0.193398
0.193174
0.19291
0.192613
0.192289
0.191942
0.191577
0.191199
0.190811
0.190416
0.190019
0.18962
0.189222
0.188827
0.188437
0.188053
0.187675
0.187306
0.186945
0.186593
0.186251
0.185918
0.185596
0.185283
0.184982
0.18469
0.184409
0.184137
0.183876
0.183625
0.183383
0.183151
0.182927
0.182712
0.182505
0.182306
0.182115
0.181931
0.181753
0.181582
0.181416
0.181256
0.181101
0.18095
0.180804
0.180662
0.180524
0.180389
0.180257
0.180128
0.180003
0.17988
0.179759
0.179642
0.179528
0.179417
0.179311
0.179209
0.179112
0.179023
0.178943
0.178873
0.178819
0.178782
0.178769
0.178785
0.178839
0.178939
0.179094
0.179309
0.179583
0.179874
0.180149
0.180058
-0.076766
-0.0788978
-0.0814664
-0.0837637
-0.0858317
-0.0878609
-0.0899543
-0.09216
-0.0945027
-0.0969917
-0.0996244
-0.10239
-0.105274
-0.108257
-0.11132
-0.114444
-0.117611
-0.1208
-0.123995
-0.127177
-0.13033
-0.133438
-0.136484
-0.139452
-0.142326
-0.145089
-0.147725
-0.150216
-0.152545
-0.154693
-0.15664
-0.158366
-0.15985
-0.161069
-0.161999
-0.162615
-0.162893
-0.162805
-0.162324
-0.161421
-0.160069
-0.15824
-0.155906
-0.153042
-0.14962
-0.14562
-0.141022
-0.135811
-0.12998
-0.123525
-0.116454
-0.108781
-0.100528
-0.0917288
-0.0824242
-0.0726639
-0.0625049
-0.0520102
-0.0412476
-0.030288
-0.0192037
-0.00806628
0.00305484
0.0140925
0.0249845
0.0356741
0.0461109
0.0562508
0.0660567
0.0754981
0.0845502
0.0931947
0.101419
0.109214
0.116578
0.12351
0.130015
0.136101
0.141776
0.147051
0.151941
0.156459
0.160621
0.164443
0.16794
0.171129
0.174028
0.176651
0.179015
0.181136
0.183028
0.184707
0.186185
0.187478
0.188597
0.189556
0.190365
0.191037
0.191583
0.192012
0.192335
0.192562
0.192702
0.192763
0.192754
0.192682
0.192556
0.192381
0.192166
0.191915
0.191635
0.19133
0.191006
0.190666
0.190315
0.189956
0.189591
0.189224
0.188857
0.188491
0.188128
0.187769
0.187416
0.187069
0.18673
0.186398
0.186074
0.185759
0.185453
0.185156
0.184868
0.184589
0.184319
0.184058
0.183807
0.183564
0.18333
0.183105
0.182887
0.182678
0.182476
0.182281
0.182094
0.181913
0.181738
0.181569
0.181405
0.181247
0.181093
0.180944
0.180799
0.180658
0.18052
0.180386
0.180254
0.180125
0.179999
0.179876
0.179755
0.179637
0.179522
0.17941
0.179301
0.179196
0.179097
0.179003
0.178917
0.178841
0.178777
0.178728
0.178697
0.178691
0.178714
0.178771
0.178866
0.178998
0.179156
0.179292
0.179364
0.179066
-0.0816733
-0.0834102
-0.0855377
-0.0875345
-0.089416
-0.0913147
-0.0933039
-0.0954176
-0.0976729
-0.100075
-0.102621
-0.105301
-0.1081
-0.111002
-0.11399
-0.117044
-0.120149
-0.123284
-0.126435
-0.129584
-0.132714
-0.13581
-0.138856
-0.141836
-0.144735
-0.147535
-0.150221
-0.152775
-0.155178
-0.157413
-0.159458
-0.161293
-0.162896
-0.164244
-0.16531
-0.16607
-0.166495
-0.166559
-0.16623
-0.165479
-0.164276
-0.16259
-0.16039
-0.157647
-0.154331
-0.150418
-0.145886
-0.140715
-0.134897
-0.128427
-0.121311
-0.113562
-0.105206
-0.0962765
-0.086818
-0.0768844
-0.0665373
-0.0558444
-0.0448787
-0.0337165
-0.0224347
-0.0111092
0.00018662
0.0113837
0.0224187
0.0332341
0.0437796
0.0540118
0.0638943
0.0733974
0.0824983
0.0911804
0.0994324
0.107249
0.114627
0.121571
0.128085
0.134177
0.13986
0.145144
0.150044
0.154575
0.158753
0.162594
0.166115
0.169331
0.17226
0.174917
0.177318
0.179479
0.181415
0.183139
0.184666
0.186008
0.187179
0.18819
0.189053
0.189779
0.190378
0.190862
0.191238
0.191518
0.19171
0.191822
0.191862
0.191839
0.191759
0.19163
0.191458
0.191249
0.191008
0.190742
0.190455
0.190151
0.189833
0.189506
0.189172
0.188835
0.188495
0.188156
0.187818
0.187483
0.187153
0.186828
0.186509
0.186196
0.18589
0.185592
0.185302
0.18502
0.184745
0.184479
0.184221
0.183971
0.183729
0.183495
0.183269
0.183051
0.18284
0.182637
0.18244
0.18225
0.182067
0.181889
0.181718
0.181552
0.181391
0.181235
0.181083
0.180935
0.180791
0.180651
0.180514
0.18038
0.180249
0.180121
0.179995
0.179871
0.17975
0.179631
0.179514
0.179401
0.17929
0.179182
0.179079
0.178981
0.178889
0.178805
0.17873
0.178668
0.17862
0.178589
0.17858
0.178593
0.178629
0.178681
0.178731
0.17873
0.178632
0.178173
-0.0860177
-0.0873598
-0.089033
-0.0906926
-0.0923435
-0.0940713
-0.0959229
-0.0979194
-0.10007
-0.102376
-0.104833
-0.107429
-0.110151
-0.112983
-0.115909
-0.118912
-0.121974
-0.125079
-0.12821
-0.13135
-0.134484
-0.137595
-0.140669
-0.14369
-0.146641
-0.149505
-0.152268
-0.154909
-0.157413
-0.159757
-0.161924
-0.163889
-0.165631
-0.167124
-0.168344
-0.169261
-0.169848
-0.170074
-0.169908
-0.169317
-0.168269
-0.16673
-0.164666
-0.162045
-0.158834
-0.155005
-0.150531
-0.145393
-0.139577
-0.133079
-0.125902
-0.118062
-0.109585
-0.100507
-0.0908771
-0.0807537
-0.0702034
-0.0593001
-0.0481231
-0.0367537
-0.0252727
-0.01376
-0.00229233
0.00905957
0.020231
0.0311638
0.0418077
0.0521201
0.0620659
0.0716172
0.0807532
0.0894592
0.0977261
0.10555
0.112931
0.119874
0.126385
0.132474
0.138153
0.143436
0.148338
0.152873
0.157058
0.16091
0.164446
0.167681
0.170632
0.173316
0.175748
0.177943
0.179915
0.181679
0.183247
0.184634
0.18585
0.186908
0.187819
0.188594
0.189243
0.189775
0.190201
0.190529
0.190768
0.190927
0.191013
0.191034
0.190997
0.19091
0.190778
0.190607
0.190404
0.190173
0.18992
0.189648
0.189362
0.189065
0.18876
0.188449
0.188136
0.187821
0.187507
0.187195
0.186886
0.186582
0.186282
0.185988
0.1857
0.185418
0.185144
0.184876
0.184615
0.184361
0.184115
0.183876
0.183644
0.183419
0.183202
0.182991
0.182787
0.18259
0.182399
0.182214
0.182035
0.181862
0.181694
0.181531
0.181373
0.181219
0.181069
0.180924
0.180781
0.180642
0.180506
0.180373
0.180243
0.180115
0.179989
0.179865
0.179743
0.179623
0.179506
0.17939
0.179277
0.179167
0.17906
0.178957
0.178859
0.178766
0.178681
0.178604
0.178537
0.178482
0.17844
0.17841
0.178388
0.178364
0.178316
0.178195
0.177955
0.177368
-0.0894328
-0.0904002
-0.0916317
-0.0929441
-0.0943456
-0.0958842
-0.0975846
-0.0994559
-0.1015
-0.103714
-0.106089
-0.108614
-0.111275
-0.114057
-0.116943
-0.119917
-0.122962
-0.126062
-0.129199
-0.132358
-0.135523
-0.138678
-0.141807
-0.144894
-0.147924
-0.150879
-0.153742
-0.156496
-0.159121
-0.161598
-0.163904
-0.166018
-0.167915
-0.16957
-0.170956
-0.172043
-0.172801
-0.173199
-0.173202
-0.172776
-0.171886
-0.170496
-0.168569
-0.166068
-0.162958
-0.159206
-0.154783
-0.149667
-0.143843
-0.137304
-0.130054
-0.12211
-0.1135
-0.104266
-0.0944577
-0.0841404
-0.073386
-0.0622744
-0.0508904
-0.0393202
-0.0276497
-0.0159623
-0.00433737
0.00715218
0.0184407
0.0294704
0.0401916
0.0505631
0.0605515
0.0701311
0.0792832
0.0879952
0.0962604
0.104077
0.111446
0.118375
0.124871
0.130946
0.136613
0.141886
0.14678
0.151311
0.155497
0.159354
0.162898
0.166146
0.169115
0.171819
0.174276
0.176499
0.178503
0.180302
0.181908
0.183334
0.184592
0.185693
0.186648
0.187468
0.188162
0.18874
0.189211
0.189584
0.189867
0.190069
0.190198
0.19026
0.190263
0.190214
0.19012
0.189985
0.189817
0.189619
0.189398
0.189156
0.188899
0.18863
0.188351
0.188066
0.187778
0.187486
0.187195
0.186905
0.186617
0.186332
0.186051
0.185775
0.185504
0.185238
0.184979
0.184725
0.184478
0.184237
0.184002
0.183774
0.183552
0.183337
0.183128
0.182925
0.182729
0.182538
0.182353
0.182174
0.181999
0.181831
0.181666
0.181507
0.181352
0.181201
0.181053
0.18091
0.180769
0.180632
0.180497
0.180365
0.180235
0.180107
0.179981
0.179857
0.179735
0.179615
0.179496
0.179379
0.179263
0.17915
0.179039
0.178931
0.178826
0.178725
0.178628
0.178537
0.178451
0.178371
0.178297
0.178224
0.178148
0.178052
0.177916
0.17769
0.177331
0.176642
-0.0916128
-0.0922793
-0.0931016
-0.094076
-0.0952265
-0.0965741
-0.0981241
-0.0998753
-0.101823
-0.103958
-0.10627
-0.108746
-0.11137
-0.114127
-0.117001
-0.119974
-0.123031
-0.126153
-0.129326
-0.132532
-0.135756
-0.138981
-0.142191
-0.145371
-0.148504
-0.151572
-0.154558
-0.157444
-0.160209
-0.162834
-0.165296
-0.167571
-0.169635
-0.171462
-0.173021
-0.174284
-0.175218
-0.175789
-0.175962
-0.175701
-0.174967
-0.173722
-0.171926
-0.169537
-0.166518
-0.162832
-0.15845
-0.153345
-0.1475
-0.140911
-0.13358
-0.125525
-0.116778
-0.107384
-0.0973987
-0.0868922
-0.0759427
-0.064636
-0.0530622
-0.0413127
-0.0294777
-0.0176438
-0.00589215
0.00570333
0.0170769
0.0281713
0.0389386
0.0493392
0.0593421
0.0689236
0.0780676
0.0867636
0.0950072
0.102798
0.11014
0.117041
0.123511
0.129561
0.135206
0.14046
0.145339
0.149861
0.154041
0.157896
0.161444
0.1647
0.167682
0.170404
0.172881
0.175129
0.177162
0.178991
0.180631
0.182093
0.183389
0.18453
0.185526
0.186387
0.187124
0.187744
0.188258
0.188673
0.188998
0.189241
0.189409
0.189511
0.189552
0.189539
0.189479
0.189379
0.189243
0.189076
0.188885
0.188672
0.188443
0.1882
0.187946
0.187686
0.18742
0.187152
0.186882
0.186612
0.186344
0.186078
0.185815
0.185556
0.185302
0.185052
0.184808
0.184568
0.184334
0.184106
0.183883
0.183666
0.183455
0.183249
0.183049
0.182854
0.182665
0.182481
0.182302
0.182129
0.18196
0.181795
0.181635
0.18148
0.181328
0.18118
0.181035
0.180893
0.180755
0.180619
0.180486
0.180355
0.180225
0.180098
0.179973
0.179849
0.179726
0.179605
0.179485
0.179366
0.179249
0.179133
0.179018
0.178904
0.178793
0.178683
0.178574
0.178468
0.178364
0.178259
0.178153
0.17804
0.177911
0.177751
0.177535
0.177217
0.176757
0.175987
-0.0923723
-0.0928122
-0.0932714
-0.0939391
-0.0948578
-0.0960287
-0.0974431
-0.0990913
-0.100962
-0.103042
-0.105317
-0.107771
-0.110388
-0.113151
-0.116043
-0.119047
-0.122146
-0.125322
-0.128559
-0.131841
-0.13515
-0.138471
-0.141787
-0.145082
-0.148338
-0.151538
-0.154664
-0.157696
-0.160614
-0.163397
-0.166023
-0.168466
-0.170701
-0.1727
-0.174434
-0.17587
-0.176976
-0.177715
-0.178051
-0.177945
-0.177358
-0.176246
-0.174565
-0.172273
-0.169328
-0.165692
-0.161332
-0.156221
-0.150342
-0.143689
-0.136268
-0.128099
-0.119215
-0.109667
-0.0995174
-0.0888401
-0.0777198
-0.0662477
-0.054519
-0.0426293
-0.0306721
-0.0187359
-0.00690289
0.00475299
0.0161668
0.0272831
0.0380556
0.0484473
0.0584294
0.067981
0.0770881
0.0857428
0.0939422
0.101688
0.108986
0.115845
0.122275
0.12829
0.133903
0.139131
0.143989
0.148495
0.152664
0.156514
0.160062
0.163323
0.166314
0.16905
0.171546
0.173816
0.175874
0.177732
0.179403
0.180899
0.18223
0.183408
0.184443
0.185344
0.18612
0.186781
0.187335
0.18779
0.188154
0.188436
0.188642
0.18878
0.188857
0.188879
0.188853
0.188784
0.188679
0.188543
0.188379
0.188194
0.187991
0.187773
0.187544
0.187306
0.187063
0.186816
0.186567
0.186317
0.186068
0.18582
0.185576
0.185334
0.185095
0.184861
0.184631
0.184406
0.184185
0.18397
0.183759
0.183553
0.183352
0.183156
0.182965
0.182778
0.182597
0.18242
0.182248
0.18208
0.181916
0.181757
0.181601
0.18145
0.181301