/*--------------------------------*- C++ -*----------------------------------*\
  =========                 |
  \\      /  F ield         | OpenFOAM: The Open Source CFD Toolbox
   \\    /   O peration     | Website:  https://openfoam.org
    \\  /    A nd           | Version:  6
     \\/     M anipulation  |
\*---------------------------------------------------------------------------*/
FoamFile
{
    version     2.0;
    format      ascii;
    class       surfaceScalarField;
    location    "0.14";
    object      phi;
}
// * * * * * * * * * * * * * * * * * * * * * * * * * * * * * * * * * * * * * //

dimensions      [0 3 -1 0 0 0 0];

internalField   nonuniform List<scalar> 
24170
(
3.25671e-07
-6.82998e-09
3.19416e-07
6.25468e-09
3.15811e-07
3.60471e-09
3.08726e-07
7.08512e-09
3.01765e-07
6.96135e-09
2.96764e-07
5.00075e-09
2.9345e-07
3.31397e-09
2.91111e-07
2.33938e-09
2.893e-07
1.81023e-09
2.87817e-07
1.48331e-09
2.86557e-07
1.26e-09
2.85455e-07
1.10245e-09
2.84468e-07
9.86778e-10
2.83569e-07
8.98669e-10
2.82756e-07
8.13284e-10
2.82009e-07
7.46611e-10
2.8162e-07
3.88969e-10
2.78e-10
2.81342e-07
3.50378e-07
-1.54829e-08
3.47813e-07
8.81939e-09
3.44061e-07
7.35691e-09
3.42204e-07
8.94213e-09
3.40023e-07
9.14186e-09
3.37532e-07
7.49247e-09
3.35186e-07
5.65928e-09
3.33187e-07
4.33878e-09
3.31531e-07
3.466e-09
3.30151e-07
2.8633e-09
3.28979e-07
2.43208e-09
3.27962e-07
2.11934e-09
3.27062e-07
1.88704e-09
3.26248e-07
1.7123e-09
3.25502e-07
1.55968e-09
3.24793e-07
1.45548e-09
3.24072e-07
1.10991e-09
9.83811e-10
3.23366e-07
3.63434e-07
-1.2665e-08
3.66552e-07
5.70082e-09
3.66701e-07
7.20827e-09
3.66856e-07
8.78765e-09
3.66464e-07
9.5333e-09
3.6545e-07
8.50638e-09
3.64139e-07
6.9708e-09
3.62802e-07
5.67513e-09
3.61569e-07
4.69936e-09
3.60469e-07
3.96358e-09
3.59492e-07
3.40861e-09
3.5862e-07
2.9917e-09
3.57831e-07
2.67577e-09
3.57107e-07
2.43598e-09
3.56428e-07
2.23901e-09
3.55787e-07
2.09625e-09
3.55062e-07
1.83493e-09
1.75406e-09
3.54292e-07
3.89235e-07
-9.3617e-09
3.91446e-07
3.4904e-09
3.92366e-07
6.28845e-09
3.93011e-07
8.14195e-09
3.93262e-07
9.28226e-09
3.92975e-07
8.79432e-09
3.92306e-07
7.6396e-09
3.91466e-07
6.51488e-09
3.90593e-07
5.57234e-09
3.89751e-07
4.80605e-09
3.88961e-07
4.19802e-09
3.88228e-07
3.72454e-09
3.87546e-07
3.35788e-09
3.86905e-07
3.07697e-09
3.86289e-07
2.85567e-09
3.85686e-07
2.69911e-09
3.85e-07
2.52061e-09
2.49998e-09
3.84254e-07
4.18267e-07
-6.91617e-09
4.19399e-07
2.35844e-09
4.20269e-07
5.41815e-09
4.21011e-07
7.40016e-09
4.21545e-07
8.74854e-09
4.2167e-07
8.66902e-09
4.21432e-07
7.87762e-09
4.20972e-07
6.97463e-09
4.20406e-07
6.13849e-09
4.19802e-07
5.41023e-09
4.19196e-07
4.80377e-09
4.18606e-07
4.31476e-09
4.18036e-07
3.92786e-09
4.17484e-07
3.62918e-09
4.16938e-07
3.40175e-09
4.16386e-07
3.25053e-09
4.15767e-07
3.14029e-09
3.18384e-09
4.15083e-07
4.49033e-07
-5.04003e-09
4.4959e-07
1.80089e-09
4.50312e-07
4.69649e-09
4.5105e-07
6.66221e-09
4.51714e-07
8.08401e-09
4.52085e-07
8.29806e-09
4.52143e-07
7.82021e-09
4.51974e-07
7.14345e-09
4.51665e-07
6.44727e-09
4.51277e-07
5.79865e-09
4.50848e-07
5.23266e-09
4.50402e-07
4.76074e-09
4.4995e-07
4.37973e-09
4.49495e-07
4.08393e-09
4.49031e-07
3.86554e-09
4.4855e-07
3.73159e-09
4.48015e-07
3.6754e-09
3.76926e-09
4.4743e-07
4.81755e-07
-3.52312e-09
4.82038e-07
1.51774e-09
4.8262e-07
4.11447e-09
4.83311e-07
5.97168e-09
4.8402e-07
7.37494e-09
4.84532e-07
7.78601e-09
4.84791e-07
7.56143e-09
4.84842e-07
7.09185e-09
4.84745e-07
6.54414e-09
4.84548e-07
5.99645e-09
4.84285e-07
5.49574e-09
4.83981e-07
5.06457e-09
4.83651e-07
4.70985e-09
4.83301e-07
4.43349e-09
4.82931e-07
4.23542e-09
4.82538e-07
4.12491e-09
4.82104e-07
4.10905e-09
4.23259e-09
4.81641e-07
5.16747e-07
-2.31161e-09
5.16879e-07
1.38513e-09
5.17339e-07
3.65484e-09
5.1796e-07
5.35023e-09
5.18662e-07
6.67307e-09
5.19247e-07
7.20133e-09
5.19639e-07
7.16907e-09
5.19855e-07
6.87622e-09
5.19929e-07
6.46998e-09
5.19896e-07
6.02978e-09
5.19784e-07
5.60736e-09
5.19617e-07
5.23192e-09
5.19409e-07
4.9176e-09
5.1917e-07
4.67234e-09
5.18904e-07
4.50167e-09
5.18613e-07
4.41621e-09
5.18294e-07
4.42762e-09
4.56142e-09
5.17965e-07
5.54207e-07
-1.38471e-09
5.5425e-07
1.3419e-09
5.54611e-07
3.29387e-09
5.55159e-07
4.80177e-09
5.55826e-07
6.00611e-09
5.5644e-07
6.5882e-09
5.56917e-07
6.69213e-09
5.57251e-07
6.54137e-09
5.57461e-07
6.26053e-09
5.57566e-07
5.92415e-09
5.5759e-07
5.58369e-09
5.57551e-07
5.27122e-09
5.57463e-07
5.00526e-09
5.57338e-07
4.79767e-09
5.57182e-07
4.65742e-09
5.57003e-07
4.59517e-09
5.56809e-07
4.62215e-09
4.7507e-09
5.56619e-07
5.94302e-07
-7.0944e-10
5.94303e-07
1.34167e-09
5.94593e-07
3.00332e-09
5.95076e-07
4.31844e-09
5.95697e-07
5.38515e-09
5.96312e-07
5.9736e-09
5.96839e-07
6.16532e-09
5.97258e-07
6.12214e-09
5.97573e-07
5.94603e-09
5.97794e-07
5.70315e-09
5.97936e-07
5.44137e-09
5.98014e-07
5.19269e-09
5.98042e-07
4.97746e-09
5.9803e-07
4.80947e-09
5.97989e-07
4.69906e-09
5.97928e-07
4.65589e-09
5.97862e-07
4.6885e-09
4.80062e-09
5.97812e-07
6.37217e-07
-2.45302e-10
6.37209e-07
1.34998e-09
6.37458e-07
2.75443e-09
6.3789e-07
3.88568e-09
6.38465e-07
4.81056e-09
6.39067e-07
5.37182e-09
6.3962e-07
5.61176e-09
6.40098e-07
5.64451e-09
6.40493e-07
5.551e-09
6.40809e-07
5.38748e-09
6.41054e-07
5.19631e-09
6.41239e-07
5.00733e-09
6.41376e-07
4.84067e-09
6.41475e-07
4.71031e-09
6.41548e-07
4.6264e-09
6.41607e-07
4.59688e-09
6.41668e-07
4.62709e-09
4.71558e-09
6.41753e-07
5.73824e-07
1.39407e-11
5.73825e-07
1.34889e-09
5.74023e-07
2.55649e-09
5.74364e-07
3.54501e-09
5.74819e-07
4.35578e-09
5.75314e-07
4.87691e-09
5.75792e-07
5.13382e-09
5.76226e-07
5.20987e-09
5.76607e-07
5.16967e-09
5.76934e-07
5.06105e-09
5.77209e-07
4.9211e-09
5.7744e-07
4.77681e-09
5.77633e-07
4.64694e-09
5.77799e-07
4.54467e-09
5.77946e-07
4.47918e-09
5.78086e-07
4.45671e-09
5.78233e-07
4.48029e-09
4.54537e-09
5.78403e-07
6.9963e-07
1.99889e-10
6.99668e-07
1.31066e-09
6.99892e-07
2.33277e-09
7.00264e-07
3.17301e-09
7.00759e-07
3.86012e-09
7.01311e-07
4.32505e-09
7.01864e-07
4.58106e-09
7.02388e-07
4.686e-09
7.02868e-07
4.68933e-09
7.03299e-07
4.6296e-09
7.03683e-07
4.53754e-09
7.04024e-07
4.43618e-09
7.04329e-07
4.34191e-09
7.04607e-07
4.26615e-09
7.0487e-07
4.21647e-09
7.05129e-07
4.19717e-09
7.05401e-07
4.20902e-09
4.24592e-09
7.057e-07
8.52982e-07
3.02812e-10
8.53073e-07
1.21905e-09
8.53343e-07
2.06361e-09
8.5376e-07
2.75591e-09
8.54304e-07
3.316e-09
8.54918e-07
3.71091e-09
8.55551e-07
3.94775e-09
8.56173e-07
4.06469e-09
8.56764e-07
4.09791e-09
8.57317e-07
4.07672e-09
8.57829e-07
4.0249e-09
8.58305e-07
3.96069e-09
8.5875e-07
3.89721e-09
8.59172e-07
3.84338e-09
8.59584e-07
3.80468e-09
8.59998e-07
3.78349e-09
8.60428e-07
3.77891e-09
3.7845e-09
8.60889e-07
1.0399e-06
3.2394e-10
1.04006e-06
1.05988e-09
1.0404e-06
1.72738e-09
1.04088e-06
2.27231e-09
1.04149e-06
2.70644e-09
1.04218e-06
3.02101e-09
1.0429e-06
3.22204e-09
1.04364e-06
3.33372e-09
1.04435e-06
3.38106e-09
1.04504e-06
3.38484e-09
1.04571e-06
3.36199e-09
1.04634e-06
3.32556e-09
1.04696e-06
3.28484e-09
1.04755e-06
3.2459e-09
1.04815e-06
3.21202e-09
1.04874e-06
3.18395e-09
1.04936e-06
3.15989e-09
3.13396e-09
1.05001e-06
1.26773e-06
2.7613e-10
1.26796e-06
8.22715e-10
1.26839e-06
1.30508e-09
1.26896e-06
1.69691e-09
1.26966e-06
2.00458e-09
1.27045e-06
2.23072e-09
1.27129e-06
2.38176e-09
1.27216e-06
2.47235e-09
1.27302e-06
2.51822e-09
1.27387e-06
2.53262e-09
1.27471e-06
2.52607e-09
1.27553e-06
2.50655e-09
1.27633e-06
2.4795e-09
1.27713e-06
2.44817e-09
1.27793e-06
2.41386e-09
1.27873e-06
2.37623e-09
1.27956e-06
2.33323e-09
2.28012e-09
1.28041e-06
1.54542e-06
1.76923e-10
1.54574e-06
5.04615e-10
1.54626e-06
7.82591e-10
1.54695e-06
1.00488e-09
1.54778e-06
1.17713e-09
1.5487e-06
1.3046e-09
1.54969e-06
1.39241e-09
1.55072e-06
1.44803e-09
1.55176e-06
1.47917e-09
1.5528e-06
1.49207e-09
1.55383e-06
1.49137e-09
1.55486e-06
1.4803e-09
1.55588e-06
1.46076e-09
1.55689e-06
1.43346e-09
1.55791e-06
1.39816e-09
1.55893e-06
1.35385e-09
1.55996e-06
1.29872e-09
1.22925e-09
1.56101e-06
1.8839e-06
4.21353e-11
1.88429e-06
1.10028e-10
1.88493e-06
1.50246e-10
1.88576e-06
1.72777e-10
1.88675e-06
1.87615e-10
1.88785e-06
1.98817e-10
1.88904e-06
2.08012e-10
1.89027e-06
2.16105e-10
1.89153e-06
2.22961e-10
1.89279e-06
2.27633e-10
1.89405e-06
2.28849e-10
1.89531e-06
2.25196e-10
1.89655e-06
2.15153e-10
1.89779e-06
1.97141e-10
1.89902e-06
1.69587e-10
1.90024e-06
1.30988e-10
1.90146e-06
7.97583e-11
1.34507e-11
1.90268e-06
2.29648e-06
-1.07474e-10
2.29693e-06
-3.38874e-10
2.29768e-06
-5.92527e-10
2.29867e-06
-8.22164e-10
2.29986e-06
-1.00631e-09
2.30121e-06
-1.14349e-09
2.30265e-06
-1.23502e-09
2.30415e-06
-1.28655e-09
2.30568e-06
-1.30771e-09
2.30722e-06
-1.30838e-09
2.30874e-06
-1.2969e-09
2.31025e-06
-1.28012e-09
2.31173e-06
-1.26358e-09
2.31318e-06
-1.25158e-09
2.31459e-06
-1.24738e-09
2.31598e-06
-1.25334e-09
2.31733e-06
-1.27119e-09
-1.30295e-09
2.31865e-06
1.68112e-06
-1.5563e-10
1.68136e-06
-5.81802e-10
1.68185e-06
-1.08505e-09
1.68256e-06
-1.53041e-09
1.68344e-06
-1.88718e-09
1.68445e-06
-2.15455e-09
1.68555e-06
-2.32958e-09
1.68669e-06
-2.42346e-09
1.68783e-06
-2.45657e-09
1.68897e-06
-2.44782e-09
1.69009e-06
-2.41226e-09
1.69117e-06
-2.36188e-09
1.69221e-06
-2.30602e-09
1.69321e-06
-2.25157e-09
1.69417e-06
-2.2034e-09
1.69508e-06
-2.16481e-09
1.69595e-06
-2.13793e-09
-2.1248e-09
1.69677e-06
1.46336e-06
-5.47386e-11
1.46342e-06
-6.46951e-10
1.46378e-06
-1.44883e-09
1.46439e-06
-2.13659e-09
1.4652e-06
-2.69279e-09
1.46615e-06
-3.10814e-09
1.46719e-06
-3.36475e-09
1.46825e-06
-3.486e-09
1.4693e-06
-3.51089e-09
1.47033e-06
-3.47093e-09
1.4713e-06
-3.38973e-09
1.47223e-06
-3.28569e-09
1.47309e-06
-3.17259e-09
1.4739e-06
-3.06008e-09
1.47465e-06
-2.95461e-09
1.47535e-06
-2.86026e-09
1.47599e-06
-2.77946e-09
-2.71406e-09
1.47658e-06
1.27362e-06
3.34182e-10
1.27347e-06
-4.95323e-10
1.27374e-06
-1.71532e-09
1.2743e-06
-2.69422e-09
1.2751e-06
-3.49734e-09
1.27607e-06
-4.07948e-09
1.27711e-06
-4.39939e-09
1.27813e-06
-4.51366e-09
1.27912e-06
-4.49358e-09
1.28003e-06
-4.38786e-09
1.28088e-06
-4.2308e-09
1.28164e-06
-4.04841e-09
1.28232e-06
-3.85897e-09
1.28294e-06
-3.6743e-09
1.28349e-06
-3.50164e-09
1.28397e-06
-3.34514e-09
1.2844e-06
-3.20682e-09
-3.08791e-09
1.28477e-06
1.10824e-06
1.18584e-09
1.10787e-06
-1.25687e-10
1.10811e-06
-1.95858e-09
1.10871e-06
-3.29142e-09
1.10961e-06
-4.39567e-09
1.11067e-06
-5.13802e-09
1.11174e-06
-5.46556e-09
1.11273e-06
-5.50875e-09
1.11362e-06
-5.38728e-09
1.11441e-06
-5.16977e-09
1.11508e-06
-4.90203e-09
1.11565e-06
-4.61715e-09
1.11612e-06
-4.33628e-09
1.11652e-06
-4.07138e-09
1.11685e-06
-3.82873e-09
1.11711e-06
-3.61112e-09
1.11733e-06
-3.41906e-09
-3.25233e-09
1.11749e-06
9.64041e-07
2.66583e-09
9.63518e-07
3.97772e-10
9.63849e-07
-2.28971e-09
9.64593e-07
-4.03539e-09
9.65673e-07
-5.4757e-09
9.6685e-07
-6.31482e-09
9.67927e-07
-6.5425e-09
9.68838e-07
-6.42006e-09
9.69578e-07
-6.12671e-09
9.70157e-07
-5.74874e-09
9.70595e-07
-5.34054e-09
9.70916e-07
-4.93853e-09
9.71143e-07
-4.56248e-09
9.71292e-07
-4.22093e-09
9.7138e-07
-3.91646e-09
9.71417e-07
-3.64862e-09
9.71414e-07
-3.41513e-09
-3.21352e-09
9.71375e-07
8.38139e-07
5.0624e-09
8.37731e-07
8.05211e-10
8.38333e-07
-2.89103e-09
8.3933e-07
-5.03279e-09
8.40633e-07
-6.77852e-09
8.41885e-07
-7.56714e-09
8.42879e-07
-7.53668e-09
8.43595e-07
-7.13589e-09
8.4407e-07
-6.60156e-09
8.44349e-07
-6.02762e-09
8.44476e-07
-5.46811e-09
8.44492e-07
-4.95443e-09
8.44428e-07
-4.49814e-09
8.44307e-07
-4.09957e-09
8.44145e-07
-3.75463e-09
8.43954e-07
-3.45794e-09
8.43742e-07
-3.20351e-09
-2.98609e-09
8.43515e-07
7.2763e-07
9.16101e-09
7.28104e-07
3.31154e-10
7.29283e-07
-4.07046e-09
7.30637e-07
-6.38608e-09
7.32128e-07
-8.26996e-09
7.33315e-07
-8.75404e-09
7.34049e-07
-8.27048e-09
7.34397e-07
-7.48403e-09
7.34461e-07
-6.66594e-09
7.34329e-07
-5.89562e-09
7.3407e-07
-5.20884e-09
7.33734e-07
-4.61881e-09
7.33357e-07
-4.12067e-09
7.32959e-07
-3.70212e-09
7.32555e-07
-3.35053e-09
7.32152e-07
-3.05499e-09
7.31755e-07
-2.80608e-09
-2.59572e-09
7.31365e-07
6.30216e-07
1.59516e-08
6.32736e-07
-2.18889e-09
6.34703e-07
-6.03773e-09
6.36462e-07
-8.14523e-09
6.38001e-07
-9.80844e-09
6.38858e-07
-9.61072e-09
6.39054e-07
-8.46723e-09
6.38802e-07
-7.23144e-09
6.38287e-07
-6.15083e-09
6.37637e-07
-5.2464e-09
6.36935e-07
-4.50664e-09
6.36228e-07
-3.91128e-09
6.3554e-07
-3.43317e-09
6.34884e-07
-3.04625e-09
6.34264e-07
-2.73028e-09
6.3368e-07
-2.47056e-09
6.33129e-07
-2.25586e-09
-2.0761e-09
6.3261e-07
5.4719e-07
2.33082e-08
5.51815e-07
-6.81433e-09
5.53501e-07
-7.72374e-09
5.55187e-07
-9.83065e-09
5.56256e-07
-1.08782e-08
5.56244e-07
-9.59853e-09
5.55456e-07
-7.67873e-09
5.54292e-07
-6.06717e-09
5.53016e-07
-4.87502e-09
5.51764e-07
-3.99502e-09
5.50595e-07
-3.33758e-09
5.49526e-07
-2.84249e-09
5.48557e-07
-2.46386e-09
5.47679e-07
-2.16782e-09
5.4688e-07
-1.93196e-09
5.46153e-07
-1.74266e-09
5.45487e-07
-1.59049e-09
-1.46678e-09
5.44878e-07
4.91614e-07
1.44551e-08
4.90694e-07
-5.89457e-09
4.87248e-07
-4.27747e-09
4.8627e-07
-8.85247e-09
4.84803e-07
-9.41135e-09
4.82434e-07
-7.2292e-09
4.79753e-07
-4.99781e-09
4.7721e-07
-3.52441e-09
4.74976e-07
-2.6412e-09
4.73065e-07
-2.08421e-09
4.71436e-07
-1.70831e-09
4.70037e-07
-1.44396e-09
4.68824e-07
-1.25076e-09
4.6776e-07
-1.10343e-09
4.66816e-07
-9.87842e-10
4.65972e-07
-8.98707e-10
4.65219e-07
-8.37563e-10
-8.50086e-10
4.64602e-07
4.34723e-07
4.28828e-07
4.24551e-07
4.15698e-07
4.06287e-07
3.99058e-07
3.9406e-07
3.90535e-07
3.87894e-07
3.8581e-07
3.84102e-07
3.82658e-07
3.81407e-07
3.80304e-07
3.79316e-07
3.78417e-07
3.77579e-07
3.76729e-07
1.83377e-08
-1.83377e-08
2.8627e-08
-1.02892e-08
2.96086e-08
-9.81596e-10
2.27448e-08
6.86371e-09
1.09826e-08
1.17623e-08
-3.15565e-09
1.41382e-08
-1.86726e-08
1.5517e-08
-3.54566e-08
1.6784e-08
-5.35555e-08
1.80989e-08
-7.29945e-08
1.9439e-08
-9.37088e-08
2.07143e-08
-1.15544e-07
2.18353e-08
-1.38277e-07
2.27334e-08
-1.61643e-07
2.33658e-08
-1.85358e-07
2.37145e-08
-2.0914e-07
2.37823e-08
-2.32728e-07
2.35876e-08
-2.55888e-07
2.316e-08
-2.78423e-07
2.25349e-08
-3.00173e-07
2.17501e-08
-3.21015e-07
2.08425e-08
-3.40861e-07
1.98459e-08
-3.59651e-07
1.87899e-08
-3.7735e-07
1.76989e-08
-3.93942e-07
1.65921e-08
-4.09426e-07
1.54835e-08
-4.23809e-07
1.43829e-08
-4.37104e-07
1.32958e-08
-4.49329e-07
1.22248e-08
-4.60499e-07
1.11694e-08
-4.70626e-07
1.01274e-08
-4.79721e-07
9.09507e-09
-4.87788e-07
8.06747e-09
-4.94828e-07
7.03933e-09
-5.00833e-07
6.00522e-09
-5.05793e-07
4.95968e-09
-5.09691e-07
3.89792e-09
-5.12507e-07
2.81624e-09
-5.14222e-07
1.71481e-09
-5.14836e-07
6.13922e-10
-5.14402e-07
-4.33542e-10
-5.12992e-07
-1.41016e-09
-5.1064e-07
-2.35169e-09
-5.07355e-07
-3.28512e-09
-5.03131e-07
-4.22376e-09
-4.97959e-07
-5.17282e-09
-4.91825e-07
-6.13351e-09
-4.8472e-07
-7.10467e-09
-4.76637e-07
-8.08366e-09
-4.6757e-07
-9.06675e-09
-4.57521e-07
-1.00494e-08
-4.46494e-07
-1.10265e-08
-4.34502e-07
-1.19923e-08
-4.21561e-07
-1.29407e-08
-4.07695e-07
-1.38655e-08
-3.92935e-07
-1.47603e-08
-3.77316e-07
-1.56187e-08
-3.60882e-07
-1.64345e-08
-3.4368e-07
-1.72021e-08
-3.25764e-07
-1.7916e-08
-3.07192e-07
-1.85718e-08
-2.88027e-07
-1.91653e-08
-2.68333e-07
-1.96936e-08
-2.48179e-07
-2.01541e-08
-2.27633e-07
-2.05456e-08
-2.06766e-07
-2.08673e-08
-1.85647e-07
-2.11195e-08
-1.64344e-07
-2.13029e-08
-1.42925e-07
-2.14187e-08
-1.21457e-07
-2.14685e-08
-1.00003e-07
-2.14533e-08
-7.86299e-08
-2.13734e-08
-5.74029e-08
-2.12269e-08
-3.6392e-08
-2.10109e-08
-1.56517e-08
-2.07403e-08
4.82556e-09
-2.04773e-08
2.50387e-08
-2.02131e-08
4.49385e-08
-1.98998e-08
6.44861e-08
-1.95477e-08
8.3655e-08
-1.91688e-08
1.02425e-07
-1.87695e-08
1.20778e-07
-1.83539e-08
1.38704e-07
-1.79251e-08
1.56189e-07
-1.74855e-08
1.73226e-07
-1.70372e-08
1.89808e-07
-1.65819e-08
2.05929e-07
-1.6121e-08
2.21585e-07
-1.56557e-08
2.36771e-07
-1.51866e-08
2.51486e-07
-1.47145e-08
2.65725e-07
-1.42394e-08
2.79487e-07
-1.37617e-08
2.92768e-07
-1.32812e-08
3.05566e-07
-1.27977e-08
3.17877e-07
-1.2311e-08
3.29698e-07
-1.18207e-08
3.41024e-07
-1.13266e-08
3.51853e-07
-1.08284e-08
3.62178e-07
-1.03259e-08
3.71998e-07
-9.81923e-09
3.81306e-07
-9.30842e-09
3.901e-07
-8.79386e-09
3.98376e-07
-8.27617e-09
4.06132e-07
-7.7562e-09
4.13367e-07
-7.23509e-09
4.20082e-07
-6.71424e-09
4.26277e-07
-6.19533e-09
4.31957e-07
-5.68027e-09
4.37128e-07
-5.1712e-09
4.41799e-07
-4.67041e-09
4.45979e-07
-4.18034e-09
4.49683e-07
-3.70344e-09
4.52925e-07
-3.24218e-09
4.55724e-07
-2.79885e-09
4.58099e-07
-2.37553e-09
4.60073e-07
-1.97402e-09
4.61669e-07
-1.59576e-09
4.62909e-07
-1.24026e-09
4.6381e-07
-9.00457e-10
4.64368e-07
-5.58058e-10
4.64571e-07
-2.03137e-10
4.64449e-07
1.21647e-10
4.64077e-07
3.72525e-10
4.63518e-07
5.59211e-10
4.62815e-07
7.02262e-10
4.62001e-07
8.14003e-10
4.61099e-07
9.01926e-10
4.60128e-07
9.70935e-10
4.59104e-07
1.02431e-09
4.5804e-07
1.06445e-09
4.56946e-07
1.0933e-09
4.55834e-07
1.11254e-09
4.5471e-07
1.12364e-09
4.53582e-07
1.12791e-09
4.52456e-07
1.12653e-09
4.51335e-07
1.12055e-09
4.50224e-07
1.11085e-09
4.49126e-07
1.09827e-09
4.48043e-07
1.08348e-09
4.46975e-07
1.0671e-09
4.45926e-07
1.04965e-09
4.44894e-07
1.03156e-09
4.43881e-07
1.01321e-09
4.42886e-07
9.94904e-10
4.41909e-07
9.7691e-10
4.4095e-07
9.59435e-10
4.40007e-07
9.42662e-10
4.3908e-07
9.26738e-10
4.38169e-07
9.11787e-10
4.37271e-07
8.97902e-10
4.36386e-07
8.85161e-10
4.35512e-07
8.73648e-10
4.34648e-07
8.63429e-10
4.33794e-07
8.54563e-10
4.32947e-07
8.47134e-10
4.32106e-07
8.41227e-10
4.31269e-07
8.36964e-10
4.30434e-07
8.34478e-10
4.296e-07
8.33966e-10
4.28764e-07
8.35678e-10
4.27925e-07
8.39964e-10
4.27077e-07
8.47274e-10
4.26219e-07
8.58233e-10
4.25345e-07
8.73662e-10
4.24451e-07
8.94702e-10
4.23528e-07
9.22893e-10
4.22567e-07
9.60354e-10
4.21557e-07
1.01007e-09
4.20481e-07
1.07629e-09
4.19316e-07
1.16515e-09
4.1803e-07
1.28588e-09
4.16577e-07
1.45275e-09
4.14888e-07
1.689e-09
4.12854e-07
2.03403e-09
4.10292e-07
2.56215e-09
4.06881e-07
3.41145e-09
4.01957e-07
4.92371e-09
3.94309e-07
7.64787e-09
3.80318e-07
1.39912e-08
2.37909e-08
3.56527e-07
-1.29652e-09
-1.70412e-08
-1.10512e-08
-5.34585e-10
-2.30885e-08
1.10557e-08
-3.64365e-08
2.02117e-08
-5.18586e-08
2.71843e-08
-6.9893e-08
3.21727e-08
-9.01997e-08
3.58236e-08
-1.12123e-07
3.87076e-08
-1.35109e-07
4.10849e-08
-1.58683e-07
4.30131e-08
-1.82436e-07
4.44672e-08
-2.06011e-07
4.54103e-08
-2.29103e-07
4.58256e-08
-2.51462e-07
4.57248e-08
-2.72894e-07
4.51461e-08
-2.93259e-07
4.41471e-08
-3.12468e-07
4.27967e-08
-3.30476e-07
4.11683e-08
-3.47274e-07
3.9333e-08
-3.6288e-07
3.7356e-08
-3.77331e-07
3.52931e-08
-3.90675e-07
3.31902e-08
-4.02968e-07
3.10828e-08
-4.14266e-07
2.89967e-08
-4.24623e-07
2.69493e-08
-4.3409e-07
2.49505e-08
-4.42712e-07
2.30048e-08
-4.50528e-07
2.1112e-08
-4.57572e-07
1.92687e-08
-4.63872e-07
1.74693e-08
-4.69451e-07
1.5707e-08
-4.7433e-07
1.3974e-08
-4.78525e-07
1.22626e-08
-4.82052e-07
1.05656e-08
-4.84923e-07
8.87644e-09
-4.87153e-07
7.18981e-09
-4.88757e-07
5.5023e-09
-4.89754e-07
3.81318e-09
-4.90165e-07
2.12498e-09
-4.89989e-07
4.38749e-10
-4.89163e-07
-1.25989e-09
-4.87584e-07
-2.98938e-09
-4.85181e-07
-4.75416e-09
-4.81913e-07
-6.55347e-09
-4.7775e-07
-8.3865e-09
-4.72672e-07
-1.02513e-08
-4.66661e-07
-1.21446e-08
-4.59704e-07
-1.40611e-08
-4.51793e-07
-1.59944e-08
-4.42924e-07
-1.79365e-08
-4.33095e-07
-1.98782e-08
-4.22313e-07
-2.1809e-08
-4.10587e-07
-2.37177e-08
-3.97936e-07
-2.55922e-08
-3.84381e-07
-2.74202e-08
-3.69952e-07
-2.9189e-08
-3.54685e-07
-3.08862e-08
-3.3862e-07
-3.24996e-08
-3.21804e-07
-3.4018e-08
-3.04289e-07
-3.54308e-08
-2.86132e-07
-3.6729e-08
-2.67392e-07
-3.79047e-08
-2.48134e-07
-3.89518e-08
-2.28422e-07
-3.98657e-08
-2.08324e-07
-4.06435e-08
-1.87908e-07
-4.12841e-08
-1.67239e-07
-4.17878e-08
-1.46386e-07
-4.21566e-08
-1.25411e-07
-4.23934e-08
-1.04377e-07
-4.25025e-08
-8.33417e-08
-4.24885e-08
-6.23586e-08
-4.23565e-08
-4.14742e-08
-4.21113e-08
-2.07249e-08
-4.17602e-08
-1.45375e-10
-4.13199e-08
2.01894e-08
-4.0812e-08
4.02185e-08
-4.02422e-08
5.99278e-08
-3.96091e-08
7.93001e-08
-3.892e-08
9.83153e-08
-3.8184e-08
1.16954e-07
-3.74087e-08
1.35201e-07
-3.66006e-08
1.53041e-07
-3.57652e-08
1.70463e-07
-3.49075e-08
1.87458e-07
-3.40318e-08
2.04017e-07
-3.31415e-08
2.20136e-07
-3.22396e-08
2.35809e-07
-3.13285e-08
2.51032e-07
-3.04099e-08
2.65803e-07
-2.9485e-08
2.80118e-07
-2.85548e-08
2.93976e-07
-2.76194e-08
3.07373e-07
-2.66789e-08
3.20309e-07
-2.57332e-08
3.3278e-07
-2.47817e-08
3.44783e-07
-2.3824e-08
3.56316e-07
-2.28595e-08
3.67375e-07
-2.18877e-08
3.77958e-07
-2.09084e-08
3.8806e-07
-1.99213e-08
3.97678e-07
-1.89268e-08
4.0681e-07
-1.79253e-08
4.15451e-07
-1.69179e-08
4.23601e-07
-1.5906e-08
4.31258e-07
-1.48915e-08
4.3842e-07
-1.38768e-08
4.4509e-07
-1.28648e-08
4.51268e-07
-1.18589e-08
4.5696e-07
-1.08628e-08
4.6217e-07
-9.88066e-09
4.66907e-07
-8.91681e-09
4.71179e-07
-7.97573e-09
4.74999e-07
-7.06192e-09
4.7838e-07
-6.17973e-09
4.81337e-07
-5.33321e-09
4.83889e-07
-4.52599e-09
4.86054e-07
-3.76094e-09
4.87853e-07
-3.03918e-09
4.89311e-07
-2.35848e-09
4.90468e-07
-1.71517e-09
4.91377e-07
-1.11224e-09
4.92058e-07
-5.587e-10
4.92496e-07
-6.56043e-11
4.92694e-07
3.60759e-10
4.92672e-07
7.24298e-10
4.92454e-07
1.03223e-09
4.92065e-07
1.29138e-09
4.91528e-07
1.50776e-09
4.90866e-07
1.68648e-09
4.90098e-07
1.83199e-09
4.89243e-07
1.94823e-09
4.88317e-07
2.0388e-09
4.87334e-07
2.10695e-09
4.86306e-07
2.15571e-09
4.85245e-07
2.18783e-09
4.84159e-07
2.2058e-09
4.83058e-07
2.21194e-09
4.81948e-07
2.20826e-09
4.80835e-07
2.1966e-09
4.79724e-07
2.17858e-09
4.78618e-07
2.15562e-09
4.7752e-07
2.12896e-09
4.76434e-07
2.09968e-09
4.7536e-07
2.0687e-09
4.743e-07
2.03682e-09
4.73255e-07
2.0047e-09
4.72225e-07
1.9729e-09
4.71209e-07
1.94189e-09
4.70209e-07
1.91208e-09
4.69223e-07
1.88379e-09
4.68251e-07
1.85729e-09
4.67292e-07
1.83284e-09
4.66345e-07
1.81061e-09
4.65409e-07
1.79081e-09
4.64482e-07
1.77363e-09
4.63564e-07
1.75927e-09
4.62653e-07
1.74793e-09
4.61748e-07
1.7399e-09
4.60846e-07
1.73551e-09
4.59947e-07
1.73521e-09
4.59047e-07
1.73957e-09
4.58145e-07
1.74936e-09
4.57237e-07
1.76561e-09
4.56321e-07
1.78969e-09
4.55393e-07
1.82346e-09
4.54446e-07
1.86948e-09
4.53475e-07
1.93119e-09
4.52472e-07
2.01345e-09
4.51425e-07
2.12303e-09
4.50321e-07
2.26972e-09
4.49139e-07
2.46788e-09
4.47852e-07
2.73926e-09
4.46423e-07
3.1183e-09
4.44796e-07
3.66122e-09
4.42888e-07
4.46932e-09
4.40581e-07
5.71914e-09
4.3768e-07
7.82427e-09
4.33907e-07
1.14208e-08
4.28833e-07
1.9065e-08
3.29599e-08
4.19664e-07
-1.81743e-08
1.13314e-09
-3.5884e-08
1.7175e-08
-5.31518e-08
2.83236e-08
-7.03546e-08
3.74145e-08
-8.79913e-08
4.48211e-08
-1.06493e-07
5.06741e-08
-1.25868e-07
5.51986e-08
-1.45798e-07
5.86381e-08
-1.65877e-07
6.11637e-08
-1.85733e-07
6.2869e-08
-2.05073e-07
6.38074e-08
-2.2369e-07
6.40267e-08
-2.41452e-07
6.35876e-08
-2.58294e-07
6.25667e-08
-2.742e-07
6.10524e-08
-2.89191e-07
5.91381e-08
-3.0331e-07
5.69155e-08
-3.16611e-07
5.44693e-08
-3.29151e-07
5.18737e-08
-3.40986e-07
4.9191e-08
-3.52164e-07
4.64709e-08
-3.62725e-07
4.37514e-08
-3.72702e-07
4.10594e-08
-3.82118e-07
3.84128e-08
-3.90991e-07
3.58219e-08
-3.99331e-07
3.32906e-08
-4.07144e-07
3.08184e-08
-4.14433e-07
2.84011e-08
-4.21197e-07
2.60319e-08
-4.2743e-07
2.37028e-08
-4.33128e-07
2.14044e-08
-4.38281e-07
1.91273e-08
-4.4288e-07
1.6862e-08
-4.46914e-07
1.45994e-08
-4.50369e-07
1.2331e-08
-4.53228e-07
1.0049e-08
-4.55472e-07
7.74634e-09
-4.57075e-07
5.41689e-09
-4.58005e-07
3.05414e-09
-4.58215e-07
6.49586e-10
-4.57667e-07
-1.80821e-09
-4.56329e-07
-4.32717e-09
-4.54175e-07
-6.90877e-09
-4.51177e-07
-9.55149e-09
-4.47311e-07
-1.2252e-08
-4.42557e-07
-1.50052e-08
-4.36897e-07
-1.78046e-08
-4.30317e-07
-2.06417e-08
-4.22805e-07
-2.35059e-08
-4.14357e-07
-2.63849e-08
-4.0497e-07
-2.92647e-08
-3.9465e-07
-3.21295e-08
-3.83405e-07
-3.49623e-08
-3.71252e-07
-3.77453e-08
-3.58213e-07
-4.04596e-08
-3.44315e-07
-4.30866e-08
-3.29594e-07
-4.56075e-08
-3.14089e-07
-4.80044e-08
-2.97847e-07
-5.02602e-08
-2.80918e-07
-5.23596e-08
-2.63358e-07
-5.4289e-08
-2.45226e-07
-5.60368e-08
-2.26584e-07
-5.75939e-08
-2.07496e-07
-5.89535e-08
-1.88028e-07
-6.01116e-08
-1.68246e-07
-6.10665e-08
-1.48214e-07
-6.18191e-08
-1.27999e-07
-6.23724e-08
-1.07661e-07
-6.27314e-08
-8.72601e-08
-6.2903e-08
-6.6853e-08
-6.28957e-08
-4.64906e-08
-6.27189e-08
-2.62182e-08
-6.23837e-08
-6.07569e-09
-6.19028e-08
1.38935e-08
-6.1289e-08
3.36392e-08
-6.05578e-08
5.31207e-08
-5.97236e-08
7.23093e-08
-5.87977e-08
9.11807e-08
-5.77915e-08
1.09713e-07
-5.6716e-08
1.27886e-07
-5.55815e-08
1.45682e-07
-5.43975e-08
1.6309e-07
-5.31723e-08
1.80095e-07
-5.19133e-08
1.9669e-07
-5.06269e-08
2.12868e-07
-4.93185e-08
2.28621e-07
-4.79928e-08
2.43945e-07
-4.66532e-08
2.58838e-07
-4.53027e-08
2.73296e-07
-4.39431e-08
2.87317e-07
-4.25759e-08
3.009e-07
-4.12016e-08
3.14041e-07
-3.98206e-08
3.26741e-07
-3.84324e-08
3.38996e-07
-3.70367e-08
3.50804e-07
-3.56328e-08
3.62165e-07
-3.42198e-08
3.73074e-07
-3.27972e-08
3.8353e-07
-3.13643e-08
3.9353e-07
-2.99211e-08
4.03071e-07
-2.84676e-08
4.1215e-07
-2.70046e-08
4.20765e-07
-2.55332e-08
4.28914e-07
-2.40554e-08
4.36596e-07
-2.25736e-08
4.43811e-07
-2.1091e-08
4.50557e-07
-1.96115e-08
4.56838e-07
-1.81397e-08
4.62656e-07
-1.66805e-08
4.68015e-07
-1.52396e-08
4.72921e-07
-1.3823e-08
4.77382e-07
-1.24368e-08
4.81408e-07
-1.10874e-08
4.85009e-07
-9.78093e-09
4.88199e-07
-8.52321e-09
4.90993e-07
-7.31966e-09
4.93406e-07
-6.17484e-09
4.95459e-07
-5.09193e-09
4.97173e-07
-4.07254e-09
4.98576e-07
-3.11821e-09
4.99696e-07
-2.23215e-09
5.00555e-07
-1.41779e-09
5.01169e-07
-6.79061e-10
5.01549e-07
-1.93017e-11
5.01711e-07
5.62025e-10
5.01675e-07
1.06873e-09
5.0146e-07
1.50611e-09
5.01088e-07
1.87994e-09
5.00578e-07
2.19599e-09
4.9995e-07
2.45982e-09
4.99222e-07
2.67673e-09
4.98409e-07
2.85181e-09
4.97526e-07
2.98981e-09
4.96586e-07
3.09526e-09
4.95602e-07
3.17236e-09
4.94583e-07
3.22503e-09
4.93538e-07
3.25686e-09
4.92475e-07
3.27113e-09
4.91401e-07
3.2708e-09
4.90321e-07
3.25854e-09
4.8924e-07
3.23671e-09
4.88161e-07
3.20741e-09
4.87088e-07
3.17247e-09
4.86024e-07
3.13346e-09
4.84969e-07
3.09178e-09
4.83925e-07
3.04859e-09
4.82893e-07
3.00489e-09
4.81873e-07
2.96155e-09
4.80866e-07
2.91925e-09
4.79871e-07
2.87862e-09
4.78888e-07
2.84016e-09
4.77917e-07
2.80428e-09
4.76956e-07
2.77139e-09
4.76005e-07
2.74181e-09
4.75063e-07
2.71587e-09
4.74128e-07
2.69389e-09
4.732e-07
2.67623e-09
4.72276e-07
2.6633e-09
4.71356e-07
2.65561e-09
4.70438e-07
2.65379e-09
4.69519e-07
2.65868e-09
4.68597e-07
2.67137e-09
4.67669e-07
2.6933e-09
4.66732e-07
2.72643e-09
4.65782e-07
2.77336e-09
4.64814e-07
2.83763e-09
4.63821e-07
2.92409e-09
4.62795e-07
3.03944e-09
4.61725e-07
3.19303e-09
4.60597e-07
3.39824e-09
4.5939e-07
3.67452e-09
4.58078e-07
4.05097e-09
4.56624e-07
4.57266e-09
4.54974e-07
5.31164e-09
4.53051e-07
6.3918e-09
4.50747e-07
8.02352e-09
4.47926e-07
1.06448e-08
4.44398e-07
1.49486e-08
4.40478e-07
2.29853e-08
3.6907e-08
4.36531e-07
-2.35535e-08
2.46866e-08
-4.46908e-08
3.83124e-08
-6.42567e-08
4.78894e-08
-8.27706e-08
5.59284e-08
-1.00666e-07
6.27165e-08
-1.1824e-07
6.82484e-08
-1.35589e-07
7.25471e-08
-1.52639e-07
7.56887e-08
-1.69247e-07
7.77717e-08
-1.85274e-07
7.8896e-08
-2.00626e-07
7.91595e-08
-2.15262e-07
7.86627e-08
-2.29185e-07
7.75106e-08
-2.4243e-07
7.58111e-08
-2.55047e-07
7.36699e-08
-2.67096e-07
7.11869e-08
-2.78632e-07
6.84515e-08
-2.89704e-07
6.55411e-08
-3.0035e-07
6.25201e-08
-3.10599e-07
5.94398e-08
-3.20468e-07
5.634e-08
-3.29967e-07
5.32497e-08
-3.39096e-07
5.01886e-08
-3.47852e-07
4.7169e-08
-3.56227e-07
4.41968e-08
-3.6421e-07
4.12731e-08
-3.71786e-07
3.83949e-08
-3.78941e-07
3.55565e-08
-3.85659e-07
3.275e-08
-3.91923e-07
2.9966e-08
-3.97713e-07
2.71944e-08
-4.0301e-07
2.44245e-08
-4.07794e-07
2.16456e-08
-4.12041e-07
1.88468e-08
-4.15728e-07
1.60179e-08
-4.18828e-07
1.31491e-08
-4.21313e-07
1.0231e-08
-4.23151e-07
7.25487e-09
-4.24309e-07
4.21221e-09
-4.24754e-07
1.09473e-09
-4.24457e-07
-2.10514e-09
-4.23392e-07
-5.39199e-09
-4.21534e-07
-8.76706e-09
-4.18857e-07
-1.22284e-08
-4.15337e-07
-1.57716e-08
-4.10953e-07
-1.93896e-08
-4.05684e-07
-2.30733e-08
-3.99515e-07
-2.68108e-08
-3.92433e-07
-3.05878e-08
-3.8443e-07
-3.43875e-08
-3.75504e-07
-3.81907e-08
-3.65658e-07
-4.19763e-08
-3.54899e-07
-4.57212e-08
-3.43243e-07
-4.94012e-08
-3.30711e-07
-5.29913e-08
-3.17332e-07
-5.6466e-08
-3.03139e-07
-5.98004e-08
-2.88173e-07
-6.29704e-08
-2.7248e-07
-6.59533e-08
-2.56111e-07
-6.87287e-08
-2.39121e-07
-7.12784e-08
-2.21571e-07
-7.35873e-08
-2.03521e-07
-7.56435e-08
-1.85036e-07
-7.74383e-08
-1.66181e-07
-7.89667e-08
-1.47021e-07
-8.02267e-08
-1.2762e-07
-8.122e-08
-1.08042e-07
-8.19509e-08
-8.83462e-08
-8.24269e-08
-6.85918e-08
-8.26575e-08
-4.88329e-08
-8.26546e-08
-2.91199e-08
-8.24319e-08
-9.49885e-09
-8.20047e-08
9.98647e-09
-8.13881e-08
2.92957e-08
-8.05982e-08
4.83914e-08
-7.96535e-08
6.72386e-08
-7.85709e-08
8.58076e-08
-7.73666e-08
1.04072e-07
-7.60561e-08
1.2201e-07
-7.4654e-08
1.39603e-07
-7.31738e-08
1.56833e-07
-7.1628e-08
1.73688e-07
-7.00277e-08
1.90158e-07
-6.83827e-08
2.06232e-07
-6.67016e-08
2.21906e-07
-6.49918e-08
2.37172e-07
-6.32592e-08
2.52028e-07
-6.15089e-08
2.6647e-07
-5.97445e-08
2.80495e-07
-5.79688e-08
2.94103e-07
-5.61836e-08
3.07291e-07
-5.439e-08
3.20059e-07
-5.25883e-08
3.32405e-07
-5.07783e-08
3.44328e-07
-4.89594e-08
3.55826e-07
-4.71307e-08
3.66897e-07
-4.52913e-08
3.7754e-07
-4.34402e-08
3.87753e-07
-4.15769e-08
3.97533e-07
-3.9701e-08
4.06877e-07
-3.78125e-08
4.15785e-07
-3.59122e-08
4.24253e-07
-3.40014e-08
4.3228e-07
-3.20824e-08
4.39865e-07
-3.01581e-08
4.47006e-07
-2.82322e-08
4.53704e-07
-2.63096e-08
4.5996e-07
-2.43956e-08
4.65776e-07
-2.24965e-08
4.71156e-07
-2.06191e-08
4.76104e-07
-1.87708e-08
4.80626e-07
-1.69593e-08
4.84731e-07
-1.51925e-08
4.88428e-07
-1.34781e-08
4.91729e-07
-1.18237e-08
4.94645e-07
-1.02365e-08
4.97193e-07
-8.72255e-09
4.99388e-07
-7.28717e-09
5.0125e-07
-5.93441e-09
5.028e-07
-4.66797e-09
5.04059e-07
-3.49138e-09
5.05049e-07
-2.40711e-09
5.05787e-07
-1.41709e-09
5.0629e-07
-5.22761e-10
5.06576e-07
2.76323e-10
5.06662e-07
9.82865e-10
5.06566e-07
1.60134e-09