/*--------------------------------*- C++ -*----------------------------------*\
  =========                 |
  \\      /  F ield         | OpenFOAM: The Open Source CFD Toolbox
   \\    /   O peration     | Website:  https://openfoam.org
    \\  /    A nd           | Version:  6
     \\/     M anipulation  |
\*---------------------------------------------------------------------------*/
FoamFile
{
    version     2.0;
    format      ascii;
    class       volVectorField;
    location    "0.14";
    object      U;
}
// * * * * * * * * * * * * * * * * * * * * * * * * * * * * * * * * * * * * * //

dimensions      [0 1 -1 0 0 0 0];

internalField   nonuniform List<vector> 
12225
(
(0.948757 -0.405569 0)
(1.01271 -0.190671 0)
(1.01477 -0.051398 0)
(0.983447 -0.0051498 0)
(0.955448 0.0045134 0)
(0.937086 0.00422318 0)
(0.924923 0.00257938 0)
(0.916319 0.00147857 0)
(0.909915 0.000931865 0)
(0.904857 0.000675606 0)
(0.900624 0.000546285 0)
(0.896953 0.000474729 0)
(0.893692 0.000432099 0)
(0.890762 0.000407006 0)
(0.888031 0.000379245 0)
(0.885816 0.000367139 0)
(0.882905 0.000203517 0)
(0.886279 -0.000416784 0)
(1.03698 0.0761201 0)
(1.02002 0.0533145 0)
(1.01138 0.0193887 0)
(1.00438 0.00900088 0)
(0.998059 0.00670402 0)
(0.991355 0.0052629 0)
(0.984246 0.00400546 0)
(0.977763 0.00314486 0)
(0.972404 0.00260141 0)
(0.968016 0.00223405 0)
(0.964325 0.00197275 0)
(0.961149 0.00178721 0)
(0.958359 0.00165474 0)
(0.955877 0.00156129 0)
(0.953577 0.00147238 0)
(0.951578 0.00143192 0)
(0.949254 0.000978581 0)
(0.9478 0.00120478 0)
(0.998333 0.0132109 0)
(0.995369 0.0119476 0)
(1.00084 0.00639238 0)
(1.00198 0.00649925 0)
(1.00133 0.00699012 0)
(0.999469 0.00629468 0)
(0.9962 0.00522575 0)
(0.992414 0.0043375 0)
(0.988837 0.00368643 0)
(0.985652 0.00320513 0)
(0.982828 0.00284964 0)
(0.980314 0.00259163 0)
(0.978055 0.00240516 0)
(0.976005 0.0022735 0)
(0.974088 0.00216556 0)
(0.972332 0.00210167 0)
(0.97045 0.00183406 0)
(0.968592 0.00170842 0)
(0.995105 -0.0069528 0)
(0.992494 0.00124405 0)
(0.998627 0.00391942 0)
(1.00088 0.00592379 0)
(1.00171 0.00700836 0)
(1.00174 0.00675573 0)
(1.00048 0.00596651 0)
(0.998421 0.00519504 0)
(0.996166 0.00456012 0)
(0.993961 0.00405185 0)
(0.991876 0.00365663 0)
(0.989937 0.00335922 0)
(0.988137 0.0031402 0)
(0.98646 0.00298569 0)
(0.98486 0.0028718 0)
(0.983335 0.00281062 0)
(0.981714 0.00266499 0)
(0.979948 0.00268068 0)
(0.996671 -0.00694257 0)
(0.993829 0.000816343 0)
(0.998082 0.00373021 0)
(1.00013 0.00551698 0)
(1.00145 0.00672102 0)
(1.00234 0.00680679 0)
(1.0022 0.00631839 0)
(1.00127 0.00573044 0)
(0.999993 0.00518429 0)
(0.998576 0.0047099 0)
(0.997125 0.0043204 0)
(0.995697 0.00401637 0)
(0.994316 0.00378876 0)
(0.992986 0.00362997 0)
(0.991684 0.00352602 0)
(0.990398 0.00348929 0)
(0.98903 0.00346151 0)
(0.987489 0.00362034 0)
(0.997829 -0.00415166 0)
(0.995163 0.00126477 0)
(0.997898 0.00345644 0)
(0.999629 0.00501533 0)
(1.00109 0.00626322 0)
(1.00235 0.00659652 0)
(1.00284 0.00637456 0)
(1.00266 0.00598223 0)
(1.00208 0.00555971 0)
(1.00129 0.00515887 0)
(1.00036 0.00481095 0)
(0.999385 0.00452991 0)
(0.998386 0.00431737 0)
(0.997381 0.00417334 0)
(0.996365 0.00409431 0)
(0.995328 0.00409612 0)
(0.994219 0.0041686 0)
(0.99296 0.00443589 0)
(0.998452 -0.00257398 0)
(0.996218 0.00116411 0)
(0.997975 0.00302154 0)
(0.999405 0.00449537 0)
(1.00081 0.00574083 0)
(1.00218 0.00623924 0)
(1.003 0.00623107 0)
(1.00329 0.00601766 0)
(1.00321 0.00572666 0)
(1.00289 0.00541878 0)
(1.0024 0.00513493 0)
(1.0018 0.00489828 0)
(1.00114 0.00471934 0)
(1.00044 0.00460537 0)
(0.999694 0.00456192 0)
(0.998909 0.00460847 0)
(0.998064 0.00475998 0)
(0.997109 0.00510216 0)
(0.998885 -0.00173262 0)
(0.997125 0.000974067 0)
(0.998243 0.00264273 0)
(0.999391 0.00402162 0)
(1.00066 0.00521018 0)
(1.00198 0.00580433 0)
(1.00296 0.00595626 0)
(1.00353 0.00589354 0)
(1.00379 0.00572645 0)
(1.00382 0.00551623 0)
(1.00367 0.00530712 0)
(1.00339 0.00512751 0)
(1.00302 0.00499425 0)
(1.00259 0.00492034 0)
(1.0021 0.00491796 0)
(1.00156 0.00500879 0)
(1.00098 0.0052179 0)
(1.00032 0.00560316 0)
(0.999234 -0.001118 0)
(0.997907 0.000891702 0)
(0.998604 0.00236067 0)
(0.999511 0.00360545 0)
(1.00061 0.00469895 0)
(1.00183 0.00533426 0)
(1.00284 0.005597 0)
(1.00357 0.00565296 0)
(1.00405 0.00559365 0)
(1.00433 0.0054759 0)
(1.00444 0.00534306 0)
(1.00441 0.00522543 0)
(1.0043 0.00514356 0)
(1.0041 0.00511416 0)
(1.00384 0.0051533 0)
(1.00354 0.00528288 0)
(1.0032 0.00552907 0)
(1.00283 0.00592904 0)
(0.999503 -0.000630726 0)
(0.998553 0.000882846 0)
(0.998987 0.00214495 0)
(0.999706 0.0032407 0)
(1.00064 0.00422021 0)
(1.00173 0.00485556 0)
(1.00272 0.00518635 0)
(1.00352 0.00532914 0)
(1.00413 0.00535725 0)
(1.00458 0.00532049 0)
(1.00488 0.0052587 0)
(1.00506 0.00520159 0)
(1.00515 0.00517109 0)
(1.00516 0.00518547 0)
(1.00511 0.00526217 0)
(1.00502 0.00542142 0)
(1.00491 0.00568576 0)
(1.00479 0.00607718 0)
(0.999693 -0.000275966 0)
(0.999059 0.000892761 0)
(0.999348 0.00196629 0)
(0.999931 0.00291718 0)
(1.00073 0.00377715 0)
(1.00169 0.00438318 0)
(1.00262 0.00474678 0)
(1.00344 0.00494706 0)
(1.00413 0.00504089 0)
(1.00468 0.00507006 0)
(1.00512 0.00506944 0)
(1.00545 0.00506646 0)
(1.0057 0.00508246 0)
(1.00588 0.00513549 0)
(1.00601 0.00524227 0)
(1.00611 0.00542001 0)
(1.0062 0.00568577 0)
(1.0063 0.00605063 0)
(0.99981 -5.76209e-05 0)
(0.999407 0.000894436 0)
(0.999635 0.00181761 0)
(1.00014 0.00264635 0)
(1.00084 0.00339969 0)
(1.0017 0.00396166 0)
(1.00257 0.0043307 0)
(1.00337 0.00456084 0)
(1.00408 0.00469596 0)
(1.0047 0.00477059 0)
(1.00522 0.00481454 0)
(1.00566 0.00485216 0)
(1.00603 0.00490303 0)
(1.00634 0.00498371 0)
(1.0066 0.00510896 0)
(1.00685 0.00529257 0)
(1.00709 0.0055465 0)
(1.00736 0.00587481 0)
(0.999891 8.34508e-05 0)
(0.999666 0.000882098 0)
(0.999874 0.00167399 0)
(1.00032 0.00239164 0)
(1.00095 0.00304478 0)
(1.00172 0.00355403 0)
(1.00253 0.00391243 0)
(1.00331 0.00415581 0)
(1.00403 0.00431711 0)
(1.00468 0.0044241 0)
(1.00526 0.00450158 0)
(1.00578 0.0045704 0)
(1.00624 0.00464766 0)
(1.00665 0.00474771 0)
(1.00704 0.00488278 0)
(1.0074 0.00506316 0)
(1.00778 0.00529623 0)
(1.00817 0.00558088 0)
(0.999948 0.000171401 0)
(0.99987 0.000841153 0)
(1.00008 0.00150692 0)
(1.0005 0.00211134 0)
(1.00107 0.00265878 0)
(1.00177 0.00310175 0)
(1.00251 0.0034323 0)
(1.00325 0.00367256 0)
(1.00397 0.00384601 0)
(1.00464 0.00397371 0)
(1.00527 0.00407494 0)
(1.00585 0.00416635 0)
(1.00638 0.00426171 0)
(1.00689 0.00437227 0)
(1.00737 0.00450704 0)
(1.00785 0.00467254 0)
(1.00835 0.00487187 0)
(1.00886 0.00510044 0)
(0.999984 0.000206317 0)
(1.00001 0.000758419 0)
(1.00024 0.00130097 0)
(1.00065 0.00179176 0)
(1.00118 0.00223164 0)
(1.00182 0.00259746 0)
(1.00251 0.00288355 0)
(1.00321 0.00310287 0)
(1.00391 0.00327137 0)
(1.00459 0.00340397 0)
(1.00525 0.0035145 0)
(1.00587 0.00361497 0)
(1.00647 0.00371526 0)
(1.00705 0.00382301 0)
(1.00762 0.00394366 0)
(1.00819 0.0040802 0)
(1.00877 0.00423232 0)
(1.00938 0.00439354 0)
(1 0.000193987 0)
(1.0001 0.000625624 0)
(1.00035 0.00104114 0)
(1.00075 0.00141503 0)
(1.00126 0.0017462 0)
(1.00186 0.0020262 0)
(1.00251 0.00225288 0)
(1.00318 0.00243376 0)
(1.00387 0.00257896 0)
(1.00454 0.00269819 0)
(1.00521 0.00280023 0)
(1.00586 0.00289258 0)
(1.0065 0.00298105 0)
(1.00713 0.00306967 0)
(1.00776 0.00316057 0)
(1.00839 0.00325382 0)
(1.00904 0.00334693 0)
(1.0097 0.00343276 0)
(1.00001 0.000144562 0)
(1.00013 0.000439295 0)
(1.0004 0.000715768 0)
(1.0008 0.00096255 0)
(1.0013 0.00117904 0)
(1.00187 0.00136371 0)
(1.0025 0.00151685 0)
(1.00315 0.00164264 0)
(1.00382 0.00174665 0)
(1.0045 0.00183406 0)
(1.00517 0.00190926 0)
(1.00584 0.00197558 0)
(1.0065 0.00203521 0)
(1.00715 0.002089 0)
(1.00781 0.00213644 0)
(1.00847 0.00217567 0)
(1.00913 0.00220314 0)
(1.00981 0.00221209 0)
(1.00001 6.86425e-05 0)
(1.00015 0.000200683 0)
(1.00041 0.000317106 0)
(1.00081 0.000417341 0)
(1.0013 0.000504058 0)
(1.00186 0.000578653 0)
(1.00247 0.000642161 0)
(1.00311 0.000696236 0)
(1.00378 0.000742465 0)
(1.00445 0.000781851 0)
(1.00512 0.00081477 0)
(1.00579 0.000840964 0)
(1.00645 0.000859499 0)
(1.00711 0.000868738 0)
(1.00777 0.000866372 0)
(1.00842 0.000849468 0)
(1.00906 0.000814258 0)
(1.00971 0.000754858 0)
(1.00001 -2.43899e-05 0)
(1.00013 -8.56617e-05 0)
(1.00039 -0.000161174 0)
(1.00077 -0.000237712 0)
(1.00125 -0.000306607 0)
(1.00181 -0.000364736 0)
(1.00242 -0.000410833 0)
(1.00307 -0.000445517 0)
(1.00373 -0.000471239 0)
(1.0044 -0.000491287 0)
(1.00507 -0.000509155 0)
(1.00573 -0.000528404 0)
(1.00638 -0.000552633 0)
(1.00702 -0.000585439 0)
(1.00764 -0.000630384 0)
(1.00825 -0.000690962 0)
(1.00885 -0.000770792 0)
(1.00943 -0.000874793 0)
(1 -9.12384e-05 0)
(1.00007 -0.000322881 0)
(1.00028 -0.000588994 0)
(1.00064 -0.000844791 0)
(1.00112 -0.00107342 0)
(1.00169 -0.00126884 0)
(1.00232 -0.00142614 0)
(1.00299 -0.00154676 0)
(1.00367 -0.00163737 0)
(1.00436 -0.00170576 0)
(1.00503 -0.00175927 0)
(1.00569 -0.00180468 0)
(1.00632 -0.00184819 0)
(1.00693 -0.00189524 0)
(1.00751 -0.00195062 0)
(1.00806 -0.00201845 0)
(1.00859 -0.00210244 0)
(1.0091 -0.00220702 0)
(0.99998 -8.3769e-05 0)
(0.999921 -0.000437713 0)
(1.00004 -0.000886538 0)
(1.00038 -0.00131167 0)
(1.00088 -0.00169337 0)
(1.00149 -0.00201941 0)
(1.00218 -0.00227498 0)
(1.0029 -0.0024629 0)
(1.00363 -0.0025965 0)
(1.00434 -0.00268934 0)
(1.00503 -0.00275324 0)
(1.00568 -0.00279878 0)
(1.00629 -0.00283509 0)
(1.00687 -0.00286975 0)
(1.0074 -0.0029089 0)
(1.00789 -0.00295748 0)
(1.00835 -0.00301956 0)
(1.00877 -0.00309939 0)
(0.999911 5.08861e-05 0)
(0.99958 -0.000415908 0)
(0.999588 -0.00109164 0)
(0.999936 -0.00171396 0)
(1.00049 -0.00227769 0)
(1.0012 -0.00275055 0)
(1.00201 -0.00309953 0)
(1.00283 -0.00333641 0)
(1.00362 -0.00348845 0)
(1.00437 -0.00357832 0)
(1.00506 -0.00362442 0)
(1.00569 -0.00364261 0)
(1.00626 -0.00364587 0)
(1.00677 -0.00364418 0)
(1.00723 -0.00364511 0)
(1.00763 -0.00365434 0)
(1.00799 -0.00367618 0)
(1.00831 -0.00371463 0)
(0.999763 0.000370101 0)
(0.998942 -0.000277436 0)
(0.998849 -0.00124978 0)
(0.999298 -0.00210279 0)
(1.00001 -0.00289078 0)
(1.00091 -0.00352302 0)
(1.0019 -0.00394263 0)
(1.00284 -0.0041905 0)
(1.0037 -0.00431999 0)
(1.00446 -0.00436705 0)
(1.00511 -0.00435894 0)
(1.00567 -0.00431825 0)
(1.00614 -0.00426204 0)
(1.00653 -0.00420235 0)
(1.00686 -0.00414753 0)
(1.00712 -0.00410342 0)
(1.00734 -0.00407393 0)
(1.00751 -0.00406243 0)
(0.999511 0.000993831 0)
(0.997905 -0.000109913 0)
(0.99784 -0.00147976 0)
(0.998557 -0.00257267 0)
(0.999546 -0.00361109 0)
(1.00074 -0.00438362 0)
(1.00195 -0.00481515 0)
(1.003 -0.00500863 0)
(1.00386 -0.00505676 0)
(1.00453 -0.00501136 0)
(1.00506 -0.00490953 0)
(1.00545 -0.00478039 0)
(1.00572 -0.0046438 0)
(1.00592 -0.00451209 0)
(1.00604 -0.00439286 0)
(1.0061 -0.00429075 0)
(1.00611 -0.00420828 0)
(1.00609 -0.00414741 0)
(0.998981 0.00256245 0)
(0.996251 0.000269859 0)
(0.996655 -0.00182777 0)
(0.997927 -0.00321606 0)
(0.999317 -0.00450203 0)
(1.00087 -0.00533741 0)
(1.00226 -0.00567632 0)
(1.00329 -0.00572422 0)
(1.00398 -0.00562119 0)
(1.00442 -0.00543345 0)
(1.00465 -0.00520553 0)
(1.00473 -0.00496977 0)
(1.00469 -0.00474506 0)
(1.00457 -0.00454076 0)
(1.0044 -0.00436121 0)
(1.00419 -0.00420813 0)
(1.00395 -0.00408139 0)
(1.00369 -0.00398081 0)
(0.997456 0.00616295 0)
(0.993456 0.00157945 0)
(0.99537 -0.00195768 0)
(0.997696 -0.00396739 0)
(0.999588 -0.00553652 0)
(1.00142 -0.00630559 0)
(1.0028 -0.0064115 0)
(1.00353 -0.006212 0)
(1.00377 -0.00589377 0)
(1.0037 -0.00553007 0)
(1.00341 -0.00516521 0)
(1.003 -0.00482705 0)
(1.0025 -0.0045272 0)
(1.00196 -0.00426767 0)
(1.00141 -0.00404682 0)
(1.00086 -0.00386189 0)
(1.00031 -0.00370944 0)
(0.999777 -0.00358654 0)
(0.994437 0.00860061 0)
(0.989461 0.00234784 0)
(0.994164 -0.00186185 0)
(0.998117 -0.00467635 0)
(1.00057 -0.00655484 0)
(1.00241 -0.00708869 0)
(1.00328 -0.00681314 0)
(1.00318 -0.00628596 0)
(1.0025 -0.00572482 0)
(1.00154 -0.00519207 0)
(1.00046 -0.00471704 0)
(0.999341 -0.00431208 0)
(0.998238 -0.00397448 0)
(0.99718 -0.00369513 0)
(0.996177 -0.00346498 0)
(0.995232 -0.00327665 0)
(0.99434 -0.00312377 0)
(0.993507 -0.00300016 0)
(0.994525 -0.00665219 0)
(0.989495 -0.00851254 0)
(0.995506 -0.00525475 0)
(1.00005 -0.00616068 0)
(1.00244 -0.0075292 0)
(1.00337 -0.0074612 0)
(1.00263 -0.00665039 0)
(1.00074 -0.00577291 0)
(0.998425 -0.00501373 0)
(0.996102 -0.00438183 0)
(0.993909 -0.00386858 0)
(0.991887 -0.00346113 0)
(0.990049 -0.00313976 0)
(0.988386 -0.00288456 0)
(0.986877 -0.00268052 0)
(0.985504 -0.00251776 0)
(0.984248 -0.00238956 0)
(0.983101 -0.00228399 0)
(1.02649 -0.0702271 0)
(1.0171 -0.0623831 0)
(1.01187 -0.0291981 0)
(1.00851 -0.0148386 0)
(1.00573 -0.0102825 0)
(1.00189 -0.00778101 0)
(0.99667 -0.00589813 0)
(0.991102 -0.0046087 0)
(0.986061 -0.00376203 0)
(0.981771 -0.00317592 0)
(0.978134 -0.00274816 0)
(0.97502 -0.00242975 0)
(0.97233 -0.0021895 0)
(0.969983 -0.00200447 0)
(0.967913 -0.00185978 0)
(0.966068 -0.00174834 0)
(0.964416 -0.0016694 0)
(0.962941 -0.00164573 0)
(0.966187 0.350228 0)
(1.02695 0.194274 0)
(1.03277 0.0679317 0)
(1.0047 0.0152842 0)
(0.976535 -0.00124454 0)
(0.956601 -0.0042918 0)
(0.942861 -0.00357174 0)
(0.933018 -0.00241975 0)
(0.92578 -0.00160012 0)
(0.920262 -0.00110746 0)
(0.915839 -0.000819699 0)
(0.912137 -0.000648594 0)
(0.908955 -0.000543227 0)
(0.90617 -0.000475238 0)
(0.903695 -0.000429465 0)
(0.901462 -0.000400415 0)
(0.899407 -0.000384613 0)
(0.897481 -0.000432205 0)
(0.00863879 -0.0352496 -2.37116e-21)
(0.0218387 -0.0310236 2.20747e-21)
(0.0278183 -0.0144749 0)
(0.0250438 0.00149242 0)
(0.0159627 0.0109898 0)
(0.00385955 0.0143072 -2.17673e-21)
(-0.00943609 0.0152031 0)
(-0.0237797 0.0159963 0)
(-0.0392932 0.0171295 0)
(-0.0560241 0.0185326 0)
(-0.0739576 0.0200297 1.89324e-21)
(-0.0929925 0.0214576 0)
(-0.112955 0.0226906 0)
(-0.133623 0.0236444 0)
(-0.154746 0.0242729 0)
(-0.17607 0.0245629 1.76492e-21)
(-0.197349 0.024527 0)
(-0.218362 0.024196 0)
(-0.238916 0.0236115 0)
(-0.258852 0.0228203 0)
(-0.278043 0.0218691 0)
(-0.296395 0.0208015 0)
(-0.313843 0.0196555 0)
(-0.330344 0.0184626 1.79279e-21)
(-0.345876 0.0172472 -1.79899e-21)
(-0.36043 0.0160274 1.80394e-21)
(-0.374009 0.0148152 1.80731e-21)
(-0.386622 0.0136174 0)
(-0.398281 0.0124368 0)
(-0.409 0.0112729 -1.80549e-21)
(-0.418791 0.0101231 -1.80026e-21)
(-0.427662 0.00898314 0)
(-0.43562 0.00784828 0)
(-0.442664 0.00671418 -1.7686e-21)
(-0.448789 0.00557762 0)
(-0.453985 0.00443788 0)
(-0.458241 0.00329989 1.71019e-21)
(-0.461541 0.00217492 0)
(-0.463876 0.00108253 1.65471e-21)
(-0.465215 5.84011e-05 3.24293e-21)
(-0.465507 -0.000862951 0)
(-0.464935 -0.00169744 0)
(-0.46351 -0.00249024 0)
(-0.46124 -0.00326839 0)
(-0.45812 -0.00404412 0)
(-0.454142 -0.00482237 2.63785e-21)
(-0.449295 -0.00560449 2.50187e-21)
(-0.443565 -0.00638987 2.35516e-21)
(-0.436943 -0.0071767 0)
(-0.429423 -0.00796237 -2.02877e-21)
(-0.420999 -0.00874371 0)
(-0.411673 -0.0095171 1.65767e-21)
(-0.40145 -0.0102787 1.45527e-21)
(-0.390343 -0.0110243 0)
(-0.378367 -0.0117497 0)
(-0.365545 -0.0124509 0)
(-0.351906 -0.0131237 5.3629e-22)
(-0.337484 -0.0137643 0)
(-0.322319 -0.0143692 0)
(-0.306456 -0.0149354 0)
(-0.289946 -0.0154602 0)
(-0.27284 -0.0159418 0)
(-0.255197 -0.0163785 0)
(-0.237077 -0.0167697 0)
(-0.218541 -0.0171148 0)
(-0.199652 -0.017414 2.06398e-21)
(-0.180473 -0.0176678 0)
(-0.161067 -0.0178763 0)
(-0.141496 -0.0180396 -3.03568e-21)
(-0.121822 -0.0181563 -3.36494e-21)
(-0.102104 -0.0182229 0)
(-0.0824034 -0.0182314 4.02722e-21)
(-0.0627809 -0.0181673 -4.35889e-21)
(-0.0432984 -0.0180053 0)
(-0.0240111 -0.0177111 5.02023e-21)
(-0.00494325 -0.0172624 0)
(0.0139111 -0.016707 0)
(0.0325345 -0.0161221 -5.35079e-21)
(0.0508825 -0.0155382 0)
(0.068921 -0.0149625 5.35183e-21)
(0.0866271 -0.0143978 0)
(0.103983 -0.0138454 -5.31579e-21)
(0.120975 -0.013306 -5.2868e-21)
(0.137591 -0.0127799 -5.25183e-21)
(0.153822 -0.0122673 -1.04235e-20)
(0.169659 -0.0117681 1.03346e-20)
(0.185096 -0.0112821 0)
(0.200128 -0.0108089 0)
(0.21475 -0.0103482 0)
(0.228958 -0.00989942 9.91834e-21)
(0.242749 -0.00946192 9.80441e-21)
(0.256119 -0.00903507 -9.68828e-21)
(0.269066 -0.00861819 0)
(0.281584 -0.00821059 9.45228e-21)
(0.293672 -0.00781158 9.33364e-21)
(0.305323 -0.00742052 9.21528e-21)
(0.316535 -0.00703681 0)
(0.327302 -0.00665996 0)
(0.337619 -0.00628954 0)
(0.347481 -0.00592527 8.7534e-21)
(0.356884 -0.00556697 0)
(0.365821 -0.00521463 0)
(0.37429 -0.00486836 -8.42872e-21)
(0.382285 -0.00452844 0)
(0.389804 -0.0041953 0)
(0.396845 -0.00386949 -8.13001e-21)
(0.403409 -0.00355172 0)
(0.409495 -0.00324277 0)
(0.415109 -0.00294353 7.86108e-21)
(0.420254 -0.00265494 7.77835e-21)
(0.424939 -0.00237797 0)
(0.429174 -0.00211355 -7.62326e-21)
(0.432972 -0.00186259 0)
(0.436347 -0.00162583 7.4816e-21)
(0.439316 -0.00140386 0)
(0.441898 -0.0011972 7.35262e-21)
(0.444114 -0.00100648 7.29258e-21)
(0.445985 -0.000831376 0)
(0.447533 -0.000666368 0)
(0.448766 -0.000496595 0)
(0.449669 -0.0003115 0)
(0.450217 -0.000135984 0)
(0.450499 -4.52613e-06 0)
(0.450582 8.14644e-05 0)
(0.45051 0.000136827 6.90128e-21)
(0.45032 0.000173089 -6.86031e-21)
(0.450039 0.000196937 0)
(0.449685 0.000212287 0)
(0.449276 0.000221424 0)
(0.448825 0.000225763 0)
(0.448344 0.000226299 -1.33437e-20)
(0.447842 0.000223798 0)
(0.44733 0.000218887 1.3205e-20)
(0.446813 0.000212094 -1.31376e-20)
(0.446299 0.000203865 0)
(0.445792 0.000194576 0)
(0.445296 0.000184543 0)
(0.444814 0.00017403 1.28792e-20)
(0.44435 0.000163255 1.2817e-20)
(0.443905 0.000152396 0)
(0.44348 0.0001416 1.26948e-20)
(0.443077 0.000130984 1.26347e-20)
(0.442696 0.000120638 -1.25753e-20)
(0.442337 0.000110637 0)
(0.442 0.000101034 0)
(0.441685 9.1871e-05 -1.24004e-20)
(0.441391 8.31793e-05 0)
(0.441118 7.49813e-05 0)
(0.440865 6.72929e-05 0)
(0.440631 6.0125e-05 0)
(0.440415 5.34852e-05 1.21183e-20)
(0.440215 4.73801e-05 1.20631e-20)
(0.440032 4.18165e-05 0)
(0.439863 3.68027e-05 1.19537e-20)
(0.439707 3.23512e-05 0)
(0.439563 2.84811e-05 0)
(0.439429 2.52201e-05 1.17923e-20)
(0.439304 2.26081e-05 0)
(0.439186 2.07014e-05 1.16865e-20)
(0.439073 1.95789e-05 0)
(0.438961 1.93488e-05 0)
(0.43885 2.01585e-05 1.15311e-20)
(0.438735 2.22078e-05 0)
(0.438611 2.5767e-05 1.14304e-20)
(0.438475 3.12032e-05 0)
(0.43832 3.90168e-05 0)
(0.438136 4.98957e-05 0)
(0.437913 6.47981e-05 -1.124e-20)
(0.437637 8.50806e-05 0)
(0.437286 0.000112704 1.11549e-20)
(0.436833 0.000150586 0)
(0.436238 0.000203206 0)
(0.435442 0.000277822 0)
(0.434352 0.000386515 0)
(0.432827 0.000552309 0)
(0.430588 0.000815127 0)
(0.427273 0.00128478 0)
(0.421488 0.00209066 -2.2307e-20)
(0.413311 0.00411773 0)
(0.389958 0.0066977 0)
(-0.00442418 -0.0402541 6.59614e-21)
(-0.00581552 -0.0125219 -5.65008e-21)
(-0.0145771 0.00797481 0)
(-0.0254064 0.0237175 2.97214e-21)
(-0.0384212 0.0348022 0)
(-0.0535451 0.0418734 1.36367e-21)
(-0.0707383 0.046617 -2.58091e-21)
(-0.0896505 0.0503468 -2.49913e-21)
(-0.109769 0.0535803 0)
(-0.13063 0.0563777 -2.38155e-21)
(-0.151841 0.0586381 -1.1887e-21)
(-0.173062 0.0602473 0)
(-0.193997 0.0611345 0)
(-0.214396 0.0612836 0)
(-0.23406 0.060728 0)
(-0.25284 0.0595381 -1.16127e-21)
(-0.270635 0.0578075 0)
(-0.287386 0.0556412 2.35953e-21)
(-0.303069 0.0531446 0)
(-0.31769 0.0504167 0)
(-0.331274 0.0475447 -2.43399e-21)
(-0.343859 0.044602 0)
(-0.355493 0.0416468 2.4816e-21)
(-0.366223 0.0387232 -1.24917e-21)
(-0.376101 0.0358621 1.25869e-21)
(-0.385171 0.0330835 -1.26662e-21)
(-0.393475 0.0303978 -1.27274e-21)
(-0.401051 0.0278083 0)
(-0.40793 0.0253128 0)
(-0.414138 0.022905 1.27874e-21)
(-0.419698 0.020576 -1.28112e-21)
(-0.424627 0.018315 0)
(-0.428941 0.0161108 0)
(-0.432653 0.0139519 1.25398e-21)
(-0.435775 0.0118274 0)
(-0.438319 0.00972733 0)
(-0.440296 0.00764394 -1.2082e-21)
(-0.44172 0.00557438 0)
(-0.442601 0.0035244 1.18821e-21)
(-0.442955 0.00151217 -2.27515e-21)
(-0.442806 -0.000438596 0)
(-0.442005 -0.00233288 0)
(-0.440477 -0.00419911 -4.21278e-21)
(-0.43818 -0.00605523 -4.058e-21)
(-0.435084 -0.00791067 -3.89033e-21)
(-0.431164 -0.00976828 1.90623e-21)
(-0.426402 -0.0116268 -1.70139e-21)
(-0.420782 -0.0134823 -4.90137e-21)
(-0.414294 -0.0153287 3.08847e-21)
(-0.406928 -0.0171585 1.35587e-21)
(-0.398681 -0.0189631 0)
(-0.389554 -0.0207327 -1.09375e-21)
(-0.379552 -0.0224573 1.12808e-21)
(-0.368685 -0.024126 0)
(-0.35697 -0.0257281 0)
(-0.344429 -0.0272529 0)
(-0.33109 -0.0286902 -3.41496e-22)
(-0.316985 -0.0300305 0)
(-0.302153 -0.031265 2.4757e-22)
(-0.286638 -0.0323864 0)
(-0.270488 -0.0333885 -4.26934e-22)
(-0.253756 -0.0342667 0)
(-0.236495 -0.035018 1.12091e-21)
(-0.218765 -0.0356409 0)
(-0.200625 -0.0361355 -1.82677e-21)
(-0.182136 -0.0365036 9.56949e-22)
(-0.163358 -0.0367482 0)
(-0.144353 -0.0368734 2.89199e-21)
(-0.12518 -0.0368845 1.75999e-21)
(-0.105897 -0.0367872 1.93614e-21)
(-0.0865583 -0.0365872 0)
(-0.0672149 -0.03629 2.00904e-21)
(-0.0479125 -0.0358995 2.45443e-21)
(-0.0286893 -0.035417 0)
(-0.00957921 -0.0348398 -2.7747e-21)
(0.00936883 -0.0341633 5.50099e-21)
(0.0280929 -0.0334015 0)
(0.0465558 -0.0325839 3.01713e-21)
(0.0647423 -0.0317318 0)
(0.0826363 -0.0308576 -9.15065e-21)
(0.100219 -0.0299688 0)
(0.117474 -0.0290713 9.40522e-21)
(0.134386 -0.0281694 3.23227e-21)
(0.150942 -0.0272667 -3.07336e-21)
(0.167133 -0.0263664 -6.20282e-21)
(0.18295 -0.0254708 6.24902e-21)
(0.198386 -0.0245817 0)
(0.213435 -0.0237008 0)
(0.228093 -0.0228288 0)
(0.242355 -0.0219664 -1.95906e-20)
(0.256219 -0.0211139 -6.61367e-21)
(0.269682 -0.0202711 6.60198e-21)
(0.28274 -0.0194377 0)
(0.29539 -0.0186135 6.3501e-21)
(0.307629 -0.0177977 -6.54154e-21)
(0.319455 -0.0169899 -6.51468e-21)
(0.330863 -0.0161895 0)
(0.34185 -0.015396 0)
(0.352411 -0.0146091 0)
(0.362543 -0.0138287 -6.38558e-21)
(0.37224 -0.0130549 0)
(0.3815 -0.0122879 1.24997e-20)
(0.390317 -0.0115286 1.87115e-20)
(0.398689 -0.0107777 -1.23698e-20)
(0.406613 -0.0100366 0)
(0.414085 -0.00930688 -6.07328e-21)
(0.421106 -0.00859027 0)
(0.427676 -0.00788887 -1.21096e-20)
(0.433795 -0.00720497 5.98818e-21)
(0.439468 -0.00654096 5.96051e-21)
(0.444699 -0.00589931 0)
(0.449495 -0.0052825 1.78229e-20)
(0.453866 -0.00469288 -1.18071e-20)
(0.457822 -0.0041326 -5.89588e-21)
(0.461375 -0.00360353 0)
(0.464541 -0.00310717 -5.8373e-21)
(0.467337 -0.00264438 -1.74002e-20)
(0.469779 -0.00221433 0)
(0.471889 -0.00181227 -1.14906e-20)
(0.473692 -0.00142951 -1.14424e-20)
(0.475234 -0.00106457 -1.13953e-20)
(0.476576 -0.000736168 0)
(0.477692 -0.00046288 0)
(0.478575 -0.000242843 0)
(0.479239 -6.58789e-05 5.59822e-21)
(0.479707 7.6429e-05 5.58048e-21)
(0.480001 0.000190236 0)
(0.480145 0.00028026 1.10608e-20)
(0.480162 0.000350149 1.10139e-20)
(0.480071 0.000402849 0)
(0.479891 0.000440863 1.09215e-20)
(0.479638 0.000466372 2.17498e-20)
(0.479326 0.000481306 -1.08285e-20)
(0.478969 0.000487379 -1.07842e-20)
(0.478577 0.000486111 0)
(0.478162 0.000478847 0)
(0.477731 0.000466768 0)
(0.477292 0.000450903 -1.06009e-20)
(0.476852 0.000432147 1.05592e-20)
(0.476415 0.000411265 2.10261e-20)
(0.475985 0.000388912 -1.04671e-20)
(0.475567 0.000365641 1.04259e-20)
(0.475163 0.000341913 1.03789e-20)
(0.474775 0.000318113 0)
(0.474404 0.000294554 0)
(0.474052 0.000271493 -1.02504e-20)
(0.47372 0.000249134 0)
(0.473407 0.000227642 0)
(0.473114 0.000207145 2.0239e-20)
(0.47284 0.000187743 0)
(0.472586 0.000169511 1.00346e-20)
(0.472349 0.000152512 -9.99054e-21)
(0.472131 0.000136795 0)
(0.471929 0.000122405 9.907e-21)
(0.471743 0.000109385 0)
(0.471572 9.77888e-05 0)
(0.471414 8.76796e-05 -9.78026e-21)
(0.471268 7.91441e-05 1.94779e-20)
(0.471132 7.22991e-05 -9.69737e-21)
(0.471005 6.73055e-05 0)
(0.470885 6.43827e-05 0)
(0.470769 6.38302e-05 9.57498e-21)
(0.470655 6.60544e-05 0)
(0.470541 7.16068e-05 9.49493e-21)
(0.470421 8.12372e-05 0)
(0.470292 9.59688e-05 0)
(0.470148 0.000117208 0)
(0.46998 0.000146912 9.34294e-21)
(0.46978 0.000187839 0)
(0.469534 0.000243964 -9.27442e-21)
(0.469224 0.000321161 0)
(0.468827 0.000428375 0)
(0.468308 0.000579923 1.83851e-20)
(0.467618 0.000799422 -1.83507e-20)
(0.466689 0.00113046 0)
(0.465396 0.00164973 0)
(0.463647 0.00254615 0)
(0.460908 0.00409435 5.55021e-20)
(0.457853 0.00755521 0)
(0.451381 0.0133485 -3.79436e-20)
(-0.0157935 -0.0136247 -2.14357e-22)
(-0.025381 0.0148435 6.32512e-21)
(-0.0391808 0.0357536 0)
(-0.0543931 0.0525731 -4.61634e-21)
(-0.0699909 0.065751 0)
(-0.0861254 0.075651 0)
(-0.103061 0.082986 -4.14229e-24)
(-0.120672 0.0884539 1.91652e-21)
(-0.138612 0.0924778 1.89277e-21)
(-0.156518 0.0952367 1.83829e-21)
(-0.174092 0.096791 0)
(-0.19111 0.0971811 0)
(-0.207424 0.0964746 -1.83978e-21)
(-0.22295 0.0947784 -3.6866e-21)
(-0.237653 0.0922312 3.70203e-21)
(-0.251538 0.0889898 0)
(-0.264636 0.0852154 3.74958e-21)
(-0.276991 0.0810614 -1.84937e-21)
(-0.288655 0.0766654 0)
(-0.299678 0.0721446 3.83781e-21)
(-0.310106 0.0675935 1.905e-21)
(-0.319977 0.0630844 -3.89401e-21)
(-0.329325 0.0586694 -1.93826e-21)
(-0.338172 0.0543828 0)
(-0.346537 0.0502443 3.95893e-21)
(-0.354432 0.0462618 3.97322e-21)
(-0.361862 0.0424348 0)
(-0.368831 0.0387562 3.98821e-21)
(-0.375338 0.035215 0)
(-0.38138 0.0317975 3.98264e-21)
(-0.386951 0.0284891 1.97626e-21)
(-0.392045 0.025275 0)
(-0.396652 0.022141 0)
(-0.400763 0.0190744 0)
(-0.404365 0.0160639 0)
(-0.407444 0.0131001 0)
(-0.409983 0.0101751 0)
(-0.411963 0.0072818 3.70566e-21)
(-0.413353 0.004411 -5.43513e-21)
(-0.414117 0.00154798 0)
(-0.414218 -0.00133069 0)
(-0.413618 -0.00423961 0)
(-0.412291 -0.00717642 -6.72765e-23)
(-0.410212 -0.0101362 3.0673e-21)
(-0.407356 -0.0131136 5.94531e-21)
(-0.403702 -0.0161023 -5.66376e-21)
(-0.39923 -0.0190946 -2.72777e-21)
(-0.393924 -0.0220809 2.47303e-21)
(-0.387771 -0.0250498 1.04744e-22)
(-0.380762 -0.0279881 2.23185e-21)
(-0.372892 -0.030881 0)
(-0.364161 -0.0337126 1.85809e-21)
(-0.354572 -0.0364661 1.28817e-22)
(-0.344136 -0.0391239 0)
(-0.332867 -0.0416686 0)
(-0.320788 -0.0440829 -1.02212e-21)
(-0.307925 -0.0463504 0)
(-0.294311 -0.0484558 0)
(-0.279983 -0.0503853 4.94269e-22)
(-0.264983 -0.0521272 1.99636e-22)
(-0.249361 -0.0536719 3.04569e-22)
(-0.233165 -0.0550121 0)
(-0.216451 -0.0561433 -7.93474e-22)
(-0.199276 -0.0570634 0)
(-0.181698 -0.0577729 -9.31418e-22)
(-0.163775 -0.0582748 -1.52689e-21)
(-0.145569 -0.0585743 3.17972e-21)
(-0.127138 -0.0586787 1.64859e-21)
(-0.108539 -0.0585969 0)
(-0.089829 -0.0583393 -4.59893e-21)
(-0.0710599 -0.0579174 0)
(-0.0522811 -0.0573436 -8.45727e-21)
(-0.033537 -0.0566311 -5.96702e-21)
(-0.0148666 -0.055794 -6.4031e-21)
(0.00369295 -0.0548481 6.76626e-21)
(0.0220986 -0.053812 -1.07534e-20)
(0.0403064 -0.0527013 0)
(0.0582832 -0.051526 0)
(0.0760055 -0.0502962 7.79876e-21)
(0.0934518 -0.0490228 1.21633e-20)
(0.110602 -0.0477155 0)
(0.127439 -0.0463834 -4.32681e-21)
(0.143948 -0.045034 0)
(0.160117 -0.0436741 1.31433e-20)
(0.175934 -0.0423094 2.45886e-22)
(0.191393 -0.0409447 -2.35479e-22)
(0.206487 -0.0395837 -9.02078e-21)
(0.221209 -0.0382294 0)
(0.235556 -0.0368842 9.18826e-21)
(0.249524 -0.0355495 1.95943e-22)
(0.263109 -0.0342263 0)
(0.27631 -0.0329151 0)
(0.289124 -0.0316158 0)
(0.301549 -0.0303281 -9.59789e-21)
(0.313581 -0.0290516 0)
(0.325219 -0.0277857 0)
(0.336459 -0.0265297 0)
(0.347298 -0.0252831 0)
(0.357734 -0.0240454 0)
(0.367762 -0.0228166 -9.5223e-21)
(0.377379 -0.0215968 0)
(0.386582 -0.0203865 -9.61848e-21)
(0.395368 -0.0191867 -9.60694e-21)
(0.403732 -0.0179987 9.5938e-21)
(0.411672 -0.0168244 0)
(0.419187 -0.0156659 9.56404e-21)
(0.426275 -0.014526 0)
(0.432935 -0.0134076 9.53148e-21)
(0.43917 -0.0123143 -9.51467e-21)
(0.44498 -0.0112495 -2.83886e-20)
(0.45037 -0.0102171 0)
(0.455344 -0.00922064 -2.83046e-20)
(0.459911 -0.00826396 -9.36889e-21)
(0.464079 -0.00735047 0)
(0.467857 -0.00648327 -1.8762e-20)
(0.47126 -0.00566498 -1.87342e-20)
(0.474299 -0.00489748 2.80825e-20)
(0.476993 -0.00418146 0)
(0.479357 -0.0035162 9.34103e-21)
(0.481416 -0.00290112 9.32247e-21)
(0.483198 -0.00233752 2.78821e-20)
(0.484727 -0.0018272 0)
(0.48602 -0.00137248 0)
(0.487087 -0.000975297 0)
(0.487941 -0.000634172 9.20072e-21)
(0.488598 -0.000344971 0)
(0.489078 -0.000102536 0)
(0.4894 9.82964e-05 -9.13295e-21)
(0.489584 0.000262321 -9.10407e-21)
(0.489649 0.000393906 0)
(0.489611 0.000497033 0)
(0.489488 0.000575338 -1.80266e-20)
(0.489294 0.000632148 0)
(0.489043 0.000670499 1.78997e-20)
(0.488746 0.000693152 1.78355e-20)
(0.488414 0.0007026 0)
(0.488058 0.000701083 0)
(0.487684 0.000690592 -1.7637e-20)
(0.4873 0.000672887 2.05836e-24)
(0.486913 0.00064951 2.17463e-24)
(0.486526 0.000621802 0)
(0.486144 0.000590916 -3.47258e-20)
(0.485771 0.000557838 0)
(0.48541 0.000523403 0)
(0.485061 0.000488313 0)
(0.484728 0.000453148 1.70844e-20)
(0.484412 0.000418391 0)
(0.484112 0.00038443 -3.3894e-20)
(0.483829 0.000351585 -1.68756e-20)
(0.483564 0.000320107 0)
(0.483316 0.0002902 -1.67365e-20)
(0.483085 0.000262026 0)
(0.48287 0.000235718 0)
(0.482671 0.000211389 -4.95868e-20)
(0.482487 0.000189143 3.292e-20)
(0.482316 0.000169083 0)
(0.482159 0.000151327 3.26435e-20)
(0.482012 0.000136017 -1.62523e-20)
(0.481876 0.000123336 0)
(0.481748 0.000113525 0)
(0.481626 0.000106909 0)
(0.481509 0.000103924 -4.79413e-20)
(0.481393 0.00010516 0)
(0.481276 0.000111416 -1.5847e-20)
(0.481154 0.000123773 0)
(0.481022 0.000143701 0)
(0.480874 0.000173216 0)
(0.480703 0.000215104 0)
(0.480499 0.000273272 0)
(0.480249 0.000353291 0)
(0.479934 0.000463294 -3.0852e-20)
(0.479532 0.000615478 0)
(0.479008 0.00082889 -1.53415e-20)
(0.478314 0.00113419 4.59354e-20)
(0.477387 0.00158515 0)
(0.476117 0.00227405 0)
(0.474411 0.00340313 -3.06748e-20)
(0.471954 0.00529092 -3.08869e-20)
(0.469124 0.00899379 3.11235e-20)
(0.465303 0.0156763 3.17123e-20)
(-0.018902 0.0250841 -1.12934e-20)
(-0.0323649 0.051842 -8.23525e-21)
(-0.0483327 0.0708302 -4.42323e-21)
(-0.065099 0.0864156 -1.96053e-21)
(-0.0814012 0.0991681 0)
(-0.0972246 0.109199 3.50918e-21)
(-0.112808 0.116721 -1.73747e-21)
(-0.128186 0.122025 0)
(-0.14325 0.12539 -1.59525e-21)
(-0.157862 0.127038 0)
(-0.171915 0.127158 3.23368e-21)
(-0.185349 0.125929 0)
(-0.198151 0.123541 1.5529e-21)