
961
(
0.788281
0.755386
1.11032
1.38085
0.820396
0.840292
1.00256
0.868107
1.1533
0.923278
1.27146
0.975092
1.36372
1.0189
1.43659
1.05509
1.49476
1.08477
1.54132
1.1089
1.57831
1.12821
1.60708
1.14329
1.62859
1.15455
1.6435
1.16235
1.65229
1.16694
1.6552
1.16846
1.65234
1.16696
1.6436
1.1624
1.62874
1.15462
1.60727
1.14338
1.57855
1.12834
1.5416
1.10904
1.49507
1.08494
1.43693
1.05528
1.36407
1.01912
1.27182
0.97532
1.15364
0.923515
1.00285
0.868343
0.82059
0.840527
0.755505
1.11055
0.788375
1.38108
1.59879
2.21753
0.859103
0.69938
0.644591
0.620864
0.608975
0.602231
0.597868
0.594644
0.592011
0.58977
0.587902
0.586472
0.585567
0.585252
0.585554
0.586447
0.587867
0.589728
0.591968
0.594606
0.597841
0.602224
0.608997
0.620925
0.644702
0.699554
0.85938
1.59918
2.21796
1.84237
2.64455
0.876798
0.659113
0.580787
0.54371
0.522273
0.507688
0.496445
0.487067
0.47898
0.472054
0.466378
0.462125
0.459479
0.458571
0.45945
0.462068
0.466297
0.471957
0.478873
0.486961
0.496352
0.507619
0.522241
0.543727
0.580866
0.659268
0.877065
1.84279
2.64505
2.04689
2.97807
0.918101
0.654005
0.558279
0.51347
0.488074
0.471061
0.457982
0.446978
0.437359
0.429009
0.422087
0.41686
0.41359
0.412466
0.413555
0.416792
0.421992
0.428895
0.437237
0.446859
0.45788
0.470988
0.488042
0.513491
0.558361
0.654153
0.918342
2.04726
2.97852
2.22094
3.25184
0.962426
0.656903
0.544692
0.492374
0.463267
0.444271
0.429985
0.418096
0.407713
0.398662
0.391117
0.385389
0.381794
0.380557
0.381761
0.385325
0.391029
0.39856
0.407606
0.417996
0.429906
0.444223
0.463261
0.492418
0.544788
0.657046
0.962624
2.22123
3.25219
2.36592
3.47243
1.00501
0.661377
0.532312
0.471404
0.437431
0.41541
0.399052
0.385595
0.373936
0.363811
0.355385
0.348992
0.344981
0.343605
0.344954
0.348941
0.355316
0.363733
0.373858
0.385529
0.399008
0.415398
0.437458
0.471472
0.532416
0.661504
1.00515
2.36613
3.47268
2.48396
3.64403
1.0461
0.667825
0.521284
0.450291
0.409785
0.383106
0.363161
0.346791
0.332701
0.32056
0.310522
0.302948
0.298215
0.296597
0.298196
0.302913
0.310476
0.320509
0.332655
0.346759
0.363151
0.383124
0.409835
0.45037
0.521383
0.667923
1.04618
2.48409
3.64421
2.57755
3.77261
1.08576
0.678045
0.514428
0.43231
0.383776
0.350815
0.325673
0.304879
0.287013
0.27172
0.259179
0.249787
0.243953
0.241968
0.243941
0.249766
0.259152
0.271693
0.286993
0.304873
0.325686
0.350851
0.383835
0.432385
0.514507
0.678106
1.0858
2.57763
3.77274
2.64883
3.86532
1.122
0.692062
0.513767
0.420912
0.363855
0.323702
0.29227
0.265913
0.243194
0.223816
0.208039
0.196319
0.189088
0.186641
0.189082
0.196308
0.208026
0.223805
0.243189
0.26592
0.292292
0.323741
0.363907
0.420969
0.513816
0.692087
1.122
2.64889
3.86544
2.70006
3.92931
1.15193
0.707493
0.51856
0.417064
0.352512
0.30557
0.267858
0.23571
0.207791
0.183969
0.164667
0.150437
0.141725
0.138793
0.141722
0.150431
0.164661
0.183965
0.207792
0.23572
0.267879
0.305601
0.352549
0.417098
0.518582
0.70749
1.15192
2.70011
3.92942
2.73438
3.97114
1.17397
0.721283
0.525885
0.418681
0.348788
0.296679
0.253915
0.216878
0.184389
0.156548
0.134013
0.117489
0.107444
0.10408
0.107442
0.117486
0.134009
0.156546
0.184391
0.216885
0.253928
0.296698
0.348808
0.418697
0.525887
0.721265
1.17395
2.73443
3.97125
2.75567
3.9967
1.18855
0.73162
0.532821
0.422456
0.349441
0.294158
0.248139
0.207807
0.172098
0.141305
0.116319
0.098028
0.0869564
0.0832622
0.086955
0.0980252
0.116316
0.141302
0.172097
0.20781
0.248146
0.294168
0.349451
0.42246
0.532813
0.731596
1.18853
2.75572
3.99682
2.76777
4.01104
1.19723
0.738282
0.537863
0.425961
0.351386
0.294474
0.246737
0.204611
0.167083
0.134554
0.108064
0.0886491
0.0769099
0.0729988
0.0769084
0.0886463
0.10806
0.13455
0.16708
0.204611
0.24674
0.294478
0.35139
0.425958
0.537849
0.738255
1.19722
2.76782
4.01115
2.77374
4.01802
1.20169
0.74186
0.540743
0.428178
0.352928
0.295303
0.246809
0.203883
0.16553
0.132189
0.10497
0.0849879
0.0729001
0.0688735
0.0728986
0.0849849
0.104966
0.132184
0.165526
0.203882
0.24681
0.295305
0.352928
0.428173
0.540727
0.741833
1.20167
2.7738
4.01814
2.77552
4.02008
1.20305
0.742972
0.541662
0.428915
0.353478
0.295658
0.246956
0.203811
0.165229
0.131662
0.104235
0.0840876
0.0718957
0.0678342
0.0718942
0.0840845
0.104231
0.131657
0.165225
0.203809
0.246956
0.295659
0.353477
0.428908
0.541646
0.742945
1.20303
2.77558
4.0202
2.77375
4.01803
1.20169
0.741861
0.540743
0.428178
0.352927
0.295302
0.246808
0.203882
0.165528
0.132187
0.104968
0.0849863
0.0728987
0.0688722
0.0728972
0.0849833
0.104964
0.132182
0.165524
0.20388
0.246808
0.295303
0.352927
0.428172
0.540727
0.741833
1.20167
2.7738
4.01814
2.76777
4.01104
1.19724
0.738284
0.537864
0.425961
0.351385
0.294471
0.246733
0.204605
0.167077
0.134548
0.108059
0.0886448
0.076906
0.0729951
0.0769045
0.0886419
0.108055
0.134544
0.167074
0.204604
0.246734
0.294473
0.351386
0.425956
0.537849
0.738257
1.19722
2.76783
4.01116
2.75568
3.99672
1.18855
0.731624
0.532823
0.422455
0.349436
0.29415
0.248128
0.207795
0.172085
0.141293
0.116308
0.098018
0.0869474
0.0832536
0.086946
0.0980153
0.116305
0.141289
0.172083
0.207795
0.248132
0.294156
0.349441
0.422454
0.532811
0.731598
1.18854
2.75573
3.99683
2.7344
3.97117
1.17399
0.72129
0.525886
0.418675
0.348775
0.296662
0.253893
0.216854
0.184365
0.156525
0.133991
0.117469
0.107426
0.104062
0.107424
0.117466
0.133988
0.156522
0.184365
0.216858
0.253901
0.296674
0.348788
0.418682
0.525881
0.721269
1.17397
2.73446
3.97129
2.70011
3.92938
1.15196
0.707504
0.518559
0.41705
0.352489
0.305539
0.267821
0.23567
0.20775
0.183929
0.164629
0.150402
0.141692
0.138761
0.14169
0.150398
0.164625
0.183926
0.207751
0.235677
0.267835
0.305559
0.352512
0.417071
0.518568
0.707493
1.15194
2.70017
3.9295
2.64892
3.86545
1.12204
0.692076
0.51376
0.420888
0.363818
0.323655
0.292216
0.265856
0.243136
0.22376
0.207986
0.196268
0.18904
0.186594
0.189035
0.19626
0.207977
0.223753
0.243135
0.265863
0.292234
0.323684
0.363854
0.420927
0.51379
0.692084
1.12204
2.64898
3.86557
2.57768
3.7728
1.08582
0.678061
0.514416
0.432277
0.383727
0.350755
0.325606
0.304809
0.286944
0.271653
0.259115
0.249727
0.243896
0.241914
0.243888
0.249713
0.259098
0.271637
0.286934
0.30481
0.325622
0.350785
0.383772
0.432332
0.514469
0.678097
1.08584
2.57776
3.77293
2.48414
3.64429
1.04616
0.667841
0.521268
0.450252
0.40973
0.383041
0.363091
0.346719
0.332631
0.320494
0.310461
0.302891
0.298162
0.296548
0.298149
0.302867
0.310429
0.320461
0.332603
0.346703
0.363092
0.383063
0.409774
0.450316
0.521341
0.667909
1.04622
2.48425
3.64446
2.36614
3.47275
1.00508
0.661398
0.532298
0.471368
0.43738
0.415351
0.39899
0.385534
0.373879
0.36376
0.355339
0.348952
0.344947
0.343574
0.344926
0.348914
0.355289
0.363704
0.373826
0.385493
0.398968
0.415355
0.437412
0.471429
0.532382
0.661494
1.00519
2.36631
3.47298
2.22118
3.2522
0.962512
0.656932
0.544688
0.492349
0.46323
0.444229
0.429944
0.418058
0.407682
0.398637
0.391097
0.385376
0.381785
0.380552
0.381758
0.385324
0.391027
0.398557
0.407601
0.417987
0.429893
0.444206
0.463241
0.492397
0.544774
0.65705
0.962673
2.22144
3.25252
2.04714
2.97844
0.918196
0.654045
0.55829
0.513465
0.488061
0.471047
0.457971
0.446972
0.437359
0.429014
0.422098
0.416875
0.413608
0.412486
0.413576
0.416813
0.422013
0.428915
0.437255
0.446876
0.457894
0.470999
0.488052
0.5135
0.558374
0.654181
0.918408
2.04748
2.97886
1.8426
2.64489
0.8769
0.659172
0.580822
0.543735
0.522295
0.507712
0.496473
0.487098
0.479015
0.472092
0.466417
0.462165
0.459518
0.458608
0.459486
0.462103
0.466332
0.471992
0.478909
0.486997
0.496389
0.507658
0.522282
0.54377
0.580915
0.659328
0.877154
1.843
2.64536
1.59896
2.21774
0.859214
0.699476
0.644682
0.620953
0.609064
0.60232
0.597957
0.594731
0.592094
0.589848
0.587974
0.586539
0.585628
0.585309
0.585607
0.5865
0.587921
0.589785
0.592029
0.594673
0.597915
0.602306
0.609087
0.621023
0.644807
0.699664
0.859495
1.59932
2.21813
1.11039
1.38093
0.840371
0.868199
0.923381
0.975205
1.01902
1.05522
1.08489
1.10902
1.12833
1.1434
1.15466
1.16245
1.16703
1.16855
1.16705
1.16249
1.15472
1.14348
1.12844
1.10915
1.08505
1.0554
1.01923
0.975439
0.923628
0.868444
0.840608
1.1106
1.38111
0.755419
0.788312
0.820439
1.00262
1.15338
1.27155
1.36382
1.4367
1.49488
1.54144
1.57843
1.6072
1.62871
1.64362
1.6524
1.65532
1.65245
1.64372
1.62885
1.60739
1.57867
1.54172
1.49519
1.43705
1.36419
1.27192
1.15372
1.00291
0.820623
0.755516
0.788379
)
