
961
(
0.005758
0.00644155
0.0081855
0.00726581
0.00774407
0.00972528
0.00886054
0.0107822
0.00973222
0.0115243
0.0103877
0.0120465
0.0108846
0.0124213
0.0112688
0.0126957
0.0115705
0.0128988
0.011809
0.0130493
0.0119966
0.0131596
0.0121415
0.0132386
0.0122491
0.0132931
0.0123235
0.0133284
0.0123672
0.0133482
0.0123817
0.0133546
0.0123674
0.0133485
0.012324
0.013329
0.0122499
0.013294
0.0121424
0.0132398
0.0119978
0.0131611
0.0118104
0.0130511
0.0115721
0.012901
0.0112705
0.0126981
0.0108865
0.012424
0.0103896
0.0120494
0.0097341
0.0115272
0.00886223
0.0107851
0.00774535
0.00972769
0.00644232
0.00818696
0.00575852
0.0072667
0.010441
0.00946975
0.012051
0.0131196
0.0138361
0.0143121
0.0146229
0.0148185
0.0149325
0.0149892
0.0150067
0.0150002
0.0149817
0.0149611
0.0149458
0.0149403
0.0149462
0.0149618
0.0149827
0.0150016
0.0150085
0.0149914
0.0149352
0.0148216
0.0146265
0.0143161
0.0138404
0.0131239
0.0120548
0.0104434
0.00947115
0.0113176
0.0106571
0.0126001
0.013713
0.0145641
0.015176
0.0155937
0.0158602
0.0160124
0.0160808
0.0160916
0.0160673
0.0160269
0.0159862
0.0159569
0.0159464
0.0159572
0.0159868
0.0160278
0.0160686
0.0160933
0.0160829
0.0160149
0.0158633
0.0155972
0.01518
0.0145686
0.0137175
0.0126042
0.0113201
0.0106585
0.0119636
0.0115367
0.0129191
0.0139246
0.0147832
0.0154501
0.0159357
0.016265
0.0164664
0.0165687
0.0165991
0.0165831
0.0165439
0.0165007
0.0164686
0.0164569
0.0164688
0.0165012
0.0165447
0.0165842
0.0166005
0.0165705
0.0164687
0.0162678
0.015939
0.0154539
0.0147874
0.0139288
0.0129228
0.0119659
0.011538
0.0124569
0.0122335
0.0130747
0.0138828
0.0146544
0.015295
0.0157856
0.0161328
0.0163545
0.0164735
0.0165148
0.016504
0.0164657
0.0164212
0.0163873
0.0163749
0.0163875
0.0164216
0.0164664
0.016505
0.0165161
0.0164751
0.0163566
0.0161353
0.0157885
0.0152984
0.014658
0.0138864
0.0130777
0.0124587
0.0122345
0.012829
0.0127804
0.0131139
0.013664
0.0142732
0.0148131
0.0152406
0.015547
0.0157399
0.0158358
0.0158567
0.0158271
0.015772
0.0157141
0.0156714
0.015656
0.0156717
0.0157145
0.0157727
0.0158281
0.0158579
0.0158373
0.0157418
0.0155492
0.0152431
0.0148159
0.0142761
0.0136667
0.0131161
0.0128302
0.0127811
0.0131141
0.0131975
0.0131027
0.0133626
0.013752
0.0141254
0.0144235
0.0146255
0.0147309
0.0147514
0.0147065
0.0146202
0.0145184
0.0144253
0.0143608
0.0143379
0.014361
0.0144258
0.0145191
0.0146211
0.0147076
0.0147528
0.0147325
0.0146273
0.0144255
0.0141276
0.0137542
0.0133646
0.0131041
0.0131149
0.0131979
0.0133414
0.0135054
0.0131008
0.0130792
0.0132214
0.0133827
0.0134969
0.0135366
0.0134967
0.0133864
0.0132248
0.0130375
0.0128527
0.0126976
0.0125947
0.0125588
0.012595
0.0126981
0.0128534
0.0130383
0.0132258
0.0133875
0.013498
0.013538
0.0134984
0.0133843
0.0132229
0.0130804
0.0131016
0.0133418
0.0135058
0.0135256
0.0137252
0.013137
0.012885
0.0127955
0.012735
0.0126391
0.01248
0.0122521
0.0119657
0.0116429
0.0113136
0.0110115
0.0107685
0.0106113
0.0105569
0.0106115
0.010769
0.0110121
0.0113143
0.0116437
0.0119666
0.012253
0.012481
0.0126401
0.0127359
0.0127963
0.0128857
0.0131374
0.0135259
0.0137255
0.0136708
0.0138758
0.0132065
0.0127983
0.0125296
0.012279
0.0119876
0.0116302
0.0112042
0.0107237
0.0102168
0.0097214
0.00927984
0.00893212
0.00871013
0.00863393
0.00871033
0.00893249
0.00928032
0.00972193
0.0102173
0.0107243
0.0112048
0.0116308
0.0119881
0.0122796
0.0125301
0.0127986
0.0132066
0.013671
0.013876
0.0137779
0.0139737
0.0132869
0.0127915
0.0124091
0.0120258
0.0115869
0.0110702
0.0104757
0.00982165
0.00914272
0.00848636
0.00790623
0.00745298
0.00716565
0.00706743
0.00716581
0.00745325
0.00790657
0.00848671
0.00914306
0.00982198
0.010476
0.0110706
0.0115872
0.0120261
0.0124093
0.0127916
0.013287
0.0137781
0.013974
0.0138507
0.0140334
0.0133581
0.0128225
0.01238
0.0119204
0.011391
0.0107712
0.0100621
0.00928446
0.00847723
0.00769536
0.00700306
0.00646214
0.00611985
0.00600305
0.00611996
0.00646233
0.00700327
0.00769557
0.00847741
0.00928463
0.0100623
0.0107713
0.0113912
0.0119205
0.0123801
0.0128225
0.0133582
0.0138508
0.0140337
0.0138954
0.0140669
0.0134098
0.012859
0.0123896
0.0118929
0.0113172
0.0106424
0.00987043
0.00902253
0.0081396
0.00728056
0.0065163
0.00591705
0.00553727
0.00540763
0.00553735
0.00591718
0.00651643
0.00728068
0.0081397
0.00902261
0.00987051
0.0106425
0.0113172
0.0118929
0.0123896
0.0128591
0.0134099
0.0138955
0.0140671
0.0139188
0.0140831
0.0134399
0.0128848
0.012405
0.0118929
0.0112973
0.0105985
0.0097983
0.00891843
0.00800033
0.00710437
0.00630446
0.00567526
0.00527564
0.00513911
0.00527571
0.00567536
0.00630456
0.00710445
0.00800038
0.00891848
0.00979834
0.0105985
0.0112974
0.0118929
0.012405
0.0128848
0.01344
0.013919
0.0140834
0.0139261
0.0140879
0.0134497
0.0128937
0.0124114
0.0118953
0.0112944
0.010589
0.00978108
0.00889243
0.00796458
0.00705826
0.00624816
0.00561021
0.00520468
0.00506607
0.00520474
0.0056103
0.00624825
0.00705833
0.00796462
0.00889246
0.00978111
0.010589
0.0112944
0.0118953
0.0124114
0.0128937
0.0134497
0.0139262
0.0140882
0.0139188
0.0140831
0.0134399
0.0128848
0.012405
0.0118929
0.0112973
0.0105985
0.00979828
0.00891842
0.00800031
0.00710436
0.00630446
0.00567527
0.00527566
0.00513913
0.00527572
0.00567537
0.00630456
0.00710444
0.00800037
0.00891846
0.00979832
0.0105985
0.0112974
0.0118929
0.012405
0.0128848
0.01344
0.013919
0.0140834
0.0138954
0.0140669
0.0134099
0.0128591
0.0123896
0.0118929
0.0113172
0.0106424
0.00987042
0.00902251
0.0081396
0.00728057
0.00651633
0.00591711
0.00553734
0.00540771
0.00553741
0.00591723
0.00651645
0.00728067
0.00813968
0.00902258
0.00987047
0.0106425
0.0113172
0.0118929
0.0123896
0.0128591
0.0134099
0.0138955
0.0140671
0.0138507
0.0140335
0.0133582
0.0128225
0.0123801
0.0119205
0.0113911
0.0107712
0.0100621
0.00928447
0.00847726
0.00769544
0.00700318
0.00646231
0.00612005
0.00600325
0.00612014
0.00646247
0.00700336
0.00769561
0.00847741
0.00928459
0.0100622
0.0107713
0.0113911
0.0119205
0.0123801
0.0128225
0.0133582
0.0138509
0.0140337
0.013778
0.0139738
0.0132871
0.0127916
0.0124093
0.012026
0.011587
0.0110703
0.0104758
0.00982175
0.00914286
0.00848656
0.0079065
0.00745331
0.00716602
0.00706781
0.00716615
0.00745354
0.00790677
0.00848684
0.00914312
0.00982199
0.010476
0.0110705
0.0115872
0.0120261
0.0124094
0.0127917
0.0132871
0.0137782
0.0139741
0.013671
0.0138759
0.0132068
0.0127986
0.0125299
0.0122793
0.0119878
0.0116305
0.0112044
0.0107239
0.0102171
0.00972175
0.00928026
0.00893259
0.00871062
0.00863442
0.00871078
0.00893289
0.00928064
0.00972216
0.0102175
0.0107243
0.0112048
0.0116309
0.0119882
0.0122796
0.0125302
0.0127988
0.0132069
0.0136712
0.0138762
0.013526
0.0137255
0.0131375
0.0128856
0.012796
0.0127355
0.0126395
0.0124804
0.0122525
0.0119661
0.0116433
0.0113141
0.0110119
0.010769
0.0106118
0.0105575
0.010612
0.0107694
0.0110124
0.0113146
0.0116439
0.0119667
0.0122532
0.0124811
0.0126402
0.0127361
0.0127965
0.012886
0.0131378
0.0135262
0.0137258
0.0133419
0.0135059
0.0131016
0.01308
0.0132222
0.0133835
0.0134975
0.0135372
0.0134973
0.0133869
0.0132253
0.013038
0.0128532
0.0126982
0.0125952
0.0125593
0.0125955
0.0126986
0.0128538
0.0130387
0.0132261
0.0133878
0.0134983
0.0135383
0.0134986
0.0133845
0.0132232
0.0130808
0.0131021
0.0133423
0.0135062
0.0131149
0.013198
0.0131037
0.0133637
0.0137531
0.0141264
0.0144244
0.0146263
0.0147317
0.0147521
0.0147071
0.0146208
0.014519
0.0144259
0.0143614
0.0143384
0.0143616
0.0144263
0.0145196
0.0146216
0.0147081
0.0147533
0.014733
0.0146277
0.0144259
0.014128
0.0137547
0.0133651
0.0131048
0.0131155
0.0131985
0.0128299
0.0127811
0.0131152
0.0136653
0.0142745
0.0148143
0.0152417
0.0155481
0.0157409
0.0158367
0.0158575
0.015828
0.0157728
0.0157149
0.0156722
0.0156567
0.0156724
0.0157153
0.0157734
0.0158288
0.0158586
0.015838
0.0157425
0.0155499
0.0152438
0.0148166
0.0142768
0.0136675
0.0131169
0.0128309
0.0127817
0.012458
0.0122344
0.0130761
0.0138844
0.0146559
0.0152965
0.0157869
0.0161341
0.0163558
0.0164747
0.0165159
0.0165051
0.0164668
0.0164222
0.0163883
0.0163759
0.0163885
0.0164226
0.0164674
0.016506
0.016517
0.0164761
0.0163576
0.0161363
0.0157895
0.0152994
0.014659
0.0138874
0.0130787
0.0124595
0.0122353
0.0119648
0.0115376
0.0129206
0.0139262
0.0147849
0.0154518
0.0159373
0.0162665
0.016468
0.0165702
0.0166005
0.0165845
0.0165452
0.016502
0.0164698
0.0164581
0.01647
0.0165024
0.0165458
0.0165854
0.0166017
0.0165718
0.01647
0.0162691
0.0159403
0.0154553
0.0147887
0.0139301
0.012924
0.0119669
0.0115388
0.0113187
0.0106579
0.0126016
0.0137146
0.0145658
0.0151777
0.0155954
0.015862
0.0160141
0.0160825
0.0160933
0.0160689
0.0160285
0.0159877
0.0159583
0.0159478
0.0159585
0.0159881
0.0160291
0.0160699
0.0160946
0.0160843
0.0160164
0.0158648
0.0155988
0.0151817
0.0145702
0.0137191
0.0126056
0.0113212
0.0106593
0.0104418
0.00947033
0.0120521
0.0131208
0.0138375
0.0143135
0.0146244
0.01482
0.0149341
0.0149907
0.0150082
0.0150016
0.014983
0.0149624
0.014947
0.0149415
0.0149473
0.0149629
0.0149838
0.0150027
0.0150098
0.0149927
0.0149366
0.014823
0.014628
0.0143176
0.0138419
0.0131252
0.0120559
0.0104441
0.00947162
0.00818583
0.00726607
0.00972575
0.0107828
0.011525
0.0120473
0.0124222
0.0126966
0.0128998
0.0130503
0.0131605
0.0132395
0.013294
0.0133293
0.013349
0.0133554
0.0133492
0.0133298
0.0132948
0.0132405
0.0131619
0.013052
0.0129019
0.012699
0.0124249
0.0120503
0.0115281
0.0107858
0.00972817
0.00818719
0.00726682
0.00644175
0.00575815
0.00774436
0.00886092
0.00973269
0.0103882
0.0108852
0.0112694
0.0115712
0.0118097
0.0119973
0.0121421
0.0122498
0.0123241
0.0123678
0.0123822
0.012368
0.0123245
0.0122504
0.012143
0.0119984
0.011811
0.0115727
0.0112712
0.0108871
0.0103902
0.00973463
0.00886265
0.00774563
0.00644244
0.00575856
)
