
961
(
(0.306791 -0.000103886 1.23382e-05)
(0.414471 -0.000180946 -6.36161e-05)
(0.607999 -0.0001239 -0.000236301)
(0.432029 -6.17341e-05 -8.43779e-05)
(0.480265 -0.000250722 -0.000202266)
(0.69081 -0.000182427 -0.000448465)
(0.526203 -0.000259349 -0.000294278)
(0.74528 -0.000196277 -0.000578247)
(0.56061 -0.000233691 -0.000336268)
(0.786524 -0.000188302 -0.000639397)
(0.586948 -0.000193966 -0.000342997)
(0.81919 -0.000170384 -0.000652778)
(0.607743 -0.000152664 -0.000330094)
(0.845843 -0.000149505 -0.00063764)
(0.624581 -0.000115495 -0.000308327)
(0.867992 -0.000128769 -0.000608059)
(0.638411 -8.46082e-05 -0.000284199)
(0.886542 -0.000109389 -0.000573292)
(0.649804 -6.02247e-05 -0.000261296)
(0.902046 -9.15483e-05 -0.000538964)
(0.659102 -4.16387e-05 -0.000241382)
(0.914841 -7.49621e-05 -0.000508208)
(0.666516 -2.78023e-05 -0.000225168)
(0.925134 -5.92182e-05 -0.000482567)
(0.672178 -1.76184e-05 -0.0002128)
(0.93305 -4.39505e-05 -0.000462647)
(0.676173 -1.00587e-05 -0.000204167)
(0.938664 -2.89041e-05 -0.000448552)
(0.678552 -4.18788e-06 -0.000199086)
(0.94202 -1.39372e-05 -0.000440184)
(0.679344 8.49386e-07 -0.000197411)
(0.943139 1.00087e-06 -0.000437417)
(0.678559 5.85993e-06 -0.000199088)
(0.942029 1.5906e-05 -0.000440197)
(0.676186 1.16512e-05 -0.000204171)
(0.938682 3.07753e-05 -0.000448579)
(0.672198 1.90837e-05 -0.000212807)
(0.933076 4.5666e-05 -0.000462686)
(0.666542 2.90978e-05 -0.000225178)
(0.925168 6.07277e-05 -0.000482621)
(0.659134 4.27305e-05 -0.000241396)
(0.914883 7.62272e-05 -0.000508278)
(0.649841 6.10893e-05 -0.000261315)
(0.902093 9.2544e-05 -0.000539053)
(0.638452 8.52346e-05 -0.000284228)
(0.886594 0.000110107 -0.000573405)
(0.624624 0.000115888 -0.00030837)
(0.868046 0.000129218 -0.000608204)
(0.607787 0.000152844 -0.000330158)
(0.845899 0.000149713 -0.000637826)
(0.586991 0.000193969 -0.00034309)
(0.819244 0.000170393 -0.000653016)
(0.560651 0.000233565 -0.000336396)
(0.786574 0.000188164 -0.000639698)
(0.526238 0.000259169 -0.000294444)
(0.745325 0.000196073 -0.000578624)
(0.480291 0.000250584 -0.000202461)
(0.690847 0.000182262 -0.000448922)
(0.414487 0.000180859 -6.38111e-05)
(0.608023 0.000123785 -0.000236796)
(0.3068 0.000103819 1.21871e-05)
(0.432042 6.16478e-05 -8.47615e-05)
(0.718978 2.85185e-05 -0.000645879)
(0.51675 2.82034e-05 -0.000389203)
(0.800257 1.51379e-05 -0.000869805)
(0.848171 -8.50609e-07 -0.000989341)
(0.884313 -2.4091e-05 -0.00104338)
(0.914091 -4.94404e-05 -0.00105384)
(0.939444 -7.22742e-05 -0.00103678)
(0.961281 -8.9628e-05 -0.00100443)
(0.980096 -0.000100011 -0.000965612)
(0.996175 -0.000102922 -0.000926265)
(1.00968 -9.85258e-05 -0.000890127)
(1.0207 -8.7458e-05 -0.000859345)
(1.02926 -7.06893e-05 -0.000835006)
(1.03539 -4.94398e-05 -0.000817555)
(1.03907 -2.51089e-05 -0.000807102)
(1.0403 7.82272e-07 -0.000803631)
(1.03908 2.66449e-05 -0.000807124)
(1.03541 5.08918e-05 -0.000817601)
(1.02929 7.20083e-05 -0.000835077)
(1.02073 8.86035e-05 -0.000859444)
(1.00972 9.94695e-05 -0.000890258)
(0.996219 0.000103648 -0.000926434)
(0.980143 0.00010052 -0.000965827)
(0.961329 8.99331e-05 -0.0010047)
(0.939492 7.24033e-05 -0.00103712)
(0.914137 4.94294e-05 -0.00105425)
(0.884357 2.39799e-05 -0.00104388)
(0.848211 6.96534e-07 -0.000989979)
(0.800292 -1.52594e-05 -0.000870607)
(0.719004 -2.86071e-05 -0.000646816)
(0.516766 -2.82748e-05 -0.000389964)
(0.787656 6.5931e-05 -0.00110737)
(0.567248 4.7838e-05 -0.000759237)
(0.87235 6.57291e-05 -0.0012915)
(0.918844 4.80273e-05 -0.00136733)
(0.952541 1.68644e-05 -0.00139012)
(0.980062 -1.99373e-05 -0.00138141)
(1.00366 -5.54525e-05 -0.00135372)
(1.02425 -8.48208e-05 -0.00131585)
(1.04226 -0.000105192 -0.00127417)
(1.05786 -0.000115275 -0.00123319)
(1.07112 -0.000114933 -0.00119592)
(1.08204 -0.000104871 -0.0011642)
(1.09061 -8.63991e-05 -0.00113905)
(1.09677 -6.12659e-05 -0.00112096)
(1.10048 -3.15292e-05 -0.00111008)
(1.10173 5.51443e-07 -0.00110646)
(1.10049 3.26094e-05 -0.0011101)
(1.09678 6.22796e-05 -0.00112099)
(1.09063 8.73079e-05 -0.00113911)
(1.08207 0.000105645 -0.00116428)
(1.07115 0.000115552 -0.00119605)
(1.05789 0.00011573 -0.00123337)
(1.0423 0.000105488 -0.00127441)
(1.02429 8.49743e-05 -0.00131616)
(1.0037 5.54899e-05 -0.00135413)
(0.980098 1.98913e-05 -0.00138192)
(0.952573 -1.69591e-05 -0.00139075)
(0.918873 -4.81243e-05 -0.00136813)
(0.872376 -6.57728e-05 -0.00129254)
(0.787677 -6.59446e-05 -0.00110864)
(0.567262 -4.78565e-05 -0.0007603)
(0.839179 3.97699e-05 -0.00144341)
(0.603838 3.03933e-05 -0.00102611)
(0.929397 2.91583e-05 -0.00159982)
(0.97694 3.45886e-07 -0.00163804)
(1.01008 -3.77128e-05 -0.00163026)
(1.03659 -7.81537e-05 -0.00159983)
(1.05916 -0.000114921 -0.00155772)
(1.07888 -0.000143642 -0.00151061)
(1.0962 -0.000161641 -0.00146308)
(1.11131 -0.000167683 -0.00141833)
(1.12424 -0.000161676 -0.0013785)
(1.13496 -0.000144423 -0.00134495)
(1.1434 -0.000117416 -0.00131847)
(1.14949 -8.26587e-05 -0.00129943)
(1.15317 -4.2532e-05 -0.00128799)
(1.15441 3.37817e-07 -0.00128417)
(1.15318 4.31915e-05 -0.00128799)
(1.1495 8.32708e-05 -0.00129944)
(1.14341 0.000117954 -0.00131849)
(1.13498 0.000144867 -0.001345)
(1.12426 0.000162013 -0.00137859)
(1.11134 0.000167911 -0.00141848)
(1.09623 0.000161767 -0.00146331)
(1.0789 0.000143682 -0.00151093)
(1.05918 0.000114902 -0.00155813)
(1.03661 7.81037e-05 -0.00160036)
(1.0101 3.76617e-05 -0.00163093)
(0.976957 -3.61884e-07 -0.0016389)
(0.929412 -2.91032e-05 -0.00160095)
(0.839193 -3.96902e-05 -0.00144483)
(0.603849 -3.03455e-05 -0.00102732)
(0.88035 -7.41972e-06 -0.00161012)
(0.632385 3.2004e-06 -0.00115427)
(0.976797 -4.38035e-05 -0.00176013)
(1.02684 -9.49402e-05 -0.00178075)
(1.06082 -0.000146395 -0.00175489)
(1.08745 -0.000192921 -0.00170912)
(1.10989 -0.000229969 -0.00165487)
(1.1294 -0.000254513 -0.00159837)
(1.14654 -0.000264913 -0.00154351)
(1.16151 -0.000260679 -0.00149292)
(1.17436 -0.00024227 -0.00144834)
(1.18504 -0.000210921 -0.00141093)
(1.19347 -0.000168491 -0.00138138)
(1.19957 -0.000117324 -0.00136009)
(1.20327 -6.01269e-05 -0.00134726)
(1.2045 1.48934e-07 -0.00134297)
(1.20327 6.04153e-05 -0.00134724)
(1.19958 0.000117584 -0.00136006)
(1.19348 0.000168708 -0.00138135)
(1.18505 0.000211085 -0.00141091)
(1.17438 0.000242376 -0.00144837)
(1.16153 0.000260728 -0.00149301)
(1.14656 0.000264914 -0.00154368)
(1.12942 0.000254481 -0.00159863)
(1.1099 0.000229928 -0.00165523)
(1.08746 0.000192894 -0.00170959)
(1.06083 0.000146404 -0.0017555)
(1.02685 9.50105e-05 -0.00178155)
(0.976804 4.39502e-05 -0.00176119)
(0.880358 7.57876e-06 -0.00161146)
(0.632392 -3.09745e-06 -0.00115542)
(0.913113 -5.41351e-05 -0.00160304)
(0.654549 -2.159e-05 -0.001145)
(1.01606 -0.000122133 -0.00176045)
(1.06962 -0.00020208 -0.00178311)
(1.10551 -0.000272957 -0.00175457)
(1.13325 -0.000330292 -0.00170365)
(1.15638 -0.000370632 -0.00164315)
(1.17639 -0.000392225 -0.00157997)
(1.19392 -0.000394622 -0.00151838)
(1.20922 -0.000378351 -0.00146121)
(1.22236 -0.000344716 -0.00141044)
(1.23329 -0.000295662 -0.00136747)
(1.24193 -0.000233649 -0.00133325)
(1.24818 -0.000161548 -0.00130841)
(1.25197 -8.25357e-05 -0.00129336)
(1.25325 -4.2638e-09 -0.00128831)
(1.25198 8.25237e-05 -0.00129332)
(1.24819 0.000161526 -0.00130834)
(1.24193 0.000233613 -0.00133316)
(1.23329 0.000295609 -0.00136739)
(1.22237 0.000344647 -0.0014104)
(1.20923 0.000378271 -0.00146122)
(1.19393 0.000394541 -0.00151847)
(1.1764 0.000392156 -0.00158015)
(1.15639 0.000370593 -0.00164342)
(1.13326 0.000330301 -0.00170402)
(1.10552 0.000273026 -0.00175505)
(1.06962 0.000202223 -0.00178373)
(1.01606 0.000122347 -0.00176129)
(0.913118 5.43457e-05 -0.00160411)
(0.654554 2.17271e-05 -0.00114592)
(0.938084 -8.86661e-05 -0.00146096)
(0.671004 -3.81689e-05 -0.00103514)
(1.04733 -0.000186124 -0.00162428)
(1.10507 -0.000295557 -0.00165865)
(1.14375 -0.00038906 -0.00163826)
(1.17342 -0.000461353 -0.0015911)
(1.198 -0.000509109 -0.00153069)
(1.21916 -0.000531228 -0.0014648)
(1.23765 -0.000528147 -0.00139851)
(1.25378 -0.000501339 -0.00133541)
(1.26762 -0.000453029 -0.00127818)
(1.27913 -0.000386017 -0.00122888)
(1.28824 -0.000303536 -0.00118906)
(1.29483 -0.000209154 -0.00115987)
(1.29883 -0.000106686 -0.00114205)
(1.30017 -1.12721e-07 -0.00113604)
(1.29883 0.000106462 -0.00114199)
(1.29483 0.000208934 -0.00115977)
(1.28824 0.000303323 -0.00118894)
(1.27914 0.000385816 -0.00122875)
(1.26762 0.000452846 -0.00127808)
(1.25378 0.00050118 -0.00133535)
(1.23765 0.000528021 -0.00139852)
(1.21916 0.000531147 -0.00146487)
(1.198 0.000509085 -0.00153083)
(1.17342 0.000461396 -0.00159131)
(1.14374 0.000389175 -0.00163854)
(1.10507 0.000295748 -0.00165903)
(1.04733 0.000186377 -0.0016248)
(0.938088 8.89006e-05 -0.00146166)
(0.671009 3.83197e-05 -0.00103575)
(0.955939 -0.000107429 -0.00123818)
(0.682492 -4.56064e-05 -0.000869992)
(1.07069 -0.000226539 -0.00139564)
(1.13274 -0.000360477 -0.0014406)
(1.17471 -0.000475962 -0.00143183)
(1.20694 -0.000565253 -0.00139314)
(1.23359 -0.00062393 -0.00133718)
(1.25649 -0.000650621 -0.00127196)
(1.27648 -0.000646034 -0.00120321)
(1.29391 -0.000612245 -0.0011354)
(1.30886 -0.000552265 -0.00107215)
(1.32131 -0.000469756 -0.00101648)
(1.33114 -0.000368822 -0.0009708)
(1.33826 -0.000253848 -0.00093693)
(1.34258 -0.000129406 -0.000916121)
(1.34402 -1.74726e-07 -0.000909086)
(1.34258 0.000129061 -0.000916061)
(1.33826 0.000253516 -0.00093682)
(1.33114 0.000368511 -0.000970657)
(1.32131 0.000469476 -0.00101633)
(1.30887 0.000552023 -0.00107201)
(1.29391 0.000612049 -0.00113529)
(1.27649 0.000645892 -0.00120314)
(1.25649 0.000650541 -0.00127193)
(1.23359 0.000623919 -0.00133719)
(1.20694 0.000565319 -0.00139319)
(1.17471 0.000476102 -0.00143191)
(1.13274 0.000360689 -0.00144073)
(1.07069 0.000226801 -0.00139584)
(0.955946 0.000107662 -0.0012385)
(0.682499 4.5753e-05 -0.000870288)
(0.967829 -0.000112631 -0.000986893)
(0.690026 -4.61405e-05 -0.000688838)
(1.08679 -0.000243122 -0.0011256)
(1.15266 -0.000392584 -0.00117394)
(1.19792 -0.000525329 -0.00117426)
(1.23296 -0.000630541 -0.00114435)
(1.26203 -0.000701754 -0.00109447)
(1.28708 -0.000736357 -0.00103189)
(1.30899 -0.000734498 -0.000962463)
(1.32811 -0.000698252 -0.00089126)
(1.34454 -0.000631064 -0.000822854)
(1.35821 -0.000537327 -0.000761309)
(1.36902 -0.000422029 -0.000710054)
(1.37684 -0.000290471 -0.00067172)
(1.38157 -0.00014806 -0.000648067)
(1.38316 -1.97357e-07 -0.000640063)
(1.38157 0.000147671 -0.000648012)
(1.37684 0.000290099 -0.000671617)
(1.36902 0.000421684 -0.000709917)
(1.35821 0.000537019 -0.000761155)
(1.34454 0.000630803 -0.0008227)
(1.32811 0.000698045 -0.00089112)
(1.30899 0.000734351 -0.000962341)
(1.28708 0.000736277 -0.00103179)
(1.26203 0.000701748 -0.00109437)
(1.23296 0.000630611 -0.00114425)
(1.19792 0.000525471 -0.00117415)
(1.15266 0.000392791 -0.00117384)
(1.0868 0.000243371 -0.00112553)
(0.967838 0.000112845 -0.000986903)
(0.690035 4.62711e-05 -0.000688882)
(0.975206 -0.000108881 -0.000743994)
(0.694689 -4.27672e-05 -0.000516575)
(1.09698 -0.000241234 -0.000856909)
(1.16571 -0.000395989 -0.000901786)
(1.21373 -0.00053833 -0.000906855)
(1.25133 -0.000655093 -0.000884006)
(1.28278 -0.000737677 -0.000840516)
(1.31004 -0.000781676 -0.000782126)
(1.33401 -0.000785937 -0.000714089)
(1.35503 -0.000751789 -0.000641581)
(1.37316 -0.000682499 -0.000569801)
(1.38828 -0.000582809 -0.000503801)
(1.40023 -0.000458469 -0.000448094)
(1.40887 -0.000315742 -0.00040618)
(1.41409 -0.000160952 -0.000380298)
(1.41583 -1.94196e-07 -0.000371551)
(1.41409 0.000160569 -0.000380253)
(1.40887 0.000315374 -0.000406095)
(1.40023 0.000458128 -0.000447976)
(1.38828 0.000582504 -0.000503664)
(1.37316 0.000682239 -0.000569654)
(1.35503 0.000751581 -0.000641433)
(1.33401 0.000785787 -0.00071394)
(1.31005 0.000781591 -0.00078197)
(1.28278 0.000737662 -0.000840343)
(1.25133 0.000655152 -0.000883806)
(1.21373 0.000538455 -0.000906627)
(1.16572 0.000396173 -0.00090154)
(1.09699 0.000241454 -0.000856671)
(0.975217 0.000109065 -0.000743806)
(0.694699 4.28764e-05 -0.000516458)
(0.979479 -0.00010015 -0.000529827)
(0.697409 -3.75644e-05 -0.000365901)
(1.10291 -0.000227592 -0.000616171)
(1.17349 -0.000379168 -0.000653964)
(1.22344 -0.000523082 -0.000660722)
(1.26298 -0.00064512 -0.000643694)
(1.29635 -0.000735266 -0.00060745)
(1.32549 -0.00078753 -0.000555942)
(1.3513 -0.000799261 -0.000493265)
(1.3741 -0.000770573 -0.000423993)
(1.39388 -0.000703936 -0.000353278)
(1.41047 -0.000603833 -0.000286666)
(1.42361 -0.000476332 -0.000229522)
(1.43311 -0.000328476 -0.000186201)
(1.43883 -0.000167503 -0.000159431)
(1.44074 -1.79015e-07 -0.000150404)
(1.43883 0.000167149 -0.000159398)
(1.43311 0.000328135 -0.000186136)
(1.42361 0.000476013 -0.00022943)
(1.41047 0.000603544 -0.000286554)
(1.39388 0.000703686 -0.000353152)
(1.3741 0.000770368 -0.000423856)
(1.35131 0.000799108 -0.000493114)
(1.3255 0.000787436 -0.000555771)
(1.29635 0.000735238 -0.00060725)
(1.26298 0.000645159 -0.000643458)
(1.22345 0.000523181 -0.000660448)
(1.1735 0.00037932 -0.000653663)
(1.10292 0.000227776 -0.000615865)
(0.979492 0.000100304 -0.000529552)
(0.69742 3.76529e-05 -0.000365709)
(0.981781 -8.92757e-05 -0.000352315)
(0.698891 -3.17524e-05 -0.000241725)
(1.10609 -0.000208316 -0.000414241)
(1.17771 -0.000351804 -0.000443584)
(1.22884 -0.000491543 -0.000450381)
(1.26961 -0.000613195 -0.000438712)
(1.30425 -0.00070618 -0.000411163)
(1.33471 -0.000763574 -0.00037014)
(1.36185 -0.000781622 -0.000318413)
(1.386 -0.000759331 -0.000259422)
(1.4071 -0.000698201 -0.000197445)
(1.42491 -0.000602026 -0.000137556)
(1.43909 -0.000476642 -8.51274e-05)
(1.44935 -0.000329382 -4.48676e-05)
(1.45553 -0.000168112 -1.98556e-05)
(1.45759 -1.60358e-07 -1.14159e-05)
(1.45553 0.000167795 -1.98325e-05)
(1.44935 0.000329075 -4.48223e-05)
(1.43909 0.000476352 -8.50618e-05)
(1.42491 0.000601762 -0.000137473)
(1.4071 0.000697967 -0.000197348)
(1.386 0.000759135 -0.000259311)
(1.36186 0.000781471 -0.000318285)
(1.33471 0.000763474 -0.000369988)
(1.30425 0.000706139 -0.000410981)
(1.26961 0.000613215 -0.000438495)
(1.22884 0.000491615 -0.000450129)
(1.17772 0.000351923 -0.000443303)
(1.1061 0.000208468 -0.000413948)
(0.981795 8.94028e-05 -0.00035204)
(0.698902 3.18247e-05 -0.000241526)
(0.982918 -7.88229e-05 -0.000210614)
(0.69963 -2.64118e-05 -0.000143451)
(1.10765 -0.00018908 -0.000250513)
(1.17981 -0.000323425 -0.000270661)
(1.23155 -0.000456748 -0.000276233)
(1.273 -0.000574935 -0.000269322)
(1.30836 -0.000667333 -0.000251259)
(1.33957 -0.000726646 -0.000223354)
(1.3675 -0.000748548 -0.000187245)
(1.39247 -0.000731374 -0.000145117)
(1.4144 -0.000675926 -9.98799e-05)
(1.43302 -0.000585358 -5.52303e-05)
(1.44793 -0.000465027 -1.53854e-05)
(1.45875 -0.000322097 1.56759e-05)
(1.46527 -0.000164591 3.51533e-05)
(1.46744 -1.42221e-07 4.17501e-05)
(1.46527 0.00016431 3.51671e-05)
(1.45875 0.000321824 1.57032e-05)
(1.44792 0.000464769 -1.53452e-05)
(1.43302 0.00058512 -5.51789e-05)
(1.41441 0.000675712 -9.98181e-05)
(1.39247 0.000731191 -0.000145044)
(1.36751 0.000748402 -0.000187158)
(1.33957 0.000726544 -0.000223248)
(1.30836 0.000667283 -0.000251128)
(1.273 0.000574939 -0.000269163)
(1.23156 0.000456799 -0.000276046)
(1.17982 0.000323518 -0.00027045)
(1.10766 0.000189206 -0.000250288)
(0.982932 7.89315e-05 -0.000210396)
(0.699641 2.64729e-05 -0.00014329)
(0.98341 -7.12961e-05 -9.70454e-05)
(0.699951 -2.26469e-05 -6.56661e-05)
(1.10833 -0.000175047 -0.000116581)
(1.18072 -0.000302456 -0.000126882)
(1.23275 -0.00043042 -0.000130058)
(1.27451 -0.000545054 -0.000126976)
(1.31021 -0.000635785 -0.000118192)
(1.34178 -0.000695225 -0.000104278)
(1.37009 -0.000718836 -8.5989e-05)
(1.39546 -0.000704657 -6.437e-05)
(1.4178 -0.000653156 -4.08621e-05)
(1.43684 -0.00056712 -1.736e-05)
(1.45212 -0.000451534 3.88279e-06)
(1.46325 -0.000313266 2.06331e-05)
(1.46998 -0.000160233 3.1225e-05)
(1.47222 -1.28396e-07 3.48271e-05)
(1.46998 0.000159978 3.12301e-05)
(1.46325 0.00031302 2.06432e-05)
(1.45212 0.000451299 3.8976e-06)
(1.43684 0.000566902 -1.7341e-05)
(1.41781 0.000652959 -4.08387e-05)
(1.39546 0.000704485 -6.43411e-05)
(1.37009 0.000718694 -8.59521e-05)
(1.34178 0.000695123 -0.00010423)
(1.31021 0.000635729 -0.000118129)
(1.27452 0.000545046 -0.000126897)
(1.23276 0.000430454 -0.000129961)
(1.18073 0.000302531 -0.000126769)
(1.10834 0.000175158 -0.000116456)
(0.983423 7.13932e-05 -9.69191e-05)
(0.699962 2.27014e-05 -6.55703e-05)
(0.983543 -6.85637e-05 1.14517e-06)
(0.700039 -2.12922e-05 8.65271e-07)
(1.10851 -0.00016993 1.15941e-06)
(1.18098 -0.000294776 1.11909e-06)
(1.23308 -0.000420693 1.07023e-06)
(1.27494 -0.000533884 1.0204e-06)
(1.31073 -0.000623817 9.70508e-07)
(1.3424 -0.000683101 9.20294e-07)
(1.37082 -0.000707146 8.69679e-07)
(1.3963 -0.000693921 8.19113e-07)
(1.41877 -0.0006438 7.69632e-07)
(1.43792 -0.000559458 7.22919e-07)
(1.45332 -0.000445751 6.81362e-07)
(1.46455 -0.000309426 6.4793e-07)
(1.47133 -0.000158321 6.25666e-07)
(1.47359 -1.23189e-07 6.16838e-07)
(1.47133 0.000158077 6.2227e-07)
(1.46455 0.000309189 6.41087e-07)
(1.45332 0.000445525 6.71109e-07)
(1.43792 0.000559246 7.09569e-07)
(1.41877 0.000643607 7.53894e-07)
(1.3963 0.000693751 8.02069e-07)
(1.37082 0.000707004 8.52659e-07)
(1.3424 0.000682995 9.04673e-07)
(1.31073 0.000623755 9.57533e-07)
(1.27494 0.000533868 1.01108e-06)
(1.23309 0.000420718 1.06542e-06)
(1.18098 0.000294842 1.11984e-06)
(1.10852 0.000170033 1.16742e-06)
(0.983557 6.86552e-05 1.16223e-06)
(0.700049 2.13437e-05 8.82313e-07)
(0.98341 -7.13107e-05 9.93436e-05)
(0.699951 -2.2654e-05 6.74025e-05)
(1.10833 -0.000175073 0.000118908)
(1.18072 -0.000302493 0.000129127)
(1.23275 -0.000430468 0.000132205)
(1.27451 -0.000545112 0.000129021)
(1.31021 -0.000635851 0.000120135)
(1.34178 -0.000695299 0.000106119)
(1.37009 -0.000718914 8.77256e-05)
(1.39546 -0.000704738 6.60024e-05)
(1.4178 -0.000653235 4.23921e-05)
(1.43684 -0.000567192 1.8793e-05)
(1.45212 -0.000451594 -2.53636e-06)
(1.46325 -0.00031331 -1.93563e-05)
(1.46998 -0.000160256 -2.99945e-05)
(1.47222 -1.28866e-07 -3.36148e-05)
(1.46998 0.00016 -3.00061e-05)
(1.46325 0.000313062 -1.93796e-05)
(1.45212 0.000451357 -2.57108e-06)
(1.43684 0.00056697 1.87478e-05)
(1.41781 0.000653032 4.23377e-05)
(1.39546 0.000704558 6.59397e-05)
(1.3701 0.000718764 8.76547e-05)
(1.34178 0.000695186 0.000106039)
(1.31021 0.000635782 0.000120046)
(1.27452 0.000545091 0.000128922)
(1.23276 0.000430489 0.000132096)
(1.18073 0.000302556 0.000129013)
(1.10834 0.000175174 0.000118795)
(0.983424 7.1402e-05 9.92466e-05)
(0.699962 2.27058e-05 6.73367e-05)
(0.982919 -7.88518e-05 0.000212933)
(0.699631 -2.6426e-05 0.000145203)
(1.10765 -0.000189131 0.000252861)
(1.17981 -0.000323499 0.000272926)
(1.23155 -0.000456843 0.000278395)
(1.273 -0.000575048 0.000271377)
(1.30836 -0.000667462 0.000253205)
(1.33957 -0.000726788 0.000225191)
(1.3675 -0.000748699 0.00018897)
(1.39247 -0.000731528 0.000146729)
(1.41441 -0.000676075 0.00010138)
(1.43302 -0.000585494 5.66258e-05)
(1.44792 -0.000465141 1.66875e-05)
(1.45874 -0.000322179 -1.44484e-05)
(1.46527 -0.000164635 -3.3975e-05)
(1.46744 -1.4479e-07 -4.05906e-05)
(1.46527 0.000164349 -3.39946e-05)
(1.45874 0.0003219 -1.44878e-05)
(1.44792 0.000464875 1.6629e-05)
(1.43302 0.000585245 5.65498e-05)
(1.41441 0.000675849 0.000101289)
(1.39247 0.000731328 0.000146622)
(1.36751 0.000748534 0.000188848)
(1.33957 0.000726664 0.00022505)
(1.30836 0.000667386 0.000253044)
(1.273 0.000575024 0.000271192)
(1.23156 0.000456864 0.000278187)
(1.17982 0.000323566 0.000272702)
(1.10766 0.000189237 0.000252634)
(0.982932 7.89482e-05 0.000212729)
(0.699641 2.64811e-05 0.000145059)
(0.981783 -8.93186e-05 0.000354662)
(0.698892 -3.17735e-05 0.000243498)
(1.10609 -0.000208391 0.000416615)
(1.17772 -0.000351911 0.000445868)
(1.22884 -0.000491678 0.000452554)
(1.26961 -0.000613357 0.000440768)
(1.30425 -0.000706363 0.0004131)
(1.33471 -0.000763772 0.000371955)
(1.36186 -0.000781829 0.000320105)
(1.386 -0.000759538 0.00026099)
(1.4071 -0.000698397 0.000198894)
(1.42491 -0.000602203 0.000138893)
(1.43909 -0.000476787 8.6369e-05)
(1.44935 -0.000329488 4.60343e-05)
(1.45553 -0.00016817 2.0974e-05)
(1.45759 -1.68123e-07 1.25162e-05)
(1.45553 0.000167837 2.09459e-05)
(1.44935 0.000329164 4.59784e-05)
(1.43909 0.000476479 8.62867e-05)
(1.42491 0.000601916 0.000138787)
(1.4071 0.000698138 0.000198767)
(1.386 0.000759313 0.000260843)
(1.36186 0.000781644 0.000319937)
(1.33471 0.000763635 0.000371762)
(1.30426 0.00070628 0.000412877)
(1.26961 0.000613333 0.000440511)
(1.22884 0.000491707 0.000452263)
(1.17772 0.00035199 0.000445552)
(1.1061 0.000208511 0.000416292)
(0.981796 8.9426e-05 0.000354368)
(0.698903 3.18356e-05 0.000243291)
(0.979482 -0.000100206 0.00053219)
(0.697411 -3.75916e-05 0.000367689)
(1.10291 -0.000227688 0.000618554)
(1.17349 -0.000379303 0.000656246)
(1.22345 -0.00052325 0.000662879)
(1.26299 -0.000645316 0.00064572)
(1.29635 -0.000735483 0.000609342)
(1.3255 -0.00078776 0.000557699)
(1.35131 -0.000799495 0.000494888)
(1.3741 -0.000770799 0.000425485)
(1.39388 -0.000704146 0.000354649)
(1.41047 -0.000604017 0.000287928)
(1.42361 -0.000476482 0.000230695)
(1.43311 -0.000328586 0.000187307)
(1.43883 -0.000167568 0.000160495)
(1.44073 -1.96335e-07 0.000151452)
(1.43883 0.000167179 0.000160457)
(1.4331 0.000328209 0.000187233)
(1.42361 0.000476125 0.000230587)
(1.41047 0.000603687 0.000287793)
(1.39389 0.000703851 0.00035449)
(1.37411 0.000770546 0.000425306)
(1.35131 0.00079929 0.000494687)
(1.3255 0.000787612 0.000557471)
(1.29636 0.000735398 0.00060908)
(1.26299 0.000645297 0.000645418)
(1.22345 0.000523291 0.000662535)
(1.1735 0.000379401 0.000655872)
(1.10292 0.00022783 0.000618172)
(0.979495 0.000100332 0.000531846)
(0.697422 3.76655e-05 0.000367447)
(0.975211 -0.000108947 0.000746339)
(0.694692 -4.27992e-05 0.000518355)
(1.09699 -0.000241348 0.000859259)
(1.16572 -0.000396144 0.000904017)
(1.21374 -0.000538518 0.000908943)
(1.25134 -0.000655306 0.000885945)
(1.28279 -0.000737906 0.000842306)
(1.31005 -0.000781911 0.00078377)
(1.33402 -0.000786168 0.000715594)
(1.35504 -0.000752007 0.000642957)
(1.37316 -0.000682696 0.000571062)
(1.38828 -0.000582979 0.000504966)
(1.40023 -0.000458608 0.000449183)
(1.40887 -0.000315846 0.000407215)
(1.41409 -0.000161021 0.0003813)
(1.41583 -2.27e-07 0.000372541)
(1.41408 0.000160572 0.00038125)
(1.40887 0.000315412 0.000407119)
(1.40023 0.000458199 0.000449048)
(1.38828 0.000582604 0.000504802)
(1.37316 0.000682365 0.000570877)
(1.35504 0.000751727 0.000642756)
(1.33402 0.000785946 0.000715378)
(1.31005 0.000781755 0.000783534)
(1.28279 0.000737821 0.00084204)
(1.25134 0.000655297 0.000885641)
(1.21374 0.000538578 0.000908599)
(1.16573 0.000396268 0.000903643)
(1.097 0.000241518 0.000858881)
(0.975224 0.000109098 0.000746008)
(0.694703 4.28903e-05 0.000518128)
(0.967838 -0.000112706 0.000989162)
(0.690033 -4.61761e-05 0.000690568)
(1.0868 -0.000243249 0.00112784)
(1.15267 -0.000392751 0.00117605)
(1.19793 -0.000525526 0.00117621)
(1.23297 -0.000630757 0.00114613)
(1.26205 -0.000701979 0.00109609)
(1.28709 -0.000736582 0.00103337)
(1.30899 -0.000734714 0.000963799)
(1.32812 -0.000698453 0.000892477)
(1.34454 -0.000631246 0.000823969)
(1.35822 -0.000537485 0.000762343)
(1.36902 -0.000422163 0.000711028)
(1.37684 -0.000290579 0.000672653)
(1.38157 -0.000148142 0.000648975)
(1.38316 -2.53207e-07 0.000640961)
(1.38157 0.000147642 0.000648914)
(1.37684 0.000290096 0.000672538)
(1.36902 0.000421709 0.00071087)
(1.35822 0.00053707 0.000762156)
(1.34454 0.000630881 0.000823767)
(1.32812 0.000698147 0.000892269)
(1.30899 0.000734474 0.00096359)
(1.28709 0.000736416 0.00103315)
(1.26205 0.000701894 0.00109586)
(1.23297 0.000630755 0.00114588)
(1.19793 0.000525602 0.00117593)
(1.15267 0.0003929 0.00117575)
(1.08681 0.00024345 0.00112756)
(0.967849 0.000112887 0.000988938)
(0.690043 4.62878e-05 0.00069043)
(0.955953 -0.00010751 0.00124029)
(0.682502 -4.5644e-05 0.000871615)
(1.0707 -0.000226674 0.0013977)
(1.13275 -0.000360649 0.0014425)
(1.17473 -0.000476158 0.00143356)
(1.20696 -0.000565464 0.0013947)
(1.23361 -0.000624146 0.00133858)
(1.25651 -0.000650837 0.00127321)
(1.2765 -0.000646243 0.00120434)
(1.29392 -0.000612442 0.00113642)
(1.30887 -0.000552448 0.00107309)
(1.32131 -0.000469922 0.00101735)
(1.33115 -0.000368969 0.000971624)
(1.33827 -0.000253976 0.000937723)
(1.34258 -0.000129514 0.000916895)
(1.34403 -2.61299e-07 0.000909852)
(1.34258 0.000128997 0.000916829)
(1.33827 0.000253476 0.000937599)
(1.33115 0.000368496 0.000971456)
(1.32131 0.000469487 0.00101716)
(1.30887 0.000552062 0.00107289)
(1.29392 0.000612115 0.00113623)
(1.2765 0.000645985 0.00120416)
(1.25651 0.000650656 0.00127305)
(1.2336 0.000624052 0.00133843)
(1.20696 0.00056546 0.00139455)
(1.17473 0.000476241 0.00143341)
(1.13275 0.000360814 0.00144237)
(1.07071 0.000226899 0.00139761)
(0.955962 0.000107717 0.00124029)
(0.68251 4.57754e-05 0.000871656)
(0.938103 -8.87472e-05 0.00146283)
(0.671018 -3.82056e-05 0.00103659)
(1.04735 -0.000186259 0.00162606)
(1.10509 -0.000295724 0.00166027)
(1.14377 -0.000389249 0.0016397)
(1.17344 -0.000461556 0.00159238)
(1.19802 -0.000509322 0.00153182)
(1.21917 -0.000531445 0.00146581)
(1.23767 -0.000528363 0.00139941)
(1.25379 -0.00050155 0.00133622)
(1.26763 -0.000453233 0.00127892)
(1.27914 -0.000386208 0.00122957)
(1.28825 -0.000303714 0.00118972)
(1.29484 -0.000209316 0.0011605)
(1.29884 -0.000106829 0.00114267)
(1.30018 -2.34745e-07 0.00113665)
(1.29884 0.000106363 0.00114261)
(1.29484 0.00020886 0.00116039)
(1.28825 0.000303276 0.00118957)
(1.27914 0.000385797 0.0012294)
(1.26763 0.000452858 0.00127876)
(1.25379 0.000501222 0.00133607)
(1.23767 0.000528092 0.0013993)
(1.21918 0.000531245 0.00146573)
(1.19802 0.000509206 0.00153178)
(1.17344 0.000461533 0.00159237)
(1.14376 0.000389319 0.00163973)
(1.10509 0.000295885 0.00166035)
(1.04735 0.000186491 0.00162624)
(0.93811 8.89684e-05 0.00146314)
(0.671025 3.83491e-05 0.00103689)
(0.913137 -5.42074e-05 0.00160459)
(0.654567 -2.1621e-05 0.00114622)
(1.01608 -0.000122255 0.0017619)
(1.06964 -0.000202232 0.0017844)
(1.10554 -0.000273132 0.00175571)
(1.13328 -0.000330486 0.00170466)
(1.15641 -0.000370842 0.00164403)
(1.17641 -0.000392447 0.00158074)
(1.19394 -0.000394851 0.00151906)
(1.20924 -0.000378582 0.00146182)
(1.22237 -0.000344945 0.001411)
(1.2333 -0.000295885 0.00136799)
(1.24194 -0.000233861 0.00133375)
(1.2482 -0.000161745 0.0013089)
(1.25199 -8.27142e-05 0.00129384)
(1.25326 -1.60896e-07 0.00128878)
(1.25199 8.23919e-05 0.00129379)
(1.2482 0.000161421 0.00130881)
(1.24194 0.000233538 0.00133364)
(1.23331 0.000295564 0.00136788)
(1.22238 0.000344634 0.0014109)
(1.20924 0.00037829 0.00146175)
(1.19394 0.00039459 0.00151903)
(1.17641 0.000392234 0.00158077)
(1.15641 0.000370696 0.00164411)
(1.13328 0.000330423 0.00170479)
(1.10554 0.000273161 0.00175593)
(1.06964 0.000202357 0.00178472)
(1.01609 0.000122465 0.00176238)
(0.913143 5.44192e-05 0.00160526)
(0.654573 2.17607e-05 0.00114682)
(0.880378 -7.47219e-06 0.00161129)
(0.632406 3.18153e-06 0.0011552)
(0.976827 -4.38991e-05 0.00176121)
(1.02687 -9.50644e-05 0.00178171)
(1.06085 -0.000146545 0.00175573)
(1.08748 -0.000193097 0.00170985)
(1.10991 -0.000230168 0.0016555)
(1.12942 -0.000254731 0.00159892)
(1.14656 -0.000265146 0.001544)
(1.16153 -0.000260922 0.00149336)
(1.17438 -0.000242517 0.00144875)
(1.18506 -0.000211166 0.00141132)
(1.19349 -0.000168728 0.00138176)
(1.19958 -0.000117548 0.00136047)
(1.20328 -6.0334e-05 0.00134763)
(1.20452 -3.64264e-08 0.00134334)
(1.20328 6.02549e-05 0.00134761)
(1.19959 0.000117451 0.00136043)
(1.19349 0.000168605 0.00138172)
(1.18506 0.000211012 0.00141129)
(1.17439 0.000242333 0.00144875)
(1.16155 0.000260715 0.00149339)
(1.14657 0.000264928 0.00154408)
(1.12943 0.000254522 0.00159906)
(1.10992 0.000229993 0.00165571)
(1.08749 0.00019298 0.00171013)
(1.06085 0.000146505 0.0017561)
(1.02687 9.51175e-05 0.00178223)
(0.976831 4.40481e-05 0.00176194)
(0.880386 7.64178e-06 0.00161227)
(0.632413 -3.06833e-06 0.00115606)
(0.839209 3.97463e-05 0.00144417)
(0.60386 3.0392e-05 0.00102672)
(0.929427 2.90996e-05 0.00160053)
(0.97697 2.59182e-07 0.00163868)
(1.01011 -3.78304e-05 0.00163082)
(1.03662 -7.83033e-05 0.00160032)
(1.05918 -0.000115102 0.00155814)
(1.0789 -0.000143849 0.00151099)
(1.09622 -0.000161871 0.00146342)
(1.11133 -0.000167929 0.00141865)
(1.12426 -0.000161931 0.0013788)
(1.13497 -0.000144681 0.00134526)
(1.14341 -0.000117669 0.00131878)
(1.1495 -8.29017e-05 0.00129975)
(1.15319 -4.27596e-05 0.00128831)
(1.15442 1.29913e-07 0.0012845)
(1.15319 4.30065e-05 0.00128832)
(1.14951 8.31109e-05 0.00129977)
(1.14342 0.00011782 0.00131882)
(1.13499 0.00014476 0.00134533)
(1.12428 0.000161932 0.00137891)
(1.11135 0.000167854 0.0014188)
(1.09624 0.000161733 0.00146363)
(1.07892 0.000143669 0.00151124)
(1.0592 0.000114909 0.00155846)
(1.03663 7.81283e-05 0.00160071)
(1.01012 3.7702e-05 0.00163131)
(0.97698 -3.11282e-07 0.00163932)
(0.929437 -2.9053e-05 0.0016014)
(0.83922 -3.96593e-05 0.0014453)
(0.60387 -3.03339e-05 0.0010277)
(0.787684 6.5928e-05 0.00110771)
(0.567269 4.78509e-05 0.000759489)
(0.87238 6.56917e-05 0.00129185)
(0.918873 4.79571e-05 0.00136767)
(0.95257 1.67563e-05 0.00139043)
(0.980089 -2.00852e-05 0.00138169)
(1.00368 -5.56382e-05 0.00135398)
(1.02428 -8.50399e-05 0.00131609)
(1.04228 -0.000105438 0.0012744)
(1.05787 -0.00011554 0.00123343)
(1.07113 -0.000115211 0.00119617)
(1.08206 -0.000105153 0.00116446)
(1.09062 -8.66768e-05 0.00113933)
(1.09678 -6.15335e-05 0.00112126)
(1.10049 -3.17812e-05 0.00111041)
(1.10174 3.19419e-07 0.0011068)
(1.1005 3.24003e-05 0.00111044)
(1.09679 6.2095e-05 0.00112134)
(1.09064 8.71485e-05 0.00113945)
(1.08208 0.00010551 0.00116462)
(1.07116 0.000115441 0.00119637)
(1.0579 0.000115641 0.00123368)
(1.04231 0.000105418 0.0012747)
(1.02431 8.49219e-05 0.00131643)
(1.00371 5.54531e-05 0.00135437)
(0.980114 1.98689e-05 0.00138215)
(0.952591 -1.69682e-05 0.00139096)
(0.918893 -4.81239e-05 0.00136833)
(0.872398 -6.57695e-05 0.00129271)
(0.7877 -6.59511e-05 0.00110878)
(0.56728 -4.78688e-05 0.00076039)
(0.718999 2.84667e-05 0.000645877)