/*--------------------------------*- C++ -*----------------------------------*\
  =========                 |
  \\      /  F ield         | OpenFOAM: The Open Source CFD Toolbox
   \\    /   O peration     | Website:  https://openfoam.org
    \\  /    A nd           | Version:  6
     \\/     M anipulation  |
\*---------------------------------------------------------------------------*/
FoamFile
{
    version     2.0;
    format      ascii;
    class       volScalarField;
    location    "0.07";
    object      epsilon;
}
// * * * * * * * * * * * * * * * * * * * * * * * * * * * * * * * * * * * * * //

dimensions      [0 2 -3 0 0 0 0];

internalField   nonuniform List<scalar> 
3081
(
2.45809
2.4406
2.42466
2.41016
2.39698
2.38504
2.37423
2.36446
2.35564
2.34771
2.34057
2.33414
2.32832
2.32329
2.31896
2.31521
2.31197
2.30918
2.3068
2.30478
2.3031
2.30171
2.3006
2.29974
2.2991
2.29867
2.29843
2.29836
2.29846
2.29869
2.29907
2.29957
2.30019
2.30092
2.30174
2.30267
2.30368
2.30477
2.30595
2.30719
2.30851
2.30989
2.31133
2.31283
2.31439
2.316
2.31766
2.31937
2.32112
2.32292
2.32476
2.32664
2.32855
2.3305
2.33248
2.3345
2.33654
1.19372
1.18633
1.17958
1.17343
1.16782
1.16273
1.1581
1.15389
1.15008
1.14664
1.14352
1.1407
1.13817
1.13597
1.13407
1.13241
1.13095
1.12967
1.12855
1.12757
1.12672
1.12599
1.12536
1.12483
1.12439
1.12403
1.12374
1.12352
1.12336
1.12325
1.1232
1.12319
1.12323
1.12331
1.12343
1.12358
1.12377
1.12398
1.12423
1.12451
1.12481
1.12513
1.12548
1.12585
1.12624
1.12665
1.12707
1.12752
1.12798
1.12846
1.12895
1.12945
1.12997
1.1305
1.13105
1.1316
1.13216
1.00947
1.00365
0.99834
0.993498
0.989086
0.985071
0.981417
0.978096
0.975078
0.972339
0.969853
0.967598
0.965559
0.963727
0.962101
0.960657
0.959374
0.958232
0.957217
0.956313
0.95551
0.954798
0.954167
0.95361
0.95312
0.952689
0.952314
0.951988
0.951707
0.951468
0.951266
0.9511
0.950965
0.950861
0.950783
0.950731
0.950702
0.950695
0.950708
0.95074
0.95079
0.950857
0.950939
0.951035
0.951145
0.951267
0.951402
0.951547
0.951703
0.951869
0.952045
0.952228
0.95242
0.952619
0.952826
0.953039
0.953258
0.966321
0.960926
0.95601
0.951533
0.947457
0.943749
0.940376
0.937309
0.934521
0.931987
0.929685
0.927593
0.925695
0.923975
0.922424
0.921031
0.91978
0.918656
0.917645
0.916735
0.915916
0.915178
0.914513
0.913913
0.913373
0.912886
0.912447
0.912051
0.911695
0.911375
0.911088
0.910831
0.910601
0.910396
0.910214
0.910054
0.909913
0.909789
0.909683
0.909592
0.909515
0.909451
0.909399
0.909359
0.90933
0.90931
0.909299
0.909297
0.909303
0.909315
0.909335
0.909361
0.909392
0.909429
0.90947
0.909516
0.909566
0.963012
0.957705
0.952876
0.948484
0.944492
0.940862
0.937564
0.934568
0.931845
0.929371
0.927122
0.925077
0.923219
0.921531
0.919999
0.918611
0.917357
0.916223
0.915196
0.914264
0.913418
0.912649
0.911948
0.911309
0.910726
0.910193
0.909705
0.909257
0.908846
0.908469
0.908122
0.907802
0.907506
0.907234
0.906982
0.90675
0.906534
0.906335
0.90615
0.905978
0.905819
0.905671
0.905533
0.905405
0.905286
0.905174
0.905071
0.904974
0.904883
0.904798
0.904718
0.904643
0.904572
0.904505
0.904441
0.90438
0.904322
0.974646
0.969296
0.964436
0.960022
0.956014
0.952376
0.949074
0.946078
0.943357
0.940887
0.938643
0.936604
0.93475
0.933064
0.93153
0.930135
0.928869
0.927719
0.926672
0.925718
0.924847
0.924051
0.923321
0.922651
0.922034
0.921465
0.92094
0.920453
0.920002
0.919583
0.919191
0.918826
0.918485
0.918164
0.917863
0.917579
0.917311
0.917058
0.916818
0.91659
0.916373
0.916166
0.915968
0.915779
0.915597
0.915422
0.915253
0.91509
0.914932
0.914779
0.91463
0.914484
0.914342
0.914202
0.914065
0.91393
0.913797
0.986753
0.981814
0.977335
0.973274
0.969594
0.966258
0.963235
0.960494
0.958008
0.955753
0.953704
0.951843
0.95015
0.948609
0.947206
0.945928
0.944764
0.943703
0.942732
0.941843
0.941026
0.940275
0.939582
0.938942
0.938348
0.937797
0.937283
0.936803
0.936354
0.935933
0.935536
0.935162
0.934807
0.934472
0.934152
0.933848
0.933557
0.933278
0.933011
0.932754
0.932505
0.932265
0.932033
0.931807
0.931587
0.931372
0.931162
0.930957
0.930755
0.930557
0.930361
0.930168
0.929977
0.929788
0.9296
0.929413
1.00611
1.00108
0.996524
0.992401
0.98867
0.985294
0.982238
0.979472
0.976967
0.974697
0.972638
0.970769
0.96907
0.967524
0.966117
0.964834
0.963663
0.962593
0.961614
0.960714
0.959887
0.959123
0.958417
0.957763
0.957154
0.956587
0.956056
0.955559
0.955091
0.95465
0.954233
0.953838
0.953462
0.953103
0.952761
0.952432
0.952116
0.951812
0.951518
0.951234
0.950957
0.950689
0.950427
0.950171
0.94992
0.949674
0.949432
0.949194
0.948959
0.948726
0.948496
0.948268
0.948041
0.947815
0.947591
0.947367
1.0203
1.01567
1.01149
1.00771
1.0043
1.00122
0.998431
0.995912
0.993632
0.991568
0.989696
0.987997
0.986453
0.985047
0.983766
0.982597
0.981527
0.980547
0.979646
0.978816
0.97805
0.977339
0.97668
0.976065
0.975491
0.974953
0.974448
0.973971
0.97352
0.973093
0.972687
0.972299
0.971928
0.971572
0.97123
0.970899
0.97058
0.97027
0.969969
0.969676
0.96939
0.96911
0.968835
0.968565
0.968299
0.968037
0.967777
0.967521
0.967266
0.967014
0.966762
0.966512
0.966263
0.966014
0.965766
1.03847
1.03379
1.02956
1.02575
1.02231
1.01921
1.01642
1.01389
1.01161
1.00955
1.00768
1.00599
1.00446
1.00306
1.00179
1.00063
0.999568
0.998595
0.997701
0.996877
0.996116
0.99541
0.994754
0.994142
0.99357
0.993033
0.992527
0.99205
0.991598
0.991169
0.99076
0.990369
0.989994
0.989633
0.989286
0.98895
0.988624
0.988307
0.987999
0.987697
0.987403
0.987113
0.986829
0.986549
0.986272
0.985999
0.985728
0.98546
0.985193
0.984928
0.984664
0.9844
0.984137
0.983874
0.983613
1.05509
1.05038
1.04613
1.0423
1.03885
1.03574
1.03294
1.03042
1.02815
1.0261
1.02425
1.02257
1.02106
1.01968
1.01842
1.01728
1.01624
1.01528
1.0144
1.01359
1.01284
1.01215
1.0115
1.0109
1.01034
1.00981
1.00931
1.00884
1.00839
1.00797
1.00756
1.00718
1.00681
1.00645
1.0061
1.00577
1.00544
1.00513
1.00482
1.00452
1.00422
1.00393
1.00364
1.00336
1.00308
1.0028
1.00253
1.00226
1.00199
1.00172
1.00145
1.00118
1.00091
1.00064
1.00038
1.06995
1.06522
1.06096
1.05712
1.05368
1.05058
1.04779
1.04529
1.04303
1.04101
1.03918
1.03753
1.03603
1.03468
1.03345
1.03233
1.03131
1.03038
1.02952
1.02873
1.028
1.02732
1.0267
1.02611
1.02556
1.02505
1.02456
1.02411
1.02367
1.02326
1.02286
1.02249
1.02212
1.02178
1.02144
1.02111
1.02079
1.02048
1.02018
1.01988
1.01959
1.01931
1.01902
1.01874
1.01847
1.0182
1.01792
1.01765
1.01739
1.01712
1.01685
1.01658
1.01632
1.01605
1.01578
1.01552
1.08298
1.07824
1.07399
1.07017
1.06674
1.06366
1.0609
1.05842
1.0562
1.0542
1.0524
1.05078
1.04932
1.048
1.0468
1.04571
1.04472
1.04381
1.04298
1.04222
1.04152
1.04086
1.04026
1.03969
1.03917
1.03867
1.03821
1.03777
1.03735
1.03695
1.03657
1.03621
1.03586
1.03553
1.0352
1.03489
1.03458
1.03428
1.03399
1.0337
1.03342
1.03314
1.03287
1.0326
1.03233
1.03207
1.0318
1.03154
1.03128
1.03102
1.03076
1.0305
1.03024
1.02998
1.02972
1.02946
1.08948
1.08525
1.08146
1.07806
1.07502
1.07229
1.06985
1.06766
1.0657
1.06394
1.06236
1.06094
1.05966
1.05849
1.05744
1.05648
1.05561
1.05481
1.05408
1.0534
1.05278
1.0522
1.05166
1.05116
1.05069
1.05025
1.04983
1.04943
1.04905
1.04869
1.04835
1.04802
1.0477
1.04739
1.04709
1.0468
1.04652
1.04624
1.04597
1.0457
1.04544
1.04518
1.04492
1.04466
1.04441
1.04416
1.04391
1.04366
1.04341
1.04316
1.04291
1.04266
1.04241
1.04216
1.04191
1.099
1.09482
1.09108
1.08773
1.08473
1.08205
1.07966
1.07751
1.0756
1.07388
1.07235
1.07097
1.06972
1.0686
1.06759
1.06667
1.06584
1.06507
1.06437
1.06373
1.06314
1.06259
1.06208
1.06161
1.06116
1.06074
1.06035
1.05998
1.05962
1.05929
1.05896
1.05865
1.05835
1.05806
1.05778
1.05751
1.05724
1.05698
1.05673
1.05648
1.05623
1.05599
1.05574
1.0555
1.05527
1.05503
1.05479
1.05456
1.05432
1.05409
1.05385
1.05362
1.05338
1.05315
1.05291
1.1071
1.10299
1.09931
1.09602
1.09308
1.09046
1.08812
1.08603
1.08416
1.0825
1.08101
1.07967
1.07848
1.0774
1.07643
1.07555
1.07475
1.07403
1.07336
1.07275
1.0722
1.07168
1.0712
1.07075
1.07034
1.06995
1.06958
1.06923
1.0689
1.06858
1.06828
1.06799
1.06771
1.06744
1.06718
1.06693
1.06668
1.06644
1.0662
1.06596
1.06573
1.0655
1.06528
1.06505
1.06483
1.06461
1.06439
1.06417
1.06395
1.06372
1.0635
1.06328
1.06306
1.06284
1.06262
1.11357
1.10954
1.10594
1.10272
1.09985
1.09729
1.095
1.09297
1.09116
1.08955
1.08812
1.08683
1.08568
1.08465
1.08373
1.08289
1.08214
1.08145
1.08083
1.08026
1.07973
1.07925
1.0788
1.07839
1.078
1.07764
1.0773
1.07698
1.07668
1.07639
1.07611
1.07585
1.07559
1.07534
1.0751
1.07487
1.07464
1.07442
1.0742
1.07399
1.07378
1.07357
1.07336
1.07316
1.07295
1.07275
1.07255
1.07235
1.07214
1.07194
1.07174
1.07154
1.07133
1.07113
1.07093
1.11448
1.11094
1.1078
1.105
1.1025
1.10029
1.09832
1.09657
1.09501
1.09363
1.0924
1.0913
1.09032
1.08944
1.08865
1.08794
1.0873
1.08671
1.08618
1.0857
1.08525
1.08484
1.08447
1.08411
1.08378
1.08348
1.08319
1.08291
1.08265
1.0824
1.08217
1.08194
1.08172
1.08151
1.0813
1.0811
1.0809
1.08071
1.08052
1.08033
1.08015
1.07997
1.07978
1.0796
1.07943
1.07925
1.07907
1.07889
1.07871
1.07854
1.07836
1.07818
1.078
1.07783
1.11468
1.11162
1.10889
1.10647
1.10432
1.10241
1.10072
1.09922
1.09789
1.09672
1.09567
1.09474
1.09391
1.09316
1.09249
1.09189
1.09135
1.09086
1.09042
1.09001
1.08964
1.08929
1.08898
1.08868
1.0884
1.08815
1.0879
1.08767
1.08745
1.08725
1.08705
1.08685
1.08667
1.08649
1.08632
1.08615
1.08598
1.08582
1.08566
1.0855
1.08534
1.08519
1.08504
1.08488
1.08473
1.08458
1.08443
1.08428
1.08413
1.08398
1.08383
1.08368
1.08353
1.1174
1.11443
1.11179
1.10944
1.10736
1.10552
1.10389
1.10244
1.10117
1.10004
1.09905
1.09816
1.09738
1.09668
1.09605
1.0955
1.09499
1.09454
1.09413
1.09376
1.09343
1.09312
1.09283
1.09257
1.09233
1.0921
1.09188
1.09168
1.09149
1.09131
1.09114
1.09098
1.09082
1.09067
1.09052
1.09038
1.09024
1.0901
1.08997
1.08984
1.08971
1.08958
1.08945
1.08933
1.0892
1.08908
1.08895
1.08883
1.0887
1.08858
1.08846
1.08834
1.08822
1.11934
1.11647
1.11391
1.11164
1.10962
1.10784
1.10627
1.10488
1.10366
1.10258
1.10163
1.10079
1.10005
1.09939
1.09881
1.09829
1.09783
1.09741
1.09704
1.09671
1.0964
1.09612
1.09587
1.09564
1.09542
1.09522
1.09504
1.09487
1.0947
1.09455
1.09441
1.09427
1.09414
1.09401
1.09389
1.09377
1.09365
1.09354
1.09343
1.09333
1.09322
1.09312
1.09302
1.09292
1.09282
1.09272
1.09262
1.09252
1.09242
1.09232
1.09223
1.09213
1.09205
1.12067
1.11788
1.1154
1.1132
1.11125
1.10953
1.10801
1.10667
1.1055
1.10447
1.10357
1.10277
1.10208
1.10146
1.10091
1.10043
1.10001
1.09963
1.09929
1.09898
1.09871
1.09846
1.09824
1.09803
1.09784
1.09767
1.09751
1.09736
1.09723
1.0971
1.09698
1.09686
1.09675
1.09665
1.09655
1.09645
1.09636
1.09627
1.09619
1.0961
1.09602
1.09594
1.09586
1.09578
1.0957
1.09563
1.09555
1.09548
1.0954
1.09533
1.09526
1.09519
1.09513
1.12149
1.11879
1.11638
1.11425
1.11236
1.11069
1.10923
1.10794
1.10682
1.10583
1.10497
1.10422
1.10356
1.10298
1.10248
1.10203
1.10163
1.10129
1.10098
1.1007
1.10046
1.10023
1.10004
1.09986
1.09969
1.09955
1.09941
1.09928
1.09917
1.09906
1.09896
1.09887
1.09878
1.0987
1.09862
1.09854
1.09847
1.0984
1.09833
1.09827
1.09821
1.09815
1.09809
1.09803
1.09797
1.09791
1.09786
1.0978
1.09775
1.0977
1.09765
1.0976
1.09756
1.12188
1.11926
1.11693
1.11486
1.11303
1.11142
1.11001
1.10877
1.10769
1.10675
1.10593
1.10522
1.1046
1.10405
1.10358
1.10316
1.1028
1.10248
1.1022
1.10195
1.10173
1.10153
1.10136
1.1012
1.10106
1.10093
1.10082
1.10071
1.10062
1.10053
1.10045
1.10037
1.1003
1.10023
1.10017
1.10011
1.10006
1.10001
1.09996
1.09991
1.09986
1.09982
1.09978
1.09973
1.09969
1.09965
1.09962
1.09958
1.09954
1.09951
1.09947
1.09944
1.09942
1.12191
1.11937
1.11711
1.1151
1.11333
1.11177
1.11041
1.10922
1.10818
1.10728
1.1065
1.10583
1.10524
1.10473
1.10429
1.1039
1.10357
1.10328
1.10302
1.1028
1.1026
1.10242
1.10227
1.10213
1.10201
1.1019
1.1018
1.10172
1.10164
1.10156
1.1015
1.10144
1.10138
1.10133
1.10128
1.10124
1.1012
1.10116
1.10112
1.10109
1.10106
1.10102
1.10099
1.10097
1.10094
1.10091
1.10089
1.10086
1.10084
1.10082
1.1008
1.10078
1.10078
1.12162
1.11915
1.11696
1.11501
1.1133
1.11179
1.11048
1.10933
1.10834
1.10748
1.10674
1.1061
1.10555
1.10507
1.10466
1.1043
1.10399
1.10372
1.10349
1.10329
1.10311
1.10295
1.10282
1.1027
1.10259
1.1025
1.10242
1.10234
1.10228
1.10222
1.10216
1.10212
1.10207
1.10203
1.102
1.10196
1.10193
1.1019
1.10188
1.10185
1.10183
1.10181
1.10179
1.10177
1.10175
1.10174
1.10172
1.10171
1.10169
1.10168
1.10167
1.10167
1.10167
1.12103
1.11864
1.11651
1.11463
1.11297
1.11152
1.11026
1.10916
1.10821
1.10739
1.10668
1.10608
1.10556
1.10511
1.10472
1.10439
1.1041
1.10386
1.10364
1.10346
1.1033
1.10316
1.10304
1.10294
1.10285
1.10277
1.1027
1.10263
1.10258
1.10253
1.10248
1.10245
1.10241
1.10238
1.10235
1.10232
1.1023
1.10228
1.10226
1.10224
1.10223
1.10221
1.1022
1.10219
1.10218
1.10216
1.10216
1.10215
1.10214
1.10213
1.10213
1.10213
1.10214
1.12014
1.11782
1.11577
1.11395
1.11236
1.11096
1.10975
1.1087
1.10779
1.10701
1.10634
1.10577
1.10528
1.10486
1.1045
1.10419
1.10393
1.1037
1.10351
1.10334
1.1032
1.10308
1.10297
1.10288
1.1028
1.10273
1.10267
1.10262
1.10257
1.10253
1.10249
1.10246
1.10243
1.1024
1.10238
1.10236
1.10234
1.10232
1.10231
1.10229
1.10228
1.10227
1.10226
1.10225
1.10224
1.10223
1.10222
1.10221
1.10221
1.1022
1.1022
1.1022
1.10221
1.11888
1.11665
1.11467
1.11292
1.11139
1.11006
1.1089
1.1079
1.10703
1.1063
1.10566
1.10512
1.10466
1.10427
1.10394
1.10365
1.10341
1.10321
1.10303
1.10288
1.10275
1.10264
1.10254
1.10246
1.10239
1.10232
1.10227
1.10222
1.10218
1.10214
1.10211
1.10207
1.10205
1.10202
1.102
1.10198
1.10196
1.10194
1.10192
1.1019
1.10189
1.10187
1.10186
1.10184
1.10183
1.10181
1.1018
1.10179
1.10178
1.10177
1.10176
1.10175
1.10175
1.11727
1.11512
1.11322
1.11155
1.11009
1.10881
1.10771
1.10676
1.10594
1.10524
1.10465
1.10414
1.10371
1.10334
1.10303
1.10277
1.10254
1.10235
1.10219
1.10205
1.10193
1.10183
1.10174
1.10166
1.10159
1.10153
1.10148
1.10143
1.10139
1.10135
1.10131
1.10128
1.10124
1.10121
1.10119
1.10116
1.10113
1.1011
1.10108
1.10105
1.10103
1.101
1.10098
1.10095
1.10093
1.1009
1.10088
1.10085
1.10083
1.1008
1.10078
1.10076
1.10075
1.11529
1.11323
1.11141
1.10981
1.10842
1.10721
1.10616
1.10526
1.10449
1.10383
1.10327
1.10279
1.10239
1.10205
1.10176
1.10151
1.1013
1.10113
1.10097
1.10084
1.10073
1.10063
1.10054
1.10047
1.1004
1.10033
1.10028
1.10022
1.10017
1.10013
1.10008
1.10004
1.1
1.09996
1.09992
1.09988
1.09984
1.0998
1.09975
1.09971
1.09967
1.09963
1.09959
1.09955
1.09951
1.09946
1.09942
1.09937
1.09933
1.09929
1.09924
1.0992
1.09916
1.11292
1.11095
1.10921
1.10769
1.10637
1.10522
1.10423
1.10338
1.10265
1.10203
1.10151
1.10106
1.10068
1.10036
1.10009
1.09986
1.09966
1.09949
1.09934
1.09922
1.0991
1.09901
1.09892
1.09884
1.09876
1.09869
1.09863
1.09856
1.0985
1.09844
1.09838
1.09833
1.09827
1.09821
1.09815
1.09809
1.09803
1.09797
1.09791
1.09785
1.09779
1.09772
1.09766
1.09759
1.09752
1.09745
1.09738
1.09731
1.09724
1.09717
1.09709
1.09702
1.09695
1.11013
1.10824
1.10659
1.10515
1.1039
1.10281
1.10188
1.10108
1.10039
1.09981
1.09932
1.0989
1.09854
1.09824
1.09798
1.09776
1.09757
1.09741
1.09726
1.09713
1.09702
1.09692
1.09682
1.09673
1.09664
1.09656
1.09648
1.0964
1.09633
1.09625
1.09617
1.09609
1.09601
1.09593
1.09585
1.09576
1.09568
1.09559
1.0955
1.09541
1.09532
1.09522
1.09512
1.09502
1.09492
1.09482
1.09471
1.09461
1.0945
1.09439
1.09428
1.09417
1.09406
1.10687
1.10509
1.10352
1.10215
1.10097
1.09995
1.09907
1.09831
1.09767
1.09712
1.09666
1.09626
1.09592
1.09564
1.09539
1.09518
1.09499
1.09483
1.09468
1.09455
1.09442
1.09431
1.0942
1.09409
1.09399
1.09389
1.09379
1.09369
1.09359
1.09349
1.09338
1.09328
1.09317
1.09305
1.09294
1.09282
1.0927
1.09258
1.09246
1.09233
1.0922
1.09206
1.09192
1.09178
1.09164
1.0915
1.09135
1.0912
1.09104
1.09088
1.09072
1.09056
1.09041
1.10312
1.10142
1.09993
1.09864
1.09753
1.09657
1.09574
1.09503
1.09443
1.09391
1.09347
1.0931
1.09277
1.0925
1.09226
1.09204
1.09186
1.09169
1.09153
1.09139
1.09125
1.09112
1.09099
1.09086
1.09074
1.09061
1.09049
1.09036
1.09022
1.09009
1.08995
1.08981
1.08966
1.08951
1.08936
1.0892
1.08904
1.08887
1.0887
1.08853
1.08835
1.08817
1.08798
1.08779
1.0876
1.0874
1.0872
1.08699
1.08678
1.08657
1.08635
1.08613
1.08591
1.09878
1.09718
1.09578
1.09456
1.09351
1.09261
1.09183
1.09116
1.09059
1.09011
1.08969
1.08933
1.08902
1.08874
1.0885
1.08829
1.08809
1.08791
1.08774
1.08758
1.08742
1.08727
1.08711
1.08696
1.0868
1.08665
1.08648
1.08632
1.08615
1.08597
1.08579
1.0856
1.08541
1.08522
1.08501
1.08481
1.08459
1.08438
1.08415
1.08392
1.08369
1.08345
1.0832
1.08295
1.08269
1.08243
1.08217
1.0819
1.08162
1.08134
1.08105
1.08076
1.08047
1.09381
1.09229
1.09097
1.08983
1.08884
1.08799
1.08726
1.08663
1.08609
1.08563
1.08522
1.08487
1.08457
1.0843
1.08405
1.08382
1.08361
1.08341
1.08322
1.08304
1.08285
1.08267
1.08248
1.08229
1.08209
1.08189
1.08169
1.08148
1.08126
1.08103
1.0808
1.08056
1.08032
1.08007
1.07981
1.07954
1.07926
1.07898
1.0787
1.0784
1.0781
1.07779
1.07748
1.07715
1.07683
1.07649
1.07615
1.0758
1.07544
1.07508
1.07471
1.07434
1.07396
1.08809
1.08666
1.08542
1.08434
1.08342
1.08262
1.08193
1.08133
1.08082
1.08037
1.07998
1.07963
1.07932
1.07904
1.07879
1.07854
1.07831
1.07809
1.07787
1.07765
1.07742
1.0772
1.07697
1.07674
1.07649
1.07624
1.07599
1.07572
1.07545
1.07516
1.07487
1.07457
1.07426
1.07394
1.07361
1.07328
1.07293
1.07258
1.07222
1.07185
1.07147
1.07108
1.07068
1.07028
1.06986
1.06944
1.06901
1.06857
1.06813
1.06767
1.06721
1.06674
1.06626
1.08177
1.08042
1.07925
1.07824
1.07736
1.0766
1.07594
1.07537
1.07487
1.07443
1.07404
1.07369
1.07337
1.07308
1.07279
1.07252
1.07226
1.072
1.07174
1.07148
1.07121
1.07093
1.07065
1.07036
1.07006
1.06975
1.06943
1.0691
1.06876
1.0684
1.06804
1.06767
1.06728
1.06688
1.06648
1.06606
1.06563
1.06519
1.06474
1.06428
1.06381
1.06333
1.06284
1.06234
1.06182
1.0613
1.06077
1.06023
1.05968
1.05911
1.05854
1.05796
1.05737
1.07465
1.07338
1.07227
1.07131
1.07048
1.06976
1.06912
1.06857
1.06808
1.06764
1.06724
1.06687
1.06653
1.06621
1.06589
1.06559
1.06528
1.06498
1.06467
1.06435
1.06403
1.06369
1.06335
1.06299
1.06262
1.06224
1.06185
1.06144
1.06102
1.06058
1.06014
1.05967
1.0592
1.05871
1.05822
1.0577
1.05718
1.05664
1.05609
1.05553
1.05496
1.05437
1.05377
1.05316
1.05254
1.0519
1.05126
1.0506
1.04992
1.04924
1.04855
1.04784
1.04712
1.06596
1.06477
1.06373
1.06282
1.06204
1.06134
1.06074
1.06019
1.05971
1.05927
1.05886
1.05847
1.0581
1.05775
1.0574
1.05705
1.0567
1.05634
1.05597
1.0556
1.05521
1.05481
1.0544
1.05397
1.05352
1.05306
1.05259
1.0521
1.05159
1.05107
1.05053
1.04998
1.04941
1.04882
1.04823
1.04761
1.04699
1.04635
1.04569
1.04502
1.04433
1.04364
1.04292
1.0422
1.04146
1.0407
1.03993
1.03915
1.03836
1.03755
1.03672
1.03588
1.03503
1.05516
1.05405
1.05309
1.05225
1.05151
1.05085
1.05027
1.04974
1.04926
1.04881
1.04839
1.04798
1.04759
1.04719
1.0468
1.04641
1.04601
1.04559
1.04517
1.04473
1.04427
1.0438
1.04331
1.04281
1.04228
1.04174
1.04118
1.0406
1.04001
1.03939
1.03876
1.03811
1.03745
1.03677
1.03607
1.03535
1.03462
1.03387
1.03311
1.03233
1.03153
1.03072
1.0299
1.02905
1.0282
1.02732
1.02644
1.02553
1.02461
1.02368
1.02273
1.02176
1.02078
1.04173
1.04073
1.03985
1.03907
1.03839
1.03778
1.03722
1.03671
1.03624
1.03579
1.03536
1.03493
1.03452
1.03409
1.03367
1.03323
1.03278
1.03232
1.03184
1.03134
1.03082
1.03029
1.02973
1.02916
1.02856
1.02794
1.02731
1.02665
1.02598
1.02528
1.02457
1.02383
1.02308
1.02231
1.02153
1.02072
1.0199
1.01906
1.0182
1.01733
1.01644
1.01554
1.01462
1.01368
1.01272
1.01175
1.01077
1.00976
1.00875
1.00771
1.00666
1.0056
1.00451
1.025
1.02412
1.02335
1.02266
1.02205
1.0215
1.02099
1.02052
1.02007
1.01964
1.01922
1.0188
1.01837
1.01794
1.01749
1.01704
1.01656
1.01607
1.01556
1.01503
1.01447
1.0139
1.0133
1.01268
1.01204
1.01138
1.0107
1.00999
1.00927
1.00852
1.00776
1.00698
1.00618
1.00536
1.00452
1.00367
1.00279
1.0019
1.001
1.00008
0.999137
0.998182
0.997212
0.996226
0.995225
0.994209
0.993177
0.99213
0.991068
0.989992
0.9889
0.987794
0.986674
1.00377
1.00305
1.00241
1.00185
1.00135
1.00089
1.00047
1.00006
0.999677
0.999297
0.998918
0.998534
0.998141
0.997736
0.997315
0.996876
0.996418
0.995939
0.995439
0.994916
0.994371
0.993803
0.993213
0.9926
0.991966
0.99131
0.990634
0.989937
0.98922
0.988483
0.987728
0.986955
0.986165
0.985357
0.984532
0.983692
0.982835
0.981964
0.981077
0.980176
0.97926
0.978331
0.977388
0.976432
0.975462
0.97448
0.973485
0.972477
0.971457
0.970425
0.969382
0.968327
0.967261
0.976481
0.975981
0.975549
0.975172
0.974837
0.974534
0.974252
0.973982
0.973719
0.973455
0.973185
0.972905
0.972612
0.972302
0.971975
0.971627
0.971258
0.970868
0.970455
0.97002
0.969562
0.969082
0.968581
0.968059
0.967515
0.966952
0.96637
0.965769
0.96515
0.964515
0.963862
0.963194
0.962511
0.961813
0.961102
0.960377
0.95964
0.958891
0.95813
0.957357
0.956574
0.955781
0.954977
0.954164
0.953342
0.952511
0.951671
0.950824
0.949968
0.949105
0.948234
0.947357
0.946473
0.947839
0.947608
0.947428
0.947286
0.947172
0.947077
0.946994
0.946914
0.946832
0.946743
0.946644
0.94653
0.9464
0.946251
0.946082
0.945891
0.945679
0.945445
0.945189
0.94491
0.944611
0.94429
0.943949
0.943588
0.943209
0.942811
0.942396
0.941965
0.941519
0.941057
0.940582
0.940094
0.939594
0.939082
0.93856
0.938027
0.937485
0.936934
0.936374
0.935807
0.935233
0.934652
0.934065
0.933472
0.932873
0.93227
0.931662
0.93105
0.930434
0.929815
0.929193
0.928568
0.927942
0.924503
0.92452
0.924572
0.924652
0.924748
0.924855
0.924965
0.925072
0.925171
0.925259
0.925333
0.92539
0.925428
0.925445
0.925441
0.925416
0.925368
0.925298
0.925207
0.925095
0.924962
0.924809
0.924637
0.924447
0.924239
0.924016
0.923777
0.923524
0.923258
0.922979
0.922689
0.922388
0.922077
0.921758
0.92143
0.921096
0.920754
0.920407
0.920054
0.919696
0.919335
0.918969
0.918601
0.918231
0.917858
0.917484
0.917109
0.916733
0.916358
0.915983
0.915608
0.915236
0.914865
0.906272
0.906547
0.906846
0.907162
0.907486
0.907812
0.908135
0.90845
0.908753
0.909042
0.909312
0.909563
0.909794
0.910003
0.910189
0.910354
0.910497
0.910617
0.910717
0.910796
0.910855
0.910896
0.910919
0.910925
0.910916
0.910892
0.910855
0.910805
0.910744
0.910673
0.910593
0.910504
0.910408
0.910305
0.910197
0.910085
0.909968
0.909848
0.909725
0.909601
0.909476
0.90935
0.909224
0.909099
0.908975
0.908853
0.908733
0.908616
0.908503
0.908394
0.908289
0.90819
0.908096
0.90801
0.895445
0.895994
0.896558
0.89713
0.897702
0.898271
0.89883
0.899376
0.899906
0.900418
0.900909
0.901379
0.901827
0.902251
0.902653
0.903033
0.903389
0.903725
0.904039
0.904333
0.904609
0.904866
0.905107
0.905333
0.905544
0.905743
0.905929
0.906105
0.906272
0.90643
0.906581
0.906726
0.906866
0.907001
0.907134
0.907264
0.907393
0.907522
0.90765
0.90778
0.907911
0.908044
0.908181
0.908321
0.908466
0.908616
0.908771
0.908933
0.909101
0.909277
0.909461
0.909654
0.909857
0.91007
0.895104
0.895955
0.896811
0.897666
0.898515
0.899354
0.900177
0.900984
0.90177
0.902534
0.903275
0.903993
0.904686
0.905355
0.905999
0.90662
0.907219
0.907795
0.90835
0.908886
0.909403
0.909903
0.910387
0.910857
0.911314
0.911758
0.912193
0.912618
0.913036
0.913447
0.913853
0.914255
0.914653
0.91505
0.915446
0.915843
0.91624
0.916639
0.917041
0.917447
0.917857
0.918273
0.918695
0.919123
0.919559
0.920004
0.920457
0.920919
0.921392
0.921876
0.922372
0.92288
0.923401
0.923936
0.91005
0.911244
0.912435
0.913617
0.914785
0.915937
0.917068
0.918176
0.91926
0.920318
0.92135
0.922355
0.923333
0.924284
0.92521
0.926111
0.926988
0.927842
0.928674
0.929487
0.930281
0.931058
0.93182
0.932567
0.933303
0.934027
0.934743
0.935451
0.936152
0.936849
0.937542
0.938233
0.938923
0.939614
0.940305
0.941
0.941698
0.942401
0.943109
0.943824
0.944547
0.945278
0.946018
0.946768
0.947529
0.948301
0.949086
0.949885
0.950697
0.951524
0.952367
0.953225
0.954101
0.954996
0.948998
0.95061
0.952209
0.953791
0.955351
0.956887
0.958397
0.959878
0.961328
0.962749
0.964138
0.965496
0.966824
0.968123
0.969393
0.970635
0.971852
0.973044
0.974214
0.975363
0.976492
0.977604
0.9787
0.979783
0.980854
0.981915
0.982968
0.984014
0.985055
0.986093
0.987129
0.988165
0.989202
0.990242
0.991286
0.992336
0.993391
0.994455
0.995527
0.996609
0.997702
0.998807
0.999925
1.00106
1.0022
1.00337
1.00454
1.00574
1.00696
1.00819
1.00944
1.01072
1.01202
1.01334
1.03075
1.03292
1.03508
1.0372
1.03929
1.04135
1.04338
1.04536
1.04731
1.04923
1.0511
1.05294
1.05474
1.05651
1.05825
1.05995
1.06163
1.06328
1.0649
1.0665
1.06808
1.06964
1.07118
1.07271
1.07423
1.07574
1.07724
1.07874
1.08023
1.08172
1.08321
1.0847
1.0862
1.0877
1.08921
1.09073
1.09226
1.0938
1.09535
1.09692
1.0985
1.1001
1.10172
1.10336
1.10501
1.10669
1.10839
1.11011
1.11186
1.11364
1.11543
1.11726
1.11912
1.121
1.20655
1.20962
1.21265
1.21565
1.2186
1.2215
1.22435
1.22716
1.22992
1.23263
1.23529
1.2379
1.24047
1.243
1.24549
1.24794
1.25035
1.25273
1.25509
1.25741
1.25971
1.26199
1.26425
1.2665
1.26873
1.27095
1.27317
1.27538
1.2776
1.27981
1.28202
1.28424
1.28647
1.28871
1.29096
1.29323
1.29551
1.29781
1.30013
1.30247
1.30483
1.30722
1.30963
1.31207
1.31454
1.31704
1.31957
1.32214
1.32473
1.32737
1.33004
1.33275
1.3355
1.33829
1.68332
1.6884
1.69342
1.69837
1.70324
1.70805
1.71278
1.71744
1.72202
1.72653
1.73097
1.73534
1.73965
1.7439
1.74809
1.75222
1.75631
1.76035
1.76434
1.76831
1.77223
1.77614
1.78001
1.78387
1.78772
1.79155
1.79538
1.79921
1.80304
1.80688
1.81072
1.81458
1.81846
1.82236
1.82628
1.83023
1.8342
1.83821
1.84225
1.84634
1.85046
1.85462
1.85883
1.86308
1.86738
1.87174
1.87615
1.88061
1.88513
1.88972
1.89436
1.89907
1.90384
1.90868
4.24637
4.26177
4.27692
4.29181
4.30645
4.32084
4.33498
4.34888
4.36255
4.37599
4.38921
4.40223
4.41505
4.42769
4.44016
4.45248
4.46465
4.47668
4.4886
4.50042
4.51215
4.5238
4.53539
4.54693
4.55843
4.56991
4.58138
4.59285
4.60433
4.61583
4.62737
4.63895
4.65058
4.66228
4.67405
4.6859
4.69784
4.70987
4.72201
4.73426
4.74663
4.75913
4.77175
4.78452
4.79743
4.81049
4.8237
4.83708
4.85062
4.86434
4.87824
4.89232
4.90659
4.92106
)
;

boundaryField
{
    inlet
    {
        type            fixedValue;
        value           nonuniform 0();
    }
    outlet
    {
        type            zeroGradient;
    }
    upperWall
    {
        Cmu             0.09;
        kappa           0.41;
        E               9.8;
        type            epsilonWallFunction;
        value           nonuniform List<scalar> 
54
(
4.24637
4.26177
4.27692
4.29181
4.30645
4.32084
4.33498
4.34888
4.36255
4.37599
4.38921
4.40223
4.41505
4.42769
4.44016
4.45248
4.46465
4.47668
4.4886
4.50042
4.51215
4.5238
4.53539
4.54693
4.55843
4.56991
4.58138
4.59285
4.60433
4.61583
4.62737
4.63895
4.65058
4.66228
4.67405
4.6859
4.69784
4.70987
4.72201
4.73426
4.74663
4.75913
4.77175
4.78452
4.79743
4.81049
4.8237
4.83708
4.85062
4.86434
4.87824
4.89232
4.90659
4.92106
)
;
    }
    lowerWall
    {
        Cmu             0.09;
        kappa           0.41;
        E               9.8;
        type            epsilonWallFunction;
        value           nonuniform List<scalar> 
57
(
2.45809
2.4406
2.42466
2.41016
2.39698
2.38504
2.37423
2.36446
2.35564
2.34771
2.34057
2.33414
2.32832
2.32329
2.31896
2.31521
2.31197
2.30918
2.3068
2.30478
2.3031
2.30171
2.3006
2.29974
2.2991
2.29867
2.29843
2.29836
2.29846
2.29869
2.29907
2.29957
2.30019
2.30092
2.30174
2.30267
2.30368
2.30477
2.30595
2.30719
2.30851
2.30989
2.31133
2.31283
2.31439
2.316
2.31766
2.31937
2.32112
2.32292
2.32476
2.32664
2.32855
2.3305
2.33248
2.3345
2.33654
)
;
    }
    frontAndBack
    {
        type            empty;
    }
    procBoundary1to0
    {
        type            processor;
        value           nonuniform List<scalar> 
59
(
2.33861
1.13274
0.953483
0.909619
0.904267
0.913666
0.929228
0.947144
0.965519
0.983352
1.00011
1.00011
1.01525
1.0292
1.04166
1.05268
1.0624
1.07073
1.07765
1.08338
1.0881
1.09196
1.09506
1.09752
1.0994
1.10077
1.10167
1.10214
1.10222
1.10175
1.10073
1.09912
1.09688
1.09395
1.09024
1.08568
1.08017
1.07358
1.06578
1.05677
1.04639
1.03417
1.01978
1.00342
0.985539
0.966183
0.945583
0.927315
0.914499
0.914499
0.90793
0.910293
0.924486
0.955909
1.01468
1.12292
1.34112
1.91359
4.93572
)
;
    }
    procBoundary1to3
    {
        type            processor;
        value           nonuniform List<scalar> 
62
(
2.47727
1.20182
1.01585
0.972236
0.968838
0.980524
0.99219
0.99219
1.01164
1.0254
1.0254
1.04364
1.06031
1.07519
1.08821
1.09418
1.09418
1.10364
1.11167
1.11804
1.11837
1.11837
1.11808
1.11808
1.12068
1.12251
1.12373
1.12445
1.12475
1.12468
1.12429
1.12361
1.12263
1.12129
1.11959
1.11753
1.11507
1.11219
1.10885
1.105
1.10057
1.0955
1.08969
1.08329
1.07609
1.06731
1.05641
1.04287
1.026
1.00459
0.977062
0.948131
0.924533
0.906031
0.894918
0.894266
0.908859
0.947379
1.02856
1.20344
1.67818
4.23071
)
;
    }
}


// ************************************************************************* //
