/*--------------------------------*- C++ -*----------------------------------*\
  =========                 |
  \\      /  F ield         | OpenFOAM: The Open Source CFD Toolbox
   \\    /   O peration     | Website:  https://openfoam.org
    \\  /    A nd           | Version:  6
     \\/     M anipulation  |
\*---------------------------------------------------------------------------*/
FoamFile
{
    version     2.0;
    format      ascii;
    class       volScalarField;
    location    "0.07";
    object      k;
}
// * * * * * * * * * * * * * * * * * * * * * * * * * * * * * * * * * * * * * //

dimensions      [0 2 -2 0 0 0 0];

internalField   nonuniform List<scalar> 
3081
(
0.0216569
0.0215302
0.0214134
0.0213056
0.0212062
0.0211147
0.0210303
0.0209526
0.020881
0.0208149
0.020754
0.0206977
0.0206453
0.0205975
0.0205543
0.0205147
0.0204784
0.020445
0.0204141
0.0203854
0.0203588
0.0203341
0.020311
0.0202893
0.020269
0.0202499
0.0202319
0.0202149
0.0201987
0.0201834
0.0201688
0.0201548
0.0201414
0.0201286
0.0201163
0.0201044
0.0200929
0.0200817
0.0200709
0.0200604
0.0200501
0.0200401
0.0200303
0.0200207
0.0200112
0.020002
0.0199928
0.0199837
0.0199748
0.0199659
0.0199571
0.0199483
0.0199396
0.0199309
0.0199222
0.0199134
0.0199047
0.0421512
0.0418798
0.0416295
0.0413987
0.0411861
0.0409903
0.0408099
0.0406439
0.0404909
0.04035
0.0402201
0.0401003
0.0399893
0.0398854
0.0397889
0.0397002
0.0396186
0.0395435
0.0394741
0.0394099
0.0393503
0.0392949
0.0392433
0.0391949
0.0391496
0.0391069
0.0390667
0.0390287
0.0389926
0.0389583
0.0389255
0.0388942
0.0388642
0.0388354
0.0388075
0.0387807
0.0387546
0.0387294
0.0387048
0.0386807
0.0386573
0.0386343
0.0386117
0.0385895
0.0385676
0.038546
0.0385246
0.0385035
0.0384825
0.0384616
0.0384408
0.03842
0.0383994
0.0383787
0.038358
0.0383372
0.0383164
0.053408
0.0530717
0.0527616
0.0524757
0.0522122
0.0519696
0.0517461
0.0515402
0.0513506
0.0511759
0.0510148
0.0508661
0.0507287
0.0506013
0.0504826
0.0503728
0.0502713
0.0501775
0.0500905
0.0500097
0.0499346
0.0498646
0.0497991
0.0497377
0.0496801
0.0496257
0.0495744
0.0495258
0.0494796
0.0494357
0.0493937
0.0493535
0.0493149
0.0492777
0.0492418
0.0492071
0.0491735
0.0491408
0.0491089
0.0490777
0.0490472
0.0490173
0.0489879
0.048959
0.0489304
0.0489022
0.0488743
0.0488466
0.0488191
0.0487917
0.0487644
0.0487372
0.0487101
0.0486829
0.0486557
0.0486285
0.0486011
0.0614991
0.0611214
0.0607731
0.0604521
0.0601564
0.059884
0.0596333
0.0594023
0.0591896
0.0589936
0.0588129
0.0586462
0.0584922
0.0583497
0.0582174
0.0580945
0.0579809
0.0578755
0.0577777
0.0576867
0.057602
0.0575227
0.0574486
0.0573789
0.0573134
0.0572515
0.057193
0.0571375
0.0570847
0.0570344
0.0569862
0.0569401
0.0568957
0.0568529
0.0568116
0.0567715
0.0567326
0.0566947
0.0566578
0.0566217
0.0565863
0.0565515
0.0565173
0.0564835
0.0564502
0.0564173
0.0563847
0.0563523
0.0563201
0.056288
0.0562561
0.0562242
0.0561924
0.0561605
0.0561286
0.0560966
0.0560645
0.0679874
0.0675797
0.067204
0.0668578
0.066539
0.0662455
0.0659754
0.0657268
0.0654979
0.065287
0.0650927
0.0649135
0.064748
0.0645949
0.0644531
0.0643214
0.0641994
0.0640862
0.063981
0.0638831
0.0637916
0.0637061
0.063626
0.0635506
0.0634796
0.0634126
0.063349
0.0632887
0.0632313
0.0631764
0.0631239
0.0630735
0.063025
0.0629782
0.0629329
0.062889
0.0628464
0.0628048
0.0627641
0.0627244
0.0626854
0.062647
0.0626093
0.062572
0.0625352
0.0624988
0.0624626
0.0624267
0.062391
0.0623555
0.0623201
0.0622847
0.0622493
0.0622139
0.0621785
0.0621429
0.0621072
0.073423
0.0729933
0.0725973
0.0722327
0.0718971
0.0715884
0.0713044
0.0710432
0.0708028
0.0705815
0.0703776
0.0701897
0.0700163
0.0698561
0.0697077
0.0695701
0.0694424
0.0693239
0.0692138
0.0691111
0.0690152
0.0689255
0.0688413
0.0687621
0.0686874
0.0686168
0.0685499
0.0684863
0.0684257
0.0683678
0.0683123
0.068259
0.0682076
0.068158
0.06811
0.0680634
0.0680181
0.0679739
0.0679307
0.0678883
0.0678468
0.0678059
0.0677657
0.0677259
0.0676866
0.0676476
0.067609
0.0675706
0.0675324
0.0674943
0.0674563
0.0674184
0.0673805
0.0673425
0.0673045
0.0672663
0.067228
0.0776216
0.0772112
0.0768335
0.0764861
0.0761668
0.0758732
0.0756033
0.0753552
0.075127
0.0749169
0.0747234
0.0745449
0.0743801
0.0742276
0.0740864
0.0739553
0.0738336
0.0737204
0.0736149
0.0735164
0.0734241
0.0733375
0.073256
0.0731791
0.0731063
0.0730373
0.0729717
0.0729091
0.0728493
0.072792
0.0727369
0.0726838
0.0726324
0.0725827
0.0725344
0.0724874
0.0724416
0.0723967
0.0723527
0.0723096
0.0722671
0.0722252
0.0721838
0.0721428
0.0721022
0.0720619
0.0720219
0.071982
0.0719423
0.0719026
0.071863
0.0718234
0.0717837
0.0717439
0.071704
0.0716639
0.0816136
0.0811936
0.0808073
0.0804524
0.0801263
0.0798268
0.0795518
0.0792991
0.0790669
0.0788533
0.0786568
0.0784756
0.0783086
0.0781542
0.0780112
0.0778786
0.0777555
0.077641
0.0775343
0.0774346
0.0773412
0.0772535
0.077171
0.0770931
0.0770194
0.0769495
0.076883
0.0768196
0.0767589
0.0767007
0.0766448
0.0765908
0.0765387
0.0764882
0.0764391
0.0763912
0.0763446
0.0762989
0.0762541
0.0762101
0.0761668
0.076124
0.0760818
0.07604
0.0759985
0.0759573
0.0759164
0.0758756
0.075835
0.0757944
0.0757538
0.0757132
0.0756726
0.0756318
0.0755909
0.0755499
0.0846416
0.0842508
0.0838919
0.0835625
0.0832603
0.082983
0.0827286
0.082495
0.0822804
0.0820831
0.0819014
0.0817341
0.0815795
0.0814366
0.0813041
0.0811812
0.0810669
0.0809603
0.0808608
0.0807675
0.08068
0.0805976
0.0805199
0.0804463
0.0803765
0.0803101
0.0802467
0.0801861
0.0801279
0.080072
0.0800181
0.0799659
0.0799154
0.0798662
0.0798183
0.0797716
0.0797258
0.0796809
0.0796368
0.0795934
0.0795505
0.0795081
0.0794661
0.0794244
0.0793831
0.0793419
0.0793009
0.07926
0.0792192
0.0791784
0.0791375
0.0790966
0.0790555
0.0790143
0.0789729
0.0876257
0.0872338
0.0868742
0.0865446
0.0862425
0.0859656
0.0857118
0.0854791
0.0852656
0.0850695
0.0848892
0.0847232
0.0845702
0.0844289
0.084298
0.0841765
0.0840636
0.0839585
0.0838603
0.0837683
0.083682
0.0836007
0.0835241
0.0834515
0.0833827
0.0833172
0.0832548
0.083195
0.0831377
0.0830825
0.0830293
0.0829779
0.082928
0.0828795
0.0828322
0.0827861
0.0827409
0.0826965
0.0826529
0.0826099
0.0825675
0.0825256
0.082484
0.0824428
0.0824018
0.0823611
0.0823204
0.0822799
0.0822394
0.0821989
0.0821584
0.0821178
0.082077
0.0820361
0.081995
0.0902009
0.0898111
0.0894538
0.0891265
0.088827
0.0885528
0.0883018
0.0880719
0.0878614
0.0876682
0.0874909
0.0873279
0.0871778
0.0870393
0.0869112
0.0867925
0.0866822
0.0865795
0.0864836
0.0863938
0.0863097
0.0862304
0.0861557
0.086085
0.086018
0.0859542
0.0858933
0.0858351
0.0857793
0.0857256
0.0856737
0.0856236
0.085575
0.0855277
0.0854817
0.0854367
0.0853926
0.0853493
0.0853068
0.0852648
0.0852234
0.0851825
0.0851419
0.0851016
0.0850616
0.0850217
0.084982
0.0849423
0.0849027
0.084863
0.0848233
0.0847836
0.0847436
0.0847036
0.0846633
0.0924129
0.0920278
0.0916752
0.0913528
0.0910579
0.0907884
0.0905421
0.0903169
0.0901108
0.0899222
0.0897492
0.0895905
0.0894445
0.08931
0.0891858
0.0890708
0.088964
0.0888647
0.088772
0.0886853
0.088604
0.0885276
0.0884556
0.0883874
0.0883228
0.0882614
0.0882028
0.0881467
0.0880929
0.0880412
0.0879913
0.087943
0.0878962
0.0878507
0.0878063
0.0877629
0.0877205
0.0876788
0.0876377
0.0875973
0.0875574
0.0875178
0.0874787
0.0874398
0.0874011
0.0873626
0.0873242
0.0872859
0.0872476
0.0872092
0.0871708
0.0871323
0.0870937
0.0870549
0.0870159
0.0869766
0.0943005
0.0939225
0.093577
0.0932613
0.0929731
0.09271
0.09247
0.0922509
0.0920508
0.0918678
0.0917005
0.0915471
0.0914063
0.0912768
0.0911574
0.0910469
0.0909445
0.0908493
0.0907606
0.0906776
0.0906
0.090527
0.0904582
0.0903932
0.0903316
0.090273
0.0902171
0.0901637
0.0901125
0.0900633
0.0900157
0.0899698
0.0899252
0.0898818
0.0898396
0.0897983
0.0897578
0.0897181
0.089679
0.0896404
0.0896024
0.0895647
0.0895273
0.0894902
0.0894532
0.0894165
0.0893798
0.0893432
0.0893065
0.0892699
0.0892332
0.0891963
0.0891593
0.0891222
0.0890848
0.0890473
0.0955292
0.0951925
0.0948854
0.0946054
0.0943503
0.094118
0.0939063
0.0937133
0.0935372
0.0933764
0.0932293
0.0930946
0.0929709
0.092857
0.0927519
0.0926544
0.092564
0.0924798
0.0924013
0.0923277
0.0922587
0.0921937
0.0921323
0.0920742
0.0920189
0.0919663
0.091916
0.0918677
0.0918213
0.0917765
0.0917333
0.0916913
0.0916505
0.0916107
0.0915718
0.0915336
0.0914962
0.0914594
0.091423
0.0913871
0.0913516
0.0913163
0.0912813
0.0912464
0.0912117
0.091177
0.0911424
0.0911078
0.0910731
0.0910384
0.0910035
0.0909685
0.0909333
0.090898
0.0908624
0.0968777
0.0965516
0.0962546
0.0959843
0.0957385
0.095515
0.0953118
0.0951269
0.0949586
0.0948052
0.0946653
0.0945373
0.0944201
0.0943124
0.0942131
0.0941212
0.0940361
0.093957
0.0938832
0.0938143
0.0937497
0.0936889
0.0936315
0.0935772
0.0935257
0.0934766
0.0934296
0.0933847
0.0933415
0.0932998
0.0932595
0.0932204
0.0931824
0.0931453
0.0931091
0.0930736
0.0930387
0.0930044
0.0929705
0.092937
0.0929039
0.092871
0.0928383
0.0928057
0.0927733
0.0927409
0.0927086
0.0926762
0.0926438
0.0926113
0.0925787
0.0925459
0.0925129
0.0924798
0.0924464
0.0980183
0.0977045
0.0974191
0.0971598
0.0969244
0.0967108
0.096517
0.0963412
0.0961814
0.0960362
0.0959039
0.0957833
0.0956731
0.0955719
0.0954787
0.0953928
0.0953133
0.0952395
0.0951708
0.0951066
0.0950466
0.0949902
0.0949369
0.0948866
0.0948389
0.0947934
0.0947499
0.0947083
0.0946683
0.0946297
0.0945924
0.0945562
0.0945209
0.0944866
0.094453
0.09442
0.0943877
0.0943558
0.0943243
0.0942932
0.0942623
0.0942317
0.0942012
0.0941709
0.0941407
0.0941105
0.0940802
0.09405
0.0940197
0.0939893
0.0939588
0.0939281
0.0938972
0.0938662
0.0938349
0.0989253
0.098625
0.0983524
0.0981051
0.0978812
0.0976784
0.0974949
0.0973287
0.0971783
0.0970418
0.0969179
0.0968052
0.0967023
0.0966081
0.0965217
0.0964421
0.0963687
0.0963007
0.0962376
0.0961787
0.0961237
0.0960721
0.0960235
0.0959776
0.0959341
0.0958927
0.0958532
0.0958153
0.095779
0.0957439
0.09571
0.0956771
0.0956451
0.0956139
0.0955834
0.0955535
0.0955241
0.0954951
0.0954665
0.0954382
0.0954101
0.0953822
0.0953545
0.0953268
0.0952993
0.0952717
0.0952441
0.0952165
0.0951888
0.0951611
0.0951331
0.0951051
0.0950768
0.0950484
0.0950197
0.099315
0.0990552
0.0988204
0.0986081
0.0984165
0.0982435
0.0980874
0.0979464
0.097819
0.0977037
0.0975991
0.097504
0.0974172
0.0973378
0.097265
0.0971981
0.0971363
0.0970791
0.097026
0.0969765
0.0969301
0.0968866
0.0968456
0.0968068
0.09677
0.096735
0.0967014
0.0966692
0.0966383
0.0966084
0.0965794
0.0965513
0.0965238
0.096497
0.0964707
0.0964449
0.0964195
0.0963944
0.0963696
0.096345
0.0963206
0.0962963
0.096272
0.0962479
0.0962237
0.0961996
0.0961754
0.0961511
0.0961268
0.0961023
0.0960777
0.0960529
0.0960279
0.0960028
0.0995803
0.0993578
0.0991572
0.0989765
0.098814
0.0986679
0.0985363
0.0984179
0.0983112
0.0982148
0.0981274
0.098048
0.0979757
0.0979097
0.0978493
0.0977938
0.0977426
0.0976953
0.0976514
0.0976104
0.0975721
0.0975361
0.0975022
0.0974701
0.0974397
0.0974106
0.0973828
0.0973561
0.0973304
0.0973055
0.0972814
0.097258
0.0972351
0.0972127
0.0971908
0.0971692
0.0971479
0.0971268
0.097106
0.0970853
0.0970647
0.0970442
0.0970238
0.0970034
0.096983
0.0969625
0.096942
0.0969215
0.0969008
0.09688
0.0968591
0.096838
0.0968168
0.0999666
0.0997562
0.099567
0.0993971
0.0992448
0.0991083
0.098986
0.0988763
0.0987778
0.0986893
0.0986096
0.0985374
0.098472
0.0984126
0.0983586
0.0983092
0.0982639
0.0982222
0.0981837
0.0981481
0.0981148
0.0980838
0.0980547
0.0980272
0.0980013
0.0979766
0.0979531
0.0979307
0.0979091
0.0978883
0.0978682
0.0978487
0.0978297
0.0978112
0.0977931
0.0977753
0.0977578
0.0977405
0.0977234
0.0977065
0.0976896
0.0976729
0.0976562
0.0976396
0.097623
0.0976063
0.0975896
0.0975729
0.0975561
0.0975392
0.0975222
0.097505
0.0974878
0.100244
0.100045
0.0998667
0.0997072
0.0995647
0.0994374
0.0993239
0.0992225
0.099132
0.0990511
0.0989785
0.0989133
0.0988545
0.0988015
0.0987535
0.0987099
0.0986702
0.0986339
0.0986006
0.0985699
0.0985415
0.0985152
0.0984906
0.0984675
0.0984459
0.0984254
0.098406
0.0983876
0.0983699
0.098353
0.0983367
0.098321
0.0983057
0.0982909
0.0982764
0.0982622
0.0982483
0.0982346
0.0982211
0.0982078
0.0981945
0.0981814
0.0981683
0.0981552
0.0981422
0.0981292
0.0981161
0.0981031
0.0980899
0.0980767
0.0980635
0.0980501
0.0980367
0.100434
0.100246
0.100078
0.0999287
0.0997954
0.099677
0.0995717
0.0994782
0.0993952
0.0993214
0.0992557
0.099197
0.0991445
0.0990974
0.0990551
0.0990169
0.0989825
0.0989512
0.0989227
0.0988967
0.0988728
0.0988508
0.0988304
0.0988114
0.0987937
0.0987771
0.0987615
0.0987468
0.0987327
0.0987194
0.0987066
0.0986943
0.0986825
0.098671
0.0986599
0.098649
0.0986384
0.098628
0.0986178
0.0986077
0.0985978
0.0985879
0.0985781
0.0985683
0.0985586
0.0985489
0.0985392
0.0985294
0.0985197
0.0985099
0.0985001
0.0984902
0.0984803
0.100553
0.100376
0.100218
0.100078
0.0999537
0.0998435
0.0997461
0.09966
0.099584
0.0995168
0.0994575
0.0994049
0.0993582
0.0993166
0.0992795
0.0992464
0.0992168
0.0991901
0.099166
0.0991443
0.0991245
0.0991064
0.0990898
0.0990746
0.0990605
0.0990474
0.0990352
0.0990237
0.099013
0.0990028
0.0989931
0.0989839
0.0989751
0.0989667
0.0989585
0.0989506
0.098943
0.0989355
0.0989281
0.0989209
0.0989139
0.0989069
0.0989
0.0988931
0.0988863
0.0988795
0.0988727
0.098866
0.0988592
0.0988524
0.0988456
0.0988387
0.0988319
0.100615
0.100448
0.1003
0.100168
0.100052
0.0999498
0.0998597
0.0997805
0.099711
0.09965
0.0995965
0.0995495
0.0995081
0.0994716
0.0994394
0.0994109
0.0993856
0.0993631
0.099343
0.0993251
0.0993089
0.0992944
0.0992812
0.0992692
0.0992583
0.0992483
0.0992391
0.0992305
0.0992226
0.0992152
0.0992083
0.0992017
0.0991956
0.0991897
0.0991841
0.0991787
0.0991735
0.0991685
0.0991637
0.0991589
0.0991543
0.0991497
0.0991453
0.0991409
0.0991365
0.0991322
0.0991279
0.0991236
0.0991193
0.099115
0.0991107
0.0991065
0.0991021
0.10063
0.100472
0.100333
0.100209
0.100101
0.100006
0.0999224
0.0998496
0.0997861
0.0997308
0.0996826
0.0996407
0.0996041
0.0995722
0.0995444
0.09952
0.0994986
0.0994798
0.0994633
0.0994487
0.0994358
0.0994243
0.0994141
0.099405
0.0993968
0.0993894
0.0993827
0.0993766
0.0993711
0.099366
0.0993613
0.099357
0.099353
0.0993492
0.0993457
0.0993424
0.0993392
0.0993362
0.0993334
0.0993306
0.0993279
0.0993254
0.0993228
0.0993204
0.099318
0.0993156
0.0993132
0.0993109
0.0993086
0.0993063
0.099304
0.0993017
0.0992995
0.100604
0.100455
0.100324
0.100208
0.100107
0.100019
0.0999417
0.0998748
0.0998168
0.0997667
0.0997234
0.099686
0.0996538
0.0996259
0.0996019
0.0995812
0.0995633
0.0995478
0.0995343
0.0995226
0.0995125
0.0995036
0.0994959
0.0994891
0.0994832
0.099478
0.0994733
0.0994693
0.0994656
0.0994624
0.0994595
0.0994569
0.0994546
0.0994525
0.0994506
0.0994488
0.0994472
0.0994457
0.0994443
0.099443
0.0994418
0.0994406
0.0994395
0.0994385
0.0994375
0.0994365
0.0994356
0.0994347
0.0994338
0.0994329
0.099432
0.0994311
0.0994303
0.100544
0.100403
0.10028
0.100172
0.100077
0.0999948
0.0999235
0.099862
0.0998091
0.0997636
0.0997247
0.0996914
0.099663
0.0996387
0.0996181
0.0996005
0.0995855
0.0995728
0.0995619
0.0995527
0.0995448
0.0995381
0.0995323
0.0995275
0.0995233
0.0995198
0.0995167
0.0995141
0.0995119
0.0995101
0.0995085
0.0995071
0.0995059
0.099505
0.0995041
0.0995034
0.0995028
0.0995023
0.0995018
0.0995015
0.0995011
0.0995009
0.0995006
0.0995004
0.0995003
0.0995001
0.0995
0.0994999
0.0994998
0.0994997
0.0994996
0.0994995
0.0994995
0.100448
0.100316
0.1002
0.100099
0.100011
0.099935
0.0998693
0.099813
0.0997648
0.0997238
0.099689
0.0996595
0.0996346
0.0996136
0.099596
0.0995812
0.0995688
0.0995585
0.0995498
0.0995427
0.0995367
0.0995317
0.0995276
0.0995242
0.0995214
0.0995191
0.0995173
0.0995157
0.0995145
0.0995135
0.0995128
0.0995121
0.0995117
0.0995113
0.0995111
0.0995109
0.0995108
0.0995107
0.0995107
0.0995107
0.0995107
0.0995107
0.0995108
0.0995109
0.0995109
0.099511
0.0995111
0.0995112
0.0995112
0.0995113
0.0995114
0.0995115
0.0995115
0.10031
0.100186
0.100078
0.0999838
0.0999022
0.0998319
0.0997716
0.0997202
0.0996766
0.0996397
0.0996087
0.0995826
0.0995609
0.0995427
0.0995277
0.0995152
0.099505
0.0994965
0.0994895
0.0994838
0.0994792
0.0994754
0.0994722
0.0994697
0.0994676
0.0994659
0.0994645
0.0994634
0.0994624
0.0994616
0.0994609
0.0994603
0.0994597
0.0994592
0.0994587
0.0994582
0.0994578
0.0994573
0.0994568
0.0994563
0.0994558
0.0994552
0.0994546
0.099454
0.0994533
0.0994527
0.099452
0.0994512
0.0994504
0.0994496
0.0994488
0.0994479
0.099447
0.100129
0.100013
0.0999123
0.0998248
0.0997493
0.0996846
0.0996295
0.0995827
0.0995432
0.0995101
0.0994823
0.0994593
0.0994401
0.0994243
0.0994113
0.0994006
0.0993919
0.0993847
0.0993788
0.0993739
0.0993699
0.0993666
0.0993638
0.0993614
0.0993593
0.0993575
0.0993558
0.0993543
0.0993528
0.0993514
0.0993499
0.0993485
0.099347
0.0993455
0.099344
0.0993424
0.0993407
0.0993389
0.0993371
0.0993351
0.0993331
0.099331
0.0993288
0.0993265
0.0993242
0.0993218
0.0993192
0.0993166
0.099314
0.0993112
0.0993084
0.0993055
0.0993025
0.0999012
0.0997933
0.0996996
0.0996186
0.0995491
0.0994898
0.0994394
0.0993969
0.0993611
0.0993313
0.0993065
0.0992859
0.0992689
0.0992549
0.0992433
0.0992338
0.099226
0.0992195
0.099214
0.0992093
0.0992053
0.0992018
0.0991986
0.0991956
0.0991928
0.0991901
0.0991874
0.0991847
0.099182
0.0991791
0.0991762
0.0991731
0.0991699
0.0991666
0.0991631
0.0991594
0.0991556
0.0991517
0.0991475
0.0991433
0.0991388
0.0991342
0.0991294
0.0991245
0.0991195
0.0991143
0.0991089
0.0991034
0.0990978
0.099092
0.0990861
0.09908
0.0990738
0.0996224
0.0995224
0.0994357
0.0993611
0.0992972
0.0992429
0.099197
0.0991583
0.099126
0.099099
0.0990766
0.099058
0.0990426
0.0990298
0.0990192
0.0990103
0.0990027
0.0989962
0.0989905
0.0989854
0.0989807
0.0989762
0.0989719
0.0989677
0.0989634
0.0989591
0.0989546
0.0989499
0.098945
0.09894
0.0989346
0.0989291
0.0989233
0.0989172
0.0989109
0.0989043
0.0988975
0.0988904
0.098883
0.0988754
0.0988676
0.0988595
0.0988511
0.0988425
0.0988337
0.0988247
0.0988154
0.0988059
0.0987962
0.0987862
0.0987761
0.0987657
0.0987551
0.0992876
0.0991952
0.0991154
0.0990469
0.0989884
0.0989388
0.0988969
0.0988617
0.0988323
0.0988077
0.0987872
0.0987701
0.0987557
0.0987436
0.0987333
0.0987243
0.0987164
0.0987092
0.0987026
0.0986963
0.0986902
0.0986841
0.0986779
0.0986716
0.098665
0.0986582
0.0986511
0.0986436
0.0986358
0.0986276
0.098619
0.0986101
0.0986008
0.098591
0.0985809
0.0985705
0.0985596
0.0985484
0.0985368
0.0985248
0.0985125
0.0984998
0.0984868
0.0984735
0.0984598
0.0984457
0.0984314
0.0984167
0.0984017
0.0983864
0.0983708
0.0983548
0.0983386
0.0988904
0.0988054
0.0987322
0.0986695
0.0986161
0.0985709
0.0985326
0.0985005
0.0984734
0.0984507
0.0984316
0.0984153
0.0984014
0.0983893
0.0983786
0.098369
0.09836
0.0983515
0.0983432
0.0983349
0.0983265
0.098318
0.0983091
0.0982999
0.0982902
0.09828
0.0982694
0.0982582
0.0982465
0.0982343
0.0982215
0.0982082
0.0981943
0.09818
0.0981651
0.0981496
0.0981337
0.0981173
0.0981003
0.0980829
0.098065
0.0980466
0.0980278
0.0980085
0.0979887
0.0979685
0.0979478
0.0979267
0.0979051
0.0978831
0.0978607
0.0978378
0.0978144
0.0984232
0.0983455
0.0982786
0.0982214
0.0981726
0.0981312
0.0980962
0.0980665
0.0980414
0.0980199
0.0980015
0.0979855
0.0979714
0.0979586
0.0979468
0.0979357
0.0979249
0.0979142
0.0979034
0.0978924
0.0978809
0.097869
0.0978566
0.0978435
0.0978298
0.0978153
0.0978002
0.0977843
0.0977678
0.0977505
0.0977325
0.0977137
0.0976943
0.0976742
0.0976533
0.0976318
0.0976097
0.0975869
0.0975634
0.0975393
0.0975146
0.0974892
0.0974633
0.0974367
0.0974095
0.0973818
0.0973534
0.0973245
0.0972949
0.0972648
0.0972341
0.0972028
0.0971709
0.0978768
0.097806
0.0977451
0.0976929
0.0976483
0.0976103
0.0975779
0.0975502
0.0975263
0.0975055
0.0974872
0.0974707
0.0974556
0.0974414
0.0974277
0.0974142
0.0974007
0.097387
0.0973728
0.0973581
0.0973426
0.0973264
0.0973094
0.0972915
0.0972727
0.097253
0.0972323
0.0972107
0.0971881
0.0971646
0.0971402
0.0971149
0.0970887
0.0970617
0.0970337
0.0970049
0.0969753
0.0969448
0.0969135
0.0968814
0.0968486
0.0968149
0.0967804
0.0967452
0.0967092
0.0966724
0.0966349
0.0965966
0.0965575
0.0965177
0.0964771
0.0964358
0.0963936
0.0972401
0.0971758
0.0971204
0.0970728
0.0970319
0.0969967
0.0969663
0.0969398
0.0969165
0.0968956
0.0968765
0.0968587
0.0968418
0.0968252
0.0968088
0.0967921
0.096775
0.0967572
0.0967387
0.0967192
0.0966987
0.0966772
0.0966545
0.0966307
0.0966056
0.0965795
0.0965521
0.0965235
0.0964938
0.0964629
0.0964309
0.0963978
0.0963635
0.0963282
0.0962918
0.0962544
0.0962159
0.0961764
0.0961358
0.0960943
0.0960518
0.0960083
0.0959638
0.0959184
0.095872
0.0958246
0.0957763
0.095727
0.0956767
0.0956255
0.0955733
0.0955201
0.0954659
0.0964999
0.0964416
0.0963911
0.0963474
0.0963095
0.0962764
0.0962473
0.0962212
0.0961976
0.0961757
0.0961551
0.0961351
0.0961153
0.0960955
0.0960752
0.0960543
0.0960325
0.0960096
0.0959856
0.0959603
0.0959336
0.0959056
0.0958761
0.0958451
0.0958127
0.0957788
0.0957434
0.0957066
0.0956684
0.0956288
0.0955878
0.0955455
0.0955018
0.0954568
0.0954105
0.0953629
0.095314
0.095264
0.0952127
0.0951601
0.0951064
0.0950514
0.0949953
0.0949379
0.0948794
0.0948197
0.0947588
0.0946967
0.0946334
0.0945689
0.0945032
0.0944362
0.094368
0.0956736
0.0956202
0.0955734
0.0955325
0.0954963
0.095464
0.0954349
0.095408
0.0953828
0.0953587
0.0953351
0.0953116
0.0952877
0.0952632
0.0952378
0.0952113
0.0951834
0.095154
0.0951231
0.0950905
0.0950561
0.0950201
0.0949822
0.0949426
0.0949012
0.094858
0.094813
0.0947664
0.094718
0.094668
0.0946163
0.094563
0.0945081
0.0944517
0.0943937
0.0943341
0.094273
0.0942105
0.0941464
0.0940809
0.0940139
0.0939455
0.0938755
0.0938042
0.0937314
0.0936571
0.0935814
0.0935042
0.0934255
0.0933453
0.0932637
0.0931805
0.0930958
0.094734
0.0946843
0.0946403
0.0946009
0.0945654
0.0945328
0.0945024
0.0944736
0.0944456
0.0944179
0.0943901
0.0943617
0.0943324
0.0943019
0.0942699
0.0942363
0.0942009
0.0941636
0.0941243
0.0940829
0.0940394
0.0939937
0.093946
0.0938961
0.0938441
0.09379
0.0937338
0.0936756
0.0936154
0.0935532
0.0934891
0.0934231
0.0933552
0.0932854
0.0932137
0.0931403
0.093065
0.092988
0.0929092
0.0928286
0.0927463
0.0926622
0.0925764
0.0924888
0.0923995
0.0923084
0.0922155
0.0921208
0.0920244
0.0919261
0.091826
0.091724
0.0916202
0.0935733
0.0935273
0.0934858
0.0934477
0.0934124
0.093379
0.0933469
0.0933153
0.0932838
0.0932518
0.093219
0.0931848
0.0931491
0.0931116
0.0930721
0.0930304
0.0929864
0.09294
0.0928911
0.0928398
0.0927859
0.0927295
0.0926706
0.0926092
0.0925453
0.092479
0.0924103
0.0923392
0.0922658
0.0921901
0.0921122
0.092032
0.0919496
0.0918651
0.0917784
0.0916896
0.0915987
0.0915057
0.0914107
0.0913136
0.0912144
0.0911131
0.0910098
0.0909044
0.090797
0.0906874
0.0905758
0.090462
0.0903461
0.090228
0.0901078
0.0899854
0.0898607
0.0921139
0.0920715
0.0920322
0.0919951
0.0919596
0.0919249
0.0918904
0.0918554
0.0918197
0.0917825
0.0917438
0.091703
0.09166
0.0916145
0.0915664
0.0915156
0.0914619
0.0914053
0.0913458
0.0912834
0.091218
0.0911497
0.0910785
0.0910045
0.0909276
0.0908479
0.0907654
0.0906803
0.0905925
0.0905021
0.0904091
0.0903136
0.0902156
0.0901152
0.0900122
0.0899069
0.0897991
0.089689
0.0895765
0.0894616
0.0893443
0.0892247
0.0891027
0.0889783
0.0888515
0.0887223
0.0885907
0.0884566
0.08832
0.088181
0.0880394
0.0878952
0.0877485
0.0902706
0.0902321
0.0901952
0.0901592
0.0901235
0.0900874
0.0900504
0.090012
0.0899718
0.0899294
0.0898845
0.0898369
0.0897863
0.0897327
0.0896758
0.0896157
0.0895522
0.0894853
0.0894151
0.0893415
0.0892645
0.0891842
0.0891007
0.0890139
0.088924
0.088831
0.0887349
0.0886358
0.0885338
0.0884288
0.088321
0.0882104
0.0880971
0.087981
0.0878622
0.0877406
0.0876165
0.0874897
0.0873602
0.0872281
0.0870934
0.086956
0.086816
0.0866733
0.086528
0.0863799
0.0862292
0.0860758
0.0859195
0.0857605
0.0855987
0.085434
0.0852664
0.087926
0.0878925
0.0878592
0.0878254
0.0877906
0.0877542
0.0877159
0.0876751
0.0876316
0.0875851
0.0875354
0.0874822
0.0874255
0.0873651
0.087301
0.087233
0.0871613
0.0870858
0.0870066
0.0869236
0.086837
0.0867467
0.0866529
0.0865556
0.0864549
0.0863508
0.0862435
0.0861329
0.0860192
0.0859025
0.0857826
0.0856598
0.085534
0.0854054
0.0852738
0.0851394
0.0850022
0.0848622
0.0847194
0.0845738
0.0844254
0.0842742
0.0841203
0.0839635
0.0838039
0.0836415
0.0834762
0.083308
0.0831369
0.0829629
0.0827859
0.0826059
0.0824229
0.084855
0.0848286
0.0848009
0.0847714
0.0847397
0.0847053
0.0846679
0.0846272
0.084583
0.084535
0.0844831
0.0844273
0.0843673
0.0843032
0.084235
0.0841626
0.0840861
0.0840055
0.083921
0.0838325
0.0837401
0.0836439
0.083544
0.0834405
0.0833335
0.0832231
0.0831092
0.0829921
0.0828718
0.0827483
0.0826217
0.0824921
0.0823596
0.0822241
0.0820857
0.0819445
0.0818004
0.0816535
0.0815039
0.0813515
0.0811963
0.0810383
0.0808775
0.080714
0.0805477
0.0803786
0.0802067
0.0800319
0.0798543
0.0796738
0.0794903
0.0793039
0.0791145
0.0806902
0.0806744
0.080656
0.0806347
0.0806102
0.080582
0.0805501
0.0805142
0.0804741
0.0804298
0.0803811
0.080328
0.0802706
0.0802087
0.0801425
0.080072
0.0799973
0.0799184
0.0798355
0.0797486
0.0796578
0.0795633
0.0794651
0.0793634
0.0792582
0.0791496
0.0790378
0.0789229
0.0788049
0.0786838
0.0785599
0.078433
0.0783034
0.078171
0.078036
0.0778982
0.0777579
0.077615
0.0774695
0.0773214
0.0771708
0.0770177
0.0768621
0.076704
0.0765434
0.0763802
0.0762145
0.0760462
0.0758754
0.075702
0.0755259
0.0753473
0.075166
0.0758415
0.0758389
0.0758328
0.0758228
0.0758088
0.0757906
0.075768
0.075741
0.0757095
0.0756733
0.0756326
0.0755874
0.0755376
0.0754834
0.0754247
0.0753618
0.0752947
0.0752235
0.0751484
0.0750693
0.0749866
0.0749002
0.0748104
0.0747172
0.0746207
0.074521
0.0744184
0.0743127
0.0742043
0.074093
0.0739791
0.0738626
0.0737435
0.0736219
0.0734979
0.0733716
0.0732429
0.0731119
0.0729786
0.0728431
0.0727054
0.0725654
0.0724233
0.072279
0.0721325
0.0719838
0.071833
0.0716799
0.0715247
0.0713672
0.0712076
0.0710457
0.0708815
0.0712284
0.0712352
0.0712377
0.071236
0.0712297
0.0712189
0.0712033
0.0711831
0.0711582
0.0711285
0.0710942
0.0710553
0.0710119
0.070964
0.0709118
0.0708554
0.0707949
0.0707303
0.070662
0.0705899
0.0705142
0.0704351
0.0703526
0.0702669
0.0701782
0.0700865
0.0699919
0.0698945
0.0697945
0.0696919
0.0695868
0.0694793
0.0693695
0.0692574
0.0691431
0.0690266
0.068908
0.0687873
0.0686646
0.0685398
0.0684131
0.0682844
0.0681537
0.068021
0.0678865
0.06775
0.0676115
0.0674711
0.0673288
0.0671846
0.0670384
0.0668902
0.06674
0.0665409
0.0665557
0.0665661
0.0665717
0.0665726
0.0665688
0.0665601
0.0665467
0.0665285
0.0665056
0.0664781
0.066446
0.0664095
0.0663686
0.0663235
0.0662744
0.0662213
0.0661643
0.0661037
0.0660396
0.065972
0.0659011
0.0658272
0.0657502
0.0656703
0.0655876
0.0655022
0.0654143
0.065324
0.0652312
0.0651362
0.0650389
0.0649395
0.0648381
0.0647346
0.0646292
0.0645218
0.0644126
0.0643015
0.0641886
0.0640739
0.0639575
0.0638394
0.0637195
0.0635978
0.0634745
0.0633495
0.0632227
0.0630943
0.0629641
0.0628323
0.0626987
0.0625633
0.0624263
0.0618075
0.0618293
0.0618464
0.0618586
0.061866
0.0618686
0.0618664
0.0618595
0.0618478
0.0618316
0.0618108
0.0617857
0.0617562
0.0617226
0.0616849
0.0616433
0.061598
0.061549
0.0614966
0.0614408
0.0613818
0.0613197
0.0612547
0.0611869
0.0611164
0.0610433
0.0609677
0.0608898
0.0608096
0.0607273
0.0606428
0.0605564
0.0604679
0.0603777
0.0602855
0.0601917
0.0600961
0.0599988
0.0598998
0.0597993
0.0596971
0.0595935
0.0594882
0.0593814
0.0592731
0.0591633
0.0590521
0.0589393
0.058825
0.0587092
0.0585919
0.0584731
0.0583528
0.058231
0.057029
0.0570564
0.0570791
0.0570969
0.05711
0.0571183
0.057122
0.057121
0.0571155
0.0571055
0.0570912
0.0570727
0.0570501
0.0570235
0.0569931
0.0569591
0.0569215
0.0568804
0.0568362
0.0567888
0.0567384
0.0566852
0.0566292
0.0565707
0.0565096
0.0564462
0.0563805
0.0563127
0.0562428
0.0561709
0.0560971
0.0560215
0.0559441
0.055865
0.0557843
0.055702
0.0556182
0.0555329
0.0554461
0.0553579
0.0552682
0.0551772
0.0550848
0.0549911
0.0548961
0.0547997
0.054702
0.054603
0.0545027
0.0544011
0.0542982
0.054194
0.0540885
0.0539817
0.0521714
0.0522032
0.0522302
0.0522526
0.0522704
0.0522836
0.0522922
0.0522965
0.0522964
0.0522922
0.0522838
0.0522714
0.0522552
0.0522353
0.0522118
0.0521849
0.0521547
0.0521213
0.0520849
0.0520456
0.0520036
0.0519589
0.0519118
0.0518622
0.0518104
0.0517565
0.0517004
0.0516424
0.0515826
0.0515209
0.0514575
0.0513925
0.0513259
0.0512578
0.0511883
0.0511173
0.051045
0.0509713
0.0508963
0.0508201
0.0507427
0.050664
0.0505842
0.0505031
0.0504209
0.0503376
0.0502531
0.0501675
0.0500808
0.0499929
0.0499039
0.0498138
0.0497225
0.0496301
0.0471518
0.0471865
0.0472167
0.0472424
0.0472637
0.0472806
0.0472933
0.0473019
0.0473064
0.047307
0.0473038
0.0472969
0.0472864
0.0472725
0.0472554
0.047235
0.0472117
0.0471854
0.0471564
0.0471248
0.0470906
0.0470541
0.0470153
0.0469743
0.0469313
0.0468863
0.0468395
0.046791
0.0467407
0.0466889
0.0466355
0.0465807
0.0465245
0.0464669
0.0464081
0.046348
0.0462867
0.0462243
0.0461607
0.0460961
0.0460303
0.0459635
0.0458957
0.0458269
0.045757
0.0456862
0.0456144
0.0455416
0.0454678
0.0453931
0.0453174
0.0452408
0.0451632
0.0450846
0.041799
0.0418348
0.0418664
0.0418939
0.0419173
0.0419367
0.0419522
0.0419639
0.041972
0.0419764
0.0419774
0.0419751
0.0419695
0.0419608
0.0419492
0.0419347
0.0419175
0.0418978
0.0418755
0.0418509
0.0418241
0.0417951
0.0417642
0.0417313
0.0416966
0.0416602
0.0416221
0.0415825
0.0415414
0.041499
0.0414552
0.0414101
0.0413638
0.0413164
0.0412679
0.0412182
0.0411676
0.041116
0.0410633
0.0410098
0.0409553
0.0409
0.0408437
0.0407866
0.0407287
0.0406699
0.0406103
0.0405498
0.0404886
0.0404265
0.0403636
0.0402999
0.0402355
0.0401702
0.0357354
0.0357699
0.0358006
0.0358278
0.0358513
0.0358714
0.035888
0.0359013
0.0359114
0.0359183
0.0359223
0.0359233
0.0359216
0.0359172
0.0359102
0.0359007
0.035889
0.035875
0.0358588
0.0358407
0.0358206
0.0357987
0.0357751
0.0357499
0.0357231
0.0356949
0.0356652
0.0356343
0.0356022
0.0355688
0.0355343
0.0354988
0.0354623
0.0354247
0.0353863
0.035347
0.0353068
0.0352658
0.035224
0.0351814
0.0351381
0.035094
0.0350492
0.0350037
0.0349575
0.0349106
0.0348631
0.0348149
0.034766
0.0347165
0.0346663