/*--------------------------------*- C++ -*----------------------------------*\
  =========                 |
  \\      /  F ield         | OpenFOAM: The Open Source CFD Toolbox
   \\    /   O peration     | Website:  https://openfoam.org
    \\  /    A nd           | Version:  6
     \\/     M anipulation  |
\*---------------------------------------------------------------------------*/
FoamFile
{
    version     2.0;
    format      ascii;
    class       volScalarField;
    location    "0.07";
    object      nut;
}
// * * * * * * * * * * * * * * * * * * * * * * * * * * * * * * * * * * * * * //

dimensions      [0 2 -1 0 0 0 0];

internalField   nonuniform List<scalar> 
3081
(
1.71726e-05
1.7094e-05
1.70201e-05
1.69506e-05
1.68851e-05
1.68234e-05
1.67653e-05
1.67103e-05
1.66584e-05
1.66092e-05
1.65625e-05
1.65181e-05
1.64756e-05
1.6435e-05
1.63966e-05
1.636e-05
1.63251e-05
1.62914e-05
1.6259e-05
1.62276e-05
1.61971e-05
1.61674e-05
1.61385e-05
1.61101e-05
1.60824e-05
1.60551e-05
1.60282e-05
1.60017e-05
1.59755e-05
1.59496e-05
1.59239e-05
1.58984e-05
1.5873e-05
1.58478e-05
1.58227e-05
1.57976e-05
1.57726e-05
1.57476e-05
1.57227e-05
1.56977e-05
1.56728e-05
1.56477e-05
1.56227e-05
1.55975e-05
1.55724e-05
1.55471e-05
1.55217e-05
1.54962e-05
1.54706e-05
1.54449e-05
1.54191e-05
1.53931e-05
1.5367e-05
1.53407e-05
1.53143e-05
1.52877e-05
1.52609e-05
0.000133955
0.00013306
0.000132226
0.00013145
0.000130727
0.000130055
0.000129429
0.000128845
0.0001283
0.000127792
0.000127317
0.000126872
0.000126451
0.000126039
0.00012564
0.000125264
0.00012491
0.000124578
0.000124265
0.000123968
0.000123687
0.000123419
0.000123163
0.000122917
0.000122681
0.000122454
0.000122233
0.00012202
0.000121812
0.000121609
0.00012141
0.000121216
0.000121025
0.000120836
0.000120651
0.000120467
0.000120286
0.000120105
0.000119927
0.000119749
0.000119571
0.000119395
0.000119218
0.000119042
0.000118866
0.00011869
0.000118513
0.000118336
0.000118159
0.000117981
0.000117802
0.000117622
0.000117442
0.00011726
0.000117077
0.000116893
0.000116708
0.000254308
0.000252573
0.000250957
0.000249455
0.000248058
0.000246759
0.000245552
0.000244429
0.000243385
0.000242413
0.000241506
0.00024066
0.000239867
0.000239117
0.000238399
0.00023772
0.00023708
0.000236477
0.000235908
0.00023537
0.000234861
0.000234377
0.000233916
0.000233477
0.000233056
0.000232651
0.000232262
0.000231886
0.000231522
0.000231169
0.000230825
0.00023049
0.000230162
0.000229841
0.000229525
0.000229214
0.000228908
0.000228605
0.000228305
0.000228008
0.000227712
0.000227419
0.000227127
0.000226835
0.000226545
0.000226254
0.000225964
0.000225673
0.000225382
0.00022509
0.000224798
0.000224504
0.000224208
0.000223912
0.000223613
0.000223313
0.00022301
0.000352257
0.000349897
0.000347699
0.000345654
0.000343753
0.000341986
0.000340344
0.000338818
0.000337399
0.00033608
0.000334852
0.000333707
0.000332637
0.000331634
0.000330688
0.000329791
0.000328948
0.000328155
0.000327407
0.000326701
0.000326033
0.000325399
0.000324796
0.000324222
0.000323673
0.000323147
0.000322642
0.000322156
0.000321686
0.000321232
0.000320791
0.000320362
0.000319943
0.000319534
0.000319133
0.00031874
0.000318353
0.000317971
0.000317594
0.000317221
0.000316851
0.000316484
0.000316119
0.000315756
0.000315394
0.000315032
0.000314672
0.000314311
0.00031395
0.000313588
0.000313226
0.000312862
0.000312497
0.00031213
0.000311762
0.000311391
0.000311017
0.000431984
0.000429184
0.000426575
0.000424147
0.000421888
0.000419788
0.000417836
0.000416022
0.000414337
0.000412769
0.000411311
0.000409953
0.000408686
0.000407502
0.000406391
0.000405342
0.000404358
0.000403432
0.00040256
0.000401737
0.00040096
0.000400222
0.000399522
0.000398856
0.00039822
0.000397612
0.000397029
0.000396468
0.000395928
0.000395405
0.000394899
0.000394408
0.00039393
0.000393463
0.000393007
0.000392559
0.00039212
0.000391687
0.00039126
0.000390838
0.000390421
0.000390007
0.000389597
0.000389188
0.000388782
0.000388376
0.000387972
0.000387568
0.000387164
0.000386759
0.000386354
0.000385947
0.000385539
0.00038513
0.000384718
0.000384304
0.000383887
0.000497806
0.000494711
0.000491824
0.000489135
0.000486633
0.000484306
0.000482142
0.000480132
0.000478263
0.000476526
0.00047491
0.000473406
0.000472004
0.000470695
0.00046947
0.000468319
0.000467237
0.000466222
0.000465266
0.000464365
0.000463514
0.000462708
0.000461943
0.000461215
0.000460522
0.000459859
0.000459225
0.000458615
0.000458028
0.000457462
0.000456914
0.000456382
0.000455865
0.000455361
0.000454869
0.000454388
0.000453915
0.00045345
0.000452993
0.000452541
0.000452094
0.000451652
0.000451213
0.000450777
0.000450343
0.000449911
0.00044948
0.000449049
0.000448619
0.000448188
0.000447757
0.000447325
0.000446892
0.000446456
0.000446019
0.000445579
0.000445137
0.00054954
0.000546479
0.000543626
0.000540969
0.000538498
0.000536199
0.000534063
0.000532077
0.000530231
0.000528514
0.000526916
0.000525428
0.000524039
0.000522741
0.000521525
0.000520383
0.00051931
0.000518302
0.000517352
0.000516455
0.000515606
0.000514801
0.000514036
0.000513307
0.000512611
0.000511945
0.000511306
0.000510691
0.000510098
0.000509525
0.000508969
0.000508429
0.000507904
0.000507391
0.00050689
0.000506398
0.000505915
0.000505439
0.00050497
0.000504507
0.000504048
0.000503594
0.000503142
0.000502693
0.000502246
0.000501801
0.000501356
0.000500912
0.000500467
0.000500022
0.000499576
0.000499129
0.00049868
0.000498229
0.000497775
0.000497319
0.000595831
0.000592677
0.000589734
0.000586993
0.000584442
0.000582069
0.000579863
0.000577812
0.000575906
0.000574133
0.000572484
0.000570948
0.000569516
0.000568179
0.000566927
0.000565752
0.00056465
0.000563614
0.000562639
0.000561718
0.000560847
0.000560021
0.000559237
0.000558491
0.000557778
0.000557096
0.000556442
0.000555813
0.000555208
0.000554622
0.000554055
0.000553505
0.00055297
0.000552447
0.000551937
0.000551437
0.000550946
0.000550462
0.000549986
0.000549516
0.000549051
0.00054859
0.000548132
0.000547677
0.000547225
0.000546773
0.000546323
0.000545874
0.000545424
0.000544974
0.000544523
0.000544071
0.000543617
0.000543161
0.000542702
0.00054224
0.000631951
0.00062898
0.000626211
0.000623632
0.000621233
0.000619003
0.000616929
0.000615002
0.00061321
0.000611543
0.000609991
0.000608545
0.000607195
0.000605933
0.00060475
0.00060364
0.000602597
0.000601615
0.000600688
0.000599812
0.000598982
0.000598193
0.000597443
0.000596727
0.000596042
0.000595386
0.000594755
0.000594148
0.000593561
0.000592993
0.000592442
0.000591906
0.000591383
0.000590872
0.000590372
0.000589881
0.000589399
0.000588923
0.000588454
0.000587989
0.000587529
0.000587073
0.000586619
0.000586168
0.000585719
0.00058527
0.000584822
0.000584374
0.000583925
0.000583476
0.000583026
0.000582573
0.000582119
0.000581662
0.000581202
0.000665445
0.000662492
0.000659738
0.000657173
0.000654788
0.000652569
0.000650507
0.000648591
0.00064681
0.000645153
0.000643611
0.000642175
0.000640836
0.000639584
0.000638411
0.000637311
0.000636278
0.000635305
0.000634387
0.00063352
0.000632698
0.000631918
0.000631176
0.000630468
0.000629791
0.000629142
0.000628519
0.000627919
0.000627339
0.000626779
0.000626235
0.000625706
0.00062519
0.000624687
0.000624194
0.00062371
0.000623235
0.000622766
0.000622304
0.000621846
0.000621394
0.000620944
0.000620498
0.000620054
0.000619611
0.00061917
0.000618729
0.000618288
0.000617847
0.000617405
0.000616962
0.000616517
0.00061607
0.00061562
0.000615167
0.000694022
0.000691125
0.000688424
0.000685908
0.000683567
0.000681391
0.000679368
0.000677489
0.000675743
0.00067412
0.00067261
0.000671203
0.000669892
0.000668668
0.000667522
0.000666448
0.000665438
0.000664487
0.000663591
0.000662744
0.000661942
0.000661181
0.000660457
0.000659766
0.000659106
0.000658473
0.000657865
0.00065728
0.000656716
0.000656169
0.000655639
0.000655124
0.000654622
0.000654132
0.000653652
0.000653181
0.000652718
0.000652262
0.000651812
0.000651367
0.000650926
0.000650489
0.000650055
0.000649623
0.000649192
0.000648763
0.000648334
0.000647905
0.000647475
0.000647045
0.000646614
0.000646181
0.000645746
0.000645308
0.000644866
0.000718362
0.000715554
0.000712934
0.000710494
0.000708225
0.000706115
0.000704156
0.000702335
0.000700645
0.000699074
0.000697613
0.000696253
0.000694987
0.000693804
0.000692698
0.000691662
0.000690687
0.000689771
0.000688907
0.00068809
0.000687317
0.000686583
0.000685885
0.000685219
0.000684583
0.000683974
0.000683389
0.000682825
0.000682282
0.000681756
0.000681245
0.000680749
0.000680266
0.000679794
0.000679332
0.000678879
0.000678433
0.000677994
0.000677561
0.000677133
0.000676708
0.000676288
0.000675869
0.000675453
0.000675039
0.000674625
0.000674212
0.000673799
0.000673385
0.000672971
0.000672555
0.000672138
0.000671719
0.000671297
0.000670871
0.000670439
0.000739011
0.000736319
0.000733806
0.000731465
0.000729289
0.000727266
0.000725387
0.000723644
0.000722025
0.000720522
0.000719125
0.000717826
0.000716617
0.000715488
0.000714434
0.000713445
0.000712516
0.000711643
0.000710819
0.000710041
0.000709305
0.000708606
0.000707941
0.000707308
0.000706702
0.000706122
0.000705565
0.000705029
0.000704511
0.00070401
0.000703525
0.000703052
0.000702592
0.000702143
0.000701703
0.000701271
0.000700847
0.000700429
0.000700017
0.000699609
0.000699205
0.000698804
0.000698405
0.000698009
0.000697613
0.000697219
0.000696825
0.000696431
0.000696037
0.000695641
0.000695245
0.000694846
0.000694446
0.000694043
0.000693636
0.000693225
0.000753867
0.000751481
0.000749259
0.000747191
0.000745271
0.00074349
0.000741837
0.000740304
0.000738882
0.000737562
0.000736335
0.000735193
0.000734129
0.000733134
0.000732202
0.000731327
0.000730505
0.000729729
0.000728996
0.000728303
0.000727646
0.00072702
0.000726424
0.000725854
0.000725308
0.000724784
0.00072428
0.000723793
0.000723321
0.000722864
0.00072242
0.000721987
0.000721564
0.00072115
0.000720743
0.000720344
0.00071995
0.000719561
0.000719177
0.000718796
0.000718418
0.000718042
0.000717668
0.000717295
0.000716923
0.000716551
0.000716178
0.000715806
0.000715432
0.000715057
0.000714681
0.000714302
0.000713921
0.000713536
0.000713147
0.000768585
0.000766335
0.000764241
0.000762296
0.000760492
0.000758819
0.000757269
0.000755834
0.000754503
0.000753269
0.000752123
0.000751058
0.000750066
0.00074914
0.000748272
0.000747458
0.000746692
0.00074597
0.000745289
0.000744644
0.000744033
0.000743452
0.000742898
0.000742368
0.000741861
0.000741374
0.000740905
0.000740452
0.000740014
0.000739589
0.000739176
0.000738773
0.000738379
0.000737994
0.000737615
0.000737243
0.000736876
0.000736514
0.000736155
0.0007358
0.000735447
0.000735097
0.000734748
0.000734399
0.000734052
0.000733704
0.000733356
0.000733008
0.000732658
0.000732308
0.000731955
0.000731601
0.000731243
0.000730883
0.000730518
0.000781032
0.000778933
0.000776981
0.00077517
0.000773493
0.000771941
0.000770505
0.000769176
0.000767946
0.000766807
0.00076575
0.000764768
0.000763855
0.000763002
0.000762203
0.000761453
0.000760748
0.000760084
0.000759457
0.000758864
0.000758301
0.000757766
0.000757256
0.000756768
0.000756301
0.000755852
0.000755419
0.000755001
0.000754597
0.000754204
0.000753822
0.000753449
0.000753085
0.000752728
0.000752377
0.000752032
0.000751691
0.000751354
0.000751021
0.000750691
0.000750362
0.000750036
0.00074971
0.000749385
0.000749061
0.000748736
0.000748411
0.000748085
0.000747758
0.000747429
0.000747099
0.000746767
0.000746432
0.000746093
0.00074575
0.00079093
0.000788994
0.000787193
0.000785527
0.000783987
0.000782564
0.000781251
0.000780037
0.000778916
0.000777879
0.000776919
0.000776027
0.000775198
0.000774424
0.000773699
0.00077302
0.000772383
0.000771782
0.000771216
0.00077068
0.000770172
0.000769689
0.000769228
0.000768788
0.000768366
0.00076796
0.00076757
0.000767192
0.000766826
0.000766471
0.000766126
0.000765788
0.000765458
0.000765134
0.000764816
0.000764503
0.000764194
0.000763888
0.000763586
0.000763285
0.000762986
0.000762689
0.000762392
0.000762096
0.0007618
0.000761503
0.000761206
0.000760909
0.00076061
0.000760309
0.000760007
0.000759702
0.000759395
0.000759084
0.000758769
0.000796524
0.000794888
0.000793367
0.000791966
0.000790675
0.000789485
0.000788389
0.00078738
0.000786448
0.000785587
0.000784789
0.000784047
0.000783356
0.000782712
0.000782108
0.000781543
0.000781011
0.00078051
0.000780037
0.000779589
0.000779164
0.000778758
0.000778371
0.000778001
0.000777645
0.000777302
0.000776971
0.000776651
0.00077634
0.000776038
0.000775742
0.000775454
0.000775171
0.000774893
0.000774619
0.000774348
0.000774081
0.000773816
0.000773554
0.000773292
0.000773032
0.000772772
0.000772513
0.000772254
0.000771994
0.000771734
0.000771473
0.000771211
0.000770948
0.000770683
0.000770415
0.000770145
0.000769872
0.000769593
0.000800642
0.000799266
0.000797999
0.000796835
0.000795767
0.000794787
0.000793887
0.000793059
0.000792297
0.000791592
0.000790939
0.000790333
0.000789768
0.000789241
0.000788748
0.000788287
0.000787853
0.000787444
0.000787058
0.000786691
0.000786343
0.000786011
0.000785694
0.00078539
0.000785098
0.000784816
0.000784543
0.000784279
0.000784023
0.000783772
0.000783528
0.000783288
0.000783053
0.000782822
0.000782593
0.000782368
0.000782144
0.000781923
0.000781702
0.000781483
0.000781264
0.000781045
0.000780827
0.000780608
0.000780389
0.000780169
0.000779948
0.000779725
0.000779501
0.000779276
0.000779048
0.000778816
0.000778579
0.000804904
0.000803653
0.00080251
0.000801467
0.000800514
0.000799645
0.000798851
0.000798123
0.000797456
0.000796843
0.000796277
0.000795752
0.000795266
0.000794814
0.000794392
0.000793999
0.000793631
0.000793285
0.000792959
0.000792651
0.00079236
0.000792083
0.000791818
0.000791566
0.000791323
0.00079109
0.000790865
0.000790648
0.000790437
0.000790231
0.000790031
0.000789835
0.000789643
0.000789454
0.000789268
0.000789085
0.000788903
0.000788723
0.000788544
0.000788366
0.000788188
0.000788011
0.000787833
0.000787656
0.000787478
0.0007873
0.00078712
0.00078694
0.000786758
0.000786575
0.000786389
0.0007862
0.000786006
0.000807966
0.000806837
0.000805812
0.000804883
0.000804041
0.000803277
0.000802583
0.000801952
0.000801376
0.000800849
0.000800366
0.00079992
0.000799508
0.000799127
0.000798775
0.000798447
0.000798141
0.000797855
0.000797588
0.000797336
0.000797098
0.000796873
0.000796659
0.000796456
0.000796261
0.000796075
0.000795895
0.000795722
0.000795555
0.000795393
0.000795235
0.000795081
0.00079493
0.000794782
0.000794637
0.000794494
0.000794352
0.000794211
0.000794072
0.000793934
0.000793796
0.000793658
0.00079352
0.000793383
0.000793245
0.000793106
0.000792967
0.000792827
0.000792686
0.000792544
0.0007924
0.000792252
0.000792098
0.000810071
0.000809059
0.000808147
0.000807326
0.000806588
0.000805924
0.000805325
0.000804783
0.000804293
0.000803847
0.000803441
0.000803069
0.000802728
0.000802414
0.000802126
0.000801859
0.000801612
0.000801382
0.000801169
0.000800969
0.000800781
0.000800605
0.000800439
0.000800281
0.000800131
0.000799988
0.000799851
0.000799719
0.000799593
0.00079947
0.000799352
0.000799236
0.000799124
0.000799014
0.000798906
0.000798799
0.000798695
0.000798591
0.000798488
0.000798386
0.000798285
0.000798184
0.000798083
0.000797982
0.000797881
0.000797779
0.000797677
0.000797575
0.000797471
0.000797366
0.00079726
0.00079715
0.000797034
0.000811408
0.000810507
0.000809701
0.000808983
0.000808343
0.000807771
0.00080726
0.000806802
0.000806391
0.00080602
0.000805685
0.000805382
0.000805106
0.000804854
0.000804624
0.000804414
0.000804221
0.000804043
0.000803879
0.000803727
0.000803585
0.000803453
0.000803329
0.000803213
0.000803103
0.000803
0.000802901
0.000802807
0.000802717
0.00080263
0.000802547
0.000802466
0.000802388
0.000802311
0.000802237
0.000802164
0.000802092
0.000802021
0.000801951
0.000801881
0.000801812
0.000801744
0.000801675
0.000801606
0.000801538
0.000801469
0.0008014
0.00080133
0.00080126
0.000801188
0.000801115
0.000801039
0.000800956
0.000812125
0.000811327
0.000810621
0.000809998
0.000809448
0.000808963
0.000808533
0.000808152
0.000807812
0.00080751
0.000807241
0.000806999
0.000806782
0.000806587
0.000806411
0.000806251
0.000806107
0.000805975
0.000805855
0.000805746
0.000805645
0.000805553
0.000805467
0.000805387
0.000805313
0.000805244
0.000805179
0.000805117
0.000805059
0.000805004
0.000804951
0.0008049
0.000804851
0.000804804
0.000804758
0.000804713
0.00080467
0.000804627
0.000804584
0.000804543
0.000804501
0.00080446
0.000804419
0.000804377
0.000804336
0.000804295
0.000804254
0.000804212
0.000804169
0.000804126
0.000804081
0.000804033
0.000803978
0.000812336
0.000811635
0.000811021
0.000810486
0.000810019
0.000809612
0.000809256
0.000808944
0.00080867
0.00080843
0.000808218
0.000808032
0.000807868
0.000807722
0.000807594
0.000807479
0.000807378
0.000807287
0.000807206
0.000807134
0.000807069
0.00080701
0.000806957
0.000806909
0.000806865
0.000806825
0.000806788
0.000806754
0.000806723
0.000806694
0.000806666
0.00080664
0.000806616
0.000806592
0.00080657
0.000806548
0.000806527
0.000806507
0.000806487
0.000806467
0.000806448
0.000806429
0.000806409
0.00080639
0.000806371
0.000806352
0.000806332
0.000806312
0.000806292
0.000806271
0.000806248
0.000806222
0.00080619
0.000812133
0.000811521
0.000810991
0.000810536
0.000810144
0.000809807
0.000809517
0.000809267
0.000809051
0.000808865
0.000808705
0.000808567
0.000808449
0.000808347
0.000808259
0.000808184
0.000808119
0.000808064
0.000808016
0.000807975
0.00080794
0.00080791
0.000807884
0.000807862
0.000807842
0.000807826
0.000807812
0.0008078
0.000807789
0.00080778
0.000807773
0.000807766
0.00080776
0.000807755
0.00080775
0.000807746
0.000807742
0.000807739
0.000807735
0.000807732
0.000807729
0.000807726
0.000807722
0.000807719
0.000807715
0.000807712
0.000807708
0.000807704
0.000807699
0.000807694
0.000807687
0.000807677
0.00080766
0.000811585
0.000811054
0.0008106
0.000810216
0.00080989
0.000809615
0.000809383
0.000809187
0.000809022
0.000808884
0.000808768
0.000808672
0.000808593
0.000808528
0.000808475
0.000808432
0.000808398
0.000808371
0.00080835
0.000808335
0.000808323
0.000808316
0.000808311
0.000808309
0.000808308
0.00080831
0.000808312
0.000808316
0.000808321
0.000808327
0.000808333
0.000808339
0.000808346
0.000808353
0.00080836
0.000808367
0.000808375
0.000808382
0.000808389
0.000808395
0.000808402
0.000808408
0.000808414
0.00080842
0.000808426
0.000808431
0.000808436
0.000808441
0.000808445
0.000808449
0.000808451
0.00080845
0.000808442
0.000810695
0.000810239
0.000809856
0.000809537
0.000809273
0.000809055
0.000808876
0.000808729
0.00080861
0.000808515
0.000808439
0.00080838
0.000808334
0.000808301
0.000808278
0.000808263
0.000808254
0.000808251
0.000808253
0.000808257
0.000808265
0.000808275
0.000808286
0.000808298
0.000808312
0.000808326
0.00080834
0.000808354
0.000808369
0.000808384
0.000808398
0.000808412
0.000808426
0.000808439
0.000808452
0.000808464
0.000808476
0.000808488
0.000808499
0.000808509
0.000808519
0.000808529
0.000808538
0.000808546
0.000808554
0.000808562
0.000808569
0.000808576
0.000808582
0.000808587
0.00080859
0.000808591
0.000808586
0.000809378
0.000808994
0.000808677
0.000808419
0.000808211
0.000808045
0.000807914
0.000807811
0.000807733
0.000807674
0.000807632
0.000807604
0.000807587
0.00080758
0.00080758
0.000807586
0.000807596
0.00080761
0.000807626
0.000807644
0.000807663
0.000807682
0.000807702
0.000807721
0.00080774
0.000807759
0.000807777
0.000807793
0.000807809
0.000807824
0.000807838
0.00080785
0.000807862
0.000807872
0.000807881
0.00080789
0.000807897
0.000807903
0.000807908
0.000807912
0.000807915
0.000807917
0.000807919
0.000807919
0.000807918
0.000807917
0.000807915
0.000807912
0.000807908
0.000807903
0.000807896
0.000807886
0.000807871
0.000807618
0.000807303
0.000807048
0.000806845
0.000806688
0.000806568
0.000806478
0.000806414
0.000806369
0.000806341
0.000806327
0.000806323
0.000806327
0.000806338
0.000806354
0.000806374
0.000806395
0.000806418
0.000806442
0.000806465
0.000806487
0.000806508
0.000806528
0.000806546
0.000806563
0.000806577
0.000806589
0.000806599
0.000806607
0.000806613
0.000806617
0.000806619
0.000806619
0.000806617
0.000806613
0.000806607
0.0008066
0.000806591
0.000806579
0.000806567
0.000806553
0.000806537
0.000806519
0.000806501
0.00080648
0.000806459
0.000806436
0.000806412
0.000806387
0.00080636
0.00080633
0.000806298
0.000806261
0.000805373
0.000805122
0.000804924
0.000804773
0.000804661
0.000804582
0.000804528
0.000804495
0.000804478
0.000804474
0.00080448
0.000804494
0.000804513
0.000804536
0.00080456
0.000804586
0.000804611
0.000804636
0.000804659
0.000804679
0.000804697
0.000804712
0.000804723
0.000804732
0.000804737
0.000804738
0.000804736
0.000804731
0.000804723
0.000804711
0.000804696
0.000804678
0.000804656
0.000804632
0.000804605
0.000804576
0.000804543
0.000804509
0.000804471
0.000804431
0.000804389
0.000804345
0.000804298
0.000804249
0.000804198
0.000804145
0.00080409
0.000804033
0.000803974
0.000803913
0.000803849
0.000803782
0.000803709
0.000802591
0.0008024
0.000802256
0.000802151
0.00080208
0.000802035
0.000802011
0.000802004
0.000802009
0.000802023
0.000802043
0.000802067
0.000802094
0.000802121
0.000802147
0.000802171
0.000802193
0.000802211
0.000802225
0.000802235
0.00080224
0.000802241
0.000802236
0.000802226
0.000802211
0.000802191
0.000802166
0.000802136
0.000802102
0.000802063
0.000802019
0.000801972
0.00080192
0.000801864
0.000801804
0.00080174
0.000801673
0.000801602
0.000801527
0.000801449
0.000801368
0.000801284
0.000801197
0.000801106
0.000801013
0.000800917
0.000800817
0.000800716
0.000800611
0.000800503
0.000800392
0.000800276
0.000800155
0.000799209
0.000799076
0.00079898
0.000798917
0.000798881
0.000798866
0.000798867
0.00079888
0.0007989
0.000798925
0.000798953
0.000798981
0.000799007
0.000799031
0.000799051
0.000799067
0.000799077
0.000799081
0.000799079
0.00079907
0.000799054
0.00079903
0.000799
0.000798963
0.000798919
0.000798869
0.000798812
0.000798748
0.000798678
0.000798602
0.00079852
0.000798433
0.00079834
0.000798242
0.000798138
0.00079803
0.000797917
0.000797799
0.000797676
0.000797549
0.000797418
0.000797282
0.000797142
0.000796998
0.00079685
0.000796698
0.000796542
0.000796382
0.000796219
0.000796051
0.000795879
0.000795702
0.000795518
0.000795155
0.000795075
0.000795025
0.000794999
0.000794993
0.000795002
0.000795022
0.000795048
0.000795077
0.000795107
0.000795134
0.000795159
0.000795178
0.000795192
0.000795198
0.000795197
0.000795187
0.000795169
0.000795141
0.000795104
0.000795058
0.000795003
0.000794938
0.000794865
0.000794783
0.000794692
0.000794592
0.000794485
0.000794369
0.000794246
0.000794116
0.000793978
0.000793833
0.000793682
0.000793524
0.000793359
0.000793188
0.000793012
0.000792829
0.000792641
0.000792447
0.000792247
0.000792042
0.000791831
0.000791616
0.000791395
0.000791168
0.000790937
0.000790701
0.000790459
0.000790212
0.000789958
0.000789697
0.000790344
0.000790313
0.000790303
0.000790309
0.000790328
0.000790355
0.000790387
0.00079042
0.000790451
0.000790478
0.000790499
0.000790512
0.000790517
0.000790511
0.000790495
0.000790469
0.00079043
0.00079038
0.000790319
0.000790245
0.000790159
0.000790062
0.000789953
0.000789833
0.000789702
0.000789561
0.000789409
0.000789247
0.000789075
0.000788893
0.000788703
0.000788503
0.000788295
0.000788079
0.000787854
0.000787621
0.000787381
0.000787133
0.000786877
0.000786614
0.000786344
0.000786067
0.000785783
0.000785493
0.000785195
0.000784891
0.000784579
0.000784262
0.000783937
0.000783606
0.000783268
0.000782921
0.000782566
0.000784674
0.000784687
0.000784711
0.000784744
0.000784782
0.000784821
0.000784858
0.000784891
0.000784916
0.000784932
0.000784938
0.000784932
0.000784913
0.00078488
0.000784833
0.000784771
0.000784695
0.000784604
0.000784498
0.000784377
0.000784242
0.000784093
0.000783929
0.000783752
0.000783561
0.000783358
0.000783142
0.000782913
0.000782673
0.000782422
0.000782159
0.000781885
0.000781601
0.000781307
0.000781002
0.000780688
0.000780364
0.000780031
0.000779689
0.000779338
0.000778977
0.000778608
0.00077823
0.000777844
0.000777449
0.000777045
0.000776633
0.000776213
0.000775784
0.000775346
0.0007749
0.000774444
0.000773977
0.000778025
0.000778075
0.000778128
0.00077818
0.000778229
0.000778273
0.000778308
0.000778333
0.000778344
0.000778341
0.000778323
0.000778288
0.000778236
0.000778166
0.000778078
0.000777971
0.000777847
0.000777704
0.000777543
0.000777365
0.000777168
0.000776955
0.000776725
0.000776479
0.000776217
0.000775939
0.000775646
0.000775339
0.000775018
0.000774683
0.000774335
0.000773974
0.0007736
0.000773214
0.000772815
0.000772405
0.000771983
0.00077155
0.000771106
0.000770651
0.000770184
0.000769707
0.000769219
0.000768721
0.000768211
0.000767691
0.000767161
0.00076662
0.000766068
0.000765506
0.000764932
0.000764347
0.000763749
0.000770252
0.000770333
0.000770406
0.00077047
0.000770523
0.000770563
0.000770587
0.000770594
0.000770582
0.00077055
0.000770498
0.000770424
0.000770328
0.00077021
0.00077007
0.000769908
0.000769724
0.000769517
0.00076929
0.000769041
0.000768772
0.000768482
0.000768173
0.000767844
0.000767497
0.000767132
0.00076675
0.00076635
0.000765933
0.000765501
0.000765052
0.000764589
0.00076411
0.000763616
0.000763109
0.000762587
0.000762051
0.000761501
0.000760938
0.000760362
0.000759772
0.00075917
0.000758554
0.000757925
0.000757283
0.000756628
0.00075596
0.000755279
0.000754585
0.000753877
0.000753156
0.00075242
0.00075167
0.00076154
0.000761637
0.000761718
0.000761781
0.000761824
0.000761846
0.000761846
0.000761822
0.000761773
0.000761699
0.000761598
0.000761471
0.000761318
0.000761138
0.000760931
0.000760698
0.000760439
0.000760154
0.000759844
0.00075951
0.000759152
0.00075877
0.000758365
0.000757938
0.000757489
0.00075702
0.00075653
0.000756019
0.00075549
0.000754942
0.000754375
0.00075379
0.000753187
0.000752567
0.00075193
0.000751276
0.000750606
0.000749919
0.000749216
0.000748497
0.000747762
0.000747011
0.000746244
0.000745462
0.000744663
0.000743849
0.000743019
0.000742173
0.00074131
0.000740431
0.000739536
0.000738623
0.000737692
0.000751598
0.0007517
0.000751775
0.000751824
0.000751844
0.000751836
0.000751797
0.000751729
0.000751629
0.000751498
0.000751335
0.000751141
0.000750915
0.000750658
0.000750369
0.00075005
0.000749701
0.000749322
0.000748914
0.000748478
0.000748014
0.000747523
0.000747006
0.000746463
0.000745895
0.000745303
0.000744687
0.000744049
0.000743387
0.000742704
0.000741999
0.000741273
0.000740527
0.00073976
0.000738973
0.000738166
0.000737339
0.000736493
0.000735628
0.000734744
0.00073384
0.000732918
0.000731976
0.000731015
0.000730035
0.000729036
0.000728018
0.00072698
0.000725922
0.000724844
0.000723746
0.000722627
0.000721487
0.000739276
0.000739377
0.00073944
0.000739467
0.000739456
0.000739409
0.000739324
0.000739202
0.000739042
0.000738844
0.000738608
0.000738336
0.000738026
0.00073768
0.000737298
0.00073688
0.000736428
0.000735942
0.000735423
0.000734872
0.000734289
0.000733675
0.000733032
0.000732359
0.000731657
0.000730928
0.000730172
0.00072939
0.000728581
0.000727748
0.000726889
0.000726007
0.0007251
0.00072417
0.000723216
0.00072224
0.000721241
0.000720218
0.000719174
0.000718107
0.000717017
0.000715905
0.00071477
0.000713613
0.000712433
0.00071123
0.000710004
0.000708754
0.000707482
0.000706185
0.000704864
0.000703519
0.000702148
0.000723727
0.000723819
0.000723862
0.000723859
0.000723809
0.000723714
0.000723573
0.000723386
0.000723155
0.00072288
0.00072256
0.000722198
0.000721792
0.000721345
0.000720857
0.000720329
0.000719762
0.000719156
0.000718512
0.000717833
0.000717117
0.000716367
0.000715583
0.000714767
0.000713918
0.000713038
0.000712127
0.000711187
0.000710217
0.000709219
0.000708193
0.000707139
0.000706057
0.000704949
0.000703814
0.000702653
0.000701466
0.000700252
0.000699013
0.000697747
0.000696456
0.000695138
0.000693795
0.000692425
0.000691029
0.000689606
0.000688156
0.000686679
0.000685175
0.000683642
0.000682082
0.000680493
0.000678874
0.000704012
0.00070409
0.000704109
0.000704071
0.000703977
0.000703829
0.000703627
0.000703372
0.000703065
0.000702707
0.000702299
0.000701841
0.000701336
0.000700784
0.000700185
0.000699542
0.000698855
0.000698125
0.000697354
0.000696542
0.000695691
0.000694801
0.000693874
0.000692911
0.000691913
0.00069088
0.000689813
0.000688713
0.000687581
0.000686417
0.000685221
0.000683995
0.000682739
0.000681453
0.000680138
0.000678792
0.000677418
0.000676014
0.000674582
0.00067312
0.000671629
0.000670109
0.00066856
0.000666981
0.000665373
0.000663734
0.000662065
0.000660365
0.000658635
0.000656873
0.000655078
0.000653252
0.000651392
0.000678818
0.000678884
0.000678882
0.000678814
0.000678682
0.000678486
0.000678229
0.000677913
0.000677538
0.000677106
0.000676618
0.000676076
0.000675481
0.000674834
0.000674137
0.000673392
0.000672599
0.000671759
0.000670875
0.000669948
0.000668977
0.000667966
0.000666915
0.000665825
0.000664696
0.000663531
0.00066233
0.000661093
0.000659822
0.000658517
0.000657179
0.000655808
0.000654404
0.000652969
0.000651502
0.000650003
0.000648473
0.000646912
0.00064532
0.000643697
0.000642043
0.000640357
0.00063864
0.000636891
0.000635111
0.000633298
0.000631453
0.000629575
0.000627664
0.000625719
0.000623739
0.000621725
0.000619675
0.000645602
0.000645664
0.000645649
0.000645562
0.000645402
0.000645174
0.000644878
0.000644517
0.000644093
0.000643608
0.000643062
0.000642459
0.000641799
0.000641085
0.000640317
0.000639499
0.00063863
0.000637714
0.00063675
0.000635741
0.000634689
0.000633594
0.000632457
0.00063128
0.000630065
0.000628811
0.00062752
0.000626194
0.000624832
0.000623435
0.000622004
0.000620541
0.000619044
0.000617514
0.000615953
0.00061436
0.000612735
0.000611079
0.000609391
0.000607672
0.000605922
0.00060414
0.000602326
0.00060048
0.000598603
0.000596693
0.00059475
0.000592775
0.000590766
0.000588723
0.000586646
0.000584534
0.000582386
0.000600095
0.000600168
0.00060016
0.000600075
0.000599915
0.000599684
0.000599382
0.000599013
0.000598579
0.000598082
0.000597523
0.000596906
0.000596232
0.000595503
0.000594721
0.000593888
0.000593005
0.000592074
0.000591097
0.000590076
0.000589011
0.000587905
0.000586758
0.000585573
0.00058435
0.00058309
0.000581794